A-SYNC WITH FASUDIL
35315
  121NASP     N    1   2.630   3.094   0.108  0.3192 -0.1832 -0.5663
  121NASP    H1    2   2.641   3.047   0.197  2.5662  1.4751  0.1286
  121NASP    H2    3   2.705   3.064   0.047 -0.3885 -3.4547 -0.0379
  121NASP    H3    4   2.543   3.074   0.061 -0.5067  3.6325 -0.9861
  121NASP    CA    5   2.648   3.239   0.132 -0.1512  0.3315  0.1305
  121NASP    HA    6   2.569   3.272   0.200 -0.2422 -0.5721  0.4771
  121NASP    CB    7   2.779   3.269   0.204 -0.0187  0.5507  0.5617
  121NASP   HB1    8   2.756   3.264   0.310  1.1220 -2.2765  0.7636
  121NASP   HB2    9   2.797   3.374   0.180 -1.1183  0.4247 -0.9441
  121NASP    CG   10   2.904   3.184   0.157  0.7578  0.4900  0.6578
  121NASP   OD1   11   2.891   3.101   0.062  0.5567 -0.4434  0.0080
  121NASP   OD2   12   3.020   3.196   0.211  0.4355  0.0256 -0.3478
  121NASP     C   13   2.635   3.312  -0.007 -0.3799  0.0610 -0.1721
  121NASP     O   14   2.652   3.254  -0.119  0.1701  0.3957 -0.7313
  122ASN      N   15   2.576   3.432  -0.001  0.1645 -0.1629 -0.2630
  122ASN      H   16   2.561   3.486   0.084 -1.4767 -0.9604  0.0007
  122ASN     CA   17   2.563   3.513  -0.120 -0.5440 -0.4086  0.7806
  122ASN     HA   18   2.511   3.458  -0.199 -1.4768  2.2433 -0.5784
  122ASN     CB   19   2.482   3.639  -0.091 -0.1965  0.7418  0.6315
  122ASN    HB1   20   2.476   3.697  -0.183 -0.2054 -1.7202 -1.0243
  122ASN    HB2   21   2.542   3.697  -0.021  1.9016 -1.2475  0.6042
  122ASN     CG   22   2.348   3.607  -0.033 -0.8592 -0.0925  0.2491
  122ASN    OD1   23   2.279   3.519  -0.080  0.5205 -0.6572 -0.5361
  122ASN    ND2   24   2.313   3.680   0.067 -0.0555  0.3993 -0.5637
  122ASN   HD21   25   2.224   3.662   0.111 -1.7587  0.2400 -3.7730
  122ASN   HD22   26   2.383   3.737   0.111 -0.6673  0.9374 -0.2747
  122ASN      C   27   2.701   3.554  -0.182  0.2877 -0.5090  0.6840
  122ASN      O   28   2.802   3.556  -0.113  0.1188  0.3859  0.2477
  123GLU      N   29   2.702   3.583  -0.311  0.4561  0.4066  0.6839
  123GLU      H   30   2.614   3.574  -0.359  0.8885 -0.9058  0.1007
  123GLU     CA   31   2.826   3.604  -0.391  0.8061  0.1705  0.1244
  123GLU     HA   32   2.909   3.617  -0.321  1.4250 -0.8192 -0.3994
  123GLU     CB   33   2.864   3.477  -0.475  0.0943  0.2059 -0.4610
  123GLU    HB1   34   2.775   3.449  -0.532  0.4546  0.3247 -1.0862
  123GLU    HB2   35   2.891   3.401  -0.402  0.0338  0.9182  0.3133
  123GLU     CG   36   2.971   3.474  -0.582  0.2740  0.6644 -0.1626
  123GLU    HG1   37   2.958   3.560  -0.648 -0.5031 -0.7140 -1.8997
  123GLU    HG2   38   2.959   3.378  -0.632 -1.0740  1.0913 -0.6916
  123GLU     CD   39   3.111   3.464  -0.523 -0.2210  0.2764 -0.1518
  123GLU    OE1   40   3.197   3.413  -0.595  0.1240 -0.1227  0.4806
  123GLU    OE2   41   3.143   3.513  -0.410  0.2525  0.4657  0.3824
  123GLU      C   42   2.812   3.728  -0.477 -0.5447  0.3758  0.2513
  123GLU      O   43   2.701   3.761  -0.522  0.1282  0.7492 -0.1138
  124ALA      N   44   2.924   3.801  -0.504 -0.2770 -0.0210 -0.8735
  124ALA      H   45   3.014   3.768  -0.471 -0.3413  0.4048 -0.2364
  124ALA     CA   46   2.922   3.923  -0.580 -0.1114 -0.0134  0.2274
  124ALA     HA   47   2.841   3.988  -0.546 -1.8984 -1.8956 -0.2504
  124ALA     CB   48   3.045   4.006  -0.556  0.0604 -0.9008  0.8798
  124ALA    HB1   49   3.076   4.012  -0.452  0.5400 -0.6367  0.7260
  124ALA    HB2   50   3.041   4.107  -0.596 -0.0751 -1.0146  0.6023
  124ALA    HB3   51   3.131   3.954  -0.598  0.8721  1.1301 -0.0951
  124ALA      C   52   2.900   3.893  -0.728  0.7295  0.5626  0.9727
  124ALA      O   53   2.936   3.784  -0.774  0.4117  0.7736 -0.2614
  125TYR      N   54   2.849   3.992  -0.805  0.2254  0.0208 -0.1164
  125TYR      H   55   2.834   4.084  -0.766 -1.9844 -0.4501  0.3185
  125TYR     CA   56   2.812   3.971  -0.950 -0.4064  0.2609  0.5734
  125TYR     HA   57   2.782   3.868  -0.967  1.6348 -0.3306  0.2659
  125TYR     CB   58   2.690   4.061  -0.987  0.5071 -0.1024  0.0282
  125TYR    HB1   59   2.644   4.026  -1.079  1.0217  0.5128 -0.4659
  125TYR    HB2   60   2.727   4.162  -1.001  0.2611  0.2125  1.4573
  125TYR     CG   61   2.590   4.077  -0.877 -0.7852  0.3080 -0.3416
  125TYR    CD1   62   2.520   3.966  -0.822 -0.0446 -0.9909  0.4081
  125TYR    HD1   63   2.550   3.868  -0.854  1.8364 -0.2673 -0.2120
  125TYR    CE1   64   2.425   3.994  -0.727  0.0109 -0.2350 -0.4359
  125TYR    HE1   65   2.372   3.912  -0.681 -0.1674 -1.1481 -2.1803
  125TYR     CZ   66   2.405   4.120  -0.675 -0.3420 -0.1564 -0.2925
  125TYR     OH   67   2.324   4.136  -0.576  0.5070  0.3181 -0.3849
  125TYR     HH   68   2.329   4.064  -0.512  0.0708 -0.6194 -1.3962
  125TYR    CE2   69   2.471   4.227  -0.735 -0.1938  0.2302  0.1807
  125TYR    HE2   70   2.449   4.329  -0.706 -0.1447  0.1636  0.4570
  125TYR    CD2   71   2.570   4.208  -0.832  0.6292  0.0246  0.6002
  125TYR    HD2   72   2.623   4.292  -0.872  0.8326  0.4872  1.8061
  125TYR      C   73   2.927   3.992  -1.057  0.1478 -0.5065 -0.0060
  125TYR      O   74   3.023   4.070  -1.023  0.1598  0.2665  0.3540
  126GLU      N   75   2.916   3.921  -1.169 -0.0631  0.2351 -0.2936
  126GLU      H   76   2.860   3.838  -1.160  0.0685  0.2343  0.6291
  126GLU     CA   77   3.019   3.909  -1.271  0.0577 -0.6015 -0.0159
  126GLU     HA   78   3.090   3.989  -1.249 -1.7694  0.6932  1.5531
  126GLU     CB   79   3.082   3.769  -1.254 -0.5435 -0.2842  0.1312
  126GLU    HB1   80   3.138   3.753  -1.346 -2.4515  0.9348 -1.3103
  126GLU    HB2   81   3.011   3.689  -1.238 -1.9780  1.0857  0.9604
  126GLU     CG   82   3.171   3.760  -1.130 -0.4301  0.0772  0.9291
  126GLU    HG1   83   3.104   3.764  -1.043 -0.2487  2.9040  1.0316
  126GLU    HG2   84   3.247   3.837  -1.132  1.6776 -1.8878  1.4808
  126GLU     CD   85   3.239   3.619  -1.139 -0.0886 -0.7028  0.0885
  126GLU    OE1   86   3.251   3.543  -1.045 -0.3695 -0.2220  0.1038
  126GLU    OE2   87   3.294   3.589  -1.248 -0.1806 -0.0534 -0.0942
  126GLU      C   88   2.966   3.941  -1.417 -0.0815 -0.8437  0.3103
  126GLU      O   89   3.053   3.977  -1.491 -0.3673  0.7846 -0.2860
  127MET      N   90   2.836   3.934  -1.439  0.3129 -0.1687  0.4846
  127MET      H   91   2.784   3.894  -1.362  0.7453 -1.3182  0.2078
  127MET     CA   92   2.766   3.987  -1.554 -0.5622 -0.6655  0.7265
  127MET     HA   93   2.822   3.947  -1.639 -2.1495 -0.1824 -0.6085
  127MET     CB   94   2.609   3.952  -1.550 -0.2559  0.3765  0.6934
  127MET    HB1   95   2.555   4.019  -1.618 -0.2327 -0.3161 -0.0236
  127MET    HB2   96   2.574   3.965  -1.448  2.9062 -1.0556  2.0677
  127MET     CG   97   2.578   3.808  -1.599 -0.4340  0.6140  0.3997
  127MET    HG1   98   2.650   3.779  -1.675  0.0071  2.1417  0.2065
  127MET    HG2   99   2.482   3.814  -1.650 -0.6415 -0.5130  0.6342
  127MET     SD  100   2.578   3.679  -1.475  0.0710 -0.1102  0.3046
  127MET     CE  101   2.414   3.612  -1.506 -0.0679 -0.1821 -0.1429
  127MET    HE1  102   2.342   3.685  -1.470 -0.1687  0.2028 -1.0975
  127MET    HE2  103   2.406   3.511  -1.467 -1.0979 -0.2593 -0.5194
  127MET    HE3  104   2.393   3.594  -1.612 -1.4935 -1.4921  0.3274
  127MET      C  105   2.781   4.141  -1.551 -1.0326  0.0791 -0.2925
  127MET      O  106   2.770   4.202  -1.444 -0.3058 -0.5090  0.2330
  128PRO      N  107   2.801   4.206  -1.666 -0.2600  0.0516  0.0103
  128PRO     CD  108   2.801   4.143  -1.799  0.0249 -0.0704 -0.1257
  128PRO    HD1  109   2.724   4.066  -1.802 -0.7171  0.4679  2.4573
  128PRO    HD2  110   2.898   4.097  -1.813  0.5908  0.7893  0.8927
  128PRO     CG  111   2.758   4.254  -1.899 -0.1595  0.8422  0.0128
  128PRO    HG1  112   2.650   4.258  -1.903 -0.1993 -0.5765 -1.1610
  128PRO    HG2  113   2.802   4.250  -1.999 -3.4965  0.1841 -1.5751
  128PRO     CB  114   2.813   4.381  -1.830  0.3897 -0.2584  0.4483
  128PRO    HB1  115   2.921   4.391  -1.842  0.4777 -1.1963  0.3199
  128PRO    HB2  116   2.753   4.469  -1.851 -1.5344 -1.8989 -1.3965
  128PRO     CA  117   2.797   4.355  -1.683 -0.1499 -0.7863 -0.0499
  128PRO     HA  118   2.883   4.398  -1.631  0.8000 -2.1600 -0.4353
  128PRO      C  119   2.667   4.416  -1.624 -0.0601  0.3130  1.0738
  128PRO      O  120   2.569   4.343  -1.630  0.1272  0.2861 -0.2212
  129SER      N  121   2.668   4.540  -1.579  0.6945 -0.2114 -0.0293
  129SER      H  122   2.753   4.594  -1.586  0.0147  0.6828 -2.6822
  129SER     CA  123   2.549   4.601  -1.525  1.0339  0.3854  0.6191
  129SER     HA  124   2.483   4.526  -1.481  2.9740 -1.0981  1.1364
  129SER     CB  125   2.573   4.691  -1.408 -1.3471 -0.9875 -0.2228
  129SER    HB1  126   2.613   4.635  -1.323 -2.8137 -1.0955  0.4100
  129SER    HB2  127   2.483   4.736  -1.366 -0.1905 -0.2411  1.5881
  129SER     OG  128   2.660   4.793  -1.438 -0.1390 -0.4156 -0.0791
  129SER    HG1  129   2.678   4.836  -1.354 -0.5644 -2.5494  1.1936
  129SER      C  130   2.466   4.666  -1.640  0.4253  1.0592  0.5406
  129SER      O  131   2.520   4.709  -1.741  0.2104  0.0175 -0.5887
  130GLU      N  132   2.335   4.669  -1.623  0.0507  0.8759 -0.0860
  130GLU      H  133   2.292   4.636  -1.538 -1.9302 -0.4647 -1.5178
  130GLU     CA  134   2.238   4.723  -1.719 -0.2283 -0.2428  0.1243
  130GLU     HA  135   2.287   4.801  -1.777 -2.2651 -0.3197 -1.8496
  130GLU     CB  136   2.187   4.617  -1.809  0.2153  0.6748  0.6072
  130GLU    HB1  137   2.124   4.670  -1.881  2.3628  1.3917 -0.8404
  130GLU    HB2  138   2.116   4.559  -1.750  0.8673 -0.0992  0.6360
  130GLU     CG  139   2.289   4.529  -1.878  0.9448 -1.0267  0.1227
  130GLU    HG1  140   2.356   4.480  -1.808 -0.7934 -0.0191  2.6696
  130GLU    HG2  141   2.345   4.595  -1.944 -3.6709  1.3267 -1.9699
  130GLU     CD  142   2.222   4.428  -1.972 -0.0403  0.7735 -0.0644
  130GLU    OE1  143   2.294   4.352  -2.039  0.1195 -0.1765 -0.4099
  130GLU    OE2  144   2.094   4.420  -1.977 -0.1349 -0.0037  1.0434
  130GLU      C  145   2.121   4.793  -1.647 -0.0127 -0.5116 -0.5556
  130GLU      O  146   2.105   4.772  -1.525  0.1050 -0.2793  0.0911
  131GLU      N  147   2.038   4.877  -1.715 -0.1084  0.5679  0.1087
  131GLU      H  148   2.059   4.886  -1.813  1.4893 -2.4370  0.0445
  131GLU     CA  149   1.915   4.931  -1.667  0.0087 -0.0842 -0.1837
  131GLU     HA  150   1.920   4.946  -1.559 -0.7797 -0.4253 -0.0951
  131GLU     CB  151   1.884   5.065  -1.743 -0.2722 -0.0489 -0.1423
  131GLU    HB1  152   1.885   5.064  -1.852 -1.8528  2.3873 -0.2644
  131GLU    HB2  153   1.961   5.141  -1.729  0.1192 -0.2205 -1.2422
  131GLU     CG  154   1.754   5.121  -1.693  0.6969 -1.0837 -0.0851
  131GLU    HG1  155   1.740   5.104  -1.586  2.1570 -4.3993 -0.3092
  131GLU    HG2  156   1.674   5.078  -1.753  1.8416 -0.5098 -2.1082
  131GLU     CD  157   1.740   5.266  -1.726 -0.1730 -0.2725  0.5272
  131GLU    OE1  158   1.804   5.325  -1.820 -0.2046  0.1062  0.1009
  131GLU    OE2  159   1.652   5.331  -1.669 -0.0214  0.5855  0.2780
  131GLU      C  160   1.802   4.825  -1.687 -0.4784  0.4531  0.3499
  131GLU      O  161   1.736   4.825  -1.791 -0.2056 -0.4236  0.2512
  132GLY      N  162   1.779   4.737  -1.589  0.3083  0.1148 -0.0633
  132GLY      H  163   1.854   4.731  -1.521  0.8285 -1.9750 -0.7345
  132GLY     CA  164   1.692   4.620  -1.597 -0.1560 -0.1267 -0.1302
  132GLY    HA1  165   1.691   4.585  -1.701  1.4180  2.0612 -0.9434
  132GLY    HA2  166   1.590   4.653  -1.579 -0.7967 -1.5966 -0.8319
  132GLY      C  167   1.713   4.497  -1.499  0.6146 -0.4740 -0.3828
  132GLY      O  168   1.799   4.507  -1.418  0.1457 -0.2995  0.7213
  133TYR      N  169   1.637   4.391  -1.521  0.2051  0.2302 -0.0377
  133TYR      H  170   1.568   4.404  -1.593  0.9339  0.8946 -0.6405
  133TYR     CA  171   1.661   4.259  -1.461  0.9902  0.7607 -0.2019
  133TYR     HA  172   1.679   4.258  -1.353  0.6822 -0.0074 -0.1457
  133TYR     CB  173   1.546   4.159  -1.491 -0.4008  0.3778 -1.2641
  133TYR    HB1  174   1.572   4.061  -1.451 -0.6482  0.1835 -1.5751
  133TYR    HB2  175   1.535   4.159  -1.599 -0.9656  0.5653 -1.2083
  133TYR     CG  176   1.426   4.201  -1.418  0.0682 -0.4354  0.1007
  133TYR    CD1  177   1.325   4.268  -1.496  0.2389 -0.1908 -0.2553
  133TYR    HD1  178   1.337   4.283  -1.602 -2.1866 -1.6066 -0.7934
  133TYR    CE1  179   1.207   4.308  -1.434  0.2212  0.6698 -0.1705
  133TYR    HE1  180   1.129   4.349  -1.496 -0.5783 -0.4477  0.0524
  133TYR     CZ  181   1.177   4.274  -1.300  0.4644  0.4785 -0.5992
  133TYR     OH  182   1.063   4.302  -1.231  0.2077 -0.6382  0.6947
  133TYR     HH  183   0.998   4.345  -1.287 -0.6153  0.0234  2.0910
  133TYR    CE2  184   1.276   4.208  -1.225  0.1474  0.0982  0.0206
  133TYR    HE2  185   1.265   4.197  -1.118 -0.4223 -1.8068 -0.2014
  133TYR    CD2  186   1.403   4.177  -1.282  0.2160  0.1579 -0.4483
  133TYR    HD2  187   1.479   4.138  -1.217 -1.6149 -2.4126  0.3264
  133TYR      C  188   1.784   4.187  -1.513  0.2824  0.3482 -0.5040
  133TYR      O  189   1.812   4.196  -1.634  0.2257  0.4085 -0.5598
  134GLN      N  190   1.857   4.109  -1.431  0.0069  0.4188 -0.2651
  134GLN      H  191   1.836   4.105  -1.333  5.0211  0.7444  1.0834
  134GLN     CA  192   1.978   4.036  -1.469  0.3204 -0.2463 -0.3625
  134GLN     HA  193   1.975   4.015  -1.576  0.0816  1.8283 -0.8043
  134GLN     CB  194   2.099   4.127  -1.445 -0.1126  0.5032 -0.5222
  134GLN    HB1  195   2.172   4.077  -1.509 -0.6921  0.8490 -1.4733
  134GLN    HB2  196   2.121   4.121  -1.338  1.9215 -2.1026 -0.9783
  134GLN     CG  197   2.094   4.273  -1.502 -0.1285  0.8683 -0.3518
  134GLN    HG1  198   2.026   4.333  -1.440 -0.8539 -3.0766  3.1767
  134GLN    HG2  199   2.062   4.264  -1.606  2.0512 -0.0094 -0.9903
  134GLN     CD  200   2.236   4.327  -1.512  0.7363  0.0737  1.0097
  134GLN    OE1  201   2.287   4.403  -1.430  0.3754  0.1047  0.6694
  134GLN    NE2  202   2.314   4.269  -1.602 -0.3990 -0.0965 -0.2183
  134GLN   HE21  203   2.407   4.309  -1.607 -0.3500 -0.3385 -1.8597
  134GLN   HE22  204   2.297   4.190  -1.661 -0.3426 -0.7988  0.6863
  134GLN      C  205   1.984   3.899  -1.400  0.3762 -0.1536 -0.5352
  134GLN      O  206   1.919   3.873  -1.295  0.2363 -0.4778  0.1896
  135ASP      N  207   2.059   3.807  -1.464 -0.9592 -0.6090 -0.2769
  135ASP      H  208   2.111   3.842  -1.543 -0.1376  1.1515  0.9973
  135ASP     CA  209   2.016   3.671  -1.468  0.0324 -0.2636  0.0113
  135ASP     HA  210   1.916   3.667  -1.425  0.8278 -0.3303  1.9946
  135ASP     CB  211   1.995   3.625  -1.614  0.5105  0.2456  0.4202
  135ASP    HB1  212   2.089   3.603  -1.664 -0.3446 -0.6009 -0.9017
  135ASP    HB2  213   1.944   3.707  -1.664 -1.8686 -1.2064  0.2622
  135ASP     CG  214   1.924   3.494  -1.627  0.4710  0.9222  0.1910
  135ASP    OD1  215   1.892   3.418  -1.531 -0.0793  0.5143  0.1499
  135ASP    OD2  216   1.915   3.437  -1.744 -0.1422 -0.2077 -0.5705
  135ASP      C  217   2.110   3.581  -1.385  0.1119 -0.0723  0.8360
  135ASP      O  218   2.162   3.474  -1.422  0.7797  0.1687  0.0933
  136TYR      N  219   2.131   3.633  -1.264 -0.4523 -0.4057  0.4960
  136TYR      H  220   2.088   3.722  -1.246 -0.3539  0.5035 -3.0490
  136TYR     CA  221   2.221   3.577  -1.160  0.8905 -0.0074 -0.3340
  136TYR     HA  222   2.323   3.567  -1.198  1.8796  0.2921  2.0462
  136TYR     CB  223   2.226   3.671  -1.038 -0.0790  0.5413 -0.9794
  136TYR    HB1  224   2.311   3.635  -0.982  0.8720  0.9569 -2.1082
  136TYR    HB2  225   2.137   3.655  -0.977  0.9285 -2.2711 -0.0717
  136TYR     CG  226   2.243   3.818  -1.070 -0.0657  0.0364  0.1809
  136TYR    CD1  227   2.337   3.861  -1.162  0.2113 -0.2844 -0.1861
  136TYR    HD1  228   2.397   3.792  -1.219  2.0928  0.9073  0.2646
  136TYR    CE1  229   2.373   4.000  -1.176 -0.1717 -0.3167 -0.2663
  136TYR    HE1  230   2.462   4.032  -1.228  0.1926  0.1304  0.5999
  136TYR     CZ  231   2.304   4.093  -1.099 -0.3314  0.6896 -0.4107
  136TYR     OH  232   2.332   4.222  -1.114 -0.0728 -0.2633  0.2096
  136TYR     HH  233   2.411   4.234  -1.167  0.5283  0.0033  1.1406
  136TYR    CE2  234   2.196   4.048  -1.015  0.4839 -0.5226 -0.4849
  136TYR    HE2  235   2.147   4.121  -0.952  2.5401  1.6031 -1.2416
  136TYR    CD2  236   2.165   3.912  -0.996 -0.2342  0.2485 -0.4267
  136TYR    HD2  237   2.082   3.880  -0.935  0.6100 -1.4573 -0.0990
  136TYR      C  238   2.182   3.433  -1.121  0.5657 -0.2257 -0.2208
  136TYR      O  239   2.065   3.413  -1.086  0.1447  0.2008 -0.1352
  137GLU      N  240   2.278   3.330  -1.123  0.2819 -0.8235 -0.2479
  137GLU      H  241   2.373   3.351  -1.150  0.6360 -0.4879  1.1863
  137GLU     CA  242   2.257   3.189  -1.095  0.3508 -0.0091 -0.5962
  137GLU     HA  243   2.176   3.148  -1.156  1.8442 -2.2978 -1.1600
  137GLU     CB  244   2.379   3.107  -1.135 -0.2359  0.3530  0.5335
  137GLU    HB1  245   2.459   3.121  -1.063  2.5265  0.1393 -2.2655
  137GLU    HB2  246   2.415   3.143  -1.231 -1.1021 -0.0137  0.0523
  137GLU     CG  247   2.349   2.957  -1.144 -0.0193 -0.5551 -0.1868
  137GLU    HG1  248   2.311   2.928  -1.242  0.6086  0.1316 -0.6502
  137GLU    HG2  249   2.284   2.937  -1.058 -0.0197 -0.8959 -0.2668
  137GLU     CD  250   2.475   2.867  -1.136 -0.0842 -0.6384 -0.4556
  137GLU    OE1  251   2.467   2.752  -1.094  0.2609 -0.2836  0.4237
  137GLU    OE2  252   2.586   2.912  -1.163 -0.3721 -0.3746 -0.7573
  137GLU      C  253   2.213   3.176  -0.948  0.8088  0.5435  1.7649
  137GLU      O  254   2.283   3.224  -0.863 -0.0512  0.4354  0.3132
  138PRO      N  255   2.108   3.102  -0.915  0.1414  1.1621  0.3944
  138PRO     CD  256   2.021   3.028  -1.002  0.9808  0.5127  0.0613
  138PRO    HD1  257   2.063   2.927  -1.008  1.0820  0.6219 -2.6786
  138PRO    HD2  258   2.000   3.076  -1.098 -0.7755 -2.2051 -1.0490
  138PRO     CG  259   1.883   3.016  -0.938 -0.1033  0.1302  0.0260
  138PRO    HG1  260   1.831   2.930  -0.980  0.5672 -1.8124  2.9137
  138PRO    HG2  261   1.824   3.106  -0.956 -2.3032 -0.7267  2.2407
  138PRO     CB  262   1.928   2.996  -0.795 -0.0785  0.4617  0.1810
  138PRO    HB1  263   1.845   3.025  -0.730 -0.3378  1.5868 -0.6147
  138PRO    HB2  264   1.949   2.890  -0.787 -1.1299 -0.1340 -3.1681
  138PRO     CA  265   2.057   3.075  -0.779  0.0992  0.1133  0.2412
  138PRO     HA  266   2.029   3.173  -0.739  1.5206 -0.5240  3.0955
  138PRO      C  267   2.156   3.006  -0.688 -0.3544 -0.0976 -0.4271
  138PRO      O  268   2.238   2.925  -0.737 -0.6088  0.3386  0.1465
  139GLU      N  269   2.155   3.034  -0.554  0.3944 -0.5317 -0.0115
  139GLU      H  270   2.081   3.095  -0.523 -0.6781 -1.7461 -0.1020
  139GLU     CA  271   2.233   2.949  -0.451  0.7344 -0.7844 -0.6050
  139GLU     HA  272   2.335   2.984  -0.462  1.4112 -1.9008  1.5530
  139GLU     CB  273   2.191   2.994  -0.307 -0.6671 -0.1904  0.4616
  139GLU    HB1  274   2.088   2.966  -0.286 -0.5250 -1.9513 -0.8711
  139GLU    HB2  275   2.194   3.102  -0.322  0.9764 -0.3886 -1.1594
  139GLU     CG  276   2.288   2.954  -0.195  0.1309 -0.3275 -0.0832
  139GLU    HG1  277   2.387   2.962  -0.241  0.3622  0.0707  0.4669
  139GLU    HG2  278   2.270   2.852  -0.161 -1.8679  0.7394  2.3647
  139GLU     CD  279   2.290   3.047  -0.075  0.2949  0.5264  0.4649
  139GLU    OE1  280   2.365   3.022   0.019 -0.6757 -0.3782 -0.1238
  139GLU    OE2  281   2.219   3.150  -0.073 -0.6338  0.4729 -0.0136
  139GLU      C  282   2.218   2.800  -0.477  0.0794  0.5698 -0.4666
  139GLU      O  283   2.116   2.747  -0.509 -0.5731 -0.4693  0.2731
  140CALA     N  284   2.325   2.731  -0.435  0.6174  0.0141 -0.1588
  140CALA     H  285   2.397   2.788  -0.393  0.7852 -1.9527  2.4736
  140CALA    CA  286   2.355   2.586  -0.439  0.0669 -0.1258 -0.4925
  140CALA    HA  287   2.257   2.540  -0.449  0.1192 -0.8496  1.7972
  140CALA    CB  288   2.446   2.564  -0.554 -0.1156  0.0088  0.4426
  140CALA   HB1  289   2.552   2.587  -0.541  0.3879 -0.5583 -2.0748
  140CALA   HB2  290   2.410   2.603  -0.650  0.5850  0.5522  0.3939
  140CALA   HB3  291   2.447   2.456  -0.574 -0.2136 -0.2013  1.5215
  140CALA     C  292   2.411   2.552  -0.300  0.5723 -0.2051  0.0640
  140CALA   OC1  293   2.523   2.600  -0.273  0.1823 -0.6879 -0.3043
  140CALA   OC2  294   2.341   2.489  -0.219 -0.2001  0.6592 -0.7862
  141FAS      C  295   2.256   2.921   4.754 -0.6031 -0.0399 -0.1695
  141FAS     C1  296   2.316   2.786   4.790 -0.5577  0.4791 -0.2607
  141FAS      N  297   2.409   2.724   4.691  0.3226  0.7774  0.0807
  141FAS     C2  298   2.337   2.671   4.572  0.0182  0.7498  0.3467
  141FAS     C3  299   2.237   2.756   4.498 -0.1349 -0.2022  0.1517
  141FAS     N1  300   2.117   2.785   4.584  0.0531  0.2396  0.2652
  141FAS     C4  301   2.144   2.916   4.650  0.0127 -0.1594  0.4563
  141FAS      S  302   1.968   2.801   4.503  0.2102 -0.2890 -0.5549
  141FAS      O  303   1.956   2.921   4.418  0.5884  0.4577  0.4691
  141FAS     O1  304   1.955   2.663   4.458 -0.8489  0.2195  0.2949
  141FAS     C5  305   1.849   2.802   4.634 -0.0440  0.3742  0.1365
  141FAS     C6  306   1.740   2.896   4.625  0.0878 -0.1006  0.0674
  141FAS     C7  307   1.643   2.910   4.724  0.1238  0.3204 -0.3633
  141FAS     C8  308   1.662   2.848   4.847  0.1254  0.1817  0.4469
  141FAS     C9  309   1.756   2.745   4.860  0.1723  0.6513  0.5110
  141FAS    C10  310   1.850   2.717   4.751  0.0633 -0.2283 -0.0065
  141FAS    C11  311   1.941   2.611   4.770  0.4162 -0.0168 -0.4433
  141FAS    C12  312   1.932   2.540   4.890  0.3792 -0.2414  0.5077
  141FAS     N2  313   1.844   2.564   4.987 -0.2664  0.4421 -0.0071
  141FAS    C13  314   1.754   2.663   4.974 -0.0278 -0.5118  0.1124
  141FAS      H  315   2.336   2.987   4.719 -0.6273  1.6184  2.6549
  141FAS     H1  316   2.204   2.971   4.837 -2.3743  2.8281 -2.7898
  141FAS     H2  317   2.238   2.712   4.809  0.3347 -0.1185  1.2674
  141FAS     H3  318   2.367   2.792   4.886 -1.6497  2.2629  0.2520
  141FAS     H4  319   2.478   2.796   4.665 -0.7236  1.8974  0.2737
  141FAS     H5  320   2.279   2.586   4.608 -0.5529  0.8265 -0.3594
  141FAS     H6  321   2.416   2.631   4.508  0.6821  0.4091  1.3529
  141FAS     H7  322   2.207   2.703   4.407 -2.7854  1.6794 -0.1900
  141FAS     H8  323   2.291   2.845   4.462  2.2375 -1.4789  0.3435
  141FAS     H9  324   2.059   2.957   4.706  0.5025 -0.3183  1.3462
  141FAS    H10  325   2.165   2.994   4.576 -3.1011  0.9993  0.6493
  141FAS    H11  326   1.728   2.957   4.536 -1.7009 -1.1708 -0.4832
  141FAS    H12  327   1.569   2.986   4.698  0.5531  0.8575 -0.0227
  141FAS    H13  328   1.588   2.863   4.925 -1.5231  0.9421 -1.1879
  141FAS    H14  329   2.015   2.576   4.699  2.3267  1.4828  0.7219
  141FAS    H15  330   1.996   2.458   4.921 -0.8261 -0.7512  1.7292
  141FAS    H16  331   1.681   2.676   5.054 -0.6242  0.4073 -0.5674
  141FAS    H17  332   2.469   2.649   4.729  1.0529  2.2181  1.9149
  142SOL     OW  333   5.123   1.792   0.169  0.0506 -0.2609  0.2813
  142SOL    HW2  334   5.164   1.737   0.235  1.1915  0.3847  0.1437
  142SOL    HW3  335   5.194   1.847   0.137 -0.6049 -0.1818 -1.0913
  142SOL    MW4  336   5.138   1.792   0.174  0.1146 -0.1653  0.0820
  143SOL     OW  337   1.713   3.738   5.273  0.0164 -0.5236  0.0035
  143SOL    HW2  338   1.670   3.692   5.201 -1.5157  0.8327 -0.0036
  143SOL    HW3  339   1.780   3.792   5.232 -0.1846 -0.5014 -0.2932
  143SOL    MW4  340   1.716   3.739   5.258 -0.2123 -0.3417 -0.0366
  144SOL     OW  341   1.579   3.224   0.568 -0.2278  0.1909  0.0491
  144SOL    HW2  342   1.588   3.287   0.497 -0.6124 -0.4681 -0.5940
  144SOL    HW3  343   1.661   3.231   0.617  1.0821 -0.9834 -1.8290
  144SOL    MW4  344   1.591   3.233   0.565 -0.1057 -0.0510 -0.2835
  145SOL     OW  345   4.382   0.142   5.553 -0.6036  0.1613  0.3839
  145SOL    HW2  346   4.451   0.181   5.499 -1.1979  0.8125  0.0752
  145SOL    HW3  347   4.409   0.051   5.563 -0.6691 -0.0900 -1.3628
  145SOL    MW4  348   4.395   0.135   5.547 -0.6907  0.2141  0.1127
  146SOL     OW  349   4.663   3.954   1.981  0.4541 -0.2270  0.6404
  146SOL    HW2  350   4.730   3.909   1.929 -0.5564 -0.6302 -0.3561
  146SOL    HW3  351   4.580   3.924   1.945 -0.2849  1.9963  0.3352
  146SOL    MW4  352   4.661   3.944   1.970  0.2233  0.0132  0.4686
  147SOL     OW  353   3.945   4.236   1.728  0.4927  0.4605  0.0112
  147SOL    HW2  354   3.905   4.151   1.745 -0.9516  1.2585  0.7364
  147SOL    HW3  355   3.971   4.232   1.636 -1.3639 -0.0569 -0.5211
  147SOL    MW4  356   3.943   4.224   1.718  0.0572  0.4975  0.0367
  148SOL     OW  357   0.459   4.450   0.541  0.1673 -0.3466 -0.1795
  148SOL    HW2  358   0.548   4.433   0.510  1.0706  1.2623  1.3614
  148SOL    HW3  359   0.471   4.487   0.628 -1.9885  0.5659 -0.2148
  148SOL    MW4  360   0.472   4.453   0.548  0.0021 -0.0139  0.0191
  149SOL     OW  361   3.270   2.725   2.748  0.1609 -0.0495 -0.4787
  149SOL    HW2  362   3.344   2.785   2.737  0.4899 -0.4883 -0.6840
  149SOL    HW3  363   3.311   2.640   2.764 -0.2889  0.0322  1.3251
  149SOL    MW4  364   3.285   2.722   2.749  0.1449 -0.0966 -0.2678
  150SOL     OW  365   4.845   1.186   0.598 -0.4506  0.2664 -0.5640
  150SOL    HW2  366   4.831   1.091   0.604  1.6813 -0.0044  2.8726
  150SOL    HW3  367   4.938   1.198   0.614 -0.7957  2.9841 -0.1288
  150SOL    MW4  368   4.855   1.175   0.601 -0.2149  0.5892 -0.0532
  151SOL     OW  369   4.105   0.931   5.234 -0.4837 -0.1193  0.1696
  151SOL    HW2  370   4.108   0.988   5.157 -0.2956 -1.5196 -0.9049
  151SOL    HW3  371   4.013   0.929   5.259 -0.3337  1.6382  1.0311
  151SOL    MW4  372   4.093   0.938   5.227 -0.4391 -0.0722  0.1415
  152SOL     OW  373   5.554   5.135   6.071 -0.7570 -0.4628 -0.6112
  152SOL    HW2  374   5.551   5.080   6.149 -1.7025 -0.4341 -0.6122
  152SOL    HW3  375   5.509   5.084   6.004 -3.3102  0.9525 -0.1473
  152SOL    MW4  376   5.547   5.121   6.073 -1.2186 -0.2723 -0.5501
  153SOL     OW  377   1.947   4.610   2.667 -0.8907 -0.0475  0.1510
  153SOL    HW2  378   1.987   4.525   2.685 -0.7479 -0.1428 -0.5699
  153SOL    HW3  379   1.912   4.601   2.578 -0.3890  0.8250 -0.1425
  153SOL    MW4  380   1.948   4.597   2.658 -0.8057  0.0550  0.0171
  154SOL     OW  381   3.647   0.746   2.327  0.4992 -0.8159 -0.6506
  154SOL    HW2  382   3.724   0.767   2.380 -0.5581 -0.2529  0.7111
  154SOL    HW3  383   3.643   0.817   2.262  0.9346 -0.6652 -0.5186
  154SOL    MW4  384   3.657   0.758   2.325  0.4172 -0.7218 -0.4535
  155SOL     OW  385   4.544   2.394   6.350 -0.3217  0.4493 -0.1586
  155SOL    HW2  386   4.582   2.427   6.269 -1.6470 -1.2059 -1.5213
  155SOL    HW3  387   4.451   2.416   6.344 -1.2187 -2.9318 -0.9855
  155SOL    MW4  388   4.537   2.401   6.339 -0.6149 -0.2152 -0.4475
  156SOL     OW  389   0.633   3.036   0.166  0.0866  0.2359 -0.3790
  156SOL    HW2  390   0.701   3.042   0.099  2.6375 -0.3410  1.9248
  156SOL    HW3  391   0.592   2.951   0.153  2.3411 -1.0263  0.2541
  156SOL    MW4  392   0.637   3.026   0.156  0.7206 -0.0067  0.0085
  157SOL     OW  393   0.311   3.937   3.022  0.5487 -0.2327 -0.0211
  157SOL    HW2  394   0.256   3.906   3.094  0.2826 -0.3073 -0.2568
  157SOL    HW3  395   0.303   3.869   2.955 -0.7479  0.7514 -0.9098
  157SOL    MW4  396   0.303   3.924   3.023  0.3425 -0.1127 -0.1695
  158SOL     OW  397   1.096   5.969   4.562  0.5584 -0.0924  0.0888
  158SOL    HW2  398   1.149   6.004   4.634  0.3157  0.3067  0.0749
  158SOL    HW3  399   1.154   5.973   4.486  0.6192  0.0328  0.1414
  158SOL    MW4  400   1.111   5.974   4.561  0.5344 -0.0232  0.0939
  159SOL     OW  401   2.621   3.822   4.418 -0.1603 -0.5336 -0.2421
  159SOL    HW2  402   2.543   3.773   4.393 -0.0757 -0.3149 -0.9656
  159SOL    HW3  403   2.612   3.906   4.372  0.9582 -0.8611 -1.0963
  159SOL    MW4  404   2.610   3.827   4.409 -0.0016 -0.5480 -0.4503
  160SOL     OW  405   0.932   0.651   0.719  0.0088 -0.1136 -0.7275
  160SOL    HW2  406   0.969   0.578   0.669  1.0167 -0.1087 -0.0215
  160SOL    HW3  407   0.842   0.623   0.739 -0.6620  0.1771 -3.0870
  160SOL    MW4  408   0.925   0.637   0.715  0.0533 -0.0746 -0.9457
  161SOL     OW  409   5.754   0.019   0.208  0.3072  0.2752  0.1522
  161SOL    HW2  410   5.671   0.000   0.251 -0.9045  2.1001 -1.2231
  161SOL    HW3  411   5.766   0.113   0.220  1.7843  0.1708 -0.3381
  161SOL    MW4  412   5.745   0.029   0.215  0.3422  0.5022 -0.0940
  162SOL     OW  413   3.309   0.541   1.692 -0.2486 -0.9794 -0.4034
  162SOL    HW2  414   3.402   0.524   1.679 -0.2785 -1.0893 -0.4800
  162SOL    HW3  415   3.296   0.534   1.786  0.1187  0.6054 -0.2162
  162SOL    MW4  416   3.320   0.538   1.702 -0.2041 -0.7848 -0.3888
  163SOL     OW  417   2.230   5.880   3.726  0.0159  0.3054 -0.2548
  163SOL    HW2  418   2.304   5.844   3.677  0.1288  0.5955 -0.3023
  163SOL    HW3  419   2.270   5.923   3.802 -0.1914 -0.5083  0.3275
  163SOL    MW4  420   2.245   5.881   3.729  0.0035  0.2363 -0.1843
  164SOL     OW  421   4.174   1.944   5.223  0.1068 -0.3260  0.2093
  164SOL    HW2  422   4.198   1.996   5.299  1.7020 -1.1498  0.3290
  164SOL    HW3  423   4.085   1.914   5.241 -0.5585  1.6851  0.4691
  164SOL    MW4  424   4.165   1.947   5.236  0.2295 -0.1693  0.2594
  165SOL     OW  425   5.083   1.122   3.409 -0.4702  0.4248  0.1992
  165SOL    HW2  426   5.031   1.165   3.477  1.7198  1.6421  1.2321
  165SOL    HW3  427   5.082   1.029   3.433 -2.1179  0.4064  0.1641
  165SOL    MW4  428   5.076   1.116   3.421 -0.3986  0.5830  0.3309
  166SOL     OW  429   2.313   5.600   0.467 -0.1126 -0.0231 -0.4489
  166SOL    HW2  430   2.232   5.549   0.467 -0.2598  0.1725 -1.8859
  166SOL    HW3  431   2.379   5.542   0.505 -1.1800  0.3229  2.1669
  166SOL    MW4  432   2.311   5.586   0.472 -0.2729  0.0484 -0.2934
  167SOL     OW  433   0.104   2.275   3.645 -0.1768  0.1200  0.3006
  167SOL    HW2  434   0.162   2.207   3.680  1.4576  0.5911 -1.3204
  167SOL    HW3  435   0.023   2.266   3.695 -0.0393 -3.0248  0.1083
  167SOL    MW4  436   0.101   2.265   3.657  0.0570 -0.2328  0.0613
  168SOL     OW  437   0.984   5.960   5.650  0.0925  0.1773  0.3767
  168SOL    HW2  438   0.926   6.008   5.591 -1.2228 -0.6572  0.9406
  168SOL    HW3  439   1.020   5.890   5.596  0.6863  0.7650 -0.0060
  168SOL    MW4  440   0.981   5.957   5.635 -0.0027  0.1448  0.4006
  169SOL     OW  441   5.525   3.187   2.896  0.3618 -0.0087  0.6204
  169SOL    HW2  442   5.552   3.117   2.837 -2.2568 -1.1667  0.7005
  169SOL    HW3  443   5.570   3.167   2.979  0.6597 -0.8245  0.2704
  169SOL    MW4  444   5.535   3.175   2.899  0.0556 -0.2691  0.5848
  170SOL     OW  445   3.650   6.143   3.312  0.7259  0.7018 -0.1076
  170SOL    HW2  446   3.727   6.127   3.366 -0.5245  1.4257  2.0256
  170SOL    HW3  447   3.617   6.055   3.290 -0.5674  0.2210  3.1898
  170SOL    MW4  448   3.656   6.129   3.316  0.3903  0.7339  0.6089
  171SOL     OW  449   4.584   5.062   6.115 -0.6210  0.2634  0.2160
  171SOL    HW2  450   4.639   4.995   6.155  0.0694  0.9290  0.4174
  171SOL    HW3  451   4.495   5.028   6.121 -0.1855 -1.0828 -0.6177
  171SOL    MW4  452   4.580   5.049   6.121 -0.4725  0.1736  0.1326
  172SOL     OW  453   0.537   0.624   0.230 -0.9862  0.3181  0.2071
  172SOL    HW2  454   0.565   0.714   0.248 -1.6795  0.5308  0.2524
  172SOL    HW3  455   0.487   0.631   0.148 -1.3703  0.0386  0.4146
  172SOL    MW4  456   0.534   0.637   0.221 -1.1284  0.3093  0.2404
  173SOL     OW  457   3.639   2.014   0.573  0.1435  0.1056 -0.0870
  173SOL    HW2  458   3.700   2.076   0.612  1.2062 -0.2239 -1.1826
  173SOL    HW3  459   3.644   2.031   0.479 -2.5623  1.0694 -0.1538
  173SOL    MW4  460   3.648   2.024   0.566 -0.0733  0.1893 -0.2404
  174SOL     OW  461   5.516   5.177   3.369  0.2122  0.4887  0.1145
  174SOL    HW2  462   5.500   5.087   3.398  2.2904  0.7176  2.2045
  174SOL    HW3  463   5.516   5.229   3.449  1.1890  2.0133 -0.8165
  174SOL    MW4  464   5.514   5.172   3.383  0.6153  0.7200  0.2674
  175SOL     OW  465   4.338   5.180   5.500 -0.0194  0.1562 -0.1540
  175SOL    HW2  466   4.328   5.105   5.558 -1.6833 -1.1718 -2.0271
  175SOL    HW3  467   4.317   5.256   5.555  0.4883 -0.8385  1.4644
  175SOL    MW4  468   4.334   5.180   5.515 -0.1719 -0.1503 -0.1876
  176SOL     OW  469   2.997   2.789   1.729  0.2099 -0.3145  0.2533
  176SOL    HW2  470   2.988   2.875   1.688  1.2701 -0.7881 -1.0433
  176SOL    HW3  471   3.034   2.808   1.815  0.1069  0.5456  0.1213
  176SOL    MW4  472   3.001   2.803   1.735  0.3362 -0.2635  0.0648
  177SOL     OW  473   0.183   1.812   2.169 -0.7098 -0.3253 -0.3906
  177SOL    HW2  474   0.209   1.902   2.147 -1.7118  0.5741  1.7887
  177SOL    HW3  475   0.266   1.764   2.172 -0.1797  0.4194 -1.9348
  177SOL    MW4  476   0.198   1.818   2.167 -0.7720 -0.1084 -0.3068
  178SOL     OW  477   2.322   0.874   3.188 -0.3983 -0.8356  0.2918
  178SOL    HW2  478   2.247   0.879   3.248 -0.8600 -0.7506 -0.2743
  178SOL    HW3  479   2.354   0.784   3.197  0.1649 -0.5452  1.3906
  178SOL    MW4  480   2.316   0.863   3.197 -0.3849 -0.7861  0.3621
  179SOL     OW  481   1.606   5.159   5.103 -0.2555 -0.3775 -0.0165
  179SOL    HW2  482   1.691   5.187   5.071  0.2554 -2.2985 -0.4562
  179SOL    HW3  483   1.626   5.098   5.174 -1.1960 -1.7718 -0.8989
  179SOL    MW4  484   1.620   5.155   5.108 -0.3122 -0.8149 -0.1909
  180SOL     OW  485   2.456   4.539   1.993  0.4423 -0.1082 -0.0200
  180SOL    HW2  486   2.418   4.452   1.984 -0.1104  0.2518 -1.6592
  180SOL    HW3  487   2.416   4.590   1.922  0.2884  1.6519  1.2658
  180SOL    MW4  488   2.446   4.534   1.982  0.3491  0.1715 -0.0666
  181SOL     OW  489   4.630   0.551   5.429 -0.2304  0.4767  0.3582
  181SOL    HW2  490   4.695   0.612   5.393  1.2825 -1.2719 -0.0880
  181SOL    HW3  491   4.596   0.505   5.352  0.3648 -0.7985  0.8223
  181SOL    MW4  492   4.634   0.553   5.414  0.0478  0.0778  0.3605
  182SOL     OW  493   3.510   6.148   2.834  0.4148  0.1782 -0.2463
  182SOL    HW2  494   3.603   6.129   2.826  0.2599 -0.3999 -0.7156
  182SOL    HW3  495   3.475   6.133   2.747 -0.3638 -0.9427  0.2387
  182SOL    MW4  496   3.518   6.144   2.822  0.2916 -0.0460 -0.2442
  183SOL     OW  497   5.589   3.555   5.393  0.6602 -0.0385 -0.0591
  183SOL    HW2  498   5.578   3.538   5.486 -0.1151  0.0621 -0.1270
  183SOL    HW3  499   5.559   3.645   5.381 -2.4865 -1.0631 -0.9366
  183SOL    MW4  500   5.584   3.565   5.403  0.1428 -0.1604 -0.1838
  184SOL     OW  501   5.035   2.803   0.378  0.0689 -0.1264  0.0377
  184SOL    HW2  502   5.004   2.782   0.290  0.0852 -0.2004  0.0495
  184SOL    HW3  503   5.032   2.899   0.383  0.3062 -0.1110 -0.1295
  184SOL    MW4  504   5.030   2.813   0.367  0.1024 -0.1341  0.0172
  185SOL     OW  505   1.101   6.350   0.811  0.1290  0.2168  0.0493
  185SOL    HW2  506   1.075   6.260   0.793  0.0742  0.6686 -2.4950
  185SOL    HW3  507   1.018   6.396   0.828 -0.0150  0.1180 -0.3684
  185SOL    MW4  508   1.086   6.344   0.811  0.1028  0.2633 -0.3415
  186SOL     OW  509   5.561   2.498   3.702  0.0649  0.5403  0.2691
  186SOL    HW2  510   5.556   2.426   3.640  0.3321  1.7503 -1.1923
  186SOL    HW3  511   5.505   2.566   3.665  0.2496  1.3045  1.3407
  186SOL    MW4  512   5.553   2.497   3.689  0.1245  0.8008  0.2176
  187SOL     OW  513   3.655   1.391   5.332  0.1791 -0.1220 -0.6275
  187SOL    HW2  514   3.580   1.438   5.368 -1.0356  0.2594 -3.3794
  187SOL    HW3  515   3.654   1.413   5.239  1.8566 -2.5947 -1.3270
  187SOL    MW4  516   3.645   1.400   5.325  0.2402 -0.3979 -1.0829
  188SOL     OW  517   1.254   3.070   2.022 -0.1541 -0.1901 -0.3249
  188SOL    HW2  518   1.175   3.123   2.011 -1.3059 -1.6868  0.2665
  188SOL    HW3  519   1.284   3.052   1.933 -1.9013 -1.5621 -0.6915
  188SOL    MW4  520   1.247   3.074   2.009 -0.5366 -0.5686 -0.2952
  189SOL     OW  521   1.177   3.598   0.278  0.4088 -0.3422 -0.3829
  189SOL    HW2  522   1.148   3.520   0.232  0.1489 -1.2426  1.2122
  189SOL    HW3  523   1.103   3.659   0.271 -0.0415 -0.8709 -0.2437
  189SOL    MW4  524   1.163   3.596   0.271  0.3151 -0.5307 -0.1541
  190SOL     OW  525   2.546   1.145   2.627 -0.1219 -0.2034  0.1848
  190SOL    HW2  526   2.590   1.211   2.573  1.6962 -2.5246 -1.3774
  190SOL    HW3  527   2.618   1.103   2.675 -1.4213 -0.0019  2.4646
  190SOL    MW4  528   2.562   1.148   2.626 -0.0534 -0.4831  0.2795
  191SOL     OW  529   2.551   5.948   2.653 -0.0613 -0.8201  0.4795
  191SOL    HW2  530   2.506   5.874   2.693 -1.2841 -0.0693  0.5245
  191SOL    HW3  531   2.631   5.958   2.704 -0.5395 -1.2589  1.3316
  191SOL    MW4  532   2.556   5.939   2.665 -0.2857 -0.7789  0.5979
  192SOL     OW  533   4.963   2.043   4.555  0.2361 -0.0119  0.1711
  192SOL    HW2  534   4.869   2.049   4.567  0.2711  1.6795 -0.2124
  192SOL    HW3  535   4.989   1.966   4.607 -1.4336 -1.0317 -0.4365
  192SOL    MW4  536   4.954   2.033   4.564  0.0204  0.0767  0.0404
  193SOL     OW  537   6.012   4.264   4.629 -0.8886  0.2434 -0.1121
  193SOL    HW2  538   6.094   4.221   4.656 -1.6634 -0.9887  0.3305
  193SOL    HW3  539   6.019   4.352   4.666 -0.0863 -0.0880  0.5756
  193SOL    MW4  540   6.024   4.270   4.638 -0.8849  0.0371  0.0371
  194SOL     OW  541   5.052   3.248   2.457  0.7781  0.2766 -0.0831
  194SOL    HW2  542   5.129   3.263   2.511  1.4199 -0.7323 -0.7049
  194SOL    HW3  543   5.080   3.270   2.368  1.6863 -3.9056 -1.0287
  194SOL    MW4  544   5.066   3.253   2.452  0.9826 -0.4083 -0.2899
  195SOL     OW  545   4.088   3.978   6.221 -0.0204 -0.3201  0.4850
  195SOL    HW2  546   4.123   3.977   6.311  0.6182  1.1880  0.2957
  195SOL    HW3  547   4.044   3.894   6.211 -0.9406 -0.1456  2.5482
  195SOL    MW4  548   4.087   3.967   6.232 -0.0575 -0.0981  0.7323
  196SOL     OW  549   1.925   1.658   5.650  0.3548 -0.3662  0.3498
  196SOL    HW2  550   1.941   1.572   5.610  0.6196 -0.3613  0.4431
  196SOL    HW3  551   1.830   1.666   5.652  0.3112 -0.9670  1.0017
  196SOL    MW4  552   1.915   1.648   5.645  0.3840 -0.4449  0.4481
  197SOL     OW  553   1.769   0.790   0.352  0.2587  0.1015 -0.3927
  197SOL    HW2  554   1.747   0.882   0.341 -0.0843  0.2575  1.4026
  197SOL    HW3  555   1.685   0.745   0.357  0.4242 -0.2746 -0.8337
  197SOL    MW4  556   1.755   0.796   0.351  0.2353  0.0725 -0.2140
  198SOL     OW  557   2.953   0.264   6.263  0.9844 -0.3481 -0.1957
  198SOL    HW2  558   2.875   0.248   6.210  0.6632  0.3364  0.0563
  198SOL    HW3  559   2.975   0.356   6.246  0.2275  0.2102  1.6874
  198SOL    MW4  560   2.946   0.274   6.254  0.8421 -0.1841  0.0860
  199SOL     OW  561   0.936   1.500   3.265  0.5951  0.5578  0.1255
  199SOL    HW2  562   0.897   1.420   3.230  2.3974 -0.2482 -0.1460
  199SOL    HW3  563   0.905   1.569   3.207 -1.5278  0.1924  0.7605
  199SOL    MW4  564   0.927   1.498   3.253  0.5528  0.4033  0.1734
  200SOL     OW  565   3.660   5.309   0.268  0.5304  0.0074  0.2696
  200SOL    HW2  566   3.639   5.400   0.245 -0.8526  0.3478  2.4934
  200SOL    HW3  567   3.726   5.317   0.336  0.2790 -0.6211  0.5964
  200SOL    MW4  568   3.666   5.322   0.274  0.3147 -0.0306  0.6061
  201SOL     OW  569   2.401   1.939   5.912  0.6908 -0.1549 -0.1726
  201SOL    HW2  570   2.307   1.926   5.899  1.0736 -2.5054 -0.9766
  201SOL    HW3  571   2.408   1.961   6.005 -0.5384 -1.6144  0.3123
  201SOL    MW4  572   2.389   1.940   5.923  0.5791 -0.6576 -0.2147
  202SOL     OW  573   1.472   4.834   4.515  0.6557 -0.1446 -0.1515
  202SOL    HW2  574   1.537   4.833   4.585 -1.6112 -0.1038  2.1044
  202SOL    HW3  575   1.418   4.756   4.530 -0.3705  0.2771 -1.3741
  202SOL    MW4  576   1.473   4.824   4.526  0.2212 -0.0835 -0.0152
  203SOL     OW  577   5.782   0.682   3.643  0.4946  0.3578  0.7668
  203SOL    HW2  578   5.716   0.613   3.644  0.2430  0.6055  1.6249
  203SOL    HW3  579   5.849   0.651   3.705  1.5194 -0.2074 -0.5804
  203SOL    MW4  580   5.782   0.669   3.651  0.5966  0.3159  0.7023
  204SOL     OW  581   0.369   3.066   0.807  0.3180 -0.0179  0.3944
  204SOL    HW2  582   0.424   3.021   0.743  0.3257  0.9871 -0.3426
  204SOL    HW3  583   0.419   3.063   0.889  0.0895 -1.7597  0.5111
  204SOL    MW4  584   0.383   3.060   0.809  0.2889 -0.1151  0.3126
  205SOL     OW  585   4.573   2.963   0.519 -0.3663  0.3814  0.2016
  205SOL    HW2  586   4.655   2.993   0.558  0.0980 -0.8800  0.2714
  205SOL    HW3  587   4.572   2.868   0.535 -0.9502  0.0721 -1.3863
  205SOL    MW4  588   4.584   2.954   0.526 -0.3821  0.1742  0.0013
  206SOL     OW  589   5.757   5.448   6.374  0.3700 -0.2378  0.2038
  206SOL    HW2  590   5.709   5.495   6.306 -0.6601  1.6638  2.1218
  206SOL    HW3  591   5.693   5.388   6.412  0.1377  0.6004  1.1911
  206SOL    MW4  592   5.742   5.446   6.370  0.2035  0.1237  0.5871
  207SOL     OW  593   4.526   3.036   3.079  0.3270  0.0458 -0.2197
  207SOL    HW2  594   4.504   2.957   3.028 -0.1907  0.9288 -1.4108
  207SOL    HW3  595   4.529   3.106   3.014 -0.8027  1.3010  1.0191
  207SOL    MW4  596   4.523   3.035   3.063  0.1096  0.3279 -0.2134
  208SOL     OW  597   1.114   2.465   5.018  0.3333 -0.3013 -0.4924
  208SOL    HW2  598   1.170   2.520   5.073 -0.7740  0.3312  0.0422
  208SOL    HW3  599   1.164   2.384   5.007  1.0137 -0.0580  0.6121
  208SOL    MW4  600   1.128   2.461   5.024  0.2770 -0.1858 -0.2762
  209SOL     OW  601   3.418   5.894   2.914 -0.2659  0.1015 -0.2478
  209SOL    HW2  602   3.434   5.987   2.899  0.0302  0.1495  0.3418
  209SOL    HW3  603   3.369   5.866   2.837 -1.9015  1.1324  0.3607
  209SOL    MW4  604   3.414   5.903   2.902 -0.4426  0.2438 -0.0897
  210SOL     OW  605   4.520   2.597   5.651  0.6382 -0.4551 -0.1894
  210SOL    HW2  606   4.425   2.600   5.666  0.8032  0.1900  0.8650
  210SOL    HW3  607   4.550   2.685   5.676  1.6713 -1.0486  0.7570
  210SOL    MW4  608   4.512   2.609   5.657  0.7963 -0.4483  0.0746
  211SOL     OW  609   5.382   5.839   2.410  0.3526 -0.4229 -0.0469
  211SOL    HW2  610   5.463   5.837   2.461 -0.6293 -2.1159  1.6160
  211SOL    HW3  611   5.313   5.845   2.476 -0.9464 -1.0124 -1.3011
  211SOL    MW4  612   5.384   5.840   2.426  0.0517 -0.7241  0.0070
  212SOL     OW  613   2.545   3.642   3.294 -0.0990 -0.2355 -0.1809
  212SOL    HW2  614   2.534   3.663   3.201 -0.9003  3.6497  0.6242
  212SOL    HW3  615   2.639   3.625   3.303 -0.1518 -1.6585 -1.8016
  212SOL    MW4  616   2.556   3.643   3.283 -0.2117  0.0894 -0.2885
  213SOL     OW  617   2.407   1.747   5.662  0.4675 -0.5102 -0.1815
  213SOL    HW2  618   2.482   1.698   5.694 -0.6560 -1.3232  1.3758
  213SOL    HW3  619   2.423   1.837   5.690  1.4811 -0.4057 -1.0652
  213SOL    MW4  620   2.419   1.752   5.670  0.4530 -0.6037 -0.0926
  214SOL     OW  621   1.821   3.473   0.839  0.4337  0.1270 -0.1745
  214SOL    HW2  622   1.878   3.476   0.916  0.3072  1.6714 -0.1107
  214SOL    HW3  623   1.753   3.539   0.856 -0.6295 -0.7612 -0.8262
  214SOL    MW4  624   1.820   3.482   0.851  0.2768  0.2136 -0.2521
  215SOL     OW  625   5.275   4.380   1.751 -0.3945  0.0394 -0.3580
  215SOL    HW2  626   5.343   4.411   1.691 -0.0156  1.3532  0.6776
  215SOL    HW3  627   5.300   4.290   1.772  0.3507  0.1076 -0.9274
  215SOL    MW4  628   5.288   4.373   1.746 -0.2462  0.2217 -0.2965
  216SOL     OW  629   5.914   4.061   0.403  0.0955 -0.4358 -0.5999
  216SOL    HW2  630   5.895   4.025   0.489 -1.5033 -0.5258 -0.9607
  216SOL    HW3  631   5.978   4.130   0.420  0.7819 -1.3056  0.4824
  216SOL    MW4  632   5.920   4.066   0.416 -0.0249 -0.5625 -0.5047
  217SOL     OW  633   1.286   3.378   4.637  0.0263 -0.1686  0.3691
  217SOL    HW2  634   1.230   3.340   4.704 -2.7142  1.5025 -0.7998
  217SOL    HW3  635   1.323   3.456   4.677 -1.7738  0.9457 -0.0251
  217SOL    MW4  636   1.283   3.383   4.651 -0.5728  0.1989  0.1628
  218SOL     OW  637   2.958   4.674   0.102  0.1064  0.1565  0.1157
  218SOL    HW2  638   2.989   4.760   0.132  1.2551 -0.3483  0.4496
  218SOL    HW3  639   2.901   4.694   0.028 -1.1432  1.3180  1.3108
  218SOL    MW4  640   2.955   4.688   0.096  0.0931  0.2431  0.3174
  219SOL     OW  641   0.945   1.360   4.568  0.5100  0.2213  0.1542
  219SOL    HW2  642   0.859   1.401   4.568  2.2238  4.2574  0.0488
  219SOL    HW3  643   0.997   1.411   4.630  2.9225 -1.9579  0.1303
  219SOL    MW4  644   0.941   1.372   4.576  1.0544  0.4663  0.1372
  220SOL     OW  645   3.395   1.232   3.117 -0.4889 -0.7533  0.6227
  220SOL    HW2  646   3.308   1.222   3.155 -0.1460  2.1582  2.4739
  220SOL    HW3  647   3.454   1.192   3.181 -0.3029 -0.7965  0.4263
  220SOL    MW4  648   3.391   1.225   3.130 -0.4191 -0.3748  0.8410
  221SOL     OW  649   3.704   0.118   4.989 -0.1488  0.2922 -0.6824
  221SOL    HW2  650   3.676   0.121   5.081  1.5557 -3.6208  0.1994
  221SOL    HW3  651   3.798   0.130   4.992  0.0742 -0.9264 -1.7285
  221SOL    MW4  652   3.712   0.120   5.002  0.1055 -0.3848 -0.7041
  222SOL     OW  653   5.878   3.193   5.444 -0.0092  0.6245  0.6277
  222SOL    HW2  654   5.944   3.196   5.513 -1.5369  1.1405  2.1554
  222SOL    HW3  655   5.863   3.099   5.430 -0.9846  0.4673  2.3849
  222SOL    MW4  656   5.885   3.181   5.452 -0.3395  0.6718  1.0611
  223SOL     OW  657   1.605   1.873   2.975  0.5453  0.1368  0.1357
  223SOL    HW2  658   1.690   1.888   2.935  0.4384  3.7061  0.9225
  223SOL    HW3  659   1.546   1.932   2.928 -1.3476 -1.5442  0.2584
  223SOL    MW4  660   1.608   1.883   2.963  0.2814  0.3859  0.2557
  224SOL     OW  661   2.535   1.520   3.415 -0.5882 -0.1056 -0.5692
  224SOL    HW2  662   2.443   1.544   3.404 -0.7779 -1.0112 -0.9923
  224SOL    HW3  663   2.563   1.490   3.329  0.1628  0.3367 -0.4882
  224SOL    MW4  664   2.526   1.519   3.402 -0.5142 -0.1667 -0.6144
  225SOL     OW  665   5.704   5.597   5.009 -0.4928  0.2576 -0.1137
  225SOL    HW2  666   5.674   5.597   4.918  0.3956  0.1740 -0.4245
  225SOL    HW3  667   5.677   5.683   5.043 -1.0590  0.1839 -0.3774
  225SOL    MW4  668   5.697   5.609   5.001 -0.4503  0.2369 -0.1895
  226SOL     OW  669   1.301   0.933   4.907 -0.0046 -0.4550 -0.0170
  226SOL    HW2  670   1.346   1.017   4.906 -0.0299 -0.4221  0.9414
  226SOL    HW3  671   1.258   0.927   4.821  1.6501 -0.3993 -0.8802
  226SOL    MW4  672   1.301   0.943   4.896  0.2104 -0.4433 -0.0044
  227SOL     OW  673   2.716   2.792   1.761  0.6760  0.2528 -0.4328
  227SOL    HW2  674   2.664   2.724   1.717 -0.6196  0.5515  0.5889
  227SOL    HW3  675   2.807   2.764   1.747  0.2085 -1.1708 -0.8591
  227SOL    MW4  676   2.721   2.779   1.753  0.4434  0.1044 -0.3542
  228SOL     OW  677   1.285   5.096   1.630 -0.3902  0.4431 -0.2338
  228SOL    HW2  678   1.213   5.038   1.607 -1.2148  1.4634 -0.3037
  228SOL    HW3  679   1.251   5.149   1.703  0.4674  0.5925  0.0765
  228SOL    MW4  680   1.271   5.095   1.637 -0.3858  0.5974 -0.2021
  229SOL     OW  681   1.603   2.400   1.427  0.0359 -0.4201 -0.6600
  229SOL    HW2  682   1.517   2.387   1.468  0.9940 -1.3145  1.1692
  229SOL    HW3  683   1.583   2.449   1.347 -2.0452  0.5255  0.3328
  229SOL    MW4  684   1.589   2.405   1.422 -0.1122 -0.4133 -0.2877
  230SOL     OW  685   0.160   1.137   4.660  0.0041  0.1802  0.0344
  230SOL    HW2  686   0.097   1.200   4.694 -0.6732 -0.4606 -0.0039
  230SOL    HW3  687   0.149   1.142   4.565 -0.5575 -0.4854  0.0547
  230SOL    MW4  688   0.150   1.146   4.652 -0.1594  0.0078  0.0320
  231SOL     OW  689   0.429   5.953   5.698 -0.4645  0.2214 -0.0017
  231SOL    HW2  690   0.512   6.001   5.704 -1.0689  1.5076 -1.4397
  231SOL    HW3  691   0.413   5.923   5.788  0.3059  2.1321  0.8499
  231SOL    MW4  692   0.438   5.956   5.711 -0.4426  0.6432 -0.0790
  232SOL     OW  693   0.426   5.266   3.987 -0.2274 -0.4233  0.1932
  232SOL    HW2  694   0.341   5.295   4.019  0.0523 -0.3310  0.8935
  232SOL    HW3  695   0.482   5.267   4.065 -0.0650 -2.3439  0.1560
  232SOL    MW4  696   0.422   5.270   4.002 -0.1691 -0.6645  0.2807
  233SOL     OW  697   4.531   5.876   4.468  0.4322  0.0845  0.5526
  233SOL    HW2  698   4.604   5.819   4.493 -0.5398 -2.2874 -1.5707
  233SOL    HW3  699   4.566   5.931   4.398  0.6899  0.3057  0.8546
  233SOL    MW4  700   4.545   5.876   4.462  0.3380 -0.1993  0.3123
  234SOL     OW  701   5.771   5.090   2.684  0.1810  0.0517  0.3685
  234SOL    HW2  702   5.817   5.074   2.602 -2.8146 -3.0638 -0.9401
  234SOL    HW3  703   5.705   5.156   2.662 -0.6139 -0.7731  0.2541
  234SOL    MW4  704   5.769   5.097   2.670 -0.3191 -0.4681  0.1807
  235SOL     OW  705   3.976   3.376   5.818  0.1893  0.5133 -0.8286
  235SOL    HW2  706   3.909   3.377   5.750 -1.8019  2.5871  1.0366
  235SOL    HW3  707   4.025   3.457   5.805 -0.3079  1.0050  0.2588
  235SOL    MW4  708   3.974   3.386   5.807 -0.1390  0.8518 -0.4390
  236SOL     OW  709   2.387   6.257   0.614 -0.3562 -0.1358 -0.0943
  236SOL    HW2  710   2.406   6.168   0.584 -0.3953 -0.1578 -0.0521
  236SOL    HW3  711   2.320   6.247   0.681 -0.3557 -0.0749 -0.0842
  236SOL    MW4  712   2.381   6.244   0.619 -0.3613 -0.1307 -0.0874
  237SOL     OW  713   1.594   2.737   4.337  0.0029 -0.0657  0.1931
  237SOL    HW2  714   1.667   2.749   4.276  0.6474  0.9535  1.1154
  237SOL    HW3  715   1.573   2.826   4.366 -1.6471 -0.3413 -0.0866
  237SOL    MW4  716   1.601   2.750   4.333 -0.1297  0.0324  0.2778
  238SOL     OW  717   6.022   6.250   5.143  0.1291  0.6731 -0.3417
  238SOL    HW2  718   6.023   6.294   5.228  1.2546 -1.0344  0.5799
  238SOL    HW3  719   5.931   6.221   5.133  0.0660  0.5573  0.4778
  238SOL    MW4  720   6.010   6.252   5.153  0.2693  0.4326 -0.1120
  239SOL     OW  721   3.254   3.639   1.533 -0.1452  0.0237  0.0238
  239SOL    HW2  722   3.165   3.660   1.558  0.5888  1.1950  1.8419
  239SOL    HW3  723   3.252   3.545   1.512 -1.7759  0.0399  0.0218
  239SOL    MW4  724   3.242   3.629   1.533 -0.2635  0.1804  0.2634
  240SOL     OW  725   2.284   0.306   3.711 -0.0584 -0.2576  0.0646
  240SOL    HW2  726   2.222   0.254   3.762 -0.7187  2.0099  1.7063
  240SOL    HW3  727   2.329   0.361   3.775  2.5610 -0.6447 -1.2660
  240SOL    MW4  728   2.282   0.306   3.726  0.2001 -0.0095  0.1056
  241SOL     OW  729   1.951   3.632   6.345  0.1957  0.3617  0.3068
  241SOL    HW2  730   1.869   3.587   6.362 -0.0041  0.1209 -1.1223
  241SOL    HW3  731   1.932   3.725   6.359 -0.2525  0.2855  0.1942
  241SOL    MW4  732   1.938   3.639   6.349  0.1102  0.3199  0.1034
  242SOL     OW  733   2.651   1.623   2.574 -0.2595 -0.2445  0.1530
  242SOL    HW2  734   2.571   1.573   2.592 -0.3664  0.4973  1.9741
  242SOL    HW3  735   2.719   1.577   2.623  0.0994  0.0801 -0.0388
  242SOL    MW4  736   2.649   1.610   2.583 -0.2262 -0.1038  0.3680
  243SOL     OW  737   5.579   3.954   0.787 -0.1558  0.2952  0.1560
  243SOL    HW2  738   5.661   3.970   0.740  0.2830 -2.4024 -0.1493
  243SOL    HW3  739   5.512   3.993   0.731  0.7259  0.7151 -0.6433
  243SOL    MW4  740   5.581   3.961   0.774  0.0184 -0.0053  0.0102
  244SOL     OW  741   2.636   4.369   2.522 -0.1731 -0.3597  0.4225
  244SOL    HW2  742   2.723   4.358   2.484  0.5042  1.4296  1.3287
  244SOL    HW3  743   2.583   4.404   2.450  0.4271  0.5596  0.4113
  244SOL    MW4  744   2.640   4.372   2.507 -0.0046 -0.0023  0.5406
  245SOL     OW  745   3.616   1.595   4.312  0.7865 -0.4618 -0.0204
  245SOL    HW2  746   3.691   1.589   4.371 -0.0014 -1.5465  0.9090
  245SOL    HW3  747   3.541   1.611   4.369  0.1183 -0.7262 -0.8008
  245SOL    MW4  748   3.616   1.596   4.327  0.5944 -0.6398 -0.0008
  246SOL     OW  749   5.219   3.926   1.186 -0.3899 -0.4394 -0.7739
  246SOL    HW2  750   5.224   4.014   1.149 -0.4238 -0.2719 -0.3835
  246SOL    HW3  751   5.162   3.935   1.262  0.0873 -0.6779 -0.3829
  246SOL    MW4  752   5.212   3.939   1.191 -0.3314 -0.4487 -0.6708
  247SOL     OW  753   4.314   1.737   5.333  0.1302  0.0825  0.4822
  247SOL    HW2  754   4.366   1.768   5.407 -0.4795 -3.5265  2.6866
  247SOL    HW3  755   4.250   1.807   5.318  0.7755  1.2917  2.8432
  247SOL    MW4  756   4.312   1.750   5.341  0.1349 -0.2341  1.0845
  248SOL     OW  757   5.512   3.541   0.145  0.2622  0.5526  0.5795
  248SOL    HW2  758   5.497   3.522   0.053 -1.3449  0.6077  0.7903
  248SOL    HW3  759   5.606   3.533   0.157  0.4575  0.2486 -0.9947
  248SOL    MW4  760   5.522   3.537   0.135  0.0759  0.5198  0.3996
  249SOL     OW  761   3.022   3.367   0.819  0.1602 -0.4619 -0.1502
  249SOL    HW2  762   3.029   3.307   0.745 -0.0100  0.1707 -0.6896
  249SOL    HW3  763   3.003   3.452   0.779  1.8717  0.2609  0.4839
  249SOL    MW4  764   3.021   3.370   0.804  0.3635 -0.2831 -0.1377
  250SOL     OW  765   1.598   3.615   3.442 -0.7617 -0.3100 -0.1311
  250SOL    HW2  766   1.660   3.662   3.388  0.4003  0.1219  1.4987
  250SOL    HW3  767   1.571   3.540   3.389 -3.3448  2.4797 -3.1792
  250SOL    MW4  768   1.602   3.611   3.428 -0.9492  0.1150 -0.3182
  251SOL     OW  769   5.064   1.332   4.311  0.0198  0.0276 -0.2194
  251SOL    HW2  770   5.063   1.301   4.221 -0.3047  0.2015 -0.2767
  251SOL    HW3  771   5.002   1.276   4.357 -0.6256  0.6277 -0.3405
  251SOL    MW4  772   5.056   1.320   4.305 -0.1082  0.1297 -0.2429
  252SOL     OW  773   5.037   3.079   0.425  0.0435  0.0222  0.3619
  252SOL    HW2  774   5.006   3.140   0.357  2.1748  1.0858  0.2687
  252SOL    HW3  775   4.973   3.088   0.496  1.0891  3.7270  1.0764
  252SOL    MW4  776   5.024   3.089   0.425  0.4626  0.6513  0.4439
  253SOL     OW  777   1.646   4.369   3.108 -0.6171  0.0333  0.2839
  253SOL    HW2  778   1.699   4.348   3.031  0.9653  0.8854  1.0877
  253SOL    HW3  779   1.556   4.349   3.081 -0.1806  0.7160 -1.9370
  253SOL    MW4  780   1.641   4.363   3.094 -0.3507  0.2358  0.0970
  254SOL     OW  781   4.853   0.891   0.654 -0.2113 -0.4726  0.3800
  254SOL    HW2  782   4.879   0.818   0.598 -0.9372 -0.3228 -0.1770
  254SOL    HW3  783   4.781   0.856   0.707 -1.5741  0.2220 -0.9317
  254SOL    MW4  784   4.847   0.877   0.653 -0.4869 -0.3612  0.1335
  255SOL     OW  785   1.749   2.616   5.970 -0.1458  0.3319  0.0908
  255SOL    HW2  786   1.835   2.610   5.929 -1.1104 -0.4061 -1.9458
  255SOL    HW3  787   1.760   2.572   6.054  1.7814  1.4619  0.5003
  255SOL    MW4  788   1.762   2.609   5.976 -0.0188  0.3836 -0.1239
  256SOL     OW  789   5.759   5.538   5.617  0.0582  0.1055  0.4353
  256SOL    HW2  790   5.688   5.528   5.681  0.8592 -1.0393  1.1710
  256SOL    HW3  791   5.811   5.459   5.626  0.7606  0.3834 -0.9504
  256SOL    MW4  792   5.756   5.527   5.627  0.2565 -0.0089  0.3495
  257SOL     OW  793   2.308   6.271   6.118  0.2163 -0.0022 -0.1379
  257SOL    HW2  794   2.252   6.214   6.172  0.7617 -0.8673 -0.4538
  257SOL    HW3  795   2.266   6.272   6.032 -0.9192  1.7722  0.3971
  257SOL    MW4  796   2.295   6.263   6.114  0.1384  0.1177 -0.1090
  258SOL     OW  797   4.523   6.101   2.685 -0.2553  0.5323  0.2986
  258SOL    HW2  798   4.492   6.186   2.653 -0.5989  0.6092  0.8135
  258SOL    HW3  799   4.470   6.037   2.637  2.6386  0.3761 -3.0380
  258SOL    MW4  800   4.512   6.104   2.675  0.0812  0.5219 -0.0737
  259SOL     OW  801   3.791   0.342   0.982 -0.2630  0.3931  0.3377
  259SOL    HW2  802   3.780   0.390   1.065 -1.0884  1.0991 -0.1560
  259SOL    HW3  803   3.743   0.260   0.995  2.0301 -0.8500  1.5647
  259SOL    MW4  804   3.783   0.338   0.995 -0.0694  0.3222  0.4344
  260SOL     OW  805   2.334   0.564   6.236 -0.3338 -0.1602 -0.0726
  260SOL    HW2  806   2.346   0.587   6.328 -1.7733 -0.9953  0.3676
  260SOL    HW3  807   2.422   0.542   6.205  0.1921  0.2709  1.0568
  260SOL    MW4  808   2.347   0.564   6.244 -0.4544 -0.2135  0.1345
  261SOL     OW  809   3.681   0.824   3.268 -0.2968  0.4225  0.1633
  261SOL    HW2  810   3.655   0.915   3.257  0.3847  0.5896 -0.0962
  261SOL    HW3  811   3.727   0.802   3.187 -0.2667 -0.0886  0.3126
  261SOL    MW4  812   3.683   0.833   3.256 -0.2029  0.3771  0.1488
  262SOL     OW  813   1.304   4.408   2.282 -0.2446  0.0541  0.1125
  262SOL    HW2  814   1.243   4.477   2.308 -2.8035 -1.7931 -0.5914
  262SOL    HW3  815   1.322   4.425   2.190 -1.8730 -0.8342 -0.4052
  262SOL    MW4  816   1.298   4.419   2.273 -0.7971 -0.3068 -0.0486
  263SOL     OW  817   2.768   5.568   0.507  0.9466  0.5328  0.0136
  263SOL    HW2  818   2.830   5.495   0.511  2.8684  2.1302  1.4796
  263SOL    HW3  819   2.690   5.535   0.551  1.5311 -0.8578  0.0756
  263SOL    MW4  820   2.766   5.554   0.513  1.2773  0.5601  0.2152
  264SOL     OW  821   1.514   0.526   1.842 -0.2978  0.1144 -0.1064
  264SOL    HW2  822   1.478   0.467   1.908 -0.3855 -0.8530 -1.0041
  264SOL    HW3  823   1.458   0.514   1.766 -0.2777  1.3209 -0.3299
  264SOL    MW4  824   1.502   0.517   1.841 -0.3067  0.1459 -0.2543
  265SOL     OW  825   5.289   0.063   2.957  0.0854 -0.2672  0.3017
  265SOL    HW2  826   5.255   0.147   2.926  0.8952 -0.3056 -0.7504
  265SOL    HW3  827   5.360   0.041   2.896 -0.7631 -2.2089 -0.0704
  265SOL    MW4  828   5.294   0.071   2.945  0.0803 -0.5284  0.1138
  266SOL     OW  829   2.168   2.997   3.263  0.0054  0.2791 -0.6202
  266SOL    HW2  830   2.160   2.920   3.208  0.1571 -0.0080 -0.2485
  266SOL    HW3  831   2.260   2.996   3.292 -0.6370 -0.9622  1.6138
  266SOL    MW4  832   2.179   2.987   3.260 -0.0594  0.0774 -0.2764
  267SOL     OW  833   0.019   4.295   3.453  0.4198  0.2139  0.3753
  267SOL    HW2  834   0.015   4.200   3.468  3.5713 -0.6282 -2.8161
  267SOL    HW3  835  -0.059   4.314   3.402  0.0533 -0.7810  0.5300
  267SOL    MW4  836   0.008   4.285   3.448  0.7873 -0.0284 -0.0253
  268SOL     OW  837   3.045   0.989   3.346 -0.3672 -0.3322  0.2524
  268SOL    HW2  838   2.991   0.910   3.352 -1.2437  0.2032 -0.4783
  268SOL    HW3  839   3.112   0.967   3.281  0.4334 -1.0553  1.2811
  268SOL    MW4  840   3.047   0.975   3.338 -0.3772 -0.3570  0.2917
  269SOL     OW  841   5.027   4.584   3.577 -0.1844 -0.1627  0.1654
  269SOL    HW2  842   4.934   4.560   3.581 -0.2919  0.1839 -0.1590
  269SOL    HW3  843   5.026   4.680   3.580  0.2050 -0.1772  0.9705
  269SOL    MW4  844   5.014   4.594   3.578 -0.1472 -0.1188  0.2288
  270SOL     OW  845   5.877   0.625   0.999 -0.0416 -0.2649 -0.1473
  270SOL    HW2  846   5.918   0.562   1.058  0.0049 -2.4301 -2.3110
  270SOL    HW3  847   5.803   0.659   1.048  0.4706 -1.3119  1.4555
  270SOL    MW4  848   5.873   0.621   1.013  0.0322 -0.6887 -0.2213
  271SOL     OW  849   4.561   4.796   4.273 -0.2848  0.2636  0.3086
  271SOL    HW2  850   4.552   4.784   4.178  0.2767  0.1860  0.2609
  271SOL    HW3  851   4.574   4.707   4.307 -1.7629  0.1359  0.6180
  271SOL    MW4  852   4.561   4.783   4.265 -0.4058  0.2365  0.3432
  272SOL     OW  853   1.075   3.735   5.932 -0.3724  0.3080 -0.3457
  272SOL    HW2  854   1.013   3.662   5.937 -0.9047  0.8027  0.6838
  272SOL    HW3  855   1.045   3.787   5.857 -1.0957  0.4172  0.0013
  272SOL    MW4  856   1.063   3.733   5.923 -0.5380  0.3877 -0.1641
  273SOL     OW  857   3.881   4.277   2.554 -0.1616  0.2504  0.4983
  273SOL    HW2  858   3.915   4.328   2.628 -1.0223 -1.3568  2.0907
  273SOL    HW3  859   3.951   4.278   2.490  0.2751  2.4498  0.9254
  273SOL    MW4  860   3.895   4.284   2.555 -0.2175  0.3285  0.7648
  274SOL     OW  861   4.832   0.573   1.958  0.2082 -0.2599 -0.2038
  274SOL    HW2  862   4.775   0.501   1.985 -0.7300  0.3257 -0.5744
  274SOL    HW3  863   4.903   0.573   2.022 -1.0108 -0.0349  1.1852
  274SOL    MW4  864   4.834   0.563   1.970 -0.0764 -0.1529 -0.0694
  275SOL     OW  865   5.213   2.063   1.669  0.0112  0.4350 -0.1004
  275SOL    HW2  866   5.172   2.028   1.590 -0.6581  1.1133 -0.0672
  275SOL    HW3  867   5.271   2.131   1.638 -0.9097  1.3112  0.0325
  275SOL    MW4  868   5.215   2.067   1.655 -0.1986  0.6401 -0.0785
  276SOL     OW  869   3.994   4.618   4.979  0.0498  0.4860  0.2600
  276SOL    HW2  870   3.913   4.608   5.028 -2.0822  0.7329 -2.9117
  276SOL    HW3  871   4.009   4.713   4.976 -0.0437  0.4981  0.1468
  276SOL    MW4  872   3.985   4.629   4.985 -0.2438  0.5202 -0.1734
  277SOL     OW  873   2.357   4.181   0.853 -0.4415  0.3410 -0.1555
  277SOL    HW2  874   2.287   4.122   0.882 -0.4364  0.0025 -0.8100
  277SOL    HW3  875   2.322   4.223   0.774  0.0807  0.1945 -0.4699
  277SOL    MW4  876   2.343   4.179   0.847 -0.3719  0.2770 -0.2834
  278SOL     OW  877   1.604   1.456   0.548  0.8663 -0.7568  0.0765
  278SOL    HW2  878   1.613   1.526   0.483  2.5814 -0.9722  0.0356
  278SOL    HW3  879   1.666   1.479   0.616  1.2273 -2.0824  0.2155
  278SOL    MW4  880   1.613   1.468   0.548  1.1402 -0.9601  0.0894
  279SOL     OW  881   4.564   0.223   3.915 -0.2908 -0.3997  0.0986
  279SOL    HW2  882   4.502   0.239   3.844 -0.2823 -0.5702  0.0545
  279SOL    HW3  883   4.530   0.275   3.988 -0.6482 -0.7313  0.1662
  279SOL    MW4  884   4.552   0.232   3.916 -0.3368 -0.4659  0.1017
  280SOL     OW  885   1.585   0.273   0.507  0.2709  0.1344 -0.0463
  280SOL    HW2  886   1.490   0.264   0.519  0.0325 -0.1952 -1.8468
  280SOL    HW3  887   1.597   0.364   0.480  0.6178  0.4770  1.2002
  280SOL    MW4  888   1.574   0.284   0.505  0.2852  0.1361 -0.1194
  281SOL     OW  889   5.298   3.058   0.518  1.0449  0.4698 -0.1644
  281SOL    HW2  890   5.304   3.030   0.610  1.1341 -0.2212 -0.3735
  281SOL    HW3  891   5.204   3.066   0.501  0.7542 -3.0370 -1.0394
  281SOL    MW4  892   5.287   3.055   0.528  1.0183 -0.0840 -0.3074
  282SOL     OW  893   1.603   2.488   1.146 -0.3046  0.2189 -0.4170
  282SOL    HW2  894   1.519   2.490   1.099 -0.7360  1.1680  0.3577
  282SOL    HW3  895   1.625   2.580   1.160 -0.8241  0.0157  2.3169
  282SOL    MW4  896   1.595   2.501   1.141 -0.4301  0.3173  0.0459
  283SOL     OW  897   2.352   3.403   3.157  0.5642 -0.1696  0.0641
  283SOL    HW2  898   2.333   3.495   3.137  1.2524 -0.2230 -0.9011
  283SOL    HW3  899   2.266   3.362   3.163  0.2612  0.4214 -0.0944
  283SOL    MW4  900   2.338   3.410   3.155  0.6150 -0.0987 -0.0842
  284SOL     OW  901   6.019   3.606   1.842 -0.6511 -0.2033 -0.2967
  284SOL    HW2  902   5.942   3.617   1.786 -0.8609  0.3941  0.0962
  284SOL    HW3  903   5.982   3.574   1.925 -0.5228  0.4675  0.0235
  284SOL    MW4  904   6.004   3.603   1.846 -0.6619 -0.0359 -0.2026
  285SOL     OW  905   4.744   4.811   0.294  0.1439  0.7314 -1.1485
  285SOL    HW2  906   4.699   4.850   0.369 -0.4879  0.9384 -1.6280
  285SOL    HW3  907   4.785   4.732   0.329  0.1809  1.0302 -0.5022
  285SOL    MW4  908   4.743   4.806   0.309  0.0654  0.7982 -1.1265
  286SOL     OW  909   0.618   3.228   1.891  0.1852  0.0009 -0.5974
  286SOL    HW2  910   0.708   3.198   1.904 -0.1101 -1.1610 -1.1399
  286SOL    HW3  911   0.621   3.280   1.811  0.2638 -0.5335 -0.9418
  286SOL    MW4  912   0.630   3.231   1.882  0.1566 -0.2229 -0.7144
  287SOL     OW  913   0.282   5.993   3.015 -0.4461  0.1922  0.3319
  287SOL    HW2  914   0.326   6.058   3.068  0.7614 -0.5839  0.3028
  287SOL    HW3  915   0.302   5.909   3.056 -0.3216 -0.3363 -0.7500
  287SOL    MW4  916   0.290   5.990   3.027 -0.2704  0.0201  0.1853
  288SOL     OW  917   6.426   4.817   3.325  0.0593  0.1168 -0.6598
  288SOL    HW2  918   6.404   4.763   3.401 -1.8327 -0.4849 -1.5668
  288SOL    HW3  919   6.507   4.861   3.349 -0.4071 -0.1724  1.6347
  288SOL    MW4  920   6.434   4.815   3.338 -0.2518 -0.0008 -0.4768
  289SOL     OW  921   0.149   5.529   2.009 -0.0603  0.1512  0.4515
  289SOL    HW2  922   0.128   5.619   2.032 -1.3510  0.0891 -0.3773
  289SOL    HW3  923   0.115   5.518   1.920 -2.4765 -1.9386  1.5048
  289SOL    MW4  924   0.142   5.539   2.000 -0.5494 -0.1328  0.4811
  290SOL     OW  925   0.191   1.723   3.071  0.4503 -0.3317 -0.0316
  290SOL    HW2  926   0.111   1.721   3.018  0.2169 -1.2361  0.3275
  290SOL    HW3  927   0.186   1.805   3.119 -0.2659 -0.3694 -0.0290
  290SOL    MW4  928   0.180   1.733   3.071  0.3250 -0.4560  0.0161
  291SOL     OW  929   0.969   3.666   5.599  0.0918  0.2026  0.4291
  291SOL    HW2  930   0.890   3.662   5.653  0.0268  2.2709  0.5548
  291SOL    HW3  931   0.939   3.695   5.514  0.4859 -0.9543 -0.1239
  291SOL    MW4  932   0.954   3.669   5.595  0.1352  0.3228  0.3728
  292SOL     OW  933   0.467   1.640   1.911 -0.3105  0.0007  0.4818
  292SOL    HW2  934   0.541   1.580   1.898 -1.1474 -1.1621  0.9547
  292SOL    HW3  935   0.441   1.626   2.002 -0.0920  1.6001  0.8142
  292SOL    MW4  936   0.474   1.630   1.922 -0.3921  0.0583  0.5881
  293SOL     OW  937   1.466   1.717   3.229 -0.2303  0.3896 -0.6425
  293SOL    HW2  938   1.539   1.668   3.190 -0.9561  0.4009 -2.0400
  293SOL    HW3  939   1.509   1.786   3.280  0.7520 -0.1874 -0.6605
  293SOL    MW4  940   1.482   1.719   3.231 -0.1965  0.3150 -0.8292
  294SOL     OW  941   4.329   1.575   3.642 -0.2117  0.0410 -0.1628
  294SOL    HW2  942   4.359   1.615   3.560  0.0695  0.7422  0.2765
  294SOL    HW3  943   4.234   1.581   3.638 -0.1920  0.2724 -0.3391
  294SOL    MW4  944   4.321   1.581   3.630 -0.1720  0.1640 -0.1281
  295SOL     OW  945   2.875   4.606   2.222  0.5166  0.1038 -0.3573
  295SOL    HW2  946   2.910   4.578   2.138  0.1947  1.1587 -0.8687
  295SOL    HW3  947   2.947   4.593   2.284  0.1770 -2.3748 -0.4142
  295SOL    MW4  948   2.889   4.601   2.219  0.4294 -0.0840 -0.4323
  296SOL     OW  949   1.114   1.783   1.078 -0.1234  0.1888  0.1135
  296SOL    HW2  950   1.027   1.781   1.038 -0.4193 -1.2730  0.7660
  296SOL    HW3  951   1.130   1.693   1.104  2.1182  0.1496 -1.1053
  296SOL    MW4  952   1.105   1.771   1.076  0.1333 -0.0092  0.0388
  297SOL     OW  953   0.931   2.688   4.134 -0.3382  0.3587  0.0367
  297SOL    HW2  954   0.861   2.641   4.088  0.2952 -1.9475  1.2448
  297SOL    HW3  955   0.994   2.620   4.156  1.5878  2.1415  0.2754
  297SOL    MW4  956   0.930   2.673   4.131 -0.0005  0.2896  0.2276
  298SOL     OW  957   1.968   0.326   6.366 -0.0852 -0.4445 -0.7325
  298SOL    HW2  958   2.037   0.263   6.387  1.9366  1.6011 -0.8273
  298SOL    HW3  959   1.993   0.360   6.280 -2.8036 -1.5897 -2.1109
  298SOL    MW4  960   1.980   0.322   6.357 -0.1771 -0.3257 -0.9269
  299SOL     OW  961   0.628   2.452   0.226  0.2356 -0.4475 -0.5850
  299SOL    HW2  962   0.646   2.361   0.247  0.8647 -0.5588 -1.5758
  299SOL    HW3  963   0.649   2.500   0.307 -3.6550 -1.5037  1.2867
  299SOL    MW4  964   0.633   2.446   0.239 -0.1947 -0.6015 -0.4688
  300SOL     OW  965   4.727   4.880   0.879  0.5297  0.1595  0.4291
  300SOL    HW2  966   4.794   4.821   0.914 -1.6482 -1.8503  1.5541
  300SOL    HW3  967   4.722   4.858   0.786  1.4072  0.3313  0.3340
  300SOL    MW4  968   4.735   4.869   0.872  0.3581 -0.0830  0.5650
  301SOL     OW  969   1.303   3.523   4.096 -0.3460  0.0691 -0.5633
  301SOL    HW2  970   1.248   3.597   4.119 -0.7636 -0.3204 -0.3043
  301SOL    HW3  971   1.295   3.516   4.000 -1.0275 -0.1991 -0.4933
  301SOL    MW4  972   1.295   3.532   4.086 -0.4910 -0.0177 -0.5199
  302SOL     OW  973   1.837   3.789   2.919 -0.4251 -0.4316  0.5229
  302SOL    HW2  974   1.797   3.855   2.977  0.9558  0.4399  0.5251
  302SOL    HW3  975   1.849   3.834   2.836  0.7710 -0.5723  0.5972
  302SOL    MW4  976   1.833   3.804   2.916 -0.0851 -0.3352  0.5330
  303SOL     OW  977   3.949   5.621   6.390 -0.1359 -0.0195  0.1348
  303SOL    HW2  978   4.009   5.547   6.395  0.5218  0.4403 -0.6537
  303SOL    HW3  979   3.869   5.586   6.352 -0.5546 -0.7401  1.6115
  303SOL    MW4  980   3.946   5.607   6.386 -0.1044 -0.0539  0.2256
  304SOL     OW  981   6.126   4.005   4.852 -0.2256 -0.5335  0.0903
  304SOL    HW2  982   6.071   3.936   4.888 -1.6751  0.9771  0.9036
  304SOL    HW3  983   6.209   3.997   4.899  0.7083 -3.4201 -1.7892
  304SOL    MW4  984   6.130   3.995   4.863 -0.2937 -0.7150 -0.0504
  305SOL     OW  985   1.775   4.921   0.242  0.0527  0.3287  0.4531
  305SOL    HW2  986   1.772   4.998   0.299  0.3198  0.3454  0.4498
  305SOL    HW3  987   1.756   4.955   0.154  0.0120  0.3648  0.4758
  305SOL    MW4  988   1.772   4.936   0.238  0.0826  0.3357  0.4556
  306SOL     OW  989   3.530   1.344   4.220 -0.9814 -0.2837  0.5430
  306SOL    HW2  990   3.484   1.395   4.154 -0.9204  2.5501  2.4950
  306SOL    HW3  991   3.576   1.410   4.272  0.8222 -2.5646  2.0253
  306SOL    MW4  992   3.530   1.359   4.218 -0.7354 -0.2107  0.9961
  307SOL     OW  993   2.741   2.301   2.000  0.4020 -0.2821  0.1526
  307SOL    HW2  994   2.649   2.289   2.025 -0.0183  0.1280 -1.1105
  307SOL    HW3  995   2.783   2.334   2.079 -0.6466 -0.0265  0.6211
  307SOL    MW4  996   2.734   2.304   2.014  0.2082 -0.1943  0.0478
  308SOL     OW  997   6.318   6.225   4.722 -0.4843  1.1059 -0.1303
  308SOL    HW2  998   6.345   6.190   4.637 -1.9928 -0.7816  0.1182
  308SOL    HW3  999   6.395   6.272   4.754  1.5281 -1.5333 -0.7627
  308SOL    MW4 1000   6.332   6.227   4.715 -0.4178  0.5086 -0.1809
  309SOL     OW 1001   3.095   3.550   2.578  0.3801 -0.4271  0.0955
  309SOL    HW2 1002   3.059   3.486   2.517  1.2326 -1.7365  0.9183
  309SOL    HW3 1003   3.029   3.558   2.647 -0.3030  0.5819 -0.6505
  309SOL    MW4 1004   3.082   3.543   2.579  0.4024 -0.4667  0.1057
  310SOL     OW 1005   4.703   0.688   0.091  0.2958 -0.1649  0.0735
  310SOL    HW2 1006   4.796   0.678   0.114  0.2987  0.2542  0.2366
  310SOL    HW3 1007   4.685   0.613   0.034  0.7572 -0.1992 -0.0293
  310SOL    MW4 1008   4.713   0.677   0.087  0.3571 -0.1141  0.0815
  311SOL     OW 1009   2.251   6.279   0.870 -0.2077  0.2603  0.1671
  311SOL    HW2 1010   2.196   6.264   0.947 -0.4775  1.0758  0.1414
  311SOL    HW3 1011   2.295   6.362   0.887  0.8239 -0.2503  0.0652
  311SOL    MW4 1012   2.249   6.288   0.882 -0.1072  0.3005  0.1503
  312SOL     OW 1013   4.146   3.024   5.283  0.6663 -0.3554  0.5433
  312SOL    HW2 1014   4.231   3.058   5.310 -0.1712 -0.9464  4.5353
  312SOL    HW3 1015   4.092   3.102   5.269  1.0825  0.0154  0.9835
  312SOL    MW4 1016   4.150   3.039   5.285  0.6107 -0.3845  1.1281
  313SOL     OW 1017   1.021   0.028   2.142 -0.5453 -0.8395 -0.3682
  313SOL    HW2 1018   1.098   0.047   2.088 -0.8275  0.8067 -0.2466
  313SOL    HW3 1019   0.958  -0.010   2.081 -0.7548  0.7221 -1.1811
  313SOL    MW4 1020   1.023   0.026   2.127 -0.6102 -0.4163 -0.4594
  314SOL     OW 1021   1.065   3.715   1.236 -0.0541 -0.4375 -0.2507
  314SOL    HW2 1022   1.023   3.658   1.170 -2.6919  0.1571  0.7974
  314SOL    HW3 1023   1.047   3.672   1.319  0.7013  0.3165  0.3138
  314SOL    MW4 1024   1.057   3.701   1.238 -0.3025 -0.2595 -0.0380
  315SOL     OW 1025   6.327   1.386   3.640  0.6324  0.3807  0.5100
  315SOL    HW2 1026   6.337   1.474   3.604  0.5212  0.2126  0.0504
  315SOL    HW3 1027   6.410   1.343   3.623  0.2938  0.0270 -0.3449
  315SOL    MW4 1028   6.339   1.392   3.633  0.5730  0.3119  0.3365
  316SOL     OW 1029   1.445   1.158   4.891 -0.0551 -0.8543 -0.0762
  316SOL    HW2 1030   1.451   1.181   4.799  0.5460  0.0427  0.1771
  316SOL    HW3 1031   1.477   1.235   4.938 -0.1711 -1.3644  0.8777
  316SOL    MW4 1032   1.450   1.171   4.885  0.0089 -0.8033  0.0831
  317SOL     OW 1033   6.220   1.338   2.356  0.0648  0.3780  0.3944
  317SOL    HW2 1034   6.136   1.327   2.402 -0.4556 -1.2498 -0.8486
  317SOL    HW3 1035   6.282   1.364   2.425 -1.1886  0.4010  1.5578
  317SOL    MW4 1036   6.217   1.340   2.371 -0.1692  0.1663  0.3839
  318SOL     OW 1037   3.685   0.357   2.101  0.2306 -0.2381  0.0200
  318SOL    HW2 1038   3.746   0.344   2.174  0.8758 -0.5856 -0.5719
  318SOL    HW3 1039   3.608   0.396   2.141 -0.7189 -3.3154  1.4565
  318SOL    MW4 1040   3.683   0.360   2.116  0.1904 -0.6900  0.1315
  319SOL     OW 1041   0.248   3.036   4.309  0.5985  0.2592  0.1636
  319SOL    HW2 1042   0.274   3.000   4.394  3.3193  0.0986 -0.6298
  319SOL    HW3 1043   0.225   2.959   4.257 -0.0916  0.2724  0.4428
  319SOL    MW4 1044   0.248   3.021   4.313  0.8664  0.2398  0.0958
  320SOL     OW 1045   2.646   3.441   5.530 -0.3233 -0.1199  0.9136
  320SOL    HW2 1046   2.699   3.374   5.573 -0.6521 -1.4606 -0.6498
  320SOL    HW3 1047   2.709   3.501   5.490 -0.0059 -0.4380  0.9374
  320SOL    MW4 1048   2.661   3.440   5.530 -0.3248 -0.3387  0.7104
  321SOL     OW 1049   2.143   5.387   1.582 -0.3633 -0.7280 -0.4236
  321SOL    HW2 1050   2.139   5.476   1.616  0.5243 -0.1137 -1.7853
  321SOL    HW3 1051   2.112   5.332   1.653 -3.7638  0.8584 -0.4735
  321SOL    MW4 1052   2.138   5.391   1.596 -0.6948 -0.4377 -0.6099
  322SOL     OW 1053   3.754   5.084   1.008 -0.0988 -0.3381 -0.4003
  322SOL    HW2 1054   3.695   5.029   0.957  0.6168 -0.5220 -1.0348
  322SOL    HW3 1055   3.698   5.123   1.075 -0.7811 -1.1413 -0.4946
  322SOL    MW4 1056   3.739   5.082   1.010 -0.0944 -0.4683 -0.4965
  323SOL     OW 1057   4.460   5.703   1.829  0.1358  0.0791  0.5105
  323SOL    HW2 1058   4.553   5.700   1.805  0.1981 -2.9831  0.8194
  323SOL    HW3 1059   4.413   5.697   1.745  0.3010 -1.9243  0.5152
  323SOL    MW4 1060   4.466   5.702   1.814  0.1658 -0.5893  0.5518
  324SOL     OW 1061   4.113   0.416   4.681  0.1038  0.1735  0.2962
  324SOL    HW2 1062   4.051   0.489   4.676  0.0032  0.2015  1.5787
  324SOL    HW3 1063   4.197   0.458   4.700  0.0474 -0.0272  1.0318
  324SOL    MW4 1064   4.116   0.432   4.683  0.0831  0.1507  0.5625
  325SOL     OW 1065   4.902   6.181   6.204  0.0277 -0.2889  0.2834
  325SOL    HW2 1066   4.902   6.128   6.125 -2.0369  0.7776 -0.4975
  325SOL    HW3 1067   4.928   6.269   6.175  0.6836 -0.2101  1.0620
  325SOL    MW4 1068   4.905   6.186   6.190 -0.1582 -0.1378  0.2831
  326SOL     OW 1069   4.412   3.812   1.976  0.4006 -0.3594 -0.4772
  326SOL    HW2 1070   4.377   3.789   2.062  0.9641 -0.5670 -0.3008
  326SOL    HW3 1071   4.451   3.731   1.943  1.0832 -0.0289 -0.4943
  326SOL    MW4 1072   4.412   3.798   1.983  0.5650 -0.3432 -0.4562
  327SOL     OW 1073   4.770   1.020   6.303 -0.0245  0.2028 -0.2674
  327SOL    HW2 1074   4.866   1.027   6.308  0.3398 -2.3331 -1.5870
  327SOL    HW3 1075   4.740   1.036   6.392  1.6690  0.7649  0.2398
  327SOL    MW4 1076   4.779   1.023   6.316  0.2470 -0.0577 -0.3746
  328SOL     OW 1077   0.994   6.234   1.889  0.0163  0.0628  0.2291
  328SOL    HW2 1078   1.015   6.286   1.811 -1.3069  0.6121  0.2172
  328SOL    HW3 1079   1.076   6.230   1.938  0.7338  0.1492 -0.9295
  328SOL    MW4 1080   1.008   6.240   1.885 -0.0636  0.1467  0.0746
  329SOL     OW 1081   1.709   2.326   5.460 -0.3478 -0.0049 -0.1004
  329SOL    HW2 1082   1.717   2.348   5.368 -0.2266 -0.3271 -0.1692
  329SOL    HW3 1083   1.704   2.410   5.505  0.7526  0.1909 -0.3010
  329SOL    MW4 1084   1.710   2.340   5.454 -0.1866 -0.0216 -0.1359
  330SOL     OW 1085   0.914   1.397   2.072  0.1041  0.0691 -0.3930
  330SOL    HW2 1086   0.934   1.304   2.064  0.3678  0.0556  0.3737
  330SOL    HW3 1087   0.972   1.429   2.141 -1.6183  0.2970  1.0305
  330SOL    MW4 1088   0.924   1.389   2.080 -0.0883  0.0974 -0.1041
  331SOL     OW 1089   1.938   1.813   4.548  0.2830 -0.5015 -0.8187
  331SOL    HW2 1090   1.966   1.854   4.629 -1.5284  1.8081 -1.2762
  331SOL    HW3 1091   2.020   1.799   4.499  1.2286 -0.3445  0.6522
  331SOL    MW4 1092   1.953   1.816   4.552  0.1688 -0.1761 -0.6850
  332SOL     OW 1093   5.427   4.381   4.513  0.4673 -0.1434  0.2469
  332SOL    HW2 1094   5.496   4.392   4.577  2.9994  3.9231 -2.6817
  332SOL    HW3 1095   5.379   4.464   4.514  1.4603  0.7162 -3.7091
  332SOL    MW4 1096   5.430   4.393   4.521  0.9324  0.5066 -0.6614
  333SOL     OW 1097   0.897   1.744   4.620 -0.0498  0.1782 -0.1561
  333SOL    HW2 1098   0.882   1.839   4.619  0.8797  0.3725  1.5904
  333SOL    HW3 1099   0.862   1.714   4.536  2.6814  2.5577 -2.3861
  333SOL    MW4 1100   0.890   1.753   4.609  0.4332  0.5178 -0.2199
  334SOL     OW 1101   5.728   4.731   5.542  0.5321 -0.2882 -0.0919
  334SOL    HW2 1102   5.802   4.781   5.577  0.5438 -1.1479  1.1983
  334SOL    HW3 1103   5.764   4.643   5.526  0.5048  0.0435 -2.2619
  334SOL    MW4 1104   5.743   4.726   5.544  0.5300 -0.3579 -0.2079
  335SOL     OW 1105   6.035   0.426   2.626 -0.7435  0.4658  0.3806
  335SOL    HW2 1106   6.056   0.511   2.665  1.6466  0.0852  0.0886
  335SOL    HW3 1107   5.977   0.384   2.690  0.5473  1.1168  2.0592
  335SOL    MW4 1108   6.030   0.431   2.640 -0.2579  0.5015  0.5635
  336SOL     OW 1109   0.358   0.848   3.842 -0.0236  0.2423 -0.0865
  336SOL    HW2 1110   0.442   0.823   3.879 -0.7702 -0.5367  1.1420
  336SOL    HW3 1111   0.372   0.937   3.808  1.4666 -0.1494 -0.5530
  336SOL    MW4 1112   0.371   0.857   3.842  0.0745  0.0878  0.0140
  337SOL     OW 1113   5.434   1.821   4.716 -0.5750 -0.5849  0.0391
  337SOL    HW2 1114   5.487   1.843   4.794 -1.3151 -1.5086  0.8265
  337SOL    HW3 1115   5.360   1.772   4.751 -1.4270 -0.1935 -1.1668
  337SOL    MW4 1116   5.431   1.818   4.731 -0.7851 -0.6551 -0.0161
  338SOL     OW 1117   3.139   3.894   3.274 -0.0399 -0.5418 -0.0985
  338SOL    HW2 1118   3.087   3.933   3.345  0.0827  1.2131 -0.9139
  338SOL    HW3 1119   3.084   3.822   3.242 -2.0835  1.2474 -0.9349
  338SOL    MW4 1120   3.125   3.890   3.279 -0.2933 -0.0742 -0.3164
  339SOL     OW 1121   6.288   3.320   3.839  0.2382  0.2708 -0.1570
  339SOL    HW2 1122   6.325   3.328   3.751 -0.4082 -0.1586 -0.4719
  339SOL    HW3 1123   6.308   3.404   3.881 -0.8742  1.1439 -1.2727
  339SOL    MW4 1124   6.295   3.332   3.833  0.0061  0.3293 -0.3458
  340SOL     OW 1125   3.088   6.156   2.427 -0.2919  0.5149 -0.2149
  340SOL    HW2 1126   3.064   6.119   2.512 -1.3574 -0.2123 -0.8074
  340SOL    HW3 1127   3.139   6.088   2.384  0.8577  1.1542  0.1034
  340SOL    MW4 1128   3.091   6.142   2.433 -0.2808  0.5033 -0.2511
  341SOL     OW 1129   4.029   4.457   0.989  0.0103  0.2964 -0.6277
  341SOL    HW2 1130   4.119   4.467   0.960 -0.2083  1.4878 -0.9489
  341SOL    HW3 1131   4.030   4.380   1.047  1.1829  0.1961 -0.7733
  341SOL    MW4 1132   4.041   4.448   0.993  0.1362  0.4404 -0.6893
  342SOL     OW 1133   3.374   2.474   2.836  0.2743 -0.3172  0.2533
  342SOL    HW2 1134   3.351   2.476   2.929  1.3763  0.0061  0.5415
  342SOL    HW3 1135   3.295   2.442   2.792  0.3180 -2.3372  1.4815
  342SOL    MW4 1136   3.361   2.470   2.843  0.4254 -0.5411  0.4534
  343SOL     OW 1137   2.148   5.312   6.283 -0.1766 -0.2698 -0.1677
  343SOL    HW2 1138   2.241   5.294   6.301  0.5022  2.0873 -0.9350
  343SOL    HW3 1139   2.108   5.320   6.370  0.4644 -0.7623  0.1823
  343SOL    MW4 1140   2.155   5.311   6.297 -0.0025 -0.0238 -0.2228
  344SOL     OW 1141   2.100   3.071   1.302 -0.7223 -0.2360 -0.0762
  344SOL    HW2 1142   2.168   3.023   1.349 -1.0699 -0.1080  0.5745
  344SOL    HW3 1143   2.020   3.022   1.321 -1.1253  0.7170  0.8055
  344SOL    MW4 1144   2.098   3.058   1.311 -0.8213 -0.0934  0.1260
  345SOL     OW 1145   5.425   3.715   6.002  0.1530  0.1289  0.0188
  345SOL    HW2 1146   5.499   3.766   6.034  0.5178 -0.5579  0.3004
  345SOL    HW3 1147   5.352   3.737   6.060 -0.1515  1.5663 -0.8639
  345SOL    MW4 1148   5.425   3.725   6.014  0.1610  0.2279 -0.0605
  346SOL     OW 1149   4.693   3.458   5.351 -0.4790 -0.0522  0.1275
  346SOL    HW2 1150   4.746   3.513   5.409 -2.3201 -0.6560  2.5704
  346SOL    HW3 1151   4.715   3.368   5.376 -0.4119 -0.3628 -1.0058
  346SOL    MW4 1152   4.703   3.453   5.362 -0.7130 -0.1728  0.3003
  347SOL     OW 1153   5.511   0.016   2.772  0.1668 -0.1640  0.1485
  347SOL    HW2 1154   5.563   0.095   2.755  0.0309  0.0786  0.8452
  347SOL    HW3 1155   5.486  -0.015   2.685 -0.6479  1.1445 -0.1182
  347SOL    MW4 1156   5.515   0.022   2.758  0.0413  0.0406  0.2052
  348SOL     OW 1157   3.646   2.755   5.213  0.4049 -0.2797 -0.0864
  348SOL    HW2 1158   3.678   2.772   5.302  1.8901  0.7891 -0.7974
  348SOL    HW3 1159   3.571   2.813   5.203 -1.4819 -2.2852  1.3364
  348SOL    MW4 1160   3.640   2.765   5.224  0.3519 -0.4033  0.0075
  349SOL     OW 1161   3.805   3.007   6.104  0.0190  0.4207  0.3187
  349SOL    HW2 1162   3.834   3.091   6.069  1.8696 -0.5784 -0.7095
  349SOL    HW3 1163   3.749   2.971   6.036  2.0635 -0.6641 -0.9004
  349SOL    MW4 1164   3.802   3.013   6.090  0.5329  0.1458  0.0222
  350SOL     OW 1165   4.529   5.032   1.044  0.3764  0.3314 -0.1308
  350SOL    HW2 1166   4.593   4.983   0.992  0.3639  1.7328 -1.5471
  350SOL    HW3 1167   4.481   4.965   1.093  0.6838 -1.0028 -1.5887
  350SOL    MW4 1168   4.531   5.017   1.044  0.4153  0.3402 -0.5100
  351SOL     OW 1169   0.265   1.741   0.877 -0.4475 -0.6877 -0.2443
  351SOL    HW2 1170   0.209   1.674   0.916  1.0090 -1.8603 -0.0748
  351SOL    HW3 1171   0.287   1.799   0.950 -1.0460 -0.4820 -0.2184
  351SOL    MW4 1172   0.261   1.740   0.892 -0.3343 -0.8153 -0.2186
  352SOL     OW 1173   0.570   5.208   0.973  0.8121 -0.1226 -0.6025
  352SOL    HW2 1174   0.479   5.238   0.970  0.3576 -0.4709  3.6156
  352SOL    HW3 1175   0.566   5.118   0.940 -0.4923 -0.2894 -0.0623
  352SOL    MW4 1176   0.557   5.200   0.968  0.5801 -0.1906  0.0253
  353SOL     OW 1177   3.162   5.707   5.667  0.7933 -0.3845  0.1026
  353SOL    HW2 1178   3.152   5.617   5.699 -1.0072  0.4106  2.0225
  353SOL    HW3 1179   3.075   5.732   5.637  0.9657  1.0647  0.6806
  353SOL    MW4 1180   3.149   5.699   5.667  0.5785 -0.0884  0.4322
  354SOL     OW 1181   0.211   3.467   4.088  0.3804 -0.1195  0.3263
  354SOL    HW2 1182   0.268   3.482   4.163 -0.5790  1.8939  0.7250
  354SOL    HW3 1183   0.168   3.384   4.107  2.6637 -1.3896  0.2983
  354SOL    MW4 1184   0.213   3.458   4.100  0.5551 -0.0214  0.3752
  355SOL     OW 1185   3.323   1.050   2.825  0.1719 -0.1609 -0.2553
  355SOL    HW2 1186   3.293   0.967   2.862  2.5249 -1.2410 -0.5853
  355SOL    HW3 1187   3.328   1.033   2.731 -0.3732  0.7363 -0.4547
  355SOL    MW4 1188   3.320   1.036   2.817  0.4104 -0.1851 -0.3252
  356SOL     OW 1189   5.938   2.865   4.477 -0.7442  0.6124  0.6498
  356SOL    HW2 1190   5.875   2.866   4.549  0.1251 -1.9899  1.5372
  356SOL    HW3 1191   6.007   2.805   4.505  1.2838  1.9751 -1.0345
  356SOL    MW4 1192   5.939   2.857   4.490 -0.3620  0.4488  0.5447
  357SOL     OW 1193   2.260   3.802   6.025  0.2827  0.6350 -0.1601
  357SOL    HW2 1194   2.228   3.774   5.939 -1.3746  1.4138  0.1590
  357SOL    HW3 1195   2.330   3.741   6.046 -0.5917 -0.7971 -1.1978
  357SOL    MW4 1196   2.265   3.790   6.016 -0.0513  0.5488 -0.2550
  358SOL     OW 1197   4.625   3.933   3.102 -0.4295 -0.1292  0.3148
  358SOL    HW2 1198   4.721   3.934   3.105 -0.4290 -0.1906  0.3366
  358SOL    HW3 1199   4.600   3.878   3.176 -0.5798  2.2772  2.1647
  358SOL    MW4 1200   4.634   3.926   3.112 -0.4492  0.1802  0.5617
  359SOL     OW 1201   2.117   6.200   4.165  0.5929  0.0378  0.3518
  359SOL    HW2 1202   2.047   6.206   4.230  0.8199  1.8494  0.4598
  359SOL    HW3 1203   2.098   6.119   4.117 -1.7699  0.6296  0.1683
  359SOL    MW4 1204   2.105   6.190   4.167  0.3111  0.3549  0.3419
  360SOL     OW 1205   1.601   0.802   6.170 -0.0869 -0.7478  0.4095
  360SOL    HW2 1206   1.619   0.728   6.111  1.4899  0.7126 -1.0673
  360SOL    HW3 1207   1.687   0.841   6.187 -0.9228  1.1303  0.5973
  360SOL    MW4 1208   1.615   0.797   6.164  0.0109 -0.3074  0.2395
  361SOL     OW 1209   6.371   5.040   4.233  0.0383  0.2710 -0.4008
  361SOL    HW2 1210   6.335   4.995   4.156 -0.1610 -2.4303  1.1444
  361SOL    HW3 1211   6.304   5.106   4.254 -1.3336 -0.9007 -0.8695
  361SOL    MW4 1212   6.357   5.043   4.225 -0.1690 -0.2400 -0.2588
  362SOL     OW 1213   0.992   3.296   5.645 -0.2173 -0.1095 -0.1189
  362SOL    HW2 1214   0.995   3.362   5.575 -0.4027 -1.7657 -1.7542
  362SOL    HW3 1215   0.918   3.323   5.700  0.1665  1.4347 -0.3031
  362SOL    MW4 1216   0.982   3.309   5.643 -0.1911 -0.1242 -0.3590
  363SOL     OW 1217   2.085   3.555   2.906  0.2615 -0.4435  0.1809
  363SOL    HW2 1218   2.003   3.556   2.955  0.9770 -2.8108  1.5855
  363SOL    HW3 1219   2.068   3.610   2.830 -1.4127  2.1666  2.2369
  363SOL    MW4 1220   2.072   3.562   2.903  0.1351 -0.4115  0.6375
  364SOL     OW 1221   5.865   0.069   3.086 -0.3798  0.3365  0.2706
  364SOL    HW2 1222   5.820  -0.014   3.099  0.7135 -0.2559  0.3669
  364SOL    HW3 1223   5.841   0.122   3.162  0.3209 -0.5394  1.1185
  364SOL    MW4 1224   5.856   0.065   3.098 -0.1431  0.1428  0.3952
  365SOL     OW 1225   2.088   0.308   2.527 -0.2379  0.1252 -0.2664
  365SOL    HW2 1226   2.146   0.238   2.497  0.9074  1.0610 -0.3205
  365SOL    HW3 1227   2.120   0.329   2.615 -1.5914 -0.4781  0.4092
  365SOL    MW4 1228   2.100   0.301   2.535 -0.2654  0.1691 -0.1844
  366SOL     OW 1229   1.250   4.569   0.940 -0.4834 -0.0092 -0.2126
  366SOL    HW2 1230   1.272   4.648   0.890  1.2941 -1.7172 -2.3986
  366SOL    HW3 1231   1.292   4.498   0.890 -1.8060 -2.3067  1.7630
  366SOL    MW4 1232   1.259   4.570   0.927 -0.4234 -0.5377 -0.2403
  367SOL     OW 1233   3.421   2.105   1.553 -0.3662  0.2568 -0.8293
  367SOL    HW2 1234   3.490   2.134   1.493  1.2418 -0.1900  0.7235
  367SOL    HW3 1235   3.459   2.030   1.599 -1.1401  1.1627  1.4220
  367SOL    MW4 1236   3.435   2.099   1.551 -0.2561  0.3174 -0.3274
  368SOL     OW 1237   0.276   1.262   4.994 -0.1012  0.5791  0.1305
  368SOL    HW2 1238   0.302   1.265   4.902 -1.3780 -0.9749 -0.3325
  368SOL    HW3 1239   0.327   1.331   5.036  2.0759 -0.0203 -1.3484
  368SOL    MW4 1240   0.286   1.271   4.987  0.0176  0.2950 -0.1257
  369SOL     OW 1241   4.317   4.016   0.649  0.2279  0.9268 -0.3400
  369SOL    HW2 1242   4.230   4.020   0.610  0.4426  1.0579 -0.8114
  369SOL    HW3 1243   4.373   4.066   0.589  0.4554  1.6240  0.4189
  369SOL    MW4 1244   4.313   4.023   0.636  0.2862  1.0361 -0.3021
  370SOL     OW 1245   2.262   3.321   6.000 -0.8128 -0.2530 -0.6156
  370SOL    HW2 1246   2.204   3.315   6.076 -0.1109  0.7731  0.0245
  370SOL    HW3 1247   2.347   3.290   6.033 -0.4528  0.4138 -0.9143
  370SOL    MW4 1248   2.266   3.316   6.015 -0.6727 -0.0296 -0.5706
  371SOL     OW 1249   1.758   0.601   2.740  0.4383  0.1639  0.2379
  371SOL    HW2 1250   1.842   0.622   2.700  1.2217  0.0923  1.7663
  371SOL    HW3 1251   1.780   0.555   2.821 -1.0847 -0.2861  0.4390
  371SOL    MW4 1252   1.772   0.598   2.745  0.3407  0.0951  0.4661
  372SOL     OW 1253   0.298   2.504   3.309  0.1908  0.5383 -0.1953
  372SOL    HW2 1254   0.287   2.531   3.218  2.4297  1.5297 -0.2412
  372SOL    HW3 1255   0.258   2.417   3.313 -0.2397  0.6010 -2.0258
  372SOL    MW4 1256   0.291   2.496   3.297  0.4294  0.6774 -0.4429
  373SOL     OW 1257   5.817   1.722   3.266  0.0754 -0.1160  0.6210
  373SOL    HW2 1258   5.822   1.637   3.223  0.3921 -0.0194  0.4653
  373SOL    HW3 1259   5.855   1.708   3.353  1.8183  0.2783 -0.0432
  373SOL    MW4 1260   5.823   1.709   3.272  0.3471 -0.0512  0.5128
  374SOL     OW 1261   5.958   0.236   1.078  0.1977 -0.0763  0.0540
  374SOL    HW2 1262   6.025   0.176   1.109  0.2720 -1.3866 -2.3750
  374SOL    HW3 1263   5.946   0.213   0.986 -0.5494  2.9325 -0.7344
  374SOL    MW4 1264   5.965   0.225   1.070  0.1089  0.1478 -0.3705
  375SOL     OW 1265   5.851   2.427   5.430 -0.2115 -0.0126  0.1780
  375SOL    HW2 1266   5.902   2.459   5.505 -1.7254  0.7805  0.9332
  375SOL    HW3 1267   5.869   2.490   5.361  2.1363 -1.4119 -0.5771
  375SOL    MW4 1268   5.860   2.440   5.431 -0.1015 -0.0926  0.1780
  376SOL     OW 1269   5.041   1.763   4.623  0.4381 -0.6879 -0.2774
  376SOL    HW2 1270   5.107   1.754   4.554  1.3996 -2.0765  0.7849
  376SOL    HW3 1271   5.020   1.674   4.649 -1.0190 -0.2315  0.2254
  376SOL    MW4 1272   5.047   1.750   4.617  0.3727 -0.8109 -0.0709
  377SOL     OW 1273   1.381   3.821   3.628 -0.2945 -0.4761 -0.2975
  377SOL    HW2 1274   1.424   3.907   3.630  0.7707 -0.9679 -1.3329
  377SOL    HW3 1275   1.329   3.819   3.708 -1.4508  1.6971 -0.8893
  377SOL    MW4 1276   1.379   3.832   3.639 -0.3065 -0.2543 -0.5122
  378SOL     OW 1277   6.425   1.374   4.731  0.4001  0.0513  0.0948
  378SOL    HW2 1278   6.356   1.401   4.669 -0.1656 -2.1591 -0.3166
  378SOL    HW3 1279   6.485   1.448   4.733 -0.2508  0.7154 -2.1025
  378SOL    MW4 1280   6.424   1.387   4.723  0.2396 -0.1527 -0.2494
  379SOL     OW 1281   5.465   1.347   1.498 -0.2094 -0.1673  0.5136
  379SOL    HW2 1282   5.397   1.414   1.486  0.6451  0.8014  0.8630
  379SOL    HW3 1283   5.497   1.330   1.409  0.6717  1.1223  0.5491
  379SOL    MW4 1284   5.461   1.354   1.485  0.0196  0.1307  0.5644
  380SOL     OW 1285   3.278   4.989   4.046 -0.4340 -0.4655 -0.1594
  380SOL    HW2 1286   3.203   4.948   4.090 -0.4277  1.3510  1.6751
  380SOL    HW3 1287   3.355   4.950   4.087 -0.4188  0.2336  0.4912
  380SOL    MW4 1288   3.278   4.979   4.057 -0.4312 -0.1336  0.1685
  381SOL     OW 1289   5.924   4.484   4.791  0.0527 -0.3872 -0.2566
  381SOL    HW2 1290   5.939   4.540   4.867 -0.5617 -0.9647  0.2902
  381SOL    HW3 1291   5.829   4.482   4.780  0.0275 -1.7533  0.0525
  381SOL    MW4 1292   5.914   4.491   4.799 -0.0317 -0.6436 -0.1437
  382SOL     OW 1293   3.741   3.560   3.442 -0.2410  0.0714  0.0501
  382SOL    HW2 1294   3.716   3.623   3.375 -0.4826  0.9655  0.9513
  382SOL    HW3 1295   3.667   3.499   3.446  0.5789 -1.1332 -1.7804
  382SOL    MW4 1296   3.728   3.560   3.434 -0.1647  0.0304 -0.0725
  383SOL     OW 1297   4.273   3.685   5.997  0.8861  0.2829 -0.0842
  383SOL    HW2 1298   4.365   3.682   5.969  0.5853 -1.5267 -1.0573
  383SOL    HW3 1299   4.247   3.776   5.983  3.1656  1.4739  2.5617
  383SOL    MW4 1300   4.282   3.697   5.991  1.1472  0.2013  0.1365
  384SOL     OW 1301   2.792   2.285   5.825  0.3345  0.3852 -0.1870
  384SOL    HW2 1302   2.817   2.266   5.915  1.0549 -0.5008 -0.5644
  384SOL    HW3 1303   2.698   2.263   5.820  0.0001  1.5436  0.6321
  384SOL    MW4 1304   2.783   2.280   5.836  0.3854  0.4211 -0.1288
  385SOL     OW 1305   1.601   1.639   4.367 -0.2014 -0.3818  0.3468
  385SOL    HW2 1306   1.684   1.597   4.391 -0.5227 -0.9817  0.4116
  385SOL    HW3 1307   1.607   1.726   4.405 -0.0696 -0.8018  1.3110
  385SOL    MW4 1308   1.613   1.645   4.375 -0.2264 -0.5164  0.4825
  386SOL     OW 1309   5.692   3.621   2.795  1.0420 -0.1961 -0.0339
  386SOL    HW2 1310   5.698   3.596   2.702 -0.7691 -3.9423  0.6629
  386SOL    HW3 1311   5.620   3.684   2.799 -1.1390 -2.4663 -0.9239
  386SOL    MW4 1312   5.683   3.626   2.783  0.5153 -0.9899 -0.0594
  387SOL     OW 1313   0.478   4.117   3.139  0.5349 -0.2564  0.3446
  387SOL    HW2 1314   0.451   4.195   3.090 -1.4312  0.0878  1.8443
  387SOL    HW3 1315   0.425   4.046   3.101 -1.9002  0.2226  2.5891
  387SOL    MW4 1316   0.468   4.118   3.127 -0.0458 -0.1478  0.8386
  388SOL     OW 1317   2.251   2.642   0.937  0.0914  0.1025  0.0559
  388SOL    HW2 1318   2.292   2.728   0.946  0.3125  0.0504 -0.4416
  388SOL    HW3 1319   2.184   2.654   0.869  0.2680 -0.1715 -0.1649
  388SOL    MW4 1320   2.247   2.655   0.930  0.1439  0.0595 -0.0389
  389SOL     OW 1321   5.319   1.824   5.663  1.2863  0.1210 -0.3178
  389SOL    HW2 1322   5.389   1.792   5.607  1.3956 -1.1307  0.5017
  389SOL    HW3 1323   5.346   1.801   5.752 -0.5533 -1.2196 -0.0463
  389SOL    MW4 1324   5.332   1.817   5.668  1.0580 -0.2210 -0.1738
  390SOL     OW 1325   0.657   4.378   1.853  0.2835 -0.2847  0.2054
  390SOL    HW2 1326   0.637   4.439   1.924 -1.7215  1.3169 -1.5885
  390SOL    HW3 1327   0.626   4.293   1.885  1.9957 -0.2084  2.2697
  390SOL    MW4 1328   0.650   4.375   1.867  0.2448 -0.0633  0.2410
  391SOL     OW 1329   4.966   0.465   3.423  0.6552  0.4625  0.1337
  391SOL    HW2 1330   5.055   0.437   3.401  1.0396  1.6146  0.1684
  391SOL    HW3 1331   4.967   0.476   3.518 -0.0430 -1.2156  0.3688
  391SOL    MW4 1332   4.978   0.462   3.433  0.6138  0.3931  0.1693
  392SOL     OW 1333   6.127   4.227   0.468 -0.6799 -0.1822 -0.2758
  392SOL    HW2 1334   6.209   4.181   0.450 -1.1607 -0.4932 -1.9304
  392SOL    HW3 1335   6.128   4.302   0.407 -1.5838 -0.1682 -0.2899
  392SOL    MW4 1336   6.138   4.231   0.457 -0.8626 -0.2213 -0.4960
  393SOL     OW 1337   3.092   4.140   2.712  0.0788  0.5805  0.1651
  393SOL    HW2 1338   3.027   4.165   2.778  1.8276  1.1747  1.7815
  393SOL    HW3 1339   3.147   4.218   2.702  0.7968 -0.0345 -0.8012
  393SOL    MW4 1340   3.091   4.154   2.720  0.4042  0.5778  0.2509
  394SOL     OW 1341   5.633   4.306   2.854 -0.3991  0.0894 -0.0634
  394SOL    HW2 1342   5.664   4.228   2.807 -0.4553  0.1191 -0.1501
  394SOL    HW3 1343   5.543   4.285   2.879  0.3527 -0.8710  2.0866
  394SOL    MW4 1344   5.625   4.293   2.851 -0.3073 -0.0333  0.2088
  395SOL     OW 1345   3.441   3.383   5.748  0.2680  0.1538 -0.0697
  395SOL    HW2 1346   3.432   3.336   5.665  0.6930 -0.9586  0.4912
  395SOL    HW3 1347   3.352   3.409   5.770  0.0093 -0.4572 -0.3616
  395SOL    MW4 1348   3.428   3.380   5.740  0.2900 -0.0736 -0.0342
  396SOL     OW 1349   5.480   5.905   4.247  0.4268  0.4205 -0.1942
  396SOL    HW2 1350   5.520   5.902   4.334  0.5894 -0.1628 -0.2840
  396SOL    HW3 1351   5.548   5.873   4.189  0.2374  0.5893 -0.5113
  396SOL    MW4 1352   5.494   5.901   4.251  0.4232  0.3658 -0.2479
  397SOL     OW 1353   5.751   4.813   5.257  0.1784  0.0390 -0.2002
  397SOL    HW2 1354   5.668   4.849   5.226  0.7663  0.2142 -1.6219
  397SOL    HW3 1355   5.733   4.784   5.347 -0.9052  1.8596  0.2195
  397SOL    MW4 1356   5.738   4.814   5.265  0.1130  0.3023 -0.3324
  398SOL     OW 1357   4.686   1.732   1.587  0.1345  0.4890  0.9877
  398SOL    HW2 1358   4.760   1.714   1.529 -0.8542  1.5248 -0.6909
  398SOL    HW3 1359   4.622   1.776   1.531 -2.5930 -2.0388  1.8190
  398SOL    MW4 1360   4.687   1.735   1.572 -0.3558  0.2922  0.8759
  399SOL     OW 1361   1.489   4.574   5.153  0.3133  0.2297  0.1751
  399SOL    HW2 1362   1.482   4.668   5.141  0.2417  0.2965  0.7259
  399SOL    HW3 1363   1.424   4.537   5.093  0.6653  0.5020 -0.3879
  399SOL    MW4 1364   1.480   4.581   5.144  0.3503  0.2744  0.1735
  400SOL     OW 1365   2.293   1.203   1.150  0.4681  0.2053  0.0235
  400SOL    HW2 1366   2.296   1.110   1.171 -1.1983  0.3668  1.1850
  400SOL    HW3 1367   2.295   1.247   1.235  2.1082  1.3073 -0.5264
  400SOL    MW4 1368   2.294   1.196   1.164  0.4646  0.3720  0.1042
  401SOL     OW 1369   4.389   3.695   0.405  0.5119 -0.3214 -0.2828
  401SOL    HW2 1370   4.303   3.651   0.405  0.1785  0.3142 -0.3729
  401SOL    HW3 1371   4.449   3.629   0.370 -0.3327 -0.0544 -2.3941
  401SOL    MW4 1372   4.385   3.680   0.400  0.3565 -0.2023 -0.5732
  402SOL     OW 1373   4.845   1.757   2.920  0.1686  0.3461 -0.1579
  402SOL    HW2 1374   4.861   1.772   2.827 -1.4275 -0.3846 -0.5852
  402SOL    HW3 1375   4.920   1.705   2.949  0.4001  0.0958 -1.1750
  402SOL    MW4 1376   4.857   1.752   2.912 -0.0114  0.2167 -0.3485
  403SOL     OW 1377   2.047   0.464   1.362 -0.7098  0.3322  0.7549
  403SOL    HW2 1378   1.999   0.529   1.312 -0.4358  2.3597  2.8988
  403SOL    HW3 1379   2.139   0.487   1.348 -0.3672 -1.9200 -1.2914
  403SOL    MW4 1380   2.053   0.476   1.354 -0.6284  0.3025  0.7678
  404SOL     OW 1381   3.077   6.021   0.817 -0.3514 -0.2472  0.1318
  404SOL    HW2 1382   3.041   6.106   0.842  2.9960  1.2577  0.2865
  404SOL    HW3 1383   3.089   5.975   0.900 -1.0014 -0.3705  0.1602
  404SOL    MW4 1384   3.074   6.026   0.831  0.0045 -0.0649  0.1560
  405SOL     OW 1385   6.331   0.168   0.890  0.8307 -0.2629 -0.4351
  405SOL    HW2 1386   6.375   0.096   0.934  2.0600  0.7679  0.0712
  405SOL    HW3 1387   6.364   0.247   0.932  1.6961  0.7611 -2.8322
  405SOL    MW4 1388   6.341   0.169   0.901  1.1071  0.0082 -0.6846
  406SOL     OW 1389   0.902   6.204   1.221  0.3717 -0.5588  0.1616
  406SOL    HW2 1390   0.841   6.249   1.279  2.5057  1.5780  0.9132
  406SOL    HW3 1391   0.852   6.130   1.186 -2.2392  0.4146  1.5717
  406SOL    MW4 1392   0.888   6.200   1.224  0.3087 -0.1484  0.4468
  407SOL     OW 1393   1.587   0.920   0.091  0.2008  0.0014 -0.1136
  407SOL    HW2 1394   1.564   0.982   0.022  1.1336 -1.1335 -1.5124
  407SOL    HW3 1395   1.651   0.966   0.145  0.4074  0.4723 -0.7512
  407SOL    MW4 1396   1.592   0.934   0.089  0.3511 -0.0862 -0.3822
  408SOL     OW 1397   5.611   2.433   4.368 -0.0085 -0.7920  0.1741
  408SOL    HW2 1398   5.552   2.508   4.370  2.8331  1.6545 -0.2365
  408SOL    HW3 1399   5.610   2.405   4.276  0.0977 -0.2193 -0.0054
  408SOL    MW4 1400   5.603   2.440   4.356  0.3804 -0.3937  0.0962
  409SOL     OW 1401   0.435   5.430   2.267  0.6052  0.3454  0.4581
  409SOL    HW2 1402   0.428   5.421   2.172  0.7491 -0.5067  0.5191
  409SOL    HW3 1403   0.488   5.355   2.294 -1.4923 -0.8809  1.4784
  409SOL    MW4 1404   0.441   5.419   2.258  0.3475  0.0712  0.6007
  410SOL     OW 1405   5.022   0.096   4.931  0.1877  0.1297 -0.0748
  410SOL    HW2 1406   5.041   0.013   4.974  1.6584 -0.2639 -1.4028
  410SOL    HW3 1407   4.980   0.072   4.848 -0.7492  0.7925  0.1835
  410SOL    MW4 1408   5.019   0.082   4.925  0.2582  0.1652 -0.2159
  411SOL     OW 1409   1.649   4.860   1.936  0.1264  0.2572 -0.5962
  411SOL    HW2 1410   1.613   4.896   1.854  1.9865  0.6320 -1.3034
  411SOL    HW3 1411   1.691   4.935   1.978  2.2690 -0.5863 -1.0793
  411SOL    MW4 1412   1.650   4.875   1.931  0.6545  0.1953 -0.7533
  412SOL     OW 1413   3.496   1.072   1.453 -0.3675  0.1240 -0.4091
  412SOL    HW2 1414   3.408   1.045   1.426 -0.6164  2.6087 -2.3941
  412SOL    HW3 1415   3.518   1.012   1.525 -3.7234 -0.5022  0.2709
  412SOL    MW4 1416   3.487   1.060   1.459 -0.8431  0.3692 -0.5812
  413SOL     OW 1417   1.634   0.018   0.692 -0.4145  0.3082  0.1935
  413SOL    HW2 1418   1.619   0.100   0.740 -0.9625  0.5431 -0.3535
  413SOL    HW3 1419   1.569  -0.043   0.729 -0.6099  0.3895 -0.0134
  413SOL    MW4 1420   1.623   0.021   0.703 -0.5126  0.3499  0.0941
  414SOL     OW 1421   3.174   2.219   2.380 -0.2303 -0.0552  0.9392
  414SOL    HW2 1422   3.192   2.135   2.423  0.2582  1.1273  3.1746
  414SOL    HW3 1423   3.215   2.284   2.436 -3.5282  2.0054  1.2097
  414SOL    MW4 1424   3.182   2.216   2.393 -0.6010  0.3727  1.2698
  415SOL     OW 1425   3.822   3.669   0.253  0.6722  0.2391  0.5235
  415SOL    HW2 1426   3.756   3.601   0.262  0.3154  0.3502 -0.9818
  415SOL    HW3 1427   3.807   3.728   0.327  0.6556 -1.0296  1.5502
  415SOL    MW4 1428   3.812   3.668   0.264  0.6230  0.0864  0.4603
  416SOL     OW 1429   2.798   5.325   4.242 -0.6772 -0.6799 -0.6885
  416SOL    HW2 1430   2.729   5.260   4.229  0.6217 -2.1930 -0.1805
  416SOL    HW3 1431   2.873   5.276   4.274  0.7538  0.9050 -1.4619
  416SOL    MW4 1432   2.799   5.310   4.245 -0.3170 -0.6704 -0.7235
  417SOL     OW 1433   4.320   0.328   1.167 -0.1306 -0.8067  0.1402
  417SOL    HW2 1434   4.233   0.327   1.208 -1.0051  0.2074 -1.5799
  417SOL    HW3 1435   4.309   0.384   1.090  2.3545  0.3063  0.5125
  417SOL    MW4 1436   4.307   0.335   1.162  0.0819 -0.5260 -0.0376
  418SOL     OW 1437   3.798   3.055   2.862 -0.3175  0.0586 -0.1230
  418SOL    HW2 1438   3.858   3.042   2.935 -2.0448  0.8910  1.5509
  418SOL    HW3 1439   3.747   2.974   2.858  0.8082 -0.6191 -1.4897
  418SOL    MW4 1440   3.799   3.043   2.871 -0.3969  0.0790 -0.0824
  419SOL     OW 1441   6.018   4.484   1.759 -0.3581 -0.0900  0.1875
  419SOL    HW2 1442   6.048   4.452   1.674 -0.6451  3.1515 -1.2886
  419SOL    HW3 1443   5.975   4.409   1.800 -0.3331 -1.7263 -2.5634
  419SOL    MW4 1444   6.016   4.470   1.753 -0.3927  0.1218 -0.3702
  420SOL     OW 1445   3.098   0.316   2.417 -0.1873 -0.2594 -0.5582
  420SOL    HW2 1446   3.156   0.240   2.428  1.7978  0.8953 -2.2782
  420SOL    HW3 1447   3.019   0.280   2.378  0.0781 -1.6379  0.1049
  420SOL    MW4 1448   3.095   0.301   2.413  0.1096 -0.2889 -0.6976
  421SOL     OW 1449   5.403   3.257   5.887  0.4346  0.7954  0.6322
  421SOL    HW2 1450   5.314   3.272   5.853 -0.2627  0.1378  2.0774
  421SOL    HW3 1451   5.400   3.169   5.925  1.9755  0.4061 -0.0814
  421SOL    MW4 1452   5.391   3.247   5.888  0.5459  0.6573  0.7287
  422SOL     OW 1453   3.433   0.839   0.202 -0.2099 -0.1963  0.3205
  422SOL    HW2 1454   3.373   0.799   0.264  0.0603 -0.4074  0.4444
  422SOL    HW3 1455   3.478   0.908   0.252  0.0367 -0.3930  0.3699
  422SOL    MW4 1456   3.431   0.843   0.217 -0.1417 -0.2501  0.3433
  423SOL     OW 1457   0.440   5.753   1.743  0.0339 -0.0099 -0.5162
  423SOL    HW2 1458   0.407   5.827   1.794 -0.6547 -0.0998 -0.8223
  423SOL    HW3 1459   0.530   5.741   1.773  0.9200  2.3251 -1.9267
  423SOL    MW4 1460   0.448   5.761   1.754  0.0599  0.2863 -0.7427
  424SOL     OW 1461   1.525   4.788   0.515 -0.5610  0.0499  0.6367
  424SOL    HW2 1462   1.573   4.730   0.576 -0.6738 -1.2393 -0.4549
  424SOL    HW3 1463   1.517   4.871   0.563  1.5516 -0.1182  1.3982
  424SOL    MW4 1464   1.530   4.791   0.530 -0.2972 -0.1424  0.5932
  425SOL     OW 1465   5.779   1.425   2.563  0.2651 -0.0932 -0.0199
  425SOL    HW2 1466   5.716   1.353   2.567 -0.3235  0.4187 -0.0076
  425SOL    HW3 1467   5.859   1.384   2.530  0.2109 -0.9390  0.8372
  425SOL    MW4 1468   5.781   1.410   2.560  0.1803 -0.1372  0.0948
  426SOL     OW 1469   5.797   4.616   1.927 -0.0056 -0.6716  0.5418
  426SOL    HW2 1470   5.877   4.657   1.895 -0.5217  1.1245  1.3814
  426SOL    HW3 1471   5.727   4.663   1.882 -0.6705  0.4580  2.6287
  426SOL    MW4 1472   5.798   4.628   1.917 -0.1614 -0.2856  0.9279
  427SOL     OW 1473   6.037   0.475   1.204  0.2714  0.1458  0.5242
  427SOL    HW2 1474   6.114   0.449   1.254  0.2261 -1.2466 -0.0743
  427SOL    HW3 1475   6.005   0.393   1.165 -0.7648  0.8964 -0.2690
  427SOL    MW4 1476   6.043   0.460   1.205  0.1287  0.0611  0.3406
  428SOL     OW 1477   4.735   2.153   6.406 -0.0086 -1.1606  0.9289
  428SOL    HW2 1478   4.719   2.073   6.357  1.8758 -0.3311 -1.2399
  428SOL    HW3 1479   4.682   2.219   6.361  2.1170 -0.2877 -0.5098
  428SOL    MW4 1480   4.726   2.151   6.393  0.5205 -0.9360  0.4529
  429SOL     OW 1481   5.597   2.377   5.756  1.0708 -0.8986  0.4604
  429SOL    HW2 1482   5.651   2.299   5.739  0.4522 -1.8878  2.6720
  429SOL    HW3 1483   5.579   2.373   5.850  2.4977  2.9061  1.0659
  429SOL    MW4 1484   5.602   2.366   5.766  1.1774 -0.5271  0.8321
  430SOL     OW 1485   5.366   5.426   4.590 -0.5358  0.1069  0.3045
  430SOL    HW2 1486   5.408   5.461   4.512  0.0631 -0.6977  0.2588
  430SOL    HW3 1487   5.292   5.485   4.606 -0.7595  0.1892 -0.9577
  430SOL    MW4 1488   5.361   5.438   4.582 -0.4863  0.0116  0.1319
  431SOL     OW 1489   2.764   0.551   3.423 -0.0792  0.0680  0.0545
  431SOL    HW2 1490   2.739   0.464   3.394  0.7567 -0.3775  0.6143
  431SOL    HW3 1491   2.710   0.567   3.500 -0.9372  0.4641 -0.6169
  431SOL    MW4 1492   2.754   0.542   3.429 -0.0821  0.0615  0.0398
  432SOL     OW 1493   4.343   2.033   0.092  0.4079  0.0575  0.0624
  432SOL    HW2 1494   4.352   2.028  -0.003  0.8104  0.0252  0.0996
  432SOL    HW3 1495   4.383   1.952   0.124 -1.5879 -0.9440  0.1508
  432SOL    MW4 1496   4.350   2.021   0.084  0.1977 -0.0789  0.0790
  433SOL     OW 1497   4.045   3.159   2.222 -0.2791 -0.1517 -0.2258
  433SOL    HW2 1498   4.135   3.127   2.231 -0.4282 -0.1804  1.7997
  433SOL    HW3 1499   4.020   3.136   2.133  1.9337  0.4482 -1.0843
  433SOL    MW4 1500   4.054   3.152   2.212 -0.0068 -0.0763 -0.0718
  434SOL     OW 1501   2.048   4.797   3.914 -0.7145  0.0557  0.2523
  434SOL    HW2 1502   2.076   4.786   3.823  0.1854 -1.2389  0.6617
  434SOL    HW3 1503   1.961   4.757   3.918  0.1060 -1.7855  0.4025
  434SOL    MW4 1504   2.040   4.790   3.902 -0.4875 -0.3580  0.3262
  435SOL     OW 1505   3.441   0.020   1.017 -0.0619  0.0021  0.0861
  435SOL    HW2 1506   3.431   0.115   1.006 -0.8955  0.1829  1.9820
  435SOL    HW3 1507   3.530   0.002   0.988  0.0505  1.3323 -0.4862
  435SOL    MW4 1508   3.452   0.030   1.011 -0.1570  0.2014  0.2607
  436SOL     OW 1509   6.314   3.233   0.557 -0.2456 -0.2627  0.0155
  436SOL    HW2 1510   6.318   3.148   0.600 -0.3537 -0.7584 -0.9286
  436SOL    HW3 1511   6.267   3.216   0.475  0.8470  0.4446 -0.7790
  436SOL    MW4 1512   6.308   3.219   0.551 -0.1157 -0.2348 -0.2139
  437SOL     OW 1513   5.647   4.971   1.587  0.2252 -0.3777 -0.6047
  437SOL    HW2 1514   5.700   4.916   1.530  0.9382 -0.5002  0.1482
  437SOL    HW3 1515   5.633   5.051   1.538 -0.3995 -1.0269 -1.5165
  437SOL    MW4 1516   5.652   4.974   1.573  0.2369 -0.4795 -0.6257
  438SOL     OW 1517   2.868   2.749   5.584  0.3787  0.1419 -0.3975
  438SOL    HW2 1518   2.938   2.813   5.575  1.5592 -1.3260 -2.6690
  438SOL    HW3 1519   2.867   2.726   5.677  0.0380  3.1932  0.4503
  438SOL    MW4 1520   2.877   2.754   5.595  0.4895  0.3508 -0.5853
  439SOL     OW 1521   2.893   2.283   6.076  0.1296 -0.1603 -0.7896
  439SOL    HW2 1522   2.884   2.245   6.163 -0.8856 -2.8837 -1.9617
  439SOL    HW3 1523   2.840   2.362   6.079  1.4573  0.7487  1.4824
  439SOL    MW4 1524   2.885   2.288   6.088  0.1708 -0.3996 -0.6445
  440SOL     OW 1525   2.779   2.500   1.786 -0.6928  0.3249 -0.3097
  440SOL    HW2 1526   2.693   2.513   1.745 -0.7411 -0.4844 -0.4762
  440SOL    HW3 1527   2.763   2.434   1.853 -0.6730  1.8164  1.2416
  440SOL    MW4 1528   2.765   2.493   1.790 -0.6966  0.4149 -0.1270
  441SOL     OW 1529   5.697   5.021   1.208  0.0909  0.0801  0.2301
  441SOL    HW2 1530   5.715   5.111   1.181  1.6033 -0.4811 -0.7812
  441SOL    HW3 1531   5.607   5.005   1.181  0.0118  1.0857 -0.1474
  441SOL    MW4 1532   5.688   5.030   1.201  0.2800  0.1387  0.0469
  442SOL     OW 1533   2.049   5.069   0.833 -0.1089 -0.1418 -0.0447
  442SOL    HW2 1534   2.127   5.095   0.785  0.4486  0.8793  1.3224
  442SOL    HW3 1535   2.056   4.974   0.843  1.8989  0.1014  1.5204
  442SOL    MW4 1536   2.060   5.060   0.828  0.2296  0.0250  0.3421
  443SOL     OW 1537   1.119   4.064   6.192  0.5595 -0.3053 -0.0464
  443SOL    HW2 1538   1.165   4.118   6.127  0.8993  1.2287  1.4007
  443SOL    HW3 1539   1.028   4.065   6.163  0.5388  1.1723 -0.0121
  443SOL    MW4 1540   1.113   4.071   6.180  0.6016  0.0921  0.1491
  444SOL     OW 1541   2.485   2.307   6.319 -0.4045 -0.1105  0.1778
  444SOL    HW2 1542   2.575   2.340   6.319 -0.1143 -0.8561 -0.9807
  444SOL    HW3 1543   2.433   2.379   6.284 -0.6187  1.1295  2.8238
  444SOL    MW4 1544   2.490   2.320   6.315 -0.3944 -0.0453  0.3740
  445SOL     OW 1545   5.553   0.371   4.812  0.2038  0.2866  0.1815
  445SOL    HW2 1546   5.504   0.357   4.894  0.2672 -2.1428 -0.1085
  445SOL    HW3 1547   5.498   0.330   4.745  2.9629 -3.7827  0.0118
  445SOL    MW4 1548   5.539   0.364   4.814  0.5762 -0.5709  0.1208
  446SOL     OW 1549   3.617   1.660   2.204 -0.0855 -0.4862 -0.5205
  446SOL    HW2 1550   3.705   1.628   2.222 -0.5615 -1.1861  0.6409
  446SOL    HW3 1551   3.630   1.747   2.166  1.0399  0.4533  1.8656
  446SOL    MW4 1552   3.630   1.667   2.201  0.0002 -0.4546 -0.0524
  447SOL     OW 1553   4.714   0.745   6.126  0.1522 -0.2476 -0.0436
  447SOL    HW2 1554   4.640   0.687   6.144  2.0955 -2.5087  1.2176
  447SOL    HW3 1555   4.713   0.809   6.197 -0.4427 -0.3967  0.0836
  447SOL    MW4 1556   4.704   0.746   6.138  0.3301 -0.5656  0.1396
  448SOL     OW 1557   1.288   5.586   5.462 -0.1123 -0.4370  0.6089
  448SOL    HW2 1558   1.323   5.600   5.549  1.3630  1.0758 -0.1835
  448SOL    HW3 1559   1.361   5.602   5.403 -1.0822 -1.3836 -0.9297
  448SOL    MW4 1560   1.302   5.590   5.465 -0.0456 -0.3623  0.3014
  449SOL     OW 1561   1.639   0.881   4.562 -0.1558 -0.3907  0.3567
  449SOL    HW2 1562   1.619   0.888   4.656  0.1391 -0.0800  0.3972
  449SOL    HW3 1563   1.554   0.864   4.521 -0.2672 -0.6906  0.6944
  449SOL    MW4 1564   1.625   0.879   4.569 -0.1316 -0.3893  0.4066
  450SOL     OW 1565   4.016   3.049   6.363  0.6865  0.4526 -0.5133
  450SOL    HW2 1566   4.044   3.085   6.279  1.4083  0.4412 -0.2850
  450SOL    HW3 1567   4.094   3.054   6.418  0.4045 -0.1505 -0.0494
  450SOL    MW4 1568   4.030   3.054   6.359  0.7445  0.3715 -0.4220
  451SOL     OW 1569   0.782   5.830   6.358  0.0548 -0.2158  0.0228
  451SOL    HW2 1570   0.740   5.858   6.276  0.8451  2.8308  0.5495
  451SOL    HW3 1571   0.870   5.802   6.331 -0.9183 -3.0385 -0.5825
  451SOL    MW4 1572   0.788   5.830   6.344  0.0307 -0.1862  0.0125
  452SOL     OW 1573   0.824   1.879   2.792  0.0986 -0.2603  0.1447
  452SOL    HW2 1574   0.781   1.796   2.809 -0.5412 -0.1199 -0.7403
  452SOL    HW3 1575   0.787   1.939   2.856  1.7379 -0.9896  1.8907
  452SOL    MW4 1576   0.814   1.876   2.803  0.2305 -0.3380  0.2583
  453SOL     OW 1577   4.365   0.373   0.672  0.1619  0.1624 -0.0641
  453SOL    HW2 1578   4.272   0.392   0.684 -0.0316 -0.1117 -1.0336
  453SOL    HW3 1579   4.404   0.458   0.650  0.1409  0.2666  0.2843
  453SOL    MW4 1580   4.358   0.387   0.671  0.1336  0.1400 -0.1461
  454SOL     OW 1581   2.548   3.947   6.025  0.0574 -0.5094  0.2139
  454SOL    HW2 1582   2.603   4.024   6.007  0.9824 -1.1106  0.4360
  454SOL    HW3 1583   2.588   3.877   5.975 -0.3550 -1.0187  0.5917
  454SOL    MW4 1584   2.561   3.948   6.016  0.1251 -0.6560  0.2931
  455SOL     OW 1585   4.660   6.336   3.511  0.3916  0.0327  0.0938
  455SOL    HW2 1586   4.633   6.327   3.602  0.1101 -1.2858 -0.0960
  455SOL    HW3 1587   4.751   6.367   3.516  0.1760  0.5766  0.7988
  455SOL    MW4 1588   4.668   6.339   3.523  0.3260 -0.0695  0.1618
  456SOL     OW 1589   2.547   3.172   0.703 -0.3476 -0.0483  0.6237
  456SOL    HW2 1590   2.499   3.243   0.747 -0.0899  0.1391  0.6052
  456SOL    HW3 1591   2.489   3.097   0.710 -1.5313  0.6371 -1.1124
  456SOL    MW4 1592   2.533   3.172   0.710 -0.4698  0.0668  0.3922
  457SOL     OW 1593   1.152   4.624   2.414  0.2254  0.4847 -0.1886
  457SOL    HW2 1594   1.066   4.587   2.433  0.0546  0.7587 -0.4344
  457SOL    HW3 1595   1.134   4.707   2.371  0.5830  1.6752  1.8398
  457SOL    MW4 1596   1.138   4.630   2.411  0.2500  0.6779  0.0466
  458SOL     OW 1597   4.360   5.486   6.136  0.0565 -0.1735  0.3520
  458SOL    HW2 1598   4.436   5.439   6.170  0.5568 -0.5315 -1.1933
  458SOL    HW3 1599   4.372   5.576   6.166  0.1790 -0.5771  1.5629
  458SOL    MW4 1600   4.372   5.492   6.144  0.1387 -0.2740  0.3079
  459SOL     OW 1601   5.436   3.273   3.260  0.0773  0.5286  0.0733
  459SOL    HW2 1602   5.508   3.327   3.229  1.5270  0.6566  3.2740
  459SOL    HW3 1603   5.377   3.334   3.304 -1.5981  0.2861 -1.7057
  459SOL    MW4 1604   5.438   3.288   3.262  0.0475  0.5135  0.2609
  460SOL     OW 1605   1.937   1.410   0.640 -0.6232  0.3078 -0.0815
  460SOL    HW2 1606   1.999   1.360   0.587 -0.8984  0.5561 -0.6381
  460SOL    HW3 1607   1.919   1.488   0.588  0.2062  1.2611  0.9992
  460SOL    MW4 1608   1.943   1.413   0.626 -0.5501  0.4663 -0.0124
  461SOL     OW 1609   3.985   4.297   3.539  0.3575 -0.2133  0.2170
  461SOL    HW2 1610   3.935   4.374   3.564  2.0651  2.1469 -2.9509
  461SOL    HW3 1611   4.023   4.265   3.621  1.5905  3.8228  1.4396
  461SOL    MW4 1612   3.983   4.303   3.553  0.7455  0.6306 -0.0397
  462SOL     OW 1613   2.468   4.795   5.751  0.0570  0.2829  0.1664
  462SOL    HW2 1614   2.424   4.716   5.782 -1.4130  0.7585 -0.6124
  462SOL    HW3 1615   2.507   4.770   5.667  0.6796  0.0574  0.5165
  462SOL    MW4 1616   2.468   4.782   5.744 -0.0548  0.3159  0.1098
  463SOL     OW 1617   0.174   3.072   5.749  0.1048 -1.2966 -0.1488
  463SOL    HW2 1618   0.103   3.010   5.737 -0.3167 -0.9156  0.3599
  463SOL    HW3 1619   0.145   3.129   5.820  0.6092 -0.6968 -0.4130
  463SOL    MW4 1620   0.161   3.071   5.757  0.1158 -1.1672 -0.1165
  464SOL     OW 1621   4.979   2.082   2.300 -0.0220  0.3183 -0.8757
  464SOL    HW2 1622   4.920   2.149   2.335  0.3299  0.3727 -0.3721
  464SOL    HW3 1623   5.004   2.116   2.214  0.6970  1.1918 -0.3437
  464SOL    MW4 1624   4.975   2.095   2.294  0.1193  0.4408 -0.7391
  465SOL     OW 1625   4.026   4.983   5.837 -0.5122 -0.1618  0.6878
  465SOL    HW2 1626   4.108   4.974   5.789 -1.1475 -1.8403 -0.1866
  465SOL    HW3 1627   4.041   4.937   5.920 -0.3097  0.2608  0.8858
  465SOL    MW4 1628   4.039   4.975   5.842 -0.5693 -0.3275  0.5986
  466SOL     OW 1629   2.656   5.170   5.937 -0.7562 -0.5243 -0.1154
  466SOL    HW2 1630   2.672   5.083   5.973 -1.3095 -0.3563  0.5585
  466SOL    HW3 1631   2.625   5.221   6.012 -1.6263 -0.0846 -0.7654
  466SOL    MW4 1632   2.654   5.165   5.952 -0.9440 -0.4441 -0.1122
  467SOL     OW 1633   4.512   0.643   4.989  0.4273 -0.0861  0.2021
  467SOL    HW2 1634   4.486   0.621   4.899  1.5641  0.7450 -0.3582
  467SOL    HW3 1635   4.558   0.727   4.980 -0.7240  0.7581  1.7702
  467SOL    MW4 1636   4.515   0.652   4.976  0.4254  0.1350  0.3350
  468SOL     OW 1637   3.089   6.138   5.608  0.3238 -0.1744 -0.1399
  468SOL    HW2 1638   3.077   6.116   5.516  2.9615  1.1835 -0.9217
  468SOL    HW3 1639   3.170   6.094   5.633 -0.6194 -0.9689  1.7489
  468SOL    MW4 1640   3.098   6.130   5.599  0.5474 -0.1001  0.0062
  469SOL     OW 1641   4.190   1.612   5.097  0.3930  0.3008  0.3987
  469SOL    HW2 1642   4.242   1.637   5.173 -0.0146 -2.3845  1.6825
  469SOL    HW3 1643   4.244   1.637   5.022  2.2515  0.1818  1.6323
  469SOL    MW4 1644   4.204   1.619   5.097  0.5845 -0.0692  0.7309
  470SOL     OW 1645   2.943   5.430   1.723  0.3069  0.2855  0.2525
  470SOL    HW2 1646   3.036   5.448   1.707  0.2832  0.7034  0.5732
  470SOL    HW3 1647   2.929   5.342   1.688  0.1882  1.2440 -2.2897
  470SOL    MW4 1648   2.953   5.420   1.717  0.2881  0.4671 -0.0406
  471SOL     OW 1649   4.446   0.107   0.493 -0.0288  0.3104 -0.0755
  471SOL    HW2 1650   4.477   0.196   0.512 -0.6421  0.7083 -0.8373
  471SOL    HW3 1651   4.351   0.114   0.502 -0.0861 -0.2470 -0.2589
  471SOL    MW4 1652   4.437   0.120   0.497 -0.1173  0.2893 -0.2002
  472SOL     OW 1653   6.137   3.519   5.659 -0.0973  0.4406  0.1963
  472SOL    HW2 1654   6.053   3.477   5.642 -1.5547  1.7570  3.3276
  472SOL    HW3 1655   6.202   3.451   5.643 -1.9979 -1.6335  0.7750
  472SOL    MW4 1656   6.134   3.505   5.654 -0.5403  0.3406  0.6858
  473SOL     OW 1657   4.068   1.512   2.017  0.2231 -0.0540  0.5712
  473SOL    HW2 1658   4.134   1.469   2.072  0.3179  0.7944  1.1449
  473SOL    HW3 1659   4.120   1.564   1.956  0.1071 -0.6961 -0.0885
  473SOL    MW4 1660   4.084   1.513   2.016  0.2203 -0.0268  0.5599
  474SOL     OW 1661   5.517   5.243   5.063 -0.3428 -0.1252 -0.2515
  474SOL    HW2 1662   5.612   5.243   5.052 -0.1681  0.4659  0.9798
  474SOL    HW3 1663   5.499   5.168   5.119 -0.5917 -0.1929 -0.4205
  474SOL    MW4 1664   5.527   5.233   5.069 -0.3526 -0.0561 -0.1113
  475SOL     OW 1665   3.360   5.183   5.901  0.1229 -0.1808 -0.5772
  475SOL    HW2 1666   3.291   5.211   5.960 -1.0860 -0.6576 -1.6933
  475SOL    HW3 1667   3.403   5.264   5.873  1.4859 -0.0235  1.7879
  475SOL    MW4 1668   3.356   5.197   5.905  0.1432 -0.2229 -0.4124
  476SOL     OW 1669   6.196   2.078   2.485  0.0399 -0.0163  0.4098
  476SOL    HW2 1670   6.201   2.166   2.521 -1.2380 -0.7333  2.5522
  476SOL    HW3 1671   6.283   2.041   2.501  0.4581  0.6968 -0.1408
  476SOL    MW4 1672   6.209   2.085   2.492 -0.0735 -0.0168  0.6198
  477SOL     OW 1673   4.351   1.022   1.627  0.0426 -0.1087  0.2393
  477SOL    HW2 1674   4.337   1.102   1.677 -3.3344  0.1942 -0.9506
  477SOL    HW3 1675   4.349   0.951   1.691  0.9250  0.5669  1.0378
  477SOL    MW4 1676   4.349   1.023   1.642 -0.2865  0.0204  0.1876
  478SOL     OW 1677   0.490   1.512   4.804 -0.6547 -0.5286 -0.0016
  478SOL    HW2 1678   0.476   1.433   4.752  0.0986 -0.0709 -0.9522
  478SOL    HW3 1679   0.555   1.486   4.870 -0.8540 -0.8513  0.0701
  478SOL    MW4 1680   0.497   1.498   4.806 -0.5816 -0.5108 -0.1176
  479SOL     OW 1681   0.786   1.956   4.151  0.0181 -0.2591  0.1282
  479SOL    HW2 1682   0.842   1.907   4.090 -0.3803  0.3439 -0.7457
  479SOL    HW3 1683   0.710   1.980   4.099 -0.2679  0.3921  0.8347
  479SOL    MW4 1684   0.784   1.952   4.136 -0.0722 -0.0936  0.1061
  480SOL     OW 1685   5.747   2.710   1.924  0.0068  0.1244 -0.2300
  480SOL    HW2 1686   5.837   2.718   1.891  1.2651  1.5736  3.0296
  480SOL    HW3 1687   5.745   2.623   1.964  0.8382  0.8849  1.6299
  480SOL    MW4 1688   5.759   2.699   1.925  0.2826  0.4160  0.4454
  481SOL     OW 1689   6.333   5.175   0.892 -0.3551  0.3416  0.0333
  481SOL    HW2 1690   6.321   5.232   0.968  0.2091  0.0800  0.3219
  481SOL    HW3 1691   6.423   5.189   0.865 -0.6867  0.7722 -0.8781
  481SOL    MW4 1692   6.343   5.184   0.899 -0.3244  0.3639 -0.0489
  482SOL     OW 1693   1.097   2.920   4.244  0.3195 -0.2672  0.2317
  482SOL    HW2 1694   1.038   2.977   4.194  0.6553  0.4924  0.6844
  482SOL    HW3 1695   1.060   2.832   4.232  0.2992 -0.0876 -1.1948
  482SOL    MW4 1696   1.084   2.916   4.236  0.3611 -0.1433  0.1032
  483SOL     OW 1697   2.121   1.959   6.164 -0.5785  0.7197 -0.2832
  483SOL    HW2 1698   2.062   2.024   6.202 -0.0312  0.4124  1.1607
  483SOL    HW3 1699   2.207   2.002   6.162 -0.2969  0.2052  0.2847
  483SOL    MW4 1700   2.125   1.973   6.168 -0.4691  0.6112 -0.0178
  484SOL     OW 1701   6.168   2.805   2.467  0.6177 -0.1075 -0.0056
  484SOL    HW2 1702   6.142   2.734   2.525  1.8170 -0.5353  0.0293
  484SOL    HW3 1703   6.154   2.885   2.518 -1.3647 -0.2199 -0.2699
  484SOL    MW4 1704   6.162   2.806   2.481  0.5144 -0.1788 -0.0358
  485SOL     OW 1705   2.481   3.475   2.547  0.7399 -0.2400  0.2183
  485SOL    HW2 1706   2.402   3.496   2.497  1.4668 -1.0269 -1.3381
  485SOL    HW3 1707   2.449   3.444   2.632 -0.5661  0.5841  0.0387
  485SOL    MW4 1708   2.467   3.473   2.552  0.6635 -0.2351 -0.0107
  486SOL     OW 1709   0.698   6.157   5.732  0.1783  0.5035 -0.3519
  486SOL    HW2 1710   0.728   6.125   5.647  0.4941  0.9387 -0.4094
  486SOL    HW3 1711   0.710   6.083   5.791  0.6338  0.4204 -0.5394
  486SOL    MW4 1712   0.704   6.143   5.729  0.2800  0.5499 -0.3843
  487SOL     OW 1713   5.994   1.570   5.852  0.4372  0.4021 -0.3897
  487SOL    HW2 1714   5.959   1.610   5.932  1.1672 -1.5276  0.9444
  487SOL    HW3 1715   5.949   1.617   5.781 -2.6359  0.0633  1.1611
  487SOL    MW4 1716   5.983   1.582   5.853  0.1281  0.1028 -0.0091
  488SOL     OW 1717   4.451   4.649   6.226 -0.6673 -0.0980 -0.2742
  488SOL    HW2 1718   4.445   4.576   6.288  0.7437 -0.1865 -0.2126
  488SOL    HW3 1719   4.538   4.686   6.241 -1.1098  1.1967 -0.7655
  488SOL    MW4 1720   4.461   4.644   6.236 -0.5395  0.0611 -0.3309
  489SOL     OW 1721   3.351   2.803   0.156 -0.1130 -0.7655  0.5480
  489SOL    HW2 1722   3.319   2.872   0.215  1.2839 -0.6253  1.1726
  489SOL    HW3 1723   3.344   2.723   0.207 -1.6586 -1.1093 -0.1516
  489SOL    MW4 1724   3.346   2.802   0.171 -0.1326 -0.7923  0.5381
  490SOL     OW 1725   0.211   5.904   0.591  0.0145  0.1302 -0.3759
  490SOL    HW2 1726   0.209   5.916   0.686  0.3387 -0.5220 -0.2766
  490SOL    HW3 1727   0.120   5.915   0.563  0.1838  2.2012 -0.2596
  490SOL    MW4 1728   0.199   5.907   0.600  0.0796  0.3174 -0.3475
  491SOL     OW 1729   4.265   3.508   4.636 -0.0909 -0.4298  0.3033
  491SOL    HW2 1730   4.265   3.522   4.542 -0.1588  0.0424  0.3708
  491SOL    HW3 1731   4.173   3.507   4.661 -0.1010 -1.2735  0.2667
  491SOL    MW4 1732   4.253   3.510   4.627 -0.1012 -0.4788  0.3074
  492SOL     OW 1733   6.234   5.616   1.472 -0.1650  0.4416  0.3785
  492SOL    HW2 1734   6.290   5.680   1.428 -0.2260  1.3054  1.5050
  492SOL    HW3 1735   6.201   5.663   1.549 -1.7878 -0.3286  0.1701
  492SOL    MW4 1736   6.237   5.631   1.477 -0.3871  0.4539  0.4996
  493SOL     OW 1737   4.010   3.705   6.156 -0.3799 -0.2122  0.0588
  493SOL    HW2 1738   4.056   3.716   6.073 -1.0534  2.1749 -0.0688
  493SOL    HW3 1739   3.923   3.673   6.132 -0.1366 -0.8141 -0.0321
  493SOL    MW4 1740   4.005   3.703   6.142 -0.4367  0.0233  0.0299
  494SOL     OW 1741   3.259   1.894   4.232  0.6510 -0.0746  0.2554
  494SOL    HW2 1742   3.295   1.928   4.150  1.3850 -0.7439  0.2833
  494SOL    HW3 1743   3.299   1.949   4.300 -1.7867  2.0729  0.1011
  494SOL    MW4 1744   3.269   1.906   4.230  0.4262  0.1204  0.2387
  495SOL     OW 1745   5.311   4.143   4.595  0.2252 -0.1579  0.1186
  495SOL    HW2 1746   5.351   4.221   4.557  0.1170 -0.2710 -0.2364
  495SOL    HW3 1747   5.374   4.073   4.576 -1.2937 -0.8728 -2.8397
  495SOL    MW4 1748   5.325   4.144   4.587  0.0105 -0.2671 -0.3185
  496SOL     OW 1749   2.871   0.427   2.033  0.0025  0.0047  0.1512
  496SOL    HW2 1750   2.906   0.345   2.000 -1.0711 -0.3646 -0.0864
  496SOL    HW3 1751   2.928   0.494   1.994 -1.5451 -0.3489 -3.0562
  496SOL    MW4 1752   2.883   0.425   2.024 -0.3433 -0.0907 -0.3033
  497SOL     OW 1753   4.476   0.484   2.405  0.7609  0.4373  0.5862
  497SOL    HW2 1754   4.523   0.401   2.405  0.2634  0.1435 -0.7135
  497SOL    HW3 1755   4.521   0.536   2.472  2.0737 -0.3037  0.3169
  497SOL    MW4 1756   4.488   0.480   2.414  0.8685  0.3008  0.3792
  498SOL     OW 1757   3.452   1.716   4.778  0.4596 -0.1792 -0.1370
  498SOL    HW2 1758   3.428   1.637   4.828 -0.9826  0.5609  0.3785
  498SOL    HW3 1759   3.372   1.767   4.774  0.7258  0.1540 -2.6040
  498SOL    MW4 1760   3.438   1.712   4.784  0.3045 -0.0376 -0.3945
  499SOL     OW 1761   6.419   1.423   4.339 -0.3202  0.6917  0.3772
  499SOL    HW2 1762   6.328   1.434   4.314  0.3214 -0.0592 -2.7523
  499SOL    HW3 1763   6.429   1.328   4.350  0.4731  0.4867 -1.5476
  499SOL    MW4 1764   6.409   1.412   4.337 -0.1309  0.5656 -0.2897
  500SOL     OW 1765   2.775   2.370   5.198  0.5693 -0.2513 -0.0254
  500SOL    HW2 1766   2.719   2.294   5.213 -0.0938  0.2970  0.3605
  500SOL    HW3 1767   2.863   2.341   5.224  0.5834 -1.2896 -1.1570
  500SOL    MW4 1768   2.780   2.356   5.204  0.4837 -0.3160 -0.1238
  501SOL     OW 1769   1.381   3.896   0.127 -0.1321  0.1273 -0.0120
  501SOL    HW2 1770   1.439   3.965   0.094  1.6853 -2.5819 -3.1133
  501SOL    HW3 1771   1.307   3.896   0.068 -0.4381 -0.1545  0.3645
  501SOL    MW4 1772   1.379   3.905   0.115  0.0673 -0.2673 -0.3715
  502SOL     OW 1773   3.912   2.775   1.068 -0.0698  0.3230  0.2300
  502SOL    HW2 1774   3.890   2.791   0.976 -0.0075  2.5076  0.5340
  502SOL    HW3 1775   3.982   2.710   1.065  0.4763  0.9349 -1.3157
  502SOL    MW4 1776   3.918   2.769   1.056  0.0105  0.6920  0.0662
  503SOL     OW 1777   5.264   4.176   4.858 -0.3708  0.0499 -0.0908
  503SOL    HW2 1778   5.291   4.160   4.767  1.1307 -1.6574  0.5823
  503SOL    HW3 1779   5.250   4.270   4.863 -2.3675  0.0007 -2.5538
  503SOL    MW4 1780   5.266   4.186   4.846 -0.4361 -0.1819 -0.3270
  504SOL     OW 1781   4.205   1.108   5.018  0.2237 -0.5052 -0.3378
  504SOL    HW2 1782   4.300   1.096   5.019  0.8677  3.2485 -0.4670
  504SOL    HW3 1783   4.180   1.101   4.926  0.6029 -0.3628 -0.4528
  504SOL    MW4 1784   4.214   1.106   5.006  0.3587  0.0088 -0.3700
  505SOL     OW 1785   1.859   5.029   4.048  0.1227 -0.7344  0.2615
  505SOL    HW2 1786   1.812   4.952   4.018 -0.5623  0.9653 -3.7354
  505SOL    HW3 1787   1.792   5.098   4.051  1.0762  0.1692  1.6101
  505SOL    MW4 1788   1.844   5.028   4.044  0.1581 -0.3909 -0.0879
  506SOL     OW 1789   1.071   0.114   6.478  0.2094  0.0236  0.8512
  506SOL    HW2 1790   1.118   0.177   6.423  2.0346 -0.9241  1.2391
  506SOL    HW3 1791   1.023   0.168   6.541  1.0580  1.0379  0.6615
  506SOL    MW4 1792   1.071   0.129   6.479  0.5622  0.0324  0.8773
  507SOL     OW 1793   3.802   6.213   0.694 -0.2010  0.5238  0.1424
  507SOL    HW2 1794   3.822   6.122   0.675 -0.0119  0.4233  0.8110
  507SOL    HW3 1795   3.716   6.228   0.654 -0.8449 -0.3209  1.1778
  507SOL    MW4 1796   3.793   6.203   0.686 -0.2610  0.3991  0.3672
  508SOL     OW 1797   4.415   1.889   2.201 -0.1391 -0.3239 -0.0024
  508SOL    HW2 1798   4.421   1.796   2.225 -0.0573 -0.1226  0.7747
  508SOL    HW3 1799   4.397   1.888   2.107 -1.5438 -1.1520  0.2521
  508SOL    MW4 1800   4.413   1.876   2.191 -0.3136 -0.4066  0.1337
  509SOL     OW 1801   3.093   0.712   5.162  0.0645 -0.4925 -0.2418
  509SOL    HW2 1802   3.180   0.688   5.129  0.9514  2.5297 -0.4649
  509SOL    HW3 1803   3.045   0.738   5.084 -0.9931 -1.8695 -0.0797
  509SOL    MW4 1804   3.098   0.713   5.147  0.0420 -0.2754 -0.2499
  510SOL     OW 1805   0.621   5.684   6.015  0.7145  0.1811 -0.1150
  510SOL    HW2 1806   0.607   5.597   6.052  1.4475  1.2091  2.8845
  510SOL    HW3 1807   0.707   5.678   5.973  0.8097 -0.5232  0.1659
  510SOL    MW4 1808   0.631   5.672   6.015  0.8238  0.2238  0.3178
  511SOL     OW 1809   5.629   2.938   2.757 -0.2679 -0.3051 -0.3088
  511SOL    HW2 1810   5.605   2.883   2.682 -3.6264  0.2296  0.2330
  511SOL    HW3 1811   5.679   2.880   2.814 -0.0272 -1.5175 -1.6817
  511SOL    MW4 1812   5.633   2.923   2.755 -0.6792 -0.3945 -0.4185
  512SOL     OW 1813   5.314   3.190   6.377  0.0575  0.3891  0.0269
  512SOL    HW2 1814   5.326   3.283   6.358 -0.7651  0.3802 -0.5786
  512SOL    HW3 1815   5.395   3.148   6.349  0.5161  0.9476  0.5003
  512SOL    MW4 1816   5.326   3.197   6.371  0.0095  0.4616  0.0094
  513SOL     OW 1817   1.250   2.428   3.917 -0.3205 -1.0051 -0.0535
  513SOL    HW2 1818   1.340   2.395   3.924 -0.0421 -0.3082 -0.2151
  513SOL    HW3 1819   1.225   2.447   4.007  0.0144 -0.3945 -0.0831
  513SOL    MW4 1820   1.259   2.426   3.930 -0.2396 -0.8326 -0.0787
  514SOL     OW 1821   2.951   3.934   2.985 -0.7784 -0.0063 -0.1390
  514SOL    HW2 1822   3.026   3.977   3.025 -0.4755 -2.3532  2.0724
  514SOL    HW3 1823   2.876   3.965   3.036 -1.1300  0.9495 -1.1875
  514SOL    MW4 1824   2.951   3.944   2.997 -0.7848 -0.1898  0.0144
  515SOL     OW 1825   4.539   5.386   1.901 -0.2083  0.2457  0.0416
  515SOL    HW2 1826   4.554   5.450   1.972 -0.2088 -0.0687  0.3271
  515SOL    HW3 1827   4.514   5.306   1.947 -0.4982  0.1229 -0.3306
  515SOL    MW4 1828   4.537   5.384   1.917 -0.2466  0.1880  0.0301
  516SOL     OW 1829   0.714   4.505   3.602 -0.2708 -0.7958 -0.2896
  516SOL    HW2 1830   0.644   4.557   3.562 -1.1839 -2.2590 -0.6554
  516SOL    HW3 1831   0.731   4.549   3.686 -0.6674  0.3657 -0.7942
  516SOL    MW4 1832   0.707   4.518   3.608 -0.4436 -0.8356 -0.4044
  517SOL     OW 1833   3.181   0.239   0.712  0.0295 -0.5018 -0.3246
  517SOL    HW2 1834   3.224   0.273   0.634  0.8672 -1.8819 -0.4948
  517SOL    HW3 1835   3.124   0.310   0.741 -0.5297 -0.0609 -2.3521
  517SOL    MW4 1836   3.179   0.253   0.706  0.0662 -0.6257 -0.6146
  518SOL     OW 1837   2.924   5.253   0.822 -0.2407  0.2573 -0.2726
  518SOL    HW2 1838   2.975   5.174   0.804 -0.3447  0.1416 -0.0628
  518SOL    HW3 1839   2.965   5.291   0.901 -0.1034  0.4878 -0.4529
  518SOL    MW4 1840   2.936   5.248   0.830 -0.2363  0.2725 -0.2687
  519SOL     OW 1841   0.188   5.479   5.051 -0.2456  0.1774  0.3019
  519SOL    HW2 1842   0.252   5.497   5.119 -1.5961 -0.5967  1.8590
  519SOL    HW3 1843   0.178   5.383   5.052  1.3436 -0.1305 -2.5908
  519SOL    MW4 1844   0.195   5.469   5.060 -0.2141  0.0346  0.1257
  520SOL     OW 1845   5.864   1.922   1.402  0.1955  0.5890 -0.1319
  520SOL    HW2 1846   5.779   1.923   1.356 -0.0773  0.1454  0.3575
  520SOL    HW3 1847   5.924   1.882   1.339 -0.9269 -3.5819  1.1203
  520SOL    MW4 1848   5.861   1.917   1.388  0.0114 -0.0198  0.0979
  521SOL     OW 1849   0.776   5.078   5.184  0.1611 -0.4515 -0.3739
  521SOL    HW2 1850   0.837   5.005   5.190 -0.0173 -0.5514  0.4213
  521SOL    HW3 1851   0.831   5.155   5.174  0.5484 -0.3434  2.0316
  521SOL    MW4 1852   0.791   5.078   5.184  0.1887 -0.4504  0.0484
  522SOL     OW 1853   2.748   2.462   0.156 -0.5486 -0.0926  0.4599
  522SOL    HW2 1854   2.788   2.525   0.215 -2.8747 -0.6036  2.7964
  522SOL    HW3 1855   2.712   2.515   0.085 -0.5834  0.9896  1.2558
  522SOL    MW4 1856   2.748   2.477   0.155 -0.8601 -0.0172  0.8732
  523SOL     OW 1857   0.108   1.466   4.080 -0.3490  0.4481  0.0339
  523SOL    HW2 1858   0.032   1.505   4.036  0.0733  1.0469 -0.1783
  523SOL    HW3 1859   0.082   1.460   4.172 -0.0474  2.2161  0.2604
  523SOL    MW4 1860   0.094   1.470   4.086 -0.2535  0.7604  0.0358
  524SOL     OW 1861   3.406   4.927   3.538  0.2769  0.3312 -0.2590
  524SOL    HW2 1862   3.368   4.920   3.626 -2.3061  2.5890 -1.0728
  524SOL    HW3 1863   3.482   4.984   3.549 -0.8574  1.7840  0.3397
  524SOL    MW4 1864   3.411   4.933   3.551 -0.2135  0.8208 -0.2874
  525SOL     OW 1865   0.913   4.992   4.387  0.1515 -0.2116 -0.2981
  525SOL    HW2 1866   0.989   4.979   4.443 -0.9497  1.6112  1.8002
  525SOL    HW3 1867   0.950   5.009   4.301  2.2631  1.7000  0.8551
  525SOL    MW4 1868   0.928   4.993   4.383  0.2848  0.2811  0.1309
  526SOL     OW 1869   1.049   6.306   0.443  0.4269 -0.1876 -0.4083
  526SOL    HW2 1870   1.033   6.400   0.450  1.0661 -0.1698  1.3987
  526SOL    HW3 1871   0.969   6.265   0.475  1.2546 -0.1714  1.8822
  526SOL    MW4 1872   1.037   6.313   0.448  0.6205 -0.1831  0.1323
  527SOL     OW 1873   2.661   3.109   3.220  0.1204 -0.0422  0.0513
  527SOL    HW2 1874   2.573   3.077   3.240 -0.2986  0.0619 -1.5071
  527SOL    HW3 1875   2.648   3.200   3.192  0.7792  0.1287  0.2800
  527SOL    MW4 1876   2.647   3.117   3.219  0.1520 -0.0060 -0.1241
  528SOL     OW 1877   6.276   4.757   6.068 -1.0019 -0.5660  0.5282
  528SOL    HW2 1878   6.316   4.839   6.038  0.2014 -1.0960  0.6479
  528SOL    HW3 1879   6.233   4.722   5.991  1.2743 -1.4518 -0.4304
  528SOL    MW4 1880   6.276   4.763   6.054 -0.5428 -0.7528  0.4175
  529SOL     OW 1881   4.950   3.825   3.662  0.2072  0.2836 -0.3294
  529SOL    HW2 1882   5.003   3.755   3.699 -0.3745  1.0643  2.1490
  529SOL    HW3 1883   5.014   3.891   3.635  0.6259  0.1563  0.3207
  529SOL    MW4 1884   4.965   3.825   3.663  0.1857  0.3698  0.0834
  530SOL     OW 1885   6.136   4.061   3.531  0.2968  0.2885  0.0605
  530SOL    HW2 1886   6.108   3.978   3.570  1.2131  0.5584  1.3689
  530SOL    HW3 1887   6.228   4.048   3.509 -0.2894 -0.0024 -2.5549
  530SOL    MW4 1888   6.144   4.048   3.533  0.3404  0.2857 -0.1119
  531SOL     OW 1889   2.033   3.844   0.676 -0.0894  0.4576  0.0960
  531SOL    HW2 1890   2.034   3.886   0.762 -0.2352  0.7221 -0.0292
  531SOL    HW3 1891   2.022   3.750   0.695  0.1403  0.4858  0.3730
  531SOL    MW4 1892   2.032   3.837   0.690 -0.0783  0.4962  0.1160
  532SOL     OW 1893   4.142   4.206   3.759 -0.3759  0.0439  0.4006
  532SOL    HW2 1894   4.168   4.289   3.799 -2.2324  0.9563 -0.1783
  532SOL    HW3 1895   4.163   4.140   3.826 -0.1271  1.1296  1.4319
  532SOL    MW4 1896   4.148   4.208   3.773 -0.5880  0.3075  0.4603
  533SOL     OW 1897   2.739   0.233   0.864 -0.2462 -0.1923  0.0326
  533SOL    HW2 1898   2.655   0.198   0.833  0.6532 -1.5216 -1.0183
  533SOL    HW3 1899   2.782   0.264   0.784  0.8614 -0.8845  0.3453
  533SOL    MW4 1900   2.734   0.233   0.849  0.0186 -0.4590 -0.0648
  534SOL     OW 1901   5.495   0.486   3.862  0.1738  0.1046  0.1573
  534SOL    HW2 1902   5.459   0.572   3.881  2.5259  0.9240  1.2361
  534SOL    HW3 1903   5.457   0.428   3.928  1.2430  1.0828  1.6991
  534SOL    MW4 1904   5.485   0.490   3.873  0.6252  0.3418  0.5030
  535SOL     OW 1905   0.357   3.113   4.934  0.1206 -0.5797 -0.1005
  535SOL    HW2 1906   0.370   3.068   5.018 -1.1458 -0.0611  0.3970
  535SOL    HW3 1907   0.442   3.105   4.889  0.4551 -1.9240  0.7024
  535SOL    MW4 1908   0.370   3.106   4.939 -0.0023 -0.6886  0.0711
  536SOL     OW 1909   2.704   3.309   1.430  0.1403 -0.5574  0.0657
  536SOL    HW2 1910   2.626   3.285   1.480  0.0003  0.6757  0.4544
  536SOL    HW3 1911   2.677   3.383   1.376  0.3939 -1.6372 -1.6114
  536SOL    MW4 1912   2.690   3.315   1.430  0.1553 -0.5372 -0.1043
  537SOL     OW 1913   1.164   2.410   1.865  0.0348  0.2917 -0.0868
  537SOL    HW2 1914   1.188   2.443   1.951  1.2545  1.4736 -0.8397
  537SOL    HW3 1915   1.228   2.341   1.846  1.3355  1.7003 -1.0278
  537SOL    MW4 1916   1.176   2.405   1.874  0.3674  0.6335 -0.3103
  538SOL     OW 1917   5.458   2.083   4.558 -0.1996  0.0288  0.5711
  538SOL    HW2 1918   5.553   2.089   4.567  0.0779 -1.2155 -1.0424
  538SOL    HW3 1919   5.436   1.997   4.595 -0.2497 -1.0153 -1.7484
  538SOL    MW4 1920   5.468   2.072   4.564 -0.1696 -0.2732  0.0522
  539SOL     OW 1921   1.651   5.432   6.238  0.0023  0.4731  0.2317
  539SOL    HW2 1922   1.670   5.356   6.294  0.7849 -0.1305 -0.8205
  539SOL    HW3 1923   1.666   5.507   6.295  0.7338 -0.1243  0.8532
  539SOL    MW4 1924   1.655   5.432   6.253  0.2021  0.3147  0.1749
  540SOL     OW 1925   1.978   5.766   2.048  0.2148 -0.1834 -0.6773
  540SOL    HW2 1926   2.021   5.821   1.982  1.1932 -1.1549 -0.8727
  540SOL    HW3 1927   2.020   5.791   2.130  0.2082 -0.1813 -0.6746
  540SOL    MW4 1928   1.989   5.777   2.050  0.3430 -0.3113 -0.7027
  541SOL     OW 1929   0.717   3.315   3.899 -0.1570 -0.6227  0.0213
  541SOL    HW2 1930   0.745   3.343   3.811 -3.3558  0.0819 -0.8807
  541SOL    HW3 1931   0.669   3.390   3.934 -0.8527 -1.6992  1.4688
  541SOL    MW4 1932   0.715   3.329   3.892 -0.6709 -0.6718  0.0933
  542SOL     OW 1933   4.677   4.552   1.525  0.0010  0.2909  0.1478
  542SOL    HW2 1934   4.655   4.640   1.555 -1.3772 -0.3200  1.0528
  542SOL    HW3 1935   4.720   4.511   1.600 -0.9463 -0.3455  0.3686
  542SOL    MW4 1936   4.680   4.558   1.539 -0.3059  0.1264  0.2963
  543SOL     OW 1937   2.518   5.714   5.029  0.6155 -0.1381  0.4439
  543SOL    HW2 1938   2.512   5.642   4.966 -0.7158  0.4404 -0.1170
  543SOL    HW3 1939   2.583   5.684   5.093  1.1251 -1.2372 -0.5438
  543SOL    MW4 1940   2.526   5.701   5.029  0.5071 -0.2068  0.2396
  544SOL     OW 1941   3.653   4.710   4.416  0.1578 -0.1567  0.5923
  544SOL    HW2 1942   3.615   4.628   4.449 -1.8573  1.1036  1.5884
  544SOL    HW3 1943   3.648   4.770   4.490  0.7201  1.1591 -0.3938
  544SOL    MW4 1944   3.648   4.707   4.430 -0.0339  0.1832  0.5936
  545SOL     OW 1945   1.653   5.540   5.689 -0.0241 -0.3979  0.3902
  545SOL    HW2 1946   1.654   5.469   5.625 -0.0201 -1.9654  2.0344
  545SOL    HW3 1947   1.619   5.500   5.769  0.6006  1.3039  1.5767
  545SOL    MW4 1948   1.648   5.526   5.691  0.0588 -0.3802  0.7637
  546SOL     OW 1949   1.346   2.455   3.607 -0.1160 -0.4511 -0.0945
  546SOL    HW2 1950   1.370   2.408   3.527 -0.9751 -0.4397 -0.3682
  546SOL    HW3 1951   1.364   2.547   3.586 -0.9946 -0.3681 -0.5381
  546SOL    MW4 1952   1.352   2.461   3.594 -0.3453 -0.4386 -0.1891
  547SOL     OW 1953   2.219   1.404   5.557  0.0803  0.5965 -0.8363
  547SOL    HW2 1954   2.231   1.428   5.649 -0.4966 -1.1538 -0.2630
  547SOL    HW3 1955   2.302   1.429   5.515  0.7274  0.5368  0.3638
  547SOL    MW4 1956   2.232   1.411   5.564  0.0895  0.3577 -0.6023
  548SOL     OW 1957   5.588   1.972   1.341 -0.2254  0.7322 -0.5289
  548SOL    HW2 1958   5.509   1.934   1.380  0.2352  0.7306  0.4278
  548SOL    HW3 1959   5.601   1.923   1.260 -0.5336 -0.0786 -0.0966
  548SOL    MW4 1960   5.579   1.960   1.336 -0.2053  0.6250 -0.3456
  549SOL     OW 1961   2.190   2.128   4.418 -0.0929 -0.7178  0.3687
  549SOL    HW2 1962   2.238   2.047   4.436  1.9503  0.2260 -0.5556
  549SOL    HW3 1963   2.170   2.163   4.505  1.1009 -1.0529  0.8057
  549SOL    MW4 1964   2.194   2.122   4.432  0.3342 -0.6375  0.3044
  550SOL     OW 1965   1.855   0.161   0.286 -0.1971  0.1115 -0.1172
  550SOL    HW2 1966   1.943   0.198   0.295 -0.2123  0.1915 -0.3036
  550SOL    HW3 1967   1.809   0.221   0.229 -0.3993  0.1108  0.0432
  550SOL    MW4 1968   1.860   0.174   0.280 -0.2258  0.1220 -0.1206
  551SOL     OW 1969   1.897   3.108   2.142 -0.2687 -0.8659  0.2789
  551SOL    HW2 1970   1.957   3.059   2.198  1.1684 -0.4467 -0.8370
  551SOL    HW3 1971   1.929   3.198   2.146  1.1458 -1.1175 -2.6790
  551SOL    MW4 1972   1.909   3.113   2.150  0.1076 -0.8438 -0.2586
  552SOL     OW 1973   2.603   1.339   3.201 -0.4260  0.1329 -0.2573
  552SOL    HW2 1974   2.595   1.367   3.110 -0.5339  0.4879 -0.1409
  552SOL    HW3 1975   2.689   1.297   3.206  0.3750  1.7259 -0.1066
  552SOL    MW4 1976   2.613   1.337   3.190 -0.3346  0.3900 -0.2221
  553SOL     OW 1977   3.338   3.586   4.423  0.0467  0.4300 -0.0618
  553SOL    HW2 1978   3.373   3.513   4.474  1.1049  0.2919 -0.9306
  553SOL    HW3 1979   3.269   3.623   4.477 -1.6652 -2.2079 -0.2679
  553SOL    MW4 1980   3.334   3.581   4.437 -0.0396  0.0637 -0.2036
  554SOL     OW 1981   2.567   1.514   3.690  0.1497  0.0321  0.1765
  554SOL    HW2 1982   2.572   1.501   3.596 -2.5563 -3.2194  0.2724
  554SOL    HW3 1983   2.603   1.433   3.727  0.1379  0.7709  1.9132
  554SOL    MW4 1984   2.572   1.502   3.683 -0.2089 -0.2994  0.4183
  555SOL     OW 1985   3.015   0.976   2.752 -0.0955  0.0006  0.4547
  555SOL    HW2 1986   3.081   0.909   2.768 -1.5997 -1.4148  0.9963
  555SOL    HW3 1987   3.008   0.981   2.657 -1.5827 -2.3893  0.3366
  555SOL    MW4 1988   3.022   0.968   2.742 -0.4902 -0.5015  0.5106
  556SOL     OW 1989   1.370   5.243   6.059  0.0414  0.3785 -0.1387
  556SOL    HW2 1990   1.347   5.321   6.109 -0.5273  0.9444 -1.2697
  556SOL    HW3 1991   1.409   5.276   5.979  0.9032 -0.5246 -0.1074
  556SOL    MW4 1992   1.372   5.258   6.055  0.0800  0.3340 -0.2838
  557SOL     OW 1993   6.281   1.042   5.966  0.0023  0.1923  0.6177
  557SOL    HW2 1994   6.345   1.096   5.919  0.3513 -0.6994  0.0545
  557SOL    HW3 1995   6.296   0.953   5.934 -0.7938 -0.1953  1.2873
  557SOL    MW4 1996   6.292   1.038   5.955 -0.0567  0.0235  0.6317
  558SOL     OW 1997   5.245   2.464   6.072  0.2231  0.2849  0.5023
  558SOL    HW2 1998   5.328   2.422   6.048 -1.2674 -2.7121  0.0587
  558SOL    HW3 1999   5.211   2.410   6.144 -2.1755  0.2272 -0.5746
  558SOL    MW4 2000   5.252   2.451   6.079 -0.2900 -0.1181  0.3017
  559SOL     OW 2001   5.816   0.982   5.653 -0.0972 -0.1135  0.4644
  559SOL    HW2 2002   5.855   1.015   5.573 -1.6931  1.1812  0.1638
  559SOL    HW3 2003   5.882   0.996   5.720 -0.3267  2.9482  0.1793
  559SOL    MW4 2004   5.830   0.988   5.651 -0.3380  0.4612  0.3872
  560SOL     OW 2005   4.734   6.150   1.262 -0.5154 -0.0442 -0.4764
  560SOL    HW2 2006   4.685   6.153   1.179  0.2168  0.6827 -0.8999
  560SOL    HW3 2007   4.787   6.071   1.256 -1.0544 -0.4162 -0.3557
  560SOL    MW4 2008   4.735   6.140   1.250 -0.4899  0.0027 -0.5163
  561SOL     OW 2009   2.427   0.234   4.639  0.2968  0.1965  0.3777
  561SOL    HW2 2010   2.495   0.285   4.594 -1.3398  2.9584  0.8212
  561SOL    HW3 2011   2.452   0.237   4.731  1.4077 -1.8940  0.2076
  561SOL    MW4 2012   2.439   0.241   4.645  0.2274  0.2851  0.4138
  562SOL     OW 2013   0.217   1.714   5.408  0.1831  0.5644 -0.2279
  562SOL    HW2 2014   0.189   1.641   5.462  2.0331  0.9139  1.3048
  562SOL    HW3 2015   0.141   1.773   5.406 -0.8915 -0.7743 -0.4617
  562SOL    MW4 2016   0.203   1.712   5.415  0.2854  0.4339 -0.0565
  563SOL     OW 2017   3.546   2.562   1.718  0.5168 -0.1970 -0.5005
  563SOL    HW2 2018   3.531   2.533   1.628  1.0200  1.5529 -1.1760
  563SOL    HW3 2019   3.609   2.633   1.711  1.1205 -0.4974  1.3207
  563SOL    MW4 2020   3.552   2.567   1.705  0.6629 -0.0058 -0.3493
  564SOL     OW 2021   1.511   1.150   5.635  0.1557  0.2520  0.2086
  564SOL    HW2 2022   1.576   1.219   5.651  0.1618  0.4142 -0.4696
  564SOL    HW3 2023   1.427   1.191   5.655  0.0064  1.0096 -1.7600
  564SOL    MW4 2024   1.508   1.165   5.640  0.1368  0.3733 -0.1406
  565SOL     OW 2025   0.478   3.939   2.119 -0.4693  0.1771  0.1937
  565SOL    HW2 2026   0.573   3.927   2.117 -0.2543  1.7740 -0.2668
  565SOL    HW3 2027   0.445   3.879   2.052  0.1631 -0.5761  0.5341
  565SOL    MW4 2028   0.486   3.929   2.110 -0.3575  0.2884  0.1779
  566SOL     OW 2029   6.201   4.734   0.180 -0.1946 -0.1779  0.2257
  566SOL    HW2 2030   6.176   4.650   0.142 -0.5112 -0.1073  0.2751
  566SOL    HW3 2031   6.278   4.762   0.131 -0.4574 -0.2009 -0.2008
  566SOL    MW4 2032   6.208   4.727   0.169 -0.2711 -0.1716  0.1759
  567SOL     OW 2033   4.946   5.177   4.170  0.1697  0.1036  0.8847
  567SOL    HW2 2034   4.880   5.203   4.105 -0.2168  0.6600  1.4903
  567SOL    HW3 2035   4.935   5.239   4.242  0.2947 -0.7791  1.6822
  567SOL    MW4 2036   4.936   5.188   4.171  0.1352  0.0605  1.0698
  568SOL     OW 2037   1.309   6.074   4.719 -0.0334 -0.2253  0.2873
  568SOL    HW2 2038   1.275   6.116   4.798  0.5480  1.4969 -0.3243
  568SOL    HW3 2039   1.357   5.999   4.751  2.0240  1.6150  1.8277
  568SOL    MW4 2040   1.311   6.070   4.734  0.3148  0.2447  0.4098
  569SOL     OW 2041   2.386   1.194   4.400 -0.2898  0.0414 -0.1637
  569SOL    HW2 2042   2.301   1.153   4.383 -0.1123 -0.5120  0.2406
  569SOL    HW3 2043   2.418   1.150   4.479  0.6009 -0.1175 -0.5990
  569SOL    MW4 2044   2.379   1.183   4.408 -0.1489 -0.0526 -0.1678
  570SOL     OW 2045   4.741   0.903   1.412 -0.1210 -0.2002 -0.2839
  570SOL    HW2 2046   4.762   0.996   1.406 -0.2577 -0.1419  0.1092
  570SOL    HW3 2047   4.741   0.872   1.322 -0.9242  0.3704 -0.4890
  570SOL    MW4 2048   4.744   0.911   1.400 -0.2450 -0.1172 -0.2591
  571SOL     OW 2049   3.669   1.398   5.062  0.3023  0.3656  0.2039
  571SOL    HW2 2050   3.736   1.402   4.994 -0.2775 -0.4530 -0.4436
  571SOL    HW3 2051   3.587   1.420   5.016  0.1563  1.6891  1.0482
  571SOL    MW4 2052   3.667   1.401   5.047  0.2066  0.4322  0.2298
  572SOL     OW 2053   2.444   5.775   3.574 -0.0242  0.3244 -0.0598
  572SOL    HW2 2054   2.512   5.842   3.561 -0.0715  0.8212  1.8825
  572SOL    HW3 2055   2.481   5.696   3.535  0.2384  1.3323 -1.9905
  572SOL    MW4 2056   2.458   5.774   3.567  0.0042  0.5230 -0.0583
  573SOL     OW 2057   1.625   3.690   0.885 -0.0754 -0.1091 -0.6247
  573SOL    HW2 2058   1.643   3.737   0.967 -2.2894 -1.4059  0.7010
  573SOL    HW3 2059   1.590   3.758   0.827  0.9468  0.7136 -0.3195
  573SOL    MW4 2060   1.623   3.705   0.888 -0.2326 -0.1716 -0.4095
  574SOL     OW 2061   3.540   6.035   5.247 -0.7744  0.5157 -0.0633
  574SOL    HW2 2062   3.621   6.082   5.263 -0.6562  0.6539 -0.9745
  574SOL    HW3 2063   3.558   5.946   5.276 -0.4546  0.6540  0.1687
  574SOL    MW4 2064   3.553   6.029   5.253 -0.7166  0.5522 -0.1529
  575SOL     OW 2065   5.342   4.976   2.162  0.2490  0.4381 -0.1971
  575SOL    HW2 2066   5.379   5.031   2.231 -1.3315 -0.6354  1.5928
  575SOL    HW3 2067   5.375   4.888   2.180 -2.6356 -0.4726  1.1975
  575SOL    MW4 2068   5.352   4.972   2.173 -0.3401  0.1763  0.2230
  576SOL     OW 2069   0.287   1.138   1.300 -0.4816  0.1908 -0.3141
  576SOL    HW2 2070   0.252   1.089   1.225  0.0564  0.6866 -0.9004
  576SOL    HW3 2071   0.213   1.142   1.361 -1.2340  0.5601 -1.2064
  576SOL    MW4 2072   0.272   1.132   1.298 -0.5099  0.3050 -0.5092
  577SOL     OW 2073   4.175   2.024   4.065 -0.2629 -0.0475 -0.1337
  577SOL    HW2 2074   4.084   2.025   4.035 -0.3921  0.6209  0.2580
  577SOL    HW3 2075   4.169   2.040   4.159  0.2882  0.6134 -0.2048
  577SOL    MW4 2076   4.162   2.027   4.073 -0.2073  0.1279 -0.0914
  578SOL     OW 2077   5.390   3.450   6.339 -0.1880  0.3120  0.3153
  578SOL    HW2 2078   5.407   3.483   6.250 -1.9738 -1.4562 -0.7650
  578SOL    HW3 2079   5.322   3.507   6.373  0.9336  1.3849  0.8552
  578SOL    MW4 2080   5.383   3.462   6.332 -0.2756  0.2202  0.2440
  579SOL     OW 2081   4.765   1.155   5.692  0.5044  0.7030  0.3433
  579SOL    HW2 2082   4.699   1.132   5.626  1.1373  1.4922 -0.5880
  579SOL    HW3 2083   4.738   1.106   5.770 -1.0786  0.8691 -0.0615
  579SOL    MW4 2084   4.753   1.145   5.694  0.3790  0.8290  0.1670
  580SOL     OW 2085   4.031   4.690   5.779  1.1982 -0.0753 -0.1975
  580SOL    HW2 2086   4.050   4.603   5.814 -2.0039 -0.4858  0.8959
  580SOL    HW3 2087   4.028   4.746   5.856 -2.7955 -0.3513  0.0414
  580SOL    MW4 2088   4.033   4.686   5.794  0.2488 -0.1659 -0.0217
  581SOL     OW 2089   2.950   3.145   6.246 -0.5260 -0.3996  0.1936
  581SOL    HW2 2090   2.940   3.131   6.340 -1.4262 -0.2790  0.1229
  581SOL    HW3 2091   2.860   3.152   6.213 -0.2086  0.9599 -0.4662
  581SOL    MW4 2092   2.937   3.144   6.254 -0.6029 -0.2043  0.0972
  582SOL     OW 2093   3.756   0.528   3.269  0.3036 -0.2039 -0.4727
  582SOL    HW2 2094   3.778   0.620   3.257  1.4206 -0.5381 -1.1729
  582SOL    HW3 2095   3.685   0.512   3.207 -0.4641  0.3579  0.2300
  582SOL    MW4 2096   3.749   0.538   3.259  0.3497 -0.1738 -0.4724
  583SOL     OW 2097   2.163   1.205   3.412  0.1382 -0.5360 -0.7677
  583SOL    HW2 2098   2.199   1.196   3.324  0.3442 -0.6071 -0.6762
  583SOL    HW3 2099   2.237   1.190   3.471  0.5415  1.7644 -0.5956
  583SOL    MW4 2100   2.178   1.202   3.408  0.2186 -0.2419 -0.7329
  584SOL     OW 2101   6.045   0.104   4.655  0.2110 -0.1413  0.2962
  584SOL    HW2 2102   6.135   0.120   4.624  0.0354 -0.5253 -0.4453
  584SOL    HW3 2103   6.056   0.053   4.736  0.6613 -0.4542  0.0453
  584SOL    MW4 2104   6.059   0.099   4.662  0.2472 -0.2332  0.1653
  585SOL     OW 2105   0.897   4.414   4.763 -0.0110 -0.0728  0.4096
  585SOL    HW2 2106   0.968   4.353   4.743 -0.2173 -0.2120  0.1025
  585SOL    HW3 2107   0.871   4.392   4.852 -0.3545 -0.6992  0.1581
  585SOL    MW4 2108   0.903   4.403   4.772 -0.0835 -0.1738  0.3359
  586SOL     OW 2109   2.214   5.756   4.202  0.5508 -0.3629  0.2730
  586SOL    HW2 2110   2.242   5.695   4.134  0.8565  2.1875 -2.0466
  586SOL    HW3 2111   2.294   5.780   4.248  0.9639  0.6411 -0.9171
  586SOL    MW4 2112   2.228   5.751   4.199  0.6456  0.1061 -0.1901
  587SOL     OW 2113   5.810   6.142   3.034  0.1726  0.0798 -0.1752
  587SOL    HW2 2114   5.897   6.146   2.994  0.2987 -1.2471 -0.0758
  587SOL    HW3 2115   5.753   6.182   2.968  0.7731  0.5050 -0.4580
  587SOL    MW4 2116   5.814   6.148   3.020  0.2685 -0.0391 -0.1994
  588SOL     OW 2117   2.400   1.116   0.877  0.2769 -0.0183  0.5322
  588SOL    HW2 2118   2.328   1.114   0.815  1.0856  0.1278 -0.4307
  588SOL    HW3 2119   2.370   1.174   0.947 -1.2429 -1.3573  1.0628
  588SOL    MW4 2120   2.386   1.123   0.878  0.1831 -0.1757  0.4752
  589SOL     OW 2121   5.912   6.003   5.817 -0.0138  0.3886  0.0248
  589SOL    HW2 2122   5.903   6.074   5.754  1.4258 -0.6127 -1.3893
  589SOL    HW3 2123   6.005   5.980   5.815 -0.1640 -0.5362  1.5730
  589SOL    MW4 2124   5.923   6.009   5.809  0.1563  0.1345  0.0425
  590SOL     OW 2125   2.113   2.670   3.543 -0.6749  0.1868 -0.1697
  590SOL    HW2 2126   2.163   2.733   3.594 -1.0580 -0.2386  0.7609
  590SOL    HW3 2127   2.041   2.644   3.601 -0.9759 -0.5034 -0.8340
  590SOL    MW4 2128   2.110   2.675   3.557 -0.7652  0.0396 -0.1345
  591SOL     OW 2129   3.733   1.962   2.381 -0.2041 -0.1867  0.1761
  591SOL    HW2 2130   3.748   1.875   2.419  1.0400 -0.0831 -0.0586
  591SOL    HW3 2131   3.819   1.992   2.353 -0.8614  0.3775 -1.3779
  591SOL    MW4 2132   3.746   1.954   2.382 -0.1267 -0.0986 -0.0599
  592SOL     OW 2133   6.081   4.688   3.547  0.2769 -0.2114 -0.2545
  592SOL    HW2 2134   5.992   4.700   3.580  0.0846  0.6524 -1.0292
  592SOL    HW3 2135   6.078   4.724   3.458  1.1086 -1.2445 -0.7135
  592SOL    MW4 2136   6.069   4.694   3.539  0.3613 -0.2337 -0.4172
  593SOL     OW 2137   3.212   1.606   1.756 -0.4338 -0.0066  0.3366
  593SOL    HW2 2138   3.190   1.529   1.808  0.7939 -0.3550  0.3836
  593SOL    HW3 2139   3.305   1.595   1.735 -1.0746 -0.3535 -2.7170
  593SOL    MW4 2140   3.221   1.595   1.760 -0.3563 -0.0983 -0.0601
  594SOL     OW 2141   4.393   6.334   2.005  0.3262 -0.3077  0.1601
  594SOL    HW2 2142   4.379   6.297   2.092  1.0919 -3.2219 -0.8325
  594SOL    HW3 2143   4.486   6.353   2.001  0.3797 -0.6315 -0.1794
  594SOL    MW4 2144   4.403   6.332   2.016  0.4343 -0.7349 -0.0157
  595SOL     OW 2145   2.122   6.066   2.498  0.1431 -0.3357 -0.0338
  595SOL    HW2 2146   2.194   6.115   2.460 -0.9429  0.9317 -0.5036
  595SOL    HW3 2147   2.109   6.104   2.585  0.0813 -0.6197  0.0859
  595SOL    MW4 2148   2.130   6.077   2.505 -0.0084 -0.2060 -0.0800
  596SOL     OW 2149   5.983   6.313   2.268  0.0244 -0.4923 -0.6375
  596SOL    HW2 2150   6.058   6.370   2.250 -0.6212  0.6283  0.1142
  596SOL    HW3 2151   5.907   6.362   2.237 -0.7643  0.0133  1.8175
  596SOL    MW4 2152   5.983   6.327   2.262 -0.1648 -0.2777 -0.2144
  597SOL     OW 2153   3.973   5.468   0.321 -0.0456 -0.3216 -0.2515
  597SOL    HW2 2154   3.946   5.556   0.296 -0.2490 -1.0894 -3.2384
  597SOL    HW3 2155   3.945   5.458   0.412 -0.1010  2.6143  0.1362
  597SOL    MW4 2156   3.966   5.478   0.329 -0.0797 -0.0355 -0.5945
  598SOL     OW 2157   1.467   3.620   2.936 -0.3574  0.1887 -0.3180
  598SOL    HW2 2158   1.515   3.614   2.853 -0.3238  0.6643 -0.3355
  598SOL    HW3 2159   1.432   3.709   2.936  2.1738  1.3047  1.5621
  598SOL    MW4 2160   1.469   3.631   2.925 -0.0190  0.3987 -0.0722
  599SOL     OW 2161   0.018   6.076   1.391 -0.1431 -0.0120  0.4909
  599SOL    HW2 2162   0.006   6.074   1.296  1.3895 -0.3579  0.2749
  599SOL    HW3 2163  -0.041   6.144   1.422  2.6979  3.5890 -1.2908
  599SOL    MW4 2164   0.009   6.084   1.383  0.4340  0.4175  0.2273
  600SOL     OW 2165   5.587   5.060   0.667 -0.0164  0.2414  0.2674
  600SOL    HW2 2166   5.662   5.005   0.644  1.0650  1.2938  1.1453
  600SOL    HW3 2167   5.553   5.090   0.582  1.9960  1.5800 -0.1553
  600SOL    MW4 2168   5.592   5.057   0.653  0.3918  0.5569  0.3275
  601SOL     OW 2169   2.486   2.233   1.462  0.5141 -0.0130  0.3121
  601SOL    HW2 2170   2.554   2.300   1.465 -0.2889  0.8870 -0.7084
  601SOL    HW3 2171   2.465   2.216   1.553  0.6697  1.2000  0.5918
  601SOL    MW4 2172   2.492   2.240   1.474  0.4287  0.2658  0.2143
  602SOL     OW 2173   4.967   1.839   5.109 -0.0866  0.5158  0.4782
  602SOL    HW2 2174   4.967   1.894   5.031 -3.3924 -0.2939 -0.2202
  602SOL    HW3 2175   4.958   1.750   5.076 -3.9223  0.2869  1.6768
  602SOL    MW4 2176   4.966   1.834   5.095 -1.0289  0.3788  0.5442
  603SOL     OW 2177   0.562   4.649   3.068 -0.4686 -0.1777  0.2544
  603SOL    HW2 2178   0.488   4.688   3.115 -0.4586 -1.2715  1.2182
  603SOL    HW3 2179   0.602   4.722   3.022 -0.3140  1.0250  2.1684
  603SOL    MW4 2180   0.557   4.664   3.068 -0.4469 -0.1633  0.6341
  604SOL     OW 2181   3.386   0.991   5.368 -0.5525  0.7961  0.2972
  604SOL    HW2 2182   3.436   1.049   5.310  1.4532 -0.5763  0.5337
  604SOL    HW3 2183   3.353   1.048   5.437 -0.2747  1.9513 -0.5016
  604SOL    MW4 2184   3.388   1.006   5.369 -0.2512  0.7675  0.2230
  605SOL     OW 2185   1.746   3.975   5.473  0.1430  0.3543 -0.1785
  605SOL    HW2 2186   1.684   3.905   5.452  1.1683  0.0122 -2.2911
  605SOL    HW3 2187   1.782   3.950   5.558 -0.9401 -0.6269  0.0229
  605SOL    MW4 2188   1.742   3.963   5.482  0.1354  0.1797 -0.4307
  606SOL     OW 2189   1.071   5.751   2.263 -0.7387  0.0029 -0.0490
  606SOL    HW2 2190   1.153   5.788   2.231  0.7762 -0.7905  2.6415
  606SOL    HW3 2191   1.028   5.824   2.308 -0.7856  0.0428 -0.1583
  606SOL    MW4 2192   1.076   5.766   2.265 -0.5450 -0.0965  0.2916
  607SOL     OW 2193   3.018   0.690   0.521 -0.0822  0.2707  0.4440
  607SOL    HW2 2194   2.968   0.659   0.445  0.0795  1.6509 -0.2597
  607SOL    HW3 2195   2.956   0.685   0.593 -0.2667 -0.9832  0.2225
  607SOL    MW4 2196   3.003   0.685   0.520 -0.0852  0.2873  0.3219
  608SOL     OW 2197   5.626   5.848   5.134  0.4553 -0.5013  0.9819
  608SOL    HW2 2198   5.659   5.937   5.131  1.6404 -0.9459 -0.6406
  608SOL    HW3 2199   5.561   5.849   5.204  1.8130  1.1435  2.3168
  608SOL    MW4 2200   5.622   5.860   5.143  0.7908 -0.3430  0.9440
  609SOL     OW 2201   3.183   5.334   2.056 -0.0395  0.1243 -0.3499
  609SOL    HW2 2202   3.196   5.420   2.015  0.0353  0.5842  0.6008
  609SOL    HW3 2203   3.088   5.327   2.067 -0.1533 -0.4818 -1.5749
  609SOL    MW4 2204   3.172   5.345   2.052 -0.0446  0.1050 -0.3861
  610SOL     OW 2205   0.042   1.900   3.244 -0.1241  0.1153 -0.0991
  610SOL    HW2 2206  -0.040   1.860   3.214  0.8610 -1.8432 -0.3801
  610SOL    HW3 2207   0.016   1.982   3.285 -2.0039  0.6313 -2.1339
  610SOL    MW4 2208   0.028   1.905   3.246 -0.2422 -0.0750 -0.4046
  611SOL     OW 2209   0.517   4.852   2.523 -0.1861  0.0049 -0.3040
  611SOL    HW2 2210   0.567   4.792   2.579  0.4520  1.0120  0.2357
  611SOL    HW3 2211   0.530   4.819   2.434  1.7391  0.4297 -0.2253
  611SOL    MW4 2212   0.525   4.840   2.519  0.1521  0.1938 -0.2224
  612SOL     OW 2213   1.127   0.439   4.828  0.1771 -0.3993 -0.2623
  612SOL    HW2 2214   1.197   0.395   4.876  1.0037 -0.3139 -1.3598
  612SOL    HW3 2215   1.138   0.410   4.737 -0.6989  0.2616 -0.5904
  612SOL    MW4 2216   1.138   0.430   4.822  0.1706 -0.3008 -0.4504
  613SOL     OW 2217   1.696   1.169   0.998  0.2243 -0.0424  0.2116
  613SOL    HW2 2218   1.608   1.140   1.023 -0.0117 -0.2206 -0.8018
  613SOL    HW3 2219   1.754   1.099   1.029 -0.1235 -0.5574 -0.2890
  613SOL    MW4 2220   1.692   1.156   1.006  0.1473 -0.1339  0.0119
  614SOL     OW 2221   5.110   3.393   5.052  0.0444  0.0699  0.5859
  614SOL    HW2 2222   5.061   3.323   5.011  0.9410  0.4891 -1.3006
  614SOL    HW3 2223   5.161   3.349   5.121 -1.5428 -0.6362  1.3472
  614SOL    MW4 2224   5.110   3.378   5.056 -0.0467  0.0320  0.4375
  615SOL     OW 2225   1.321   4.315   2.005  0.0916 -0.6545 -0.5843
  615SOL    HW2 2226   1.254   4.287   1.943  0.7140 -0.5868 -1.3016
  615SOL    HW3 2227   1.305   4.262   2.083 -0.5879 -0.8698 -0.8656
  615SOL    MW4 2228   1.310   4.304   2.007  0.0840 -0.6740 -0.7161
  616SOL     OW 2229   0.445   5.310   3.225  0.2836 -0.6680  0.1102
  616SOL    HW2 2230   0.475   5.249   3.292 -0.1977  0.7071  1.6533
  616SOL    HW3 2231   0.521   5.363   3.205  0.0473 -0.0818  0.7269
  616SOL    MW4 2232   0.459   5.309   3.231  0.1889 -0.4092  0.3952
  617SOL     OW 2233   1.719   3.009   6.018  0.1430  0.2827  0.5430
  617SOL    HW2 2234   1.749   2.947   6.085  1.1374  0.5954  0.4124
  617SOL    HW3 2235   1.655   2.960   5.966  0.2790 -0.3567  0.9701
  617SOL    MW4 2236   1.715   2.995   6.020  0.2921  0.2396  0.5821
  618SOL     OW 2237   3.833   3.051   4.826  0.0893 -0.1235 -0.3245
  618SOL    HW2 2238   3.813   3.007   4.909  2.0239 -0.1409  0.1812
  618SOL    HW3 2239   3.757   3.107   4.809 -0.7373 -0.8110  0.9807
  618SOL    MW4 2240   3.820   3.052   4.835  0.2355 -0.2165 -0.0856
  619SOL     OW 2241   0.873   3.524   4.983  0.1310 -0.3834  0.0884
  619SOL    HW2 2242   0.899   3.467   4.910 -0.8257 -1.9517  0.9131
  619SOL    HW3 2243   0.945   3.585   4.993  0.5492 -0.5175 -1.7822
  619SOL    MW4 2244   0.886   3.524   4.974  0.0600 -0.6080 -0.0496
  620SOL     OW 2245   0.988   1.850   1.523 -0.4113 -0.4958 -0.0598
  620SOL    HW2 2246   1.082   1.842   1.505 -0.5669 -2.5312 -0.3006
  620SOL    HW3 2247   0.982   1.859   1.618  0.0215 -0.9342  0.0117
  620SOL    MW4 2248   1.000   1.850   1.533 -0.3747 -0.8222 -0.0821
  621SOL     OW 2249   2.350   0.054   0.443  0.0399 -0.1282  0.8133
  621SOL    HW2 2250   2.355   0.004   0.362 -2.2338 -0.2842  0.6948
  621SOL    HW3 2251   2.338  -0.013   0.511 -0.3663  0.1078  0.9778
  621SOL    MW4 2252   2.349   0.039   0.442 -0.3137 -0.1176  0.8194
  622SOL     OW 2253   2.893   3.155   2.730  0.1664 -0.3240 -0.2674
  622SOL    HW2 2254   2.861   3.072   2.765  1.9153 -0.3291  1.5376
  622SOL    HW3 2255   2.884   3.217   2.803  2.4705  0.0694 -0.2130
  622SOL    MW4 2256   2.888   3.153   2.745  0.7012 -0.2728 -0.0221
  623SOL     OW 2257   0.185   3.969   0.233  0.0114 -0.1700 -0.2861
  623SOL    HW2 2258   0.229   3.945   0.151 -0.3954  0.1823 -0.6136
  623SOL    HW3 2259   0.237   3.926   0.301  1.4034  0.9558 -0.5878
  623SOL    MW4 2260   0.198   3.960   0.231  0.1414  0.0250 -0.3691
  624SOL     OW 2261   2.091   4.466   1.854 -0.4909 -0.5394 -0.4174
  624SOL    HW2 2262   2.112   4.518   1.777  1.4930 -0.2089  0.2943
  624SOL    HW3 2263   2.069   4.530   1.922 -1.4127 -0.7965 -0.4527
  624SOL    MW4 2264   2.091   4.481   1.853 -0.3508 -0.5297 -0.3282
  625SOL     OW 2265   4.755   5.390   1.734  0.0356  0.2364  0.1665
  625SOL    HW2 2266   4.680   5.413   1.789  0.2876  1.3428  0.0846
  625SOL    HW3 2267   4.829   5.387   1.796  0.2608  1.1536 -0.0392
  625SOL    MW4 2268   4.755   5.393   1.750  0.0985  0.5034  0.1285
  626SOL     OW 2269   4.400   5.397   0.608  0.3969  0.2739 -0.1608
  626SOL    HW2 2270   4.458   5.376   0.535 -1.7267 -0.4462 -1.7406
  626SOL    HW3 2271   4.406   5.321   0.666  1.8653  0.7148  0.3006
  626SOL    MW4 2272   4.408   5.384   0.606  0.3105  0.2371 -0.3084
  627SOL     OW 2273   6.171   0.308   1.595 -0.4916  0.2149  0.1463
  627SOL    HW2 2274   6.221   0.343   1.521  0.6768 -0.2244  0.6851
  627SOL    HW3 2275   6.081   0.306   1.565  0.0373 -0.5661 -1.5228
  627SOL    MW4 2276   6.166   0.312   1.581 -0.2677  0.0539 -0.0028
  628SOL     OW 2277   4.352   3.676   2.956  0.1990 -0.0477 -0.5081
  628SOL    HW2 2278   4.293   3.714   3.021  0.7153  0.3518 -0.2635
  628SOL    HW3 2279   4.379   3.751   2.902  2.4363  0.2743  0.9200
  628SOL    MW4 2280   4.348   3.691   2.958  0.5623  0.0475 -0.2874
  629SOL     OW 2281   1.463   2.170   3.922 -0.1699 -0.5826  0.3811
  629SOL    HW2 2282   1.506   2.152   3.838  1.9610 -1.7700  1.6159
  629SOL    HW3 2283   1.451   2.083   3.962 -0.4727 -0.0035  1.6126
  629SOL    MW4 2284   1.467   2.156   3.916  0.0713 -0.6629  0.7065
  630SOL     OW 2285   5.132   0.839   0.693 -0.0925  0.2269 -0.4137
  630SOL    HW2 2286   5.123   0.744   0.685 -0.2909  0.3239 -1.4614
  630SOL    HW3 2287   5.043   0.871   0.700  0.0325  0.2221  1.6062
  630SOL    MW4 2288   5.119   0.831   0.693 -0.1022  0.2391 -0.2854
  631SOL     OW 2289   1.754   4.974   5.954  0.1082 -0.3236 -0.2289
  631SOL    HW2 2290   1.753   5.068   5.934  2.8404 -0.2431 -0.3698
  631SOL    HW3 2291   1.774   4.932   5.870  0.8157 -0.8643  0.1975
  631SOL    MW4 2292   1.757   4.981   5.940  0.5621 -0.3843 -0.1913
  632SOL     OW 2293   2.553   3.313   5.937 -0.0488 -0.0584 -0.1497
  632SOL    HW2 2294   2.563   3.394   5.888  1.5647  0.4222  0.9110
  632SOL    HW3 2295   2.497   3.258   5.881 -3.3701  2.6353  0.2056
  632SOL    MW4 2296   2.547   3.316   5.923 -0.2741  0.3604  0.0371
  633SOL     OW 2297   0.675   3.765   3.721 -0.1262 -0.5682 -0.3605
  633SOL    HW2 2298   0.760   3.803   3.698 -0.8695  0.5325 -1.4326
  633SOL    HW3 2299   0.660   3.793   3.811 -0.4706  1.4691 -0.9808
  633SOL    MW4 2300   0.684   3.774   3.729 -0.2697 -0.1542 -0.5838
  634SOL     OW 2301   3.725   0.023   0.931  0.3817  0.4768  0.4661
  634SOL    HW2 2302   3.725   0.052   0.840 -0.0568  3.0216  1.1955
  634SOL    HW3 2303   3.767  -0.064   0.929 -1.9206 -0.7213 -2.4370
  634SOL    MW4 2304   3.731   0.015   0.919  0.0201  0.6545  0.1793
  635SOL     OW 2305   0.314   2.404   4.500 -0.4148 -0.0406 -0.2807
  635SOL    HW2 2306   0.287   2.389   4.591 -0.2735 -0.2677 -0.2758
  635SOL    HW3 2307   0.345   2.319   4.469 -0.4203  0.0453 -0.5287
  635SOL    MW4 2308   0.315   2.391   4.508 -0.3969 -0.0593 -0.3128
  636SOL     OW 2309   4.205   4.230   2.818  0.1696 -0.2533  0.2364
  636SOL    HW2 2310   4.253   4.313   2.817 -0.0129 -0.1051  1.6948
  636SOL    HW3 2311   4.243   4.180   2.745  0.4910  0.9762 -0.4844
  636SOL    MW4 2312   4.216   4.234   2.808  0.1879 -0.0715  0.3337
  637SOL     OW 2313   3.461   3.743   1.700  0.2617 -0.4755  0.8396
  637SOL    HW2 2314   3.375   3.724   1.663  0.4369 -1.3194  0.8461
  637SOL    HW3 2315   3.442   3.778   1.787 -0.0712 -0.7600  0.8819
  637SOL    MW4 2316   3.447   3.745   1.707  0.2409 -0.6244  0.8461
  638SOL     OW 2317   1.015   2.952   0.823 -1.2475 -0.0406  0.1049
  638SOL    HW2 2318   0.951   2.926   0.756 -1.6232 -0.9013  0.7717
  638SOL    HW3 2319   1.090   2.895   0.809  0.0931  2.0063 -1.6770
  638SOL    MW4 2320   1.016   2.941   0.813 -1.1202  0.1159 -0.0422
  639SOL     OW 2321   0.619   5.664   2.228 -0.3160 -0.1893 -0.6648
  639SOL    HW2 2322   0.562   5.725   2.182 -0.7325  0.1846  0.3082
  639SOL    HW3 2323   0.568   5.584   2.234 -1.5114  0.6447  1.6892
  639SOL    MW4 2324   0.605   5.662   2.223 -0.5286 -0.0299 -0.2258
  640SOL     OW 2325   2.919   2.954   3.702 -1.2081  0.6836 -0.6211
  640SOL    HW2 2326   2.832   2.988   3.722 -1.4556 -0.7217  0.9638
  640SOL    HW3 2327   2.903   2.882   3.641 -1.1083  0.7461 -0.7206
  640SOL    MW4 2328   2.905   2.949   3.697 -1.2276  0.5064 -0.4251
  641SOL     OW 2329   5.252   6.013   1.541  0.5172 -0.1547 -0.6361
  641SOL    HW2 2330   5.189   5.941   1.529 -2.0032  1.8904 -0.4979
  641SOL    HW3 2331   5.266   6.016   1.636 -2.8773  2.1132 -0.0065
  641SOL    MW4 2332   5.245   6.004   1.552 -0.2632  0.4144 -0.5348
  642SOL     OW 2333   0.537   4.124   4.570 -0.7642 -0.5282 -1.1977
  642SOL    HW2 2334   0.558   4.207   4.528  1.8684 -0.6702 -0.3357
  642SOL    HW3 2335   0.602   4.115   4.640 -1.6687 -2.7866 -0.5487
  642SOL    MW4 2336   0.548   4.134   4.574 -0.5362 -0.8449 -0.9983
  643SOL     OW 2337   5.406   1.909   2.033  0.0785  0.9625  0.1333
  643SOL    HW2 2338   5.422   1.952   2.117 -1.8049 -0.9349  1.5637
  643SOL    HW3 2339   5.408   1.815   2.053 -2.3323  0.4714 -1.5075
  643SOL    MW4 2340   5.408   1.902   2.047 -0.4880  0.6473  0.1055
  644SOL     OW 2341   3.730   0.775   3.531 -0.1063  0.9249 -0.2113
  644SOL    HW2 2342   3.820   0.791   3.557  0.4419 -2.0421  0.0691
  644SOL    HW3 2343   3.731   0.785   3.435  1.2137 -1.5208 -0.5313
  644SOL    MW4 2344   3.742   0.779   3.522  0.1402  0.2107 -0.2165
  645SOL     OW 2345   2.733   3.940   2.732  0.0587  0.1483 -0.4271
  645SOL    HW2 2346   2.673   3.867   2.744 -0.2837  0.5026  0.0033
  645SOL    HW3 2347   2.774   3.953   2.817 -0.2528  0.7854 -0.3709
  645SOL    MW4 2348   2.731   3.932   2.745 -0.0275  0.2791 -0.3629
  646SOL     OW 2349   4.309   5.958   2.563 -0.4978 -0.5889  0.3600
  646SOL    HW2 2350   4.261   6.040   2.556 -0.9970 -0.9847 -1.4289
  646SOL    HW3 2351   4.310   5.923   2.474 -1.5633 -3.2261  1.2677
  646SOL    MW4 2352   4.303   5.964   2.550 -0.7043 -0.9891  0.2437
  647SOL     OW 2353   3.803   3.976   5.978 -0.1963 -0.3342  0.6294
  647SOL    HW2 2354   3.854   4.050   6.012 -0.0698 -0.7508  1.3679
  647SOL    HW3 2355   3.766   3.935   6.056 -1.8227  0.0561  0.1229
  647SOL    MW4 2356   3.805   3.981   5.993 -0.3942 -0.3377  0.6600
  648SOL     OW 2357   4.432   3.783   4.332 -0.0815 -0.1090 -0.3924
  648SOL    HW2 2358   4.445   3.824   4.417  1.1764  1.1788 -1.1602
  648SOL    HW3 2359   4.521   3.766   4.300 -0.5281 -0.3797 -1.5264
  648SOL    MW4 2360   4.446   3.786   4.339  0.0255  0.0252 -0.6433
  649SOL     OW 2361   4.621   4.544   5.606 -0.8345 -0.0456 -0.2830
  649SOL    HW2 2362   4.672   4.620   5.633 -2.2256  0.4058  1.2554
  649SOL    HW3 2363   4.667   4.469   5.642 -0.2405  0.1806 -0.5657
  649SOL    MW4 2364   4.634   4.544   5.614 -0.9397  0.0438 -0.1174
  650SOL     OW 2365   4.849   3.007   2.085 -0.0810 -0.5215 -0.3413
  650SOL    HW2 2366   4.943   3.016   2.067 -0.0855  0.3847  0.0583
  650SOL    HW3 2367   4.836   3.053   2.168 -0.6609 -1.7340  0.2655
  650SOL    MW4 2368   4.860   3.014   2.094 -0.1581 -0.5619 -0.2085
  651SOL     OW 2369   0.093   2.568   3.642 -0.4492 -0.0404  0.0146
  651SOL    HW2 2370   0.178   2.614   3.641 -0.2194 -0.4537 -1.1942
  651SOL    HW3 2371   0.116   2.475   3.647 -0.9161 -0.0930  2.6504
  651SOL    MW4 2372   0.108   2.562   3.642 -0.4805 -0.1019  0.2029
  652SOL     OW 2373   5.937   5.736   3.299 -0.4071 -0.8799 -0.2063
  652SOL    HW2 2374   5.846   5.735   3.328  0.4165  1.4685  3.0691
  652SOL    HW3 2375   5.984   5.682   3.362  0.7819 -0.0179 -0.2982
  652SOL    MW4 2376   5.931   5.729   3.311 -0.1416 -0.4563  0.2137
  653SOL     OW 2377   4.852   2.692   5.610  0.2783 -0.1005 -0.3487
  653SOL    HW2 2378   4.915   2.621   5.601 -1.5174 -1.7077 -0.9340
  653SOL    HW3 2379   4.805   2.671   5.691 -2.8147 -1.8793 -2.3672
  653SOL    MW4 2380   4.854   2.680   5.620 -0.3667 -0.5473 -0.6923
  654SOL     OW 2381   5.323   1.758   4.032  0.0783  0.4193  0.0046
  654SOL    HW2 2382   5.398   1.725   4.083  0.7850  0.3151 -1.0676
  654SOL    HW3 2383   5.315   1.850   4.058 -0.9230 -0.1405  1.8586
  654SOL    MW4 2384   5.332   1.766   4.042  0.0394  0.3317  0.1078
  655SOL     OW 2385   3.536   0.006   2.647  0.4618  0.6254  0.6088
  655SOL    HW2 2386   3.448  -0.032   2.651  0.1851  0.7033 -2.6509
  655SOL    HW3 2387   3.523   0.091   2.606  1.8761  1.4536  1.8028
  655SOL    MW4 2388   3.522   0.012   2.642  0.6119  0.7450  0.3362
  656SOL     OW 2389   0.625   1.448   6.046  0.5697  0.0883  0.4213
  656SOL    HW2 2390   0.594   1.527   6.001 -0.1263 -0.7662 -0.6380
  656SOL    HW3 2391   0.569   1.440   6.123 -0.5344 -0.3104 -0.3954
  656SOL    MW4 2392   0.614   1.457   6.051  0.3322 -0.0770  0.1738
  657SOL     OW 2393   3.796   1.718   2.528 -0.2644 -0.2795  0.5908
  657SOL    HW2 2394   3.778   1.638   2.478 -0.3703 -0.0952  0.3341
  657SOL    HW3 2395   3.755   1.702   2.613 -0.8258 -0.2485  0.3293
  657SOL    MW4 2396   3.788   1.705   2.532 -0.3524 -0.2511  0.5224
  658SOL     OW 2397   5.808   5.762   4.267 -0.2950 -0.5871  0.2363
  658SOL    HW2 2398   5.771   5.794   4.185 -0.9358  0.5844  0.9538
  658SOL    HW3 2399   5.737   5.773   4.331  0.5666 -0.3842  1.1813
  658SOL    MW4 2400   5.793   5.768   4.265 -0.2659 -0.4058  0.4556
  659SOL     OW 2401   5.943   4.163   4.377  0.1425 -0.3695  0.6917
  659SOL    HW2 2402   5.924   4.244   4.330  1.7248  0.0004  0.6354
  659SOL    HW3 2403   5.963   4.192   4.466  0.7510 -0.6861  0.6598
  659SOL    MW4 2404   5.943   4.178   4.383  0.4315 -0.3625  0.6801
  660SOL     OW 2405   5.934   3.673   0.664 -0.1013  0.1534  0.1049
  660SOL    HW2 2406   5.985   3.748   0.695  0.1370  0.2665 -0.5370
  660SOL    HW3 2407   5.919   3.692   0.571 -0.2366 -0.4832 -0.0054
  660SOL    MW4 2408   5.939   3.685   0.655 -0.0877  0.0843  0.0056
  661SOL     OW 2409   3.027   2.597   3.770  0.1357  0.2434  0.1952
  661SOL    HW2 2410   3.062   2.518   3.727 -1.2806  0.0269 -0.6149
  661SOL    HW3 2411   3.051   2.587   3.862  0.5864 -0.7905 -0.0172
  661SOL    MW4 2412   3.035   2.585   3.776  0.0083  0.0784  0.0603
  662SOL     OW 2413   1.404   3.364   1.500 -0.0297  0.0541 -0.6526
  662SOL    HW2 2414   1.386   3.368   1.406 -2.6009 -2.9623 -0.4593
  662SOL    HW3 2415   1.458   3.286   1.511  0.9458  0.8434  0.3178
  662SOL    MW4 2416   1.409   3.354   1.489 -0.2402 -0.2398 -0.4991
  663SOL     OW 2417   3.643   4.248   2.396  0.2946 -0.2830  0.6083
  663SOL    HW2 2418   3.708   4.258   2.466 -0.0504 -1.1839  1.0765
  663SOL    HW3 2419   3.569   4.204   2.439 -1.1193  1.7521  0.3790
  663SOL    MW4 2420   3.642   4.243   2.411  0.0625 -0.1333  0.6398
  664SOL     OW 2421   2.807   4.733   1.401  0.2432 -0.0444  0.3248
  664SOL    HW2 2422   2.888   4.722   1.450 -0.2516  3.7366  2.3569
  664SOL    HW3 2423   2.825   4.804   1.340 -1.1153 -0.2600 -0.3676
  664SOL    MW4 2424   2.820   4.741   1.399 -0.0013  0.4260  0.5016
  665SOL     OW 2425   2.374   1.661   0.711  0.1651  0.1563 -0.2788
  665SOL    HW2 2426   2.414   1.575   0.696 -0.9272 -0.3522 -0.3346
  665SOL    HW3 2427   2.283   1.642   0.731  0.3362  1.1713  1.6867
  665SOL    MW4 2428   2.368   1.647   0.711  0.0436  0.2232 -0.0269
  666SOL     OW 2429   5.299   5.435   3.958 -0.5724  0.4348  0.3754
  666SOL    HW2 2430   5.289   5.439   4.054  1.4958 -0.0982  0.6640
  666SOL    HW3 2431   5.285   5.343   3.937  0.2310  0.3115  0.3531
  666SOL    MW4 2432   5.296   5.423   3.968 -0.1935  0.3482  0.4105
  667SOL     OW 2433   2.044   4.131   5.820  0.7340  0.1603 -0.0076
  667SOL    HW2 2434   2.001   4.166   5.898  0.3534  0.1299 -0.1993
  667SOL    HW3 2435   2.137   4.139   5.838  0.6525 -0.6000  0.7856
  667SOL    MW4 2436   2.050   4.137   5.833  0.6730  0.0560  0.0718
  668SOL     OW 2437   3.290   0.946   2.109 -0.0243  0.2690 -0.3919
  668SOL    HW2 2438   3.268   0.943   2.015 -1.1451 -0.0888 -0.1406
  668SOL    HW3 2439   3.342   0.867   2.123  0.3947  0.4746 -0.7738
  668SOL    MW4 2440   3.294   0.935   2.098 -0.1169  0.2489 -0.4092
  669SOL     OW 2441   4.066   5.237   5.949 -0.1528  0.8163 -0.4312
  669SOL    HW2 2442   4.054   5.160   5.894 -0.9170  0.5369  0.1120
  669SOL    HW3 2443   4.114   5.299   5.894 -0.2577  0.2634 -1.1518
  669SOL    MW4 2444   4.071   5.235   5.935 -0.2675  0.7065 -0.4546
  670SOL     OW 2445   6.422   2.082   4.577 -0.0219  0.4697  0.2429
  670SOL    HW2 2446   6.505   2.073   4.623 -1.3272  0.3722  2.7746
  670SOL    HW3 2447   6.419   2.173   4.549 -0.4759  1.5012  3.2786
  670SOL    MW4 2448   6.432   2.093   4.579 -0.2540  0.5929  0.9775
  671SOL     OW 2449   5.954   1.175   1.303  0.1740  0.1858  0.3881
  671SOL    HW2 2450   5.957   1.094   1.252  0.0973  1.0693 -1.0953
  671SOL    HW3 2451   5.886   1.227   1.260  0.3352  1.1019  1.2150
  671SOL    MW4 2452   5.945   1.171   1.290  0.1851  0.4233  0.3015
  672SOL     OW 2453   0.058   5.279   5.681  0.0326  0.1232  0.0801
  672SOL    HW2 2454   0.011   5.203   5.646 -0.0029 -0.0228  0.4354
  672SOL    HW3 2455   0.014   5.355   5.642 -1.2547  0.0382  1.2838
  672SOL    MW4 2456   0.046   5.279   5.671 -0.1419  0.0927  0.2858
  673SOL     OW 2457   0.495   1.498   1.553  0.3219  0.3680 -0.4443
  673SOL    HW2 2458   0.431   1.554   1.596 -1.2054 -1.5853 -0.0258
  673SOL    HW3 2459   0.462   1.409   1.567  3.1380 -0.7404 -0.2264
  673SOL    MW4 2460   0.482   1.494   1.561  0.4919 -0.0359 -0.3603
  674SOL     OW 2461   4.967   3.676   1.537 -0.6343 -0.4608  0.1977
  674SOL    HW2 2462   4.873   3.696   1.543 -1.2166 -3.0335  0.9656
  674SOL    HW3 2463   4.974   3.619   1.460  0.4398  0.2737 -0.2714
  674SOL    MW4 2464   4.955   3.671   1.527 -0.5694 -0.7033  0.2371
  675SOL     OW 2465   0.918   1.561   0.453 -0.5338  0.4293  0.6053
  675SOL    HW2 2466   0.987   1.522   0.507 -1.6157 -0.4394  1.4055
  675SOL    HW3 2467   0.855   1.491   0.440 -1.4997  1.3365  0.2801
  675SOL    MW4 2468   0.919   1.547   0.458 -0.8040  0.4344  0.6680
  676SOL     OW 2469   1.681   1.681   0.775 -0.5532 -0.1655  0.4771
  676SOL    HW2 2470   1.605   1.684   0.834  0.1245  0.3965  1.3385
  676SOL    HW3 2471   1.738   1.614   0.812  1.6923  2.7449  2.8196
  676SOL    MW4 2472   1.678   1.673   0.788 -0.1675  0.2927  0.8998
  677SOL     OW 2473   0.090   4.611   4.275 -0.1548  0.1499  0.7692
  677SOL    HW2 2474   0.176   4.582   4.306 -0.1436 -0.4943  0.1362
  677SOL    HW3 2475   0.071   4.689   4.328  1.7555  1.5771 -0.5205
  677SOL    MW4 2476   0.099   4.618   4.286  0.0987  0.2532  0.5155
  678SOL     OW 2477   5.460   0.166   6.396 -0.2694 -0.0373  0.1790
  678SOL    HW2 2478   5.546   0.174   6.354 -0.7429  0.9307 -0.6530
  678SOL    HW3 2479   5.398   0.165   6.323 -0.9358 -1.6343  0.7239
  678SOL    MW4 2480   5.463   0.167   6.381 -0.4198 -0.1203  0.1411
  679SOL     OW 2481   1.747   4.728   6.164 -0.0034  0.9533  0.0468
  679SOL    HW2 2482   1.786   4.816   6.167  2.3403 -0.0326  0.8331
  679SOL    HW3 2483   1.797   4.682   6.097 -0.0768 -0.2648  0.8085
  679SOL    MW4 2484   1.759   4.734   6.156  0.2962  0.6625  0.2510
  680SOL     OW 2485   4.193   4.579   2.606  0.2035 -0.1296  0.3367
  680SOL    HW2 2486   4.139   4.541   2.537 -2.0011  0.1188  1.8081
  680SOL    HW3 2487   4.256   4.511   2.628 -1.3058 -1.5616  0.4012
  680SOL    MW4 2488   4.194   4.565   2.600 -0.2865 -0.2858  0.5393
  681SOL     OW 2489   1.120   3.468   3.393  0.4368 -0.1032  0.2026
  681SOL    HW2 2490   1.195   3.519   3.422  1.3590 -1.0227 -0.4571
  681SOL    HW3 2491   1.148   3.430   3.309 -0.7499 -0.4987 -0.0397
  681SOL    MW4 2492   1.134   3.470   3.386  0.4019 -0.2767  0.0836
  682SOL     OW 2493   3.106   2.401   5.772 -0.6408  0.3626 -0.4879
  682SOL    HW2 2494   3.135   2.376   5.860  2.9104  1.8193 -1.0556
  682SOL    HW3 2495   3.096   2.496   5.776  0.4552  0.5716 -1.8068
  682SOL    MW4 2496   3.109   2.410   5.784 -0.0277  0.5824 -0.7368
  683SOL     OW 2497   4.007   0.241   3.235  0.2820  0.2615  0.1593
  683SOL    HW2 2498   3.937   0.207   3.179 -0.7368  3.0183 -0.3988
  683SOL    HW3 2499   4.086   0.233   3.181 -0.2450  0.4163 -0.6631
  683SOL    MW4 2500   4.008   0.236   3.220  0.0781  0.6457 -0.0229
  684SOL     OW 2501   2.929   0.749   1.433  0.3261  0.1622 -0.4068
  684SOL    HW2 2502   2.982   0.690   1.486 -0.7162  1.8408  2.7344
  684SOL    HW3 2503   2.982   0.828   1.424  0.5057 -0.1068 -2.0164
  684SOL    MW4 2504   2.943   0.751   1.439  0.2123  0.3482 -0.2047
  685SOL     OW 2505   2.522   3.951   0.779 -0.0965 -0.1879 -0.1342
  685SOL    HW2 2506   2.463   3.879   0.759 -1.4383  1.0610 -0.8668
  685SOL    HW3 2507   2.465   4.021   0.810  1.1940  0.4888  0.8183
  685SOL    MW4 2508   2.507   3.951   0.780 -0.1033  0.0662 -0.1052
  686SOL     OW 2509   4.815   3.728   2.538 -0.5323 -0.4813  0.0138
  686SOL    HW2 2510   4.853   3.641   2.541 -0.7993 -0.5741  0.9389
  686SOL    HW3 2511   4.843   3.769   2.620 -1.4334 -0.1367  0.1575
  686SOL    MW4 2512   4.824   3.722   2.549 -0.6864 -0.4480  0.1548
  687SOL     OW 2513   1.341   6.177   3.153  0.0626 -0.1536  1.3071
  687SOL    HW2 2514   1.344   6.165   3.058  1.7697  2.0873  0.9974
  687SOL    HW3 2515   1.322   6.090   3.188 -1.1024 -0.9417 -1.0807
  687SOL    MW4 2516   1.339   6.164   3.145  0.1341  0.0381  0.9512
  688SOL     OW 2517   5.691   5.441   1.953 -0.4692 -0.6204 -0.0775
  688SOL    HW2 2518   5.767   5.488   1.989 -1.0461 -1.4583  2.4480
  688SOL    HW3 2519   5.726   5.355   1.928 -0.0578 -0.0206 -1.6967
  688SOL    MW4 2520   5.706   5.436   1.954 -0.4910 -0.6518  0.0421
  689SOL     OW 2521   5.533   6.384   3.570  0.2091  0.2362 -0.8629
  689SOL    HW2 2522   5.559   6.454   3.631  2.2062 -0.1139 -1.2684
  689SOL    HW3 2523   5.611   6.366   3.519  0.2853 -3.3671  0.2395
  689SOL    MW4 2524   5.547   6.391   3.572  0.4827 -0.2854 -0.7710
  690SOL     OW 2525   2.849   4.874   2.155 -0.0162  0.1338  0.5251
  690SOL    HW2 2526   2.865   4.785   2.186 -0.7422 -0.1777  0.0529
  690SOL    HW3 2527   2.929   4.898   2.108  0.3386 -0.1142  0.9954
  690SOL    MW4 2528   2.861   4.865   2.153 -0.0652  0.0600  0.5248
  691SOL     OW 2529   4.512   4.097   5.513 -0.0451  0.0065 -0.0183
  691SOL    HW2 2530   4.577   4.039   5.474  2.0248  2.9919 -1.3788
  691SOL    HW3 2531   4.465   4.135   5.439  0.0977  1.5832  0.6451
  691SOL    MW4 2532   4.515   4.095   5.498  0.2469  0.6084 -0.1103
  692SOL     OW 2533   3.557   1.652   3.870 -0.2788  0.3289  0.1495
  692SOL    HW2 2534   3.567   1.698   3.953  3.9366 -0.0677  0.0726
  692SOL    HW3 2535   3.520   1.716   3.810  1.4070  2.3023  1.1178
  692SOL    MW4 2536   3.553   1.666   3.873  0.4998  0.5370  0.2671
  693SOL     OW 2537   3.819   3.923   3.427 -0.2681 -0.1582 -0.2889
  693SOL    HW2 2538   3.841   4.011   3.395 -2.1961  0.3396 -0.3930
  693SOL    HW3 2539   3.862   3.917   3.512 -1.9376  1.8643  0.8089
  693SOL    MW4 2540   3.827   3.934   3.434 -0.7427  0.1743 -0.1578
  694SOL     OW 2541   0.909   0.841   6.366  0.3192 -0.2043  0.1626
  694SOL    HW2 2542   0.905   0.917   6.309  0.7403 -0.9317 -0.8601
  694SOL    HW3 2543   0.823   0.800   6.358  0.1412  0.0740  0.6024
  694SOL    MW4 2544   0.897   0.845   6.358  0.3513 -0.2636  0.0857
  695SOL     OW 2545   6.323   2.046   1.240 -0.5184  0.1851  0.1086
  695SOL    HW2 2546   6.257   2.091   1.187 -1.2001 -1.4098 -0.4808
  695SOL    HW3 2547   6.280   2.032   1.324 -0.4013  0.3996  0.2049
  695SOL    MW4 2548   6.308   2.050   1.244 -0.5929  0.0030  0.0435
  696SOL     OW 2549   5.188   4.117   3.837 -0.2260 -0.0217  0.0409
  696SOL    HW2 2550   5.214   4.047   3.897  0.0980 -0.5003 -0.6414
  696SOL    HW3 2551   5.120   4.166   3.885 -0.8841 -1.1536  0.3018
  696SOL    MW4 2552   5.182   4.114   3.852 -0.2701 -0.2342 -0.0147
  697SOL     OW 2553   4.285   4.097   3.043  0.0775  0.2357  0.2391
  697SOL    HW2 2554   4.245   4.127   2.961  0.8023  1.0029  0.1587
  697SOL    HW3 2555   4.371   4.139   3.045 -0.2513  0.8870  1.7946
  697SOL    MW4 2556   4.291   4.106   3.032  0.1297  0.4229  0.4337
  698SOL     OW 2557   5.354   0.748   5.830  0.0188  0.4915 -0.4059
  698SOL    HW2 2558   5.326   0.839   5.844 -1.0868  0.1591 -0.3959
  698SOL    HW3 2559   5.411   0.729   5.905 -1.1934  0.6029  0.5656
  698SOL    MW4 2560   5.358   0.758   5.842 -0.2870  0.4623 -0.2764
  699SOL     OW 2561   3.554   2.262   2.862  0.0145 -0.2373  0.2387
  699SOL    HW2 2562   3.605   2.254   2.781 -0.0529  0.0838  0.1639
  699SOL    HW3 2563   3.500   2.339   2.849 -0.6610 -0.7023  0.2348
  699SOL    MW4 2564   3.554   2.271   2.850 -0.0835 -0.2563  0.2283
  700SOL     OW 2565   1.383   4.731   5.627  0.0551  0.0409 -0.4075
  700SOL    HW2 2566   1.425   4.720   5.712 -0.2048  0.1615 -0.2652
  700SOL    HW3 2567   1.420   4.812   5.593 -0.8770  0.7286  0.1936
  700SOL    MW4 2568   1.394   4.740   5.633 -0.1021  0.1475 -0.3094
  701SOL     OW 2569   1.669   3.109   2.353  0.0380 -0.4463 -0.1588
  701SOL    HW2 2570   1.601   3.121   2.287 -0.6481  0.5123  0.6978
  701SOL    HW3 2571   1.751   3.109   2.304 -0.5655 -1.9146 -1.2393
  701SOL    MW4 2572   1.671   3.111   2.338 -0.1322 -0.5135 -0.1884
  702SOL     OW 2573   4.862   1.363   0.374  0.5352 -0.0320 -0.0713
  702SOL    HW2 2574   4.772   1.354   0.341  0.4017 -0.1056  0.3101
  702SOL    HW3 2575   4.872   1.290   0.435 -0.2221  1.7266  2.3042
  702SOL    MW4 2576   4.851   1.352   0.377  0.4176  0.1903  0.2924
  703SOL     OW 2577   0.679   1.164   1.264 -0.0376 -0.2056 -0.2611
  703SOL    HW2 2578   0.700   1.171   1.357  2.0398  1.7948 -0.7814
  703SOL    HW3 2579   0.745   1.104   1.229 -0.6021 -0.6858 -0.5173
  703SOL    MW4 2580   0.690   1.157   1.271  0.1620 -0.0050 -0.3636
  704SOL     OW 2581   4.031   4.552   0.344 -0.2992 -0.3135  0.2065
  704SOL    HW2 2582   4.113   4.595   0.366 -0.8502  0.3063  1.1362
  704SOL    HW3 2583   4.028   4.551   0.248 -1.1954  3.6404  0.0189
  704SOL    MW4 2584   4.041   4.558   0.334 -0.4901  0.2900  0.3044
  705SOL     OW 2585   1.641   3.644   5.669 -0.2485  0.0462  0.1516
  705SOL    HW2 2586   1.703   3.602   5.610 -0.3637 -1.7514  1.2424
  705SOL    HW3 2587   1.692   3.667   5.746 -0.0707  2.5063 -0.6106
  705SOL    MW4 2588   1.656   3.641   5.671 -0.2403  0.1336  0.1949
  706SOL     OW 2589   5.295   2.152   6.388 -0.1810  0.1256 -0.1742
  706SOL    HW2 2590   5.360   2.138   6.320 -0.2295  0.6476 -0.3390
  706SOL    HW3 2591   5.213   2.119   6.350 -0.3906  1.2513 -0.7446
  706SOL    MW4 2592   5.292   2.146   6.374 -0.2150  0.3430 -0.2712
  707SOL     OW 2593   0.874   0.816   0.214 -0.4284  0.2666  0.3335
  707SOL    HW2 2594   0.802   0.873   0.240  0.2957  1.2342  0.2793
  707SOL    HW3 2595   0.895   0.842   0.125 -0.9316 -0.9929 -0.1831
  707SOL    MW4 2596   0.867   0.827   0.206 -0.3993  0.2281  0.2582
  708SOL     OW 2597   5.770   1.226   5.237 -0.0038 -0.6583 -0.2782
  708SOL    HW2 2598   5.817   1.307   5.257  0.6277 -1.3645  1.3632
  708SOL    HW3 2599   5.678   1.251   5.235  0.0516 -0.0923  1.6320
  708SOL    MW4 2600   5.764   1.240   5.240  0.0869 -0.6768  0.1904
  709SOL     OW 2601   5.287   4.706   0.892 -0.2454 -0.1226 -0.6446
  709SOL    HW2 2602   5.368   4.701   0.942  1.0585  3.2344 -2.1121
  709SOL    HW3 2603   5.226   4.753   0.949 -0.5685 -1.0149 -0.2413
  709SOL    MW4 2604   5.290   4.712   0.906 -0.1160  0.2026 -0.7850
  710SOL     OW 2605   4.870   2.874   1.103 -0.8167 -0.3520 -0.1660
  710SOL    HW2 2606   4.834   2.856   1.190  0.4873 -0.6781  0.3315
  710SOL    HW3 2607   4.796   2.905   1.052 -1.0687  2.9832  1.9458
  710SOL    MW4 2608   4.856   2.876   1.108 -0.6779  0.0450  0.1783
  711SOL     OW 2609   5.659   4.845   1.837  0.0436 -0.1959  0.1096
  711SOL    HW2 2610   5.630   4.916   1.895  2.6325  0.8127  0.2994
  711SOL    HW3 2611   5.638   4.876   1.749 -1.5677 -0.5963  0.3114
  711SOL    MW4 2612   5.652   4.859   1.833  0.1726 -0.1156  0.1613
  712SOL     OW 2613   0.101   1.492   0.068 -0.0341  0.2292 -0.3419
  712SOL    HW2 2614   0.182   1.517   0.113  0.1579  2.2084 -1.6867
  712SOL    HW3 2615   0.098   1.397   0.076  0.0833  0.3771  3.6099
  712SOL    MW4 2616   0.111   1.483   0.075  0.0067  0.5098  0.0021
  713SOL     OW 2617   6.002   5.398   3.625  0.7286  0.4471 -0.1223
  713SOL    HW2 2618   6.083   5.443   3.652 -0.1025  0.6217  2.3745
  713SOL    HW3 2619   6.012   5.309   3.658 -0.0149  0.4197  0.0463
  713SOL    MW4 2620   6.014   5.392   3.633  0.5208  0.4666  0.2294
  714SOL     OW 2621   6.216   6.321   5.835 -0.1477  0.1817  0.5376
  714SOL    HW2 2622   6.198   6.267   5.912 -1.3588 -0.4451 -0.1581
  714SOL    HW3 2623   6.191   6.410   5.861 -0.3636  0.0082  0.9287
  714SOL    MW4 2624   6.211   6.326   5.849 -0.3360  0.0761  0.4974
  715SOL     OW 2625   4.876   4.774   5.028  0.0235 -0.2729  1.2397
  715SOL    HW2 2626   4.869   4.680   5.014 -1.3026  0.0683 -0.7350
  715SOL    HW3 2627   4.790   4.799   5.062 -0.3164  0.4779 -0.1086
  715SOL    MW4 2628   4.864   4.765   5.031 -0.1963 -0.1288  0.8013
  716SOL     OW 2629   5.783   3.331   3.353 -0.1321 -0.3843 -0.5390
  716SOL    HW2 2630   5.807   3.258   3.410 -0.1350 -0.2309 -0.3366
  716SOL    HW3 2631   5.861   3.386   3.350  0.6433 -1.5102 -2.4950
  716SOL    MW4 2632   5.796   3.329   3.360 -0.0302 -0.5126 -0.7704
  717SOL     OW 2633   4.234   4.215   0.858  0.1576 -0.0855  0.4364
  717SOL    HW2 2634   4.285   4.175   0.787  0.9032 -3.2413  2.5550
  717SOL    HW3 2635   4.146   4.224   0.822  0.6704 -0.8838 -1.1186
  717SOL    MW4 2636   4.229   4.211   0.844  0.3236 -0.6072  0.5108
  718SOL     OW 2637   0.627   5.387   1.802 -0.4153  0.4188  0.2583
  718SOL    HW2 2638   0.604   5.435   1.722 -0.7204 -1.5906 -0.9352
  718SOL    HW3 2639   0.551   5.398   1.858 -0.3395  1.5857  0.1611
  718SOL    MW4 2640   0.614   5.395   1.799 -0.4455  0.3077  0.0880
  719SOL     OW 2641   1.052   3.083   5.853 -0.4244  0.0651 -0.5964
  719SOL    HW2 2642   1.026   3.142   5.782  0.2661  0.3517 -0.6137
  719SOL    HW3 2643   1.147   3.077   5.846 -0.5938 -2.7109 -1.9149
  719SOL    MW4 2644   1.061   3.090   5.843 -0.3556 -0.2633 -0.7727
  720SOL     OW 2645   4.589   0.530   1.686 -0.1818  0.0964 -0.5935
  720SOL    HW2 2646   4.543   0.492   1.611 -0.4706  0.2067 -0.4711
  720SOL    HW3 2647   4.547   0.491   1.762 -0.0635  0.1885 -0.4803
  720SOL    MW4 2648   4.578   0.520   1.686 -0.2043  0.1231 -0.5624
  721SOL     OW 2649   2.114   3.470   4.117  0.1422  0.1918  0.5293
  721SOL    HW2 2650   2.137   3.561   4.098  0.6919 -0.2041 -0.8322
  721SOL    HW3 2651   2.193   3.434   4.158  0.6350 -0.1578 -0.6805
  721SOL    MW4 2652   2.128   3.477   4.120  0.2797  0.0935  0.1901
  722SOL     OW 2653   1.377   3.382   0.713  0.1399 -0.0753  0.5861
  722SOL    HW2 2654   1.361   3.437   0.636  0.2897  0.9216  1.2641
  722SOL    HW3 2655   1.459   3.336   0.693  1.3742  1.8437  1.0762
  722SOL    MW4 2656   1.385   3.383   0.700  0.3225  0.3094  0.7402
  723SOL     OW 2657   1.118   2.822   6.282  0.2747 -0.0221 -0.7844
  723SOL    HW2 2658   1.098   2.748   6.225 -0.6722 -1.3139  1.1376
  723SOL    HW3 2659   1.089   2.795   6.369  2.2490  1.6119  0.4803
  723SOL    MW4 2660   1.111   2.809   6.286  0.4102  0.0230 -0.3640
  724SOL     OW 2661   2.038   3.265   0.144  0.3434  0.3573  0.1257
  724SOL    HW2 2662   2.089   3.187   0.163  1.2322  1.1192  0.9921
  724SOL    HW3 2663   2.102   3.329   0.113 -0.1326  1.1871  0.7909
  724SOL    MW4 2664   2.053   3.263   0.143  0.3979  0.5673  0.3278
  725SOL     OW 2665   6.180   1.294   1.437  0.1062  0.5799 -0.1283
  725SOL    HW2 2666   6.123   1.238   1.384  0.5156 -0.3246  0.3686
  725SOL    HW3 2667   6.128   1.371   1.454 -0.3556  0.5050 -1.1051
  725SOL    MW4 2668   6.166   1.297   1.432  0.0993  0.4507 -0.1916
  726SOL     OW 2669   2.027   0.669   1.179 -0.0098 -0.4990 -1.1052
  726SOL    HW2 2670   1.949   0.680   1.125  0.1611  0.8580 -1.1055
  726SOL    HW3 2671   2.068   0.755   1.179  0.2972 -0.6154  0.7372
  726SOL    MW4 2672   2.022   0.682   1.172  0.0533 -0.3353 -0.8622
  727SOL     OW 2673   5.237   5.766   4.889 -0.1086 -0.0060 -0.1861
  727SOL    HW2 2674   5.321   5.795   4.853  1.1916 -3.3549 -0.2120
  727SOL    HW3 2675   5.174   5.782   4.818  1.0701 -0.0946 -1.2972
  727SOL    MW4 2676   5.240   5.772   4.875  0.2185 -0.4595 -0.3361
  728SOL     OW 2677   6.221   5.233   5.262  0.3044 -0.2834 -0.8753
  728SOL    HW2 2678   6.246   5.183   5.184 -0.0503 -1.5264 -0.2266
  728SOL    HW3 2679   6.220   5.168   5.333  2.2892  1.0947  0.5469
  728SOL    MW4 2680   6.224   5.218   5.261  0.5195 -0.2656 -0.6020
  729SOL     OW 2681   3.936   4.274   2.099  0.4824  0.4777  0.5172
  729SOL    HW2 2682   3.881   4.352   2.114 -0.4850  0.0925 -0.8049
  729SOL    HW3 2683   3.874   4.207   2.069  1.2650 -0.8982  1.8388
  729SOL    MW4 2684   3.921   4.276   2.097  0.4580  0.2453  0.5171
  730SOL     OW 2685   0.108   1.759   4.896  0.1645 -0.2973  0.2933
  730SOL    HW2 2686   0.018   1.732   4.912  0.5548 -0.9134  1.5258
  730SOL    HW3 2687   0.153   1.747   4.980  0.9418  1.9142  0.2615
  730SOL    MW4 2688   0.102   1.753   4.909  0.3185 -0.0868  0.4517
  731SOL     OW 2689   1.297   3.981   4.706  0.6570 -0.4814 -0.4182
  731SOL    HW2 2690   1.229   3.914   4.718  0.2190  0.0280 -0.0542
  731SOL    HW3 2691   1.375   3.943   4.747  0.1279 -0.3219  0.7960
  731SOL    MW4 2692   1.298   3.967   4.713  0.5294 -0.3932 -0.2099
  732SOL     OW 2693   6.352   0.711   0.512 -0.1742  0.3803  0.2482
  732SOL    HW2 2694   6.302   0.631   0.528 -0.8170  1.0470  1.6939
  732SOL    HW3 2695   6.438   0.680   0.483 -0.4298 -0.8370  0.7355
  732SOL    MW4 2696   6.357   0.696   0.510 -0.2927  0.3077  0.5032
  733SOL     OW 2697   4.952   3.194   0.831  0.3817  0.1715 -0.3959
  733SOL    HW2 2698   4.994   3.156   0.908 -1.5335 -2.3268 -0.4468
  733SOL    HW3 2699   4.883   3.250   0.867 -0.3051 -0.7444 -0.2378
  733SOL    MW4 2700   4.949   3.196   0.846  0.0384 -0.2789 -0.3818
  734SOL     OW 2701   2.706   2.305   1.189  0.1178 -0.3198  0.1482
  734SOL    HW2 2702   2.747   2.294   1.275  0.0155 -1.6841  0.0378
  734SOL    HW3 2703   2.748   2.239   1.134 -0.2566  0.1299 -0.6921
  734SOL    MW4 2704   2.717   2.295   1.193  0.0549 -0.4405  0.0228
  735SOL     OW 2705   4.379   3.259   4.683  0.1175 -0.4380 -0.3356
  735SOL    HW2 2706   4.357   3.352   4.684 -0.8366 -0.6650  0.4153
  735SOL    HW3 2707   4.312   3.218   4.628  0.1737 -0.7707 -0.1636
  735SOL    MW4 2708   4.367   3.266   4.676 -0.0010 -0.5119 -0.2139
  736SOL     OW 2709   2.162   1.614   5.093 -0.2587  0.7749 -0.1937
  736SOL    HW2 2710   2.118   1.617   5.178  0.2032  0.2080  0.0667
  736SOL    HW3 2711   2.109   1.554   5.041  0.9264 -0.9584  0.5429
  736SOL    MW4 2712   2.149   1.607   5.098 -0.0414  0.4715 -0.0621
  737SOL     OW 2713   4.281   0.186   4.619 -0.3464  0.4338  0.2412
  737SOL    HW2 2714   4.318   0.160   4.704  1.0267  1.2317 -0.0791
  737SOL    HW3 2715   4.237   0.269   4.637 -1.2478 -0.0817  0.4438
  737SOL    MW4 2716   4.280   0.194   4.633 -0.2842  0.4711  0.2256
  738SOL     OW 2717   2.506   3.081   1.140 -0.0400  0.3180  0.1254
  738SOL    HW2 2718   2.470   3.167   1.119 -0.9134 -0.4192 -1.5687
  738SOL    HW3 2719   2.490   3.028   1.062  2.6689 -0.7364  0.1807
  738SOL    MW4 2720   2.499   3.085   1.127  0.2022  0.0816 -0.0908
  739SOL     OW 2721   6.417   2.375   4.519  0.8891  0.4377 -0.7529
  739SOL    HW2 2722   6.382   2.455   4.558 -0.8957 -0.5621 -0.2023
  739SOL    HW3 2723   6.415   2.391   4.425 -0.3673  0.7049 -0.6955
  739SOL    MW4 2724   6.412   2.388   4.512  0.4879  0.3411 -0.6727
  740SOL     OW 2725   1.035   6.081   0.720  0.5210  0.2668  0.0859
  740SOL    HW2 2726   0.994   6.023   0.784 -2.7652  2.1041 -0.1362
  740SOL    HW3 2727   1.059   6.024   0.647 -0.1079 -1.1774  0.9708
  740SOL    MW4 2728   1.033   6.066   0.719  0.0044  0.3186  0.1733
  741SOL     OW 2729   3.708   0.962   2.703 -0.0947  0.1545 -0.1194
  741SOL    HW2 2730   3.722   0.985   2.611 -0.8432  0.0352 -0.2736
  741SOL    HW3 2731   3.796   0.947   2.738  0.1286 -1.2969 -1.2052
  741SOL    MW4 2732   3.721   0.963   2.696 -0.1640 -0.0527 -0.2830
  742SOL     OW 2733   4.360   2.306   2.812  0.4967  0.0925 -0.4826
  742SOL    HW2 2734   4.304   2.333   2.884  0.5369 -0.9481 -0.0394
  742SOL    HW3 2735   4.432   2.259   2.854  1.7750  1.4716 -1.0255
  742SOL    MW4 2736   4.362   2.303   2.827  0.6706  0.1372 -0.4957
  743SOL     OW 2737   3.648   4.559   3.007  0.8836  0.0172 -0.3964
  743SOL    HW2 2738   3.655   4.509   3.088  1.9623  0.6677 -0.0610
  743SOL    HW3 2739   3.658   4.493   2.938  0.1285 -0.5186 -0.0068
  743SOL    MW4 2740   3.651   4.544   3.009  0.9263  0.0324 -0.3007
  744SOL     OW 2741   6.059   0.239   2.102 -0.3045 -0.4810  0.3960
  744SOL    HW2 2742   6.083   0.169   2.041 -3.2021  0.6304 -2.2808
  744SOL    HW3 2743   6.074   0.320   2.054 -0.4987  0.6076  2.0739
  744SOL    MW4 2744   6.064   0.240   2.088 -0.7124 -0.1907  0.2642
  745SOL     OW 2745   5.571   4.784   4.212 -0.1183 -0.0161  0.2843
  745SOL    HW2 2746   5.572   4.688   4.205 -0.8186 -0.0693  0.8376
  745SOL    HW3 2747   5.630   4.813   4.143 -0.5005 -0.8195 -0.4014
  745SOL    MW4 2748   5.579   4.775   4.202 -0.2611 -0.1291  0.2668
  746SOL     OW 2749   0.267   3.658   5.864  0.0631  0.2694  0.8758
  746SOL    HW2 2750   0.183   3.627   5.899  0.0231  1.5707  2.0206
  746SOL    HW3 2751   0.244   3.694   5.778 -0.0032 -2.0698 -0.1729
  746SOL    MW4 2752   0.253   3.659   5.857  0.0491  0.1325  0.8885
  747SOL     OW 2753   3.002   1.864   3.012  0.2965  0.2999 -0.8216
  747SOL    HW2 2754   3.043   1.915   3.082 -0.4945  0.5416 -0.5244
  747SOL    HW3 2755   2.908   1.869   3.030 -0.1082  1.9984 -2.9601
  747SOL    MW4 2756   2.995   1.871   3.024  0.1388  0.5559 -1.0645
  748SOL     OW 2757   4.860   3.892   3.921  0.1829  0.3121 -0.5414
  748SOL    HW2 2758   4.826   3.981   3.927  1.7522  0.9404 -0.5286
  748SOL    HW3 2759   4.887   3.883   3.829  0.9984  0.2332 -0.2996
  748SOL    MW4 2760   4.859   3.903   3.910  0.4975  0.3846 -0.5078
  749SOL     OW 2761   3.860   4.822   4.218 -0.2674 -0.3593 -0.3750
  749SOL    HW2 2762   3.890   4.892   4.159  0.0671 -0.1137  0.0748
  749SOL    HW3 2763   3.813   4.868   4.287 -0.1439 -0.5876 -0.1375
  749SOL    MW4 2764   3.858   4.837   4.219 -0.2070 -0.3570 -0.2843
  750SOL     OW 2765   4.289   4.257   4.620  0.5399  0.5330  0.1457
  750SOL    HW2 2766   4.207   4.295   4.589  0.6037 -0.3843 -1.2121
  750SOL    HW3 2767   4.266   4.213   4.702 -0.1712  0.8401  0.1176
  750SOL    MW4 2768   4.275   4.257   4.627  0.4545  0.4525 -0.0371
  751SOL     OW 2769   4.456   5.352   0.979  0.3872  0.1934 -0.5711
  751SOL    HW2 2770   4.390   5.309   1.035  1.8649 -1.2856  0.1240
  751SOL    HW3 2771   4.417   5.436   0.957 -1.9154 -0.7677 -0.5200
  751SOL    MW4 2772   4.442   5.357   0.984  0.2783 -0.1285 -0.4726
  752SOL     OW 2773   3.271   5.738   1.428 -0.0123 -0.4534  0.3327
  752SOL    HW2 2774   3.185   5.711   1.463 -1.4228  1.9134 -1.0194
  752SOL    HW3 2775   3.250   5.782   1.345  2.4238  0.9747  0.3870
  752SOL    MW4 2776   3.257   5.740   1.422  0.1230  0.0473  0.1615
  753SOL     OW 2777   1.859   6.124   6.125  0.0999  0.1798 -0.5485
  753SOL    HW2 2778   1.845   6.217   6.143  2.4573  0.6984 -1.0110
  753SOL    HW3 2779   1.873   6.120   6.030 -1.0216 -0.8403 -0.6995
  753SOL    MW4 2780   1.859   6.136   6.114  0.2630  0.1136 -0.6294
  754SOL     OW 2781   4.230   3.330   3.253 -0.0850  0.0624 -0.4904
  754SOL    HW2 2782   4.307   3.364   3.208 -0.1635  0.1316 -0.5729
  754SOL    HW3 2783   4.159   3.389   3.228  0.1221  0.8636  0.7525
  754SOL    MW4 2784   4.231   3.342   3.244 -0.0680  0.1772 -0.3373
  755SOL     OW 2785   2.301   0.421   3.097  0.4747  0.4443 -0.0979
  755SOL    HW2 2786   2.356   0.475   3.153  1.5258  1.1105 -1.6859
  755SOL    HW3 2787   2.352   0.341   3.083  0.8112  0.8176 -1.1024
  755SOL    MW4 2788   2.315   0.418   3.102  0.6578  0.5814 -0.4400
  756SOL     OW 2789   0.435   3.358   5.041  0.2031  0.3081 -0.5184
  756SOL    HW2 2790   0.431   3.270   5.006  0.4430  0.1839 -0.2401
  756SOL    HW3 2791   0.498   3.403   4.985  0.4762  0.1507 -0.3432
  756SOL    MW4 2792   0.443   3.353   5.029  0.2708  0.2710 -0.4586
  757SOL     OW 2793   5.410   0.882   0.643  0.5427 -0.2438  0.2384
  757SOL    HW2 2794   5.416   0.894   0.548  2.6698 -1.7665  0.1005
  757SOL    HW3 2795   5.316   0.884   0.661 -0.0327 -1.4242 -2.1357
  757SOL    MW4 2796   5.398   0.884   0.633  0.7474 -0.6004 -0.0931
  758SOL     OW 2797   2.619   4.907   0.574  0.4228  0.1342 -0.2017
  758SOL    HW2 2798   2.547   4.844   0.569  0.4042  0.0440  0.8251
  758SOL    HW3 2799   2.590   4.970   0.640  0.7264  0.8524 -0.7383
  758SOL    MW4 2800   2.606   4.907   0.582  0.4604  0.2170 -0.1370
  759SOL     OW 2801   6.333   5.037   1.469  0.1685 -0.6996 -0.8341
  759SOL    HW2 2802   6.348   5.041   1.374 -2.1325 -1.8240 -1.3363
  759SOL    HW3 2803   6.398   4.975   1.501  0.1266 -1.3361 -1.9119
  759SOL    MW4 2804   6.343   5.029   1.461 -0.1406 -0.9320 -1.0426
  760SOL     OW 2805   0.449   3.552   5.381 -0.3950  0.0041 -0.1740
  760SOL    HW2 2806   0.371   3.504   5.351 -0.5812 -0.5894  1.1959
  760SOL    HW3 2807   0.520   3.488   5.372 -0.6230 -0.5309  1.5457
  760SOL    MW4 2808   0.448   3.537   5.376 -0.4497 -0.1448  0.2336
  761SOL     OW 2809   0.216   6.159   4.478 -0.1239 -0.2123  0.4759
  761SOL    HW2 2810   0.121   6.169   4.475 -0.0920  0.0450  0.3139
  761SOL    HW3 2811   0.233   6.117   4.563 -0.4927 -1.5929 -0.1106
  761SOL    MW4 2812   0.206   6.155   4.489 -0.1683 -0.3605  0.3771
  762SOL     OW 2813   0.182   3.414   4.912 -0.3778 -0.1415  0.4808
  762SOL    HW2 2814   0.198   3.508   4.902  0.1819 -0.2827 -0.0183
  762SOL    HW3 2815   0.265   3.379   4.943 -0.2635 -0.6160 -0.3293
  762SOL    MW4 2816   0.195   3.422   4.915 -0.2889 -0.2227  0.3081
  763SOL     OW 2817   2.949   4.740   5.241  0.2759  0.3323  0.4772
  763SOL    HW2 2818   2.950   4.685   5.319 -1.3568 -4.4247 -2.4378
  763SOL    HW3 2819   2.860   4.776   5.239 -0.2439 -0.9183  0.0645
  763SOL    MW4 2820   2.937   4.738   5.251 -0.0081 -0.4603  0.0381
  764SOL     OW 2821   3.196   0.738   5.983 -0.1907 -0.4738 -0.6026
  764SOL    HW2 2822   3.271   0.774   5.936  0.7935 -0.2791  1.0285
  764SOL    HW3 2823   3.148   0.814   6.014  0.1343 -0.5748  0.1639
  764SOL    MW4 2824   3.199   0.753   5.981 -0.0179 -0.4615 -0.2863
  765SOL     OW 2825   4.953   0.681   3.265  0.0524  0.3915 -0.1149
  765SOL    HW2 2826   4.951   0.595   3.307 -0.3087  0.6981  0.5202
  765SOL    HW3 2827   4.862   0.712   3.271  0.2277  0.9162 -0.1191
  765SOL    MW4 2828   4.941   0.674   3.271  0.0279  0.5012 -0.0317
  766SOL     OW 2829   4.165   3.536   0.473  0.4725  0.1692  0.3440
  766SOL    HW2 2830   4.141   3.584   0.552  0.0689 -1.3686  1.2107
  766SOL    HW3 2831   4.081   3.518   0.430  0.5255 -0.5062  0.5064
  766SOL    MW4 2832   4.151   3.540   0.478  0.4262 -0.1228  0.4798
  767SOL     OW 2833   4.717   0.267   1.673 -0.4556  0.2982  0.5147
  767SOL    HW2 2834   4.649   0.334   1.681  0.2720  1.2362 -0.7805
  767SOL    HW3 2835   4.681   0.205   1.609  1.2215  2.6883 -3.0701
  767SOL    MW4 2836   4.703   0.268   1.666 -0.1383  0.7373 -0.1292
  768SOL     OW 2837   4.907   2.512   2.865 -0.7197 -0.2178  0.1530
  768SOL    HW2 2838   4.938   2.469   2.944 -2.1907  0.4864  1.1688
  768SOL    HW3 2839   4.833   2.459   2.835  0.0040 -0.6448 -0.9433
  768SOL    MW4 2840   4.901   2.499   2.871 -0.8183 -0.1813  0.1424
  769SOL     OW 2841   1.286   1.250   5.257 -0.1198 -0.2195 -0.2354
  769SOL    HW2 2842   1.249   1.312   5.193 -0.3895 -0.2298 -0.0899
  769SOL    HW3 2843   1.215   1.234   5.318  0.4237  0.5370  0.6248
  769SOL    MW4 2844   1.272   1.256   5.256 -0.0837 -0.1211 -0.1027
  770SOL     OW 2845   4.519   0.453   2.854  0.3392  0.1572 -0.0048
  770SOL    HW2 2846   4.465   0.434   2.777  0.3734 -1.1462  0.2739
  770SOL    HW3 2847   4.466   0.513   2.906  0.8307  2.1089 -1.6178
  770SOL    MW4 2848   4.505   0.459   2.850  0.4086  0.2427 -0.1808
  771SOL     OW 2849   3.088   1.157   1.822  0.5242 -0.3320 -0.7907
  771SOL    HW2 2850   3.099   1.176   1.729  1.6697  0.7750 -0.4691
  771SOL    HW3 2851   2.999   1.125   1.830  0.0866  0.4605 -2.1418
  771SOL    MW4 2852   3.078   1.155   1.811  0.6176 -0.0814 -0.9266
  772SOL     OW 2853   3.319   1.809   3.046  0.3907  0.1916  0.4493
  772SOL    HW2 2854   3.338   1.717   3.067 -0.7102  0.3202  2.2519
  772SOL    HW3 2855   3.227   1.820   3.069  0.9426  2.1705  1.9536
  772SOL    MW4 2856   3.310   1.798   3.052  0.3183  0.4697  0.8856
  773SOL     OW 2857   3.764   5.151   6.493 -0.2375  0.7170 -0.0780
  773SOL    HW2 2858   3.755   5.192   6.579 -1.6201 -0.3407  0.3085
  773SOL    HW3 2859   3.853   5.114   6.494 -0.1777  0.8517  0.8290
  773SOL    MW4 2860   3.775   5.152   6.505 -0.4120  0.5953  0.0927
  774SOL     OW 2861   4.118   3.145   6.103  0.2404 -0.2722  0.7358
  774SOL    HW2 2862   4.192   3.090   6.127 -0.4392 -0.9203  1.4174
  774SOL    HW3 2863   4.128   3.159   6.009  0.2053 -1.9242  0.4569
  774SOL    MW4 2864   4.129   3.139   6.094  0.1461 -0.5757  0.7889
  775SOL     OW 2865   3.557   3.119   3.349 -0.5216  0.0256 -0.9223
  775SOL    HW2 2866   3.473   3.073   3.358  0.3186 -2.5439 -4.1994
  775SOL    HW3 2867   3.536   3.196   3.296 -0.7964 -1.0763 -2.5022
  775SOL    MW4 2868   3.543   3.123   3.343 -0.4470 -0.4588 -1.5631
  776SOL     OW 2869   2.435   2.542   2.748 -0.0124 -1.0158 -0.1323
  776SOL    HW2 2870   2.407   2.620   2.701  0.9203 -1.3512 -1.2856
  776SOL    HW3 2871   2.388   2.546   2.832  0.7790  1.2930  0.2568
  776SOL    MW4 2872   2.425   2.553   2.753  0.2151 -0.7555 -0.2331
  777SOL     OW 2873   5.170   1.415   2.429  0.2894  0.4310 -0.1702
  777SOL    HW2 2874   5.204   1.504   2.422  2.7096 -0.2505  1.2574
  777SOL    HW3 2875   5.166   1.399   2.523 -1.4644 -0.5399 -0.3714
  777SOL    MW4 2876   5.174   1.424   2.441  0.3774  0.2130 -0.0084
  778SOL     OW 2877   0.932   2.550   1.797  0.7406 -0.1426 -0.4198
  778SOL    HW2 2878   0.913   2.577   1.887 -0.2268  0.5717 -0.8270
  778SOL    HW3 2879   1.020   2.512   1.801  0.5953 -0.3735  0.8743
  778SOL    MW4 2880   0.941   2.548   1.809  0.5938 -0.0788 -0.3028
  779SOL     OW 2881   4.183   4.415   5.814  0.3672 -0.6033  0.4755
  779SOL    HW2 2882   4.091   4.395   5.834  0.3634 -0.3383  0.7099
  779SOL    HW3 2883   4.233   4.352   5.866  0.3040 -1.1411 -0.1028
  779SOL    MW4 2884   4.177   4.404   5.823  0.3583 -0.6393  0.4301
  780SOL     OW 2885   0.691   3.631   6.145 -0.0305  0.0185  0.3642
  780SOL    HW2 2886   0.640   3.593   6.073  1.6588 -1.5220 -0.0887
  780SOL    HW3 2887   0.636   3.620   6.222 -0.7637 -0.7441 -0.2457
  780SOL    MW4 2888   0.677   3.625   6.145  0.0956 -0.2854  0.2240
  781SOL     OW 2889   0.709   0.380   4.220 -0.2153 -0.5118  0.8547
  781SOL    HW2 2890   0.673   0.336   4.143  0.6976 -0.1759  0.2182
  781SOL    HW3 2891   0.677   0.328   4.294  0.0242 -1.6692  0.1786
  781SOL    MW4 2892   0.700   0.367   4.219 -0.0632 -0.6202  0.6815
  782SOL     OW 2893   4.351   0.760   5.566  0.0498  0.8588 -0.2183
  782SOL    HW2 2894   4.261   0.788   5.577 -0.4866 -0.5271 -0.8805
  782SOL    HW3 2895   4.369   0.772   5.473  0.0177 -0.3440 -0.3871
  782SOL    MW4 2896   4.342   0.765   5.555 -0.0252  0.5173 -0.3279
  783SOL     OW 2897   4.457   0.648   0.584 -0.8692  0.0858 -0.1248
  783SOL    HW2 2898   4.461   0.743   0.574 -1.9393  0.0447 -1.0883
  783SOL    HW3 2899   4.508   0.614   0.511 -3.3434 -0.1020 -1.8758
  783SOL    MW4 2900   4.465   0.656   0.573 -1.3368  0.0556 -0.4829
  784SOL     OW 2901   3.935   4.511   1.400  0.6281  0.4836  0.2727
  784SOL    HW2 2902   3.987   4.436   1.427  0.2646 -0.2341 -0.9261
  784SOL    HW3 2903   3.929   4.566   1.478 -0.1178 -1.3034  1.5321
  784SOL    MW4 2904   3.941   4.508   1.414  0.4817  0.1532  0.2807
  785SOL     OW 2905   5.048   2.791   1.952  0.1884 -0.0503  0.1985
  785SOL    HW2 2906   5.014   2.837   1.875 -1.2307 -0.0883  0.7631
  785SOL    HW3 2907   5.042   2.698   1.929  1.2381 -0.0234 -0.2181
  785SOL    MW4 2908   5.042   2.784   1.939  0.1397 -0.0518  0.2180
  786SOL     OW 2909   2.409   5.215   5.809  0.4368 -0.1008  0.0610
  786SOL    HW2 2910   2.417   5.310   5.820  3.9305 -0.1043 -1.0351
  786SOL    HW3 2911   2.493   5.181   5.839  0.2567 -2.5837 -1.9284
  786SOL    MW4 2912   2.421   5.223   5.814  0.8740 -0.4289 -0.3461
  787SOL     OW 2913   3.468   3.327   3.194 -0.2276  0.2334 -0.2938
  787SOL    HW2 2914   3.478   3.421   3.206  1.4177  0.1934 -1.0611
  787SOL    HW3 2915   3.397   3.318   3.130  1.3278  1.1062 -2.2336
  787SOL    MW4 2916   3.460   3.338   3.188  0.1947  0.3433 -0.6510
  788SOL     OW 2917   0.519   5.177   0.615 -0.3973 -0.4904  0.2273
  788SOL    HW2 2918   0.529   5.204   0.523 -0.2415 -0.8614  0.1318
  788SOL    HW3 2919   0.498   5.258   0.662  0.3475 -0.1528 -0.0052
  788SOL    MW4 2920   0.517   5.191   0.609 -0.2785 -0.4948  0.1840
  789SOL     OW 2921   1.266   2.533   5.474  0.4771  0.6550 -0.7218
  789SOL    HW2 2922   1.202   2.601   5.494  0.6939  0.8373 -0.6353
  789SOL    HW3 2923   1.214   2.459   5.444 -0.1685 -0.6052  2.9184
  789SOL    MW4 2924   1.251   2.532   5.473  0.4206  0.5128 -0.2301
  790SOL     OW 2925   1.962   3.045   6.359 -0.0988 -0.1146 -0.6167
  790SOL    HW2 2926   2.042   3.097   6.363  0.3758 -0.8965  1.4651
  790SOL    HW3 2927   1.892   3.110   6.357  0.5298  0.6156  0.2441
  790SOL    MW4 2928   1.963   3.060   6.359  0.0467 -0.1214 -0.2285
  791SOL     OW 2929   3.783   4.470   3.625 -0.0889  0.1151 -0.5131
  791SOL    HW2 2930   3.774   4.446   3.717 -1.8594 -0.5577 -0.8394
  791SOL    HW3 2931   3.764   4.564   3.623 -0.3741  0.0647 -0.2338
  791SOL    MW4 2932   3.780   4.479   3.637 -0.3601  0.0197 -0.5193
  792SOL     OW 2933   2.742   3.898   3.628 -0.2393  0.3394  0.2338
  792SOL    HW2 2934   2.647   3.900   3.615 -0.0053  2.0255 -1.7120
  792SOL    HW3 2935   2.760   3.975   3.683  0.1754  1.4425 -1.3637
  792SOL    MW4 2936   2.732   3.909   3.634 -0.1537  0.7074 -0.2337
  793SOL     OW 2937   0.609   3.187   3.105  0.0033  0.1196 -0.4665
  793SOL    HW2 2938   0.633   3.113   3.160 -0.1516  1.1721  1.0798
  793SOL    HW3 2939   0.625   3.157   3.015  1.2342 -1.3004  0.1909
  793SOL    MW4 2940   0.614   3.173   3.100  0.1453  0.0711 -0.1757
  794SOL     OW 2941   0.126   0.213   3.203 -0.0932 -0.0309  0.2220
  794SOL    HW2 2942   0.092   0.167   3.280  0.7061 -0.0055  0.6002
  794SOL    HW3 2943   0.209   0.250   3.232 -0.8789  1.9663  0.0209
  794SOL    MW4 2944   0.132   0.212   3.217 -0.0914  0.2360  0.2454
  795SOL     OW 2945   1.889   2.459   0.311  0.0627 -0.4802  0.1744
  795SOL    HW2 2946   1.869   2.372   0.344 -0.1012 -1.4147 -2.1642
  795SOL    HW3 2947   1.804   2.501   0.300  0.0007 -0.7515 -0.4474
  795SOL    MW4 2948   1.875   2.453   0.314  0.0329 -0.6393 -0.2162
  796SOL     OW 2949   4.904   4.858   4.093  0.6766  0.1434 -0.4708
  796SOL    HW2 2950   4.946   4.902   4.166  0.5693  0.7819 -0.7882
  796SOL    HW3 2951   4.906   4.765   4.117 -1.1630  0.4938  1.2770
  796SOL    MW4 2952   4.910   4.851   4.106  0.4197  0.2739 -0.2821
  797SOL     OW 2953   4.796   5.114   3.491 -0.0654  0.1100  0.4335
  797SOL    HW2 2954   4.818   5.057   3.417  1.0265  0.5636  0.3932
  797SOL    HW3 2955   4.865   5.098   3.555 -0.6430  0.2064  1.0924
  797SOL    MW4 2956   4.808   5.104   3.490  0.0024  0.1826  0.5151
  798SOL     OW 2957   0.727   3.346   3.295  0.0612 -0.1364 -0.2274
  798SOL    HW2 2958   0.686   3.301   3.221 -1.9786  1.0213  0.1252
  798SOL    HW3 2959   0.714   3.439   3.277  1.9472  0.2752  0.3035
  798SOL    MW4 2960   0.720   3.352   3.283  0.0409  0.0707 -0.1108
  799SOL     OW 2961   5.405   6.100   0.364  0.0857  0.0934 -0.5791
  799SOL    HW2 2962   5.393   6.151   0.443 -1.2146 -1.9573  0.6397
  799SOL    HW3 2963   5.494   6.065   0.371  0.0955  0.1952 -0.1917
  799SOL    MW4 2964   5.415   6.102   0.375 -0.0846 -0.1637 -0.3672
  800SOL     OW 2965   1.460   2.030   1.518  0.1024 -0.3339  0.1443
  800SOL    HW2 2966   1.534   1.983   1.556  0.4222  0.6905  0.8278
  800SOL    HW3 2967   1.484   2.044   1.427 -0.3053 -2.0851 -0.2684
  800SOL    MW4 2968   1.473   2.025   1.511  0.0908 -0.4298  0.1800
  801SOL     OW 2969   5.983   3.269   5.058 -0.2322  0.1551 -0.1156
  801SOL    HW2 2970   5.938   3.289   5.140  1.1503 -0.1593  0.7574
  801SOL    HW3 2971   6.016   3.354   5.028  1.8731 -0.0945  1.2928
  801SOL    MW4 2972   5.981   3.283   5.065  0.2279  0.0807  0.1854
  802SOL     OW 2973   6.348   2.118   1.733  0.2837 -0.4317 -1.0078
  802SOL    HW2 2974   6.344   2.041   1.790  1.1102 -0.1293 -0.5169
  802SOL    HW3 2975   6.276   2.173   1.762  0.9817 -0.0708  0.0699
  802SOL    MW4 2976   6.338   2.115   1.744  0.4849 -0.3441 -0.8008
  803SOL     OW 2977   2.817   1.725   4.341 -0.1005 -0.0684  0.1993
  803SOL    HW2 2978   2.807   1.707   4.434 -1.0347 -2.2003 -0.2574
  803SOL    HW3 2979   2.877   1.658   4.310 -0.6107 -0.0233 -0.9272
  803SOL    MW4 2980   2.824   1.714   4.349 -0.2911 -0.3437 -0.0096
  804SOL     OW 2981   6.260   0.067   5.089 -0.0528  0.0152  0.0620
  804SOL    HW2 2982   6.290   0.038   5.002 -1.1830 -0.5248 -0.1749
  804SOL    HW3 2983   6.169   0.036   5.094 -0.6328  1.7119  0.6710
  804SOL    MW4 2984   6.252   0.059   5.078 -0.2785  0.1678  0.1111
  805SOL     OW 2985   3.776   0.502   3.771 -0.2421  0.0141 -0.4940
  805SOL    HW2 2986   3.796   0.439   3.840  2.3908 -0.7290 -1.8053
  805SOL    HW3 2987   3.737   0.448   3.701 -0.6338  0.3457 -0.5346
  805SOL    MW4 2988   3.773   0.486   3.771  0.0536 -0.0402 -0.6724
  806SOL     OW 2989   1.252   2.382   6.094 -0.0396  0.0397  0.2278
  806SOL    HW2 2990   1.340   2.418   6.086  0.0405  0.0536  1.1466
  806SOL    HW3 2991   1.249   2.313   6.028  1.4818 -1.5769  1.7571
  806SOL    MW4 2992   1.263   2.378   6.084  0.1717 -0.1718  0.5508
  807SOL     OW 2993   0.215   0.277   3.553 -0.0287  0.1500 -0.2075
  807SOL    HW2 2994   0.122   0.266   3.531 -0.1398  0.2860  0.1700
  807SOL    HW3 2995   0.232   0.208   3.618 -0.1238  0.7236  0.4436
  807SOL    MW4 2996   0.205   0.266   3.559 -0.0559  0.2436 -0.0718
  808SOL     OW 2997   0.588   2.212   2.380 -0.5561 -0.0090  0.1174
  808SOL    HW2 2998   0.544   2.293   2.405 -0.7573  0.2567 -1.0457
  808SOL    HW3 2999   0.523   2.144   2.393 -0.0895 -0.1540  2.0329
  808SOL    MW4 3000   0.574   2.214   2.385 -0.5211  0.0069  0.2167
  809SOL     OW 3001   3.879   5.142   0.374 -0.4830 -0.1083 -0.0709
  809SOL    HW2 3002   3.881   5.209   0.442 -1.0075  0.0007 -0.1560
  809SOL    HW3 3003   3.943   5.076   0.402 -0.4285  0.1181  0.3360
  809SOL    MW4 3004   3.888   5.142   0.387 -0.5450 -0.0641 -0.0284
  810SOL     OW 3005   4.298   0.258   5.106  0.3260  0.3966 -0.4868
  810SOL    HW2 3006   4.244   0.195   5.153 -0.6361  0.0634 -1.9805
  810SOL    HW3 3007   4.245   0.337   5.102 -0.2105 -0.0148 -2.1878
  810SOL    MW4 3008   4.284   0.260   5.112  0.1283  0.2984 -0.9083
  811SOL     OW 3009   5.337   3.352   0.278 -0.0570 -0.1677  0.0209
  811SOL    HW2 3010   5.365   3.274   0.230  1.4786  0.0272  0.5293
  811SOL    HW3 3011   5.402   3.418   0.256  0.8384 -0.1340  2.4542
  811SOL    MW4 3012   5.350   3.350   0.269  0.2637 -0.1376  0.4090
  812SOL     OW 3013   2.547   1.405   1.587 -0.5557  0.3940 -0.3756
  812SOL    HW2 3014   2.558   1.341   1.657 -0.3448 -1.8900 -2.3578
  812SOL    HW3 3015   2.614   1.382   1.523  0.2725  3.3632 -0.7108
  812SOL    MW4 3016   2.557   1.393   1.588 -0.4186  0.4844 -0.6813
  813SOL     OW 3017   4.684   4.270   2.882 -0.0510 -0.2130 -0.1997
  813SOL    HW2 3018   4.777   4.279   2.903 -0.3116  0.2167  0.8263
  813SOL    HW3 3019   4.657   4.358   2.854  0.4147 -0.8772 -3.0346
  813SOL    MW4 3020   4.693   4.283   2.881 -0.0239 -0.2440 -0.4384
  814SOL     OW 3021   0.914   3.550   1.048  0.4638 -0.1818  0.5060
  814SOL    HW2 3022   0.854   3.475   1.052 -0.9723  0.9342  0.8156
  814SOL    HW3 3023   0.965   3.536   0.968 -1.4423 -0.3125 -0.7587
  814SOL    MW4 3024   0.913   3.538   1.038  0.0228 -0.0518  0.3800
  815SOL     OW 3025   0.676   3.908   4.458  0.3777  0.2569  0.0144
  815SOL    HW2 3026   0.728   3.938   4.383  0.3452  2.1585  0.6817
  815SOL    HW3 3027   0.616   3.980   4.475 -2.2117 -1.6641 -0.4017
  815SOL    MW4 3028   0.675   3.922   4.450  0.0317  0.2543  0.0475
  816SOL     OW 3029   1.827   5.604   0.247 -0.1146 -0.3217 -0.7192
  816SOL    HW2 3030   1.844   5.674   0.311 -0.3107  0.1102 -1.1304
  816SOL    HW3 3031   1.764   5.547   0.291 -0.6366  0.2490 -0.7118
  816SOL    MW4 3032   1.821   5.606   0.261 -0.2094 -0.1894 -0.7725
  817SOL     OW 3033   2.710   5.855   0.578  0.8322  0.2426  0.0764
  817SOL    HW2 3034   2.668   5.769   0.577  0.2873  0.5031  0.0054
  817SOL    HW3 3035   2.676   5.897   0.657  1.5255  0.1893  0.4131
  817SOL    MW4 3036   2.700   5.849   0.588  0.8517  0.2699  0.1114
  818SOL     OW 3037   2.548   1.111   0.294  0.8451  0.0277  0.0716
  818SOL    HW2 3038   2.530   1.152   0.209 -0.4329 -1.4031 -0.3963
  818SOL    HW3 3039   2.510   1.171   0.358  0.6288  0.4863 -0.4753
  818SOL    MW4 3040   2.540   1.124   0.291  0.6480 -0.1006 -0.0623
  819SOL     OW 3041   3.035   3.400   5.414  0.4429 -0.4849  0.0477
  819SOL    HW2 3042   3.117   3.444   5.389 -0.5358  0.7697 -1.1001
  819SOL    HW3 3043   3.009   3.351   5.336  0.3497 -1.3334  0.5895
  819SOL    MW4 3044   3.043   3.399   5.401  0.3015 -0.4313 -0.0322
  820SOL     OW 3045   5.409   5.587   5.335 -0.5047  0.6040 -0.1042
  820SOL    HW2 3046   5.505   5.598   5.338 -0.7042  2.8046 -0.0192
  820SOL    HW3 3047   5.390   5.571   5.243  0.0026 -0.7412  0.0074
  820SOL    MW4 3048   5.419   5.586   5.323 -0.4641  0.7169 -0.0782
  821SOL     OW 3049   3.695   1.926   3.574 -0.5005 -0.0589 -0.4663
  821SOL    HW2 3050   3.695   2.014   3.611  1.5159 -0.4498  0.5774
  821SOL    HW3 3051   3.754   1.931   3.499 -1.4045 -0.2404 -1.2139
  821SOL    MW4 3052   3.702   1.938   3.569 -0.3538 -0.1345 -0.4272
  822SOL     OW 3053   6.015   5.645   4.811  0.0633 -1.0844  0.2203
  822SOL    HW2 3054   5.985   5.724   4.857 -0.2077 -0.5688 -0.8012
  822SOL    HW3 3055   5.943   5.583   4.822  0.0675 -1.0253  0.6133
  822SOL    MW4 3056   6.001   5.648   4.819  0.0281 -1.0086  0.1374
  823SOL     OW 3057   1.195   0.874   2.799  0.2798 -0.8077 -0.2328
  823SOL    HW2 3058   1.270   0.899   2.745 -0.6691  2.7051 -0.2175
  823SOL    HW3 3059   1.160   0.795   2.757  2.2784 -0.8563 -1.9539
  823SOL    MW4 3060   1.200   0.867   2.786  0.4183 -0.3506 -0.4579
  824SOL     OW 3061   5.607   5.581   4.184  0.3609  0.1802 -0.0463
  824SOL    HW2 3062   5.563   5.591   4.099 -0.1205  1.0073  0.2828
  824SOL    HW3 3063   5.674   5.649   4.184 -0.9302  1.5430  0.9924
  824SOL    MW4 3064   5.610   5.592   4.172  0.1270  0.4692  0.1342
  825SOL     OW 3065   2.789   2.649   2.046 -0.8798 -0.6640  0.2762
  825SOL    HW2 3066   2.797   2.602   1.963  0.0842  2.6338 -1.6638
  825SOL    HW3 3067   2.868   2.628   2.095  0.1084 -0.1729 -1.0772
  825SOL    MW4 3068   2.800   2.640   2.042 -0.6222 -0.1641 -0.1583
  826SOL     OW 3069   0.349   1.314   0.823  0.2789  0.5394  0.4055
  826SOL    HW2 3070   0.360   1.336   0.915 -0.8151  0.4861  0.5562
  826SOL    HW3 3071   0.364   1.397   0.777 -0.9781  0.9928  0.7693
  826SOL    MW4 3072   0.352   1.328   0.829 -0.0313  0.5922  0.4734
  827SOL     OW 3073   4.909   3.347   4.478  0.5841 -0.1936 -0.6264
  827SOL    HW2 3074   4.973   3.337   4.548  0.4102 -0.4325 -0.5004
  827SOL    HW3 3075   4.866   3.262   4.472 -1.0389  0.4765  0.5836
  827SOL    MW4 3076   4.912   3.335   4.486  0.3470 -0.1367 -0.4501
  828SOL     OW 3077   1.370   5.923   3.307  0.4320  0.4779  0.1797
  828SOL    HW2 3078   1.297   5.870   3.276 -0.5946  0.7338  2.0132
  828SOL    HW3 3079   1.431   5.926   3.233 -0.3742 -1.6075 -0.6554
  828SOL    MW4 3080   1.369   5.916   3.293  0.1902  0.2365  0.3114
  829SOL     OW 3081   3.451   5.130   0.329 -0.1600 -0.2633 -0.4410
  829SOL    HW2 3082   3.480   5.040   0.341  1.1427  0.1315 -0.4632
  829SOL    HW3 3083   3.528   5.175   0.295 -1.1159  0.6224 -1.4834
  829SOL    MW4 3084   3.465   5.124   0.326 -0.1142 -0.0943 -0.5814
  830SOL     OW 3085   0.026   1.687   2.852  0.0684 -0.0335  1.0506
  830SOL    HW2 3086   0.087   1.717   2.785 -1.4319  0.3893 -0.1765
  830SOL    HW3 3087   0.008   1.596   2.829 -0.6714  0.1984  0.7061
  830SOL    MW4 3088   0.032   1.678   2.840 -0.2272  0.0529  0.8432
  831SOL     OW 3089   5.727   5.255   0.814 -0.0030 -0.0608 -0.3166
  831SOL    HW2 3090   5.784   5.184   0.843  0.2363  0.4245  0.4337
  831SOL    HW3 3091   5.682   5.220   0.737  2.1024 -0.0858 -1.6220
  831SOL    MW4 3092   5.729   5.241   0.807  0.3064 -0.0001 -0.3899
  832SOL     OW 3093   2.999   2.833   0.618 -0.4365  0.1949  0.0334
  832SOL    HW2 3094   3.063   2.895   0.653 -0.6812  1.0170 -0.9365
  832SOL    HW3 3095   2.923   2.843   0.676 -0.3262  0.5020  0.1273
  832SOL    MW4 3096   2.997   2.842   0.630 -0.4543  0.3439 -0.0822
  833SOL     OW 3097   5.333   4.975   5.425  0.3610 -0.5032  0.0155
  833SOL    HW2 3098   5.304   5.047   5.482 -1.1770  0.6141 -2.0580
  833SOL    HW3 3099   5.254   4.923   5.411  0.5765 -0.4418 -1.4959
  833SOL    MW4 3100   5.319   4.978   5.431  0.1865 -0.3477 -0.4575
  834SOL     OW 3101   6.404   0.682   2.662 -0.5435 -0.1950 -0.4067
  834SOL    HW2 3102   6.456   0.739   2.605  0.6748 -0.7797  0.0872
  834SOL    HW3 3103   6.427   0.593   2.635  1.0466 -0.5206  1.7954
  834SOL    MW4 3104   6.414   0.678   2.651 -0.1730 -0.3151 -0.0510
  835SOL     OW 3105   5.551   1.600   3.107  0.5202 -0.2276  0.5914
  835SOL    HW2 3106   5.460   1.574   3.122 -0.1714  1.4143 -0.5892
  835SOL    HW3 3107   5.580   1.633   3.192 -0.9934  2.0622  0.3150
  835SOL    MW4 3108   5.543   1.601   3.120  0.2293  0.2912  0.3992
  836SOL     OW 3109   1.091   4.201   1.158  0.1409 -0.2023  0.0541
  836SOL    HW2 3110   1.063   4.119   1.199  0.9050  0.1113  1.2488
  836SOL    HW3 3111   1.118   4.257   1.231  2.1737  0.1469 -0.8692
  836SOL    MW4 3112   1.091   4.197   1.173  0.5099 -0.1149  0.0899
  837SOL     OW 3113   4.444   5.120   1.611 -0.3858 -0.5137  0.2556
  837SOL    HW2 3114   4.388   5.073   1.672 -0.3291  0.0391  0.7356
  837SOL    HW3 3115   4.530   5.122   1.653 -0.0342 -1.2115 -0.4025
  837SOL    MW4 3116   4.448   5.114   1.624 -0.3319 -0.5328  0.2321
  838SOL     OW 3117   0.140   1.380   1.862  0.6045  0.1260  0.2765
  838SOL    HW2 3118   0.130   1.465   1.906  1.3418 -0.1025  0.9112
  838SOL    HW3 3119   0.080   1.322   1.908  0.4552  0.1908  0.1618
  838SOL    MW4 3120   0.131   1.384   1.874  0.6821  0.1044  0.3451
  839SOL     OW 3121   1.751   2.452   2.958  0.0262  0.0812 -0.0405
  839SOL    HW2 3122   1.787   2.365   2.971 -0.4100 -0.3118 -1.2646
  839SOL    HW3 3123   1.798   2.508   3.019  0.2417 -1.0254  0.8347
  839SOL    MW4 3124   1.762   2.448   2.967 -0.0029 -0.1167 -0.0865
  840SOL     OW 3125   2.627   6.325   1.075  0.3495  0.0840  0.1156
  840SOL    HW2 3126   2.607   6.232   1.066 -1.5385  0.6402 -2.6078
  840SOL    HW3 3127   2.565   6.357   1.140  1.4170 -0.6046  1.5302
  840SOL    MW4 3128   2.616   6.317   1.082  0.2412  0.0665 -0.0571
  841SOL     OW 3129   2.630   2.961   2.991  0.4336 -0.6128 -0.2813
  841SOL    HW2 3130   2.637   3.022   3.065  0.0720  0.4030 -1.0499
  841SOL    HW3 3131   2.611   2.876   3.031  0.3344 -0.1032  0.7908
  841SOL    MW4 3132   2.629   2.958   3.006  0.3728 -0.4115 -0.2413
  842SOL     OW 3133   2.928   0.460   5.888 -0.6688 -0.5002 -0.0328
  842SOL    HW2 3134   3.005   0.497   5.844  0.2005 -0.8469  1.1280
  842SOL    HW3 3135   2.925   0.369   5.860  0.2352 -0.8836  1.0048
  842SOL    MW4 3136   2.938   0.453   5.879 -0.4348 -0.5965  0.2573
  843SOL     OW 3137   1.692   4.513   5.355  0.1206  0.0849  0.0937
  843SOL    HW2 3138   1.645   4.522   5.272  0.0756  1.6151  0.2476
  843SOL    HW3 3139   1.781   4.491   5.330  0.2042  0.9336 -0.4032
  843SOL    MW4 3140   1.697   4.511   5.341  0.1257  0.3988  0.0484
  844SOL     OW 3141   3.462   0.168   3.273  0.5021  0.1979  0.1994
  844SOL    HW2 3142   3.465   0.087   3.324 -0.0751 -0.0522 -0.1524
  844SOL    HW3 3143   3.387   0.216   3.309 -0.1325 -0.1417 -0.6299
  844SOL    MW4 3144   3.452   0.163   3.285  0.3422  0.1201  0.0435
  845SOL     OW 3145   3.867   5.632   2.152  0.2731  0.0066  0.0451
  845SOL    HW2 3146   3.792   5.613   2.209  0.5373 -1.9305 -0.2054
  845SOL    HW3 3147   3.885   5.550   2.108  2.0500  0.6642 -0.5259
  845SOL    MW4 3148   3.860   5.619   2.154  0.5424 -0.1622 -0.0633
  846SOL     OW 3149   3.917   1.464   2.844  0.5602 -0.4535 -0.1633
  846SOL    HW2 3150   3.911   1.454   2.939 -0.3870  0.5798 -0.0914
  846SOL    HW3 3151   3.992   1.523   2.831 -0.5922  1.1223  0.0992
  846SOL    MW4 3152   3.926   1.470   2.855  0.2831 -0.1093 -0.1192
  847SOL     OW 3153   6.391   1.169   1.050  0.1217 -0.1242  0.3849
  847SOL    HW2 3154   6.312   1.114   1.044 -0.8562  1.3512 -1.1921
  847SOL    HW3 3155   6.410   1.193   0.960  2.2979 -0.2730  0.7696
  847SOL    MW4 3156   6.383   1.165   1.037  0.2798  0.0508  0.2276
  848SOL     OW 3157   6.049   3.845   0.274  0.3650  0.1584  0.2741
  848SOL    HW2 3158   5.979   3.895   0.316  0.9140  2.0235 -0.9110
  848SOL    HW3 3159   6.008   3.803   0.199  0.4289  1.0218 -0.2559
  848SOL    MW4 3160   6.035   3.846   0.269  0.4459  0.5184  0.0478
  849SOL     OW 3161   4.347   3.107   1.563  0.1674  0.2656  1.1027
  849SOL    HW2 3162   4.324   3.170   1.495 -1.5056 -1.2540  0.1696
  849SOL    HW3 3163   4.322   3.150   1.645 -0.7546  0.9021  0.5073
  849SOL    MW4 3164   4.341   3.121   1.565 -0.1750  0.1491  0.9010
  850SOL     OW 3165   0.936   2.948   1.513 -0.5151  0.1707  0.1752
  850SOL    HW2 3166   0.920   2.985   1.426  0.6386  1.4163  0.4822
  850SOL    HW3 3167   1.030   2.930   1.515 -0.4136  0.7610  1.3897
  850SOL    MW4 3168   0.946   2.950   1.502 -0.3495  0.4129  0.3759
  851SOL     OW 3169   4.037   1.452   0.392  0.2753  0.1683  0.7445
  851SOL    HW2 3170   3.957   1.462   0.443 -0.5764  1.5036 -0.7705
  851SOL    HW3 3171   4.089   1.388   0.441 -1.8936 -1.0981  1.5177
  851SOL    MW4 3172   4.034   1.445   0.406 -0.1232  0.1774  0.6466
  852SOL     OW 3173   5.405   4.520   6.280 -0.2119  0.4151 -0.0378
  852SOL    HW2 3174   5.366   4.495   6.363 -0.0910 -0.4104 -0.2205
  852SOL    HW3 3175   5.368   4.606   6.260 -2.1537 -0.4464 -0.3420
  852SOL    MW4 3176   5.395   4.528   6.288 -0.4521  0.1925 -0.1020
  853SOL     OW 3177   5.743   0.770   6.252 -0.1040 -0.0493 -0.7275
  853SOL    HW2 3178   5.809   0.746   6.317  1.0216 -0.3896 -1.9610
  853SOL    HW3 3179   5.728   0.864   6.267  0.2365 -0.0900 -0.0757
  853SOL    MW4 3180   5.750   0.779   6.263  0.0894 -0.0996 -0.8042
  854SOL     OW 3181   4.352   4.937   6.248  0.1143  0.2157  0.0339
  854SOL    HW2 3182   4.275   4.926   6.192 -1.0039 -0.2136  1.6088
  854SOL    HW3 3183   4.373   4.849   6.278  2.4966 -0.0046 -1.9226
  854SOL    MW4 3184   4.345   4.924   6.244  0.2811  0.1300 -0.0164
  855SOL     OW 3185   1.186   0.697   5.526 -0.4546 -0.4124  0.1810
  855SOL    HW2 3186   1.272   0.723   5.492 -1.2707  1.7786 -0.3623
  855SOL    HW3 3187   1.157   0.627   5.468  0.3289 -0.1380 -0.5613
  855SOL    MW4 3188   1.194   0.691   5.514 -0.4589 -0.0872  0.0114
  856SOL     OW 3189   0.704   1.652   2.559  0.1796 -0.5874 -0.2486
  856SOL    HW2 3190   0.774   1.638   2.496  0.3077 -2.0654  0.1820
  856SOL    HW3 3191   0.635   1.696   2.509  0.8934 -0.3242 -1.0132
  856SOL    MW4 3192   0.704   1.656   2.544  0.2907 -0.7477 -0.2927
  857SOL     OW 3193   4.307   1.633   4.815  0.1018 -0.3213 -0.4233
  857SOL    HW2 3194   4.321   1.601   4.726 -0.8419  0.4195 -0.8678
  857SOL    HW3 3195   4.330   1.726   4.811 -1.0818  0.0002 -0.2198
  857SOL    MW4 3196   4.312   1.641   4.803 -0.1788 -0.1811 -0.4551
  858SOL     OW 3197   1.572   5.309   0.555 -0.3202 -0.0936  0.0264
  858SOL    HW2 3198   1.585   5.366   0.479  0.6266  0.9077  0.9078
  858SOL    HW3 3199   1.508   5.355   0.608 -3.1026 -2.0686 -1.3543
  858SOL    MW4 3200   1.565   5.323   0.552 -0.5624 -0.2220 -0.0395
  859SOL     OW 3201   6.251   2.986   0.136  0.0295  0.5041 -0.5727
  859SOL    HW2 3202   6.186   2.998   0.066 -2.9843 -1.1641  1.7045
  859SOL    HW3 3203   6.245   3.066   0.188  0.0516  0.4933 -0.5536
  859SOL    MW4 3204   6.242   2.998   0.134 -0.3652  0.2826 -0.2697
  860SOL     OW 3205   1.255   5.111   2.223  0.1470  0.0466 -0.2315
  860SOL    HW2 3206   1.321   5.078   2.162 -0.3972  0.4032 -1.0255
  860SOL    HW3 3207   1.300   5.182   2.269  0.9324 -0.9916  0.6330
  860SOL    MW4 3208   1.270   5.116   2.221  0.1788 -0.0433 -0.2222
  861SOL     OW 3209   1.380   1.404   3.718 -0.1839  0.6647  0.3771
  861SOL    HW2 3210   1.445   1.407   3.788  0.8301  1.0263 -0.5444
  861SOL    HW3 3211   1.424   1.360   3.646 -0.3886  2.2709 -0.8001
  861SOL    MW4 3212   1.394   1.399   3.718 -0.0771  0.9243  0.1002
  862SOL     OW 3213   5.286   1.571   1.448  0.7365 -0.3196  0.3079
  862SOL    HW2 3214   5.279   1.587   1.542 -0.3126 -0.1717  0.2092
  862SOL    HW3 3215   5.207   1.523   1.425  0.9323 -0.2648 -0.5235
  862SOL    MW4 3216   5.275   1.567   1.457  0.6239 -0.2929  0.1852
  863SOL     OW 3217   6.186   0.484   0.653 -0.6472  0.4342 -0.1508
  863SOL    HW2 3218   6.128   0.416   0.686  0.9269 -0.3805  1.0547
  863SOL    HW3 3219   6.159   0.563   0.699 -0.5032 -0.0420  0.7722
  863SOL    MW4 3220   6.175   0.485   0.663 -0.4205  0.2639  0.1301
  864SOL     OW 3221   5.914   6.281   0.067 -0.3744  0.0742  0.0836
  864SOL    HW2 3222   6.004   6.314   0.079  0.7176 -2.5199 -0.3655
  864SOL    HW3 3223   5.861   6.339   0.121  1.3150  2.6649 -0.8204
  864SOL    MW4 3224   5.919   6.293   0.076 -0.0075  0.0738 -0.0949
  865SOL     OW 3225   0.072   4.991   4.882  0.5086  0.3491 -0.2950
  865SOL    HW2 3226   0.058   4.995   4.788 -0.1860 -0.3609 -0.2290
  865SOL    HW3 3227   0.083   4.898   4.901  0.6411  0.4867  0.3310
  865SOL    MW4 3228   0.072   4.979   4.872  0.4344  0.2736 -0.2037
  866SOL     OW 3229   0.341   2.065   2.105 -0.1462  0.1096 -0.4211
  866SOL    HW2 3230   0.319   2.158   2.107  0.1795  0.1855 -0.2324
  866SOL    HW3 3231   0.436   2.062   2.117  0.0114 -0.1893 -1.5735
  866SOL    MW4 3232   0.351   2.077   2.107 -0.0825  0.0801 -0.5482
  867SOL     OW 3233   2.298   1.603   3.296  0.6542 -0.3321 -0.1631
  867SOL    HW2 3234   2.315   1.651   3.215  1.8264 -0.7571 -0.1856
  867SOL    HW3 3235   2.272   1.670   3.359  0.4880  0.0961 -0.6798
  867SOL    MW4 3236   2.297   1.618   3.293  0.7869 -0.3317 -0.2343
  868SOL     OW 3237   3.487   0.341   5.938  0.6605  0.3606 -0.5743
  868SOL    HW2 3238   3.420   0.278   5.914 -0.6579  1.5697 -0.2263
  868SOL    HW3 3239   3.453   0.384   6.016  2.1216  0.6169 -0.0382
  868SOL    MW4 3240   3.474   0.339   5.945  0.6793  0.5540 -0.4576
  869SOL     OW 3241   0.350   3.282   3.237 -0.1853 -0.6372 -0.0372
  869SOL    HW2 3242   0.268   3.265   3.192 -1.0647  0.3041  1.1366
  869SOL    HW3 3243   0.417   3.274   3.170 -1.4341  0.8062 -1.5344
  869SOL    MW4 3244   0.348   3.279   3.222 -0.4661 -0.3225 -0.0798
  870SOL     OW 3245   2.427   2.865   0.961 -0.4967  0.2437  0.0124
  870SOL    HW2 3246   2.472   2.780   0.961  0.7791  0.8747 -0.8504
  870SOL    HW3 3247   2.408   2.881   0.868 -2.3517  0.1009  0.3463
  870SOL    MW4 3248   2.431   2.856   0.948 -0.5731  0.3081 -0.0574
  871SOL     OW 3249   6.131   4.090   1.453 -0.7342  0.3549 -0.1335
  871SOL    HW2 3250   6.039   4.081   1.477 -1.1259  1.6868 -1.0337
  871SOL    HW3 3251   6.137   4.047   1.368 -0.7871  1.2296 -0.5900
  871SOL    MW4 3252   6.119   4.083   1.445 -0.7929  0.6460 -0.3125
  872SOL     OW 3253   6.071   4.953   1.397 -0.0558  0.1977 -0.0031
  872SOL    HW2 3254   6.067   4.860   1.419 -1.2198 -0.0604 -1.1342
  872SOL    HW3 3255   6.156   4.983   1.431  0.7675 -1.4987 -0.4606
  872SOL    MW4 3256   6.082   4.945   1.404 -0.1008 -0.0602 -0.2127
  873SOL     OW 3257   5.962   4.061   0.916 -0.7510 -0.2264  0.2959
  873SOL    HW2 3258   5.972   4.151   0.945 -0.8585 -0.2641  0.4481
  873SOL    HW3 3259   6.036   4.015   0.956 -0.2588 -0.0565 -0.3936
  873SOL    MW4 3260   5.973   4.067   0.925 -0.7003 -0.2090  0.2250
  874SOL     OW 3261   2.714   3.039   2.256  0.3985  0.8473 -0.4918
  874SOL    HW2 3262   2.732   3.127   2.220  1.1763  0.0111 -2.2799
  874SOL    HW3 3263   2.683   2.989   2.181  1.5442 -0.8615  0.1366
  874SOL    MW4 3264   2.712   3.044   2.241  0.6523  0.5115 -0.6448
  875SOL     OW 3265   2.887   2.082   2.464 -0.6667 -0.1695  0.4200
  875SOL    HW2 3266   2.824   2.058   2.396 -1.5449 -0.5881  1.3503
  875SOL    HW3 3267   2.866   2.024   2.537 -0.6417  1.2006  1.5393
  875SOL    MW4 3268   2.876   2.071   2.465 -0.7792 -0.0440  0.6904
  876SOL     OW 3269   2.644   0.556   5.632 -0.3045 -0.4906 -0.1294
  876SOL    HW2 3270   2.650   0.461   5.639  0.1819 -0.5564 -1.2309
  876SOL    HW3 3271   2.686   0.577   5.548 -1.8577  0.5450 -0.6960
  876SOL    MW4 3272   2.651   0.547   5.622 -0.4453 -0.3626 -0.3495
  877SOL     OW 3273   2.482   4.285   2.796 -0.0811  0.1524  0.1078
  877SOL    HW2 3274   2.418   4.313   2.730 -1.0471 -0.2862  0.8385
  877SOL    HW3 3275   2.513   4.366   2.835  1.6550  0.5408 -1.8912
  877SOL    MW4 3276   2.478   4.300   2.792  0.0205  0.1458 -0.0595
  878SOL     OW 3277   6.271   1.787   0.831 -0.0506 -0.1539  0.0843
  878SOL    HW2 3278   6.309   1.810   0.915 -0.5090 -2.6425  1.0634
  878SOL    HW3 3279   6.179   1.771   0.849 -0.0124 -1.4592 -0.7001
  878SOL    MW4 3280   6.264   1.788   0.844 -0.1060 -0.6544  0.1100
  879SOL     OW 3281   2.778   4.893   3.371  0.0988 -0.1029 -0.5058
  879SOL    HW2 3282   2.721   4.940   3.431  1.9495 -0.1978  1.4610
  879SOL    HW3 3283   2.863   4.937   3.378  0.7642 -1.0413 -1.9549
  879SOL    MW4 3284   2.782   4.905   3.380  0.4307 -0.2392 -0.4375
  880SOL     OW 3285   1.264   4.776   1.845 -0.2597  0.1253  0.0164
  880SOL    HW2 3286   1.320   4.745   1.916 -0.4275  1.5960  0.8309
  880SOL    HW3 3287   1.253   4.700   1.788  2.0386 -0.3843  0.1602
  880SOL    MW4 3288   1.270   4.762   1.847  0.0214  0.2521  0.1428
  881SOL     OW 3289   2.940   5.362   0.560 -0.2766  0.0874  0.0448
  881SOL    HW2 3290   2.939   5.282   0.507  0.5197  0.2549 -0.2275
  881SOL    HW3 3291   2.949   5.331   0.650  1.4989 -0.0932 -0.1675
  881SOL    MW4 3292   2.941   5.347   0.565  0.0627  0.0857 -0.0191
  882SOL     OW 3293   3.480   0.675   1.405  0.2202  0.2696  0.4115
  882SOL    HW2 3294   3.445   0.730   1.335  2.7202  0.0514 -1.1212
  882SOL    HW3 3295   3.444   0.588   1.387  0.1450  0.3979 -0.0617
  882SOL    MW4 3296   3.470   0.671   1.394  0.5401  0.2578  0.1468
  883SOL     OW 3297   1.634   5.734   4.928 -1.0283 -0.0165 -0.2945
  883SOL    HW2 3298   1.711   5.774   4.887 -0.8090  0.9720  1.0219
  883SOL    HW3 3299   1.560   5.769   4.880 -0.7774  1.1961  0.1735
  883SOL    MW4 3300   1.635   5.744   4.916 -0.9663  0.2739 -0.0591
  884SOL     OW 3301   4.699   2.603   4.692 -0.1854  0.5447  0.2247
  884SOL    HW2 3302   4.717   2.513   4.719 -0.7026  0.0515 -1.0042
  884SOL    HW3 3303   4.783   2.637   4.661  0.2747  0.9078  1.7864
  884SOL    MW4 3304   4.712   2.596   4.691 -0.1930  0.5276  0.2686
  885SOL     OW 3305   0.615   0.905   0.291  0.3947 -0.6984  0.0498
  885SOL    HW2 3306   0.609   0.980   0.232 -1.2502 -0.8734 -0.0692
  885SOL    HW3 3307   0.601   0.942   0.378 -1.3254 -0.9372 -0.0901
  885SOL    MW4 3308   0.612   0.919   0.295 -0.0493 -0.7530  0.0156
  886SOL     OW 3309   3.415   0.689   2.123 -0.3915 -0.2717 -0.3897
  886SOL    HW2 3310   3.341   0.661   2.068 -1.9873  0.6596  1.1498
  886SOL    HW3 3311   3.426   0.619   2.186 -2.2644  0.9684  1.4606
  886SOL    MW4 3312   3.406   0.676   2.124 -0.8491  0.0148  0.0576
  887SOL     OW 3313   3.082   1.291   4.369 -0.2280  0.4122  0.0298
  887SOL    HW2 3314   3.026   1.357   4.329 -0.8755 -1.3599 -2.1688
  887SOL    HW3 3315   3.021   1.227   4.406  0.3944  0.7471  1.7549
  887SOL    MW4 3316   3.066   1.291   4.369 -0.2313  0.2226 -0.0327
  888SOL     OW 3317   5.502   0.777   1.455  0.5715 -0.2709 -0.4186
  888SOL    HW2 3318   5.542   0.719   1.390  0.5153 -1.3183  0.4470
  888SOL    HW3 3319   5.414   0.793   1.422  1.0625  0.5027 -1.3871
  888SOL    MW4 3320   5.496   0.771   1.442  0.6289 -0.3070 -0.4322
  889SOL     OW 3321   4.492   3.223   0.594  0.5556  0.2266 -0.9778
  889SOL    HW2 3322   4.438   3.247   0.520 -0.0626  1.4349 -0.1581
  889SOL    HW3 3323   4.522   3.134   0.574  1.5153  0.9959 -3.2873
  889SOL    MW4 3324   4.489   3.214   0.582  0.6007  0.4875 -1.1744
  890SOL     OW 3325   6.416   2.924   2.443  0.7004 -0.2624 -0.2906
  890SOL    HW2 3326   6.382   3.000   2.397  0.0832  0.4238  1.2364
  890SOL    HW3 3327   6.339   2.873   2.466  1.0399 -0.8725 -0.4944
  890SOL    MW4 3328   6.402   2.927   2.440  0.6637 -0.2524 -0.1160
  891SOL     OW 3329   0.432   5.092   3.775  0.5363  0.4745 -0.1694
  891SOL    HW2 3330   0.438   5.148   3.852 -0.8240  2.9473 -1.7267
  891SOL    HW3 3331   0.375   5.020   3.802  1.8048  0.1068  1.7081
  891SOL    MW4 3332   0.426   5.090   3.789  0.5242  0.7522 -0.1272
  892SOL     OW 3333   2.325   1.501   2.835  0.0588  0.1302  0.1175
  892SOL    HW2 3334   2.322   1.465   2.924  0.5079 -0.4632 -0.0993
  892SOL    HW3 3335   2.390   1.571   2.840 -2.0162  2.1311  0.9495
  892SOL    MW4 3336   2.333   1.505   2.847 -0.1557  0.3159  0.1987
  893SOL     OW 3337   0.069   2.941   5.083  0.1283 -0.1714  0.3052
  893SOL    HW2 3338   0.061   2.991   5.001 -0.7103 -0.3699  0.2538
  893SOL    HW3 3339   0.159   2.956   5.111  0.2340  0.4377 -0.3115
  893SOL    MW4 3340   0.080   2.950   5.076  0.0316 -0.1172  0.2170
  894SOL     OW 3341   6.409   1.742   6.403 -0.1494 -0.6302  0.3913
  894SOL    HW2 3342   6.473   1.726   6.333 -0.1503 -0.2607  0.3043
  894SOL    HW3 3343   6.417   1.666   6.460  0.1711 -0.7213  0.2294
  894SOL    MW4 3344   6.419   1.730   6.401 -0.1072 -0.5935  0.3584
  895SOL     OW 3345   1.758   2.666   5.330  0.2268  0.5302 -0.0135
  895SOL    HW2 3346   1.717   2.590   5.289  2.3197  0.2874 -1.8552
  895SOL    HW3 3347   1.712   2.741   5.293  1.1470  0.2601 -1.7909
  895SOL    MW4 3348   1.746   2.666   5.320  0.6244  0.4626 -0.4910
  896SOL     OW 3349   0.204   5.307   4.182 -0.0339 -0.0137  0.5896
  896SOL    HW2 3350   0.213   5.235   4.243 -0.1711  0.4606  1.1791
  896SOL    HW3 3351   0.259   5.376   4.217 -0.0066  0.2175  0.1034
  896SOL    MW4 3352   0.212   5.307   4.194 -0.0484  0.0794  0.6032
  897SOL     OW 3353   3.699   4.389   4.312 -0.2831 -0.4985 -0.2398
  897SOL    HW2 3354   3.655   4.387   4.227 -1.0034  0.6574  0.0839
  897SOL    HW3 3355   3.630   4.412   4.374 -0.1675 -3.0102  0.9481
  897SOL    MW4 3356   3.684   4.392   4.309 -0.3629 -0.6774 -0.0404
  898SOL     OW 3357   4.102   0.143   4.391 -0.0419 -0.5509  0.5148
  898SOL    HW2 3358   4.152   0.123   4.470  2.1718 -0.9984 -0.9147
  898SOL    HW3 3359   4.096   0.060   4.344  1.2459  0.2351 -1.1385
  898SOL    MW4 3360   4.108   0.130   4.395  0.4201 -0.5062  0.1080
  899SOL     OW 3361   4.776   3.605   5.824  0.0064  0.3571  0.6632
  899SOL    HW2 3362   4.701   3.665   5.830  0.5485  1.0306  0.8791
  899SOL    HW3 3363   4.786   3.589   5.730  0.2016  1.0729  0.5500
  899SOL    MW4 3364   4.767   3.611   5.812  0.1037  0.5404  0.6767
  900SOL     OW 3365   6.222   1.156   4.004 -0.3252  0.0975  0.1283
  900SOL    HW2 3366   6.298   1.129   3.952 -1.3054 -1.5240 -0.5162
  900SOL    HW3 3367   6.248   1.139   4.094 -0.0385 -0.8112 -0.1126
  900SOL    MW4 3368   6.236   1.150   4.009 -0.4167 -0.2363  0.0115
  901SOL     OW 3369   1.213   3.405   5.780  0.0293  0.3971 -0.5121
  901SOL    HW2 3370   1.202   3.495   5.750 -1.1630  0.3564 -0.2483
  901SOL    HW3 3371   1.161   3.353   5.719  1.6855 -0.2938 -1.4234
  901SOL    MW4 3372   1.205   3.410   5.768  0.0905  0.3006 -0.5975
  902SOL     OW 3373   0.153   2.562   6.328  0.3903 -0.5993  0.3831
  902SOL    HW2 3374   0.145   2.613   6.409 -0.1844 -0.5820  0.3216
  902SOL    HW3 3375   0.062   2.543   6.303  0.5462 -0.1802 -0.5269
  902SOL    MW4 3376   0.140   2.566   6.336  0.3351 -0.5417  0.2549
  903SOL     OW 3377   3.470   4.333   2.170  0.0653 -0.8021 -0.3020
  903SOL    HW2 3378   3.529   4.301   2.238 -2.2170 -0.5073  1.9694
  903SOL    HW3 3379   3.411   4.260   2.153 -0.3985 -0.3251 -0.7891
  903SOL    MW4 3380   3.470   4.319   2.176 -0.2971 -0.7002 -0.0666
  904SOL     OW 3381   3.477   5.053   4.476  0.3078  0.2229  0.0117
  904SOL    HW2 3382   3.476   5.077   4.383 -0.0942 -1.4751 -0.4448
  904SOL    HW3 3383   3.522   5.126   4.519  1.0097  0.7653 -1.5907
  904SOL    MW4 3384   3.483   5.066   4.470  0.3474  0.0704 -0.2600
  905SOL     OW 3385   0.245   4.337   2.663  0.1143 -0.0202 -0.2323
  905SOL    HW2 3386   0.240   4.432   2.672 -1.5644 -0.2115  1.8162
  905SOL    HW3 3387   0.227   4.320   2.570 -0.9137  1.6147 -0.3630
  905SOL    MW4 3388   0.242   4.347   2.652 -0.2428  0.1702  0.0207
  906SOL     OW 3389   6.040   0.965   3.116  0.5305 -0.0356 -0.2278
  906SOL    HW2 3390   5.960   0.919   3.089 -0.4073  0.7167  1.1501
  906SOL    HW3 3391   6.084   0.988   3.034  0.6741 -2.7074 -0.9788
  906SOL    MW4 3392   6.035   0.962   3.101  0.4257 -0.2889 -0.1451
  907SOL     OW 3393   0.135   0.331   1.616 -0.3258  0.3320 -0.5689
  907SOL    HW2 3394   0.225   0.311   1.642 -0.6832 -0.4566  0.0972
  907SOL    HW3 3395   0.081   0.300   1.689 -1.2199 -0.1788 -1.4183
  907SOL    MW4 3396   0.140   0.324   1.629 -0.4909  0.1605 -0.5930
  908SOL     OW 3397   4.288   0.822   4.750  0.9277 -0.5510 -0.4106
  908SOL    HW2 3398   4.333   0.897   4.787 -0.6082 -0.8861  2.4153
  908SOL    HW3 3399   4.277   0.844   4.657  2.1569  1.8384 -0.0619
  908SOL    MW4 3400   4.292   0.835   4.743  0.8872 -0.2799  0.0083
  909SOL     OW 3401   1.201   0.386   1.018  0.2758 -0.2953  0.5427
  909SOL    HW2 3402   1.259   0.461   1.006  1.1321 -1.0022  0.1459
  909SOL    HW3 3403   1.238   0.339   1.092  0.2609 -0.7962  0.2353
  909SOL    MW4 3404   1.213   0.390   1.026  0.3868 -0.4546  0.4498
  910SOL     OW 3405   2.680   2.719   2.606 -0.5166  0.8199 -0.0930
  910SOL    HW2 3406   2.747   2.753   2.546 -0.4359 -0.0621 -0.5180
  910SOL    HW3 3407   2.597   2.746   2.567 -0.4207  1.8551  0.3963
  910SOL    MW4 3408   2.678   2.727   2.593 -0.4933  0.8401 -0.0845
  911SOL     OW 3409   1.266   0.394   3.504  0.5022 -0.4775 -0.1956
  911SOL    HW2 3410   1.350   0.404   3.461  0.4365  0.6882 -0.0837
  911SOL    HW3 3411   1.264   0.464   3.570  0.0509 -1.3851  0.7996
  911SOL    MW4 3412   1.277   0.405   3.507  0.4340 -0.4435 -0.0495
  912SOL     OW 3413   0.393   1.564   2.986  0.5181 -0.2719 -0.7294
  912SOL    HW2 3414   0.424   1.536   3.072 -0.8166  0.8108  0.1216
  912SOL    HW3 3415   0.319   1.621   3.003  0.1171 -0.1483 -2.6123
  912SOL    MW4 3416   0.388   1.568   2.999  0.2891 -0.1127 -0.8655
  913SOL     OW 3417   6.260   2.046   3.018  0.2259 -0.3427 -0.1612
  913SOL    HW2 3418   6.218   1.997   3.088 -1.5391  0.8649 -0.2913
  913SOL    HW3 3419   6.346   2.068   3.052 -0.3012 -0.4502  1.3179
  913SOL    MW4 3420   6.266   2.043   3.031 -0.0765 -0.1976  0.0168
  914SOL     OW 3421   0.150   1.715   6.162  0.4196 -0.0199 -0.0794
  914SOL    HW2 3422   0.066   1.691   6.122  0.3099  0.8101 -0.3656
  914SOL    HW3 3423   0.203   1.636   6.157  0.1607 -0.1442 -1.2435
  914SOL    MW4 3424   0.146   1.702   6.156  0.3710  0.0732 -0.2707
  915SOL     OW 3425   4.299   4.444   4.266 -0.1251 -0.4549  0.0638
  915SOL    HW2 3426   4.232   4.415   4.328 -0.9063  1.3588  0.1471
  915SOL    HW3 3427   4.274   4.534   4.245  1.7886 -0.0476 -0.6314
  915SOL    MW4 3428   4.287   4.452   4.271  0.0243 -0.1619 -0.0170
  916SOL     OW 3429   2.720   2.344   0.664  0.3395 -0.3874  0.1280
  916SOL    HW2 3430   2.709   2.314   0.573  0.5210  1.2866 -0.4829
  916SOL    HW3 3431   2.778   2.421   0.657 -0.8586  0.6908  1.4844
  916SOL    MW4 3432   2.726   2.350   0.651  0.2054 -0.0243  0.2263
  917SOL     OW 3433   4.376   4.570   5.953 -0.4214 -0.4332 -0.1939
  917SOL    HW2 3434   4.387   4.605   6.041 -1.4085  0.4769 -0.4103
  917SOL    HW3 3435   4.287   4.537   5.950 -1.1198  1.3917 -1.4321
  917SOL    MW4 3436   4.366   4.571   5.964 -0.6438 -0.0723 -0.3858
  918SOL     OW 3437   1.428   5.711   3.698  0.2298 -0.0235 -0.2789
  918SOL    HW2 3438   1.465   5.623   3.701  0.3016  0.0039 -0.3885
  918SOL    HW3 3439   1.498   5.766   3.664  1.1166  0.5291  2.2145
  918SOL    MW4 3440   1.442   5.707   3.694  0.3563  0.0530  0.0356
  919SOL     OW 3441   3.597   4.178   5.593 -0.5348 -0.4146  0.5165
  919SOL    HW2 3442   3.570   4.192   5.502 -0.6145  1.2521  0.7616
  919SOL    HW3 3443   3.543   4.104   5.622 -1.6977  0.0669 -0.3070
  919SOL    MW4 3444   3.586   4.170   5.585 -0.6988 -0.1312  0.4402
  920SOL     OW 3445   2.264   4.564   0.744  0.6600 -0.9091  0.3632
  920SOL    HW2 3446   2.331   4.620   0.705  0.0715 -0.2902  0.2246
  920SOL    HW3 3447   2.272   4.579   0.838  0.7263 -0.8586  0.3497
  920SOL    MW4 3448   2.274   4.573   0.752  0.5911 -0.8208  0.3431
  921SOL     OW 3449   1.073   1.391   5.041  0.1155 -0.0976  0.5095
  921SOL    HW2 3450   1.094   1.417   4.951 -0.1796 -0.6169  0.2893
  921SOL    HW3 3451   1.056   1.297   5.036  0.8054 -0.2704  1.2353
  921SOL    MW4 3452   1.073   1.382   5.029  0.1676 -0.1889  0.5762
  922SOL     OW 3453   1.598   5.110   2.341  0.3317 -0.2787  0.3532
  922SOL    HW2 3454   1.531   5.179   2.336 -0.2493 -0.8686 -0.2880
  922SOL    HW3 3455   1.629   5.100   2.251  0.4981 -0.7724  0.4642
  922SOL    MW4 3456   1.593   5.118   2.329  0.2770 -0.4217  0.2833
  923SOL     OW 3457   6.294   6.076   0.337  0.3558 -0.3454  0.6522
  923SOL    HW2 3458   6.316   6.020   0.411  0.0923 -2.0796 -0.5001
  923SOL    HW3 3459   6.372   6.076   0.282  0.4795  0.7435  0.8106
  923SOL    MW4 3460   6.307   6.069   0.339  0.3373 -0.4305  0.5211
  924SOL     OW 3461   0.852   6.309   4.243 -0.2569 -0.0304  0.0100
  924SOL    HW2 3462   0.862   6.383   4.302 -1.3448  0.6983 -0.6726
  924SOL    HW3 3463   0.855   6.232   4.300  1.5898  0.4627  0.6455
  924SOL    MW4 3464   0.853   6.308   4.258 -0.1568  0.1308  0.0038
  925SOL     OW 3465   1.988   6.156   4.420 -0.6222 -0.3685 -0.0058
  925SOL    HW2 3466   1.996   6.061   4.423 -0.9276 -0.3888  0.3567
  925SOL    HW3 3467   1.893   6.172   4.422 -0.5885 -0.0709 -0.6697
  925SOL    MW4 3468   1.976   6.146   4.421 -0.6580 -0.3319 -0.0455
  926SOL     OW 3469   0.846   2.292   4.464  0.0505 -0.0632 -0.0068
  926SOL    HW2 3470   0.882   2.259   4.547 -0.8869 -0.1988  0.3615
  926SOL    HW3 3471   0.775   2.231   4.443 -0.2484  0.4434 -0.4831
  926SOL    MW4 3472   0.842   2.279   4.472 -0.1126 -0.0143 -0.0210
  927SOL     OW 3473   2.403   2.756   0.448  0.2313 -0.6012 -0.0869
  927SOL    HW2 3474   2.403   2.662   0.431 -0.2722 -0.3570 -1.5837
  927SOL    HW3 3475   2.444   2.794   0.370 -3.7770  0.7179 -1.8538
  927SOL    MW4 3476   2.408   2.749   0.435 -0.3640 -0.3949 -0.5175
  928SOL     OW 3477   2.417   0.314   2.212  0.4032  0.2828 -0.3429
  928SOL    HW2 3478   2.451   0.391   2.166  0.6624  0.3540 -0.0330
  928SOL    HW3 3479   2.322   0.326   2.210  0.4943  1.3117  0.8912
  928SOL    MW4 3480   2.409   0.326   2.205  0.4494  0.4280 -0.1392
  929SOL     OW 3481   4.165   0.107   0.201 -0.4957 -0.0583  0.5171
  929SOL    HW2 3482   4.170   0.022   0.158  0.6780 -0.9269  2.2293
  929SOL    HW3 3483   4.135   0.088   0.290  1.1714  1.0750  1.4071
  929SOL    MW4 3484   4.162   0.094   0.207 -0.1209 -0.0234  0.8604
  930SOL     OW 3485   4.684   1.610   4.155  0.0206 -0.3680  0.3339
  930SOL    HW2 3486   4.757   1.611   4.217  0.8088 -0.5932 -0.5681
  930SOL    HW3 3487   4.698   1.687   4.100  0.3190 -1.1250 -0.6664
  930SOL    MW4 3488   4.696   1.620   4.156  0.1640 -0.4976  0.0829
  931SOL     OW 3489   5.683   5.854   4.038  0.0497 -0.0540 -0.0440
  931SOL    HW2 3490   5.641   5.936   4.012 -0.2107 -0.6189 -1.4910
  931SOL    HW3 3491   5.690   5.804   3.957 -0.3607 -1.7343  0.9105
  931SOL    MW4 3492   5.679   5.858   4.024 -0.0388 -0.3503 -0.1090
  932SOL     OW 3493   2.492   6.225   6.408 -0.2462  0.5506  0.0778
  932SOL    HW2 3494   2.439   6.303   6.394  1.1463  1.3705 -0.9272
  932SOL    HW3 3495   2.581   6.252   6.382  0.3241 -1.2669  0.0142
  932SOL    MW4 3496   2.497   6.239   6.402  0.0128  0.4190 -0.0632
  933SOL     OW 3497   5.063   2.750   3.224 -0.4712  0.2518  1.1159
  933SOL    HW2 3498   5.114   2.827   3.200  0.5224 -0.5744  0.4389
  933SOL    HW3 3499   4.990   2.749   3.162  1.0796 -0.8609 -0.8584
  933SOL    MW4 3500   5.060   2.760   3.212 -0.1355 -0.0040  0.7661
  934SOL     OW 3501   0.499   4.015   6.443  0.2271  0.0640  0.4156
  934SOL    HW2 3502   0.539   3.955   6.505 -1.2584 -0.9230  0.4713
  934SOL    HW3 3503   0.443   3.960   6.388 -0.4999  1.2645 -0.1036
  934SOL    MW4 3504   0.497   4.000   6.444 -0.0648  0.0922  0.3544
  935SOL     OW 3505   2.458   4.674   3.538  0.4483 -0.8567 -0.0764
  935SOL    HW2 3506   2.551   4.655   3.548 -0.2106 -4.0070  1.2025
  935SOL    HW3 3507   2.425   4.679   3.628 -0.8159 -1.0193 -0.5109
  935SOL    MW4 3508   2.466   4.672   3.551  0.1945 -1.2938  0.0350
  936SOL     OW 3509   1.077   3.714   5.036  0.2633 -0.0135 -0.3320
  936SOL    HW2 3510   1.048   3.768   5.109 -0.6729 -0.6701 -0.2014
  936SOL    HW3 3511   1.168   3.693   5.056  0.5753  1.3128 -0.2774
  936SOL    MW4 3512   1.085   3.718   5.048  0.1810  0.0749 -0.3076
  937SOL     OW 3513   0.312   0.679   0.956 -0.2847 -0.4035  0.3370
  937SOL    HW2 3514   0.337   0.657   1.046  1.8394 -0.4300 -0.2138
  937SOL    HW3 3515   0.359   0.759   0.936  0.4090 -1.1498 -1.2053
  937SOL    MW4 3516   0.321   0.686   0.965  0.0870 -0.5055  0.0608
  938SOL     OW 3517   4.000   6.291   3.675 -0.1262  0.0236 -0.6414
  938SOL    HW2 3518   3.952   6.274   3.756 -1.1794 -1.8944 -1.5843
  938SOL    HW3 3519   3.958   6.368   3.637 -0.0114  0.5726  0.3189
  938SOL    MW4 3520   3.988   6.299   3.681 -0.2500 -0.1571 -0.6391
  939SOL     OW 3521   3.598   5.493   3.140  0.9112 -0.4602 -0.6850
  939SOL    HW2 3522   3.628   5.435   3.070 -3.4031 -1.0834 -2.2981
  939SOL    HW3 3523   3.566   5.571   3.096  1.5477  0.8460  1.0200
  939SOL    MW4 3524   3.598   5.496   3.125  0.4259 -0.3701 -0.6729
  940SOL     OW 3525   5.998   0.201   5.157 -0.1205 -0.9048 -0.1233
  940SOL    HW2 3526   6.042   0.240   5.233 -1.6855  0.6417  0.0348
  940SOL    HW3 3527   5.935   0.139   5.195 -2.0347  1.0253 -0.0068
  940SOL    MW4 3528   5.996   0.198   5.172 -0.5796 -0.4461 -0.0870
  941SOL     OW 3529   1.206   2.215   4.968 -0.4836 -0.5930 -0.0188
  941SOL    HW2 3530   1.236   2.147   5.030  1.8714  0.4102  0.0623
  941SOL    HW3 3531   1.184   2.167   4.889 -0.0018 -1.5758  0.4227
  941SOL    MW4 3532   1.207   2.200   4.966 -0.1093 -0.5903  0.0502
  942SOL     OW 3533   3.830   2.276   1.508 -0.1510  0.1562 -0.2235
  942SOL    HW2 3534   3.792   2.293   1.594 -1.4408  0.3945 -0.8024
  942SOL    HW3 3535   3.755   2.248   1.454  0.3403  1.3873 -1.6194
  942SOL    MW4 3536   3.815   2.275   1.512 -0.2564  0.3500 -0.4840
  943SOL     OW 3537   0.162   0.365   2.749 -0.0057  0.7736 -0.2033
  943SOL    HW2 3538   0.083   0.398   2.708  0.6984  1.9423 -0.6599
  943SOL    HW3 3539   0.233   0.395   2.693  0.6991 -1.9745 -0.9756
  943SOL    MW4 3540   0.161   0.373   2.736  0.1802  0.5652 -0.3655
  944SOL     OW 3541   5.267   4.807   4.678 -0.3424 -0.0743  0.4114
  944SOL    HW2 3542   5.273   4.814   4.582 -1.0237  0.1956  0.3841
  944SOL    HW3 3543   5.201   4.871   4.703  1.3474  1.4054  1.3002
  944SOL    MW4 3544   5.259   4.816   4.668 -0.2093  0.1566  0.5250
  945SOL     OW 3545   2.120   1.130   4.268 -0.0588  0.1113  0.2131
  945SOL    HW2 3546   2.032   1.167   4.259 -0.1682 -0.5122 -2.2372
  945SOL    HW3 3547   2.105   1.037   4.285 -0.0095 -0.3722 -1.9742
  945SOL    MW4 3548   2.106   1.123   4.269 -0.0667 -0.0347 -0.3988
  946SOL     OW 3549   2.464   2.175   1.751  0.3032  0.2547 -0.2912
  946SOL    HW2 3550   2.531   2.107   1.753 -1.4886 -1.5770 -0.0489
  946SOL    HW3 3551   2.458   2.205   1.842 -1.6361 -2.1494  0.4687
  946SOL    MW4 3552   2.472   2.170   1.763 -0.1891 -0.3041 -0.1590
  947SOL     OW 3553   0.226   5.874   3.452  0.3516 -0.8182 -0.4222
  947SOL    HW2 3554   0.206   5.782   3.463  0.7123 -0.9162 -0.5440
  947SOL    HW3 3555   0.144   5.915   3.425  0.4138 -1.2796 -1.3442
  947SOL    MW4 3556   0.213   5.868   3.450  0.4074 -0.8920 -0.5599
  948SOL     OW 3557   1.530   5.468   5.980 -0.2282 -0.3523  0.3432
  948SOL    HW2 3558   1.507   5.560   5.974 -1.5219 -0.7619 -2.0788
  948SOL    HW3 3559   1.541   5.452   6.074  0.0512  2.2315  0.8155
  948SOL    MW4 3560   1.528   5.478   5.992 -0.3620 -0.0654  0.0860
  949SOL     OW 3561   6.324   1.789   5.358 -0.1082 -0.3432  0.5971
  949SOL    HW2 3562   6.361   1.742   5.283 -0.9782 -0.4450  0.2102
  949SOL    HW3 3563   6.315   1.879   5.327 -0.5524 -0.4043  0.5431
  949SOL    MW4 3564   6.327   1.794   5.344 -0.2816 -0.3647  0.5389
  950SOL     OW 3565   4.893   2.046   0.571  0.5430 -0.3056 -0.4984
  950SOL    HW2 3566   4.818   2.105   0.562 -0.3049 -1.6033 -2.4402
  950SOL    HW3 3567   4.925   2.033   0.482  1.9305 -1.2511  0.0992
  950SOL    MW4 3568   4.887   2.052   0.558  0.6142 -0.6016 -0.6757
  951SOL     OW 3569   4.266   2.153   1.001  0.2289  0.3569  0.4890
  951SOL    HW2 3570   4.189   2.173   1.055 -0.5481  1.3695 -0.9167
  951SOL    HW3 3571   4.329   2.222   1.024 -0.3899  1.2481 -0.4158
  951SOL    MW4 3572   4.264   2.165   1.011  0.0448  0.6081  0.1842
  952SOL     OW 3573   2.000   5.150   3.423  0.1440 -0.0654 -0.3482
  952SOL    HW2 3574   1.946   5.081   3.462 -1.4731  1.3851  0.1095
  952SOL    HW3 3575   2.061   5.175   3.492  0.0347 -0.3175 -0.1581
  952SOL    MW4 3576   2.001   5.144   3.437 -0.0838  0.0927 -0.2627
  953SOL     OW 3577   5.804   0.201   1.497  0.4511  0.1253 -0.2846
  953SOL    HW2 3578   5.757   0.238   1.423 -2.5687 -1.4028  0.6779
  953SOL    HW3 3579   5.821   0.275   1.555 -1.0235  0.7361 -0.6097
  953SOL    MW4 3580   5.800   0.215   1.495 -0.1419  0.0043 -0.2005
  954SOL     OW 3581   4.345   3.800   4.935  0.0541  0.2198 -0.2222
  954SOL    HW2 3582   4.381   3.745   4.866 -1.4226 -0.9244 -0.1374
  954SOL    HW3 3583   4.250   3.794   4.924 -0.2316  0.0858  1.8174
  954SOL    MW4 3584   4.337   3.792   4.925 -0.1784  0.0511  0.0581
  955SOL     OW 3585   4.152   2.756   6.264 -0.6948  0.4684 -0.0309
  955SOL    HW2 3586   4.108   2.768   6.179 -0.2340 -0.8667 -0.4832
  955SOL    HW3 3587   4.085   2.777   6.329 -2.2825 -2.0946 -0.6871
  955SOL    MW4 3588   4.138   2.761   6.261 -0.8435 -0.0459 -0.1772
  956SOL     OW 3589   6.068   3.011   6.382  0.0098 -0.1218  0.3799
  956SOL    HW2 3590   6.036   3.096   6.412 -0.5914 -0.6678  1.3529
  956SOL    HW3 3591   5.992   2.954   6.388  0.4520 -0.7703 -0.0929
  956SOL    MW4 3592   6.054   3.015   6.387 -0.0112 -0.2794  0.4459
  957SOL     OW 3593   3.861   1.477   4.123  0.0663 -0.3316 -0.0039
  957SOL    HW2 3594   3.888   1.453   4.212  0.4023  0.1030  0.0193
  957SOL    HW3 3595   3.944   1.487   4.076 -0.0372  0.8914  0.0295
  957SOL    MW4 3596   3.876   1.475   4.129  0.0969 -0.1129  0.0036
  958SOL     OW 3597   3.117   1.095   6.310 -0.0592  0.5786 -0.1892
  958SOL    HW2 3598   3.063   1.055   6.241  0.9656  1.0732 -1.3156
  958SOL    HW3 3599   3.182   1.028   6.331  0.6529  1.0322 -0.9108
  958SOL    MW4 3600   3.118   1.081   6.303  0.1700  0.7037 -0.4330
  959SOL     OW 3601   3.685   3.463   1.222 -0.2176  0.2793 -0.1015
  959SOL    HW2 3602   3.606   3.495   1.267  0.4757  0.6348  0.8932
  959SOL    HW3 3603   3.692   3.518   1.144 -0.6976  0.5516  0.0392
  959SOL    MW4 3604   3.675   3.474   1.218 -0.1895  0.3621  0.0483
  960SOL     OW 3605   0.076   3.585   0.263 -0.3173  0.5861 -0.0505
  960SOL    HW2 3606   0.077   3.504   0.314 -0.4983 -1.6311 -3.3325
  960SOL    HW3 3607  -0.012   3.621   0.278 -0.0898  0.4909  1.7785
  960SOL    MW4 3608   0.065   3.579   0.272 -0.3112  0.2810 -0.2422
  961SOL     OW 3609   1.522   4.706   6.331  0.2611 -0.5043  0.3115
  961SOL    HW2 3610   1.571   4.707   6.413  1.0045 -0.8205 -0.1152
  961SOL    HW3 3611   1.588   4.723   6.264 -0.6712  1.9416 -0.0793
  961SOL    MW4 3612   1.537   4.709   6.333  0.2362 -0.2233  0.2036
  962SOL     OW 3613   0.660   4.772   0.680 -0.3263 -0.7329  0.5424
  962SOL    HW2 3614   0.701   4.702   0.731  1.2738 -0.4570 -0.3006
  962SOL    HW3 3615   0.670   4.745   0.589 -0.7380  0.0442  0.2549
  962SOL    MW4 3616   0.666   4.760   0.675 -0.1695 -0.5939  0.3932
  963SOL     OW 3617   1.543   3.566   3.890  0.2919 -0.2770  0.2814
  963SOL    HW2 3618   1.556   3.521   3.973  1.0005  1.2112  1.0129
  963SOL    HW3 3619   1.572   3.504   3.823  1.2777 -0.8860  1.2543
  963SOL    MW4 3620   1.548   3.552   3.892  0.5155 -0.1610  0.5062
  964SOL     OW 3621   5.911   3.690   4.575 -0.0321 -0.2044 -0.3459
  964SOL    HW2 3622   5.936   3.602   4.548  0.3659  0.2068 -1.4234
  964SOL    HW3 3623   5.984   3.745   4.545  0.6448  0.2722  2.0258
  964SOL    MW4 3624   5.924   3.686   4.567  0.1097 -0.0872 -0.1751
  965SOL     OW 3625   6.161   2.302   5.355 -0.5894  0.0405  0.3633
  965SOL    HW2 3626   6.152   2.334   5.445  0.2689 -1.1931  0.9138
  965SOL    HW3 3627   6.074   2.269   5.332 -1.3186  2.0277  0.0266
  965SOL    MW4 3628   6.149   2.302   5.364 -0.5724  0.1399  0.3915
  966SOL     OW 3629   5.375   2.948   4.149  0.1620  0.4563 -0.2331
  966SOL    HW2 3630   5.323   3.028   4.155 -0.0286  0.5692 -2.6112
  966SOL    HW3 3631   5.437   2.955   4.222 -0.5825  2.1995  0.2918
  966SOL    MW4 3632   5.376   2.960   4.160  0.0386  0.7012 -0.4776
  967SOL     OW 3633   5.866   0.082   5.597 -0.1518  0.0489 -0.0216
  967SOL    HW2 3634   5.948   0.129   5.582  0.9974 -2.6864 -3.5971
  967SOL    HW3 3635   5.798   0.149   5.585  1.4519  1.6033 -0.8738
  967SOL    MW4 3636   5.868   0.097   5.593  0.2114 -0.1069 -0.6058
  968SOL     OW 3637   4.993   2.009   5.370  0.4719 -0.6455 -0.1828
  968SOL    HW2 3638   4.931   2.030   5.300  0.5357  0.5467  0.0956
  968SOL    HW3 3639   5.072   2.059   5.348 -0.3112  1.7689  1.9842
  968SOL    MW4 3640   4.995   2.018   5.358  0.3770 -0.1696  0.1399
  969SOL     OW 3641   4.752   4.246   5.546 -0.0674 -0.5727  0.3381
  969SOL    HW2 3642   4.781   4.183   5.613 -1.0698 -0.4015  0.9498
  969SOL    HW3 3643   4.666   4.214   5.519  0.1021 -0.3379 -0.4921
  969SOL    MW4 3644   4.745   4.233   5.552 -0.1773 -0.5191  0.3093
  970SOL     OW 3645   4.589   6.081   5.481 -0.3343  0.1109  0.8158
  970SOL    HW2 3646   4.530   6.020   5.436 -0.5109  1.6185 -1.1340
  970SOL    HW3 3647   4.676   6.063   5.444 -0.0126 -0.3339  1.7580
  970SOL    MW4 3648   4.593   6.070   5.470 -0.3152  0.2511  0.6829
  971SOL     OW 3649   1.029   5.410   1.180 -0.0973 -0.4045  0.0810
  971SOL    HW2 3650   1.116   5.450   1.169 -0.2048 -0.7380 -2.6814
  971SOL    HW3 3651   1.038   5.355   1.258  1.1087  2.1091  1.8998
  971SOL    MW4 3652   1.042   5.408   1.189  0.0476 -0.1168 -0.0435
  972SOL     OW 3653   0.888   6.104   3.708  0.1196  0.1142  0.7869
  972SOL    HW2 3654   0.943   6.085   3.784  0.2280  1.8074  1.1599
  972SOL    HW3 3655   0.814   6.153   3.743 -0.2113  0.2698 -0.1065
  972SOL    MW4 3656   0.885   6.108   3.723  0.0903  0.3581  0.7183
  973SOL     OW 3657   5.969   5.558   1.037  0.5799 -0.1657 -0.7517
  973SOL    HW2 3658   6.005   5.483   1.085 -0.9883 -1.0527 -0.9047
  973SOL    HW3 3659   5.944   5.522   0.952 -0.5274  0.4415 -0.6969
  973SOL    MW4 3660   5.971   5.543   1.032  0.2269 -0.2026 -0.7647
  974SOL     OW 3661   3.022   4.595   5.024  0.0598 -0.1773  0.5831
  974SOL    HW2 3662   3.000   4.643   5.103  0.2952 -0.5963  0.9081
  974SOL    HW3 3663   2.972   4.638   4.955  2.1241  2.1103  0.3995
  974SOL    MW4 3664   3.013   4.607   5.025  0.3632  0.0692  0.6017
  975SOL     OW 3665   4.837   3.416   1.863  0.5918 -0.3065 -0.4460
  975SOL    HW2 3666   4.779   3.342   1.877 -0.8796  0.9793  0.4724
  975SOL    HW3 3667   4.779   3.491   1.848  1.9785  0.2965 -3.9059
  975SOL    MW4 3668   4.822   3.416   1.863  0.5806 -0.0573 -0.7813
  976SOL     OW 3669   3.796   4.930   5.443 -0.0301 -0.3950  0.5223
  976SOL    HW2 3670   3.863   4.863   5.444 -0.7615 -1.1532 -0.0733
  976SOL    HW3 3671   3.790   4.959   5.534  2.2640  0.9159  0.3242
  976SOL    MW4 3672   3.804   4.925   5.455  0.1761 -0.3221  0.4176
  977SOL     OW 3673   2.393   0.645   3.482 -0.4477 -0.7946 -0.0860
  977SOL    HW2 3674   2.471   0.605   3.521  0.2455 -1.2894 -1.8997
  977SOL    HW3 3675   2.339   0.571   3.455 -1.0220 -0.4541  0.1048
  977SOL    MW4 3676   2.396   0.630   3.484 -0.4320 -0.8149 -0.3001
  978SOL     OW 3677   0.333   4.137   5.074 -0.4665  0.1207  0.8523
  978SOL    HW2 3678   0.266   4.202   5.097 -0.0211  0.2780  1.7610
  978SOL    HW3 3679   0.286   4.073   5.021 -1.1185  0.7189  0.6780
  978SOL    MW4 3680   0.318   4.137   5.070 -0.4938  0.2204  0.9492
  979SOL     OW 3681   3.392   2.296   5.903  0.2280  0.0570 -0.4813
  979SOL    HW2 3682   3.388   2.213   5.855 -1.9300 -0.7722  0.9481
  979SOL    HW3 3683   3.313   2.295   5.957  1.1560  2.1755  1.0292
  979SOL    MW4 3684   3.381   2.285   5.904  0.0657  0.2271 -0.0934
  980SOL     OW 3685   3.963   2.641   4.222  0.0939 -0.7369 -0.5256
  980SOL    HW2 3686   3.944   2.553   4.188 -0.6249 -0.0967 -1.9154
  980SOL    HW3 3687   3.926   2.700   4.155  0.1328  0.6185  0.6025
  980SOL    MW4 3688   3.955   2.637   4.208  0.0042 -0.4736 -0.5601
  981SOL     OW 3689   3.932   4.897   3.725 -0.5007 -0.6675  0.0883
  981SOL    HW2 3690   4.010   4.841   3.731  0.8746  1.2228  1.0375
  981SOL    HW3 3691   3.950   4.956   3.652 -2.0237 -1.5166 -1.0388
  981SOL    MW4 3692   3.945   4.898   3.716 -0.5202 -0.5301  0.0649
  982SOL     OW 3693   1.967   4.212   1.908 -0.4130  0.1607  0.0492
  982SOL    HW2 3694   1.872   4.201   1.898 -0.4112 -0.1295  0.3301
  982SOL    HW3 3695   1.984   4.301   1.878 -0.9552  0.6567  1.1611
  982SOL    MW4 3696   1.957   4.223   1.903 -0.4843  0.1878  0.2329
  983SOL     OW 3697   0.676   2.082   4.409  0.4648  0.0943 -0.4311
  983SOL    HW2 3698   0.726   2.035   4.476 -0.0069  0.1385 -0.0423
  983SOL    HW3 3699   0.698   2.038   4.327  0.1472 -0.7064 -0.0896
  983SOL    MW4 3700   0.686   2.070   4.407  0.3607 -0.0055 -0.3347
  984SOL     OW 3701   2.664   4.284   0.197 -0.1365  0.0267  0.3550
  984SOL    HW2 3702   2.638   4.366   0.240 -1.7243  0.8607 -2.0350
  984SOL    HW3 3703   2.733   4.310   0.136  0.5964 -0.7685  0.8174
  984SOL    MW4 3704   2.670   4.298   0.195 -0.2493  0.0319  0.1007
  985SOL     OW 3705   2.571   4.520   2.263 -0.1141 -0.0618 -0.0206
  985SOL    HW2 3706   2.651   4.526   2.209  1.2323 -2.6556  1.5014
  985SOL    HW3 3707   2.506   4.482   2.204  0.7528 -0.9848 -0.4208
  985SOL    MW4 3708   2.573   4.516   2.248  0.1779 -0.5258  0.1275
  986SOL     OW 3709   3.481   4.059   6.314 -0.6965 -0.4264 -0.3721
  986SOL    HW2 3710   3.456   4.116   6.387  0.0447 -1.3746  0.6572
  986SOL    HW3 3711   3.399   4.042   6.267 -1.1182  0.5194  0.0041
  986SOL    MW4 3712   3.467   4.064   6.317 -0.6543 -0.4267 -0.1866
  987SOL     OW 3713   1.721   0.349   2.666 -0.0371  0.1528  0.5148
  987SOL    HW2 3714   1.751   0.440   2.675  1.7864 -0.4828  1.3487
  987SOL    HW3 3715   1.665   0.335   2.743 -0.2664  0.5408  0.4239
  987SOL    MW4 3716   1.718   0.360   2.678  0.1732  0.1201  0.6128
  988SOL     OW 3717   3.131   3.191   1.790  0.3559  0.5071 -0.5065
  988SOL    HW2 3718   3.195   3.126   1.819  1.5063  0.7396 -2.3654
  988SOL    HW3 3719   3.061   3.186   1.855  1.3922 -1.0720  0.5657
  988SOL    MW4 3720   3.130   3.182   1.803  0.6444  0.3295 -0.6103
  989SOL     OW 3721   1.136   3.914   6.438 -0.2301  0.2540  0.0299
  989SOL    HW2 3722   1.065   3.964   6.476  0.9415  2.6750 -0.7817
  989SOL    HW3 3723   1.109   3.899   6.347  0.9871  2.8530 -0.8563
  989SOL    MW4 3724   1.123   3.918   6.431  0.0851  0.9163 -0.1941
  990SOL     OW 3725   5.130   0.901   4.676  0.5815 -0.2193 -0.2140
  990SOL    HW2 3726   5.094   0.838   4.738  2.0884  1.2732  2.3419
  990SOL    HW3 3727   5.224   0.897   4.689  0.8031  1.5374 -0.9829
  990SOL    MW4 3728   5.137   0.892   4.686  0.8095  0.2094  0.0217
  991SOL     OW 3729   2.978   2.548   4.452 -0.2343 -0.2180  0.0098
  991SOL    HW2 3730   2.939   2.634   4.466  2.0421  0.9077 -0.0734
  991SOL    HW3 3731   3.034   2.535   4.528  1.4875 -0.4004 -1.2418
  991SOL    MW4 3732   2.980   2.557   4.464  0.2932 -0.0936 -0.1663
  992SOL     OW 3733   3.643   4.151   1.533 -0.6673 -0.5616 -0.5383
  992SOL    HW2 3734   3.659   4.197   1.451 -0.0768 -0.6511 -0.4828
  992SOL    HW3 3735   3.573   4.089   1.514 -0.6644 -0.4443 -0.9209
  992SOL    MW4 3736   3.636   4.149   1.520 -0.5890 -0.5579 -0.5815
  993SOL     OW 3737   1.736   3.978   3.102  0.5646 -0.2148  0.2988
  993SOL    HW2 3738   1.785   4.050   3.143  0.6129  0.4640 -0.9112
  993SOL    HW3 3739   1.651   3.978   3.146  0.2492  1.1557 -0.2684
  993SOL    MW4 3740   1.731   3.987   3.113  0.5294  0.0556  0.0644
  994SOL     OW 3741   1.519   5.532   1.777  0.7120 -0.0924  0.0514
  994SOL    HW2 3742   1.564   5.514   1.695 -0.6800 -2.4654 -0.2721
  994SOL    HW3 3743   1.448   5.593   1.753  0.0064 -1.1552 -0.6444
  994SOL    MW4 3744   1.515   5.538   1.763  0.4353 -0.5457 -0.0831
  995SOL     OW 3745   0.690   0.587   1.835 -0.0028 -0.1196 -0.2099
  995SOL    HW2 3746   0.737   0.528   1.776 -0.8234 -0.7380 -0.2590
  995SOL    HW3 3747   0.756   0.613   1.900  0.3785 -1.0812 -0.1874
  995SOL    MW4 3748   0.705   0.583   1.836 -0.0608 -0.3281 -0.2134
  996SOL     OW 3749   4.375   0.808   1.797  0.1055 -0.4041 -0.0340
  996SOL    HW2 3750   4.467   0.791   1.817 -0.5421 -2.9310  1.2042
  996SOL    HW3 3751   4.340   0.847   1.877 -0.0176  0.2497 -0.3927
  996SOL    MW4 3752   4.383   0.811   1.810  0.0038 -0.6512  0.0820
  997SOL     OW 3753   1.497   2.687   3.507  0.1849  0.3134  0.0453
  997SOL    HW2 3754   1.540   2.723   3.430  0.1563  0.2635  0.0055
  997SOL    HW3 3755   1.494   2.759   3.569  1.6346 -0.0778  0.6011
  997SOL    MW4 3756   1.502   2.701   3.505  0.3724  0.2552  0.1134
  998SOL     OW 3757   0.626   1.021   2.772  0.2670 -0.0546  0.0864
  998SOL    HW2 3758   0.700   0.998   2.830  0.3629 -0.3478 -0.1482
  998SOL    HW3 3759   0.549   0.984   2.816  0.3217 -0.1549  0.0986
  998SOL    MW4 3760   0.626   1.013   2.786  0.2869 -0.1065  0.0570
  999SOL     OW 3761   4.838   5.953   3.167  0.0539 -0.2529  0.2998
  999SOL    HW2 3762   4.833   5.859   3.152 -0.6152 -0.1851  0.0738
  999SOL    HW3 3763   4.789   5.968   3.247  0.6616 -0.1619  0.6671
  999SOL    MW4 3764   4.831   5.943   3.175  0.0458 -0.2320  0.3184
 1000SOL     OW 3765   0.973   3.474   1.405 -0.3148  0.2282  0.3031
 1000SOL    HW2 3766   0.988   3.430   1.489 -1.0731  1.0592  0.8962
 1000SOL    HW3 3767   1.020   3.421   1.341 -1.4907 -1.6380  0.9224
 1000SOL    MW4 3768   0.981   3.461   1.408 -0.5700  0.0916  0.4630
 1001SOL     OW 3769   0.627   4.938   4.019 -0.5759  0.3363 -0.1519
 1001SOL    HW2 3770   0.631   4.933   3.923  0.6709  0.6927 -0.1329
 1001SOL    HW3 3771   0.650   5.028   4.039 -0.1629  0.0929  0.5060
 1001SOL    MW4 3772   0.631   4.949   4.009 -0.3569  0.3512 -0.0626
 1002SOL     OW 3773   1.266   4.593   0.103  0.1731 -0.6686  0.2429
 1002SOL    HW2 3774   1.205   4.520   0.090 -1.9523  0.7112  1.8280
 1002SOL    HW3 3775   1.290   4.586   0.196 -2.6992  2.4074  1.4045
 1002SOL    MW4 3776   1.261   4.582   0.114 -0.4863 -0.0807  0.6053
 1003SOL     OW 3777   1.399   6.077   0.492  0.4340  0.1628 -0.6885
 1003SOL    HW2 3778   1.375   6.079   0.399 -0.2499  0.6670 -0.5080
 1003SOL    HW3 3779   1.358   6.155   0.529  0.2730 -0.2977  0.1348
 1003SOL    MW4 3780   1.390   6.088   0.485  0.3225  0.1686 -0.5561
 1004SOL     OW 3781   6.010   1.309   4.980  0.2777 -0.0361  0.0611
 1004SOL    HW2 3782   6.056   1.225   4.982  0.2640 -0.0452  0.0059
 1004SOL    HW3 3783   5.988   1.322   4.888 -0.3593 -0.3202  0.1653
 1004SOL    MW4 3784   6.013   1.300   4.968  0.1918 -0.0748  0.0675
 1005SOL     OW 3785   1.636   4.619   0.225  0.1175  0.0621  0.4576
 1005SOL    HW2 3786   1.731   4.623   0.229  0.2314 -0.6048 -1.0115
 1005SOL    HW3 3787   1.607   4.693   0.278  1.4642  0.8028  0.2046
 1005SOL    MW4 3788   1.645   4.629   0.233  0.3102  0.0718  0.2304
 1006SOL     OW 3789   3.898   3.866   3.043 -0.7480 -0.2299 -0.6414
 1006SOL    HW2 3790   3.985   3.829   3.058 -0.4128  1.6536  3.4054
 1006SOL    HW3 3791   3.841   3.819   3.104 -1.7735  1.0035 -0.6010
 1006SOL    MW4 3792   3.902   3.855   3.053 -0.8391  0.1814 -0.1022
 1007SOL     OW 3793   4.853   0.230   3.845 -0.1036  0.0629  0.5155
 1007SOL    HW2 3794   4.765   0.215   3.879  0.1191 -0.6070  0.8093
 1007SOL    HW3 3795   4.908   0.234   3.924  0.1004  0.7140  0.3489
 1007SOL    MW4 3796   4.849   0.229   3.860 -0.0473  0.0604  0.5323
 1008SOL     OW 3797   5.480   3.498   4.949 -0.1895 -0.1844  0.1481
 1008SOL    HW2 3798   5.430   3.512   5.029 -0.9117 -0.1263 -0.3025
 1008SOL    HW3 3799   5.529   3.417   4.965 -0.4060 -0.2273  0.6034
 1008SOL    MW4 3800   5.480   3.489   4.962 -0.3134 -0.1824  0.1487
 1009SOL     OW 3801   5.574   2.569   2.757  0.1141  0.3124 -0.1775
 1009SOL    HW2 3802   5.610   2.621   2.685  0.5100 -0.4813 -0.5595
 1009SOL    HW3 3803   5.548   2.635   2.822  0.8561  0.9824 -0.5318
 1009SOL    MW4 3804   5.576   2.585   2.756  0.2642  0.2961 -0.2747
 1010SOL     OW 3805   1.558   4.889   4.211  0.2563 -0.0000  0.1304
 1010SOL    HW2 3806   1.560   4.943   4.291 -2.2670  0.4499 -0.0075
 1010SOL    HW3 3807   1.541   4.801   4.243 -0.1856  0.0846  0.1374
 1010SOL    MW4 3808   1.556   4.885   4.226 -0.1349  0.0705  0.1131
 1011SOL     OW 3809   1.157   1.715   4.572  0.1860  0.0183  0.2123
 1011SOL    HW2 3810   1.066   1.737   4.594  0.7918  0.3230  2.5898
 1011SOL    HW3 3811   1.152   1.682   4.482 -2.5964 -1.9135  0.9361
 1011SOL    MW4 3812   1.144   1.713   4.563 -0.1012 -0.1964  0.6215
 1012SOL     OW 3813   5.535   5.570   3.910 -0.2483  0.4446 -0.2100
 1012SOL    HW2 3814   5.615   5.521   3.892 -0.0518  0.7287 -0.1101
 1012SOL    HW3 3815   5.469   5.503   3.928  0.4616  0.2339  1.8741
 1012SOL    MW4 3816   5.537   5.555   3.910 -0.1287  0.4543  0.0781
 1013SOL     OW 3817   2.478   1.014   2.357 -0.6581 -0.2653  0.0265
 1013SOL    HW2 3818   2.397   1.054   2.326  0.0255  0.0818 -1.3731
 1013SOL    HW3 3819   2.519   1.082   2.410 -1.6037 -0.6959  1.3585
 1013SOL    MW4 3820   2.473   1.028   2.360 -0.6927 -0.2763  0.0176
 1014SOL     OW 3821   5.832   4.355   3.036 -0.0655 -0.6263  0.0210
 1014SOL    HW2 3822   5.898   4.387   2.975 -0.8426  0.8158 -0.1023
 1014SOL    HW3 3823   5.753   4.346   2.983 -1.1210  1.9609  1.0165
 1014SOL    MW4 3824   5.830   4.358   3.021 -0.3073 -0.0947  0.1361
 1015SOL     OW 3825   0.553   6.249   0.335 -0.7396  0.2412 -0.0412
 1015SOL    HW2 3826   0.601   6.298   0.402 -0.5223  0.1734 -0.1468
 1015SOL    HW3 3827   0.488   6.198   0.384 -1.3181  1.0252  0.0351
 1015SOL    MW4 3828   0.551   6.249   0.351 -0.7873  0.3357 -0.0451
 1016SOL     OW 3829   6.160   2.676   3.370 -0.2036 -0.5518 -0.5534
 1016SOL    HW2 3830   6.170   2.640   3.458  0.7610  0.9394 -0.0043
 1016SOL    HW3 3831   6.107   2.755   3.382  1.0269  0.4001 -1.0595
 1016SOL    MW4 3832   6.154   2.682   3.383  0.0860 -0.2294 -0.5477
 1017SOL     OW 3833   4.833   1.472   3.611 -0.5541 -0.6481 -0.1342
 1017SOL    HW2 3834   4.833   1.530   3.687 -0.5799 -2.1066  1.0101
 1017SOL    HW3 3835   4.852   1.530   3.537 -1.3879  0.9487  0.8523
 1017SOL    MW4 3836   4.836   1.487   3.611 -0.6675 -0.6298  0.1469
 1018SOL     OW 3837   4.468   6.191   4.086 -0.0094  0.4990  0.3670
 1018SOL    HW2 3838   4.536   6.208   4.021 -1.8179 -1.3519 -2.2071
 1018SOL    HW3 3839   4.421   6.274   4.094  2.0270  1.5991  1.6781
 1018SOL    MW4 3840   4.471   6.204   4.078  0.0207  0.3999  0.2004
 1019SOL     OW 3841   3.337   4.184   4.011  0.4726  0.5869 -0.2638
 1019SOL    HW2 3842   3.247   4.211   4.026  0.7972 -0.0203  4.1607
 1019SOL    HW3 3843   3.340   4.159   3.919 -3.7979  0.7397 -0.6217
 1019SOL    MW4 3844   3.326   4.184   4.001 -0.0480  0.5270  0.2727
 1020SOL     OW 3845   3.532   1.617   3.315 -1.0531  0.1061  0.6552
 1020SOL    HW2 3846   3.466   1.563   3.359 -2.8051  0.4299 -1.4289
 1020SOL    HW3 3847   3.550   1.571   3.234  0.1096  0.8610  0.4637
 1020SOL    MW4 3848   3.526   1.604   3.310 -1.1309  0.2484  0.3549
 1021SOL     OW 3849   1.954   4.099   3.259  0.1191 -0.0658  0.6320
 1021SOL    HW2 3850   1.930   4.093   3.351  1.2341 -1.3464  0.8750
 1021SOL    HW3 3851   1.968   4.192   3.243 -3.3053  0.6318  0.8568
 1021SOL    MW4 3852   1.952   4.110   3.269 -0.1856 -0.1427  0.6937
 1022SOL     OW 3853   5.398   2.662   3.221  0.5653 -0.0983 -0.0806
 1022SOL    HW2 3854   5.432   2.751   3.231  3.9702 -0.9815 -2.0688
 1022SOL    HW3 3855   5.431   2.633   3.136 -0.5801 -3.1946  0.4016
 1022SOL    MW4 3856   5.407   2.670   3.211  0.8634 -0.6234 -0.2793
 1023SOL     OW 3857   5.452   5.506   1.585  0.4137  0.1047 -0.2614
 1023SOL    HW2 3858   5.361   5.485   1.566  0.7048 -0.9690 -0.5401
 1023SOL    HW3 3859   5.478   5.568   1.516 -0.2876  0.9759  0.2282
 1023SOL    MW4 3860   5.444   5.512   1.573  0.3596  0.0780 -0.2336
 1024SOL     OW 3861   1.044   5.692   0.727 -0.1017  0.0126  0.5786
 1024SOL    HW2 3862   1.053   5.751   0.652 -1.8720 -0.9652 -0.4589
 1024SOL    HW3 3863   1.118   5.715   0.784  0.4312  1.8091 -0.7378
 1024SOL    MW4 3864   1.055   5.703   0.724 -0.2650  0.1206  0.2680
 1025SOL     OW 3865   4.990   5.889   1.602 -0.2661  0.0860  0.2839
 1025SOL    HW2 3866   5.026   5.835   1.532 -0.7895  0.6784 -0.4534
 1025SOL    HW3 3867   4.913   5.931   1.563 -1.0350 -0.2005  1.4573
 1025SOL    MW4 3868   4.984   5.887   1.588 -0.4366  0.1263  0.3414
 1026SOL     OW 3869   3.295   0.805   1.623 -0.1525 -0.2029 -0.9282
 1026SOL    HW2 3870   3.279   0.715   1.651 -0.7322  0.6287  1.6973
 1026SOL    HW3 3871   3.391   0.812   1.618 -0.1274 -1.2298 -2.2703
 1026SOL    MW4 3872   3.306   0.794   1.626 -0.2257 -0.2286 -0.7589
 1027SOL     OW 3873   1.373   5.015   0.148  0.2258 -0.7556  0.0047
 1027SOL    HW2 3874   1.320   4.956   0.094  0.2601 -1.3186  0.5645
 1027SOL    HW3 3875   1.337   5.004   0.236 -0.2193  0.5912  0.0075
 1027SOL    MW4 3876   1.361   5.006   0.153  0.1716 -0.6522  0.0789
 1028SOL     OW 3877   5.811   6.239   0.480  0.2480  0.1958 -0.1730
 1028SOL    HW2 3878   5.899   6.271   0.459  0.4330  0.2530  0.6780
 1028SOL    HW3 3879   5.765   6.316   0.514  0.6619 -0.3803  1.7794
 1028SOL    MW4 3880   5.816   6.254   0.482  0.3270  0.1273  0.1969
 1029SOL     OW 3881   1.869   3.887   6.386 -0.0595 -0.1767 -0.2713
 1029SOL    HW2 3882   1.867   3.925   6.298  2.4411 -1.6655 -1.0832
 1029SOL    HW3 3883   1.937   3.936   6.432  0.4169 -1.0330 -0.0328
 1029SOL    MW4 3884   1.878   3.898   6.380  0.3333 -0.4861 -0.3470
 1030SOL     OW 3885   2.273   6.098   5.063  0.7874  0.3282 -0.4260
 1030SOL    HW2 3886   2.209   6.169   5.066 -0.6203 -0.9217  1.4286
 1030SOL    HW3 3887   2.229   6.024   5.105  2.7184 -1.2185 -0.9804
 1030SOL    MW4 3888   2.259   6.097   5.069  0.8564 -0.0408 -0.2544
 1031SOL     OW 3889   4.330   4.271   1.291 -0.0865 -0.0702  0.3410
 1031SOL    HW2 3890   4.265   4.256   1.360 -0.2536  0.0260  0.2053
 1031SOL    HW3 3891   4.414   4.276   1.338 -0.4669  2.9149  0.9213
 1031SOL    MW4 3892   4.333   4.270   1.307 -0.1587  0.3364  0.3996
 1032SOL     OW 3893   5.705   1.870   3.956 -0.0323 -0.4905  0.4807
 1032SOL    HW2 3894   5.745   1.801   4.010  0.4190 -1.0024 -0.4919
 1032SOL    HW3 3895   5.697   1.945   4.015  0.8317 -0.9077  1.1479
 1032SOL    MW4 3896   5.709   1.871   3.971  0.1412 -0.6131  0.4404
 1033SOL     OW 3897   4.113   0.434   4.366  0.0632 -0.5694 -0.6967
 1033SOL    HW2 3898   4.115   0.340   4.384 -0.6086 -1.2467 -3.6116
 1033SOL    HW3 3899   4.021   0.459   4.378  0.0853 -0.4578 -0.7583
 1033SOL    MW4 3900   4.101   0.425   4.370 -0.0225 -0.6441 -1.0894
 1034SOL     OW 3901   3.624   4.590   1.422 -0.4407  0.8329  0.4856
 1034SOL    HW2 3902   3.567   4.650   1.471 -1.4570 -2.2129  3.4586
 1034SOL    HW3 3903   3.712   4.611   1.451 -0.6112  1.8006  0.3390
 1034SOL    MW4 3904   3.628   4.601   1.432 -0.5973  0.5587  0.8585
 1035SOL     OW 3905   0.663   3.716   5.036  0.1230 -0.2293  0.2934
 1035SOL    HW2 3906   0.728   3.646   5.035 -0.9249 -1.2561  1.4984
 1035SOL    HW3 3907   0.701   3.784   4.979  2.7397 -0.3050  1.7521
 1035SOL    MW4 3908   0.677   3.716   5.028  0.3300 -0.3747  0.6448
 1036SOL     OW 3909   4.344   0.199   5.818  0.1294  0.4003  0.2235
 1036SOL    HW2 3910   4.357   0.183   5.725 -2.0164 -0.6114  0.0479
 1036SOL    HW3 3911   4.421   0.160   5.860  0.5639 -0.1452 -1.0365
 1036SOL    MW4 3912   4.356   0.192   5.811 -0.0964  0.1949  0.0341
 1037SOL     OW 3913   0.047   1.630   0.682 -0.0626 -0.6163 -0.2199
 1037SOL    HW2 3914   0.124   1.684   0.698  0.7076 -1.7907  0.1603
 1037SOL    HW3 3915  -0.027   1.682   0.715  0.6003  0.3588 -0.2359
 1037SOL    MW4 3916   0.047   1.644   0.688  0.1265 -0.6426 -0.1718
 1038SOL     OW 3917   0.724   6.170   0.116  0.1500  0.1399 -0.7190
 1038SOL    HW2 3918   0.801   6.120   0.142 -0.9343 -1.1991 -0.0133
 1038SOL    HW3 3919   0.661   6.158   0.187 -1.0459  0.4968 -1.6776
 1038SOL    MW4 3920   0.726   6.162   0.129 -0.1508  0.0103 -0.7523
 1039SOL     OW 3921   1.037   0.902   2.550 -0.6249 -0.3748  0.1198
 1039SOL    HW2 3922   1.009   0.960   2.480 -0.7441 -0.9232 -0.2960
 1039SOL    HW3 3923   1.131   0.893   2.537 -0.3952  0.6905  0.9266
 1039SOL    MW4 3924   1.045   0.908   2.539 -0.6103 -0.3066  0.1714
 1040SOL     OW 3925   1.431   1.436   4.445  0.2538  0.2621 -0.1471
 1040SOL    HW2 3926   1.486   1.514   4.432  2.4907 -1.1217  0.3392
 1040SOL    HW3 3927   1.424   1.397   4.358 -1.0004  1.0559 -0.4185
 1040SOL    MW4 3928   1.438   1.441   4.432  0.3835  0.1843 -0.1187
 1041SOL     OW 3929   2.470   6.391   1.754 -0.4304  0.6741  0.4384
 1041SOL    HW2 3930   2.411   6.440   1.810 -0.3075  1.8504 -0.4286
 1041SOL    HW3 3931   2.413   6.339   1.698 -0.7386  2.4370 -0.9746
 1041SOL    MW4 3932   2.455   6.391   1.754 -0.4548  1.0619  0.1376
 1042SOL     OW 3933   4.966   2.121   4.982  0.2138  0.7819 -0.5166
 1042SOL    HW2 3934   4.876   2.152   4.991  0.5234  1.9501 -1.1348
 1042SOL    HW3 3935   5.011   2.156   5.058  0.0356 -0.2845  0.0935
 1042SOL    MW4 3936   4.960   2.130   4.993  0.2312  0.7954 -0.5176
 1043SOL     OW 3937   5.630   3.842   5.373  0.0244 -0.5637 -0.4738
 1043SOL    HW2 3938   5.648   3.804   5.459  1.7731 -1.1024 -1.0437
 1043SOL    HW3 3939   5.535   3.855   5.372 -0.1039 -1.1746  1.2736
 1043SOL    MW4 3940   5.620   3.839   5.384  0.2382 -0.7154 -0.3185
 1044SOL     OW 3941   5.184   1.349   3.709 -0.1675 -0.5677  0.0166
 1044SOL    HW2 3942   5.210   1.326   3.798 -1.4716 -2.0642  0.0427
 1044SOL    HW3 3943   5.257   1.320   3.654  0.6697  0.4203  0.5735
 1044SOL    MW4 3944   5.197   1.342   3.713 -0.2291 -0.6348  0.0935
 1045SOL     OW 3945   0.230   2.170   5.809 -0.6508  0.2551 -0.0352
 1045SOL    HW2 3946   0.301   2.199   5.753  0.8085 -1.0548  1.0398
 1045SOL    HW3 3947   0.199   2.089   5.769  2.3830 -2.3891  2.3446
 1045SOL    MW4 3948   0.235   2.163   5.796 -0.0580 -0.2666  0.4206
 1046SOL     OW 3949   0.673   2.999   4.009 -0.5068  0.0723  0.4600
 1046SOL    HW2 3950   0.677   2.986   3.915  0.6599 -0.5998  0.5846
 1046SOL    HW3 3951   0.657   3.093   4.020  4.1677  1.2225 -0.4195
 1046SOL    MW4 3952   0.671   3.009   3.998  0.2639  0.1354  0.3604
 1047SOL     OW 3953   4.617   2.872   5.687 -0.1866 -0.1464  0.0248
 1047SOL    HW2 3954   4.531   2.913   5.695  0.0808  0.1912  1.5297
 1047SOL    HW3 3955   4.653   2.874   5.776  1.3641 -0.3145 -0.5657
 1047SOL    MW4 3956   4.610   2.877   5.700  0.0533 -0.1240  0.1455
 1048SOL     OW 3957   5.193   0.236   5.295  0.0552  0.1947  0.3163
 1048SOL    HW2 3958   5.139   0.314   5.306 -0.2807  0.1353 -0.8623
 1048SOL    HW3 3959   5.132   0.163   5.308 -0.5307  0.1049 -2.4003
 1048SOL    MW4 3960   5.177   0.236   5.298 -0.0664  0.1750 -0.1976
 1049SOL     OW 3961   4.055   2.469   5.754 -0.3009 -0.5644 -0.3486
 1049SOL    HW2 3962   4.036   2.421   5.674 -1.3421 -0.6471 -0.0654
 1049SOL    HW3 3963   4.124   2.419   5.796 -1.2310 -1.7416 -0.1510
 1049SOL    MW4 3964   4.061   2.456   5.749 -0.5610 -0.7307 -0.2851
 1050SOL     OW 3965   2.679   0.850   1.149  0.0694 -1.0086  0.0278
 1050SOL    HW2 3966   2.646   0.798   1.222 -0.5297  0.6306  0.9877
 1050SOL    HW3 3967   2.672   0.941   1.179  1.4770 -0.3763 -1.4040
 1050SOL    MW4 3968   2.674   0.855   1.162  0.1761 -0.7089 -0.0345
 1051SOL     OW 3969   0.468   5.451   0.694  0.0463  1.0985 -0.5698
 1051SOL    HW2 3970   0.398   5.512   0.671  0.6402  1.3076 -1.9280
 1051SOL    HW3 3971   0.495   5.478   0.782 -1.0431  1.5067 -0.3428
 1051SOL    MW4 3972   0.462   5.463   0.702 -0.0191  1.1799 -0.7190
 1052SOL     OW 3973   5.873   4.261   2.155 -0.3515  0.0257 -0.0176
 1052SOL    HW2 3974   5.872   4.259   2.059  1.9020 -1.3140 -0.0858
 1052SOL    HW3 3975   5.854   4.171   2.181  2.1551 -0.3927  0.6307
 1052SOL    MW4 3976   5.870   4.249   2.145  0.2765 -0.2063  0.0589
 1053SOL     OW 3977   5.503   3.906   1.644  0.2260  0.2061 -0.4297
 1053SOL    HW2 3978   5.543   3.873   1.724 -1.6594 -0.0137  0.4602
 1053SOL    HW3 3979   5.547   3.857   1.574  1.6696  0.1763  0.4602
 1053SOL    MW4 3980   5.514   3.895   1.645  0.1677  0.1732 -0.1948
 1054SOL     OW 3981   3.357   2.378   5.591 -0.7580  0.1862 -0.1131
 1054SOL    HW2 3982   3.305   2.298   5.588 -0.5931 -0.0308  1.6438
 1054SOL    HW3 3983   3.318   2.430   5.662  0.2191  0.8786 -0.0573
 1054SOL    MW4 3984   3.345   2.375   5.600 -0.6073  0.2489  0.1261
 1055SOL     OW 3985   5.182   5.887   1.790 -0.1501  0.2727 -0.0732
 1055SOL    HW2 3986   5.123   5.885   1.715  0.7341 -1.8253 -0.8020
 1055SOL    HW3 3987   5.144   5.825   1.852  0.3152  0.2860  0.2260
 1055SOL    MW4 3988   5.169   5.878   1.788  0.0279 -0.0023 -0.1299
 1056SOL     OW 3989   3.914   5.563   4.415 -0.3067 -0.5133 -0.1955
 1056SOL    HW2 3990   3.862   5.636   4.448 -0.3158 -0.2547 -0.7617
 1056SOL    HW3 3991   3.990   5.604   4.373 -0.5800 -0.7974 -0.9880
 1056SOL    MW4 3992   3.917   5.578   4.414 -0.3440 -0.5166 -0.3748
 1057SOL     OW 3993   1.299   2.034   5.163 -0.0466 -0.0436 -0.4663
 1057SOL    HW2 3994   1.287   1.941   5.140 -1.8236  0.5611 -2.2839
 1057SOL    HW3 3995   1.283   2.038   5.257 -1.8333 -1.3367 -0.6652
 1057SOL    MW4 3996   1.295   2.022   5.172 -0.5168 -0.1345 -0.7324
 1058SOL     OW 3997   5.710   3.752   5.622 -0.1952  0.0975  0.0088
 1058SOL    HW2 3998   5.704   3.834   5.669  1.0378  0.3891 -0.3059
 1058SOL    HW3 3999   5.763   3.695   5.679 -1.4278 -0.6629  0.4460
 1058SOL    MW4 4000   5.716   3.755   5.636 -0.1952  0.0357  0.0249
 1059SOL     OW 4001   4.794   4.643   1.949  0.0687 -0.5901  0.3530
 1059SOL    HW2 4002   4.720   4.696   1.979 -1.4638 -2.5088  0.1661
 1059SOL    HW3 4003   4.859   4.707   1.920 -1.8301  1.1805 -0.2760
 1059SOL    MW4 4004   4.792   4.659   1.949 -0.3840 -0.6096  0.2453
 1060SOL     OW 4005   3.357   2.620   3.386  0.1418  0.5548 -0.4938
 1060SOL    HW2 4006   3.282   2.568   3.356  0.9271 -1.8259  1.3777
 1060SOL    HW3 4007   3.338   2.638   3.478  1.4082  0.8509 -0.2790
 1060SOL    MW4 4008   3.344   2.616   3.394  0.4125  0.2798 -0.2186
 1061SOL     OW 4009   0.481   5.562   3.448  0.3720  0.3367  0.4092
 1061SOL    HW2 4010   0.533   5.483   3.454  1.0964  0.6704 -0.9600
 1061SOL    HW3 4011   0.422   5.547   3.374 -0.3008  0.6182  0.8788
 1061SOL    MW4 4012   0.480   5.550   3.439  0.3788  0.4178  0.2905
 1062SOL     OW 4013   0.945   2.269   3.593 -0.4433  0.0760 -0.4621
 1062SOL    HW2 4014   1.004   2.263   3.668  0.1752 -0.1639 -0.9530
 1062SOL    HW3 4015   1.002   2.253   3.517 -1.0699  0.2385 -0.9721
 1062SOL    MW4 4016   0.960   2.266   3.593 -0.4443  0.0658 -0.5942
 1063SOL     OW 4017   4.072   6.302   0.873 -0.0989 -0.1130 -0.2665
 1063SOL    HW2 4018   4.140   6.351   0.827 -0.5022  0.0473 -0.7040
 1063SOL    HW3 4019   4.053   6.228   0.815 -0.1577 -0.2672 -0.0519
 1063SOL    MW4 4020   4.079   6.299   0.859 -0.1599 -0.1122 -0.2959
 1064SOL     OW 4021   5.461   1.261   2.056 -0.2056  0.5724 -0.0197
 1064SOL    HW2 4022   5.487   1.310   1.978  1.3273  0.7700  0.5789
 1064SOL    HW3 4023   5.373   1.229   2.036 -0.2489  1.4662 -1.4157
 1064SOL    MW4 4024   5.453   1.263   2.043 -0.0091  0.7164 -0.1249
 1065SOL     OW 4025   2.294   3.955   4.205  0.1055  0.4250 -0.3886
 1065SOL    HW2 4026   2.219   4.013   4.217 -0.1277 -0.0495  0.4952
 1065SOL    HW3 4027   2.317   3.964   4.112  0.0492  1.8841 -0.2795
 1065SOL    MW4 4028   2.287   3.964   4.194  0.0673  0.5549 -0.2576
 1066SOL     OW 4029   5.234   4.042   5.124 -0.0708 -0.3069  0.2977
 1066SOL    HW2 4030   5.273   3.957   5.103 -0.1265 -0.5880  1.2780
 1066SOL    HW3 4031   5.233   4.089   5.041 -2.3574 -2.2033 -0.8981
 1066SOL    MW4 4032   5.239   4.037   5.110 -0.3798 -0.5942  0.2693
 1067SOL     OW 4033   1.522   0.555   4.538 -0.0063 -0.2990 -0.2218
 1067SOL    HW2 4034   1.562   0.567   4.624 -0.7114  0.5270  0.0067
 1067SOL    HW3 4035   1.547   0.467   4.512  3.2059  0.5943 -0.7362
 1067SOL    MW4 4036   1.531   0.545   4.546  0.3245 -0.0721 -0.2595
 1068SOL     OW 4037   4.476   2.632   0.980  0.4740 -0.4173  0.5020
 1068SOL    HW2 4038   4.434   2.659   1.061 -1.5216  2.0057 -1.1554
 1068SOL    HW3 4039   4.516   2.713   0.946  1.2862 -1.3602 -0.8941
 1068SOL    MW4 4040   4.476   2.646   0.986  0.3178 -0.2220  0.0991
 1069SOL     OW 4041   4.376   5.497   2.740  0.4347  0.0250 -0.7485
 1069SOL    HW2 4042   4.300   5.444   2.716 -0.2484  0.5530  0.1515
 1069SOL    HW3 4043   4.446   5.466   2.683  0.2044 -2.1777  0.0433
 1069SOL    MW4 4044   4.375   5.486   2.729  0.3142 -0.1960 -0.5253
 1070SOL     OW 4045   3.062   5.543   4.912 -0.9108  0.0645  0.6572
 1070SOL    HW2 4046   3.145   5.589   4.920 -0.6157  0.0829 -1.8874
 1070SOL    HW3 4047   3.003   5.606   4.871 -1.1335 -1.0742 -0.8512
 1070SOL    MW4 4048   3.065   5.557   4.908 -0.9013 -0.0833  0.1225
 1071SOL     OW 4049   5.277   2.866   2.913  0.8959  0.5852  0.1186
 1071SOL    HW2 4050   5.246   2.920   2.985  0.5457  1.4939 -0.7022
 1071SOL    HW3 4051   5.371   2.884   2.907  1.0015  0.2143  0.5824
 1071SOL    MW4 4052   5.286   2.875   2.922  0.8636  0.6562  0.0715
 1072SOL     OW 4053   2.983   5.691   4.040  0.0840 -0.4788  0.3240
 1072SOL    HW2 4054   2.959   5.720   3.953 -0.4653 -0.3859  0.5029
 1072SOL    HW3 4055   2.907   5.712   4.095  1.0227  0.9539  1.1567
 1072SOL    MW4 4056   2.970   5.698   4.036  0.1354 -0.2775  0.4574
 1073SOL     OW 4057   5.520   3.451   5.647 -0.3349 -0.1723 -0.1427
 1073SOL    HW2 4058   5.464   3.383   5.610 -0.4723 -0.1865  0.0869
 1073SOL    HW3 4059   5.460   3.522   5.668 -0.1495  0.1408 -0.6610
 1073SOL    MW4 4060   5.504   3.451   5.645 -0.3286 -0.1328 -0.1808
 1074SOL     OW 4061   3.179   2.038   0.526 -0.0026  0.1337  0.0817
 1074SOL    HW2 4062   3.115   2.097   0.567 -2.7003 -0.8536 -2.3231
 1074SOL    HW3 4063   3.257   2.091   0.513 -2.2835  3.3188 -1.9974
 1074SOL    MW4 4064   3.181   2.053   0.530 -0.6595  0.4237 -0.5099
 1075SOL     OW 4065   2.128   1.219   1.569 -0.4171  0.1092 -0.2240
 1075SOL    HW2 4066   2.087   1.300   1.539 -1.0483 -0.1526 -0.0724
 1075SOL    HW3 4067   2.202   1.206   1.510 -0.0333  1.0370  0.0288
 1075SOL    MW4 4068   2.132   1.228   1.557 -0.4497  0.1971 -0.1706
 1076SOL     OW 4069   4.258   2.382   5.899 -0.8399  0.2989  0.5370
 1076SOL    HW2 4070   4.286   2.339   5.818  1.2018 -1.4075  2.0187
 1076SOL    HW3 4071   4.319   2.455   5.911 -0.7662  0.1955  0.8157
 1076SOL    MW4 4072   4.270   2.386   5.890 -0.5608  0.0601  0.7693
 1077SOL     OW 4073   3.902   1.840   5.270 -0.2271  0.2178  0.6448
 1077SOL    HW2 4074   3.935   1.815   5.356  0.7486 -1.3202 -0.1327
 1077SOL    HW3 4075   3.900   1.759   5.220  1.0940  1.3278 -1.3680
 1077SOL    MW4 4076   3.906   1.826   5.275  0.0759  0.1613  0.2766
 1078SOL     OW 4077   0.569   5.865   0.334 -0.1420  0.4253 -0.5491
 1078SOL    HW2 4078   0.551   5.771   0.326 -0.0452  0.4684 -1.3515
 1078SOL    HW3 4079   0.663   5.869   0.353 -0.4411  0.3074  1.1441
 1078SOL    MW4 4080   0.579   5.853   0.336 -0.1687  0.4154 -0.4315
 1079SOL     OW 4081   1.289   1.341   1.693 -0.2814 -0.1805 -0.1840
 1079SOL    HW2 4082   1.362   1.389   1.732 -0.6272  0.3476 -0.1809
 1079SOL    HW3 4083   1.211   1.376   1.737 -0.4268 -2.0570  1.2125
 1079SOL    MW4 4084   1.288   1.352   1.704 -0.3462 -0.3584  0.0006
 1080SOL     OW 4085   0.719   1.243   0.827 -0.1352 -0.0787 -0.1307
 1080SOL    HW2 4086   0.713   1.333   0.795  0.3597  0.1022  0.2652
 1080SOL    HW3 4087   0.812   1.222   0.821 -0.0164 -0.0327  1.1738
 1080SOL    MW4 4088   0.730   1.252   0.822 -0.0543 -0.0488  0.0937
 1081SOL     OW 4089   1.630   0.147   1.576  0.1454  0.4782 -0.3495
 1081SOL    HW2 4090   1.673   0.063   1.593  0.4228  0.3377 -1.6239
 1081SOL    HW3 4091   1.702   0.209   1.563 -0.0165  0.4483 -1.5185
 1081SOL    MW4 4092   1.645   0.144   1.577  0.1607  0.4557 -0.6719
 1082SOL     OW 4093   1.100   6.255   5.472  0.4549  0.3007 -0.3109
 1082SOL    HW2 4094   1.175   6.251   5.414  0.0209 -0.1100 -0.8570
 1082SOL    HW3 4095   1.135   6.236   5.559  1.1017  0.8875 -0.4416
 1082SOL    MW4 4096   1.114   6.252   5.476  0.4830  0.3239 -0.4002
 1083SOL     OW 4097   0.285   5.871   1.349 -1.0861 -0.0062  0.0598
 1083SOL    HW2 4098   0.213   5.897   1.407 -1.9251 -1.0121 -0.4836
 1083SOL    HW3 4099   0.285   5.775   1.353 -0.3746 -0.0444 -0.6647
 1083SOL    MW4 4100   0.275   5.862   1.357 -1.1029 -0.1439 -0.1075
 1084SOL     OW 4101   0.959   4.354   2.138  0.0587  0.4325 -0.4112
 1084SOL    HW2 4102   0.982   4.303   2.216  0.2857  0.4186 -0.4872
 1084SOL    HW3 4103   0.959   4.290   2.067  0.4033  0.5464 -0.5176
 1084SOL    MW4 4104   0.962   4.339   2.139  0.1341  0.4457 -0.4353
 1085SOL     OW 4105   3.899   0.113   2.966  0.4521 -0.0741  0.0461
 1085SOL    HW2 4106   3.909   0.025   2.929  0.6711 -1.1798  2.5603
 1085SOL    HW3 4107   3.805   0.127   2.971  0.4161  0.2400 -1.1716
 1085SOL    MW4 4108   3.888   0.104   2.962  0.4763 -0.1785  0.2172
 1086SOL     OW 4109   1.414   1.914   2.016 -0.3898  0.1636  0.1249
 1086SOL    HW2 4110   1.436   1.848   2.082  1.1374  2.0005  1.5470
 1086SOL    HW3 4111   1.351   1.870   1.959 -1.3481 -1.7119  2.4514
 1086SOL    MW4 4112   1.409   1.899   2.017 -0.3147  0.1585  0.6195
 1087SOL     OW 4113   5.175   5.721   1.470  0.1021 -0.1526  0.4001
 1087SOL    HW2 4114   5.175   5.627   1.449  0.2032 -0.1245  0.2709
 1087SOL    HW3 4115   5.267   5.747   1.461  0.1394 -0.1336  0.8533
 1087SOL    MW4 4116   5.187   5.712   1.466  0.1204 -0.1464  0.4428
 1088SOL     OW 4117   3.041   0.044   5.054  0.2243  0.1114 -0.1490
 1088SOL    HW2 4118   3.077   0.040   5.143  0.6982 -0.4533 -0.3615
 1088SOL    HW3 4119   3.117   0.032   4.997 -0.2995 -1.2627 -0.6057
 1088SOL    MW4 4120   3.056   0.042   5.059  0.2177 -0.1444 -0.2373
 1089SOL     OW 4121   5.058   6.283   2.084 -0.2091 -0.1871 -0.8927
 1089SOL    HW2 4122   5.152   6.292   2.075 -0.2095  0.9009 -0.0197
 1089SOL    HW3 4123   5.041   6.299   2.177 -0.9115 -3.6666 -0.2839
 1089SOL    MW4 4124   5.068   6.286   2.095 -0.3018 -0.5026 -0.6972
 1090SOL     OW 4125   4.313   1.688   0.628  0.2838 -0.5576 -0.0083
 1090SOL    HW2 4126   4.261   1.741   0.568  2.4397  0.8101 -0.7749
 1090SOL    HW3 4127   4.253   1.667   0.699 -1.9421 -1.0244 -1.9089
 1090SOL    MW4 4128   4.298   1.693   0.630  0.2746 -0.4388 -0.3602
 1091SOL     OW 4129   1.040   3.094   0.283  0.3222  0.0055  0.3985
 1091SOL    HW2 4130   1.054   3.088   0.188  0.8884 -1.7200  0.5551
 1091SOL    HW3 4131   1.119   3.137   0.315  0.0238  0.8104  0.0707
 1091SOL    MW4 4132   1.053   3.099   0.275  0.3576 -0.1160  0.3759
 1092SOL     OW 4133   2.752   5.430   1.469  0.3216 -0.1548  0.3134
 1092SOL    HW2 4134   2.816   5.430   1.540  1.0695 -0.7256 -0.3417
 1092SOL    HW3 4135   2.668   5.424   1.513  0.4605  3.4326  1.3595
 1092SOL    MW4 4136   2.750   5.429   1.484  0.4386  0.2432  0.3650
 1093SOL     OW 4137   4.538   0.870   5.305  0.5257 -0.1434  0.0477
 1093SOL    HW2 4138   4.621   0.824   5.297  0.4953 -0.0138 -1.0629
 1093SOL    HW3 4139   4.558   0.945   5.362  0.7446 -1.0669  1.2334
 1093SOL    MW4 4140   4.552   0.874   5.312  0.5505 -0.2481  0.0576
 1094SOL     OW 4141   2.429   3.398   3.481  0.1070 -0.3389  0.7813
 1094SOL    HW2 4142   2.461   3.447   3.406  0.7766 -0.2604  1.1130
 1094SOL    HW3 4143   2.338   3.377   3.459  0.4007 -0.6288 -0.1988
 1094SOL    MW4 4144   2.421   3.401   3.469  0.2341 -0.3668  0.6957
 1095SOL     OW 4145   3.219   1.567   5.332  0.1910 -0.2620  0.1753
 1095SOL    HW2 4146   3.125   1.559   5.313  0.4094 -0.2018 -1.0000
 1095SOL    HW3 4147   3.241   1.657   5.309  1.0428 -0.9728 -2.0923
 1095SOL    MW4 4148   3.209   1.578   5.326  0.3322 -0.3478 -0.2790
 1096SOL     OW 4149   3.322   2.938   4.032  0.6037  0.5029 -0.0049
 1096SOL    HW2 4150   3.270   2.997   3.978 -0.8119  2.2243  2.9692
 1096SOL    HW3 4151   3.388   2.994   4.073  1.0851 -0.5295  0.6954
 1096SOL    MW4 4152   3.324   2.953   4.031  0.4804  0.5938  0.4799
 1097SOL     OW 4153   0.380   5.527   5.248  0.3519  0.1807  0.4299
 1097SOL    HW2 4154   0.399   5.452   5.304  1.9542  0.7042  0.6423
 1097SOL    HW3 4155   0.345   5.593   5.307  0.4562  0.1495  0.5272
 1097SOL    MW4 4156   0.378   5.525   5.263  0.5771  0.2456  0.4708
 1098SOL     OW 4157   0.705   5.778   2.460 -0.3474 -0.1207 -0.0967
 1098SOL    HW2 4158   0.681   5.730   2.380  0.2613  0.4158 -0.6159
 1098SOL    HW3 4159   0.777   5.835   2.433  0.0114 -0.0853  0.8951
 1098SOL    MW4 4160   0.711   5.779   2.446 -0.2198 -0.0453 -0.0343
 1099SOL     OW 4161   6.203   1.153   2.133  0.3582  0.5382  0.5593
 1099SOL    HW2 4162   6.257   1.167   2.056 -0.8936  0.5990 -0.3326
 1099SOL    HW3 4163   6.223   1.226   2.191  0.2546  1.2825 -0.3284
 1099SOL    MW4 4164   6.213   1.164   2.131  0.1794  0.6444  0.3245
 1100SOL     OW 4165   5.276   4.649   5.108  0.2065  0.0291 -0.4472
 1100SOL    HW2 4166   5.253   4.633   5.199 -0.1738  0.6013 -0.4316
 1100SOL    HW3 4167   5.245   4.738   5.091 -0.7039 -0.4501 -1.4419
 1100SOL    MW4 4168   5.269   4.659   5.118  0.0362  0.0414 -0.5764
 1101SOL     OW 4169   4.134   0.887   5.636  0.1006  0.2540 -0.7106
 1101SOL    HW2 4170   4.047   0.848   5.648  0.3591 -0.2649 -0.4819
 1101SOL    HW3 4171   4.140   0.953   5.705  0.1939 -0.2667 -0.2132
 1101SOL    MW4 4172   4.123   0.890   5.647  0.1470  0.1168 -0.6148
 1102SOL     OW 4173   3.560   1.195   2.899 -0.4704  0.0062  0.5140
 1102SOL    HW2 4174   3.496   1.205   2.969 -0.6348 -1.2069  0.5712
 1102SOL    HW3 4175   3.532   1.116   2.852  0.9659 -0.5768  0.5549
 1102SOL    MW4 4176   3.548   1.186   2.902 -0.3026 -0.2308  0.5270
 1103SOL     OW 4177   0.576   3.207   4.590 -0.7510  0.2749 -0.0583
 1103SOL    HW2 4178   0.667   3.196   4.565 -0.6965 -1.0338  0.6044
 1103SOL    HW3 4179   0.529   3.216   4.507 -0.0361  1.0032 -0.4025
 1103SOL    MW4 4180   0.582   3.207   4.576 -0.6495  0.1984 -0.0163
 1104SOL     OW 4181   5.508   5.633   1.820  0.0927  0.2393  0.0880
 1104SOL    HW2 4182   5.566   5.581   1.876 -1.7512 -1.6544  0.4007
 1104SOL    HW3 4183   5.475   5.570   1.756 -0.8769  1.4654 -0.6495
 1104SOL    MW4 4184   5.511   5.618   1.819 -0.2785  0.1512  0.0319
 1105SOL     OW 4185   0.960   5.608   0.351 -0.1817  0.3820 -0.1234
 1105SOL    HW2 4186   0.877   5.573   0.321 -0.1292  0.0185  0.1417
 1105SOL    HW3 4187   0.939   5.653   0.433 -0.1968  0.6924 -0.3002
 1105SOL    MW4 4188   0.947   5.609   0.358 -0.1768  0.3749 -0.1117
 1106SOL     OW 4189   1.345   0.835   2.507 -0.4331  0.2922  0.4516
 1106SOL    HW2 4190   1.388   0.814   2.590 -2.3934  0.9142  1.6947
 1106SOL    HW3 4191   1.394   0.910   2.473 -0.2767  0.7473  1.6274
 1106SOL    MW4 4192   1.357   0.842   2.514 -0.6711  0.4343  0.7708
 1107SOL     OW 4193   1.170   2.777   4.760 -0.3581 -0.0961 -0.6539
 1107SOL    HW2 4194   1.219   2.852   4.726  0.4877 -0.0728  0.5269
 1107SOL    HW3 4195   1.183   2.708   4.695 -0.1747  0.4345 -1.1886
 1107SOL    MW4 4196   1.178   2.777   4.747 -0.2223 -0.0230 -0.5687
 1108SOL     OW 4197   0.022   5.776   4.216  0.8802  0.1349 -0.1500
 1108SOL    HW2 4198  -0.073   5.774   4.208  0.7025 -0.2814  1.5736
 1108SOL    HW3 4199   0.042   5.712   4.284  2.6889 -2.0242 -2.5140
 1108SOL    MW4 4200   0.012   5.767   4.224  1.0954 -0.2049 -0.2345
 1109SOL     OW 4201   3.422   4.083   2.453 -0.2946 -0.1625 -0.2530
 1109SOL    HW2 4202   3.389   4.035   2.529  0.0069  0.2160  0.1184
 1109SOL    HW3 4203   3.381   4.039   2.378 -2.5808  0.9843  0.2316
 1109SOL    MW4 4204   3.412   4.071   2.453 -0.5564  0.0388 -0.1401
 1110SOL     OW 4205   3.674   0.213   5.769  0.9967  0.3577  0.5910
 1110SOL    HW2 4206   3.679   0.140   5.830 -1.6925 -0.6666 -0.2405
 1110SOL    HW3 4207   3.623   0.280   5.816  1.0144  0.5391  0.3568
 1110SOL    MW4 4208   3.668   0.212   5.783  0.6443  0.2465  0.4504
 1111SOL     OW 4209   0.899   0.632   2.282 -0.7685 -0.0297  0.0829
 1111SOL    HW2 4210   0.872   0.651   2.371 -1.6293  1.4480 -0.4549
 1111SOL    HW3 4211   0.990   0.662   2.277 -1.5308  2.4125 -0.2218
 1111SOL    MW4 4212   0.907   0.638   2.293 -0.9827  0.4874 -0.0283
 1112SOL     OW 4213   6.060   3.962   5.840 -0.2692  0.2901 -0.0965
 1112SOL    HW2 4214   6.103   3.944   5.756 -0.3122  1.3161 -0.3447
 1112SOL    HW3 4215   6.068   3.879   5.888  1.3036  0.2050 -0.4231
 1112SOL    MW4 4216   6.067   3.948   5.835 -0.0673  0.4142 -0.1723
 1113SOL     OW 4217   0.889   3.087   1.278  0.6476  0.1826  0.8056
 1113SOL    HW2 4218   0.971   3.137   1.275  0.6947  0.0938  0.6344
 1113SOL    HW3 4219   0.869   3.068   1.187 -0.1897  1.2119  0.7530
 1113SOL    MW4 4220   0.897   3.092   1.266  0.5434  0.3067  0.7760
 1114SOL     OW 4221   3.271   2.283   0.134  0.0314  0.0846 -1.0560
 1114SOL    HW2 4222   3.232   2.223   0.070 -1.4823  0.7584 -0.7885
 1114SOL    HW3 4223   3.216   2.275   0.212 -0.5962  2.2433 -1.2084
 1114SOL    MW4 4224   3.259   2.274   0.136 -0.2511  0.4583 -1.0408
 1115SOL     OW 4225   1.314   1.029   4.394 -0.1699  0.1985  0.0237
 1115SOL    HW2 4226   1.257   1.046   4.319  2.0290  2.3885 -1.2894
 1115SOL    HW3 4227   1.386   0.978   4.359  0.0543 -0.1907  1.0290
 1115SOL    MW4 4228   1.316   1.025   4.380  0.1498  0.4361 -0.0169
 1116SOL     OW 4229   6.255   2.335   2.600  0.2726 -0.2759  0.1577
 1116SOL    HW2 4230   6.251   2.309   2.692  1.4416  0.8346  0.5584
 1116SOL    HW3 4231   6.168   2.371   2.581 -0.1277 -0.9396  0.6723
 1116SOL    MW4 4232   6.243   2.336   2.610  0.3740 -0.2169  0.2784
 1117SOL     OW 4233   1.122   1.570   0.652 -0.5451 -0.0465  0.9392
 1117SOL    HW2 4234   1.186   1.499   0.645  0.3475  0.6988  1.3619
 1117SOL    HW3 4235   1.171   1.649   0.627 -1.5588  0.4044  0.3352
 1117SOL    MW4 4236   1.137   1.571   0.648 -0.5610  0.1113  0.9153
 1118SOL     OW 4237   2.233   0.655   0.737 -0.4499 -0.0363 -0.3988
 1118SOL    HW2 4238   2.149   0.620   0.767 -0.5620  0.4228 -0.1641
 1118SOL    HW3 4239   2.213   0.699   0.654 -0.5564  0.5681 -0.0595
 1118SOL    MW4 4240   2.219   0.656   0.730 -0.4787  0.1040 -0.3231
 1119SOL     OW 4241   3.560   0.875   1.644  0.3287 -0.2332 -0.4934
 1119SOL    HW2 4242   3.633   0.832   1.599  2.2322  1.6641  0.6528
 1119SOL    HW3 4243   3.571   0.852   1.736  1.0149  2.0752  0.0603
 1119SOL    MW4 4244   3.571   0.866   1.650  0.6704  0.3217 -0.2691
 1120SOL     OW 4245   3.345   0.431   5.075  0.3165 -0.6763 -0.2429
 1120SOL    HW2 4246   3.348   0.523   5.049 -0.6669 -0.2163  1.2145
 1120SOL    HW3 4247   3.308   0.431   5.163  0.7291 -2.4387 -0.0258
 1120SOL    MW4 4248   3.341   0.443   5.083  0.2412 -0.8481 -0.0220
 1121SOL     OW 4249   0.394   6.053   0.446 -0.2551 -0.1004  0.4598
 1121SOL    HW2 4250   0.331   6.011   0.504 -0.4208  0.2180  0.5136
 1121SOL    HW3 4251   0.440   5.980   0.403 -0.4583 -0.3335  0.6359
 1121SOL    MW4 4252   0.392   6.038   0.448 -0.3038 -0.0892  0.4901
 1122SOL     OW 4253   2.109   0.430   6.137 -0.2887 -0.5898 -0.5533
 1122SOL    HW2 4254   2.194   0.466   6.163 -1.5643  0.6613  2.4026
 1122SOL    HW3 4255   2.064   0.503   6.095 -0.8870 -0.3350  0.4863
 1122SOL    MW4 4256   2.114   0.444   6.135 -0.5360 -0.3911 -0.0262
 1123SOL     OW 4257   3.209   4.718   1.926 -0.1795 -0.2553  0.2528
 1123SOL    HW2 4258   3.279   4.673   1.973  1.0546  2.0036  0.7070
 1123SOL    HW3 4259   3.233   4.713   1.834  0.5244  0.3835  0.3955
 1123SOL    MW4 4260   3.221   4.711   1.920  0.0762  0.1271  0.3315
 1124SOL     OW 4261   2.133   1.787   4.364 -0.1944 -0.0931  0.1657
 1124SOL    HW2 4262   2.223   1.820   4.375 -0.6357  0.8720  0.9844
 1124SOL    HW3 4263   2.144   1.693   4.348  1.0604  0.2964 -1.6463
 1124SOL    MW4 4264   2.147   1.779   4.363 -0.0870  0.0856  0.0346
 1125SOL     OW 4265   5.186   3.651   6.384 -0.2963  0.1289  0.0768
 1125SOL    HW2 4266   5.184   3.676   6.292 -0.2866 -2.2234 -0.6365
 1125SOL    HW3 4267   5.097   3.622   6.403 -0.5695  1.5449  1.1468
 1125SOL    MW4 4268   5.174   3.650   6.374 -0.3310  0.0053  0.1238
 1126SOL     OW 4269   4.072   0.774   3.856  0.4310  0.0309 -0.1218
 1126SOL    HW2 4270   4.163   0.790   3.880  0.2922 -0.4290  0.7522
 1126SOL    HW3 4271   4.071   0.685   3.821  0.5731  0.5790 -1.6024
 1126SOL    MW4 4272   4.084   0.764   3.854  0.4314  0.0426 -0.2018
 1127SOL     OW 4273   2.700   0.426   1.048  0.1340  0.1184  0.2027
 1127SOL    HW2 4274   2.715   0.360   0.981  1.7254  0.6143  0.0152
 1127SOL    HW3 4275   2.619   0.469   1.022 -1.3293 -2.1722  0.7276
 1127SOL    MW4 4276   2.691   0.423   1.036  0.1509 -0.1184  0.2472
 1128SOL     OW 4277   0.107   2.289   1.559  0.1606  0.3343  0.2722
 1128SOL    HW2 4278   0.076   2.206   1.597 -1.2456  1.5838  2.0791
 1128SOL    HW3 4279   0.192   2.304   1.600  0.0657  0.1481  0.5421
 1128SOL    MW4 4280   0.114   2.280   1.570 -0.0375  0.4746  0.5462
 1129SOL     OW 4281   1.273   2.840   0.309  0.0809 -0.2690  0.1517
 1129SOL    HW2 4282   1.350   2.836   0.252  0.7544  1.9073  0.7795
 1129SOL    HW3 4283   1.199   2.817   0.252  1.1421 -2.0969 -0.5367
 1129SOL    MW4 4284   1.273   2.837   0.294  0.3098 -0.2230  0.1437
 1130SOL     OW 4285   6.409   5.566   3.229 -0.2767  0.1601 -0.0113
 1130SOL    HW2 4286   6.361   5.509   3.170  0.6658  0.9659 -1.6357
 1130SOL    HW3 4287   6.500   5.539   3.221  0.2663  2.0918 -1.1693
 1130SOL    MW4 4288   6.415   5.555   3.220 -0.0807  0.5213 -0.3784
 1131SOL     OW 4289   0.552   1.747   4.486 -0.3013 -0.0210 -0.3614
 1131SOL    HW2 4290   0.481   1.776   4.429 -0.1480  1.8978  0.3477
 1131SOL    HW3 4291   0.631   1.757   4.433 -0.3999 -0.6306 -0.6259
 1131SOL    MW4 4292   0.553   1.752   4.472 -0.2941  0.1517 -0.3027
 1132SOL     OW 4293   0.665   5.514   4.252  0.0900  0.1111  0.0489
 1132SOL    HW2 4294   0.755   5.494   4.227  0.1345 -0.5391  0.7036
 1132SOL    HW3 4295   0.665   5.513   4.347 -0.2520  1.7913  0.0902
 1132SOL    MW4 4296   0.676   5.511   4.261  0.0507  0.2470  0.1407
 1133SOL     OW 4297   3.555   2.636   5.810 -0.2829  0.1091  0.1098
 1133SOL    HW2 4298   3.497   2.605   5.879  0.8343  0.3903  1.2145
 1133SOL    HW3 4299   3.637   2.589   5.824 -0.2080 -0.2442 -1.3870
 1133SOL    MW4 4300   3.558   2.626   5.821 -0.1256  0.0996  0.0581
 1134SOL     OW 4301   1.973   1.523   2.277 -0.0293  0.1525  0.4235
 1134SOL    HW2 4302   1.921   1.552   2.352  0.4780 -0.4710  1.0215
 1134SOL    HW3 4303   2.064   1.526   2.308  0.0321 -2.4746  0.6619
 1134SOL    MW4 4304   1.978   1.527   2.291  0.0457 -0.2763  0.5339
 1135SOL     OW 4305   2.712   4.894   5.237 -0.3568  0.0914  0.3069
 1135SOL    HW2 4306   2.668   4.847   5.307 -1.9765  0.1923 -0.6056
 1135SOL    HW3 4307   2.752   4.970   5.281  0.6996 -1.0884  1.4699
 1135SOL    MW4 4308   2.712   4.898   5.252 -0.4311 -0.0509  0.3399
 1136SOL     OW 4309   5.642   3.701   3.765 -0.5998  0.1781  0.2294
 1136SOL    HW2 4310   5.620   3.726   3.675 -1.8422  0.7435  0.6670
 1136SOL    HW3 4311   5.698   3.625   3.756 -2.3658 -1.0539 -0.9964
 1136SOL    MW4 4312   5.646   3.695   3.752 -0.9967  0.0901  0.1254
 1137SOL     OW 4313   2.723   3.096   1.762 -0.0917 -0.2195  0.3819
 1137SOL    HW2 4314   2.795   3.065   1.707 -0.7591 -0.5775 -0.3114
 1137SOL    HW3 4315   2.705   3.024   1.822 -0.4579 -0.4879 -0.0430
 1137SOL    MW4 4316   2.730   3.083   1.762 -0.2281 -0.3022  0.2344
 1138SOL     OW 4317   3.256   5.953   3.165 -0.2572 -0.1632 -0.3094
 1138SOL    HW2 4318   3.321   6.013   3.128  0.9028 -1.4931 -0.5607
 1138SOL    HW3 4319   3.174   5.975   3.120  0.1138  1.2487 -0.3306
 1138SOL    MW4 4320   3.254   5.964   3.154 -0.0552 -0.1523 -0.3454
 1139SOL     OW 4321   5.994   5.798   0.678 -0.0416  0.4509  0.1293
 1139SOL    HW2 4322   5.943   5.718   0.662  1.2889 -0.4312  0.2251
 1139SOL    HW3 4323   5.977   5.852   0.601 -2.9986  1.2428  1.1868
 1139SOL    MW4 4324   5.985   5.795   0.666 -0.2562  0.4390  0.2815
 1140SOL     OW 4325   0.097   1.060   0.405  0.3580  0.9886  0.0828
 1140SOL    HW2 4326   0.160   1.018   0.463  1.0616  0.1829 -1.1975
 1140SOL    HW3 4327   0.123   1.030   0.317 -0.0359  2.9394 -0.7420
 1140SOL    MW4 4328   0.109   1.050   0.401  0.3989  1.1397 -0.1949
 1141SOL     OW 4329   0.855   4.238   1.660  0.3815 -0.4606  0.6387
 1141SOL    HW2 4330   0.851   4.295   1.583 -0.2689 -1.1957  0.1213
 1141SOL    HW3 4331   0.804   4.284   1.726  0.4370 -0.1128  0.4439
 1141SOL    MW4 4332   0.848   4.252   1.658  0.3030 -0.5117  0.5448
 1142SOL     OW 4333   1.874   1.893   1.902  0.2229  0.1397  0.1993
 1142SOL    HW2 4334   1.853   1.815   1.850  0.0283 -0.6269  1.3945
 1142SOL    HW3 4335   1.963   1.877   1.933  1.1618  1.5450 -1.5432
 1142SOL    MW4 4336   1.883   1.881   1.899  0.3211  0.2240  0.1271
 1143SOL     OW 4337   4.613   4.532   2.792 -0.1785 -0.0301 -0.3978
 1143SOL    HW2 4338   4.634   4.592   2.864  0.0496 -0.7395  0.1271
 1143SOL    HW3 4339   4.660   4.569   2.717 -0.0669  0.4717 -0.0895
 1143SOL    MW4 4340   4.622   4.545   2.792 -0.1337 -0.0575 -0.2879
 1144SOL     OW 4341   5.483   0.682   6.064 -0.0015 -0.0763 -0.0293
 1144SOL    HW2 4342   5.422   0.639   6.125 -0.0148  1.0057  0.7452
 1144SOL    HW3 4343   5.556   0.710   6.120  0.1088  0.7076 -0.5626
 1144SOL    MW4 4344   5.485   0.680   6.079  0.0113  0.1699  0.0025
 1145SOL     OW 4345   2.903   0.073   2.529 -0.0465  0.1760  0.1585
 1145SOL    HW2 4346   2.908   0.156   2.577 -0.8557  0.6321 -0.5141
 1145SOL    HW3 4347   2.908   0.005   2.597 -0.0315  0.7894  0.7772
 1145SOL    MW4 4348   2.904   0.075   2.545 -0.1513  0.3171  0.1514
 1146SOL     OW 4349   0.640   5.971   4.307  0.1803  0.0315  0.0092
 1146SOL    HW2 4350   0.606   6.041   4.250  0.6699  1.1753  1.0948
 1146SOL    HW3 4351   0.728   6.000   4.331  0.4249 -1.0120  0.4075
 1146SOL    MW4 4352   0.647   5.984   4.302  0.2772  0.0448  0.2050
 1147SOL     OW 4353   0.893   1.612   3.562  0.2797 -0.1736  0.3699
 1147SOL    HW2 4354   0.849   1.546   3.508 -0.6696  0.8590 -0.1388
 1147SOL    HW3 4355   0.982   1.578   3.574  0.8911  0.0967 -2.7615
 1147SOL    MW4 4356   0.899   1.599   3.557  0.2351 -0.0017 -0.1103
 1148SOL     OW 4357   3.780   4.931   6.153  0.1384 -0.1481  0.2333
 1148SOL    HW2 4358   3.772   5.026   6.156  1.5120 -0.0247  1.9926
 1148SOL    HW3 4359   3.818   4.908   6.238  1.0640 -2.1348 -0.6625
 1148SOL    MW4 4360   3.784   4.941   6.165  0.4417 -0.3940  0.3472
 1149SOL     OW 4361   4.227   2.285   6.491  0.1883 -0.1953  0.4908
 1149SOL    HW2 4362   4.280   2.206   6.499  0.2827 -0.0198  2.0886
 1149SOL    HW3 4363   4.263   2.344   6.557 -0.5794  0.7691  0.0680
 1149SOL    MW4 4364   4.239   2.282   6.501  0.0995 -0.0449  0.6458
 1150SOL     OW 4365   6.001   2.227   4.269  0.1204 -0.2237 -0.0696
 1150SOL    HW2 4366   6.017   2.311   4.313 -1.3130  0.6125 -1.0564
 1150SOL    HW3 4367   6.062   2.166   4.311  2.0162  1.5352 -0.0800
 1150SOL    MW4 4368   6.011   2.230   4.280  0.1814  0.1187 -0.2012
 1151SOL     OW 4369   4.277   4.033   4.278  0.1390  0.0288  0.8954
 1151SOL    HW2 4370   4.322   3.957   4.316  2.2926  1.0217  0.4310
 1151SOL    HW3 4371   4.337   4.106   4.290  0.2942  0.7479 -2.9028
 1151SOL    MW4 4372   4.290   4.032   4.285  0.4436  0.2547  0.3330
 1152SOL     OW 4373   4.099   0.395   1.361 -0.0915 -0.4879  0.8858
 1152SOL    HW2 4374   4.038   0.365   1.429 -0.2814  0.3158  1.0812
 1152SOL    HW3 4375   4.048   0.458   1.310  0.9925  1.3723  1.9878
 1152SOL    MW4 4376   4.084   0.399   1.363  0.0265 -0.1364  1.0570
 1153SOL     OW 4377   1.308   4.750   2.612  0.4428 -0.4242 -0.2820
 1153SOL    HW2 4378   1.343   4.834   2.581 -1.5447  1.4197  2.0458
 1153SOL    HW3 4379   1.281   4.704   2.533  2.4945  0.6500 -1.7010
 1153SOL    MW4 4380   1.309   4.755   2.598  0.4512 -0.0392 -0.1621
 1154SOL     OW 4381   4.871   1.006   3.963  0.1205 -0.2230  0.1624
 1154SOL    HW2 4382   4.938   0.963   3.910 -0.3435 -1.3151  0.4261
 1154SOL    HW3 4383   4.795   0.948   3.958 -0.0141 -0.2596  1.8456
 1154SOL    MW4 4384   4.870   0.993   3.956  0.0415 -0.3719  0.4192
 1155SOL     OW 4385   5.198   2.539   5.358  0.3259 -0.0169  0.6573
 1155SOL    HW2 4386   5.216   2.575   5.271 -1.1343 -0.4077  0.1742
 1155SOL    HW3 4387   5.226   2.609   5.418 -1.4822  1.5720 -0.2287
 1155SOL    MW4 4388   5.204   2.553   5.355 -0.1053  0.1412  0.4767
 1156SOL     OW 4389   3.088   0.302   3.865  0.2152 -0.2500  0.2281
 1156SOL    HW2 4390   3.035   0.318   3.787  1.5409 -0.0478 -0.6789
 1156SOL    HW3 4391   3.168   0.353   3.850 -0.1495  1.1179  2.4786
 1156SOL    MW4 4392   3.092   0.311   3.853  0.3420 -0.0429  0.4054
 1157SOL     OW 4393   1.993   0.490   5.725  0.2972  0.1037 -0.5430
 1157SOL    HW2 4394   2.043   0.410   5.712 -0.8213 -0.8610  0.7632
 1157SOL    HW3 4395   2.037   0.556   5.671  1.1871 -1.3995 -1.7072
 1157SOL    MW4 4396   2.005   0.488   5.716  0.2671 -0.2219 -0.5243
 1158SOL     OW 4397   5.688   6.036   0.337 -0.3968  0.2401 -0.2503
 1158SOL    HW2 4398   5.730   6.028   0.251  0.6770 -0.5126  0.3206
 1158SOL    HW3 4399   5.734   6.109   0.379  1.5447 -1.5755  0.9854
 1158SOL    MW4 4400   5.700   6.045   0.331  0.0010 -0.0987 -0.0119
 1159SOL     OW 4401   2.553   0.090   1.518  0.1348 -0.0715  0.7043
 1159SOL    HW2 4402   2.528   0.067   1.608 -1.3738  0.0921  0.3599
 1159SOL    HW3 4403   2.643   0.119   1.525  0.9609 -2.5591  1.7623
 1159SOL    MW4 4404   2.561   0.091   1.531  0.0447 -0.3782  0.7984
 1160SOL     OW 4405   4.982   0.977   1.032 -0.1852  0.6129  0.0216
 1160SOL    HW2 4406   5.047   1.036   0.993 -1.0217  1.4426 -0.1620
 1160SOL    HW3 4407   4.952   1.022   1.111 -0.3608  0.1200  0.2446
 1160SOL    MW4 4408   4.987   0.991   1.037 -0.3187  0.6573  0.0268
 1161SOL     OW 4409   0.203   3.450   1.720  0.2333 -0.2294 -0.5615
 1161SOL    HW2 4410   0.122   3.462   1.670 -0.5351  0.5110  0.7963
 1161SOL    HW3 4411   0.192   3.365   1.762 -0.8124  0.7256  1.2376
 1161SOL    MW4 4412   0.191   3.440   1.719 -0.0061 -0.0057 -0.1449
 1162SOL     OW 4413   5.284   4.762   6.235 -0.1667  0.1029  0.0890
 1162SOL    HW2 4414   5.209   4.722   6.191 -0.3364 -0.2633  0.6958
 1162SOL    HW3 4415   5.248   4.801   6.314  0.4365 -1.0759  0.9838
 1162SOL    MW4 4416   5.270   4.762   6.240 -0.1095 -0.1010  0.2871
 1163SOL     OW 4417   5.119   5.136   1.871  1.0164  0.0748 -0.5232
 1163SOL    HW2 4418   5.082   5.217   1.907 -1.2192 -1.6052  1.2444
 1163SOL    HW3 4419   5.046   5.097   1.823  1.5495 -1.6361  0.0089
 1163SOL    MW4 4420   5.104   5.142   1.869  0.7918 -0.3726 -0.2198
 1164SOL     OW 4421   1.707   3.571   2.797 -0.0209 -0.0001 -0.1776
 1164SOL    HW2 4422   1.745   3.625   2.866 -0.3749 -0.0150  0.0263
 1164SOL    HW3 4423   1.701   3.483   2.835 -0.5357  0.0657 -0.1116
 1164SOL    MW4 4424   1.711   3.567   2.811 -0.1355  0.0066 -0.1420
 1165SOL     OW 4425   2.111   1.928   2.021 -0.0102  0.5635 -0.2519
 1165SOL    HW2 4426   2.116   1.924   2.116  1.7002 -0.0712 -0.3415
 1165SOL    HW3 4427   2.072   2.014   2.002  1.9915  1.8235  0.9858
 1165SOL    MW4 4428   2.106   1.939   2.031  0.4795  0.6460 -0.1005
 1166SOL     OW 4429   5.061   3.070   1.353  0.2550 -0.4486 -0.6118
 1166SOL    HW2 4430   5.138   3.015   1.366  1.2875  1.2233  0.8363
 1166SOL    HW3 4431   5.054   3.080   1.258  2.7700  0.5453 -0.7737
 1166SOL    MW4 4432   5.071   3.064   1.342  0.7231 -0.0969 -0.4421
 1167SOL     OW 4433   5.324   0.751   5.552 -0.2806  0.4366 -0.6942
 1167SOL    HW2 4434   5.319   0.750   5.647  2.3837 -2.0647 -0.4493
 1167SOL    HW3 4435   5.331   0.844   5.529 -3.0523  1.2649  1.2607
 1167SOL    MW4 4436   5.324   0.763   5.561 -0.2948  0.2159 -0.4040
 1168SOL     OW 4437   1.051   0.081   2.671 -0.0173 -0.6238 -0.1420
 1168SOL    HW2 4438   1.046   0.135   2.749 -0.9947  0.6578 -1.0519
 1168SOL    HW3 4439   1.135   0.104   2.631  0.4330 -1.2009  0.4554
 1168SOL    MW4 4440   1.062   0.091   2.676 -0.0869 -0.5309 -0.1832
 1169SOL     OW 4441   6.191   3.132   4.909  0.3101 -0.2806 -0.3387
 1169SOL    HW2 4442   6.112   3.148   4.961 -1.5042 -2.3720 -2.2408
 1169SOL    HW3 4443   6.262   3.170   4.961 -2.1107  3.7236  0.4703
 1169SOL    MW4 4444   6.190   3.140   4.923 -0.2487 -0.0283 -0.4829
 1170SOL     OW 4445   4.198   4.709   4.061  0.4350 -0.2492  0.2676
 1170SOL    HW2 4446   4.122   4.661   4.029  1.7003 -1.2688 -1.3872
 1170SOL    HW3 4447   4.218   4.772   3.991  1.9377 -1.0002 -0.0279
 1170SOL    MW4 4448   4.191   4.711   4.047  0.8002 -0.4828  0.0103
 1171SOL     OW 4449   4.699   2.776   1.907  0.7250  0.3050 -0.1064
 1171SOL    HW2 4450   4.744   2.839   1.963 -1.4796  0.1977  1.9717
 1171SOL    HW3 4451   4.647   2.829   1.847  0.9778  0.4473 -0.1991
 1171SOL    MW4 4452   4.698   2.791   1.907  0.4675  0.3097  0.1556
 1172SOL     OW 4453   3.490   3.566   2.789  0.6755 -0.1813 -0.6905
 1172SOL    HW2 4454   3.487   3.609   2.704  1.9623  0.8788 -0.2251
 1172SOL    HW3 4455   3.573   3.592   2.827 -0.2550  0.1283  1.2836
 1172SOL    MW4 4456   3.500   3.575   2.783  0.7225 -0.0005 -0.3686
 1173SOL     OW 4457   2.763   0.003   2.195 -0.6209  0.0186  0.2754
 1173SOL    HW2 4458   2.760  -0.008   2.100 -0.2181 -2.0364  0.4511
 1173SOL    HW3 4459   2.854  -0.015   2.219 -0.8465 -0.1058  1.0944
 1173SOL    MW4 4460   2.775  -0.001   2.186 -0.5975 -0.2689  0.4066
 1174SOL     OW 4461   3.788   5.422   4.629 -0.2949  0.0608 -0.3459
 1174SOL    HW2 4462   3.836   5.475   4.566  0.7803  0.8178  1.0456
 1174SOL    HW3 4463   3.814   5.457   4.715 -1.3226 -1.2399  0.5431
 1174SOL    MW4 4464   3.798   5.434   4.632 -0.2887 -0.0109 -0.0450
 1175SOL     OW 4465   2.822   0.825   3.411 -0.4506 -0.2390 -0.2991
 1175SOL    HW2 4466   2.760   0.875   3.359 -0.1520  0.0536 -0.3746
 1175SOL    HW3 4467   2.818   0.737   3.373 -1.6089 -0.5018  0.3867
 1175SOL    MW4 4468   2.813   0.820   3.399 -0.5640 -0.2351 -0.2186
 1176SOL     OW 4469   0.948   1.285   3.555  0.2281 -0.5122  0.6072
 1176SOL    HW2 4470   1.020   1.318   3.501  0.2196  0.1652  1.0006
 1176SOL    HW3 4471   0.933   1.196   3.522  0.2551 -0.1394 -0.4765
 1176SOL    MW4 4472   0.956   1.277   3.543  0.2306 -0.3736  0.5161
 1177SOL     OW 4473   2.580   1.889   3.693 -0.4570 -0.3353  0.2054
 1177SOL    HW2 4474   2.573   1.954   3.763  0.5418 -1.5153  1.4551
 1177SOL    HW3 4475   2.593   1.806   3.738 -2.2499 -1.5431 -1.3235
 1177SOL    MW4 4476   2.580   1.887   3.708 -0.5618 -0.6503  0.1686
 1178SOL     OW 4477   5.290   2.761   5.516 -0.7214  0.5339 -0.5948
 1178SOL    HW2 4478   5.347   2.771   5.439 -0.0207  0.0848 -0.1461
 1178SOL    HW3 4479   5.239   2.842   5.519 -0.3818  0.7800 -1.2273
 1178SOL    MW4 4480   5.291   2.773   5.506 -0.5842  0.5071 -0.6191
 1179SOL     OW 4481   5.714   2.531   4.934 -0.5211 -0.0490  0.1430
 1179SOL    HW2 4482   5.784   2.467   4.949 -1.8714 -1.5122  0.4676
 1179SOL    HW3 4483   5.732   2.566   4.847  0.2117 -0.9438 -0.0878
 1179SOL    MW4 4484   5.726   2.527   4.925 -0.6026 -0.3601  0.1554
 1180SOL     OW 4485   3.573   3.735   4.402  0.5103 -0.0559  0.1180
 1180SOL    HW2 4486   3.586   3.731   4.307 -1.8174  0.2631 -0.2838
 1180SOL    HW3 4487   3.486   3.698   4.415  0.5641  0.4157  2.0885
 1180SOL    MW4 4488   3.563   3.729   4.391  0.2103  0.0484  0.3250
 1181SOL     OW 4489   6.210   1.215   0.124 -0.5934  0.7542 -0.0831
 1181SOL    HW2 4490   6.165   1.168   0.194 -1.1819  1.4139 -0.0149
 1181SOL    HW3 4491   6.143   1.229   0.057 -0.6889  2.3317  0.3084
 1181SOL    MW4 4492   6.195   1.211   0.124 -0.6836  1.0493 -0.0225
 1182SOL     OW 4493   4.835   0.996   2.594 -0.0778 -0.0512 -0.0424
 1182SOL    HW2 4494   4.739   1.001   2.590 -0.1228  0.3377  1.1998
 1182SOL    HW3 4495   4.864   1.071   2.541 -0.5122  1.1767  1.3800
 1182SOL    MW4 4496   4.826   1.007   2.586 -0.1411  0.1621  0.3092
 1183SOL     OW 4497   4.568   0.211   0.808 -0.5047 -0.4718 -0.1815
 1183SOL    HW2 4498   4.519   0.289   0.783  0.6775  0.7223  1.0776
 1183SOL    HW3 4499   4.640   0.207   0.745  0.3542  0.4074  0.7182
 1183SOL    MW4 4500   4.571   0.220   0.796 -0.2354 -0.1983  0.1033
 1184SOL     OW 4501   0.786   3.336   0.943 -0.3333  0.0891 -0.1442
 1184SOL    HW2 4502   0.875   3.304   0.929 -0.4610 -0.1199 -0.4826
 1184SOL    HW3 4503   0.753   3.286   1.018 -0.0381  0.4309  0.2207
 1184SOL    MW4 4504   0.793   3.325   0.951 -0.3112  0.1066 -0.1407
 1185SOL     OW 4505   1.915   5.927   0.067  0.3923  0.1601 -0.1013
 1185SOL    HW2 4506   1.841   5.934   0.128  0.2402  0.3090 -0.3012
 1185SOL    HW3 4507   1.874   5.905  -0.017  0.4148  1.9358 -0.6002
 1185SOL    MW4 4508   1.900   5.925   0.064  0.3752  0.4141 -0.1935
 1186SOL     OW 4509   1.932   5.735   2.777 -0.6713  0.1660 -0.0341
 1186SOL    HW2 4510   1.874   5.670   2.737  0.3910 -0.0820 -1.2310
 1186SOL    HW3 4511   1.998   5.753   2.710  0.9334  0.0658  1.4553
 1186SOL    MW4 4512   1.933   5.729   2.763 -0.3194  0.1200  0.0045
 1187SOL     OW 4513   2.421   0.492   5.087  0.3843  0.2154 -0.0775
 1187SOL    HW2 4514   2.504   0.530   5.115 -0.4811  1.1749  1.3149
 1187SOL    HW3 4515   2.391   0.442   5.162  0.5369 -1.6415 -1.2094
 1187SOL    MW4 4516   2.428   0.491   5.100  0.2903  0.0970 -0.0431
 1188SOL     OW 4517   3.217   4.935   4.446 -0.2142 -0.4259  0.1895
 1188SOL    HW2 4518   3.150   4.985   4.493 -0.9636 -0.2684 -0.9909
 1188SOL    HW3 4519   3.300   4.972   4.475 -0.7251  0.9208  0.0127
 1188SOL    MW4 4520   3.219   4.947   4.456 -0.3805 -0.2274  0.0105
 1189SOL     OW 4521   6.055   0.646   5.281 -0.1219 -0.6391  0.5492
 1189SOL    HW2 4522   6.068   0.737   5.252 -0.5416  0.1287  2.5995
 1189SOL    HW3 4523   6.110   0.594   5.222  0.9682  1.0565 -0.0090
 1189SOL    MW4 4524   6.064   0.651   5.269 -0.0335 -0.3141  0.7461
 1190SOL     OW 4525   1.496   2.867   3.700  0.0418 -0.1571  0.0161
 1190SOL    HW2 4526   1.432   2.817   3.750 -0.8717 -0.0017 -0.9599
 1190SOL    HW3 4527   1.448   2.944   3.669  0.7163  0.0040 -0.6648
 1190SOL    MW4 4528   1.481   2.871   3.702  0.0103 -0.1154 -0.2025
 1191SOL     OW 4529   5.997   0.589   4.532  0.3763  0.3057  0.3417
 1191SOL    HW2 4530   5.948   0.510   4.556 -1.8053  1.1438 -1.1268
 1191SOL    HW3 4531   6.003   0.639   4.614 -1.6839  0.3928  0.4806
 1191SOL    MW4 4532   5.991   0.585   4.546 -0.1833  0.4278  0.1663
 1192SOL     OW 4533   5.345   2.248   1.497  0.1077  0.3927  0.0179
 1192SOL    HW2 4534   5.357   2.343   1.509  0.8772  0.3718 -0.4954
 1192SOL    HW3 4535   5.273   2.241   1.435 -0.1678  0.6321  0.3057
 1192SOL    MW4 4536   5.337   2.260   1.490  0.1729  0.4215 -0.0118
 1193SOL     OW 4537   0.415   5.425   1.975  0.6322 -0.3568 -0.1910
 1193SOL    HW2 4538   0.341   5.485   1.969  1.0342  0.1059 -0.5265
 1193SOL    HW3 4539   0.376   5.338   1.964 -0.3726 -0.4293  2.9796
 1193SOL    MW4 4540   0.400   5.421   1.973  0.5527 -0.3053  0.1831
 1194SOL     OW 4541   4.334   3.677   1.334 -0.3278 -0.2459 -0.1574
 1194SOL    HW2 4542   4.316   3.770   1.349 -1.2094 -0.5069  0.4788
 1194SOL    HW3 4543   4.368   3.674   1.244  0.7695  0.8137  0.1883
 1194SOL    MW4 4544   4.336   3.689   1.324 -0.2993 -0.1406 -0.0278
 1195SOL     OW 4545   6.243   4.335   3.295 -0.1353  0.3384 -0.0526
 1195SOL    HW2 4546   6.152   4.343   3.324 -0.3913 -1.5310 -0.1835
 1195SOL    HW3 4547   6.247   4.248   3.253  1.1309  1.3748 -2.2548
 1195SOL    MW4 4548   6.231   4.324   3.293 -0.0020  0.2285 -0.3604
 1196SOL     OW 4549   1.200   3.184   4.809  0.4931  0.0466 -0.1556
 1196SOL    HW2 4550   1.108   3.184   4.783 -0.0050 -0.1577  1.5078
 1196SOL    HW3 4551   1.243   3.126   4.746 -0.6896 -0.5790 -0.4058
 1196SOL    MW4 4552   1.194   3.176   4.797  0.2713 -0.0629  0.0309
 1197SOL     OW 4553   5.390   5.863   1.987 -0.3634  0.5098 -0.2525
 1197SOL    HW2 4554   5.360   5.901   1.905 -0.0170  0.1886 -0.5325
 1197SOL    HW3 4555   5.464   5.807   1.962 -0.2773  0.3836  0.2714
 1197SOL    MW4 4556   5.396   5.861   1.973 -0.3063  0.4508 -0.2203
 1198SOL     OW 4557   1.659   5.022   3.789 -0.2113  0.6067  0.0581
 1198SOL    HW2 4558   1.589   5.006   3.726  0.3645  0.2208 -0.4901
 1198SOL    HW3 4559   1.655   4.947   3.849 -0.3064  0.6177  0.0654
 1198SOL    MW4 4560   1.649   5.010   3.789 -0.1479  0.5572 -0.0133
 1199SOL     OW 4561   3.512   3.821   5.156 -0.0452  0.1120 -0.0067
 1199SOL    HW2 4562   3.467   3.904   5.140  0.4517  0.6349  1.1840
 1199SOL    HW3 4563   3.444   3.754   5.145 -0.1483  0.5177 -2.3650
 1199SOL    MW4 4564   3.497   3.823   5.153  0.0068  0.2345 -0.1607
 1200SOL     OW 4565   3.143   5.956   1.777 -0.0197 -0.2027 -0.2245
 1200SOL    HW2 4566   3.153   5.982   1.869  1.0673  0.3053 -0.4665
 1200SOL    HW3 4567   3.091   6.026   1.739  1.2063  0.6465 -0.4170
 1200SOL    MW4 4568   3.138   5.969   1.784  0.2855 -0.0237 -0.2819
 1201SOL     OW 4569   6.139   1.523   4.273 -0.1176  0.2359 -0.1494
 1201SOL    HW2 4570   6.181   1.591   4.220  0.4104 -0.1778 -0.2713
 1201SOL    HW3 4571   6.067   1.491   4.219  1.3659 -1.3039 -1.3573
 1201SOL    MW4 4572   6.135   1.528   4.259  0.1478 -0.0219 -0.3249
 1202SOL     OW 4573   4.494   1.985   4.907 -0.0377 -0.3788 -0.4138
 1202SOL    HW2 4574   4.414   2.035   4.924  1.3724  2.2784 -1.1810
 1202SOL    HW3 4575   4.491   1.914   4.971 -1.2242  1.7500  2.0909
 1202SOL    MW4 4576   4.483   1.982   4.917 -0.0082  0.2527 -0.1845
 1203SOL     OW 4577   1.471   0.601   2.268  0.0220  0.0719 -0.0079
 1203SOL    HW2 4578   1.452   0.651   2.189  0.0134 -2.7846 -1.9590
 1203SOL    HW3 4579   1.565   0.613   2.282  0.4778 -1.1005 -1.7951
 1203SOL    MW4 4580   1.481   0.610   2.259  0.0810 -0.4597 -0.5011
 1204SOL     OW 4581   4.159   6.338   3.309  0.1886 -0.1551 -0.6252
 1204SOL    HW2 4582   4.093   6.341   3.378 -0.2389 -0.0040 -1.0413
 1204SOL    HW3 4583   4.235   6.383   3.347  0.1032 -0.4436 -0.0996
 1204SOL    MW4 4584   4.160   6.344   3.323  0.1209 -0.1732 -0.6108
 1205SOL     OW 4585   1.102   2.326   5.387 -0.1484  0.1745  0.5987
 1205SOL    HW2 4586   1.159   2.261   5.428 -0.2643 -0.1266  0.2858
 1205SOL    HW3 4587   1.053   2.278   5.320 -0.6458  0.4625  0.7426
 1205SOL    MW4 4588   1.103   2.311   5.383 -0.2293  0.1728  0.5764
 1206SOL     OW 4589   4.622   4.044   1.490  0.4844  0.5707 -0.7811
 1206SOL    HW2 4590   4.692   4.067   1.551  0.1916  1.0282 -0.6053
 1206SOL    HW3 4591   4.595   4.128   1.452 -0.0790  0.4232 -0.7180
 1206SOL    MW4 4592   4.627   4.058   1.493  0.3714  0.6116 -0.7496
 1207SOL     OW 4593   5.444   1.067   4.608  0.4621  0.0025  0.2021
 1207SOL    HW2 4594   5.397   1.115   4.540 -1.2961 -2.0911 -0.1876
 1207SOL    HW3 4595   5.534   1.065   4.577  0.1044  0.8864 -1.0005
 1207SOL    MW4 4596   5.449   1.073   4.595  0.1829 -0.1571 -0.0080
 1208SOL     OW 4597   0.422   6.206   3.120  0.0475 -0.0664  0.4903
 1208SOL    HW2 4598   0.436   6.300   3.111 -0.6889  0.1485  1.4705
 1208SOL    HW3 4599   0.504   6.172   3.156  0.4390  0.1346 -0.1904
 1208SOL    MW4 4600   0.434   6.214   3.123  0.0020 -0.0115  0.5299
 1209SOL     OW 4601   0.430   0.847   4.522  0.3528 -0.5449 -0.1306
 1209SOL    HW2 4602   0.439   0.773   4.582 -0.0036  0.4882  1.2549
 1209SOL    HW3 4603   0.516   0.855   4.481  0.5740 -1.3498  0.1483
 1209SOL    MW4 4604   0.442   0.838   4.525  0.3349 -0.5148  0.0890
 1210SOL     OW 4605   4.472   1.417   4.942 -0.7121  0.4965  0.3317
 1210SOL    HW2 4606   4.451   1.507   4.918 -1.5044  0.9738  2.6009
 1210SOL    HW3 4607   4.393   1.383   4.985 -0.3029 -1.1618 -0.1353
 1210SOL    MW4 4608   4.459   1.424   4.945 -0.7627  0.3407  0.5695
 1211SOL     OW 4609   6.056   1.693   4.771 -0.1641 -0.0234  0.2205
 1211SOL    HW2 4610   6.101   1.687   4.687 -0.4203  0.1670  0.0653
 1211SOL    HW3 4611   6.125   1.713   4.834  0.2854 -1.8094  0.3294
 1211SOL    MW4 4612   6.071   1.695   4.768 -0.1386 -0.2339  0.2144
 1212SOL     OW 4613   0.323   1.128   2.223  0.2263 -0.0434  0.2741
 1212SOL    HW2 4614   0.302   1.210   2.179 -0.1132 -0.8100 -1.0862
 1212SOL    HW3 4615   0.414   1.111   2.200  0.1755 -0.2423  0.2170
 1212SOL    MW4 4616   0.332   1.136   2.214  0.1748 -0.1708  0.0871
 1213SOL     OW 4617   5.549   2.951   4.354 -0.0610  0.1222  0.5845
 1213SOL    HW2 4618   5.507   3.010   4.417  1.2513  0.3587  1.2959
 1213SOL    HW3 4619   5.614   3.006   4.310 -1.5114  0.1614 -1.6100
 1213SOL    MW4 4620   5.552   2.966   4.357 -0.0792  0.1586  0.3888
 1214SOL     OW 4621   2.575   4.754   5.447  0.3784  0.1948  1.3316
 1214SOL    HW2 4622   2.511   4.825   5.453 -0.4745 -0.1752 -1.6127
 1214SOL    HW3 4623   2.525   4.675   5.469 -0.3125 -0.1013 -1.0225
 1214SOL    MW4 4624   2.560   4.753   5.451  0.1748  0.1069  0.6325
 1215SOL     OW 4625   0.117   5.766   1.589 -0.2140  0.4395 -0.2666
 1215SOL    HW2 4626   0.067   5.758   1.508 -0.4442 -0.6641 -0.0350
 1215SOL    HW3 4627   0.102   5.683   1.635  2.7029 -0.4404 -0.6798
 1215SOL    MW4 4628   0.109   5.754   1.584  0.1405  0.1778 -0.2906
 1216SOL     OW 4629   4.686   5.175   0.633  0.4594  0.1712 -0.1627
 1216SOL    HW2 4630   4.746   5.205   0.701 -0.7601  0.5965  0.7741
 1216SOL    HW3 4631   4.736   5.183   0.552  2.0902 -0.7370  0.7047
 1216SOL    MW4 4632   4.700   5.180   0.631  0.5137  0.1075  0.0753
 1217SOL     OW 4633   5.005   5.368   2.576  0.0584  0.2482  0.0275
 1217SOL    HW2 4634   4.988   5.391   2.667  0.1275 -0.6422  0.2738
 1217SOL    HW3 4635   4.921   5.338   2.542  0.2394 -0.3352  0.0822
 1217SOL    MW4 4636   4.992   5.367   2.584  0.0914  0.0538  0.0672
 1218SOL     OW 4637   1.462   5.963   4.144 -0.2956 -0.6783  0.2684
 1218SOL    HW2 4638   1.526   5.893   4.135  1.4415  0.7937  0.6282
 1218SOL    HW3 4639   1.479   6.020   4.069 -0.9606 -0.0724  0.5688
 1218SOL    MW4 4640   1.473   5.961   4.133 -0.1541 -0.4042  0.3555
 1219SOL     OW 4641   3.835   2.158   0.725  0.1502  0.6601  0.0334
 1219SOL    HW2 4642   3.847   2.146   0.819 -0.3294 -0.4391 -0.0266
 1219SOL    HW3 4643   3.922   2.180   0.692  0.2993  1.1541  0.7434
 1219SOL    MW4 4644   3.848   2.159   0.733  0.1066  0.5803  0.1192
 1220SOL     OW 4645   1.822   2.224   1.531  0.2451 -0.2028  0.4208
 1220SOL    HW2 4646   1.747   2.284   1.524  0.4090  0.0263  0.6196
 1220SOL    HW3 4647   1.837   2.215   1.625  0.5042 -0.2002  0.3806
 1220SOL    MW4 4648   1.814   2.231   1.542  0.3009 -0.1722  0.4418
 1221SOL     OW 4649   2.416   3.563   5.994  1.0554  0.6123 -0.0492
 1221SOL    HW2 4650   2.428   3.592   5.903 -1.1498  0.0326 -0.5794
 1221SOL    HW3 4651   2.360   3.486   5.987  0.8613  0.5495  1.8090
 1221SOL    MW4 4652   2.410   3.557   5.981  0.7388  0.5275  0.1260
 1222SOL     OW 4653   4.903   5.035   2.642 -0.0637  0.9243  0.3628
 1222SOL    HW2 4654   4.875   5.038   2.551  1.0872  0.3493 -0.0319
 1222SOL    HW3 4655   4.828   4.999   2.690 -0.3894  0.4548 -0.4905
 1222SOL    MW4 4656   4.889   5.031   2.637  0.0451  0.7865  0.1981
 1223SOL     OW 4657   4.044   1.941   6.183  0.4270 -0.1526 -0.6006
 1223SOL    HW2 4658   4.074   2.028   6.155  2.0456 -0.3465  0.4509
 1223SOL    HW3 4659   4.052   1.943   6.278  0.7964 -1.5683 -0.5896
 1223SOL    MW4 4660   4.049   1.953   6.191  0.6893 -0.3650 -0.4604
 1224SOL     OW 4661   4.231   4.954   1.120 -0.0190 -0.0279  0.2172
 1224SOL    HW2 4662   4.137   4.950   1.103  0.0292  1.2712 -0.4353
 1224SOL    HW3 4663   4.271   4.965   1.033  0.5216  2.2874  0.6929
 1224SOL    MW4 4664   4.224   4.955   1.106  0.0587  0.4490  0.1939
 1225SOL     OW 4665   0.858   4.101   6.070 -0.3072  0.2354 -0.8207
 1225SOL    HW2 4666   0.773   4.106   6.113  0.3085  0.1600  0.4590
 1225SOL    HW3 4667   0.859   4.176   6.010 -0.5310  1.4567  0.6113
 1225SOL    MW4 4668   0.847   4.112   6.068 -0.2555  0.3866 -0.4629
 1226SOL     OW 4669   0.654   4.956   0.223  0.0207  0.0962 -0.4723
 1226SOL    HW2 4670   0.564   4.958   0.252 -0.2458  0.1395 -1.2629
 1226SOL    HW3 4671   0.702   5.010   0.286 -0.8723  1.8815 -1.2656
 1226SOL    MW4 4672   0.649   4.963   0.235 -0.1323  0.3375 -0.6813
 1227SOL     OW 4673   0.849   5.245   3.878 -0.0466 -0.0822 -0.0362
 1227SOL    HW2 4674   0.779   5.307   3.861  2.4335  2.6805 -1.1725
 1227SOL    HW3 4675   0.849   5.233   3.973 -0.7599  1.5474  0.1931
 1227SOL    MW4 4676   0.840   5.252   3.888  0.1865  0.4973 -0.1558
 1228SOL     OW 4677   5.892   0.315   2.847  0.4719  0.0053 -0.0624
 1228SOL    HW2 4678   5.869   0.387   2.906 -0.0142  0.6724 -1.0304
 1228SOL    HW3 4679   5.808   0.287   2.810  0.6309 -1.2189  0.4621
 1228SOL    MW4 4680   5.878   0.321   2.849  0.4288 -0.0682 -0.1209
 1229SOL     OW 4681   3.398   1.617   6.423 -0.5204  0.7063  0.2436
 1229SOL    HW2 4682   3.351   1.601   6.505 -1.5873  0.6385 -0.3583
 1229SOL    HW3 4683   3.333   1.601   6.355  0.5304  0.1152 -0.6533
 1229SOL    MW4 4684   3.383   1.613   6.425 -0.5225  0.6194  0.0459
 1230SOL     OW 4685   0.982   3.155   3.280  0.0823 -0.2724 -0.4689
 1230SOL    HW2 4686   0.915   3.223   3.279  0.2678 -0.0998 -1.1975
 1230SOL    HW3 4687   0.935   3.074   3.260 -0.3464 -0.5738  1.5171
 1230SOL    MW4 4688   0.967   3.154   3.277  0.0502 -0.2894 -0.3030
 1231SOL     OW 4689   0.987   2.560   3.788  0.0872 -0.5804  0.0139
 1231SOL    HW2 4690   1.023   2.573   3.700  0.3939  1.1622  0.3574
 1231SOL    HW3 4691   1.048   2.498   3.829  0.0651 -1.2392 -0.9135
 1231SOL    MW4 4692   1.000   2.554   3.782  0.1247 -0.4374 -0.0631
 1232SOL     OW 4693   5.523   4.531   0.785  0.0239  0.3845 -0.1902
 1232SOL    HW2 4694   5.529   4.580   0.867 -1.5515  1.1858 -0.5082
 1232SOL    HW3 4695   5.604   4.553   0.738  0.0772  1.4255  0.3595
 1232SOL    MW4 4696   5.534   4.541   0.789 -0.1769  0.6276 -0.1596
 1233SOL     OW 4697   2.438   6.398   5.729  0.1284 -0.2145 -0.3837
 1233SOL    HW2 4698   2.410   6.306   5.731 -1.0467  0.0782 -1.6321
 1233SOL    HW3 4699   2.532   6.394   5.716 -0.0516 -1.2511 -1.5376
 1233SOL    MW4 4700   2.447   6.385   5.728 -0.0504 -0.3127 -0.7007
 1234SOL     OW 4701   3.581   4.390   0.715 -0.1830 -0.3952 -0.1827
 1234SOL    HW2 4702   3.491   4.385   0.748 -0.6153 -2.9405 -1.5492
 1234SOL    HW3 4703   3.577   4.452   0.643 -1.4590 -2.2387 -1.7976
 1234SOL    MW4 4704   3.568   4.398   0.710 -0.4084 -0.9742 -0.5761
 1235SOL     OW 4705   2.070   3.969   3.816  0.4168  0.2005 -0.3395
 1235SOL    HW2 4706   2.018   4.025   3.874 -0.4979 -1.4850  0.5314
 1235SOL    HW3 4707   2.046   3.998   3.728 -1.4176  0.0387  0.0608
 1235SOL    MW4 4708   2.060   3.980   3.812  0.0541 -0.0433 -0.1718
 1236SOL     OW 4709   1.651   2.152   2.750  0.4420  0.1580 -0.1548
 1236SOL    HW2 4710   1.717   2.184   2.689  0.6731  2.2619  1.0944
 1236SOL    HW3 4711   1.691   2.163   2.836 -0.4905 -1.1885  0.4865
 1236SOL    MW4 4712   1.665   2.158   2.753  0.3494  0.2579  0.0946
 1237SOL     OW 4713   1.297   6.057   1.808  0.1585  0.4784 -0.0953
 1237SOL    HW2 4714   1.391   6.046   1.820 -0.0615 -0.9792  0.6245
 1237SOL    HW3 4715   1.281   6.027   1.718 -0.2277 -4.9961  1.3973
 1237SOL    MW4 4716   1.307   6.051   1.798  0.0785 -0.4362  0.1966
 1238SOL     OW 4717   5.295   3.354   2.316  0.0241  0.1235 -0.1707
 1238SOL    HW2 4718   5.377   3.391   2.284  0.0915 -0.6275 -0.8974
 1238SOL    HW3 4719   5.320   3.270   2.355 -0.6499 -1.1359 -2.3347
 1238SOL    MW4 4720   5.309   3.348   2.317 -0.0559 -0.1418 -0.5521
 1239SOL     OW 4721   4.814   0.035   5.901  0.3619 -0.2832 -0.2587
 1239SOL    HW2 4722   4.868   0.051   5.824  0.8110 -0.1097  0.0898
 1239SOL    HW3 4723   4.876   0.015   5.971 -0.0107  0.1077  0.1940
 1239SOL    MW4 4724   4.829   0.034   5.900  0.3720 -0.2087 -0.1530
 1240SOL     OW 4725   4.668   3.881   2.247  0.2693 -0.0091  0.1426
 1240SOL    HW2 4726   4.629   3.939   2.313 -1.5607 -0.7625 -0.2268
 1240SOL    HW3 4727   4.654   3.927   2.164 -0.9256 -0.8108 -0.1178
 1240SOL    MW4 4728   4.661   3.895   2.245 -0.1298 -0.2143  0.0595
 1241SOL     OW 4729   0.139   0.511   5.157 -0.9939  1.0335 -0.5219
 1241SOL    HW2 4730   0.168   0.575   5.222  1.3215  0.5754 -0.9902
 1241SOL    HW3 4731   0.101   0.440   5.209  1.3526  0.3928  0.4920
 1241SOL    MW4 4732   0.138   0.510   5.173 -0.3788  0.8885 -0.4499
 1242SOL     OW 4733   2.227   1.979   1.743 -0.5115  0.1593 -0.8916
 1242SOL    HW2 4734   2.297   2.043   1.753 -1.3228  0.9052  0.5038
 1242SOL    HW3 4735   2.200   1.960   1.833 -2.5664  0.4704 -1.3904
 1242SOL    MW4 4736   2.232   1.985   1.756 -0.8897  0.2988 -0.7733
 1243SOL     OW 4737   4.609   5.588   3.174  0.1722 -0.2909 -0.4134
 1243SOL    HW2 4738   4.515   5.584   3.157  0.3181 -1.1868 -1.0384
 1243SOL    HW3 4739   4.617   5.578   3.269 -0.4030  0.6568 -0.2563
 1243SOL    MW4 4740   4.598   5.587   3.184  0.1155 -0.2840 -0.4751
 1244SOL     OW 4741   3.639   1.884   5.316 -0.3560 -0.6965 -0.2816
 1244SOL    HW2 4742   3.728   1.876   5.283 -0.4911 -2.2681 -0.3700
 1244SOL    HW3 4743   3.644   1.851   5.406 -0.6690  0.1664  0.0641
 1244SOL    MW4 4744   3.651   1.878   5.324 -0.4151 -0.7900 -0.2476
 1245SOL     OW 4745   2.445   1.422   5.836 -0.5198 -0.5628 -0.6880
 1245SOL    HW2 4746   2.494   1.493   5.876 -0.6795 -0.7820 -0.1024
 1245SOL    HW3 4747   2.510   1.351   5.826 -0.1173 -0.0210 -2.1514
 1245SOL    MW4 4748   2.460   1.422   5.840 -0.4878 -0.5202 -0.8038
 1246SOL     OW 4749   4.483   0.986   4.267 -0.1049 -0.0995 -0.3435
 1246SOL    HW2 4750   4.422   0.980   4.193 -0.3334 -0.4713 -0.1246
 1246SOL    HW3 4751   4.485   1.080   4.288 -0.3421 -0.0423 -0.5713
 1246SOL    MW4 4752   4.475   0.998   4.260 -0.1663 -0.1410 -0.3447
 1247SOL     OW 4753   0.395   4.940   0.300  0.0857  0.0323  0.2890
 1247SOL    HW2 4754   0.373   4.894   0.381  2.1951  1.2246  1.6410
 1247SOL    HW3 4755   0.396   5.033   0.324  0.5264  0.4370 -1.1660
 1247SOL    MW4 4756   0.392   4.946   0.314  0.4222  0.2430  0.2754
 1248SOL     OW 4757   3.658   2.585   0.340  0.3725 -0.4568 -0.3982
 1248SOL    HW2 4758   3.731   2.547   0.291  0.2230  0.9385 -1.7890
 1248SOL    HW3 4759   3.607   2.509   0.370  2.6150 -1.4862  1.0539
 1248SOL    MW4 4760   3.661   2.570   0.337  0.6487 -0.4085 -0.3901
 1249SOL     OW 4761   0.903   2.879   2.370  0.0947 -0.6485  0.2381
 1249SOL    HW2 4762   0.889   2.941   2.298 -1.0504  0.2125  1.1546
 1249SOL    HW3 4763   0.972   2.820   2.338 -0.6545 -0.5494 -1.6996
 1249SOL    MW4 4764   0.910   2.880   2.356 -0.1552 -0.5218  0.1034
 1250SOL     OW 4765   2.094   1.994   1.306  0.4104  0.4576  0.8093
 1250SOL    HW2 4766   2.137   2.004   1.220 -1.9763  0.0702 -0.5124
 1250SOL    HW3 4767   2.122   1.908   1.337  1.3320  0.6167  0.4622
 1250SOL    MW4 4768   2.103   1.984   1.299  0.2171  0.4275  0.5891
 1251SOL     OW 4769   3.064   0.581   3.464 -0.2564 -0.3111 -0.1243
 1251SOL    HW2 4770   3.095   0.580   3.555 -1.7257  0.1746  0.4154
 1251SOL    HW3 4771   2.969   0.584   3.472 -0.5460 -2.7152 -1.6874
 1251SOL    MW4 4772   3.056   0.581   3.477 -0.4884 -0.5642 -0.2593
 1252SOL     OW 4773   2.404   2.744   2.182  0.0469  0.0916  0.3955
 1252SOL    HW2 4774   2.377   2.656   2.156  1.3069 -0.2977  0.3637
 1252SOL    HW3 4775   2.332   2.800   2.154  0.1098 -0.6625 -1.3896
 1252SOL    MW4 4776   2.391   2.740   2.175  0.2214 -0.0592  0.1558
 1253SOL     OW 4777   0.304   6.410   6.182  0.1542 -0.2235  0.1086
 1253SOL    HW2 4778   0.379   6.381   6.129  1.3307 -0.2145  1.6645
 1253SOL    HW3 4779   0.306   6.505   6.176 -1.6623 -0.2604 -2.3072
 1253SOL    MW4 4780   0.314   6.418   6.174  0.0697 -0.2272 -0.0048
 1254SOL     OW 4781   2.127   2.652   1.447  0.0658  0.4463 -0.1116
 1254SOL    HW2 4782   2.068   2.604   1.389  1.0361  0.3346 -1.0273
 1254SOL    HW3 4783   2.205   2.668   1.394  1.2538 -0.2318  1.3505
 1254SOL    MW4 4784   2.129   2.647   1.432  0.3506  0.3421 -0.0395
 1255SOL     OW 4785   0.178   0.972   1.677 -0.4092  0.4053 -0.4161
 1255SOL    HW2 4786   0.136   1.033   1.615 -1.6898 -1.2300 -1.2432
 1255SOL    HW3 4787   0.265   0.958   1.641 -0.6002  0.6743 -1.0007
 1255SOL    MW4 4788   0.184   0.978   1.664 -0.6033  0.2250 -0.6023
 1256SOL     OW 4789   3.090   0.046   6.042  0.2945 -0.1971 -0.0993
 1256SOL    HW2 4790   3.000   0.079   6.040  0.1579 -0.5542  0.0738
 1256SOL    HW3 4791   3.130   0.091   6.117  1.0766  2.0298 -1.7592
 1256SOL    MW4 4792   3.084   0.057   6.052  0.3797  0.0496 -0.2954
 1257SOL     OW 4793   0.698   3.623   3.279  0.0396 -0.8076  0.4437
 1257SOL    HW2 4794   0.624   3.669   3.319  0.3476 -0.2570  0.3955
 1257SOL    HW3 4795   0.739   3.689   3.223 -0.8844 -1.7795 -1.4739
 1257SOL    MW4 4796   0.694   3.638   3.276 -0.0417 -0.8632  0.1844
 1258SOL     OW 4797   2.743   4.392   1.935  0.1449  0.1354 -0.1498
 1258SOL    HW2 4798   2.727   4.311   1.887  1.0881  0.4071 -0.9765
 1258SOL    HW3 4799   2.660   4.440   1.929 -0.1428 -0.3871 -0.4171
 1258SOL    MW4 4800   2.730   4.388   1.928  0.2314  0.1023 -0.2942
 1259SOL     OW 4801   0.247   0.882   4.924 -0.3465 -0.7201  0.0162
 1259SOL    HW2 4802   0.310   0.942   4.884  2.0100 -1.7496  1.9207
 1259SOL    HW3 4803   0.261   0.891   5.018 -2.7090 -1.4233  0.5032
 1259SOL    MW4 4804   0.258   0.891   4.931 -0.3473 -0.9487  0.3317
 1260SOL     OW 4805   5.313   3.495   4.707  0.2642  0.6918 -0.1524
 1260SOL    HW2 4806   5.224   3.487   4.743  0.7080 -1.8723  0.6172
 1260SOL    HW3 4807   5.370   3.485   4.784  1.2010 -0.0805 -0.9260
 1260SOL    MW4 4808   5.309   3.492   4.722  0.4463  0.2516 -0.1529
 1261SOL     OW 4809   2.916   1.413   3.471 -0.1961 -0.3978 -0.9211
 1261SOL    HW2 4810   2.921   1.484   3.535  1.7022 -1.3556  0.0727
 1261SOL    HW3 4811   2.905   1.457   3.386  1.0887  1.1009 -0.3470
 1261SOL    MW4 4812   2.915   1.428   3.468  0.2239 -0.3265 -0.7142
 1262SOL     OW 4813   3.441   4.371   1.371 -0.1504  0.0938  0.0955
 1262SOL    HW2 4814   3.466   4.291   1.324 -0.2899 -0.6888  1.2973
 1262SOL    HW3 4815   3.524   4.415   1.390 -0.1146  0.5582 -1.1051
 1262SOL    MW4 4816   3.455   4.366   1.368 -0.1641  0.0518  0.0957
 1263SOL     OW 4817   3.692   0.715   2.843 -0.1312  0.5375  0.0619
 1263SOL    HW2 4818   3.612   0.661   2.849 -0.0811  0.6355  4.1440
 1263SOL    HW3 4819   3.660   0.802   2.818 -1.0840  0.1966  0.0371
 1263SOL    MW4 4820   3.677   0.719   2.840 -0.2503  0.5055  0.5972
 1264SOL     OW 4821   3.269   1.766   2.228  0.1042  0.1293 -0.1413
 1264SOL    HW2 4822   3.346   1.818   2.252 -0.4439  0.3581  1.2390
 1264SOL    HW3 4823   3.200   1.797   2.287 -0.2394 -2.1306  0.7591
 1264SOL    MW4 4824   3.270   1.777   2.239 -0.0135 -0.1387  0.1596
 1265SOL     OW 4825   0.986   0.028   1.134  0.2835  0.5775 -0.5078
 1265SOL    HW2 4826   1.077   0.019   1.162 -0.4023 -0.7569  1.4457
 1265SOL    HW3 4827   0.954  -0.061   1.126 -0.6989  1.0173 -1.8368
 1265SOL    MW4 4828   0.994   0.015   1.137  0.0634  0.4594 -0.4254
 1266SOL     OW 4829   3.757   0.739   3.919  0.6094 -0.2859 -0.0888
 1266SOL    HW2 4830   3.790   0.667   3.865  0.5462 -1.2782  1.1432
 1266SOL    HW3 4831   3.812   0.814   3.896  1.0476 -0.8606 -0.9835
 1266SOL    MW4 4832   3.768   0.740   3.909  0.6589 -0.4927 -0.0443
 1267SOL     OW 4833   0.371   2.285   1.669 -0.1904  0.1242  0.4346
 1267SOL    HW2 4834   0.445   2.263   1.613 -1.2102 -0.5143 -0.7170
 1267SOL    HW3 4835   0.358   2.208   1.724 -0.9812 -0.4462 -0.5038
 1267SOL    MW4 4836   0.379   2.272   1.669 -0.4293 -0.0353  0.1589
 1268SOL     OW 4837   3.001   5.772   3.267  0.1886  0.1253  0.4020
 1268SOL    HW2 4838   3.050   5.854   3.257 -0.1426  0.3932  0.9245
 1268SOL    HW3 4839   3.064   5.710   3.304  1.2225 -0.6635 -2.3846
 1268SOL    MW4 4840   3.016   5.775   3.270  0.2813  0.0566  0.1033
 1269SOL     OW 4841   3.040   5.205   6.260 -0.2065  0.8344  0.5610
 1269SOL    HW2 4842   3.014   5.248   6.342  1.9166  0.6694  1.3842
 1269SOL    HW3 4843   2.987   5.126   6.257 -0.3141  0.8309  1.8146
 1269SOL    MW4 4844   3.030   5.201   6.271  0.0594  0.8121  0.8350
 1270SOL     OW 4845   6.045   6.009   2.017  0.1537  0.6527 -0.0756
 1270SOL    HW2 4846   6.014   6.005   2.107  0.5928  0.9003  0.0896
 1270SOL    HW3 4847   5.966   6.010   1.964 -0.1049  0.0128  0.2870
 1270SOL    MW4 4848   6.031   6.008   2.022  0.1775  0.6009 -0.0059
 1271SOL     OW 4849   3.271   3.820   1.187  0.1193  1.2652 -0.0647
 1271SOL    HW2 4850   3.243   3.911   1.195 -0.9793  1.0800 -1.3891
 1271SOL    HW3 4851   3.338   3.821   1.119 -1.1093  0.8906 -1.3255
 1271SOL    MW4 4852   3.276   3.832   1.179 -0.1877  1.1913 -0.4058
 1272SOL     OW 4853   5.079   1.316   6.272 -0.1708 -0.5580 -0.1759
 1272SOL    HW2 4854   5.036   1.367   6.341  0.6601  0.6798 -0.5295
 1272SOL    HW3 4855   5.072   1.225   6.301 -0.7819 -0.1585  1.0015
 1272SOL    MW4 4856   5.073   1.311   6.285 -0.1418 -0.3420 -0.0672
 1273SOL     OW 4857   0.016   0.525   5.908 -0.2350  0.2968 -0.3439
 1273SOL    HW2 4858   0.070   0.469   5.852 -0.7304 -0.7665  0.2049
 1273SOL    HW3 4859   0.078   0.585   5.950  0.5008 -0.7431  0.0944
 1273SOL    MW4 4860   0.031   0.525   5.906 -0.2033  0.0193 -0.2136
 1274SOL     OW 4861   6.067   1.324   2.763  0.1676 -0.1772 -0.1561
 1274SOL    HW2 4862   6.140   1.266   2.741 -1.0820 -0.8946 -2.7443
 1274SOL    HW3 4863   6.102   1.412   2.751  1.5101 -0.3509  1.9048
 1274SOL    MW4 4864   6.081   1.328   2.759  0.1799 -0.2948 -0.2257
 1275SOL     OW 4865   3.391   4.608   1.234 -0.4062  0.4084  0.2782
 1275SOL    HW2 4866   3.475   4.646   1.259  0.5434 -0.0979 -1.8444
 1275SOL    HW3 4867   3.393   4.520   1.272  0.9078 -0.2743 -1.2057
 1275SOL    MW4 4868   3.402   4.601   1.242 -0.1075  0.2515 -0.1976
 1276SOL     OW 4869   5.488   0.076   4.130  0.1943  0.0116 -0.4114
 1276SOL    HW2 4870   5.517   0.114   4.213  0.8410 -0.1815 -0.5424
 1276SOL    HW3 4871   5.569   0.049   4.087 -0.1463  0.0082 -1.0565
 1276SOL    MW4 4872   5.503   0.078   4.135  0.2347 -0.0143 -0.5138
 1277SOL     OW 4873   1.839   5.446   4.157 -0.5861 -0.0535  0.4305
 1277SOL    HW2 4874   1.895   5.424   4.083 -2.1209  0.2380 -0.8529
 1277SOL    HW3 4875   1.892   5.508   4.209  0.4860 -0.2219 -0.4286
 1277SOL    MW4 4876   1.853   5.451   4.154 -0.6472 -0.0372  0.1478
 1278SOL     OW 4877   0.668   2.008   3.007  0.0891  0.0107  0.1554
 1278SOL    HW2 4878   0.580   2.001   2.969  0.0388  1.5737 -0.0998
 1278SOL    HW3 4879   0.678   1.929   3.060  0.1189 -2.2906 -2.9636
 1278SOL    MW4 4880   0.658   1.997   3.009  0.0864 -0.0867 -0.2898
 1279SOL     OW 4881   3.284   4.756   5.406  0.4338 -0.3353 -0.0668
 1279SOL    HW2 4882   3.261   4.721   5.493 -0.1392  0.8035  0.2514
 1279SOL    HW3 4883   3.370   4.797   5.419 -0.6716  1.9126  0.5827
 1279SOL    MW4 4884   3.292   4.756   5.419  0.2124  0.1116  0.0608
 1280SOL     OW 4885   3.205   5.360   4.741 -0.1718  0.1286 -0.0429
 1280SOL    HW2 4886   3.137   5.418   4.774  0.5167 -0.0167  1.7333
 1280SOL    HW3 4887   3.273   5.419   4.707  0.0345  0.3389  0.7277
 1280SOL    MW4 4888   3.205   5.375   4.741 -0.0538  0.1372  0.2931
 1281SOL     OW 4889   5.602   0.607   2.199  1.0621  0.3293 -0.2981
 1281SOL    HW2 4890   5.571   0.523   2.231 -0.6209  0.7833 -0.6625
 1281SOL    HW3 4891   5.698   0.598   2.196  0.8809 -1.7661 -0.9092
 1281SOL    MW4 4892   5.611   0.595   2.203  0.8161  0.1127 -0.4268
 1282SOL     OW 4893   6.322   0.543   2.313 -0.6421  0.1768  0.3159
 1282SOL    HW2 4894   6.334   0.638   2.312  0.5674  0.0527  0.9436
 1282SOL    HW3 4895   6.367   0.512   2.235 -1.8362  0.1858 -0.3940
 1282SOL    MW4 4896   6.330   0.552   2.303 -0.6401  0.1617  0.3050
 1283SOL     OW 4897   4.432   0.384   1.477 -0.1951 -0.2679  0.6199
 1283SOL    HW2 4898   4.372   0.309   1.481  0.8102 -1.1511 -0.2574
 1283SOL    HW3 4899   4.383   0.451   1.431 -1.0223 -0.4557  1.1956
 1283SOL    MW4 4900   4.417   0.383   1.472 -0.1716 -0.4092  0.5801
 1284SOL     OW 4901   2.515   5.151   3.055  1.0861  0.3632 -0.6209
 1284SOL    HW2 4902   2.501   5.205   2.978  2.9250 -0.0658 -1.3068
 1284SOL    HW3 4903   2.462   5.073   3.039  2.5764 -0.3928 -2.2155
 1284SOL    MW4 4904   2.506   5.148   3.043  1.5253  0.2069 -0.9218
 1285SOL     OW 4905   5.630   0.244   4.306 -0.3178 -0.2260 -0.0418
 1285SOL    HW2 4906   5.622   0.225   4.399  1.4339  3.0645  0.9546
 1285SOL    HW3 4907   5.710   0.198   4.279 -0.0917 -0.1226  0.4392
 1285SOL    MW4 4908   5.640   0.235   4.315 -0.0568  0.2218  0.1531
 1286SOL     OW 4909   4.543   1.529   2.629  0.5124 -0.0386  0.3058
 1286SOL    HW2 4910   4.515   1.609   2.674 -0.8148 -0.5551  0.4194
 1286SOL    HW3 4911   4.505   1.535   2.542  0.8341 -0.3178  0.1418
 1286SOL    MW4 4912   4.535   1.541   2.624  0.3797 -0.1436  0.2992
 1287SOL     OW 4913   5.674   1.604   4.878 -0.3440  0.0560 -0.9370
 1287SOL    HW2 4914   5.702   1.590   4.787  1.8154  1.3944 -0.5498
 1287SOL    HW3 4915   5.709   1.690   4.901 -2.3685  0.5429  0.6423
 1287SOL    MW4 4916   5.682   1.614   4.869 -0.3262  0.2969 -0.6775
 1288SOL     OW 4917   2.332   3.945   6.262  0.0977 -0.0110 -0.2656
 1288SOL    HW2 4918   2.288   3.881   6.207  0.3081 -2.4257  2.1595
 1288SOL    HW3 4919   2.407   3.973   6.211 -0.4348 -1.1162 -1.7213
 1288SOL    MW4 4920   2.336   3.940   6.248  0.0552 -0.4754 -0.1377
 1289SOL     OW 4921   5.979   0.983   4.004  0.4986  0.2942  0.2804
 1289SOL    HW2 4922   5.895   1.024   3.986  0.3469  0.7799  1.9618
 1289SOL    HW3 4923   6.039   1.056   4.020  0.8712 -0.0816  0.6294
 1289SOL    MW4 4924   5.976   0.998   4.003  0.5278  0.3087  0.5483
 1290SOL     OW 4925   0.236   5.260   4.501 -0.2335  0.0251 -0.0265
 1290SOL    HW2 4926   0.150   5.298   4.483  0.4266  0.5487 -2.4227
 1290SOL    HW3 4927   0.263   5.301   4.583 -1.9558  0.3708  0.4201
 1290SOL    MW4 4928   0.228   5.270   4.509 -0.3737  0.1398 -0.2837
 1291SOL     OW 4929   5.780   4.368   2.442 -0.3485 -0.6397 -0.2110
 1291SOL    HW2 4930   5.699   4.410   2.470 -0.7162 -0.8585 -0.9396
 1291SOL    HW3 4931   5.761   4.334   2.355  0.3413 -1.2173 -0.1420
 1291SOL    MW4 4932   5.767   4.369   2.434 -0.3060 -0.7448 -0.2980
 1292SOL     OW 4933   2.796   5.146   3.634 -0.6691 -0.0371 -0.4230
 1292SOL    HW2 4934   2.761   5.218   3.687 -0.8698  0.1343 -0.7879
 1292SOL    HW3 4935   2.719   5.098   3.604 -0.5244 -1.8185  1.7116
 1292SOL    MW4 4936   2.781   5.149   3.637 -0.6765 -0.2495 -0.1895
 1293SOL     OW 4937   2.450   3.139   3.567 -0.0506 -0.3809 -0.2437
 1293SOL    HW2 4938   2.372   3.133   3.623 -0.2747 -2.4256 -0.6909
 1293SOL    HW3 4939   2.458   3.232   3.548 -0.3235  0.3485  2.6560
 1293SOL    MW4 4940   2.441   3.150   3.572 -0.1162 -0.5545  0.0799
 1294SOL     OW 4941   0.555   1.486   3.474 -0.1405 -0.5214 -0.1874
 1294SOL    HW2 4942   0.480   1.445   3.516  0.6241 -1.3022  0.4504
 1294SOL    HW3 4943   0.560   1.573   3.514 -1.1624 -0.1560 -0.8145
 1294SOL    MW4 4944   0.546   1.492   3.485 -0.1744 -0.5762 -0.1860
 1295SOL     OW 4945   1.018   2.402   2.705 -0.2374 -0.8991  1.0369
 1295SOL    HW2 4946   0.932   2.380   2.669  0.0304 -2.0283  1.0520
 1295SOL    HW3 4947   1.013   2.496   2.721 -1.1097 -0.7585  0.0814
 1295SOL    MW4 4948   1.006   2.412   2.703 -0.3172 -1.0295  0.9129
 1296SOL     OW 4949   0.020   1.876   1.054 -0.5190 -0.4620 -0.0051
 1296SOL    HW2 4950   0.108   1.855   1.087 -0.9096 -1.4200  0.4590
 1296SOL    HW3 4951  -0.014   1.941   1.115  0.6989  1.6603 -1.4442
 1296SOL    MW4 4952   0.027   1.881   1.066 -0.4099 -0.3084 -0.1338
 1297SOL     OW 4953   2.127   6.114   6.230 -0.5091  0.4313  0.2589
 1297SOL    HW2 4954   2.044   6.114   6.181  0.9227 -0.2132 -2.3325
 1297SOL    HW3 4955   2.156   6.023   6.228  0.4935  0.7272  0.7551
 1297SOL    MW4 4956   2.120   6.102   6.224 -0.1879  0.3853 -0.0175
 1298SOL     OW 4957   4.916   4.783   1.534  0.1922 -0.6007  0.0825
 1298SOL    HW2 4958   4.825   4.802   1.557  0.2797 -0.7966  0.6190
 1298SOL    HW3 4959   4.918   4.782   1.439 -0.0912  0.7510  0.0336
 1298SOL    MW4 4960   4.904   4.786   1.525  0.1663 -0.4482  0.1468
 1299SOL     OW 4961   2.259   2.552   5.035 -0.0715  0.1932 -0.2458
 1299SOL    HW2 4962   2.323   2.558   5.107 -0.6062  1.8659  0.1445
 1299SOL    HW3 4963   2.209   2.633   5.042 -0.6979 -0.0131 -2.0070
 1299SOL    MW4 4964   2.261   2.563   5.046 -0.2247  0.3866 -0.4267
 1300SOL     OW 4965   2.677   5.353   2.543 -0.2112  0.2092 -0.5253
 1300SOL    HW2 4966   2.626   5.431   2.563 -1.4274 -0.6011 -0.3126
 1300SOL    HW3 4967   2.737   5.343   2.617 -0.4512  0.6240 -0.2742
 1300SOL    MW4 4968   2.678   5.362   2.556 -0.4033  0.1570 -0.4641
 1301SOL     OW 4969   0.442   3.144   6.380 -0.1705 -0.4152  0.2803
 1301SOL    HW2 4970   0.477   3.207   6.317  0.9132 -0.9187  0.3645
 1301SOL    HW3 4971   0.519   3.104   6.419 -0.8412 -1.6812  0.3508
 1301SOL    MW4 4972   0.457   3.147   6.377 -0.1160 -0.6487  0.3007
 1302SOL     OW 4973   4.402   3.898   0.881 -0.2320 -0.4218 -0.0509
 1302SOL    HW2 4974   4.438   3.938   0.960  2.2366 -0.3505 -1.1145
 1302SOL    HW3 4975   4.374   3.972   0.827  0.7439 -0.3031 -0.4099
 1302SOL    MW4 4976   4.403   3.913   0.885  0.2225 -0.3967 -0.2386
 1303SOL     OW 4977   3.368   5.225   0.915 -0.0625 -0.3935  0.7551
 1303SOL    HW2 4978   3.348   5.133   0.935  1.8838 -1.0004  0.2227
 1303SOL    HW3 4979   3.373   5.228   0.819  0.2768  0.1685  0.7851
 1303SOL    MW4 4980   3.366   5.213   0.905  0.2390 -0.3994  0.6888
 1304SOL     OW 4981   1.769   4.632   1.996  0.0803 -0.0548  0.2992
 1304SOL    HW2 4982   1.714   4.585   2.058 -0.5552  0.7416  0.3560
 1304SOL    HW3 4983   1.729   4.719   1.989 -0.1108 -0.2596 -1.5473
 1304SOL    MW4 4984   1.757   4.638   2.003 -0.0288  0.0232  0.0631
 1305SOL     OW 4985   0.656   1.492   5.016 -0.1253  0.1969  0.2030
 1305SOL    HW2 4986   0.695   1.410   5.045 -0.5629 -0.8225 -1.8860
 1305SOL    HW3 4987   0.579   1.503   5.073  0.0110 -0.7675  0.6003
 1305SOL    MW4 4988   0.651   1.482   5.027 -0.1651 -0.0649 -0.0202
 1306SOL     OW 4989   1.342   1.068   1.730  0.7353 -0.0115  0.1056
 1306SOL    HW2 4990   1.337   1.163   1.738 -0.5707 -0.1955  1.8204
 1306SOL    HW3 4991   1.435   1.051   1.714  1.1559  1.4790  0.7943
 1306SOL    MW4 4992   1.354   1.078   1.729  0.6185  0.1609  0.4227
 1307SOL     OW 4993   0.653   3.273   1.185  0.5198 -0.2376 -0.7556
 1307SOL    HW2 4994   0.629   3.342   1.247 -0.3074 -2.0671  1.0900
 1307SOL    HW3 4995   0.702   3.210   1.238  1.0961 -1.1577 -2.3370
 1307SOL    MW4 4996   0.656   3.274   1.200  0.4867 -0.6004 -0.7207
 1308SOL     OW 4997   5.460   4.935   3.732  0.3436 -0.0579  0.1163
 1308SOL    HW2 4998   5.426   4.848   3.750 -0.2100  0.3585  1.1279
 1308SOL    HW3 4999   5.454   4.944   3.637  0.6346 -1.2031 -0.0261
 1308SOL    MW4 5000   5.455   4.925   3.722  0.3090 -0.1541  0.2310
 1309SOL     OW 5001   0.065   6.236   2.768 -0.3737 -0.4730  0.1661
 1309SOL    HW2 5002   0.047   6.165   2.830 -0.4014  0.3381  1.0999
 1309SOL    HW3 5003   0.100   6.307   2.822  1.4810 -0.4222 -0.9884
 1309SOL    MW4 5004   0.068   6.236   2.783 -0.1326 -0.3593  0.1370
 1310SOL     OW 5005   2.531   1.347   0.728  0.6930 -0.0632  0.2224
 1310SOL    HW2 5006   2.495   1.336   0.640  0.3382 -0.7838  0.4534
 1310SOL    HW3 5007   2.459   1.324   0.786  1.1827 -0.4265  0.6952
 1310SOL    MW4 5008   2.517   1.343   0.724  0.7108 -0.2062  0.3153
 1311SOL     OW 5009   0.676   0.154   5.986  0.2428 -0.7536 -0.0560
 1311SOL    HW2 5010   0.614   0.087   6.013 -1.0223  0.8528  1.2585
 1311SOL    HW3 5011   0.661   0.165   5.892 -1.8315 -0.0940  0.3094
 1311SOL    MW4 5012   0.666   0.147   5.977 -0.1978 -0.4546  0.1657
 1312SOL     OW 5013   0.353   3.110   4.043  0.8301  0.1555 -0.3509
 1312SOL    HW2 5014   0.357   3.072   4.131  1.8418 -1.3374 -0.9983
 1312SOL    HW3 5015   0.277   3.068   4.002  0.9503  0.1026 -0.5207
 1312SOL    MW4 5016   0.344   3.100   4.049  0.9795 -0.0485 -0.4587
 1313SOL     OW 5017   5.331   5.628   3.388 -0.1269 -0.4751  0.1756
 1313SOL    HW2 5018   5.326   5.707   3.442  0.1659 -0.0064 -0.4757
 1313SOL    HW3 5019   5.336   5.557   3.452  0.3586  0.0781  0.7806
 1313SOL    MW4 5020   5.331   5.629   3.404 -0.0242 -0.3403  0.1695
 1314SOL     OW 5021   5.502   5.018   0.222  0.1370  0.2555 -0.3045
 1314SOL    HW2 5022   5.473   4.933   0.190 -0.0418  0.5350 -0.9128
 1314SOL    HW3 5023   5.468   5.080   0.157 -0.6688  0.8973  0.6917
 1314SOL    MW4 5024   5.493   5.015   0.209  0.0071  0.3771 -0.2533
 1315SOL     OW 5025   2.222   2.451   5.579  0.0268 -0.0234 -0.4576
 1315SOL    HW2 5026   2.164   2.422   5.509  0.3440 -0.2842 -0.6103
 1315SOL    HW3 5027   2.249   2.539   5.553 -0.3095  0.1057 -0.3790
 1315SOL    MW4 5028   2.218   2.459   5.566  0.0243 -0.0408 -0.4674
 1316SOL     OW 5029   0.718   2.594   3.718  0.6358  0.4013  0.1219
 1316SOL    HW2 5030   0.812   2.573   3.724  0.8146 -0.0281 -2.6874
 1316SOL    HW3 5031   0.715   2.670   3.660 -0.6971  1.4222  1.4827
 1316SOL    MW4 5032   0.730   2.601   3.711  0.4835  0.4793 -0.0692
 1317SOL     OW 5033   2.155   5.237   3.633  0.4114  0.5606  0.3822
 1317SOL    HW2 5034   2.154   5.332   3.647  0.3951  1.0782 -2.4888
 1317SOL    HW3 5035   2.249   5.215   3.629  0.4280  0.2683  1.8402
 1317SOL    MW4 5036   2.168   5.246   3.635  0.4115  0.5903  0.1958
 1318SOL     OW 5037   6.318   3.682   4.936  0.0388 -0.0741 -0.3184
 1318SOL    HW2 5038   6.234   3.638   4.927 -0.4454 -0.1345  2.9733
 1318SOL    HW3 5039   6.383   3.615   4.918 -0.5638 -0.0671 -2.7605
 1318SOL    MW4 5040   6.316   3.668   4.933 -0.1046 -0.0811 -0.2063
 1319SOL     OW 5041   2.597   0.658   0.260  0.3048  0.5941 -0.4101
 1319SOL    HW2 5042   2.561   0.629   0.344 -1.3530 -1.5762 -1.7357
 1319SOL    HW3 5043   2.566   0.748   0.250 -1.2803  0.1695  0.3900
 1319SOL    MW4 5044   2.588   0.666   0.270 -0.1231  0.2517 -0.4794
 1320SOL     OW 5045   2.147   3.514   4.430 -0.0752  0.7274  0.1421
 1320SOL    HW2 5046   2.108   3.438   4.474 -0.2909  0.6447 -0.1895
 1320SOL    HW3 5047   2.112   3.511   4.341 -1.4789  2.2002  0.5940
 1320SOL    MW4 5048   2.137   3.503   4.424 -0.2888  0.9108  0.1580
 1321SOL     OW 5049   6.375   2.812   4.100  0.3681  0.0816  0.6675
 1321SOL    HW2 5050   6.283   2.814   4.070  0.3147  0.0986  0.8324
 1321SOL    HW3 5051   6.371   2.769   4.185  0.4650  0.4472  0.8587
 1321SOL    MW4 5052   6.362   2.806   4.107  0.3739  0.1321  0.7145
 1322SOL     OW 5053   1.683   4.940   5.279  0.3093 -0.6676  0.9946
 1322SOL    HW2 5054   1.637   4.938   5.363  0.6640  1.6818  1.3293
 1322SOL    HW3 5055   1.774   4.921   5.301  0.5629  0.7834  1.3385
 1322SOL    MW4 5056   1.689   4.937   5.293  0.3896 -0.1662  1.0841
 1323SOL     OW 5057   4.654   3.622   2.163  0.1332  0.1513  0.4873
 1323SOL    HW2 5058   4.661   3.632   2.069 -0.2378 -1.6591  0.2207
 1323SOL    HW3 5059   4.645   3.711   2.197  0.4216  0.8315 -1.1573
 1323SOL    MW4 5060   4.653   3.635   2.155  0.1223  0.0022  0.2351
 1324SOL     OW 5061   5.521   4.239   4.972 -0.2162  0.1903 -0.3471
 1324SOL    HW2 5062   5.518   4.333   4.986  0.0548  0.1671 -0.1174
 1324SOL    HW3 5063   5.440   4.219   4.926 -1.5875  0.1676  1.9097
 1324SOL    MW4 5064   5.510   4.249   4.968 -0.3613  0.1842 -0.0191
 1325SOL     OW 5065   3.313   6.246   0.084 -0.1732 -0.0418  0.1624
 1325SOL    HW2 5066   3.374   6.195   0.137 -0.6797 -0.7641  0.0798
 1325SOL    HW3 5067   3.276   6.310   0.144 -1.2714 -1.3088  0.9091
 1325SOL    MW4 5068   3.316   6.247   0.099 -0.3849 -0.3043  0.2500
 1326SOL     OW 5069   4.014   5.383   3.371 -0.1039  0.1082  0.4283
 1326SOL    HW2 5070   4.065   5.407   3.448 -2.0030 -1.5954  2.3722
 1326SOL    HW3 5071   3.979   5.465   3.338 -0.8878  0.7423  2.6666
 1326SOL    MW4 5072   4.016   5.397   3.377 -0.4579 -0.0329  0.9801
 1327SOL     OW 5073   6.179   0.304   0.307 -0.3793 -0.3263  0.5062
 1327SOL    HW2 5074   6.178   0.282   0.214 -0.3698  1.2885  0.0872
 1327SOL    HW3 5075   6.267   0.282   0.336 -0.2877 -0.5742  0.0592
 1327SOL    MW4 5076   6.190   0.298   0.298 -0.3659 -0.1460  0.3920
 1328SOL     OW 5077   2.861   0.264   2.277  0.0819 -0.3611 -1.1122
 1328SOL    HW2 5078   2.834   0.173   2.268  0.0728 -0.2795 -2.0333
 1328SOL    HW3 5079   2.875   0.294   2.187  0.8796  0.3099 -0.7794
 1328SOL    MW4 5080   2.859   0.256   2.264  0.1860 -0.2618 -1.1898
 1329SOL     OW 5081   3.667   1.931   1.619 -0.2227 -0.8973  0.0720
 1329SOL    HW2 5082   3.698   1.884   1.541  0.3110 -2.1710  1.0144
 1329SOL    HW3 5083   3.718   1.894   1.691 -0.1477  0.8110  0.9422
 1329SOL    MW4 5084   3.677   1.920   1.618 -0.1424 -0.8400  0.3112
 1330SOL     OW 5085   5.771   3.987   5.786 -0.1726 -0.1426  0.1059
 1330SOL    HW2 5086   5.864   3.967   5.796  0.3117  0.9120 -1.7203
 1330SOL    HW3 5087   5.732   3.962   5.869  1.6215 -1.2715  0.6669
 1330SOL    MW4 5088   5.778   3.981   5.798  0.1280 -0.1524 -0.0610
 1331SOL     OW 5089   5.964   1.428   4.726 -0.0315  0.4904 -0.3030
 1331SOL    HW2 5090   6.035   1.378   4.685  0.0284  1.0109 -0.8366
 1331SOL    HW3 5091   5.997   1.517   4.732 -1.1485  1.0289 -1.8095
 1331SOL    MW4 5092   5.978   1.433   4.722 -0.1710  0.6301 -0.5722
 1332SOL     OW 5093   3.908   3.545   1.641  0.4263 -0.0886 -0.3675
 1332SOL    HW2 5094   3.829   3.595   1.620  0.5521  0.0902 -0.4156
 1332SOL    HW3 5095   3.882   3.490   1.715 -0.2333 -1.2327 -1.4058
 1332SOL    MW4 5096   3.894   3.544   1.648  0.3559 -0.2160 -0.5108
 1333SOL     OW 5097   3.275   4.448   5.308  0.0505 -0.5192 -0.5475
 1333SOL    HW2 5098   3.193   4.487   5.279  0.2850 -0.6417 -1.4002
 1333SOL    HW3 5099   3.312   4.513   5.368 -0.1849  0.0013 -0.9528
 1333SOL    MW4 5100   3.269   4.462   5.312  0.0504 -0.4667 -0.7135
 1334SOL     OW 5101   0.519   1.954   6.144  0.3941 -0.1239 -0.1871
 1334SOL    HW2 5102   0.541   1.957   6.237  0.3061  1.1530 -0.1856
 1334SOL    HW3 5103   0.545   2.040   6.111 -0.6116 -0.1577 -1.1006
 1334SOL    MW4 5104   0.525   1.966   6.152  0.2498  0.0401 -0.3074
 1335SOL     OW 5105   3.725   2.993   1.739 -0.0452 -0.1034 -0.2970
 1335SOL    HW2 5106   3.684   3.020   1.821  1.8439 -0.6912  0.8808
 1335SOL    HW3 5107   3.657   2.941   1.695 -0.4946 -1.3421  1.7495
 1335SOL    MW4 5108   3.710   2.990   1.744  0.1447 -0.3444  0.1284
 1336SOL     OW 5109   0.584   2.215   6.040 -0.4112 -0.1887  0.4655
 1336SOL    HW2 5110   0.614   2.268   6.114 -0.7033 -1.4754  1.5611
 1336SOL    HW3 5111   0.493   2.242   6.026  0.0728  1.0861 -0.4176
 1336SOL    MW4 5112   0.576   2.225   6.048 -0.3859 -0.1903  0.4935
 1337SOL     OW 5113   6.074   0.854   1.435 -0.0036 -0.1792  0.2780
 1337SOL    HW2 5114   5.996   0.906   1.456  0.7886  1.3270 -0.3654
 1337SOL    HW3 5115   6.084   0.795   1.510 -0.4664  1.1741  1.4542
 1337SOL    MW4 5116   6.065   0.853   1.448  0.0399  0.1981  0.3483
 1338SOL     OW 5117   2.841   1.189   5.638 -0.2269  0.1133 -0.4188
 1338SOL    HW2 5118   2.930   1.221   5.632 -0.8028  1.6169 -1.7683
 1338SOL    HW3 5119   2.844   1.101   5.601  0.6334  0.3077 -0.8257
 1338SOL    MW4 5120   2.853   1.182   5.632 -0.1894  0.3373 -0.6506
 1339SOL     OW 5121   0.321   4.241   0.406 -0.1788  0.1456  0.0675
 1339SOL    HW2 5122   0.227   4.257   0.412 -0.0119  1.6267 -0.6613
 1339SOL    HW3 5123   0.361   4.313   0.455  0.5873  0.3523 -0.8235
 1339SOL    MW4 5124   0.314   4.253   0.413 -0.0557  0.3683 -0.1462
 1340SOL     OW 5125   2.893   4.469   0.307 -0.3174 -0.5412  0.1858
 1340SOL    HW2 5126   2.901   4.529   0.233 -1.4698 -1.8867 -1.1174
 1340SOL    HW3 5127   2.961   4.403   0.293 -0.6982 -0.9386  0.1626
 1340SOL    MW4 5128   2.903   4.468   0.296 -0.5197 -0.7712  0.0108
 1341SOL     OW 5129   0.355   4.575   0.137  0.6710  0.3810  0.0642
 1341SOL    HW2 5130   0.383   4.487   0.114  1.7523  0.2003  1.8864
 1341SOL    HW3 5131   0.427   4.631   0.109  1.0683  0.3962  1.1098
 1341SOL    MW4 5132   0.368   4.571   0.130  0.8661  0.3591  0.4425
 1342SOL     OW 5133   3.885   3.072   5.489  0.1021  0.0122 -0.3996
 1342SOL    HW2 5134   3.974   3.104   5.507  0.5496 -0.0003 -2.3410
 1342SOL    HW3 5135   3.869   3.007   5.557  1.2368  0.6240  0.4986
 1342SOL    MW4 5136   3.895   3.068   5.500  0.3108  0.0912 -0.5372
 1343SOL     OW 5137   3.153   6.367   3.128  0.1820 -0.4441  0.4772
 1343SOL    HW2 5138   3.212   6.298   3.097  1.5548  0.4929  0.9255
 1343SOL    HW3 5139   3.204   6.413   3.194 -0.2516  1.7395 -0.6426
 1343SOL    MW4 5140   3.168   6.364   3.133  0.3059 -0.0324  0.3886
 1344SOL     OW 5141   5.755   2.315   3.389  0.4882 -0.3270  0.0705
 1344SOL    HW2 5142   5.836   2.267   3.409  0.6832 -0.0297  0.0138
 1344SOL    HW3 5143   5.738   2.293   3.297  1.0937  0.4309 -0.2399
 1344SOL    MW4 5144   5.764   2.306   3.379  0.5938 -0.1878  0.0221
 1345SOL     OW 5145   3.119   3.672   3.957 -0.3132 -0.3000 -0.3248
 1345SOL    HW2 5146   3.155   3.613   4.023 -2.2451 -1.6291 -0.3999
 1345SOL    HW3 5147   3.063   3.732   4.007 -0.1870 -0.0200 -0.5195
 1345SOL    MW4 5148   3.116   3.672   3.972 -0.5515 -0.4384 -0.3604
 1346SOL     OW 5149   5.529   3.556   0.526  0.3623  0.4652  0.3413
 1346SOL    HW2 5150   5.479   3.617   0.471  0.7015 -0.2802 -0.8016
 1346SOL    HW3 5151   5.462   3.503   0.569  0.1214 -0.8310 -1.5314
 1346SOL    MW4 5152   5.513   3.557   0.525  0.3753  0.1959 -0.0566
 1347SOL     OW 5153   3.030   0.054   4.027  0.3430 -0.2857  0.3188
 1347SOL    HW2 5154   2.938   0.037   4.047  0.8682 -0.3927  3.0580
 1347SOL    HW3 5155   3.030   0.138   3.983 -1.1132 -0.6779 -0.4952
 1347SOL    MW4 5156   3.018   0.063   4.024  0.2202 -0.3516  0.5728
 1348SOL     OW 5157   5.698   3.272   5.832 -0.5245  0.5375 -0.1657
 1348SOL    HW2 5158   5.683   3.228   5.749  0.5105 -0.0842 -0.0472
 1348SOL    HW3 5159   5.617   3.320   5.850 -1.4547 -0.8177 -0.6139
 1348SOL    MW4 5160   5.685   3.272   5.824 -0.5107  0.2766 -0.2092
 1349SOL     OW 5161   1.341   1.362   0.582 -0.0771 -0.4056  0.1176
 1349SOL    HW2 5162   1.429   1.400   0.580  0.2776 -1.1666  0.7020
 1349SOL    HW3 5163   1.312   1.364   0.491  0.3099  0.3845 -0.0006
 1349SOL    MW4 5164   1.349   1.367   0.570  0.0208 -0.4017  0.1791
 1350SOL     OW 5165   2.287   3.619   2.384  0.0741 -0.0575 -0.1716
 1350SOL    HW2 5166   2.234   3.691   2.419  0.2001  0.3238 -0.7514
 1350SOL    HW3 5167   2.367   3.662   2.351  0.1478 -0.4636 -0.5242
 1350SOL    MW4 5168   2.291   3.634   2.384  0.1004 -0.0608 -0.2946
 1351SOL     OW 5169   0.844   0.679   5.243 -0.3930 -0.0898 -0.3689
 1351SOL    HW2 5170   0.848   0.594   5.198 -0.8786 -0.7297  0.7441
 1351SOL    HW3 5171   0.873   0.742   5.178  2.2491 -1.3539 -0.5387
 1351SOL    MW4 5172   0.848   0.676   5.229 -0.1085 -0.3410 -0.2444
 1352SOL     OW 5173   3.762   0.358   3.489 -0.0402  0.3808  0.2976
 1352SOL    HW2 5174   3.850   0.322   3.495 -0.0708 -0.0523 -1.3102
 1352SOL    HW3 5175   3.766   0.419   3.415 -1.6646 -1.5697 -1.5403
 1352SOL    MW4 5176   3.774   0.361   3.480 -0.2585  0.0663 -0.1570
 1353SOL     OW 5177   1.827   3.593   2.253 -0.5113 -0.2178 -0.6554
 1353SOL    HW2 5178   1.738   3.571   2.227 -0.9728 -0.3724  0.9238
 1353SOL    HW3 5179   1.833   3.562   2.344  1.8432 -2.1308 -1.3786
 1353SOL    MW4 5180   1.816   3.586   2.262 -0.2616 -0.4906 -0.5425
 1354SOL     OW 5181   3.276   3.560   3.393  0.6227 -0.3025  0.1936
 1354SOL    HW2 5182   3.281   3.483   3.449 -0.7976  0.1885  1.0638
 1354SOL    HW3 5183   3.187   3.594   3.407  0.4868  0.2876 -1.7751
 1354SOL    MW4 5184   3.265   3.554   3.402  0.4174 -0.1599  0.0486
 1355SOL     OW 5185   0.994   1.774   4.059 -0.2368 -0.5087  0.0138
 1355SOL    HW2 5186   1.030   1.707   4.001 -0.4115 -0.0475 -0.6519
 1355SOL    HW3 5187   1.046   1.853   4.039  0.4004 -0.5970  1.2506
 1355SOL    MW4 5188   1.006   1.776   4.048 -0.1758 -0.4595  0.0892
 1356SOL     OW 5189   3.353   1.278   6.263 -0.1845  0.7009 -0.1709
 1356SOL    HW2 5190   3.275   1.239   6.302 -0.2235  1.2456  0.3115
 1356SOL    HW3 5191   3.320   1.329   6.189 -0.3769  1.5381  0.4836
 1356SOL    MW4 5192   3.338   1.279   6.258 -0.2150  0.8832 -0.0209
 1357SOL     OW 5193   6.350   0.436   2.562  0.2430  0.2176  0.4905
 1357SOL    HW2 5194   6.263   0.426   2.601  0.5043 -0.2254  0.9809
 1357SOL    HW3 5195   6.333   0.464   2.472 -0.3280  3.3348  1.4736
 1357SOL    MW4 5196   6.337   0.438   2.555  0.2021  0.5704  0.6849
 1358SOL     OW 5197   0.331   5.449   5.855 -0.0538 -0.4440 -0.3840
 1358SOL    HW2 5198   0.389   5.395   5.801 -0.6894  0.3810 -1.9690
 1358SOL    HW3 5199   0.258   5.471   5.797 -0.7800  0.4813  0.8329
 1358SOL    MW4 5200   0.329   5.445   5.840 -0.2335 -0.2131 -0.4326
 1359SOL     OW 5201   6.334   4.684   4.070 -0.1100  0.4076  0.1562
 1359SOL    HW2 5202   6.253   4.647   4.102  1.2666 -2.3593  0.7213
 1359SOL    HW3 5203   6.393   4.681   4.145  1.3886 -0.4937 -0.9977
 1359SOL    MW4 5204   6.331   4.679   4.084  0.2693 -0.0764  0.0785
 1360SOL     OW 5205   0.877   5.571   3.809  0.1891  0.1532 -0.4344
 1360SOL    HW2 5206   0.852   5.662   3.789 -1.9571 -0.0651  0.9127
 1360SOL    HW3 5207   0.944   5.579   3.877 -0.2179  0.7426 -0.0942
 1360SOL    MW4 5208   0.883   5.584   3.815 -0.1478  0.2022 -0.2118
 1361SOL     OW 5209   3.702   2.238   5.128  0.4614 -0.5908 -0.1342
 1361SOL    HW2 5210   3.742   2.322   5.105  0.4052 -0.8177 -1.0604
 1361SOL    HW3 5211   3.658   2.255   5.211  1.7028 -0.0923  0.4566
 1361SOL    MW4 5212   3.702   2.251   5.136  0.6178 -0.5549 -0.1784
 1362SOL     OW 5213   4.608   5.188   3.197  0.0507  0.4178  0.0553
 1362SOL    HW2 5214   4.530   5.181   3.252  0.0978 -1.5330 -0.0673
 1362SOL    HW3 5215   4.663   5.114   3.224  0.9158  0.5264 -1.3224
 1362SOL    MW4 5216   4.605   5.177   3.208  0.1710  0.1748 -0.1427
 1363SOL     OW 5217   3.807   1.601   5.458 -0.2912  0.5312  0.2170
 1363SOL    HW2 5218   3.851   1.580   5.541  1.1787  0.2775 -0.5955
 1363SOL    HW3 5219   3.786   1.515   5.421  1.1015  0.5683 -0.7113
 1363SOL    MW4 5220   3.810   1.587   5.464  0.0865  0.5026 -0.0127
 1364SOL     OW 5221   5.768   5.434   3.451 -0.0575 -0.7061 -0.0428
 1364SOL    HW2 5222   5.787   5.425   3.358 -0.5413  0.8991 -0.3405
 1364SOL    HW3 5223   5.853   5.434   3.494  0.2765  0.1799 -0.6789
 1364SOL    MW4 5224   5.781   5.433   3.445 -0.0773 -0.3774 -0.1660
 1365SOL     OW 5225   1.682   1.444   2.868 -0.2429 -0.1553  0.4168
 1365SOL    HW2 5226   1.625   1.428   2.943 -0.6367 -0.3618  0.0769
 1365SOL    HW3 5227   1.767   1.466   2.906 -0.5940  0.3310  0.9346
 1365SOL    MW4 5228   1.686   1.445   2.883 -0.3412 -0.1184  0.4403
 1366SOL     OW 5229   3.263   2.098   4.654 -0.7255 -0.3233  0.2724
 1366SOL    HW2 5230   3.246   2.007   4.675 -3.0554  0.0342  0.1909
 1366SOL    HW3 5231   3.194   2.147   4.698  0.0426  1.3476 -0.2611
 1366SOL    MW4 5232   3.252   2.093   4.662 -0.9316 -0.0557  0.1912
 1367SOL     OW 5233   1.521   0.454   1.170 -0.3164 -0.2802 -0.6735
 1367SOL    HW2 5234   1.519   0.436   1.076  1.3574 -0.9999 -0.6151
 1367SOL    HW3 5235   1.518   0.550   1.175 -0.4198 -0.2305 -1.4739
 1367SOL    MW4 5236   1.521   0.464   1.158 -0.1092 -0.3686 -0.7714
 1368SOL     OW 5237   1.445   0.771   4.379 -0.0666 -0.2809 -0.0864
 1368SOL    HW2 5238   1.471   0.689   4.420 -0.0193  0.0819  0.6327
 1368SOL    HW3 5239   1.482   0.767   4.290 -0.3780 -1.1854 -0.1820
 1368SOL    MW4 5240   1.454   0.760   4.373 -0.1014 -0.3523 -0.0041
 1369SOL     OW 5241   0.925   4.835   2.086  0.5328  0.0448  0.1848
 1369SOL    HW2 5242   1.009   4.880   2.092  0.8623 -0.1605 -2.0730
 1369SOL    HW3 5243   0.873   4.871   2.158  2.5642  0.0490  1.7378
 1369SOL    MW4 5244   0.929   4.845   2.096  0.8443  0.0182  0.0918
 1370SOL     OW 5245   5.539   6.224   0.922 -0.2967 -0.0081  0.4054
 1370SOL    HW2 5246   5.578   6.183   0.844 -0.0333  1.9472 -0.5732
 1370SOL    HW3 5247   5.471   6.281   0.887 -0.8181  0.2016  1.7112
 1370SOL    MW4 5248   5.535   6.226   0.907 -0.3308  0.2775  0.4486
 1371SOL     OW 5249   4.024   5.666   3.761 -0.6062 -0.6146  0.0842
 1371SOL    HW2 5250   3.937   5.694   3.788 -0.3447 -0.5741  0.8845
 1371SOL    HW3 5251   4.070   5.747   3.740 -0.8074 -0.6458 -0.5234
 1371SOL    MW4 5252   4.018   5.681   3.762 -0.5983 -0.6133  0.1096
 1372SOL     OW 5253   6.164   0.164   5.937 -0.2359  0.1308  0.4606
 1372SOL    HW2 5254   6.071   0.177   5.915 -0.1750  1.7508  1.0426
 1372SOL    HW3 5255   6.211   0.218   5.873  0.2286  0.3796  1.0088
 1372SOL    MW4 5256   6.158   0.173   5.926 -0.1666  0.3774  0.6097
 1373SOL     OW 5257   4.973   0.539   1.264 -0.9127  0.7609 -0.1646
 1373SOL    HW2 5258   4.958   0.623   1.221 -0.4405  1.2195  0.5428
 1373SOL    HW3 5259   4.927   0.546   1.347  0.8871  1.1628  0.8515
 1373SOL    MW4 5260   4.965   0.551   1.269 -0.6129  0.8744  0.0628
 1374SOL     OW 5261   4.246   6.080   0.983  0.0220  0.9621  0.3981
 1374SOL    HW2 5262   4.329   6.033   0.978 -1.2592 -1.3862 -0.4249
 1374SOL    HW3 5263   4.270   6.169   1.007  2.5525 -0.2587  2.9779
 1374SOL    MW4 5264   4.260   6.086   0.986  0.1868  0.4912  0.6299
 1375SOL     OW 5265   0.989   1.643   2.690  0.6167 -0.2468  0.2346
 1375SOL    HW2 5266   0.929   1.715   2.709  0.2248  0.5219 -3.1929
 1375SOL    HW3 5267   0.953   1.568   2.737 -0.6829  1.1019  1.4729
 1375SOL    MW4 5268   0.976   1.642   2.698  0.3935  0.0326 -0.0543
 1376SOL     OW 5269   6.298   6.199   0.727  0.0110 -0.5270 -0.2100
 1376SOL    HW2 5270   6.353   6.274   0.705  0.2189 -0.5734  0.1416
 1376SOL    HW3 5271   6.316   6.135   0.658  0.7556 -0.7227  0.1582
 1376SOL    MW4 5272   6.308   6.201   0.715  0.1367 -0.5589 -0.1151
 1377SOL     OW 5273   3.084   1.516   1.529 -0.2063 -0.5343  0.1799
 1377SOL    HW2 5274   3.112   1.533   1.439 -0.1642 -0.3256  0.2335
 1377SOL    HW3 5275   3.151   1.558   1.583  0.7542 -2.1589  0.3283
 1377SOL    MW4 5276   3.097   1.524   1.524 -0.0740 -0.7211  0.2066
 1378SOL     OW 5277   1.593   5.472   5.008 -0.4852 -0.0499 -0.4462
 1378SOL    HW2 5278   1.629   5.560   4.997  0.3974 -0.4369 -0.7911
 1378SOL    HW3 5279   1.617   5.426   4.927 -0.6335 -0.7017 -0.1267
 1378SOL    MW4 5280   1.601   5.478   4.996 -0.3883 -0.1870 -0.4495
 1379SOL     OW 5281   6.362   2.910   5.754  0.0309 -0.4790 -1.0667
 1379SOL    HW2 5282   6.354   2.824   5.796 -1.8026 -0.9850 -2.3059
 1379SOL    HW3 5283   6.347   2.893   5.661  0.8086  1.0421 -1.5023
 1379SOL    MW4 5284   6.359   2.897   5.748 -0.1084 -0.3451 -1.2877
 1380SOL     OW 5285   3.412   0.286   0.948 -0.0091 -0.2070 -0.0870
 1380SOL    HW2 5286   3.419   0.307   0.855 -0.7175  3.3160  0.4994
 1380SOL    HW3 5287   3.442   0.365   0.993 -1.4298 -1.0745  2.6425
 1380SOL    MW4 5288   3.417   0.299   0.941 -0.2900  0.1434  0.3505
 1381SOL     OW 5289   6.174   4.547   3.114  0.4841 -0.0726 -0.3129
 1381SOL    HW2 5290   6.193   4.467   3.164  0.2816  0.2049  0.2126
 1381SOL    HW3 5291   6.259   4.590   3.105  1.0828 -1.5256 -2.7317
 1381SOL    MW4 5292   6.188   4.542   3.119  0.5364 -0.2277 -0.5627
 1382SOL     OW 5293   1.238   5.873   6.103 -0.0550  0.1513  0.4513
 1382SOL    HW2 5294   1.164   5.834   6.150 -0.3817  0.7924  0.4852
 1382SOL    HW3 5295   1.302   5.892   6.172 -0.1226  0.1769  0.5074
 1382SOL    MW4 5296   1.236   5.871   6.119 -0.1071  0.2393  0.4631
 1383SOL     OW 5297   5.606   0.676   2.690  0.1804  0.0648 -0.3128
 1383SOL    HW2 5298   5.652   0.688   2.607  1.0374  0.0909  0.1624
 1383SOL    HW3 5299   5.673   0.646   2.751 -0.4522  0.0028  0.3640
 1383SOL    MW4 5300   5.621   0.673   2.687  0.2100  0.0601 -0.1609
 1384SOL     OW 5301   1.087   0.469   5.403 -0.5123  0.4386  0.4818
 1384SOL    HW2 5302   0.992   0.467   5.387 -0.2307 -2.3501 -1.3436
 1384SOL    HW3 5303   1.099   0.417   5.482 -0.4197  0.0766  0.2282
 1384SOL    MW4 5304   1.076   0.462   5.412 -0.4629  0.0229  0.2075
 1385SOL     OW 5305   3.526   1.054   0.367  0.1568 -0.0082  0.5884
 1385SOL    HW2 5306   3.521   1.110   0.290 -2.9639 -1.2683 -0.2705
 1385SOL    HW3 5307   3.488   1.106   0.438  1.5470  0.5671  0.9415
 1385SOL    MW4 5308   3.520   1.068   0.366 -0.0715 -0.0986  0.5217
 1386SOL     OW 5309   2.588   2.615   4.261  0.1946 -0.2996 -0.0626
 1386SOL    HW2 5310   2.676   2.578   4.251 -0.2844 -1.5106 -0.0532
 1386SOL    HW3 5311   2.537   2.543   4.299 -0.3322  1.0327  1.8887
 1386SOL    MW4 5312   2.593   2.600   4.265  0.0619 -0.2836  0.1961
 1387SOL     OW 5313   3.855   5.158   4.607 -0.0977 -0.4458 -0.3052
 1387SOL    HW2 5314   3.805   5.101   4.666 -1.5969 -0.1259 -1.2175
 1387SOL    HW3 5315   3.822   5.246   4.625 -0.1368 -0.2728 -1.1928
 1387SOL    MW4 5316   3.844   5.162   4.618 -0.3006 -0.3807 -0.5426
 1388SOL     OW 5317   6.431   3.468   1.524  0.3274  0.0712  0.1089
 1388SOL    HW2 5318   6.371   3.543   1.530  0.4101  0.1095  0.4757
 1388SOL    HW3 5319   6.493   3.493   1.456  0.2272  0.2476  0.0815
 1388SOL    MW4 5320   6.431   3.481   1.516  0.3251  0.0995  0.1537
 1389SOL     OW 5321   1.220   0.394   4.564  0.7883  0.2703  0.2400
 1389SOL    HW2 5322   1.178   0.473   4.531  1.1108  0.4542  0.2634
 1389SOL    HW3 5323   1.311   0.419   4.578  0.8637 -0.0684  0.3757
 1389SOL    MW4 5324   1.227   0.407   4.561  0.8408  0.2499  0.2610
 1390SOL     OW 5325   2.272   2.524   1.665 -0.1607  0.1824 -0.1416
 1390SOL    HW2 5326   2.261   2.430   1.649 -0.2913  0.0266  0.7726
 1390SOL    HW3 5327   2.221   2.566   1.596 -2.2207 -0.4687  0.8619
 1390SOL    MW4 5328   2.264   2.517   1.654 -0.4497  0.0759  0.1114
 1391SOL     OW 5329   6.199   1.641   4.550  0.2189  0.2379  0.0538
 1391SOL    HW2 5330   6.178   1.577   4.483 -2.4750 -0.1864  1.1442
 1391SOL    HW3 5331   6.247   1.710   4.504 -2.8632  0.7701 -2.7611
 1391SOL    MW4 5332   6.202   1.642   4.535 -0.5432  0.2522 -0.1737
 1392SOL     OW 5333   5.522   3.120   0.138  0.4269  0.5905 -0.2829
 1392SOL    HW2 5334   5.580   3.175   0.085  0.5787  0.0874 -0.6387
 1392SOL    HW3 5335   5.442   3.112   0.086  0.8365 -0.4896 -0.7674
 1392SOL    MW4 5336   5.519   3.126   0.124  0.5010  0.3816 -0.3938
 1393SOL     OW 5337   5.988   3.121   3.770  0.3269 -0.2367  0.0990
 1393SOL    HW2 5338   5.950   3.036   3.792 -1.3155  0.0745 -1.3258
 1393SOL    HW3 5339   6.021   3.155   3.853 -0.2109 -1.6711  0.9320
 1393SOL    MW4 5340   5.987   3.114   3.784  0.0393 -0.3849  0.0209
 1394SOL     OW 5341   1.331   5.931   1.516 -0.1519 -0.0668  0.7058
 1394SOL    HW2 5342   1.383   5.999   1.473 -0.1691  0.2182  1.1288
 1394SOL    HW3 5343   1.260   5.913   1.455  1.1427 -1.3975 -0.4936
 1394SOL    MW4 5344   1.329   5.938   1.503  0.0166 -0.2048  0.6034
 1395SOL     OW 5345   3.619   3.446   4.833  0.5065  0.0937  0.1945
 1395SOL    HW2 5346   3.672   3.506   4.782  1.7124 -1.3321 -0.3109
 1395SOL    HW3 5347   3.605   3.371   4.776 -0.2811 -0.4541  1.0686
 1395SOL    MW4 5348   3.624   3.444   4.819  0.5617 -0.1667  0.2432
 1396SOL     OW 5349   2.254   5.906   1.444 -0.1708 -0.0036 -0.0415
 1396SOL    HW2 5350   2.207   5.825   1.421  2.4518 -1.5340 -0.3778
 1396SOL    HW3 5351   2.283   5.892   1.534 -0.5033  1.0175  0.2370
 1396SOL    MW4 5352   2.251   5.894   1.453  0.1314 -0.0708 -0.0491
 1397SOL     OW 5353   0.109   6.248   0.464 -0.7023  0.6526  0.3722
 1397SOL    HW2 5354   0.139   6.263   0.554 -0.6351 -0.2477  0.5137
 1397SOL    HW3 5355   0.178   6.195   0.424 -0.1940  1.9860 -0.5743
 1397SOL    MW4 5356   0.122   6.243   0.471 -0.6263  0.7098  0.2660
 1398SOL     OW 5357   0.948   1.121   2.709  0.3664  0.0337  0.0911
 1398SOL    HW2 5358   0.991   1.037   2.699 -0.2039 -0.1196 -1.3642
 1398SOL    HW3 5359   0.906   1.137   2.624 -0.2954  1.3542  0.6293
 1398SOL    MW4 5360   0.948   1.112   2.696  0.2038  0.1877 -0.0299
 1399SOL     OW 5361   4.344   4.504   1.144 -0.5122 -0.1148 -0.3352
 1399SOL    HW2 5362   4.350   4.427   1.201  1.4200  1.2123  1.4037
 1399SOL    HW3 5363   4.277   4.559   1.185  1.3059  1.1159  1.1137
 1399SOL    MW4 5364   4.336   4.501   1.157 -0.0174  0.2227  0.0854
 1400SOL     OW 5365   0.882   3.705   5.292 -0.4677 -0.1789 -0.0782
 1400SOL    HW2 5366   0.872   3.795   5.259  0.1030  0.0822  0.4343
 1400SOL    HW3 5367   0.823   3.653   5.238  0.2773  0.2665 -1.3719
 1400SOL    MW4 5368   0.873   3.710   5.281 -0.2941 -0.0857 -0.1812
 1401SOL     OW 5369   2.421   2.429   4.386 -0.4019 -0.2588  0.1812
 1401SOL    HW2 5370   2.449   2.363   4.449 -0.2105  0.9802  1.4607
 1401SOL    HW3 5371   2.326   2.434   4.397 -0.2568  0.6919  1.1682
 1401SOL    MW4 5372   2.412   2.421   4.396 -0.3575  0.0301  0.4802
 1402SOL     OW 5373   1.697   5.970   0.280 -0.0246 -0.4804 -0.0985
 1402SOL    HW2 5374   1.607   5.945   0.295 -0.4531  0.3486 -1.1133
 1402SOL    HW3 5375   1.692   6.063   0.256  1.2826  0.1002  1.6664
 1402SOL    MW4 5376   1.685   5.979   0.279  0.0913 -0.2944  0.0005
 1403SOL     OW 5377   6.022   3.587   5.906 -0.3438 -0.2957  0.1959
 1403SOL    HW2 5378   6.029   3.494   5.927 -0.5112  0.1940  2.6761
 1403SOL    HW3 5379   6.046   3.592   5.813  0.8543 -2.6441  0.2998
 1403SOL    MW4 5380   6.026   3.575   5.896 -0.2078 -0.5409  0.5368
 1404SOL     OW 5381   0.355   5.968   3.915  0.3947 -1.0078 -0.3975
 1404SOL    HW2 5382   0.399   5.963   3.829  1.0752  1.1729 -0.2436
 1404SOL    HW3 5383   0.401   6.038   3.961 -1.7056 -0.3004  0.7321
 1404SOL    MW4 5384   0.367   5.976   3.909  0.2073 -0.6267 -0.2282
 1405SOL     OW 5385   5.164   5.201   5.199 -0.2848  1.1210  0.4885
 1405SOL    HW2 5386   5.242   5.228   5.248  0.1034 -0.0628  0.5618
 1405SOL    HW3 5387   5.137   5.279   5.152  2.0411  1.1453 -1.0187
 1405SOL    MW4 5388   5.171   5.215   5.199  0.0732  0.9680  0.2993
 1406SOL     OW 5389   2.413   3.891   1.892 -0.1483  0.1207 -0.0929
 1406SOL    HW2 5390   2.372   3.891   1.806  3.5566 -0.2548 -2.0613
 1406SOL    HW3 5391   2.452   3.978   1.900  1.1359 -0.4678  0.3126
 1406SOL    MW4 5392   2.412   3.902   1.882  0.5100 -0.0065 -0.2991
 1407SOL     OW 5393   1.128   1.394   1.009 -0.1464 -0.1657 -0.1114
 1407SOL    HW2 5394   1.122   1.453   1.084 -2.9258 -1.3535  0.7352
 1407SOL    HW3 5395   1.080   1.316   1.036  2.0075 -2.2408 -1.7754
 1407SOL    MW4 5396   1.121   1.392   1.023 -0.2289 -0.5962 -0.2192
 1408SOL     OW 5397   0.019   0.786   1.223  0.1209  0.3231  0.0095
 1408SOL    HW2 5398  -0.053   0.777   1.160 -1.8024  1.2823  1.9570
 1408SOL    HW3 5399  -0.003   0.724   1.292  1.2628  0.5299  0.5665
 1408SOL    MW4 5400   0.006   0.776   1.224  0.0178  0.4769  0.3400
 1409SOL     OW 5401   2.769   2.404   5.543  0.1140  0.2992  0.3059
 1409SOL    HW2 5402   2.704   2.474   5.553  1.8900  1.8086  1.9141
 1409SOL    HW3 5403   2.799   2.386   5.632  1.0505 -1.2370 -0.2786
 1409SOL    MW4 5404   2.764   2.410   5.556  0.4719  0.2957  0.4410
 1410SOL     OW 5405   0.155   4.784   5.623  0.0251 -0.7484 -0.0409
 1410SOL    HW2 5406   0.090   4.772   5.554 -0.6559 -1.3797  0.6747
 1410SOL    HW3 5407   0.108   4.760   5.703  0.4635  0.9846  0.7780
 1410SOL    MW4 5408   0.140   4.779   5.625 -0.0069 -0.6030  0.1616
 1411SOL     OW 5409   2.138   4.373   0.083  0.3236  0.6764 -0.1506
 1411SOL    HW2 5410   2.109   4.306   0.145 -1.5772  0.6391 -0.9874
 1411SOL    HW3 5411   2.222   4.341   0.050 -0.2921 -1.0620 -0.1459
 1411SOL    MW4 5412   2.145   4.360   0.087 -0.0085  0.4421 -0.2604
 1412SOL     OW 5413   0.697   4.014   1.850  0.6637  0.0190  0.3758
 1412SOL    HW2 5414   0.745   4.069   1.911  0.8463  1.3622 -0.9071
 1412SOL    HW3 5415   0.748   3.933   1.844  1.8283  0.7341  0.3455
 1412SOL    MW4 5416   0.710   4.011   1.857  0.8414  0.2906  0.2025
 1413SOL     OW 5417   0.279   3.356   0.103  0.0283  0.0344  0.3985
 1413SOL    HW2 5418   0.325   3.360   0.187  4.0270  2.5224 -1.5923
 1413SOL    HW3 5419   0.324   3.287   0.054 -0.6575  0.1983 -0.4946
 1413SOL    MW4 5420   0.291   3.347   0.108  0.4654  0.3843  0.0180
 1414SOL     OW 5421   4.837   5.394   3.274 -0.6888  0.3649 -0.1382
 1414SOL    HW2 5422   4.806   5.484   3.262 -1.4109  0.4880  2.1364
 1414SOL    HW3 5423   4.767   5.340   3.238 -1.8107  0.7095  1.4217
 1414SOL    MW4 5424   4.824   5.399   3.267 -0.9321  0.4266  0.3677
 1415SOL     OW 5425   0.635   5.961   5.912  0.6310 -0.0923 -0.0262
 1415SOL    HW2 5426   0.628   6.008   5.995 -0.2307 -0.6476  0.2264
 1415SOL    HW3 5427   0.712   5.904   5.924 -0.3913 -1.3174  1.0061
 1415SOL    MW4 5428   0.644   5.959   5.925  0.3824 -0.3272  0.1433
 1416SOL     OW 5429   2.864   0.833   2.290 -0.1137  0.2873 -0.0803
 1416SOL    HW2 5430   2.858   0.867   2.201  1.9098  0.7944 -0.0571
 1416SOL    HW3 5431   2.886   0.741   2.279 -0.9338  0.0793 -0.0855
 1416SOL    MW4 5432   2.866   0.825   2.277  0.0450  0.3268 -0.0779
 1417SOL     OW 5433   5.506   4.766   6.479 -0.2629 -0.2942 -0.3111
 1417SOL    HW2 5434   5.449   4.695   6.508  0.2092 -0.3948  0.3877
 1417SOL    HW3 5435   5.508   4.758   6.383 -1.6951 -0.0760 -0.3833
 1417SOL    MW4 5436   5.498   4.756   6.470 -0.3896 -0.2787 -0.2284
 1418SOL     OW 5437   4.363   3.562   1.632  0.2099  0.2735 -0.5144
 1418SOL    HW2 5438   4.350   3.655   1.618 -2.1567  0.0693 -0.1252
 1418SOL    HW3 5439   4.292   3.520   1.584 -0.3993 -1.1500  1.4709
 1418SOL    MW4 5440   4.352   3.568   1.624 -0.1827  0.0588 -0.2011
 1419SOL     OW 5441   5.476   1.022   3.513  0.4215 -0.1596  0.0129
 1419SOL    HW2 5442   5.526   0.994   3.589  0.6869 -0.6082 -0.3238
 1419SOL    HW3 5443   5.478   0.947   3.454 -0.5374 -0.1384 -0.0634
 1419SOL    MW4 5444   5.483   1.008   3.515  0.3300 -0.2160 -0.0416
 1420SOL     OW 5445   3.674   4.245   3.478  0.1847  0.1570 -0.3503
 1420SOL    HW2 5446   3.716   4.283   3.401  1.3687  1.0612  0.7047
 1420SOL    HW3 5447   3.677   4.314   3.544 -0.0095 -0.8780  0.7846
 1420SOL    MW4 5448   3.680   4.259   3.477  0.3153  0.1398 -0.0614
 1421SOL     OW 5449   1.163   5.066   5.935  0.1646  0.3357 -0.2975
 1421SOL    HW2 5450   1.229   5.128   5.905 -0.0118  0.5997 -0.1424
 1421SOL    HW3 5451   1.149   5.008   5.860 -0.6573  1.3073 -0.9262
 1421SOL    MW4 5452   1.170   5.066   5.921  0.0329  0.4987 -0.3600
 1422SOL     OW 5453   2.776   3.683   1.806 -0.3166  0.0520 -0.1540
 1422SOL    HW2 5454   2.731   3.687   1.721  0.6471  0.5390 -0.6572
 1422SOL    HW3 5455   2.707   3.699   1.870 -1.0979 -0.4929 -0.8236
 1422SOL    MW4 5456   2.761   3.685   1.803 -0.2925  0.0444 -0.3087
 1423SOL     OW 5457   4.455   5.127   6.458  0.0837  0.2674 -0.4029
 1423SOL    HW2 5458   4.405   5.076   6.393  0.0459  1.6777 -1.5464
 1423SOL    HW3 5459   4.388   5.179   6.503  0.1816 -0.2499  0.3403
 1423SOL    MW4 5460   4.439   5.127   6.455  0.0916  0.3852 -0.4558
 1424SOL     OW 5461   1.290   3.982   5.724 -0.1017  0.0322  0.2260
 1424SOL    HW2 5462   1.198   3.954   5.725 -0.0709 -0.2956 -1.5630
 1424SOL    HW3 5463   1.300   4.034   5.803 -2.2700  1.4309 -0.3119
 1424SOL    MW4 5464   1.279   3.985   5.735 -0.3838  0.1735 -0.0810
 1425SOL     OW 5465   6.135   0.055   3.022 -0.1648 -0.1983  0.1515
 1425SOL    HW2 5466   6.043   0.081   3.022  0.1204  0.8581 -0.0300
 1425SOL    HW3 5467   6.171   0.099   2.945  0.2304 -1.6000 -0.5051
 1425SOL    MW4 5468   6.127   0.064   3.012 -0.0750 -0.2439  0.0410
 1426SOL     OW 5469   4.700   2.152   4.167  0.3105 -0.4279  0.5391
 1426SOL    HW2 5470   4.636   2.084   4.188 -0.1951 -0.7870 -1.8752
 1426SOL    HW3 5471   4.651   2.218   4.120  1.4484 -0.1046 -0.2530
 1426SOL    MW4 5472   4.685   2.151   4.163  0.3939 -0.4326  0.1161
 1427SOL     OW 5473   1.600   4.438   4.491  0.2159  0.0913  0.4459
 1427SOL    HW2 5474   1.682   4.454   4.537  0.2928  1.1448 -0.0233
 1427SOL    HW3 5475   1.603   4.345   4.469  0.3502 -0.3391  2.1844
 1427SOL    MW4 5476   1.611   4.428   4.494  0.2437  0.1735  0.6134
 1428SOL     OW 5477   3.961   1.428   6.299 -0.6565 -0.0489 -0.0101
 1428SOL    HW2 5478   3.985   1.369   6.227  1.1889 -0.2346  0.6958
 1428SOL    HW3 5479   3.879   1.392   6.333 -0.7307 -0.8836 -0.9995
 1428SOL    MW4 5480   3.953   1.416   6.294 -0.4228 -0.1835 -0.0475
 1429SOL     OW 5481   0.749   4.417   2.960 -0.4057 -0.7512 -0.1039
 1429SOL    HW2 5482   0.759   4.321   2.955  0.8205 -0.6222 -0.4543
 1429SOL    HW3 5483   0.770   4.438   3.051 -1.7964 -0.9101  0.2811
 1429SOL    MW4 5484   0.753   4.407   2.972 -0.4274 -0.7552 -0.0993
 1430SOL     OW 5485   5.015   2.149   2.034  0.6966 -0.2764 -0.0292
 1430SOL    HW2 5486   4.924   2.132   2.011  0.8651 -0.8707 -0.2781
 1430SOL    HW3 5487   5.065   2.081   1.988  1.3619  0.6174 -0.6599
 1430SOL    MW4 5488   5.010   2.138   2.025  0.8066 -0.2369 -0.1453
 1431SOL     OW 5489   1.655   4.225   6.217 -0.0342  0.2423  0.2497
 1431SOL    HW2 5490   1.711   4.271   6.280 -0.7084  0.9827  0.3270
 1431SOL    HW3 5491   1.625   4.294   6.158  0.7846 -0.4685 -1.0522
 1431SOL    MW4 5492   1.659   4.240   6.218 -0.0151  0.2462  0.0881
 1432SOL     OW 5493   0.670   4.252   2.313  0.0287  0.1513 -0.2426
 1432SOL    HW2 5494   0.598   4.270   2.253 -0.5200  0.7649  0.5787
 1432SOL    HW3 5495   0.690   4.337   2.352  0.0677 -0.3211  0.7901
 1432SOL    MW4 5496   0.663   4.266   2.310 -0.0386  0.1700  0.0020
 1433SOL     OW 5497   0.081   2.044   5.445 -0.3723 -0.2104  0.0017
 1433SOL    HW2 5498   0.011   2.085   5.496  0.4035  1.5816 -0.2671
 1433SOL    HW3 5499   0.152   2.030   5.508  0.0802  0.7228 -0.2776
 1433SOL    MW4 5500   0.081   2.048   5.460 -0.2103  0.1492 -0.0706
 1434SOL     OW 5501   2.975   1.785   5.584  0.6066  0.3073 -0.1035
 1434SOL    HW2 5502   2.942   1.839   5.513 -0.3738 -0.4358 -0.2352
 1434SOL    HW3 5503   2.965   1.695   5.552 -1.6325 -0.1709  1.6504
 1434SOL    MW4 5504   2.969   1.780   5.571  0.1818  0.1461  0.1105
 1435SOL     OW 5505   2.269   5.531   4.038  0.3347 -0.3586  0.2874
 1435SOL    HW2 5506   2.184   5.500   4.006  0.2638  1.1006 -1.0873
 1435SOL    HW3 5507   2.330   5.510   3.967  0.9823 -0.7087  0.9391
 1435SOL    MW4 5508   2.266   5.524   4.024  0.4108 -0.2123  0.1920
 1436SOL     OW 5509   3.538   3.085   4.112 -0.2250  0.2683  0.4803
 1436SOL    HW2 5510   3.599   3.073   4.185  2.7542 -1.0433 -1.9696
 1436SOL    HW3 5511   3.519   3.179   4.111  1.4419  0.6645  1.6576
 1436SOL    MW4 5512   3.543   3.096   4.121  0.3880  0.1476  0.3124
 1437SOL     OW 5513   0.818   4.188   3.851  0.3225 -0.0292 -0.0244
 1437SOL    HW2 5514   0.865   4.198   3.768 -0.7884  0.6351 -0.5946
 1437SOL    HW3 5515   0.865   4.245   3.911 -1.0521  2.5000 -1.1775
 1437SOL    MW4 5516   0.831   4.197   3.848 -0.0054  0.3922 -0.2517
 1438SOL     OW 5517   0.426   0.066   4.902 -0.1185 -0.1006  0.1515
 1438SOL    HW2 5518   0.491   0.025   4.960  0.5260  1.6612  0.7250
 1438SOL    HW3 5519   0.423   0.009   4.825 -0.0621 -1.8024  1.3519
 1438SOL    MW4 5520   0.434   0.053   4.899 -0.0260 -0.0927  0.3855
 1439SOL     OW 5521   5.443   3.933   5.701  0.3202 -0.1476  0.0192
 1439SOL    HW2 5522   5.406   3.989   5.769 -0.4653  1.5308 -1.6747
 1439SOL    HW3 5523   5.502   3.990   5.652  0.7136 -1.2399 -0.8335
 1439SOL    MW4 5524   5.446   3.948   5.703  0.2685 -0.0703 -0.3168
 1440SOL     OW 5525   1.783   3.165   1.892 -0.4887 -0.0450 -0.0026
 1440SOL    HW2 5526   1.688   3.180   1.888 -0.3305  1.7871  1.5964
 1440SOL    HW3 5527   1.801   3.153   1.986  0.8480 -0.5712 -0.3092
 1440SOL    MW4 5528   1.773   3.165   1.904 -0.2915  0.1273  0.1679
 1441SOL     OW 5529   5.512   5.077   4.580  0.1006 -0.3211 -0.6482
 1441SOL    HW2 5530   5.535   5.168   4.599 -1.1686 -0.3512  1.2778
 1441SOL    HW3 5531   5.417   5.078   4.569 -0.2130 -1.6675  1.3650
 1441SOL    MW4 5532   5.503   5.089   4.581 -0.1082 -0.5027 -0.1285
 1442SOL     OW 5533   5.864   1.565   3.500  0.5622 -0.1196 -0.3999
 1442SOL    HW2 5534   5.884   1.576   3.593  0.5150  1.2349 -0.5336
 1442SOL    HW3 5535   5.825   1.478   3.494 -2.4981  0.9832  1.3837
 1442SOL    MW4 5536   5.861   1.555   3.511  0.1522  0.2046 -0.1822
 1443SOL     OW 5537   2.568   4.490   2.944  0.6641  0.0691  0.3178
 1443SOL    HW2 5538   2.615   4.561   2.900  0.6097 -1.1224 -1.8248
 1443SOL    HW3 5539   2.634   4.445   2.995  1.2469  0.1450 -0.3513
 1443SOL    MW4 5540   2.583   4.494   2.945  0.7338 -0.0781 -0.0532
 1444SOL     OW 5541   4.109   5.049   2.467  0.4350  0.4847  0.0002
 1444SOL    HW2 5542   4.140   5.103   2.394 -0.1342  2.2831  1.0119
 1444SOL    HW3 5543   4.177   4.984   2.480  2.1251  2.1737 -0.0293
 1444SOL    MW4 5544   4.122   5.048   2.459  0.5829  0.9448  0.1298
 1445SOL     OW 5545   3.131   0.233   1.031  0.4680 -0.0524  0.5817
 1445SOL    HW2 5546   3.089   0.303   0.982 -0.5926 -0.3820  0.9982
 1445SOL    HW3 5547   3.225   0.248   1.019  0.2440  0.1910 -1.0741
 1445SOL    MW4 5548   3.138   0.244   1.023  0.2985 -0.0638  0.4182
 1446SOL     OW 5549   1.567   1.078   3.202  0.1810  0.6053 -0.3671
 1446SOL    HW2 5550   1.493   1.103   3.258 -0.9074 -0.5595 -1.2156
 1446SOL    HW3 5551   1.533   1.007   3.148  2.4969 -1.2738  0.4833
 1446SOL    MW4 5552   1.552   1.072   3.202  0.3430  0.2037 -0.3668
 1447SOL     OW 5553   0.069   0.868   4.691  0.4246  0.3041 -0.5567
 1447SOL    HW2 5554   0.096   0.953   4.658 -0.7181  1.3373  1.0405
 1447SOL    HW3 5555   0.125   0.851   4.766  0.0192  0.0980 -0.2939
 1447SOL    MW4 5556   0.080   0.877   4.697  0.2203  0.4132 -0.3113
 1448SOL     OW 5557   1.521   4.609   4.257  0.0480  0.2613  0.2580
 1448SOL    HW2 5558   1.550   4.555   4.330  3.7690  0.3007 -1.0080
 1448SOL    HW3 5559   1.507   4.547   4.185 -0.2891  0.5578  0.0605
 1448SOL    MW4 5560   1.523   4.593   4.257  0.4945  0.3056  0.0649
 1449SOL     OW 5561   3.069   2.164   1.887 -0.0535 -0.5252 -0.5211
 1449SOL    HW2 5562   3.048   2.195   1.975  1.4720  0.9368 -0.6201
 1449SOL    HW3 5563   3.071   2.068   1.895 -0.9708 -0.4679  0.7559
 1449SOL    MW4 5564   3.066   2.155   1.900  0.0267 -0.3248 -0.3657
 1450SOL     OW 5565   1.525   3.184   1.092 -0.4241 -0.0469 -0.7584
 1450SOL    HW2 5566   1.520   3.192   0.997  2.4511 -0.7632 -1.0606
 1450SOL    HW3 5567   1.617   3.164   1.110 -1.1719 -1.5320  2.0636
 1450SOL    MW4 5568   1.536   3.182   1.082 -0.1434 -0.3373 -0.4260
 1451SOL     OW 5569   2.677   5.163   5.029  0.3879  0.8717 -0.0090
 1451SOL    HW2 5570   2.666   5.206   4.943 -0.9641  0.5681 -0.0065
 1451SOL    HW3 5571   2.609   5.096   5.031  1.1510  0.1058  0.8488
 1451SOL    MW4 5572   2.667   5.160   5.018  0.3102  0.7306  0.1045
 1452SOL     OW 5573   4.931   3.396   4.038 -0.5422  0.0368  0.1885
 1452SOL    HW2 5574   4.869   3.327   4.061  1.4015 -2.2138 -0.9466
 1452SOL    HW3 5575   4.943   3.445   4.120 -3.0704  0.0168  0.6491
 1452SOL    MW4 5576   4.925   3.393   4.052 -0.6193 -0.2628  0.0995
 1453SOL     OW 5577   0.473   1.372   3.911  0.0213 -0.0705 -0.4012
 1453SOL    HW2 5578   0.444   1.459   3.938 -0.5320  0.4741 -2.5855
 1453SOL    HW3 5579   0.567   1.373   3.928  0.1411  1.2164 -0.9646
 1453SOL    MW4 5580   0.482   1.384   3.917 -0.0359  0.1711 -0.7637
 1454SOL     OW 5581   5.727   2.839   3.538  0.0936  0.4801  0.0125
 1454SOL    HW2 5582   5.635   2.822   3.557 -0.3083  1.9161 -0.5386
 1454SOL    HW3 5583   5.760   2.756   3.501 -1.4869  0.5140 -1.6013
 1454SOL    MW4 5584   5.719   2.826   3.536 -0.1680  0.6741 -0.2731
 1455SOL     OW 5585   1.813   6.209   3.150  0.5111 -0.8707 -0.3697
 1455SOL    HW2 5586   1.884   6.273   3.146 -0.0732 -0.1088  0.8745
 1455SOL    HW3 5587   1.794   6.189   3.058  2.0083 -0.7618 -0.7384
 1455SOL    MW4 5588   1.820   6.215   3.137  0.6315 -0.7558 -0.2542
 1456SOL     OW 5589   5.677   1.445   2.893  0.0297 -0.1223 -0.0164
 1456SOL    HW2 5590   5.657   1.487   2.977  1.9847  0.3752  0.2599
 1456SOL    HW3 5591   5.693   1.518   2.833 -1.6217 -0.4695 -0.9390
 1456SOL    MW4 5592   5.677   1.460   2.896  0.0698 -0.1024 -0.1016
 1457SOL     OW 5593   2.166   5.175   2.356  0.3116  0.0142 -0.3063
 1457SOL    HW2 5594   2.079   5.195   2.322 -0.3740 -0.5468  1.0397
 1457SOL    HW3 5595   2.221   5.248   2.328 -1.2132  1.8465  1.1790
 1457SOL    MW4 5596   2.162   5.187   2.348  0.0200  0.1819  0.0673
 1458SOL     OW 5597   3.076   3.450   0.320 -0.2448  0.4375  0.1657
 1458SOL    HW2 5598   3.116   3.493   0.244  0.9735 -1.2512 -0.2007
 1458SOL    HW3 5599   3.072   3.358   0.296  1.8765 -0.4753  2.8077
 1458SOL    MW4 5600   3.081   3.444   0.306  0.1958  0.0943  0.4659
 1459SOL     OW 5601   1.088   0.406   2.574  0.4911  0.3728  0.1502
 1459SOL    HW2 5602   1.035   0.408   2.495 -0.4874  0.5066  0.7975
 1459SOL    HW3 5603   1.172   0.444   2.548 -0.1125  1.1977 -0.6110
 1459SOL    MW4 5604   1.092   0.411   2.560  0.2824  0.4993  0.1352
 1460SOL     OW 5605   4.485   1.635   3.177 -0.1344 -0.0339  0.4005
 1460SOL    HW2 5606   4.420   1.565   3.169 -1.6334  1.3229  0.1088
 1460SOL    HW3 5607   4.498   1.646   3.271 -0.4443 -0.2204  0.4674
 1460SOL    MW4 5608   4.478   1.627   3.188 -0.3731  0.1205  0.3708
 1461SOL     OW 5609   5.038   3.193   3.145 -0.3302 -0.2333  0.3060
 1461SOL    HW2 5610   4.949   3.166   3.123 -1.2162  1.1696  1.9230
 1461SOL    HW3 5611   5.027   3.277   3.190  1.6764 -0.7875  1.9885
 1461SOL    MW4 5612   5.025   3.201   3.148 -0.1823 -0.1213  0.7413
 1462SOL     OW 5613   3.916   1.611   5.088 -0.1133  0.4159 -0.0801
 1462SOL    HW2 5614   3.922   1.546   5.157 -1.5581  0.3732  0.0284
 1462SOL    HW3 5615   4.007   1.641   5.075  0.3353 -0.4302  0.9852
 1462SOL    MW4 5616   3.929   1.607   5.095 -0.2448  0.2986  0.0747
 1463SOL     OW 5617   2.305   5.809   5.182 -0.2146  0.4278 -0.1752
 1463SOL    HW2 5618   2.374   5.764   5.133  0.3071  1.7942 -0.7475
 1463SOL    HW3 5619   2.224   5.772   5.149  0.1438 -3.6215  2.7819
 1463SOL    MW4 5620   2.304   5.798   5.171 -0.0985  0.0738  0.1395
 1464SOL     OW 5621   5.173   0.483   0.085  0.3169 -0.3318 -0.6673
 1464SOL    HW2 5622   5.244   0.495   0.148 -0.2012 -0.9036  0.0478
 1464SOL    HW3 5623   5.156   0.389   0.086 -0.3587 -0.2177 -0.9235
 1464SOL    MW4 5624   5.180   0.472   0.094  0.1594 -0.3922 -0.6068
 1465SOL     OW 5625   5.501   5.396   5.978 -0.3659 -0.4833  0.1573
 1465SOL    HW2 5626   5.562   5.457   6.020 -0.6427  0.6703 -1.0518
 1465SOL    HW3 5627   5.511   5.314   6.027 -0.9679  0.8680  2.6937
 1465SOL    MW4 5628   5.511   5.393   5.990 -0.4818 -0.1528  0.3324
 1466SOL     OW 5629   5.058   5.040   3.394 -0.1691  0.4203  0.5301
 1466SOL    HW2 5630   5.069   5.131   3.365  0.0879  0.5850  1.1205
 1466SOL    HW3 5631   5.094   4.988   3.322 -2.2721  0.6679 -0.7843
 1466SOL    MW4 5632   5.064   5.045   3.380 -0.4126  0.4747  0.4346
 1467SOL     OW 5633   2.372   5.337   2.359 -0.2164 -0.8729 -0.4954
 1467SOL    HW2 5634   2.396   5.382   2.278 -0.9281 -0.8864 -0.7250
 1467SOL    HW3 5635   2.404   5.394   2.429  0.2559 -0.7806 -0.7809
 1467SOL    MW4 5636   2.379   5.350   2.358 -0.2480 -0.8625 -0.5633
 1468SOL     OW 5637   1.582   1.865   6.478 -0.2863 -0.2445  0.2600
 1468SOL    HW2 5638   1.541   1.823   6.403  0.2892 -0.1275 -0.1297
 1468SOL    HW3 5639   1.672   1.833   6.477  0.1933  1.0219 -0.0956
 1468SOL    MW4 5640   1.589   1.855   6.468 -0.1471 -0.0620  0.1617
 1469SOL     OW 5641   0.261   2.278   6.360  0.3096  0.4613  0.9037
 1469SOL    HW2 5642   0.260   2.246   6.271  1.3855  0.2337  0.9675
 1469SOL    HW3 5643   0.216   2.363   6.355 -0.6202 -0.0469  0.3621
 1469SOL    MW4 5644   0.255   2.285   6.348  0.3288  0.3643  0.8407
 1470SOL     OW 5645   0.592   4.706   6.464 -0.3926 -0.4952 -0.2294
 1470SOL    HW2 5646   0.595   4.800   6.482  2.4799 -0.4887 -0.4278
 1470SOL    HW3 5647   0.579   4.700   6.370  0.1928 -0.2663 -0.3294
 1470SOL    MW4 5648   0.590   4.717   6.454  0.0636 -0.4642 -0.2687
 1471SOL     OW 5649   4.882   4.689   4.514 -0.4698  0.1237 -0.2926
 1471SOL    HW2 5650   4.813   4.750   4.542 -0.2867  0.5347 -0.7342
 1471SOL    HW3 5651   4.868   4.612   4.568  0.1044  1.0385  1.2232
 1471SOL    MW4 5652   4.871   4.687   4.525 -0.3699  0.2986 -0.1509
 1472SOL     OW 5653   2.151   2.337   3.057 -0.6080  0.0906 -0.4125
 1472SOL    HW2 5654   2.074   2.341   3.113 -0.5487 -1.0345 -0.2330
 1472SOL    HW3 5655   2.210   2.275   3.100 -0.5803 -0.8394 -1.7187
 1472SOL    MW4 5656   2.149   2.330   3.070 -0.5965 -0.1806 -0.5612
 1473SOL     OW 5657   0.761   6.328   2.103 -0.0617 -0.3933 -0.1368
 1473SOL    HW2 5658   0.709   6.280   2.039 -1.5791  0.4336  0.4193
 1473SOL    HW3 5659   0.731   6.294   2.188  1.2458 -0.8053  0.1844
 1473SOL    MW4 5660   0.750   6.317   2.106 -0.0894 -0.3386 -0.0210
 1474SOL     OW 5661   4.400   4.814   5.828 -0.6759  0.4690  0.5463
 1474SOL    HW2 5662   4.495   4.820   5.825 -0.6412  0.3138 -2.7398
 1474SOL    HW3 5663   4.383   4.723   5.850 -0.1649  0.8757  2.8345
 1474SOL    MW4 5664   4.410   4.803   5.830 -0.6039  0.5021  0.4146
 1475SOL     OW 5665   3.325   4.148   3.739 -0.1788  0.2559 -0.5797
 1475SOL    HW2 5666   3.254   4.084   3.737  0.2891 -0.3951  1.2647
 1475SOL    HW3 5667   3.400   4.101   3.702 -0.1790  0.1910 -0.5001
 1475SOL    MW4 5668   3.325   4.133   3.734 -0.1171  0.1614 -0.3258
 1476SOL     OW 5669   2.118   6.232   1.106 -0.0859 -0.0159 -0.5281
 1476SOL    HW2 5670   2.083   6.274   1.185  2.0828  0.6726  0.1155
 1476SOL    HW3 5671   2.121   6.139   1.128  0.6773  0.1910  0.2837
 1476SOL    MW4 5672   2.113   6.225   1.119  0.3009  0.1023 -0.3361
 1477SOL     OW 5673   2.601   4.075   3.866  0.0549  0.0321  0.5757
 1477SOL    HW2 5674   2.597   4.163   3.830  1.5494 -0.2642 -0.4155
 1477SOL    HW3 5675   2.634   4.087   3.956 -0.7926  0.5506  0.8207
 1477SOL    MW4 5676   2.605   4.088   3.873  0.1403  0.0614  0.4772
 1478SOL     OW 5677   4.790   3.214   5.425 -0.1171 -0.1956  0.5193
 1478SOL    HW2 5678   4.877   3.252   5.421 -0.3764  0.4479  0.9077
 1478SOL    HW3 5679   4.770   3.205   5.518 -0.1387 -1.1214  0.4396
 1478SOL    MW4 5680   4.799   3.218   5.436 -0.1541 -0.2329  0.5600
 1479SOL     OW 5681   0.241   0.080   1.105  0.2352  0.3760  0.1190
 1479SOL    HW2 5682   0.227   0.078   1.200 -0.3789 -3.4991  0.1161
 1479SOL    HW3 5683   0.336   0.068   1.096  0.1162 -0.8589  0.3065
 1479SOL    MW4 5684   0.252   0.078   1.117  0.1385 -0.2982  0.1434
 1480SOL     OW 5685   6.199   4.004   0.117 -0.2150 -0.6770  0.1511
 1480SOL    HW2 5686   6.138   4.022   0.045  0.4958 -0.5057 -0.4094
 1480SOL    HW3 5687   6.142   3.977   0.189 -1.3654  3.2517  0.9571
 1480SOL    MW4 5688   6.183   4.003   0.117 -0.2730 -0.1360  0.1835
 1481SOL     OW 5689   0.071   1.130   4.389 -0.0222 -0.2326 -0.4727
 1481SOL    HW2 5690   0.116   1.093   4.313 -0.1045  0.3243 -0.7993
 1481SOL    HW3 5691  -0.021   1.109   4.374 -0.1558  0.6539 -0.9967
 1481SOL    MW4 5692   0.065   1.123   4.377 -0.0507 -0.0422 -0.5849
 1482SOL     OW 5693   6.336   2.016   6.334 -0.1292  0.4085  0.2365
 1482SOL    HW2 5694   6.272   2.013   6.263  0.3626  0.6005 -0.2230
 1482SOL    HW3 5695   6.367   1.926   6.343 -0.5476  0.2947  0.5379
 1482SOL    MW4 5696   6.332   2.004   6.326 -0.1195  0.4188  0.2156
 1483SOL     OW 5697   2.862   6.062   2.042  0.3680  0.1408  0.0981
 1483SOL    HW2 5698   2.940   6.010   2.060 -0.0710 -0.0593  1.6271
 1483SOL    HW3 5699   2.795   5.998   2.021  0.2327  0.1949  0.3548
 1483SOL    MW4 5700   2.863   6.047   2.042  0.2922  0.1215  0.3337
 1484SOL     OW 5701   0.909   5.762   5.089 -0.1462 -0.1237 -0.1599
 1484SOL    HW2 5702   0.839   5.787   5.149  0.6745 -3.6826  2.6007
 1484SOL    HW3 5703   0.872   5.688   5.040  0.8373 -0.4265 -0.4610
 1484SOL    MW4 5704   0.895   5.756   5.090  0.0918 -0.6332  0.1646
 1485SOL     OW 5705   1.141   2.835   1.098  0.0711  0.0947 -0.5246
 1485SOL    HW2 5706   1.152   2.787   1.015  0.7985 -1.0729  0.2210
 1485SOL    HW3 5707   1.046   2.843   1.108 -0.1580 -2.4251 -0.0326
 1485SOL    MW4 5708   1.130   2.830   1.088  0.1368 -0.3918 -0.3613
 1486SOL     OW 5709   2.218   2.709   3.910 -0.5299 -0.2199  0.6212
 1486SOL    HW2 5710   2.153   2.777   3.896 -0.9352 -0.4434  1.3634
 1486SOL    HW3 5711   2.295   2.738   3.861 -1.1173  0.1492 -0.0845
 1486SOL    MW4 5712   2.220   2.722   3.902 -0.6609 -0.2007  0.6260
 1487SOL     OW 5713   3.866   6.017   4.501 -0.1613 -0.4352 -0.0250
 1487SOL    HW2 5714   3.928   6.036   4.571  1.6312 -0.0360 -1.6261
 1487SOL    HW3 5715   3.838   6.103   4.470  0.9058 -0.5108 -1.3058
 1487SOL    MW4 5716   3.870   6.031   4.506  0.2160 -0.3925 -0.4053
 1488SOL     OW 5717   3.677   4.637   0.868 -0.5793  0.8423 -0.4075
 1488SOL    HW2 5718   3.772   4.634   0.867 -0.4826 -1.1127  2.7378
 1488SOL    HW3 5719   3.651   4.571   0.804  0.2548 -0.2533  0.3526
 1488SOL    MW4 5720   3.686   4.628   0.859 -0.4565  0.4398  0.1078
 1489SOL     OW 5721   4.294   6.393   6.096  0.5495  0.1133  0.3008
 1489SOL    HW2 5722   4.203   6.418   6.080  0.2391 -0.6345  0.7976
 1489SOL    HW3 5723   4.326   6.364   6.011  0.6772  1.4153 -0.1075
 1489SOL    MW4 5724   4.286   6.392   6.083  0.5254  0.1864  0.3125
 1490SOL     OW 5725   3.261   0.272   0.233 -0.3864 -0.5535 -0.1173
 1490SOL    HW2 5726   3.226   0.344   0.181 -0.7320  0.0185  0.8938
 1490SOL    HW3 5727   3.353   0.266   0.207 -1.1106 -1.9585 -2.6807
 1490SOL    MW4 5728   3.269   0.280   0.222 -0.5275 -0.6634 -0.3221
 1491SOL     OW 5729   5.214   2.330   4.691  0.1189 -0.5068 -0.2579
 1491SOL    HW2 5730   5.200   2.238   4.713 -1.7379 -0.1809  0.0921
 1491SOL    HW3 5731   5.189   2.338   4.599  2.0651 -0.6737 -0.8505
 1491SOL    MW4 5732   5.209   2.319   4.682  0.1307 -0.4858 -0.2899
 1492SOL     OW 5733   5.027   2.484   5.570  0.3110 -0.3094  0.1840
 1492SOL    HW2 5734   5.088   2.477   5.497  1.0594 -2.6081  0.9510
 1492SOL    HW3 5735   5.070   2.439   5.642 -1.3222  0.0132  1.4305
 1492SOL    MW4 5736   5.040   2.477   5.570  0.1943 -0.5701  0.4497
 1493SOL     OW 5737   2.239   2.593   6.430  0.0465  0.0101  0.1480
 1493SOL    HW2 5738   2.263   2.558   6.344  0.8890  0.8964  0.0109
 1493SOL    HW3 5739   2.143   2.587   6.431  0.1330 -2.5068  0.2427
 1493SOL    MW4 5740   2.229   2.587   6.418  0.1691 -0.2050  0.1424
 1494SOL     OW 5741   2.667   0.430   1.457 -0.4330 -0.2531 -0.1892
 1494SOL    HW2 5742   2.692   0.361   1.395  0.6143 -0.3314  0.2874
 1494SOL    HW3 5743   2.622   0.495   1.403  1.1662  0.0633 -1.2239
 1494SOL    MW4 5744   2.665   0.429   1.442 -0.0839 -0.2217 -0.2628
 1495SOL     OW 5745   4.943   2.291   3.650  0.5493  0.1190  0.2857
 1495SOL    HW2 5746   5.021   2.241   3.673  1.2068  1.1604  0.3606
 1495SOL    HW3 5747   4.928   2.272   3.558  1.1518  0.2565  0.1610
 1495SOL    MW4 5748   4.951   2.282   3.641  0.7155  0.2745  0.2792
 1496SOL     OW 5749   2.124   2.375   6.104 -0.2106  0.0606 -0.3763
 1496SOL    HW2 5750   2.148   2.345   6.016 -1.0261 -0.5086 -0.4153
 1496SOL    HW3 5751   2.206   2.408   6.141  0.0658  0.7061 -1.4997
 1496SOL    MW4 5752   2.138   2.375   6.097 -0.2817  0.0707 -0.5297
 1497SOL     OW 5753   4.945   0.045   6.169 -0.1155  0.3376 -0.3650
 1497SOL    HW2 5754   5.007   0.110   6.202 -0.9707  0.6802  0.6235
 1497SOL    HW3 5755   4.876   0.042   6.235 -2.3263  1.6197 -2.4417
 1497SOL    MW4 5756   4.944   0.053   6.182 -0.5201  0.5519 -0.5086
 1498SOL     OW 5757   1.715   3.165   3.222 -0.4023  0.2008  0.2074
 1498SOL    HW2 5758   1.704   3.215   3.142  2.3619 -2.3626 -2.0235
 1498SOL    HW3 5759   1.626   3.142   3.249 -1.4538  2.0321 -1.4681
 1498SOL    MW4 5760   1.702   3.168   3.215 -0.1763  0.1042 -0.3080
 1499SOL     OW 5761   1.406   5.822   4.776 -0.1908 -0.5246 -0.0838
 1499SOL    HW2 5762   1.346   5.783   4.839 -3.7896  0.9479 -2.3305
 1499SOL    HW3 5763   1.393   5.772   4.696 -0.6508  1.6257 -1.4340
 1499SOL    MW4 5764   1.397   5.810   4.774 -0.7263 -0.0466 -0.5584
 1500SOL     OW 5765   4.734   2.779   2.781 -0.6701  0.1203  0.1318
 1500SOL    HW2 5766   4.665   2.766   2.845 -1.1710 -2.2258 -0.8098
 1500SOL    HW3 5767   4.707   2.728   2.705  0.8908  1.1872 -1.2155
 1500SOL    MW4 5768   4.721   2.771   2.780 -0.5302 -0.0485 -0.1702
 1501SOL     OW 5769   6.103   2.237   1.824 -0.5621  0.0599 -0.1799
 1501SOL    HW2 5770   6.094   2.271   1.913  0.6820  1.2264 -0.4695
 1501SOL    HW3 5771   6.105   2.315   1.769 -1.9613 -0.6628 -1.3340
 1501SOL    MW4 5772   6.102   2.252   1.828 -0.5826  0.1184 -0.3704
 1502SOL     OW 5773   6.177   5.781   4.188  0.2528  0.0548  0.0712
 1502SOL    HW2 5774   6.147   5.702   4.231  0.7256 -1.5421 -2.3172
 1502SOL    HW3 5775   6.115   5.794   4.116  0.6960  1.3461 -0.1086
 1502SOL    MW4 5776   6.165   5.772   4.184  0.3737  0.0145 -0.2676
 1503SOL     OW 5777   1.689   2.961   1.343 -0.1981  0.0717 -0.7478
 1503SOL    HW2 5778   1.676   3.038   1.398 -2.5390  0.0027 -1.1233
 1503SOL    HW3 5779   1.764   2.916   1.383 -0.2962  1.2718  0.9118
 1503SOL    MW4 5780   1.697   2.965   1.356 -0.5199  0.2209 -0.5784
 1504SOL     OW 5781   0.998   1.146   0.743 -0.1678  0.4438 -0.6448
 1504SOL    HW2 5782   1.083   1.181   0.770 -1.2563  0.5875  3.3225
 1504SOL    HW3 5783   1.015   1.054   0.722  0.8960  0.2058  1.0756
 1504SOL    MW4 5784   1.011   1.139   0.744 -0.1711  0.4314  0.1056
 1505SOL     OW 5785   3.096   5.887   2.056  0.2019 -0.3313 -0.1074
 1505SOL    HW2 5786   3.143   5.898   2.139  2.1909  0.3758 -1.2539
 1505SOL    HW3 5787   3.124   5.802   2.023 -2.5803 -1.8175  1.0764
 1505SOL    MW4 5788   3.106   5.877   2.062  0.0972 -0.4341 -0.1025
 1506SOL     OW 5789   0.769   0.369   0.995  0.0587  0.1913  0.2137
 1506SOL    HW2 5790   0.854   0.394   1.029  2.3245 -3.2546 -2.2619
 1506SOL    HW3 5791   0.739   0.446   0.947  2.3238  1.1361  0.2006
 1506SOL    MW4 5792   0.776   0.382   0.993  0.6565 -0.1387 -0.1146
 1507SOL     OW 5793   1.540   1.886   5.595 -0.7437 -0.0690  0.2513
 1507SOL    HW2 5794   1.588   1.804   5.585  1.6149  0.9533  2.2109
 1507SOL    HW3 5795   1.544   1.927   5.508  0.0825 -0.9904 -0.1653
 1507SOL    MW4 5796   1.547   1.880   5.582 -0.3235 -0.0557  0.4549
 1508SOL     OW 5797   0.047   3.645   5.352  0.0875  0.5262 -0.0113
 1508SOL    HW2 5798   0.087   3.570   5.395  1.0310  0.5731 -0.7903
 1508SOL    HW3 5799  -0.047   3.628   5.357  0.3152 -1.4417 -1.4429
 1508SOL    MW4 5800   0.039   3.633   5.358  0.2420  0.2728 -0.3030
 1509SOL     OW 5801   3.441   2.690   0.674 -0.1013  0.0364  0.0422
 1509SOL    HW2 5802   3.402   2.759   0.621 -1.1977 -1.1149 -0.7094
 1509SOL    HW3 5803   3.528   2.678   0.638  0.5725  1.8107  0.9591
 1509SOL    MW4 5804   3.447   2.697   0.662 -0.1571  0.1186  0.0640
 1510SOL     OW 5805   5.665   0.104   2.339 -0.2420 -0.1823 -0.1771
 1510SOL    HW2 5806   5.734   0.082   2.401  0.7162  1.2357 -0.6883
 1510SOL    HW3 5807   5.707   0.096   2.253 -0.3505  1.7060 -0.4528
 1510SOL    MW4 5808   5.680   0.100   2.335 -0.1299  0.2539 -0.2809
 1511SOL     OW 5809   5.207   2.172   1.096 -0.0898  0.8687  0.4199
 1511SOL    HW2 5810   5.259   2.168   1.016  0.2310  1.0939  0.6164
 1511SOL    HW3 5811   5.258   2.226   1.156  0.5008 -0.6730  1.3740
 1511SOL    MW4 5812   5.221   2.178   1.094  0.0305  0.6950  0.5717
 1512SOL     OW 5813   0.555   0.834   5.987 -0.0175  0.2032 -0.6295
 1512SOL    HW2 5814   0.491   0.773   5.950 -0.2251 -1.2208  1.8415
 1512SOL    HW3 5815   0.502   0.895   6.039  0.5016 -0.5940  0.9134
 1512SOL    MW4 5816   0.539   0.834   5.989  0.0236 -0.0899 -0.0999
 1513SOL     OW 5817   0.331   0.711   0.434  0.6454 -0.4763  0.1557
 1513SOL    HW2 5818   0.382   0.686   0.357  1.8685 -0.5530  0.9626
 1513SOL    HW3 5819   0.322   0.630   0.484  2.3190  0.0795  1.4568
 1513SOL    MW4 5820   0.337   0.697   0.431  1.0276 -0.4131  0.4338
 1514SOL     OW 5821   3.957   3.117   1.961 -0.2625 -0.4414  0.1625
 1514SOL    HW2 5822   4.013   3.163   1.899 -1.5468 -0.1816 -0.8439
 1514SOL    HW3 5823   3.962   3.025   1.934 -0.3237 -0.4137  0.0528
 1514SOL    MW4 5824   3.965   3.111   1.949 -0.4400 -0.4034  0.0152
 1515SOL     OW 5825   0.961   5.456   4.180  0.1852  0.8037  0.4504
 1515SOL    HW2 5826   1.018   5.495   4.246  1.8234  0.5931 -0.7771
 1515SOL    HW3 5827   1.010   5.381   4.146 -0.0369  1.6073 -1.8471
 1515SOL    MW4 5828   0.975   5.451   4.184  0.3721  0.8819 -0.0147
 1516SOL     OW 5829   2.037   4.811   2.378  0.2861  0.5621  0.4621
 1516SOL    HW2 5830   1.957   4.851   2.414 -0.8067 -1.0172 -0.0942
 1516SOL    HW3 5831   2.100   4.816   2.450 -0.1948  2.0723  0.8346
 1516SOL    MW4 5832   2.035   4.817   2.392  0.0785  0.5530  0.4379
 1517SOL     OW 5833   0.045   1.628   1.986 -1.0602  0.0913 -0.7531
 1517SOL    HW2 5834  -0.036   1.600   2.029 -1.1558  0.8187 -0.4393
 1517SOL    HW3 5835   0.090   1.682   2.051  0.5346 -1.6940 -0.2923
 1517SOL    MW4 5836   0.040   1.632   2.000 -0.8624 -0.0483 -0.6509
 1518SOL     OW 5837   2.320   4.884   6.004 -0.2030  0.0416 -0.1364
 1518SOL    HW2 5838   2.410   4.893   5.972  0.1761 -0.2156  0.8056
 1518SOL    HW3 5839   2.272   4.843   5.932  1.1071 -2.5276  0.3635
 1518SOL    MW4 5840   2.325   4.880   5.990  0.0199 -0.3313  0.0538
 1519SOL     OW 5841   5.217   1.721   4.395 -0.1320  0.5605  0.0885
 1519SOL    HW2 5842   5.282   1.787   4.370 -0.9328  1.3737  0.1072
 1519SOL    HW3 5843   5.171   1.700   4.313  0.5452 -0.4816 -0.0504
 1519SOL    MW4 5844   5.219   1.727   4.381 -0.1483  0.5303  0.0726
 1520SOL     OW 5845   5.771   1.494   4.359  0.1225 -0.1278 -0.1191
 1520SOL    HW2 5846   5.841   1.448   4.406  0.7608 -0.5358 -1.4155
 1520SOL    HW3 5847   5.742   1.561   4.420 -0.0907 -1.5422  1.4259
 1520SOL    MW4 5848   5.777   1.496   4.373  0.1786 -0.3682 -0.0863
 1521SOL     OW 5849   5.770   5.170   2.061 -0.0610 -0.2458  0.0238
 1521SOL    HW2 5850   5.748   5.160   2.153  1.2056  0.4424  0.4299
 1521SOL    HW3 5851   5.711   5.110   2.015  1.4827 -3.1763  1.5602
 1521SOL    MW4 5852   5.759   5.161   2.067  0.3098 -0.5416  0.2801
 1522SOL     OW 5853   2.772   6.351   4.086 -0.3154 -0.6184  0.1428
 1522SOL    HW2 5854   2.741   6.261   4.087 -1.1007 -0.3538  0.9945
 1522SOL    HW3 5855   2.699   6.402   4.051 -0.3472 -0.1689  0.8314
 1522SOL    MW4 5856   2.758   6.346   4.081 -0.4232 -0.5242  0.3460
 1523SOL     OW 5857   4.852   5.581   1.450  0.0962 -0.0610 -0.0367
 1523SOL    HW2 5858   4.824   5.489   1.456  0.5876 -0.1823  0.4439
 1523SOL    HW3 5859   4.945   5.579   1.472  0.4692  0.3589 -1.4893
 1523SOL    MW4 5860   4.861   5.569   1.454  0.2103 -0.0216 -0.1650
 1524SOL     OW 5861   0.242   2.061   4.236 -1.2383  0.5837 -0.7280
 1524SOL    HW2 5862   0.291   2.086   4.315 -0.0742  1.1172 -1.5899
 1524SOL    HW3 5863   0.263   1.968   4.224 -0.4422  0.8005 -1.0701
 1524SOL    MW4 5864   0.252   2.052   4.245 -0.9797  0.6827 -0.8868
 1525SOL     OW 5865   6.219   2.100   4.013 -0.1935  0.0015  0.3435
 1525SOL    HW2 5866   6.188   2.145   3.934  1.5605 -0.7506 -0.8425
 1525SOL    HW3 5867   6.150   2.036   4.032 -0.3394 -0.2823 -1.0096
 1525SOL    MW4 5868   6.205   2.098   4.005  0.0187 -0.1352  0.0085
 1526SOL     OW 5869   6.374   2.820   5.498  0.1557 -0.7201 -0.0532
 1526SOL    HW2 5870   6.470   2.817   5.492  0.2138  0.9809 -0.5908
 1526SOL    HW3 5871   6.348   2.879   5.427 -1.2163 -0.3999  0.6830
 1526SOL    MW4 5872   6.384   2.827   5.488 -0.0177 -0.4535 -0.0270
 1527SOL     OW 5873   5.296   0.254   2.069 -0.0545 -0.0583  0.2475
 1527SOL    HW2 5874   5.281   0.252   1.974  0.5854 -0.8805  0.1472
 1527SOL    HW3 5875   5.325   0.343   2.087  1.6583 -0.3865 -0.6500
 1527SOL    MW4 5876   5.298   0.265   2.059  0.2559 -0.2101  0.1158
 1528SOL     OW 5877   1.234   5.502   1.503  0.1196 -0.1249  0.1942
 1528SOL    HW2 5878   1.308   5.453   1.538 -0.9924 -0.1564  2.6482
 1528SOL    HW3 5879   1.181   5.437   1.457  0.3249 -0.5873  0.6104
 1528SOL    MW4 5880   1.236   5.487   1.501 -0.0000 -0.1901  0.5729
 1529SOL     OW 5881   4.128   5.549   0.602 -1.0125 -0.0587 -0.2802
 1529SOL    HW2 5882   4.072   5.507   0.667 -2.2813 -0.9166 -1.8744
 1529SOL    HW3 5883   4.206   5.493   0.597 -2.2681 -1.7665 -1.6934
 1529SOL    MW4 5884   4.131   5.536   0.610 -1.3456 -0.3972 -0.6770
 1530SOL     OW 5885   2.665   1.316   3.840 -1.0102 -0.0212 -0.6186
 1530SOL    HW2 5886   2.713   1.245   3.797 -0.8682 -0.1215 -0.2979
 1530SOL    HW3 5887   2.732   1.367   3.885 -1.2374 -0.4049  0.1846
 1530SOL    MW4 5888   2.680   1.313   3.840 -1.0214 -0.0851 -0.4703
 1531SOL     OW 5889   3.944   6.304   2.770 -0.0614  0.8480 -0.2049
 1531SOL    HW2 5890   4.034   6.313   2.800 -0.0908  1.2203 -0.2303
 1531SOL    HW3 5891   3.918   6.216   2.798 -0.4791  1.5803  1.9394
 1531SOL    MW4 5892   3.952   6.293   2.778 -0.1204  0.9938  0.0747
 1532SOL     OW 5893   2.898   6.048   3.923  0.6321  0.9987  0.7951
 1532SOL    HW2 5894   2.811   6.069   3.889  0.5092 -0.6629 -0.0795
 1532SOL    HW3 5895   2.952   6.123   3.900 -0.3882  1.6869  0.5924
 1532SOL    MW4 5896   2.894   6.060   3.915  0.4813  0.8703  0.6530
 1533SOL     OW 5897   0.870   3.829   3.113 -0.3568  0.1038  0.4017
 1533SOL    HW2 5898   0.913   3.899   3.162  0.1147  0.5023 -0.5362
 1533SOL    HW3 5899   0.932   3.756   3.115 -0.4403  0.0374  0.5914
 1533SOL    MW4 5900   0.884   3.829   3.119 -0.3056  0.1476  0.3030
 1534SOL     OW 5901   6.120   2.582   2.249 -0.1832  0.1905 -0.6454
 1534SOL    HW2 5902   6.081   2.668   2.233  0.1375  0.5065  0.1821
 1534SOL    HW3 5903   6.212   2.600   2.267 -0.0936 -0.3343 -0.5528
 1534SOL    MW4 5904   6.127   2.596   2.249 -0.1290  0.1630 -0.5240
 1535SOL     OW 5905   5.900   2.263   4.008  0.1707 -0.1121  0.1406
 1535SOL    HW2 5906   5.937   2.281   4.095 -1.5641  2.0796  0.5148
 1535SOL    HW3 5907   5.899   2.348   3.965 -0.4068 -0.8969 -1.4579
 1535SOL    MW4 5908   5.905   2.277   4.014 -0.1344  0.0735 -0.0209
 1536SOL     OW 5909   3.695   4.538   5.971 -0.8552 -0.6647  0.7285
 1536SOL    HW2 5910   3.612   4.491   5.979 -0.6545 -1.3433 -0.8516
 1536SOL    HW3 5911   3.673   4.615   5.918 -0.5700 -0.5985  0.7060
 1536SOL    MW4 5912   3.681   4.542   5.965 -0.7911 -0.7455  0.5170
 1537SOL     OW 5913   1.012   1.175   0.317 -0.1340 -0.5290 -0.4232
 1537SOL    HW2 5914   1.039   1.089   0.349 -1.1436 -0.4814  0.6042
 1537SOL    HW3 5915   0.953   1.208   0.384 -1.1333  0.2238 -1.6310
 1537SOL    MW4 5916   1.008   1.168   0.330 -0.3991 -0.4234 -0.4470
 1538SOL     OW 5917   5.281   1.029   5.867 -0.3630  0.3112 -0.1005
 1538SOL    HW2 5918   5.198   1.021   5.820 -0.6309  1.1734  0.1973
 1538SOL    HW3 5919   5.255   1.036   5.959 -0.0287  1.6401 -0.0970
 1538SOL    MW4 5920   5.267   1.029   5.873 -0.3543  0.6003 -0.0608
 1539SOL     OW 5921   6.024   2.725   6.083 -0.2024  0.1826  0.0101
 1539SOL    HW2 5922   5.945   2.764   6.120 -0.2794  1.3344 -1.2994
 1539SOL    HW3 5923   6.095   2.782   6.114  0.1140 -0.6844  0.9495
 1539SOL    MW4 5924   6.023   2.738   6.092 -0.1708  0.2202 -0.0387
 1540SOL     OW 5925   3.666   3.679   1.021  0.2149  0.0279  0.1226
 1540SOL    HW2 5926   3.679   3.642   0.934  1.4849 -0.1627  0.3600
 1540SOL    HW3 5927   3.598   3.745   1.010 -2.0096 -2.1854 -0.3633
 1540SOL    MW4 5928   3.659   3.682   1.008  0.0890 -0.2893  0.0898
 1541SOL     OW 5929   3.204   5.391   1.706 -0.2088 -0.0437 -0.7850
 1541SOL    HW2 5930   3.242   5.317   1.753  1.0286  0.6438 -0.6691
 1541SOL    HW3 5931   3.274   5.456   1.701 -1.5786  1.5817  0.0710
 1541SOL    MW4 5932   3.218   5.390   1.711 -0.2262  0.2614 -0.6568
 1542SOL     OW 5933   0.751   4.691   1.872 -0.2796  0.2018 -1.2037
 1542SOL    HW2 5934   0.674   4.748   1.866 -0.4302  0.1363 -0.1558
 1542SOL    HW3 5935   0.814   4.741   1.924 -1.0401 -1.1986  1.1910
 1542SOL    MW4 5936   0.749   4.705   1.878 -0.3998  0.0084 -0.7495
 1543SOL     OW 5937   1.066   6.048   3.920 -0.6900 -0.2058 -0.3495
 1543SOL    HW2 5938   1.038   5.973   3.973 -0.0406 -0.4278 -0.3168
 1543SOL    HW3 5939   1.149   6.021   3.881 -0.3754  0.5490 -0.2242
 1543SOL    MW4 5940   1.073   6.035   3.922 -0.5628 -0.1355 -0.3287
 1544SOL     OW 5941   6.296   4.514   5.433  0.1059  0.0081  0.3684
 1544SOL    HW2 5942   6.205   4.485   5.430  0.3348 -0.7153  0.1493
 1544SOL    HW3 5943   6.341   4.446   5.484  0.2339  1.1916  1.8842
 1544SOL    MW4 5944   6.290   4.501   5.439  0.1530  0.0688  0.5395
 1545SOL     OW 5945   1.470   1.395   3.048 -0.0329 -0.2411 -0.1357
 1545SOL    HW2 5946   1.378   1.405   3.024  0.0693  0.1053 -0.3969
 1545SOL    HW3 5947   1.468   1.357   3.136 -0.4249 -0.0704 -0.0670
 1545SOL    MW4 5948   1.457   1.391   3.056 -0.0712 -0.1729 -0.1611
 1546SOL     OW 5949   1.280   3.860   2.946 -0.5490 -0.0232 -0.3113
 1546SOL    HW2 5950   1.363   3.906   2.955 -0.4695 -0.3325  0.6976
 1546SOL    HW3 5951   1.233   3.907   2.877 -0.4714  1.5608  0.6686
 1546SOL    MW4 5952   1.285   3.872   2.939 -0.5283  0.1450 -0.0489
 1547SOL     OW 5953   6.081   2.621   2.645 -0.2685 -0.2662  0.6190
 1547SOL    HW2 5954   6.091   2.576   2.729  1.8784 -0.5654  0.2743
 1547SOL    HW3 5955   6.031   2.560   2.591  0.2590 -1.0713  1.0075
 1547SOL    MW4 5956   6.076   2.607   2.649  0.0844 -0.4119  0.6247
 1548SOL     OW 5957   4.724   2.061   1.378  0.1113 -0.2291  0.1304
 1548SOL    HW2 5958   4.815   2.080   1.355 -0.3985  0.3657 -1.5658
 1548SOL    HW3 5959   4.691   2.143   1.416 -0.2145  0.2000 -1.0176
 1548SOL    MW4 5960   4.732   2.075   1.380  0.0010 -0.0940 -0.2449
 1549SOL     OW 5961   2.836   4.343   5.825 -0.1739  0.2019  0.1676
 1549SOL    HW2 5962   2.801   4.386   5.747 -0.2855  1.9853  1.1688
 1549SOL    HW3 5963   2.927   4.371   5.830 -0.2922  0.4533  0.9330
 1549SOL    MW4 5964   2.843   4.352   5.815 -0.2043  0.4704  0.4007
 1550SOL     OW 5965   2.469   2.184   4.939  0.1919  0.4235 -0.5756
 1550SOL    HW2 5966   2.433   2.096   4.932 -0.3531  0.5949 -0.0505
 1550SOL    HW3 5967   2.510   2.187   5.026 -0.9733  1.0893 -0.0133
 1550SOL    MW4 5968   2.470   2.173   4.950 -0.0337  0.5339 -0.4321
 1551SOL     OW 5969   4.791   0.769   5.314 -0.3346 -0.0577 -0.2296
 1551SOL    HW2 5970   4.868   0.812   5.351 -1.0086  0.3020  0.8020
 1551SOL    HW3 5971   4.824   0.725   5.235  0.8613  0.3102  0.0364
 1551SOL    MW4 5972   4.806   0.769   5.308 -0.2658  0.0383 -0.0584
 1552SOL     OW 5973   4.731   4.946   2.868  0.3038  0.6389 -0.3480
 1552SOL    HW2 5974   4.790   4.953   2.943  0.5126 -0.1291 -0.4319
 1552SOL    HW3 5975   4.668   4.879   2.892  0.1806  0.6085 -0.7364
 1552SOL    MW4 5976   4.730   4.938   2.881  0.3151  0.5336 -0.4103
 1553SOL     OW 5977   2.775   4.755   6.330  0.1455 -0.1084  0.5923
 1553SOL    HW2 5978   2.762   4.677   6.275  0.8877  0.3061 -0.1790
 1553SOL    HW3 5979   2.829   4.813   6.278  1.1499  0.1709  1.8866
 1553SOL    MW4 5980   2.780   4.752   6.316  0.3759 -0.0169  0.6613
 1554SOL     OW 5981   2.847   2.115   1.037 -0.7885  0.0671 -0.1707
 1554SOL    HW2 5982   2.935   2.085   1.016 -0.8376 -0.4160  0.2781
 1554SOL    HW3 5983   2.809   2.141   0.953 -0.7738 -1.2401 -0.5941
 1554SOL    MW4 5984   2.853   2.115   1.023 -0.7930 -0.1691 -0.1673
 1555SOL     OW 5985   2.845   1.617   3.650 -0.3151 -0.8259 -0.3335
 1555SOL    HW2 5986   2.882   1.668   3.721  0.5943 -0.9887 -0.6851
 1555SOL    HW3 5987   2.756   1.595   3.680  0.0643 -0.9096  0.7506
 1555SOL    MW4 5988   2.838   1.621   3.664 -0.1451 -0.8584 -0.2369
 1556SOL     OW 5989   5.063   2.692   0.963  0.4502 -0.5923 -0.2395
 1556SOL    HW2 5990   4.995   2.736   1.013  1.9295 -0.0723  1.4101
 1556SOL    HW3 5991   5.063   2.602   0.995  1.1628 -0.3488  0.4612
 1556SOL    MW4 5992   5.054   2.686   0.974  0.7394 -0.4915  0.0706
 1557SOL     OW 5993   0.792   2.456   3.396  0.2120  0.9630 -0.2322
 1557SOL    HW2 5994   0.821   2.415   3.315 -2.6482  0.4124 -1.0765
 1557SOL    HW3 5995   0.818   2.395   3.465  0.7808  0.4017 -0.9387
 1557SOL    MW4 5996   0.799   2.443   3.395 -0.0903  0.8163 -0.4368
 1558SOL     OW 5997   2.777   2.293   3.907  0.1784  0.4547 -0.2303
 1558SOL    HW2 5998   2.757   2.281   4.000  1.1399 -1.8733 -0.2520
 1558SOL    HW3 5999   2.871   2.277   3.900  0.0200  0.0096 -1.6630
 1558SOL    MW4 6000   2.786   2.289   3.918  0.2844  0.0888 -0.4222
 1559SOL     OW 6001   6.274   4.668   1.469 -0.2312 -0.2342  0.3947
 1559SOL    HW2 6002   6.279   4.572   1.468 -1.0660 -0.2993 -0.8870
 1559SOL    HW3 6003   6.189   4.687   1.507 -0.8320 -0.0866 -0.9699
 1559SOL    MW4 6004   6.264   4.658   1.474 -0.4206 -0.2233  0.0455
 1560SOL     OW 6005   2.896   2.788   4.517 -0.1991  0.3212  0.4184
 1560SOL    HW2 6006   2.897   2.841   4.437  1.0167  0.0538  0.2319
 1560SOL    HW3 6007   2.972   2.818   4.567 -1.5511  1.2468  2.0301
 1560SOL    MW4 6008   2.906   2.799   4.513 -0.2171  0.4080  0.6064
 1561SOL     OW 6009   1.478   6.162   3.955  0.7521 -0.0214  0.2282
 1561SOL    HW2 6010   1.566   6.174   3.920  0.3181  0.8653 -0.6278
 1561SOL    HW3 6011   1.462   6.241   4.007  0.9207 -0.7540  1.4125
 1561SOL    MW4 6012   1.487   6.174   3.957  0.7171 -0.0010  0.2715
 1562SOL     OW 6013   6.035   1.681   6.279  0.3023 -0.1827 -0.6138
 1562SOL    HW2 6014   6.064   1.738   6.349 -0.1285  0.2632 -0.7899
 1562SOL    HW3 6015   6.074   1.596   6.299 -0.7952 -0.3802  0.8308
 1562SOL    MW4 6016   6.044   1.677   6.291  0.1007 -0.1499 -0.4464
 1563SOL     OW 6017   5.514   6.137   6.333 -0.1486 -0.5315  0.5623
 1563SOL    HW2 6018   5.466   6.064   6.373  0.1396 -0.1002  1.7486
 1563SOL    HW3 6019   5.603   6.104   6.322 -0.2721 -0.7111  0.1190
 1563SOL    MW4 6020   5.519   6.123   6.337 -0.1269 -0.4983  0.6603
 1564SOL     OW 6021   3.901   1.590   1.295 -0.6059 -0.5656 -0.5980
 1564SOL    HW2 6022   3.978   1.614   1.347 -0.1804  0.4429 -1.6703
 1564SOL    HW3 6023   3.934   1.526   1.231 -0.6893 -0.2461 -0.9620
 1564SOL    MW4 6024   3.916   1.584   1.294 -0.5607 -0.3903 -0.7875
 1565SOL     OW 6025   3.036   1.001   2.469  0.3394  0.6360 -0.0564
 1565SOL    HW2 6026   2.990   0.975   2.389  0.8609  0.8415 -0.4274
 1565SOL    HW3 6027   3.101   1.065   2.440 -0.4311  1.8144  0.7340
 1565SOL    MW4 6028   3.039   1.006   2.455  0.3066  0.8186 -0.0010
 1566SOL     OW 6029   1.031   4.766   0.202  0.2546 -0.1545  0.0733
 1566SOL    HW2 6030   1.015   4.827   0.131 -0.0481 -1.6676 -1.2293
 1566SOL    HW3 6031   1.120   4.735   0.188  0.1136 -0.6353  0.2100
 1566SOL    MW4 6032   1.040   4.770   0.191  0.1961 -0.4175 -0.0805
 1567SOL     OW 6033   2.394   4.755   0.906  0.2407  0.0039 -0.1405
 1567SOL    HW2 6034   2.390   4.758   1.001  0.5826 -0.3750 -0.1124
 1567SOL    HW3 6035   2.479   4.716   0.886 -0.0310 -0.3717 -0.5918
 1567SOL    MW4 6036   2.404   4.750   0.916  0.2500 -0.0956 -0.1964
 1568SOL     OW 6037   3.981   3.300   4.428  0.1167  0.4683  0.1460
 1568SOL    HW2 6038   3.982   3.348   4.345 -1.1938  0.9881  0.4051
 1568SOL    HW3 6039   3.931   3.356   4.488 -0.3523 -0.6319  0.8231
 1568SOL    MW4 6040   3.975   3.313   4.425 -0.1181  0.3917  0.2695
 1569SOL     OW 6041   1.339   6.322   1.760 -0.0788 -0.2972  0.0840
 1569SOL    HW2 6042   1.429   6.313   1.793  1.1416 -0.5847 -2.8950
 1569SOL    HW3 6043   1.306   6.232   1.755 -0.0466 -0.3082  0.0642
 1569SOL    MW4 6044   1.347   6.309   1.764  0.0865 -0.3366 -0.3117
 1570SOL     OW 6045   1.266   1.803   2.817 -0.2407 -0.2695 -0.1550
 1570SOL    HW2 6046   1.323   1.880   2.814 -0.0252 -0.3218  1.7414
 1570SOL    HW3 6047   1.325   1.728   2.805  0.0205 -0.2917  1.2001
 1570SOL    MW4 6048   1.282   1.803   2.815 -0.1778 -0.2793  0.2740
 1571SOL     OW 6049   0.314   2.385   0.660  0.4846  0.5301  0.9064
 1571SOL    HW2 6050   0.319   2.452   0.728 -0.9566 -0.7916  2.3972
 1571SOL    HW3 6051   0.331   2.303   0.706 -1.4146 -0.5104 -0.1367
 1571SOL    MW4 6052   0.317   2.383   0.675  0.0438  0.2185  0.9655
 1572SOL     OW 6053   2.154   1.065   0.762  0.2034  0.4603  0.4741
 1572SOL    HW2 6054   2.172   1.001   0.832  2.8579  1.5609  0.9310
 1572SOL    HW3 6055   2.112   1.138   0.807  0.1224  0.3641  0.5555
 1572SOL    MW4 6056   2.151   1.066   0.777  0.5429  0.5928  0.5451
 1573SOL     OW 6057   0.819   1.853   3.777  0.1244  0.3083  0.3589
 1573SOL    HW2 6058   0.785   1.935   3.742 -0.5202 -0.4142 -0.7851
 1573SOL    HW3 6059   0.910   1.849   3.747 -0.3776 -0.2344 -1.2050
 1573SOL    MW4 6060   0.827   1.863   3.768 -0.0269  0.1414  0.0016
 1574SOL     OW 6061   1.910   5.249   2.259 -0.3015  0.3641  0.3390
 1574SOL    HW2 6062   1.842   5.215   2.201  0.7584 -0.2912 -0.5705
 1574SOL    HW3 6063   1.928   5.336   2.225 -0.2020  0.2710  0.1547
 1574SOL    MW4 6064   1.903   5.256   2.247 -0.1485  0.2653  0.1947
 1575SOL     OW 6065   0.176   5.925   2.762  0.2233 -0.5040  0.0210
 1575SOL    HW2 6066   0.220   5.943   2.845  0.5745  0.4876 -0.3651
 1575SOL    HW3 6067   0.246   5.895   2.704  0.0421 -0.8358 -0.0293
 1575SOL    MW4 6068   0.191   5.924   2.765  0.2457 -0.4170 -0.0366
 1576SOL     OW 6069   0.797   0.484   0.106 -0.3608  0.1683 -0.3013
 1576SOL    HW2 6070   0.736   0.501   0.178 -1.6245  1.1846 -1.5373
 1576SOL    HW3 6071   0.881   0.519   0.136 -1.1206  1.5605  0.2870
 1576SOL    MW4 6072   0.800   0.491   0.119 -0.6278  0.4861 -0.3868
 1577SOL     OW 6073   3.170   4.363   1.353  0.1169  0.2275  0.2493
 1577SOL    HW2 6074   3.143   4.409   1.274  0.2342 -0.5137 -0.2287
 1577SOL    HW3 6075   3.264   4.377   1.358  0.6118 -2.0362 -1.3081
 1577SOL    MW4 6076   3.179   4.371   1.343  0.1977 -0.1690 -0.0193
 1578SOL     OW 6077   0.232   6.139   4.770  0.1249  0.0959  0.1905
 1578SOL    HW2 6078   0.190   6.212   4.815  0.4264 -0.4070  1.3195
 1578SOL    HW3 6079   0.215   6.063   4.826 -0.6950 -0.8277 -1.2550
 1578SOL    MW4 6080   0.225   6.139   4.783  0.0565 -0.0923  0.1487
 1579SOL     OW 6081   6.209   6.067   4.240  0.1690  0.3006  0.1036
 1579SOL    HW2 6082   6.260   6.102   4.167  1.0788  0.5226  0.8328
 1579SOL    HW3 6083   6.221   5.972   4.234 -1.0064  0.1949 -0.9285
 1579SOL    MW4 6084   6.217   6.059   4.229  0.1340  0.3160  0.0636
 1580SOL     OW 6085   0.434   4.258   0.145 -0.2613 -0.0044 -0.4058
 1580SOL    HW2 6086   0.469   4.181   0.101 -0.8048  0.6155 -1.9915
 1580SOL    HW3 6087   0.411   4.228   0.232  2.2481 -0.9202  0.0145
 1580SOL    MW4 6088   0.436   4.244   0.151 -0.0019 -0.0434 -0.5596
 1581SOL     OW 6089   3.381   3.391   0.708 -0.2062  0.5455 -0.4507
 1581SOL    HW2 6090   3.340   3.378   0.793  0.2517  0.4621 -0.2374
 1581SOL    HW3 6091   3.334   3.465   0.669 -0.5046  0.4964 -0.1816
 1581SOL    MW4 6092   3.370   3.399   0.714 -0.1851  0.5280 -0.3870
 1582SOL     OW 6093   3.867   4.989   3.984 -0.5141 -0.0321 -0.2893
 1582SOL    HW2 6094   3.904   4.984   3.896 -0.6908  1.8025 -0.4942
 1582SOL    HW3 6095   3.773   4.999   3.970 -0.5858 -0.1068  0.1221
 1582SOL    MW4 6096   3.860   4.990   3.971 -0.5469  0.2001 -0.2621
 1583SOL     OW 6097   1.587   4.554   1.128 -0.4278  0.1371  0.1688
 1583SOL    HW2 6098   1.545   4.582   1.047 -0.7437 -0.7395  0.0218
 1583SOL    HW3 6099   1.593   4.634   1.181  0.7933  0.9585 -1.1460
 1583SOL    MW4 6100   1.582   4.568   1.124 -0.3083  0.1298 -0.0241
 1584SOL     OW 6101   3.404   0.010   3.925 -0.6382 -0.2453  0.1302
 1584SOL    HW2 6102   3.406   0.079   3.992 -2.7648  1.7572 -1.6817
 1584SOL    HW3 6103   3.366  -0.066   3.970 -0.3668  0.4732  1.6272
 1584SOL    MW4 6104   3.399   0.009   3.940 -0.8830  0.1137  0.0887
 1585SOL     OW 6105   2.031   5.470   4.583  0.0676 -0.1733  0.3476
 1585SOL    HW2 6106   2.012   5.515   4.501 -1.7072  2.0773  1.8642
 1585SOL    HW3 6107   1.967   5.399   4.586 -0.6200  0.4288  0.2516
 1585SOL    MW4 6108   2.020   5.466   4.573 -0.2573  0.2031  0.5350
 1586SOL     OW 6109   1.884   2.595   3.166 -0.8299 -0.9202 -0.0354
 1586SOL    HW2 6110   1.835   2.556   3.239  0.9684 -1.3668  1.0034
 1586SOL    HW3 6111   1.930   2.669   3.205 -1.6887  0.3337 -1.2922
 1586SOL    MW4 6112   1.884   2.600   3.181 -0.7059 -0.8137 -0.0642
 1587SOL     OW 6113   3.216   6.131   4.510 -0.2045  0.4311  0.6791
 1587SOL    HW2 6114   3.267   6.056   4.479 -2.0813 -1.4019  1.6954
 1587SOL    HW3 6115   3.269   6.208   4.488  1.7855 -1.1721 -0.4887
 1587SOL    MW4 6116   3.230   6.131   4.503 -0.1896 -0.0223  0.6591
 1588SOL     OW 6117   1.864   4.506   4.272  0.2898 -0.1129 -0.5791
 1588SOL    HW2 6118   1.952   4.483   4.301  0.5992 -0.2861 -1.6044
 1588SOL    HW3 6119   1.856   4.599   4.291  0.6629 -0.1164 -0.3993
 1588SOL    MW4 6120   1.875   4.515   4.278  0.3798 -0.1362 -0.6906
 1589SOL     OW 6121   0.505   3.858   1.689  0.7025 -0.0744  0.4893
 1589SOL    HW2 6122   0.556   3.927   1.733  1.5283 -1.0079  1.0311
 1589SOL    HW3 6123   0.432   3.905   1.649  1.3979  1.1629  0.6040
 1589SOL    MW4 6124   0.502   3.874   1.690  0.9032 -0.0343  0.5759
 1590SOL     OW 6125   2.303   0.116   5.958 -0.5072  0.5797  0.3184
 1590SOL    HW2 6126   2.290   0.210   5.948 -0.8527  0.4498 -0.5613
 1590SOL    HW3 6127   2.347   0.089   5.878  2.1655  0.4185  1.7394
 1590SOL    MW4 6128   2.307   0.125   5.946 -0.2002  0.5413  0.3898
 1591SOL     OW 6129   4.340   0.644   3.921 -0.1615  0.1369 -0.2967
 1591SOL    HW2 6130   4.412   0.587   3.894 -0.4237  0.0330 -0.7765
 1591SOL    HW3 6131   4.286   0.589   3.977 -1.2021 -0.5466 -1.9197
 1591SOL    MW4 6132   4.342   0.630   3.925 -0.3334  0.0330 -0.5741
 1592SOL     OW 6133   2.535   1.876   2.440  0.0701  0.3269 -0.0667
 1592SOL    HW2 6134   2.593   1.814   2.485 -1.2999 -1.0825 -0.1561
 1592SOL    HW3 6135   2.590   1.913   2.371  0.9037 -0.9418 -0.1287
 1592SOL    MW4 6136   2.550   1.873   2.437 -0.0007 -0.0264 -0.0867
 1593SOL     OW 6137   2.988   2.521   5.396 -0.2286  0.2418 -0.5579
 1593SOL    HW2 6138   3.046   2.579   5.446 -1.3978 -0.3085  1.5522
 1593SOL    HW3 6139   2.913   2.506   5.453 -1.5354 -0.6969 -2.3939
 1593SOL    MW4 6140   2.986   2.526   5.410 -0.5552  0.0454 -0.5217
 1594SOL     OW 6141   5.534   0.569   1.915 -0.0304 -0.2598  0.1752
 1594SOL    HW2 6142   5.536   0.474   1.899  1.1152 -0.2893  0.3876
 1594SOL    HW3 6143   5.533   0.577   2.010  0.3475 -0.0688  0.1676
 1594SOL    MW4 6144   5.534   0.557   1.925  0.1706 -0.2385  0.2023
 1595SOL     OW 6145   2.394   2.712   1.229  0.2256 -0.1755 -0.2264
 1595SOL    HW2 6146   2.399   2.792   1.281 -0.7784 -0.8093  0.9037
 1595SOL    HW3 6147   2.397   2.742   1.139 -0.2395  1.1446  0.1703
 1595SOL    MW4 6148   2.395   2.726   1.224  0.0318 -0.0849 -0.0249
 1596SOL     OW 6149   1.114   6.272   4.448 -0.0289  0.2345  0.2037
 1596SOL    HW2 6150   1.034   6.234   4.483  0.0098 -0.8826 -0.8687
 1596SOL    HW3 6151   1.184   6.219   4.486  0.0734 -0.2050 -0.5741
 1596SOL    MW4 6152   1.113   6.260   4.458 -0.0103  0.0292 -0.0404
 1597SOL     OW 6153   3.393   5.580   4.648  0.0413  0.0230  0.6735
 1597SOL    HW2 6154   3.389   5.547   4.558  0.4497 -1.8905  1.3123
 1597SOL    HW3 6155   3.467   5.642   4.647 -0.2671  0.3982 -0.4062
 1597SOL    MW4 6156   3.403   5.584   4.636  0.0545 -0.1800  0.6153
 1598SOL     OW 6157   0.760   2.985   3.266  0.2387 -0.1042  0.0984
 1598SOL    HW2 6158   0.790   2.899   3.296 -0.4146 -0.8333 -1.2514
 1598SOL    HW3 6159   0.717   3.024   3.342 -0.8859 -1.6584  0.3102
 1598SOL    MW4 6160   0.758   2.978   3.280  0.0041 -0.4055 -0.0518
 1599SOL     OW 6161   4.710   2.301   2.313  0.0140  0.1830  0.0897
 1599SOL    HW2 6162   4.661   2.227   2.278 -1.1416  0.9092  0.1326
 1599SOL    HW3 6163   4.753   2.340   2.237 -1.2990  0.8745 -0.3164
 1599SOL    MW4 6164   4.709   2.296   2.298 -0.3117  0.3701  0.0418
 1600SOL     OW 6165   4.497   2.727   6.490  0.0049 -0.1164  0.8040
 1600SOL    HW2 6166   4.561   2.666   6.526  0.5287 -0.7086 -1.0394
 1600SOL    HW3 6167   4.519   2.812   6.529  1.6894 -0.3926  0.4939
 1600SOL    MW4 6168   4.508   2.730   6.500  0.2963 -0.2310  0.5199
 1601SOL     OW 6169   2.883   4.569   4.052 -0.0991  0.5690  0.3751
 1601SOL    HW2 6170   2.875   4.527   3.967  2.4304 -0.7915  0.7017
 1601SOL    HW3 6171   2.813   4.635   4.054 -1.2859 -0.5082 -2.0230
 1601SOL    MW4 6172   2.873   4.572   4.041  0.0781  0.2474  0.1018
 1602SOL     OW 6173   1.940   1.374   5.566 -0.3900  0.2433  0.5544
 1602SOL    HW2 6174   2.035   1.361   5.562 -0.3403  0.2952  1.3623
 1602SOL    HW3 6175   1.909   1.348   5.479  0.0824 -2.1039  1.0218
 1602SOL    MW4 6176   1.949   1.369   5.554 -0.3211 -0.0596  0.7227
 1603SOL     OW 6177   1.640   3.368   4.080 -0.0821 -0.0663  0.1144
 1603SOL    HW2 6178   1.593   3.291   4.112  0.3223 -0.9669 -1.3476
 1603SOL    HW3 6179   1.715   3.333   4.033  0.3028  1.2366 -0.2896
 1603SOL    MW4 6180   1.643   3.353   4.078  0.0220 -0.0132 -0.1318
 1604SOL     OW 6181   0.947   1.019   3.458 -0.2723 -0.3538 -0.3115
 1604SOL    HW2 6182   1.039   1.043   3.448 -0.5008  0.9325  0.3681
 1604SOL    HW3 6183   0.948   0.939   3.509  0.4487  0.5784  1.2059
 1604SOL    MW4 6184   0.959   1.012   3.463 -0.2073 -0.0611 -0.0216
 1605SOL     OW 6185   2.234   2.347   0.852  0.6723 -0.4171 -0.3430
 1605SOL    HW2 6186   2.256   2.397   0.930  0.1996 -1.5915  0.5727
 1605SOL    HW3 6187   2.155   2.388   0.818  1.4901  0.7858 -0.8634
 1605SOL    MW4 6188   2.227   2.359   0.858  0.7178 -0.4134 -0.2909
 1606SOL     OW 6189   1.057   1.265   5.944  0.5970  0.0110  0.3570
 1606SOL    HW2 6190   1.057   1.350   5.901  1.5200  1.3337  2.7907
 1606SOL    HW3 6191   1.143   1.228   5.926  1.0007  0.5838  1.0835
 1606SOL    MW4 6192   1.068   1.271   5.936  0.7720  0.2611  0.7740
 1607SOL     OW 6193   5.196   4.542   4.690 -0.4628 -0.3390  0.0738
 1607SOL    HW2 6194   5.201   4.638   4.692  0.5484 -0.3833  0.9234
 1607SOL    HW3 6195   5.149   4.520   4.770 -1.0850 -0.5426 -0.3457
 1607SOL    MW4 6196   5.191   4.552   4.701 -0.4115 -0.3717  0.1305
 1608SOL     OW 6197   3.630   0.091   2.902 -0.3396 -0.3433 -0.3741
 1608SOL    HW2 6198   3.627   0.007   2.948  1.0180 -0.2534 -0.0630
 1608SOL    HW3 6199   3.590   0.073   2.817 -0.7825 -1.1029 -0.0128
 1608SOL    MW4 6200   3.624   0.077   2.896 -0.2189 -0.4316 -0.2854
 1609SOL     OW 6201   4.128   2.888   4.724  0.3573  0.0398  0.0528
 1609SOL    HW2 6202   4.196   2.827   4.694 -1.1037 -1.1467 -0.9555
 1609SOL    HW3 6203   4.141   2.892   4.819  1.2712 -0.8898 -0.0097
 1609SOL    MW4 6204   4.139   2.880   4.733  0.2851 -0.2394 -0.0885
 1610SOL     OW 6205   5.430   5.743   1.380 -0.2726 -0.5427 -0.2200
 1610SOL    HW2 6206   5.477   5.801   1.441 -0.6134 -0.7841  0.2806
 1610SOL    HW3 6207   5.494   5.725   1.311  0.9041 -2.0027  1.1430
 1610SOL    MW4 6208   5.445   5.749   1.379 -0.1624 -0.7672  0.0259
 1611SOL     OW 6209   4.213   5.361   0.170 -0.3264  0.0947  0.6650
 1611SOL    HW2 6210   4.139   5.398   0.219 -1.2677 -1.1989  0.2665
 1611SOL    HW3 6211   4.207   5.402   0.084  0.5721  1.4118  1.2007
 1611SOL    MW4 6212   4.202   5.371   0.165 -0.3320  0.0978  0.6831
 1612SOL     OW 6213   2.144   1.516   2.634 -0.1626  0.2318  0.4582
 1612SOL    HW2 6214   2.159   1.425   2.609  0.2023  0.3207  0.3534
 1612SOL    HW3 6215   2.203   1.531   2.708  0.5125  0.6767 -0.1609
 1612SOL    MW4 6216   2.154   1.506   2.640 -0.0254  0.3022  0.3627
 1613SOL     OW 6217   2.623   1.650   2.135  0.0700  0.4813 -0.1899
 1613SOL    HW2 6218   2.569   1.728   2.122  0.2820  0.6897  0.1522
 1613SOL    HW3 6219   2.679   1.672   2.209 -0.9230 -0.5847  0.9143
 1613SOL    MW4 6220   2.623   1.664   2.143 -0.0330  0.3682  0.0009
 1614SOL     OW 6221   3.735   4.021   0.273  0.1132  0.2092  0.4724
 1614SOL    HW2 6222   3.685   3.949   0.234  0.7487 -0.1940  0.3844
 1614SOL    HW3 6223   3.694   4.034   0.359 -1.8886  1.7128 -0.6056
 1614SOL    MW4 6224   3.723   4.013   0.279 -0.0670  0.3544  0.3185
 1615SOL     OW 6225   0.047   2.611   0.316  0.4081  0.6115  0.1496
 1615SOL    HW2 6226  -0.015   2.568   0.257  1.0506  0.5079 -0.4771
 1615SOL    HW3 6227  -0.004   2.676   0.362 -0.1602  0.5478 -0.3801
 1615SOL    MW4 6228   0.032   2.614   0.314  0.4179  0.5895 -0.0030
 1616SOL     OW 6229   4.898   1.413   0.819 -0.0503 -0.3558 -0.4377
 1616SOL    HW2 6230   4.874   1.501   0.845  0.6060  0.1744 -1.5440
 1616SOL    HW3 6231   4.942   1.376   0.896  4.0677  2.0144 -1.3596
 1616SOL    MW4 6232   4.901   1.420   0.833  0.5796  0.0269 -0.7053
 1617SOL     OW 6233   6.223   3.032   3.652  0.0157  0.3336 -0.1913
 1617SOL    HW2 6234   6.139   3.064   3.685  0.9328  1.5173  1.1000
 1617SOL    HW3 6235   6.279   3.110   3.648  1.0600 -0.4193 -1.0651
 1617SOL    MW4 6236   6.219   3.047   3.656  0.2745  0.3904 -0.1362
 1618SOL     OW 6237   4.221   1.273   0.524  0.6589 -0.7331  0.0026
 1618SOL    HW2 6238   4.301   1.314   0.493  0.2609  1.3058  1.4656
 1618SOL    HW3 6239   4.206   1.200   0.464  2.9912 -0.5012 -0.9472
 1618SOL    MW4 6240   4.229   1.269   0.512  0.9141 -0.4335  0.0703
 1619SOL     OW 6241   3.839   3.113   0.794  0.5627 -0.0311  0.0606
 1619SOL    HW2 6242   3.858   3.114   0.888 -0.6476  0.9383  0.3126
 1619SOL    HW3 6243   3.895   3.182   0.758 -0.6269  1.1595  0.4336
 1619SOL    MW4 6244   3.849   3.122   0.802  0.2461  0.2539  0.1431
 1620SOL     OW 6245   1.819   2.129   1.272 -0.2402 -0.6271  0.8909
 1620SOL    HW2 6246   1.835   2.155   1.363 -0.0775 -0.7413  0.8957
 1620SOL    HW3 6247   1.887   2.064   1.254  1.8443  1.7330 -0.3617
 1620SOL    MW4 6248   1.830   2.124   1.282  0.0563 -0.3308  0.7263
 1621SOL     OW 6249   3.778   6.015   1.285  0.0791 -0.4238  0.3844
 1621SOL    HW2 6250   3.696   6.032   1.332  0.7444 -0.2940  1.5435
 1621SOL    HW3 6251   3.835   5.974   1.350  0.2605 -2.4401 -0.9680
 1621SOL    MW4 6252   3.774   6.012   1.300  0.1908 -0.6727  0.3589
 1622SOL     OW 6253   1.080   2.933   3.532  0.0327 -0.2263  0.3011
 1622SOL    HW2 6254   1.069   2.838   3.542 -1.1896 -0.0087  1.2342
 1622SOL    HW3 6255   1.121   2.943   3.446 -0.5376 -1.5674 -0.1653
 1622SOL    MW4 6256   1.084   2.922   3.522 -0.2038 -0.3745  0.3627
 1623SOL     OW 6257   4.459   1.623   1.875 -0.8934  0.6553 -0.0101
 1623SOL    HW2 6258   4.486   1.568   1.802 -0.6871  0.4750  0.2020
 1623SOL    HW3 6259   4.471   1.569   1.952  1.3971  1.6717  0.4467
 1623SOL    MW4 6260   4.464   1.609   1.875 -0.5640  0.7656  0.0781
 1624SOL     OW 6261   0.643   2.742   4.779 -0.2705  0.2665 -0.2502
 1624SOL    HW2 6262   0.676   2.776   4.697 -0.0707  2.3161  0.6205
 1624SOL    HW3 6263   0.554   2.713   4.759 -0.0556  0.2988 -1.2765
 1624SOL    MW4 6264   0.635   2.743   4.766 -0.2158  0.5412 -0.2707
 1625SOL     OW 6265   5.620   0.327   1.290 -0.5283  0.2348  0.1374
 1625SOL    HW2 6266   5.684   0.280   1.236 -2.5044 -1.8399 -0.5750
 1625SOL    HW3 6267   5.624   0.417   1.259  0.3599 -0.3314 -1.5422
 1625SOL    MW4 6268   5.629   0.333   1.279 -0.6718 -0.1137 -0.1782
 1626SOL     OW 6269   5.678   2.372   3.125  0.2814  0.0634 -0.2864
 1626SOL    HW2 6270   5.704   2.462   3.143 -0.3523  0.4038 -1.0380
 1626SOL    HW3 6271   5.717   2.352   3.039 -0.2835 -0.0937 -0.5069
 1626SOL    MW4 6272   5.687   2.381   3.116  0.1233  0.0876 -0.4147
 1627SOL     OW 6273   0.934   5.978   1.594 -0.1136  0.3451  0.2851
 1627SOL    HW2 6274   0.872   6.029   1.645  0.5024  1.0288  0.3656
 1627SOL    HW3 6275   0.972   5.916   1.657  0.0478  0.6353  0.4742
 1627SOL    MW4 6276   0.931   5.976   1.609 -0.0110  0.4736  0.3207
 1628SOL     OW 6277   0.626   6.124   3.443 -0.2936 -0.2722 -0.2653
 1628SOL    HW2 6278   0.630   6.076   3.360 -0.0223 -0.9761  0.1445
 1628SOL    HW3 6279   0.569   6.071   3.499 -0.2073  0.0192  0.1078
 1628SOL    MW4 6280   0.619   6.110   3.440 -0.2464 -0.3266 -0.1620
 1629SOL     OW 6281   5.859   3.007   5.087  0.1795  0.6816  0.4162
 1629SOL    HW2 6282   5.901   3.091   5.073  1.8740  0.1141  1.6824
 1629SOL    HW3 6283   5.921   2.959   5.143 -0.9569 -1.2123  0.1218
 1629SOL    MW4 6284   5.873   3.012   5.093  0.2532  0.3569  0.5444
 1630SOL     OW 6285   1.153   0.397   6.418  0.0528 -0.1356  0.0372
 1630SOL    HW2 6286   1.239   0.392   6.375 -0.3186  1.3467 -0.9414
 1630SOL    HW3 6287   1.126   0.488   6.407 -0.2818  0.2250  3.0560
 1630SOL    MW4 6288   1.161   0.408   6.411 -0.0403  0.1075  0.3063
 1631SOL     OW 6289   4.982   3.764   5.868  0.2134  0.6648  0.1553
 1631SOL    HW2 6290   4.898   3.728   5.839  0.1135  1.1087 -0.1280
 1631SOL    HW3 6291   5.035   3.688   5.891 -0.4355  0.3983  0.8156
 1631SOL    MW4 6292   4.977   3.749   5.867  0.1146  0.6882  0.2051
 1632SOL     OW 6293   6.022   5.575   4.307  0.4605  0.1029  0.1660
 1632SOL    HW2 6294   5.953   5.638   4.329  0.4312  0.0029  0.3634
 1632SOL    HW3 6295   6.068   5.560   4.389 -1.2033 -2.1806  0.8111
 1632SOL    MW4 6296   6.019   5.581   4.321  0.2371 -0.2116  0.2771
 1633SOL     OW 6297   1.721   1.780   1.340  0.1312  0.2331 -0.5907
 1633SOL    HW2 6298   1.685   1.698   1.375 -0.5664  1.0624  0.7352
 1633SOL    HW3 6299   1.762   1.822   1.416 -0.6644  1.7126 -0.9454
 1633SOL    MW4 6300   1.722   1.775   1.355 -0.0658  0.5377 -0.4625
 1634SOL     OW 6301   2.895   0.613   1.193 -0.3802 -0.5736 -0.6516
 1634SOL    HW2 6302   2.893   0.642   1.284 -0.2791  1.6477 -1.3043
 1634SOL    HW3 6303   2.803   0.605   1.168 -0.5923  2.7426 -1.4281
 1634SOL    MW4 6304   2.883   0.616   1.201 -0.3948  0.1570 -0.8401
 1635SOL     OW 6305   5.046   0.972   5.713 -0.0573  0.3313 -0.0484
 1635SOL    HW2 6306   5.029   1.048   5.658  0.2221  1.0579  0.8499
 1635SOL    HW3 6307   5.012   0.898   5.663 -0.6920  1.0908 -0.7593
 1635SOL    MW4 6308   5.039   0.972   5.699 -0.1042  0.5274 -0.0237
 1636SOL     OW 6309   5.323   0.111   0.389  0.1617 -0.0280 -0.6649
 1636SOL    HW2 6310   5.363   0.046   0.331 -0.1456  1.0777 -2.1921
 1636SOL    HW3 6311   5.357   0.090   0.476  0.3364 -2.0005 -1.1517
 1636SOL    MW4 6312   5.333   0.100   0.393  0.1442 -0.1424 -0.9306
 1637SOL     OW 6313   1.112   5.825   1.346 -0.2243 -0.1210 -0.1744
 1637SOL    HW2 6314   1.022   5.793   1.352 -0.4510  0.3862 -0.7401
 1637SOL    HW3 6315   1.114   5.875   1.265  0.5337 -0.0050 -0.0913
 1637SOL    MW4 6316   1.100   5.827   1.336 -0.1542 -0.0388 -0.2380
 1638SOL     OW 6317   4.244   0.593   1.695  0.2583  0.0485  0.7967
 1638SOL    HW2 6318   4.291   0.651   1.755  1.4778 -2.4000  2.3955
 1638SOL    HW3 6319   4.155   0.590   1.730 -0.5526  2.6525 -0.7094
 1638SOL    MW4 6320   4.238   0.600   1.707  0.3122  0.0690  0.8089
 1639SOL     OW 6321   3.684   5.800   1.984  0.2707  0.2122 -0.0476
 1639SOL    HW2 6322   3.768   5.843   1.999  1.1313 -0.7789 -1.7433
 1639SOL    HW3 6323   3.658   5.827   1.896 -1.6792  1.2047  0.7430
 1639SOL    MW4 6324   3.691   5.809   1.975  0.1270  0.2124 -0.1670
 1640SOL     OW 6325   3.244   1.323   5.193 -0.2796 -0.8101  0.5809
 1640SOL    HW2 6326   3.293   1.265   5.250 -0.6305 -1.0244  0.6713
 1640SOL    HW3 6327   3.240   1.406   5.240  0.2194 -0.7106  0.4523
 1640SOL    MW4 6328   3.250   1.326   5.207 -0.2600 -0.8253  0.5759
 1641SOL     OW 6329   1.995   4.695   6.372  0.2300 -0.0528  0.5073
 1641SOL    HW2 6330   1.918   4.676   6.319  0.5212  0.1638 -0.0082
 1641SOL    HW3 6331   1.969   4.674   6.462 -0.4519  0.0968  0.3504
 1641SOL    MW4 6332   1.982   4.690   6.377  0.1785 -0.0045  0.4186
 1642SOL     OW 6333   6.102   1.399   3.897 -0.4330 -0.0298 -0.1247
 1642SOL    HW2 6334   6.134   1.311   3.917 -0.3540  0.2416  1.0151
 1642SOL    HW3 6335   6.182   1.453   3.893 -0.5097  0.0612 -0.4416
 1642SOL    MW4 6336   6.117   1.395   3.899 -0.4327  0.0180 -0.0161
 1643SOL     OW 6337   3.924   1.045   1.208  0.2910 -0.1216  0.0189
 1643SOL    HW2 6338   3.905   1.089   1.291  0.2279  0.1514 -0.1382
 1643SOL    HW3 6339   3.890   1.105   1.141 -1.7141 -1.3688 -0.1461
 1643SOL    MW4 6340   3.917   1.059   1.210  0.0181 -0.2501 -0.0236
 1644SOL     OW 6341   3.963   3.419   3.498 -0.5445  0.3754 -0.5764
 1644SOL    HW2 6342   3.929   3.333   3.477  0.0537 -0.7893  2.6553
 1644SOL    HW3 6343   3.888   3.478   3.488 -2.0515 -1.1897  0.8119
 1644SOL    MW4 6344   3.949   3.416   3.494 -0.6644  0.0153  0.0332
 1645SOL     OW 6345   4.927   4.118   0.367  0.3110 -0.2639  0.2814
 1645SOL    HW2 6346   4.986   4.048   0.395  1.1829 -0.3307 -1.5642
 1645SOL    HW3 6347   4.969   4.198   0.397 -0.1004 -0.4572  1.3994
 1645SOL    MW4 6348   4.941   4.119   0.375  0.3717 -0.2982  0.1854
 1646SOL     OW 6349   5.193   0.828   4.071  0.4272  0.2812  0.4877
 1646SOL    HW2 6350   5.125   0.834   4.138  0.0331  1.8918 -0.0200
 1646SOL    HW3 6351   5.265   0.882   4.105  0.5425  0.4412 -0.0092
 1646SOL    MW4 6352   5.193   0.836   4.085  0.3904  0.5148  0.3552
 1647SOL     OW 6353   4.108   4.716   6.300 -0.4043  0.9491  0.1626
 1647SOL    HW2 6354   4.039   4.763   6.347 -1.4209 -1.2082  0.9609
 1647SOL    HW3 6355   4.186   4.727   6.353 -0.5374  1.9943  0.1532
 1647SOL    MW4 6356   4.109   4.723   6.313 -0.5560  0.8023  0.2667
 1648SOL     OW 6357   1.055   2.567   6.155 -0.3899  0.3465  0.1012
 1648SOL    HW2 6358   0.983   2.531   6.103 -0.0490 -2.0112  1.1069
 1648SOL    HW3 6359   1.133   2.528   6.117  0.0572  0.3890  0.9499
 1648SOL    MW4 6360   1.056   2.557   6.143 -0.2859  0.0410  0.3458
 1649SOL     OW 6361   1.915   0.079   3.535  0.0495 -0.4712  0.2290
 1649SOL    HW2 6362   1.825   0.107   3.554  0.3009  0.1510  0.5151
 1649SOL    HW3 6363   1.907  -0.015   3.517 -0.5642 -0.5520  0.8862
 1649SOL    MW4 6364   1.902   0.070   3.535  0.0017 -0.3998  0.3535
 1650SOL     OW 6365   3.032   0.441   0.818 -0.7150  0.3828 -0.6054
 1650SOL    HW2 6366   3.095   0.508   0.791 -0.6006 -0.0318 -1.3903
 1650SOL    HW3 6367   2.946   0.481   0.805 -0.6342  0.7422 -0.0824
 1650SOL    MW4 6368   3.029   0.455   0.813 -0.6893  0.3755 -0.6400
 1651SOL     OW 6369   5.967   0.538   3.772 -0.3415 -0.2869 -0.5053
 1651SOL    HW2 6370   5.999   0.617   3.814  1.0426 -1.4146  0.6826
 1651SOL    HW3 6371   6.037   0.513   3.712 -0.7167 -0.6808 -0.7884
 1651SOL    MW4 6372   5.980   0.545   3.770 -0.2084 -0.4877 -0.3859
 1652SOL     OW 6373   4.206   2.826   4.438  0.5504  0.3660  0.4507
 1652SOL    HW2 6374   4.186   2.733   4.427  1.1197  0.0210  2.0536
 1652SOL    HW3 6375   4.258   2.830   4.518  0.2449  2.1087  0.5999
 1652SOL    MW4 6376   4.210   2.814   4.447  0.5852  0.5504  0.6818
 1653SOL     OW 6377   5.031   4.904   4.359 -0.1085  0.2442 -0.4918
 1653SOL    HW2 6378   4.965   4.862   4.414  0.9558 -0.2191  0.4775
 1653SOL    HW3 6379   5.108   4.849   4.368  0.9118  1.6450 -0.2904
 1653SOL    MW4 6380   5.032   4.891   4.367  0.1665  0.3679 -0.3374
 1654SOL     OW 6381   0.053   0.175   3.918 -1.0006 -0.6129  0.5742
 1654SOL    HW2 6382  -0.002   0.208   3.989 -0.2380  1.3355  0.3004
 1654SOL    HW3 6383  -0.006   0.163   3.844 -1.3534 -0.1406  0.7764
 1654SOL    MW4 6384   0.038   0.177   3.918 -0.9465 -0.2935  0.5647
 1655SOL     OW 6385   1.768   1.114   6.201  0.5580  0.0138 -0.0903
 1655SOL    HW2 6386   1.729   1.128   6.287  0.6276  0.9836 -0.2074
 1655SOL    HW3 6387   1.852   1.072   6.220  0.2474 -0.4597  0.2637
 1655SOL    MW4 6388   1.774   1.110   6.215  0.5262  0.0793 -0.0590
 1656SOL     OW 6389   4.346   6.175   4.774 -0.8048  0.0892 -0.4265
 1656SOL    HW2 6390   4.331   6.182   4.868 -1.8563  0.9745 -0.6368
 1656SOL    HW3 6391   4.258   6.178   4.735 -0.3032  1.9315 -1.5513
 1656SOL    MW4 6392   4.332   6.176   4.781 -0.8774  0.4491 -0.6026
 1657SOL     OW 6393   0.194   4.451   6.250 -0.2375 -0.1161 -0.4511
 1657SOL    HW2 6394   0.167   4.534   6.290 -0.0736  0.0656 -0.7166
 1657SOL    HW3 6395   0.187   4.466   6.156 -1.5991 -0.8669 -0.4957
 1657SOL    MW4 6396   0.189   4.464   6.243 -0.3955 -0.1912 -0.4920
 1658SOL     OW 6397   2.921   3.510   3.729 -0.0201  0.0745 -0.5518
 1658SOL    HW2 6398   2.842   3.464   3.698 -0.7176 -0.1626  1.4599
 1658SOL    HW3 6399   2.888   3.581   3.783  1.1480 -0.2456  0.6206
 1658SOL    MW4 6400   2.906   3.513   3.732  0.0420  0.0010 -0.1317
 1659SOL     OW 6401   0.893   1.911   0.189 -0.7565  0.0268  0.1848
 1659SOL    HW2 6402   0.902   1.877   0.278 -1.1777 -0.6497 -0.0192
 1659SOL    HW3 6403   0.968   1.969   0.177 -0.9745  0.5309  1.1588
 1659SOL    MW4 6404   0.904   1.914   0.199 -0.8408  0.0041  0.2864
 1660SOL     OW 6405   2.733   6.359   2.905  0.3357 -0.2150 -0.3774
 1660SOL    HW2 6406   2.654   6.338   2.854  0.3755  0.1711 -0.5975
 1660SOL    HW3 6407   2.735   6.454   2.908  0.1819 -0.2299  0.5880
 1660SOL    MW4 6408   2.723   6.369   2.899  0.3206 -0.1660 -0.2790
 1661SOL     OW 6409   6.224   6.361   2.569  0.1565 -0.1847  0.6602
 1661SOL    HW2 6410   6.194   6.294   2.630  0.9101  0.4743  1.7849
 1661SOL    HW3 6411   6.275   6.422   2.622 -0.1717  1.0812 -0.4023
 1661SOL    MW4 6412   6.227   6.360   2.584  0.2126  0.0693  0.6684
 1662SOL     OW 6413   4.204   2.015   3.002 -0.5465 -0.0303  0.0847
 1662SOL    HW2 6414   4.126   1.995   3.054 -0.5179  0.3762  0.2914
 1662SOL    HW3 6415   4.252   2.078   3.055  0.9332 -1.7457  0.8596
 1662SOL    MW4 6416   4.200   2.021   3.016 -0.3475 -0.2030  0.2142
 1663SOL     OW 6417   2.625   6.041   4.413 -0.6974 -0.1519  0.0530
 1663SOL    HW2 6418   2.717   6.016   4.418 -1.0009 -1.4476 -0.4664
 1663SOL    HW3 6419   2.614   6.074   4.324 -0.4246  1.4544  0.5697
 1663SOL    MW4 6420   2.636   6.042   4.402 -0.7015 -0.1109  0.0526
 1664SOL     OW 6421   2.976   0.415   5.533 -1.0602 -0.3545 -0.1091
 1664SOL    HW2 6422   3.063   0.377   5.527  0.3944  2.7370 -0.8734
 1664SOL    HW3 6423   2.925   0.352   5.583  1.3132 -2.7414 -0.4853
 1664SOL    MW4 6424   2.980   0.402   5.539 -0.5551 -0.2615 -0.2596
 1665SOL     OW 6425   4.933   5.603   5.474 -0.5711 -0.6341 -0.6182
 1665SOL    HW2 6426   4.868   5.622   5.542 -0.0696 -0.0912 -0.2784
 1665SOL    HW3 6427   4.902   5.523   5.432 -0.7169 -1.1662  0.4764
 1665SOL    MW4 6428   4.920   5.595   5.477 -0.5242 -0.6327 -0.4290
 1666SOL     OW 6429   3.327   4.553   4.948 -0.1541  0.3465 -0.4059
 1666SOL    HW2 6430   3.233   4.545   4.965 -0.6220  3.0792 -1.1665
 1666SOL    HW3 6431   3.352   4.635   4.992  1.8514 -0.2365 -0.3734
 1666SOL    MW4 6432   3.318   4.563   4.956  0.0487  0.6301 -0.5020
 1667SOL     OW 6433   2.863   2.563   0.698  0.3866 -0.2520  0.2743
 1667SOL    HW2 6434   2.787   2.614   0.670 -0.7815 -1.3592  1.2589
 1667SOL    HW3 6435   2.935   2.595   0.644 -0.7812  0.8161 -0.7228
 1667SOL    MW4 6436   2.862   2.574   0.687  0.0784 -0.2571  0.2726
 1668SOL     OW 6437   0.982   2.529   5.274  0.5166 -0.4094  0.0289
 1668SOL    HW2 6438   1.002   2.449   5.323  1.0618 -0.7707 -0.7582
 1668SOL    HW3 6439   0.981   2.501   5.183 -2.0974 -0.0730 -0.1066
 1668SOL    MW4 6440   0.985   2.514   5.269  0.2436 -0.4127 -0.0928
 1669SOL     OW 6441   0.142   5.866   1.107 -0.3704  0.3280  0.3695
 1669SOL    HW2 6442   0.184   5.868   1.193  1.7862 -0.9062 -0.5574
 1669SOL    HW3 6443   0.093   5.948   1.102  0.0802  0.7862  2.4655
 1669SOL    MW4 6444   0.141   5.877   1.118 -0.0264  0.2256  0.5238
 1670SOL     OW 6445   4.656   2.521   5.408 -0.0335 -0.0455  0.1786
 1670SOL    HW2 6446   4.642   2.532   5.502  1.4745  1.1004  0.3067
 1670SOL    HW3 6447   4.635   2.607   5.371  1.0057 -0.0007 -0.3138
 1670SOL    MW4 6448   4.651   2.534   5.416  0.3026  0.1116  0.1306
 1671SOL     OW 6449   2.329   4.574   5.821  0.0862  0.1500  0.0378
 1671SOL    HW2 6450   2.264   4.601   5.886  0.7629  0.0956  0.7514
 1671SOL    HW3 6451   2.277   4.554   5.743 -0.6902  0.7321  0.3861
 1671SOL    MW4 6452   2.313   4.575   5.819  0.0731  0.2196  0.1779
 1672SOL     OW 6453   6.386   6.151   2.432  0.1476  0.2569 -0.1778
 1672SOL    HW2 6454   6.474   6.168   2.466  0.5592 -0.0195 -1.0906
 1672SOL    HW3 6455   6.329   6.210   2.483  0.6878 -0.3827  1.2145
 1672SOL    MW4 6456   6.390   6.161   2.443  0.2732  0.1361 -0.1145
 1673SOL     OW 6457   4.347   5.492   4.462  0.0941 -0.3267  0.2088
 1673SOL    HW2 6458   4.441   5.489   4.479  0.3580  0.9845 -0.8540
 1673SOL    HW3 6459   4.339   5.517   4.370 -1.2769  1.0909  0.6606
 1673SOL    MW4 6460   4.358   5.495   4.452 -0.0520  0.0334  0.1282
 1674SOL     OW 6461   4.229   5.257   1.145 -0.3078 -0.3493  0.1662
 1674SOL    HW2 6462   4.246   5.163   1.136 -1.3458 -0.7831  2.1895
 1674SOL    HW3 6463   4.268   5.280   1.229 -0.6720  0.8953  0.0116
 1674SOL    MW4 6464   4.236   5.247   1.155 -0.4928 -0.2423  0.4128
 1675SOL     OW 6465   6.385   1.597   5.167 -0.1848  0.9773 -0.6216
 1675SOL    HW2 6466   6.339   1.538   5.107 -0.3397  2.3997 -1.9515
 1675SOL    HW3 6467   6.477   1.589   5.142 -0.0196  0.2859  0.1393
 1675SOL    MW4 6468   6.391   1.588   5.156 -0.1834  1.0738 -0.6966
 1676SOL     OW 6469   2.460   1.279   1.849  0.0115 -0.0791  0.1697
 1676SOL    HW2 6470   2.411   1.204   1.882 -0.8784  0.0939 -0.6988
 1676SOL    HW3 6471   2.423   1.355   1.896 -0.3145  0.0091 -0.2225
 1676SOL    MW4 6472   2.449   1.279   1.860 -0.1489 -0.0447  0.0034
 1677SOL     OW 6473   3.082   4.811   4.117 -0.3613  0.0737  0.7097
 1677SOL    HW2 6474   3.007   4.856   4.078  0.2382  1.3964  1.0204
 1677SOL    HW3 6475   3.044   4.759   4.188 -0.8499  1.7797  1.7354
 1677SOL    MW4 6476   3.067   4.810   4.121 -0.3467  0.4733  0.8860
 1678SOL     OW 6477   5.238   6.186   5.346 -0.7449  0.6406 -0.2319
 1678SOL    HW2 6478   5.279   6.206   5.431  1.2022 -0.2767 -0.9109
 1678SOL    HW3 6479   5.208   6.096   5.355 -2.6812  1.2831  0.2373
 1678SOL    MW4 6480   5.239   6.177   5.359 -0.7435  0.6043 -0.2596
 1679SOL     OW 6481   0.160   6.266   3.632  0.0763  0.0818 -0.0531
 1679SOL    HW2 6482   0.241   6.257   3.580  0.5536  1.1576  0.4669
 1679SOL    HW3 6483   0.091   6.277   3.566  0.4887  0.0940 -0.4958
 1679SOL    MW4 6484   0.162   6.267   3.616  0.1937  0.2254 -0.0429
 1680SOL     OW 6485   5.054   5.065   2.216 -0.5075 -0.1499 -0.9154
 1680SOL    HW2 6486   5.134   5.013   2.205 -0.4455 -0.5212  0.8764
 1680SOL    HW3 6487   5.086   5.152   2.243 -0.6635  0.4141 -2.4384
 1680SOL    MW4 6488   5.069   5.070   2.218 -0.5199 -0.1244 -0.8799
 1681SOL     OW 6489   6.162   5.760   6.125  0.0296 -0.1894  0.3269
 1681SOL    HW2 6490   6.105   5.834   6.106  0.2465 -0.1559 -0.2428
 1681SOL    HW3 6491   6.125   5.719   6.203 -1.5187 -0.9269 -0.7527
 1681SOL    MW4 6492   6.150   5.764   6.133 -0.1461 -0.2823  0.1093
 1682SOL     OW 6493   5.276   0.719   1.943  0.3805  0.2584  0.3650
 1682SOL    HW2 6494   5.362   0.759   1.941  1.0338 -1.0818 -1.6730
 1682SOL    HW3 6495   5.281   0.652   2.012  0.5352  1.0166  1.1003
 1682SOL    MW4 6496   5.288   0.715   1.952  0.4871  0.1816  0.1931
 1683SOL     OW 6497   3.109   4.456   6.426 -0.8445  0.1366  0.2880
 1683SOL    HW2 6498   3.065   4.536   6.453  1.0662  1.7560 -1.1232
 1683SOL    HW3 6499   3.160   4.481   6.349 -1.6608 -2.9083 -1.4288
 1683SOL    MW4 6500   3.110   4.470   6.420 -0.7001 -0.0514 -0.1247
 1684SOL     OW 6501   4.379   5.963   0.450 -0.2619  0.0207 -0.4669
 1684SOL    HW2 6502   4.389   5.882   0.500 -1.8307 -0.4028 -0.7988
 1684SOL    HW3 6503   4.345   6.026   0.513 -0.6290 -0.0478 -0.5934
 1684SOL    MW4 6504   4.376   5.960   0.465 -0.5173 -0.0442 -0.5274
 1685SOL     OW 6505   3.048   2.453   3.416  0.3702  0.6157 -0.1695
 1685SOL    HW2 6506   3.022   2.455   3.324 -0.2409 -0.5266 -0.0331
 1685SOL    HW3 6507   2.966   2.460   3.465  0.5504 -0.2499  0.2733
 1685SOL    MW4 6508   3.034   2.454   3.410  0.3133  0.3507 -0.0931
 1686SOL     OW 6509   4.075   1.082   4.080 -0.7796 -0.0715  0.2246
 1686SOL    HW2 6510   4.111   1.169   4.065 -1.9021  0.2185 -0.9369
 1686SOL    HW3 6511   4.146   1.022   4.058 -0.3336  0.5260  0.0108
 1686SOL    MW4 6512   4.089   1.085   4.075 -0.8689  0.0456  0.0432
 1687SOL     OW 6513   3.431   2.701   3.914 -0.1810  0.3420  0.1834
 1687SOL    HW2 6514   3.392   2.768   3.970  0.5642 -0.4665  1.7475
 1687SOL    HW3 6515   3.390   2.619   3.943  1.2698 -0.2748  0.5752
 1687SOL    MW4 6516   3.420   2.699   3.926  0.1088  0.1539  0.4415
 1688SOL     OW 6517   0.506   1.570   4.250 -0.2686  0.1025  0.1311
 1688SOL    HW2 6518   0.491   1.519   4.330 -1.5792  2.1122  1.2595
 1688SOL    HW3 6519   0.593   1.545   4.222 -0.2492 -1.5757  1.4967
 1688SOL    MW4 6520   0.515   1.560   4.257 -0.4390  0.1463  0.4602
 1689SOL     OW 6521   2.873   0.637   0.249  0.1588 -0.3263  0.0157
 1689SOL    HW2 6522   2.779   0.655   0.249  0.3050  0.4913 -0.5608
 1689SOL    HW3 6523   2.880   0.544   0.267 -0.7117 -0.1384  1.4248
 1689SOL    MW4 6524   2.862   0.627   0.251  0.0633 -0.1936  0.1256
 1690SOL     OW 6525   3.890   1.541   0.630 -0.0504 -0.2318 -0.2632
 1690SOL    HW2 6526   3.817   1.597   0.605 -1.2937 -1.7794 -0.2211
 1690SOL    HW3 6527   3.932   1.588   0.703 -1.4113  0.3604  0.1679
 1690SOL    MW4 6528   3.886   1.555   0.636 -0.3940 -0.3579 -0.2008
 1691SOL     OW 6529   2.741   2.375   4.470 -0.3179  0.0746 -0.0570
 1691SOL    HW2 6530   2.823   2.420   4.448 -0.2137 -0.6574 -1.2615
 1691SOL    HW3 6531   2.743   2.367   4.565  1.8723 -1.4489 -0.1443
 1691SOL    MW4 6532   2.752   2.380   4.479 -0.0152 -0.2230 -0.2274
 1692SOL     OW 6533   4.114   3.160   0.291  0.4728 -0.0218 -0.2056
 1692SOL    HW2 6534   4.078   3.236   0.244  1.8111  0.9143  0.2124
 1692SOL    HW3 6535   4.152   3.105   0.221  1.4746  0.8229 -0.3632
 1692SOL    MW4 6536   4.115   3.163   0.275  0.7815  0.2132 -0.1713
 1693SOL     OW 6537   5.520   3.025   1.413 -0.4441  0.1110  0.0727
 1693SOL    HW2 6538   5.583   2.957   1.438 -2.8624 -2.3871 -0.1254
 1693SOL    HW3 6539   5.561   3.069   1.339  1.3344 -0.9513  0.3519
 1693SOL    MW4 6540   5.534   3.022   1.407 -0.5285 -0.3587  0.0834
 1694SOL     OW 6541   5.265   0.611   1.692  0.4600  0.0217  0.4224
 1694SOL    HW2 6542   5.297   0.642   1.776  0.3585 -0.2321  0.5566
 1694SOL    HW3 6543   5.173   0.587   1.708 -0.2070  1.9494 -0.2627
 1694SOL    MW4 6544   5.257   0.612   1.705  0.3586  0.2425  0.3497
 1695SOL     OW 6545   1.270   4.356   0.463  0.6762 -0.0367  0.2328
 1695SOL    HW2 6546   1.204   4.342   0.531 -0.0634 -0.6994 -0.5993
 1695SOL    HW3 6547   1.228   4.326   0.382  1.5965  0.5815 -0.4958
 1695SOL    MW4 6548   1.255   4.350   0.461  0.7001 -0.0426  0.0269
 1696SOL     OW 6549   0.562   3.763   5.544  0.1968 -0.2530  0.5874
 1696SOL    HW2 6550   0.543   3.702   5.473  2.0446  0.5706 -0.6814
 1696SOL    HW3 6551   0.587   3.707   5.617 -2.6116 -1.1635  0.9849
 1696SOL    MW4 6552   0.563   3.747   5.544  0.0701 -0.2644  0.4724
 1697SOL     OW 6553   5.663   4.991   3.908 -0.4367 -0.2058  0.1705
 1697SOL    HW2 6554   5.732   5.040   3.863 -0.2738  1.2832  1.9166
 1697SOL    HW3 6555   5.597   4.976   3.840  1.0167 -0.5508 -1.2311
 1697SOL    MW4 6556   5.663   4.996   3.893 -0.2235 -0.0549  0.2159
 1698SOL     OW 6557   5.354   6.007   0.984  0.0526  0.3619  0.3000
 1698SOL    HW2 6558   5.434   6.055   0.966  0.5606 -0.4856  0.2414
 1698SOL    HW3 6559   5.306   6.062   1.047 -0.4925  2.0687 -1.4981
 1698SOL    MW4 6560   5.358   6.021   0.990  0.0477  0.4753  0.0550
 1699SOL     OW 6561   3.931   4.301   4.723  0.0968  0.0322  0.0106
 1699SOL    HW2 6562   3.901   4.261   4.641  0.9978  1.0806 -0.8694
 1699SOL    HW3 6563   3.879   4.259   4.791 -1.2999 -0.2426 -1.1824
 1699SOL    MW4 6564   3.920   4.290   4.721  0.0314  0.1342 -0.2629
 1700SOL     OW 6565   3.218   0.285   3.356 -0.6928  0.2225  0.6739
 1700SOL    HW2 6566   3.183   0.235   3.429 -1.0863 -1.5658 -0.6578
 1700SOL    HW3 6567   3.148   0.285   3.291  0.1844  0.4120 -0.3048
 1700SOL    MW4 6568   3.204   0.278   3.357 -0.6290  0.0116  0.3691
 1701SOL     OW 6569   0.487   2.287   5.638 -0.4216 -0.9825  0.6504
 1701SOL    HW2 6570   0.478   2.370   5.684 -1.5697  0.4752 -1.9878
 1701SOL    HW3 6571   0.581   2.279   5.621 -0.3817  0.1460  0.3021
 1701SOL    MW4 6572   0.498   2.297   5.642 -0.5678 -0.6413  0.2564
 1702SOL     OW 6573   1.568   2.108   5.125  0.6815 -0.3717  0.2075
 1702SOL    HW2 6574   1.478   2.081   5.141  0.8209  0.1171  2.1484
 1702SOL    HW3 6575   1.595   2.058   5.048 -1.2991 -0.3566 -0.5529
 1702SOL    MW4 6576   1.560   2.098   5.117  0.4386 -0.3052  0.3632
 1703SOL     OW 6577   6.410   0.413   1.100  0.1457 -0.0287  0.1251
 1703SOL    HW2 6578   6.414   0.491   1.045  0.1357 -0.2217 -0.1533
 1703SOL    HW3 6579   6.501   0.395   1.122  0.1877 -0.1924 -0.1751
 1703SOL    MW4 6580   6.422   0.421   1.096  0.1499 -0.0757  0.0488
 1704SOL     OW 6581   3.876   3.458   0.444 -0.4110 -0.0394 -0.5936
 1704SOL    HW2 6582   3.782   3.472   0.453 -0.4540 -0.0006 -1.0850
 1704SOL    HW3 6583   3.885   3.400   0.368 -0.2553 -2.9534  1.4991
 1704SOL    MW4 6584   3.865   3.452   0.435 -0.3961 -0.4188 -0.3824
 1705SOL     OW 6585   3.904   4.356   5.860 -0.1103 -0.7002 -0.5932
 1705SOL    HW2 6586   3.895   4.303   5.939 -1.5634 -3.0068 -2.2081
 1705SOL    HW3 6587   3.835   4.422   5.868  1.8432  1.3044  1.5277
 1705SOL    MW4 6588   3.894   4.358   5.872 -0.0443 -0.7400 -0.5264
 1706SOL     OW 6589   2.314   4.348   2.256 -0.1102  0.1253  0.0098
 1706SOL    HW2 6590   2.247   4.314   2.197 -1.2608  1.4026  0.5036
 1706SOL    HW3 6591   2.388   4.288   2.247 -1.2481 -1.2164 -0.7097
 1706SOL    MW4 6592   2.315   4.335   2.247 -0.4121  0.1168 -0.0199
 1707SOL     OW 6593   3.040   4.960   0.131  0.4796 -0.2122  0.3088
 1707SOL    HW2 6594   3.067   5.032   0.189 -1.7203  1.2285 -0.3739
 1707SOL    HW3 6595   3.092   4.973   0.052  0.3222  0.4482  0.3045
 1707SOL    MW4 6596   3.051   4.971   0.128  0.1686  0.0650  0.2181
 1708SOL     OW 6597   4.105   1.610   0.841  0.3354  0.3577 -0.0958
 1708SOL    HW2 6598   4.105   1.662   0.921  1.4253  0.0759  0.1079
 1708SOL    HW3 6599   4.122   1.520   0.871  2.1657  0.4478 -0.7271
 1708SOL    MW4 6600   4.107   1.605   0.856  0.7207  0.3324 -0.1522
 1709SOL     OW 6601   5.877   2.818   4.869  0.2063 -0.4556 -0.3307
 1709SOL    HW2 6602   5.872   2.899   4.920 -0.8584 -0.4067 -0.4830
 1709SOL    HW3 6603   5.971   2.805   4.854  0.4122  0.6342 -0.1251
 1709SOL    MW4 6604   5.889   2.827   4.874  0.0930 -0.3053 -0.3236
 1710SOL     OW 6605   3.708   0.017   0.097  0.2930  0.6248 -0.6795
 1710SOL    HW2 6606   3.685  -0.007   0.007 -0.4389  1.0977 -0.6217
 1710SOL    HW3 6607   3.791   0.064   0.088  2.3656 -2.7134 -0.6998
 1710SOL    MW4 6608   3.716   0.020   0.084  0.4699  0.2467 -0.6746
 1711SOL     OW 6609   2.809   2.570   5.834  0.4673 -0.0484 -0.7344
 1711SOL    HW2 6610   2.795   2.582   5.928 -0.6515  0.1686 -0.9071
 1711SOL    HW3 6611   2.817   2.475   5.824  4.3005  0.0569 -0.0021
 1711SOL    MW4 6612   2.808   2.559   5.845  0.8254 -0.0059 -0.6606
 1712SOL     OW 6613   1.054   1.313   6.231 -0.5682 -0.0921  0.0078
 1712SOL    HW2 6614   1.112   1.278   6.298  0.1022 -0.7845 -0.8986
 1712SOL    HW3 6615   1.092   1.283   6.148 -0.6052  1.8616 -0.7788
 1712SOL    MW4 6616   1.067   1.304   6.229 -0.4847  0.0743 -0.2155
 1713SOL     OW 6617   1.155   2.079   1.185  0.2869 -0.1340 -0.0712
 1713SOL    HW2 6618   1.101   2.129   1.124 -1.7981  0.0137  1.7715
 1713SOL    HW3 6619   1.150   1.989   1.154  0.3791  0.1193 -0.8492
 1713SOL    MW4 6620   1.148   2.074   1.173  0.0240 -0.0810  0.0692
 1714SOL     OW 6621   2.004   0.396   3.885 -0.2455 -0.4325  0.1592
 1714SOL    HW2 6622   2.015   0.303   3.864 -0.0873 -0.4435  0.2896
 1714SOL    HW3 6623   2.035   0.443   3.808  0.0091 -0.4801  0.2325
 1714SOL    MW4 6624   2.009   0.390   3.872 -0.1911 -0.4402  0.1861
 1715SOL     OW 6625   3.387   5.629   2.203  0.3041  0.0293  0.0101
 1715SOL    HW2 6626   3.477   5.633   2.237  0.7679 -0.0720 -1.1403
 1715SOL    HW3 6627   3.378   5.708   2.150 -0.2117 -0.0660 -0.0470
 1715SOL    MW4 6628   3.398   5.640   2.200  0.2973  0.0033 -0.1492
 1716SOL     OW 6629   2.791   1.611   4.985 -0.0743  0.1559  0.0391
 1716SOL    HW2 6630   2.822   1.701   4.981  2.3848 -0.4770  2.2598
 1716SOL    HW3 6631   2.852   1.561   4.931  1.3430 -0.7071  2.2621
 1716SOL    MW4 6632   2.803   1.616   4.978  0.4372 -0.0415  0.6254
 1717SOL     OW 6633   5.109   3.272   6.154  0.0519  0.1521  0.1746
 1717SOL    HW2 6634   5.183   3.243   6.207 -0.0168 -1.1919 -0.4018
 1717SOL    HW3 6635   5.049   3.198   6.155 -0.2993  0.3949 -1.1228
 1717SOL    MW4 6636   5.111   3.258   6.161 -0.0035  0.0068 -0.0726
 1718SOL     OW 6637   1.288   5.652   0.575  0.5202 -0.3057  0.0224
 1718SOL    HW2 6638   1.200   5.634   0.608 -0.0732  0.8291 -0.8845
 1718SOL    HW3 6639   1.308   5.740   0.606  0.0399  0.7097 -2.3070
 1718SOL    MW4 6640   1.279   5.661   0.583  0.3786 -0.0220 -0.4046
 1719SOL     OW 6641   4.285   0.766   0.142 -0.1313 -0.5191 -0.0907
 1719SOL    HW2 6642   4.273   0.693   0.082 -1.8325  1.4746 -2.3870
 1719SOL    HW3 6643   4.370   0.803   0.118 -0.0059 -0.7797 -0.0488
 1719SOL    MW4 6644   4.295   0.761   0.131 -0.3392 -0.2904 -0.3881
 1720SOL     OW 6645   2.986   6.091   4.236  0.3212  0.0281  0.0931
 1720SOL    HW2 6646   2.944   6.120   4.155  0.0850  0.8023  0.4813
 1720SOL    HW3 6647   3.043   6.163   4.261  1.5512 -0.8265 -0.1754
 1720SOL    MW4 6648   2.988   6.104   4.229  0.4523  0.0175  0.1089
 1721SOL     OW 6649   5.654   5.261   5.364  0.1991 -0.2355  0.0424
 1721SOL    HW2 6650   5.661   5.351   5.396  0.9404 -0.0809 -0.5590
 1721SOL    HW3 6651   5.561   5.251   5.342 -0.1183  0.0009  1.1996
 1721SOL    MW4 6652   5.642   5.272   5.366  0.2551 -0.1839  0.1158
 1722SOL     OW 6653   3.653   3.350   2.265  0.2620 -0.4070 -0.9751
 1722SOL    HW2 6654   3.715   3.277   2.268 -0.1287 -0.7312 -0.6634
 1722SOL    HW3 6655   3.624   3.361   2.355 -0.7275 -0.7754 -1.2358
 1722SOL    MW4 6656   3.657   3.342   2.277  0.0799 -0.4984 -0.9683
 1723SOL     OW 6657   5.586   4.693   0.352 -0.0802  0.2281  0.2441
 1723SOL    HW2 6658   5.665   4.653   0.387  0.0555  0.5637  0.3271
 1723SOL    HW3 6659   5.549   4.740   0.427 -0.3153  0.1385  0.1845
 1723SOL    MW4 6660   5.591   4.694   0.367 -0.0933  0.2606  0.2472
 1724SOL     OW 6661   3.283   2.967   1.845 -0.2977 -0.2099  0.3875
 1724SOL    HW2 6662   3.328   2.903   1.790  0.0145  1.0012 -0.8223
 1724SOL    HW3 6663   3.294   2.935   1.935  1.9983 -0.5442  0.0379
 1724SOL    MW4 6664   3.290   2.954   1.850  0.0464 -0.0942  0.1818
 1725SOL     OW 6665   3.308   2.737   3.621 -0.1259 -0.2104 -0.4314
 1725SOL    HW2 6666   3.361   2.669   3.661  1.8723  1.0955 -0.7575
 1725SOL    HW3 6667   3.220   2.722   3.656  0.5741 -1.9670  0.7204
 1725SOL    MW4 6668   3.303   2.726   3.631  0.2301 -0.2699 -0.3224
 1726SOL     OW 6669   4.799   1.756   2.610  0.1679 -0.2132  0.0287
 1726SOL    HW2 6670   4.709   1.769   2.641  0.5786 -0.2763  1.2718
 1726SOL    HW3 6671   4.789   1.744   2.515 -1.0251  0.8410 -0.0120
 1726SOL    MW4 6672   4.786   1.756   2.601  0.0647 -0.0824  0.1874
 1727SOL     OW 6673   6.397   3.261   5.893 -0.9844  0.0679 -0.3402
 1727SOL    HW2 6674   6.438   3.230   5.974  0.4675  0.9582 -0.7037
 1727SOL    HW3 6675   6.397   3.356   5.901  2.6630  0.5189 -2.8625
 1727SOL    MW4 6676   6.403   3.270   5.905 -0.3116  0.2448 -0.7209
 1728SOL     OW 6677   0.137   0.241   6.133  0.4258 -0.2631  0.2982
 1728SOL    HW2 6678   0.079   0.317   6.141 -0.8207 -1.0235 -0.9495
 1728SOL    HW3 6679   0.084   0.176   6.087  2.1840 -1.1296 -0.5815
 1728SOL    MW4 6680   0.122   0.242   6.128  0.4933 -0.4778  0.0175
 1729SOL     OW 6681   0.131   5.166   1.176  0.0282  0.6217 -0.3987
 1729SOL    HW2 6682   0.048   5.123   1.198 -0.4479  1.5832 -0.2580
 1729SOL    HW3 6683   0.173   5.181   1.261 -0.1641  1.1094 -0.3837
 1729SOL    MW4 6684   0.125   5.163   1.190 -0.0600  0.8129 -0.3781
 1730SOL     OW 6685   4.547   3.475   1.385  0.4030 -0.1466 -0.1692
 1730SOL    HW2 6686   4.474   3.537   1.390  0.1560 -0.3983 -0.5997
 1730SOL    HW3 6687   4.586   3.492   1.299  0.3269 -0.5954 -0.2928
 1730SOL    MW4 6688   4.542   3.486   1.375  0.3604 -0.2390 -0.2423
 1731SOL     OW 6689   0.830   4.991   2.444 -0.2514 -0.7407  0.2273
 1731SOL    HW2 6690   0.808   5.079   2.474  1.9290 -0.0349 -0.1271
 1731SOL    HW3 6691   0.784   4.982   2.360 -0.8454 -0.1219  0.4813
 1731SOL    MW4 6692   0.821   5.001   2.436 -0.0421 -0.5659  0.2140
 1732SOL     OW 6693   4.600   3.518   3.384 -0.1758 -0.1106  0.0386
 1732SOL    HW2 6694   4.566   3.518   3.295 -2.3953  0.1597  0.8178
 1732SOL    HW3 6695   4.535   3.469   3.435  0.8261  0.0827  1.5907
 1732SOL    MW4 6696   4.587   3.511   3.379 -0.3364 -0.0494  0.3462
 1733SOL     OW 6697   3.077   3.170   2.247 -0.0493  0.0099  0.0944
 1733SOL    HW2 6698   3.102   3.098   2.305  0.3980  0.5640  0.5998
 1733SOL    HW3 6699   3.041   3.236   2.305 -0.4876  0.1901 -0.3713
 1733SOL    MW4 6700   3.076   3.169   2.262 -0.0481  0.1068  0.0996
 1734SOL     OW 6701   1.841   3.608   0.443 -0.2848  0.3720  0.7753
 1734SOL    HW2 6702   1.891   3.688   0.429 -0.0451  0.2479  0.9105
 1734SOL    HW3 6703   1.758   3.638   0.482  0.5490  0.4111  2.6001
 1734SOL    MW4 6704   1.836   3.623   0.446 -0.1432  0.3608  1.0339
 1735SOL     OW 6705   0.085   1.289   5.200 -0.0553 -0.1436  0.0869
 1735SOL    HW2 6706   0.002   1.313   5.160  0.3579  1.8398  0.3191
 1735SOL    HW3 6707   0.141   1.264   5.126 -0.2853  0.3617 -0.2674
 1735SOL    MW4 6708   0.082   1.289   5.185 -0.0311  0.1848  0.0708
 1736SOL     OW 6709   1.410   4.367   3.742  0.4642  0.4484 -0.3383
 1736SOL    HW2 6710   1.417   4.373   3.646  0.7070 -0.0836 -0.3504
 1736SOL    HW3 6711   1.497   4.388   3.774  0.1761  1.4987 -0.1888
 1736SOL    MW4 6712   1.422   4.371   3.733  0.4582  0.5168 -0.3202
 1737SOL     OW 6713   5.551   1.344   1.769  0.0919 -0.5837  0.3292
 1737SOL    HW2 6714   5.517   1.365   1.682 -0.7964  0.4543  0.9035
 1737SOL    HW3 6715   5.638   1.385   1.771 -0.4986  0.7132  0.4491
 1737SOL    MW4 6716   5.558   1.352   1.758 -0.1032 -0.2757  0.4208
 1738SOL     OW 6717   3.669   0.303   1.424 -0.6025  0.1095 -0.0559
 1738SOL    HW2 6718   3.612   0.230   1.402 -3.1166  1.6167  1.0512
 1738SOL    HW3 6719   3.748   0.262   1.461 -1.5756 -2.0215 -0.2283
 1738SOL    MW4 6720   3.672   0.288   1.426 -1.0626  0.0272  0.0674
 1739SOL     OW 6721   3.246   5.711   3.795 -0.4004 -0.2794  0.4206
 1739SOL    HW2 6722   3.242   5.755   3.880  0.7176 -1.1625  0.9649
 1739SOL    HW3 6723   3.295   5.771   3.739 -0.4119 -0.0523  0.6544
 1739SOL    MW4 6724   3.252   5.725   3.799 -0.2544 -0.3660  0.5233
 1740SOL     OW 6725   3.181   5.861   4.701 -0.3830  0.0418  0.6732
 1740SOL    HW2 6726   3.107   5.920   4.688 -0.2826 -0.2346 -1.4389
 1740SOL    HW3 6727   3.142   5.781   4.735 -1.2774 -0.5063 -1.4873
 1740SOL    MW4 6728   3.166   5.858   4.704 -0.4878 -0.0670  0.1095
 1741SOL     OW 6729   0.655   2.126   5.286  0.4787 -0.4009  0.9118
 1741SOL    HW2 6730   0.611   2.181   5.222 -2.8001 -1.8251  1.7072
 1741SOL    HW3 6731   0.716   2.074   5.235  0.5215  0.9425 -0.4762
 1741SOL    MW4 6732   0.657   2.126   5.271  0.0518 -0.4116  0.8336
 1742SOL     OW 6733   0.570   5.197   2.358  0.4892 -0.4765  0.2216
 1742SOL    HW2 6734   0.621   5.211   2.438  0.6058 -0.5085  0.1529
 1742SOL    HW3 6735   0.483   5.174   2.389  0.2115  0.6701  0.3445
 1742SOL    MW4 6736   0.566   5.196   2.373  0.4680 -0.3294  0.2287
 1743SOL     OW 6737   5.699   1.018   0.503 -0.2968  0.4513 -0.1835
 1743SOL    HW2 6738   5.645   1.092   0.530  0.2919  0.5749  0.7105
 1743SOL    HW3 6739   5.786   1.056   0.490  0.1907 -0.1899  1.0125
 1743SOL    MW4 6740   5.704   1.033   0.505 -0.1548  0.3830  0.0923
 1744SOL     OW 6741   0.209   6.037   6.116 -0.5276 -0.4445  0.4467
 1744SOL    HW2 6742   0.242   6.037   6.206 -0.2566 -0.4169  0.3489
 1744SOL    HW3 6743   0.151   5.961   6.111  1.0674 -1.6844  0.0558
 1744SOL    MW4 6744   0.206   6.027   6.127 -0.2814 -0.6045  0.3822
 1745SOL     OW 6745   2.522   5.197   1.825  0.3419  0.5039  0.0899
 1745SOL    HW2 6746   2.610   5.161   1.834  0.6332  0.7515 -1.4814
 1745SOL    HW3 6747   2.483   5.149   1.752 -0.4132  1.1764  0.0244
 1745SOL    MW4 6748   2.528   5.186   1.816  0.2807  0.6253 -0.1260
 1746SOL     OW 6749   5.255   1.099   2.461  0.1982 -0.1267 -0.3222
 1746SOL    HW2 6750   5.183   1.104   2.398  0.8165 -0.7230 -1.0928
 1746SOL    HW3 6751   5.329   1.065   2.411  0.7274 -0.5397  0.7027
 1746SOL    MW4 6752   5.255   1.095   2.446  0.3496 -0.2598 -0.2886
 1747SOL     OW 6753   3.534   5.196   1.142 -0.0763  0.2780 -0.3872
 1747SOL    HW2 6754   3.559   5.284   1.170 -0.0130  0.4432 -0.9636
 1747SOL    HW3 6755   3.492   5.208   1.057  0.1783 -0.2819 -0.5975
 1747SOL    MW4 6756   3.532   5.209   1.135 -0.0343  0.2260 -0.4910
 1748SOL     OW 6757   3.689   0.091   0.651  0.2139 -0.0585 -0.2585
 1748SOL    HW2 6758   3.622   0.157   0.669 -0.3012 -0.2627 -1.3233
 1748SOL    HW3 6759   3.642   0.020   0.608  1.0902 -0.2456 -0.9484
 1748SOL    MW4 6760   3.674   0.091   0.648  0.2615 -0.1101 -0.4900
 1749SOL     OW 6761   0.591   0.737   5.300 -0.2543 -0.2740  0.0081
 1749SOL    HW2 6762   0.601   0.813   5.356  0.4173  0.8513 -1.5768
 1749SOL    HW3 6763   0.676   0.725   5.259 -1.0930 -0.1008 -1.9066
 1749SOL    MW4 6764   0.603   0.745   5.302 -0.2763 -0.1026 -0.4536
 1750SOL     OW 6765   4.488   2.432   0.433 -0.4329  0.4739  0.2222
 1750SOL    HW2 6766   4.407   2.404   0.391 -1.0685  1.7206  0.5840
 1750SOL    HW3 6767   4.546   2.454   0.359 -0.4612 -0.3007 -0.0354
 1750SOL    MW4 6768   4.485   2.431   0.417 -0.5205  0.5362  0.2359
 1751SOL     OW 6769   1.124   2.251   3.392 -0.4720 -0.0723  0.3810
 1751SOL    HW2 6770   1.191   2.201   3.437 -0.6024 -0.1346  0.5088
 1751SOL    HW3 6771   1.110   2.204   3.309 -0.2426  0.0343  0.2825
 1751SOL    MW4 6772   1.131   2.238   3.387 -0.4589 -0.0664  0.3849
 1752SOL     OW 6773   0.989   4.921   4.865 -0.5438 -0.4627  0.3569
 1752SOL    HW2 6774   0.948   4.997   4.825  1.4172 -0.9073 -2.8166
 1752SOL    HW3 6775   0.928   4.849   4.847 -1.2377 -0.1061  1.2039
 1752SOL    MW4 6776   0.976   4.921   4.857 -0.3767 -0.4743  0.0499
 1753SOL     OW 6777   3.244   3.538   4.164  0.2960 -1.1059  0.4198
 1753SOL    HW2 6778   3.273   3.555   4.254  0.4053 -1.3714  0.4373
 1753SOL    HW3 6779   3.175   3.473   4.174 -0.1127 -0.6819  0.3556
 1753SOL    MW4 6780   3.239   3.531   4.178  0.2565 -1.0850  0.4136
 1754SOL     OW 6781   3.347   1.410   5.684 -0.2584 -0.1096  0.1937
 1754SOL    HW2 6782   3.388   1.467   5.619 -1.5525  0.6622  0.0135
 1754SOL    HW3 6783   3.420   1.376   5.736  0.5369  2.3702  0.8231
 1754SOL    MW4 6784   3.362   1.413   5.683 -0.3242  0.3194  0.2530
 1755SOL     OW 6785   1.778   0.732   3.859 -0.2417  0.2990 -0.0626
 1755SOL    HW2 6786   1.836   0.775   3.923 -0.9801  1.7553 -0.3424
 1755SOL    HW3 6787   1.833   0.721   3.782  0.0530  0.4703  0.1181
 1755SOL    MW4 6788   1.793   0.736   3.857 -0.3003  0.5138 -0.0757
 1756SOL     OW 6789   1.167   5.757   3.212 -0.2310  0.0470 -0.7452
 1756SOL    HW2 6790   1.189   5.678   3.161  0.8121  0.1817 -0.5286
 1756SOL    HW3 6791   1.129   5.724   3.293  0.7756 -0.2703 -0.3863
 1756SOL    MW4 6792   1.165   5.742   3.216  0.0394  0.0229 -0.6693
 1757SOL     OW 6793   1.966   4.027   2.615  0.3866  0.1539 -0.3440
 1757SOL    HW2 6794   2.009   4.088   2.555  2.6297 -0.5729  0.4178
 1757SOL    HW3 6795   1.983   4.064   2.702  0.8464 -0.9594  0.0617
 1757SOL    MW4 6796   1.974   4.040   2.619  0.7432 -0.0889 -0.1899
 1758SOL     OW 6797   5.426   2.684   0.231 -0.1363 -0.2052 -0.2722
 1758SOL    HW2 6798   5.494   2.706   0.294  0.0755 -3.4529  0.8312
 1758SOL    HW3 6799   5.474   2.649   0.156 -0.4356 -2.7784  0.6236
 1758SOL    MW4 6800   5.441   2.682   0.229 -0.1478 -0.9732 -0.0084
 1759SOL     OW 6801   2.175   5.517   2.966 -0.3548 -0.4395  0.1599
 1759SOL    HW2 6802   2.153   5.445   3.024 -1.7279 -0.8664 -0.8301
 1759SOL    HW3 6803   2.166   5.481   2.877  0.9850  0.3827 -0.3429
 1759SOL    MW4 6804   2.171   5.503   2.962 -0.3592 -0.3873 -0.0370
 1760SOL     OW 6805   1.058   2.727   5.821  0.6300 -0.1641  0.1431
 1760SOL    HW2 6806   1.028   2.770   5.741 -0.2359 -1.7994 -0.4468
 1760SOL    HW3 6807   0.993   2.752   5.887 -1.3406 -2.4434 -0.7752
 1760SOL    MW4 6808   1.045   2.736   5.819  0.2558 -0.6806 -0.0559
 1761SOL     OW 6809   2.698   1.240   5.426  0.4237  0.3612 -0.0060
 1761SOL    HW2 6810   2.758   1.249   5.499  1.7409 -1.3493 -0.8062
 1761SOL    HW3 6811   2.747   1.272   5.350 -0.6105  1.3197 -0.2954
 1761SOL    MW4 6812   2.712   1.245   5.426  0.4610  0.2620 -0.1498
 1762SOL     OW 6813   1.005   1.396   4.272 -0.2492  0.3099 -0.0402
 1762SOL    HW2 6814   1.015   1.382   4.366 -1.1414  0.7529  0.1323
 1762SOL    HW3 6815   1.063   1.469   4.252  2.8701 -2.0996 -0.5692
 1762SOL    MW4 6816   1.014   1.403   4.282  0.0446  0.0504 -0.0873
 1763SOL     OW 6817   3.942   6.137   3.047 -0.8998  0.2416 -0.0058
 1763SOL    HW2 6818   3.922   6.050   3.081 -1.0170 -0.1811 -1.0949
 1763SOL    HW3 6819   4.037   6.146   3.058 -1.0966  0.6126  1.5075
 1763SOL    MW4 6820   3.952   6.127   3.053 -0.9412  0.2348  0.0501
 1764SOL     OW 6821   2.343   1.531   4.460  0.2439 -0.0349 -0.2061
 1764SOL    HW2 6822   2.336   1.451   4.407  0.0901  0.8104 -1.5247
 1764SOL    HW3 6823   2.408   1.584   4.414  0.0427  0.7656  0.4169
 1764SOL    MW4 6824   2.350   1.528   4.447  0.1971  0.1823 -0.2979
 1765SOL     OW 6825   1.930   0.466   2.352  0.6372  0.0242  0.1011
 1765SOL    HW2 6826   1.968   0.447   2.438 -2.0649  0.1814  1.4472
 1765SOL    HW3 6827   1.873   0.391   2.334  0.2916  0.5273 -1.0150
 1765SOL    MW4 6828   1.927   0.453   2.361  0.2351  0.1113  0.1315
 1766SOL     OW 6829   2.536   5.520   0.656 -0.0112  0.2097 -0.4081
 1766SOL    HW2 6830   2.574   5.584   0.717  0.1290  0.3278 -0.6189
 1766SOL    HW3 6831   2.563   5.435   0.691  0.2707  0.2863 -0.4417
 1766SOL    MW4 6832   2.544   5.517   0.669  0.0445  0.2354 -0.4404
 1767SOL     OW 6833   5.543   3.901   1.945  0.4005 -0.6783  0.4973
 1767SOL    HW2 6834   5.557   3.960   2.020 -0.7178 -0.7759  0.7927
 1767SOL    HW3 6835   5.473   3.842   1.974 -1.5751  0.6130 -1.3749
 1767SOL    MW4 6836   5.536   3.901   1.959 -0.0077 -0.5208  0.2892
 1768SOL     OW 6837   4.736   6.106   0.116 -0.5945  0.5844 -0.4064
 1768SOL    HW2 6838   4.820   6.136   0.151 -0.3948  1.7174 -1.7925
 1768SOL    HW3 6839   4.670   6.157   0.165 -0.3562  1.5213 -1.0385
 1768SOL    MW4 6840   4.738   6.117   0.127 -0.5367  0.8575 -0.6727
 1769SOL     OW 6841   3.788   3.105   4.341 -0.2117 -0.2305  0.6429
 1769SOL    HW2 6842   3.840   3.180   4.369 -1.6642  0.9624  0.2984
 1769SOL    HW3 6843   3.819   3.033   4.396  1.2581  0.5928  0.9536
 1769SOL    MW4 6844   3.799   3.106   4.352 -0.2095  0.0355  0.6384
 1770SOL     OW 6845   0.852   4.441   1.448  0.1013  0.3569  0.9423
 1770SOL    HW2 6846   0.857   4.510   1.515  0.4623  1.9318 -0.6427
 1770SOL    HW3 6847   0.836   4.488   1.366 -0.5587 -1.5380 -0.0756
 1770SOL    MW4 6848   0.851   4.456   1.446  0.0618  0.3147  0.5989
 1771SOL     OW 6849   0.838   0.228   0.193  0.9423 -0.2748  0.2605
 1771SOL    HW2 6850   0.840   0.318   0.162  1.2251 -0.6133 -0.7517
 1771SOL    HW3 6851   0.834   0.235   0.288  0.5275  0.8008  0.1712
 1771SOL    MW4 6852   0.838   0.241   0.201  0.9249 -0.1775  0.1152
 1772SOL     OW 6853   2.645   6.426   0.524  0.2012  0.7823 -0.1823
 1772SOL    HW2 6854   2.585   6.382   0.464 -0.3529  0.0448  0.8724
 1772SOL    HW3 6855   2.625   6.388   0.609  0.5724  2.2130  0.5760
 1772SOL    MW4 6856   2.634   6.415   0.527  0.1771  0.8738  0.0569
 1773SOL     OW 6857   5.528   0.063   5.341 -0.2339 -0.5977  0.8103
 1773SOL    HW2 6858   5.451   0.095   5.388 -1.2182  0.1653 -1.1794
 1773SOL    HW3 6859   5.496  -0.017   5.297 -0.5230  0.7157 -1.5218
 1773SOL    MW4 6860   5.513   0.056   5.341 -0.4019 -0.3237  0.2401
 1774SOL     OW 6861   5.966   5.018   5.219 -0.1741 -0.6271  0.0340
 1774SOL    HW2 6862   5.903   4.949   5.240 -0.6394  0.0130  0.8087
 1774SOL    HW3 6863   5.912   5.090   5.185  0.1947 -0.2832  0.1644
 1774SOL    MW4 6864   5.950   5.019   5.217 -0.1868 -0.4972  0.1534
 1775SOL     OW 6865   4.910   4.004   5.508  0.4013  0.1312 -0.1619
 1775SOL    HW2 6866   4.832   3.951   5.492 -1.6726  3.2409 -1.3167
 1775SOL    HW3 6867   4.924   4.051   5.426  2.3617  1.0781  0.6550
 1775SOL    MW4 6868   4.901   4.003   5.495  0.3864  0.6664 -0.2065
 1776SOL     OW 6869   0.906   2.368   2.216 -0.1541 -0.1416 -0.1683
 1776SOL    HW2 6870   0.972   2.322   2.164  0.1143  0.5040 -0.4053
 1776SOL    HW3 6871   0.916   2.333   2.304  2.5066  2.0036  0.4852
 1776SOL    MW4 6872   0.916   2.358   2.221  0.2324  0.2266 -0.1133
 1777SOL     OW 6873   4.041   1.739   0.354  0.0798 -0.1063 -0.1396
 1777SOL    HW2 6874   4.072   1.786   0.431 -0.6218  1.1826 -0.6178
 1777SOL    HW3 6875   4.050   1.647   0.377  1.1490  0.2453  0.9645
 1777SOL    MW4 6876   4.047   1.733   0.367  0.1283  0.1102 -0.0571
 1778SOL     OW 6877   0.193   1.936   6.030 -0.0207 -0.4434 -0.0994
 1778SOL    HW2 6878   0.181   1.858   6.084  0.2926  0.8143  1.8654
 1778SOL    HW3 6879   0.282   1.965   6.050 -1.1337  2.1053  1.6074
 1778SOL    MW4 6880   0.203   1.929   6.040 -0.1262  0.0588  0.3850
 1779SOL     OW 6881   4.157   0.111   2.342 -0.0972 -0.1811 -0.1322
 1779SOL    HW2 6882   4.166   0.108   2.246 -1.2284  1.8403 -0.3780
 1779SOL    HW3 6883   4.085   0.051   2.361  2.3743 -3.3540 -0.0533
 1779SOL    MW4 6884   4.148   0.103   2.332  0.0797 -0.3330 -0.1542
 1780SOL     OW 6885   5.488   0.103   6.000 -0.1644  0.0684 -0.0558
 1780SOL    HW2 6886   5.509   0.196   6.005 -0.0918  0.0062  1.1944
 1780SOL    HW3 6887   5.422   0.090   6.069 -0.3345 -0.7641 -0.3667
 1780SOL    MW4 6888   5.482   0.114   6.010 -0.1773 -0.0496  0.0682
 1781SOL     OW 6889   6.371   3.333   5.631  0.4800 -0.5785  0.1607
 1781SOL    HW2 6890   6.442   3.397   5.622  1.1643 -1.4467 -0.7844
 1781SOL    HW3 6891   6.385   3.294   5.717  1.3116 -0.9165 -0.1181
 1781SOL    MW4 6892   6.382   3.336   5.641  0.6800 -0.7377 -0.0008
 1782SOL     OW 6893   0.380   6.255   5.337 -0.9458  0.0422 -0.8798
 1782SOL    HW2 6894   0.463   6.274   5.293 -0.4614 -1.2886 -0.5897
 1782SOL    HW3 6895   0.388   6.163   5.364 -1.2282  0.7664  1.9566
 1782SOL    MW4 6896   0.392   6.245   5.335 -0.9191 -0.0379 -0.4673
 1783SOL     OW 6897   1.729   0.669   2.339  0.2266 -0.1507 -0.0772
 1783SOL    HW2 6898   1.784   0.599   2.373  0.6402  0.1415 -0.1352
 1783SOL    HW3 6899   1.755   0.678   2.247 -0.4116 -0.4801 -0.3028
 1783SOL    MW4 6900   1.739   0.661   2.331  0.1970 -0.1556 -0.1146
 1784SOL     OW 6901   5.738   0.822   5.095 -0.2078 -0.1247 -0.4664
 1784SOL    HW2 6902   5.653   0.782   5.074 -0.3669  0.2011 -0.4586
 1784SOL    HW3 6903   5.767   0.861   5.012 -0.0831 -0.2057 -0.4606
 1784SOL    MW4 6904   5.730   0.822   5.081 -0.2124 -0.0924 -0.4646
 1785SOL     OW 6905   2.347   0.809   1.619  0.0213 -0.0846 -0.2364
 1785SOL    HW2 6906   2.384   0.721   1.606  1.9381  0.8709 -1.7458
 1785SOL    HW3 6907   2.286   0.820   1.546 -0.1561 -0.1235 -0.0945
 1785SOL    MW4 6908   2.344   0.799   1.608  0.2508  0.0363 -0.4168
 1786SOL     OW 6909   1.892   3.116   2.879  0.0986 -0.1414  0.7677
 1786SOL    HW2 6910   1.896   3.034   2.927  1.0857 -0.3009  0.4303
 1786SOL    HW3 6911   1.977   3.124   2.837  0.0735  1.1265  0.9115
 1786SOL    MW4 6912   1.904   3.106   2.880  0.2255  0.0049  0.7422
 1787SOL     OW 6913   2.645   6.105   4.144  0.1326  0.1288  0.3628
 1787SOL    HW2 6914   2.552   6.124   4.154 -0.2991  0.4315 -3.0889
 1787SOL    HW3 6915   2.648   6.013   4.117  0.3501  1.0073 -3.1509
 1787SOL    MW4 6916   2.633   6.096   4.142  0.1043  0.2847 -0.5562
 1788SOL     OW 6917   2.575   5.031   3.529 -0.1897 -0.3036  0.0988
 1788SOL    HW2 6918   2.512   4.988   3.587 -1.7710  0.1316 -1.1985
 1788SOL    HW3 6919   2.549   5.124   3.530  1.5604  0.2030  0.8819
 1788SOL    MW4 6920   2.563   5.038   3.537 -0.1674 -0.1793  0.0310
 1789SOL     OW 6921   1.953   1.055   5.908  1.0105  0.9293  0.0850
 1789SOL    HW2 6922   1.942   1.149   5.894  1.1012  0.6541 -2.2519
 1789SOL    HW3 6923   1.872   1.028   5.952 -0.4111  1.6639 -1.9114
 1789SOL    MW4 6924   1.941   1.064   5.912  0.8349  0.9899 -0.4867
 1790SOL     OW 6925   0.290   2.237   6.071  0.1577  0.7700  0.5435
 1790SOL    HW2 6926   0.332   2.322   6.061  1.6526  0.0135  0.0851
 1790SOL    HW3 6927   0.277   2.206   5.981  0.8668 -0.0456  0.7057
 1790SOL    MW4 6928   0.294   2.244   6.058  0.4485  0.5626  0.5044
 1791SOL     OW 6929   2.776   0.732   5.216  0.4457  0.4075  0.3501
 1791SOL    HW2 6930   2.804   0.678   5.142 -1.0694 -0.2833  0.2481
 1791SOL    HW3 6931   2.842   0.716   5.283  0.3569 -1.1197  0.1148
 1791SOL    MW4 6932   2.788   0.723   5.215  0.2341  0.1149  0.3056
 1792SOL     OW 6933   3.410   5.137   5.494 -0.0322  0.0676  0.1009
 1792SOL    HW2 6934   3.391   5.229   5.511 -2.1395 -0.2352 -0.3050
 1792SOL    HW3 6935   3.489   5.119   5.544  2.2185  2.8073 -2.0707
 1792SOL    MW4 6936   3.418   5.147   5.503 -0.0133  0.3891 -0.2391
 1793SOL     OW 6937   2.537   0.923   6.345 -0.3548  0.2325 -0.0062
 1793SOL    HW2 6938   2.541   1.018   6.349 -0.2651  0.2374 -0.1876
 1793SOL    HW3 6939   2.516   0.896   6.434  4.2274  0.1849  1.2963
 1793SOL    MW4 6940   2.534   0.932   6.357  0.2616  0.2269  0.1417
 1794SOL     OW 6941   5.601   2.295   0.475  0.0819 -0.1980 -0.1850
 1794SOL    HW2 6942   5.602   2.288   0.571  0.2673 -0.0124 -0.1731
 1794SOL    HW3 6943   5.624   2.386   0.458 -1.6410  0.2415 -0.3512
 1794SOL    MW4 6944   5.604   2.306   0.486 -0.1209 -0.1155 -0.2054
 1795SOL     OW 6945   3.858   0.177   4.263  0.3792 -0.1849  0.0954
 1795SOL    HW2 6946   3.791   0.181   4.331 -0.4883 -0.3883 -0.7358
 1795SOL    HW3 6947   3.941   0.188   4.311 -0.3198  2.1435  0.9192
 1795SOL    MW4 6948   3.860   0.179   4.279  0.1725  0.0955  0.0944
 1796SOL     OW 6949   4.277   5.969   1.664  0.6407  0.4576 -0.5221
 1796SOL    HW2 6950   4.331   5.989   1.740  0.4421  0.9422 -0.5071
 1796SOL    HW3 6951   4.196   6.019   1.678 -0.2523 -1.0580 -0.0280
 1796SOL    MW4 6952   4.273   5.978   1.676  0.4967  0.3216 -0.4550
 1797SOL     OW 6953   0.207   0.785   2.504 -0.0753  0.4145 -0.1006
 1797SOL    HW2 6954   0.270   0.719   2.531  1.5566  1.5059 -1.0764
 1797SOL    HW3 6955   0.203   0.777   2.409 -0.0823  1.5016 -0.2021
 1797SOL    MW4 6956   0.214   0.776   2.495  0.1391  0.7019 -0.2427
 1798SOL     OW 6957   2.627   3.723   1.538 -0.3222 -0.3355  0.0841
 1798SOL    HW2 6958   2.602   3.815   1.542 -2.0949 -0.6936 -1.2565
 1798SOL    HW3 6959   2.673   3.713   1.455 -1.4379 -0.9165 -0.4837
 1798SOL    MW4 6960   2.630   3.734   1.528 -0.7033 -0.4594 -0.1677
 1799SOL     OW 6961   6.279   5.140   3.554 -0.7990 -0.0072  0.3983
 1799SOL    HW2 6962   6.262   5.097   3.471 -2.8033 -0.7619  1.1465
 1799SOL    HW3 6963   6.347   5.204   3.534 -0.0129 -1.3273 -1.4291
 1799SOL    MW4 6964   6.286   5.143   3.541 -0.9597 -0.2810  0.2559
 1800SOL     OW 6965   2.600   2.740   3.364  0.6774  0.0248 -0.0904
 1800SOL    HW2 6966   2.669   2.760   3.427  0.5515  0.2206 -0.0126
 1800SOL    HW3 6967   2.534   2.693   3.415  1.1135 -0.8766 -0.3421
 1800SOL    MW4 6968   2.600   2.737   3.379  0.7183 -0.0683 -0.1134
 1801SOL     OW 6969   2.207   3.099   1.720 -0.4634  0.2992 -0.0898
 1801SOL    HW2 6970   2.220   3.148   1.801 -0.0519 -0.3489  0.2482
 1801SOL    HW3 6971   2.211   3.007   1.748  0.0788  0.0680 -0.9085
 1801SOL    MW4 6972   2.209   3.093   1.735 -0.3376  0.1832 -0.1532
 1802SOL     OW 6973   2.581   3.690   2.722 -0.6022  0.0487  0.2992
 1802SOL    HW2 6974   2.504   3.739   2.693 -0.1017 -0.4001 -1.9773
 1802SOL    HW3 6975   2.585   3.615   2.663  1.5958  0.0800  0.3475
 1802SOL    MW4 6976   2.571   3.687   2.710 -0.2462 -0.0064  0.0052
 1803SOL     OW 6977   5.897   4.535   5.850  0.4767 -0.3633 -0.4877
 1803SOL    HW2 6978   5.812   4.578   5.835  0.6058  0.2620  0.4804
 1803SOL    HW3 6979   5.876   4.441   5.852 -0.1725 -0.2217 -0.3762
 1803SOL    MW4 6980   5.883   4.528   5.848  0.4081 -0.2621 -0.3453
 1804SOL     OW 6981   3.854   3.718   5.500 -0.4228  0.5067  0.1677
 1804SOL    HW2 6982   3.843   3.737   5.594 -1.5940  0.0887  0.1369
 1804SOL    HW3 6983   3.771   3.744   5.461 -0.0441  0.4130 -0.7207
 1804SOL    MW4 6984   3.841   3.724   5.508 -0.5274  0.4391  0.0464
 1805SOL     OW 6985   0.112   2.199   2.236 -0.0849  0.5793  0.0375
 1805SOL    HW2 6986   0.061   2.120   2.218  0.9216 -0.0486 -0.0986
 1805SOL    HW3 6987   0.128   2.237   2.149 -0.3242  0.7843  0.0815
 1805SOL    MW4 6988   0.107   2.194   2.222  0.0163  0.5235  0.0254
 1806SOL     OW 6989   1.731   2.540   6.339  0.1607  0.6215 -0.1565
 1806SOL    HW2 6990   1.669   2.496   6.397  0.6008  0.3855  0.1468
 1806SOL    HW3 6991   1.687   2.621   6.314 -0.2101  0.5263  0.1675
 1806SOL    MW4 6992   1.717   2.545   6.344  0.1698  0.5778 -0.0737
 1807SOL     OW 6993   2.421   0.401   4.215  0.3269  0.2047  0.2436
 1807SOL    HW2 6994   2.491   0.456   4.178  1.0239 -1.3505 -0.8759
 1807SOL    HW3 6995   2.461   0.363   4.294  0.7353 -0.6220 -0.3525
 1807SOL    MW4 6996   2.436   0.403   4.221  0.4727 -0.1096  0.0172
 1808SOL     OW 6997   1.121   1.850   3.734  0.3953  0.0489 -0.5455
 1808SOL    HW2 6998   1.150   1.864   3.643 -0.6114 -1.1644 -1.0984
 1808SOL    HW3 6999   1.125   1.755   3.745  0.5941  0.1900  0.7320
 1808SOL    MW4 7000   1.125   1.839   3.723  0.2887 -0.0926 -0.4499
 1809SOL     OW 7001   2.491   2.529   5.204 -0.0516 -0.5301  0.3782
 1809SOL    HW2 7002   2.490   2.612   5.253 -1.2234 -0.3378  0.0642
 1809SOL    HW3 7003   2.569   2.484   5.235  0.5552  0.6481  0.6364
 1809SOL    MW4 7004   2.501   2.534   5.215 -0.1261 -0.3493  0.3708
 1810SOL     OW 7005   3.645   4.924   5.029  0.0198 -0.0015 -0.3847
 1810SOL    HW2 7006   3.644   5.004   5.081  1.5046  0.3140 -0.7788
 1810SOL    HW3 7007   3.726   4.931   4.978  0.6378 -2.1659  0.2179
 1810SOL    MW4 7008   3.655   4.936   5.029  0.2972 -0.2455 -0.3572
 1811SOL     OW 7009   4.521   1.312   5.285  0.3887  0.3218 -0.0605
 1811SOL    HW2 7010   4.432   1.323   5.251  0.5930  1.4100 -0.3048
 1811SOL    HW3 7011   4.576   1.307   5.207  0.4554 -1.3858  0.0725
 1811SOL    MW4 7012   4.516   1.313   5.270  0.4245  0.2401 -0.0752
 1812SOL     OW 7013   4.675   4.599   0.619  0.2110 -0.2042  0.1848
 1812SOL    HW2 7014   4.644   4.687   0.597  0.6604 -0.2184 -0.5385
 1812SOL    HW3 7015   4.646   4.586   0.709 -3.3605 -0.9007 -0.9378
 1812SOL    MW4 7016   4.667   4.609   0.628 -0.2009 -0.2979 -0.0588
 1813SOL     OW 7017   1.247   0.987   3.400 -0.0199 -0.5921  0.1169
 1813SOL    HW2 7018   1.254   1.069   3.350  1.5296 -0.2232  0.8711
 1813SOL    HW3 7019   1.202   0.927   3.341 -1.3871  0.8462 -0.3776
 1813SOL    MW4 7020   1.242   0.990   3.386  0.0041 -0.3537  0.1512
 1814SOL     OW 7021   6.429   0.802   6.446 -0.8068 -0.1158  0.3756
 1814SOL    HW2 7022   6.443   0.800   6.351  0.2960 -1.4504  0.5378
 1814SOL    HW3 7023   6.340   0.834   6.457 -0.6272  0.9771 -1.0714
 1814SOL    MW4 7024   6.419   0.806   6.435 -0.6376 -0.1477  0.2061
 1815SOL     OW 7025   4.874   0.345   6.258 -0.3607  0.8896  0.4714
 1815SOL    HW2 7026   4.941   0.395   6.212 -1.0519  0.7741 -0.7132
 1815SOL    HW3 7027   4.846   0.278   6.195  0.1521 -0.6687  1.8098
 1815SOL    MW4 7028   4.879   0.343   6.244 -0.3842  0.6688  0.4917
 1816SOL     OW 7029   4.991   1.518   0.558 -0.0891 -0.0317 -0.0783
 1816SOL    HW2 7030   4.970   1.482   0.644  1.9145 -1.4429 -0.1261
 1816SOL    HW3 7031   4.997   1.442   0.500  2.5067  0.4512 -0.5693
 1816SOL    MW4 7032   4.989   1.503   0.561  0.5177 -0.1541 -0.1494
 1817SOL     OW 7033   4.615   4.537   5.216 -0.1825 -0.1366  0.1096
 1817SOL    HW2 7034   4.572   4.508   5.296 -0.3906 -0.5006 -0.1315
 1817SOL    HW3 7035   4.604   4.632   5.216 -2.1603 -0.3253 -0.5999
 1817SOL    MW4 7036   4.608   4.546   5.227 -0.4709 -0.2096 -0.0158
 1818SOL     OW 7037   0.342   4.855   4.067  0.3215 -0.0752  0.0248
 1818SOL    HW2 7038   0.428   4.882   4.033  0.5089 -0.5151  0.1369
 1818SOL    HW3 7039   0.342   4.759   4.058 -0.3338 -0.0421 -0.3887
 1818SOL    MW4 7040   0.353   4.846   4.061  0.2598 -0.1288 -0.0149
 1819SOL     OW 7041   0.838   0.405   1.664  0.1529 -0.3373  0.0101
 1819SOL    HW2 7042   0.890   0.346   1.718 -1.5785 -0.6248  1.4811
 1819SOL    HW3 7043   0.802   0.349   1.595 -0.8671 -0.8850  0.9546
 1819SOL    MW4 7044   0.840   0.390   1.662 -0.2101 -0.4475  0.3288
 1820SOL     OW 7045   4.183   3.464   3.687 -0.1139 -0.5768 -0.2139
 1820SOL    HW2 7046   4.163   3.398   3.753  0.9446 -1.0621 -0.3482
 1820SOL    HW3 7047   4.117   3.452   3.619 -0.0241 -1.4088 -0.1617
 1820SOL    MW4 7048   4.172   3.454   3.687  0.0376 -0.7506 -0.2248
 1821SOL     OW 7049   2.530   3.349   3.876 -0.8130 -0.0437 -0.3704
 1821SOL    HW2 7050   2.479   3.429   3.890 -1.2277 -0.8101  3.4919
 1821SOL    HW3 7051   2.593   3.373   3.808 -1.0695  3.5256  0.4432
 1821SOL    MW4 7052   2.532   3.363   3.869 -0.9016  0.3261  0.2465
 1822SOL     OW 7053   3.088   5.137   4.632  0.3364  0.0206  0.4324
 1822SOL    HW2 7054   3.122   5.226   4.645  1.0059  0.1054 -1.5476
 1822SOL    HW3 7055   3.002   5.138   4.675  1.7369  0.5365  3.4521
 1822SOL    MW4 7056   3.081   5.149   4.639  0.6095  0.0999  0.5696
 1823SOL     OW 7057   4.708   1.478   2.045 -0.9033 -0.4187 -0.6431
 1823SOL    HW2 7058   4.726   1.531   1.967 -1.8265  1.4905  0.3723
 1823SOL    HW3 7059   4.789   1.481   2.096  0.2779 -2.9758 -2.1151
 1823SOL    MW4 7060   4.721   1.485   2.042 -0.8693 -0.5042 -0.7033
 1824SOL     OW 7061   0.672   2.733   2.457  0.3718  0.1005 -0.8837
 1824SOL    HW2 7062   0.623   2.810   2.485  0.1006 -0.8446  1.4262
 1824SOL    HW3 7063   0.757   2.766   2.430 -0.2721  1.3507 -1.4729
 1824SOL    MW4 7064   0.677   2.747   2.457  0.2511  0.1408 -0.6567
 1825SOL     OW 7065   2.516   5.052   0.800  0.5986 -0.2829  0.5464
 1825SOL    HW2 7066   2.431   5.035   0.760  1.2471 -1.1735 -0.4983
 1825SOL    HW3 7067   2.514   5.003   0.882  0.1108 -0.3063  0.5238
 1825SOL    MW4 7068   2.504   5.043   0.805  0.6198 -0.4035  0.4056
 1826SOL     OW 7069   2.836   0.965   1.805  0.1341 -0.4870  0.1816
 1826SOL    HW2 7070   2.779   1.041   1.795  0.0346 -0.6434 -0.4878
 1826SOL    HW3 7071   2.810   0.906   1.735  0.6866 -0.8358  0.2610
 1826SOL    MW4 7072   2.825   0.967   1.794  0.1939 -0.5537  0.1038
 1827SOL     OW 7073   6.147   1.331   0.466 -0.4520  0.3002 -0.7003
 1827SOL    HW2 7074   6.190   1.353   0.384 -0.5545 -1.9883 -1.4351
 1827SOL    HW3 7075   6.214   1.344   0.533  0.3820 -0.0651 -1.4505
 1827SOL    MW4 7076   6.161   1.335   0.464 -0.3555 -0.0500 -0.8962
 1828SOL     OW 7077   5.541   2.736   4.524 -0.7478  0.7709  0.1281
 1828SOL    HW2 7078   5.510   2.778   4.444 -2.7135 -0.5368  0.1232
 1828SOL    HW3 7079   5.461   2.726   4.577  0.3515  0.7311  1.8388
 1828SOL    MW4 7080   5.526   2.740   4.520 -0.8621  0.5931  0.3532
 1829SOL     OW 7081   6.257   3.264   2.095  0.0058  0.1399 -0.4924
 1829SOL    HW2 7082   6.178   3.259   2.149  0.0746 -1.3853 -0.4933
 1829SOL    HW3 7083   6.288   3.354   2.107 -1.0434  0.4075  0.4677
 1829SOL    MW4 7084   6.250   3.275   2.103 -0.1236 -0.0261 -0.3658
 1830SOL     OW 7085   5.863   3.082   3.504 -0.3161 -0.3154  0.3013
 1830SOL    HW2 7086   5.888   3.106   3.593  1.3894 -1.7160  0.2391
 1830SOL    HW3 7087   5.808   3.004   3.514 -1.6656  0.5981  0.2098
 1830SOL    MW4 7088   5.859   3.075   3.517 -0.2691 -0.3796  0.2810
 1831SOL     OW 7089   1.327   0.980   5.181 -0.3118  0.0496 -0.4885
 1831SOL    HW2 7090   1.309   0.961   5.089  0.8223 -0.3953 -0.6398
 1831SOL    HW3 7091   1.325   1.076   5.186  2.4547  0.2692 -1.6477
 1831SOL    MW4 7092   1.324   0.990   5.169  0.2029  0.0199 -0.6614
 1832SOL     OW 7093   5.488   4.186   1.607  0.3857 -0.2467 -0.1923
 1832SOL    HW2 7094   5.468   4.092   1.614  0.1497 -0.1238  0.9523
 1832SOL    HW3 7095   5.548   4.192   1.533 -0.3903 -1.1757 -0.9219
 1832SOL    MW4 7096   5.493   4.174   1.598  0.2522 -0.3531 -0.1375
 1833SOL     OW 7097   0.701   5.776   1.850 -0.4637  0.4676  0.1455
 1833SOL    HW2 7098   0.717   5.868   1.872 -0.4937  0.3741  0.5692
 1833SOL    HW3 7099   0.765   5.727   1.902  0.8582  0.3450 -1.5164
 1833SOL    MW4 7100   0.711   5.782   1.859 -0.2933  0.4391 -0.0179
 1834SOL     OW 7101   1.902   1.820   1.565 -0.0850 -0.5929  0.5192
 1834SOL    HW2 7102   1.988   1.847   1.532 -0.2234  0.0095  0.6286
 1834SOL    HW3 7103   1.919   1.741   1.616  0.7754  0.7232  2.4003
 1834SOL    MW4 7104   1.916   1.813   1.568  0.0103 -0.3398  0.7818
 1835SOL     OW 7105   0.644   6.029   3.165  0.4249  0.1059  0.0853
 1835SOL    HW2 7106   0.694   6.012   3.086 -0.5017  1.0015 -0.7254
 1835SOL    HW3 7107   0.566   5.974   3.157 -0.9457  2.0703 -0.9347
 1835SOL    MW4 7108   0.640   6.019   3.154  0.1218  0.4832 -0.1563
 1836SOL     OW 7109   6.189   5.104   5.876 -0.0483 -0.6281 -0.4522
 1836SOL    HW2 7110   6.197   5.124   5.783 -1.1697 -0.1706 -0.4697
 1836SOL    HW3 7111   6.117   5.041   5.881 -0.0996 -0.5318  0.1188
 1836SOL    MW4 7112   6.180   5.099   5.865 -0.2030 -0.5550 -0.3791
 1837SOL     OW 7113   3.263   4.576   4.193 -0.4816  0.0034  0.4333
 1837SOL    HW2 7114   3.249   4.596   4.100  0.2030  0.0474  0.3344
 1837SOL    HW3 7115   3.198   4.630   4.239 -1.5857 -0.8557 -0.0735
 1837SOL    MW4 7116   3.252   4.586   4.187 -0.5369 -0.1041  0.3533
 1838SOL     OW 7117   6.399   2.673   1.396  0.0746 -0.2117 -0.0821
 1838SOL    HW2 7118   6.398   2.769   1.395  0.0639 -0.2120 -0.0850
 1838SOL    HW3 7119   6.469   2.650   1.335  2.8135 -0.1343  2.7450
 1838SOL    MW4 7120   6.408   2.682   1.388  0.4346 -0.2016  0.2905
 1839SOL     OW 7121   4.866   2.704   5.989 -0.1527 -0.6770  0.1919
 1839SOL    HW2 7122   4.806   2.656   5.933 -0.7806  1.7969 -1.4407
 1839SOL    HW3 7123   4.933   2.738   5.930  0.0126  0.7788  1.1509
 1839SOL    MW4 7124   4.867   2.702   5.974 -0.2137 -0.1585  0.1030
 1840SOL     OW 7125   1.218   4.809   4.759  0.2327  0.5161  0.5046
 1840SOL    HW2 7126   1.153   4.861   4.806  0.1661  0.0641  0.9239
 1840SOL    HW3 7127   1.296   4.865   4.755 -0.1477  1.0187  0.0904
 1840SOL    MW4 7128   1.220   4.824   4.765  0.1737  0.5228  0.5053
 1841SOL     OW 7129   1.055   4.941   3.898 -0.3080 -1.2054  0.1262
 1841SOL    HW2 7130   1.141   4.981   3.886 -0.2117 -1.7267 -1.1539
 1841SOL    HW3 7131   1.002   4.977   3.827 -0.4327 -2.7175 -0.6023
 1841SOL    MW4 7132   1.059   4.951   3.887 -0.3117 -1.4737 -0.1388
 1842SOL     OW 7133   1.988   0.672   3.226 -0.4410 -0.1713  0.3293
 1842SOL    HW2 7134   1.897   0.701   3.233 -0.0331  0.9284  1.6028
 1842SOL    HW3 7135   2.038   0.742   3.269  0.9325 -1.0957  0.2781
 1842SOL    MW4 7136   1.982   0.685   3.233 -0.2060 -0.1482  0.4906
 1843SOL     OW 7137   3.233   2.670   5.141 -0.5264  0.4124 -0.5772
 1843SOL    HW2 7138   3.280   2.586   5.142 -0.9688  0.0806 -2.7254
 1843SOL    HW3 7139   3.287   2.728   5.195  0.7007 -0.7862 -0.4512
 1843SOL    MW4 7140   3.247   2.666   5.148 -0.4229  0.2105 -0.8440
 1844SOL     OW 7141   3.104   5.543   2.254 -0.0131 -0.1261 -0.3315
 1844SOL    HW2 7142   3.152   5.506   2.180 -0.3877 -0.7837 -0.2511
 1844SOL    HW3 7143   3.161   5.611   2.288 -0.6123  1.5297 -2.4000
 1844SOL    MW4 7144   3.118   5.547   2.249 -0.1416  0.0056 -0.5938
 1845SOL     OW 7145   3.039   6.371   6.412 -0.3208  0.1599  0.1399
 1845SOL    HW2 7146   3.090   6.306   6.460 -0.0008  0.2964 -0.0140
 1845SOL    HW3 7147   3.104   6.428   6.373 -0.6115  1.0621  0.9359
 1845SOL    MW4 7148   3.054   6.370   6.413 -0.3169  0.2969  0.2246
 1846SOL     OW 7149   2.321   3.322   0.105  0.5616  0.8702  0.1627
 1846SOL    HW2 7150   2.295   3.249   0.049 -0.1728  0.8511  0.5210
 1846SOL    HW3 7151   2.323   3.397   0.046  1.6184  0.5222 -0.2740
 1846SOL    MW4 7152   2.318   3.322   0.090  0.6041  0.8217  0.1523
 1847SOL     OW 7153   2.000   4.761   3.158 -0.1321 -0.3092  0.7985
 1847SOL    HW2 7154   2.025   4.845   3.120 -0.6600 -1.1939 -1.6767
 1847SOL    HW3 7155   2.044   4.760   3.243  1.0684  1.8338  0.2879
 1847SOL    MW4 7156   2.009   4.772   3.164 -0.0434 -0.1432  0.4046
 1848SOL     OW 7157   4.301   0.114   1.502 -0.1868 -0.2365 -0.2460
 1848SOL    HW2 7158   4.306   0.030   1.548  2.1050 -0.0235  0.0106
 1848SOL    HW3 7159   4.256   0.094   1.420 -0.4774 -1.5351  0.2119
 1848SOL    MW4 7160   4.296   0.100   1.497  0.0772 -0.3797 -0.1518
 1849SOL     OW 7161   2.422   3.301   2.101 -0.5062 -0.6376 -0.4983
 1849SOL    HW2 7162   2.457   3.277   2.187  0.8059  0.6556 -0.6352
 1849SOL    HW3 7163   2.494   3.284   2.040 -0.4881  0.8995 -0.9569
 1849SOL    MW4 7164   2.436   3.296   2.104 -0.3307 -0.2642 -0.5769
 1850SOL     OW 7165   2.925   1.350   1.303 -0.4462 -0.1029 -0.4274
 1850SOL    HW2 7166   2.905   1.343   1.209  0.3565  1.2159 -0.7300
 1850SOL    HW3 7167   2.863   1.416   1.335  0.2937  0.5735 -0.3702
 1850SOL    MW4 7168   2.914   1.358   1.295 -0.2427  0.1604 -0.4598
 1851SOL     OW 7169   3.260   4.690   6.261 -0.4633  0.0950  0.3026
 1851SOL    HW2 7170   3.256   4.749   6.337 -0.6529  0.5531 -0.0577
 1851SOL    HW3 7171   3.345   4.709   6.221 -1.2578  1.3979 -0.8185
 1851SOL    MW4 7172   3.271   4.700   6.266 -0.5931  0.3273  0.1072
 1852SOL     OW 7173   5.586   1.236   2.562  0.1481 -0.2354 -0.3042
 1852SOL    HW2 7174   5.550   1.290   2.492  0.4296 -0.2236 -0.4410
 1852SOL    HW3 7175   5.533   1.258   2.639 -1.1721 -1.3553 -0.8456
 1852SOL    MW4 7176   5.574   1.246   2.563  0.0111 -0.3816 -0.3937
 1853SOL     OW 7177   5.289   2.255   2.411  0.4598  0.0266 -0.7650
 1853SOL    HW2 7178   5.353   2.326   2.411 -0.2245  0.6573  0.0684
 1853SOL    HW3 7179   5.215   2.289   2.460  1.2249 -2.2658  2.3121
 1853SOL    MW4 7180   5.288   2.269   2.417  0.4705 -0.1927 -0.2491
 1854SOL     OW 7181   0.513   2.110   6.420  0.0765  0.0075  0.0132
 1854SOL    HW2 7182   0.559   2.181   6.375 -1.9495 -0.3416 -2.9188
 1854SOL    HW3 7183   0.445   2.153   6.471  0.4587  0.2717  0.3052
 1854SOL    MW4 7184   0.510   2.125   6.421 -0.1404 -0.0037 -0.3351
 1855SOL     OW 7185   6.323   0.919   1.674  0.3208  0.8527  0.0152
 1855SOL    HW2 7186   6.412   0.922   1.640 -0.2586  1.8861 -1.5395
 1855SOL    HW3 7187   6.332   0.888   1.764  1.9691 -1.8108 -0.9727
 1855SOL    MW4 7188   6.336   0.916   1.681  0.4618  0.6377 -0.3203
 1856SOL     OW 7189   3.201   0.929   4.847  0.2097 -0.3061  0.1070
 1856SOL    HW2 7190   3.139   0.933   4.920  2.7707 -0.9486  2.4747
 1856SOL    HW3 7191   3.249   1.012   4.852  0.4148 -0.3529 -0.8597
 1856SOL    MW4 7192   3.199   0.941   4.857  0.5746 -0.3970  0.2919
 1857SOL     OW 7193   2.837   2.761   1.276 -0.0857  0.0568 -0.3572
 1857SOL    HW2 7194   2.856   2.672   1.246  0.9354 -0.3619  1.3791
 1857SOL    HW3 7195   2.758   2.752   1.330 -0.3636  0.3216 -0.7181
 1857SOL    MW4 7196   2.829   2.748   1.280  0.0124  0.0365 -0.1758
 1858SOL     OW 7197   6.219   4.284   6.481 -0.5062 -0.4788 -0.0334
 1858SOL    HW2 7198   6.272   4.300   6.403  0.3433 -1.3849  0.3450
 1858SOL    HW3 7199   6.264   4.213   6.527 -0.1835  0.9386  2.0004
 1858SOL    MW4 7200   6.232   4.277   6.477 -0.3515 -0.4114  0.2849
 1859SOL     OW 7201   2.375   4.012   0.097  1.2560  0.7059 -0.2786
 1859SOL    HW2 7202   2.373   3.985   0.005 -0.6677  1.2895 -0.4383
 1859SOL    HW3 7203   2.408   4.102   0.095  0.5269  0.9771 -0.4907
 1859SOL    MW4 7204   2.379   4.021   0.085  0.9060  0.8187 -0.3277
 1860SOL     OW 7205   2.042   1.233   0.959  0.2453  0.0902 -0.1952
 1860SOL    HW2 7206   1.968   1.292   0.977 -1.8480 -2.3251 -0.4102
 1860SOL    HW3 7207   2.102   1.248   1.032 -1.1496  1.0453  0.8221
 1860SOL    MW4 7208   2.040   1.243   0.971 -0.2149 -0.1025 -0.0893
 1861SOL     OW 7209   3.327   2.031   5.497  0.4818  0.4873  0.7874
 1861SOL    HW2 7210   3.306   1.972   5.424 -1.2096  0.5558  1.1812
 1861SOL    HW3 7211   3.255   2.094   5.498  1.0381  1.1309  1.8671
 1861SOL    MW4 7212   3.315   2.031   5.487  0.3320  0.5813  0.9818
 1862SOL     OW 7213   4.136   4.488   6.150  0.0648 -0.0430 -0.5970
 1862SOL    HW2 7214   4.158   4.414   6.207  0.4038  0.2471 -0.3466
 1862SOL    HW3 7215   4.116   4.560   6.210 -0.8025 -0.0768 -0.8343
 1862SOL    MW4 7216   4.136   4.488   6.165 -0.0049 -0.0092 -0.5953
 1863SOL     OW 7217   1.320   4.263   1.039  0.1865 -0.5347 -0.4575
 1863SOL    HW2 7218   1.379   4.256   1.113 -0.3927  0.3762  0.1091
 1863SOL    HW3 7219   1.239   4.223   1.069 -0.0091 -0.2826 -0.6437
 1863SOL    MW4 7220   1.317   4.257   1.053  0.0843 -0.3813 -0.4073
 1864SOL     OW 7221   2.365   1.930   5.216  0.1819  0.3202  0.4964
 1864SOL    HW2 7222   2.353   2.025   5.214  0.0748  0.3146 -1.7915
 1864SOL    HW3 7223   2.283   1.896   5.251 -0.3346  1.0041 -0.0301
 1864SOL    MW4 7224   2.353   1.938   5.221  0.0996  0.4097  0.1250
 1865SOL     OW 7225   4.806   3.074   3.083  0.0872  0.1453  0.5814
 1865SOL    HW2 7226   4.842   2.986   3.072  1.1819  0.0157  4.0030
 1865SOL    HW3 7227   4.711   3.060   3.091  0.3990 -1.0879  3.0481
 1865SOL    MW4 7228   4.798   3.061   3.082  0.2728 -0.0345  1.3583
 1866SOL     OW 7229   5.315   0.335   1.590  0.0172  0.0189 -0.5854
 1866SOL    HW2 7230   5.336   0.351   1.498  1.3663  0.4390 -0.2338
 1866SOL    HW3 7231   5.319   0.422   1.630 -0.2599 -0.2056 -0.0621
 1866SOL    MW4 7232   5.318   0.349   1.583  0.1586  0.0447 -0.4700
 1867SOL     OW 7233   6.256   5.078   5.015 -0.5212 -0.4492  0.6789
 1867SOL    HW2 7234   6.188   5.022   4.979 -0.7313 -0.0604  0.4664
 1867SOL    HW3 7235   6.334   5.058   4.963 -0.9291  0.4196 -0.3066
 1867SOL    MW4 7236   6.258   5.068   5.003 -0.6027 -0.2833  0.5208
 1868SOL     OW 7237   5.891   1.018   1.581 -0.0414 -0.1424  0.3199
 1868SOL    HW2 7238   5.871   1.009   1.674 -1.0464  0.8439  0.2266
 1868SOL    HW3 7239   5.933   1.104   1.574  2.4087 -1.2444  0.1865
 1868SOL    MW4 7240   5.894   1.028   1.592  0.1493 -0.1577  0.2900
 1869SOL     OW 7241   2.757   5.916   2.840 -0.3100 -0.6610 -0.1753
 1869SOL    HW2 7242   2.831   5.949   2.890  0.1751  0.5387 -1.5873
 1869SOL    HW3 7243   2.751   5.824   2.862  1.4713 -0.7288  0.1449
 1869SOL    MW4 7244   2.766   5.908   2.849 -0.0110 -0.5117 -0.3194
 1870SOL     OW 7245   2.662   0.542   3.092  0.0446  0.0130  0.2185
 1870SOL    HW2 7246   2.656   0.612   3.028 -3.2650  0.2017  0.5600
 1870SOL    HW3 7247   2.687   0.465   3.042 -0.5273  0.5815 -0.9739
 1870SOL    MW4 7248   2.664   0.541   3.077 -0.4675  0.1129  0.1062
 1871SOL     OW 7249   5.731   0.148   3.316  0.0709 -0.2828 -0.0418
 1871SOL    HW2 7250   5.758   0.189   3.398  1.6630 -1.8469  0.2699
 1871SOL    HW3 7251   5.740   0.054   3.332 -1.6730 -0.7362 -1.3278
 1871SOL    MW4 7252   5.735   0.141   3.329  0.0509 -0.5490 -0.1703
 1872SOL     OW 7253   6.307   0.064   0.601 -0.0768  0.1209  0.5477
 1872SOL    HW2 7254   6.321   0.122   0.676 -0.3776  0.7431  0.1258
 1872SOL    HW3 7255   6.352   0.106   0.529 -0.2512 -0.2020  0.2480
 1872SOL    MW4 7256   6.315   0.077   0.602 -0.1395  0.1604  0.4525
 1873SOL     OW 7257   1.983   6.418   3.223  0.2169 -0.1569  0.2053
 1873SOL    HW2 7258   1.902   6.468   3.227  0.4590  0.4693 -1.8425
 1873SOL    HW3 7259   2.050   6.477   3.258  0.2835  0.4988 -0.9973
 1873SOL    MW4 7260   1.981   6.432   3.228  0.2576  0.0122 -0.2235
 1874SOL     OW 7261   0.692   3.560   1.326 -0.1097  0.6810 -0.2194
 1874SOL    HW2 7262   0.662   3.618   1.256 -0.4121  1.2069  0.3311
 1874SOL    HW3 7263   0.787   3.572   1.329 -0.1637  1.1200 -0.1435
 1874SOL    MW4 7264   0.700   3.570   1.317 -0.1567  0.8083 -0.1367
 1875SOL     OW 7265   3.438   3.607   3.169 -0.2646  0.2752  0.6011
 1875SOL    HW2 7266   3.389   3.615   3.087 -1.0321 -3.5993  0.4747
 1875SOL    HW3 7267   3.372   3.614   3.237 -0.4751 -1.2061  0.5921
 1875SOL    MW4 7268   3.423   3.609   3.167 -0.3936 -0.4314  0.5833
 1876SOL     OW 7269   0.301   0.956   3.388 -0.2229 -0.0673  0.3645
 1876SOL    HW2 7270   0.212   0.960   3.422  0.0800  0.7989  1.0910
 1876SOL    HW3 7271   0.348   0.900   3.451  0.3300  1.5113  1.4172
 1876SOL    MW4 7272   0.295   0.949   3.401 -0.1100  0.2553  0.5992
 1877SOL     OW 7273   1.498   4.144   4.140  0.3513  0.3284 -0.4090
 1877SOL    HW2 7274   1.572   4.091   4.109 -0.0353 -0.9361  0.7028
 1877SOL    HW3 7275   1.510   4.147   4.235  0.8605  3.0677 -0.4916
 1877SOL    MW4 7276   1.510   4.137   4.148  0.3675  0.5229 -0.2732
 1878SOL     OW 7277   1.183   1.916   2.229 -0.2440 -0.1279  0.2243
 1878SOL    HW2 7278   1.267   1.884   2.195 -0.1990  0.9904 -0.8089
 1878SOL    HW3 7279   1.182   1.890   2.321  1.0492 -0.5307  0.1420
 1878SOL    MW4 7280   1.194   1.909   2.236 -0.0674 -0.0335  0.0771
 1879SOL     OW 7281   2.086   5.148   3.895  0.1476 -0.5315 -0.1251
 1879SOL    HW2 7282   2.071   5.160   3.801  0.8138 -2.1116 -0.4696
 1879SOL    HW3 7283   2.009   5.099   3.924 -0.3697  0.5165  0.3018
 1879SOL    MW4 7284   2.074   5.143   3.886  0.1672 -0.6017 -0.1142
 1880SOL     OW 7285   3.908   4.316   0.506 -0.7811 -0.1835  0.3556
 1880SOL    HW2 7286   3.940   4.385   0.449  1.7083 -0.7098  0.9899
 1880SOL    HW3 7287   3.824   4.290   0.468 -0.5796  1.4514 -1.3320
 1880SOL    MW4 7288   3.901   4.321   0.493 -0.4261 -0.0372  0.2167
 1881SOL     OW 7289   2.084   2.663   0.733 -0.2365 -0.0591  0.5669
 1881SOL    HW2 7290   1.988   2.665   0.736 -0.2706 -0.9419  0.2062
 1881SOL    HW3 7291   2.105   2.633   0.644  0.3590 -0.6114  0.8823
 1881SOL    MW4 7292   2.074   2.659   0.721 -0.1625 -0.2485  0.5609
 1882SOL     OW 7293   2.248   4.489   0.288 -0.0135 -0.1587 -0.1975
 1882SOL    HW2 7294   2.203   4.465   0.207 -2.4185 -0.7560  1.2093
 1882SOL    HW3 7295   2.178   4.515   0.347  1.9044  3.3856  0.7611
 1882SOL    MW4 7296   2.233   4.489   0.285 -0.0778  0.2301  0.1146
 1883SOL     OW 7297   4.387   3.385   3.526 -0.0097  0.0419  0.2182
 1883SOL    HW2 7298   4.329   3.372   3.450  1.0396 -1.4233 -0.3931
 1883SOL    HW3 7299   4.328   3.387   3.601 -0.8874 -1.6536 -0.3607
 1883SOL    MW4 7300   4.371   3.383   3.526  0.0129 -0.3751  0.0612
 1884SOL     OW 7301   4.153   4.473   3.203  0.1716 -0.1182  0.0116
 1884SOL    HW2 7302   4.218   4.460   3.134 -0.3476 -1.2152 -0.3006
 1884SOL    HW3 7303   4.116   4.385   3.217 -0.0955  0.1824  1.3144
 1884SOL    MW4 7304   4.157   4.459   3.196  0.0679 -0.2233  0.1423
 1885SOL     OW 7305   1.484   0.447   0.896  0.0515 -0.4677  0.3264
 1885SOL    HW2 7306   1.518   0.357   0.899 -1.3422 -1.1223 -1.4851
 1885SOL    HW3 7307   1.555   0.498   0.858  0.2217 -1.1985 -0.3785
 1885SOL    MW4 7308   1.498   0.442   0.891 -0.1099 -0.6505 -0.0056
 1886SOL     OW 7309   0.687   5.112   2.968  0.3831 -0.1165  0.1970
 1886SOL    HW2 7310   0.690   5.099   3.063 -1.0186 -0.8402  0.1801
 1886SOL    HW3 7311   0.689   5.024   2.932  2.1462  0.1952 -0.5316
 1886SOL    MW4 7312   0.687   5.099   2.976  0.4308 -0.1708  0.0986
 1887SOL     OW 7313   3.113   1.989   3.232  0.2037  0.3154 -0.4685
 1887SOL    HW2 7314   3.184   2.011   3.293 -0.1035 -2.4411  1.0009
 1887SOL    HW3 7315   3.036   2.033   3.269  0.2220 -0.5279  0.6222
 1887SOL    MW4 7316   3.112   1.998   3.245  0.1656 -0.1595 -0.1307
 1888SOL     OW 7317   4.707   3.952   3.509  0.3563 -0.1567 -0.2752
 1888SOL    HW2 7318   4.663   3.882   3.461 -2.5638  1.1665  0.2469
 1888SOL    HW3 7319   4.762   3.907   3.573  0.6263 -1.9207 -1.6766
 1888SOL    MW4 7320   4.709   3.937   3.511  0.0066 -0.2148 -0.3912
 1889SOL     OW 7321   0.165   0.134   5.674 -0.0182  0.1466 -0.2000
 1889SOL    HW2 7322   0.114   0.056   5.698 -1.9289  1.1329 -0.8992
 1889SOL    HW3 7323   0.225   0.103   5.607  1.3746 -1.3502  1.6123
 1889SOL    MW4 7324   0.166   0.119   5.668 -0.0865  0.0792 -0.0531
 1890SOL     OW 7325   5.658   6.189   4.882  0.1967 -0.2804 -0.0887
 1890SOL    HW2 7326   5.698   6.252   4.943 -0.0419  1.4288 -1.6100
 1890SOL    HW3 7327   5.576   6.164   4.925  0.1475  0.7003  0.4277
 1890SOL    MW4 7328   5.652   6.194   4.896  0.1587  0.0745 -0.2213
 1891SOL     OW 7329   6.395   4.694   3.063  0.0809  0.2934  0.0562
 1891SOL    HW2 7330   6.459   4.623   3.071  1.0073  1.0510 -0.3786
 1891SOL    HW3 7331   6.402   4.743   3.145 -2.0601 -1.2806  1.2596
 1891SOL    MW4 7332   6.405   4.691   3.075 -0.0794  0.1857  0.1576
 1892SOL     OW 7333   2.004   5.504   2.170  0.1109  0.5013 -0.0567
 1892SOL    HW2 7334   2.082   5.471   2.124 -0.0054 -0.3737  0.3480
 1892SOL    HW3 7335   1.984   5.587   2.127  1.1365  0.6282 -0.3167
 1892SOL    MW4 7336   2.012   5.511   2.159  0.2309  0.4026 -0.0376
 1893SOL     OW 7337   0.210   4.104   1.231 -0.1927  0.7387 -0.0023
 1893SOL    HW2 7338   0.157   4.098   1.310 -1.7538  3.0746 -0.7741
 1893SOL    HW3 7339   0.281   4.163   1.255  0.8340 -0.5944  0.3576
 1893SOL    MW4 7340   0.212   4.111   1.244 -0.2632  0.8710 -0.0567
 1894SOL     OW 7341   3.860   1.120   4.255 -0.4666  0.1808  0.4940
 1894SOL    HW2 7342   3.927   1.078   4.203  0.3424  1.8712  0.1056
 1894SOL    HW3 7343   3.780   1.114   4.202 -0.0074  0.5051 -0.2420
 1894SOL    MW4 7344   3.858   1.114   4.241 -0.2993  0.4467  0.3456
 1895SOL     OW 7345   2.853   2.252   4.948  0.2870  0.4367  0.2173
 1895SOL    HW2 7346   2.829   2.295   5.030  1.5816  0.9616  0.3535
 1895SOL    HW3 7347   2.832   2.317   4.880  0.9245  0.7419  0.3031
 1895SOL    MW4 7348   2.847   2.266   4.949  0.5419  0.5462  0.2466
 1896SOL     OW 7349   0.842   5.547   1.322 -0.0087 -0.3732  0.1023
 1896SOL    HW2 7350   0.780   5.476   1.310 -1.3842  0.7450  0.3180
 1896SOL    HW3 7351   0.911   5.531   1.257 -2.1164  0.0592 -2.3865
 1896SOL    MW4 7352   0.843   5.536   1.312 -0.4683 -0.1686 -0.1976
 1897SOL     OW 7353   5.537   6.181   3.742 -0.4562 -0.0911  0.1718
 1897SOL    HW2 7354   5.443   6.168   3.757  0.0174 -2.0245  2.0962
 1897SOL    HW3 7355   5.543   6.262   3.692 -3.0593  0.9505  1.3712
 1897SOL    MW4 7356   5.525   6.190   3.737 -0.7372 -0.2088  0.5840
 1898SOL     OW 7357   5.010   5.418   2.836  0.3545 -0.1382  0.3636
 1898SOL    HW2 7358   5.059   5.404   2.917  0.4348  1.6016  0.6595
 1898SOL    HW3 7359   4.918   5.414   2.862  0.2764  3.7945  1.3677
 1898SOL    MW4 7360   5.004   5.416   2.850  0.3548  0.6102  0.5352
 1899SOL     OW 7361   5.693   2.192   2.116 -0.1194 -0.4893  0.0076
 1899SOL    HW2 7362   5.714   2.261   2.053 -0.1263 -1.6935 -1.3535
 1899SOL    HW3 7363   5.723   2.227   2.200  4.4175 -0.7231 -1.2322
 1899SOL    MW4 7364   5.700   2.206   2.119  0.4783 -0.6790 -0.3356
 1900SOL     OW 7365   5.674   5.849   3.351 -0.2941  0.3007  0.2384
 1900SOL    HW2 7366   5.689   5.875   3.260  2.1836  1.8172  0.9858
 1900SOL    HW3 7367   5.605   5.908   3.381 -0.5951  0.3076 -0.4487
 1900SOL    MW4 7368   5.667   5.860   3.343 -0.0069  0.5017  0.2463
 1901SOL     OW 7369   2.973   5.683   1.142 -0.5421  0.0139  0.0280
 1901SOL    HW2 7370   2.937   5.768   1.115 -0.4394 -0.0678 -0.3724
 1901SOL    HW3 7371   2.957   5.625   1.068  1.2474  0.2153 -0.5638
 1901SOL    MW4 7372   2.966   5.687   1.129 -0.2924  0.0297 -0.1029
 1902SOL     OW 7373   1.761   5.088   2.088  0.5492  0.0311  0.0249
 1902SOL    HW2 7374   1.783   5.147   2.016  1.1255  0.1092  0.2555
 1902SOL    HW3 7375   1.842   5.039   2.104  0.2370 -0.4380  0.1979
 1902SOL    MW4 7376   1.775   5.089   2.080  0.5840 -0.0205  0.0782
 1903SOL     OW 7377   2.455   0.864   0.992 -0.4896 -0.6693  0.0139
 1903SOL    HW2 7378   2.436   0.958   0.983  0.0821 -0.3877  1.6099
 1903SOL    HW3 7379   2.536   0.860   1.041 -1.4616 -2.0102  1.6146
 1903SOL    MW4 7380   2.463   0.876   0.997 -0.5424 -0.8091  0.4356
 1904SOL     OW 7381   4.590   5.174   2.762  0.0693  0.1273  0.1521
 1904SOL    HW2 7382   4.561   5.118   2.689  2.0058 -1.6468  0.6723
 1904SOL    HW3 7383   4.618   5.113   2.830  2.1714  1.7017  0.8057
 1904SOL    MW4 7384   4.590   5.159   2.761  0.6021  0.1009  0.3070
 1905SOL     OW 7385   4.608   2.972   5.420  0.3679  0.4439  0.0515
 1905SOL    HW2 7386   4.624   2.959   5.513 -2.1338  0.1091  0.5248
 1905SOL    HW3 7387   4.670   3.040   5.393  2.1918 -0.5598  1.5578
 1905SOL    MW4 7388   4.618   2.979   5.429  0.2784  0.2673  0.3127
 1906SOL     OW 7389   6.263   2.348   5.989 -0.3442 -0.6654 -0.2382
 1906SOL    HW2 7390   6.330   2.356   5.921  1.3457  0.0585  1.4305
 1906SOL    HW3 7391   6.298   2.284   6.050 -0.6221  0.5411  1.2570
 1906SOL    MW4 7392   6.276   2.341   5.988 -0.1579 -0.4107  0.1793
 1907SOL     OW 7393   5.740   6.051   1.297  1.0758  0.2928 -0.0382
 1907SOL    HW2 7394   5.743   5.976   1.238  3.5449 -0.1090  0.4544
 1907SOL    HW3 7395   5.654   6.047   1.337  1.2389 -2.5379  0.2446
 1907SOL    MW4 7396   5.729   6.041   1.295  1.4231 -0.1337  0.0641
 1908SOL     OW 7397   2.539   1.052   5.602  0.1961 -0.2636  0.4273
 1908SOL    HW2 7398   2.601   1.094   5.543 -0.6496  0.1852 -0.1774
 1908SOL    HW3 7399   2.528   0.964   5.565 -0.8114  0.2220 -0.4988
 1908SOL    MW4 7400   2.545   1.046   5.589 -0.0484 -0.1403  0.2253
 1909SOL     OW 7401   0.920   1.488   0.816 -0.0629 -0.3102  0.1221
 1909SOL    HW2 7402   0.985   1.540   0.769  0.6185 -0.1775  1.1923
 1909SOL    HW3 7403   0.968   1.448   0.888 -1.2105 -0.0227  1.0732
 1909SOL    MW4 7404   0.935   1.490   0.819 -0.1244 -0.2547  0.3888
 1910SOL     OW 7405   4.924   6.294   3.179 -0.5782 -0.1490 -0.6393
 1910SOL    HW2 7406   4.938   6.257   3.093  4.4828  1.2355 -0.7011
 1910SOL    HW3 7407   4.987   6.250   3.236  0.5963  3.0883  0.8608
 1910SOL    MW4 7408   4.934   6.283   3.175  0.2445  0.4608 -0.4495
 1911SOL     OW 7409   0.581   1.767   3.137 -0.5697 -0.1179  0.4621
 1911SOL    HW2 7410   0.561   1.805   3.223 -2.1417 -2.0251  1.0244
 1911SOL    HW3 7411   0.586   1.672   3.153 -1.2698 -0.5604 -1.5993
 1911SOL    MW4 7412   0.579   1.759   3.150 -0.8695 -0.4279  0.2643
 1912SOL     OW 7413   3.284   2.493   2.255  0.3001 -0.0232 -0.3441
 1912SOL    HW2 7414   3.282   2.552   2.331 -1.0958 -0.1567 -0.2494
 1912SOL    HW3 7415   3.297   2.406   2.293  0.4159 -0.0039 -0.3369
 1912SOL    MW4 7416   3.286   2.490   2.270  0.1312 -0.0383 -0.3307
 1913SOL     OW 7417   5.329   3.471   4.135 -0.0566 -0.0412  0.0802
 1913SOL    HW2 7418   5.303   3.536   4.200 -0.7778  0.5827 -0.8149
 1913SOL    HW3 7419   5.256   3.467   4.074  0.4407 -0.9076 -0.4857
 1913SOL    MW4 7420   5.316   3.479   4.136 -0.0862 -0.0732 -0.1126
 1914SOL     OW 7421   1.865   0.120   2.594  0.5633  0.1386  0.5622
 1914SOL    HW2 7422   1.944   0.146   2.545  0.0641  0.5445 -0.0419
 1914SOL    HW3 7423   1.821   0.203   2.613 -0.9225 -0.2063 -1.1609
 1914SOL    MW4 7424   1.870   0.135   2.590  0.3014  0.1466  0.2552
 1915SOL     OW 7425   4.136   5.206   5.308  0.1879  0.4222 -0.1071
 1915SOL    HW2 7426   4.189   5.178   5.382 -0.0678  1.9052  0.6574
 1915SOL    HW3 7427   4.197   5.251   5.250  1.0514 -3.2270 -2.3480
 1915SOL    MW4 7428   4.151   5.208   5.310  0.2681  0.1364 -0.3019
 1916SOL     OW 7429   0.338   5.471   6.494  0.2892  0.2787  0.3677
 1916SOL    HW2 7430   0.315   5.536   6.427  2.4949  1.9469  1.1064
 1916SOL    HW3 7431   0.254   5.444   6.531 -0.9412  0.0523 -2.3196
 1916SOL    MW4 7432   0.324   5.476   6.490  0.4179  0.4690  0.1106
 1917SOL     OW 7433   3.262   4.673   1.657 -0.1603  0.2457 -0.1902
 1917SOL    HW2 7434   3.181   4.641   1.618 -0.3840 -1.2634  1.3860
 1917SOL    HW3 7435   3.306   4.719   1.586 -0.8742 -1.7217 -2.0380
 1917SOL    MW4 7436   3.257   4.674   1.643 -0.2840 -0.2130 -0.2260
 1918SOL     OW 7437   2.057   1.339   1.255 -0.1746 -0.2713  0.2126
 1918SOL    HW2 7438   2.047   1.407   1.188 -0.1672 -0.3981  0.0828
 1918SOL    HW3 7439   2.018   1.377   1.334 -0.4337 -0.2301  0.0656
 1918SOL    MW4 7440   2.051   1.353   1.256 -0.2078 -0.2826  0.1761
 1919SOL     OW 7441   1.466   5.702   6.473  0.1269  0.4919 -0.1026
 1919SOL    HW2 7442   1.558   5.686   6.449  0.0356  1.2100 -0.9943
 1919SOL    HW3 7443   1.426   5.615   6.472  0.4804  0.3263 -1.1333
 1919SOL    MW4 7444   1.473   5.688   6.470  0.1615  0.5648 -0.3563
 1920SOL     OW 7445   4.460   3.149   3.608  0.5862 -0.0778  0.5018
 1920SOL    HW2 7446   4.389   3.131   3.670  1.2089  2.3692  2.0460
 1920SOL    HW3 7447   4.435   3.231   3.565  1.9452  0.2308  0.2578
 1920SOL    MW4 7448   4.448   3.157   3.610  0.8477  0.2858  0.6734
 1921SOL     OW 7449   0.855   3.927   3.586  0.2228  0.0288 -0.0694
 1921SOL    HW2 7450   0.883   3.843   3.550 -1.4127 -0.2223 -0.8663
 1921SOL    HW3 7451   0.780   3.952   3.532  1.4819  2.6930 -0.7732
 1921SOL    MW4 7452   0.849   3.919   3.574  0.1731  0.3472 -0.2674
 1922SOL     OW 7453   0.531   4.038   5.901 -0.3309 -0.0007 -0.0029
 1922SOL    HW2 7454   0.532   4.055   5.807 -0.7605  0.3944  0.0571
 1922SOL    HW3 7455   0.614   3.994   5.919  0.2444  0.8775 -0.3943
 1922SOL    MW4 7456   0.542   4.035   5.891 -0.3117  0.1673 -0.0466
 1923SOL     OW 7457   3.904   5.664   2.519  0.9551 -0.1730  0.4322
 1923SOL    HW2 7458   3.942   5.739   2.473  1.0331 -1.0283 -0.9643
 1923SOL    HW3 7459   3.821   5.697   2.553  0.8862  0.4986 -0.3381
 1923SOL    MW4 7460   3.898   5.679   2.517  0.9563 -0.1972  0.1463
 1924SOL     OW 7461   2.922   1.319   4.907 -0.1832 -0.3276  0.1452
 1924SOL    HW2 7462   2.941   1.242   4.961 -1.2202 -2.0639 -1.7760
 1924SOL    HW3 7463   2.985   1.314   4.835  0.3556  1.2104  0.4790
 1924SOL    MW4 7464   2.933   1.308   4.905 -0.2489 -0.3538 -0.0642
 1925SOL     OW 7465   1.964   1.454   2.931  0.5194 -0.2114 -0.3435
 1925SOL    HW2 7466   1.968   1.384   2.866  1.4395 -0.7305  0.2525
 1925SOL    HW3 7467   2.007   1.417   3.008 -0.5527  0.3894  0.5750
 1925SOL    MW4 7468   1.970   1.440   2.933  0.4994 -0.2006 -0.1437
 1926SOL     OW 7469   5.348   1.841   1.381  0.2914 -0.6460  0.2893
 1926SOL    HW2 7470   5.300   1.858   1.300 -1.0556 -0.5910  1.0682
 1926SOL    HW3 7471   5.326   1.751   1.404  2.1562 -1.3167 -0.3495
 1926SOL    MW4 7472   5.339   1.832   1.373  0.3597 -0.7272  0.3077
 1927SOL     OW 7473   2.309   1.561   0.123  0.4028  0.0638 -0.0399
 1927SOL    HW2 7474   2.253   1.634   0.098 -1.0537 -1.4737 -1.4998
 1927SOL    HW3 7475   2.398   1.596   0.120 -0.2941  1.9504  0.0794
 1927SOL    MW4 7476   2.313   1.575   0.120  0.1187  0.1099 -0.2168
 1928SOL     OW 7477   4.214   0.793   3.128 -0.0706  0.0626 -0.4641
 1928SOL    HW2 7478   4.222   0.860   3.061  1.1457 -0.4112 -0.8057
 1928SOL    HW3 7479   4.262   0.718   3.093  1.4167  0.1239  1.3448
 1928SOL    MW4 7480   4.221   0.792   3.114  0.2861  0.0082 -0.2705
 1929SOL     OW 7481   2.416   0.173   3.095 -0.3275 -0.3342 -0.3899
 1929SOL    HW2 7482   2.366   0.130   3.025 -0.2173  0.4412 -0.9466
 1929SOL    HW3 7483   2.449   0.100   3.148 -1.5023 -0.8868 -0.3831
 1929SOL    MW4 7484   2.413   0.157   3.093 -0.4680 -0.3048 -0.4625
 1930SOL     OW 7485   3.257   1.103   0.884  0.0718 -0.9218  0.5809
 1930SOL    HW2 7486   3.289   1.194   0.886  0.0433 -0.9029  0.2003
 1930SOL    HW3 7487   3.203   1.095   0.964 -0.0266 -0.5665  0.5529
 1930SOL    MW4 7488   3.254   1.114   0.895  0.0551 -0.8724  0.5270
 1931SOL     OW 7489   3.714   3.745   3.202 -0.1287  0.5248  0.5979
 1931SOL    HW2 7490   3.716   3.809   3.274  0.3543  0.6257  0.4995
 1931SOL    HW3 7491   3.626   3.709   3.204 -0.3780  1.1396  0.7076
 1931SOL    MW4 7492   3.703   3.749   3.212 -0.0979  0.6192  0.5994
 1932SOL     OW 7493   4.229   1.356   3.540  0.3876  0.0202  0.0668
 1932SOL    HW2 7494   4.285   1.322   3.470 -0.0733 -1.2283  0.2849
 1932SOL    HW3 7495   4.287   1.415   3.590  2.2032 -2.8375  1.5801
 1932SOL    MW4 7496   4.244   1.360   3.537  0.5663 -0.5216  0.2952
 1933SOL     OW 7497   4.664   3.850   6.149 -0.2650 -0.3068  0.3985
 1933SOL    HW2 7498   4.587   3.798   6.173  0.0612 -0.9692  0.0550
 1933SOL    HW3 7499   4.689   3.894   6.230 -2.6330  2.1444 -0.0737
 1933SOL    MW4 7500   4.657   3.849   6.163 -0.5344 -0.0708  0.2908
 1934SOL     OW 7501   4.867   1.780   6.442  0.0436  0.2050 -0.4209
 1934SOL    HW2 7502   4.879   1.720   6.368  0.6138 -1.1615  0.7292
 1934SOL    HW3 7503   4.948   1.771   6.492 -1.3691 -0.9718  1.7977
 1934SOL    MW4 7504   4.880   1.771   6.439 -0.0676 -0.1306  0.0236
 1935SOL     OW 7505   1.157   1.437   4.746 -0.0348 -0.4866  0.1053
 1935SOL    HW2 7506   1.224   1.379   4.710 -0.2836 -1.1016  0.6186
 1935SOL    HW3 7507   1.165   1.517   4.694 -0.5321 -1.4203 -1.5028
 1935SOL    MW4 7508   1.167   1.439   4.734 -0.1332 -0.6909 -0.0391
 1936SOL     OW 7509   3.965   5.642   3.285 -0.2329 -0.3336 -0.5005
 1936SOL    HW2 7510   4.048   5.680   3.313 -0.5042 -0.5118  0.6238
 1936SOL    HW3 7511   3.940   5.692   3.208  2.0586 -1.8154 -2.3451
 1936SOL    MW4 7512   3.973   5.653   3.279  0.0336 -0.5526 -0.5955
 1937SOL     OW 7513   2.647   4.891   3.824  0.4052  0.1830  0.5022
 1937SOL    HW2 7514   2.670   4.983   3.839  1.5217 -0.1057  0.6602
 1937SOL    HW3 7515   2.555   4.893   3.797  0.5973  1.3980 -0.1183
 1937SOL    MW4 7516   2.638   4.903   3.823  0.5779  0.3052  0.4412
 1938SOL     OW 7517   2.762   1.483   0.828  0.4315 -0.1090  0.3008
 1938SOL    HW2 7518   2.713   1.415   0.782  0.4423 -0.0067  0.1403
 1938SOL    HW3 7519   2.766   1.556   0.767  0.2447  0.1116  0.5497
 1938SOL    MW4 7520   2.756   1.483   0.814  0.4083 -0.0664  0.3125
 1939SOL     OW 7521   0.883   5.722   2.944 -0.1545  0.2760 -0.3234
 1939SOL    HW2 7522   0.897   5.684   3.031  0.7018 -2.4945 -1.5341
 1939SOL    HW3 7523   0.971   5.726   2.906 -0.5886  0.7766 -1.2977
 1939SOL    MW4 7524   0.897   5.718   2.950 -0.0988 -0.0234 -0.6117
 1940SOL     OW 7525   1.249   3.185   1.628 -0.0095 -0.3178  0.3316
 1940SOL    HW2 7526   1.291   3.263   1.590 -0.1677 -0.3096  0.1695
 1940SOL    HW3 7527   1.315   3.148   1.687  0.2549 -0.3516  0.0185
 1940SOL    MW4 7528   1.263   3.191   1.631  0.0045 -0.3212  0.2689
 1941SOL     OW 7529   2.674   4.988   5.625  0.2421  0.1020  0.0420
 1941SOL    HW2 7530   2.690   4.986   5.719 -0.3829 -1.1732  0.1428
 1941SOL    HW3 7531   2.579   5.002   5.617  0.3016  0.2851 -0.3997
 1941SOL    MW4 7532   2.664   4.990   5.636  0.1675 -0.0421 -0.0030
 1942SOL     OW 7533   2.458   4.683   0.559 -0.3543 -0.1509  0.7905
 1942SOL    HW2 7534   2.495   4.612   0.506 -0.2356  0.3046  0.2546
 1942SOL    HW3 7535   2.390   4.722   0.503  0.7694  1.2837  0.3669
 1942SOL    MW4 7536   2.454   4.679   0.544 -0.1904  0.0985  0.6639
 1943SOL     OW 7537   5.028   5.765   0.133 -0.1982  0.0778  0.1015
 1943SOL    HW2 7538   5.107   5.810   0.163 -0.9086  0.6865  1.1101
 1943SOL    HW3 7539   5.058   5.676   0.111  0.6506  0.1081  1.0782
 1943SOL    MW4 7540   5.043   5.759   0.134 -0.1799  0.1621  0.3635
 1944SOL     OW 7541   1.494   3.264   4.501 -0.0003  0.7339  0.3147
 1944SOL    HW2 7542   1.456   3.281   4.414  0.2452  1.5170  0.3542
 1944SOL    HW3 7543   1.435   3.308   4.562 -0.2923  0.0024  0.5800
 1944SOL    MW4 7544   1.481   3.272   4.497 -0.0064  0.7407  0.3549
 1945SOL     OW 7545   0.777   5.560   6.366 -0.6386  0.5533  0.0493
 1945SOL    HW2 7546   0.763   5.653   6.381 -1.5859  0.6499 -1.3244
 1945SOL    HW3 7547   0.839   5.556   6.294  0.2187  0.0995  0.7903
 1945SOL    MW4 7548   0.784   5.571   6.359 -0.6505  0.5062 -0.0342
 1946SOL     OW 7549   0.652   4.893   3.723  0.0044 -0.5763  0.4519
 1946SOL    HW2 7550   0.728   4.940   3.690 -0.2344 -1.7031 -1.8696
 1946SOL    HW3 7551   0.579   4.954   3.711 -0.0156 -0.8292 -0.8518
 1946SOL    MW4 7552   0.652   4.907   3.717 -0.0297 -0.7584 -0.0264
 1947SOL     OW 7553   4.526   1.455   1.673  0.2261  0.0525  0.4881
 1947SOL    HW2 7554   4.522   1.493   1.585  0.9457 -2.8318 -0.8945
 1947SOL    HW3 7555   4.596   1.390   1.669 -0.8588 -1.4073  2.6864
 1947SOL    MW4 7556   4.535   1.452   1.661  0.1779 -0.5207  0.5957
 1948SOL     OW 7557   6.388   4.815   4.430  0.1612  0.2206  0.4446
 1948SOL    HW2 7558   6.399   4.898   4.383  1.2034 -0.9866 -1.5897
 1948SOL    HW3 7559   6.431   4.829   4.514 -1.3400  2.3197  0.9435
 1948SOL    MW4 7560   6.395   4.828   4.435  0.1007  0.3382  0.2420
 1949SOL     OW 7561   2.688   0.695   2.641  0.3913  0.0640 -0.3792
 1949SOL    HW2 7562   2.615   0.703   2.580 -0.8377 -0.6836  0.9172
 1949SOL    HW3 7563   2.762   0.666   2.588 -0.4701  0.0183 -1.5861
 1949SOL    MW4 7564   2.688   0.693   2.626  0.1155 -0.0407 -0.3674
 1950SOL     OW 7565   0.485   0.470   5.905  0.4814 -1.0224  0.0378
 1950SOL    HW2 7566   0.526   0.452   5.820 -0.6770  0.2423 -0.8402
 1950SOL    HW3 7567   0.407   0.414   5.906  0.0780 -0.4707 -0.0850
 1950SOL    MW4 7568   0.480   0.460   5.894  0.2753 -0.7827 -0.0942
 1951SOL     OW 7569   2.573   4.134   1.918  0.1192  0.0915  0.4043
 1951SOL    HW2 7570   2.530   4.160   1.999 -1.1901 -1.4143  0.2282
 1951SOL    HW3 7571   2.665   4.121   1.943  0.8145  4.1608  0.5985
 1951SOL    MW4 7572   2.580   4.135   1.932  0.0382  0.4297  0.4067
 1952SOL     OW 7573   5.231   0.668   4.335 -0.1457 -0.1212 -0.4204
 1952SOL    HW2 7574   5.267   0.685   4.248  0.7172  0.0576 -0.0430
 1952SOL    HW3 7575   5.302   0.691   4.395 -0.5070 -0.8546  0.3065
 1952SOL    MW4 7576   5.245   0.674   4.331 -0.0795 -0.1943 -0.2747
 1953SOL     OW 7577   2.692   4.999   1.599 -0.0038 -0.2624  0.2535
 1953SOL    HW2 7578   2.697   4.971   1.507 -3.4471  1.0298 -0.4849
 1953SOL    HW3 7579   2.668   4.920   1.646  1.0772 -0.7858 -0.0471
 1953SOL    MW4 7580   2.689   4.985   1.593 -0.3155 -0.1610  0.1164
 1954SOL     OW 7581   2.604   0.534   0.664 -0.0880  0.3727  0.2756
 1954SOL    HW2 7582   2.559   0.528   0.748 -0.4611 -1.3594 -0.0062
 1954SOL    HW3 7583   2.657   0.454   0.659  1.5327  1.4170 -0.2637
 1954SOL    MW4 7584   2.605   0.523   0.674  0.0766  0.2819  0.1673
 1955SOL     OW 7585   1.996   1.003   2.197  0.0743 -0.4543  0.3036
 1955SOL    HW2 7586   1.961   0.949   2.268 -1.3412 -0.1256 -0.1036
 1955SOL    HW3 7587   1.930   1.071   2.184  0.5671 -0.1947 -0.9660
 1955SOL    MW4 7588   1.983   1.005   2.205 -0.0475 -0.3767  0.0824
 1956SOL     OW 7589   2.266   1.891   2.810  0.4997 -0.0730 -0.1220
 1956SOL    HW2 7590   2.282   1.944   2.732  0.7307 -0.4291 -0.3253
 1956SOL    HW3 7591   2.187   1.842   2.789 -0.2908  0.9338  0.4732
 1956SOL    MW4 7592   2.258   1.891   2.797  0.4259  0.0128 -0.0703
 1957SOL     OW 7593   0.579   4.491   6.041  0.7622  0.9504 -0.2774
 1957SOL    HW2 7594   0.561   4.403   6.007  1.9156  0.4689  0.2956
 1957SOL    HW3 7595   0.560   4.549   5.968 -0.4609  0.2680 -0.5242
 1957SOL    MW4 7596   0.574   4.487   6.027  0.7530  0.7969 -0.2344
 1958SOL     OW 7597   4.493   5.015   4.589 -0.5466 -0.3706 -0.7210
 1958SOL    HW2 7598   4.407   5.005   4.630 -0.0186 -1.0179  0.2677
 1958SOL    HW3 7599   4.480   5.082   4.522 -1.4498  0.7166  0.5024
 1958SOL    MW4 7600   4.480   5.022   4.585 -0.5961 -0.3125 -0.4292
 1959SOL     OW 7601   2.692   2.014   4.371 -0.0970  0.0165  0.5031
 1959SOL    HW2 7602   2.671   1.921   4.379  0.1475  0.0005  0.9994
 1959SOL    HW3 7603   2.787   2.018   4.382 -0.3288  0.5592  2.8354
 1959SOL    MW4 7604   2.702   2.003   4.373 -0.0953  0.0860  0.8763
 1960SOL     OW 7605   0.516   2.231   3.077  0.3786  0.0591  0.3488
 1960SOL    HW2 7606   0.428   2.215   3.043 -0.8202  1.7988  2.4199
 1960SOL    HW3 7607   0.558   2.145   3.074 -0.2308 -0.3021 -3.5294
 1960SOL    MW4 7608   0.510   2.217   3.072  0.1400  0.2410  0.1104
 1961SOL     OW 7609   0.906   4.699   6.078  0.7497  0.7014 -0.3749
 1961SOL    HW2 7610   0.891   4.630   6.143 -0.9122 -0.0146 -1.4391
 1961SOL    HW3 7611   0.960   4.764   6.123  2.0072 -1.0722  0.8155
 1961SOL    MW4 7612   0.911   4.698   6.093  0.6963  0.3729 -0.3583
 1962SOL     OW 7613   4.784   3.295   3.369  0.5402  1.1753  0.6546
 1962SOL    HW2 7614   4.734   3.213   3.371  0.4569  1.0378 -2.1849
 1962SOL    HW3 7615   4.718   3.363   3.380  0.0524  0.9247 -0.5792
 1962SOL    MW4 7616   4.769   3.293   3.371  0.4649  1.1241  0.1172
 1963SOL     OW 7617   4.251   4.121   2.581 -0.0804  0.0854 -0.2185
 1963SOL    HW2 7618   4.204   4.160   2.507 -0.3708  0.0173 -0.0711
 1963SOL    HW3 7619   4.285   4.038   2.546  2.5887  1.4989 -1.2685
 1963SOL    MW4 7620   4.249   4.115   2.566  0.2334  0.2629 -0.3376
 1964SOL     OW 7621   1.345   3.368   2.312 -0.3569  0.5623  0.0654
 1964SOL    HW2 7622   1.383   3.390   2.397  0.3850 -0.0017 -0.1072
 1964SOL    HW3 7623   1.307   3.281   2.325 -1.0253  0.8536  0.0607
 1964SOL    MW4 7624   1.345   3.359   2.325 -0.3472  0.5263  0.0420
 1965SOL     OW 7625   1.831   5.664   2.407 -0.0849 -0.5997  0.2221
 1965SOL    HW2 7626   1.836   5.572   2.378  0.8737 -0.4454 -0.1289
 1965SOL    HW3 7627   1.751   5.697   2.366  0.5075 -0.7853 -1.1568
 1965SOL    MW4 7628   1.821   5.656   2.398  0.1198 -0.6038 -0.0061
 1966SOL     OW 7629   4.034   1.078   0.746 -0.3238  0.1464 -0.6902
 1966SOL    HW2 7630   4.026   1.012   0.815 -2.5580 -0.1425 -1.1615
 1966SOL    HW3 7631   4.106   1.046   0.692  0.3722 -0.4974  0.5614
 1966SOL    MW4 7632   4.043   1.065   0.748 -0.5267  0.0234 -0.5873
 1967SOL     OW 7633   4.195   3.957   5.300  0.1691 -0.0991  0.3878
 1967SOL    HW2 7634   4.107   3.930   5.276 -0.5476  2.0577  0.3804
 1967SOL    HW3 7635   4.186   3.989   5.390  0.8611  0.4865  0.2540
 1967SOL    MW4 7636   4.182   3.957   5.309  0.1659  0.2627  0.3692
 1968SOL     OW 7637   4.454   1.045   3.108 -0.0837  0.2409  0.2298
 1968SOL    HW2 7638   4.359   1.057   3.108 -0.2003 -0.4188  1.7457
 1968SOL    HW3 7639   4.489   1.126   3.072 -1.2345  0.2693 -0.8791
 1968SOL    MW4 7640   4.446   1.057   3.103 -0.2509  0.1576  0.2835
 1969SOL     OW 7641   4.693   0.308   1.356  0.2634 -0.7308 -0.7032
 1969SOL    HW2 7642   4.631   0.311   1.429  0.1811 -1.5394 -0.7313
 1969SOL    HW3 7643   4.779   0.303   1.398  0.3897  1.0781 -0.6551
 1969SOL    MW4 7644   4.696   0.307   1.371  0.2692 -0.5988 -0.7005
 1970SOL     OW 7645   0.973   2.400   6.375  0.4271 -0.2431  0.2636
 1970SOL    HW2 7646   0.996   2.307   6.386 -0.7904 -0.7118 -0.8782
 1970SOL    HW3 7647   0.998   2.420   6.285 -2.1525 -0.3776 -0.5485
 1970SOL    MW4 7648   0.979   2.390   6.365 -0.0738 -0.3227  0.0058
 1971SOL     OW 7649   4.635   0.576   0.376  0.2485 -0.6498  0.5916
 1971SOL    HW2 7650   4.720   0.614   0.394 -0.0125 -0.0933  0.6633
 1971SOL    HW3 7651   4.617   0.598   0.284  0.3671 -1.1354  0.4462
 1971SOL    MW4 7652   4.644   0.584   0.366  0.2297 -0.6405  0.5819
 1972SOL     OW 7653   6.271   6.191   6.373  0.5442  0.0001  0.1288
 1972SOL    HW2 7654   6.278   6.266   6.433 -0.2128  1.2504 -1.2656
 1972SOL    HW3 7655   6.339   6.207   6.307  1.6216 -1.5535  0.8073
 1972SOL    MW4 7656   6.281   6.203   6.372  0.5864 -0.0399  0.0343
 1973SOL     OW 7657   1.180   0.051   5.983  0.5587  0.0411  0.8485
 1973SOL    HW2 7658   1.179   0.146   5.990 -0.6648  0.1530 -0.5576
 1973SOL    HW3 7659   1.088   0.026   5.979  0.8636 -1.2254  1.2921
 1973SOL    MW4 7660   1.168   0.060   5.983  0.4375 -0.1112  0.7215
 1974SOL     OW 7661   1.579   6.317   3.265 -0.1261  0.0728  0.1402
 1974SOL    HW2 7662   1.656   6.283   3.218  0.6859 -0.6234  1.9091
 1974SOL    HW3 7663   1.504   6.279   3.219  0.4945  1.2380 -1.9976
 1974SOL    MW4 7664   1.579   6.308   3.252  0.0629  0.1347  0.0915
 1975SOL     OW 7665   0.558   1.084   0.501  0.3235  0.3557 -0.2453
 1975SOL    HW2 7666   0.565   1.179   0.512 -0.6090  0.5094 -0.8436
 1975SOL    HW3 7667   0.604   1.048   0.576  0.2165  1.2838  0.2890
 1975SOL    MW4 7668   0.565   1.092   0.512  0.1864  0.4985 -0.2537
 1976SOL     OW 7669   0.425   0.559   2.381 -0.4007 -0.1563 -0.1462
 1976SOL    HW2 7670   0.376   0.482   2.354 -0.6852 -0.4697  1.1830
 1976SOL    HW3 7671   0.514   0.528   2.393 -0.8262 -0.7202  1.9952
 1976SOL    MW4 7672   0.430   0.545   2.379 -0.4943 -0.2721  0.3117
 1977SOL     OW 7673   3.046   0.582   3.167 -0.0758 -0.2248  0.0972
 1977SOL    HW2 7674   2.993   0.659   3.150  1.8245  1.3832  1.0823
 1977SOL    HW3 7675   3.066   0.586   3.260  0.6136 -1.5442  0.0272
 1977SOL    MW4 7676   3.042   0.592   3.177  0.2659 -0.1867  0.2179
 1978SOL     OW 7677   1.791   1.320   4.927  0.7171  0.4467  0.0645
 1978SOL    HW2 7678   1.812   1.227   4.940 -2.5895 -0.4273  0.0277
 1978SOL    HW3 7679   1.775   1.328   4.833 -1.1456  0.4569  0.3439
 1978SOL    MW4 7680   1.792   1.309   4.916  0.0351  0.3327  0.0965
 1979SOL     OW 7681   4.209   1.808   4.386 -0.2075  0.2032 -0.1314
 1979SOL    HW2 7682   4.137   1.773   4.334  0.3430 -0.2129 -0.6355
 1979SOL    HW3 7683   4.286   1.759   4.355  0.6668  2.1076 -1.1299
 1979SOL    MW4 7684   4.210   1.797   4.375 -0.0195  0.3996 -0.3297
 1980SOL     OW 7685   0.373   2.673   4.755  0.2793  0.4370 -0.1243
 1980SOL    HW2 7686   0.293   2.623   4.743 -0.3991  1.6145 -0.7251
 1980SOL    HW3 7687   0.344   2.757   4.791  0.8203  2.0147 -2.9917
 1980SOL    MW4 7688   0.359   2.678   4.758  0.2612  0.8005 -0.5819
 1981SOL     OW 7689   3.074   5.269   3.502  0.1748 -0.2597 -0.5483
 1981SOL    HW2 7690   3.063   5.174   3.495  1.7405 -0.5504  0.4356
 1981SOL    HW3 7691   3.012   5.295   3.569  0.9130 -0.8777  0.4082
 1981SOL    MW4 7692   3.065   5.260   3.510  0.4788 -0.3796 -0.2922
 1982SOL     OW 7693   6.025   3.305   5.955 -0.3155 -0.5508  0.2000
 1982SOL    HW2 7694   6.106   3.257   5.969 -0.5756 -1.1899 -0.4518
 1982SOL    HW3 7695   5.956   3.241   5.973 -0.6732 -0.2276 -0.0113
 1982SOL    MW4 7696   6.027   3.290   5.959 -0.3970 -0.5925  0.0862
 1983SOL     OW 7697   2.585   2.001   1.359  0.0327 -0.1291  0.7504
 1983SOL    HW2 7698   2.553   2.086   1.390 -1.9544 -0.5167 -0.1088
 1983SOL    HW3 7699   2.559   1.939   1.427  1.0774 -0.1415  1.1580
 1983SOL    MW4 7700   2.577   2.004   1.372 -0.0916 -0.1819  0.6908
 1984SOL     OW 7701   0.376   2.453   2.815 -0.3704  0.6058  0.2033
 1984SOL    HW2 7702   0.297   2.475   2.766 -0.8519  0.5226  0.9278
 1984SOL    HW3 7703   0.371   2.359   2.828 -1.5536  0.9240  2.5648
 1984SOL    MW4 7704   0.365   2.444   2.810 -0.5901  0.6368  0.6104
 1985SOL     OW 7705   0.159   2.654   4.486  0.2894  0.1412 -0.0807
 1985SOL    HW2 7706   0.095   2.639   4.556 -0.0812  0.2943 -0.3874
 1985SOL    HW3 7707   0.207   2.571   4.480 -0.3665 -0.2234 -0.3529
 1985SOL    MW4 7708   0.157   2.641   4.495  0.1539  0.1133 -0.1571
 1986SOL     OW 7709   3.960   2.085   1.905 -0.2844  0.2625  0.2026
 1986SOL    HW2 7710   3.914   2.091   1.988 -1.5847  2.1640 -0.5655
 1986SOL    HW3 7711   3.926   2.005   1.864 -2.1604  1.0538  0.1285
 1986SOL    MW4 7712   3.949   2.075   1.910 -0.7035  0.6178  0.0915
 1987SOL     OW 7713   3.654   0.343   2.686  0.5991  0.4066  0.3989
 1987SOL    HW2 7714   3.702   0.280   2.632 -1.6068 -2.0844  1.0957
 1987SOL    HW3 7715   3.696   0.338   2.772 -1.1880 -2.4393  1.2626
 1987SOL    MW4 7716   3.666   0.334   2.691  0.0723 -0.2975  0.6048
 1988SOL     OW 7717   6.205   3.605   1.051 -0.3779 -0.4375 -0.0923
 1988SOL    HW2 7718   6.140   3.541   1.023 -0.3397 -0.1485 -0.8486
 1988SOL    HW3 7719   6.289   3.566   1.026 -0.2860 -0.5329  0.3408
 1988SOL    MW4 7720   6.207   3.591   1.044 -0.3607 -0.4120 -0.1349
 1989SOL     OW 7721   2.959   6.311   2.732 -0.3401  0.1993 -0.0709
 1989SOL    HW2 7722   2.888   6.324   2.795 -0.1674  1.1172 -0.0529
 1989SOL    HW3 7723   2.972   6.216   2.731  0.1004  0.2029  1.7587
 1989SOL    MW4 7724   2.951   6.300   2.740 -0.2592  0.3209  0.1728
 1990SOL     OW 7725   3.017   0.927   4.620 -0.0934  0.3047  0.2322
 1990SOL    HW2 7726   3.084   0.942   4.687  0.6369 -0.3853 -0.3261
 1990SOL    HW3 7727   2.976   0.844   4.646 -1.0480  0.9346  0.8105
 1990SOL    MW4 7728   3.021   0.918   4.632 -0.1230  0.2968  0.2349
 1991SOL     OW 7729   5.737   0.098   1.179 -0.0396 -0.0067 -0.0218
 1991SOL    HW2 7730   5.742   0.012   1.138 -0.7399 -0.1866  0.2666
 1991SOL    HW3 7731   5.829   0.125   1.189  0.1921 -0.8524  0.1685
 1991SOL    MW4 7732   5.750   0.090   1.175 -0.1014 -0.1420  0.0414
 1992SOL     OW 7733   1.348   1.647   5.871 -0.0522 -1.0440 -0.0399
 1992SOL    HW2 7734   1.369   1.737   5.845  0.1918 -1.8547 -3.0180
 1992SOL    HW3 7735   1.429   1.616   5.912 -0.5904  0.4438  2.3627
 1992SOL    MW4 7736   1.362   1.655   5.873 -0.0910 -0.9547 -0.1158
 1993SOL     OW 7737   1.002   3.724   3.891  0.2824 -0.1494 -0.4394
 1993SOL    HW2 7738   1.092   3.714   3.859 -0.2133  0.3582 -2.1255
 1993SOL    HW3 7739   0.965   3.636   3.884  0.3838 -0.1780 -0.6473
 1993SOL    MW4 7740   1.009   3.711   3.886  0.2304 -0.0862 -0.6892
 1994SOL     OW 7741   0.849   4.283   5.851  0.1355 -0.2552  0.6640
 1994SOL    HW2 7742   0.939   4.313   5.842  0.3818 -0.0068  3.2504
 1994SOL    HW3 7743   0.841   4.212   5.787  2.3743 -0.7325  0.8285
 1994SOL    MW4 7744   0.860   4.278   5.842  0.4634 -0.2854  1.0270
 1995SOL     OW 7745   0.041   5.325   6.203 -0.0281  0.2738 -0.4272
 1995SOL    HW2 7746   0.128   5.289   6.182  0.4556  0.2745  1.3600
 1995SOL    HW3 7747   0.029   5.396   6.140  0.9381 -0.2057 -1.1917
 1995SOL    MW4 7748   0.051   5.330   6.192  0.1632  0.2106 -0.2922
 1996SOL     OW 7749   0.260   2.738   1.956  0.2786 -0.4281 -0.8653
 1996SOL    HW2 7750   0.326   2.677   1.923  0.6424  0.2375 -1.3756
 1996SOL    HW3 7751   0.189   2.681   1.988  0.9745 -1.1379 -0.5487
 1996SOL    MW4 7752   0.259   2.722   1.956  0.4184 -0.4340 -0.8908
 1997SOL     OW 7753   1.638   5.565   4.598 -0.1954 -0.1349 -0.1717
 1997SOL    HW2 7754   1.689   5.498   4.644  1.1544  1.2664  0.4507
 1997SOL    HW3 7755   1.617   5.630   4.665 -0.0527  0.8909 -1.0917
 1997SOL    MW4 7756   1.642   5.565   4.613  0.0015  0.1853 -0.2110
 1998SOL     OW 7757   0.941   2.046   5.681  0.6560 -0.0968  0.1374
 1998SOL    HW2 7758   0.894   2.080   5.605  0.5990  0.0164  0.2237
 1998SOL    HW3 7759   0.887   2.071   5.756  1.6904  1.5560  0.3974
 1998SOL    MW4 7760   0.928   2.054   5.681  0.7850  0.1362  0.1831
 1999SOL     OW 7761   3.282   1.438   5.999 -0.2619 -0.4494  0.1451
 1999SOL    HW2 7762   3.197   1.430   5.956  1.0017 -0.7408 -2.5238
 1999SOL    HW3 7763   3.324   1.353   5.985 -0.3081 -1.1490  3.4677
 1999SOL    MW4 7764   3.276   1.426   5.992 -0.1013 -0.5801  0.2313
 2000SOL     OW 7765   5.044   4.378   0.751 -0.1783 -0.3023  0.0962
 2000SOL    HW2 7766   4.998   4.452   0.791 -0.2804  0.8746 -2.0458
 2000SOL    HW3 7767   5.135   4.387   0.781 -0.3851  0.1450  0.6006
 2000SOL    MW4 7768   5.050   4.389   0.760 -0.2190 -0.0880 -0.1198
 2001SOL     OW 7769   5.757   4.830   6.077  0.5581  0.0036  0.1255
 2001SOL    HW2 7770   5.715   4.750   6.044  1.8639 -0.6808  0.0873
 2001SOL    HW3 7771   5.825   4.799   6.136 -0.0169  1.1601  1.4511
 2001SOL    MW4 7772   5.760   4.815   6.080  0.6545  0.0659  0.2954
 2002SOL     OW 7773   0.720   0.307   6.226 -0.4526 -0.0970  0.0952
 2002SOL    HW2 7774   0.806   0.344   6.249 -0.9840  1.2810 -0.0404
 2002SOL    HW3 7775   0.729   0.281   6.134 -0.7591  1.9513 -0.5617
 2002SOL    MW4 7776   0.733   0.309   6.217 -0.5632  0.3551 -0.0093
 2003SOL     OW 7777   4.745   2.872   2.384  0.1969  0.6423  0.1577
 2003SOL    HW2 7778   4.760   2.946   2.444 -1.5990 -0.5216  2.1665
 2003SOL    HW3 7779   4.729   2.797   2.441 -0.0572 -0.8995 -1.8147
 2003SOL    MW4 7780   4.745   2.872   2.400 -0.0736  0.2853  0.1625
 2004SOL     OW 7781   3.697   3.045   1.144  0.2371 -0.5233 -0.5590
 2004SOL    HW2 7782   3.627   2.999   1.097 -2.3080  2.3530  0.1298
 2004SOL    HW3 7783   3.654   3.122   1.181  3.6387  0.9260  0.7081
 2004SOL    MW4 7784   3.682   3.049   1.143  0.3501  0.0474 -0.3010
 2005SOL     OW 7785   2.036   1.837   0.690 -0.0169 -0.0719  0.0419
 2005SOL    HW2 7786   2.060   1.919   0.733  0.7274 -0.8422  1.1627
 2005SOL    HW3 7787   1.941   1.844   0.675  0.2359  1.4792 -1.0191
 2005SOL    MW4 7788   2.026   1.849   0.694  0.1146  0.0311  0.0498
 2006SOL     OW 7789   2.233   4.827   0.469 -0.3115 -0.6827  0.0461
 2006SOL    HW2 7790   2.218   4.867   0.383  1.3545 -1.2578 -0.5527
 2006SOL    HW3 7791   2.179   4.749   0.469 -0.4414 -0.5967 -0.4291
 2006SOL    MW4 7792   2.224   4.822   0.458 -0.1088 -0.7472 -0.0956
 2007SOL     OW 7793   3.869   3.603   4.061  0.0909  0.1893 -0.1730
 2007SOL    HW2 7794   3.935   3.642   4.119 -1.0847  0.8556  0.7538
 2007SOL    HW3 7795   3.818   3.678   4.030  0.6654 -0.1524 -2.0860
 2007SOL    MW4 7796   3.871   3.618   4.064  0.0116  0.2321 -0.3031
 2008SOL     OW 7797   2.535   4.212   6.221  0.0243  0.6151  0.0338
 2008SOL    HW2 7798   2.468   4.276   6.197  0.2519  0.2287 -1.8229
 2008SOL    HW3 7799   2.605   4.227   6.158  0.5015 -0.7980  0.2031
 2008SOL    MW4 7800   2.535   4.223   6.209  0.1173  0.3776 -0.1888
 2009SOL     OW 7801   0.317   2.937   6.174  0.1086  0.0400 -0.7747
 2009SOL    HW2 7802   0.398   2.924   6.124  0.6028 -0.4811  0.1279
 2009SOL    HW3 7803   0.346   2.977   6.256 -0.8662  2.3958 -1.4916
 2009SOL    MW4 7804   0.331   2.940   6.178  0.0452  0.2821 -0.7502
 2010SOL     OW 7805   3.919   0.220   0.588 -0.2527 -0.0171 -0.3364
 2010SOL    HW2 7806   3.837   0.172   0.597  1.2404 -2.6232  0.5635
 2010SOL    HW3 7807   3.912   0.264   0.504 -2.2636 -0.7638 -0.6152
 2010SOL    MW4 7808   3.908   0.219   0.578 -0.3210 -0.4595 -0.2545
 2011SOL     OW 7809   3.052   2.455   6.333 -0.3261 -0.0990 -0.2895
 2011SOL    HW2 7810   2.983   2.521   6.345 -0.6692 -0.2393 -1.4130
 2011SOL    HW3 7811   3.133   2.501   6.357 -0.7863  0.1059  0.9079
 2011SOL    MW4 7812   3.054   2.470   6.338 -0.4321 -0.0905 -0.2797
 2012SOL     OW 7813   3.981   4.183   0.752  0.5592  0.3223  0.1746
 2012SOL    HW2 7814   3.964   4.208   0.661 -0.4653  0.7818  0.4813
 2012SOL    HW3 7815   3.937   4.099   0.762  0.5100  0.3626  0.2948
 2012SOL    MW4 7816   3.973   4.175   0.741  0.4176  0.3882  0.2309
 2013SOL     OW 7817   1.069   5.891   0.517 -0.3409  0.3149  0.0663
 2013SOL    HW2 7818   1.122   5.897   0.437 -1.2411  1.1856 -0.4828
 2013SOL    HW3 7819   0.980   5.911   0.488 -0.9005 -0.6488  1.0676
 2013SOL    MW4 7820   1.064   5.894   0.502 -0.5335  0.3026  0.1260
 2014SOL     OW 7821   2.208   0.081   4.466  0.3546 -0.0277  0.2646
 2014SOL    HW2 7822   2.247  -0.006   4.461  1.0253  0.3073 -0.4541
 2014SOL    HW3 7823   2.262   0.128   4.530  0.7365  0.2265 -0.2357
 2014SOL    MW4 7824   2.220   0.076   4.474  0.4935  0.0501  0.1038
 2015SOL     OW 7825   2.810   0.503   5.043 -0.4820  0.0504  0.5777
 2015SOL    HW2 7826   2.760   0.460   4.973 -0.4533  2.2595 -0.9034
 2015SOL    HW3 7827   2.901   0.494   5.016 -0.5229  1.7723 -0.2709
 2015SOL    MW4 7828   2.815   0.496   5.030 -0.4836  0.5690  0.2704
 2016SOL     OW 7829   4.868   4.396   6.202  0.2740  0.2174  0.4956
 2016SOL    HW2 7830   4.869   4.456   6.277  0.2806  1.9615 -0.8481
 2016SOL    HW3 7831   4.796   4.336   6.221  0.5474  0.3288  2.0945
 2016SOL    MW4 7832   4.859   4.396   6.215  0.3110  0.4622  0.5293
 2017SOL     OW 7833   6.421   5.719   2.319  0.1877 -0.4620  0.1004
 2017SOL    HW2 7834   6.427   5.765   2.235  0.0012  0.0230  0.3499
 2017SOL    HW3 7835   6.512   5.706   2.346  0.2404  0.5551  0.4493
 2017SOL    MW4 7836   6.434   5.723   2.312  0.1701 -0.2638  0.1793
 2018SOL     OW 7837   4.251   1.294   4.296  0.2925 -0.6859 -0.1476
 2018SOL    HW2 7838   4.231   1.322   4.207  0.5449  0.2010  0.0576
 2018SOL    HW3 7839   4.346   1.302   4.303  0.3277 -1.2395  0.0457
 2018SOL    MW4 7840   4.261   1.299   4.285  0.3304 -0.6419 -0.0950
 2019SOL     OW 7841   1.414   6.326   2.500 -0.0806 -0.2568  0.0723
 2019SOL    HW2 7842   1.378   6.254   2.449 -1.8693  2.3000 -2.6275
 2019SOL    HW3 7843   1.498   6.346   2.459 -0.7820  0.7586 -0.9566
 2019SOL    MW4 7844   1.420   6.319   2.488 -0.4092  0.2145 -0.4197
 2020SOL     OW 7845   5.046   4.196   4.634  0.2818  0.3528  0.2468
 2020SOL    HW2 7846   5.129   4.165   4.599 -0.4954 -0.4052 -0.9988
 2020SOL    HW3 7847   5.044   4.162   4.724  0.1317 -2.0108 -0.5790
 2020SOL    MW4 7848   5.056   4.187   4.641  0.1594 -0.0590 -0.0265
 2021SOL     OW 7849   5.079   2.286   1.413 -0.0955  0.7948  0.1703
 2021SOL    HW2 7850   5.036   2.361   1.373 -0.6200  0.2457 -0.3010
 2021SOL    HW3 7851   5.081   2.306   1.507 -2.2038  0.4218  0.3232
 2021SOL    MW4 7852   5.074   2.299   1.420 -0.4428  0.6732  0.1283
 2022SOL     OW 7853   3.106   3.792   2.773  0.5795 -1.3969 -0.4519
 2022SOL    HW2 7854   3.145   3.726   2.831  0.0667 -1.6467 -0.3904
 2022SOL    HW3 7855   3.064   3.854   2.832 -0.9064 -2.2469 -0.5719
 2022SOL    MW4 7856   3.106   3.791   2.788  0.3158 -1.5420 -0.4596
 2023SOL     OW 7857   4.079   5.958   4.154  0.1849  1.0361  0.0781
 2023SOL    HW2 7858   4.086   5.973   4.059  2.0609 -0.6673 -0.1168
 2023SOL    HW3 7859   4.163   5.987   4.189  0.8097 -1.3622  0.7292
 2023SOL    MW4 7860   4.091   5.964   4.146  0.5149  0.4949  0.1383
 2024SOL     OW 7861   4.392   6.324   1.623 -0.3635 -0.2730 -0.4679
 2024SOL    HW2 7862   4.473   6.319   1.674 -0.8647 -0.8063  0.3060
 2024SOL    HW3 7863   4.408   6.266   1.548  0.8973  1.5908 -1.7374
 2024SOL    MW4 7864   4.405   6.315   1.620 -0.2633 -0.0975 -0.5333
 2025SOL     OW 7865   4.691   0.297   2.497 -0.0638  0.7907 -0.0459
 2025SOL    HW2 7866   4.723   0.378   2.537  0.6097  0.7565 -0.5051
 2025SOL    HW3 7867   4.728   0.228   2.552  0.6520  0.7523 -0.5592
 2025SOL    MW4 7868   4.700   0.299   2.510  0.1195  0.7811 -0.1742
 2026SOL     OW 7869   5.583   0.550   5.668 -0.0379 -0.1022  0.3156
 2026SOL    HW2 7870   5.565   0.618   5.604  1.2143 -1.9558 -2.1929
 2026SOL    HW3 7871   5.662   0.579   5.713 -0.4067  0.7966  0.4027
 2026SOL    MW4 7872   5.591   0.563   5.665  0.0786 -0.2281 -0.0039
 2027SOL     OW 7873   3.219   3.904   5.584  0.5044  0.2768  0.5316
 2027SOL    HW2 7874   3.209   3.809   5.597 -1.3257  0.4744  0.7508
 2027SOL    HW3 7875   3.163   3.924   5.509 -0.0301  1.3557  1.1931
 2027SOL    MW4 7876   3.211   3.894   5.576  0.1924  0.4452  0.6478
 2028SOL     OW 7877   2.883   4.973   6.219  0.8103  0.0584 -0.2895
 2028SOL    HW2 7878   2.799   4.996   6.258  0.6439 -0.8587 -0.0691
 2028SOL    HW3 7879   2.867   4.973   6.125  0.1131 -1.6297 -0.2153
 2028SOL    MW4 7880   2.870   4.976   6.212  0.6964 -0.2853 -0.2506
 2029SOL     OW 7881   5.801   6.426   0.778  0.1472 -0.5553  0.3910
 2029SOL    HW2 7882   5.730   6.375   0.816  1.1112 -2.1486  0.1507
 2029SOL    HW3 7883   5.875   6.365   0.773  1.0103  0.5197 -1.0187
 2029SOL    MW4 7884   5.801   6.411   0.782  0.3883 -0.6237  0.1733
 2030SOL     OW 7885   0.442   0.888   4.151 -0.1036 -0.1096 -0.9973
 2030SOL    HW2 7886   0.487   0.843   4.222 -1.8553 -0.0477  0.2137
 2030SOL    HW3 7887   0.503   0.885   4.077  1.0218 -1.7789 -0.0399
 2030SOL    MW4 7888   0.456   0.882   4.150 -0.1862 -0.3217 -0.7112
 2031SOL     OW 7889   0.909   3.795   1.878 -0.3069 -0.0927 -0.3915
 2031SOL    HW2 7890   0.908   3.713   1.830  0.3583 -0.3916  0.0882
 2031SOL    HW3 7891   0.990   3.838   1.851 -0.7326  0.4861 -0.7653
 2031SOL    MW4 7892   0.920   3.790   1.868 -0.2753 -0.0558 -0.3775
 2032SOL     OW 7893   5.402   3.221   1.592  0.0982 -0.4064  0.0089
 2032SOL    HW2 7894   5.443   3.153   1.538  0.7248  0.1689 -0.2505
 2032SOL    HW3 7895   5.384   3.292   1.531  0.7722  0.2335  0.5437
 2032SOL    MW4 7896   5.405   3.221   1.577  0.2698 -0.2461  0.0453
 2033SOL     OW 7897   4.258   4.433   0.103 -0.2482 -0.5213  0.3560
 2033SOL    HW2 7898   4.239   4.368   0.172  1.2003 -1.8496 -0.4261
 2033SOL    HW3 7899   4.210   4.401   0.027  0.7656 -0.9096 -0.1370
 2033SOL    MW4 7900   4.249   4.420   0.102  0.0767 -0.7478  0.1878
 2034SOL     OW 7901   0.953   1.149   4.974  0.4638 -0.0618  0.0490
 2034SOL    HW2 7902   0.951   1.055   4.991  2.1021 -0.0003  0.7867
 2034SOL    HW3 7903   0.956   1.156   4.878 -1.9531 -0.6409 -0.1351
 2034SOL    MW4 7904   0.953   1.138   4.963  0.3611 -0.1301  0.1220
 2035SOL     OW 7905   1.641   3.053   3.883 -0.1170 -0.1177 -0.1915
 2035SOL    HW2 7906   1.590   2.984   3.840 -0.0001 -1.1133  1.2149
 2035SOL    HW3 7907   1.626   3.130   3.829 -2.4257 -0.5858 -0.3352
 2035SOL    MW4 7908   1.632   3.054   3.870 -0.4061 -0.3108 -0.0249
 2036SOL     OW 7909   6.384   3.526   2.124  0.4350  0.1973  0.0494
 2036SOL    HW2 7910   6.450   3.545   2.058  0.4601 -1.2138 -0.3758
 2036SOL    HW3 7911   6.434   3.501   2.202  0.5027 -2.2836 -0.6898
 2036SOL    MW4 7912   6.399   3.525   2.125  0.4473 -0.3162 -0.1042
 2037SOL     OW 7913   1.019   2.959   4.502 -0.3256  0.3247 -0.3251
 2037SOL    HW2 7914   0.945   2.900   4.502  0.5183 -0.7781  0.7172
 2037SOL    HW3 7915   1.054   2.954   4.413  1.3940 -2.9719  0.3911
 2037SOL    MW4 7916   1.014   2.951   4.490  0.0126 -0.2557 -0.0931
 2038SOL     OW 7917   0.797   5.860   3.321 -0.3404  0.1138 -0.0064
 2038SOL    HW2 7918   0.862   5.923   3.351 -0.0476 -0.3518  0.3529
 2038SOL    HW3 7919   0.742   5.909   3.260  0.2404  0.5617 -0.1811
 2038SOL    MW4 7920   0.799   5.875   3.317 -0.2251  0.1114  0.0179
 2039SOL     OW 7921   5.633   0.596   1.260 -0.1976 -0.0281 -0.0238
 2039SOL    HW2 7922   5.710   0.640   1.295  0.4113 -2.0874  1.3965
 2039SOL    HW3 7923   5.609   0.648   1.183  1.1270  2.0502  0.8740
 2039SOL    MW4 7924   5.640   0.609   1.254  0.0575 -0.0256  0.2821
 2040SOL     OW 7925   4.590   2.426   0.793  0.1469  0.0372 -0.3180
 2040SOL    HW2 7926   4.611   2.491   0.726  3.0385 -0.1879  0.2312
 2040SOL    HW3 7927   4.557   2.477   0.867 -3.0000  0.2944 -1.7366
 2040SOL    MW4 7928   4.589   2.441   0.794  0.1132  0.0414 -0.4327
 2041SOL     OW 7929   6.015   2.002   0.135 -0.1765  0.4955 -0.2055
 2041SOL    HW2 7930   5.949   2.046   0.188 -1.6750  0.7610 -2.1804
 2041SOL    HW3 7931   6.076   2.072   0.111 -2.6106  1.7620 -3.4207
 2041SOL    MW4 7932   6.015   2.017   0.139 -0.6954  0.6976 -0.8903
 2042SOL     OW 7933   5.826   0.951   4.833 -0.3905  0.1050 -0.0014
 2042SOL    HW2 7934   5.773   0.949   4.753 -1.3365 -2.2186  0.5995
 2042SOL    HW3 7935   5.798   1.031   4.878 -2.9351 -0.6567 -0.0553
 2042SOL    MW4 7936   5.815   0.962   4.829 -0.8510 -0.3021  0.0708
 2043SOL     OW 7937   2.149   4.197   4.237  0.1794  0.3356  0.2317
 2043SOL    HW2 7938   2.181   4.254   4.306  0.1866 -1.1377  1.5070
 2043SOL    HW3 7939   2.177   4.239   4.156  1.3473  1.4296  1.1621
 2043SOL    MW4 7940   2.157   4.210   4.235  0.3344  0.2856  0.5227
 2044SOL     OW 7941   0.263   0.678   2.013  0.0630  0.1994  0.3974
 2044SOL    HW2 7942   0.266   0.748   2.078  2.6167  1.3746 -0.8109
 2044SOL    HW3 7943   0.345   0.630   2.026  0.1387 -0.1733 -1.2362
 2044SOL    MW4 7944   0.274   0.681   2.023  0.4099  0.3053  0.0224
 2045SOL     OW 7945   5.708   6.162   2.416  0.1538 -0.3095 -0.2000
 2045SOL    HW2 7946   5.637   6.206   2.463  2.0511  4.1233 -0.9995
 2045SOL    HW3 7947   5.783   6.167   2.475  0.8190 -1.2233 -0.9438
 2045SOL    MW4 7948   5.708   6.169   2.430  0.4919  0.1548 -0.4036
 2046SOL     OW 7949   0.038   0.420   0.699  0.0999  0.7993  0.5780
 2046SOL    HW2 7950   0.026   0.475   0.777 -0.0414  0.1490  1.0266
 2046SOL    HW3 7951  -0.051   0.405   0.667  0.2668  2.6732 -0.8696
 2046SOL    MW4 7952   0.025   0.425   0.705  0.1033  0.9608  0.4462
 2047SOL     OW 7953   1.396   4.538   5.435  0.0557  0.3541 -0.1526
 2047SOL    HW2 7954   1.418   4.613   5.491 -1.1026  0.3794  0.3048
 2047SOL    HW3 7955   1.426   4.563   5.348  1.0008  0.7360  0.2723
 2047SOL    MW4 7956   1.403   4.551   5.431  0.0276  0.4078 -0.0362
 2048SOL     OW 7957   5.858   4.836   2.286 -0.2808  0.2961  0.1688
 2048SOL    HW2 7958   5.937   4.837   2.341 -1.3913  0.8633  1.8515
 2048SOL    HW3 7959   5.835   4.743   2.280 -0.1886  0.2273  0.7690
 2048SOL    MW4 7960   5.866   4.824   2.293 -0.4151  0.3619  0.4700
 2049SOL     OW 7961   1.896   2.294   0.838  0.0221 -0.3456  0.4344
 2049SOL    HW2 7962   1.808   2.301   0.802  0.3715  1.1930 -0.2090
 2049SOL    HW3 7963   1.886   2.307   0.932 -0.1772  3.2167  0.0722
 2049SOL    MW4 7964   1.883   2.297   0.845  0.0419  0.3274  0.3017
 2050SOL     OW 7965   6.176   6.030   5.179 -0.1382  0.5576 -0.7576
 2050SOL    HW2 7966   6.207   6.013   5.090 -1.2472  2.4845 -1.5519
 2050SOL    HW3 7967   6.122   6.108   5.172  0.1930  1.0900  1.7215
 2050SOL    MW4 7968   6.173   6.038   5.167 -0.2408  0.8821 -0.5353
 2051SOL     OW 7969   4.043   3.405   6.237 -0.2507 -0.0826  0.0750
 2051SOL    HW2 7970   4.085   3.320   6.219 -0.7043 -0.1606 -0.6456
 2051SOL    HW3 7971   4.099   3.469   6.193 -0.1186 -0.0440  0.2978
 2051SOL    MW4 7972   4.056   3.402   6.229 -0.2931 -0.0878  0.0093
 2052SOL     OW 7973   4.797   0.034   4.157 -0.1253  0.2686  0.0724
 2052SOL    HW2 7974   4.742   0.071   4.226 -0.4404  0.9038 -0.4971
 2052SOL    HW3 7975   4.886   0.041   4.191 -0.2645  0.6917  0.3700
 2052SOL    MW4 7976   4.801   0.040   4.170 -0.1853  0.4082  0.0365
 2053SOL     OW 7977   5.190   4.678   4.002  0.2242  0.3215 -0.2038
 2053SOL    HW2 7978   5.230   4.748   4.055  2.1365  0.2725 -1.5085
 2053SOL    HW3 7979   5.243   4.675   3.923 -1.1897 -1.1553 -1.1325
 2053SOL    MW4 7980   5.202   4.687   3.999  0.2900  0.1202 -0.4984
 2054SOL     OW 7981   4.042   2.784   3.609  0.1368  0.0755 -0.4536
 2054SOL    HW2 7982   4.045   2.750   3.698 -0.1716  1.0816 -0.0503
 2054SOL    HW3 7983   4.065   2.709   3.554  0.4523 -0.5199  0.4734
 2054SOL    MW4 7984   4.045   2.769   3.613  0.1377  0.1297 -0.2781
 2055SOL     OW 7985   5.206   5.652   2.056 -0.0638  0.4372  0.2142
 2055SOL    HW2 7986   5.248   5.613   2.133 -0.0269  2.6560  1.4198
 2055SOL    HW3 7987   5.273   5.712   2.021 -0.3947  0.0997 -1.0567
 2055SOL    MW4 7988   5.221   5.655   2.062 -0.1026  0.6854  0.2056
 2056SOL     OW 7989   3.905   5.012   1.386 -0.4790  0.0025 -0.4986
 2056SOL    HW2 7990   3.814   4.982   1.392  0.1682 -1.8958  0.7038
 2056SOL    HW3 7991   3.934   4.983   1.300 -0.5584 -0.8563 -0.2493
 2056SOL    MW4 7992   3.897   5.004   1.375 -0.4041 -0.3612 -0.3071
 2057SOL     OW 7993   3.645   4.201   0.542 -0.3174 -0.3065  0.0469
 2057SOL    HW2 7994   3.596   4.201   0.460  1.9187  0.4660 -1.4074
 2057SOL    HW3 7995   3.599   4.263   0.598 -1.5002 -0.2998 -0.9024
 2057SOL    MW4 7996   3.633   4.210   0.539 -0.1785 -0.2037 -0.2702
 2058SOL     OW 7997   0.215   3.828   3.266  0.7077  0.1962  0.2462
 2058SOL    HW2 7998   0.229   3.892   3.336 -0.5190  3.2727 -2.0556
 2058SOL    HW3 7999   0.121   3.833   3.247  1.0924  0.0541 -2.0233
 2058SOL    MW4 8000   0.204   3.837   3.273  0.5966  0.5834 -0.3570
 2059SOL     OW 8001   3.080   4.677   0.892 -0.1374  0.3805  0.1087
 2059SOL    HW2 8002   3.158   4.689   0.838 -0.5586  0.3901 -0.5063
 2059SOL    HW3 8003   3.007   4.703   0.836 -0.5973  0.2539  0.6337
 2059SOL    MW4 8004   3.080   4.682   0.878 -0.2536  0.3651  0.0968
 2060SOL     OW 8005   1.149   1.466   5.773 -0.0056 -0.5112 -0.1718
 2060SOL    HW2 8006   1.217   1.423   5.721  0.5530  2.0882 -1.7573
 2060SOL    HW3 8007   1.190   1.545   5.807 -2.2096  1.2935 -1.3964
 2060SOL    MW4 8008   1.163   1.471   5.771 -0.2227  0.0699 -0.5426
 2061SOL     OW 8009   4.644   2.525   0.180  0.2774  0.2231 -0.3262
 2061SOL    HW2 8010   4.604   2.468   0.114  0.6051  0.9170 -1.1512
 2061SOL    HW3 8011   4.736   2.531   0.153  0.1264  1.5985 -0.6035
 2061SOL    MW4 8012   4.651   2.518   0.168  0.3007  0.4961 -0.4716
 2062SOL     OW 8013   3.916   0.981   2.195  0.8553 -0.3172 -0.2497
 2062SOL    HW2 8014   3.926   0.945   2.283  1.5476 -2.6508 -1.1953
 2062SOL    HW3 8015   3.993   0.949   2.147  2.2120  3.4885 -0.9841
 2062SOL    MW4 8016   3.928   0.972   2.200  1.1256 -0.1230 -0.4714
 2063SOL     OW 8017   6.358   4.342   6.255  0.4906  0.0328  0.4440
 2063SOL    HW2 8018   6.447   4.364   6.283  0.6648  0.6309 -0.5321
 2063SOL    HW3 8019   6.309   4.423   6.269  0.5669  0.3248 -0.8615
 2063SOL    MW4 8020   6.364   4.356   6.261  0.5237  0.1502  0.1429
 2064SOL     OW 8021   5.856   6.023   0.120  0.0504 -0.2597 -0.3875
 2064SOL    HW2 8022   5.857   6.118   0.117 -1.2256 -0.0548  2.2816
 2064SOL    HW3 8023   5.948   5.997   0.118  0.4648  1.1079  0.0068
 2064SOL    MW4 8024   5.868   6.032   0.119 -0.0633 -0.0522  0.0167
 2065SOL     OW 8025   3.882   3.478   3.809  0.2942 -0.0039 -0.0714
 2065SOL    HW2 8026   3.943   3.409   3.836  1.7027  1.6370  1.1232
 2065SOL    HW3 8027   3.872   3.534   3.886 -0.6603  1.2367 -1.0479
 2065SOL    MW4 8028   3.889   3.476   3.823  0.3541  0.3763 -0.0426
 2066SOL     OW 8029   3.870   4.488   6.203  0.4525 -0.3879 -0.0811
 2066SOL    HW2 8030   3.954   4.471   6.162  0.5182 -0.7880  0.2174
 2066SOL    HW3 8031   3.809   4.498   6.130  0.8370  0.3791 -0.3153
 2066SOL    MW4 8032   3.873   4.487   6.188  0.5119 -0.3395 -0.0726
 2067SOL     OW 8033   1.306   3.055   6.407  0.1344  0.8186 -0.1030
 2067SOL    HW2 8034   1.316   2.990   6.338 -0.0675  1.0951 -0.3972
 2067SOL    HW3 8035   1.395   3.069   6.441  0.3194  1.0860 -0.6845
 2067SOL    MW4 8036   1.319   3.049   6.403  0.1322  0.8904 -0.2185
 2068SOL     OW 8037   0.877   1.282   0.537  0.0356 -0.3874  0.5151
 2068SOL    HW2 8038   0.920   1.227   0.603 -0.3806  3.5854  4.5288
 2068SOL    HW3 8039   0.787   1.290   0.567 -0.0633  1.9619 -0.2372
 2068SOL    MW4 8040   0.871   1.276   0.550 -0.0324  0.4467  0.9454
 2069SOL     OW 8041   1.019   2.129   6.250 -0.3526  0.3572  0.3223
 2069SOL    HW2 8042   0.945   2.082   6.290 -0.6500 -0.2699 -0.9155
 2069SOL    HW3 8043   1.096   2.091   6.292 -0.5574 -1.6518 -0.9763
 2069SOL    MW4 8044   1.019   2.117   6.261 -0.4189  0.0094 -0.0123
 2070SOL     OW 8045   3.635   4.492   0.228 -0.0435 -0.1661 -0.1598
 2070SOL    HW2 8046   3.559   4.519   0.177 -0.1870 -0.1806  0.0457
 2070SOL    HW3 8047   3.655   4.404   0.198 -0.7338 -0.5612  0.5033
 2070SOL    MW4 8048   3.628   4.484   0.217 -0.1535 -0.2202 -0.0452
 2071SOL     OW 8049   5.119   5.592   0.967 -0.1281  0.0282 -0.0538
 2071SOL    HW2 8050   5.039   5.581   1.018  0.6026 -0.7103  0.9860
 2071SOL    HW3 8051   5.169   5.659   1.015 -0.2546  0.7065 -0.8639
 2071SOL    MW4 8052   5.115   5.599   0.980 -0.0484  0.0203 -0.0235
 2072SOL     OW 8053   0.555   3.328   0.626  0.0163 -0.0419  0.8586
 2072SOL    HW2 8054   0.470   3.304   0.663 -0.6348  1.3052  0.3046
 2072SOL    HW3 8055   0.590   3.392   0.688  0.4343 -0.2701  0.8585
 2072SOL    MW4 8056   0.548   3.333   0.639 -0.0144  0.1057  0.7855
 2073SOL     OW 8057   2.765   1.566   6.163 -0.3833 -0.2151 -0.2195
 2073SOL    HW2 8058   2.818   1.571   6.243  0.3510 -1.2300 -0.6265
 2073SOL    HW3 8059   2.675   1.562   6.195 -0.1764  0.5138  0.5175
 2073SOL    MW4 8060   2.760   1.566   6.178 -0.2591 -0.2528 -0.1760
 2074SOL     OW 8061   0.326   5.431   4.742  0.0229  0.5178  0.5200
 2074SOL    HW2 8062   0.243   5.428   4.790  0.5330  0.5491  1.4432
 2074SOL    HW3 8063   0.335   5.522   4.716  0.3692  0.7922  1.5480
 2074SOL    MW4 8064   0.316   5.442   4.745  0.1359  0.5581  0.7774
 2075SOL     OW 8065   3.597   2.108   1.823 -0.2868  0.3238  0.4717
 2075SOL    HW2 8066   3.505   2.131   1.818 -1.1489 -2.2928  2.2585
 2075SOL    HW3 8067   3.621   2.084   1.734 -0.9814  2.0517 -0.2160
 2075SOL    MW4 8068   3.588   2.108   1.811 -0.4922  0.2066  0.6167
 2076SOL     OW 8069   1.729   1.406   1.151 -0.0366 -0.0486 -0.1344
 2076SOL    HW2 8070   1.751   1.459   1.074 -1.0804  0.3117 -0.1997
 2076SOL    HW3 8071   1.715   1.318   1.116 -0.2545  0.0598 -0.3247
 2076SOL    MW4 8072   1.730   1.401   1.136 -0.2031  0.0132 -0.1681
 2077SOL     OW 8073   3.850   1.137   3.672  0.3916  0.9396  0.2227
 2077SOL    HW2 8074   3.912   1.208   3.689  1.1011  0.1790  0.8728
 2077SOL    HW3 8075   3.841   1.092   3.756  0.6466 -0.2838 -0.3848
 2077SOL    MW4 8076   3.857   1.141   3.685  0.5188  0.6778  0.2283
 2078SOL     OW 8077   3.006   5.150   4.341 -0.2344 -0.3680  0.4667
 2078SOL    HW2 8078   3.037   5.168   4.430  0.0865 -1.8200  0.6666
 2078SOL    HW3 8079   3.082   5.166   4.286 -0.0970 -0.6228  0.5824
 2078SOL    MW4 8080   3.020   5.155   4.346 -0.1739 -0.5932  0.5084
 2079SOL     OW 8081   3.844   2.590   5.901  0.1373 -0.6641  1.1104
 2079SOL    HW2 8082   3.895   2.521   5.858 -0.5516  0.0871 -1.0470
 2079SOL    HW3 8083   3.905   2.663   5.911 -0.5552  0.5506 -2.2618
 2079SOL    MW4 8084   3.858   2.590   5.897 -0.0450 -0.4048  0.3808
 2080SOL     OW 8085   6.235   3.693   3.716 -0.2422 -0.1841 -0.1023
 2080SOL    HW2 8086   6.143   3.719   3.721 -0.2147  0.9025 -3.1246
 2080SOL    HW3 8087   6.257   3.665   3.805 -3.4545 -0.4722  0.7289
 2080SOL    MW4 8088   6.226   3.693   3.729 -0.6624 -0.0787 -0.3914
 2081SOL     OW 8089   5.016   4.349   0.472 -0.5995  0.1341 -0.0104
 2081SOL    HW2 8090   5.001   4.345   0.566 -0.5424  0.2804  0.0057
 2081SOL    HW3 8091   5.099   4.396   0.463 -1.2353  1.2581 -0.1807
 2081SOL    MW4 8092   5.025   4.355   0.483 -0.6759  0.3017 -0.0308
 2082SOL     OW 8093   6.212   1.707   1.850 -0.0019  0.4706  0.7231
 2082SOL    HW2 8094   6.165   1.789   1.838 -0.6908  0.0471  0.4386
 2082SOL    HW3 8095   6.275   1.704   1.778 -0.0513  0.6928  0.6706
 2082SOL    MW4 8096   6.214   1.717   1.839 -0.0993  0.4441  0.6787
 2083SOL     OW 8097   3.187   0.941   3.680 -0.6753 -0.2354  0.4994
 2083SOL    HW2 8098   3.267   0.927   3.629 -0.8855 -0.3755  0.2068
 2083SOL    HW3 8099   3.195   1.030   3.714 -0.5690 -0.1166  0.1635
 2083SOL    MW4 8100   3.199   0.951   3.678 -0.6890 -0.2382  0.4165
 2084SOL     OW 8101   1.723   3.945   1.597  0.7706 -0.7559 -0.0496
 2084SOL    HW2 8102   1.771   4.026   1.581  1.0056 -1.1021 -1.1789
 2084SOL    HW3 8103   1.652   3.946   1.533 -1.1220 -0.0019  1.9105
 2084SOL    MW4 8104   1.720   3.956   1.587  0.5519 -0.7021  0.0600
 2085SOL     OW 8105   6.340   1.567   6.095  0.1661  0.1235 -0.2907
 2085SOL    HW2 8106   6.272   1.618   6.051 -0.8812  0.6700  1.8080
 2085SOL    HW3 8107   6.386   1.522   6.025 -0.4323  2.0740 -2.0404
 2085SOL    MW4 8108   6.337   1.568   6.080 -0.0510  0.4529 -0.2446
 2086SOL     OW 8109   4.716   5.735   3.826 -0.2701 -0.7233  0.2106
 2086SOL    HW2 8110   4.673   5.819   3.808  2.1848  0.4755 -0.4349
 2086SOL    HW3 8111   4.714   5.728   3.922 -1.1235 -0.3017  0.2381
 2086SOL    MW4 8112   4.710   5.745   3.837 -0.0588 -0.5095  0.1290
 2087SOL     OW 8113   3.635   2.177   1.364  0.1737 -0.2289  0.4595
 2087SOL    HW2 8114   3.613   2.089   1.332 -0.2639  0.5224 -1.3986
 2087SOL    HW3 8115   3.573   2.235   1.320  2.0233  1.2899 -0.2628
 2087SOL    MW4 8116   3.623   2.173   1.354  0.3600  0.0707  0.1190
 2088SOL     OW 8117   0.781   2.642   0.769  0.6412  0.5903  0.6158
 2088SOL    HW2 8118   0.748   2.552   0.775 -0.4668  0.9386  0.0238
 2088SOL    HW3 8119   0.753   2.671   0.682  3.5150  0.5301 -0.4342
 2088SOL    MW4 8120   0.773   2.634   0.758  0.8742  0.6283  0.3992
 2089SOL     OW 8121   3.973   4.317   4.060  0.1992 -0.7917  0.8394
 2089SOL    HW2 8122   3.953   4.396   4.110  0.1604 -0.6464  0.5947
 2089SOL    HW3 8123   3.970   4.246   4.125  1.5102 -0.4381  1.3208
 2089SOL    MW4 8124   3.970   4.318   4.075  0.3671 -0.7259  0.8706
 2090SOL     OW 8125   1.746   2.260   5.874  0.0972 -0.1211  0.5192
 2090SOL    HW2 8126   1.670   2.299   5.832  0.1355  0.3981  0.9188
 2090SOL    HW3 8127   1.736   2.284   5.967  1.2527  0.7812  0.4221
 2090SOL    MW4 8128   1.734   2.268   5.881  0.2547  0.0664  0.5591
 2091SOL     OW 8129   4.426   1.638   2.336  0.0162  0.2621  0.1723
 2091SOL    HW2 8130   4.403   1.562   2.282 -0.2730 -1.2651  2.3211
 2091SOL    HW3 8131   4.520   1.651   2.321 -0.6277  2.0423 -3.1954
 2091SOL    MW4 8132   4.435   1.630   2.327 -0.1070  0.2955  0.0115
 2092SOL     OW 8133   1.812   0.025   5.162 -0.2328 -0.0863 -0.0452
 2092SOL    HW2 8134   1.774   0.073   5.088  1.1763  1.2979  0.0676
 2092SOL    HW3 8135   1.747   0.032   5.232 -1.6080 -1.4626 -1.1269
 2092SOL    MW4 8136   1.798   0.032   5.161 -0.2283 -0.0853 -0.1731
 2093SOL     OW 8137   2.982   5.668   2.994  0.3104  0.3407 -0.0952
 2093SOL    HW2 8138   3.044   5.700   3.060 -0.2005 -0.1633  0.6428
 2093SOL    HW3 8139   3.012   5.708   2.912  0.0985  2.1492  0.6649
 2093SOL    MW4 8140   2.994   5.678   2.992  0.2150  0.5128  0.1025
 2094SOL     OW 8141   2.786   3.038   1.160 -0.1359  0.3688 -0.4444
 2094SOL    HW2 8142   2.791   3.006   1.250  0.0280 -1.7598 -1.1723
 2094SOL    HW3 8143   2.698   3.077   1.154  0.3734  1.8853  1.0018
 2094SOL    MW4 8144   2.775   3.039   1.171 -0.0471  0.2880 -0.3496
 2095SOL     OW 8145   5.802   1.045   2.517 -0.0099 -0.1119  0.0759
 2095SOL    HW2 8146   5.770   0.976   2.576 -0.6730 -1.9493 -2.2777
 2095SOL    HW3 8147   5.727   1.103   2.505 -0.7095 -1.1981 -0.9589
 2095SOL    MW4 8148   5.788   1.044   2.523 -0.1897 -0.4976 -0.3712
 2096SOL     OW 8149   2.976   0.093   4.400 -0.2328  0.0659  0.2889
 2096SOL    HW2 8150   2.886   0.073   4.374  0.0003 -0.8206  0.1307
 2096SOL    HW3 8151   3.029   0.026   4.356  0.2593 -1.0063  2.3741
 2096SOL    MW4 8152   2.971   0.081   4.391 -0.1371 -0.1926  0.5432
 2097SOL     OW 8153   3.941   5.066   5.190  0.1778  0.2525  0.2093
 2097SOL    HW2 8154   4.014   5.108   5.236  0.0836  0.3760  0.2454
 2097SOL    HW3 8155   3.904   5.006   5.254 -0.0191  0.5004  0.3315
 2097SOL    MW4 8156   3.946   5.064   5.205  0.1394  0.3015  0.2302
 2098SOL     OW 8157   0.646   3.781   0.492 -0.0137  0.6011 -0.2344
 2098SOL    HW2 8158   0.629   3.803   0.584  0.6951 -0.0999  0.0773
 2098SOL    HW3 8159   0.566   3.738   0.463 -0.0658  0.3869  0.2067
 2098SOL    MW4 8160   0.634   3.778   0.501  0.0730  0.4804 -0.1351
 2099SOL     OW 8161   4.778   0.238   5.028 -0.0379  0.3609 -0.2397
 2099SOL    HW2 8162   4.721   0.274   4.960 -1.3728 -2.2593 -0.6392
 2099SOL    HW3 8163   4.856   0.209   4.981 -0.8062 -1.1192 -0.6596
 2099SOL    MW4 8164   4.781   0.239   5.013 -0.3154 -0.1801 -0.3478
 2100SOL     OW 8165   5.678   0.627   4.765 -0.2163 -0.2579 -0.1030
 2100SOL    HW2 8166   5.741   0.645   4.835 -0.0448  0.1576 -0.3579
 2100SOL    HW3 8167   5.652   0.536   4.779 -0.9877  0.1296  1.1239
 2100SOL    MW4 8168   5.683   0.618   4.776 -0.2954 -0.1520  0.0252
 2101SOL     OW 8169   4.234   2.659   5.666 -0.7881  0.0201 -0.3252
 2101SOL    HW2 8170   4.164   2.600   5.695 -0.1330 -0.3000  0.6532
 2101SOL    HW3 8171   4.195   2.709   5.594 -1.7736 -0.6869 -0.3016
 2101SOL    MW4 8172   4.220   2.658   5.660 -0.8317 -0.1154 -0.1930
 2102SOL     OW 8173   4.251   3.935   1.792  0.0366 -0.1593 -0.1606
 2102SOL    HW2 8174   4.287   3.904   1.874 -0.7080  1.2755  0.7541
 2102SOL    HW3 8175   4.200   3.861   1.758  2.2222 -1.5612 -0.5557
 2102SOL    MW4 8176   4.249   3.921   1.798  0.2267 -0.1549 -0.0921
 2103SOL     OW 8177   4.933   4.882   3.053 -0.0687 -0.1054 -0.1586
 2103SOL    HW2 8178   4.953   4.790   3.039  0.4403  0.0491 -0.4585
 2103SOL    HW3 8179   5.018   4.925   3.064 -0.2280  0.5117 -1.1714
 2103SOL    MW4 8180   4.947   4.876   3.053 -0.0226 -0.0036 -0.3318
 2104SOL     OW 8181   6.363   2.603   0.719  0.0258  0.2652 -0.0119
 2104SOL    HW2 8182   6.269   2.598   0.738  0.2062  0.4207  1.0199
 2104SOL    HW3 8183   6.384   2.519   0.680 -0.5503  0.2467 -0.2976
 2104SOL    MW4 8184   6.353   2.591   0.716 -0.0264  0.2833  0.0866
 2105SOL     OW 8185   4.056   0.509   3.719  0.3692 -0.8429 -0.5568
 2105SOL    HW2 8186   3.962   0.526   3.716  0.8670  3.3829  0.3791
 2105SOL    HW3 8187   4.083   0.511   3.627 -0.2171  0.4810 -0.7332
 2105SOL    MW4 8188   4.047   0.512   3.706  0.3575 -0.1107 -0.4566
 2106SOL     OW 8189   5.346   4.950   0.767  0.0392  0.2066 -0.1131
 2106SOL    HW2 8190   5.420   4.958   0.707 -1.6128  0.8921 -2.1814
 2106SOL    HW3 8191   5.341   4.856   0.786  0.1626 -0.1553 -1.7032
 2106SOL    MW4 8192   5.355   4.938   0.761 -0.1625  0.2493 -0.5958
 2107SOL     OW 8193   3.332   3.969   2.690  0.1920  0.3710  0.0698
 2107SOL    HW2 8194   3.251   3.921   2.705 -0.1111  0.6134 -0.7525
 2107SOL    HW3 8195   3.336   4.031   2.763  0.2631 -0.4567  0.7801
 2107SOL    MW4 8196   3.322   3.971   2.702  0.1614  0.2938  0.0550
 2108SOL     OW 8197   3.360   0.797   1.184  0.0789  0.1455 -0.8750
 2108SOL    HW2 8198   3.391   0.859   1.118  1.7139 -0.4740 -0.7428
 2108SOL    HW3 8199   3.296   0.742   1.138 -1.5046  1.9557 -0.9564
 2108SOL    MW4 8200   3.356   0.798   1.169  0.0857  0.3026 -0.8683
 2109SOL     OW 8201   5.612   4.185   6.028 -0.0769 -0.0834  0.2623
 2109SOL    HW2 8202   5.532   4.172   5.977  0.2088 -1.4213  0.1312
 2109SOL    HW3 8203   5.627   4.102   6.072 -0.3327  1.0159  2.6237
 2109SOL    MW4 8204   5.604   4.173   6.027 -0.0729 -0.1149  0.5565
 2110SOL     OW 8205   5.529   3.061   6.293  0.0856  0.2096  0.0355
 2110SOL    HW2 8206   5.489   3.047   6.207 -0.2759 -1.3045  0.4229
 2110SOL    HW3 8207   5.600   2.998   6.297 -0.2652 -0.1343  1.0765
 2110SOL    MW4 8208   5.533   3.051   6.282 -0.0084 -0.0356  0.2240
 2111SOL     OW 8209   4.115   3.663   4.205  0.0615  0.5159 -0.2154
 2111SOL    HW2 8210   4.171   3.613   4.265 -0.3276 -0.6954 -0.8279
 2111SOL    HW3 8211   4.169   3.673   4.126 -0.1519  0.3970 -0.3745
 2111SOL    MW4 8212   4.130   3.658   4.202 -0.0180  0.3404 -0.3172
 2112SOL     OW 8213   4.248   5.048   3.775 -0.1595  0.5103 -0.3270
 2112SOL    HW2 8214   4.277   5.100   3.700 -2.3161  0.9961 -0.8791
 2112SOL    HW3 8215   4.182   5.102   3.818 -1.1814 -1.0359  0.1289
 2112SOL    MW4 8216   4.243   5.062   3.771 -0.5789  0.3704 -0.3397
 2113SOL     OW 8217   5.375   4.270   3.970  0.1278 -0.2821  0.7623
 2113SOL    HW2 8218   5.322   4.214   3.912 -0.2643  0.0942  0.7500
 2113SOL    HW3 8219   5.423   4.328   3.910 -1.7357  1.4333  0.8151
 2113SOL    MW4 8220   5.374   4.270   3.954 -0.1698 -0.0061  0.7677
 2114SOL     OW 8221   2.275   5.435   5.050  0.7060  0.1544  0.2949
 2114SOL    HW2 8222   2.259   5.348   5.013  0.8496  0.3556 -0.2572
 2114SOL    HW3 8223   2.343   5.472   4.994  0.8310  0.5248  0.6846
 2114SOL    MW4 8224   2.282   5.428   5.038  0.7415  0.2298  0.2735
 2115SOL     OW 8225   3.059   4.229   3.992  0.2911  0.1779  0.1123
 2115SOL    HW2 8226   3.023   4.175   3.922  0.8418 -1.0975  0.7809
 2115SOL    HW3 8227   2.982   4.256   4.043 -0.0747  0.8010 -0.7344
 2115SOL    MW4 8228   3.044   4.226   3.990  0.3155  0.0918  0.0888
 2116SOL     OW 8229   5.984   5.000   2.062 -0.0197  0.3994 -0.0974
 2116SOL    HW2 8230   5.931   5.074   2.032 -2.0641 -1.9002 -2.6021
 2116SOL    HW3 8231   5.929   4.956   2.127 -0.5222 -0.9992 -1.4125
 2116SOL    MW4 8232   5.970   5.004   2.067 -0.3557 -0.0886 -0.6013
 2117SOL     OW 8233   3.997   0.636   1.824 -0.3465  0.0439  0.5847
 2117SOL    HW2 8234   3.970   0.639   1.732 -0.9900  1.1564  0.7951
 2117SOL    HW3 8235   3.918   0.611   1.872 -1.1066  3.1310  1.1798
 2117SOL    MW4 8236   3.983   0.633   1.818 -0.5317  0.5980  0.6910
 2118SOL     OW 8237   2.570   2.635   0.962  0.3615 -0.4720  0.7688
 2118SOL    HW2 8238   2.565   2.592   0.876 -0.3975 -0.0271  0.5776
 2118SOL    HW3 8239   2.658   2.617   0.993  1.3244  0.9914 -0.9666
 2118SOL    MW4 8240   2.581   2.627   0.954  0.3884 -0.2202  0.5146
 2119SOL     OW 8241   4.582   2.956   0.221  0.1915  0.1718  0.3583
 2119SOL    HW2 8242   4.588   2.958   0.317 -0.1522  1.1888  0.3655
 2119SOL    HW3 8243   4.550   3.043   0.197 -1.3810 -0.6157 -0.5698
 2119SOL    MW4 8244   4.579   2.967   0.231 -0.0613  0.2021  0.2368
 2120SOL     OW 8245   1.402   6.033   2.259 -0.2409 -0.0111 -0.2160
 2120SOL    HW2 8246   1.362   6.004   2.341  0.8386  0.4315  0.4816
 2120SOL    HW3 8247   1.484   6.074   2.285  0.5263 -0.6157 -1.6009
 2120SOL    MW4 8248   1.407   6.035   2.274  0.0027 -0.0324 -0.3067
 2121SOL     OW 8249   0.783   5.900   1.393  0.0758  0.3805 -0.0535
 2121SOL    HW2 8250   0.833   5.922   1.471 -0.8203  0.1553  0.5990
 2121SOL    HW3 8251   0.699   5.868   1.426 -0.1651 -0.1216 -1.0928
 2121SOL    MW4 8252   0.779   5.898   1.408 -0.0742  0.2846 -0.1045
 2122SOL     OW 8253   6.061   6.317   3.333 -0.2393 -0.0567  0.1726
 2122SOL    HW2 8254   6.108   6.258   3.274 -0.8388  1.2854 -1.7569
 2122SOL    HW3 8255   5.968   6.299   3.317 -0.4255 -0.0031  1.0974
 2122SOL    MW4 8256   6.055   6.307   3.323 -0.3430  0.1275  0.0401
 2123SOL     OW 8257   4.772   5.329   2.386  0.6639 -0.4956  0.0811
 2123SOL    HW2 8258   4.696   5.370   2.426  0.3629 -1.0296  0.0595
 2123SOL    HW3 8259   4.782   5.374   2.302 -0.0474 -0.8955 -0.2239
 2123SOL    MW4 8260   4.763   5.340   2.380  0.5304 -0.6188  0.0380
 2124SOL     OW 8261   1.453   5.290   1.929  0.0906 -0.0077  0.2443
 2124SOL    HW2 8262   1.477   5.379   1.901  0.1999  0.9500  3.0449
 2124SOL    HW3 8263   1.359   5.284   1.912  0.2772  0.2396 -0.9355
 2124SOL    MW4 8264   1.444   5.301   1.923  0.1297  0.1513  0.4581
 2125SOL     OW 8265   1.103   5.274   1.402  0.4813  0.8042 -0.2974
 2125SOL    HW2 8266   1.052   5.229   1.470 -0.9243  2.0190 -0.5105
 2125SOL    HW3 8267   1.163   5.206   1.369  1.1394  0.1367  2.0355
 2125SOL    MW4 8268   1.104   5.259   1.407  0.3827  0.8764 -0.0177
 2126SOL     OW 8269   4.352   5.632   5.420  0.0617 -0.4946 -0.4825
 2126SOL    HW2 8270   4.310   5.687   5.487 -0.0288  0.6537 -1.4364
 2126SOL    HW3 8271   4.342   5.543   5.452 -0.5853 -0.0223  0.6990
 2126SOL    MW4 8272   4.345   5.628   5.433 -0.0356 -0.2808 -0.4525
 2127SOL     OW 8273   5.614   4.118   3.326  0.1968  0.0018  0.1059
 2127SOL    HW2 8274   5.703   4.114   3.361  0.1809 -1.7559  0.0704
 2127SOL    HW3 8275   5.559   4.083   3.396 -0.5833  1.7030  0.3844
 2127SOL    MW4 8276   5.619   4.113   3.340  0.0918 -0.0057  0.1380
 2128SOL     OW 8277   0.957   3.309   0.612 -0.8917 -0.0987 -0.3833
 2128SOL    HW2 8278   0.901   3.387   0.607 -1.2347 -0.3984 -1.4535
 2128SOL    HW3 8279   0.900   3.237   0.588 -0.8973 -0.8865  1.8042
 2128SOL    MW4 8280   0.942   3.310   0.608 -0.9377 -0.2422 -0.2359
 2129SOL     OW 8281   5.615   4.473   6.109  0.1214  0.3367  0.2996
 2129SOL    HW2 8282   5.543   4.485   6.171  2.7181  0.9936  3.4401
 2129SOL    HW3 8283   5.641   4.382   6.118 -0.7691 -0.1491 -1.4968
 2129SOL    MW4 8284   5.609   4.463   6.118  0.3465  0.3593  0.4769
 2130SOL     OW 8285   3.566   4.363   4.069 -0.5132  0.0052 -0.5498
 2130SOL    HW2 8286   3.496   4.304   4.043  0.1216 -0.1870 -1.9162
 2130SOL    HW3 8287   3.636   4.348   4.005 -0.6366  2.8189 -1.4824
 2130SOL    MW4 8288   3.566   4.353   4.057 -0.4457  0.3511 -0.8531
 2131SOL     OW 8289   2.145   4.633   6.050  0.1351 -0.5466  0.2859
 2131SOL    HW2 8290   2.063   4.611   6.006  1.1513 -1.9530 -1.0250
 2131SOL    HW3 8291   2.122   4.642   6.142 -1.4537 -1.0889 -0.0359
 2131SOL    MW4 8292   2.131   4.631   6.056  0.0596 -0.8037  0.0705
 2132SOL     OW 8293   5.616   6.026   2.191 -0.3694  0.0384  0.3748
 2132SOL    HW2 8294   5.527   6.004   2.219 -0.3033  0.6046  1.0625
 2132SOL    HW3 8295   5.652   6.077   2.264  1.0854 -1.5481  0.8199
 2132SOL    MW4 8296   5.609   6.030   2.205 -0.1687 -0.0962  0.5243
 2133SOL     OW 8297   5.912   4.087   3.100  0.1523 -0.1286 -0.3876
 2133SOL    HW2 8298   5.886   4.166   3.053 -0.3678 -0.2042 -0.2333
 2133SOL    HW3 8299   5.892   4.016   3.039  0.9299 -0.1246 -0.6576
 2133SOL    MW4 8300   5.906   4.088   3.086  0.1863 -0.1380 -0.4028
 2134SOL     OW 8301   2.802   2.016   2.038 -0.7290 -0.5068  0.0818
 2134SOL    HW2 8302   2.818   2.077   1.966 -0.5631  1.1889  1.4649
 2134SOL    HW3 8303   2.881   1.963   2.043  0.4550  1.2020  0.6747
 2134SOL    MW4 8304   2.815   2.017   2.029 -0.5509 -0.0576  0.3425
 2135SOL     OW 8305   0.815   2.590   6.494  0.3151 -0.2705 -0.3601
 2135SOL    HW2 8306   0.746   2.532   6.528  0.7766 -1.0808 -0.7685
 2135SOL    HW3 8307   0.858   2.538   6.427 -0.1219  1.0283 -1.7156
 2135SOL    MW4 8308   0.811   2.576   6.489  0.3183 -0.2060 -0.5928
 2136SOL     OW 8309   2.723   0.976   2.731  0.5630 -0.0325 -0.1139
 2136SOL    HW2 8310   2.816   0.962   2.750  0.5042  0.3430  0.4615
 2136SOL    HW3 8311   2.692   0.891   2.700  1.1225 -0.1324 -0.4143
 2136SOL    MW4 8312   2.731   0.963   2.729  0.6291  0.0039 -0.0776
 2137SOL     OW 8313   4.629   3.841   0.459 -0.4476  0.7419 -0.1212
 2137SOL    HW2 8314   4.535   3.822   0.453 -0.3229  0.4399 -1.4810
 2137SOL    HW3 8315   4.642   3.916   0.401 -0.3916  3.1527  2.7588
 2137SOL    MW4 8316   4.618   3.848   0.451 -0.4238  1.0202  0.0794
 2138SOL     OW 8317   6.171   0.472   1.844  0.1183 -0.0608 -0.2181
 2138SOL    HW2 8318   6.195   0.556   1.806 -3.2921  1.0643 -0.2576
 2138SOL    HW3 8319   6.113   0.432   1.779 -3.1882  0.4126  2.1299
 2138SOL    MW4 8320   6.166   0.477   1.831 -0.7679  0.1501  0.0865
 2139SOL     OW 8321   6.328   2.850   2.031 -0.0890 -0.3862  0.0655
 2139SOL    HW2 8322   6.254   2.841   2.092 -0.6195  0.1179 -0.4869
 2139SOL    HW3 8323   6.341   2.761   1.997 -0.4021 -0.4933  0.2144
 2139SOL    MW4 8324   6.320   2.837   2.034 -0.2003 -0.3338  0.0123
 2140SOL     OW 8325   5.006   4.346   1.408  0.5329  0.2871 -0.2782
 2140SOL    HW2 8326   5.018   4.339   1.503  1.6325  0.7517 -0.3638
 2140SOL    HW3 8327   5.025   4.438   1.389 -2.4698  0.9315 -0.5976
 2140SOL    MW4 8328   5.010   4.358   1.418  0.2818  0.4335 -0.3316
 2141SOL     OW 8329   6.062   0.501   2.329  0.5996  0.7755  0.1435
 2141SOL    HW2 8330   6.046   0.419   2.376 -1.1201  0.2856 -1.2117
 2141SOL    HW3 8331   6.158   0.507   2.323  0.7568 -1.2426  0.1177
 2141SOL    MW4 8332   6.073   0.491   2.334  0.3935  0.4446 -0.0387
 2142SOL     OW 8333   5.067   0.105   3.282  0.0257  0.1589 -0.3213
 2142SOL    HW2 8334   5.039   0.030   3.229 -1.2234 -0.8929  1.6750
 2142SOL    HW3 8335   4.985   0.140   3.317  0.8541 -0.3531  2.3188
 2142SOL    MW4 8336   5.052   0.099   3.280 -0.0298 -0.0474  0.2904
 2143SOL     OW 8337   5.716   4.853   4.817 -1.2532  0.4171  0.0553
 2143SOL    HW2 8338   5.690   4.808   4.737  1.6581 -0.6150 -0.4406
 2143SOL    HW3 8339   5.735   4.783   4.879 -0.9251  1.1246  0.7679
 2143SOL    MW4 8340   5.715   4.838   4.815 -0.8258  0.3743  0.0839
 2144SOL     OW 8341   4.253   3.044   0.074  0.2891 -0.4064 -0.1375
 2144SOL    HW2 8342   4.281   2.963   0.115  0.0067 -0.5989 -0.3168
 2144SOL    HW3 8343   4.328   3.103   0.081  0.8919 -1.0464 -0.9693
 2144SOL    MW4 8344   4.267   3.041   0.080  0.3314 -0.5162 -0.2709
 2145SOL     OW 8345   3.914   1.211   1.426  0.4488  0.2980 -0.1181
 2145SOL    HW2 8346   3.912   1.182   1.518 -1.3888 -1.2547 -0.5917
 2145SOL    HW3 8347   3.829   1.251   1.411  1.0304  1.2624 -0.9535
 2145SOL    MW4 8348   3.903   1.212   1.436  0.2831  0.2204 -0.2908
 2146SOL     OW 8349   3.180   0.905   1.853  0.6153 -0.6845 -0.0604
 2146SOL    HW2 8350   3.219   0.883   1.769  0.0499 -0.4093 -0.4007
 2146SOL    HW3 8351   3.137   0.989   1.838 -1.5350 -1.7348 -0.1833
 2146SOL    MW4 8352   3.179   0.913   1.840  0.2570 -0.7868 -0.1215
 2147SOL     OW 8353   0.964   5.206   2.987 -0.4573  0.4237 -0.1912
 2147SOL    HW2 8354   1.016   5.137   2.946 -0.1852 -1.8238  3.4247
 2147SOL    HW3 8355   0.878   5.199   2.946 -0.4314 -2.1408 -0.0189
 2147SOL    MW4 8356   0.960   5.196   2.977 -0.4179 -0.2112  0.3086
 2148SOL     OW 8357   1.279   1.325   0.295 -0.3663 -0.0464 -0.3057
 2148SOL    HW2 8358   1.192   1.287   0.307  0.3946 -1.2736  2.2753
 2148SOL    HW3 8359   1.339   1.251   0.306  1.0850  1.3034  1.6149
 2148SOL    MW4 8360   1.275   1.310   0.298 -0.0744 -0.0302  0.2882
 2149SOL     OW 8361   0.653   0.204   3.483 -0.2588  0.1008 -0.1293
 2149SOL    HW2 8362   0.620   0.250   3.560 -0.0590 -0.3849  0.2537
 2149SOL    HW3 8363   0.643   0.266   3.411 -0.5978  0.5007  0.2593
 2149SOL    MW4 8364   0.647   0.218   3.484 -0.2772  0.0895 -0.0275
 2150SOL     OW 8365   0.492   1.106   5.335  0.3593 -0.0018  0.0516
 2150SOL    HW2 8366   0.467   1.089   5.243  1.1613  0.4461 -0.2525
 2150SOL    HW3 8367   0.461   1.195   5.352  2.9766  1.1502 -0.7998
 2150SOL    MW4 8368   0.484   1.115   5.325  0.8105  0.2093 -0.1008
 2151SOL     OW 8369   1.671   1.512   3.559  0.2439 -0.0968 -0.0507
 2151SOL    HW2 8370   1.690   1.446   3.492 -0.2730 -1.0105  0.6762
 2151SOL    HW3 8371   1.698   1.595   3.519  2.2646 -0.8810 -0.4596
 2151SOL    MW4 8372   1.677   1.514   3.545  0.4423 -0.3208 -0.0087
 2152SOL     OW 8373   2.535   4.470   4.286 -0.4152 -0.0245 -0.3122
 2152SOL    HW2 8374   2.462   4.431   4.335  2.2085 -1.8164  2.5594
 2152SOL    HW3 8375   2.576   4.397   4.241 -0.3962  0.9781 -2.0096
 2152SOL    MW4 8376   2.531   4.455   4.287 -0.0665 -0.1287 -0.1573
 2153SOL     OW 8377   3.249   3.623   5.639  0.0083 -0.5911  0.0073
 2153SOL    HW2 8378   3.191   3.584   5.703  0.2512 -0.9219  0.0246
 2153SOL    HW3 8379   3.248   3.562   5.565  1.8172 -1.5842  0.7504
 2153SOL    MW4 8380   3.241   3.610   5.637  0.2790 -0.7658  0.1077
 2154SOL     OW 8381   0.212   2.856   0.947  0.1287  0.5801 -0.0466
 2154SOL    HW2 8382   0.278   2.900   0.893  0.9342 -1.9023 -1.2297
 2154SOL    HW3 8383   0.226   2.891   1.035  0.7362  2.5720 -0.8834
 2154SOL    MW4 8384   0.223   2.867   0.952  0.3151  0.5154 -0.3131
 2155SOL     OW 8385   3.869   4.890   0.739 -0.3258 -0.4640 -0.8188
 2155SOL    HW2 8386   3.803   4.941   0.692 -0.6650 -1.0434 -0.9791
 2155SOL    HW3 8387   3.906   4.832   0.672  0.1915 -0.2947 -0.6798
 2155SOL    MW4 8388   3.865   4.889   0.724 -0.3023 -0.5181 -0.8216
 2156SOL     OW 8389   4.358   2.281   5.642 -0.1991  0.0462 -0.6121
 2156SOL    HW2 8390   4.450   2.258   5.627  0.4668  0.4553  2.3022
 2156SOL    HW3 8391   4.340   2.350   5.579  1.9434  0.9191 -0.3576
 2156SOL    MW4 8392   4.368   2.287   5.632  0.1714  0.2153 -0.1940
 2157SOL     OW 8393   1.445   5.183   4.861 -0.6263  0.0855 -0.1544
 2157SOL    HW2 8394   1.512   5.219   4.803 -1.4389  2.4451  0.2796
 2157SOL    HW3 8395   1.486   5.181   4.947 -0.6302  0.1290 -0.1515
 2157SOL    MW4 8396   1.459   5.188   4.864 -0.7341  0.4026 -0.0967
 2158SOL     OW 8397   4.723   5.960   1.570 -0.2109  0.0613 -0.1108
 2158SOL    HW2 8398   4.725   5.875   1.614 -0.7755 -0.0782 -0.3365
 2158SOL    HW3 8399   4.704   5.939   1.478  1.1398  0.3364 -0.4660
 2158SOL    MW4 8400   4.721   5.946   1.563 -0.1072  0.0792 -0.1875
 2159SOL     OW 8401   2.636   1.234   5.810  0.2325 -0.1161  0.1752
 2159SOL    HW2 8402   2.587   1.166   5.765 -0.4023 -0.0255  0.7200
 2159SOL    HW3 8403   2.707   1.257   5.749 -1.4498  1.0452 -1.4567
 2159SOL    MW4 8404   2.639   1.228   5.796 -0.0732  0.0491  0.0318
 2160SOL     OW 8405   5.065   3.531   1.957 -0.4843  0.1373 -0.0191
 2160SOL    HW2 8406   4.984   3.486   1.933 -0.6068  0.3126  0.0531
 2160SOL    HW3 8407   5.094   3.574   1.877 -1.2429  1.2587  0.2691
 2160SOL    MW4 8408   5.058   3.531   1.943 -0.6005  0.3084  0.0284
 2161SOL     OW 8409   0.593   5.709   1.286  0.0940  0.7224  0.2946
 2161SOL    HW2 8410   0.550   5.631   1.320  1.4027 -0.4981 -0.7364
 2161SOL    HW3 8411   0.683   5.681   1.267  0.1784  2.0637 -1.5408
 2161SOL    MW4 8412   0.600   5.695   1.288  0.2778  0.7384 -0.0836
 2162SOL     OW 8413   5.740   1.900   5.868 -0.1130  0.1342 -0.3918
 2162SOL    HW2 8414   5.676   1.896   5.939  1.3361 -2.1110  0.9067
 2162SOL    HW3 8415   5.817   1.940   5.909  0.3784 -0.1813 -0.9975
 2162SOL    MW4 8416   5.742   1.905   5.883  0.1431 -0.2037 -0.3004
 2163SOL     OW 8417   0.601   0.427   0.462  0.6238 -0.7145 -0.2485
 2163SOL    HW2 8418   0.616   0.506   0.514  1.6208 -1.7862  1.1696
 2163SOL    HW3 8419   0.561   0.459   0.381  0.8266  1.2125  0.3607
 2163SOL    MW4 8420   0.598   0.442   0.458  0.7821 -0.6017  0.0189
 2164SOL     OW 8421   5.580   1.011   2.064  0.2170  0.2969  0.7042
 2164SOL    HW2 8422   5.546   0.965   1.987 -0.1018  0.0359  0.9967
 2164SOL    HW3 8423   5.551   1.102   2.053  2.1735  0.8265 -0.6691
 2164SOL    MW4 8424   5.572   1.017   2.052  0.4331  0.3323  0.5616
 2165SOL     OW 8425   0.855   2.030   4.601 -0.3465 -0.1750 -0.6124
 2165SOL    HW2 8426   0.948   2.041   4.616 -0.5340  0.6199  0.0320
 2165SOL    HW3 8427   0.813   2.079   4.671 -1.2462  0.8089 -1.7917
 2165SOL    MW4 8428   0.861   2.038   4.612 -0.4900  0.0597 -0.6830
 2166SOL     OW 8429   3.648   0.907   5.091 -0.0236 -0.7222  0.3615
 2166SOL    HW2 8430   3.684   0.930   5.005 -0.0573  0.7984  0.7136
 2166SOL    HW3 8431   3.609   0.989   5.123 -1.4719 -1.6544  1.1289
 2166SOL    MW4 8432   3.647   0.921   5.084 -0.2191 -0.6446  0.5092
 2167SOL     OW 8433   3.442   5.179   0.649 -0.0006  0.1464 -0.3362
 2167SOL    HW2 8434   3.395   5.152   0.571 -0.5846 -0.2400  0.1412
 2167SOL    HW3 8435   3.485   5.261   0.624  0.1788 -0.1959 -1.1871
 2167SOL    MW4 8436   3.442   5.186   0.636 -0.0540  0.0503 -0.3855
 2168SOL     OW 8437   1.795   2.969   3.526  0.1081 -0.4440  0.2717
 2168SOL    HW2 8438   1.874   3.020   3.509 -0.2688  0.9940  2.4142
 2168SOL    HW3 8439   1.800   2.948   3.619 -0.7603 -2.6757 -0.1118
 2168SOL    MW4 8440   1.806   2.973   3.536 -0.0562 -0.5487  0.5038
 2169SOL     OW 8441   5.723   3.989   1.065 -0.1086  0.2827  0.2066
 2169SOL    HW2 8442   5.790   4.037   1.016  0.1880  0.3156  0.6314
 2169SOL    HW3 8443   5.660   3.961   0.999  0.6597 -0.3074 -0.2913
 2169SOL    MW4 8444   5.723   3.992   1.050  0.0319  0.2092  0.1969
 2170SOL     OW 8445   0.309   2.872   4.530 -0.1949 -0.3900  0.3468
 2170SOL    HW2 8446   0.394   2.834   4.509 -0.5273  0.2287 -2.5129
 2170SOL    HW3 8447   0.247   2.800   4.517 -0.2426 -0.5061  1.1784
 2170SOL    MW4 8448   0.312   2.857   4.526 -0.2450 -0.3237  0.0792
 2171SOL     OW 8449   3.538   6.360   4.705 -0.6802 -0.2172  0.2012
 2171SOL    HW2 8450   3.548   6.308   4.786  0.4870 -0.9488 -0.3821
 2171SOL    HW3 8451   3.627   6.392   4.686 -0.7530 -0.8204 -1.2798
 2171SOL    MW4 8452   3.551   6.357   4.714 -0.5358 -0.3933 -0.0712
 2172SOL     OW 8453   0.569   0.401   5.634 -0.6101  0.1846 -0.6856
 2172SOL    HW2 8454   0.485   0.419   5.592 -0.0203 -1.2019 -2.6640
 2172SOL    HW3 8455   0.570   0.305   5.644  0.9725  0.1022 -1.3533
 2172SOL    MW4 8456   0.558   0.390   5.629 -0.3235 -0.0092 -1.0347
 2173SOL     OW 8457   2.587   6.058   5.107 -0.2601  0.0597 -0.0337
 2173SOL    HW2 8458   2.618   6.037   5.019 -0.1587 -0.4941  0.1288
 2173SOL    HW3 8459   2.495   6.028   5.107  0.0419 -0.9241  0.3697
 2173SOL    MW4 8460   2.579   6.051   5.095 -0.2069 -0.1432  0.0410
 2174SOL     OW 8461   2.069   6.082   5.555 -0.8818  0.3475  0.5765
 2174SOL    HW2 8462   2.002   6.032   5.602 -1.5628  1.0362  0.3677
 2174SOL    HW3 8463   2.022   6.120   5.481 -0.0984  0.2839  0.0429
 2174SOL    MW4 8464   2.054   6.080   5.552 -0.8682  0.4300  0.4785
 2175SOL     OW 8465   2.933   5.185   5.146 -0.1483  0.1639 -0.1670
 2175SOL    HW2 8466   3.000   5.125   5.113  0.0488  0.7395 -0.8221
 2175SOL    HW3 8467   2.851   5.151   5.110  0.3134  2.6208 -4.2618
 2175SOL    MW4 8468   2.931   5.173   5.137 -0.0614  0.5640 -0.7937
 2176SOL     OW 8469   1.477   0.556   2.953 -0.3662  0.4254 -0.2929
 2176SOL    HW2 8470   1.434   0.473   2.930 -0.3834  0.2232  0.4458
 2176SOL    HW3 8471   1.497   0.547   3.046  0.1523  1.0237 -0.3434
 2176SOL    MW4 8472   1.474   0.544   2.962 -0.3001  0.4777 -0.2021
 2177SOL     OW 8473   4.883   3.617   3.061  0.1663  0.4651  0.2036
 2177SOL    HW2 8474   4.807   3.637   3.007 -0.2803 -1.8226 -0.1536
 2177SOL    HW3 8475   4.939   3.693   3.053 -1.2711  1.4629 -1.0081
 2177SOL    MW4 8476   4.880   3.629   3.053 -0.0823  0.2949 -0.0034
 2178SOL     OW 8477   0.475   6.180   1.422 -0.2560 -0.6988  0.1765
 2178SOL    HW2 8478   0.443   6.224   1.500 -1.1082 -0.0255 -0.5197
 2178SOL    HW3 8479   0.486   6.088   1.448  0.2022 -0.3456  1.2693
 2178SOL    MW4 8480   0.472   6.174   1.435 -0.3080 -0.5634  0.2288
 2179SOL     OW 8481   5.253   4.205   1.391 -0.5911  0.2530  0.2881
 2179SOL    HW2 8482   5.166   4.243   1.398 -0.3464  0.7820  0.4994
 2179SOL    HW3 8483   5.265   4.157   1.474 -0.7244  0.0830  0.2095
 2179SOL    MW4 8484   5.243   4.204   1.403 -0.5764  0.3003  0.3056
 2180SOL     OW 8485   5.710   3.319   0.564 -0.1973  0.2909  0.4856
 2180SOL    HW2 8486   5.667   3.263   0.499 -0.4956 -1.8533  2.4100
 2180SOL    HW3 8487   5.678   3.407   0.544 -1.5388 -0.5218 -1.2600
 2180SOL    MW4 8488   5.700   3.323   0.553 -0.4137 -0.0992  0.5092
 2181SOL     OW 8489   5.358   2.527   1.598  0.1616 -0.5304 -0.3419
 2181SOL    HW2 8490   5.450   2.529   1.572  0.3958  1.1283  0.4690
 2181SOL    HW3 8491   5.356   2.471   1.676  0.3434 -1.2326 -0.8406
 2181SOL    MW4 8492   5.370   2.520   1.605  0.2165 -0.4042 -0.3007
 2182SOL     OW 8493   5.344   4.479   1.425  0.1782  0.0268 -0.3350
 2182SOL    HW2 8494   5.267   4.526   1.395  0.2782 -1.4431 -3.3192
 2182SOL    HW3 8495   5.318   4.387   1.425  1.2839 -0.3225  0.8484
 2182SOL    MW4 8496   5.331   4.473   1.421  0.3373 -0.2132 -0.5726
 2183SOL     OW 8497   2.149   0.115   1.177 -0.1000  0.0792  0.4224
 2183SOL    HW2 8498   2.214   0.170   1.221 -0.1993 -0.3450  1.1171
 2183SOL    HW3 8499   2.187   0.095   1.091  1.5164 -1.6513  1.4751
 2183SOL    MW4 8500   2.163   0.120   1.171  0.1001 -0.2051  0.6530
 2184SOL     OW 8501   0.238   3.005   1.220 -0.0932  0.2245 -0.0662
 2184SOL    HW2 8502   0.331   3.001   1.242 -0.1257 -1.5711 -0.1319
 2184SOL    HW3 8503   0.221   3.098   1.204  2.0386  0.4233 -1.5475
 2184SOL    MW4 8504   0.248   3.017   1.221  0.1838  0.0138 -0.2703
 2185SOL     OW 8505   2.879   1.128   4.476 -0.2628  0.0829 -0.7896
 2185SOL    HW2 8506   2.825   1.105   4.401 -0.0934 -0.7493 -0.6671
 2185SOL    HW3 8507   2.905   1.044   4.514 -0.3699  0.4946  0.2218
 2185SOL    MW4 8508   2.875   1.114   4.471 -0.2546  0.0274 -0.6400
 2186SOL     OW 8509   5.114   4.524   4.337 -0.1403 -0.3814 -0.5980
 2186SOL    HW2 8510   5.043   4.559   4.284 -0.1394  0.3275 -0.1466
 2186SOL    HW3 8511   5.079   4.521   4.425  0.5807  0.5880 -0.2542
 2186SOL    MW4 8512   5.100   4.528   4.341 -0.0451 -0.1600 -0.4931
 2187SOL     OW 8513   1.987   5.579   5.588  0.5017 -0.1737  0.3401
 2187SOL    HW2 8514   1.951   5.640   5.524 -0.2854  0.7851  1.6321
 2187SOL    HW3 8515   1.910   5.543   5.632  0.9949  1.4736  2.7726
 2187SOL    MW4 8516   1.972   5.583   5.586  0.4629  0.1701  0.8315
 2188SOL     OW 8517   3.499   1.120   2.187 -0.0360  0.1549  0.3304
 2188SOL    HW2 8518   3.404   1.105   2.178 -0.1317 -1.2050  2.6989
 2188SOL    HW3 8519   3.538   1.065   2.120 -0.9118  1.2593 -1.1352
 2188SOL    MW4 8520   3.491   1.110   2.177 -0.1642  0.1212  0.4496
 2189SOL     OW 8521   6.037   0.729   0.315 -0.8114  0.4657  0.1403
 2189SOL    HW2 8522   6.060   0.811   0.359 -1.4052  1.5003 -1.3578
 2189SOL    HW3 8523   6.121   0.689   0.292 -0.4312  2.0487 -1.4865
 2189SOL    MW4 8524   6.051   0.735   0.318 -0.8396  0.8111 -0.2720
 2190SOL     OW 8525   4.226   3.035   4.054  0.7479  0.1391  0.0437
 2190SOL    HW2 8526   4.291   2.987   4.106  1.7588  0.3502 -0.9797
 2190SOL    HW3 8527   4.142   3.013   4.095  1.3065 -1.4129  0.4481
 2190SOL    MW4 8528   4.224   3.026   4.066  0.9550 -0.0378 -0.0379
 2191SOL     OW 8529   2.652   2.050   2.262  0.1181 -0.6241 -0.4295
 2191SOL    HW2 8530   2.562   2.057   2.231 -0.2085 -0.4563  0.5547
 2191SOL    HW3 8531   2.703   2.039   2.181 -0.5902  1.0839 -1.1649
 2191SOL    MW4 8532   2.647   2.050   2.247 -0.0184 -0.3766 -0.3967
 2192SOL     OW 8533   1.825   0.983   3.558  0.3465 -0.1098  0.6310
 2192SOL    HW2 8534   1.910   1.011   3.591 -0.0416 -0.4340  1.9698
 2192SOL    HW3 8535   1.832   0.888   3.551  0.3688 -0.0575 -0.0673
 2192SOL    MW4 8536   1.837   0.974   3.562  0.2983 -0.1457  0.7155
 2193SOL     OW 8537   6.002   2.850   0.675  0.4380  0.3689  0.7172
 2193SOL    HW2 8538   5.972   2.885   0.591 -0.1627 -0.9053  0.3815
 2193SOL    HW3 8539   6.054   2.921   0.713  2.0091  0.4574 -1.4036
 2193SOL    MW4 8540   6.005   2.864   0.669  0.5660  0.2125  0.3931
 2194SOL     OW 8541   5.335   5.550   2.281  0.3878  0.3011 -0.0810
 2194SOL    HW2 8542   5.351   5.587   2.368 -0.4552 -1.6823  0.9884
 2194SOL    HW3 8543   5.421   5.524   2.250  0.6388  0.5102  0.4238
 2194SOL    MW4 8544   5.348   5.552   2.289  0.3097  0.0670  0.1267
 2195SOL     OW 8545   4.435   0.072   2.358  0.5419  0.1462 -0.6674
 2195SOL    HW2 8546   4.342   0.089   2.368  0.7919  1.8570 -0.9450
 2195SOL    HW3 8547   4.462   0.126   2.284  1.6134 -0.9394 -1.1155
 2195SOL    MW4 8548   4.427   0.081   2.349  0.7163  0.2287 -0.7631
 2196SOL     OW 8549   5.085   1.337   4.934 -0.2100 -0.0468 -0.6594
 2196SOL    HW2 8550   5.062   1.320   5.026 -2.3140  0.8721 -0.9680
 2196SOL    HW3 8551   5.065   1.256   4.889 -0.0508 -0.1980 -0.4624
 2196SOL    MW4 8552   5.080   1.324   4.940 -0.4666  0.0545 -0.6741
 2197SOL     OW 8553   3.362   1.491   2.143  0.8448 -0.0795 -0.0527
 2197SOL    HW2 8554   3.303   1.444   2.083  0.8759 -1.1243  0.7083
 2197SOL    HW3 8555   3.315   1.571   2.164  0.9115  0.4090 -1.6077
 2197SOL    MW4 8556   3.348   1.495   2.138  0.8577 -0.1529 -0.1575
 2198SOL     OW 8557   3.935   3.913   5.261 -0.1562  0.5901  0.6477
 2198SOL    HW2 8558   3.869   3.889   5.197  0.0162 -0.3277  0.8056
 2198SOL    HW3 8559   3.897   3.890   5.346 -0.0226  0.9512  0.8076
 2198SOL    MW4 8560   3.921   3.907   5.264 -0.1158  0.5166  0.6896
 2199SOL     OW 8561   6.286   4.197   2.083 -0.0909  0.5699 -0.1180
 2199SOL    HW2 8562   6.368   4.164   2.047 -0.2944  2.3734 -2.4889
 2199SOL    HW3 8563   6.218   4.162   2.026 -0.8848  0.1663  1.0263
 2199SOL    MW4 8564   6.287   4.188   2.071 -0.2225  0.7546 -0.2798
 2200SOL     OW 8565   4.760   4.505   3.567  0.1665  0.5620 -0.1744
 2200SOL    HW2 8566   4.734   4.537   3.653 -0.4938  0.3049 -0.2771
 2200SOL    HW3 8567   4.751   4.410   3.573  2.3855  0.3134  0.2194
 2200SOL    MW4 8568   4.756   4.497   3.579  0.3721  0.4953 -0.1360
 2201SOL     OW 8569   4.269   5.702   1.615 -0.4261  0.2944 -0.4160
 2201SOL    HW2 8570   4.259   5.798   1.617 -2.8637  0.1133 -0.5998
 2201SOL    HW3 8571   4.247   5.678   1.525  3.4423 -0.2707 -1.3937
 2201SOL    MW4 8572   4.265   5.712   1.604 -0.2373  0.1959 -0.5693
 2202SOL     OW 8573   6.392   0.851   5.128  0.0316 -0.5724  0.1215
 2202SOL    HW2 8574   6.406   0.779   5.067  1.6107  0.4110 -0.7332
 2202SOL    HW3 8575   6.373   0.926   5.073 -0.2124 -0.0168  0.9398
 2202SOL    MW4 8576   6.391   0.851   5.113  0.2077 -0.3694  0.1167
 2203SOL     OW 8577   2.807   5.390   5.833 -0.7632  0.1005 -0.3400
 2203SOL    HW2 8578   2.759   5.308   5.846 -0.0587 -0.5919 -1.8346
 2203SOL    HW3 8579   2.752   5.440   5.772 -1.5327  1.0668  1.1116
 2203SOL    MW4 8580   2.793   5.386   5.826 -0.7717  0.1366 -0.3457
 2204SOL     OW 8581   0.260   1.941   2.942 -0.0355 -0.1767  0.3705
 2204SOL    HW2 8582   0.319   1.913   2.872 -1.4379  1.0869 -1.3993
 2204SOL    HW3 8583   0.238   1.860   2.988  1.3151 -0.9739 -0.3123
 2204SOL    MW4 8584   0.265   1.926   2.939 -0.0423 -0.1152  0.0469
 2205SOL     OW 8585   5.812   5.302   3.209  0.0295 -0.5871 -0.5204
 2205SOL    HW2 8586   5.883   5.352   3.169 -0.2919  1.6144  1.4028
 2205SOL    HW3 8587   5.732   5.341   3.174 -0.2272  0.3917  1.0378
 2205SOL    MW4 8588   5.811   5.314   3.199 -0.0468 -0.1675 -0.0610
 2206SOL     OW 8589   1.585   3.952   5.798 -0.4573 -0.0998  0.5892
 2206SOL    HW2 8590   1.675   3.937   5.772 -0.5780  1.5446 -1.0039
 2206SOL    HW3 8591   1.588   3.960   5.893  1.2490  0.8340  0.4975
 2206SOL    MW4 8592   1.597   3.951   5.807 -0.2481  0.2404  0.3669
 2207SOL     OW 8593   6.322   3.289   0.853  0.4514  0.6332  0.8242
 2207SOL    HW2 8594   6.411   3.269   0.823 -0.0746 -2.4505  0.9665
 2207SOL    HW3 8595   6.283   3.339   0.782  0.8535 -2.1289 -1.5457
 2207SOL    MW4 8596   6.329   3.293   0.840  0.4350 -0.1381  0.5303
 2208SOL     OW 8597   3.147   1.796   0.673  0.5012 -0.0188  0.4133
 2208SOL    HW2 8598   3.067   1.760   0.635  0.2728  0.4135  0.4781
 2208SOL    HW3 8599   3.165   1.875   0.622  0.1410  0.6204  1.2289
 2208SOL    MW4 8600   3.139   1.802   0.662  0.4235  0.1225  0.5294
 2209SOL     OW 8601   5.185   6.352   5.839  0.0826  0.5385  0.2254
 2209SOL    HW2 8602   5.193   6.328   5.932  0.6988  0.3078  0.1179
 2209SOL    HW3 8603   5.260   6.410   5.823 -0.5704  1.3563  0.1088
 2209SOL    MW4 8604   5.196   6.356   5.849  0.0777  0.6160  0.1959
 2210SOL     OW 8605   5.663   4.174   1.388 -0.5493  0.2567  0.1199
 2210SOL    HW2 8606   5.616   4.118   1.327 -0.7961 -0.3028  0.8058
 2210SOL    HW3 8607   5.729   4.117   1.428 -0.8694  0.4138  0.9035
 2210SOL    MW4 8608   5.666   4.159   1.385 -0.6241  0.2036  0.3138
 2211SOL     OW 8609   5.275   0.114   3.743  1.0087  0.2917 -0.0394
 2211SOL    HW2 8610   5.214   0.082   3.809 -0.2896  1.1269 -0.7936
 2211SOL    HW3 8611   5.268   0.052   3.671 -1.0447  1.8247 -1.2456
 2211SOL    MW4 8612   5.266   0.102   3.742  0.5665  0.6042 -0.2981
 2212SOL     OW 8613   3.836   6.415   2.091  0.0778  0.2287  0.4361
 2212SOL    HW2 8614   3.810   6.323   2.087  0.5507  0.1090 -2.9651
 2212SOL    HW3 8615   3.921   6.418   2.048  0.2160  2.2170  0.7598
 2212SOL    MW4 8616   3.844   6.403   2.085  0.1585  0.4753  0.0300
 2213SOL     OW 8617   4.371   5.372   5.862 -0.0688 -0.0652  0.5162
 2213SOL    HW2 8618   4.321   5.413   5.933 -0.9447  0.7730 -0.5489
 2213SOL    HW3 8619   4.457   5.356   5.900  0.1187  2.2055  1.2033
 2213SOL    MW4 8620   4.376   5.375   5.877 -0.1596  0.3450  0.4663
 2214SOL     OW 8621   4.823   2.723   3.064  0.2567 -0.4833  0.1974
 2214SOL    HW2 8622   4.763   2.657   3.099  1.3088 -2.0172 -0.7744
 2214SOL    HW3 8623   4.849   2.689   2.979  2.4735  0.1119  0.5646
 2214SOL    MW4 8624   4.818   2.710   3.058  0.6880 -0.6071  0.1176
 2215SOL     OW 8625   5.633   5.242   3.639  0.0205 -0.5593 -0.3161
 2215SOL    HW2 8626   5.687   5.297   3.583 -0.2456 -0.4711 -0.4840
 2215SOL    HW3 8627   5.670   5.154   3.629  0.5221 -0.3996  0.0450
 2215SOL    MW4 8628   5.645   5.238   3.630  0.0516 -0.5266 -0.2906
 2216SOL     OW 8629   2.171   2.004   3.745 -0.2912  0.3492  0.0289
 2216SOL    HW2 8630   2.204   2.047   3.823 -0.3312  1.1242 -0.3622
 2216SOL    HW3 8631   2.174   1.911   3.764 -2.8741  0.5669  2.0269
 2216SOL    MW4 8632   2.175   1.997   3.758 -0.6372  0.4802  0.2409
 2217SOL     OW 8633   3.254   4.196   5.400  0.2036 -0.2016 -0.1651
 2217SOL    HW2 8634   3.243   4.288   5.378  0.4818  0.0578  0.7365
 2217SOL    HW3 8635   3.165   4.161   5.402 -0.0560  0.4787  1.2352
 2217SOL    MW4 8636   3.241   4.203   5.397  0.2060 -0.0776  0.1386
 2218SOL     OW 8637   1.495   5.223   3.589 -0.3548  0.4260  0.3197
 2218SOL    HW2 8638   1.514   5.247   3.680 -0.2014 -0.8336  0.6484
 2218SOL    HW3 8639   1.578   5.236   3.543 -0.2887  0.5769  0.4792
 2218SOL    MW4 8640   1.508   5.228   3.595 -0.3258  0.2797  0.3841
 2219SOL     OW 8641   4.434   5.775   0.111  0.1081 -0.0183 -0.5014
 2219SOL    HW2 8642   4.380   5.730   0.176 -1.5281  1.2225 -0.9184
 2219SOL    HW3 8643   4.521   5.779   0.150 -0.6798  0.1195  1.3421
 2219SOL    MW4 8644   4.438   5.769   0.124 -0.2117  0.1636 -0.3132
 2220SOL     OW 8645   5.260   5.494   2.598 -0.0445 -0.1734 -0.8418
 2220SOL    HW2 8646   5.305   5.413   2.623 -0.9165 -0.4820 -0.2426
 2220SOL    HW3 8647   5.169   5.468   2.587 -0.3476  0.7514 -0.5399
 2220SOL    MW4 8648   5.254   5.480   2.600 -0.1996 -0.0921 -0.7229
 2221SOL     OW 8649   5.381   4.352   3.553 -0.3329 -0.0982  0.5460
 2221SOL    HW2 8650   5.430   4.389   3.480 -0.1928 -0.2906  0.5418
 2221SOL    HW3 8651   5.300   4.319   3.514 -1.5875  2.3215  0.8850
 2221SOL    MW4 8652   5.377   4.352   3.539 -0.4800  0.1956  0.5902
 2222SOL     OW 8653   3.626   1.183   4.740  0.0885  0.3241 -0.5771
 2222SOL    HW2 8654   3.712   1.223   4.723 -1.0251  2.5305 -1.4524
 2222SOL    HW3 8655   3.646   1.105   4.792  2.5169  1.5074  0.4401
 2222SOL    MW4 8656   3.640   1.178   4.744  0.2620  0.7714 -0.5583
 2223SOL     OW 8657   0.251   1.304   3.269 -0.4316 -0.3794 -0.1533
 2223SOL    HW2 8658   0.293   1.244   3.330 -2.0422  1.1028  2.6138
 2223SOL    HW3 8659   0.185   1.250   3.224 -1.6721 -0.8336  2.0780
 2223SOL    MW4 8660   0.248   1.289   3.271 -0.8078 -0.2438  0.5062
 2224SOL     OW 8661   4.701   2.498   1.211  0.1392 -0.0515  0.2121
 2224SOL    HW2 8662   4.665   2.523   1.126 -1.4283 -0.0877  0.8323
 2224SOL    HW3 8663   4.635   2.526   1.275  0.9535 -0.6649  1.3743
 2224SOL    MW4 8664   4.688   2.505   1.209  0.0398 -0.1372  0.4473
 2225SOL     OW 8665   3.780   3.119   2.359 -0.8184  0.0535  0.1837
 2225SOL    HW2 8666   3.788   3.055   2.430 -0.3377  1.1148  1.1221
 2225SOL    HW3 8667   3.861   3.107   2.308 -0.3353  0.4572  0.8370
 2225SOL    MW4 8668   3.792   3.109   2.361 -0.6913  0.2468  0.3937
 2226SOL     OW 8669   1.360   0.176   4.354  0.5742 -0.1707 -0.4174
 2226SOL    HW2 8670   1.341   0.153   4.444  0.0965 -1.6194 -0.8675
 2226SOL    HW3 8671   1.333   0.100   4.303  2.4231 -0.0951 -1.6279
 2226SOL    MW4 8672   1.354   0.163   4.359  0.7551 -0.3518 -0.6365
 2227SOL     OW 8673   0.668   0.115   6.417  0.0961  0.1944 -0.4017
 2227SOL    HW2 8674   0.744   0.124   6.474 -0.0281  0.1457 -0.2253
 2227SOL    HW3 8675   0.676   0.186   6.354  1.2751 -0.9171 -1.5513
 2227SOL    MW4 8676   0.679   0.126   6.416  0.2353  0.0414 -0.5301
 2228SOL     OW 8677   4.402   4.531   5.446 -0.6205  0.4059  0.2907
 2228SOL    HW2 8678   4.345   4.470   5.492  0.0680 -1.0702 -0.7142
 2228SOL    HW3 8679   4.477   4.544   5.505  0.0282 -1.0846 -0.1648
 2228SOL    MW4 8680   4.404   4.525   5.460 -0.4440  0.0145  0.0980
 2229SOL     OW 8681   2.877   6.202   4.960 -0.0077  0.0240  0.1763
 2229SOL    HW2 8682   2.832   6.248   4.888 -1.2262  0.3748  1.1255
 2229SOL    HW3 8683   2.945   6.263   4.988  0.5157 -0.1370 -0.6923
 2229SOL    MW4 8684   2.880   6.216   4.954 -0.0994  0.0491  0.1870
 2230SOL     OW 8685   1.952   2.252   3.491 -0.4811  0.0051  0.1174
 2230SOL    HW2 8686   1.913   2.221   3.573  1.2845 -1.8727  0.3377
 2230SOL    HW3 8687   2.023   2.311   3.520 -0.1892 -0.2486 -0.0833
 2230SOL    MW4 8688   1.956   2.256   3.506 -0.2096 -0.2762  0.1199
 2231SOL     OW 8689   0.427   1.694   0.455 -0.3879  0.0991 -0.4511
 2231SOL    HW2 8690   0.516   1.727   0.467 -0.1813 -1.1309  2.1551
 2231SOL    HW3 8691   0.371   1.764   0.489 -0.2137 -0.2346  0.5688
 2231SOL    MW4 8692   0.431   1.708   0.461 -0.3376 -0.1072  0.0273
 2232SOL     OW 8693   2.541   3.695   3.001  0.9458 -0.4389  0.1836
 2232SOL    HW2 8694   2.559   3.688   2.907  0.0935  1.7082 -0.1981
 2232SOL    HW3 8695   2.447   3.711   3.006  0.4499 -3.1431  1.6310
 2232SOL    MW4 8696   2.531   3.696   2.989  0.7680 -0.5124  0.3242
 2233SOL     OW 8697   2.896   6.228   3.104  0.1248  0.5737 -0.0023
 2233SOL    HW2 8698   2.975   6.279   3.117 -0.3961  1.3431  0.2011
 2233SOL    HW3 8699   2.833   6.289   3.065 -0.5306  0.1229  0.3161
 2233SOL    MW4 8700   2.898   6.243   3.100 -0.0304  0.6158  0.0665
 2234SOL     OW 8701   2.181   1.664   1.487  0.7563 -0.2373 -0.5041
 2234SOL    HW2 8702   2.228   1.659   1.571  0.1931 -0.9875 -0.2179
 2234SOL    HW3 8703   2.249   1.651   1.421  1.4899  2.0049 -0.2727
 2234SOL    MW4 8704   2.196   1.661   1.490  0.7788 -0.0404 -0.4358
 2235SOL     OW 8705   4.629   6.358   3.121 -0.2842 -0.0831  0.5794
 2235SOL    HW2 8706   4.705   6.317   3.163 -0.0704  0.9861  1.2933
 2235SOL    HW3 8707   4.574   6.285   3.094  0.0670 -0.8410  1.8319
 2235SOL    MW4 8708   4.632   6.343   3.123 -0.2097 -0.0421  0.8389
 2236SOL     OW 8709   1.864   3.984   6.144  0.3095 -0.5524  0.2130
 2236SOL    HW2 8710   1.786   3.959   6.094  0.4349 -0.0219 -0.2546
 2236SOL    HW3 8711   1.931   3.922   6.114  0.2946 -0.4567 -0.0214
 2236SOL    MW4 8712   1.862   3.972   6.133  0.3241 -0.4698  0.1204
 2237SOL     OW 8713   2.605   6.395   3.191  0.5674  0.5319 -0.2422
 2237SOL    HW2 8714   2.590   6.316   3.140 -0.0877 -0.6584  1.6873
 2237SOL    HW3 8715   2.672   6.370   3.255  0.0863  1.4309  0.6413
 2237SOL    MW4 8716   2.612   6.382   3.193  0.4175  0.4935  0.1289
 2238SOL     OW 8717   4.469   4.416   3.242 -0.5969 -0.8056 -0.0720
 2238SOL    HW2 8718   4.438   4.392   3.330 -1.2530 -0.8571 -0.3055
 2238SOL    HW3 8719   4.494   4.333   3.202  0.4611 -0.6946  0.3378
 2238SOL    MW4 8720   4.468   4.402   3.249 -0.5439 -0.7978 -0.0487
 2239SOL     OW 8721   0.605   2.074   0.544 -0.2316 -0.4856  0.3539
 2239SOL    HW2 8722   0.536   2.093   0.608  0.5143  1.7720  0.5614
 2239SOL    HW3 8723   0.616   1.979   0.549 -2.0626 -0.6985  1.6019
 2239SOL    MW4 8724   0.597   2.064   0.553 -0.3747 -0.2158  0.5459
 2240SOL     OW 8725   4.054   2.456   0.455 -0.1526  0.3892  0.1590
 2240SOL    HW2 8726   4.035   2.547   0.477 -0.7057  0.1183  0.8715
 2240SOL    HW3 8727   3.972   2.410   0.473  0.5759 -0.5011  1.4017
 2240SOL    MW4 8728   4.040   2.462   0.460 -0.1294  0.2360  0.4169
 2241SOL     OW 8729   0.996   0.344   5.997  0.2614 -0.3070  0.6918
 2241SOL    HW2 8730   0.976   0.418   6.055 -1.1133 -1.4711  1.7647
 2241SOL    HW3 8731   0.951   0.364   5.916 -1.0894 -0.4856  1.3738
 2241SOL    MW4 8732   0.988   0.357   5.994 -0.0982 -0.4841  0.9233
 2242SOL     OW 8733   2.012   1.964   3.435  0.1558  0.3507  0.1983
 2242SOL    HW2 8734   2.098   1.922   3.428  0.1373  0.3844 -0.2827
 2242SOL    HW3 8735   2.028   2.042   3.487  0.5686  0.7396 -0.4866
 2242SOL    MW4 8736   2.025   1.968   3.441  0.2078  0.4064  0.0445
 2243SOL     OW 8737   6.253   1.744   4.954 -0.3522 -0.0713  0.0922
 2243SOL    HW2 8738   6.261   1.724   5.047  1.7126  1.5195  0.3570
 2243SOL    HW3 8739   6.242   1.840   4.952 -0.6074 -0.1161 -1.2931
 2243SOL    MW4 8740   6.253   1.754   4.966 -0.1135  0.1327 -0.0556
 2244SOL     OW 8741   5.318   5.749   6.157 -0.0268 -0.4977 -0.1306
 2244SOL    HW2 8742   5.317   5.670   6.102 -0.8964 -0.4061 -0.2628
 2244SOL    HW3 8743   5.245   5.802   6.124  0.4923  0.3261  0.0199
 2244SOL    MW4 8744   5.309   5.745   6.145 -0.0730 -0.3769 -0.1282
 2245SOL     OW 8745   3.936   4.717   0.991 -0.9741 -0.1765 -0.4176
 2245SOL    HW2 8746   3.964   4.625   0.993 -3.1044 -0.8832 -0.8609
 2245SOL    HW3 8747   3.973   4.751   0.910  1.0724 -0.1794  0.4565
 2245SOL    MW4 8748   3.945   4.709   0.981 -0.9851 -0.2701 -0.3608
 2246SOL     OW 8749   0.017   0.371   1.868  0.1120  0.2446 -0.5564
 2246SOL    HW2 8750   0.032   0.466   1.861  1.6646  0.0998  0.3730
 2246SOL    HW3 8751  -0.075   0.360   1.844 -0.2078  2.0339 -0.3029
 2246SOL    MW4 8752   0.007   0.382   1.864  0.2747  0.4616 -0.4003
 2247SOL     OW 8753   5.059   3.803   4.112 -0.8217 -0.0769  0.3831
 2247SOL    HW2 8754   5.009   3.837   4.038  0.4359 -0.0135 -0.4766
 2247SOL    HW3 8755   5.010   3.725   4.140 -1.9198  0.5337  0.2389
 2247SOL    MW4 8756   5.046   3.797   4.106 -0.8006  0.0120  0.2506
 2248SOL     OW 8757   5.636   3.844   0.101 -0.1809 -0.1434  0.0546
 2248SOL    HW2 8758   5.627   3.750   0.117 -1.4126  0.2074  1.7241
 2248SOL    HW3 8759   5.561   3.866   0.046 -0.5354  0.0308  0.5952
 2248SOL    MW4 8760   5.625   3.834   0.096 -0.3902 -0.0741  0.3462
 2249SOL     OW 8761   3.458   1.556   5.475  0.1347 -0.3849  0.3932
 2249SOL    HW2 8762   3.371   1.543   5.438 -0.4161 -0.7614  1.7494
 2249SOL    HW3 8763   3.487   1.640   5.441 -1.8356  0.9985  1.8601
 2249SOL    MW4 8764   3.450   1.565   5.466 -0.1980 -0.2520  0.7657
 2250SOL     OW 8765   6.287   3.219   6.170 -0.6950 -0.4760 -0.0125
 2250SOL    HW2 8766   6.215   3.278   6.192 -0.6982 -0.1073 -0.9239
 2250SOL    HW3 8767   6.251   3.162   6.102 -0.0186 -0.0150 -0.7734
 2250SOL    MW4 8768   6.273   3.219   6.164 -0.6062 -0.3665 -0.2331
 2251SOL     OW 8769   4.758   1.305   4.405  0.1807 -0.2404 -0.2431
 2251SOL    HW2 8770   4.723   1.377   4.458 -1.4483 -0.3209 -1.1438
 2251SOL    HW3 8771   4.799   1.349   4.330 -4.6318 -0.0643 -3.2033
 2251SOL    MW4 8772   4.758   1.320   4.402 -0.6692 -0.2278 -0.7525
 2252SOL     OW 8773   4.051   0.861   5.976  0.5633  0.1559 -0.1330
 2252SOL    HW2 8774   4.128   0.804   5.971  0.3880 -0.3508  2.0904
 2252SOL    HW3 8775   4.086   0.950   5.967  1.7666  0.0802  2.7613
 2252SOL    MW4 8776   4.066   0.865   5.974  0.6989  0.0790  0.5422
 2253SOL     OW 8777   2.548   3.456   5.255 -0.1900 -0.4419  0.0460
 2253SOL    HW2 8778   2.579   3.458   5.345 -0.1683 -0.2665  0.0354
 2253SOL    HW3 8779   2.618   3.411   5.207  0.5758  0.9161 -0.1701
 2253SOL    MW4 8780   2.561   3.451   5.260 -0.0861 -0.2396  0.0161
 2254SOL     OW 8781   6.148   5.578   2.074 -0.5483 -0.6070  0.3847
 2254SOL    HW2 8782   6.156   5.673   2.061  1.3661 -0.7383  0.4121
 2254SOL    HW3 8783   6.191   5.561   2.158  0.5470 -1.6971 -0.3721
 2254SOL    MW4 8784   6.154   5.588   2.083 -0.1512 -0.7681  0.2885
 2255SOL     OW 8785   3.946   2.935   4.506 -0.6836 -0.1504 -0.1371
 2255SOL    HW2 8786   3.956   2.938   4.601  0.5724 -0.5834 -0.2349
 2255SOL    HW3 8787   4.033   2.911   4.474 -0.7411  1.2724 -1.4758
 2255SOL    MW4 8788   3.959   2.932   4.515 -0.5255 -0.0198 -0.3266
 2256SOL     OW 8789   5.122   4.496   2.864 -0.3106 -0.4321 -0.0987
 2256SOL    HW2 8790   5.094   4.560   2.798  0.8897  0.6406  0.3901
 2256SOL    HW3 8791   5.043   4.482   2.917 -1.2782 -1.2725 -1.6860
 2256SOL    MW4 8792   5.108   4.503   2.862 -0.2799 -0.4014 -0.2436
 2257SOL     OW 8793   0.086   2.975   0.603 -0.6077 -0.2251 -0.7346
 2257SOL    HW2 8794   0.085   3.059   0.649 -0.3721 -1.5913  1.9908
 2257SOL    HW3 8795   0.132   2.993   0.521 -0.0520  2.1807  0.0215
 2257SOL    MW4 8796   0.092   2.989   0.599 -0.5033 -0.0880 -0.2752
 2258SOL     OW 8797   0.318   4.000   3.866 -0.9732 -0.6978  0.2071
 2258SOL    HW2 8798   0.372   4.012   3.944 -0.2935 -0.3607 -0.3023
 2258SOL    HW3 8799   0.379   4.012   3.793 -1.6710 -0.6578 -0.3783
 2258SOL    MW4 8800   0.334   4.003   3.867 -0.9756 -0.6481  0.0627
 2259SOL     OW 8801   1.451   0.749   2.037 -0.1789 -0.2506 -0.3386
 2259SOL    HW2 8802   1.520   0.805   2.072 -0.9441  0.5965 -0.1447
 2259SOL    HW3 8803   1.478   0.730   1.947 -0.3075  1.1252 -0.6863
 2259SOL    MW4 8804   1.463   0.754   2.030 -0.2969  0.0427 -0.3589
 2260SOL     OW 8805   4.039   4.207   6.493 -0.8696  0.0952  0.3141
 2260SOL    HW2 8806   4.086   4.200   6.576  1.3704  0.8506 -0.8149
 2260SOL    HW3 8807   3.951   4.238   6.517  0.1005  1.4980  2.3133
 2260SOL    MW4 8808   4.033   4.210   6.507 -0.4461  0.3799  0.4289
 2261SOL     OW 8809   2.526   4.269   5.109  0.4167  0.4010 -0.4663
 2261SOL    HW2 8810   2.473   4.304   5.038  0.8338  0.6105 -0.6691
 2261SOL    HW3 8811   2.601   4.229   5.066  0.0282 -0.6241 -0.2379
 2261SOL    MW4 8812   2.529   4.268   5.094  0.4204  0.2934 -0.4629
 2262SOL     OW 8813   2.414   5.235   6.347  0.2387 -0.0061 -0.0152
 2262SOL    HW2 8814   2.483   5.171   6.365  0.4077 -0.0643 -0.8307
 2262SOL    HW3 8815   2.441   5.277   6.265 -0.9134 -0.3406 -0.5923
 2262SOL    MW4 8816   2.426   5.232   6.338  0.1090 -0.0579 -0.1989
 2263SOL     OW 8817   4.767   6.193   4.704 -0.1748 -0.0124 -0.1739
 2263SOL    HW2 8818   4.704   6.124   4.723 -0.1632  0.1968  0.6512
 2263SOL    HW3 8819   4.850   6.161   4.741  0.2869 -0.3931 -1.4477
 2263SOL    MW4 8820   4.770   6.180   4.711 -0.1123 -0.0350 -0.2331
 2264SOL     OW 8821   4.476   3.251   5.790  0.1265  0.3938 -0.5754
 2264SOL    HW2 8822   4.467   3.326   5.732 -1.8839  1.0443  0.4790
 2264SOL    HW3 8823   4.493   3.288   5.876 -0.4056 -0.3827 -0.1238
 2264SOL    MW4 8824   4.477   3.265   5.794 -0.2090  0.3772 -0.3767
 2265SOL     OW 8825   2.064   4.865   1.263 -0.1778 -0.8394  0.6074
 2265SOL    HW2 8826   2.008   4.893   1.190 -0.8609 -1.1975  0.9769
 2265SOL    HW3 8827   2.047   4.930   1.332  1.2459  0.0942  0.1124
 2265SOL    MW4 8828   2.054   4.878   1.263 -0.0801 -0.7635  0.5908
 2266SOL     OW 8829   1.105   4.715   1.366  0.0457  0.1556 -0.3507
 2266SOL    HW2 8830   1.108   4.797   1.316  1.9231  0.3415  0.0028
 2266SOL    HW3 8831   1.021   4.676   1.342 -0.7188  1.9749 -0.8471
 2266SOL    MW4 8832   1.094   4.721   1.356  0.1925  0.4201 -0.3695
 2267SOL     OW 8833   0.988   4.516   2.844  0.1371 -0.1103  0.3000
 2267SOL    HW2 8834   0.972   4.452   2.775 -0.2683 -0.0050  0.2901
 2267SOL    HW3 8835   0.906   4.519   2.894  0.9095 -1.2559  1.6956
 2267SOL    MW4 8836   0.975   4.508   2.841  0.1855 -0.2476  0.4828
 2268SOL     OW 8837   3.361   1.756   0.849 -0.4464 -0.2366 -0.2599
 2268SOL    HW2 8838   3.415   1.835   0.846 -1.3083  0.4380  1.0167
 2268SOL    HW3 8839   3.280   1.781   0.804 -2.1418  0.8469  3.0456
 2268SOL    MW4 8840   3.357   1.770   0.842 -0.7838 -0.0046  0.3447
 2269SOL     OW 8841   1.689   4.407   0.445  0.4893 -0.0375  0.4366
 2269SOL    HW2 8842   1.713   4.342   0.379 -0.6530 -0.5441  0.5080
 2269SOL    HW3 8843   1.640   4.474   0.396  1.4669  0.6827  0.4032
 2269SOL    MW4 8844   1.686   4.407   0.430  0.4675 -0.0093  0.4416
 2270SOL     OW 8845   3.265   3.274   0.143  0.1142 -0.2746 -0.4544
 2270SOL    HW2 8846   3.174   3.244   0.149 -0.3576  1.3050  1.1840
 2270SOL    HW3 8847   3.260   3.352   0.087  0.4602 -0.2184 -0.4046
 2270SOL    MW4 8848   3.252   3.280   0.137  0.0976 -0.0588 -0.2317
 2271SOL     OW 8849   3.916   1.071   1.664  0.5094 -0.1274  0.3869
 2271SOL    HW2 8850   3.831   1.068   1.709  0.7528  1.2367  0.9741
 2271SOL    HW3 8851   3.980   1.089   1.733  0.9776  1.2443 -0.3627
 2271SOL    MW4 8852   3.913   1.073   1.679  0.6033  0.2336  0.3655
 2272SOL     OW 8853   2.691   1.711   3.905 -0.6054  0.6305 -0.5845
 2272SOL    HW2 8854   2.735   1.779   3.956  0.1414 -0.1704 -0.1498
 2272SOL    HW3 8855   2.606   1.702   3.947 -0.2842  0.5122  0.0480
 2272SOL    MW4 8856   2.686   1.719   3.917 -0.4645  0.5092 -0.4437
 2273SOL     OW 8857   2.372   0.082   0.969 -0.2394 -0.1941 -0.0378
 2273SOL    HW2 8858   2.430   0.053   1.041 -0.6999 -0.5109  0.2121
 2273SOL    HW3 8859   2.432   0.101   0.897  0.2101 -0.1674  0.3329
 2273SOL    MW4 8860   2.388   0.080   0.969 -0.2408 -0.2324  0.0441
 2274SOL     OW 8861   1.119   3.945   5.336 -0.0633 -0.1610 -0.6351
 2274SOL    HW2 8862   1.086   3.968   5.249 -0.2625 -2.2459 -1.1724
 2274SOL    HW3 8863   1.085   4.013   5.393 -0.4491  0.9239 -2.0913
 2274SOL    MW4 8864   1.110   3.957   5.332 -0.1405 -0.2929 -0.8981
 2275SOL     OW 8865   5.558   1.674   3.396 -0.0422  0.3450  0.5472
 2275SOL    HW2 8866   5.652   1.669   3.381  0.1299  2.4392  0.5543
 2275SOL    HW3 8867   5.544   1.636   3.482  0.6989 -0.5147  0.2989
 2275SOL    MW4 8868   5.568   1.668   3.405  0.0783  0.5079  0.5154
 2276SOL     OW 8869   0.107   2.662   5.051 -0.0412  0.1226 -0.5780
 2276SOL    HW2 8870   0.045   2.627   4.986  1.0673  0.7858 -2.0338
 2276SOL    HW3 8871   0.080   2.753   5.063 -0.8420 -0.2522  0.6733
 2276SOL    MW4 8872   0.095   2.669   5.044 -0.0006  0.1607 -0.6050
 2277SOL     OW 8873   3.571   4.810   2.947 -0.0343 -0.4878  0.5127
 2277SOL    HW2 8874   3.591   4.720   2.973 -2.0074 -0.6118  1.8521
 2277SOL    HW3 8875   3.518   4.802   2.868 -0.3022 -0.5236  0.6939
 2277SOL    MW4 8876   3.567   4.797   2.940 -0.3299 -0.5088  0.7133
 2278SOL     OW 8877   4.963   0.984   5.970 -0.1325  0.4006 -0.4219
 2278SOL    HW2 8878   4.997   1.068   6.001  2.7687 -0.6648 -0.4254
 2278SOL    HW3 8879   5.003   0.971   5.884  0.8133 -1.6546  0.2537
 2278SOL    MW4 8880   4.973   0.993   5.963  0.3750 -0.0111 -0.3332
 2279SOL     OW 8881   2.001   1.062   4.647  0.0904 -0.4240  0.1429
 2279SOL    HW2 8882   1.939   1.093   4.581  1.9184  0.1888 -1.3682
 2279SOL    HW3 8883   1.963   1.090   4.730 -1.8534 -0.4471 -0.6707
 2279SOL    MW4 8884   1.988   1.070   4.649  0.0751 -0.3462 -0.1638
 2280SOL     OW 8885   5.212   5.879   0.351 -0.3021 -0.3297  0.6259
 2280SOL    HW2 8886   5.261   5.961   0.356 -1.7052  0.6481 -0.9181
 2280SOL    HW3 8887   5.131   5.896   0.398 -1.2934 -0.2636 -1.0231
 2280SOL    MW4 8888   5.208   5.892   0.358 -0.6180 -0.1919  0.2046
 2281SOL     OW 8889   2.099   1.272   1.828  0.2331  0.6495 -0.3225
 2281SOL    HW2 8890   2.168   1.228   1.878 -0.4786  1.5758  1.5956
 2281SOL    HW3 8891   2.109   1.240   1.739  0.5095 -2.4677  0.7137
 2281SOL    MW4 8892   2.109   1.262   1.823  0.1757  0.3604  0.0673
 2282SOL     OW 8893   2.999   5.853   0.600  0.1693 -0.1293 -1.0329
 2282SOL    HW2 8894   3.023   5.912   0.672  2.1423 -1.6897 -0.3159
 2282SOL    HW3 8895   2.903   5.852   0.601 -0.1012  4.1609 -2.0758
 2282SOL    MW4 8896   2.989   5.861   0.609  0.3939  0.2308 -1.0759
 2283SOL     OW 8897   0.092   1.455   5.450  0.4259  0.4763 -0.1075
 2283SOL    HW2 8898   0.017   1.424   5.501 -0.0248  0.5919 -0.6903
 2283SOL    HW3 8899   0.059   1.462   5.361  1.6011 -1.2000 -0.7295
 2283SOL    MW4 8900   0.078   1.452   5.445  0.5215  0.2704 -0.2665
 2284SOL     OW 8901   1.431   0.563   5.185 -0.1944 -0.0354  0.7901
 2284SOL    HW2 8902   1.447   0.619   5.261  2.6611 -0.7954  0.8586
 2284SOL    HW3 8903   1.441   0.474   5.218  0.0038 -0.4175 -0.2540
 2284SOL    MW4 8904   1.434   0.559   5.199  0.2085 -0.1861  0.6614
 2285SOL     OW 8905   2.128   1.299   6.206 -0.3020  0.5536  0.0895
 2285SOL    HW2 8906   2.042   1.339   6.207 -1.3280 -1.4568 -0.9629
 2285SOL    HW3 8907   2.171   1.335   6.129 -0.0542  1.7344  0.7446
 2285SOL    MW4 8908   2.123   1.309   6.196 -0.4047  0.4441  0.0371
 2286SOL     OW 8909   5.723   4.675   5.007  0.2505  0.0732 -0.3526
 2286SOL    HW2 8910   5.641   4.625   5.011  1.0513 -1.4396 -1.4710
 2286SOL    HW3 8911   5.751   4.682   5.099 -0.9863  0.3996  0.0197
 2286SOL    MW4 8912   5.716   4.669   5.020  0.1929 -0.0833 -0.4510
 2287SOL     OW 8913   3.739   0.118   4.568 -0.0082  0.3612 -0.3773
 2287SOL    HW2 8914   3.786   0.153   4.644 -1.9543  0.5557  0.8061
 2287SOL    HW3 8915   3.680   0.188   4.542 -0.6389 -0.3528 -0.9215
 2287SOL    MW4 8916   3.737   0.132   4.575 -0.3482  0.2927 -0.2930
 2288SOL     OW 8917   5.992   6.364   1.491  0.6993 -0.3500 -0.2876
 2288SOL    HW2 8918   5.947   6.279   1.493  0.0090  0.0134 -0.1735
 2288SOL    HW3 8919   5.925   6.428   1.514  1.4702  0.1245  0.7394
 2288SOL    MW4 8920   5.977   6.361   1.494  0.7099 -0.2395 -0.1371
 2289SOL     OW 8921   0.228   1.725   5.817  0.3676  0.5464  0.9179
 2289SOL    HW2 8922   0.201   1.806   5.860  0.5090  1.5892 -0.8432
 2289SOL    HW3 8923   0.306   1.697   5.865 -1.3281 -0.2472  3.4384
 2289SOL    MW4 8924   0.235   1.732   5.829  0.1625  0.5792  1.0181
 2290SOL     OW 8925   0.220   1.444   6.204  0.3446 -0.2877  0.2908
 2290SOL    HW2 8926   0.181   1.480   6.284  0.4922  0.3745  0.0696
 2290SOL    HW3 8927   0.309   1.420   6.229  0.4413  0.0654  0.2868
 2290SOL    MW4 8928   0.227   1.445   6.218  0.3769 -0.1537  0.2611
 2291SOL     OW 8929   5.939   4.335   6.116 -0.0310 -0.3180  0.3667
 2291SOL    HW2 8930   5.935   4.404   6.049 -0.4150 -0.7714 -0.0862
 2291SOL    HW3 8931   5.881   4.366   6.186  0.4004  0.1772  0.5153
 2291SOL    MW4 8932   5.931   4.348   6.116 -0.0247 -0.3125  0.3266
 2292SOL     OW 8933   0.406   2.834   3.806 -0.0844 -0.1937 -0.3053
 2292SOL    HW2 8934   0.420   2.822   3.900 -1.3093  0.3293 -0.0362
 2292SOL    HW3 8935   0.489   2.870   3.774  0.0784  0.4025  0.7399
 2292SOL    MW4 8936   0.419   2.837   3.814 -0.2245 -0.0460 -0.1319
 2293SOL     OW 8937   5.055   5.960   2.426 -0.1121  0.4350 -0.4430
 2293SOL    HW2 8938   5.046   5.987   2.335 -1.0684  0.6476 -0.2962
 2293SOL    HW3 8939   4.965   5.941   2.455  0.2978 -0.8856  0.0775
 2293SOL    MW4 8940   5.042   5.961   2.418 -0.1842  0.2888 -0.3549
 2294SOL     OW 8941   1.438   2.503   5.701  0.6979 -0.0677  0.2350
 2294SOL    HW2 8942   1.387   2.525   5.623  0.7877  0.8347  0.4097
 2294SOL    HW3 8943   1.513   2.563   5.697  1.2056 -0.6805  0.5101
 2294SOL    MW4 8944   1.441   2.514   5.690  0.7767 -0.0295  0.2944
 2295SOL     OW 8945   0.222   5.117   5.853 -0.4650 -0.1529 -0.0886
 2295SOL    HW2 8946   0.167   5.190   5.825  0.3556  0.2134 -0.7828
 2295SOL    HW3 8947   0.262   5.147   5.935  0.8596  0.7075 -1.0218
 2295SOL    MW4 8948   0.220   5.131   5.860 -0.1820  0.0089 -0.3033
 2296SOL     OW 8949   0.676   0.460   2.392  0.3313 -0.5805 -0.1092
 2296SOL    HW2 8950   0.653   0.370   2.416 -0.4844 -1.0026 -2.1979
 2296SOL    HW3 8951   0.721   0.495   2.468 -1.4385 -1.9635  1.6642
 2296SOL    MW4 8952   0.679   0.453   2.405 -0.0098 -0.8186 -0.1508
 2297SOL     OW 8953   3.632   4.417   1.085 -0.6891  0.0657  0.4998
 2297SOL    HW2 8954   3.677   4.367   1.018  1.0547 -0.9347  2.3235
 2297SOL    HW3 8955   3.637   4.508   1.055  1.7947 -0.1225  0.1793
 2297SOL    MW4 8956   3.638   4.422   1.072 -0.1313 -0.0911  0.6981
 2298SOL     OW 8957   4.071   3.324   1.149 -0.1065  0.1395 -0.3210
 2298SOL    HW2 8958   4.016   3.251   1.119 -0.9270  0.8193 -0.5022
 2298SOL    HW3 8959   4.084   3.377   1.071  0.8768 -0.0461 -0.2916
 2298SOL    MW4 8960   4.065   3.321   1.135 -0.0850  0.2047 -0.3410
 2299SOL     OW 8961   3.886   5.660   5.288 -0.1036  0.2646  0.1523
 2299SOL    HW2 8962   3.893   5.608   5.208  1.9262  2.5098 -1.2817
 2299SOL    HW3 8963   3.792   5.680   5.294 -0.7808 -2.5447  0.1996
 2299SOL    MW4 8964   3.874   5.656   5.278  0.0749  0.1902 -0.0307
 2300SOL     OW 8965   5.651   1.484   0.804 -0.0845  0.4746  0.6067
 2300SOL    HW2 8966   5.745   1.498   0.798  0.0501 -0.3102  0.8466
 2300SOL    HW3 8967   5.631   1.497   0.897 -0.0099 -0.6055  0.7754
 2300SOL    MW4 8968   5.661   1.488   0.816 -0.0569  0.2286  0.6607
 2301SOL     OW 8969   3.189   5.852   1.176 -0.0971 -0.2304  0.1449
 2301SOL    HW2 8970   3.254   5.828   1.109  3.1498 -1.1224  3.3130
 2301SOL    HW3 8971   3.120   5.786   1.167 -0.0682 -0.0231 -2.5111
 2301SOL    MW4 8972   3.188   5.840   1.166  0.3351 -0.3207  0.2125
 2302SOL     OW 8973   2.075   3.752   2.653 -0.4404 -0.3701 -0.0317
 2302SOL    HW2 8974   2.036   3.840   2.653 -0.5768 -0.2987 -3.1524
 2302SOL    HW3 8975   2.006   3.695   2.618  0.9095 -0.9147 -1.9851
 2302SOL    MW4 8976   2.061   3.756   2.648 -0.2803 -0.4326 -0.7012
 2303SOL     OW 8977   6.104   3.595   2.411 -0.1860 -0.3226 -0.0132
 2303SOL    HW2 8978   6.055   3.636   2.482 -0.9959  0.0761 -0.7729
 2303SOL    HW3 8979   6.177   3.655   2.395  0.6797 -1.0033  1.2337
 2303SOL    MW4 8980   6.107   3.609   2.418 -0.1786 -0.3598  0.0511
 2304SOL     OW 8981   5.957   4.416   3.344  0.2555 -0.1255 -0.3326
 2304SOL    HW2 8982   5.991   4.506   3.346  0.6469 -0.2585 -0.9453
 2304SOL    HW3 8983   5.879   4.422   3.288  1.0217 -0.4080 -1.4668
 2304SOL    MW4 8984   5.951   4.429   3.337  0.4082 -0.1803 -0.5631
 2305SOL     OW 8985   4.641   3.044   4.247 -0.7920 -0.0415 -0.3350
 2305SOL    HW2 8986   4.551   3.049   4.280 -0.2956 -0.5968  1.2264
 2305SOL    HW3 8987   4.693   3.024   4.325  0.6630  0.0632 -1.2488
 2305SOL    MW4 8988   4.636   3.042   4.262 -0.5346 -0.1009 -0.2496
 2306SOL     OW 8989   1.784   5.116   1.604  0.0511 -0.1407 -0.4815
 2306SOL    HW2 8990   1.751   5.169   1.532  0.5139 -0.0801 -0.6546
 2306SOL    HW3 8991   1.712   5.057   1.626 -0.2628  0.1735 -0.6671
 2306SOL    MW4 8992   1.770   5.115   1.597  0.0707 -0.0913 -0.5289
 2307SOL     OW 8993   4.350   0.556   3.079  0.1406  0.1454  0.0293
 2307SOL    HW2 8994   4.340   0.461   3.078  1.7254 -0.0668 -1.4881
 2307SOL    HW3 8995   4.410   0.574   3.152 -1.0401  0.1277  1.0315
 2307SOL    MW4 8996   4.357   0.546   3.088  0.1939  0.1151 -0.0386
 2308SOL     OW 8997   0.241   4.901   4.500 -0.1079 -0.3395  0.0676
 2308SOL    HW2 8998   0.237   4.930   4.409  2.5708  1.0022  0.2821
 2308SOL    HW3 8999   0.172   4.951   4.544  0.0911  0.7491 -0.8147
 2308SOL    MW4 9000   0.231   4.911   4.494  0.2718 -0.0189 -0.0205
 2309SOL     OW 9001   5.229   6.190   3.720 -0.0176 -0.3154  0.2467
 2309SOL    HW2 9002   5.243   6.246   3.643  0.3724  0.1435  0.6423
 2309SOL    HW3 9003   5.135   6.189   3.733 -0.1205 -0.7190 -0.4721
 2309SOL    MW4 9004   5.219   6.197   3.711  0.0203 -0.3081  0.2041
 2310SOL     OW 9005   2.789   2.743   5.213  0.5646  0.1377  0.3085
 2310SOL    HW2 9006   2.707   2.789   5.229 -0.2745 -1.0236 -0.4464
 2310SOL    HW3 9007   2.786   2.668   5.273  1.6814  0.7715  1.1831
 2310SOL    MW4 9008   2.777   2.739   5.223  0.6012  0.0681  0.3243
 2311SOL     OW 9009   6.178   5.903   5.811  0.5999 -0.4103  0.0973
 2311SOL    HW2 9010   6.178   5.810   5.787  0.7519 -0.9328  1.9794
 2311SOL    HW3 9011   6.253   5.940   5.764 -0.6004 -0.7611 -2.2396
 2311SOL    MW4 9012   6.188   5.895   5.802  0.4615 -0.5255  0.0373
 2312SOL     OW 9013   5.242   2.970   2.663 -0.9045  0.7984 -0.1690
 2312SOL    HW2 9014   5.151   2.970   2.636 -0.8126  1.2681 -0.4827
 2312SOL    HW3 9015   5.241   2.936   2.753 -1.0354 -2.6770 -1.3477
 2312SOL    MW4 9016   5.230   2.965   2.671 -0.9097  0.4018 -0.3659
 2313SOL     OW 9017   1.875   4.956   3.600 -0.0094 -0.6482  0.1674
 2313SOL    HW2 9018   1.837   4.889   3.544  1.8547 -0.4959 -1.3840
 2313SOL    HW3 9019   1.805   4.980   3.659 -1.7603 -1.5940 -1.4148
 2313SOL    MW4 9020   1.861   4.950   3.600  0.0056 -0.7529 -0.2461
 2314SOL     OW 9021   2.712   2.844   4.075  0.1395 -0.4096 -0.0238
 2314SOL    HW2 9022   2.728   2.763   4.027 -1.7848 -0.7428 -0.1556
 2314SOL    HW3 9023   2.632   2.828   4.125  1.1667  0.5035  2.0472
 2314SOL    MW4 9024   2.704   2.831   4.076  0.0211 -0.3331  0.2321
 2315SOL     OW 9025   6.094   3.415   0.256  0.2116 -0.4594 -0.0139
 2315SOL    HW2 9026   6.047   3.399   0.338  0.0057 -0.4758 -0.1339
 2315SOL    HW3 9027   6.163   3.477   0.279  0.3903 -0.7485  0.2492
 2315SOL    MW4 9028   6.097   3.421   0.269  0.2080 -0.4997  0.0050
 2316SOL     OW 9029   4.804   1.675   0.848 -0.0104 -0.2155  0.0333
 2316SOL    HW2 9030   4.722   1.677   0.799 -0.6809  0.7475  1.1346
 2316SOL    HW3 9031   4.867   1.719   0.791 -0.9126  1.4185  0.2417
 2316SOL    MW4 9032   4.801   1.681   0.834 -0.2179  0.1272  0.2061
 2317SOL     OW 9033   4.636   6.319   2.477 -0.2947 -0.2004 -0.3890
 2317SOL    HW2 9034   4.583   6.399   2.472 -0.3943 -0.2032  0.4647
 2317SOL    HW3 9035   4.726   6.350   2.487  0.1666 -0.1642 -3.6954
 2317SOL    MW4 9036   4.641   6.334   2.478 -0.2470 -0.1960 -0.7126
 2318SOL     OW 9037   3.533   6.032   4.138 -0.5020 -0.4180 -0.0098
 2318SOL    HW2 9038   3.538   6.051   4.231 -0.5410  1.8827 -0.4308
 2318SOL    HW3 9039   3.624   6.023   4.110 -0.5022 -1.5943  0.3014
 2318SOL    MW4 9040   3.546   6.033   4.147 -0.5072 -0.2696 -0.0243
 2319SOL     OW 9041   0.990   1.555   6.415 -0.4564  0.3337  0.0489
 2319SOL    HW2 9042   1.006   1.486   6.351 -0.9210  0.9725 -0.7789
 2319SOL    HW3 9043   1.050   1.535   6.487 -0.2197 -0.6356 -0.3992
 2319SOL    MW4 9044   1.000   1.544   6.416 -0.4865  0.2901 -0.1194
 2320SOL     OW 9045   3.776   0.902   0.405  0.4816  0.1713 -0.2394
 2320SOL    HW2 9046   3.701   0.961   0.393  1.3905  1.4515  0.1944
 2320SOL    HW3 9047   3.800   0.912   0.497  1.8969  0.6627 -0.6388
 2320SOL    MW4 9048   3.769   0.911   0.416  0.7883  0.4051 -0.2349
 2321SOL     OW 9049   1.380   3.907   1.892  0.3417 -0.2326 -0.2624
 2321SOL    HW2 9050   1.402   3.965   1.818 -1.6287 -0.5827 -1.1770
 2321SOL    HW3 9051   1.401   3.959   1.969 -0.1858  1.2553 -1.0689
 2321SOL    MW4 9052   1.386   3.922   1.892  0.0122 -0.0824 -0.4895
 2322SOL     OW 9053   4.918   2.529   6.204  0.0388  0.0720 -0.7418
 2322SOL    HW2 9054   4.934   2.585   6.280  1.1015  0.1341 -1.0072
 2322SOL    HW3 9055   4.880   2.587   6.139 -2.2124 -0.2457  0.1706
 2322SOL    MW4 9056   4.915   2.544   6.205 -0.1180  0.0383 -0.6564
 2323SOL     OW 9057   1.998   3.376   2.201 -0.0789 -0.2344  0.0570
 2323SOL    HW2 9058   1.929   3.439   2.182 -0.3390 -0.3346  0.6511
 2323SOL    HW3 9059   2.006   3.377   2.296  1.2362  0.2892 -0.0449
 2323SOL    MW4 9060   1.990   3.384   2.211  0.0603 -0.1785  0.1219
 2324SOL     OW 9061   0.011   6.185   5.159  0.1615  0.6435 -0.5636
 2324SOL    HW2 9062  -0.083   6.188   5.174  0.2881  0.8617  0.2269
 2324SOL    HW3 9063   0.023   6.112   5.097 -0.7346  1.9920 -2.4364
 2324SOL    MW4 9064  -0.000   6.176   5.153  0.0599  0.8502 -0.7064
 2325SOL     OW 9065   0.772   0.144   1.966  0.5798  0.2012  0.3497
 2325SOL    HW2 9066   0.742   0.222   2.014  0.3960  0.9713 -0.9788
 2325SOL    HW3 9067   0.760   0.072   2.029  1.1887  1.2831  1.7659
 2325SOL    MW4 9068   0.766   0.144   1.981  0.6359  0.4456  0.3613
 2326SOL     OW 9069   4.340   1.854   4.619 -0.4982 -0.4127 -0.5734
 2326SOL    HW2 9070   4.303   1.833   4.533  0.7078 -0.2073 -1.1710
 2326SOL    HW3 9071   4.334   1.949   4.625 -1.1585 -0.4762 -0.1453
 2326SOL    MW4 9072   4.334   1.863   4.608 -0.4262 -0.3940 -0.5958
 2327SOL     OW 9073   2.551   0.038   3.923  0.3146 -0.3862 -0.2180
 2327SOL    HW2 9074   2.514  -0.046   3.893  0.3654 -0.5857  0.2610
 2327SOL    HW3 9075   2.562   0.089   3.843 -1.1082 -0.2736 -0.3817
 2327SOL    MW4 9076   2.547   0.033   3.909  0.1336 -0.3977 -0.1764
 2328SOL     OW 9077   2.230   5.185   4.925 -0.2274 -0.2653  0.7133
 2328SOL    HW2 9078   2.151   5.162   4.975 -0.3637  1.4940  1.3611
 2328SOL    HW3 9079   2.299   5.132   4.963 -1.1724 -2.3630 -0.3119
 2328SOL    MW4 9080   2.228   5.175   4.937 -0.3700 -0.3099  0.6635
 2329SOL     OW 9081   1.306   3.034   1.203  0.7396 -0.2553  0.0213
 2329SOL    HW2 9082   1.378   3.064   1.147 -0.3368  0.8055 -0.8604
 2329SOL    HW3 9083   1.266   2.963   1.153  0.7145 -0.3369  0.1590
 2329SOL    MW4 9084   1.310   3.028   1.189  0.5943 -0.1261 -0.0769
 2330SOL     OW 9085   2.304   1.545   1.941 -0.2563  0.0166 -0.1188
 2330SOL    HW2 9086   2.210   1.551   1.961  0.0654 -0.6264  1.8871
 2330SOL    HW3 9087   2.345   1.527   2.026  1.6657 -0.0193 -0.9974
 2330SOL    MW4 9088   2.297   1.544   1.955  0.0397 -0.0730  0.0299
 2331SOL     OW 9089   5.260   0.366   0.728  0.2432 -0.0248 -0.0626
 2331SOL    HW2 9090   5.282   0.361   0.822 -1.0706 -0.7911  0.2297
 2331SOL    HW3 9091   5.340   0.397   0.687  1.4050 -1.3120  1.1123
 2331SOL    MW4 9092   5.274   0.369   0.735  0.2231 -0.2957  0.1310
 2332SOL     OW 9093   5.645   3.696   4.687  0.0676 -0.0285  0.0312
 2332SOL    HW2 9094   5.623   3.681   4.595 -1.1091 -1.6884  0.5524
 2332SOL    HW3 9095   5.733   3.734   4.684  0.7674 -1.6215 -1.7199
 2332SOL    MW4 9096   5.654   3.699   4.675  0.0047 -0.4577 -0.1310
 2333SOL     OW 9097   0.263   5.543   2.943  0.0515 -0.5908 -0.2391
 2333SOL    HW2 9098   0.231   5.453   2.929 -1.8490 -0.3353  1.8790
 2333SOL    HW3 9099   0.200   5.598   2.896  0.9802 -0.3089 -1.1895
 2333SOL    MW4 9100   0.250   5.538   2.935 -0.0768 -0.5199 -0.0850
 2334SOL     OW 9101   1.938   0.517   4.870  0.1866  0.0459  0.2332
 2334SOL    HW2 9102   1.961   0.492   4.959 -0.9993  0.1476  0.5944
 2334SOL    HW3 9103   2.003   0.583   4.845  0.0409  0.6415  1.3519
 2334SOL    MW4 9104   1.949   0.523   4.878  0.0109  0.1379  0.4284
 2335SOL     OW 9105   4.449   5.423   4.861 -0.2895  0.3774 -0.3429
 2335SOL    HW2 9106   4.485   5.360   4.798 -0.2956  1.3064 -1.3217
 2335SOL    HW3 9107   4.473   5.509   4.825 -0.7952  0.9512  0.6342
 2335SOL    MW4 9108   4.457   5.426   4.848 -0.3570  0.5757 -0.3431
 2336SOL     OW 9109   3.618   5.673   2.843 -0.1053 -0.4289 -0.2100
 2336SOL    HW2 9110   3.597   5.589   2.802 -0.1512 -0.7467  0.4540
 2336SOL    HW3 9111   3.535   5.706   2.876  0.1140 -0.7854  0.7400
 2336SOL    MW4 9112   3.605   5.666   2.842 -0.0825 -0.5178  0.0029
 2337SOL     OW 9113   0.960   1.752   2.156  0.2494  0.0202 -0.1071
 2337SOL    HW2 9114   1.032   1.814   2.144 -0.5356  1.0744  0.3914
 2337SOL    HW3 9115   0.983   1.703   2.235  0.5054  0.2337 -0.0473
 2337SOL    MW4 9116   0.972   1.754   2.165  0.1796  0.1875 -0.0334
 2338SOL     OW 9117   4.747   5.372   0.980  0.1327  0.0742  0.4623
 2338SOL    HW2 9118   4.762   5.426   0.902  0.2412  1.9458  1.7212
 2338SOL    HW3 9119   4.652   5.361   0.984  0.0338  0.9492  0.6770
 2338SOL    MW4 9120   4.737   5.378   0.970  0.1340  0.4366  0.6567
 2339SOL     OW 9121   0.413   2.473   6.048 -0.0318  0.0386 -0.1289
 2339SOL    HW2 9122   0.346   2.505   5.988  0.5841 -0.8529 -1.3445
 2339SOL    HW3 9123   0.407   2.531   6.124 -3.2331 -0.9787  0.5410
 2339SOL    MW4 9124   0.403   2.485   6.050 -0.3729 -0.2132 -0.2009
 2340SOL     OW 9125   4.352   0.405   2.649  0.6416  0.0266  0.1510
 2340SOL    HW2 9126   4.353   0.420   2.555  1.9371  3.3054  0.5624
 2340SOL    HW3 9127   4.262   0.425   2.676  0.3297 -0.7000 -0.2970
 2340SOL    MW4 9128   4.340   0.409   2.640  0.7714  0.3633  0.1461
 2341SOL     OW 9129   0.731   4.829   2.914  0.1984 -0.5907 -0.0220
 2341SOL    HW2 9130   0.738   4.796   2.824 -0.1912  0.7904 -0.5771
 2341SOL    HW3 9131   0.818   4.816   2.951  0.5311 -0.6016 -0.7914
 2341SOL    MW4 9132   0.743   4.823   2.907  0.1909 -0.4099 -0.1968
 2342SOL     OW 9133   3.346   2.857   0.452  0.0616  0.5285  0.0174
 2342SOL    HW2 9134   3.264   2.893   0.418 -0.3050 -0.1891  0.1044
 2342SOL    HW3 9135   3.364   2.782   0.395  1.6679  1.7629 -1.1865
 2342SOL    MW4 9136   3.338   2.852   0.440  0.2252  0.5967 -0.1300
 2343SOL     OW 9137   6.239   5.848   0.831  0.1054 -0.4010 -0.2185
 2343SOL    HW2 9138   6.211   5.928   0.874 -1.7839 -1.3504  0.4409
 2343SOL    HW3 9139   6.159   5.813   0.791  1.0819 -1.4574 -1.3370
 2343SOL    MW4 9140   6.225   5.854   0.832 -0.0151 -0.6656 -0.2790
 2344SOL     OW 9141   3.333   0.906   5.804 -0.3445 -0.7469 -0.4402
 2344SOL    HW2 9142   3.278   0.879   5.730  0.8246  0.3129 -1.7505
 2344SOL    HW3 9143   3.421   0.877   5.781  0.6071  2.2089 -0.9673
 2344SOL    MW4 9144   3.338   0.899   5.791 -0.0647 -0.2171 -0.6826
 2345SOL     OW 9145   5.143   0.788   6.319  0.0237 -0.3869  0.2596
 2345SOL    HW2 9146   5.126   0.745   6.235 -0.7185 -0.5189  0.4671
 2345SOL    HW3 9147   5.238   0.793   6.325  0.0801  0.5782 -1.0640
 2345SOL    MW4 9148   5.153   0.783   6.309 -0.0668 -0.2770  0.1124
 2346SOL     OW 9149   5.549   0.179   3.746  0.2930  0.5173 -0.4346
 2346SOL    HW2 9150   5.596   0.138   3.819  1.6835 -0.5876 -1.8906
 2346SOL    HW3 9151   5.457   0.172   3.770  0.6954 -0.2294  0.9957
 2346SOL    MW4 9152   5.543   0.173   3.759  0.5296  0.2730 -0.4380
 2347SOL     OW 9153   6.361   2.451   4.927  0.0446 -0.0632  0.1934
 2347SOL    HW2 9154   6.284   2.457   4.984  0.0362  1.7149  0.0731
 2347SOL    HW3 9155   6.417   2.387   4.970 -2.4556 -3.3147 -0.9859
 2347SOL    MW4 9156   6.358   2.444   4.940 -0.2863 -0.2576  0.0220
 2348SOL     OW 9157   4.675   3.845   5.465 -0.0647 -0.5678 -0.1593
 2348SOL    HW2 9158   4.588   3.838   5.504 -0.1287  2.2500  0.4681
 2348SOL    HW3 9159   4.665   3.812   5.376 -1.0392 -2.8932  0.7393
 2348SOL    MW4 9160   4.662   3.840   5.459 -0.2017 -0.5028  0.0420
 2349SOL     OW 9161   5.557   5.151   4.163  0.0790  0.9749 -0.1318
 2349SOL    HW2 9162   5.642   5.136   4.122  0.1906 -3.7031  1.1490
 2349SOL    HW3 9163   5.496   5.156   4.089  1.2431  3.2229 -1.0312
 2349SOL    MW4 9164   5.560   5.150   4.148  0.2473  0.6543 -0.0815
 2350SOL     OW 9165   2.682   2.231   4.173 -0.0208  0.0652  0.9506
 2350SOL    HW2 9166   2.697   2.149   4.221  0.9042  0.6614  1.7184
 2350SOL    HW3 9167   2.718   2.299   4.230 -1.3119  1.0801  0.5861
 2350SOL    MW4 9168   2.689   2.229   4.187 -0.0691  0.2777  1.0038
 2351SOL     OW 9169   1.608   5.702   0.542  0.4674  0.2380 -0.2381
 2351SOL    HW2 9170   1.513   5.703   0.537  0.2998  2.4083  1.5570
 2351SOL    HW3 9171   1.638   5.749   0.465  0.0360  0.3649 -0.3251
 2351SOL    MW4 9172   1.600   5.708   0.531  0.3884  0.5411 -0.0127
 2352SOL     OW 9173   4.435   3.663   1.081  0.5788  0.0170 -0.3455
 2352SOL    HW2 9174   4.507   3.694   1.136 -1.7205  1.3932  2.0638
 2352SOL    HW3 9175   4.446   3.568   1.079  3.6334  0.2830 -1.8887
 2352SOL    MW4 9176   4.446   3.654   1.088  0.6784  0.2336 -0.2312
 2353SOL     OW 9177   3.185   3.099   3.860  0.1746 -0.0626 -0.1792
 2353SOL    HW2 9178   3.189   3.192   3.837 -0.3254  0.2617  0.9706
 2353SOL    HW3 9179   3.101   3.089   3.904  0.6399 -0.8597  0.5584
 2353SOL    MW4 9180   3.175   3.110   3.863  0.1700 -0.1250  0.0698
 2354SOL     OW 9181   6.337   1.574   3.900 -0.4424 -0.1700  0.4913
 2354SOL    HW2 9182   6.284   1.646   3.867 -2.4919 -2.1936 -1.0262
 2354SOL    HW3 9183   6.384   1.542   3.824  1.5146  0.3517  1.4299
 2354SOL    MW4 9184   6.336   1.579   3.886 -0.4546 -0.3682  0.4149
 2355SOL     OW 9185   5.082   5.311   3.288 -0.6156  0.2972 -0.0970
 2355SOL    HW2 9186   4.994   5.344   3.270 -1.2212 -1.2971 -0.1769
 2355SOL    HW3 9187   5.131   5.328   3.208 -1.5766 -1.0945 -1.0236
 2355SOL    MW4 9188   5.077   5.318   3.275 -0.8223 -0.0967 -0.2298
 2356SOL     OW 9189   6.090   1.798   2.523  0.8495  0.1215  0.3252
 2356SOL    HW2 9190   6.138   1.879   2.537 -0.2236  1.3334 -2.2075
 2356SOL    HW3 9191   6.108   1.775   2.431 -0.0150 -1.7242  0.5610
 2356SOL    MW4 9192   6.099   1.805   2.513  0.5938  0.0379  0.0221
 2357SOL     OW 9193   0.913   5.958   0.136 -0.3255  0.3729 -0.3233
 2357SOL    HW2 9194   0.995   5.990   0.097 -0.3817 -0.1848 -0.9226
 2357SOL    HW3 9195   0.868   5.915   0.063  0.2214 -1.9909  0.6661
 2357SOL    MW4 9196   0.918   5.957   0.121 -0.2608 -0.0126 -0.2718
 2358SOL     OW 9197   0.398   1.561   0.696 -0.0691  0.2586  0.3579
 2358SOL    HW2 9198   0.344   1.618   0.750 -0.1892 -1.2544  1.9218
 2358SOL    HW3 9199   0.432   1.618   0.627  0.1921  2.3234  2.0901
 2358SOL    MW4 9200   0.396   1.576   0.694 -0.0504  0.3314  0.7928
 2359SOL     OW 9201   3.845   2.926   5.098  0.1266 -0.0684  1.0749
 2359SOL    HW2 9202   3.828   2.996   5.160 -3.3447  1.0795 -0.8830
 2359SOL    HW3 9203   3.807   2.848   5.138 -0.1728  0.1973  1.3117
 2359SOL    MW4 9204   3.838   2.925   5.111 -0.3709  0.1181  0.8478
 2360SOL     OW 9205   2.980   1.064   3.046 -0.2605 -0.0159  0.1248
 2360SOL    HW2 9206   2.890   1.096   3.043 -0.7595 -1.4307 -2.0458
 2360SOL    HW3 9207   3.001   1.041   2.956  1.2271 -2.5107  0.9954
 2360SOL    MW4 9208   2.971   1.065   3.034 -0.1300 -0.5317 -0.0467
 2361SOL     OW 9209   5.482   4.588   1.640 -0.5628 -0.3483 -0.3061
 2361SOL    HW2 9210   5.443   4.560   1.557 -1.1342  1.4893 -0.6904
 2361SOL    HW3 9211   5.575   4.598   1.621 -0.6385 -0.2580 -0.6368
 2361SOL    MW4 9212   5.489   4.585   1.627 -0.6482 -0.0939 -0.4004
 2362SOL     OW 9213   4.945   6.120   2.967 -0.1356  0.4181 -0.3853
 2362SOL    HW2 9214   4.891   6.147   2.892 -1.3815 -2.3087 -0.5718
 2362SOL    HW3 9215   4.884   6.076   3.026  1.5816 -1.3271  0.1898
 2362SOL    MW4 9216   4.930   6.118   2.965 -0.0734 -0.1719 -0.3341
 2363SOL     OW 9217   4.459   0.184   4.355  0.4889  0.1717  0.0743
 2363SOL    HW2 9218   4.408   0.180   4.435 -1.3172  3.4813 -0.7211
 2363SOL    HW3 9219   4.548   0.162   4.381 -0.4369 -1.0029  2.4858
 2363SOL    MW4 9220   4.464   0.181   4.369  0.1285  0.4534  0.2875
 2364SOL     OW 9221   1.634   5.639   4.060  0.0062  0.4395 -0.0997
 2364SOL    HW2 9222   1.690   5.565   4.083 -1.2098 -0.1214  1.2223
 2364SOL    HW3 9223   1.546   5.601   4.051 -0.4714  1.5626 -0.4384
 2364SOL    MW4 9224   1.630   5.624   4.062 -0.2172  0.5137  0.0300
 2365SOL     OW 9225   6.368   6.364   2.210 -0.1006 -0.1776  0.2994
 2365SOL    HW2 9226   6.456   6.342   2.181  0.2006  0.4750  0.6972
 2365SOL    HW3 9227   6.356   6.314   2.291 -0.2703 -0.6062  0.0172
 2365SOL    MW4 9228   6.378   6.354   2.217 -0.0832 -0.1481  0.3147
 2366SOL     OW 9229   0.381   0.819   2.772  0.2200  0.2007 -1.0179
 2366SOL    HW2 9230   0.330   0.744   2.804  1.3420 -0.4170 -0.6417
 2366SOL    HW3 9231   0.434   0.783   2.701  1.0940  0.5424 -0.5389
 2366SOL    MW4 9232   0.381   0.804   2.766  0.4833  0.1643 -0.9051
 2367SOL     OW 9233   4.415   4.080   6.221  0.5161 -0.5040  0.1712
 2367SOL    HW2 9234   4.435   3.988   6.236  0.1619 -0.5842  0.1610
 2367SOL    HW3 9235   4.500   4.124   6.224  1.0167 -1.1458 -2.1609
 2367SOL    MW4 9236   4.429   4.074   6.223  0.5354 -0.5992 -0.1378
 2368SOL     OW 9237   4.696   3.701   1.237  0.4963 -0.1673  0.0859
 2368SOL    HW2 9238   4.738   3.785   1.250 -0.6671  0.5375 -0.5185
 2368SOL    HW3 9239   4.767   3.637   1.244  1.5632  0.9272 -0.3825
 2368SOL    MW4 9240   4.711   3.703   1.239  0.4835  0.0701 -0.0556
 2369SOL     OW 9241   0.450   4.438   1.472 -0.1058 -0.1377  0.4704
 2369SOL    HW2 9242   0.373   4.491   1.452 -1.1936 -1.8705 -0.1566
 2369SOL    HW3 9243   0.419   4.376   1.539  0.8212 -0.6650  0.4227
 2369SOL    MW4 9244   0.436   4.437   1.478 -0.1270 -0.4359  0.3814
 2370SOL     OW 9245   6.183   0.938   5.636 -0.4670  0.2226  0.1067
 2370SOL    HW2 9246   6.221   0.894   5.560 -1.6202  0.3430 -0.5704
 2370SOL    HW3 9247   6.162   1.026   5.604  1.1839  1.0891  1.2458
 2370SOL    MW4 9248   6.185   0.944   5.622 -0.4013  0.3528  0.1677
 2371SOL     OW 9249   5.825   2.192   0.350 -0.7920 -0.1781 -0.2388
 2371SOL    HW2 9250   5.898   2.184   0.412 -0.1237  0.2879 -0.9504
 2371SOL    HW3 9251   5.751   2.221   0.404  0.1983  1.8804  0.1001
 2371SOL    MW4 9252   5.825   2.194   0.365 -0.5732  0.1549 -0.2880
 2372SOL     OW 9253   3.813   5.994   4.079 -0.0934  0.7059  0.6381
 2372SOL    HW2 9254   3.814   5.923   4.016 -2.2954  0.5517  0.6741
 2372SOL    HW3 9255   3.883   5.973   4.141  0.0572 -0.7989 -0.0091
 2372SOL    MW4 9256   3.822   5.982   4.079 -0.3641  0.4870  0.5574
 2373SOL     OW 9257   1.875   4.549   4.568  0.2916  0.0247 -0.6958
 2373SOL    HW2 9258   1.851   4.628   4.518  0.5221 -0.3094 -1.3406
 2373SOL    HW3 9259   1.963   4.527   4.537  0.2667 -0.4354 -0.4434
 2373SOL    MW4 9260   1.883   4.557   4.558  0.3187 -0.0801 -0.7476
 2374SOL     OW 9261   3.099   1.226   4.065  0.0102  0.0581 -0.1365
 2374SOL    HW2 9262   3.120   1.202   4.155  0.9574 -0.6645 -0.5303
 2374SOL    HW3 9263   3.131   1.315   4.056  1.5524 -0.4817 -0.2568
 2374SOL    MW4 9264   3.106   1.234   4.076  0.3387 -0.1085 -0.2043
 2375SOL     OW 9265   6.282   4.881   6.365 -0.2228  0.7088  0.6295
 2375SOL    HW2 9266   6.312   4.796   6.332 -3.8375  0.3019 -2.3820
 2375SOL    HW3 9267   6.329   4.946   6.313 -1.1547  0.2799 -0.8002
 2375SOL    MW4 9268   6.292   4.878   6.354 -0.8227  0.5986  0.0435
 2376SOL     OW 9269   5.182   2.895   2.288 -0.2689  0.2605 -0.1607
 2376SOL    HW2 9270   5.151   2.956   2.222 -0.5311  0.8615  0.5117
 2376SOL    HW3 9271   5.111   2.832   2.298  0.1903 -0.4441 -1.1924
 2376SOL    MW4 9272   5.169   2.895   2.281 -0.2429  0.2468 -0.2081
 2377SOL     OW 9273   3.450   0.976   1.017 -0.3841  0.2167 -0.1574
 2377SOL    HW2 9274   3.392   1.019   0.955  0.5352  1.4381 -0.2071
 2377SOL    HW3 9275   3.471   1.043   1.082  0.8132 -0.2341 -0.0401
 2377SOL    MW4 9276   3.445   0.990   1.018 -0.1049  0.3184 -0.1485
 2378SOL     OW 9277   2.848   4.782   5.587  0.0299  0.7747  0.2509
 2378SOL    HW2 9278   2.916   4.847   5.600  0.5984  0.6719 -1.8981
 2378SOL    HW3 9279   2.766   4.829   5.600  0.4575  1.5606  0.1218
 2378SOL    MW4 9280   2.846   4.797   5.591  0.1613  0.8648 -0.0497
 2379SOL     OW 9281   5.958   5.581   6.004 -0.1168  0.2217  0.7873
 2379SOL    HW2 9282   6.002   5.505   5.965  1.5376  1.6372 -0.2225
 2379SOL    HW3 9283   6.027   5.630   6.048 -0.6681  2.4095 -0.6292
 2379SOL    MW4 9284   5.973   5.577   6.005  0.0287  0.6971  0.4672
 2380SOL     OW 9285   2.492   1.336   0.448 -0.4184  0.2040 -0.6722
 2380SOL    HW2 9286   2.420   1.396   0.428 -0.1824  0.6329 -0.2618
 2380SOL    HW3 9287   2.560   1.356   0.384  0.0175  1.0117  0.0319
 2380SOL    MW4 9288   2.491   1.346   0.437 -0.3297  0.3671 -0.5252
 2381SOL     OW 9289   2.958   0.644   4.616 -0.0722  0.5096  0.6781
 2381SOL    HW2 9290   3.039   0.600   4.641  0.3799  0.9046 -0.0547
 2381SOL    HW3 9291   2.965   0.657   4.521 -0.9642  0.6025  0.6087
 2381SOL    MW4 9292   2.969   0.640   4.607 -0.1303  0.5740  0.5723
 2382SOL     OW 9293   2.116   1.810   2.312 -0.1772 -0.4653  0.3278
 2382SOL    HW2 9294   2.144   1.901   2.323  0.0259 -0.4740 -0.1217
 2382SOL    HW3 9295   2.022   1.816   2.292 -0.3441 -0.3997  1.0744
 2382SOL    MW4 9296   2.107   1.823   2.311 -0.1724 -0.4578  0.3670
 2383SOL     OW 9297   3.054   5.830   6.467 -0.3233  0.2498  0.2241
 2383SOL    HW2 9298   3.039   5.756   6.526 -1.2469 -0.2321 -0.5890
 2383SOL    HW3 9299   3.064   5.790   6.381 -2.4972  1.1279 -0.5051
 2383SOL    MW4 9300   3.053   5.815   6.463 -0.7319  0.3021  0.0206
 2384SOL     OW 9301   1.428   1.475   2.509  0.0075  0.0559  0.8623
 2384SOL    HW2 9302   1.459   1.557   2.471  0.2454 -0.4615 -0.0949
 2384SOL    HW3 9303   1.359   1.501   2.570 -1.4692  0.8337 -1.0554
 2384SOL    MW4 9304   1.423   1.489   2.512 -0.1560  0.0902  0.4830
 2385SOL     OW 9305   2.312   3.877   1.377 -0.4055  0.0477  0.4964
 2385SOL    HW2 9306   2.354   3.807   1.326  1.6405 -0.2934  2.4893
 2385SOL    HW3 9307   2.321   3.955   1.322  0.2478 -0.6110 -0.3627
 2385SOL    MW4 9308   2.319   3.878   1.363 -0.0494 -0.0842  0.6460
 2386SOL     OW 9309   5.709   1.498   6.047 -0.1367 -0.5168 -0.1084
 2386SOL    HW2 9310   5.692   1.449   6.128 -0.1850  0.7397  0.6601
 2386SOL    HW3 9311   5.770   1.567   6.073 -0.6665  0.3059 -0.9988
 2386SOL    MW4 9312   5.714   1.500   6.061 -0.2130 -0.2425 -0.1245
 2387SOL     OW 9313   0.241   3.681   2.513  0.4487 -0.1171  0.3409
 2387SOL    HW2 9314   0.293   3.616   2.559  0.6328  1.4178  2.4418
 2387SOL    HW3 9315   0.299   3.714   2.445  0.6100 -1.5622 -0.2608
 2387SOL    MW4 9316   0.255   3.677   2.510  0.4943 -0.1052  0.5387
 2388SOL     OW 9317   2.856   1.483   3.956  0.0948 -0.4186  0.5679
 2388SOL    HW2 9318   2.802   1.559   3.935 -0.6228 -0.5703  1.7792
 2388SOL    HW3 9319   2.941   1.501   3.914  0.3093  1.5757  1.7677
 2388SOL    MW4 9320   2.860   1.495   3.947  0.0284 -0.1755  0.8860
 2389SOL     OW 9321   1.977   0.558   1.642  0.0153  0.5933 -0.0916
 2389SOL    HW2 9322   1.996   0.512   1.560  0.3953 -0.5130  0.5879
 2389SOL    HW3 9323   2.060   0.558   1.690 -0.0438  1.7898  0.0463
 2389SOL    MW4 9324   1.990   0.552   1.638  0.0577  0.6052  0.0162
 2390SOL     OW 9325   0.082   2.785   6.148 -0.6047  0.2180 -0.3254
 2390SOL    HW2 9326   0.107   2.709   6.200 -1.1487  0.1458 -0.1638
 2390SOL    HW3 9327   0.164   2.833   6.134 -0.3194 -0.2075 -0.1271
 2390SOL    MW4 9328   0.096   2.782   6.153 -0.6388  0.1523 -0.2779
 2391SOL     OW 9329   5.563   1.256   4.031 -0.2009  0.4309  0.0056
 2391SOL    HW2 9330   5.609   1.198   4.092 -1.0585 -1.4647 -1.0521
 2391SOL    HW3 9331   5.476   1.218   4.024 -1.4508  2.9528  0.6482
 2391SOL    MW4 9332   5.558   1.243   4.038 -0.4789  0.5135 -0.0492
 2392SOL     OW 9333   2.893   5.252   2.730  0.1380  0.7018 -0.7424
 2392SOL    HW2 9334   2.931   5.310   2.795 -0.2333  2.4625 -2.0110
 2392SOL    HW3 9335   2.967   5.223   2.677  0.2708  0.3944 -0.3874
 2392SOL    MW4 9336   2.908   5.256   2.731  0.1065  0.8935 -0.8629
 2393SOL     OW 9337   1.340   0.135   3.955  0.4070  0.0876 -0.1485
 2393SOL    HW2 9338   1.307   0.168   4.039  1.9690  1.8704 -0.1703
 2393SOL    HW3 9339   1.430   0.108   3.974  0.7153  0.3404 -1.2031
 2393SOL    MW4 9340   1.347   0.136   3.969  0.6538  0.3562 -0.2905
 2394SOL     OW 9341   4.457   0.933   0.537  0.5033 -0.2545 -0.0503
 2394SOL    HW2 9342   4.502   0.978   0.465  0.0729  1.3574  0.6484
 2394SOL    HW3 9343   4.496   0.969   0.617 -0.0697 -0.9245  0.5515
 2394SOL    MW4 9344   4.468   0.944   0.538  0.3709 -0.1302  0.1213
 2395SOL     OW 9345   2.790   5.842   2.471  0.3346 -0.3254 -0.1089
 2395SOL    HW2 9346   2.794   5.938   2.463 -0.5765 -0.2776 -0.0458
 2395SOL    HW3 9347   2.840   5.810   2.396 -0.3917  0.1991 -0.8408
 2395SOL    MW4 9348   2.797   5.851   2.460  0.1186 -0.2499 -0.1971
 2396SOL     OW 9349   0.257   4.261   3.280  0.5737 -0.3435  0.1891
 2396SOL    HW2 9350   0.305   4.178   3.287 -1.0045 -1.2205  1.4922
 2396SOL    HW3 9351   0.171   4.241   3.317  0.0896  1.8515  0.3577
 2396SOL    MW4 9352   0.252   4.247   3.286  0.3016 -0.1696  0.3832
 2397SOL     OW 9353   3.769   5.757   4.538  0.0595 -0.1804  0.2444
 2397SOL    HW2 9354   3.707   5.745   4.466  1.6474 -1.3188 -0.9900
 2397SOL    HW3 9355   3.814   5.839   4.519 -0.4928  0.2532  0.7383
 2397SOL    MW4 9356   3.766   5.766   4.526  0.1961 -0.2734  0.1467
 2398SOL     OW 9357   3.439   1.561   2.431 -0.0368 -0.2124  0.2317
 2398SOL    HW2 9358   3.512   1.511   2.469  0.4081 -1.1732 -1.7434
 2398SOL    HW3 9359   3.477   1.603   2.353 -1.8926 -2.1864 -1.9102
 2398SOL    MW4 9360   3.454   1.560   2.425 -0.2230 -0.5996 -0.3115
 2399SOL     OW 9361   5.540   1.094   0.881  0.4199  0.0857  0.7821
 2399SOL    HW2 9362   5.545   1.092   0.976 -0.5103 -2.2194  0.8578
 2399SOL    HW3 9363   5.463   1.041   0.860  1.1656 -0.2914 -1.2788
 2399SOL    MW4 9364   5.531   1.087   0.891  0.3955 -0.2682  0.5201
 2400SOL     OW 9365   4.991   6.231   0.160 -0.0139  0.3297  0.1494
 2400SOL    HW2 9366   4.930   6.301   0.184  0.7611  0.5113  1.7379
 2400SOL    HW3 9367   5.043   6.217   0.239  1.4454 -0.3915 -0.8929
 2400SOL    MW4 9368   4.990   6.238   0.174  0.2809  0.2585  0.2215
 2401SOL     OW 9369   2.272   1.089   1.973  0.4467 -0.2733  0.4620
 2401SOL    HW2 9370   2.260   1.097   2.068 -0.9398 -0.4835  0.3353
 2401SOL    HW3 9371   2.237   1.002   1.952  0.5756 -0.1562 -0.2595
 2401SOL    MW4 9372   2.266   1.078   1.983  0.2808 -0.2856  0.3501
 2402SOL     OW 9373   4.081   2.303   1.165  0.1998  0.0699  0.2999
 2402SOL    HW2 9374   4.001   2.310   1.217 -0.7072  0.1091 -1.0462
 2402SOL    HW3 9375   4.152   2.305   1.229 -0.8889 -0.3824  1.5544
 2402SOL    MW4 9376   4.080   2.304   1.180 -0.0635  0.0154  0.2878
 2403SOL     OW 9377   5.496   4.031   3.596 -0.4412 -0.0360 -0.0571
 2403SOL    HW2 9378   5.564   4.084   3.638 -0.8876  1.2063 -0.8548
 2403SOL    HW3 9379   5.425   4.030   3.660  1.1292 -3.5219  1.9720
 2403SOL    MW4 9380   5.496   4.038   3.610 -0.2929 -0.3320  0.1053
 2404SOL     OW 9381   2.181   6.048   2.919 -0.3813 -0.5340 -0.6236
 2404SOL    HW2 9382   2.134   5.980   2.967  1.3924 -0.6176  1.1221
 2404SOL    HW3 9383   2.195   6.117   2.983  1.2608 -0.2395 -1.2409
 2404SOL    MW4 9384   2.177   6.048   2.934  0.0694 -0.5061 -0.4748
 2405SOL     OW 9385   5.039   6.150   1.402  0.0879  0.1658 -0.2462
 2405SOL    HW2 9386   5.115   6.102   1.435 -0.9604 -1.2469  0.2191
 2405SOL    HW3 9387   5.001   6.092   1.336 -0.7148  0.7424 -0.3045
 2405SOL    MW4 9388   5.044   6.136   1.398 -0.1563  0.0555 -0.1925
 2406SOL     OW 9389   3.806   2.257   6.290 -0.6005 -0.1025  0.3522
 2406SOL    HW2 9390   3.828   2.181   6.344  1.1648 -0.8952 -1.3745
 2406SOL    HW3 9391   3.881   2.315   6.298 -1.5512  1.0838  0.9355
 2406SOL    MW4 9392   3.819   2.255   6.299 -0.4930 -0.0506  0.2014
 2407SOL     OW 9393   0.690   0.305   1.447 -0.0297 -0.2544 -0.1714
 2407SOL    HW2 9394   0.668   0.396   1.424 -0.3244 -0.1849  0.3595
 2407SOL    HW3 9395   0.761   0.282   1.388  0.9922  0.7856  0.6065
 2407SOL    MW4 9396   0.696   0.314   1.436  0.0663 -0.1080  0.0013
 2408SOL     OW 9397   6.351   0.240   5.726 -0.0901 -0.2688 -0.1940
 2408SOL    HW2 9398   6.364   0.334   5.713 -0.3278 -0.0978  0.7164
 2408SOL    HW3 9399   6.432   0.200   5.696  2.2569  0.6469  4.0966
 2408SOL    MW4 9400   6.363   0.247   5.721  0.1882 -0.1255  0.4922
 2409SOL     OW 9401   2.313   0.477   2.464  0.3560 -0.2998 -0.0929
 2409SOL    HW2 9402   2.393   0.442   2.503  0.1895  0.9336  1.4288
 2409SOL    HW3 9403   2.244   0.417   2.492  0.4817 -0.3437  0.1215
 2409SOL    MW4 9404   2.315   0.465   2.473  0.3506 -0.1429  0.1362
 2410SOL     OW 9405   1.270   6.293   3.656  0.0852  0.1912  0.4634
 2410SOL    HW2 9406   1.288   6.252   3.740  0.8122  0.0125  0.2306
 2410SOL    HW3 9407   1.193   6.347   3.671  0.4709  0.5034  1.3530
 2410SOL    MW4 9408   1.262   6.295   3.669  0.2320  0.2088  0.5501
 2411SOL     OW 9409   0.336   2.557   2.213 -0.1271 -0.4145 -0.6196
 2411SOL    HW2 9410   0.272   2.615   2.255  0.2352  0.0625 -0.7233
 2411SOL    HW3 9411   0.409   2.614   2.190 -0.2706 -0.6886 -1.8048
 2411SOL    MW4 9412   0.337   2.572   2.216 -0.0983 -0.3877 -0.7897
 2412SOL     OW 9413   5.539   4.472   5.293 -0.4673  0.1425 -0.3863
 2412SOL    HW2 9414   5.521   4.543   5.354 -0.3061  0.3501 -0.5776
 2412SOL    HW3 9415   5.471   4.407   5.311  0.0508 -0.1575  0.5705
 2412SOL    MW4 9416   5.528   4.473   5.304 -0.3777  0.1303 -0.2853
 2413SOL     OW 9417   2.105   2.544   1.894 -0.5963 -0.3773  0.2094
 2413SOL    HW2 9418   2.149   2.529   1.811 -1.3493  0.5649 -0.3688
 2413SOL    HW3 9419   2.030   2.483   1.893 -0.8772 -0.0316 -0.0172
 2413SOL    MW4 9420   2.101   2.534   1.883 -0.7327 -0.2074  0.1032
 2414SOL     OW 9421   0.703   2.776   6.310  0.2697  0.1490 -0.5222
 2414SOL    HW2 9422   0.740   2.709   6.367  0.1726  0.4161 -0.1381
 2414SOL    HW3 9423   0.613   2.746   6.293  0.1896  0.2372 -0.2581
 2414SOL    MW4 9424   0.696   2.763   6.315  0.2464  0.1959 -0.4367
 2415SOL     OW 9425   3.355   1.440   3.458 -0.4244  0.3471 -0.5184
 2415SOL    HW2 9426   3.297   1.375   3.419  0.0455  0.8078 -2.0344
 2415SOL    HW3 9427   3.400   1.393   3.528 -0.6441 -0.7454 -1.0864
 2415SOL    MW4 9428   3.353   1.425   3.462 -0.3914  0.2637 -0.7934
 2416SOL     OW 9429   1.593   5.427   0.301  0.6223  0.4174  0.4884
 2416SOL    HW2 9430   1.617   5.396   0.214  0.5197 -2.2297  1.3307
 2416SOL    HW3 9431   1.503   5.458   0.291  1.4076  2.5024 -0.8251
 2416SOL    MW4 9432   1.584   5.427   0.288  0.7124  0.3432  0.4262
 2417SOL     OW 9433   4.414   2.803   2.622 -0.5133 -0.3005  0.0906
 2417SOL    HW2 9434   4.405   2.863   2.696  0.7735  1.4984 -1.1311
 2417SOL    HW3 9435   4.341   2.825   2.564 -0.4669 -0.4465 -0.0236
 2417SOL    MW4 9436   4.403   2.814   2.624 -0.3374 -0.0824 -0.0856
 2418SOL     OW 9437   3.795   5.795   1.553  0.2075 -0.6759 -0.1662
 2418SOL    HW2 9438   3.857   5.793   1.481  0.0502 -1.5868 -0.2839
 2418SOL    HW3 9439   3.764   5.705   1.561 -0.4006 -0.4187  0.4955
 2418SOL    MW4 9440   3.799   5.783   1.545  0.1065 -0.7622 -0.0944
 2419SOL     OW 9441   2.568   1.604   4.296  0.0539  0.6581  0.1485
 2419SOL    HW2 9442   2.645   1.661   4.297 -0.3587  1.3302  3.1243
 2419SOL    HW3 9443   2.527   1.620   4.211  2.1300  1.7189 -0.7292
 2419SOL    MW4 9444   2.573   1.613   4.285  0.2734  0.8868  0.4254
 2420SOL     OW 9445   3.013   0.669   1.985 -0.0209 -0.5175 -0.4550
 2420SOL    HW2 9446   2.929   0.709   2.005  1.0791  1.3151  0.7647
 2420SOL    HW3 9447   3.066   0.739   1.947  0.5087 -2.0140 -2.7008
 2420SOL    MW4 9448   3.009   0.683   1.983  0.1941 -0.4731 -0.5903
 2421SOL     OW 9449   6.344   5.163   3.064  0.4597 -0.1546  0.1100
 2421SOL    HW2 9450   6.425   5.182   3.111  1.9275  1.5153 -2.8001
 2421SOL    HW3 9451   6.298   5.247   3.061  0.0283 -0.4065 -0.6827
 2421SOL    MW4 9452   6.349   5.176   3.070  0.5964  0.0325 -0.3786
 2422SOL     OW 9453   5.374   5.230   2.682 -0.0800  0.0325  0.5507
 2422SOL    HW2 9454   5.459   5.257   2.648 -0.0698 -1.3321 -0.5695
 2422SOL    HW3 9455   5.395   5.169   2.753 -0.1007 -1.4566 -0.6929
 2422SOL    MW4 9456   5.388   5.226   2.687 -0.0814 -0.3440  0.2389
 2423SOL     OW 9457   2.119   4.982   5.351  0.2212  0.5176  0.1382
 2423SOL    HW2 9458   2.056   4.917   5.382  1.3647 -0.8773 -0.3693
 2423SOL    HW3 9459   2.170   4.937   5.283  0.8584  2.0380 -0.4472
 2423SOL    MW4 9460   2.118   4.968   5.346  0.4561  0.5341 -0.0060
 2424SOL     OW 9461   1.816   1.589   2.477  0.2459 -0.3491  0.4122
 2424SOL    HW2 9462   1.785   1.521   2.537  0.5008  0.0561  1.0092
 2424SOL    HW3 9463   1.846   1.659   2.534 -0.0763  0.2962 -0.1961
 2424SOL    MW4 9464   1.816   1.589   2.492  0.2370 -0.2105  0.4107
 2425SOL     OW 9465   5.815   1.683   1.910  0.0777  0.4123  0.1773
 2425SOL    HW2 9466   5.788   1.767   1.948 -2.0961  1.0762 -2.5717
 2425SOL    HW3 9467   5.768   1.617   1.962  0.2728  1.0001  1.1220
 2425SOL    MW4 9468   5.805   1.685   1.922 -0.1834  0.5775 -0.0608
 2426SOL     OW 9469   3.113   4.199   4.355  0.6622 -0.2640  0.1769
 2426SOL    HW2 9470   3.129   4.172   4.445 -0.4956 -0.7872  0.2468
 2426SOL    HW3 9471   3.069   4.124   4.315 -0.1331  0.4852 -0.4071
 2426SOL    MW4 9472   3.109   4.185   4.361  0.4045 -0.2342  0.1091
 2427SOL     OW 9473   3.797   2.760   6.351  0.3366  0.5855 -0.0324
 2427SOL    HW2 9474   3.731   2.769   6.419 -0.8045  1.1000 -1.1609
 2427SOL    HW3 9475   3.873   2.723   6.396 -0.7334 -0.0963  1.2893
 2427SOL    MW4 9476   3.798   2.757   6.366  0.0449  0.5634 -0.0069
 2428SOL     OW 9477   2.969   1.836   4.944  0.0216  0.1691 -0.3587
 2428SOL    HW2 9478   3.005   1.839   5.032  1.7960  1.7477 -1.0652
 2428SOL    HW3 9479   2.899   1.901   4.944 -0.7810 -0.6766  0.1773
 2428SOL    MW4 9480   2.964   1.845   4.955  0.1498  0.2658 -0.3812
 2429SOL     OW 9481   5.717   0.121   3.967 -0.3774  0.4510  0.2113
 2429SOL    HW2 9482   5.743   0.211   3.949 -2.0511  0.5561 -1.9956
 2429SOL    HW3 9483   5.751   0.071   3.893 -1.2499 -0.3827  0.3588
 2429SOL    MW4 9484   5.725   0.126   3.955 -0.7134  0.3548 -0.0604
 2430SOL     OW 9485   5.378   0.336   4.065  0.1732 -0.1639  0.0163
 2430SOL    HW2 9486   5.419   0.251   4.049  0.0952 -0.2071  0.0481
 2430SOL    HW3 9487   5.425   0.371   4.141 -0.8379 -0.8618  0.9923
 2430SOL    MW4 9488   5.390   0.330   4.073  0.0295 -0.2617  0.1493
 2431SOL     OW 9489   4.948   0.480   4.176 -0.0553  0.4765 -0.0528
 2431SOL    HW2 9490   4.879   0.487   4.110  1.4698  0.0495 -1.7985
 2431SOL    HW3 9491   4.974   0.570   4.194 -0.4165  0.5926 -0.0970
 2431SOL    MW4 9492   4.942   0.492   4.170  0.0983  0.4355 -0.2890
 2432SOL     OW 9493   0.224   5.035   4.260  0.3129  0.5157  0.2634
 2432SOL    HW2 9494   0.240   4.969   4.193 -0.6617 -0.8663  1.3079
 2432SOL    HW3 9495   0.134   5.065   4.243 -0.3479 -0.6324  1.5323
 2432SOL    MW4 9496   0.214   5.030   4.249  0.0971  0.1819  0.5686
 2433SOL     OW 9497   3.383   3.816   3.988  0.1058 -0.3303 -0.5183
 2433SOL    HW2 9498   3.318   3.746   3.998 -0.2632  0.3088  2.4723
 2433SOL    HW3 9499   3.339   3.895   4.019  1.1263  0.9225 -2.0656
 2433SOL    MW4 9500   3.369   3.817   3.993  0.1918 -0.0807 -0.3279
 2434SOL     OW 9501   5.145   0.024   4.637  0.5694  0.1316  0.6142
 2434SOL    HW2 9502   5.105   0.019   4.550 -0.1436  0.8536  0.8877
 2434SOL    HW3 9503   5.173  -0.066   4.656  2.5927  0.2783 -1.1993
 2434SOL    MW4 9504   5.143   0.011   4.628  0.7423  0.2463  0.4110
 2435SOL     OW 9505   3.105   4.645   2.388  0.4106  0.2797  0.1670
 2435SOL    HW2 9506   3.149   4.722   2.352  0.5114 -0.1735 -0.7095
 2435SOL    HW3 9507   3.066   4.675   2.469 -1.4586  1.8773 -1.2173
 2435SOL    MW4 9508   3.106   4.659   2.394  0.1773  0.4307 -0.1313
 2436SOL     OW 9509   1.665   1.923   1.652  0.5348  0.1339 -0.3106
 2436SOL    HW2 9510   1.752   1.892   1.625  0.2654  0.3943 -1.5700
 2436SOL    HW3 9511   1.683   1.996   1.710  1.1618 -0.0927 -0.2071
 2436SOL    MW4 9512   1.679   1.928   1.656  0.5820  0.1384 -0.4631
 2437SOL     OW 9513   2.499   2.169   4.545  0.5811 -0.3785 -0.3818
 2437SOL    HW2 9514   2.564   2.118   4.496  1.0241 -1.7037  1.5013
 2437SOL    HW3 9515   2.532   2.170   4.635 -1.2980  0.1474  0.3438
 2437SOL    MW4 9516   2.512   2.163   4.550  0.3916 -0.4840 -0.0376
 2438SOL     OW 9517   4.519   2.515   1.425 -0.1879 -0.3818 -0.1450
 2438SOL    HW2 9518   4.515   2.566   1.506 -2.3411  0.2558 -0.5963
 2438SOL    HW3 9519   4.440   2.540   1.376  1.1361 -0.5611 -2.5657
 2438SOL    MW4 9520   4.508   2.525   1.429 -0.2973 -0.3213 -0.5239
 2439SOL     OW 9521   0.183   5.319   0.308 -0.0586 -0.0900  0.3262
 2439SOL    HW2 9522   0.192   5.412   0.329  0.8322 -0.4350  1.5564
 2439SOL    HW3 9523   0.143   5.281   0.386  0.7068 -0.9419  0.3174
 2439SOL    MW4 9524   0.179   5.327   0.321  0.1599 -0.2479  0.4874
 2440SOL     OW 9525   4.949   6.027   5.042  0.1913 -0.7049 -0.0762
 2440SOL    HW2 9526   4.860   6.014   5.074 -0.5706  2.0352 -0.7674
 2440SOL    HW3 9527   5.002   5.966   5.092 -1.7667 -0.8443  1.9907
 2440SOL    MW4 9528   4.944   6.018   5.052 -0.1676 -0.3618  0.1053
 2441SOL     OW 9529   3.691   2.626   1.179 -0.2004  0.3769  0.4829
 2441SOL    HW2 9530   3.633   2.631   1.103 -3.0553  0.1241  2.4867
 2441SOL    HW3 9531   3.765   2.683   1.156 -1.5193  1.2682 -1.9902
 2441SOL    MW4 9532   3.693   2.634   1.166 -0.7511  0.4612  0.4210
 2442SOL     OW 9533   2.952   6.027   4.728 -0.8321 -0.0875  0.0584
 2442SOL    HW2 9534   3.012   6.101   4.734 -0.3976 -0.4683  0.5961
 2442SOL    HW3 9535   2.911   6.022   4.815  0.2455 -1.3636  0.5256
 2442SOL    MW4 9536   2.954   6.036   4.741 -0.6326 -0.3061  0.1910
 2443SOL     OW 9537   5.699   6.371   5.989  0.3236 -0.0069  0.2970
 2443SOL    HW2 9538   5.668   6.312   5.920 -1.2272  1.8060 -0.6657
 2443SOL    HW3 9539   5.629   6.435   5.999  1.3187  0.8689  2.2958
 2443SOL    MW4 9540   5.686   6.372   5.981  0.2503  0.3478  0.4337
 2444SOL     OW 9541   1.001   2.216   0.982  0.2839  0.8654 -0.3002
 2444SOL    HW2 9542   1.013   2.164   0.903  3.8363 -1.7642  1.7030
 2444SOL    HW3 9543   1.056   2.293   0.969 -0.3664  1.2304 -0.9553
 2444SOL    MW4 9544   1.010   2.220   0.970  0.6668  0.5666 -0.1223
 2445SOL     OW 9545   4.868   4.312   2.010 -0.2694  0.2720 -0.0230
 2445SOL    HW2 9546   4.939   4.375   2.000  1.1575 -1.3093 -0.4154
 2445SOL    HW3 9547   4.912   4.229   2.025 -2.0457 -0.8086 -0.4627
 2445SOL    MW4 9548   4.883   4.309   2.011 -0.3155 -0.0792 -0.1328
 2446SOL     OW 9549   3.823   4.915   4.766  0.5039  0.4513  0.1488
 2446SOL    HW2 9550   3.737   4.893   4.731  0.0751  0.0834  1.3669
 2446SOL    HW3 9551   3.882   4.908   4.691 -0.5687  1.0422 -0.7835
 2446SOL    MW4 9552   3.819   4.911   4.752  0.3058  0.4807  0.1865
 2447SOL     OW 9553   2.466   2.861   2.463  0.2302  0.2047  0.2634
 2447SOL    HW2 9554   2.478   2.955   2.448  3.5258 -0.0014  0.8128
 2447SOL    HW3 9555   2.461   2.823   2.375 -1.2050  0.8524  0.0386
 2447SOL    MW4 9556   2.467   2.869   2.449  0.4757  0.2629  0.3062
 2448SOL     OW 9557   2.993   3.409   1.247  0.2810 -0.5516  0.0150
 2448SOL    HW2 9558   3.006   3.371   1.334 -0.7444 -0.4572  0.2199
 2448SOL    HW3 9559   2.955   3.338   1.196  0.3018 -0.4232 -0.1783
 2448SOL    MW4 9560   2.989   3.394   1.252  0.1484 -0.5222  0.0165
 2449SOL     OW 9561   1.651   5.929   4.573 -0.1849 -0.2876 -0.0228
 2449SOL    HW2 9562   1.629   5.898   4.485 -0.7929  1.1748 -0.4103
 2449SOL    HW3 9563   1.622   6.020   4.575  1.0521  0.1195  1.2544
 2449SOL    MW4 9564   1.644   5.937   4.562 -0.1019 -0.0409  0.0946
 2450SOL     OW 9565   0.121   1.544   3.279  0.0897  0.0173 -0.8322
 2450SOL    HW2 9566   0.166   1.459   3.276 -0.1988 -0.1523 -0.4092
 2450SOL    HW3 9567   0.151   1.590   3.201  1.0331 -0.0844 -0.5447
 2450SOL    MW4 9568   0.131   1.539   3.269  0.1761 -0.0185 -0.7385
 2451SOL     OW 9569   0.356   0.349   3.274  0.0277  0.3642  0.0177
 2451SOL    HW2 9570   0.334   0.421   3.334 -2.6738 -1.7940  1.8527
 2451SOL    HW3 9571   0.364   0.273   3.331 -0.8253 -1.4518 -2.1787
 2451SOL    MW4 9572   0.354   0.349   3.290 -0.4413 -0.1601 -0.0300
 2452SOL     OW 9573   0.684   1.655   1.259  0.1015  0.0670 -0.2909
 2452SOL    HW2 9574   0.759   1.659   1.319 -0.2913  2.6319  0.1626
 2452SOL    HW3 9575   0.678   1.563   1.233  2.3902 -0.4982  0.9308
 2452SOL    MW4 9576   0.693   1.644   1.263  0.3516  0.3309 -0.0698
 2453SOL     OW 9577   1.382   2.195   1.783  0.0866 -0.2214  0.1516
 2453SOL    HW2 9578   1.400   2.174   1.691  1.2814  2.1754 -0.2329
 2453SOL    HW3 9579   1.454   2.153   1.831  0.9471  0.6670 -0.3176
 2453SOL    MW4 9580   1.394   2.186   1.777  0.3578  0.2120  0.0389
 2454SOL     OW 9581   1.219   0.680   1.728  0.4927 -0.0618  0.0891
 2454SOL    HW2 9582   1.218   0.595   1.683 -0.5426  0.8946 -1.8541
 2454SOL    HW3 9583   1.135   0.719   1.704  1.5750  2.1192 -0.3459
 2454SOL    MW4 9584   1.207   0.674   1.719  0.4989  0.3522 -0.2247
 2455SOL     OW 9585   0.467   0.414   3.916  0.1287  0.3558  0.0081
 2455SOL    HW2 9586   0.500   0.342   3.970  2.8511  1.5070  0.0631
 2455SOL    HW3 9587   0.383   0.437   3.956  0.7250 -0.6744  2.0334
 2455SOL    MW4 9588   0.460   0.407   3.929  0.5665  0.3718  0.2826
 2456SOL     OW 9589   0.765   2.799   6.009  0.4963 -0.1584 -0.0362
 2456SOL    HW2 9590   0.749   2.806   6.103 -3.3092  0.0612 -0.5622
 2456SOL    HW3 9591   0.750   2.706   5.989  0.2933 -0.0095 -0.5894
 2456SOL    MW4 9592   0.761   2.787   6.018 -0.0326 -0.1097 -0.1786
 2457SOL     OW 9593   3.031   5.719   1.703  0.2697 -0.1420 -0.4445
 2457SOL    HW2 9594   2.939   5.739   1.724  0.1601 -1.7265  0.7853
 2457SOL    HW3 9595   3.077   5.802   1.713 -0.9584  0.5980 -0.7137
 2457SOL    MW4 9596   3.025   5.732   1.707  0.0932 -0.2534 -0.3178
 2458SOL     OW 9597   3.746   3.329   5.072  0.2773  0.6938  0.1785
 2458SOL    HW2 9598   3.687   3.370   5.009 -0.2804  0.6783  0.6914
 2458SOL    HW3 9599   3.820   3.299   5.018  0.0955  1.2211 -0.3808
 2458SOL    MW4 9600   3.748   3.330   5.057  0.1797  0.7613  0.1724
 2459SOL     OW 9601   0.830   1.681   3.053  0.1099 -0.1436  0.1725
 2459SOL    HW2 9602   0.761   1.718   3.108 -0.6793 -0.3222 -0.6669
 2459SOL    HW3 9603   0.784   1.651   2.974  0.9304 -1.5300  0.1846
 2459SOL    MW4 9604   0.815   1.682   3.050  0.1140 -0.3501  0.0633
 2460SOL     OW 9605   0.515   5.599   0.264 -0.0572 -0.1628  0.1898
 2460SOL    HW2 9606   0.604   5.563   0.264  0.4627  1.0577 -0.2149
 2460SOL    HW3 9607   0.462   5.534   0.218  0.7009 -0.7206  0.0911
 2460SOL    MW4 9608   0.520   5.586   0.258  0.1114 -0.0754  0.1234
 2461SOL     OW 9609   0.470   0.698   4.740  0.1518  0.0964 -0.1856
 2461SOL    HW2 9610   0.455   0.711   4.833 -2.2616 -0.3483 -0.4366
 2461SOL    HW3 9611   0.484   0.604   4.730 -0.7819 -0.0316 -0.3791
 2461SOL    MW4 9612   0.470   0.687   4.751 -0.2898  0.0209 -0.2443
 2462SOL     OW 9613   6.346   4.994   1.167  0.0495 -0.8304 -0.1259
 2462SOL    HW2 9614   6.276   5.016   1.106  1.1721  0.6958 -0.9126
 2462SOL    HW3 9615   6.411   4.949   1.113 -0.8112 -3.4515  0.8488
 2462SOL    MW4 9616   6.345   4.991   1.152  0.0840 -0.9749 -0.1011
 2463SOL     OW 9617   5.755   4.810   1.375 -0.1776 -0.6572  0.2111
 2463SOL    HW2 9618   5.681   4.763   1.336  0.1899  0.0842 -1.4605
 2463SOL    HW3 9619   5.753   4.896   1.334  1.6517 -0.6445  0.0800
 2463SOL    MW4 9620   5.745   4.815   1.365  0.1122 -0.5577 -0.0267
 2464SOL     OW 9621   3.776   1.749   0.272 -0.2673 -0.1364  0.3365
 2464SOL    HW2 9622   3.769   1.734   0.178 -1.3365 -3.0126  0.7732
 2464SOL    HW3 9623   3.870   1.760   0.288  0.2595 -2.4759 -0.7589
 2464SOL    MW4 9624   3.787   1.749   0.262 -0.3388 -0.8246  0.2496
 2465SOL     OW 9625   5.055   6.252   0.443  0.0800  0.3017 -0.0811
 2465SOL    HW2 9626   5.150   6.259   0.453  0.3598 -0.4274 -1.8413
 2465SOL    HW3 9627   5.022   6.340   0.460  1.0425  0.5282  0.6870
 2465SOL    MW4 9628   5.063   6.264   0.446  0.2440  0.2354 -0.2120
 2466SOL     OW 9629   6.361   5.880   4.554 -0.1182  0.1217  0.1681
 2466SOL    HW2 9630   6.399   5.798   4.523  1.0334 -0.0904  1.9462
 2466SOL    HW3 9631   6.271   5.859   4.576 -0.3880 -0.1753 -1.1703
 2466SOL    MW4 9632   6.354   5.866   4.553 -0.0018  0.0545  0.2261
 2467SOL     OW 9633   4.366   4.353   3.484  0.0964  0.0305 -0.4753
 2467SOL    HW2 9634   4.347   4.442   3.516  0.6653  0.2595 -0.7588
 2467SOL    HW3 9635   4.298   4.337   3.418  1.0948  1.0188 -1.8092
 2467SOL    MW4 9636   4.354   4.363   3.480  0.3032  0.1911 -0.6887
 2468SOL     OW 9637   5.216   2.967   4.959 -0.3580  0.1921 -0.0244
 2468SOL    HW2 9638   5.198   2.877   4.932 -0.6988  0.3409 -0.3071
 2468SOL    HW3 9639   5.219   2.963   5.055  0.0986 -0.2018 -0.0480
 2468SOL    MW4 9640   5.214   2.954   4.968 -0.3427  0.1598 -0.0648
 2469SOL     OW 9641   3.844   6.216   0.261  0.2179  0.2703 -0.3801
 2469SOL    HW2 9642   3.815   6.300   0.226 -0.3102  0.4187  0.4096
 2469SOL    HW3 9643   3.771   6.157   0.246 -0.0521  0.3599  0.5622
 2469SOL    MW4 9644   3.831   6.219   0.254  0.1126  0.3017 -0.1516
 2470SOL     OW 9645   6.028   4.948   6.394  0.2078  0.3011 -1.2504
 2470SOL    HW2 9646   6.022   5.028   6.446  0.5859  0.7501 -1.8847
 2470SOL    HW3 9647   6.120   4.944   6.367  0.2335 -0.4522 -1.0539
 2470SOL    MW4 9648   6.040   4.958   6.397  0.2610  0.2610 -1.3082
 2471SOL     OW 9649   0.798   1.825   5.416 -0.6030 -0.4439  0.2440
 2471SOL    HW2 9650   0.853   1.750   5.394 -0.5110  0.2738 -2.2973
 2471SOL    HW3 9651   0.709   1.791   5.415 -0.5134 -0.6743 -0.2422
 2471SOL    MW4 9652   0.794   1.811   5.413 -0.5791 -0.3796 -0.1555
 2472SOL     OW 9653   4.531   5.017   2.537 -0.0467 -0.5174  0.6541
 2472SOL    HW2 9654   4.447   4.973   2.549 -0.8885  0.7304 -0.2818
 2472SOL    HW3 9655   4.589   4.950   2.502 -0.7376 -1.3324  1.0419
 2472SOL    MW4 9656   4.528   5.003   2.534 -0.2490 -0.4603  0.5818
 2473SOL     OW 9657   4.320   6.168   5.061  0.4070 -0.2786 -0.3192
 2473SOL    HW2 9658   4.324   6.100   5.128  1.2015  2.6377  2.8672
 2473SOL    HW3 9659   4.408   6.206   5.060 -0.4492  1.8243 -0.6429
 2473SOL    MW4 9660   4.332   6.164   5.069  0.3988  0.3836  0.0585
 2474SOL     OW 9661   1.227   0.994   1.987 -0.6605  0.2153 -0.1670
 2474SOL    HW2 9662   1.266   1.017   1.902  3.1442 -2.4693  0.6146
 2474SOL    HW3 9663   1.186   0.909   1.973 -0.4717 -0.0006  0.5297
 2474SOL    MW4 9664   1.227   0.986   1.974 -0.1336 -0.1674  0.0280
 2475SOL     OW 9665   4.029   2.780   6.012  0.2034 -0.3113  0.0917
 2475SOL    HW2 9666   4.074   2.800   5.929 -0.5028  0.3689 -0.1349
 2475SOL    HW3 9667   3.961   2.847   6.019  0.1653 -0.4483  1.1599
 2475SOL    MW4 9668   4.026   2.792   6.002  0.1052 -0.2396  0.2027
 2476SOL     OW 9669   6.035   3.401   0.980 -0.5615 -0.1543 -0.2568
 2476SOL    HW2 9670   5.945   3.434   0.986 -0.4378  0.0986  0.2257
 2476SOL    HW3 9671   6.060   3.415   0.888 -0.9856 -0.1548 -0.3734
 2476SOL    MW4 9672   6.026   3.407   0.968 -0.6011 -0.1210 -0.2085
 2477SOL     OW 9673   1.151   2.521   3.328 -0.2686 -1.1414  0.2594
 2477SOL    HW2 9674   1.088   2.527   3.256 -0.7038 -2.6251  0.4768
 2477SOL    HW3 9675   1.123   2.445   3.378  0.1716 -0.2933  1.8745
 2477SOL    MW4 9676   1.139   2.512   3.325 -0.2679 -1.2253  0.5012
 2478SOL     OW 9677   4.977   5.989   0.475 -0.7393  0.1796 -0.1429
 2478SOL    HW2 9678   4.988   6.083   0.460 -0.7214  0.3895  1.0461
 2478SOL    HW3 9679   4.885   5.972   0.455 -1.0261  0.6898  0.6986
 2478SOL    MW4 9680   4.966   5.999   0.470 -0.7748  0.2746  0.1250
 2479SOL     OW 9681   1.640   0.945   2.114  0.1632 -0.5504 -0.0656
 2479SOL    HW2 9682   1.686   0.876   2.161  0.2282 -0.2972  0.2490
 2479SOL    HW3 9683   1.562   0.963   2.167 -0.4100 -1.1205 -0.7060
 2479SOL    MW4 9684   1.636   0.938   2.127  0.0962 -0.5922 -0.1086
 2480SOL     OW 9685   5.703   6.246   4.203 -0.0859  0.4340  0.8083
 2480SOL    HW2 9686   5.748   6.172   4.244  0.5662 -1.0489 -2.2623
 2480SOL    HW3 9687   5.638   6.205   4.146 -1.3275  2.3584  0.7741
 2480SOL    MW4 9688   5.701   6.231   4.201 -0.1637  0.4922  0.3987
 2481SOL     OW 9689   4.974   4.136   2.299 -0.1954 -0.6929 -0.2111
 2481SOL    HW2 9690   5.049   4.161   2.245 -0.8011  1.1887 -0.2672
 2481SOL    HW3 9691   4.947   4.051   2.265  3.3761 -2.7040  1.4524
 2481SOL    MW4 9692   4.980   4.128   2.287  0.1959 -0.7100  0.0010
 2482SOL     OW 9693   1.779   4.374   3.610  0.2677  0.3663 -0.6986
 2482SOL    HW2 9694   1.816   4.293   3.646 -0.1115  0.5075  0.0185
 2482SOL    HW3 9695   1.718   4.404   3.677 -0.2368  0.7875 -1.3397
 2482SOL    MW4 9696   1.776   4.367   3.623  0.1511  0.4405 -0.6886
 2483SOL     OW 9697   1.707   1.590   3.131 -0.4558  0.0748 -0.0584
 2483SOL    HW2 9698   1.773   1.658   3.143  0.1580 -0.6765  1.0204
 2483SOL    HW3 9699   1.731   1.522   3.194 -2.7300  0.1090  0.9261
 2483SOL    MW4 9700   1.719   1.590   3.141 -0.6748 -0.0198  0.2138
 2484SOL     OW 9701   3.249   1.197   3.772 -0.2060 -0.2605 -0.8280
 2484SOL    HW2 9702   3.328   1.248   3.754 -1.0151  1.3241 -0.1155
 2484SOL    HW3 9703   3.267   1.155   3.856  0.4349 -1.1222 -1.3802
 2484SOL    MW4 9704   3.262   1.198   3.781 -0.2282 -0.1651 -0.8069
 2485SOL     OW 9705   1.035   3.334   4.359 -0.0537 -0.3669  0.0293
 2485SOL    HW2 9706   1.071   3.270   4.297 -1.4729 -0.5357 -0.6509
 2485SOL    HW3 9707   1.107   3.352   4.419  1.2024 -0.5935 -1.3555
 2485SOL    MW4 9708   1.049   3.328   4.359 -0.0752 -0.4191 -0.2431
 2486SOL     OW 9709   5.248   5.496   5.986  0.2683  0.3846  0.1637
 2486SOL    HW2 9710   5.336   5.460   5.979  1.1407  2.6894 -2.9269
 2486SOL    HW3 9711   5.192   5.431   5.946  0.2770 -1.4944  2.9023
 2486SOL    MW4 9712   5.252   5.483   5.980  0.3845  0.4408  0.1173
 2487SOL     OW 9713   5.336   6.255   0.575 -0.1762 -0.1536  0.0735
 2487SOL    HW2 9714   5.292   6.203   0.641 -0.6718 -0.2715 -0.3423
 2487SOL    HW3 9715   5.347   6.342   0.615 -2.1719  0.3381 -0.3488
 2487SOL    MW4 9716   5.332   6.260   0.589 -0.5049 -0.1043 -0.0371
 2488SOL     OW 9717   0.891   2.360   6.036 -0.1029 -0.3188 -0.3771
 2488SOL    HW2 9718   0.929   2.354   5.948 -0.5428 -1.8326 -0.4923
 2488SOL    HW3 9719   0.935   2.290   6.085  0.8405  1.1067  0.9071
 2488SOL    MW4 9720   0.902   2.350   6.030 -0.0365 -0.3305 -0.2228
 2489SOL     OW 9721   3.704   1.378   1.312  0.0334  0.0630 -0.1975
 2489SOL    HW2 9722   3.764   1.452   1.318  0.8908 -0.6789  0.7170
 2489SOL    HW3 9723   3.635   1.397   1.374  1.0136 -0.5474  1.1275
 2489SOL    MW4 9724   3.703   1.390   1.321  0.2759 -0.1154  0.0980
 2490SOL     OW 9725   4.672   3.297   2.658 -0.3397  0.5340 -0.2161
 2490SOL    HW2 9726   4.742   3.351   2.622  0.5571  0.9547  1.9573
 2490SOL    HW3 9727   4.718   3.221   2.695 -1.0467  0.6092  0.8688
 2490SOL    MW4 9728   4.687   3.294   2.658 -0.3147  0.5994  0.2138
 2491SOL     OW 9729   6.081   5.319   4.915  0.3467 -0.1219  0.3984
 2491SOL    HW2 9730   6.132   5.250   4.958  0.3593 -0.5027 -0.2135
 2491SOL    HW3 9731   6.067   5.286   4.826  0.5164  0.7499  0.0385
 2491SOL    MW4 9732   6.086   5.305   4.909  0.3707 -0.0571  0.2702
 2492SOL     OW 9733   5.422   2.746   3.642 -0.1733 -0.5838 -0.5614
 2492SOL    HW2 9734   5.338   2.709   3.614 -0.7235  0.3358 -0.1357
 2492SOL    HW3 9735   5.413   2.760   3.736  0.4267 -0.3903 -0.5272
 2492SOL    MW4 9736   5.410   2.743   3.650 -0.1668 -0.4369 -0.5007
 2493SOL     OW 9737   6.081   3.576   3.060  0.3517  0.2852 -0.6866
 2493SOL    HW2 9738   6.156   3.619   3.019  1.4928 -0.7388  0.2614
 2493SOL    HW3 9739   6.105   3.484   3.065 -1.3791 -0.2337 -1.2144
 2493SOL    MW4 9740   6.094   3.569   3.055  0.2739  0.0816 -0.6312
 2494SOL     OW 9741   1.146   5.016   1.979  0.1133  0.0222 -0.5811
 2494SOL    HW2 9742   1.195   4.956   1.923  2.3212  0.3170  0.9151
 2494SOL    HW3 9743   1.213   5.056   2.035 -1.8433  0.5772  1.4734
 2494SOL    MW4 9744   1.162   5.013   1.979  0.1464  0.1343 -0.1126
 2495SOL     OW 9745   2.105   6.418   0.672  0.1463  0.1446 -0.2816
 2495SOL    HW2 9746   2.165   6.397   0.744  0.5715 -0.4061 -0.7900
 2495SOL    HW3 9747   2.099   6.337   0.621 -1.6979 -0.0913  0.2243
 2495SOL    MW4 9748   2.112   6.404   0.675 -0.0409  0.0408 -0.2820
 2496SOL     OW 9749   1.454   1.722   1.657 -0.0116 -0.3753  0.4252
 2496SOL    HW2 9750   1.429   1.717   1.564  0.2285 -2.7339  0.4285
 2496SOL    HW3 9751   1.533   1.776   1.657 -0.3799  0.2066 -0.6427
 2496SOL    MW4 9752   1.461   1.728   1.645 -0.0285 -0.6097  0.2847
 2497SOL     OW 9753   5.330   2.804   2.008  0.0711 -0.0946 -0.6765
 2497SOL    HW2 9754   5.234   2.807   2.011  0.0821  2.1453 -0.7807
 2497SOL    HW3 9755   5.356   2.893   1.986  2.2038 -0.5808 -0.3489
 2497SOL    MW4 9756   5.321   2.816   2.006  0.3540  0.1368 -0.6470
 2498SOL     OW 9757   2.207   5.899   5.764  0.1660  0.4221  0.0347
 2498SOL    HW2 9758   2.245   5.816   5.734 -0.2006 -0.0497  0.8389
 2498SOL    HW3 9759   2.187   5.946   5.683 -0.0281 -0.4630 -0.4550
 2498SOL    MW4 9760   2.209   5.894   5.749  0.0920  0.2431  0.0762
 2499SOL     OW 9761   1.389   1.045   0.288 -0.0051  0.2267 -0.3377
 2499SOL    HW2 9762   1.447   1.016   0.218 -0.3189 -0.3444 -0.3665
 2499SOL    HW3 9763   1.318   0.981   0.288 -0.0572  0.2751  0.4413
 2499SOL    MW4 9764   1.387   1.033   0.279 -0.0534  0.1578 -0.2387
 2500SOL     OW 9765   6.178   2.251   2.854  0.1084  0.4365 -0.2331
 2500SOL    HW2 9766   6.192   2.201   2.934  0.1926  1.6867  0.5497
 2500SOL    HW3 9767   6.120   2.323   2.880  0.6397  1.2200 -1.1485
 2500SOL    MW4 9768   6.172   2.254   2.868  0.1896  0.7048 -0.2506
 2501SOL     OW 9769   2.650   1.689   1.612  0.3245 -0.0771  0.0122
 2501SOL    HW2 9770   2.674   1.629   1.541 -1.4027  1.9038 -2.4154
 2501SOL    HW3 9771   2.598   1.635   1.672 -0.3625 -1.2320 -1.5609
 2501SOL    MW4 9772   2.647   1.674   1.611  0.0060  0.0319 -0.5156
 2502SOL     OW 9773   1.657   3.819   1.815 -0.3759 -0.6091 -0.5201
 2502SOL    HW2 9774   1.570   3.848   1.844 -0.4738 -0.5015 -0.9191
 2502SOL    HW3 9775   1.666   3.853   1.726  0.3722 -0.0135 -0.2243
 2502SOL    MW4 9776   1.647   3.827   1.807 -0.2901 -0.5163 -0.5337
 2503SOL     OW 9777   5.690   2.112   5.676  0.0957 -0.1369  0.0299
 2503SOL    HW2 9778   5.697   2.035   5.734  2.3098 -1.0802 -1.3561
 2503SOL    HW3 9779   5.647   2.079   5.597 -0.1377  0.3822 -0.0637
 2503SOL    MW4 9780   5.685   2.097   5.673  0.3570 -0.1929 -0.1653
 2504SOL     OW 9781   1.913   4.963   6.188  0.2117 -0.5911 -0.4006
 2504SOL    HW2 9782   2.000   4.994   6.163  0.1973 -1.7585 -2.0740
 2504SOL    HW3 9783   1.860   4.975   6.109 -0.4416 -2.3518 -0.2662
 2504SOL    MW4 9784   1.917   4.969   6.174  0.1236 -0.9774 -0.6037
 2505SOL     OW 9785   3.662   5.421   1.226  0.1441  0.3094  0.1724
 2505SOL    HW2 9786   3.611   5.475   1.287 -2.7667 -2.7550  0.7559
 2505SOL    HW3 9787   3.718   5.368   1.283  1.2148  0.9855 -0.2294
 2505SOL    MW4 9788   3.662   5.421   1.242 -0.0987 -0.0057  0.1963
 2506SOL     OW 9789   4.810   4.356   2.371  0.0794 -0.2619 -0.4802
 2506SOL    HW2 9790   4.724   4.318   2.389 -0.0330  0.9173  1.8311
 2506SOL    HW3 9791   4.867   4.280   2.357 -0.9925 -1.1107 -0.3576
 2506SOL    MW4 9792   4.806   4.341   2.372 -0.0769 -0.2183 -0.1590
 2507SOL     OW 9793   4.964   0.670   4.510 -0.3063  0.6160 -0.1498
 2507SOL    HW2 9794   4.969   0.756   4.552  0.3426  0.2462  0.5502
 2507SOL    HW3 9795   5.052   0.655   4.475 -0.2728  0.0216  0.1789
 2507SOL    MW4 9796   4.976   0.680   4.511 -0.2162  0.4888 -0.0141
 2508SOL     OW 9797   6.242   2.464   3.996 -0.3082  0.0799 -0.2279
 2508SOL    HW2 9798   6.317   2.519   3.973  1.3885 -2.6467 -1.7473
 2508SOL    HW3 9799   6.262   2.431   4.083 -0.8527  1.0062  0.2699
 2508SOL    MW4 9800   6.254   2.467   4.004 -0.1562 -0.1576 -0.3627
 2509SOL     OW 9801   1.792   1.948   6.122 -0.0946  0.0390 -0.0875
 2509SOL    HW2 9802   1.720   1.988   6.074 -2.1498 -0.5910  2.2523
 2509SOL    HW3 9803   1.796   1.858   6.091  0.8377  0.4936 -1.3783
 2509SOL    MW4 9804   1.783   1.942   6.112 -0.2428  0.0159  0.0509
 2510SOL     OW 9805   5.292   0.409   3.664  0.4791 -0.0435  0.3932
 2510SOL    HW2 9806   5.282   0.320   3.696  0.1424  0.3787  1.5191
 2510SOL    HW3 9807   5.342   0.454   3.733  0.1660  0.7629  0.1133
 2510SOL    MW4 9808   5.297   0.403   3.678  0.3934  0.1186  0.5048
 2511SOL     OW 9809   2.730   5.801   3.132  0.2260 -0.0777 -0.0061
 2511SOL    HW2 9810   2.824   5.790   3.146 -0.0184 -0.8070  1.2117
 2511SOL    HW3 9811   2.714   5.759   3.047  0.6847 -1.9070  0.7598
 2511SOL    MW4 9812   2.741   5.794   3.122  0.2543 -0.4153  0.2556
 2512SOL     OW 9813   2.209   0.772   0.472  0.0662 -0.4527 -0.3632
 2512SOL    HW2 9814   2.226   0.866   0.477  0.2501 -0.5246  0.4542
 2512SOL    HW3 9815   2.295   0.731   0.473 -0.0197 -0.6379 -0.4988
 2512SOL    MW4 9816   2.222   0.779   0.473  0.0791 -0.4867 -0.2733
 2513SOL     OW 9817   5.608   4.284   6.450  0.1847  0.2051 -0.1274
 2513SOL    HW2 9818   5.609   4.320   6.539  0.2670 -1.0932  0.4215
 2513SOL    HW3 9819   5.516   4.261   6.434  0.1496  0.5534 -0.4243
 2513SOL    MW4 9820   5.596   4.285   6.460  0.1909  0.0798 -0.0941
 2514SOL     OW 9821   3.406   1.296   1.596 -0.0495 -0.2436  0.0033
 2514SOL    HW2 9822   3.454   1.222   1.559  1.4344  1.5956 -2.0138
 2514SOL    HW3 9823   3.457   1.373   1.571 -2.1143  1.5679  1.0171
 2514SOL    MW4 9824   3.419   1.297   1.588 -0.1261  0.2380 -0.1291
 2515SOL     OW 9825   2.375   4.192   1.612 -0.0236 -0.4639 -0.6372
 2515SOL    HW2 9826   2.435   4.119   1.623  0.3951 -0.4315 -2.4897
 2515SOL    HW3 9827   2.288   4.154   1.622  0.2239 -0.9211 -0.1680
 2515SOL    MW4 9828   2.372   4.178   1.615  0.0643 -0.5199 -0.8197
 2516SOL     OW 9829   1.852   1.575   4.443 -0.2269 -0.4115 -0.3368
 2516SOL    HW2 9830   1.880   1.663   4.470 -0.8481 -0.4781  0.5832
 2516SOL    HW3 9831   1.913   1.550   4.374  0.2642  0.5433 -0.2633
 2516SOL    MW4 9832   1.864   1.584   4.437 -0.2441 -0.2943 -0.2057
 2517SOL     OW 9833   1.467   3.426   5.654  0.2560  0.3141 -0.3244
 2517SOL    HW2 9834   1.405   3.423   5.727  0.1105  0.5595 -0.4357
 2517SOL    HW3 9835   1.502   3.515   5.656  4.3813 -1.0742  2.8179
 2517SOL    MW4 9836   1.463   3.437   5.664  0.7811  0.1633  0.0755
 2518SOL     OW 9837   1.419   1.260   4.200 -0.5120  0.1390  0.1322
 2518SOL    HW2 9838   1.355   1.233   4.266  0.9533  0.0021  1.5632
 2518SOL    HW3 9839   1.485   1.191   4.200  1.2664  1.7405  1.0042
 2518SOL    MW4 9840   1.419   1.247   4.209 -0.0840  0.3322  0.4361
 2519SOL     OW 9841   4.183   3.833   3.088  0.2827 -0.1517 -0.1836
 2519SOL    HW2 9842   4.214   3.923   3.086 -0.3096  0.1028  1.2528
 2519SOL    HW3 9843   4.142   3.823   3.173  1.8474 -2.3002  0.4145
 2519SOL    MW4 9844   4.182   3.843   3.099  0.4110 -0.4016  0.0849
 2520SOL     OW 9845   4.241   5.837   5.053  0.0022  0.1326 -0.2890
 2520SOL    HW2 9846   4.160   5.882   5.079  1.4558  2.4027  0.6163
 2520SOL    HW3 9847   4.233   5.826   4.958 -1.1498  0.7689 -0.2866
 2520SOL    MW4 9848   4.229   5.841   5.044  0.0420  0.5161 -0.1692
 2521SOL     OW 9849   4.582   1.539   0.962  0.0379  0.5353 -0.3278
 2521SOL    HW2 9850   4.660   1.591   0.976  0.7090 -0.8925  1.6447
 2521SOL    HW3 9851   4.521   1.566   1.031 -0.2757 -0.0419 -0.3644
 2521SOL    MW4 9852   4.584   1.549   0.973  0.0850  0.2707 -0.0724
 2522SOL     OW 9853   4.660   4.441   4.142  0.0194 -0.2718  0.3170
 2522SOL    HW2 9854   4.590   4.442   4.076  0.6784  1.9621 -0.4239
 2522SOL    HW3 9855   4.674   4.348   4.160 -0.8806 -0.9156 -1.9486
 2522SOL    MW4 9856   4.652   4.429   4.136 -0.0124 -0.0620 -0.0797
 2523SOL     OW 9857   4.630   1.909   5.394  0.1971  0.4194  0.6508
 2523SOL    HW2 9858   4.656   1.909   5.486 -0.3839 -0.1412  0.8240
 2523SOL    HW3 9859   4.695   1.853   5.350  1.1424  1.6048  0.5108
 2523SOL    MW4 9860   4.642   1.901   5.400  0.2452  0.5018  0.6552
 2524SOL     OW 9861   0.525   2.341   5.115 -0.8617 -0.0213 -0.9349
 2524SOL    HW2 9862   0.608   2.368   5.076 -0.9305  1.1400 -0.3028
 2524SOL    HW3 9863   0.472   2.421   5.119 -1.7797 -0.6129 -0.7392
 2524SOL    MW4 9864   0.529   2.355   5.110 -0.9919  0.0539 -0.8256
 2525SOL     OW 9865   4.718   5.050   0.095 -0.0075  0.0123  0.2083
 2525SOL    HW2 9866   4.701   4.999   0.175 -1.4058  0.4084  0.1858
 2525SOL    HW3 9867   4.632   5.078   0.066  0.5825  0.7686 -0.8690
 2525SOL    MW4 9868   4.705   5.047   0.102 -0.1141  0.1643  0.0632
 2526SOL     OW 9869   1.821   2.330   1.090  0.1730  0.5461  0.1327
 2526SOL    HW2 9870   1.810   2.249   1.140 -2.3931 -0.7936 -2.2965
 2526SOL    HW3 9871   1.739   2.377   1.103 -0.0063  0.7934 -1.6669
 2526SOL    MW4 9872   1.809   2.325   1.099 -0.1893  0.4020 -0.4252
 2527SOL     OW 9873   2.362   1.913   4.504  0.0751  0.4699 -0.5429
 2527SOL    HW2 9874   2.377   1.856   4.580 -1.3289  0.5571 -0.1565
 2527SOL    HW3 9875   2.403   1.996   4.528 -0.1815  0.4332  0.0483
 2527SOL    MW4 9876   2.369   1.917   4.518 -0.1440  0.4765 -0.4139
 2528SOL     OW 9877   4.403   0.435   1.868 -0.4431  0.5317 -0.0463
 2528SOL    HW2 9878   4.341   0.455   1.798  0.4032  0.4128 -0.8469
 2528SOL    HW3 9879   4.379   0.495   1.939 -0.9083  1.1033 -0.6701
 2528SOL    MW4 9880   4.392   0.446   1.868 -0.3928  0.5915 -0.2342
 2529SOL     OW 9881   0.404   0.964   6.404 -0.3133 -0.3999 -0.6779
 2529SOL    HW2 9882   0.412   0.874   6.436 -0.2429 -0.3192 -0.4649
 2529SOL    HW3 9883   0.434   0.960   6.313 -0.8910 -0.7080 -0.8556
 2529SOL    MW4 9884   0.409   0.951   6.397 -0.3802 -0.4299 -0.6732
 2530SOL     OW 9885   1.384   1.104   2.698  0.0145 -0.2095  0.1704
 2530SOL    HW2 9886   1.425   1.102   2.784  0.4111 -0.6802 -0.0234
 2530SOL    HW3 9887   1.456   1.100   2.636 -0.3010 -0.6790 -0.1763
 2530SOL    MW4 9888   1.399   1.103   2.701  0.0252 -0.3336  0.0991
 2531SOL     OW 9889   5.720   1.183   4.967 -0.1343  0.2419 -0.0011
 2531SOL    HW2 9890   5.779   1.191   5.042  0.6727 -0.5982 -0.5193
 2531SOL    HW3 9891   5.633   1.177   5.004  0.4151 -2.5978  1.0293
 2531SOL    MW4 9892   5.717   1.183   4.982  0.0446 -0.2436  0.0665
 2532SOL     OW 9893   5.391   6.278   5.560  0.3198  0.0480 -0.4611
 2532SOL    HW2 9894   5.359   6.367   5.549 -0.4198  0.0422  1.2684
 2532SOL    HW3 9895   5.477   6.278   5.518  0.4229  1.6304 -0.3181
 2532SOL    MW4 9896   5.398   6.290   5.553  0.2358  0.2560 -0.2140
 2533SOL     OW 9897   5.658   3.285   5.003 -0.2439  0.0286 -0.2968
 2533SOL    HW2 9898   5.753   3.290   5.003 -0.2816  1.2454 -1.7307
 2533SOL    HW3 9899   5.636   3.239   4.922 -0.8541 -2.2074  1.0360
 2533SOL    MW4 9900   5.668   3.280   4.992 -0.3294 -0.1058 -0.3101
 2534SOL     OW 9901   3.020   3.940   4.274 -0.5176  0.1678 -0.1812
 2534SOL    HW2 9902   2.957   3.939   4.203 -2.3227 -1.6556  1.3274
 2534SOL    HW3 9903   3.104   3.917   4.232 -1.6252 -1.4357 -1.6536
 2534SOL    MW4 9904   3.023   3.937   4.259 -0.9019 -0.2843 -0.1765
 2535SOL     OW 9905   1.267   2.945   5.620  0.1959  0.2477  0.2822
 2535SOL    HW2 9906   1.224   3.010   5.564 -0.7472  0.3215  1.0542
 2535SOL    HW3 9907   1.361   2.960   5.607  0.0145  1.9104  0.5799
 2535SOL    MW4 9908   1.274   2.956   5.611  0.0476  0.4768  0.4234
 2536SOL     OW 9909   1.944   4.216   4.511 -0.1391  0.8533 -0.4220
 2536SOL    HW2 9910   2.008   4.281   4.482  1.5798 -0.8758 -0.7310
 2536SOL    HW3 9911   1.914   4.248   4.596  1.1907  1.6931 -0.2475
 2536SOL    MW4 9912   1.948   4.229   4.518  0.2631  0.7359 -0.4397
 2537SOL     OW 9913   2.225   3.436   0.345  0.3239  0.4381 -0.1619
 2537SOL    HW2 9914   2.151   3.483   0.306  0.1312 -1.4191 -2.2536
 2537SOL    HW3 9915   2.274   3.402   0.270  1.4331 -1.1404  1.2097
 2537SOL    MW4 9916   2.222   3.438   0.330  0.4449 -0.0152 -0.2569
 2538SOL     OW 9917   1.317   0.439   0.232 -0.1463 -0.3451 -0.2719
 2538SOL    HW2 9918   1.412   0.433   0.232 -0.0353  0.9039  0.9056
 2538SOL    HW3 9919   1.293   0.450   0.140  0.9483  0.6351 -0.4551
 2538SOL    MW4 9920   1.326   0.440   0.220  0.0128 -0.0510 -0.1407
 2539SOL     OW 9921   6.074   5.342   1.190 -0.4083  0.3100 -0.6458
 2539SOL    HW2 9922   6.086   5.328   1.283 -0.3167 -0.2749 -0.7409
 2539SOL    HW3 9923   6.163   5.338   1.154 -0.5880 -1.3161 -0.9939
 2539SOL    MW4 9924   6.088   5.340   1.197 -0.4199  0.0183 -0.7043
 2540SOL     OW 9925   5.273   0.608   0.955 -0.5983 -0.3722 -0.3725
 2540SOL    HW2 9926   5.199   0.619   1.014  0.6168 -0.8518  1.3269
 2540SOL    HW3 9927   5.327   0.541   0.997  1.5734  1.0682 -0.7013
 2540SOL    MW4 9928   5.270   0.601   0.968 -0.1515 -0.2455 -0.1917
 2541SOL     OW 9929   2.860   3.608   5.468 -0.2167 -0.1831 -0.2563
 2541SOL    HW2 9930   2.893   3.655   5.545  1.5280 -0.0674 -1.0182
 2541SOL    HW3 9931   2.930   3.546   5.447 -1.2810 -1.1871 -0.9300
 2541SOL    MW4 9932   2.874   3.606   5.476 -0.1269 -0.3003 -0.4457
 2542SOL     OW 9933   2.466   1.883   0.170 -0.1184  0.2920  0.2212
 2542SOL    HW2 9934   2.403   1.953   0.182  0.5832  1.4473 -2.2736
 2542SOL    HW3 9935   2.498   1.865   0.259 -1.0639  2.4046  1.0685
 2542SOL    MW4 9936   2.462   1.890   0.184 -0.1506  0.7231  0.0038
 2543SOL     OW 9937   4.743   0.328   2.960  0.3195 -0.5110  0.5948
 2543SOL    HW2 9938   4.677   0.391   2.930  1.0127  0.2165  0.5780
 2543SOL    HW3 9939   4.732   0.326   3.055  2.0695  1.7161  0.9203
 2543SOL    MW4 9940   4.733   0.336   2.969  0.6418 -0.1212  0.6356
 2544SOL     OW 9941   4.441   1.331   2.381  0.6003  0.2080  0.1052
 2544SOL    HW2 9942   4.372   1.318   2.447 -0.3715  1.2320 -0.6857
 2544SOL    HW3 9943   4.455   1.244   2.344 -0.2579 -0.0193  0.2918
 2544SOL    MW4 9944   4.434   1.318   2.385  0.3589  0.3131  0.0255
 2545SOL     OW 9945   3.194   3.150   4.383  0.3661 -0.1764 -0.0851
 2545SOL    HW2 9946   3.176   3.167   4.475 -0.0876  1.8947 -0.5079
 2545SOL    HW3 9947   3.289   3.139   4.378  0.4048 -0.1798  0.6005
 2545SOL    MW4 9948   3.204   3.151   4.394  0.3114  0.0964 -0.0504
 2546SOL     OW 9949   1.561   1.773   3.828 -0.0454  0.2135 -0.0214
 2546SOL    HW2 9950   1.504   1.800   3.900  0.3450 -1.2635  0.8886
 2546SOL    HW3 9951   1.506   1.777   3.750 -2.0116 -2.8409  1.0466
 2546SOL    MW4 9952   1.546   1.777   3.828 -0.2533 -0.3844  0.2396
 2547SOL     OW 9953   4.439   5.676   1.327  0.0552  0.4817 -0.0790
 2547SOL    HW2 9954   4.518   5.659   1.275  0.8315 -2.2887  1.7615
 2547SOL    HW3 9955   4.444   5.769   1.349  1.6983  0.8342 -1.6937
 2547SOL    MW4 9956   4.450   5.686   1.323  0.3744  0.1627 -0.0492
 2548SOL     OW 9957   0.844   2.162   1.235  0.8086  0.0948  0.3368
 2548SOL    HW2 9958   0.880   2.160   1.146  0.2947  0.7598  0.1086
 2548SOL    HW3 9959   0.922   2.161   1.291  1.1153 -1.9876 -0.0656
 2548SOL    MW4 9960   0.859   2.162   1.231  0.7813 -0.0922  0.2536
 2549SOL     OW 9961   2.413   3.654   1.213  0.0857  0.6277 -0.5495
 2549SOL    HW2 9962   2.464   3.714   1.159 -0.4861  1.0467 -0.6317
 2549SOL    HW3 9963   2.474   3.583   1.234  0.6103  0.9694 -0.8927
 2549SOL    MW4 9964   2.428   3.653   1.208  0.0795  0.7281 -0.6056
 2550SOL     OW 9965   4.839   2.507   5.177  0.1628  0.0760  0.3844
 2550SOL    HW2 9966   4.802   2.564   5.110 -1.4345  0.4168  1.5150
 2550SOL    HW3 9967   4.800   2.537   5.259  1.5969 -0.7233  1.4068
 2550SOL    MW4 9968   4.829   2.519   5.179  0.1413  0.0155  0.6685
 2551SOL     OW 9969   0.573   3.541   4.020 -0.5085  0.1291  0.5307
 2551SOL    HW2 9970   0.504   3.522   3.956  0.4892  0.1651 -0.5844
 2551SOL    HW3 9971   0.587   3.635   4.013  0.7366 -0.1031 -0.4090
 2551SOL    MW4 9972   0.566   3.551   4.011 -0.2126  0.1033  0.2596
 2552SOL     OW 9973   1.871   4.577   3.990 -0.0143  0.4494 -0.3740
 2552SOL    HW2 9974   1.952   4.541   3.955 -0.1056 -0.3654  0.2057
 2552SOL    HW3 9975   1.877   4.562   4.085 -2.8277 -4.1700 -0.5702
 2552SOL    MW4 9976   1.882   4.570   3.998 -0.3976 -0.2676 -0.3234
 2553SOL     OW 9977   2.080   5.435   0.447  0.6431 -0.0012 -0.1338
 2553SOL    HW2 9978   2.024   5.413   0.522 -0.0759 -0.4472 -0.7855
 2553SOL    HW3 9979   2.027   5.413   0.371  1.3113  0.5832 -0.7801
 2553SOL    MW4 9980   2.065   5.429   0.447  0.6364  0.0170 -0.3050
 2554SOL     OW 9981   6.138   5.244   4.267 -0.1060  0.4377 -0.0569
 2554SOL    HW2 9982   6.179   5.329   4.278 -0.3599  0.3082  2.9014
 2554SOL    HW3 9983   6.046   5.260   4.288 -0.2037 -0.4970  0.2641
 2554SOL    MW4 9984   6.131   5.257   4.271 -0.1524  0.2973  0.3758
 2555SOL     OW 9985   3.548   0.765   4.770 -0.1791  0.1934  0.2460
 2555SOL    HW2 9986   3.487   0.777   4.843  0.8638  1.5763  0.9600
 2555SOL    HW3 9987   3.631   0.744   4.812  0.0329 -0.8097 -0.6593
 2555SOL    MW4 9988   3.551   0.764   4.785 -0.0135  0.2435  0.2207
 2556SOL     OW 9989   1.262   4.605   4.399 -0.7410  0.0099 -0.4434
 2556SOL    HW2 9990   1.205   4.664   4.349 -0.2721  0.1827 -0.7862
 2556SOL    HW3 9991   1.345   4.606   4.351 -0.6908 -0.8468 -0.3929
 2556SOL    MW4 9992   1.265   4.613   4.386 -0.6725 -0.0803 -0.4820
 2557SOL     OW 9993   1.630   4.939   1.041 -0.5945 -0.1392  0.1352
 2557SOL    HW2 9994   1.598   5.009   0.984  1.6162  1.4863  0.7488
 2557SOL    HW3 9995   1.604   4.965   1.129 -0.5774 -0.5996  0.2830
 2557SOL    MW4 9996   1.623   4.951   1.045 -0.3006  0.0145  0.2357
 2558SOL     OW 9997   1.364   2.568   6.405 -0.3202  0.1003  0.1356
 2558SOL    HW2 9998   1.406   2.598   6.325 -0.4207  1.0691  0.4355
 2558SOL    HW3 9999   1.346   2.475   6.389  0.8237 -0.0430 -0.4632
 2558SOL    MW410000   1.367   2.559   6.393 -0.1826  0.2092  0.0962
 2559SOL     OW10001   5.345   2.170   2.870 -0.2065  0.7780 -0.0425
 2559SOL    HW210002   5.386   2.115   2.803 -1.9185 -0.4031 -0.1855
 2559SOL    HW310003   5.352   2.259   2.835 -1.2520  0.1738 -1.9390
 2559SOL    MW410004   5.351   2.175   2.856 -0.5703  0.5425 -0.3116
 2560SOL     OW10005   4.860   5.440   2.156 -0.2674 -0.0090 -0.1567
 2560SOL    HW210006   4.802   5.510   2.127 -0.0572 -0.0026 -0.5735
 2560SOL    HW310007   4.925   5.483   2.211 -1.1896 -0.1547  1.0783
 2560SOL    MW410008   4.861   5.455   2.159 -0.3613 -0.0274 -0.0487
 2561SOL     OW10009   1.333   0.541   2.520 -0.4966  0.1338  0.6593
 2561SOL    HW210010   1.368   0.608   2.579 -2.6246  3.1633 -1.2780
 2561SOL    HW310011   1.360   0.568   2.433 -1.5258 -1.5144 -0.2214
 2561SOL    MW410012   1.341   0.553   2.517 -0.9131  0.3161  0.2875
 2562SOL     OW10013   3.464   3.215   1.599 -0.0696 -0.1396  0.1200
 2562SOL    HW210014   3.538   3.217   1.659 -0.3507 -1.7775  0.5596
 2562SOL    HW310015   3.501   3.191   1.514  0.3428  2.2733 -0.4595
 2562SOL    MW410016   3.479   3.212   1.595 -0.0523 -0.0374  0.1016
 2563SOL     OW10017   2.184   3.889   4.690 -0.2275 -0.3393 -0.0001
 2563SOL    HW210018   2.104   3.895   4.637 -0.7816  1.9291  0.9833
 2563SOL    HW310019   2.228   3.811   4.657 -1.6329 -0.2886 -2.2560
 2563SOL    MW410020   2.179   3.880   4.679 -0.4860 -0.0334 -0.1680
 2564SOL     OW10021   1.818   2.831   6.219  0.2171 -0.6915  0.0705
 2564SOL    HW210022   1.872   2.904   6.249 -0.9289  0.8504 -1.4279
 2564SOL    HW310023   1.881   2.764   6.191  1.3038  0.0872  0.5902
 2564SOL    MW410024   1.833   2.832   6.219  0.2093 -0.3853 -0.0587
 2565SOL     OW10025   4.737   5.581   6.475 -0.0543 -0.7986 -0.1079
 2565SOL    HW210026   4.659   5.565   6.422 -2.8211  2.7163  2.4900
 2565SOL    HW310027   4.775   5.661   6.439  0.2307 -0.4905  0.8440
 2565SOL    MW410028   4.732   5.589   6.463 -0.3817 -0.2942  0.3605
 2566SOL     OW10029   6.179   3.623   1.532  0.4401  0.6788  0.3797
 2566SOL    HW210030   6.168   3.569   1.610  3.3397  0.7627  0.9661
 2566SOL    HW310031   6.130   3.578   1.464 -0.4087 -0.5396  1.7318
 2566SOL    MW410032   6.171   3.610   1.534  0.7107  0.5291  0.6354
 2567SOL     OW10033   0.938   0.922   1.232 -0.3467  0.1660  0.4843
 2567SOL    HW210034   0.966   1.008   1.199  0.8071 -0.1163  0.7009
 2567SOL    HW310035   0.981   0.859   1.174 -0.2990 -0.2867  1.0087
 2567SOL    MW410036   0.947   0.925   1.220 -0.1882  0.0690  0.5821
 2568SOL     OW10037   4.942   5.558   6.083  0.6161 -0.0736  0.1948
 2568SOL    HW210038   5.036   5.550   6.097  0.5237 -1.3818  0.1810
 2568SOL    HW310039   4.902   5.514   6.158  0.0442 -0.6577 -0.4309
 2568SOL    MW410040   4.949   5.551   6.095  0.5284 -0.3232  0.1104
 2569SOL     OW10041   1.479   1.788   6.194 -0.0752 -0.5016 -0.7383
 2569SOL    HW210042   1.406   1.734   6.165  0.0621 -0.9500 -0.2707
 2569SOL    HW310043   1.557   1.734   6.176 -0.0106 -0.9963  0.8416
 2569SOL    MW410044   1.480   1.773   6.187 -0.0486 -0.6260 -0.4681
 2570SOL     OW10045   5.577   1.826   1.727 -0.4615 -0.1674  0.5078
 2570SOL    HW210046   5.547   1.747   1.772 -2.2186 -0.8600 -1.6736
 2570SOL    HW310047   5.583   1.800   1.635  0.2108  1.9030 -0.0773
 2570SOL    MW410048   5.574   1.812   1.721 -0.6046  0.0144  0.1428
 2571SOL     OW10049   1.871   3.419   3.344 -0.1451  0.1489 -0.2361
 2571SOL    HW210050   1.796   3.361   3.357 -1.6724  2.2055  0.8857
 2571SOL    HW310051   1.904   3.435   3.433  1.3179 -0.2901 -0.6721
 2571SOL    MW410052   1.865   3.414   3.358 -0.1536  0.3623 -0.1456
 2572SOL     OW10053   1.378   5.546   3.076  0.2481  0.4506  0.4102
 2572SOL    HW210054   1.462   5.545   3.030  0.3729 -0.0213  0.6405
 2572SOL    HW310055   1.402   5.550   3.169  0.0359 -0.3139  0.5066
 2572SOL    MW410056   1.392   5.546   3.082  0.2366  0.2875  0.4533
 2573SOL     OW10057   5.396   2.960   0.768 -0.0799 -0.6798 -0.8003
 2573SOL    HW210058   5.440   3.035   0.808 -0.2675 -0.5268 -0.8801
 2573SOL    HW310059   5.363   2.909   0.841 -1.4604  0.2160 -0.7736
 2573SOL    MW410060   5.398   2.963   0.783 -0.2868 -0.5414 -0.8073
 2574SOL     OW10061   4.061   3.755   4.907 -0.3595  0.6795  0.2862
 2574SOL    HW210062   4.044   3.673   4.861  1.9778  0.0356  0.4310
 2574SOL    HW310063   3.977   3.801   4.907 -1.5365 -1.3610 -0.4752
 2574SOL    MW410064   4.048   3.751   4.901 -0.2064  0.3253  0.2049
 2575SOL     OW10065   3.982   3.920   3.718  0.2243  0.0169 -0.0098
 2575SOL    HW210066   4.072   3.891   3.700  0.1679  0.1284 -0.4736
 2575SOL    HW310067   3.928   3.842   3.704  0.1103  0.2533 -0.9363
 2575SOL    MW410068   3.987   3.906   3.714  0.2018  0.0628 -0.1932
 2576SOL     OW10069   0.084   1.206   0.805 -0.1850  0.1956 -0.7147
 2576SOL    HW210070   0.177   1.226   0.814  0.2062 -1.4886 -0.6492
 2576SOL    HW310071   0.047   1.281   0.759  1.4314  0.3474 -1.8247
 2576SOL    MW410072   0.091   1.218   0.800  0.0799 -0.0066 -0.8525
 2577SOL     OW10073   0.699   4.919   5.693  0.1740 -0.3843  0.0194
 2577SOL    HW210074   0.620   4.958   5.731 -1.4538 -2.9783 -0.5072
 2577SOL    HW310075   0.726   4.982   5.626 -0.8881  1.0031  0.8312
 2577SOL    MW410076   0.692   4.933   5.689 -0.1809 -0.5435  0.0571
 2578SOL     OW10077   1.705   0.180   4.968  0.2663  0.0374 -0.5413
 2578SOL    HW210078   1.783   0.191   4.913 -1.3472  0.4784 -2.8835
 2578SOL    HW310079   1.666   0.267   4.973 -1.8472 -0.7013 -2.3382
 2578SOL    MW410080   1.710   0.193   4.962 -0.2254 -0.0019 -1.0874
 2579SOL     OW10081   0.891   6.272   4.667  0.8216 -0.4066 -0.4466
 2579SOL    HW210082   0.904   6.218   4.744 -1.3155  0.2236  0.4116
 2579SOL    HW310083   0.969   6.327   4.662  0.7536 -0.0759  1.6020
 2579SOL    MW410084   0.903   6.272   4.676  0.5307 -0.2799 -0.0631
 2580SOL     OW10085   1.349   4.046   4.453 -0.2373  0.3870  0.4715
 2580SOL    HW210086   1.340   4.037   4.548  0.8374  0.5511  0.6028
 2580SOL    HW310087   1.443   4.037   4.437 -0.2064  1.9064 -0.3965
 2580SOL    MW410088   1.361   4.044   4.463 -0.0914  0.6091  0.3743
 2581SOL     OW10089   0.044   5.085   4.619 -0.1270  0.3700  0.2770
 2581SOL    HW210090   0.089   5.169   4.629  0.5329  0.2368 -1.3082
 2581SOL    HW310091  -0.043   5.108   4.585 -0.9488  0.5512  2.3418
 2581SOL    MW410092   0.038   5.099   4.616 -0.1484  0.3763  0.3402
 2582SOL     OW10093   0.237   1.746   2.663  0.5328 -0.1527 -0.0485
 2582SOL    HW210094   0.289   1.826   2.671  0.7454 -0.2391 -0.4994
 2582SOL    HW310095   0.302   1.675   2.670  0.3914 -0.2745  0.0238
 2582SOL    MW410096   0.253   1.747   2.665  0.5422 -0.1801 -0.0984
 2583SOL     OW10097   0.604   4.830   1.497 -0.2181 -0.2553 -0.1080
 2583SOL    HW210098   0.671   4.897   1.483 -0.6673 -0.1909 -2.3593
 2583SOL    HW310099   0.649   4.760   1.545  0.8097  0.7777  0.4718
 2583SOL    MW410100   0.619   4.829   1.502 -0.1418 -0.1105 -0.3285
 2584SOL     OW10101   4.788   6.410   0.212  0.3580  0.1230  0.4286
 2584SOL    HW210102   4.799   6.505   0.208 -2.0307  0.4160 -0.7899
 2584SOL    HW310103   4.749   6.394   0.298 -1.4186  0.5644 -0.2603
 2584SOL    MW410104   4.784   6.420   0.223 -0.1916  0.2199  0.1769
 2585SOL     OW10105   0.064   2.409   5.802 -0.3818 -0.1202  0.5772
 2585SOL    HW210106   0.046   2.416   5.708 -0.8380  0.2420  0.6876
 2585SOL    HW310107   0.114   2.328   5.811  0.0988  0.1021 -0.0405
 2585SOL    MW410108   0.068   2.399   5.791 -0.3786 -0.0431  0.5103
 2586SOL     OW10109   3.036   6.020   2.988 -0.3606  0.3488 -0.2103
 2586SOL    HW210110   3.037   6.056   2.900  3.0398  0.6627 -0.1914
 2586SOL    HW310111   2.993   6.086   3.041 -1.9136  0.4168 -1.4966
 2586SOL    MW410112   3.031   6.033   2.984 -0.1169  0.3992 -0.3775
 2587SOL     OW10113   1.214   1.064   1.022  0.4644 -0.3786  0.0705
 2587SOL    HW210114   1.242   1.068   0.931  0.0990 -1.9919 -0.1336
 2587SOL    HW310115   1.294   1.077   1.073  1.1029 -1.9283 -0.5001
 2587SOL    MW410116   1.228   1.067   1.017  0.5004 -0.7959 -0.0317
 2588SOL     OW10117   4.356   0.108   4.865 -0.2659  0.2005 -0.3152
 2588SOL    HW210118   4.450   0.096   4.855 -0.2413  0.9776 -1.2148
 2588SOL    HW310119   4.346   0.158   4.946  0.0059 -0.7970  0.3494
 2588SOL    MW410120   4.367   0.113   4.874 -0.2268  0.1715 -0.3462
 2589SOL     OW10121   0.519   6.024   6.393 -0.4504 -0.2816  0.2171
 2589SOL    HW210122   0.436   6.064   6.418 -0.5036  0.1084 -0.5604
 2589SOL    HW310123   0.585   6.072   6.442 -0.6899 -0.6998  0.9646
 2589SOL    MW410124   0.517   6.035   6.402 -0.4890 -0.2853  0.2132
 2590SOL     OW10125   0.605   1.183   6.012 -0.5000 -0.0817 -0.0882
 2590SOL    HW210126   0.608   1.278   6.011 -1.2498 -0.0558 -0.7781
 2590SOL    HW310127   0.685   1.157   6.057 -1.3800  0.9098  2.1784
 2590SOL    MW410128   0.616   1.192   6.018 -0.7150  0.0525  0.1198
 2591SOL     OW10129   4.801   2.704   1.653  0.1489  0.5468 -0.0061
 2591SOL    HW210130   4.859   2.631   1.675 -0.1092  0.8758  2.0145
 2591SOL    HW310131   4.755   2.723   1.735 -1.3186  1.6248 -1.0287
 2591SOL    MW410132   4.803   2.697   1.667 -0.0788  0.7324  0.1256
 2592SOL     OW10133   0.614   4.248   0.843 -0.0452  0.1755 -0.0732
 2592SOL    HW210134   0.519   4.241   0.849 -0.0782 -0.2988 -1.0293
 2592SOL    HW310135   0.642   4.274   0.931 -0.8776 -1.6754  0.7942
 2592SOL    MW410136   0.605   4.250   0.856 -0.1594 -0.1313 -0.0849
 2593SOL     OW10137   4.044   2.686   4.938  0.0416  0.1325  0.4254
 2593SOL    HW210138   4.068   2.768   4.982  0.7086  0.3812 -0.3692
 2593SOL    HW310139   4.042   2.621   5.007  0.7913  0.5727  0.8760
 2593SOL    MW410140   4.047   2.688   4.953  0.2285  0.2234  0.3800
 2594SOL     OW10141   1.725   2.561   2.697 -0.2622 -0.2914  0.4174
 2594SOL    HW210142   1.738   2.513   2.778 -1.1165  2.7101  2.5038
 2594SOL    HW310143   1.640   2.605   2.708  0.2006  1.2479 -1.5261
 2594SOL    MW410144   1.715   2.560   2.709 -0.3138  0.3077  0.4363
 2595SOL     OW10145   4.381   6.317   1.109  0.4620 -0.3486 -0.0075
 2595SOL    HW210146   4.450   6.383   1.100  0.0887  0.0336 -0.1248
 2595SOL    HW310147   4.309   6.364   1.153  0.4020 -0.8327  0.4248
 2595SOL    MW410148   4.380   6.332   1.114  0.4049 -0.3621  0.0341
 2596SOL     OW10149   6.234   2.625   1.831 -0.1072  0.2335  0.1629
 2596SOL    HW210150   6.294   2.585   1.894  0.7448  1.8597  0.4411
 2596SOL    HW310151   6.242   2.571   1.753  0.1279 -0.7930  0.8684
 2596SOL    MW410152   6.243   2.612   1.829  0.0362  0.3126  0.2927
 2597SOL     OW10153   5.603   0.472   3.605  0.1540 -0.0118  0.8863
 2597SOL    HW210154   5.559   0.435   3.681  1.2271  0.9900  2.0360
 2597SOL    HW310155   5.659   0.401   3.573 -1.2305 -0.8567  0.2049
 2597SOL    MW410156   5.605   0.457   3.611  0.1129  0.0089  0.9481
 2598SOL     OW10157   1.675   4.250   1.862 -0.3914  0.3213 -0.5433
 2598SOL    HW210158   1.665   4.266   1.956  0.3804  0.6103 -0.5050
 2598SOL    HW310159   1.662   4.335   1.821  0.0089  0.3351 -0.6408
 2598SOL    MW410160   1.672   4.263   1.869 -0.2367  0.3612 -0.5511
 2599SOL     OW10161   2.933   5.622   6.021  0.6265  0.1323 -0.4324
 2599SOL    HW210162   2.852   5.580   5.993  1.4539 -0.2310 -2.4516
 2599SOL    HW310163   3.001   5.584   5.965  1.9160  1.7846 -0.0875
 2599SOL    MW410164   2.931   5.612   6.010  0.9058  0.3024 -0.6533
 2600SOL     OW10165   5.129   1.929   0.885 -0.1799 -0.0438  0.5028
 2600SOL    HW210166   5.070   2.003   0.868 -0.1164 -0.1025  0.0177
 2600SOL    HW310167   5.103   1.862   0.823 -2.2683 -1.6547  2.9026
 2600SOL    MW410168   5.118   1.930   0.875 -0.4471 -0.2641  0.7554
 2601SOL     OW10169   3.588   5.751   4.773 -0.1121  0.0610  0.0995
 2601SOL    HW210170   3.541   5.833   4.756 -1.1378 -0.6785 -0.7719
 2601SOL    HW310171   3.656   5.748   4.706  0.2412  0.4179  0.4346
 2601SOL    MW410172   3.591   5.762   4.762 -0.2008  0.0105  0.0287
 2602SOL     OW10173   3.792   0.672   5.412 -0.6109  0.4130 -0.0954
 2602SOL    HW210174   3.699   0.695   5.413 -0.6203  0.3847 -0.2177
 2602SOL    HW310175   3.794   0.586   5.369 -0.6013  0.0712  0.5775
 2602SOL    MW410176   3.780   0.664   5.406 -0.6109  0.3642 -0.0227
 2603SOL     OW10177   4.822   5.381   6.291 -0.0520 -0.0179  0.4893
 2603SOL    HW210178   4.817   5.408   6.382 -1.6167 -0.0600  0.4318
 2603SOL    HW310179   4.733   5.353   6.269  0.4202 -0.5108 -0.8939
 2603SOL    MW410180   4.810   5.381   6.300 -0.1962 -0.0885  0.2992
 2604SOL     OW10181   2.097   4.121   1.660  0.0647 -0.2224 -0.3580
 2604SOL    HW210182   2.067   4.138   1.749 -1.1123 -2.0323 -0.3568
 2604SOL    HW310183   2.102   4.026   1.654  2.3691 -0.0974 -1.5389
 2604SOL    MW410184   2.094   4.111   1.671  0.2135 -0.4447 -0.5136
 2605SOL     OW10185   4.521   2.753   2.963  0.1759 -0.2587  0.1883
 2605SOL    HW210186   4.457   2.689   2.931 -0.8474  0.7079  0.2274
 2605SOL    HW310187   4.546   2.721   3.049  0.3465 -1.0591 -0.1441
 2605SOL    MW410188   4.516   2.741   2.970  0.0634 -0.2368  0.1496
 2606SOL     OW10189   5.715   1.023   4.573 -0.5981  0.5370  0.3004
 2606SOL    HW210190   5.765   0.971   4.511 -0.7433  1.7157 -0.8552
 2606SOL    HW310191   5.756   1.110   4.570  0.1263  0.3474  2.7358
 2606SOL    MW410192   5.727   1.028   4.564 -0.5217  0.6675  0.4693
 2607SOL     OW10193   3.928   4.590   4.497  0.3725 -0.4999 -0.4513
 2607SOL    HW210194   3.987   4.582   4.573  0.4040  1.3692 -0.2419
 2607SOL    HW310195   3.841   4.594   4.535  0.3994  0.6173 -0.4727
 2607SOL    MW410196   3.924   4.589   4.512  0.3802 -0.1059 -0.4265
 2608SOL     OW10197   3.618   5.888   0.827  0.4766 -0.4939 -0.1373
 2608SOL    HW210198   3.550   5.910   0.764  0.6531 -0.4622 -0.3195
 2608SOL    HW310199   3.623   5.793   0.826 -1.7222 -0.7313  2.1677
 2608SOL    MW410200   3.610   5.878   0.819  0.2098 -0.5210  0.1428
 2609SOL     OW10201   2.727   5.119   4.487 -0.0634  0.0923  0.2249
 2609SOL    HW210202   2.716   5.073   4.404  1.7744  0.4743 -0.2789
 2609SOL    HW310203   2.689   5.060   4.552  0.8048 -1.4357 -0.5903
 2609SOL    MW410204   2.721   5.105   4.484  0.2936 -0.0589  0.0509
 2610SOL     OW10205   1.600   1.489   3.899  0.4180 -0.1942 -0.3056
 2610SOL    HW210206   1.612   1.553   3.829 -0.2839  0.2516 -0.0325
 2610SOL    HW310207   1.557   1.538   3.969 -2.2918 -1.4536 -0.9491
 2610SOL    MW410208   1.596   1.504   3.899 -0.0321 -0.3016 -0.3544
 2611SOL     OW10209   0.651   5.317   4.724  0.2507 -0.7095 -0.5712
 2611SOL    HW210210   0.642   5.364   4.807  0.6725 -1.6498  0.0308
 2611SOL    HW310211   0.565   5.276   4.711 -0.5903  1.3016 -1.8191
 2611SOL    MW410212   0.638   5.318   4.733  0.1954 -0.5682 -0.6564
 2612SOL     OW10213   5.860   1.153   2.882 -0.4419  0.2423 -0.2079
 2612SOL    HW210214   5.793   1.220   2.896 -2.9264 -1.7042 -1.8361
 2612SOL    HW310215   5.927   1.196   2.830 -1.5322  1.6943 -0.4695
 2612SOL    MW410216   5.860   1.167   2.877 -0.9135  0.1771 -0.4573
 2613SOL     OW10217   6.089   2.592   0.710 -0.6432  1.0927  0.2377
 2613SOL    HW210218   6.067   2.682   0.687  0.4772  1.6425  1.2381
 2613SOL    HW310219   6.053   2.580   0.798 -0.1554  0.8052  0.4029
 2613SOL    MW410220   6.081   2.602   0.719 -0.4311  1.1273  0.3914
 2614SOL     OW10221   4.301   3.174   1.818 -0.0417  0.0608 -0.5718
 2614SOL    HW210222   4.227   3.233   1.801  0.6809  1.7005  1.4823
 2614SOL    HW310223   4.364   3.229   1.866  2.1083 -1.5374 -1.4362
 2614SOL    MW410224   4.299   3.189   1.822  0.3373  0.0662 -0.4148
 2615SOL     OW10225   4.197   4.527   5.144 -0.0022 -0.0364  0.6663
 2615SOL    HW210226   4.128   4.544   5.080 -0.2312 -0.2279  0.8567
 2615SOL    HW310227   4.278   4.527   5.093 -0.2220 -0.6066  0.3005
 2615SOL    MW410228   4.199   4.529   5.129 -0.0614 -0.1369  0.6432
 2616SOL     OW10229   4.236   4.954   5.655  0.4713 -0.3623  0.1525
 2616SOL    HW210230   4.300   4.896   5.696  3.1340  1.6478 -0.9280
 2616SOL    HW310231   4.179   4.896   5.605  2.0514 -2.1642  0.3615
 2616SOL    MW410232   4.237   4.939   5.654  1.0311 -0.3348  0.0375
 2617SOL     OW10233   0.578   1.021   0.945  0.7669 -0.1212 -0.4295
 2617SOL    HW210234   0.625   1.104   0.938  1.5804 -0.3981  1.2354
 2617SOL    HW310235   0.489   1.041   0.916  0.8193  1.4488  0.4129
 2617SOL    MW410236   0.572   1.035   0.940  0.8811  0.0494 -0.0987
 2618SOL     OW10237   2.201   6.278   3.120  0.3406 -0.4291 -0.2720
 2618SOL    HW210238   2.244   6.265   3.204 -0.1104 -2.5386 -0.3091
 2618SOL    HW310239   2.134   6.344   3.137  2.1843  1.3930  0.2623
 2618SOL    MW410240   2.198   6.285   3.133  0.5244 -0.4670 -0.2064
 2619SOL     OW10241   5.201   1.620   6.267  0.0625  0.2586  0.0280
 2619SOL    HW210242   5.258   1.696   6.280 -1.5838  1.4635  0.5065
 2619SOL    HW310243   5.218   1.564   6.343 -0.3951  1.2817  0.9083
 2619SOL    MW410244   5.211   1.623   6.279 -0.2151  0.5526  0.2073
 2620SOL     OW10245   2.435   0.779   5.589 -0.0261  0.4217  0.4429
 2620SOL    HW210246   2.482   0.697   5.601 -0.0496 -0.1615 -2.7315
 2620SOL    HW310247   2.342   0.754   5.592 -0.1320  0.8598  2.2405
 2620SOL    MW410248   2.429   0.765   5.591 -0.0432  0.4026  0.2613
 2621SOL     OW10249   5.924   0.945   1.147  0.0783  0.3484 -0.2055
 2621SOL    HW210250   5.911   0.870   1.206  0.9869  1.2661  1.2243
 2621SOL    HW310251   5.870   0.925   1.071  0.7752 -2.0795 -0.1686
 2621SOL    MW410252   5.915   0.932   1.145  0.2902  0.1492 -0.0120
 2622SOL     OW10253   4.468   0.114   3.227  0.8026  0.5953  0.3077
 2622SOL    HW210254   4.538   0.178   3.217  1.8200 -0.4659  0.5269
 2622SOL    HW310255   4.498   0.037   3.179 -0.4000  0.2622  0.0488
 2622SOL    MW410256   4.481   0.113   3.220  0.7781  0.4113  0.3025
 2623SOL     OW10257   1.566   5.551   5.353  0.0601 -0.1445 -0.8814
 2623SOL    HW210258   1.511   5.492   5.300 -1.0951  0.6467 -0.5985
 2623SOL    HW310259   1.599   5.615   5.290 -0.8278  0.4434 -0.7609
 2623SOL    MW410260   1.563   5.552   5.337 -0.2094  0.0374 -0.8282
 2624SOL     OW10261   1.850   1.834   2.210 -0.1291 -0.5615  0.1321
 2624SOL    HW210262   1.797   1.878   2.277  0.7139 -0.2708  0.6272
 2624SOL    HW310263   1.820   1.871   2.127 -1.3729 -1.1207  0.3132
 2624SOL    MW410264   1.839   1.845   2.208 -0.1820 -0.5969  0.2213
 2625SOL     OW10265   0.458   4.900   4.936 -0.2550 -0.1256 -0.7929
 2625SOL    HW210266   0.377   4.866   4.975  0.0178 -0.4378 -0.4958
 2625SOL    HW310267   0.429   4.948   4.859 -0.5912 -1.6372 -1.6354
 2625SOL    MW410268   0.443   4.902   4.931 -0.2634 -0.3663 -0.8649
 2626SOL     OW10269   0.901   1.098   6.491 -0.0324  0.2072  0.0909
 2626SOL    HW210270   0.924   1.152   6.567  0.7857 -0.1309  0.0949
 2626SOL    HW310271   0.807   1.112   6.480 -0.1360  0.4002  1.0595
 2626SOL    MW410272   0.892   1.107   6.500  0.0618  0.1881  0.2192
 2627SOL     OW10273   1.252   2.781   1.769  0.2309  0.6960  0.3317
 2627SOL    HW210274   1.315   2.712   1.790 -1.9946 -1.2811  0.8710
 2627SOL    HW310275   1.227   2.764   1.678 -0.4868  0.6246  0.5336
 2627SOL    MW410276   1.257   2.770   1.760 -0.1574  0.4257  0.4295
 2628SOL     OW10277   5.754   5.056   6.439 -0.1074 -0.0330  0.1823
 2628SOL    HW210278   5.788   4.967   6.441  1.7903  0.6532  2.2518
 2628SOL    HW310279   5.817   5.106   6.387 -1.2348  0.1284 -1.0954
 2628SOL    MW410280   5.767   5.051   6.433 -0.0058  0.0788  0.2868
 2629SOL     OW10281   2.830   0.236   3.348  0.1526  0.0612  0.8000
 2629SOL    HW210282   2.849   0.257   3.439 -2.0337 -0.6189  1.4811
 2629SOL    HW310283   2.852   0.143   3.339 -0.4419 -0.0959  0.9032
 2629SOL    MW410284   2.835   0.227   3.359 -0.2143 -0.0493  0.9035
 2630SOL     OW10285   4.664   2.464   6.116  0.5288 -0.0331  0.1209
 2630SOL    HW210286   4.734   2.485   6.178 -0.0901  1.3055  0.4013
 2630SOL    HW310287   4.704   2.401   6.055  1.3325 -0.8861  1.4818
 2630SOL    MW410288   4.678   2.458   6.116  0.5532  0.0310  0.3375
 2631SOL     OW10289   1.549   3.495   5.977  0.3356  0.9199  0.1204
 2631SOL    HW210290   1.626   3.552   5.987  1.0782 -0.2002  0.9581
 2631SOL    HW310291   1.474   3.556   5.980  0.9897  1.7358  2.8530
 2631SOL    MW410292   1.549   3.511   5.978  0.5199  0.8798  0.5915
 2632SOL     OW10293   5.201   5.378   1.129  0.6167  0.6102 -0.2793
 2632SOL    HW210294   5.251   5.315   1.076 -0.5324  0.0329 -0.7256
 2632SOL    HW310295   5.176   5.446   1.067 -0.6012  0.0108 -0.4926
 2632SOL    MW410296   5.204   5.378   1.114  0.3044  0.4549 -0.3663
 2633SOL     OW10297   4.092   2.024   5.829  0.3565 -0.0362 -0.3013
 2633SOL    HW210298   4.096   1.929   5.834 -0.0703 -0.1414 -1.6171
 2633SOL    HW310299   4.032   2.042   5.756  1.2603  1.2347 -0.7753
 2633SOL    MW410300   4.084   2.014   5.820  0.4195  0.1176 -0.5374
 2634SOL     OW10301   4.431   5.947   0.797  0.4165 -0.4270 -0.1076
 2634SOL    HW210302   4.425   6.042   0.782 -1.4382 -0.6656 -1.2667
 2634SOL    HW310303   4.524   5.930   0.808  1.0815  1.2075 -2.4581
 2634SOL    MW410304   4.442   5.957   0.796  0.2595 -0.2429 -0.5707
 2635SOL     OW10305   2.951   1.514   5.253 -0.8675 -0.8924  0.1406
 2635SOL    HW210306   2.964   1.542   5.162  0.8413 -0.0990  0.5683
 2635SOL    HW310307   2.966   1.420   5.251  4.0518 -0.4067  0.1867
 2635SOL    MW410308   2.955   1.506   5.241  0.0070 -0.7236  0.2031
 2636SOL     OW10309   6.135   3.975   1.197  0.6045  0.2677 -0.5005
 2636SOL    HW210310   6.195   3.940   1.130  1.5227  0.1763  0.3401
 2636SOL    HW310311   6.064   3.911   1.201  0.8576 -0.0511 -0.9514
 2636SOL    MW410312   6.134   3.962   1.189  0.7590  0.2136 -0.4491
 2637SOL     OW10313   0.373   3.584   0.880 -0.5770 -0.6600 -0.6462
 2637SOL    HW210314   0.311   3.634   0.934  0.4400 -1.1637  1.0556
 2637SOL    HW310315   0.370   3.495   0.915  1.9583 -0.4502  0.3208
 2637SOL    MW410316   0.364   3.579   0.892 -0.1083 -0.6988 -0.2941
 2638SOL     OW10317   4.951   1.047   5.261 -0.5476  0.4405  0.1102
 2638SOL    HW210318   4.967   1.140   5.242 -2.8419  0.7548 -0.6259
 2638SOL    HW310319   5.034   1.004   5.241  0.4804  2.2913  0.1755
 2638SOL    MW410320   4.964   1.054   5.256 -0.7146  0.7262  0.0217
 2639SOL     OW10321   2.109   4.380   3.991 -0.2487  0.2952 -0.2092
 2639SOL    HW210322   2.151   4.440   4.054  1.0569  0.0314 -0.7991
 2639SOL    HW310323   2.133   4.416   3.905 -0.7834 -0.1864 -0.5602
 2639SOL    MW410324   2.118   4.393   3.988 -0.1470  0.1969 -0.3334
 2640SOL     OW10325   3.617   2.053   4.914 -0.2972  0.0273 -0.0537
 2640SOL    HW210326   3.652   1.965   4.905  0.3090  0.2199  0.3034
 2640SOL    HW310327   3.663   2.090   4.990 -3.6282 -0.8083  2.6222
 2640SOL    MW410328   3.628   2.047   4.923 -0.6567 -0.0575  0.3465
 2641SOL     OW10329   4.770   4.559   6.007  0.1991  0.3216 -0.4693
 2641SOL    HW210330   4.689   4.509   6.002  0.8014 -0.5720 -1.6982
 2641SOL    HW310331   4.823   4.513   6.072 -0.4723  1.2534  0.7887
 2641SOL    MW410332   4.767   4.546   6.015  0.1900  0.3266 -0.4655
 2642SOL     OW10333   3.999   2.040   2.321 -0.1634  0.1683  0.3360
 2642SOL    HW210334   4.061   2.032   2.248  0.7140  1.2059  0.9295
 2642SOL    HW310335   4.009   1.959   2.371 -1.2245 -0.8314 -0.9995
 2642SOL    MW410336   4.009   2.029   2.318 -0.1876  0.1733  0.2381
 2643SOL     OW10337   2.181   5.136   2.643  0.3914  0.9983  0.2048
 2643SOL    HW210338   2.269   5.112   2.670  0.6563  0.8976 -0.6988
 2643SOL    HW310339   2.184   5.136   2.547 -0.4067  1.6643  0.1604
 2643SOL    MW410340   2.193   5.133   2.634  0.3211  1.0729  0.0797
 2644SOL     OW10341   2.817   0.463   1.706 -0.2133  0.2053  0.3335
 2644SOL    HW210342   2.779   0.449   1.620 -0.9607  1.9214  0.3534
 2644SOL    HW310343   2.911   0.475   1.690 -0.4994  1.6006 -0.3853
 2644SOL    MW410344   2.824   0.463   1.693 -0.3497  0.6158  0.2413
 2645SOL     OW10345   3.834   1.197   0.988  0.0569 -0.5585 -0.4723
 2645SOL    HW210346   3.836   1.139   0.912 -0.6483  0.6051 -1.3998
 2645SOL    HW310347   3.766   1.261   0.968  0.7534  0.5536  0.5720
 2645SOL    MW410348   3.825   1.198   0.975  0.0558 -0.2582 -0.4569
 2646SOL     OW10349   3.966   0.135   3.496 -0.5116 -0.2277  0.0173
 2646SOL    HW210350   3.873   0.111   3.499 -0.3620 -0.7760  0.5441
 2646SOL    HW310351   3.982   0.154   3.403 -1.6668  2.1104  0.2216
 2646SOL    MW410352   3.955   0.134   3.484 -0.6442  0.0084  0.1138
 2647SOL     OW10353   1.593   1.508   1.378 -0.1348 -0.4313  0.4139
 2647SOL    HW210354   1.616   1.457   1.455  4.5275  0.8329  0.1572
 2647SOL    HW310355   1.643   1.469   1.307  1.5612  2.7442 -0.3304
 2647SOL    MW410356   1.602   1.496   1.379  0.7041  0.1545  0.2818
 2648SOL     OW10357   1.464   4.852   5.091 -0.1599 -0.2378 -0.1904
 2648SOL    HW210358   1.399   4.920   5.109  0.3966  0.6176 -1.3406
 2648SOL    HW310359   1.545   4.884   5.132 -0.0929 -0.6126 -0.0194
 2648SOL    MW410360   1.466   4.865   5.099 -0.0776 -0.1744 -0.3196
 2649SOL     OW10361   1.668   3.029   2.741  0.6098 -0.4222  0.0287
 2649SOL    HW210362   1.650   3.107   2.688  0.5801 -0.0957  0.5105
 2649SOL    HW310363   1.750   3.050   2.787  0.6438 -0.7106  0.1010
 2649SOL    MW410364   1.677   3.042   2.740  0.6104 -0.4172  0.1018
 2650SOL     OW10365   3.887   4.517   6.494 -0.2885  0.1173 -0.0183
 2650SOL    HW210366   3.875   4.476   6.408 -0.6236 -0.8941  0.4867
 2650SOL    HW310367   3.818   4.478   6.548  0.3706  0.1979  0.8957
 2650SOL    MW410368   3.876   4.506   6.490 -0.2457 -0.0055  0.1689
 2651SOL     OW10369   5.980   5.061   3.053  0.0611 -0.3391 -0.0422
 2651SOL    HW210370   5.886   5.065   3.068  0.2497  3.1867  1.0512
 2651SOL    HW310371   5.994   5.109   2.971  1.0657  1.9738  1.3896
 2651SOL    MW410372   5.969   5.068   3.044  0.2185  0.4312  0.2909
 2652SOL     OW10373   3.841   2.444   2.403  0.8320  0.0925 -0.8510
 2652SOL    HW210374   3.910   2.377   2.409 -0.5216 -1.4935 -2.1622
 2652SOL    HW310375   3.820   2.448   2.310  1.0467  2.5988 -0.8502
 2652SOL    MW410376   3.847   2.436   2.391  0.6818  0.2139 -1.0239
 2653SOL     OW10377   5.146   0.683   0.392 -0.4379 -0.5152  0.3451
 2653SOL    HW210378   5.226   0.632   0.404 -0.5761 -1.4784 -2.2006
 2653SOL    HW310379   5.173   0.774   0.407  0.5406 -1.0210  1.8706
 2653SOL    MW410380   5.160   0.689   0.395 -0.3270 -0.7090  0.2105
 2654SOL     OW10381   2.250   5.960   1.166  0.1447  0.6089 -0.2736
 2654SOL    HW210382   2.201   5.890   1.124 -0.6615  1.3632 -0.6120
 2654SOL    HW310383   2.286   5.919   1.245  1.7246 -0.8492 -1.6337
 2654SOL    MW410384   2.248   5.945   1.171  0.2468  0.5160 -0.4977
 2655SOL     OW10385   6.354   1.385   1.227 -0.8544 -0.0525  0.1210
 2655SOL    HW210386   6.359   1.305   1.175 -2.0179  0.3192 -0.5955
 2655SOL    HW310387   6.304   1.361   1.304 -3.1358  0.4424 -1.1116
 2655SOL    MW410388   6.348   1.372   1.230 -1.3089  0.0619 -0.1362
 2656SOL     OW10389   5.776   3.566   0.219  0.1729 -0.6204 -0.1498
 2656SOL    HW210390   5.833   3.621   0.165  0.2456 -0.5568 -0.0116
 2656SOL    HW310391   5.767   3.616   0.301 -1.5563  0.2358 -0.8217
 2656SOL    MW410392   5.782   3.580   0.223 -0.0457 -0.4990 -0.2202
 2657SOL     OW10393   2.219   0.503   1.775  0.5965  0.4090 -0.5683
 2657SOL    HW210394   2.290   0.481   1.715  0.5116  0.6046 -0.7427
 2657SOL    HW310395   2.259   0.504   1.862  0.3568 -1.6580 -0.3904
 2657SOL    MW410396   2.233   0.500   1.779  0.5537  0.1621 -0.5678
 2658SOL     OW10397   5.055   4.346   5.663 -0.0749 -0.2048 -0.1192
 2658SOL    HW210398   5.128   4.337   5.602 -0.5309  1.2035 -0.9269
 2658SOL    HW310399   4.978   4.317   5.614 -0.0251 -2.3476  0.9493
 2658SOL    MW410400   5.054   4.341   5.649 -0.1285 -0.3017 -0.0848
 2659SOL     OW10401   3.381   0.191   1.465  0.3487  0.5134  0.3211
 2659SOL    HW210402   3.377   0.182   1.560  3.8205  2.0417  0.7403
 2659SOL    HW310403   3.434   0.117   1.436  1.3033  1.3473 -0.1075
 2659SOL    MW410404   3.387   0.180   1.474  0.9327  0.8251  0.3199
 2660SOL     OW10405   1.167   4.768   4.212 -0.2116 -0.0072 -0.1865
 2660SOL    HW210406   1.078   4.786   4.181 -0.2150  1.6536  0.6530
 2660SOL    HW310407   1.204   4.855   4.229  1.2103 -0.7121  0.4609
 2660SOL    MW410408   1.160   4.782   4.210 -0.0245  0.1189  0.0097
 2661SOL     OW10409   5.133   5.839   5.122  0.0532 -0.4749  0.4197
 2661SOL    HW210410   5.204   5.850   5.186 -0.1359 -1.0342  0.7345
 2661SOL    HW310411   5.177   5.825   5.039  0.3113  1.1274  0.2445
 2661SOL    MW410412   5.148   5.839   5.120  0.0623 -0.3373  0.4381
 2662SOL     OW10413   6.406   4.053   3.580 -0.0169 -0.5157  0.0692
 2662SOL    HW210414   6.394   4.026   3.671  0.3501  0.1117  0.3098
 2662SOL    HW310415   6.478   3.999   3.548 -0.8196 -1.4697 -0.1689
 2662SOL    MW410416   6.414   4.043   3.588 -0.0744 -0.5588  0.0695
 2663SOL     OW10417   4.223   5.138   0.564 -0.4568  0.2729 -0.0682
 2663SOL    HW210418   4.184   5.136   0.652 -0.2748 -0.6573  0.0018
 2663SOL    HW310419   4.302   5.190   0.574 -0.5289  0.3201  0.2814
 2663SOL    MW410420   4.228   5.145   0.577 -0.4423  0.1564 -0.0128
 2664SOL     OW10421   3.594   2.007   4.238  1.0064 -0.2216  0.8057
 2664SOL    HW210422   3.528   2.014   4.307  0.9624 -2.0206  0.9770
 2664SOL    HW310423   3.677   2.000   4.285  1.1548  0.2856  0.6268
 2664SOL    MW410424   3.596   2.007   4.253  1.0202 -0.3920  0.8047
 2665SOL     OW10425   4.441   2.585   6.027 -0.2424  0.1294  0.0873
 2665SOL    HW210426   4.387   2.574   6.105  0.5078  1.0969  0.7567
 2665SOL    HW310427   4.531   2.577   6.058  0.1005  1.5895 -0.4805
 2665SOL    MW410428   4.446   2.582   6.041 -0.0982  0.4497  0.1007
 2666SOL     OW10429   5.946   3.724   6.460  0.2145  0.1501  0.1835
 2666SOL    HW210430   5.970   3.802   6.409 -0.6731 -0.6276 -1.5102
 2666SOL    HW310431   6.025   3.670   6.459 -0.0667 -0.2713 -1.2182
 2666SOL    MW410432   5.960   3.727   6.453  0.0603 -0.0081 -0.2249
 2667SOL     OW10433   1.221   0.443   4.262 -0.1167  0.7735 -0.0171
 2667SOL    HW210434   1.271   0.385   4.319  0.1918  0.2112 -0.8325
 2667SOL    HW310435   1.133   0.406   4.261 -0.4562  1.5007  1.0560
 2667SOL    MW410436   1.216   0.430   4.269 -0.1208  0.7953  0.0169
 2668SOL     OW10437   1.297   4.163   5.964 -0.1419 -0.1866  0.0201
 2668SOL    HW210438   1.235   4.222   5.921 -1.1648 -1.1043  0.1854
 2668SOL    HW310439   1.376   4.215   5.976 -0.1436  0.4048 -2.0831
 2668SOL    MW410440   1.299   4.177   5.960 -0.2771 -0.2297 -0.2356
 2669SOL     OW10441   1.738   5.264   5.908 -0.4141  0.4140 -0.2716
 2669SOL    HW210442   1.831   5.286   5.898 -0.1285 -1.0625 -1.1801
 2669SOL    HW310443   1.702   5.335   5.960  1.3121  0.8303  0.4305
 2669SOL    MW410444   1.745   5.276   5.914 -0.1487  0.2742 -0.2988
 2670SOL     OW10445   3.211   4.807   1.155 -0.4238 -0.2819 -0.2372
 2670SOL    HW210446   3.178   4.870   1.219  2.0806  0.5447  0.3782
 2670SOL    HW310447   3.257   4.742   1.208  0.6277 -0.2602 -1.0875
 2670SOL    MW410448   3.213   4.807   1.170  0.0453 -0.1700 -0.2682
 2671SOL     OW10449   3.993   0.561   0.514  0.5035 -0.1839  0.4535
 2671SOL    HW210450   4.063   0.613   0.474  0.6343  1.4591  2.6205
 2671SOL    HW310451   4.004   0.473   0.477  2.3450  0.5458 -0.8850
 2671SOL    MW410452   4.004   0.556   0.504  0.7637  0.1291  0.5628
 2672SOL     OW10453   0.268   4.352   5.505  1.0304 -0.0110 -0.4083
 2672SOL    HW210454   0.265   4.256   5.511 -0.6384  0.0170 -0.3414
 2672SOL    HW310455   0.251   4.382   5.594  0.4006  0.3520 -0.6493
 2672SOL    MW410456   0.266   4.343   5.518  0.7271  0.0406 -0.4313
 2673SOL     OW10457   4.916   5.305   1.368 -0.1505 -0.1158  0.0104
 2673SOL    HW210458   4.928   5.232   1.429 -0.7346  0.1168  0.4120
 2673SOL    HW310459   4.851   5.273   1.306 -0.2578 -0.0130  0.0695
 2673SOL    MW410460   4.909   5.291   1.368 -0.2417 -0.0716  0.0712
 2674SOL     OW10461   2.067   2.228   4.690 -0.1511 -0.3675 -0.3031
 2674SOL    HW210462   2.132   2.282   4.733  0.6901 -1.5555 -0.0291
 2674SOL    HW310463   1.991   2.285   4.678  0.5580  0.7243  0.3440
 2674SOL    MW410464   2.065   2.242   4.694  0.0535 -0.3802 -0.1816
 2675SOL     OW10465   1.191   2.201   5.837  0.0952  0.0302 -0.0972
 2675SOL    HW210466   1.131   2.130   5.812 -0.0015 -0.0207  0.2721
 2675SOL    HW310467   1.155   2.278   5.794  0.0594 -0.0978 -0.3014
 2675SOL    MW410468   1.178   2.202   5.828  0.0777  0.0066 -0.0754
 2676SOL     OW10469   4.850   5.260   5.645  0.2391  0.1349  0.2447
 2676SOL    HW210470   4.832   5.300   5.560 -0.8218 -0.2794  0.2706
 2676SOL    HW310471   4.764   5.241   5.682  0.6182  1.4555  1.9727
 2676SOL    MW410472   4.836   5.263   5.639  0.1491  0.2545  0.4761
 2677SOL     OW10473   4.799   5.035   2.373  0.1666  0.6709 -0.9538
 2677SOL    HW210474   4.879   5.036   2.320  0.6752 -0.0582 -0.2205
 2677SOL    HW310475   4.774   5.127   2.381  1.5021  0.9986 -0.3373
 2677SOL    MW410476   4.806   5.047   2.367  0.4099  0.6179 -0.7757
 2678SOL     OW10477   0.731   1.232   4.223 -1.1121  0.9700 -0.6288
 2678SOL    HW210478   0.730   1.253   4.130  0.3859  2.7544 -0.2911
 2678SOL    HW310479   0.791   1.295   4.262 -1.0526 -0.2521  1.4399
 2678SOL    MW410480   0.739   1.243   4.216 -0.9066  1.0442 -0.3113
 2679SOL     OW10481   5.913   3.884   4.068  0.1549  0.3932 -0.0084
 2679SOL    HW210482   5.896   3.791   4.055  1.1060 -0.0396  1.6022
 2679SOL    HW310483   5.868   3.905   4.151 -0.3818  1.4706 -0.5494
 2679SOL    MW410484   5.905   3.875   4.078  0.2096  0.4783  0.1327
 2680SOL     OW10485   1.056   4.798   3.338  0.3863  0.0353 -0.0240
 2680SOL    HW210486   1.011   4.765   3.416  0.2291  1.9332  0.7361
 2680SOL    HW310487   1.142   4.825   3.370 -0.5768  3.3183  0.1698
 2680SOL    MW410488   1.061   4.797   3.352  0.2385  0.7189  0.1019
 2681SOL     OW10489   6.410   2.562   2.291  0.0915 -0.1481  0.2713
 2681SOL    HW210490   6.438   2.487   2.343  0.5135 -0.2953 -0.1617
 2681SOL    HW310491   6.467   2.634   2.319 -0.2482 -0.0124  0.6166
 2681SOL    MW410492   6.421   2.561   2.301  0.1024 -0.1496  0.2597
 2682SOL     OW10493   2.594   2.376   3.298 -0.6123 -0.0434 -0.6083
 2682SOL    HW210494   2.623   2.391   3.208 -0.1131  0.6953 -0.3341
 2682SOL    HW310495   2.526   2.309   3.290 -1.2629  0.6939 -1.6511
 2682SOL    MW410496   2.588   2.369   3.285 -0.6323  0.1513 -0.7097
 2683SOL     OW10497   1.050   3.326   2.434  0.6966  0.3206 -0.5746
 2683SOL    HW210498   1.102   3.332   2.514  0.4911 -0.9753 -0.3188
 2683SOL    HW310499   1.094   3.259   2.382 -1.7292 -2.3001  0.4944
 2683SOL    MW410500   1.062   3.318   2.438  0.3494 -0.1962 -0.3998
 2684SOL     OW10501   2.040   2.751   1.050 -0.1252 -0.5261 -0.2302
 2684SOL    HW210502   2.118   2.698   1.030 -0.9058 -1.2777 -1.3796
 2684SOL    HW310503   2.006   2.714   1.131  1.1076  0.2857  0.6959
 2684SOL    MW410504   2.046   2.740   1.058 -0.0656 -0.5182 -0.2597
 2685SOL     OW10505   0.722   0.850   2.189  0.6561 -0.0405 -0.5088
 2685SOL    HW210506   0.796   0.797   2.218  0.2988 -0.1598  0.2102
 2685SOL    HW310507   0.648   0.790   2.190 -0.0217  0.7288  1.5689
 2685SOL    MW410508   0.722   0.835   2.193  0.5195  0.0453 -0.1398
 2686SOL     OW10509   4.617   6.168   1.009 -0.1708  0.5856 -0.2935
 2686SOL    HW210510   4.628   6.263   1.006 -0.2493  0.8523  3.6441
 2686SOL    HW310511   4.705   6.133   0.994  0.4642  1.4538  1.1955
 2686SOL    MW410512   4.630   6.176   1.006 -0.0974  0.7353  0.4224
 2687SOL     OW10513   0.974   3.371   4.760 -0.2057 -0.0123 -0.2670
 2687SOL    HW210514   0.928   3.434   4.703 -2.0248  0.7796  1.9171
 2687SOL    HW310515   0.933   3.287   4.741 -1.1822  0.3413  0.2037
 2687SOL    MW410516   0.962   3.369   4.750 -0.5746  0.1389  0.0833
 2688SOL     OW10517   1.787   3.495   4.284  0.0982  0.2567  0.2135
 2688SOL    HW210518   1.851   3.425   4.295  1.0796  0.9954 -0.6759
 2688SOL    HW310519   1.729   3.463   4.214 -1.1258 -0.8267  1.6675
 2688SOL    MW410520   1.788   3.482   4.276  0.0662  0.2112  0.2880
 2689SOL     OW10521   3.070   2.534   0.447 -0.5562  0.2257  0.4202
 2689SOL    HW210522   3.041   2.444   0.432 -1.1220  0.0428  2.3174
 2689SOL    HW310523   3.013   2.588   0.393 -0.8166 -0.4939 -0.0365
 2689SOL    MW410524   3.059   2.529   0.438 -0.6652  0.1067  0.6103
 2690SOL     OW10525   4.389   6.013   3.261 -0.0185 -0.0881  0.1957
 2690SOL    HW210526   4.424   5.940   3.210  0.1262  0.4054 -0.4270
 2690SOL    HW310527   4.385   5.980   3.350 -1.1334 -1.3040 -0.2564
 2690SOL    MW410528   4.393   5.999   3.266 -0.1465 -0.1834  0.0539
 2691SOL     OW10529   0.861   2.624   2.087 -0.1833 -0.4948  0.2130
 2691SOL    HW210530   0.884   2.538   2.122 -0.5742 -1.4599 -1.7770
 2691SOL    HW310531   0.765   2.626   2.089 -0.1930 -0.3661 -0.3574
 2691SOL    MW410532   0.851   2.613   2.092 -0.2361 -0.6051 -0.1248
 2692SOL     OW10533   2.569   1.810   0.866 -0.0396  0.0403 -0.0663
 2692SOL    HW210534   2.494   1.763   0.829 -0.5042 -0.2761  1.2236
 2692SOL    HW310535   2.536   1.898   0.883 -0.3687 -0.3219  1.2330
 2692SOL    MW410536   2.554   1.815   0.863 -0.1443 -0.0493  0.2753
 2693SOL     OW10537   6.250   1.193   1.689 -0.1929 -0.2836 -0.1592
 2693SOL    HW210538   6.279   1.104   1.672  0.2115 -0.5717  1.7878
 2693SOL    HW310539   6.232   1.230   1.603  1.9313 -1.4672 -1.1869
 2693SOL    MW410540   6.251   1.186   1.676  0.1407 -0.4778 -0.0379
 2694SOL     OW10541   3.181   5.748   0.879  0.0457  0.1276 -0.5924
 2694SOL    HW210542   3.170   5.764   0.786 -1.3236 -0.6082 -0.5927
 2694SOL    HW310543   3.252   5.684   0.885 -0.8253 -0.9285 -1.2562
 2694SOL    MW410544   3.189   5.741   0.868 -0.2499 -0.1088 -0.6800
 2695SOL     OW10545   0.931   0.555   6.163  0.2341 -0.0015 -0.3019
 2695SOL    HW210546   0.883   0.634   6.137 -2.8020 -0.7361  2.4481
 2695SOL    HW310547   0.970   0.578   6.247  0.1730 -1.1249  0.0402
 2695SOL    MW410548   0.930   0.569   6.170 -0.1745 -0.2466  0.1061
 2696SOL     OW10549   5.262   4.751   4.392  0.8945 -0.4045  0.0986
 2696SOL    HW210550   5.287   4.790   4.308 -0.6256  1.6813  0.5184
 2696SOL    HW310551   5.215   4.671   4.368 -0.6238  0.7867 -1.1871
 2696SOL    MW410552   5.259   4.745   4.377  0.4936  0.0279 -0.0157
 2697SOL     OW10553   0.300   5.222   6.097 -0.3364  0.4500  0.0432
 2697SOL    HW210554   0.318   5.315   6.110  0.6487  0.0505  1.7451
 2697SOL    HW310555   0.348   5.178   6.166  0.2246 -1.4451 -1.4743
 2697SOL    MW410556   0.309   5.229   6.108 -0.1324  0.1473  0.0675
 2698SOL     OW10557   3.529   4.987   6.405  0.2851 -0.4900 -0.7160
 2698SOL    HW210558   3.569   4.927   6.342  0.6347 -1.6199  0.5248
 2698SOL    HW310559   3.601   5.039   6.438 -0.1589  1.3569 -2.4954
 2698SOL    MW410560   3.544   4.986   6.401  0.2727 -0.3954 -0.7871
 2699SOL     OW10561   4.954   3.651   4.528  0.3587 -0.0043  0.1526
 2699SOL    HW210562   4.955   3.746   4.532  0.4597  0.0611 -1.0448
 2699SOL    HW310563   4.966   3.631   4.435  1.0132 -1.1896  0.4719
 2699SOL    MW410564   4.956   3.661   4.517  0.4584 -0.1521  0.0367
 2700SOL     OW10565   5.348   3.208   5.539  0.0164  0.3780 -0.1069
 2700SOL    HW210566   5.284   3.137   5.532  0.7841 -0.2191 -1.3574
 2700SOL    HW310567   5.428   3.165   5.569  0.2132  0.9020  0.1370
 2700SOL    MW410568   5.350   3.193   5.542  0.1436  0.3684 -0.2397
 2701SOL     OW10569   2.817   0.104   6.019  0.3152 -0.8091  0.0813
 2701SOL    HW210570   2.772   0.020   6.005 -0.4676 -0.5490  0.9007
 2701SOL    HW310571   2.833   0.137   5.931 -1.1532 -0.9082 -0.2646
 2701SOL    MW410572   2.813   0.097   6.006  0.0182 -0.7878  0.1437
 2702SOL     OW10573   3.157   4.133   3.067  0.1212  0.3929  0.1670
 2702SOL    HW210574   3.151   4.106   3.159 -0.9771 -1.9740 -0.5225
 2702SOL    HW310575   3.230   4.082   3.032  0.9222  1.7306 -0.1638
 2702SOL    MW410576   3.166   4.123   3.075  0.0820  0.2571  0.0324
 2703SOL     OW10577   1.762   4.648   5.589 -0.2514  0.2828  0.0462
 2703SOL    HW210578   1.715   4.626   5.508 -1.9112 -0.7229  1.2321
 2703SOL    HW310579   1.724   4.591   5.655  2.4870 -0.4035  1.1820
 2703SOL    MW410580   1.751   4.637   5.587 -0.1091  0.0596  0.3525
 2704SOL     OW10581   6.103   0.574   3.039 -0.3513 -0.2634  0.1486
 2704SOL    HW210582   6.182   0.617   3.006 -0.6419 -0.3955 -0.7334
 2704SOL    HW310583   6.035   0.595   2.975 -0.5419 -1.8697 -0.2110
 2704SOL    MW410584   6.104   0.583   3.026 -0.4148 -0.4928 -0.0153
 2705SOL     OW10585   1.650   6.204   0.103  0.2030 -0.5977 -0.1503
 2705SOL    HW210586   1.705   6.282   0.101  0.6012 -0.7104  2.5561
 2705SOL    HW310587   1.636   6.182   0.011  1.5258  1.6224 -0.9611
 2705SOL    MW410588   1.655   6.211   0.090  0.4300 -0.3197  0.0998
 2706SOL     OW10589   2.830   6.376   3.673  0.3035 -1.1619 -0.5314
 2706SOL    HW210590   2.914   6.354   3.713 -1.0480 -1.8908  2.1453
 2706SOL    HW310591   2.777   6.297   3.683 -0.5973 -0.8720 -2.5808
 2706SOL    MW410592   2.834   6.363   3.680  0.0063 -1.2198 -0.4487
 2707SOL     OW10593   4.429   1.198   1.880 -0.0303  0.1955 -0.4061
 2707SOL    HW210594   4.362   1.252   1.838  0.0930  1.8690  1.3907
 2707SOL    HW310595   4.511   1.246   1.865  0.3868 -0.5003 -0.3940
 2707SOL    MW410596   4.431   1.211   1.872  0.0410  0.3245 -0.1674
 2708SOL     OW10597   4.199   0.578   0.956  0.2646  0.0862  0.3427
 2708SOL    HW210598   4.130   0.571   0.889 -0.2339 -0.0970  0.8671
 2708SOL    HW310599   4.220   0.671   0.958  1.5706 -0.1261 -1.3337
 2708SOL    MW410600   4.193   0.590   0.947  0.3711  0.0340  0.1907
 2709SOL     OW10601   5.220   2.586   2.933 -0.8156 -0.0966 -0.1689
 2709SOL    HW210602   5.213   2.555   2.843 -0.1663 -1.7140  0.2843
 2709SOL    HW310603   5.236   2.680   2.926  1.6404 -0.5533 -1.8479
 2709SOL    MW410604   5.221   2.594   2.920 -0.4059 -0.3703 -0.3306
 2710SOL     OW10605   3.884   6.280   6.033 -0.5599 -0.1750  0.2561
 2710SOL    HW210606   3.957   6.225   6.008  1.2700  1.5130  1.5853
 2710SOL    HW310607   3.921   6.344   6.093 -3.3156  0.2190  1.7215
 2710SOL    MW410608   3.898   6.281   6.038 -0.6821  0.0997  0.6248
 2711SOL     OW10609   5.717   4.275   0.716 -0.4648  0.1602 -0.4178
 2711SOL    HW210610   5.677   4.315   0.794  0.5338  1.0627 -0.3470
 2711SOL    HW310611   5.753   4.349   0.667  0.0490 -0.5240 -1.0973
 2711SOL    MW410612   5.716   4.290   0.720 -0.2652  0.1890 -0.4981
 2712SOL     OW10613   1.126   2.018   4.319 -0.6505  0.3635  0.7281
 2712SOL    HW210614   1.071   2.086   4.280 -0.0212  0.4625 -0.0133
 2712SOL    HW310615   1.116   2.029   4.413  0.5429  2.4072  0.6663
 2712SOL    MW410616   1.117   2.028   4.326 -0.4100  0.6462  0.6221
 2713SOL     OW10617   1.536   2.508   2.048 -0.2081 -0.4387 -0.1463
 2713SOL    HW210618   1.568   2.589   2.088  0.5598 -0.8465  0.0935
 2713SOL    HW310619   1.442   2.508   2.065  0.0787 -0.5766  1.6407
 2713SOL    MW410620   1.528   2.518   2.056 -0.0689 -0.5107  0.1211
 2714SOL     OW10621   1.660   2.742   1.672  0.0906  0.3160 -0.1360
 2714SOL    HW210622   1.581   2.779   1.632  1.3608  1.3542 -1.8303
 2714SOL    HW310623   1.668   2.787   1.756 -3.1331 -2.5556  1.9683
 2714SOL    MW410624   1.651   2.753   1.678 -0.1671  0.0741 -0.0819
 2715SOL     OW10625   4.781   1.362   2.647 -0.1358 -0.1613 -0.2138
 2715SOL    HW210626   4.847   1.392   2.710 -0.7960  0.9274 -0.0134
 2715SOL    HW310627   4.705   1.418   2.663 -1.4087 -1.9203  0.0981
 2715SOL    MW410628   4.780   1.373   2.657 -0.3908 -0.2498 -0.1462
 2716SOL     OW10629   2.924   4.157   1.227 -0.3866 -0.6566 -0.0096
 2716SOL    HW210630   3.012   4.126   1.209  0.4413 -0.4283  3.0260
 2716SOL    HW310631   2.866   4.093   1.185  1.2493 -2.8443  0.8983
 2716SOL    MW410632   2.928   4.145   1.219 -0.0615 -0.9151  0.5107
 2717SOL     OW10633   0.066   4.448   0.263  0.3437  0.0379 -0.3264
 2717SOL    HW210634   0.121   4.503   0.318 -0.0897  0.9571 -0.7896
 2717SOL    HW310635   0.126   4.386   0.222  0.5805 -1.2519  1.8033
 2717SOL    MW410636   0.081   4.447   0.265  0.3177 -0.0110 -0.1065
 2718SOL     OW10637   0.743   2.650   0.438  0.6408  0.3166  0.4017
 2718SOL    HW210638   0.836   2.632   0.452  1.0843  1.6409 -0.6109
 2718SOL    HW310639   0.742   2.737   0.397 -1.0259  0.1484  0.0373
 2718SOL    MW410640   0.755   2.659   0.435  0.4794  0.4691  0.2201
 2719SOL     OW10641   2.261   1.031   0.507 -0.0911  0.0984 -0.0127
 2719SOL    HW210642   2.200   1.024   0.580 -1.0076  0.8304 -0.6752
 2719SOL    HW310643   2.348   1.031   0.548 -0.6116  1.8027  1.2149
 2719SOL    MW410644   2.264   1.030   0.522 -0.2807  0.4198  0.0619
 2720SOL     OW10645   3.972   0.887   3.635 -0.4269  0.3466 -0.1880
 2720SOL    HW210646   3.941   0.977   3.648 -0.2741  0.2220  1.1867
 2720SOL    HW310647   4.019   0.866   3.715  0.2765 -0.6765 -0.8472
 2720SOL    MW410648   3.974   0.896   3.647 -0.3139  0.1952 -0.0936
 2721SOL     OW10649   0.388   2.558   3.725  0.2160  0.3580  0.3842
 2721SOL    HW210650   0.417   2.649   3.735  0.6837  0.4101 -1.1670
 2721SOL    HW310651   0.448   2.521   3.661 -0.4237 -0.8456  0.4540
 2721SOL    MW410652   0.400   2.565   3.718  0.1933  0.2060  0.1887
 2722SOL     OW10653   0.077   0.734   5.599 -0.8126 -0.0619 -0.5014
 2722SOL    HW210654   0.033   0.776   5.525 -0.7351  0.4755 -0.2473
 2722SOL    HW310655   0.157   0.784   5.612 -1.9788  1.4559  1.5094
 2722SOL    MW410656   0.082   0.746   5.591 -0.9562  0.2093 -0.2025
 2723SOL     OW10657   5.493   4.981   5.196 -0.3977  0.6580  0.8804
 2723SOL    HW210658   5.461   4.936   5.118  1.5712 -0.9401  0.9258
 2723SOL    HW310659   5.426   4.964   5.263 -0.2503 -1.3326  0.5826
 2723SOL    MW410660   5.480   4.973   5.195 -0.1185  0.1845  0.8471
 2724SOL     OW10661   4.653   6.037   0.446 -0.2452 -0.0352  0.1801
 2724SOL    HW210662   4.560   6.018   0.454 -0.0926 -1.7028 -1.2972
 2724SOL    HW310663   4.676   6.080   0.529 -2.7071  2.3690 -0.2243
 2724SOL    MW410664   4.644   6.040   0.458 -0.5499  0.0619 -0.0681
 2725SOL     OW10665   1.811   0.324   6.004 -0.1537  0.0582  0.1989
 2725SOL    HW210666   1.849   0.288   5.924 -2.0650 -0.4973 -0.5272
 2725SOL    HW310667   1.751   0.255   6.035  0.4254  0.3235  2.0493
 2725SOL    MW410668   1.808   0.310   5.998 -0.3294  0.0199  0.3473
 2726SOL     OW10669   1.129   2.191   2.542 -0.6097  0.9788 -0.0762
 2726SOL    HW210670   1.150   2.269   2.595 -1.0040  1.1043 -0.1054
 2726SOL    HW310671   1.037   2.173   2.561 -0.2659 -0.0653  0.6842
 2726SOL    MW410672   1.120   2.199   2.552 -0.6164  0.8576  0.0203
 2727SOL     OW10673   4.255   5.113   4.951  0.1455  0.2997 -0.0802
 2727SOL    HW210674   4.209   5.143   4.873  1.4949  2.1605 -0.2444
 2727SOL    HW310675   4.276   5.193   4.998  1.0656 -0.6537  1.2031
 2727SOL    MW410676   4.252   5.127   4.947  0.4450  0.4194  0.0674
 2728SOL     OW10677   4.825   0.525   2.645  0.4565  0.2695 -0.2030
 2728SOL    HW210678   4.890   0.586   2.609  0.8543  0.3389  0.6034
 2728SOL    HW310679   4.869   0.485   2.720 -0.0354 -0.5344 -0.3297
 2728SOL    MW410680   4.839   0.528   2.650  0.4441  0.1726 -0.1133
 2729SOL     OW10681   5.359   3.659   5.719  0.3929  0.3266 -0.7520
 2729SOL    HW210682   5.384   3.730   5.660  2.5401 -0.9057 -1.4128
 2729SOL    HW310683   5.399   3.683   5.803 -0.6042  0.8708 -0.4160
 2729SOL    MW410684   5.368   3.672   5.723  0.5447  0.2358 -0.7948
 2730SOL     OW10685   4.962   0.139   1.759 -0.1168 -0.6727  0.1856
 2730SOL    HW210686   4.873   0.170   1.740 -0.2531 -0.6234  0.8951
 2730SOL    HW310687   4.975   0.067   1.697  0.0987  0.5745 -1.2908
 2730SOL    MW410688   4.952   0.134   1.748 -0.1063 -0.5016  0.0844
 2731SOL     OW10689   6.087   2.915   1.773 -0.4512  0.2880  0.0002
 2731SOL    HW210690   6.136   2.996   1.783 -0.3056  0.3076 -0.7945
 2731SOL    HW310691   6.138   2.850   1.821  0.3546  0.3071 -0.8088
 2731SOL    MW410692   6.100   2.917   1.781 -0.3257  0.2931 -0.2114
 2732SOL     OW10693   3.861   2.823   0.784 -0.2923  0.5070  0.2562
 2732SOL    HW210694   3.799   2.785   0.722 -1.0927  0.8051  0.8566
 2732SOL    HW310695   3.839   2.916   0.786 -1.3130  0.2689  2.1238
 2732SOL    MW410696   3.850   2.830   0.776 -0.5326  0.5149  0.5818
 2733SOL     OW10697   3.833   1.415   5.879  0.6447 -0.0473 -0.2697
 2733SOL    HW210698   3.758   1.442   5.932  0.8396  1.2591 -0.6436
 2733SOL    HW310699   3.890   1.369   5.941  0.7129  1.1665  0.6021
 2733SOL    MW410700   3.831   1.412   5.895  0.6794  0.2852 -0.2040
 2734SOL     OW10701   0.024   6.026   5.719 -0.1831 -0.2846  0.0978
 2734SOL    HW210702   0.056   6.098   5.773  1.0535 -0.8139  0.1137
 2734SOL    HW310703   0.051   6.049   5.630  0.6282 -0.9258  0.1642
 2734SOL    MW410704   0.032   6.039   5.714  0.0871 -0.4390  0.1086
 2735SOL     OW10705   3.778   1.090   5.882 -0.4378  0.0758  0.2143
 2735SOL    HW210706   3.836   1.140   5.825 -0.3771  0.8023  0.8872
 2735SOL    HW310707   3.693   1.134   5.874 -0.2245  0.7423  1.3267
 2735SOL    MW410708   3.774   1.103   5.874 -0.4017  0.2596  0.4499
 2736SOL     OW10709   3.048   2.931   4.720  0.4062  0.4265 -0.3253
 2736SOL    HW210710   3.127   2.954   4.769 -0.9499 -0.6048  2.5486
 2736SOL    HW310711   2.991   3.007   4.728 -0.1066 -0.0165  0.3999
 2736SOL    MW410712   3.051   2.944   4.727  0.1597  0.2320  0.1496
 2737SOL     OW10713   3.425   4.190   3.382 -0.2284  0.2713 -0.4185
 2737SOL    HW210714   3.357   4.236   3.430 -0.1698 -1.3391  1.3564
 2737SOL    HW310715   3.507   4.217   3.424 -0.0239  0.0429 -0.6623
 2737SOL    MW410716   3.427   4.200   3.394 -0.1937  0.0287 -0.2165
 2738SOL     OW10717   2.934   1.916   2.668 -0.6650  0.2054 -0.1769
 2738SOL    HW210718   3.000   1.847   2.658 -0.2578  0.5550  0.0187
 2738SOL    HW310719   2.903   1.906   2.758  1.1938  1.7994  0.7192
 2738SOL    MW410720   2.939   1.906   2.679 -0.3660  0.4618 -0.0328
 2739SOL     OW10721   5.433   1.323   6.270 -0.0779 -0.3043 -0.2459
 2739SOL    HW210722   5.387   1.374   6.203  0.2276 -0.2278 -0.4000
 2739SOL    HW310723   5.404   1.360   6.353 -1.6071 -1.3567 -0.2632
 2739SOL    MW410724   5.423   1.334   6.272 -0.2394 -0.4331 -0.2685
 2740SOL     OW10725   2.132   5.736   0.211  0.6969  0.1788  0.3776
 2740SOL    HW210726   2.049   5.782   0.202  0.8500  0.4920  0.5295
 2740SOL    HW310727   2.150   5.739   0.305  0.1226 -1.2428  0.5507
 2740SOL    MW410728   2.124   5.743   0.222  0.6413  0.0326  0.4205
 2741SOL     OW10729   3.809   0.413   5.320  0.0727 -0.1418 -0.3289
 2741SOL    HW210730   3.714   0.414   5.302  0.2028 -1.4189 -1.2811
 2741SOL    HW310731   3.816   0.379   5.409 -0.4678  3.3999  1.2394
 2741SOL    MW410732   3.797   0.409   5.329  0.0185  0.1570 -0.2476
 2742SOL     OW10733   2.035   0.418   3.154  0.2507  0.1002  0.5597
 2742SOL    HW210734   2.125   0.417   3.120  0.1152 -1.1437  0.1607
 2742SOL    HW310735   2.021   0.508   3.182  0.5508  1.1470 -2.2750
 2742SOL    MW410736   2.045   0.429   3.153  0.2724  0.0742  0.1331
 2743SOL     OW10737   0.848   3.424   2.177 -0.2235  0.4348 -0.2858
 2743SOL    HW210738   0.935   3.398   2.147 -0.4172  1.0491 -1.4531
 2743SOL    HW310739   0.820   3.353   2.234  1.1765  0.3881  0.3903
 2743SOL    MW410740   0.856   3.411   2.180 -0.0643  0.5097 -0.3506
 2744SOL     OW10741   4.911   4.441   5.389  0.4210 -0.3387 -0.4142
 2744SOL    HW210742   4.856   4.371   5.423 -0.6877  1.2630  1.2798
 2744SOL    HW310743   4.864   4.521   5.411  3.0246  1.0946  0.3743
 2744SOL    MW410744   4.898   4.442   5.396  0.6182  0.0617 -0.0867
 2745SOL     OW10745   5.855   5.657   0.112  0.2685  0.1201  0.0006
 2745SOL    HW210746   5.769   5.681   0.148  0.9881  0.4654  1.5518
 2745SOL    HW310747   5.841   5.570   0.074 -0.4591 -0.4542  1.4791
 2745SOL    MW410748   5.841   5.649   0.112  0.2674  0.0899  0.4003
 2746SOL     OW10749   1.661   0.009   2.437  0.8293  0.0839 -0.0740
 2746SOL    HW210750   1.676   0.074   2.369  0.1505  1.1913  0.8064
 2746SOL    HW310751   1.727   0.027   2.503  0.7629 -0.2642  0.0931
 2746SOL    MW410752   1.672   0.020   2.437  0.7310  0.1841  0.0642
 2747SOL     OW10753   1.478   2.405   4.865 -0.3919  0.4880  0.3444
 2747SOL    HW210754   1.530   2.369   4.936 -1.3434  0.7083  1.1654
 2747SOL    HW310755   1.441   2.486   4.900  0.1492  1.2753 -0.8217
 2747SOL    MW410756   1.480   2.411   4.879 -0.4461  0.6210  0.2988
 2748SOL     OW10757   1.610   6.273   1.890 -0.0791  0.1142 -0.3809
 2748SOL    HW210758   1.616   6.178   1.882  1.9690  0.2751 -1.4375
 2748SOL    HW310759   1.574   6.288   1.977 -0.1324 -1.6153 -0.0722
 2748SOL    MW410760   1.606   6.263   1.900  0.1841 -0.0928 -0.4796
 2749SOL     OW10761   4.992   0.690   1.023  0.0609 -0.0560 -0.0856
 2749SOL    HW210762   4.971   0.783   1.025 -1.8148 -0.4480  2.0800
 2749SOL    HW310763   4.919   0.650   0.976  0.1910 -0.5797  0.1587
 2749SOL    MW410764   4.980   0.697   1.017 -0.1694 -0.1768  0.2323
 2750SOL     OW10765   0.810   4.006   0.872 -0.6356 -0.0969 -0.4978
 2750SOL    HW210766   0.813   4.004   0.968 -2.2454 -0.5417 -0.4299
 2750SOL    HW310767   0.759   4.084   0.851  2.2740  1.7906 -1.1483
 2750SOL    MW410768   0.804   4.016   0.882 -0.4641  0.0935 -0.5746
 2751SOL     OW10769   2.465   0.306   0.414 -0.0268  0.0121  0.6781
 2751SOL    HW210770   2.486   0.304   0.320  2.4797 -1.2408  1.1817
 2751SOL    HW310771   2.416   0.226   0.430  0.9757 -0.6209  0.6844
 2751SOL    MW410772   2.461   0.295   0.404  0.4362 -0.2367  0.7454
 2752SOL     OW10773   6.022   1.729   0.950 -0.1312 -0.3246 -0.0196
 2752SOL    HW210774   6.037   1.744   1.043 -0.2939  0.2252 -0.0788
 2752SOL    HW310775   5.964   1.800   0.923 -0.5181 -0.7925 -0.4232
 2752SOL    MW410776   6.017   1.741   0.958 -0.2037 -0.3138 -0.0807
 2753SOL     OW10777   4.386   5.221   3.589  0.0483 -0.0783  0.5699
 2753SOL    HW210778   4.454   5.155   3.602  1.0016  0.8615  0.4707
 2753SOL    HW310779   4.394   5.280   3.664 -1.6964 -0.7881  1.3937
 2753SOL    MW410780   4.396   5.220   3.601 -0.0561 -0.0480  0.6655
 2754SOL     OW10781   0.310   3.059   5.405 -0.0747 -0.4703  0.1428
 2754SOL    HW210782   0.220   3.083   5.383  0.1036  0.7194  0.6033
 2754SOL    HW310783   0.302   2.980   5.459 -0.7014 -1.4792 -1.3823
 2754SOL    MW410784   0.297   3.052   5.409 -0.1338 -0.4464  0.0023
 2755SOL     OW10785   6.238   3.659   0.350 -0.4065 -0.4889  0.5194
 2755SOL    HW210786   6.172   3.722   0.324 -1.7401 -1.5879  1.1150
 2755SOL    HW310787   6.257   3.680   0.442  0.7250  0.3446  0.1217
 2755SOL    MW410788   6.232   3.670   0.359 -0.4332 -0.5239  0.5455
 2756SOL     OW10789   5.169   3.205   3.411 -0.0609  0.4508 -0.0794
 2756SOL    HW210790   5.249   3.153   3.418 -1.0707 -1.4648 -1.6252
 2756SOL    HW310791   5.155   3.215   3.317 -2.3780 -0.5643  0.0878
 2756SOL    MW410792   5.177   3.200   3.399 -0.4998  0.0641 -0.2613
 2757SOL     OW10793   1.655   1.754   4.848 -0.4688 -0.1429 -0.0264
 2757SOL    HW210794   1.615   1.837   4.823 -2.0187 -0.7181  0.4011
 2757SOL    HW310795   1.634   1.744   4.941 -1.1830 -1.4534 -0.2905
 2757SOL    MW410796   1.647   1.763   4.857 -0.7675 -0.3917 -0.0048
 2758SOL     OW10797   6.156   3.307   4.724  0.2489  0.2530 -0.0990
 2758SOL    HW210798   6.240   3.354   4.725  1.3810 -1.6372  0.2381
 2758SOL    HW310799   6.172   3.231   4.780 -1.6856 -0.1976 -0.1172
 2758SOL    MW410800   6.169   3.303   4.731  0.1430 -0.0558 -0.0569
 2759SOL     OW10801   0.811   3.974   1.146 -0.1531  0.0386  0.0829
 2759SOL    HW210802   0.788   4.062   1.175 -2.0299 -0.4673  0.2451
 2759SOL    HW310803   0.900   3.960   1.179 -0.8944  0.7874  2.5887
 2759SOL    MW410804   0.820   3.984   1.154 -0.4985  0.0707  0.4349
 2760SOL     OW10805   2.933   0.872   0.108  0.0393  0.7121 -0.0743
 2760SOL    HW210806   2.935   0.790   0.158  0.0481 -0.5457 -2.0325
 2760SOL    HW310807   3.020   0.910   0.122  0.3008  0.0101  0.2468
 2760SOL    MW410808   2.945   0.866   0.116  0.0749  0.4535 -0.2903
 2761SOL     OW10809   3.737   0.412   0.222 -0.9677  0.1180  0.3615
 2761SOL    HW210810   3.788   0.457   0.154 -1.9355  1.4270  0.4705
 2761SOL    HW310811   3.695   0.482   0.271 -3.3015 -0.9142 -0.0360
 2761SOL    MW410812   3.738   0.427   0.220 -1.4033  0.1545  0.3234
 2762SOL     OW10813   0.182   6.332   2.064 -0.1700 -0.7894  0.1761
 2762SOL    HW210814   0.184   6.281   1.983 -2.1940 -0.4891 -0.1051
 2762SOL    HW310815   0.170   6.422   2.034 -0.4096 -0.6190  0.7857
 2762SOL    MW410816   0.181   6.337   2.049 -0.4686 -0.7273  0.2194
 2763SOL     OW10817   0.342   4.438   5.772  0.5016  0.1973  0.1911
 2763SOL    HW210818   0.385   4.397   5.847  2.2080  0.4904 -0.5656
 2763SOL    HW310819   0.409   4.495   5.735 -0.1382 -0.2724 -1.8024
 2763SOL    MW410820   0.356   4.440   5.777  0.6423  0.1740 -0.1717
 2764SOL     OW10821   2.139   4.812   2.683 -0.2772  0.0015 -0.8260
 2764SOL    HW210822   2.229   4.795   2.657 -0.9075 -0.7131 -2.6745
 2764SOL    HW310823   2.099   4.725   2.691 -1.7569  0.2721 -3.8017
 2764SOL    MW410824   2.146   4.798   2.681 -0.5556 -0.0571 -1.4625
 2765SOL     OW10825   3.471   4.769   5.996  0.1455 -0.1151  0.1305
 2765SOL    HW210826   3.525   4.766   5.917 -0.3123 -1.5107 -0.1428
 2765SOL    HW310827   3.467   4.862   6.018  2.8321  0.0455  0.2870
 2765SOL    MW410828   3.478   4.781   5.989  0.4395 -0.2780  0.1151
 2766SOL     OW10829   5.720   3.138   3.121  0.1189  0.1015 -0.1247
 2766SOL    HW210830   5.727   3.205   3.189  1.9520 -0.5067  0.3441
 2766SOL    HW310831   5.809   3.104   3.112 -0.4559 -1.1317 -1.5212
 2766SOL    MW410832   5.733   3.143   3.128  0.2849 -0.1415 -0.2471
 2767SOL     OW10833   2.281   0.093   2.537  0.2956  0.2684 -0.1954
 2767SOL    HW210834   2.277   0.007   2.578 -0.3810  0.6357  0.5314
 2767SOL    HW310835   2.366   0.129   2.563  0.1815  0.2007  0.2639
 2767SOL    MW410836   2.292   0.087   2.546  0.1913  0.3079 -0.0389
 2768SOL     OW10837   0.737   2.613   2.996 -0.4204  0.6145 -0.0249
 2768SOL    HW210838   0.697   2.567   2.922 -1.4487  0.8499  0.3730
 2768SOL    HW310839   0.705   2.566   3.073  0.3311  0.6169  0.2986
 2768SOL    MW410840   0.728   2.601   2.996 -0.4569  0.6459  0.0703
 2769SOL     OW10841   2.536   4.191   2.192  0.1347  0.3119  0.1256
 2769SOL    HW210842   2.556   4.102   2.219  1.0827 -0.1395 -1.8757
 2769SOL    HW310843   2.621   4.235   2.191  0.0459  0.5128 -1.2207
 2769SOL    MW410844   2.550   4.185   2.195  0.2481  0.2789 -0.3161
 2770SOL     OW10845   2.551   0.463   2.663  0.6453  0.3348 -0.6317
 2770SOL    HW210846   2.599   0.389   2.625  2.0291 -0.5687  2.4771
 2770SOL    HW310847   2.609   0.538   2.652  1.5345 -0.1484  0.5634
 2770SOL    MW410848   2.565   0.463   2.657  0.9452  0.1518 -0.0638
 2771SOL     OW10849   6.117   0.741   3.906  0.1471 -0.3478 -0.2666
 2771SOL    HW210850   6.063   0.817   3.930  0.8401  0.1365 -0.2148
 2771SOL    HW310851   6.206   0.767   3.929  0.2516 -1.6919  1.0427
 2771SOL    MW410852   6.122   0.754   3.912  0.2523 -0.4612 -0.0870
 2772SOL     OW10853   1.234   4.207   6.401  0.4202  0.3039  0.1653
 2772SOL    HW210854   1.178   4.148   6.351 -0.3148 -0.5287  1.9093
 2772SOL    HW310855   1.308   4.153   6.428  1.2934  0.9920 -0.7596
 2772SOL    MW410856   1.237   4.192   6.398  0.4384  0.2849  0.2734
 2773SOL     OW10857   1.127   6.282   0.176 -0.2109 -0.5874 -0.0266
 2773SOL    HW210858   1.093   6.291   0.265 -0.9964 -1.9386 -0.1745
 2773SOL    HW310859   1.119   6.370   0.138 -2.4678 -0.5790  0.3417
 2773SOL    MW410860   1.122   6.295   0.182 -0.6123 -0.7646  0.0025
 2774SOL     OW10861   4.186   3.029   3.196 -0.1974 -0.1959 -0.2160
 2774SOL    HW210862   4.167   2.991   3.281  0.5592  1.2892  0.6717
 2774SOL    HW310863   4.226   3.114   3.216  2.6770 -0.9878 -1.9817
 2774SOL    MW410864   4.189   3.035   3.209  0.2817 -0.1044 -0.3319
 2775SOL     OW10865   5.339   2.436   3.352  0.2268  0.1865  0.5907
 2775SOL    HW210866   5.338   2.379   3.275  0.5018  1.6299 -0.5248
 2775SOL    HW310867   5.376   2.519   3.320  2.5844  0.1151  2.7905
 2775SOL    MW410868   5.344   2.439   3.337  0.5741  0.3675  0.7337
 2776SOL     OW10869   2.675   3.297   4.986 -0.2966  0.0466 -0.6390
 2776SOL    HW210870   2.591   3.269   4.949 -0.0473 -0.2160 -1.0052
 2776SOL    HW310871   2.740   3.271   4.921  0.0938  0.0548 -0.2556
 2776SOL    MW410872   2.672   3.290   4.973 -0.2122  0.0130 -0.6367
 2777SOL     OW10873   0.489   2.757   1.515 -0.2440 -0.0003  0.5384
 2777SOL    HW210874   0.423   2.693   1.490 -0.4278  1.0115 -1.7387
 2777SOL    HW310875   0.572   2.715   1.494 -0.3044 -0.0155  0.3286
 2777SOL    MW410876   0.491   2.743   1.509 -0.2762  0.1312  0.2103
 2778SOL     OW10877   3.853   1.008   3.918  0.3581 -0.4782 -0.3481
 2778SOL    HW210878   3.927   1.054   3.958  0.0784  1.7911 -2.2242
 2778SOL    HW310879   3.776   1.044   3.961  0.2204 -0.6580 -0.4430
 2778SOL    MW410880   3.853   1.019   3.929  0.3030 -0.2025 -0.6081
 2779SOL     OW10881   3.186   1.412   0.683 -0.1413  0.3979  0.5294
 2779SOL    HW210882   3.136   1.425   0.764 -0.4569  0.5527  0.3123
 2779SOL    HW310883   3.229   1.496   0.667 -1.7828  1.0674 -0.6050
 2779SOL    MW410884   3.185   1.425   0.692 -0.3995  0.5066  0.3511
 2780SOL     OW10885   5.077   0.721   5.411  0.4017  0.1826 -0.4551
 2780SOL    HW210886   5.057   0.627   5.405  0.4189 -0.0290  1.9201
 2780SOL    HW310887   5.148   0.726   5.474 -0.1569  1.8561  0.0967
 2780SOL    MW410888   5.084   0.709   5.419  0.3303  0.3755 -0.0689
 2781SOL     OW10889   5.291   5.985   2.206 -0.2858  0.0852  0.5088
 2781SOL    HW210890   5.284   5.922   2.278 -0.5675 -1.4074 -0.7602
 2781SOL    HW310891   5.325   5.934   2.133  2.3003  2.0879  0.1787
 2781SOL    MW410892   5.295   5.970   2.206  0.0182  0.1525  0.2978
 2782SOL     OW10893   1.208   4.181   3.783  0.4661  0.1309  0.0913
 2782SOL    HW210894   1.132   4.195   3.727  0.4651 -1.5101 -0.3799
 2782SOL    HW310895   1.263   4.258   3.769  0.2408 -0.0007 -1.8249
 2782SOL    MW410896   1.205   4.193   3.773  0.4362 -0.1030 -0.2237
 2783SOL     OW10897   3.916   0.912   6.277  0.5309  1.0434  0.0275
 2783SOL    HW210898   3.880   0.908   6.366  2.2012  0.1461  0.7119
 2783SOL    HW310899   3.839   0.910   6.220 -0.5500 -1.5635  1.3762
 2783SOL    MW410900   3.901   0.911   6.282  0.6087  0.5810  0.2957
 2784SOL     OW10901   5.813   1.729   4.178  0.5076  0.8300  0.5721
 2784SOL    HW210902   5.849   1.762   4.261  0.8878 -0.5202  0.9731
 2784SOL    HW310903   5.728   1.693   4.201  0.7610  0.1366  0.4584
 2784SOL    MW410904   5.807   1.729   4.192  0.5912  0.5603  0.6100
 2785SOL     OW10905   5.806   2.600   4.237  0.1606  0.1594 -0.8221
 2785SOL    HW210906   5.739   2.561   4.293  0.3159  0.5493 -0.3644
 2785SOL    HW310907   5.769   2.596   4.148  0.1722 -1.0266 -0.7873
 2785SOL    MW410908   5.792   2.594   4.232  0.1826  0.0544 -0.7571
 2786SOL     OW10909   2.825   4.846   0.387 -0.0786  0.3250 -0.0878
 2786SOL    HW210910   2.789   4.820   0.302 -0.1027 -2.1312  0.6187
 2786SOL    HW310911   2.751   4.885   0.433 -0.9193 -1.2294 -0.0582
 2786SOL    MW410912   2.810   4.848   0.381 -0.1927 -0.2041  0.0093
 2787SOL     OW10913   6.182   0.339   2.888  0.2497 -0.0664 -0.4259
 2787SOL    HW210914   6.155   0.404   2.953  0.7189  0.4715 -0.7606
 2787SOL    HW310915   6.134   0.363   2.809 -0.0855 -0.5357 -0.3712
 2787SOL    MW410916   6.172   0.351   2.886  0.2674 -0.0573 -0.4628
 2788SOL     OW10917   1.435   1.502   1.844  0.1077 -0.0316  0.5720
 2788SOL    HW210918   1.406   1.573   1.786  2.7043  0.7273  0.0722
 2788SOL    HW310919   1.517   1.534   1.882 -0.2746 -1.5210  2.8248
 2788SOL    MW410920   1.442   1.516   1.841  0.3999 -0.1280  0.8033
 2789SOL     OW10921   0.978   5.204   0.111  0.5789 -0.0745 -0.9722
 2789SOL    HW210922   1.056   5.193   0.165 -1.2238 -1.4445  1.5764
 2789SOL    HW310923   0.976   5.126   0.055  0.8275 -0.2391 -0.7529
 2789SOL    MW410924   0.988   5.192   0.111  0.3738 -0.2770 -0.6070
 2790SOL     OW10925   4.731   2.275   5.931 -0.5373  0.1551 -0.0635
 2790SOL    HW210926   4.645   2.234   5.937 -1.0953  1.3147  0.3220
 2790SOL    HW310927   4.789   2.218   5.982 -1.4494  0.2613  1.1325
 2790SOL    MW410928   4.727   2.262   5.939 -0.7312  0.3221  0.1451
 2791SOL     OW10929   2.417   4.918   4.339 -0.2353  0.5120 -0.8200
 2791SOL    HW210930   2.473   4.852   4.378 -0.1738  1.5766  0.9846
 2791SOL    HW310931   2.332   4.906   4.381 -1.0404 -0.2193 -2.5599
 2791SOL    MW410932   2.413   4.908   4.349 -0.3334  0.5560 -0.8114
 2792SOL     OW10933   5.900   6.027   4.279 -0.0676 -0.3657  0.2899
 2792SOL    HW210934   5.995   6.031   4.290  0.2330 -1.0995 -1.6506
 2792SOL    HW310935   5.877   5.936   4.297 -0.4089 -0.2098  0.6742
 2792SOL    MW410936   5.909   6.015   4.283 -0.0729 -0.4420  0.0846
 2793SOL     OW10937   1.273   2.089   5.438 -0.4590 -0.0568 -0.2593
 2793SOL    HW210938   1.368   2.090   5.426 -0.6480 -0.4938 -2.0293
 2793SOL    HW310939   1.259   2.037   5.518  0.7121 -1.2909 -0.8287
 2793SOL    MW410940   1.284   2.082   5.447 -0.3294 -0.2773 -0.5680
 2794SOL     OW10941   3.818   2.728   5.489  0.0349 -0.2982 -0.2229
 2794SOL    HW210942   3.726   2.757   5.489 -0.4875 -1.8051 -1.2651
 2794SOL    HW310943   3.812   2.633   5.487  1.6499 -0.4200 -0.0285
 2794SOL    MW410944   3.805   2.719   5.489  0.1791 -0.5131 -0.3347
 2795SOL     OW10945   1.035   2.949   1.823 -0.2653  0.3271 -0.2908
 2795SOL    HW210946   1.112   2.898   1.797 -0.6573 -0.3335 -0.1800
 2795SOL    HW310947   0.987   2.964   1.742  1.4636  3.3637 -0.9099
 2795SOL    MW410948   1.039   2.944   1.809 -0.0889  0.6406 -0.3579
 2796SOL     OW10949   3.857   3.629   2.632 -0.2165  0.0446 -0.0164
 2796SOL    HW210950   3.937   3.594   2.593  0.9244  0.7280  1.5785
 2796SOL    HW310951   3.832   3.702   2.575 -1.0844 -1.5848 -1.8372
 2796SOL    MW410952   3.865   3.634   2.619 -0.1805 -0.0802 -0.0462
 2797SOL     OW10953   1.924   0.850   2.424  0.1322 -0.9762 -0.2994
 2797SOL    HW210954   1.849   0.796   2.398 -1.0988  0.9050 -0.8502
 2797SOL    HW310955   1.891   0.901   2.498  0.6245  0.3978 -1.0124
 2797SOL    MW410956   1.910   0.849   2.431  0.0347 -0.5468 -0.4661
 2798SOL     OW10957   0.857   5.643   2.066 -0.3207 -0.1141 -0.2230
 2798SOL    HW210958   0.923   5.683   2.124  0.2117 -0.3022 -0.6842
 2798SOL    HW310959   0.774   5.657   2.111  0.0820 -0.2950  0.6182
 2798SOL    MW410960   0.855   5.650   2.080 -0.1973 -0.1628 -0.1729
 2799SOL     OW10961   5.028   2.085   4.284  0.5171 -0.0115 -0.2710
 2799SOL    HW210962   5.017   2.044   4.370  2.0225 -1.6364 -0.7810
 2799SOL    HW310963   5.003   2.016   4.222 -0.0502  0.9601 -1.1479
 2799SOL    MW410964   5.023   2.070   4.287  0.6409 -0.0977 -0.4540
 2800SOL     OW10965   5.570   2.456   5.385 -0.2603  0.4746  0.0288
 2800SOL    HW210966   5.662   2.454   5.410 -0.5861  0.3981  1.2954
 2800SOL    HW310967   5.570   2.439   5.291  0.8826 -1.5156  0.3478
 2800SOL    MW410968   5.582   2.454   5.376 -0.1525  0.2019  0.2380
 2801SOL     OW10969   5.226   0.670   2.591  1.1951  0.1587  0.1055
 2801SOL    HW210970   5.222   0.643   2.683  1.2206  1.0743  0.3933
 2801SOL    HW310971   5.290   0.741   2.590 -0.7345  2.0333 -0.0786
 2801SOL    MW410972   5.234   0.676   2.603  0.9439  0.5269  0.1191
 2802SOL     OW10973   2.704   1.738   4.588 -0.0006 -0.1643  0.3602
 2802SOL    HW210974   2.613   1.718   4.612  0.1669 -1.5320 -0.0249
 2802SOL    HW310975   2.754   1.715   4.667  0.0248  0.4661  0.5278
 2802SOL    MW410976   2.699   1.732   4.602  0.0248 -0.2616  0.3315
 2803SOL     OW10977   6.116   5.761   1.719  0.1111  0.0895  0.0370
 2803SOL    HW210978   6.038   5.709   1.737  0.8258 -0.7057  0.9219
 2803SOL    HW310979   6.184   5.722   1.773  0.8090  1.6189  0.3097
 2803SOL    MW410980   6.114   5.749   1.729  0.2975  0.1863  0.1897
 2804SOL     OW10981   6.409   0.841   6.180 -0.0752 -0.0192  0.0720
 2804SOL    HW210982   6.376   0.931   6.179 -0.2017 -0.0439  0.9055
 2804SOL    HW310983   6.331   0.788   6.162 -0.1439  0.0067  0.2885
 2804SOL    MW410984   6.394   0.846   6.178 -0.1009 -0.0191  0.2105
 2805SOL     OW10985   0.966   2.040   3.210 -0.2131 -0.1256  0.0408
 2805SOL    HW210986   0.928   1.987   3.280 -1.6925  0.8276 -0.0035
 2805SOL    HW310987   1.000   1.977   3.147  0.7001 -0.9975  1.3612
 2805SOL    MW410988   0.966   2.025   3.211 -0.2878 -0.1149  0.2092
 2806SOL     OW10989   4.721   1.456   1.282  0.3746  0.1784 -0.4169
 2806SOL    HW210990   4.681   1.397   1.219 -0.8141  0.7856 -0.2458
 2806SOL    HW310991   4.729   1.404   1.362 -0.2028  0.0990 -0.4116
 2806SOL    MW410992   4.717   1.441   1.284  0.1416  0.2480 -0.3936
 2807SOL     OW10993   2.311   4.054   2.519 -0.0387 -0.2047  0.1790
 2807SOL    HW210994   2.405   4.070   2.527  0.2213 -0.0854 -2.3741
 2807SOL    HW310995   2.271   4.141   2.522  0.0344 -0.1755  0.2954
 2807SOL    MW410996   2.318   4.068   2.520  0.0052 -0.1851 -0.1425
 2808SOL     OW10997   5.800   0.085   2.094  0.5700 -0.2640  0.7687
 2808SOL    HW210998   5.840   0.172   2.095 -3.5580  1.9383 -0.3821
 2808SOL    HW310999   5.812   0.054   2.004  0.9243 -0.2892  0.8245
 2808SOL    MW411000   5.807   0.092   2.082  0.0721  0.0232  0.6242
 2809SOL     OW11001   1.889   3.265   0.386 -0.0466  0.5788  0.3517
 2809SOL    HW211002   1.937   3.279   0.304 -0.0369 -0.1990  0.2158
 2809SOL    HW311003   1.840   3.346   0.399 -1.1457  0.2161 -1.1573
 2809SOL    MW411004   1.889   3.277   0.377 -0.1904  0.4283  0.1347
 2810SOL     OW11005   4.133   2.195   6.044  0.2558  0.2623  0.0493
 2810SOL    HW211006   4.156   2.284   6.015 -2.1010  1.6488  2.0394
 2810SOL    HW311007   4.119   2.147   5.962 -0.9854  2.4892 -1.1586
 2810SOL    MW411008   4.134   2.201   6.029 -0.2189  0.7390  0.1525
 2811SOL     OW11009   2.361   0.046   2.263  0.1741  0.0167  0.7187
 2811SOL    HW211010   2.396   0.134   2.249 -0.2111  0.3566  1.8208
 2811SOL    HW311011   2.300   0.056   2.336 -2.2595 -0.5465 -1.1298
 2811SOL    MW411012   2.358   0.059   2.271 -0.1978 -0.0128  0.6202
 2812SOL     OW11013   1.189   1.364   2.979 -0.0910 -0.3444  0.1446
 2812SOL    HW211014   1.212   1.394   2.891 -0.6545  1.6399  0.6086
 2812SOL    HW311015   1.184   1.445   3.030 -3.2771 -1.0712  1.1668
 2812SOL    MW411016   1.191   1.379   2.974 -0.5857 -0.1785  0.3407
 2813SOL     OW11017   1.594   1.504   5.901  0.2029  0.3258  0.0314
 2813SOL    HW211018   1.648   1.582   5.911  0.1772  0.6272 -1.7259
 2813SOL    HW311019   1.631   1.460   5.823 -1.7997  0.3335 -0.9882
 2813SOL    MW411020   1.606   1.508   5.892 -0.0647  0.3666 -0.3350
 2814SOL     OW11021   5.791   5.594   0.594  0.0636 -0.3526 -0.9375
 2814SOL    HW211022   5.709   5.642   0.589  0.3580  0.2716 -0.0198
 2814SOL    HW311023   5.835   5.614   0.511 -0.9336 -1.1480 -1.6822
 2814SOL    MW411024   5.786   5.603   0.582 -0.0292 -0.3752 -0.9147
 2815SOL     OW11025   1.168   0.411   5.139  0.2320  0.1439  0.4340
 2815SOL    HW211026   1.155   0.416   5.234 -0.7698  0.0740  0.3072
 2815SOL    HW311027   1.226   0.484   5.119  2.2360 -1.1002  1.3926
 2815SOL    MW411028   1.174   0.421   5.149  0.3642 -0.0295  0.5437
 2816SOL     OW11029   5.764   0.357   0.523 -0.0168  0.0788  0.0200
 2816SOL    HW211030   5.787   0.450   0.522  1.7485 -0.1536  3.5468
 2816SOL    HW311031   5.846   0.312   0.504 -0.0874 -0.7325  1.4988
 2816SOL    MW411032   5.778   0.363   0.520  0.2068 -0.0589  0.6804
 2817SOL     OW11033   3.100   0.952   0.502  0.8557  0.6839  0.0754
 2817SOL    HW211034   3.068   0.866   0.526 -1.0112  1.6671  1.3737
 2817SOL    HW311035   3.182   0.962   0.551  0.9984 -0.2679  0.0385
 2817SOL    MW411036   3.107   0.942   0.511  0.6282  0.6880  0.2418
 2818SOL     OW11037   0.633   0.224   4.429  0.4541 -0.3485 -0.1231
 2818SOL    HW211038   0.620   0.152   4.367  1.0617 -0.0782 -0.5728
 2818SOL    HW311039   0.697   0.190   4.492 -1.3598 -1.2283  1.3655
 2818SOL    MW411040   0.639   0.210   4.429  0.2949 -0.4289  0.0140
 2819SOL     OW11041   2.909   4.047   2.201  0.6418  0.6798  0.0369
 2819SOL    HW211042   2.984   4.053   2.260 -0.0812  0.3472  1.0169
 2819SOL    HW311043   2.857   4.126   2.220 -0.2255 -0.0447  0.7576
 2819SOL    MW411044   2.912   4.059   2.211  0.4319  0.5403  0.2613
 2820SOL     OW11045   5.689   0.330   5.985  0.3051 -0.6826 -0.4281
 2820SOL    HW211046   5.758   0.271   5.954  0.0647 -1.3617  0.2686
 2820SOL    HW311047   5.719   0.418   5.961  1.7340 -0.9066  0.4290
 2820SOL    MW411048   5.702   0.334   5.978  0.4619 -0.8018 -0.2231
 2821SOL     OW11049   3.536   5.500   5.058 -0.2424 -0.1479 -0.4295
 2821SOL    HW211050   3.476   5.559   5.014  0.7323  1.2547  0.0453
 2821SOL    HW311051   3.553   5.431   4.994 -1.0995  0.2939 -1.1511
 2821SOL    MW411052   3.531   5.499   5.044 -0.2269  0.0955 -0.4620
 2822SOL     OW11053   1.849   3.935   5.738 -0.5554  0.2340 -0.2530
 2822SOL    HW211054   1.902   3.856   5.728  0.1163  0.3967  1.5477
 2822SOL    HW311055   1.913   4.003   5.761 -1.2512  1.0680 -0.7256
 2822SOL    MW411056   1.865   3.934   5.740 -0.5586  0.3655 -0.0777
 2823SOL     OW11057   1.727   0.463   5.363  0.5894 -0.0023 -0.2704
 2823SOL    HW211058   1.647   0.412   5.355  1.8300 -2.0551 -0.2207
 2823SOL    HW311059   1.729   0.492   5.454 -0.9100  1.5736 -0.6914
 2823SOL    MW411060   1.717   0.460   5.374  0.5553 -0.0652 -0.3194
 2824SOL     OW11061   3.753   3.420   4.224 -0.2410 -0.3507 -0.2581
 2824SOL    HW211062   3.794   3.490   4.173 -1.4210  2.1236  1.9353
 2824SOL    HW311063   3.668   3.407   4.182  0.2468 -0.9938 -1.0754
 2824SOL    MW411064   3.747   3.428   4.212 -0.3324 -0.1091 -0.0766
 2825SOL     OW11065   0.611   1.926   1.734 -0.1238  0.0475  0.6269
 2825SOL    HW211066   0.541   1.976   1.776  0.3658  0.2477  1.2179
 2825SOL    HW311067   0.655   1.880   1.806  0.3689 -0.0570  0.2673
 2825SOL    MW411068   0.608   1.926   1.749  0.0058  0.0601  0.6575
 2826SOL     OW11069   0.496   4.409   6.310 -0.2251  0.1857 -0.0116
 2826SOL    HW211070   0.413   4.455   6.320  0.7451  1.8422  0.7148
 2826SOL    HW311071   0.525   4.431   6.221  0.3205  1.1730  0.3942
 2826SOL    MW411072   0.489   4.418   6.299 -0.0251  0.5345  0.1378
 2827SOL     OW11073   3.236   4.670   5.672  0.0837 -0.3495  0.1842
 2827SOL    HW211074   3.151   4.638   5.641  0.3268  0.9037 -2.0737
 2827SOL    HW311075   3.220   4.762   5.694  0.3669 -0.7269  2.0780
 2827SOL    MW411076   3.223   4.678   5.671  0.1531 -0.2339  0.1362
 2828SOL     OW11077   1.288   2.687   1.320 -0.4775  0.2321 -0.2358
 2828SOL    HW211078   1.227   2.712   1.250 -0.4181 -1.0006 -0.7558
 2828SOL    HW311079   1.374   2.713   1.287 -0.3224 -1.3049 -1.1270
 2828SOL    MW411080   1.291   2.694   1.306 -0.4492 -0.1333 -0.4220
 2829SOL     OW11081   3.494   0.565   2.725 -0.1802  0.2404  0.3654
 2829SOL    HW211082   3.402   0.547   2.744 -1.0367  1.3127 -2.3741
 2829SOL    HW311083   3.534   0.478   2.718 -1.4288 -0.3085 -0.3539
 2829SOL    MW411084   3.487   0.551   2.727 -0.4579  0.3094 -0.0909
 2830SOL     OW11085   4.561   5.556   0.329  0.2904  0.0730 -0.2019
 2830SOL    HW211086   4.516   5.607   0.397 -0.9896 -0.7175 -0.4382
 2830SOL    HW311087   4.620   5.619   0.288 -0.7191  1.1991  0.0117
 2830SOL    MW411088   4.563   5.571   0.332 -0.0117  0.1172 -0.2049
 2831SOL     OW11089   3.379   5.617   1.833 -0.2705  0.2458  0.3571
 2831SOL    HW211090   3.471   5.600   1.856 -0.4832  1.6612  2.5423
 2831SOL    HW311091   3.382   5.695   1.778 -0.2124  0.6560  0.9432
 2831SOL    MW411092   3.392   5.625   1.829 -0.2909  0.4867  0.7228
 2832SOL     OW11093   2.326   0.524   1.354 -0.5544  0.6166 -0.1850
 2832SOL    HW211094   2.319   0.524   1.259  0.7411  2.2455 -0.3391
 2832SOL    HW311095   2.342   0.433   1.378 -0.2596  0.2836 -1.5801
 2832SOL    MW411096   2.327   0.512   1.345 -0.3445  0.7876 -0.3894
 2833SOL     OW11097   6.190   6.095   3.169 -0.3233  0.1740 -0.0887
 2833SOL    HW211098   6.158   6.008   3.146  0.0438 -0.9362  3.0873
 2833SOL    HW311099   6.279   6.080   3.202 -0.7524  1.4950  1.8421
 2833SOL    MW411100   6.197   6.082   3.171 -0.3315  0.2019  0.5851
 2834SOL     OW11101   0.256   5.598   2.411 -0.2488  0.1432  0.4150
 2834SOL    HW211102   0.304   5.548   2.345  0.4184 -0.2149  1.1674
 2834SOL    HW311103   0.230   5.533   2.476  0.3234  0.7023  1.2203
 2834SOL    MW411104   0.259   5.583   2.411 -0.0853  0.1698  0.6205
 2835SOL     OW11105   3.335   6.147   1.991  0.5738 -0.0305  0.1974
 2835SOL    HW211106   3.382   6.230   1.996  0.3768  0.1289 -0.4833
 2835SOL    HW311107   3.269   6.160   1.924 -0.3840 -0.2989  1.0723
 2835SOL    MW411108   3.333   6.159   1.982  0.4215 -0.0449  0.2231
 2836SOL     OW11109   0.523   2.455   3.493  0.6098 -0.3075 -0.2165
 2836SOL    HW211110   0.602   2.461   3.440 -0.2030  0.5663 -1.3746
 2836SOL    HW311111   0.453   2.488   3.436 -0.6710 -1.4935  0.6078
 2836SOL    MW411112   0.524   2.460   3.478  0.3335 -0.3487 -0.2605
 2837SOL     OW11113   4.526   2.420   3.587  0.9088 -0.4141  0.0879
 2837SOL    HW211114   4.546   2.505   3.549 -0.9076 -0.2321 -0.5395
 2837SOL    HW311115   4.564   2.424   3.675  0.3745  1.2621  0.2785
 2837SOL    MW411116   4.534   2.432   3.594  0.5986 -0.1690  0.0303
 2838SOL     OW11117   1.484   6.185   5.462  0.0395  0.2268 -0.1774
 2838SOL    HW211118   1.419   6.173   5.393 -0.2598  1.5107 -0.1517
 2838SOL    HW311119   1.520   6.273   5.445  0.2623  0.3807  1.0380
 2838SOL    MW411120   1.480   6.195   5.450  0.0294  0.4165 -0.0137
 2839SOL     OW11121   5.106   5.920   3.273 -0.5926  0.0039 -0.2927
 2839SOL    HW211122   5.091   5.850   3.336  0.2557  0.4213  0.3992
 2839SOL    HW311123   5.018   5.948   3.247 -0.9980  0.4041  1.3742
 2839SOL    MW411124   5.092   5.915   3.278 -0.5341  0.1118  0.0186
 2840SOL     OW11125   3.636   2.697   3.333 -0.5259 -0.4264  0.2191
 2840SOL    HW211126   3.546   2.665   3.342 -0.6412  0.0718  0.9142
 2840SOL    HW311127   3.667   2.705   3.423  0.9109 -2.5098 -0.0425
 2840SOL    MW411128   3.628   2.694   3.346 -0.3515 -0.6356  0.2763
 2841SOL     OW11129   3.207   2.627   1.550 -0.1288 -0.5022 -0.1140
 2841SOL    HW211130   3.237   2.653   1.637  1.6267 -0.2737 -0.7535
 2841SOL    HW311131   3.176   2.708   1.509  2.0654  0.0333 -0.8338
 2841SOL    MW411132   3.206   2.641   1.556  0.3923 -0.4014 -0.2933
 2842SOL     OW11133   0.748   3.479   0.123  0.4910 -0.2444  0.4074
 2842SOL    HW211134   0.762   3.571   0.144  1.3738 -0.3980  0.5379
 2842SOL    HW311135   0.815   3.432   0.174 -0.3267 -1.0122  0.8078
 2842SOL    MW411136   0.759   3.485   0.133  0.4996 -0.3659  0.4774
 2843SOL     OW11137   2.978   0.175   1.993  0.3846  0.5013  0.2661
 2843SOL    HW211138   3.045   0.116   2.028  0.3090 -0.2656 -0.8182
 2843SOL    HW311139   2.923   0.119   1.938  0.0044  1.4860 -0.3922
 2843SOL    MW411140   2.979   0.160   1.991  0.3245  0.5300  0.0362
 2844SOL     OW11141   4.731   5.655   1.972 -0.0364  0.1639 -0.2688
 2844SOL    HW211142   4.665   5.703   2.021 -0.9778 -0.4741 -0.8899
 2844SOL    HW311143   4.810   5.708   1.981 -0.6660  1.0212  0.3529
 2844SOL    MW411144   4.733   5.669   1.979 -0.2437  0.1929 -0.2687
 2845SOL     OW11145   2.270   6.368   3.716  0.3073  1.2712  0.3040
 2845SOL    HW211146   2.194   6.425   3.726  1.2750  2.9231 -1.1871
 2845SOL    HW311147   2.313   6.398   3.636  1.7664 -0.5406  0.3189
 2845SOL    MW411148   2.265   6.379   3.706  0.6275  1.2501  0.1092
 2846SOL     OW11149   1.500   2.336   3.281 -0.2987  0.6222  0.0237
 2846SOL    HW211150   1.461   2.283   3.212 -0.1301  0.2467  0.2107
 2846SOL    HW311151   1.452   2.418   3.279 -3.1319 -0.8219  2.1181
 2846SOL    MW411152   1.489   2.340   3.272 -0.6502  0.3821  0.3247
 2847SOL     OW11153   1.669   5.600   2.003 -0.1922  0.0756 -0.6007
 2847SOL    HW211154   1.632   5.583   1.917 -0.0182  0.7661 -0.8168
 2847SOL    HW311155   1.701   5.690   1.999  0.8579 -0.2556 -0.1902
 2847SOL    MW411156   1.669   5.609   1.991 -0.0307  0.1230 -0.5751
 2848SOL     OW11157   5.000   4.923   0.327  0.0559 -0.1714 -0.2145
 2848SOL    HW211158   5.028   4.864   0.397  0.0716  1.4941  1.2430
 2848SOL    HW311159   4.908   4.901   0.312 -0.0046 -0.3926  0.4676
 2848SOL    MW411160   4.992   4.912   0.334  0.0500  0.0191  0.0678
 2849SOL     OW11161   6.154   5.730   5.493  0.1581  0.1448 -0.1976
 2849SOL    HW211162   6.155   5.700   5.584 -0.5063  1.3645  0.2274
 2849SOL    HW311163   6.119   5.656   5.444  0.3900 -0.4765  0.5565
 2849SOL    MW411164   6.150   5.716   5.499  0.1011  0.2238 -0.0420
 2850SOL     OW11165   3.736   5.317   3.471 -0.0417  0.8218  0.1815
 2850SOL    HW211166   3.814   5.307   3.415  1.7591  1.0660  2.5117
 2850SOL    HW311167   3.710   5.408   3.459  0.3035  0.8643 -0.2806
 2850SOL    MW411168   3.743   5.328   3.462  0.2415  0.8596  0.4280
 2851SOL     OW11169   5.137   3.339   5.801  0.4316 -0.2809  0.5109
 2851SOL    HW211170   5.163   3.427   5.831 -0.6820  0.1500  0.2686
 2851SOL    HW311171   5.045   3.332   5.827  0.3232 -1.1173 -0.0755
 2851SOL    MW411172   5.128   3.350   5.809  0.2704 -0.3344  0.4016
 2852SOL     OW11173   4.498   1.775   5.077 -0.0356  0.0451 -0.7449
 2852SOL    HW211174   4.578   1.747   5.122  0.0697 -0.0696 -1.0004
 2852SOL    HW311175   4.434   1.789   5.147 -0.3402 -1.6291 -0.6464
 2852SOL    MW411176   4.500   1.773   5.092 -0.0619 -0.1910 -0.7656
 2853SOL     OW11177   3.496   0.224   6.342  0.1109  0.4427  0.2320
 2853SOL    HW211178   3.490   0.213   6.437 -1.4185  2.0777  0.3745
 2853SOL    HW311179   3.523   0.138   6.310 -0.7051 -0.5393  2.0246
 2853SOL    MW411180   3.499   0.211   6.350 -0.1986  0.5289  0.4873
 2854SOL     OW11181   2.335   4.096   4.557 -0.0148  0.5978  0.6306
 2854SOL    HW211182   2.295   4.141   4.482  0.0873 -1.4730 -0.7497
 2854SOL    HW311183   2.270   4.030   4.582  0.9651 -0.3462  0.7667
 2854SOL    MW411184   2.321   4.093   4.551  0.1280  0.2001  0.4664
 2855SOL     OW11185   0.926   1.593   5.357 -0.4520 -0.1238  0.1798
 2855SOL    HW211186   0.945   1.595   5.263 -1.3253 -1.6234 -0.0605
 2855SOL    HW311187   1.012   1.590   5.399  0.0096  1.9152 -0.4691
 2855SOL    MW411188   0.940   1.593   5.350 -0.5063 -0.0526  0.0625
 2856SOL     OW11189   5.087   2.116   2.779  0.3398  0.2923 -0.1378
 2856SOL    HW211190   5.171   2.147   2.812  0.4913  0.6165 -0.7905
 2856SOL    HW311191   5.102   2.024   2.757 -0.4406 -0.6583  2.9187
 2856SOL    MW411192   5.100   2.108   2.780  0.2568  0.2097  0.1794
 2857SOL     OW11193   6.140   1.616   3.409 -0.3790  0.1740 -0.4326
 2857SOL    HW211194   6.199   1.623   3.485 -0.1231 -1.4374 -0.4373
 2857SOL    HW311195   6.055   1.594   3.447  0.1258 -2.4291 -0.6388
 2857SOL    MW411196   6.137   1.614   3.424 -0.2786 -0.3821 -0.4604
 2858SOL     OW11197   0.443   4.383   3.054 -0.1986 -0.1599  0.5763
 2858SOL    HW211198   0.352   4.408   3.042  0.0432  1.3586  1.6267
 2858SOL    HW311199   0.491   4.466   3.056  1.2580 -0.9390 -0.2439
 2858SOL    MW411200   0.437   4.397   3.053  0.0255 -0.0623  0.6067
 2859SOL     OW11201   0.511   2.778   0.134 -0.0775 -0.1997  0.0130
 2859SOL    HW211202   0.420   2.750   0.124  0.2214 -0.3986 -4.1412
 2859SOL    HW311203   0.558   2.699   0.159 -0.9319 -0.1988  1.7359
 2859SOL    MW411204   0.506   2.764   0.136 -0.1508 -0.2258 -0.3078
 2860SOL     OW11205   3.733   0.087   3.279 -0.1815 -0.1255  0.3324
 2860SOL    HW211206   3.657   0.143   3.289  1.1126  1.8066 -0.0590
 2860SOL    HW311207   3.712   0.029   3.206 -1.0021  0.8780 -0.2519
 2860SOL    MW411208   3.720   0.087   3.271 -0.1190  0.2618  0.2037
 2861SOL     OW11209   2.611   5.551   1.090  0.2917  0.3529  0.1794
 2861SOL    HW211210   2.612   5.605   1.012 -2.5003  3.3790  1.9882
 2861SOL    HW311211   2.544   5.485   1.073  0.0038  0.7313 -0.1851
 2861SOL    MW411212   2.602   5.549   1.078 -0.1147  0.8021  0.3699
 2862SOL     OW11213   6.320   2.556   6.192  0.3348  0.3478  0.1206
 2862SOL    HW211214   6.320   2.484   6.130 -1.9895 -0.1256  0.5688
 2862SOL    HW311215   6.294   2.632   6.140 -0.1898  0.2414  0.2224
 2862SOL    MW411216   6.317   2.557   6.177 -0.0411  0.2713  0.1932
 2863SOL     OW11217   5.599   1.224   3.131 -0.1329 -0.5901 -0.0759
 2863SOL    HW211218   5.629   1.134   3.124  0.0091 -0.4503 -1.5567
 2863SOL    HW311219   5.510   1.217   3.165  0.7644 -1.1111  2.4082
 2863SOL    MW411220   5.591   1.211   3.134  0.0042 -0.6404  0.0564
 2864SOL     OW11221   4.994   6.067   4.781  0.1081  0.4776  0.2724
 2864SOL    HW211222   5.004   6.045   4.873  4.6915  0.1712 -0.0590
 2864SOL    HW311223   4.978   5.983   4.737 -0.0498  0.3497  0.5716
 2864SOL    MW411224   4.993   6.053   4.787  0.6920  0.4203  0.2681
 2865SOL     OW11225   3.111   5.406   5.555 -0.0939 -0.2236  0.2553
 2865SOL    HW211226   3.206   5.416   5.548 -0.1614 -0.1051 -0.6910
 2865SOL    HW311227   3.095   5.391   5.648  1.0749 -2.5959  0.1549
 2865SOL    MW411228   3.121   5.405   5.566  0.0514 -0.5210  0.1172
 2866SOL     OW11229   1.743   6.277   5.774  0.1284 -0.0677 -0.5594
 2866SOL    HW211230   1.709   6.200   5.729 -0.1171  0.5889 -1.5231
 2866SOL    HW311231   1.838   6.269   5.766  0.1171 -0.4430 -0.3470
 2866SOL    MW411232   1.751   6.266   5.767  0.0945 -0.0306 -0.6585
 2867SOL     OW11233   3.423   0.180   4.154  0.3205  0.0756  0.3810
 2867SOL    HW211234   3.444   0.271   4.174 -1.7350  0.5456  0.6478
 2867SOL    HW311235   3.349   0.159   4.212  1.1049 -1.9663  0.7413
 2867SOL    MW411236   3.416   0.189   4.164  0.1528 -0.1318  0.4637
 2868SOL     OW11237   3.022   4.526   1.981  0.2532  0.2420  0.2548
 2868SOL    HW211238   3.062   4.443   1.956  1.4158  1.4032 -2.0365
 2868SOL    HW311239   3.093   4.590   1.975 -0.5736  1.4290  2.1159
 2868SOL    MW411240   3.036   4.523   1.977  0.2975  0.5518  0.1980
 2869SOL     OW11241   1.057   4.773   2.745 -0.2412 -0.1244 -0.4703
 2869SOL    HW211242   1.136   4.765   2.691 -0.6607  1.4704 -1.3724
 2869SOL    HW311243   1.048   4.687   2.786  0.1274 -1.4073 -2.8838
 2869SOL    MW411244   1.066   4.760   2.743 -0.2479 -0.0832 -0.9077
 2870SOL     OW11245   1.336   4.349   0.784 -0.1142 -0.1602  0.5035
 2870SOL    HW211246   1.328   4.318   0.875 -1.0975 -0.6307  0.2756
 2870SOL    HW311247   1.250   4.331   0.746  0.1757  0.3799 -0.4187
 2870SOL    MW411248   1.323   4.342   0.791 -0.2057 -0.1510  0.3517
 2871SOL     OW11249   2.118   0.201   0.321 -0.2652 -0.3686 -0.4840
 2871SOL    HW211250   2.181   0.146   0.368 -0.4793 -0.2150 -0.0132
 2871SOL    HW311251   2.157   0.213   0.234 -0.2034 -1.2472 -0.5928
 2871SOL    MW411252   2.131   0.195   0.315 -0.2853 -0.4642 -0.4363
 2872SOL     OW11253   2.578   2.882   2.034  0.2108  0.0302  0.5752
 2872SOL    HW211254   2.610   2.811   1.979 -0.8698 -0.3098  0.3726
 2872SOL    HW311255   2.522   2.840   2.099 -0.0540  0.6393  0.7529
 2872SOL    MW411256   2.575   2.867   2.035  0.0333  0.0657  0.5719
 2873SOL     OW11257   5.264   0.513   2.131 -0.5248  0.2578 -0.4620
 2873SOL    HW211258   5.169   0.521   2.125 -0.7046 -0.3962  1.1019
 2873SOL    HW311259   5.282   0.497   2.224  1.1823  1.1742 -0.5777
 2873SOL    MW411260   5.254   0.512   2.143 -0.3233  0.2924 -0.2709
 2874SOL     OW11261   0.712   5.317   5.809 -0.8742 -0.3754  0.0337
 2874SOL    HW211262   0.639   5.298   5.750 -0.0959 -0.7811 -0.8136
 2874SOL    HW311263   0.787   5.273   5.769  0.2238  1.5059 -0.0529
 2874SOL    MW411264   0.712   5.309   5.796 -0.6266 -0.1807 -0.0895
 2875SOL     OW11265   3.569   1.139   1.202  0.2041 -0.0876 -0.5596
 2875SOL    HW211266   3.649   1.191   1.207  0.3141 -0.3288  0.2532
 2875SOL    HW311267   3.564   1.093   1.285 -1.2842  0.6675 -0.1941
 2875SOL    MW411268   3.579   1.140   1.213  0.0222 -0.0198 -0.4041
 2876SOL     OW11269   3.256   5.656   3.356  0.4386 -0.0595 -0.1244
 2876SOL    HW211270   3.274   5.649   3.262  0.0848 -2.1617 -0.0962
 2876SOL    HW311271   3.279   5.570   3.391 -2.6980 -0.5331  1.1133
 2876SOL    MW411272   3.261   5.644   3.348 -0.0219 -0.3993  0.0427
 2877SOL     OW11273   1.541   5.304   2.648 -0.4612  0.5471  0.8341
 2877SOL    HW211274   1.552   5.215   2.682 -0.7958  0.7486  1.4910
 2877SOL    HW311275   1.619   5.319   2.595 -1.1718 -0.7323 -0.6665
 2877SOL    MW411276   1.553   5.294   2.646 -0.5991  0.4049  0.7228
 2878SOL     OW11277   0.185   6.145   1.866 -0.4151  0.3201  0.1985
 2878SOL    HW211278   0.230   6.125   1.784  2.2324 -0.5434  1.7480
 2878SOL    HW311279   0.122   6.074   1.877  1.0158 -1.0103  0.1142
 2878SOL    MW411280   0.182   6.133   1.857  0.1230  0.0307  0.3918
 2879SOL     OW11281   5.589   2.019   5.438 -0.7983  0.1367  0.2606
 2879SOL    HW211282   5.494   2.019   5.427 -0.7851 -0.5633  0.0922
 2879SOL    HW311283   5.623   2.007   5.349 -0.5643 -0.0681  0.3755
 2879SOL    MW411284   5.581   2.017   5.424 -0.7657  0.0174  0.2535
 2880SOL     OW11285   5.794   4.002   1.823 -0.0779  0.1554 -0.0875
 2880SOL    HW211286   5.864   3.942   1.849  0.5982  0.9549 -0.0556
 2880SOL    HW311287   5.714   3.960   1.856  0.3352 -0.9294 -0.4208
 2880SOL    MW411288   5.792   3.988   1.831  0.0658  0.1178 -0.1273
 2881SOL     OW11289   6.151   4.626   0.570 -0.2450  0.3259  0.0371
 2881SOL    HW211290   6.148   4.565   0.643 -1.2650  0.2656 -0.0348
 2881SOL    HW311291   6.160   4.571   0.493  0.1211  0.3473  0.0634
 2881SOL    MW411292   6.151   4.611   0.569 -0.3313  0.3207  0.0311
 2882SOL     OW11293   2.862   1.093   3.995 -0.1491 -0.1044  0.5358
 2882SOL    HW211294   2.842   1.079   3.902 -2.2095  1.3368  0.6971
 2882SOL    HW311295   2.944   1.142   3.995  0.4491 -1.0596 -0.4568
 2882SOL    MW411296   2.870   1.098   3.982 -0.3420 -0.0403  0.4261
 2883SOL     OW11297   0.113   1.218   3.629 -0.7439 -0.5290 -0.8082
 2883SOL    HW211298   0.105   1.149   3.562 -0.2543 -2.5064  1.0640
 2883SOL    HW311299   0.082   1.176   3.709 -0.6298  1.5525  0.3767
 2883SOL    MW411300   0.108   1.203   3.631 -0.6643 -0.5152 -0.4049
 2884SOL     OW11301   5.772   4.859   0.579 -0.0175  0.2212 -0.2175
 2884SOL    HW211302   5.867   4.865   0.587  0.3488 -2.2914 -1.7435
 2884SOL    HW311303   5.753   4.900   0.494 -0.0205 -1.1015 -0.8698
 2884SOL    MW411304   5.782   4.865   0.569  0.0305 -0.2848 -0.5049
 2885SOL     OW11305   4.806   1.556   1.770  0.2476 -0.2466 -0.3730
 2885SOL    HW211306   4.877   1.614   1.795  0.6220 -0.5855 -0.6312
 2885SOL    HW311307   4.748   1.610   1.717  1.2927 -0.4325 -1.7590
 2885SOL    MW411308   4.808   1.570   1.766  0.4349 -0.3159 -0.5900
 2886SOL     OW11309   3.113   4.996   1.684  0.1514 -0.3948  0.2462
 2886SOL    HW211310   3.103   4.908   1.720 -2.2619  0.5768  2.3361
 2886SOL    HW311311   3.155   5.046   1.754 -0.0716  0.4807 -0.2207
 2886SOL    MW411312   3.117   4.991   1.698 -0.1964 -0.1511  0.4603
 2887SOL     OW11313   3.077   5.464   5.833 -0.5814 -0.4347 -0.2389
 2887SOL    HW211314   2.994   5.418   5.844 -1.1252  0.3063 -1.0484
 2887SOL    HW311315   3.137   5.421   5.893 -1.4495 -1.2431  0.0727
 2887SOL    MW411316   3.074   5.453   5.842 -0.7677 -0.4436 -0.3046
 2888SOL     OW11317   1.991   3.743   6.057  0.2755  0.3180  0.2714
 2888SOL    HW211318   2.082   3.762   6.035  0.0973  1.5451  0.5361
 2888SOL    HW311319   1.996   3.670   6.119  0.8575 -2.3293 -2.6205
 2888SOL    MW411320   2.003   3.736   6.062  0.3288  0.1306 -0.0752
 2889SOL     OW11321   0.388   4.281   1.718  0.1958 -0.3750  0.1322
 2889SOL    HW211322   0.434   4.254   1.798  1.9043 -0.4278 -0.8199
 2889SOL    HW311323   0.299   4.301   1.747  0.7971 -0.2990  2.0597
 2889SOL    MW411324   0.382   4.280   1.733  0.5006 -0.3719  0.2609
 2890SOL     OW11325   2.989   1.598   2.958 -0.3904 -0.5815  0.5595
 2890SOL    HW211326   2.989   1.693   2.954 -2.5113 -0.4223  2.2623
 2890SOL    HW311327   3.065   1.571   2.906  0.0836  1.9952 -0.2076
 2890SOL    MW411328   2.999   1.607   2.951 -0.6077 -0.2205  0.6830
 2891SOL     OW11329   1.141   0.702   4.982 -0.1476 -0.0780  0.2128
 2891SOL    HW211330   1.219   0.756   4.967 -0.1824 -0.0579  0.0956
 2891SOL    HW311331   1.153   0.627   4.924 -0.0632 -0.2336  0.4345
 2891SOL    MW411332   1.153   0.699   4.972 -0.1410 -0.0959  0.2266
 2892SOL     OW11333   5.818   3.465   5.665  0.3606 -0.2440  0.8833
 2892SOL    HW211334   5.804   3.392   5.726  0.3043 -0.5196  0.5416
 2892SOL    HW311335   5.731   3.488   5.634  0.4264 -0.3673  0.6027
 2892SOL    MW411336   5.805   3.458   5.669  0.3618 -0.2966  0.8012
 2893SOL     OW11337   3.556   5.762   5.848  0.1740  0.3651 -0.2266
 2893SOL    HW211338   3.599   5.761   5.763 -0.5736  0.2630 -0.6089
 2893SOL    HW311339   3.505   5.843   5.849 -0.1413  0.1668 -0.0352
 2893SOL    MW411340   3.555   5.772   5.837  0.0338  0.3255 -0.2518
 2894SOL     OW11341   2.667   5.291   4.768 -0.6710 -0.7351  0.1263
 2894SOL    HW211342   2.618   5.221   4.725 -1.0451  0.2410 -1.0878
 2894SOL    HW311343   2.736   5.313   4.706 -1.0019  0.4642  0.1646
 2894SOL    MW411344   2.670   5.285   4.754 -0.7641 -0.4481 -0.0288
 2895SOL     OW11345   3.909   2.484   1.925  0.0055  0.5987  0.1186
 2895SOL    HW211346   4.004   2.486   1.939  0.1811  3.0197 -0.9894
 2895SOL    HW311347   3.896   2.408   1.867  1.0654 -0.5346  1.2932
 2895SOL    MW411348   3.920   2.474   1.919  0.1685  0.7686  0.1274
 2896SOL     OW11349   5.593   4.723   2.900 -0.4254 -0.3063  0.1214
 2896SOL    HW211350   5.625   4.770   2.823 -0.4905 -2.1295 -1.0813
 2896SOL    HW311351   5.511   4.684   2.872  0.4098 -2.4753  0.5095
 2896SOL    MW411352   5.587   4.724   2.886 -0.3238 -0.8330  0.0139
 2897SOL     OW11353   5.436   1.715   5.143  0.0305  0.3692 -0.2750
 2897SOL    HW211354   5.343   1.697   5.127  0.1649  0.1963 -0.8919
 2897SOL    HW311355   5.459   1.779   5.076  0.4660  0.0860 -0.3930
 2897SOL    MW411356   5.426   1.721   5.132  0.1057  0.3090 -0.3720
 2898SOL     OW11357   6.107   5.018   5.465 -0.6549  0.3443 -0.2869
 2898SOL    HW211358   6.055   5.033   5.386  1.1077 -0.6483 -1.6976
 2898SOL    HW311359   6.047   4.973   5.525 -1.8426  0.5435 -1.2837
 2898SOL    MW411360   6.092   5.014   5.463 -0.5790  0.2396 -0.6045
 2899SOL     OW11361   1.720   6.201   3.822  0.1365 -0.4012  0.1042
 2899SOL    HW211362   1.794   6.139   3.818 -0.9569 -1.6965 -0.9044
 2899SOL    HW311363   1.762   6.286   3.833  1.7211 -1.2562  1.2222
 2899SOL    MW411364   1.736   6.204   3.823  0.2013 -0.6849  0.1186
 2900SOL     OW11365   0.595   1.321   2.817 -0.2926  0.4899  0.0316
 2900SOL    HW211366   0.550   1.311   2.901  0.2831 -1.1639  0.1766
 2900SOL    HW311367   0.611   1.231   2.787  1.9748  0.9854 -0.4878
 2900SOL    MW411368   0.591   1.308   2.824  0.0825  0.3371 -0.0178
 2901SOL     OW11369   0.526   1.706   5.302 -0.4423 -0.0487  0.0092
 2901SOL    HW211370   0.486   1.775   5.249  0.3991  1.5365  1.3359
 2901SOL    HW311371   0.461   1.687   5.369 -0.2779  0.1932  0.2398
 2901SOL    MW411372   0.512   1.713   5.304 -0.3096  0.1924  0.2147
 2902SOL     OW11373   3.535   5.612   3.898 -0.5995  0.6568 -0.8228
 2902SOL    HW211374   3.468   5.664   3.942 -0.5729 -2.0992  2.8863
 2902SOL    HW311375   3.486   5.553   3.841 -1.1661  0.3262 -0.0088
 2902SOL    MW411376   3.520   5.611   3.896 -0.6707  0.2496 -0.2261
 2903SOL     OW11377   0.376   3.866   6.047  0.2481 -0.3150  0.1592
 2903SOL    HW211378   0.334   3.802   5.990  0.9604 -0.0360 -0.7129
 2903SOL    HW311379   0.414   3.930   5.986  1.4571 -0.2724  0.9231
 2903SOL    MW411380   0.376   3.866   6.031  0.5016 -0.2726  0.1449
 2904SOL     OW11381   2.363   4.806   4.076  0.0154  0.1415  0.0328
 2904SOL    HW211382   2.368   4.846   4.162 -2.1277  2.4259 -0.7828
 2904SOL    HW311383   2.454   4.787   4.053  0.7033  0.2091  2.4135
 2904SOL    MW411384   2.375   4.809   4.084 -0.1766  0.4518  0.2393
 2905SOL     OW11385   2.477   2.469   2.401 -0.1407  0.1325 -0.0368
 2905SOL    HW211386   2.551   2.422   2.438 -0.7714 -2.5253 -1.9161
 2905SOL    HW311387   2.514   2.549   2.365  1.4971 -0.3489  0.5173
 2905SOL    MW411388   2.491   2.474   2.401 -0.0078 -0.2817 -0.2116
 2906SOL     OW11389   2.386   3.246   4.592  0.6917 -0.1357  0.1140
 2906SOL    HW211390   2.291   3.255   4.593  0.6857  1.1896 -2.4306
 2906SOL    HW311391   2.418   3.332   4.616  1.2275 -0.3324  0.1117
 2906SOL    MW411392   2.378   3.258   4.595  0.7616  0.0132 -0.2221
 2907SOL     OW11393   2.681   5.547   5.616  0.0704 -0.1574 -0.2391
 2907SOL    HW211394   2.699   5.629   5.661  0.6524 -0.2762 -0.2545
 2907SOL    HW311395   2.742   5.547   5.542  0.0022 -0.5600 -0.2940
 2907SOL    MW411396   2.691   5.558   5.612  0.1382 -0.2262 -0.2484
 2908SOL     OW11397   1.899   0.709   3.596 -0.1242 -0.4315 -0.2467
 2908SOL    HW211398   1.857   0.637   3.549 -0.6814 -0.6380  0.5514
 2908SOL    HW311399   1.987   0.677   3.613 -0.3290 -0.8850 -0.0008
 2908SOL    MW411400   1.905   0.695   3.592 -0.2247 -0.5186 -0.1090
 2909SOL     OW11401   0.370   3.823   0.427  0.2134  0.9426  0.2358
 2909SOL    HW211402   0.402   3.890   0.487  0.0239  0.3488  1.0117
 2909SOL    HW311403   0.327   3.759   0.483 -1.0742  0.9887 -0.6319
 2909SOL    MW411404   0.368   3.824   0.442  0.0185  0.8703  0.2237
 2910SOL     OW11405   3.878   0.604   4.702 -0.3064  0.6433  0.2972
 2910SOL    HW211406   3.923   0.688   4.692  2.8233 -0.8859  0.3107
 2910SOL    HW311407   3.855   0.578   4.613  0.7329  0.5523  0.0417
 2910SOL    MW411408   3.881   0.611   4.689  0.2436  0.4296  0.2653
 2911SOL     OW11409   1.744   2.762   0.460  0.2209  0.1406  0.4197
 2911SOL    HW211410   1.813   2.827   0.447  1.7750 -1.2858  1.1671
 2911SOL    HW311411   1.709   2.747   0.372  0.6534  1.0985  0.0697
 2911SOL    MW411412   1.748   2.768   0.446  0.4830  0.0788  0.4722
 2912SOL     OW11413   5.010   5.726   4.202 -0.2401  0.2792 -0.4721
 2912SOL    HW211414   4.931   5.680   4.229  0.7353 -2.2293 -1.5136
 2912SOL    HW311415   5.008   5.723   4.106  1.3536 -0.4026 -0.5277
 2912SOL    MW411416   4.999   5.719   4.193  0.0988 -0.1417 -0.6168
 2913SOL     OW11417   1.110   3.272   1.224  0.0197  0.0477  0.0287
 2913SOL    HW211418   1.085   3.260   1.133 -1.4588 -0.0653  0.4267
 2913SOL    HW311419   1.205   3.283   1.222 -0.0299  0.3674 -1.5480
 2913SOL    MW411420   1.120   3.272   1.212 -0.1819  0.0750 -0.1268
 2914SOL     OW11421   0.253   1.692   5.123 -0.7754  0.5996 -0.2195
 2914SOL    HW211422   0.288   1.781   5.115 -0.9323  0.6109 -0.8597
 2914SOL    HW311423   0.250   1.676   5.217  1.5592  0.3631 -0.1267
 2914SOL    MW411424   0.257   1.702   5.134 -0.4881  0.5699 -0.2918
 2915SOL     OW11425   0.863   0.656   2.907  0.0731  0.3942 -0.6417
 2915SOL    HW211426   0.856   0.636   3.000 -0.1892  1.5203 -0.4070
 2915SOL    HW311427   0.798   0.600   2.865 -0.4507  0.5475 -0.0442
 2915SOL    MW411428   0.854   0.646   2.913 -0.0306  0.5630 -0.5319
 2916SOL     OW11429   3.874   1.849   4.652  0.2111  0.5812  0.0057
 2916SOL    HW211430   3.946   1.873   4.711 -0.2751  1.6980  0.1864
 2916SOL    HW311431   3.798   1.839   4.710 -0.2896  1.7683 -0.4029
 2916SOL    MW411432   3.874   1.851   4.668  0.0809  0.8852 -0.0244
 2917SOL     OW11433   2.421   4.308   6.480 -0.6998 -0.2119  0.0725
 2917SOL    HW211434   2.485   4.343   6.542 -0.4470 -0.8760  0.1959
 2917SOL    HW311435   2.472   4.281   6.404 -0.7827 -1.0580  0.3078
 2917SOL    MW411436   2.436   4.309   6.478 -0.6774 -0.4112  0.1198
 2918SOL     OW11437   2.978   4.615   1.596 -0.0180  0.1656 -0.0425
 2918SOL    HW211438   2.952   4.523   1.598  0.5946 -0.0056  0.5787
 2918SOL    HW311439   2.937   4.653   1.673  2.3053 -0.3436  1.5515
 2918SOL    MW411440   2.969   4.608   1.606  0.3694  0.0758  0.2497
 2919SOL     OW11441   2.836   4.324   6.414 -0.1318  1.0639 -0.1081
 2919SOL    HW211442   2.789   4.367   6.343  0.0153  0.1401 -0.7853
 2919SOL    HW311443   2.922   4.366   6.414 -0.5121  1.8648  0.2934
 2919SOL    MW411444   2.841   4.335   6.404 -0.1625  1.0477 -0.1445
 2920SOL     OW11445   2.824   2.164   0.201  0.0225  0.7595 -0.2581
 2920SOL    HW211446   2.757   2.156   0.269 -1.2930  3.0117 -1.1742
 2920SOL    HW311447   2.790   2.232   0.143  3.5246  2.7350 -0.2482
 2920SOL    MW411448   2.810   2.172   0.203  0.3110  1.3173 -0.3777
 2921SOL     OW11449   2.047   5.713   1.403 -0.3757 -0.2547  0.4848
 2921SOL    HW211450   2.051   5.692   1.497 -0.4761  0.1830  0.5874
 2921SOL    HW311451   1.988   5.788   1.397  0.7859  0.6795  0.2403
 2921SOL    MW411452   2.040   5.720   1.415 -0.2357 -0.0737  0.4661
 2922SOL     OW11453   3.623   4.620   4.025 -0.8235 -0.2197 -0.2024
 2922SOL    HW211454   3.609   4.660   4.111  0.7137  0.4636 -0.2493
 2922SOL    HW311455   3.589   4.531   4.035 -1.0515 -0.0162  0.9892
 2922SOL    MW411456   3.617   4.613   4.038 -0.6508 -0.1027 -0.0514
 2923SOL     OW11457   0.163   5.034   5.305  0.1402  0.3084 -0.2304
 2923SOL    HW211458   0.172   5.102   5.371 -1.6707  0.7714 -0.4161
 2923SOL    HW311459   0.247   4.987   5.307  0.7056  1.3249  1.2386
 2923SOL    MW411460   0.176   5.037   5.314 -0.0241  0.5036 -0.0611
 2924SOL     OW11461   5.674   3.695   0.789  0.2534  0.3710 -0.1995
 2924SOL    HW211462   5.641   3.784   0.781  0.4540  0.5429  0.7872
 2924SOL    HW311463   5.755   3.695   0.738 -0.2363  0.4715 -1.0085
 2924SOL    MW411464   5.680   3.707   0.781  0.2152  0.4069 -0.1761
 2925SOL     OW11465   2.753   4.186   6.042 -0.4553 -0.5612  0.1129
 2925SOL    HW211466   2.791   4.236   5.970  0.3218 -0.4866  0.5672
 2925SOL    HW311467   2.827   4.163   6.097 -0.5697 -3.2718 -0.7017
 2925SOL    MW411468   2.768   4.189   6.040 -0.3679 -0.9090  0.0654
 2926SOL     OW11469   1.753   1.247   3.964 -0.3517 -0.1961  0.2411
 2926SOL    HW211470   1.690   1.313   3.935  0.3396  0.3532 -0.0133
 2926SOL    HW311471   1.742   1.175   3.902 -1.2125 -0.4006  0.6056
 2926SOL    MW411472   1.743   1.246   3.952 -0.3741 -0.1506  0.2556
 2927SOL     OW11473   5.372   5.729   2.695 -0.3343  0.1239 -0.2166
 2927SOL    HW211474   5.463   5.700   2.684  0.2097  0.9937  1.5929
 2927SOL    HW311475   5.320   5.651   2.675  0.8092 -0.5103 -0.8600
 2927SOL    MW411476   5.377   5.715   2.691 -0.1116  0.1550 -0.0627
 2928SOL     OW11477   3.619   3.412   0.563  0.0847  0.7053  0.1618
 2928SOL    HW211478   3.529   3.406   0.594 -0.0597  0.7497 -0.2433
 2928SOL    HW311479   3.631   3.333   0.509 -0.0500  1.2199 -0.6360
 2928SOL    MW411480   3.609   3.401   0.560  0.0479  0.7791  0.0031
 2929SOL     OW11481   2.637   1.937   5.654 -0.3121 -0.4182  0.2093
 2929SOL    HW211482   2.673   2.016   5.614 -0.1426 -0.0662  1.0411
 2929SOL    HW311483   2.636   1.873   5.583 -0.9528  0.4770 -0.6175
 2929SOL    MW411484   2.642   1.939   5.639 -0.3742 -0.2537  0.2100
 2930SOL     OW11485   5.778   4.572   2.195  0.2494 -0.0794  0.1329
 2930SOL    HW211486   5.831   4.499   2.227 -1.5951 -1.3603  0.4143
 2930SOL    HW311487   5.803   4.581   2.102  0.7503 -0.8271  0.1883
 2930SOL    MW411488   5.788   4.564   2.187  0.0721 -0.3470  0.1774
 2931SOL     OW11489   1.106   3.376   0.122  0.5778 -0.0353  0.0807
 2931SOL    HW211490   1.028   3.379   0.177  0.8390  1.5797  0.4210
 2931SOL    HW311491   1.097   3.295   0.072 -0.6478 -0.5426  1.0656
 2931SOL    MW411492   1.095   3.366   0.123  0.4506  0.1109  0.2555
 2932SOL     OW11493   3.265   5.162   1.839  0.3287  0.6694  0.5979
 2932SOL    HW211494   3.233   5.171   1.929 -0.0782  0.2084  0.5049
 2932SOL    HW311495   3.355   5.193   1.842 -0.8116  4.5297  0.3642
 2932SOL    MW411496   3.273   5.167   1.851  0.1245  1.1179  0.5548
 2933SOL     OW11497   1.511   3.813   4.776 -0.4015 -0.3164  0.2275
 2933SOL    HW211498   1.488   3.730   4.734  0.2976 -0.6768  0.5377
 2933SOL    HW311499   1.577   3.852   4.718 -0.2194 -0.3072  0.4391
 2933SOL    MW411500   1.517   3.807   4.762 -0.2853 -0.3627  0.2963
 2934SOL     OW11501   5.789   4.793   0.926  0.2464  0.6013  0.2513
 2934SOL    HW211502   5.812   4.877   0.886  0.5993  0.5904  0.4227
 2934SOL    HW311503   5.780   4.733   0.852  0.4927  0.6740  0.1614
 2934SOL    MW411504   5.791   4.796   0.911  0.3255  0.6094  0.2620
 2935SOL     OW11505   3.970   4.057   4.224  0.5255  0.0074 -0.5892
 2935SOL    HW211506   3.930   4.041   4.310  0.5077  0.5860 -0.4861
 2935SOL    HW311507   4.063   4.039   4.238  0.6028  0.6009 -0.3102
 2935SOL    MW411508   3.977   4.052   4.237  0.5334  0.1620 -0.5388
 2936SOL     OW11509   3.343   4.350   4.328  0.1634  0.0229 -0.2057
 2936SOL    HW211510   3.318   4.431   4.285  0.0496  0.7415  1.1875
 2936SOL    HW311511   3.266   4.294   4.321 -0.3519  0.6582  0.3095
 2936SOL    MW411512   3.330   4.353   4.321  0.0804  0.2015  0.0461
 2937SOL     OW11513   3.506   3.765   2.605 -0.6234  0.4465 -0.0243
 2937SOL    HW211514   3.450   3.833   2.641  0.6768  2.5629 -1.7751
 2937SOL    HW311515   3.485   3.763   2.512 -0.7271 -1.7248 -0.0209
 2937SOL    MW411516   3.496   3.774   2.597 -0.4655  0.4392 -0.2548
 2938SOL     OW11517   5.076   4.853   3.632 -0.0630 -0.0179  0.5292
 2938SOL    HW211518   5.030   4.886   3.710  0.1586 -0.5664  0.8919
 2938SOL    HW311519   5.047   4.912   3.561 -0.9383 -0.0481  0.8490
 2938SOL    MW411520   5.066   4.865   3.633 -0.1492 -0.0942  0.6192
 2939SOL     OW11521   4.755   2.812   1.371 -0.1893 -0.1086  0.1082
 2939SOL    HW211522   4.777   2.755   1.444  1.2197 -0.4284 -0.5352
 2939SOL    HW311523   4.759   2.901   1.408  0.4439 -0.2686  0.4266
 2939SOL    MW411524   4.758   2.816   1.386  0.0801 -0.1719  0.0654
 2940SOL     OW11525   2.908   5.179   1.631 -0.5124  0.3674  0.0162
 2940SOL    HW211526   2.839   5.118   1.605  0.7352 -0.9924 -0.2210
 2940SOL    HW311527   2.984   5.123   1.649  0.8551  1.9032 -0.7953
 2940SOL    MW411528   2.909   5.163   1.630 -0.1674  0.3906 -0.1221
 2941SOL     OW11529   2.133   1.730   3.727  0.4416  0.4074 -0.2429
 2941SOL    HW211530   2.191   1.673   3.778  0.8040 -1.0922 -2.2107
 2941SOL    HW311531   2.061   1.673   3.700  0.0628  1.2516 -1.0594
 2941SOL    MW411532   2.131   1.715   3.730  0.4395  0.3209 -0.6102
 2942SOL     OW11533   0.179   5.160   0.802  0.1414  0.1153 -0.6900
 2942SOL    HW211534   0.230   5.236   0.830 -1.3171  1.0516 -0.5160
 2942SOL    HW311535   0.245   5.099   0.768  1.6761  0.1322  1.9711
 2942SOL    MW411536   0.195   5.162   0.801  0.1514  0.2411 -0.3160
 2943SOL     OW11537   4.763   1.381   6.289 -0.0310 -0.3263 -0.0326
 2943SOL    HW211538   4.779   1.289   6.266 -0.4230 -0.0795 -1.4035
 2943SOL    HW311539   4.796   1.389   6.378  0.6286 -1.6326 -0.1241
 2943SOL    MW411540   4.770   1.370   6.298  0.0043 -0.4661 -0.2256
 2944SOL     OW11541   1.944   0.716   0.160 -0.0711 -0.1096  0.3906
 2944SOL    HW211542   1.883   0.731   0.233  1.2673  0.2579  1.4822
 2944SOL    HW311543   1.890   0.682   0.089 -1.7061  1.1358  0.9931
 2944SOL    MW411544   1.929   0.714   0.161 -0.1102  0.1032  0.6141
 2945SOL     OW11545   4.758   2.112   3.765 -0.2685  0.2496 -0.0918
 2945SOL    HW211546   4.719   2.092   3.679 -0.0315  0.7512 -0.3238
 2945SOL    HW311547   4.836   2.163   3.744 -0.4253  0.7187  0.4384
 2945SOL    MW411548   4.763   2.116   3.751 -0.2579  0.3777 -0.0525
 2946SOL     OW11549   0.422   5.890   3.257 -0.3901 -0.4100  0.1759
 2946SOL    HW211550   0.426   5.799   3.227 -0.5895 -0.5927  0.6948
 2946SOL    HW311551   0.372   5.886   3.338 -2.6722  0.4813 -1.0722
 2946SOL    MW411552   0.416   5.877   3.263 -0.7175 -0.3165  0.0797
 2947SOL     OW11553   0.455   2.457   6.444 -0.3505 -0.1499 -0.0227
 2947SOL    HW211554   0.491   2.458   6.533 -0.5775  0.6272  0.0674
 2947SOL    HW311555   0.405   2.376   6.439  0.9359 -0.9814  0.0387
 2947SOL    MW411556   0.453   2.446   6.455 -0.2107 -0.1571 -0.0027
 2948SOL     OW11557   3.072   0.875   0.780 -0.6026 -0.0187 -0.4196
 2948SOL    HW211558   2.991   0.883   0.832  0.1405  0.3468  0.7092
 2948SOL    HW311559   3.114   0.960   0.789 -0.3650 -0.0071 -1.5055
 2948SOL    MW411560   3.067   0.887   0.788 -0.4732  0.0311 -0.4139
 2949SOL     OW11561   2.094   1.605   1.103 -0.2810 -0.5358  0.2938
 2949SOL    HW211562   2.018   1.661   1.090  0.0796  0.2419  1.3434
 2949SOL    HW311563   2.128   1.590   1.015 -1.3693 -0.5039 -0.1427
 2949SOL    MW411564   2.089   1.610   1.089 -0.3770 -0.4290  0.3747
 2950SOL     OW11565   4.455   1.804   6.083  0.3112  0.4463 -0.8010
 2950SOL    HW211566   4.515   1.836   6.150 -0.1246 -1.6253  0.6693
 2950SOL    HW311567   4.400   1.740   6.128 -1.5498  0.6491 -2.6217
 2950SOL    MW411568   4.455   1.800   6.098  0.0081  0.1997 -0.8472
 2951SOL     OW11569   0.489   6.372   3.895  0.1577 -0.5543  0.7919
 2951SOL    HW211570   0.550   6.338   3.829  0.1349  0.8935 -0.0021
 2951SOL    HW311571   0.416   6.408   3.845  0.0407  0.3784  1.6032
 2951SOL    MW411572   0.488   6.372   3.880  0.1393 -0.2402  0.7942
 2952SOL     OW11573   5.722   5.773   2.251 -0.4825 -0.0344 -0.2169
 2952SOL    HW211574   5.707   5.861   2.216 -1.9367 -0.3007 -0.3183
 2952SOL    HW311575   5.761   5.788   2.337 -0.0949  0.6857 -0.5024
 2952SOL    MW411576   5.725   5.787   2.258 -0.6232  0.0254 -0.2679
 2953SOL     OW11577   6.431   3.115   1.666  0.7126  0.2648 -0.2864
 2953SOL    HW211578   6.350   3.121   1.716  0.6046  0.7962 -0.5208
 2953SOL    HW311579   6.467   3.030   1.689 -0.1855 -0.2096 -0.5981
 2953SOL    MW411580   6.425   3.105   1.675  0.5799  0.2723 -0.3585
 2954SOL     OW11581   4.630   1.966   1.750  0.5788  0.5749 -0.0573
 2954SOL    HW211582   4.550   1.952   1.802  0.2300  1.0029 -0.4736
 2954SOL    HW311583   4.652   1.878   1.717  1.6862 -0.0046  2.0486
 2954SOL    MW411584   4.622   1.952   1.753  0.6789  0.5549  0.1656
 2955SOL     OW11585   2.272   1.501   0.384 -0.1079  0.5524 -0.6422
 2955SOL    HW211586   2.214   1.425   0.383  0.3214  0.2286 -1.9926
 2955SOL    HW311587   2.283   1.524   0.292 -1.9746  3.6005 -0.2604
 2955SOL    MW411588   2.266   1.494   0.372 -0.2975  0.9119 -0.7700
 2956SOL     OW11589   2.219   5.843   6.345  0.3944  0.3356  0.0627
 2956SOL    HW211590   2.313   5.828   6.342  0.4961  0.9751 -0.2051
 2956SOL    HW311591   2.193   5.819   6.434  0.7717 -0.0442  0.0711
 2956SOL    MW411592   2.228   5.838   6.357  0.4576  0.3699  0.0285
 2957SOL     OW11593   4.272   3.396   6.491 -0.1674  0.3582  0.5187
 2957SOL    HW211594   4.231   3.470   6.536 -2.1824  0.3774 -1.1479
 2957SOL    HW311595   4.263   3.417   6.398  0.9003 -1.1276  0.0400
 2957SOL    MW411596   4.265   3.408   6.485 -0.2924  0.1647  0.2357
 2958SOL     OW11597   0.212   6.338   0.711 -0.1933 -0.1780  0.0633
 2958SOL    HW211598   0.200   6.298   0.798  0.6795  0.5409  0.5280
 2958SOL    HW311599   0.214   6.432   0.728 -0.6386 -0.0049 -0.8221
 2958SOL    MW411600   0.211   6.345   0.725 -0.1369 -0.0603  0.0078
 2959SOL     OW11601   3.333   5.627   0.076  0.0699  0.3154  0.4239
 2959SOL    HW211602   3.416   5.594   0.110 -0.0649 -0.1724  0.2998
 2959SOL    HW311603   3.335   5.721   0.093  1.4089  0.6128 -1.1493
 2959SOL    MW411604   3.344   5.635   0.083  0.2288  0.2903  0.2000
 2960SOL     OW11605   1.365   3.988   2.393 -0.1870 -0.7331  0.1693
 2960SOL    HW211606   1.448   3.942   2.405 -0.3761 -1.0618  0.2312
 2960SOL    HW311607   1.300   3.928   2.428 -0.2659  0.3543  1.9774
 2960SOL    MW411608   1.368   3.974   2.399 -0.2224 -0.6330  0.4160
 2961SOL     OW11609   0.988   2.591   3.082  0.2711 -0.0026 -0.2691
 2961SOL    HW211610   0.899   2.601   3.049 -0.9510 -2.0929  2.0838
 2961SOL    HW311611   1.016   2.505   3.052  0.3662 -0.5548  1.3053
 2961SOL    MW411612   0.980   2.581   3.074  0.1224 -0.3513  0.2491
 2962SOL     OW11613   0.744   1.042   3.788 -0.4969 -0.0877  0.4039
 2962SOL    HW211614   0.839   1.029   3.775 -0.3866 -0.0363  1.1613
 2962SOL    HW311615   0.714   1.075   3.704  0.2594  0.4565  0.3350
 2962SOL    MW411616   0.753   1.044   3.775 -0.3826 -0.0091  0.4947
 2963SOL     OW11617   4.837   1.463   5.307  0.3901  0.1638  0.2939
 2963SOL    HW211618   4.785   1.413   5.244  2.3302 -1.4623 -0.1408
 2963SOL    HW311619   4.801   1.440   5.392 -1.6417  1.6336 -0.0985
 2963SOL    MW411620   4.825   1.453   5.310  0.3780  0.1431  0.1847
 2964SOL     OW11621   2.982   6.076   3.556  0.0840  0.0533 -0.2982
 2964SOL    HW211622   2.959   6.052   3.467  0.9417  1.7568 -1.0061
 2964SOL    HW311623   3.059   6.132   3.547  0.8318 -0.5810  1.5867
 2964SOL    MW411624   2.989   6.080   3.543  0.2958  0.1943 -0.1429
 2965SOL     OW11625   4.957   3.536   1.285  0.4067  0.2996  0.4496
 2965SOL    HW211626   5.012   3.595   1.234  1.7508 -0.0090  1.4684
 2965SOL    HW311627   5.005   3.453   1.285 -0.4989 -0.2424  0.6492
 2965SOL    MW411628   4.971   3.533   1.278  0.4646  0.1874  0.6104
 2966SOL     OW11629   0.773   1.067   3.210 -0.0229  0.0869 -0.3809
 2966SOL    HW211630   0.755   0.985   3.166  0.7832 -0.7130  0.7159
 2966SOL    HW311631   0.828   1.043   3.285 -1.9394  1.2511  1.5150
 2966SOL    MW411632   0.778   1.053   3.214 -0.1694  0.1350  0.0140
 2967SOL     OW11633   0.266   2.024   4.686  0.1298 -0.4957 -0.5164
 2967SOL    HW211634   0.301   2.078   4.757 -0.0800  0.0924 -0.8578
 2967SOL    HW311635   0.293   1.935   4.709  0.2920 -0.2802  0.1639
 2967SOL    MW411636   0.274   2.020   4.698  0.1235 -0.3897 -0.4717
 2968SOL     OW11637   0.800   4.931   5.960 -0.1377 -0.1326  0.0145
 2968SOL    HW211638   0.841   4.854   5.997  0.7875  0.7697  0.9279
 2968SOL    HW311639   0.797   4.914   5.866 -0.4615 -1.4973  0.2505
 2968SOL    MW411640   0.805   4.919   5.952 -0.0584 -0.1936  0.1662
 2969SOL     OW11641   1.200   6.273   4.974 -0.0862  0.5431 -0.0621
 2969SOL    HW211642   1.177   6.321   4.894 -0.0812  0.2821 -0.2225
 2969SOL    HW311643   1.286   6.307   4.999  0.0674  0.3818 -0.3615
 2969SOL    MW411644   1.208   6.284   4.967 -0.0652  0.4874 -0.1227
 2970SOL     OW11645   1.020   4.634   5.089 -0.6938 -0.5190 -0.4992
 2970SOL    HW211646   1.054   4.641   5.178 -1.6140 -1.4185 -0.0575
 2970SOL    HW311647   1.097   4.617   5.035 -0.2709 -1.2766  0.3093
 2970SOL    MW411648   1.034   4.633   5.093 -0.7594 -0.7376 -0.3343
 2971SOL     OW11649   5.644   1.026   1.423  1.0260  0.2010  0.0912
 2971SOL    HW211650   5.633   0.931   1.429  0.2987  0.2000 -0.8809
 2971SOL    HW311651   5.728   1.044   1.466  0.1170 -0.5889  2.3537
 2971SOL    MW411652   5.654   1.016   1.429  0.8101  0.0967  0.2615
 2972SOL     OW11653   3.001   5.887   1.450  0.3571  0.4201 -0.0765
 2972SOL    HW211654   2.964   5.921   1.368 -0.8641  0.8243  0.6234
 2972SOL    HW311655   2.971   5.796   1.453  0.0248  0.5321  0.1224
 2972SOL    MW411656   2.992   5.879   1.439  0.1521  0.4882  0.0421
 2973SOL     OW11657   3.539   0.779   5.456 -0.5742 -0.4520 -0.1289
 2973SOL    HW211658   3.494   0.852   5.415  0.0238 -0.2801 -0.4992
 2973SOL    HW311659   3.476   0.707   5.454 -0.6706 -0.3523 -1.0493
 2973SOL    MW411660   3.525   0.779   5.451 -0.5080 -0.4162 -0.2992
 2974SOL     OW11661   5.461   4.892   4.929 -0.0452  0.3101  0.0638
 2974SOL    HW211662   5.543   4.900   4.881 -0.0702 -1.2976 -0.3062
 2974SOL    HW311663   5.394   4.889   4.861 -0.6350  3.2034  0.3940
 2974SOL    MW411664   5.463   4.892   4.914 -0.1263  0.4797  0.0585
 2975SOL     OW11665   3.028   2.639   4.055  0.5410  0.3620  0.3694
 2975SOL    HW211666   3.100   2.619   4.115  0.4774  0.5169  0.4999
 2975SOL    HW311667   3.038   2.733   4.038  0.2765  0.4155  0.5103
 2975SOL    MW411668   3.039   2.649   4.060  0.4977  0.3895  0.4052
 2976SOL     OW11669   4.924   2.101   6.052 -0.5542  0.3368  0.0747
 2976SOL    HW211670   4.890   2.012   6.038  2.8353 -1.1623  0.1402
 2976SOL    HW311671   4.973   2.120   5.972  0.7741  1.0679  1.0281
 2976SOL    MW411672   4.926   2.092   6.040  0.0683  0.2355  0.2092
 2977SOL     OW11673   1.520   4.409   1.446  0.0279  0.0671  0.3506
 2977SOL    HW211674   1.476   4.492   1.464 -1.1205 -0.7588  1.5341
 2977SOL    HW311675   1.604   4.416   1.492 -0.3547  0.3056  1.0286
 2977SOL    MW411676   1.525   4.421   1.454 -0.1741 -0.0104  0.5962
 2978SOL     OW11677   1.299   3.847   3.284 -0.2628  0.0960 -0.3572
 2978SOL    HW211678   1.313   3.808   3.371 -1.5442  0.8346  0.2084
 2978SOL    HW311679   1.267   3.775   3.230  0.2142 -0.2903 -0.1385
 2978SOL    MW411680   1.297   3.832   3.289 -0.3689  0.1425 -0.2537
 2979SOL     OW11681   5.217   1.847   2.665 -0.2662  0.4536 -0.3288
 2979SOL    HW211682   5.295   1.865   2.718  0.0668 -0.5160 -0.4617
 2979SOL    HW311683   5.246   1.863   2.575  0.1119 -0.8884 -0.4729
 2979SOL    MW411684   5.231   1.852   2.660 -0.1724  0.1486 -0.3654
 2980SOL     OW11685   0.664   1.927   4.987 -0.6043  0.2214  0.1810
 2980SOL    HW211686   0.716   1.855   4.951 -1.7875 -0.7588  0.3555
 2980SOL    HW311687   0.663   1.993   4.918 -2.1405 -1.2798 -1.3540
 2980SOL    MW411688   0.671   1.926   4.973 -0.9631 -0.1060  0.0015
 2981SOL     OW11689   6.225   1.752   1.551  0.5711  0.0688  0.2151
 2981SOL    HW211690   6.172   1.831   1.533  1.7270  0.9808  0.6999
 2981SOL    HW311691   6.295   1.756   1.487  0.0751 -1.1518 -0.4360
 2981SOL    MW411692   6.227   1.763   1.540  0.6582  0.0281  0.1932
 2982SOL     OW11693   2.290   5.278   0.555  0.2536 -0.2611  0.1318
 2982SOL    HW211694   2.216   5.307   0.501  0.3164 -0.0390  0.1661
 2982SOL    HW311695   2.367   5.290   0.499  0.1618 -1.5222 -0.3148
 2982SOL    MW411696   2.290   5.283   0.540  0.2498 -0.3982  0.0774
 2983SOL     OW11697   1.484   5.545   2.189 -0.2724 -0.1532 -0.9715
 2983SOL    HW211698   1.553   5.557   2.124 -2.0396 -0.6195 -3.0918
 2983SOL    HW311699   1.410   5.595   2.154 -0.5204  1.9547  2.1880
 2983SOL    MW411700   1.483   5.553   2.176 -0.5383  0.0634 -0.8344
 2984SOL     OW11701   3.709   5.397   3.991 -0.0043 -0.1616 -0.6084
 2984SOL    HW211702   3.661   5.478   3.976  0.5060  0.3002  0.1251
 2984SOL    HW311703   3.746   5.374   3.906 -0.7640 -0.0331 -0.9798
 2984SOL    MW411704   3.708   5.405   3.978 -0.0372 -0.0837 -0.5607
 2985SOL     OW11705   3.837   1.826   1.803  0.5338  0.0065 -0.3045
 2985SOL    HW211706   3.768   1.802   1.865  0.4494  0.1936 -0.3230
 2985SOL    HW311707   3.852   1.747   1.750  0.7955 -0.2373  0.1297
 2985SOL    MW411708   3.830   1.813   1.804  0.5571 -0.0010 -0.2496
 2986SOL     OW11709   4.305   3.325   2.383  0.2930 -0.0372 -0.3720
 2986SOL    HW211710   4.211   3.335   2.371  0.4648  1.9095 -0.2584
 2986SOL    HW311711   4.327   3.380   2.458  1.4993 -0.6208 -0.2642
 2986SOL    MW411712   4.296   3.333   2.391  0.4748  0.1427 -0.3428
 2987SOL     OW11713   4.269   0.281   3.120 -0.1511  0.0300  0.0155
 2987SOL    HW211714   4.336   0.227   3.162  1.1036  1.5272  0.0233
 2987SOL    HW311715   4.270   0.252   3.029  1.2496  0.7020 -0.2084
 2987SOL    MW411716   4.278   0.270   3.113  0.1993  0.3162 -0.0130
 2988SOL     OW11717   0.275   0.680   5.325  0.0051 -0.3361 -0.0808
 2988SOL    HW211718   0.276   0.772   5.300 -1.4019 -0.7261 -1.8025
 2988SOL    HW311719   0.354   0.644   5.287  0.2771  0.0303  0.1256
 2988SOL    MW411720   0.285   0.687   5.317 -0.1446 -0.3392 -0.2807
 2989SOL     OW11721   4.793   5.839   3.574 -0.5211 -0.0031 -0.0512
 2989SOL    HW211722   4.761   5.832   3.664 -0.9383  1.0454 -0.1051
 2989SOL    HW311723   4.765   5.926   3.545  2.1040  0.8668 -0.2241
 2989SOL    MW411724   4.785   5.850   3.582 -0.2298  0.2501 -0.0811
 2990SOL     OW11725   2.183   3.391   3.834  0.2992 -0.3669  0.2239
 2990SOL    HW211726   2.212   3.472   3.792 -1.2038  0.3531  0.5089
 2990SOL    HW311727   2.168   3.415   3.926 -0.1630 -0.9661  0.3130
 2990SOL    MW411728   2.185   3.405   3.841  0.0399 -0.3510  0.2733
 2991SOL     OW11729   1.591   1.581   0.299 -0.1622  0.5183 -0.2228
 2991SOL    HW211730   1.646   1.654   0.273 -0.0644 -0.3285 -2.5694
 2991SOL    HW311731   1.503   1.617   0.302 -0.1231  0.7555 -1.4421
 2991SOL    MW411732   1.587   1.595   0.296 -0.1442  0.4379 -0.6933
 2992SOL     OW11733   0.329   2.928   5.175  0.4767  0.5096 -0.6083
 2992SOL    HW211734   0.388   2.855   5.197  1.4339  2.0631  2.5505
 2992SOL    HW311735   0.305   2.966   5.260 -2.3358  2.1211 -1.9884
 2992SOL    MW411736   0.334   2.923   5.189  0.2319  0.9272 -0.3736
 2993SOL     OW11737   2.990   2.685   2.828  0.1481  0.0623 -0.3766
 2993SOL    HW211738   2.939   2.760   2.800 -0.8181 -0.2809  0.4113
 2993SOL    HW311739   3.075   2.696   2.784 -0.0927  1.4074 -0.5446
 2993SOL    MW411740   2.995   2.696   2.818 -0.0111  0.1945 -0.2948
 2994SOL     OW11741   5.496   5.065   2.884 -0.0607  0.1229  0.3400
 2994SOL    HW211742   5.578   5.029   2.915 -0.4004  0.3985  1.6225
 2994SOL    HW311743   5.461   5.114   2.959 -0.3232  1.8683 -0.8654
 2994SOL    MW411744   5.502   5.067   2.898 -0.1401  0.3895  0.3501
 2995SOL     OW11745   1.132   1.678   4.311  0.0041  0.2210 -1.1565
 2995SOL    HW211746   1.198   1.650   4.247  0.8015  1.9891 -1.1662
 2995SOL    HW311747   1.082   1.746   4.265 -0.5216  0.3047 -0.4684
 2995SOL    MW411748   1.134   1.683   4.296  0.0399  0.4653 -1.0670
 2996SOL     OW11749   1.103   4.887   1.598 -0.0229 -0.0617  0.3144
 2996SOL    HW211750   1.122   4.856   1.686  0.8192 -1.9921 -0.5017
 2996SOL    HW311751   1.118   4.812   1.541  0.8779  1.5012 -1.6670
 2996SOL    MW411752   1.108   4.873   1.602  0.2070 -0.1102 -0.0547
 2997SOL     OW11753   3.066   3.107   3.512  0.0283 -0.3782 -0.2009
 2997SOL    HW211754   2.995   3.169   3.495 -0.4095 -1.3911 -2.5554
 2997SOL    HW311755   3.041   3.063   3.594 -0.0350  1.9218  1.0855
 2997SOL    MW411756   3.054   3.109   3.521 -0.0379 -0.2084 -0.3418
 2998SOL     OW11757   3.038   5.587   1.470  0.5107 -0.3657  0.0497
 2998SOL    HW211758   3.020   5.615   1.560  0.3234 -3.2210  0.9859
 2998SOL    HW311759   2.956   5.602   1.424  0.7204  1.4799  0.2048
 2998SOL    MW411760   3.025   5.593   1.476  0.5137 -0.4989  0.1937
 2999SOL     OW11761   5.278   1.429   6.486  0.4431  0.4855  0.1384
 2999SOL    HW211762   5.257   1.338   6.506 -1.7824  0.6196 -1.2771
 2999SOL    HW311763   5.358   1.446   6.535  1.3388 -2.4297 -0.1254
 2999SOL    MW411764   5.285   1.419   6.495  0.2676  0.1186 -0.0832
 3000SOL     OW11765   5.797   5.456   4.707  0.5369  0.3158 -0.3027
 3000SOL    HW211766   5.844   5.373   4.695  0.6933  0.5879 -1.8445
 3000SOL    HW311767   5.717   5.432   4.754 -0.7505 -1.2369 -3.0200
 3000SOL    MW411768   5.793   5.442   4.711  0.3877  0.1468 -0.8647
 3001SOL     OW11769   2.220   5.537   3.305 -0.7603 -0.0991  0.9075
 3001SOL    HW211770   2.132   5.534   3.343 -0.2665 -0.1399  2.0972
 3001SOL    HW311771   2.229   5.454   3.260 -0.7425 -0.8256  2.1904
 3001SOL    MW411772   2.209   5.526   3.304 -0.6928 -0.2003  1.2337
 3002SOL     OW11773   3.733   6.307   5.743  0.0662 -0.3653  0.1272
 3002SOL    HW211774   3.797   6.350   5.687 -0.2179 -1.5936 -1.1925
 3002SOL    HW311775   3.649   6.328   5.702 -0.1968 -0.7233  0.4873
 3002SOL    MW411776   3.730   6.316   5.730 -0.0059 -0.5746  0.0006
 3003SOL     OW11777   2.414   0.584   0.479 -0.6403 -0.0219  0.3321
 3003SOL    HW211778   2.476   0.580   0.552  1.2792 -1.1644 -1.2195
 3003SOL    HW311779   2.418   0.497   0.440 -0.2135  0.9957 -2.1319
 3003SOL    MW411780   2.423   0.572   0.483 -0.3307 -0.0384 -0.1977
 3004SOL     OW11781   4.352   2.656   1.626 -0.2689 -0.5420 -0.1866
 3004SOL    HW211782   4.419   2.600   1.665 -0.1914 -0.6861 -0.5258
 3004SOL    HW311783   4.311   2.700   1.701  0.1980 -0.4567  0.0209
 3004SOL    MW411784   4.355   2.655   1.641 -0.1971 -0.5498 -0.2040
 3005SOL     OW11785   4.111   3.456   0.862 -0.5992  0.5819 -0.2100
 3005SOL    HW211786   4.114   3.550   0.882 -1.6464  1.1710 -2.5021
 3005SOL    HW311787   4.200   3.435   0.831 -0.6484  1.0588 -0.6742
 3005SOL    MW411788   4.123   3.466   0.861 -0.7439  0.7225 -0.5736
 3006SOL     OW11789   0.617   0.642   3.207 -0.2019  0.0830 -0.2572
 3006SOL    HW211790   0.555   0.713   3.187 -2.1882 -1.3455  0.4665
 3006SOL    HW311791   0.619   0.639   3.303  0.8962 -0.0246 -0.2694
 3006SOL    MW411792   0.609   0.651   3.217 -0.3191 -0.1197 -0.1633
 3007SOL     OW11793   1.831   2.864   3.810  0.0341  0.2463 -0.0031
 3007SOL    HW211794   1.753   2.913   3.837  0.3372  0.1956  1.0130
 3007SOL    HW311795   1.905   2.917   3.839  0.3679 -0.2489  0.0698
 3007SOL    MW411796   1.830   2.877   3.818  0.1181  0.1743  0.1405
 3008SOL     OW11797   5.499   3.812   2.345  0.0265  0.1564 -0.6114
 3008SOL    HW211798   5.447   3.782   2.271 -0.7449 -0.4099  0.1445
 3008SOL    HW311799   5.497   3.739   2.407  0.0051  0.9141  0.3033
 3008SOL    MW411800   5.492   3.799   2.343 -0.0781  0.1817 -0.3910
 3009SOL     OW11801   0.273   5.504   3.865  0.2896  0.5114  0.4168
 3009SOL    HW211802   0.345   5.557   3.898  0.1566  0.0078  1.5564
 3009SOL    HW311803   0.196   5.535   3.912 -0.8357  2.8368 -2.6176
 3009SOL    MW411804   0.273   5.515   3.876  0.1235  0.7518  0.1668
 3010SOL     OW11805   4.311   3.878   2.479 -0.7454 -0.0183  0.2960
 3010SOL    HW211806   4.331   3.889   2.386  1.4917  1.0062  0.8247
 3010SOL    HW311807   4.232   3.825   2.480  0.9380 -2.9723 -2.1671
 3010SOL    MW411808   4.304   3.873   2.466 -0.2281 -0.2729  0.0408
 3011SOL     OW11809   1.539   4.972   1.708  0.0393  0.4516  0.6222
 3011SOL    HW211810   1.455   5.010   1.684  0.8252  0.9831 -1.5363
 3011SOL    HW311811   1.532   4.880   1.683  0.0873  0.4991  0.4304
 3011SOL    MW411812   1.527   4.965   1.702  0.1493  0.5280  0.3121
 3012SOL     OW11813   3.486   2.737   2.315 -0.0435 -0.2689  0.0947
 3012SOL    HW211814   3.504   2.746   2.222 -0.8951 -1.4101 -0.2005
 3012SOL    HW311815   3.478   2.827   2.347  2.4408  0.2176 -0.4607
 3012SOL    MW411816   3.488   2.750   2.307  0.1719 -0.3553 -0.0176
 3013SOL     OW11817   2.553   4.325   3.731  0.1005 -0.3520  0.1418
 3013SOL    HW211818   2.642   4.328   3.696 -0.4098  0.0938 -1.1754
 3013SOL    HW311819   2.554   4.387   3.803  0.6477  0.2840 -0.3963
 3013SOL    MW411820   2.565   4.334   3.736  0.1054 -0.2092 -0.1030
 3014SOL     OW11821   5.676   0.781   5.514  0.1533 -0.0647 -0.2179
 3014SOL    HW211822   5.643   0.848   5.453 -2.3876  2.2901  3.3061
 3014SOL    HW311823   5.747   0.824   5.561  1.3830 -1.4518 -0.7594
 3014SOL    MW411824   5.681   0.796   5.512 -0.0197  0.0630  0.1756
 3015SOL     OW11825   2.277   1.317   6.441  0.5147  0.3862 -0.8407
 3015SOL    HW211826   2.282   1.408   6.468 -0.7391  0.0818  0.5312
 3015SOL    HW311827   2.222   1.318   6.362 -0.9538  0.6707  0.1442
 3015SOL    MW411828   2.271   1.329   6.434  0.1555  0.3835 -0.5297
 3016SOL     OW11829   2.230   4.941   0.230 -0.2998 -0.6751 -0.4866
 3016SOL    HW211830   2.308   4.992   0.212 -0.1335 -0.3982  0.9082
 3016SOL    HW311831   2.179   4.945   0.149  0.3755  0.4943 -0.8747
 3016SOL    MW411832   2.233   4.948   0.217 -0.1888 -0.4843 -0.3538
 3017SOL     OW11833   0.767   1.465   1.614 -0.2817 -0.2394  0.0449
 3017SOL    HW211834   0.680   1.497   1.589 -0.2438 -0.1779 -0.0103
 3017SOL    HW311835   0.772   1.480   1.709 -0.3561 -0.3035  0.0586
 3017SOL    MW411836   0.756   1.471   1.623 -0.2865 -0.2397  0.0394
 3018SOL     OW11837   5.484   2.114   3.797  0.2038 -0.6296  0.1087
 3018SOL    HW211838   5.482   2.018   3.793 -0.2594 -0.5649 -2.1282
 3018SOL    HW311839   5.536   2.141   3.722  2.1048  0.8834  1.8449
 3018SOL    MW411840   5.490   2.105   3.787  0.3935 -0.4215  0.0426
 3019SOL     OW11841   2.166   3.344   3.450  0.3432  0.3684  0.0324
 3019SOL    HW211842   2.115   3.397   3.511 -0.1453  1.9497 -1.6480
 3019SOL    HW311843   2.114   3.345   3.369  0.7874 -1.9501 -0.3260
 3019SOL    MW411844   2.152   3.351   3.447  0.3374  0.2712 -0.2366
 3020SOL     OW11845   0.096   4.129   1.992 -0.4588  0.0909  0.4592
 3020SOL    HW211846   0.096   4.049   1.939 -1.0875  0.6111 -0.3510
 3020SOL    HW311847   0.154   4.109   2.065  0.7362 -0.5326 -0.6123
 3020SOL    MW411848   0.104   4.116   1.995 -0.3841  0.0772  0.2109
 3021SOL     OW11849   0.928   3.106   4.787  0.6672  0.1695  0.1717
 3021SOL    HW211850   0.871   3.123   4.862  0.0050 -1.6052  0.1294
 3021SOL    HW311851   0.896   3.022   4.752  0.3096  1.3883 -2.6958
 3021SOL    MW411852   0.916   3.097   4.792  0.5326  0.0962 -0.2122
 3022SOL     OW11853   5.558   3.479   1.216  0.0816 -0.0921 -0.0218
 3022SOL    HW211854   5.653   3.486   1.222  0.0060  1.0520  0.1390
 3022SOL    HW311855   5.537   3.504   1.126 -0.1768  1.4005  0.4243
 3022SOL    MW411856   5.568   3.484   1.205  0.0376  0.2558  0.0583
 3023SOL     OW11857   5.104   4.060   6.057 -0.4609 -0.2092  0.0220
 3023SOL    HW211858   5.016   4.031   6.033 -0.2708 -0.2535 -0.6379
 3023SOL    HW311859   5.090   4.144   6.101 -0.6393  1.5614 -3.1021
 3023SOL    MW411860   5.091   4.068   6.060 -0.4594  0.0186 -0.4772
 3024SOL     OW11861   1.624   0.934   1.831 -0.3054 -0.2810 -0.4326
 3024SOL    HW211862   1.671   0.866   1.784  0.9368 -0.3315  0.8137
 3024SOL    HW311863   1.652   0.924   1.922 -1.6996  0.5762  0.1287
 3024SOL    MW411864   1.634   0.924   1.837 -0.3254 -0.1745 -0.1941
 3025SOL     OW11865   0.349   2.192   4.906  0.2763  0.3817  0.6232
 3025SOL    HW211866   0.411   2.193   4.979  0.1380 -0.9905  0.7862
 3025SOL    HW311867   0.265   2.212   4.946 -0.1335 -2.1694  1.2424
 3025SOL    MW411868   0.346   2.195   4.921  0.2040 -0.1359  0.7264
 3026SOL     OW11869   4.512   0.942   3.780 -0.7466 -0.1945  0.0194
 3026SOL    HW211870   4.457   0.951   3.702  0.5173 -0.0988 -0.9003
 3026SOL    HW311871   4.596   0.981   3.754 -0.2907 -0.1937  1.4275
 3026SOL    MW411872   4.516   0.948   3.766 -0.5197 -0.1818  0.0838
 3027SOL     OW11873   1.571   3.400   1.972  0.0442 -0.1654  0.6352
 3027SOL    HW211874   1.641   3.438   1.918 -0.2241  1.8915  1.6115
 3027SOL    HW311875   1.490   3.423   1.926 -0.0578 -3.0535 -0.8038
 3027SOL    MW411876   1.570   3.408   1.959 -0.0046 -0.2751  0.5742
 3028SOL     OW11877   3.443   3.361   5.237 -0.3112  0.3161 -0.6946
 3028SOL    HW211878   3.389   3.431   5.199  2.7084  2.3198 -1.5943
 3028SOL    HW311879   3.505   3.405   5.294 -0.6392 -2.0864  1.7539
 3028SOL    MW411880   3.444   3.376   5.239  0.0439  0.2635 -0.4902
 3029SOL     OW11881   5.573   5.767   0.873 -0.1048 -0.0159  0.3165
 3029SOL    HW211882   5.521   5.755   0.794 -0.7755  1.4829  0.5055
 3029SOL    HW311883   5.643   5.826   0.847  1.7089 -2.1750  0.0101
 3029SOL    MW411884   5.575   5.773   0.859  0.0460 -0.1030  0.3010
 3030SOL     OW11885   1.113   3.784   4.145  0.8131  0.2180 -0.2904
 3030SOL    HW211886   1.043   3.725   4.174 -0.6015  0.7902 -2.3501
 3030SOL    HW311887   1.100   3.793   4.051  1.9005  2.6591 -0.2901
 3030SOL    MW411888   1.102   3.777   4.137  0.7699  0.6156 -0.5621
 3031SOL     OW11889   5.881   4.105   3.378 -0.1980 -0.1415 -0.1044
 3031SOL    HW211890   5.899   4.122   3.285 -2.4828  1.2199 -0.3831
 3031SOL    HW311891   5.957   4.141   3.424  0.2570  0.5767 -1.3657
 3031SOL    MW411892   5.893   4.112   3.372 -0.4394  0.1329 -0.3076
 3032SOL     OW11893   2.493   1.821   0.491 -0.9378 -0.5625 -0.4526
 3032SOL    HW211894   2.575   1.773   0.481 -0.5954  0.4093 -3.1842
 3032SOL    HW311895   2.453   1.785   0.571  3.0854  0.3911  2.3020
 3032SOL    MW411896   2.498   1.810   0.501 -0.3618 -0.3085 -0.4495
 3033SOL     OW11897   1.699   4.145   3.871  0.3343  0.3677  0.4126
 3033SOL    HW211898   1.676   4.235   3.895 -0.1258 -0.0875  1.7743
 3033SOL    HW311899   1.783   4.130   3.915  0.8010  0.3889 -0.4664
 3033SOL    MW411900   1.707   4.155   3.880  0.3351  0.3105  0.4763
 3034SOL     OW11901   3.995   2.706   0.099 -0.1788  0.2518 -0.3257
 3034SOL    HW211902   3.963   2.622   0.131 -1.9981  1.2733  0.6672
 3034SOL    HW311903   3.965   2.770   0.164 -0.0794  1.8452 -1.7794
 3034SOL    MW411904   3.987   2.704   0.112 -0.4057  0.5968 -0.3865
 3035SOL     OW11905   4.638   0.524   4.515 -0.0318  0.0466  0.9331
 3035SOL    HW211906   4.716   0.565   4.478 -0.0441 -1.2216 -0.6064
 3035SOL    HW311907   4.669   0.442   4.554 -0.4918 -0.1935  0.8114
 3035SOL    MW411908   4.652   0.518   4.516 -0.0941 -0.1524  0.7139
 3036SOL     OW11909   1.267   5.071   3.603  0.2634  0.0685 -0.0316
 3036SOL    HW211910   1.346   5.122   3.582 -1.2944  1.7080 -2.4242
 3036SOL    HW311911   1.195   5.132   3.587 -1.6294 -2.2373 -0.7806
 3036SOL    MW411912   1.268   5.086   3.598 -0.1919 -0.0194 -0.4461
 3037SOL     OW11913   0.086   0.461   2.114 -0.2187  0.0529 -0.2966
 3037SOL    HW211914   0.054   0.425   2.031 -1.7560  0.5331  0.0604
 3037SOL    HW311915   0.156   0.521   2.088 -0.4966 -0.0048 -1.2287
 3037SOL    MW411916   0.091   0.464   2.099 -0.4582  0.1086 -0.3725
 3038SOL     OW11917   4.755   5.978   2.525  0.7950  0.6818 -0.3290
 3038SOL    HW211918   4.769   5.902   2.582  1.3235 -0.0723 -1.4237
 3038SOL    HW311919   4.717   6.044   2.582 -1.1839 -0.9157  0.3424
 3038SOL    MW411920   4.752   5.976   2.540  0.6037  0.3715 -0.3848
 3039SOL     OW11921   1.034   0.595   0.255 -0.2735 -0.0310 -0.5426
 3039SOL    HW211922   0.975   0.670   0.264  0.1067  0.2159 -0.0315
 3039SOL    HW311923   1.081   0.611   0.173 -0.4483  0.1010 -0.6184
 3039SOL    MW411924   1.032   0.607   0.245 -0.2464  0.0190 -0.4852
 3040SOL     OW11925   2.574   3.451   1.858 -0.0478 -0.6765 -0.0551
 3040SOL    HW211926   2.542   3.435   1.769  1.0483  0.1842 -0.6258
 3040SOL    HW311927   2.669   3.443   1.852 -0.0490 -3.0697  1.5902
 3040SOL    MW411928   2.582   3.448   1.846  0.0967 -0.8787  0.0867
 3041SOL     OW11929   2.360   0.610   0.071  0.1528 -0.4433 -0.8036
 3041SOL    HW211930   2.292   0.592   0.135 -0.8071 -0.5641 -1.8311
 3041SOL    HW311931   2.426   0.661   0.119  0.0804 -1.6077  0.5980
 3041SOL    MW411932   2.360   0.614   0.086  0.0166 -0.6129 -0.7543
 3042SOL     OW11933   4.266   2.404   4.714 -0.2150  0.3665 -0.1580
 3042SOL    HW211934   4.174   2.430   4.717 -0.5945 -0.8444 -0.7300
 3042SOL    HW311935   4.293   2.401   4.806 -0.5571  1.3210 -0.0126
 3042SOL    MW411936   4.258   2.407   4.727 -0.3102  0.3327 -0.2143
 3043SOL     OW11937   5.968   2.650   5.809 -0.6320 -0.1691 -0.1802
 3043SOL    HW211938   5.873   2.645   5.815 -0.5735 -2.5782 -0.1424
 3043SOL    HW311939   5.998   2.658   5.899 -0.7811 -0.1512 -0.1325
 3043SOL    MW411940   5.959   2.650   5.822 -0.6440 -0.4846 -0.1689
 3044SOL     OW11941   0.123   6.140   5.450  0.5865 -0.3755  0.2515
 3044SOL    HW211942   0.080   6.140   5.365 -0.4458 -0.0283  0.7516
 3044SOL    HW311943   0.065   6.193   5.506  0.1247 -2.2926  1.7031
 3044SOL    MW411944   0.110   6.147   5.446  0.3894 -0.5826  0.5090
 3045SOL     OW11945   5.861   0.430   1.663  0.2890 -0.0674 -0.2803
 3045SOL    HW211946   5.791   0.494   1.655 -0.9263 -1.3128  0.0033
 3045SOL    HW311947   5.856   0.400   1.754  1.4260  0.0713 -0.1569
 3045SOL    MW411948   5.851   0.434   1.674  0.2786 -0.2134 -0.2266
 3046SOL     OW11949   2.055   3.250   1.528  0.0588  0.4113  0.7241
 3046SOL    HW211950   2.051   3.183   1.460 -0.3096  2.0936 -0.9683
 3046SOL    HW311951   2.096   3.205   1.603  1.0669 -1.3040 -0.7792
 3046SOL    MW411952   2.060   3.235   1.529  0.1432  0.4070  0.3025
 3047SOL     OW11953   3.395   3.517   6.093 -0.7417 -0.3576  0.3314
 3047SOL    HW211954   3.309   3.504   6.052 -0.4338 -0.4431 -0.3037
 3047SOL    HW311955   3.451   3.449   6.054 -0.4931 -0.5811  1.0651
 3047SOL    MW411956   3.391   3.506   6.082 -0.6683 -0.3984  0.3444
 3048SOL     OW11957   2.579   2.635   6.419 -0.4490 -1.0106 -0.0968
 3048SOL    HW211958   2.511   2.659   6.482 -1.5057 -2.7645 -0.5033
 3048SOL    HW311959   2.533   2.626   6.336  1.0086  1.8106 -1.3444
 3048SOL    MW411960   2.564   2.637   6.417 -0.3961 -0.8698 -0.3150
 3049SOL     OW11961   1.445   3.429   2.580 -0.5813  0.5309  0.3877
 3049SOL    HW211962   1.385   3.420   2.653  0.7651 -0.5338  1.4235
 3049SOL    HW311963   1.483   3.516   2.590 -0.2459  0.3120  1.1097
 3049SOL    MW411964   1.442   3.439   2.591 -0.3594  0.3616  0.6196
 3050SOL     OW11965   4.268   0.422   6.159  0.0611  0.3591 -0.8700
 3050SOL    HW211966   4.290   0.329   6.151 -2.3103 -0.3749  0.2377
 3050SOL    HW311967   4.217   0.442   6.081 -2.8394 -0.4547  0.6495
 3050SOL    MW411968   4.264   0.412   6.148 -0.6345  0.1549 -0.5234
 3051SOL     OW11969   1.170   0.188   0.316  0.5286 -0.3763  0.0859
 3051SOL    HW211970   1.087   0.197   0.363 -0.3973 -1.5133 -1.2278
 3051SOL    HW311971   1.200   0.278   0.302 -0.3252  0.0460  0.8669
 3051SOL    MW411972   1.163   0.201   0.320  0.2938 -0.4706  0.0157
 3052SOL     OW11973   1.358   3.878   6.165  0.8652  0.2014 -0.4046
 3052SOL    HW211974   1.269   3.911   6.159  1.2189  1.0029 -1.7219
 3052SOL    HW311975   1.354   3.807   6.229 -0.1841  1.9040  1.5001
 3052SOL    MW411976   1.346   3.873   6.173  0.7734  0.5318 -0.3271
 3053SOL     OW11977   0.933   2.803   5.174 -0.2910  0.2317  0.5809
 3053SOL    HW211978   0.938   2.859   5.252 -0.4194  0.6013  0.3249
 3053SOL    HW311979   0.954   2.715   5.207  0.0737  0.4523  0.9557
 3053SOL    MW411980   0.936   2.799   5.189 -0.2598  0.3096  0.5966
 3054SOL     OW11981   2.973   2.536   2.459  0.2238 -0.0024  0.0575
 3054SOL    HW211982   3.055   2.584   2.449  0.3586  0.0057  1.1211
 3054SOL    HW311983   2.955   2.501   2.371  1.5577 -0.3343 -0.1039
 3054SOL    MW411984   2.981   2.538   2.446  0.4176 -0.0451  0.1765
 3055SOL     OW11985   3.325   0.959   3.248 -0.2178 -0.3944  0.2206
 3055SOL    HW211986   3.367   0.949   3.333 -0.5411 -0.3655  0.3877
 3055SOL    HW311987   3.357   0.885   3.196 -1.0552 -1.2069  0.8103
 3055SOL    MW411988   3.335   0.948   3.252 -0.3709 -0.4978  0.3204
 3056SOL     OW11989   3.902   2.423   3.514 -0.0793 -0.6871 -0.0631
 3056SOL    HW211990   3.966   2.466   3.458 -0.8901  2.1942  1.0874
 3056SOL    HW311991   3.817   2.443   3.474 -0.5732  0.1704  1.3624
 3056SOL    MW411992   3.899   2.431   3.501 -0.2514 -0.1938  0.2768
 3057SOL     OW11993   4.714   6.222   5.796 -0.0526 -0.2892  0.0436
 3057SOL    HW211994   4.745   6.307   5.828  0.0608 -0.6318  0.8807
 3057SOL    HW311995   4.733   6.222   5.703 -0.6080  0.8548 -0.0898
 3057SOL    MW411996   4.720   6.234   5.788 -0.1109 -0.1835  0.1364
 3058SOL     OW11997   0.791   1.708   4.884 -0.4055  0.0195  0.4391
 3058SOL    HW211998   0.824   1.709   4.794 -2.1521  1.6091 -0.2524
 3058SOL    HW311999   0.746   1.624   4.892  3.1793 -1.9980  1.2718
 3058SOL    MW412000   0.789   1.697   4.873 -0.1630 -0.0370  0.4577
 3059SOL     OW12001   0.126   4.147   6.081 -0.1171 -0.0399 -0.0709
 3059SOL    HW212002   0.112   4.102   6.164 -0.4071  1.9669  1.0345
 3059SOL    HW312003   0.092   4.235   6.096 -0.0611  0.4039 -2.2962
 3059SOL    MW412004   0.120   4.153   6.094 -0.1480  0.2834 -0.2187
 3060SOL     OW12005   3.128   5.625   1.976 -0.1894 -0.2063 -0.0309
 3060SOL    HW212006   3.217   5.630   1.942  0.4189 -0.3056  1.4939
 3060SOL    HW312007   3.073   5.646   1.901  1.1650  1.1103 -0.7045
 3060SOL    MW412008   3.132   5.629   1.962  0.0696 -0.0457  0.0814
 3061SOL     OW12009   5.145   3.341   1.277 -0.3030  0.3432  0.0908
 3061SOL    HW212010   5.165   3.303   1.192  1.3804  0.7513  0.2549
 3061SOL    HW312011   5.118   3.267   1.331  0.4745 -0.2278 -0.2820
 3061SOL    MW412012   5.144   3.327   1.273  0.0217  0.3217  0.0633
 3062SOL     OW12013   2.178   0.792   3.618  0.4665 -0.1032 -1.3365
 3062SOL    HW212014   2.235   0.719   3.591  0.3920 -0.9436  0.5492
 3062SOL    HW312015   2.234   0.845   3.675  0.1211  0.5480 -1.6037
 3062SOL    MW412016   2.193   0.789   3.622  0.4111 -0.1281 -1.1229
 3063SOL     OW12017   2.455   5.795   4.353 -0.3412 -0.1418  0.7261
 3063SOL    HW212018   2.522   5.731   4.328 -0.9549  0.0446 -1.7198
 3063SOL    HW312019   2.503   5.875   4.372  0.2488 -0.5362  0.9060
 3063SOL    MW412020   2.470   5.797   4.352 -0.3443 -0.1692  0.4271
 3064SOL     OW12021   1.222   0.658   3.080 -0.0618 -0.9453 -0.2802
 3064SOL    HW212022   1.182   0.725   3.136  1.4867 -1.8438  2.0895
 3064SOL    HW312023   1.163   0.650   3.006 -2.4191  0.1809  1.3456
 3064SOL    MW412024   1.209   0.666   3.078 -0.1685 -0.9153  0.2469
 3065SOL     OW12025   4.006   1.078   2.634  0.6721  0.4850  0.4947
 3065SOL    HW212026   4.088   1.123   2.617  0.3512  0.7871 -0.3430
 3065SOL    HW312027   3.939   1.144   2.618  0.1916 -0.2379 -0.6852
 3065SOL    MW412028   4.008   1.092   2.629  0.5664  0.4295  0.2285
 3066SOL     OW12029   4.756   4.215   4.871 -0.0298 -0.2891 -0.1201
 3066SOL    HW212030   4.663   4.237   4.872 -0.0203 -0.2339 -0.3142
 3066SOL    HW312031   4.783   4.218   4.963  0.2463  1.7209 -0.2261
 3066SOL    MW412032   4.747   4.218   4.883  0.0078 -0.0166 -0.1597
 3067SOL     OW12033   0.100   6.366   4.867 -0.2724 -0.1520 -0.5559
 3067SOL    HW212034   0.157   6.397   4.937 -0.9082  1.0994 -0.5658
 3067SOL    HW312035   0.125   6.417   4.790  0.2084 -1.2929 -1.1791
 3067SOL    MW412036   0.111   6.377   4.866 -0.2928 -0.1374 -0.6394
 3068SOL     OW12037   1.349   2.950   0.744 -0.5963  0.3855  0.3649
 3068SOL    HW212038   1.398   2.918   0.667 -0.3668  0.0226  0.6568
 3068SOL    HW312039   1.277   3.001   0.707 -2.3841 -2.3469 -0.2440
 3068SOL    MW412040   1.346   2.953   0.729 -0.8019 -0.0229  0.3231
 3069SOL     OW12041   4.514   2.361   5.242 -0.4558  0.5643 -0.5496
 3069SOL    HW212042   4.567   2.421   5.295  0.9079  0.2697 -1.5067
 3069SOL    HW312043   4.424   2.378   5.269  0.1157  1.0243  1.2272
 3069SOL    MW412044   4.509   2.371   5.252 -0.2005  0.5861 -0.4415
 3070SOL     OW12045   1.417   4.587   3.393 -0.4045 -0.7977 -0.2620
 3070SOL    HW212046   1.343   4.581   3.332  0.1847  1.1426 -1.2312
 3070SOL    HW312047   1.380   4.626   3.472 -0.5198 -0.2687 -0.5737
 3070SOL    MW412048   1.402   4.591   3.396 -0.3420 -0.4719 -0.4310
 3071SOL     OW12049   1.674   6.057   0.569 -0.0042 -0.4875  0.3097
 3071SOL    HW212050   1.707   6.019   0.487  0.5209  1.6640 -0.5465
 3071SOL    HW312051   1.581   6.069   0.554 -0.4487 -2.5531  1.0921
 3071SOL    MW412052   1.666   6.053   0.556  0.0065 -0.4762  0.3000
 3072SOL     OW12053   1.662   4.517   1.747  0.1093 -0.1361  0.2452
 3072SOL    HW212054   1.715   4.555   1.817  1.3829  1.7137 -1.5979
 3072SOL    HW312055   1.726   4.488   1.681 -1.0754 -0.3766 -0.8431
 3072SOL    MW412056   1.678   4.518   1.747  0.1210  0.0762 -0.1416
 3073SOL     OW12057   0.403   5.114   4.694 -0.0234 -0.4907  0.5156
 3073SOL    HW212058   0.338   5.181   4.713  1.0325  0.7754 -0.1882
 3073SOL    HW312059   0.368   5.066   4.619  0.3278  0.8600 -0.5293
 3073SOL    MW412060   0.390   5.116   4.687  0.1622 -0.1454  0.2849
 3074SOL     OW12061   5.859   5.477   2.657  0.2719  0.1371  0.2492
 3074SOL    HW212062   5.793   5.545   2.639 -1.1039 -0.8478  1.3252
 3074SOL    HW312063   5.898   5.459   2.572  1.8429  3.3626  0.1499
 3074SOL    MW412064   5.855   5.484   2.643  0.2977  0.4328  0.3780
 3075SOL     OW12065   1.575   5.305   3.040 -0.2849  0.5948  0.2678
 3075SOL    HW212066   1.664   5.287   3.010  0.0575 -0.4074  1.7715
 3075SOL    HW312067   1.522   5.304   2.960  0.4119 -2.8549 -0.3306
 3075SOL    MW412068   1.579   5.303   3.025 -0.1478  0.0074  0.3873
 3076SOL     OW12069   0.061   4.307   0.510  0.1699 -0.7121 -0.0431
 3076SOL    HW212070   0.023   4.219   0.500 -0.4627 -0.5362  0.7151
 3076SOL    HW312071   0.021   4.358   0.439  0.0121 -0.8651 -0.0672
 3076SOL    MW412072   0.051   4.302   0.499  0.0656 -0.7091  0.0538
 3077SOL     OW12073   4.890   0.056   2.560  0.4323  0.0410  0.0648
 3077SOL    HW212074   4.937   0.014   2.489 -1.1433 -2.1024  0.1895
 3077SOL    HW312075   4.944   0.041   2.637  0.2697 -1.1713 -0.0314
 3077SOL    MW412076   4.903   0.049   2.561  0.2030 -0.4018  0.0686
 3078SOL     OW12077   1.475   1.641   4.108 -0.4826  0.0030  0.1094
 3078SOL    HW212078   1.527   1.638   4.188 -1.0519 -0.0906  0.4732
 3078SOL    HW312079   1.456   1.734   4.095  3.5977  0.7725 -2.5118
 3078SOL    MW412080   1.480   1.653   4.117 -0.0194  0.0922 -0.1885
 3079SOL     OW12081   4.117   4.633   3.429 -0.3866 -0.1583 -0.0226
 3079SOL    HW212082   4.154   4.720   3.413  1.0443 -0.9333 -1.1680
 3079SOL    HW312083   4.136   4.584   3.349 -1.6719 -1.3713  0.3745
 3079SOL    MW412084   4.124   4.638   3.416 -0.3674 -0.4206 -0.1214
 3080SOL     OW12085   5.302   2.520   2.050  0.2558 -0.0223 -0.0884
 3080SOL    HW212086   5.223   2.501   2.100 -1.0882  1.1247 -1.6849
 3080SOL    HW312087   5.300   2.614   2.035  1.1156 -0.1865 -1.4379
 3080SOL    MW412088   5.291   2.530   2.054  0.1919  0.1073 -0.4771
 3081SOL     OW12089   4.308   4.448   2.987  0.1825 -0.2355  0.5144
 3081SOL    HW212090   4.292   4.537   2.953  0.6053 -0.3130  0.0963
 3081SOL    HW312091   4.385   4.457   3.042  0.5117 -0.4299  0.0901
 3081SOL    MW412092   4.316   4.461   2.989  0.2817 -0.2714  0.4033
 3082SOL     OW12093   5.393   0.941   4.225 -0.1942 -0.4008  0.3745
 3082SOL    HW212094   5.427   0.877   4.288  0.7809 -0.8535 -0.5730
 3082SOL    HW312095   5.376   1.020   4.277  3.1673  0.1619  0.8584
 3082SOL    MW412096   5.396   0.943   4.240  0.3779 -0.3863  0.3133
 3083SOL     OW12097   4.584   4.155   5.170 -0.0073  0.0395  0.5380
 3083SOL    HW212098   4.504   4.199   5.200 -0.9422 -0.7796 -0.6619
 3083SOL    HW312099   4.562   4.062   5.171  1.0104 -0.2051  0.4143
 3083SOL    MW412100   4.570   4.149   5.174  0.0036 -0.1009  0.3634
 3084SOL     OW12101   6.297   0.107   3.706 -0.1848 -0.4038 -0.2780
 3084SOL    HW212102   6.243   0.032   3.682  0.7318 -1.3979  0.6523
 3084SOL    HW312103   6.306   0.157   3.625  0.2365 -1.9884 -1.2479
 3084SOL    MW412104   6.291   0.103   3.692 -0.0083 -0.7440 -0.2832
 3085SOL     OW12105   1.001   6.153   6.267  0.4528 -0.1022  0.3125
 3085SOL    HW212106   1.079   6.207   6.255  0.2169  0.0469 -0.6490
 3085SOL    HW312107   0.932   6.214   6.290  0.3874 -0.1041  0.1231
 3085SOL    MW412108   1.002   6.168   6.268  0.4131 -0.0827  0.1606
 3086SOL     OW12109   2.975   2.182   0.647  0.1669  0.2131  0.2888
 3086SOL    HW212110   2.920   2.111   0.615 -0.4843  0.8769 -0.1149
 3086SOL    HW312111   2.913   2.249   0.675  0.7670  0.7590  0.3413
 3086SOL    MW412112   2.959   2.182   0.647  0.1602  0.3727  0.2425
 3087SOL     OW12113   3.185   6.167   5.915 -0.6672  0.1986  0.6718
 3087SOL    HW212114   3.126   6.193   5.985 -0.5126  1.3130  0.4095
 3087SOL    HW312115   3.198   6.073   5.928 -1.9093  0.0779  1.1585
 3087SOL    MW412116   3.179   6.158   5.926 -0.8107  0.3297  0.7014
 3088SOL     OW12117   3.702   2.130   2.095 -0.4893 -0.5132 -0.8606
 3088SOL    HW212118   3.678   2.199   2.157 -2.1744 -3.0715  1.5342
 3088SOL    HW312119   3.668   2.161   2.011  0.6732  2.4462 -0.3872
 3088SOL    MW412120   3.695   2.143   2.092 -0.5582 -0.4602 -0.4821
 3089SOL     OW12121   0.515   3.533   0.449 -0.2250 -0.4939 -0.5360
 3089SOL    HW212122   0.522   3.459   0.509  0.7299 -0.2286 -0.2981
 3089SOL    HW312123   0.503   3.494   0.363 -2.1813 -0.8770 -0.1396
 3089SOL    MW412124   0.514   3.518   0.445 -0.3571 -0.5095 -0.4523
 3090SOL     OW12125   3.573   1.681   6.015 -0.2701 -0.3669 -0.1143
 3090SOL    HW212126   3.631   1.725   5.953  0.8347 -2.3136 -0.5441
 3090SOL    HW312127   3.498   1.654   5.961 -0.9772  0.9966  0.1632
 3090SOL    MW412128   3.571   1.683   6.000 -0.2176 -0.4439 -0.1344
 3091SOL     OW12129   0.564   1.301   1.841 -0.6264  0.3524  0.4480
 3091SOL    HW212130   0.503   1.268   1.776  1.1626  1.1568 -1.7814
 3091SOL    HW312131   0.509   1.339   1.910 -2.5908 -1.0949 -0.2506
 3091SOL    MW412132   0.549   1.301   1.842 -0.6496  0.2675  0.0617
 3092SOL     OW12133   2.928   2.406   3.153 -0.5119 -0.2436  0.3952
 3092SOL    HW212134   2.924   2.356   3.072  0.6558 -0.6657  0.5796
 3092SOL    HW312135   2.875   2.484   3.136 -2.2405 -1.4404  0.0616
 3092SOL    MW412136   2.921   2.410   3.140 -0.5859 -0.4572  0.3755
 3093SOL     OW12137   5.222   3.989   1.617  0.1545  0.3603  0.1716
 3093SOL    HW212138   5.302   3.940   1.601 -0.7455 -1.2466  0.3897
 3093SOL    HW312139   5.226   4.015   1.709 -0.4813 -1.5203  0.7698
 3093SOL    MW412140   5.233   3.986   1.627 -0.0481 -0.0998  0.2793
 3094SOL     OW12141   2.235   0.708   5.318 -0.2242 -0.1924 -0.6806
 3094SOL    HW212142   2.274   0.794   5.306 -0.1378 -0.5737 -4.2494
 3094SOL    HW312143   2.171   0.700   5.247 -2.6136 -1.8846  1.4415
 3094SOL    MW412144   2.232   0.718   5.307 -0.5281 -0.4659 -0.8715
 3095SOL     OW12145   4.773   5.192   4.932 -0.0561  0.4029 -0.6243
 3095SOL    HW212146   4.798   5.196   5.024  1.2698  0.9882 -0.9851
 3095SOL    HW312147   4.762   5.099   4.913 -0.4939  0.2930  0.1512
 3095SOL    MW412148   4.775   5.180   4.941  0.0611  0.4656 -0.5696
 3096SOL     OW12149   4.320   2.725   0.472  0.2363  0.2857  0.4743
 3096SOL    HW212150   4.298   2.739   0.380  2.2630  1.9418  0.1666
 3096SOL    HW312151   4.238   2.739   0.519 -0.7233 -0.0910 -1.0321
 3096SOL    MW412152   4.306   2.729   0.466  0.3771  0.4545  0.2349
 3097SOL     OW12153   4.359   6.275   5.824  0.3042 -0.3854  0.0521
 3097SOL    HW212154   4.418   6.202   5.839  2.8537  1.4722 -0.3613
 3097SOL    HW312155   4.351   6.280   5.728 -1.0791 -0.9842  0.1118
 3097SOL    MW412156   4.365   6.266   5.813  0.4581 -0.2193  0.0054
 3098SOL     OW12157   0.317   5.167   1.981  0.2236  0.0672  0.3922
 3098SOL    HW212158   0.225   5.167   1.955  0.7014  0.2457 -1.4338
 3098SOL    HW312159   0.315   5.144   2.074 -1.7131  0.9372  0.6238
 3098SOL    MW412160   0.304   5.164   1.990  0.0311  0.2055  0.1818
 3099SOL     OW12161   2.625   0.733   2.354  0.4061 -0.4316  0.0895
 3099SOL    HW212162   2.573   0.813   2.345 -1.0613 -1.3880 -0.2740
 3099SOL    HW312163   2.716   0.763   2.354 -0.1289  1.2744  0.5549
 3099SOL    MW412164   2.630   0.748   2.353  0.1419 -0.3327  0.1029
 3100SOL     OW12165   1.750   4.385   6.461 -0.7660 -0.0081  0.4507
 3100SOL    HW212166   1.802   4.436   6.523 -0.3576 -1.9991  1.8408
 3100SOL    HW312167   1.659   4.398   6.490 -0.8884  1.6538 -0.5809
 3100SOL    MW412168   1.745   4.394   6.473 -0.7283 -0.0515  0.4980
 3101SOL     OW12169   4.365   2.980   5.649  0.2208  0.1499  0.1689
 3101SOL    HW212170   4.323   3.036   5.584 -0.5496 -1.6492 -0.9562
 3101SOL    HW312171   4.355   3.028   5.731  0.2984  2.0060 -0.8413
 3101SOL    MW412172   4.358   2.994   5.651  0.1294  0.1574 -0.1128
 3102SOL     OW12173   2.962   1.390   0.554 -0.4660  0.0478 -0.4351
 3102SOL    HW212174   3.038   1.397   0.611 -0.3238 -0.3185 -0.5818
 3102SOL    HW312175   2.923   1.305   0.575 -0.6079  0.0601 -0.6446
 3102SOL    MW412176   2.967   1.380   0.565 -0.4660  0.0011 -0.4821
 3103SOL     OW12177   2.386   3.381   0.817  0.1544  0.3508 -0.7546
 3103SOL    HW212178   2.373   3.367   0.911 -0.1466  0.9738 -0.6934
 3103SOL    HW312179   2.442   3.458   0.812  1.6893 -0.7492 -1.0748
 3103SOL    MW412180   2.391   3.390   0.829  0.3172  0.2879 -0.7888
 3104SOL     OW12181   4.554   0.524   6.077  0.0700 -0.2373  0.1176
 3104SOL    HW212182   4.582   0.455   6.017  0.0210  0.4365 -0.7050
 3104SOL    HW312183   4.459   0.518   6.078  0.0481  0.0091 -0.2017
 3104SOL    MW412184   4.545   0.514   6.069  0.0607 -0.1159 -0.0330
 3105SOL     OW12185   2.948   4.075   0.556 -0.7599  0.2152 -0.4578
 3105SOL    HW212186   2.885   4.032   0.614  0.2534 -0.3351  0.2558
 3105SOL    HW312187   2.899   4.088   0.474 -2.3233  1.3360  0.6037
 3105SOL    MW412188   2.933   4.071   0.552 -0.8325  0.2904 -0.2236
 3106SOL     OW12189   0.472   5.092   1.296  0.0655  0.1827  0.0451
 3106SOL    HW212190   0.565   5.103   1.274  0.2864  0.6215  1.1148
 3106SOL    HW312191   0.429   5.073   1.213  1.1365 -0.1616 -0.4399
 3106SOL    MW412192   0.479   5.091   1.283  0.2360  0.1952  0.1222
 3107SOL     OW12193   6.090   5.920   0.203  0.1296  0.0883  0.1290
 3107SOL    HW212194   6.147   5.982   0.248  0.8020  0.1747 -0.8017
 3107SOL    HW312195   6.141   5.840   0.195 -0.3880 -0.2859  0.4889
 3107SOL    MW412196   6.104   5.918   0.208  0.1501  0.0503  0.0537
 3108SOL     OW12197   2.220   1.407   3.096  0.4332 -0.1531  0.3937
 3108SOL    HW212198   2.221   1.451   3.181  2.0660  0.1443  0.2430
 3108SOL    HW312199   2.230   1.314   3.117 -1.0796 -0.2873  0.6072
 3108SOL    MW412200   2.221   1.400   3.110  0.4491 -0.1316  0.4020
 3109SOL     OW12201   3.186   0.530   0.154 -0.7239  0.3186  0.2849
 3109SOL    HW212202   3.179   0.535   0.059 -0.0509 -0.6156  0.1618
 3109SOL    HW312203   3.105   0.488   0.182 -0.5552 -0.1862  0.0292
 3109SOL    MW412204   3.175   0.525   0.145 -0.6128  0.1287  0.2349
 3110SOL     OW12205   5.059   2.427   2.480 -0.2843 -0.0623 -0.0828
 3110SOL    HW212206   5.016   2.499   2.527 -1.5548 -0.6367 -0.3450
 3110SOL    HW312207   5.005   2.350   2.498  0.4337 -0.7383 -0.7249
 3110SOL    MW412208   5.047   2.426   2.489 -0.3572 -0.2273 -0.2021
 3111SOL     OW12209   4.550   5.888   5.679 -0.1085  0.2565 -0.1493
 3111SOL    HW212210   4.578   5.964   5.628 -0.8970  1.0109  0.5238
 3111SOL    HW312211   4.531   5.923   5.766  0.2399 -0.8425  0.3921
 3111SOL    MW412212   4.551   5.903   5.684 -0.1666  0.2111  0.0109
 3112SOL     OW12213   4.926   6.311   1.624 -0.0867 -0.4957 -0.3246
 3112SOL    HW212214   4.965   6.268   1.700 -0.9805 -0.5417  0.1223
 3112SOL    HW312215   4.969   6.270   1.549  3.0487  1.6596  0.1207
 3112SOL    MW412216   4.936   6.300   1.624  0.2090 -0.2174 -0.2069
 3113SOL     OW12217   2.188   2.237   1.362 -0.6879 -0.0086 -0.3922
 3113SOL    HW212218   2.154   2.150   1.340 -1.0623  0.2724 -0.9267
 3113SOL    HW312219   2.283   2.225   1.363 -0.7616 -0.6620  0.5455
 3113SOL    MW412220   2.196   2.224   1.359 -0.7470 -0.0577 -0.3390
 3114SOL     OW12221   3.110   6.421   1.677  0.3103 -0.3123  0.0518
 3114SOL    HW212222   3.072   6.507   1.657 -1.1761  0.1644  3.9253
 3114SOL    HW312223   3.100   6.371   1.596 -1.1611  2.3501 -1.5881
 3114SOL    MW412224   3.103   6.426   1.664 -0.0799  0.1019  0.3465
 3115SOL     OW12225   3.372   0.495   4.423 -0.4806 -0.4699  0.3092
 3115SOL    HW212226   3.411   0.579   4.450 -1.8400  0.1070  0.5258
 3115SOL    HW312227   3.349   0.508   4.331  1.4852 -1.4518 -0.3811
 3115SOL    MW412228   3.374   0.508   4.415 -0.4006 -0.5233  0.2467
 3116SOL     OW12229   5.206   5.408   3.045 -0.4211 -0.2351 -0.4672
 3116SOL    HW212230   5.270   5.341   3.022 -0.4205  0.3937 -2.5025
 3116SOL    HW312231   5.259   5.481   3.076 -0.2628 -0.3507 -0.4614
 3116SOL    MW412232   5.221   5.409   3.046 -0.4001 -0.1674 -0.7349
 3117SOL     OW12233   1.346   5.701   4.543 -0.1718 -0.6793  0.0172
 3117SOL    HW212234   1.254   5.710   4.569  0.4231  1.2031  1.7567
 3117SOL    HW312235   1.364   5.607   4.550 -1.3225 -0.8164  2.1075
 3117SOL    MW412236   1.336   5.690   4.547 -0.2451 -0.4491  0.5225
 3118SOL     OW12237   1.027   5.180   1.028  0.5325  0.1223 -0.3156
 3118SOL    HW212238   0.961   5.185   0.958  0.1383  1.8805  0.1147
 3118SOL    HW312239   1.025   5.267   1.067  1.1613 -0.6569  1.5192
 3118SOL    MW412240   1.018   5.192   1.024  0.5634  0.2515 -0.0168
 3119SOL     OW12241   5.472   3.605   0.977  0.3737  0.3310 -0.0474
 3119SOL    HW212242   5.493   3.674   1.039  0.4194 -0.6294  1.0539
 3119SOL    HW312243   5.532   3.617   0.904  1.9655  0.0837  1.1763
 3119SOL    MW412244   5.483   3.615   0.976  0.5897  0.1717  0.2593
 3120SOL     OW12245   3.436   3.511   2.157  0.2489  0.3664  0.4821
 3120SOL    HW212246   3.433   3.520   2.061 -1.7505  1.2135  0.5691
 3120SOL    HW312247   3.494   3.436   2.172 -0.8423 -0.9886 -1.4984
 3120SOL    MW412248   3.443   3.502   2.146 -0.1588  0.2994  0.2323
 3121SOL     OW12249   6.228   4.090   4.325 -0.6917  0.6684 -0.4824
 3121SOL    HW212250   6.140   4.126   4.330 -0.9967 -0.1888  0.7183
 3121SOL    HW312251   6.264   4.127   4.244 -1.8572  1.6515 -0.5865
 3121SOL    MW412252   6.221   4.100   4.315 -0.8857  0.6850 -0.3377
 3122SOL     OW12253   1.601   5.928   3.093  0.2204 -0.1368  0.0417
 3122SOL    HW212254   1.617   5.852   3.037 -0.7121  1.9431 -3.3048
 3122SOL    HW312255   1.677   5.931   3.151  1.2760 -2.4525 -1.1009
 3122SOL    MW412256   1.613   5.918   3.093  0.2366 -0.1679 -0.5506
 3123SOL     OW12257   5.073   2.514   3.340  0.0418 -0.0268 -0.1811
 3123SOL    HW212258   5.162   2.479   3.344 -0.6156 -2.0034 -1.3249
 3123SOL    HW312259   5.082   2.600   3.300  1.5292  0.2661  0.7190
 3123SOL    MW412260   5.086   2.521   3.335  0.1513 -0.2490 -0.2133
 3124SOL     OW12261   0.747   3.864   5.977  0.3202 -0.1728  0.0978
 3124SOL    HW212262   0.804   3.935   6.007  0.4330  0.1693 -0.9108
 3124SOL    HW312263   0.704   3.833   6.057  2.7793 -1.2365  1.1169
 3124SOL    MW412264   0.749   3.869   5.992  0.6595 -0.2680  0.0992
 3125SOL     OW12265   3.389   3.925   3.037  0.1027 -0.4729  0.5728
 3125SOL    HW212266   3.425   3.903   3.123  1.7165  0.2103  0.1174
 3125SOL    HW312267   3.464   3.918   2.977 -1.0155 -1.0974 -0.8200
 3125SOL    MW412268   3.404   3.921   3.040  0.1681 -0.4652  0.3289
 3126SOL     OW12269   1.444   2.755   2.515 -0.4908  0.6633 -0.2712
 3126SOL    HW212270   1.457   2.746   2.610 -0.8087 -1.8071 -0.3855
 3126SOL    HW312271   1.533   2.757   2.479 -0.3110 -1.2299 -0.0539
 3126SOL    MW412272   1.457   2.754   2.523 -0.5090  0.0876 -0.2576
 3127SOL     OW12273   1.019   3.993   1.347  0.3502  0.3599  0.2493
 3127SOL    HW212274   1.041   3.900   1.348  1.5940  0.6458  0.2094
 3127SOL    HW312275   0.965   4.006   1.425 -1.3682 -0.7302 -0.6803
 3127SOL    MW412276   1.014   3.983   1.357  0.2876  0.2538  0.1214
 3128SOL     OW12277   0.391   1.073   4.362 -0.5100 -0.1418 -0.2764
 3128SOL    HW212278   0.399   1.024   4.280  2.8739 -1.1262  0.4638
 3128SOL    HW312279   0.377   1.006   4.429 -1.5058  0.4955  0.1761
 3128SOL    MW412280   0.390   1.058   4.360 -0.1949 -0.1876 -0.1190
 3129SOL     OW12281   5.863   1.944   2.383 -0.0944  0.1549 -0.1376
 3129SOL    HW212282   5.938   1.895   2.416  0.2714  1.4759  1.0709
 3129SOL    HW312283   5.798   1.938   2.453 -0.3755  0.6578 -0.3499
 3129SOL    MW412284   5.864   1.937   2.397 -0.0833  0.3955 -0.0061
 3130SOL     OW12285   0.132   3.491   1.245  0.4337 -0.9081 -0.0750
 3130SOL    HW212286   0.221   3.526   1.236 -0.1331  0.8124  0.4583
 3130SOL    HW312287   0.093   3.500   1.158 -0.3780  1.9508  0.4656
 3130SOL    MW412288   0.138   3.497   1.233  0.2518 -0.3039  0.0667
 3131SOL     OW12289   2.046   5.414   0.102 -0.1924  0.4231  0.0636
 3131SOL    HW212290   2.053   5.508   0.119 -0.4807  0.1796  1.7156
 3131SOL    HW312291   1.971   5.386   0.154 -0.7139 -0.5771 -1.1688
 3131SOL    MW412292   2.037   5.423   0.111 -0.2992  0.2590  0.1189
 3132SOL     OW12293   0.967   5.525   6.157  0.5899  0.3028 -0.0337
 3132SOL    HW212294   0.931   5.543   6.071 -0.2949  0.6352  0.3937
 3132SOL    HW312295   0.970   5.430   6.163 -2.2609  0.1506  0.6959
 3132SOL    MW412296   0.963   5.515   6.147  0.0970  0.3266  0.1190
 3133SOL     OW12297   5.132   2.120   3.777 -0.4771  0.0914 -0.0914
 3133SOL    HW212298   5.091   2.136   3.862  0.4983  1.7065  0.1316
 3133SOL    HW312299   5.202   2.185   3.772 -1.0078  0.5992 -2.4628
 3133SOL    MW412300   5.135   2.131   3.788 -0.4184  0.3715 -0.3749
 3134SOL     OW12301   0.363   1.351   2.032  0.0374  0.1346 -0.6256
 3134SOL    HW212302   0.293   1.374   1.971  1.5698 -0.4397 -2.7154
 3134SOL    HW312303   0.373   1.428   2.088 -1.7984  0.4671 -0.6869
 3134SOL    MW412304   0.355   1.364   2.031 -0.0026  0.1027 -0.9094
 3135SOL     OW12305   1.375   4.682   3.669 -0.1339 -0.2192  0.1226
 3135SOL    HW212306   1.381   4.591   3.697 -1.8680 -0.8403 -1.3506
 3135SOL    HW312307   1.287   4.709   3.693 -0.5255  0.2426 -1.6907
 3135SOL    MW412308   1.365   4.674   3.676 -0.4144 -0.2402 -0.3110
 3136SOL     OW12309   0.539   0.722   5.033 -0.4615 -0.0340  0.3764
 3136SOL    HW212310   0.567   0.743   5.122 -0.5930  0.5449  0.2861
 3136SOL    HW312311   0.477   0.650   5.044 -0.4199 -0.0184  0.7467
 3136SOL    MW412312   0.534   0.715   5.046 -0.4733  0.0444  0.4133
 3137SOL     OW12313   5.861   2.898   5.456 -0.6381  0.1942  0.2879
 3137SOL    HW212314   5.790   2.856   5.504 -0.2828 -1.6529 -0.6896
 3137SOL    HW312315   5.936   2.895   5.516 -0.5893 -0.7504  0.2061
 3137SOL    MW412316   5.862   2.892   5.471 -0.5848 -0.1741  0.1482
 3138SOL     OW12317   0.098   0.886   3.045  0.1114  0.1415  0.0938
 3138SOL    HW212318   0.076   0.892   2.952 -1.6231  1.5328  0.5416
 3138SOL    HW312319   0.030   0.831   3.082  0.7313 -0.3126  0.5716
 3138SOL    MW412320   0.086   0.880   3.037 -0.0356  0.2651  0.2160
 3139SOL     OW12321   2.006   1.755   2.633  0.5088 -0.4070  0.5234
 3139SOL    HW212322   2.036   1.664   2.628  2.4802  0.1983  0.4905
 3139SOL    HW312323   2.057   1.801   2.567  1.4333  1.1934  2.2647
 3139SOL    MW412324   2.017   1.749   2.624  0.8908 -0.1160  0.7488
 3140SOL     OW12325   5.504   1.524   0.235  0.3646  0.0095 -0.5046
 3140SOL    HW212326   5.457   1.594   0.279 -1.5690 -1.6744  0.2166
 3140SOL    HW312327   5.576   1.502   0.294 -0.3077 -0.0662  0.2965
 3140SOL    MW412328   5.508   1.530   0.248  0.0208 -0.2227 -0.3037
 3141SOL     OW12329   2.388   6.199   4.201 -0.1614 -0.2070  0.0011
 3141SOL    HW212330   2.300   6.201   4.163 -0.3010  0.2972  0.3354
 3141SOL    HW312331   2.422   6.288   4.186  0.3231 -0.4259 -0.2031
 3141SOL    MW412332   2.381   6.211   4.194 -0.1159 -0.1693  0.0183
 3142SOL     OW12333   1.767   3.825   1.107 -1.0596  0.6956  0.0366
 3142SOL    HW212334   1.749   3.796   1.196 -0.6291  0.2083 -0.0251
 3142SOL    HW312335   1.782   3.919   1.114 -0.9397  0.6440  0.4949
 3142SOL    MW412336   1.767   3.834   1.119 -0.9869  0.6245  0.0889
 3143SOL     OW12337   1.220   5.768   4.134 -0.4156  0.0090  0.4785
 3143SOL    HW212338   1.274   5.845   4.116  1.1750 -0.7713  1.7002
 3143SOL    HW312339   1.220   5.760   4.229  0.1736 -1.9864  0.3566
 3143SOL    MW412340   1.227   5.777   4.144 -0.1280 -0.3572  0.6236
 3144SOL     OW12341   3.913   4.271   5.188  0.3422  0.5538 -0.3472
 3144SOL    HW212342   3.987   4.222   5.153 -0.0030  0.1422 -0.5104
 3144SOL    HW312343   3.952   4.332   5.251  0.5027 -2.1013  2.3305
 3144SOL    MW412344   3.928   4.273   5.191  0.3178  0.1492 -0.0155
 3145SOL     OW12345   3.617   2.781   0.150 -0.1936  0.4144 -0.3588
 3145SOL    HW212346   3.629   2.711   0.214  0.6960 -0.3128 -1.2780
 3145SOL    HW312347   3.523   2.796   0.149 -0.1043  1.7780  2.4408
 3145SOL    MW412348   3.606   2.774   0.158 -0.0645  0.4984 -0.1107
 3146SOL     OW12349   4.131   4.759   0.680 -0.3743  0.1842 -0.0693
 3146SOL    HW212350   4.217   4.750   0.720  0.6167  0.5599 -2.0199
 3146SOL    HW312351   4.093   4.671   0.685  0.7094 -0.3181 -0.4335
 3146SOL    MW412352   4.137   4.746   0.686 -0.1006  0.1675 -0.3747
 3147SOL     OW12353   6.101   0.281   4.909 -0.2888  0.1201 -0.3265
 3147SOL    HW212354   6.076   0.233   4.988  0.1893  1.0098  0.3799
 3147SOL    HW312355   6.060   0.232   4.837 -0.4952 -0.8603  0.4399
 3147SOL    MW412356   6.093   0.268   4.910 -0.2530  0.1082 -0.1322
 3148SOL     OW12357   3.987   3.813   1.302 -0.2482 -0.3164 -0.3557
 3148SOL    HW212358   3.982   3.717   1.304  2.8256 -0.5877 -1.4045
 3148SOL    HW312359   4.001   3.835   1.210  1.3044  0.9364  0.1296
 3148SOL    MW412360   3.988   3.803   1.290  0.3622 -0.1869 -0.4300
 3149SOL     OW12361   1.763   5.909   4.138 -0.3123 -0.0336  0.2524
 3149SOL    HW212362   1.766   5.993   4.183 -2.2985  0.2280 -0.0390
 3149SOL    HW312363   1.721   5.849   4.200 -1.1501 -0.1893 -0.4421
 3149SOL    MW412364   1.758   5.912   4.152 -0.6849 -0.0196  0.1223
 3150SOL     OW12365   2.943   1.916   6.006 -0.4376  0.5139 -0.1060
 3150SOL    HW212366   2.901   1.860   5.941 -0.6919  0.7065 -0.1105
 3150SOL    HW312367   2.972   1.992   5.956 -0.1202  0.4007 -0.0959
 3150SOL    MW412368   2.941   1.919   5.991 -0.4292  0.5244 -0.1053
 3151SOL     OW12369   2.431   1.799   1.995 -0.2642 -0.2563  0.1434
 3151SOL    HW212370   2.381   1.723   1.967  0.1222 -0.6140  0.4176
 3151SOL    HW312371   2.496   1.812   1.926 -1.9576  1.4224 -1.2460
 3151SOL    MW412372   2.433   1.791   1.982 -0.4367 -0.0820 -0.0037
 3152SOL     OW12373   6.377   6.140   4.467  0.2940  0.4913 -0.1947
 3152SOL    HW212374   6.311   6.126   4.400  1.6130  0.5487 -1.5545
 3152SOL    HW312375   6.385   6.055   4.512 -0.3914  0.3731 -0.2948
 3152SOL    MW412376   6.369   6.127   4.464  0.3776  0.4833 -0.3873
 3153SOL     OW12377   3.722   1.473   0.322  0.7427 -0.1073  0.2051
 3153SOL    HW212378   3.734   1.559   0.283 -0.5536  0.4079  0.8840
 3153SOL    HW312379   3.767   1.413   0.262  0.5067  0.8789 -1.0003
 3153SOL    MW412380   3.729   1.476   0.309  0.5405  0.0908  0.1356
 3154SOL     OW12381   4.015   2.681   3.851 -0.0910 -0.5848 -0.1014
 3154SOL    HW212382   3.920   2.685   3.844 -0.0692 -1.7729 -1.4908
 3154SOL    HW312383   4.031   2.604   3.907  0.0504  0.8766  1.9779
 3154SOL    MW412384   4.004   2.671   3.858 -0.0694 -0.5488 -0.0104
 3155SOL     OW12385   5.862   5.094   4.843  0.1205 -0.0348 -0.3226
 3155SOL    HW212386   5.805   5.145   4.901  0.0560  1.0057 -1.2614
 3155SOL    HW312387   5.803   5.029   4.804 -0.7480  1.6090 -1.9899
 3155SOL    MW412388   5.846   5.092   4.845 -0.0026  0.3194 -0.6664
 3156SOL     OW12389   1.886   1.889   6.373 -0.4915 -0.1706 -0.2472
 3156SOL    HW212390   1.981   1.884   6.361 -0.4745 -0.9356  0.1524
 3156SOL    HW312391   1.854   1.927   6.291  0.4044  2.8001  0.6713
 3156SOL    MW412392   1.895   1.893   6.360 -0.3710  0.1204 -0.0733
 3157SOL     OW12393   3.653   0.024   5.962  0.2006 -0.1593 -0.5071
 3157SOL    HW212394   3.566  -0.005   5.937  0.4012 -1.3720  0.1161
 3157SOL    HW312395   3.713  -0.028   5.908  0.5558  0.4124 -0.6808
 3157SOL    MW412396   3.650   0.014   5.951  0.2739 -0.2439 -0.4478
 3158SOL     OW12397   1.002   0.953   5.974 -0.1286 -0.7391 -0.2319
 3158SOL    HW212398   1.014   0.957   5.879 -1.0135 -1.9798 -0.4294
 3158SOL    HW312399   0.942   0.879   5.987 -0.6929 -0.0622  1.2310
 3158SOL    MW412400   0.995   0.944   5.963 -0.3198 -0.8135 -0.0650
 3159SOL     OW12401   2.693   0.106   4.350 -0.5602  0.6999  0.0094
 3159SOL    HW212402   2.636   0.080   4.277 -0.0108  0.8796 -0.4953
 3159SOL    HW312403   2.687   0.201   4.352  1.3975  0.9162 -1.4837
 3159SOL    MW412404   2.684   0.115   4.341 -0.2294  0.7521 -0.2542
 3160SOL     OW12405   3.032   4.622   5.468  0.4303 -0.3646  0.4368
 3160SOL    HW212406   3.009   4.530   5.462 -0.1019 -0.1720 -0.6933
 3160SOL    HW312407   2.954   4.665   5.504  1.0229 -0.4638  1.9422
 3160SOL    MW412408   3.019   4.616   5.472  0.4383 -0.3523  0.4863
 3161SOL     OW12409   3.818   2.826   4.099 -0.8092  0.2351  0.0183
 3161SOL    HW212410   3.851   2.916   4.104 -0.2482 -0.0165  1.0123
 3161SOL    HW312411   3.768   2.824   4.017  0.4215  1.0349 -0.7935
 3161SOL    MW412412   3.816   2.838   4.089 -0.5728  0.3074  0.0424
 3162SOL     OW12413   5.016   3.037   3.584 -0.4029 -0.0953  0.5421
 3162SOL    HW212414   4.950   3.099   3.615 -1.3528  0.6264 -2.5234
 3162SOL    HW312415   5.086   3.092   3.550  1.0983 -0.8530  2.2432
 3162SOL    MW412416   5.017   3.052   3.584 -0.3302 -0.1001  0.3621
 3163SOL     OW12417   1.117   5.933   1.094  0.8421  0.5752 -0.5049
 3163SOL    HW212418   1.144   6.024   1.081  0.7428  0.4688 -1.5888
 3163SOL    HW312419   1.035   5.926   1.046 -0.7497  0.6748  2.0487
 3163SOL    MW412420   1.110   5.944   1.086  0.6189  0.5743 -0.3110
 3164SOL     OW12421   1.146   4.094   4.290  0.0625  0.0491 -0.4213
 3164SOL    HW212422   1.178   4.084   4.200 -0.7434 -0.1179 -0.7070
 3164SOL    HW312423   1.221   4.074   4.345  0.2271 -1.1998 -1.0579
 3164SOL    MW412424   1.160   4.090   4.285 -0.0221 -0.1377 -0.5430
 3165SOL     OW12425   0.812   1.988   6.357  0.0413  0.2933  0.4615
 3165SOL    HW212426   0.761   1.920   6.313 -0.6053  0.8183  0.3681
 3165SOL    HW312427   0.824   1.956   6.446 -0.2974  0.0775  0.4313
 3165SOL    MW412428   0.807   1.975   6.363 -0.0887  0.3341  0.4452
 3166SOL     OW12429   5.872   2.009   6.296  0.1587 -0.0590  0.5166
 3166SOL    HW212430   5.943   2.000   6.359 -0.8932  1.9452  2.1497
 3166SOL    HW312431   5.799   1.962   6.336 -0.5225  1.2472  0.8858
 3166SOL    MW412432   5.871   2.002   6.310 -0.0699  0.3778  0.7808
 3167SOL     OW12433   6.228   5.925   2.405  0.1939 -0.0249  0.1102
 3167SOL    HW212434   6.282   5.850   2.382 -1.7114 -1.2895 -0.4751
 3167SOL    HW312435   6.290   5.991   2.436  2.1345 -1.0105 -1.4935
 3167SOL    MW412436   6.243   5.924   2.406  0.1985 -0.3218 -0.1786
 3168SOL     OW12437   2.902   0.801   3.101  0.3451  0.1893 -0.0101
 3168SOL    HW212438   2.825   0.778   3.048 -0.2885  0.6949  0.6578
 3168SOL    HW312439   2.921   0.892   3.078 -0.6574  0.8071  1.4274
 3168SOL    MW412440   2.894   0.810   3.091  0.1292  0.3375  0.2677
 3169SOL     OW12441   2.852   4.094   1.944 -0.1773 -0.3200  0.6723
 3169SOL    HW212442   2.890   4.067   2.027 -0.7028 -1.8957  0.4338
 3169SOL    HW312443   2.880   4.027   1.881 -0.1784  0.5844 -0.3358
 3169SOL    MW412444   2.861   4.082   1.946 -0.2468 -0.4086  0.5078
 3170SOL     OW12445   3.418   5.969   0.647 -0.1215  0.4021 -0.0859
 3170SOL    HW212446   3.379   6.042   0.694  0.5592 -1.0567  3.0094
 3170SOL    HW312447   3.344   5.927   0.601 -1.3207  0.5513  1.6327
 3170SOL    MW412448   3.403   5.973   0.647 -0.1899  0.2293  0.5492
 3171SOL     OW12449   3.628   6.270   3.787 -0.1684 -0.1118 -0.2367
 3171SOL    HW212450   3.602   6.346   3.839 -2.6577 -0.2768 -1.1196
 3171SOL    HW312451   3.719   6.255   3.811 -0.5531  1.1738  2.3589
 3171SOL    MW412452   3.637   6.278   3.797 -0.5476  0.0361 -0.0108
 3172SOL     OW12453   2.123   4.346   5.616  0.1294  0.3825 -1.2699
 3172SOL    HW212454   2.079   4.278   5.668 -0.3318  0.9215 -0.9392
 3172SOL    HW312455   2.098   4.428   5.659  1.0357  0.7351 -1.3984
 3172SOL    MW412456   2.113   4.348   5.629  0.1881  0.5001 -1.2432
 3173SOL     OW12457   2.088   1.740   2.980 -0.2495 -0.0615 -0.5359
 3173SOL    HW212458   2.179   1.767   2.992 -0.4641  0.5009 -0.1475
 3173SOL    HW312459   2.094   1.655   2.937  0.4538  0.2239 -1.0318
 3173SOL    MW412460   2.101   1.732   2.976 -0.1850  0.0503 -0.5501
 3174SOL     OW12461   5.830   2.424   1.692  0.3971  0.3585 -0.1699
 3174SOL    HW212462   5.871   2.509   1.708  0.7917 -0.0628  1.1873
 3174SOL    HW312463   5.757   2.443   1.634 -0.3072  1.8258  1.1311
 3174SOL    MW412464   5.826   2.437   1.686  0.3562  0.4965  0.1808
 3175SOL     OW12465   2.158   3.875   2.355 -0.2125 -0.5858 -0.0699
 3175SOL    HW212466   2.181   3.877   2.262  0.4119  0.6879  0.0887
 3175SOL    HW312467   2.214   3.942   2.395 -2.1658  0.5821  0.8293
 3175SOL    MW412468   2.169   3.884   2.348 -0.3878 -0.2637  0.0697
 3176SOL     OW12469   0.730   3.844   2.151 -0.6833 -0.0353  0.0206
 3176SOL    HW212470   0.736   3.796   2.068  0.1103 -0.3099  0.2253
 3176SOL    HW312471   0.765   3.784   2.216 -0.7820  0.3853  0.4649
 3176SOL    MW412472   0.736   3.830   2.148 -0.5917 -0.0160  0.1062
 3177SOL     OW12473   6.157   2.309   4.808 -0.0394 -0.0927  0.2464
 3177SOL    HW212474   6.095   2.375   4.778 -2.6070 -1.3860  2.2686
 3177SOL    HW312475   6.236   2.358   4.831 -1.1287  1.9855 -0.2381
 3177SOL    MW412476   6.159   2.324   4.807 -0.5219  0.0108  0.4493
 3178SOL     OW12477   3.999   1.252   6.084  0.4776  0.4937  0.5569
 3178SOL    HW212478   4.094   1.243   6.085  0.3628 -0.9515  1.6373
 3178SOL    HW312479   3.970   1.193   6.014  0.3352  0.3541  0.7326
 3178SOL    MW412480   4.008   1.243   6.075  0.4437  0.2846  0.7226
 3179SOL     OW12481   0.945   2.524   4.809 -0.1412 -0.1220 -0.1988
 3179SOL    HW212482   0.888   2.600   4.820 -1.1394 -0.8483 -0.2060
 3179SOL    HW312483   1.006   2.529   4.883  2.0639  2.5196 -1.9654
 3179SOL    MW412484   0.946   2.535   4.820  0.0181  0.1307 -0.4328
 3180SOL     OW12485   3.640   5.063   5.649 -0.1485  0.6190  0.5573
 3180SOL    HW212486   3.680   5.142   5.687  1.6909  0.3619 -0.7604
 3180SOL    HW312487   3.623   5.007   5.724 -1.7532  2.3232  1.5704
 3180SOL    MW412488   3.643   5.066   5.664 -0.1175  0.8099  0.5171
 3181SOL     OW12489   0.280   4.743   3.616  0.4729 -0.0429 -0.0042
 3181SOL    HW212490   0.274   4.651   3.641 -1.1774  0.2693  0.8499
 3181SOL    HW312491   0.262   4.791   3.697  1.5028  1.0487 -0.3902
 3181SOL    MW412492   0.277   4.738   3.630  0.3910  0.1423  0.0576
 3182SOL     OW12493   2.054   1.515   4.248  0.3788  0.1190 -0.3174
 3182SOL    HW212494   2.132   1.474   4.213 -0.2487 -0.5073 -1.0266
 3182SOL    HW312495   1.995   1.525   4.173  0.2611  1.7740 -0.0582
 3182SOL    MW412496   2.056   1.511   4.233  0.2805  0.2547 -0.3768
 3183SOL     OW12497   2.681   6.173   2.230  0.1748 -0.0844  0.8428
 3183SOL    HW212498   2.740   6.132   2.167  0.3114  1.2803  0.0492
 3183SOL    HW312499   2.705   6.265   2.230 -1.6737  0.4465  0.7886
 3183SOL    MW412500   2.692   6.180   2.221 -0.0510  0.1657  0.7309
 3184SOL     OW12501   3.421   3.040   5.913  0.5556  0.1461 -0.1622
 3184SOL    HW212502   3.477   3.110   5.946  0.0401  1.0092 -1.0759
 3184SOL    HW312503   3.342   3.085   5.881  0.4023 -0.7890 -1.1666
 3184SOL    MW412504   3.418   3.055   5.913  0.4674  0.1366 -0.4153
 3185SOL     OW12505   5.676   5.892   5.885 -0.0788  0.5114  0.3029
 3185SOL    HW212506   5.768   5.916   5.869 -0.5095  1.9236 -0.2375
 3185SOL    HW312507   5.666   5.898   5.980  0.7742 -1.2589  0.5491
 3185SOL    MW412508   5.687   5.896   5.895 -0.0230  0.4642  0.2641
 3186SOL     OW12509   6.326   3.753   0.602 -0.2230  0.0855  0.2349
 3186SOL    HW212510   6.400   3.814   0.599  0.3779 -0.5521  1.3641
 3186SOL    HW312511   6.363   3.674   0.643 -1.1590 -0.7737 -0.5459
 3186SOL    MW412512   6.341   3.750   0.607 -0.2672 -0.1120  0.2808
 3187SOL     OW12513   2.251   1.111   5.561 -0.3196  0.1108 -0.0413
 3187SOL    HW212514   2.232   1.204   5.553 -1.9394  0.0481  2.0146
 3187SOL    HW312515   2.346   1.105   5.566 -0.2544  1.9279  2.1110
 3187SOL    MW412516   2.261   1.122   5.560 -0.5247  0.3423  0.5139
 3188SOL     OW12517   0.246   1.229   4.001 -0.0591  0.3283  0.0985
 3188SOL    HW212518   0.332   1.269   3.982 -0.7487  1.9867  0.2857
 3188SOL    HW312519   0.193   1.302   4.034 -1.5456 -0.6759  0.0007
 3188SOL    MW412520   0.251   1.244   4.003 -0.3462  0.4146  0.1103
 3189SOL     OW12521   3.118   2.016   1.005 -0.0975  0.4232 -0.9721
 3189SOL    HW212522   3.163   2.086   0.958 -0.3336  0.7168 -0.7672
 3189SOL    HW312523   3.127   1.940   0.949 -0.2465  0.7351 -1.4229
 3189SOL    MW412524   3.125   2.016   0.992 -0.1483  0.5031 -1.0046
 3190SOL     OW12525   6.337   0.122   2.781  0.0555 -0.1844  0.6960
 3190SOL    HW212526   6.305   0.194   2.835  1.0554 -0.4938  1.7170
 3190SOL    HW312527   6.410   0.085   2.830 -0.5825 -2.0608  0.3069
 3190SOL    MW412528   6.342   0.127   2.794  0.1032 -0.4728  0.7794
 3191SOL     OW12529   3.529   1.855   6.356  0.1163  0.4571 -0.0941
 3191SOL    HW212530   3.510   1.903   6.275  1.9144 -0.7069 -1.2620
 3191SOL    HW312531   3.469   1.781   6.353  1.7750 -0.9057 -1.6418
 3191SOL    MW412532   3.518   1.852   6.345  0.5724  0.1237 -0.4524
 3192SOL     OW12533   4.866   1.854   2.177 -0.5505 -0.1388 -0.7196
 3192SOL    HW212534   4.826   1.895   2.100 -0.4479  0.1482 -0.6221
 3192SOL    HW312535   4.917   1.924   2.217 -0.6595 -0.2697 -0.3511
 3192SOL    MW412536   4.867   1.869   2.172 -0.5513 -0.1182 -0.6581
 3193SOL     OW12537   1.293   5.933   2.485  0.2457 -0.8072  0.2128
 3193SOL    HW212538   1.248   5.976   2.558  1.1634  0.0748  0.2760
 3193SOL    HW312539   1.263   5.842   2.489 -1.6633 -0.2280  0.1333
 3193SOL    MW412540   1.283   5.926   2.495  0.1149 -0.6144  0.2107
 3194SOL     OW12541   3.723   2.348   1.746 -0.0420 -0.0280  0.3773
 3194SOL    HW212542   3.665   2.422   1.763 -1.1558 -0.2501 -2.0052
 3194SOL    HW312543   3.677   2.273   1.784  0.0445  0.1842  0.9109
 3194SOL    MW412544   3.709   2.348   1.753 -0.1775 -0.0293  0.1334
 3195SOL     OW12545   1.403   5.475   4.020 -0.1976  0.1682 -0.5158
 3195SOL    HW212546   1.456   5.423   3.959 -0.3559 -0.8315  0.1820
 3195SOL    HW312547   1.348   5.530   3.963 -0.3561 -0.7561 -1.2803
 3195SOL    MW412548   1.403   5.476   4.004 -0.2394 -0.0857 -0.5246
 3196SOL     OW12549   3.456   2.456   6.193 -0.2184  0.5736 -0.6012
 3196SOL    HW212550   3.471   2.367   6.162 -1.1349  0.2494 -0.1480
 3196SOL    HW312551   3.536   2.503   6.169  1.1454 -0.8459  0.9526
 3196SOL    MW412552   3.469   2.451   6.185 -0.1594  0.3436 -0.3364
 3197SOL     OW12553   5.129   4.464   4.956  0.2787 -0.2415 -0.2707
 3197SOL    HW212554   5.160   4.540   5.006 -1.2309  0.7302 -0.7514
 3197SOL    HW312555   5.034   4.474   4.953  0.1812 -1.2494 -1.7987
 3197SOL    MW412556   5.120   4.475   4.962  0.0667 -0.2463 -0.5357
 3198SOL     OW12557   4.043   1.869   2.529  0.1565  0.5452  0.3238
 3198SOL    HW212558   4.045   1.915   2.613  0.6877 -0.3743  0.8276
 3198SOL    HW312559   3.965   1.814   2.533 -0.8037  1.8027 -0.5152
 3198SOL    MW412560   4.033   1.868   2.541  0.0999  0.5898  0.2796
 3199SOL     OW12561   2.075   6.172   0.076  0.2377 -0.0822 -0.2875
 3199SOL    HW212562   2.103   6.160  -0.015  0.6558  1.1512 -0.3436
 3199SOL    HW312563   2.037   6.088   0.101 -0.3169 -0.2999 -1.7578
 3199SOL    MW412564   2.074   6.159   0.067  0.2197  0.0518 -0.4889
 3200SOL     OW12565   4.839   3.997   5.970 -0.0463  0.0335  0.3285
 3200SOL    HW212566   4.860   3.942   5.895  0.0515 -0.8860  1.0114
 3200SOL    HW312567   4.775   3.946   6.019  0.5225  0.2463  1.3148
 3200SOL    MW412568   4.833   3.983   5.966  0.0417 -0.0597  0.5487
 3201SOL     OW12569   1.149   4.489   1.730 -1.3984  0.6861 -0.5220
 3201SOL    HW212570   1.196   4.407   1.719 -0.8683  0.9905 -0.5454
 3201SOL    HW312571   1.137   4.497   1.825 -0.4425  1.1303 -0.4236
 3201SOL    MW412572   1.154   4.479   1.741 -1.2024  0.7849 -0.5121
 3202SOL     OW12573   0.285   1.398   2.425 -0.4945  0.0801 -0.6057
 3202SOL    HW212574   0.190   1.388   2.430 -0.4345 -0.0025  1.3781
 3202SOL    HW312575   0.318   1.308   2.434 -0.2283  0.1653 -0.7374
 3202SOL    MW412576   0.277   1.385   2.427 -0.4514  0.0805 -0.3613
 3203SOL     OW12577   4.944   5.472   4.002 -0.0941  0.0636  0.7233
 3203SOL    HW212578   5.022   5.527   3.991  0.4141 -0.9727 -1.1928
 3203SOL    HW312579   4.977   5.382   4.002 -1.2847 -0.4081 -0.3534
 3203SOL    MW412580   4.959   5.468   4.001 -0.1841 -0.1354  0.3284
 3204SOL     OW12581   0.431   3.941   1.196 -0.4671 -0.2795 -0.4526
 3204SOL    HW212582   0.422   3.869   1.259  0.3647  0.4546  0.5279
 3204SOL    HW312583   0.351   3.992   1.206 -0.1430  0.0788  0.3283
 3204SOL    MW412584   0.420   3.938   1.205 -0.3146 -0.1354 -0.2202
 3205SOL     OW12585   0.164   4.146   2.867  0.4105  0.0741 -0.1950
 3205SOL    HW212586   0.196   4.187   2.787  2.5839  1.1171  1.1226
 3205SOL    HW312587   0.235   4.089   2.895  0.0906  0.4364  1.4568
 3205SOL    MW412588   0.178   4.144   2.860  0.6550  0.2595  0.1968
 3206SOL     OW12589   5.685   0.815   5.857 -0.0639 -0.1447 -0.0051
 3206SOL    HW212590   5.601   0.801   5.814 -0.5795  2.9229 -0.2589
 3206SOL    HW312591   5.744   0.844   5.787  0.2376  0.9211  0.6527
 3206SOL    MW412592   5.682   0.817   5.842 -0.0921  0.4007  0.0482
 3207SOL     OW12593   4.418   3.778   6.215  0.0436 -0.5166 -0.6135
 3207SOL    HW212594   4.417   3.720   6.291  0.0876 -0.3164 -0.4576
 3207SOL    HW312595   4.330   3.771   6.179 -0.1273 -0.2483 -0.2603
 3207SOL    MW412596   4.406   3.769   6.221  0.0269 -0.4548 -0.5463
 3208SOL     OW12597   2.751   6.097   0.730 -0.4803 -0.1656 -0.1868
 3208SOL    HW212598   2.722   6.187   0.747  0.1806 -0.0672  0.4851
 3208SOL    HW312599   2.797   6.102   0.647  1.1714  0.5119  0.7298
 3208SOL    MW412600   2.753   6.110   0.722 -0.1752 -0.0633  0.0228
 3209SOL     OW12601   2.994   2.175   1.615  0.1652 -0.1166  0.1104
 3209SOL    HW212602   2.958   2.086   1.607 -1.1032  0.3590  0.3451
 3209SOL    HW312603   3.005   2.188   1.709 -0.3555  0.2369  0.1271
 3209SOL    MW412604   2.991   2.165   1.626 -0.0708 -0.0072  0.1435
 3210SOL     OW12605   3.298   5.680   3.082  0.9108  0.2763  0.3538
 3210SOL    HW212606   3.310   5.662   2.989  0.3490  0.4015  0.2532
 3210SOL    HW312607   3.319   5.773   3.092  0.7885  0.3082  0.3172
 3210SOL    MW412608   3.302   5.690   3.071  0.8205  0.2970  0.3357
 3211SOL     OW12609   3.198   0.043   2.097  0.1982 -0.1407  0.1561
 3211SOL    HW212610   3.164   0.027   2.185  1.0423 -0.9734  0.3378
 3211SOL    HW312611   3.158  -0.025   2.043 -0.0015  0.1261 -0.0428
 3211SOL    MW412612   3.188   0.032   2.101  0.2832 -0.2154  0.1539
 3212SOL     OW12613   2.697   3.138   6.082 -0.3280 -0.2086 -0.2983
 3212SOL    HW212614   2.680   3.180   6.166  0.1820 -0.8181  0.1173
 3212SOL    HW312615   2.658   3.197   6.018  0.2944  0.8594  0.2731
 3212SOL    MW412616   2.690   3.152   6.085 -0.1786 -0.1481 -0.1681
 3213SOL     OW12617   5.046   0.033   4.361  0.2592  0.4748  0.1163
 3213SOL    HW212618   5.006  -0.053   4.344 -1.0132  0.9730  0.4452
 3213SOL    HW312619   5.125   0.033   4.308 -0.5745 -0.2759 -1.2129
 3213SOL    MW412620   5.051   0.022   4.351 -0.0187  0.4415 -0.0157
 3214SOL     OW12621   6.004   2.521   4.748 -0.1742  0.0069  0.7746
 3214SOL    HW212622   6.018   2.605   4.791 -0.8687  0.1576  0.7212
 3214SOL    HW312623   5.915   2.526   4.714  0.4948  0.0602 -1.0590
 3214SOL    MW412624   5.994   2.533   4.749 -0.1776  0.0338  0.5256
 3215SOL     OW12625   0.213   5.215   1.430 -0.6111 -0.3749 -0.1936
 3215SOL    HW212626   0.184   5.137   1.476  0.2872  0.1097  1.2488
 3215SOL    HW312627   0.255   5.268   1.497 -0.3575  0.9204 -1.3414
 3215SOL    MW412628   0.215   5.212   1.445 -0.4591 -0.1401 -0.1547
 3216SOL     OW12629   0.599   4.297   3.740  0.2319  0.3998 -0.0932
 3216SOL    HW212630   0.641   4.346   3.669 -1.3899 -0.1032 -1.4853
 3216SOL    HW312631   0.671   4.261   3.791  1.5510 -0.6499 -2.5239
 3216SOL    MW412632   0.614   4.299   3.737  0.1919  0.1950 -0.5976
 3217SOL     OW12633   1.512   1.679   2.798  0.0561  0.3834 -0.6651
 3217SOL    HW212634   1.547   1.732   2.869 -1.1809 -0.8160  0.9233
 3217SOL    HW312635   1.564   1.599   2.800 -1.9502 -0.9970  1.0694
 3217SOL    MW412636   1.523   1.675   2.808 -0.3718  0.0430 -0.2267
 3218SOL     OW12637   4.510   6.059   5.885 -0.5197 -0.9537 -0.2464
 3218SOL    HW212638   4.581   6.122   5.898 -0.9707 -0.0523 -1.8843
 3218SOL    HW312639   4.505   6.012   5.968  0.2101  0.7858  0.8487
 3218SOL    MW412640   4.519   6.061   5.898 -0.4829 -0.6053 -0.3180
 3219SOL     OW12641   5.731   1.269   5.833 -0.3938  0.4431  0.6634
 3219SOL    HW212642   5.717   1.348   5.884  0.0515  0.3885  0.8773
 3219SOL    HW312643   5.696   1.198   5.888  1.1092  0.2429  1.4304
 3219SOL    MW412644   5.725   1.270   5.847 -0.1367  0.4095  0.7928
 3220SOL     OW12645   4.638   3.033   3.378 -0.4092 -0.3384 -0.1845
 3220SOL    HW212646   4.598   3.023   3.291 -1.6401 -0.4537  0.3695
 3220SOL    HW312647   4.673   2.946   3.397  1.2638  0.0759 -1.1980
 3220SOL    MW412648   4.637   3.020   3.369 -0.3509 -0.2990 -0.2451
 3221SOL     OW12649   3.884   1.593   2.233 -0.0872 -0.2090  0.0271
 3221SOL    HW212650   3.917   1.529   2.295 -0.5629 -0.3423  0.1512
 3221SOL    HW312651   3.942   1.586   2.157 -0.2070 -0.8743 -0.0052
 3221SOL    MW412652   3.896   1.584   2.231 -0.1657 -0.3143  0.0392
 3222SOL     OW12653   4.369   2.744   4.662  0.1682 -0.1760 -0.1731
 3222SOL    HW212654   4.440   2.779   4.716  1.2634 -0.1461 -1.5808
 3222SOL    HW312655   4.403   2.661   4.629 -0.8553 -0.6416 -0.0837
 3222SOL    MW412656   4.383   2.738   4.665  0.1777 -0.2334 -0.3471
 3223SOL     OW12657   4.327   2.326   0.697  0.0443  0.1636  0.3603
 3223SOL    HW212658   4.351   2.338   0.605  0.6321 -0.6709  0.3900
 3223SOL    HW312659   4.409   2.340   0.745 -0.2618  0.6108  0.7682
 3223SOL    MW412660   4.341   2.329   0.691  0.0815  0.1125  0.4181
 3224SOL     OW12661   3.948   5.782   1.330  0.0573 -0.5098 -0.1133
 3224SOL    HW212662   4.006   5.856   1.310 -1.5382  0.1886 -2.5949
 3224SOL    HW312663   4.007   5.710   1.349  1.7167  0.6009 -0.7879
 3224SOL    MW412664   3.964   5.783   1.330  0.0658 -0.2711 -0.5297
 3225SOL     OW12665   6.271   4.812   2.842  0.8573 -0.5042 -0.0468
 3225SOL    HW212666   6.327   4.756   2.895 -0.5905 -1.5193  0.4702
 3225SOL    HW312667   6.182   4.792   2.871  0.1749  0.6928 -1.1827
 3225SOL    MW412668   6.267   4.802   2.853  0.5763 -0.4802 -0.1285
 3226SOL     OW12669   4.374   3.084   2.250 -0.3346 -0.1043  0.0108
 3226SOL    HW212670   4.333   3.017   2.305  1.9693 -0.7958  0.9918
 3226SOL    HW312671   4.358   3.166   2.297 -2.1579 -0.0631 -0.5973
 3226SOL    MW412672   4.366   3.086   2.264 -0.2712 -0.1901  0.0600
 3227SOL     OW12673   2.044   1.083   3.666  0.1931 -0.2188 -0.2639
 3227SOL    HW212674   2.027   1.157   3.724 -2.6085 -0.1911 -1.0022
 3227SOL    HW312675   2.134   1.099   3.634  1.5067  0.2150  3.2271
 3227SOL    MW412676   2.054   1.095   3.669 -0.0032 -0.1579  0.0993
 3228SOL     OW12677   0.009   5.913   1.830  0.1693  0.7962 -0.1309
 3228SOL    HW212678  -0.044   5.983   1.792  0.6024  0.3730 -1.5724
 3228SOL    HW312679   0.038   5.861   1.755 -1.7296 -2.1179  0.9351
 3228SOL    MW412680   0.006   5.915   1.815 -0.0241  0.3559 -0.1804
 3229SOL     OW12681   2.275   2.093   0.212 -0.2380  0.1600 -0.3414
 3229SOL    HW212682   2.288   2.169   0.156  1.0959 -0.9048 -1.5720
 3229SOL    HW312683   2.185   2.065   0.194 -0.4150  0.8750 -0.5954
 3229SOL    MW412684   2.265   2.099   0.202 -0.0854  0.1139 -0.5372
 3230SOL     OW12685   0.594   5.237   0.112 -0.3872  0.2632  0.6494
 3230SOL    HW212686   0.526   5.218   0.047 -0.6032 -0.8949  1.1900
 3230SOL    HW312687   0.629   5.151   0.136  1.5692  0.8558  0.0990
 3230SOL    MW412688   0.589   5.223   0.106 -0.1576  0.1886  0.6481
 3231SOL     OW12689   2.365   6.149   5.668 -0.3574 -0.5980 -0.1795
 3231SOL    HW212690   2.352   6.190   5.583 -0.9501  0.1355  0.2521
 3231SOL    HW312691   2.448   6.103   5.660  0.1074  0.3195 -0.8260
 3231SOL    MW412692   2.374   6.148   5.656 -0.3743 -0.3802 -0.2079
 3232SOL     OW12693   2.270   5.914   5.465 -0.3206  0.0832  0.2271
 3232SOL    HW212694   2.237   5.895   5.377 -1.7549  0.0488  0.7404
 3232SOL    HW312695   2.206   5.976   5.501  0.9090  1.0653  0.8192
 3232SOL    MW412696   2.257   5.920   5.458 -0.3476  0.2083  0.3730
 3233SOL     OW12697   5.706   0.725   2.440  1.2720 -0.4948  0.4168
 3233SOL    HW212698   5.664   0.692   2.360 -0.2993  2.5673 -0.1489
 3233SOL    HW312699   5.800   0.729   2.418  1.1504 -1.7666 -0.4456
 3233SOL    MW412700   5.713   0.721   2.427  1.0487 -0.2586  0.2284
 3234SOL     OW12701   2.354   3.399   4.214 -0.0048 -0.3342  0.1822
 3234SOL    HW212702   2.431   3.366   4.168  0.3714  1.2823 -0.4352
 3234SOL    HW312703   2.379   3.487   4.242 -1.4783  0.0640  0.3378
 3234SOL    MW412704   2.368   3.407   4.211 -0.1496 -0.0684  0.1213
 3235SOL     OW12705   5.735   3.368   6.148  0.1352  0.0601  0.1213
 3235SOL    HW212706   5.772   3.289   6.109 -0.5300 -0.2910  0.1869
 3235SOL    HW312707   5.640   3.356   6.141 -0.0329  1.7488 -1.7630
 3235SOL    MW412708   5.727   3.356   6.142  0.0252  0.2366 -0.1187
 3236SOL     OW12709   6.360   2.643   2.719  0.5512  0.1801 -0.8375
 3236SOL    HW212710   6.277   2.629   2.672  1.1838 -0.6902 -1.7423
 3236SOL    HW312711   6.345   2.723   2.770 -0.3415  0.8952 -2.1438
 3236SOL    MW412712   6.347   2.652   2.719  0.5169  0.1596 -1.1293
 3237SOL     OW12713   3.573   1.332   5.800 -0.1465  0.3689 -0.6485
 3237SOL    HW212714   3.569   1.326   5.896 -0.1194  2.1764 -0.4970
 3237SOL    HW312715   3.666   1.348   5.781 -0.0864 -0.3765 -1.0195
 3237SOL    MW412716   3.585   1.334   5.810 -0.1350  0.5090 -0.6775
 3238SOL     OW12717   0.261   2.601   3.050  0.3116 -0.3738 -0.9507
 3238SOL    HW212718   0.168   2.578   3.051 -0.5413  2.3381 -3.5975
 3238SOL    HW312719   0.297   2.551   2.977  1.0540 -1.5339  0.1593
 3238SOL    MW412720   0.254   2.591   3.041  0.2970 -0.1691 -1.1535
 3239SOL     OW12721   4.005   6.270   0.506 -0.7810 -0.0838  0.1122
 3239SOL    HW212722   3.950   6.268   0.428 -0.6678  2.6700 -0.1501
 3239SOL    HW312723   3.943   6.259   0.579 -1.1956 -0.4381 -0.2899
 3239SOL    MW412724   3.989   6.269   0.505 -0.8208  0.2328  0.0245
 3240SOL     OW12725   1.891   3.037   4.163 -0.0561  0.1521  0.0753
 3240SOL    HW212726   1.937   3.009   4.242  1.6984  1.8004 -0.2700
 3240SOL    HW312727   1.873   2.956   4.116  1.7374 -0.6709  0.7044
 3240SOL    MW412728   1.895   3.023   4.167  0.4120  0.2610  0.1127
 3241SOL     OW12729   0.174   0.209   1.379  0.4865  1.0215 -0.0327
 3241SOL    HW212730   0.219   0.272   1.322 -0.5543  1.9622  0.1392
 3241SOL    HW312731   0.158   0.257   1.460 -4.4273  2.3362 -1.4005
 3241SOL    MW412732   0.177   0.224   1.382 -0.2991  1.3191 -0.1905
 3242SOL     OW12733   2.656   2.113   0.805 -0.0161 -0.0559  0.3179
 3242SOL    HW212734   2.695   2.192   0.768 -0.5483 -0.5037 -1.2917
 3242SOL    HW312735   2.564   2.136   0.819  0.1092  0.0044  1.0817
 3242SOL    MW412736   2.649   2.127   0.802 -0.0698 -0.1070  0.2063
 3243SOL     OW12737   2.060   0.525   5.125 -0.0540  0.4481 -0.2888
 3243SOL    HW212738   2.113   0.456   5.165 -0.1162  0.7772  0.3887
 3243SOL    HW312739   2.119   0.568   5.063  0.1398  0.1096 -0.3373
 3243SOL    MW412740   2.075   0.522   5.122 -0.0366  0.4468 -0.2058
 3244SOL     OW12741   0.570   2.784   0.911 -0.7763  0.2599  0.2025
 3244SOL    HW212742   0.654   2.755   0.875 -0.4855  2.1792 -0.7962
 3244SOL    HW312743   0.526   2.828   0.838 -2.9063 -1.1001  0.5593
 3244SOL    MW412744   0.575   2.786   0.896 -1.0190  0.3337  0.1178
 3245SOL     OW12745   5.896   5.252   0.313  0.2420  0.0306  0.4703
 3245SOL    HW212746   5.942   5.307   0.377 -0.5292  1.1119  0.1309
 3245SOL    HW312747   5.814   5.298   0.297 -1.5766 -2.4053  1.9505
 3245SOL    MW412748   5.891   5.265   0.319 -0.0997 -0.1482  0.6208
 3246SOL     OW12749   2.487   0.628   4.406  0.8550 -0.5900  0.1428
 3246SOL    HW212750   2.506   0.658   4.495  0.0445 -1.4629  0.6181
 3246SOL    HW312751   2.392   0.632   4.399  0.9057 -0.7021 -0.6266
 3246SOL    MW412752   2.477   0.632   4.417  0.7547 -0.7200  0.1040
 3247SOL     OW12753   1.767   5.895   6.264 -0.1016 -0.1176 -0.1470
 3247SOL    HW212754   1.811   5.973   6.232  1.8076 -0.9955  0.1863
 3247SOL    HW312755   1.741   5.847   6.186 -0.0628  0.1979 -0.3526
 3247SOL    MW412756   1.770   5.899   6.250  0.1554 -0.1918 -0.1302
 3248SOL     OW12757   5.421   5.204   0.420  0.5372  0.2266  0.1591
 3248SOL    HW212758   5.325   5.198   0.413  0.5521 -0.4670  0.4953
 3248SOL    HW312759   5.453   5.126   0.373  0.9354  0.3818  0.1707
 3248SOL    MW412760   5.412   5.193   0.413  0.5917  0.1555  0.2050
 3249SOL     OW12761   1.125   3.958   1.803 -0.4721  0.0582  0.3553
 3249SOL    HW212762   1.154   3.971   1.712 -1.3168  0.9063  0.1893
 3249SOL    HW312763   1.206   3.946   1.853  0.0095 -0.2731 -0.4866
 3249SOL    MW412764   1.140   3.958   1.797 -0.5200  0.1264  0.2223
 3250SOL     OW12765   1.088   5.330   0.553  0.6372  0.0670  0.6639
 3250SOL    HW212766   0.993   5.337   0.553  0.3880 -2.3634  1.5261
 3250SOL    HW312767   1.115   5.353   0.464 -0.7310  0.8996  0.4486
 3250SOL    MW412768   1.079   5.334   0.541  0.4238 -0.1438  0.7493
 3251SOL     OW12769   5.932   1.509   0.800 -0.0342 -0.3249  0.2372
 3251SOL    HW212770   5.983   1.566   0.858 -0.2420  0.9596 -0.7909
 3251SOL    HW312771   5.952   1.420   0.830  0.6275  0.2616  1.6255
 3251SOL    MW412772   5.942   1.505   0.812  0.0257 -0.0781  0.2847
 3252SOL     OW12773   1.502   3.403   4.916  0.0788 -0.2169 -0.4043
 3252SOL    HW212774   1.502   3.478   4.976  0.0896  0.2639 -0.9915
 3252SOL    HW312775   1.543   3.437   4.837 -2.8029  0.1402 -1.8679
 3252SOL    MW412776   1.507   3.417   4.914 -0.3000 -0.1063 -0.6749
 3253SOL     OW12777   6.280   3.794   6.116 -0.3381 -0.2379  0.2253
 3253SOL    HW212778   6.298   3.789   6.022 -1.2064 -0.1484  0.0439
 3253SOL    HW312779   6.269   3.888   6.133  0.5878 -0.1864  0.5727
 3253SOL    MW412780   6.281   3.806   6.106 -0.3305 -0.2193  0.2472
 3254SOL     OW12781   0.177   3.210   6.085  0.4075 -0.0795 -0.1954
 3254SOL    HW212782   0.210   3.126   6.116  0.9149 -0.6591 -2.1707
 3254SOL    HW312783   0.212   3.274   6.147  0.1225 -1.2858  1.2636
 3254SOL    MW412784   0.186   3.208   6.097  0.4369 -0.3151 -0.2635
 3255SOL     OW12785   4.215   0.667   0.394  0.0249 -0.2600  0.4047
 3255SOL    HW212786   4.298   0.651   0.440  0.1969 -3.1560 -0.6928
 3255SOL    HW312787   4.241   0.710   0.312  0.3566 -0.3039  0.4837
 3255SOL    MW412788   4.230   0.671   0.389  0.0913 -0.6478  0.2704
 3256SOL     OW12789   2.702   5.665   0.837  0.4279  0.2664  0.2092
 3256SOL    HW212790   2.719   5.751   0.876 -1.8184 -0.0448  2.0399
 3256SOL    HW312791   2.785   5.617   0.849  0.7794  1.2106  1.9003
 3256SOL    MW412792   2.715   5.670   0.844  0.1779  0.3499  0.6739
 3257SOL     OW12793   1.782   1.771   0.265 -0.0562  0.3253 -0.4850
 3257SOL    HW212794   1.751   1.855   0.299 -0.0227 -0.2098  0.9130
 3257SOL    HW312795   1.846   1.741   0.330 -0.4283 -1.0054 -0.7167
 3257SOL    MW412796   1.786   1.778   0.278 -0.1009  0.0791 -0.3311
 3258SOL     OW12797   5.863   6.423   2.773 -0.0423  0.2944  0.5278
 3258SOL    HW212798   5.872   6.455   2.683 -1.1624  0.6038  0.5187
 3258SOL    HW312799   5.853   6.502   2.826 -0.4729  0.0632  0.7914
 3258SOL    MW412800   5.863   6.438   2.768 -0.2469  0.3047  0.5614
 3259SOL     OW12801   3.233   3.446   1.860 -0.0339  0.2603 -0.4590
 3259SOL    HW212802   3.326   3.452   1.838  0.8296 -2.8787  1.7609
 3259SOL    HW312803   3.204   3.364   1.818 -1.2247  0.0953  0.6373
 3259SOL    MW412804   3.241   3.436   1.851 -0.0771 -0.1756 -0.0215
 3260SOL     OW12805   3.548   5.209   1.810 -0.2888 -0.3923 -0.3850
 3260SOL    HW212806   3.633   5.166   1.812  1.2565  2.4006 -0.1701
 3260SOL    HW312807   3.527   5.217   1.717 -0.1078 -0.7262 -0.4554
 3260SOL    MW412808   3.556   5.205   1.798 -0.0611 -0.0679 -0.3659
 3261SOL     OW12809   0.632   5.981   2.702  0.1803 -0.0604  0.2479
 3261SOL    HW212810   0.627   6.076   2.690  1.1592 -0.0332 -0.0208
 3261SOL    HW312811   0.649   5.947   2.615 -1.2315 -0.5833  0.1647
 3261SOL    MW412812   0.634   5.989   2.689  0.1232 -0.1258  0.2015
 3262SOL     OW12813   6.251   0.691   3.438 -0.1097  0.8278 -0.2739
 3262SOL    HW212814   6.343   0.712   3.420  0.3044  1.2680  2.0875
 3262SOL    HW312815   6.210   0.776   3.454 -0.8471  0.5980 -0.8728
 3262SOL    MW412816   6.258   0.705   3.437 -0.1524  0.8555 -0.0414
 3263SOL     OW12817   5.276   4.842   1.352  0.1455  0.3667  0.0416
 3263SOL    HW212818   5.298   4.896   1.276 -0.9973  0.8702  0.0508
 3263SOL    HW312819   5.317   4.886   1.426  0.6116  0.3011 -0.1729
 3263SOL    MW412820   5.285   4.855   1.351  0.0562  0.4244  0.0145
 3264SOL     OW12821   5.219   2.996   3.138 -0.1778  0.7845  0.3036
 3264SOL    HW212822   5.250   3.028   3.222  1.1572  0.2686  0.0310
 3264SOL    HW312823   5.136   3.043   3.124  0.0240  1.5434  1.4740
 3264SOL    MW412824   5.212   3.007   3.147  0.0250  0.8166  0.4221
 3265SOL     OW12825   2.846   2.655   6.347 -0.6090 -0.3695  0.7076
 3265SOL    HW212826   2.758   2.649   6.383 -1.0791  0.3764 -0.2701
 3265SOL    HW312827   2.870   2.747   6.357 -0.8327 -0.0900 -1.0027
 3265SOL    MW412828   2.837   2.666   6.353 -0.7006 -0.2342  0.3529
 3266SOL     OW12829   5.426   3.443   2.802 -0.2804  0.4835  0.0884
 3266SOL    HW212830   5.502   3.497   2.783  0.1259  0.3866  1.3392
 3266SOL    HW312831   5.463   3.362   2.837 -0.8586 -0.8205 -2.1443
 3266SOL    MW412832   5.441   3.439   2.804 -0.3031  0.2987 -0.0411
 3267SOL     OW12833   2.782   0.158   3.076 -0.0820  1.0443  0.0920
 3267SOL    HW212834   2.723   0.209   3.020 -0.0714  1.1671  0.1900
 3267SOL    HW312835   2.728   0.087   3.110 -0.3065  1.4280  0.5584
 3267SOL    MW412836   2.767   0.155   3.073 -0.1102  1.1112  0.1665
 3268SOL     OW12837   6.169   2.736   4.864  0.5044 -0.0519 -0.6450
 3268SOL    HW212838   6.165   2.743   4.959 -0.3149 -0.5090 -0.6384
 3268SOL    HW312839   6.237   2.798   4.838 -0.0243  0.8862  0.1520
 3268SOL    MW412840   6.177   2.745   4.873  0.3265  0.0115 -0.5389
 3269SOL     OW12841   4.961   0.446   3.707  0.1642 -0.1576  0.7058
 3269SOL    HW212842   4.936   0.370   3.759  1.8228 -0.9922  0.3209
 3269SOL    HW312843   5.035   0.485   3.754  1.9719 -1.1591 -1.1556
 3269SOL    MW412844   4.967   0.441   3.720  0.6215 -0.3998  0.4094
 3270SOL     OW12845   5.375   0.524   0.395 -0.3433  0.6313 -0.1790
 3270SOL    HW212846   5.404   0.452   0.339 -1.4848 -0.1542  0.1963
 3270SOL    HW312847   5.425   0.513   0.476 -1.4095 -0.5215  0.3487
 3270SOL    MW412848   5.386   0.513   0.398 -0.6346  0.3755 -0.0599
 3271SOL     OW12849   6.001   0.793   2.090 -0.1304  0.0505  0.1151
 3271SOL    HW212850   5.967   0.779   2.001  0.6553 -0.2718 -0.1405
 3271SOL    HW312851   5.951   0.868   2.122 -0.6815 -0.0535 -0.4579
 3271SOL    MW412852   5.990   0.801   2.083 -0.0995 -0.0057  0.0057
 3272SOL     OW12853   2.152   2.815   0.389  0.0265  0.2467 -0.4144
 3272SOL    HW212854   2.115   2.726   0.394 -0.6110  0.5749  2.6336
 3272SOL    HW312855   2.245   2.803   0.405  0.4621 -0.0775 -2.8648
 3272SOL    MW412856   2.159   2.802   0.392 -0.0001  0.2472 -0.3355
 3273SOL     OW12857   3.159   3.680   4.612  0.1761  0.4326 -0.3414
 3273SOL    HW212858   3.197   3.744   4.673 -0.2786  0.6331 -0.2654
 3273SOL    HW312859   3.085   3.726   4.573  0.3581  0.2398 -0.9175
 3273SOL    MW412860   3.154   3.695   4.615  0.1401  0.4336 -0.4074
 3274SOL     OW12861   4.134   1.386   4.019  0.1036 -0.1915  0.1147
 3274SOL    HW212862   4.081   1.381   3.940 -0.6169 -1.1007  0.6377
 3274SOL    HW312863   4.221   1.356   3.992  0.0246  0.0772 -0.4549
 3274SOL    MW412864   4.139   1.382   4.005 -0.0019 -0.2760  0.1085
 3275SOL     OW12865   4.746   1.633   0.439 -0.2819 -0.4322  0.0919
 3275SOL    HW212866   4.714   1.660   0.526  0.7913 -1.5285  0.8643
 3275SOL    HW312867   4.826   1.584   0.458  1.2471  1.2621 -1.7005
 3275SOL    MW412868   4.752   1.630   0.453  0.0615 -0.3533 -0.0427
 3276SOL     OW12869   2.826   0.875   0.918 -0.1850  0.1869  0.0414
 3276SOL    HW212870   2.798   0.852   1.007  0.3886  0.2903  0.2555
 3276SOL    HW312871   2.798   0.965   0.906 -1.3512 -0.2010 -0.3459
 3276SOL    MW412872   2.819   0.884   0.928 -0.2632  0.1494  0.0186
 3277SOL     OW12873   4.527   3.523   5.098 -0.1004 -0.2850 -0.7316
 3277SOL    HW212874   4.447   3.544   5.050  0.9518 -0.8531 -2.8652
 3277SOL    HW312875   4.555   3.606   5.137 -1.1405  0.1283 -0.8417
 3277SOL    MW412876   4.520   3.536   5.097 -0.0988 -0.3055 -1.0277
 3278SOL     OW12877   0.783   3.320   5.819  0.5149 -0.2561  0.2629
 3278SOL    HW212878   0.716   3.268   5.865  0.3026 -0.9451 -0.7824
 3278SOL    HW312879   0.790   3.401   5.870 -0.6197 -0.4666  0.7869
 3278SOL    MW412880   0.775   3.324   5.832  0.3372 -0.3748  0.1941
 3279SOL     OW12881   4.121   6.387   4.704 -0.2291  0.0271 -0.5261
 3279SOL    HW212882   4.073   6.464   4.734  0.1268 -0.9527  3.0838
 3279SOL    HW312883   4.213   6.414   4.704 -0.0968 -0.3237  0.8134
 3279SOL    MW412884   4.127   6.400   4.708 -0.1647 -0.1485  0.1269
 3280SOL     OW12885   0.991   0.203   4.868  0.1087  0.1053  0.1376
 3280SOL    HW212886   1.040   0.283   4.888 -0.4010  0.0797  1.6936
 3280SOL    HW312887   0.901   0.232   4.859 -0.1683 -0.3475  1.2925
 3280SOL    MW412888   0.986   0.217   4.870  0.0049  0.0422  0.4953
 3281SOL     OW12889   0.591   4.947   5.450  0.8893 -0.1324 -0.5232
 3281SOL    HW212890   0.581   4.915   5.540  0.6317  1.2531 -0.0443
 3281SOL    HW312891   0.538   5.026   5.447  0.5493 -0.4015 -2.0298
 3281SOL    MW412892   0.583   4.953   5.462  0.8104  0.0149 -0.6588
 3282SOL     OW12893   0.977   1.976   6.034  0.0357 -0.0462 -0.0757
 3282SOL    HW212894   0.894   2.011   6.002 -1.0811 -1.0483  1.5704
 3282SOL    HW312895   1.004   2.034   6.104  0.1565 -0.3429  0.1283
 3282SOL    MW412896   0.970   1.988   6.039 -0.0957 -0.2175  0.1684
 3283SOL     OW12897   1.631   0.217   0.917  0.2303 -0.2756  0.3833
 3283SOL    HW212898   1.660   0.133   0.953  1.4826  0.5152  1.3300
 3283SOL    HW312899   1.711   0.270   0.913 -0.0758  0.1222 -2.4170
 3283SOL    MW412900   1.646   0.213   0.921  0.3552 -0.1188  0.1387
 3284SOL     OW12901   5.002   1.377   1.120 -0.3182  0.2209  0.0738
 3284SOL    HW212902   5.018   1.463   1.080  2.7454 -0.3273 -0.1774
 3284SOL    HW312903   5.004   1.393   1.214  3.3191  0.1864  0.1547
 3284SOL    MW412904   5.005   1.391   1.127  0.5659  0.1440  0.0513
 3285SOL     OW12905   5.809   4.569   0.730  0.4615  0.1083  0.3999
 3285SOL    HW212906   5.897   4.550   0.763 -0.0992 -0.6433  1.5594
 3285SOL    HW312907   5.822   4.598   0.640  1.8338 -0.6587  0.3272
 3285SOL    MW412908   5.822   4.571   0.723  0.5686 -0.0921  0.5433
 3286SOL     OW12909   0.868   0.435   5.088 -0.0910 -0.2090 -0.1800
 3286SOL    HW212910   0.842   0.487   5.012  2.4932  0.8841 -0.3933
 3286SOL    HW312911   0.963   0.435   5.086  0.1158  0.7741  3.6785
 3286SOL    MW412912   0.877   0.442   5.077  0.2772  0.0650  0.3010
 3287SOL     OW12913   2.231   0.434   4.548 -0.3438 -1.3059 -0.5230
 3287SOL    HW212914   2.140   0.420   4.573 -0.1723 -0.9613  0.3249
 3287SOL    HW312915   2.281   0.380   4.609  0.0617 -0.9454 -0.5359
 3287SOL    MW412916   2.226   0.425   4.559 -0.2677 -1.2128 -0.4128
 3288SOL     OW12917   0.674   3.720   1.091 -0.7031  0.6961 -0.6180
 3288SOL    HW212918   0.747   3.661   1.070 -2.2741 -1.5161 -0.1970
 3288SOL    HW312919   0.714   3.807   1.096  1.5263 -0.1371 -2.3989
 3288SOL    MW412920   0.689   3.723   1.089 -0.6162  0.2943 -0.7974
 3289SOL     OW12921   0.978   4.589   0.648  0.4502 -0.1798  0.1018
 3289SOL    HW212922   0.979   4.635   0.563  0.2320  0.0398  0.2157
 3289SOL    HW312923   0.886   4.568   0.661  0.7095 -1.9557 -0.6435
 3289SOL    MW412924   0.966   4.593   0.638  0.4556 -0.3851  0.0185
 3290SOL     OW12925   0.808   3.227   2.532 -0.2516  0.8275  0.3094
 3290SOL    HW212926   0.890   3.272   2.513 -0.0954  0.6969  0.6496
 3290SOL    HW312927   0.836   3.147   2.577 -0.4918  0.1879 -0.6348
 3290SOL    MW412928   0.823   3.222   2.535 -0.2627  0.7259  0.2297
 3291SOL     OW12929   3.001   1.895   2.274 -0.2938 -0.0012  0.2499
 3291SOL    HW212930   3.018   1.943   2.355  0.9539 -1.0881  0.6666
 3291SOL    HW312931   2.938   1.828   2.299 -1.0251  0.5594 -0.0363
 3291SOL    MW412932   2.995   1.893   2.288 -0.2257 -0.0706  0.2671
 3292SOL     OW12933   6.049   5.382   1.466 -0.1607 -0.1606  0.0179
 3292SOL    HW212934   6.087   5.470   1.466  0.4325 -0.4128  0.0921
 3292SOL    HW312935   5.966   5.392   1.513 -0.6715  0.5962 -1.0036
 3292SOL    MW412936   6.043   5.395   1.473 -0.1498 -0.0941 -0.1070
 3293SOL     OW12937   0.037   0.150   4.394  0.4871 -0.1743  0.3118
 3293SOL    HW212938   0.077   0.235   4.373 -0.1698  0.1674  0.4174
 3293SOL    HW312939  -0.019   0.168   4.469 -0.1902 -0.5529 -0.0956
 3293SOL    MW412940   0.035   0.164   4.401  0.3111 -0.1792  0.2720
 3294SOL     OW12941   5.151   6.405   2.694  0.3121  0.2932 -0.0895
 3294SOL    HW212942   5.159   6.315   2.663 -1.8568  0.6703 -2.0005
 3294SOL    HW312943   5.199   6.406   2.777  1.1693 -2.3597 -0.4509
 3294SOL    MW412944   5.158   6.393   2.701  0.1390 -0.0071 -0.3893
 3295SOL     OW12945   3.786   0.895   0.119 -0.6241  0.3567 -0.0111
 3295SOL    HW212946   3.729   0.831   0.077  0.2176  0.0234 -0.6685
 3295SOL    HW312947   3.784   0.873   0.212 -1.4139  0.2342 -0.0573
 3295SOL    MW412948   3.778   0.884   0.125 -0.6173  0.2966 -0.1039
 3296SOL     OW12949   2.760   1.360   4.607  0.1452  0.1495  0.3311
 3296SOL    HW212950   2.800   1.273   4.608 -0.7132 -0.2432  1.0856
 3296SOL    HW312951   2.680   1.349   4.556  0.5049  0.7308 -0.3909
 3296SOL    MW412952   2.755   1.347   4.600  0.0794  0.1744  0.3354
 3297SOL     OW12953   5.465   4.661   1.899  0.2894 -0.1503  0.0003
 3297SOL    HW212954   5.536   4.726   1.897  0.0613  0.1119 -1.5807
 3297SOL    HW312955   5.458   4.632   1.808 -0.7083 -1.2032  0.3960
 3297SOL    MW412956   5.474   4.666   1.886  0.1277 -0.2546 -0.1561
 3298SOL     OW12957   5.737   1.978   5.203  0.1364  0.6272 -0.5635
 3298SOL    HW212958   5.793   1.900   5.203 -0.0950  0.4459  0.6110
 3298SOL    HW312959   5.798   2.051   5.216  0.0242  0.3191  2.1723
 3298SOL    MW412960   5.753   1.977   5.204  0.0911  0.5627 -0.0476
 3299SOL     OW12961   4.484   5.122   1.995 -0.4027  0.2138  0.8733
 3299SOL    HW212962   4.549   5.105   1.926 -0.9247 -0.2810  0.4850
 3299SOL    HW312963   4.400   5.101   1.953 -0.7738  0.4624  1.4893
 3299SOL    MW412964   4.482   5.117   1.980 -0.5205  0.1813  0.9034
 3300SOL     OW12965   1.402   0.475   6.324 -0.0015 -0.0822  0.2081
 3300SOL    HW212966   1.475   0.523   6.362  1.0035  0.2384 -1.9389
 3300SOL    HW312967   1.373   0.529   6.251 -2.3827 -0.2437  0.9314
 3300SOL    MW412968   1.408   0.488   6.319 -0.1831 -0.0612  0.0202
 3301SOL     OW12969   0.144   1.524   0.452 -0.5680  0.5682 -0.0979
 3301SOL    HW212970   0.110   1.569   0.529  0.1060  0.6031  0.1788
 3301SOL    HW312971   0.210   1.463   0.485  1.4388  2.2250 -0.8239
 3301SOL    MW412972   0.148   1.522   0.466 -0.2143  0.7914 -0.1572
 3302SOL     OW12973   1.605   3.824   2.325 -0.2444  0.4128  0.1114
 3302SOL    HW212974   1.689   3.865   2.342 -1.0836  2.1809  0.2056
 3302SOL    HW312975   1.623   3.756   2.261  1.2776  0.6051  0.3151
 3302SOL    MW412976   1.618   3.820   2.319 -0.1543  0.6714  0.1507
 3303SOL     OW12977   1.071   1.250   1.394  0.0918 -0.6454  0.1747
 3303SOL    HW212978   1.156   1.293   1.405 -0.3663  0.0894  1.0064
 3303SOL    HW312979   1.007   1.320   1.404 -0.6105 -0.9646 -1.6860
 3303SOL    MW412980   1.074   1.265   1.397 -0.0613 -0.5905  0.0389
 3304SOL     OW12981   1.197   5.292   5.104  0.2526 -0.3810  0.4384
 3304SOL    HW212982   1.110   5.326   5.123  0.1188 -0.5963  0.2150
 3304SOL    HW312983   1.209   5.307   5.010  0.1572 -1.0243  0.3180
 3304SOL    MW412984   1.187   5.298   5.094  0.2224 -0.4943  0.3930
 3305SOL     OW12985   2.918   1.281   0.242 -0.2187 -0.1953  0.5592
 3305SOL    HW212986   2.991   1.308   0.297 -0.4298 -1.1805  1.3607
 3305SOL    HW312987   2.900   1.191   0.269  1.5123 -1.8460 -3.0139
 3305SOL    MW412988   2.925   1.272   0.253 -0.0182 -0.5431  0.1935
 3306SOL     OW12989   5.846   3.427   2.963  0.7957 -0.1256 -0.4321
 3306SOL    HW212990   5.913   3.495   2.975 -1.1107  1.8763 -0.4456
 3306SOL    HW312991   5.789   3.462   2.894  0.2363 -2.2023 -1.0941
 3306SOL    MW412992   5.847   3.441   2.955  0.4704 -0.1354 -0.5212
 3307SOL     OW12993   0.917   6.359   5.718 -0.4459  0.3772 -0.3978
 3307SOL    HW212994   0.837   6.310   5.702 -2.0149  2.3179  1.0220
 3307SOL    HW312995   0.983   6.293   5.739 -2.2835 -1.1646  0.8120
 3307SOL    MW412996   0.915   6.344   5.719 -0.8954  0.4298 -0.0508
 3308SOL     OW12997   1.232   2.410   0.639  0.2144 -0.0652 -0.3328
 3308SOL    HW212998   1.231   2.339   0.703  0.7289 -0.0432 -0.2976
 3308SOL    HW312999   1.303   2.388   0.580 -0.8693 -0.5868 -1.4841
 3308SOL    MW413000   1.241   2.398   0.640  0.1393 -0.1311 -0.4800
 3309SOL     OW13001   4.663   0.267   5.972  0.5266 -0.5912 -0.5349
 3309SOL    HW213002   4.717   0.189   5.960 -1.0102 -1.4707 -2.5202
 3309SOL    HW313003   4.588   0.236   6.023  1.1477  0.2835  0.9882
 3309SOL    MW413004   4.660   0.253   5.977  0.4058 -0.5918 -0.5959
 3310SOL     OW13005   2.954   3.979   2.539  0.2205  0.0216  0.4686
 3310SOL    HW213006   3.017   4.022   2.596  0.8516 -0.7399  0.3508
 3310SOL    HW313007   2.889   3.941   2.598  0.3387  0.0771  0.6334
 3310SOL    MW413008   2.953   3.980   2.554  0.3194 -0.0716  0.4748
 3311SOL     OW13009   0.035   1.229   5.833 -0.3199 -0.2278 -0.3183
 3311SOL    HW213010  -0.027   1.287   5.790 -1.1645 -1.2477 -0.5320
 3311SOL    HW313011   0.098   1.205   5.764 -0.0736  0.2813 -0.2728
 3311SOL    MW413012   0.036   1.233   5.818 -0.3988 -0.2952 -0.3405
 3312SOL     OW13013   4.680   5.820   0.248  0.4552  0.3390 -0.5868
 3312SOL    HW213014   4.665   5.883   0.319  1.4628  0.0173 -0.0596
 3312SOL    HW313015   4.767   5.841   0.215  0.4120 -0.1693 -1.0403
 3312SOL    MW413016   4.689   5.831   0.253  0.5824  0.2295 -0.5771
 3313SOL     OW13017   3.892   2.474   0.222  0.2080  0.3359 -0.0462
 3313SOL    HW213018   3.952   2.458   0.294 -1.4389  0.2129  1.3686
 3313SOL    HW313019   3.839   2.394   0.216 -1.3091  1.2592  0.3100
 3313SOL    MW413020   3.893   2.461   0.231 -0.2094  0.4415  0.1875
 3314SOL     OW13021   2.693   0.451   4.806 -0.4338  0.3002 -0.3807
 3314SOL    HW213022   2.615   0.396   4.809  0.4168 -0.9705  3.3316
 3314SOL    HW313023   2.733   0.429   4.722 -2.4686 -1.3411 -1.0261
 3314SOL    MW413024   2.688   0.441   4.795 -0.5900 -0.0840  0.0239
 3315SOL     OW13025   0.947   4.009   0.192 -0.6261 -0.3196 -0.0853
 3315SOL    HW213026   0.906   4.071   0.133  2.3748  1.6389 -0.3342
 3315SOL    HW313027   0.885   4.000   0.264 -0.4474  4.7227  1.0442
 3315SOL    MW413028   0.933   4.016   0.194 -0.2066  0.6040  0.0308
 3316SOL     OW13029   5.990   5.998   6.092  0.1501  0.1669  0.2667
 3316SOL    HW213030   6.047   6.074   6.104  0.6778 -0.0710 -0.6698
 3316SOL    HW313031   5.963   6.002   6.001 -0.2821 -0.4495  0.3608
 3316SOL    MW413032   5.994   6.009   6.082  0.1627  0.0542  0.1555
 3317SOL     OW13033   6.077   3.503   4.950 -0.1848 -0.0224 -0.3677
 3317SOL    HW213034   6.111   3.444   4.883 -1.3015 -0.9616 -0.1463
 3317SOL    HW313035   5.995   3.537   4.912 -0.6715 -0.3349  0.3848
 3317SOL    MW413036   6.070   3.500   4.936 -0.3964 -0.1876 -0.2392
 3318SOL     OW13037   0.182   5.607   0.361  0.1082 -0.2914  0.2242
 3318SOL    HW213038   0.233   5.681   0.328  0.6294 -0.0165  1.5745
 3318SOL    HW313039   0.094   5.642   0.373  0.6896  0.6173  2.3327
 3318SOL    MW413040   0.177   5.621   0.358  0.2536 -0.1352  0.6806
 3319SOL     OW13041   1.657   4.077   3.469  1.2722  0.1761 -0.0038
 3319SOL    HW213042   1.605   4.106   3.544  1.7425 -2.4606  1.4495
 3319SOL    HW313043   1.592   4.058   3.401  0.5596 -0.2784  0.7802
 3319SOL    MW413044   1.642   4.078   3.470  1.2402 -0.2318  0.2914
 3320SOL     OW13045   1.956   1.490   3.686  0.3671 -0.2919  0.3540
 3320SOL    HW213046   1.864   1.514   3.676  0.4580 -0.1688 -0.2130
 3320SOL    HW313047   1.985   1.468   3.598  0.9790 -0.0017  0.4787
 3320SOL    MW413048   1.948   1.490   3.673  0.4598 -0.2373  0.2957
 3321SOL     OW13049   0.850   0.615   4.130 -0.0689  0.6576  0.5218
 3321SOL    HW213050   0.807   0.634   4.047 -0.0665 -0.7041  0.1869
 3321SOL    HW313051   0.812   0.532   4.158  0.6594  0.6039  1.3879
 3321SOL    MW413052   0.839   0.607   4.123  0.0275  0.4709  0.5919
 3322SOL     OW13053   4.651   5.181   1.240 -0.4547  0.5966 -0.0703
 3322SOL    HW213054   4.612   5.138   1.164  0.3081 -0.3255  0.0431
 3322SOL    HW313055   4.579   5.230   1.279 -1.2922 -0.3566 -0.3680
 3322SOL    MW413056   4.636   5.182   1.235 -0.4646  0.3492 -0.0946
 3323SOL     OW13057   0.134   4.563   0.729 -0.3525 -0.3584  0.2899
 3323SOL    HW213058   0.223   4.593   0.744  0.1300 -1.6507  0.1060
 3323SOL    HW313059   0.129   4.549   0.634 -1.5184  2.0078 -0.0590
 3323SOL    MW413060   0.145   4.565   0.718 -0.4427 -0.2167  0.2196
 3324SOL     OW13061   6.419   1.642   3.518  0.1862 -0.0716  0.5250
 3324SOL    HW213062   6.415   1.738   3.521  1.5562 -0.0152  1.6344
 3324SOL    HW313063   6.462   1.623   3.435 -0.5581  0.2368  0.0545
 3324SOL    MW413064   6.424   1.652   3.508  0.2688 -0.0235  0.6093
 3325SOL     OW13065   0.681   0.580   3.899  0.0442 -0.0897  0.6120
 3325SOL    HW213066   0.607   0.519   3.902  0.2225 -0.3042  0.7639
 3325SOL    HW313067   0.743   0.539   3.839  0.0487  0.0761  0.5058
 3325SOL    MW413068   0.680   0.567   3.892  0.0684 -0.0961  0.6180
 3326SOL     OW13069   4.416   6.328   6.330 -0.1091  0.1477  0.2143
 3326SOL    HW213070   4.385   6.339   6.240 -0.2365 -0.5617  0.1685
 3326SOL    HW313071   4.494   6.273   6.321 -0.0485  0.1809  0.5324
 3326SOL    MW413072   4.422   6.322   6.317 -0.1179  0.0585  0.2502
 3327SOL     OW13073   2.870   3.453   5.092  0.0523  0.0318  0.3432
 3327SOL    HW213074   2.810   3.429   5.021 -0.6981 -1.1635  1.3471
 3327SOL    HW313075   2.894   3.370   5.133 -0.5570  0.7765  2.3029
 3327SOL    MW413076   2.865   3.439   5.088 -0.1271 -0.0276  0.7342
 3328SOL     OW13077   6.010   4.437   3.957 -0.2127  0.1747  0.4582
 3328SOL    HW213078   6.029   4.376   3.885  1.6483 -0.0057  1.0447
 3328SOL    HW313079   5.970   4.383   4.024  0.3398 -0.1713  0.5136
 3328SOL    MW413080   6.008   4.422   3.956  0.1057  0.1052  0.5429
 3329SOL     OW13081   4.249   1.741   3.982  0.2404 -0.4495 -0.1207
 3329SOL    HW213082   4.215   1.828   4.002  1.3589  0.2736 -1.2099
 3329SOL    HW313083   4.245   1.693   4.065 -0.9815  0.4193  0.3456
 3329SOL    MW413084   4.244   1.746   3.995  0.2268 -0.2395 -0.2029
 3330SOL     OW13085   5.546   3.964   3.078 -0.1433  0.3178 -0.0672
 3330SOL    HW213086   5.540   3.922   2.992 -0.6163 -2.4507  1.2294
 3330SOL    HW313087   5.636   3.997   3.082  0.2493 -0.5556 -1.1867
 3330SOL    MW413088   5.557   3.963   3.067 -0.1539 -0.1627 -0.0438
 3331SOL     OW13089   5.901   2.586   0.113  0.2830 -0.1058  0.5279
 3331SOL    HW213090   5.986   2.581   0.070  1.0130  0.9979  1.7889
 3331SOL    HW313091   5.920   2.611   0.203 -1.3428 -0.4293  1.0033
 3331SOL    MW413092   5.915   2.588   0.119  0.1648 -0.0029  0.7570
 3332SOL     OW13093   6.307   2.452   0.165 -0.1962 -0.4987 -0.4238
 3332SOL    HW213094   6.251   2.513   0.118  1.4220  0.3520 -1.3435
 3332SOL    HW313095   6.290   2.367   0.125 -0.9288 -0.2782 -0.5866
 3332SOL    MW413096   6.297   2.449   0.154 -0.0793 -0.3573 -0.5667
 3333SOL     OW13097   6.299   1.088   6.241 -0.2079 -0.1394  0.1545
 3333SOL    HW213098   6.279   1.119   6.152 -0.8542  1.8525  0.9216
 3333SOL    HW313099   6.382   1.130   6.263 -0.0137 -0.6829  0.4819
 3333SOL    MW413100   6.307   1.098   6.232 -0.2676  0.0517  0.2989
 3334SOL     OW13101   1.815   5.394   5.174  0.2863 -0.4506  0.3397
 3334SOL    HW213102   1.735   5.426   5.132  0.0498 -0.2323  0.9442
 3334SOL    HW313103   1.884   5.448   5.136  0.1265 -0.5056 -0.0398
 3334SOL    MW413104   1.813   5.406   5.163  0.2340 -0.4290  0.3694
 3335SOL     OW13105   1.287   3.020   2.555  0.1987  0.6098  0.1412
 3335SOL    HW213106   1.337   3.047   2.632  1.0799 -1.8845  0.5415
 3335SOL    HW313107   1.335   2.944   2.521 -0.6298  1.1349 -2.4088
 3335SOL    MW413108   1.300   3.014   2.561  0.2056  0.3500 -0.1425
 3336SOL     OW13109   4.095   5.285   3.861  0.1153 -0.0196  0.0976
 3336SOL    HW213110   4.163   5.329   3.911  0.9347  0.1671 -1.1282
 3336SOL    HW313111   4.103   5.321   3.773 -2.0151  0.4818  0.0473
 3336SOL    MW413112   4.105   5.295   3.856 -0.0576  0.0712 -0.0707
 3337SOL     OW13113   2.749   5.811   1.780  0.1518 -0.6733 -0.2253
 3337SOL    HW213114   2.722   5.802   1.872 -0.9558 -0.7362 -0.5461
 3337SOL    HW313115   2.677   5.773   1.730  2.0525 -3.5742 -1.0492
 3337SOL    MW413116   2.736   5.805   1.786  0.2564 -1.0644 -0.3764
 3338SOL     OW13117   1.861   3.548   3.097  0.3169 -0.0411 -0.1509
 3338SOL    HW213118   1.813   3.623   3.131  0.5922 -0.1044  0.3975
 3338SOL    HW313119   1.888   3.499   3.175  0.0662 -0.7589 -0.5022
 3338SOL    MW413120   1.858   3.551   3.112  0.3202 -0.1442 -0.1249
 3339SOL     OW13121   2.098   4.790   0.771 -0.2575  0.0121  0.2634
 3339SOL    HW213122   2.136   4.703   0.768  0.9481  0.5338 -1.6789
 3339SOL    HW313123   2.173   4.849   0.764 -1.1954  1.1418 -0.9213
 3339SOL    MW413124   2.113   4.787   0.770 -0.2222  0.2300 -0.1492
 3340SOL     OW13125   4.706   3.141   1.900  0.1336  0.1744 -0.4700
 3340SOL    HW213126   4.686   3.066   1.845  0.5156 -1.2537  1.2496
 3340SOL    HW313127   4.770   3.108   1.963  1.2873  2.2939 -0.4366
 3340SOL    MW413128   4.712   3.127   1.901  0.3362  0.2656 -0.2387
 3341SOL     OW13129   6.117   1.960   5.549 -0.5769 -0.5030 -0.2997
 3341SOL    HW213130   6.036   1.926   5.511 -1.7328  0.0083  1.5975
 3341SOL    HW313131   6.171   1.883   5.566 -1.3034 -0.9855 -0.1584
 3341SOL    MW413132   6.114   1.946   5.546 -0.8253 -0.4992 -0.0308
 3342SOL     OW13133   4.103   2.478   5.137  0.3537 -0.7129  0.4604
 3342SOL    HW213134   4.189   2.447   5.110 -0.1562 -1.6341 -0.1377
 3342SOL    HW313135   4.047   2.400   5.135 -0.7467  0.0711 -0.1925
 3342SOL    MW413136   4.107   2.464   5.133  0.1413 -0.7310  0.2954
 3343SOL     OW13137   5.310   0.643   2.856  0.7931  0.2569 -0.1152
 3343SOL    HW213138   5.381   0.701   2.830 -0.1620  1.4454 -0.1816
 3343SOL    HW313139   5.351   0.558   2.870  2.5292  1.3094  1.6326
 3343SOL    MW413140   5.325   0.639   2.854  0.8961  0.5525  0.1066
 3344SOL     OW13141   3.281   3.671   2.951 -0.4196 -0.5403 -0.0587
 3344SOL    HW213142   3.350   3.639   2.894  1.0163 -0.4067  1.5376
 3344SOL    HW313143   3.302   3.763   2.967 -0.1135 -0.8572  1.5722
 3344SOL    MW413144   3.293   3.679   2.946 -0.1898 -0.5645  0.3671
 3345SOL     OW13145   0.218   4.578   1.446 -0.1101  0.0979  0.0764
 3345SOL    HW213146   0.251   4.578   1.356 -0.7602 -1.6114 -0.1967
 3345SOL    HW313147   0.221   4.670   1.473 -0.6184  0.7425 -1.9429
 3345SOL    MW413148   0.223   4.590   1.438 -0.2630 -0.0426 -0.2261
 3346SOL     OW13149   2.431   0.522   5.385  0.5756  0.4384 -0.1338
 3346SOL    HW213150   2.380   0.599   5.358  1.0431  0.4325 -1.0756
 3346SOL    HW313151   2.391   0.495   5.468  0.4318  1.7256  0.2493
 3346SOL    MW413152   2.419   0.529   5.392  0.6183  0.6075 -0.2075
 3347SOL     OW13153   3.825   3.559   5.205  0.2055 -0.2319  0.3689
 3347SOL    HW213154   3.801   3.634   5.150 -1.4428  0.0604  1.4400
 3347SOL    HW313155   3.795   3.483   5.155 -0.3030 -0.0380  0.3790
 3347SOL    MW413156   3.818   3.559   5.191 -0.0791 -0.1677  0.5115
 3348SOL     OW13157   5.499   1.626   1.892 -0.4022 -0.2135 -0.4032
 3348SOL    HW213158   5.411   1.607   1.860  0.4359 -0.4425 -2.7911
 3348SOL    HW313159   5.548   1.545   1.876  0.7886  0.6513 -1.3503
 3348SOL    MW413160   5.494   1.613   1.885 -0.1345 -0.1296 -0.8432
 3349SOL     OW13161   4.574   0.214   6.425  0.1039 -0.1555 -0.1792
 3349SOL    HW213162   4.585   0.309   6.433  0.3017 -0.2810  1.2856
 3349SOL    HW313163   4.501   0.193   6.484 -1.1513 -0.7075 -1.8571
 3349SOL    MW413164   4.566   0.224   6.434 -0.0356 -0.2449 -0.2073
 3350SOL     OW13165   5.802   0.184   4.887 -0.0430  0.2174 -0.0414
 3350SOL    HW213166   5.743   0.258   4.874 -2.2691 -0.4330  4.3254
 3350SOL    HW313167   5.858   0.210   4.960 -0.6498 -2.1349  1.3924
 3350SOL    MW413168   5.801   0.197   4.895 -0.4168 -0.1788  0.7239
 3351SOL     OW13169   3.226   4.239   6.220 -0.0486  0.0542 -0.4077
 3351SOL    HW213170   3.199   4.156   6.260 -0.5229  0.5391  0.3190
 3351SOL    HW313171   3.270   4.214   6.139 -0.8147 -0.8773 -0.5589
 3351SOL    MW413172   3.228   4.225   6.215 -0.2122 -0.0047 -0.3318
 3352SOL     OW13173   3.156   0.573   5.772  0.0809 -0.0138  0.2277
 3352SOL    HW213174   3.241   0.536   5.795  0.1218 -0.8029 -1.1126
 3352SOL    HW313175   3.143   0.644   5.835  1.5843 -0.0846  0.6469
 3352SOL    MW413176   3.166   0.578   5.783  0.2846 -0.1272  0.1062
 3353SOL     OW13177   3.031   1.925   5.195 -0.2447  0.4388  0.3997
 3353SOL    HW213178   3.060   2.013   5.170 -1.8977  0.6975 -0.7636
 3353SOL    HW313179   2.961   1.940   5.258 -1.5015  0.0495 -0.8419
 3353SOL    MW413180   3.025   1.939   5.200 -0.6286  0.4216  0.0824
 3354SOL     OW13181   3.285   2.614   6.370  0.3697  0.0455  0.4408
 3354SOL    HW213182   3.368   2.608   6.323  0.3712  0.1729  0.4275
 3354SOL    HW313183   3.296   2.687   6.431  0.7301 -0.7672  1.3773
 3354SOL    MW413184   3.297   2.623   6.372  0.4174 -0.0449  0.5626
 3355SOL     OW13185   0.731   5.362   5.461  0.5580  0.2325 -0.1870
 3355SOL    HW213186   0.641   5.358   5.428  1.0822 -0.0824 -1.6730
 3355SOL    HW313187   0.743   5.280   5.508  1.0440 -1.3401 -2.8160
 3355SOL    MW413188   0.721   5.351   5.463  0.6913 -0.0165 -0.7299
 3356SOL     OW13189   3.738   6.382   3.564  0.1805  0.0439  0.0636
 3356SOL    HW213190   3.717   6.385   3.471 -0.1994 -0.9050  0.1098
 3356SOL    HW313191   3.677   6.319   3.601 -1.6050  2.4496  1.5003
 3356SOL    MW413192   3.727   6.374   3.557 -0.1052  0.2361  0.2593
 3357SOL     OW13193   4.628   6.064   4.292 -0.2751 -0.0279 -0.0748
 3357SOL    HW213194   4.560   6.103   4.238 -0.6875  0.5672  0.8432
 3357SOL    HW313195   4.705   6.059   4.235 -0.6458  0.7567 -0.6491
 3357SOL    MW413196   4.629   6.068   4.278 -0.3784  0.1542 -0.0294
 3358SOL     OW13197   0.614   1.745   3.573 -0.1524  0.3658 -0.8224
 3358SOL    HW213198   0.685   1.754   3.636 -0.2877  1.4676 -0.7964
 3358SOL    HW313199   0.536   1.772   3.621 -0.4699 -0.1258 -1.0584
 3358SOL    MW413200   0.613   1.750   3.587 -0.2121  0.4463 -0.8501
 3359SOL     OW13201   4.606   2.328   3.048 -0.1710  0.1702 -0.1113
 3359SOL    HW213202   4.611   2.415   3.089  2.3160 -0.5609  1.3362
 3359SOL    HW313203   4.660   2.337   2.969  1.3652 -0.3946  0.8311
 3359SOL    MW413204   4.614   2.341   3.043  0.3598 -0.0008  0.2040
 3360SOL     OW13205   3.155   3.713   0.809 -0.1495  0.1669 -0.3185
 3360SOL    HW213206   3.167   3.693   0.716 -0.4844  0.9262 -0.5352
 3360SOL    HW313207   3.202   3.644   0.855  0.5175  0.1099 -1.0651
 3360SOL    MW413208   3.163   3.701   0.803 -0.1057  0.2596 -0.4456
 3361SOL     OW13209   3.465   4.884   1.887  0.5434  0.3873  0.9085
 3361SOL    HW213210   3.371   4.883   1.908  0.1876  0.8152 -0.5803
 3361SOL    HW313211   3.501   4.954   1.941  0.0500  0.1092  1.6178
 3361SOL    MW413212   3.457   4.893   1.897  0.4314  0.4070  0.8056
 3362SOL     OW13213   0.350   0.894   5.587  0.1892  0.3522  0.5536
 3362SOL    HW213214   0.366   0.850   5.670  1.5240 -0.1138  0.0776
 3362SOL    HW313215   0.424   0.870   5.532 -2.1558 -1.9608 -1.8813
 3362SOL    MW413216   0.362   0.885   5.591  0.0559 -0.0145  0.1695
 3363SOL     OW13217   2.287   4.630   2.437 -0.0945 -0.0871  0.2041
 3363SOL    HW213218   2.284   4.637   2.342 -0.8751 -0.1696  0.2231
 3363SOL    HW313219   2.305   4.538   2.454  1.3245  0.1493  0.1252
 3363SOL    MW413220   2.289   4.619   2.427 -0.0103 -0.0668  0.1962
 3364SOL     OW13221   0.035   2.957   1.394  0.2063  0.0387 -0.2965
 3364SOL    HW213222   0.110   2.969   1.337  1.9196 -2.1656  1.2973
 3364SOL    HW313223   0.040   3.029   1.456 -0.6355  1.4260 -1.7617
 3364SOL    MW413224   0.046   2.968   1.395  0.3213 -0.0691 -0.2795
 3365SOL     OW13225   4.903   3.856   1.828  0.1124 -0.1769 -0.0697
 3365SOL    HW213226   4.883   3.927   1.768 -1.9170 -0.2134  0.5029
 3365SOL    HW313227   4.998   3.844   1.820  0.1868  1.1531 -1.7360
 3365SOL    MW413228   4.913   3.864   1.819 -0.1455 -0.0062 -0.2140
 3366SOL     OW13229   0.049   5.836   3.726  0.1223 -0.3637  0.2047
 3366SOL    HW213230   0.072   5.922   3.761 -0.6619 -0.6871  1.6011
 3366SOL    HW313231   0.055   5.777   3.802 -0.2550 -1.3716 -0.5196
 3366SOL    MW413232   0.053   5.839   3.741 -0.0309 -0.5393  0.2934
 3367SOL     OW13233   3.490   4.379   6.169  0.4851 -0.3478  0.8699
 3367SOL    HW213234   3.449   4.340   6.247 -0.1740 -0.4042  0.5013
 3367SOL    HW313235   3.455   4.328   6.096 -0.8230  1.2537  0.3187
 3367SOL    MW413236   3.480   4.367   6.170  0.2256 -0.1439  0.7486
 3368SOL     OW13237   5.978   3.111   1.004  0.4083  0.3713  0.1001
 3368SOL    HW213238   6.011   3.196   0.975 -2.1253  0.7773 -1.9648
 3368SOL    HW313239   5.915   3.085   0.937  0.3802 -2.7355  1.1457
 3368SOL    MW413240   5.974   3.118   0.991  0.0703  0.0149 -0.0343
 3369SOL     OW13241   4.095   2.829   5.468  0.1795 -0.1438 -0.5651
 3369SOL    HW213242   4.107   2.905   5.411  0.0291  1.5296  1.5077
 3369SOL    HW313243   4.003   2.806   5.459  0.6031 -1.3018 -2.5591
 3369SOL    MW413244   4.085   2.836   5.459  0.2156 -0.0758 -0.5547
 3370SOL     OW13245   5.160   1.622   3.394 -0.4127  0.4845 -0.0835
 3370SOL    HW213246   5.068   1.612   3.368 -0.7095  1.1743  0.6536
 3370SOL    HW313247   5.160   1.601   3.488 -0.1005  1.9501  0.2663
 3370SOL    MW413248   5.148   1.618   3.403 -0.4107  0.7689  0.0599
 3371SOL     OW13249   0.379   3.327   2.017  0.1152 -0.4357  0.1626
 3371SOL    HW213250   0.304   3.335   1.958  1.8309 -0.6551 -2.1915
 3371SOL    HW313251   0.445   3.280   1.966  1.1641 -2.1672  2.8751
 3371SOL    MW413252   0.378   3.322   2.003  0.4799 -0.6931  0.2099
 3372SOL     OW13253   2.440   1.875   1.574  0.0651  0.5162 -0.0862
 3372SOL    HW213254   2.484   1.791   1.585  1.2479  0.9793 -1.0657
 3372SOL    HW313255   2.357   1.865   1.620  1.4785 -0.1306  2.4891
 3372SOL    MW413256   2.435   1.863   1.581  0.4076  0.4919  0.1243
 3373SOL     OW13257   4.952   2.553   3.740  0.3752 -0.4804  0.0430
 3373SOL    HW213258   4.936   2.463   3.712 -0.2511 -0.9947  1.9363
 3373SOL    HW313259   5.015   2.586   3.676 -1.1022 -1.4869 -2.0317
 3373SOL    MW413260   4.958   2.545   3.728  0.0977 -0.6810  0.0191
 3374SOL     OW13261   4.586   0.229   5.391 -0.3511 -0.1750 -0.1295
 3374SOL    HW213262   4.530   0.287   5.339  0.1818  0.3684 -0.1029
 3374SOL    HW313263   4.616   0.163   5.329  0.0326  0.2932 -0.4476
 3374SOL    MW413264   4.583   0.228   5.376 -0.2302 -0.0416 -0.1680
 3375SOL     OW13265   2.165   0.686   5.603 -0.1521  0.6341  0.0467
 3375SOL    HW213266   2.106   0.758   5.625  1.4083  1.9334  0.1231
 3375SOL    HW313267   2.168   0.686   5.508  0.9851  1.6713  0.0594
 3375SOL    MW413268   2.158   0.695   5.594  0.2038  0.9424  0.0585
 3376SOL     OW13269   5.605   3.977   0.337 -0.0369 -0.2942 -0.8678
 3376SOL    HW213270   5.614   3.921   0.260  0.2097  0.4670 -1.4041
 3376SOL    HW313271   5.685   4.029   0.339  0.2422 -0.7226  0.2599
 3376SOL    MW413272   5.617   3.976   0.327  0.0325 -0.2503 -0.7898
 3377SOL     OW13273   1.998   1.523   0.232 -0.1990  0.1670 -0.5462
 3377SOL    HW213274   1.965   1.433   0.238 -0.3554  0.1864 -1.0329
 3377SOL    HW313275   2.035   1.529   0.144  0.4099  0.3834 -0.2834
 3377SOL    MW413276   1.998   1.512   0.221 -0.1393  0.1981 -0.5757
 3378SOL     OW13277   1.317   3.135   0.340 -0.5313  0.2558  0.2556
 3378SOL    HW213278   1.295   3.154   0.431  1.1341  0.6249  0.5989
 3378SOL    HW313279   1.315   3.040   0.334 -1.2808  0.2458  0.4949
 3378SOL    MW413280   1.314   3.125   0.351 -0.4104  0.3032  0.3325
 3379SOL     OW13281   1.845   0.798   1.712 -0.5306  0.0348  0.2343
 3379SOL    HW213282   1.888   0.716   1.688 -1.7464 -0.2662 -1.0372
 3379SOL    HW313283   1.887   0.823   1.794  0.1649 -1.6348  0.4386
 3379SOL    MW413284   1.856   0.791   1.720 -0.5992 -0.2252  0.0935
 3380SOL     OW13285   0.580   1.495   3.193 -0.3231  0.1360  0.1134
 3380SOL    HW213286   0.566   1.486   3.287 -1.7598 -1.5174 -0.1995
 3380SOL    HW313287   0.640   1.423   3.172 -2.1618 -1.3016 -0.5802
 3380SOL    MW413288   0.586   1.484   3.203 -0.7553 -0.2718 -0.0194
 3381SOL     OW13289   1.051   0.969   3.790  0.3686  0.4719 -0.3590
 3381SOL    HW213290   1.140   0.983   3.758 -0.4140  1.9248 -2.0601
 3381SOL    HW313291   1.009   0.918   3.722 -0.9591  2.4980 -1.1612
 3381SOL    MW413292   1.057   0.964   3.777  0.0902  0.9309 -0.6893
 3382SOL     OW13293   5.603   3.184   1.206 -0.0964  0.0068 -0.5591
 3382SOL    HW213294   5.559   3.268   1.211 -2.5011 -1.2267  2.7892
 3382SOL    HW313295   5.696   3.204   1.219 -0.5888  2.1003  0.0399
 3382SOL    MW413296   5.610   3.197   1.208 -0.4786  0.1202 -0.0383
 3383SOL     OW13297   6.426   2.021   4.862  0.0660  0.9431  0.1358
 3383SOL    HW213298   6.498   1.960   4.845  1.7363  2.7233  0.3777
 3383SOL    HW313299   6.391   2.041   4.775 -0.2294 -0.0031  0.0228
 3383SOL    MW413300   6.431   2.016   4.848  0.2474  1.0531  0.1528
 3384SOL     OW13301   0.453   5.984   5.175 -0.0567 -0.2384  0.1488
 3384SOL    HW213302   0.377   5.955   5.126 -1.4707 -1.0643  2.6376
 3384SOL    HW313303   0.440   5.948   5.263  1.4504  2.5067  1.6323
 3384SOL    MW413304   0.442   5.975   5.180 -0.0444  0.0148  0.6729
 3385SOL     OW13305   2.359   2.551   3.276  0.2637  0.0797  0.0580
 3385SOL    HW213306   2.290   2.564   3.341 -0.3338  1.2537 -0.7730
 3385SOL    HW313307   2.423   2.496   3.320 -0.5461  0.1129  1.3323
 3385SOL    MW413308   2.358   2.546   3.290  0.0780  0.2390  0.1165
 3386SOL     OW13309   5.711   5.888   3.091 -0.2591  0.1178  0.0244
 3386SOL    HW213310   5.623   5.923   3.079 -0.2877  0.1474  0.3136
 3386SOL    HW313311   5.768   5.964   3.080 -0.2252 -0.0219 -0.8122
 3386SOL    MW413312   5.707   5.903   3.088 -0.2584  0.1032 -0.0478
 3387SOL     OW13313   6.307   1.450   0.268  0.2905  0.3692  0.2316
 3387SOL    HW213314   6.398   1.457   0.298 -0.0529  1.0765  1.1666
 3387SOL    HW313315   6.307   1.374   0.209  1.0704 -0.9231  1.8015
 3387SOL    MW413316   6.319   1.441   0.264  0.3481  0.2920  0.5621
 3388SOL     OW13317   1.740   0.474   5.637 -0.2215  0.3775 -0.3094
 3388SOL    HW213318   1.823   0.484   5.684 -0.9470  0.9394  0.9061
 3388SOL    HW313319   1.686   0.547   5.667 -0.8352  0.5794 -1.8209
 3388SOL    MW413320   1.744   0.485   5.647 -0.3982  0.4783 -0.3485
 3389SOL     OW13321   5.035   0.735   2.942  0.1786  0.8451  0.2618
 3389SOL    HW213322   5.127   0.720   2.917  0.0930 -2.2256  1.3639
 3389SOL    HW313323   5.039   0.751   3.037 -0.4520 -0.6082  0.5657
 3389SOL    MW413324   5.048   0.735   2.951  0.0841  0.2482  0.4473
 3390SOL     OW13325   5.126   4.988   3.892  0.4990 -0.3337  0.0133
 3390SOL    HW213326   5.060   4.958   3.954 -0.6159  0.5063 -0.7132
 3390SOL    HW313327   5.201   4.930   3.906 -0.1579 -0.9108  1.3001
 3390SOL    MW413328   5.127   4.976   3.902  0.2653 -0.2990  0.0872
 3391SOL     OW13329   4.025   1.406   5.254  0.1708  0.1333 -0.8757
 3391SOL    HW213330   4.077   1.456   5.316  1.4166  0.5801 -2.2295
 3391SOL    HW313331   3.983   1.337   5.307  1.1699  0.5041  0.4349
 3391SOL    MW413332   4.026   1.403   5.269  0.4670  0.2412 -0.8814
 3392SOL     OW13333   0.225   1.874   3.436 -0.0783  0.2179  0.2571
 3392SOL    HW213334   0.165   1.873   3.362  0.8551  1.7856 -0.5490
 3392SOL    HW313335   0.299   1.821   3.408 -0.2096 -0.1247  0.5321
 3392SOL    MW413336   0.227   1.867   3.423  0.0275  0.3795  0.1870
 3393SOL     OW13337   5.152   0.138   1.067  0.3301 -0.6385  0.0234
 3393SOL    HW213338   5.118   0.114   1.153 -0.4452  0.3774  0.0047
 3393SOL    HW313339   5.101   0.214   1.040  0.5434 -0.9463 -1.3508
 3393SOL    MW413340   5.141   0.145   1.075  0.2560 -0.5451 -0.1604
 3394SOL     OW13341   5.177   2.677   4.868 -0.5654  0.2137  0.2021
 3394SOL    HW213342   5.223   2.670   4.785 -0.0234 -0.1792  0.5264
 3394SOL    HW313343   5.111   2.607   4.865 -1.8972  1.4487 -0.7051
 3394SOL    MW413344   5.174   2.667   4.857 -0.6696  0.3248  0.1252
 3395SOL     OW13345   3.162   4.343   2.389  0.0914  0.4216 -0.0940
 3395SOL    HW213346   3.207   4.314   2.468  0.8395  0.6298 -0.4318
 3395SOL    HW313347   3.173   4.438   2.389  0.1940  0.4109 -0.5016
 3395SOL    MW413348   3.169   4.352   2.399  0.2037  0.4476 -0.1924
 3396SOL     OW13349   2.181   4.154   6.139 -1.0611 -0.5927 -0.1646
 3396SOL    HW213350   2.226   4.091   6.195 -0.4248 -0.2169 -0.2435
 3396SOL    HW313351   2.251   4.210   6.105 -1.2430 -1.5982 -2.3612
 3396SOL    MW413352   2.197   4.153   6.142 -1.0011 -0.6758 -0.4649
 3397SOL     OW13353   4.316   2.130   4.350 -0.3326  0.5932  0.0101
 3397SOL    HW213354   4.351   2.118   4.438 -0.6687 -0.3653  0.0280
 3397SOL    HW313355   4.333   2.222   4.329  2.7167  0.0419 -0.2498
 3397SOL    MW413356   4.323   2.140   4.359  0.0253  0.3940 -0.0218
 3398SOL     OW13357   4.343   0.594   4.378 -0.2321  0.0914 -0.0269
 3398SOL    HW213358   4.426   0.546   4.367 -0.3086 -0.2181  0.6882
 3398SOL    HW313359   4.275   0.527   4.368 -0.3577  0.1387  0.4784
 3398SOL    MW413360   4.345   0.578   4.375 -0.2588  0.0568  0.1341
 3399SOL     OW13361   0.471   3.222   3.794  0.0779 -0.0286 -0.4395
 3399SOL    HW213362   0.561   3.250   3.811  0.1954 -1.1379  0.9819
 3399SOL    HW313363   0.439   3.192   3.879 -1.4948 -0.0627 -1.0137
 3399SOL    MW413364   0.479   3.222   3.808 -0.1141 -0.1794 -0.3277
 3400SOL     OW13365   3.548   1.558   1.507 -1.0093  0.2099  0.0702
 3400SOL    HW213366   3.569   1.610   1.429 -0.7021 -0.5952 -0.3923
 3400SOL    HW313367   3.525   1.623   1.573  1.0979  1.0706  0.0425
 3400SOL    MW413368   3.548   1.574   1.505 -0.6907  0.2173  0.0055
 3401SOL     OW13369   4.898   3.870   6.367 -0.0461  0.0762 -0.6435
 3401SOL    HW213370   4.946   3.947   6.398  1.3679 -0.5416 -1.2475
 3401SOL    HW313371   4.894   3.813   6.444 -0.1794  0.3054 -0.4789
 3401SOL    MW413372   4.904   3.872   6.382  0.1228  0.0249 -0.7015
 3402SOL     OW13373   5.460   1.101   4.888  0.1894 -0.3085 -0.6703
 3402SOL    HW213374   5.426   1.191   4.883 -1.1607 -0.6917  0.8451
 3402SOL    HW313375   5.449   1.067   4.799 -1.1031  0.4238 -0.8218
 3402SOL    MW413376   5.454   1.109   4.876 -0.1592 -0.2624 -0.4904
 3403SOL     OW13377   4.465   5.929   5.180 -0.4646 -0.6215  0.4893
 3403SOL    HW213378   4.389   5.891   5.137  0.2902 -0.9743 -0.5818
 3403SOL    HW313379   4.537   5.869   5.158  0.0354 -0.5562  1.8732
 3403SOL    MW413380   4.465   5.916   5.171 -0.2991 -0.6594  0.5305
 3404SOL     OW13381   4.750   3.155   6.103  0.0824  0.3928 -0.4611
 3404SOL    HW213382   4.834   3.124   6.134  0.9163  0.9391 -2.0387
 3404SOL    HW313383   4.712   3.080   6.056  0.0519  0.3777 -0.4118
 3404SOL    MW413384   4.756   3.141   6.101  0.1884  0.4629 -0.6627
 3405SOL     OW13385   5.958   5.796   5.234 -0.1303  0.1033  0.3234
 3405SOL    HW213386   6.049   5.819   5.213  0.4317 -0.1663  2.3074
 3405SOL    HW313387   5.923   5.875   5.275 -0.7551  0.1425 -0.2691
 3405SOL    MW413388   5.965   5.810   5.236 -0.1386  0.0729  0.5070
 3406SOL     OW13389   1.258   4.724   3.008 -0.2051 -0.0058  0.9053
 3406SOL    HW213390   1.263   4.658   2.939  0.9315 -0.3014  1.2478
 3406SOL    HW313391   1.234   4.674   3.086  1.5871 -0.2197  1.3724
 3406SOL    MW413392   1.256   4.708   3.009  0.1813 -0.0730  1.0122
 3407SOL     OW13393   2.976   3.210   1.058 -0.4470  0.1434 -0.0625
 3407SOL    HW213394   2.914   3.137   1.063 -0.5133  0.2965  1.8397
 3407SOL    HW313395   2.983   3.228   0.964 -1.8080 -1.1261 -0.4511
 3407SOL    MW413396   2.968   3.203   1.046 -0.6353 -0.0039  0.1372
 3408SOL     OW13397   4.518   5.014   2.241 -0.0690  0.5159 -0.2605
 3408SOL    HW213398   4.508   5.075   2.168 -0.1655 -0.5023 -1.1233
 3408SOL    HW313399   4.610   5.020   2.265  0.0062  0.7206 -0.5964
 3408SOL    MW413400   4.528   5.023   2.234 -0.0718  0.4086 -0.4187
 3409SOL     OW13401   2.561   0.757   6.003 -0.4068  0.0144  0.1193
 3409SOL    HW213402   2.630   0.760   5.937 -0.8312 -0.0527 -0.3319
 3409SOL    HW313403   2.545   0.849   6.025 -0.7239  0.0750 -0.3575
 3409SOL    MW413404   2.568   0.770   5.997 -0.5046  0.0136 -0.0032
 3410SOL     OW13405   0.744   3.139   1.645 -0.4040  0.4667 -0.0140
 3410SOL    HW213406   0.802   3.069   1.615 -0.3865  0.4250  0.1171
 3410SOL    HW313407   0.657   3.112   1.617 -0.5547 -0.1652  1.0293
 3410SOL    MW413408   0.741   3.126   1.637 -0.4216  0.3778  0.1410
 3411SOL     OW13409   3.264   4.006   0.468  0.2392 -0.2732 -0.2748
 3411SOL    HW213410   3.193   4.070   0.468  1.5566  1.2735  0.7009
 3411SOL    HW313411   3.272   3.979   0.560  0.8564 -0.4750 -0.3825
 3411SOL    MW413412   3.256   4.011   0.480  0.4944 -0.0958 -0.1603
 3412SOL     OW13413   0.215   4.758   4.982  0.1320  0.1981  0.8128
 3412SOL    HW213414   0.253   4.699   4.917 -0.7528 -0.2476  0.6861
 3412SOL    HW313415   0.210   4.706   5.062 -3.3239 -0.9386 -0.0056
 3412SOL    MW413416   0.220   4.743   4.984 -0.4407 -0.0107  0.6881
 3413SOL     OW13417   1.239   2.353   2.342  0.3706  0.5941  0.5286
 3413SOL    HW213418   1.202   2.292   2.406  0.1290  1.3431  1.1202
 3413SOL    HW313419   1.319   2.386   2.383 -0.2491  1.7530  0.8589
 3413SOL    MW413420   1.244   2.350   2.356  0.2570  0.8458  0.6502
 3414SOL     OW13421   3.290   0.150   5.895  0.0824  0.5015 -0.3601
 3414SOL    HW213422   3.205   0.133   5.935  0.4667  0.1476  0.3149
 3414SOL    HW313423   3.339   0.069   5.905  0.4991  0.6907 -0.7690
 3414SOL    MW413424   3.285   0.137   5.901  0.1881  0.4797 -0.3250
 3415SOL     OW13425   3.912   1.913   3.393  0.2454 -0.1485 -0.1329
 3415SOL    HW213426   3.946   1.876   3.312  1.2655 -2.5545  1.2823
 3415SOL    HW313427   3.961   1.994   3.406  0.0759  0.2596 -1.8588
 3415SOL    MW413428   3.923   1.919   3.384  0.3576 -0.4121 -0.1739
 3416SOL     OW13429   4.787   5.697   5.697 -0.1396  0.3157 -0.1339
 3416SOL    HW213430   4.862   5.748   5.725  0.0964 -0.0404 -0.1164
 3416SOL    HW313431   4.717   5.761   5.685  0.0596  0.5972  0.2209
 3416SOL    MW413432   4.787   5.712   5.699 -0.0822  0.3059 -0.0848
 3417SOL     OW13433   1.943   5.101   3.152 -0.0913  0.3340  0.2073
 3417SOL    HW213434   1.859   5.057   3.159  0.2623 -0.2937  0.6331
 3417SOL    HW313435   1.960   5.134   3.240  0.0905  0.4852  0.1162
 3417SOL    MW413436   1.934   5.100   3.165 -0.0207  0.2711  0.2514
 3418SOL     OW13437   1.313   0.732   6.197  0.5216  0.2937  0.6352
 3418SOL    HW213438   1.404   0.738   6.228  0.2884 -0.5482  1.5045
 3418SOL    HW313439   1.320   0.695   6.110  0.9757 -0.5574  1.0193
 3418SOL    MW413440   1.326   0.728   6.190  0.5507  0.0703  0.8006
 3419SOL     OW13441   6.126   2.523   6.396 -0.0886  0.1107 -0.0837
 3419SOL    HW213442   6.057   2.497   6.335  1.2147 -0.1569 -1.4891
 3419SOL    HW313443   6.197   2.554   6.341  0.5942  1.2593  1.3691
 3419SOL    MW413444   6.126   2.524   6.381  0.1734  0.2269 -0.0774
 3420SOL     OW13445   1.319   5.764   2.095 -0.1975  0.4308 -0.2225
 3420SOL    HW213446   1.237   5.777   2.049 -0.4423 -2.1416 -0.6808
 3420SOL    HW313447   1.362   5.849   2.093 -2.7291  1.8126 -0.1366
 3420SOL    MW413448   1.314   5.777   2.089 -0.5638  0.2737 -0.2716
 3421SOL     OW13449   4.059   1.471   1.547 -0.0139  0.0366 -0.2563
 3421SOL    HW213450   4.042   1.400   1.485  1.3935  1.0635 -1.9106
 3421SOL    HW313451   3.972   1.497   1.577 -0.6033 -1.8508 -0.1905
 3421SOL    MW413452   4.045   1.465   1.543  0.0940 -0.0769 -0.4659
 3422SOL     OW13453   5.838   4.589   0.434 -0.4403 -0.0512  0.0286
 3422SOL    HW213454   5.880   4.659   0.383 -0.7469 -0.7025 -1.1552
 3422SOL    HW313455   5.869   4.508   0.393  0.6021 -0.6775  1.9151
 3422SOL    MW413456   5.848   4.588   0.422 -0.3432 -0.2197  0.1213
 3423SOL     OW13457   1.510   0.728   0.452  0.1969  0.4362  0.5707
 3423SOL    HW213458   1.496   0.644   0.494 -0.6394  0.5532  0.5448
 3423SOL    HW313459   1.442   0.733   0.384  1.2071  0.4637 -0.4683
 3423SOL    MW413460   1.499   0.718   0.448  0.2198  0.4553  0.4302
 3424SOL     OW13461   1.877   2.130   5.307  0.2746  0.1429  0.4357
 3424SOL    HW213462   1.909   2.143   5.218 -0.9589  0.4835  0.0312
 3424SOL    HW313463   1.919   2.048   5.335 -0.6143 -0.9052 -1.0933
 3424SOL    MW413464   1.887   2.121   5.299 -0.0055  0.0496  0.1806
 3425SOL     OW13465   3.988   2.429   4.026  0.1369  0.1689  0.9897
 3425SOL    HW213466   4.019   2.365   4.090  0.7577  0.8709  1.4124
 3425SOL    HW313467   3.962   2.377   3.950  1.0036 -0.5532  1.1696
 3425SOL    MW413468   3.989   2.414   4.025  0.3332  0.1662  1.0692
 3426SOL     OW13469   2.524   5.713   1.644 -0.8846 -0.4204  0.7545
 3426SOL    HW213470   2.533   5.681   1.555  0.4506  0.0783  0.6855
 3426SOL    HW313471   2.512   5.634   1.697 -0.5924 -0.8013  0.2625
 3426SOL    MW413472   2.524   5.698   1.639 -0.6699 -0.4048  0.6805
 3427SOL     OW13473   3.575   5.313   6.362  0.6015 -0.6550 -0.2261
 3427SOL    HW213474   3.480   5.307   6.374  0.6761 -0.4925  0.5101
 3427SOL    HW313475   3.611   5.273   6.441  1.1223  2.0982  1.0451
 3427SOL    MW413476   3.567   5.307   6.374  0.6800 -0.2703  0.0388
 3428SOL     OW13477   5.343   2.262   0.363  0.4244  0.5011 -0.2225
 3428SOL    HW213478   5.435   2.278   0.385  0.4328  0.6660 -0.3802
 3428SOL    HW313479   5.295   2.294   0.440  0.4765  0.7559 -0.2944
 3428SOL    MW413480   5.349   2.269   0.376  0.4324  0.5565 -0.2528
 3429SOL     OW13481   2.833   3.364   1.838 -0.1600 -0.1070  0.1063
 3429SOL    HW213482   2.817   3.286   1.786 -1.0587  0.1604 -0.0282
 3429SOL    HW313483   2.914   3.401   1.802 -0.0695 -0.6341 -0.2360
 3429SOL    MW413484   2.842   3.359   1.826 -0.2666 -0.1413  0.0434
 3430SOL     OW13485   4.428   1.997   2.483  0.1592  0.2085  0.9367
 3430SOL    HW213486   4.523   2.000   2.491  0.2703  1.6003 -0.4441
 3430SOL    HW313487   4.412   1.981   2.390 -0.9728  0.1406  1.1239
 3430SOL    MW413488   4.438   1.995   2.472  0.0245  0.3831  0.7792
 3431SOL     OW13489   2.038   2.819   1.892 -0.5240 -0.1906 -0.4077
 3431SOL    HW213490   2.123   2.823   1.848 -0.0300 -1.8454  0.3098
 3431SOL    HW313491   2.018   2.725   1.896 -1.7104  0.0889  0.7190
 3431SOL    MW413492   2.046   2.807   1.887 -0.6153 -0.3721 -0.1644
 3432SOL     OW13493   1.702   4.808   3.958  0.1480 -0.9245 -0.2228
 3432SOL    HW213494   1.658   4.817   4.042  2.9355  2.6907  1.1210
 3432SOL    HW313495   1.730   4.717   3.955 -3.5641 -2.2306  0.7177
 3432SOL    MW413496   1.700   4.797   3.968  0.0260 -0.6198  0.0786
 3433SOL     OW13497   2.650   5.153   3.949 -0.0651 -0.5929  0.3414
 3433SOL    HW213498   2.623   5.227   3.895  0.3326 -1.2749 -0.8391
 3433SOL    HW313499   2.579   5.141   4.012 -1.5480 -1.0299 -1.3378
 3433SOL    MW413500   2.637   5.161   3.950 -0.2083 -0.7405 -0.0359
 3434SOL     OW13501   0.860   2.297   3.142  0.2337  0.0247 -0.1043
 3434SOL    HW213502   0.867   2.203   3.159  2.7243  0.2759  0.6379
 3434SOL    HW313503   0.790   2.304   3.076 -0.7676 -2.2022  0.6216
 3434SOL    MW413504   0.851   2.285   3.135  0.4302 -0.2360  0.0894
 3435SOL     OW13505   4.778   0.807   3.506 -0.2600 -0.2882  0.0135
 3435SOL    HW213506   4.745   0.744   3.570 -0.2057 -1.9348 -1.5070
 3435SOL    HW313507   4.706   0.819   3.444  0.2632 -0.0627 -0.5680
 3435SOL    MW413508   4.764   0.801   3.506 -0.1838 -0.4757 -0.2638
 3436SOL     OW13509   0.924   0.264   1.314 -0.4697  0.4044  0.4500
 3436SOL    HW213510   0.918   0.195   1.248  1.6750 -0.3876  0.9912
 3436SOL    HW313511   0.952   0.341   1.266 -1.5242  0.5650  0.0608
 3436SOL    MW413512   0.927   0.265   1.299 -0.3259  0.3211  0.4701
 3437SOL     OW13513   1.093   4.584   2.027  0.7437 -0.0205 -0.1549
 3437SOL    HW213514   1.055   4.663   2.067  1.2785  0.6798 -0.9808
 3437SOL    HW313515   1.043   4.512   2.063  0.4002  0.6855  0.8204
 3437SOL    MW413516   1.082   4.585   2.037  0.7690  0.1650 -0.1352
 3438SOL     OW13517   3.253   1.183   2.353 -0.0808 -0.1588 -0.4155
 3438SOL    HW213518   3.311   1.143   2.419 -0.2532  0.0313 -0.1449
 3438SOL    HW313519   3.256   1.277   2.373 -0.4852 -0.1492 -0.3992
 3438SOL    MW413520   3.261   1.190   2.365 -0.1569 -0.1325 -0.3776
 3439SOL     OW13521   4.682   1.264   3.235 -0.1801 -0.1530  0.2682
 3439SOL    HW213522   4.758   1.215   3.204 -0.2695 -0.0821 -0.0689
 3439SOL    HW313523   4.711   1.356   3.236 -0.2644 -0.1250  0.1312
 3439SOL    MW413524   4.696   1.270   3.231 -0.2030 -0.1399  0.2057
 3440SOL     OW13525   2.258   4.307   0.648 -0.5383  0.0200 -0.0319
 3440SOL    HW213526   2.167   4.282   0.634 -0.8861 -0.3495  2.3964
 3440SOL    HW313527   2.254   4.392   0.692  0.3173  0.2115 -0.2985
 3440SOL    MW413528   2.246   4.315   0.652 -0.4713 -0.0034  0.2533
 3441SOL     OW13529   4.587   1.316   3.569 -0.3375 -0.1114 -0.0878
 3441SOL    HW213530   4.635   1.233   3.574  0.5986  0.4332  0.4003
 3441SOL    HW313531   4.656   1.382   3.562 -1.0925  0.5693 -1.4184
 3441SOL    MW413532   4.603   1.314   3.569 -0.3136  0.0503 -0.1989
 3442SOL     OW13533   5.224   4.788   2.597  0.5268  0.0991 -0.0927
 3442SOL    HW213534   5.228   4.882   2.615  0.9176  0.1584 -0.4783
 3442SOL    HW313535   5.142   4.760   2.638  0.3926  0.6132  0.0058
 3442SOL    MW413536   5.214   4.797   2.605  0.5607  0.1747 -0.1306
 3443SOL     OW13537   3.851   5.706   0.231 -0.6488  0.3811 -0.3399
 3443SOL    HW213538   3.894   5.787   0.258  0.0555 -0.1546  0.2035
 3443SOL    HW313539   3.886   5.689   0.143  2.3185 -1.3551  1.0231
 3443SOL    MW413540   3.862   5.714   0.223 -0.1643  0.0813 -0.0884
 3444SOL     OW13541   0.671   5.571   5.241 -0.1247 -0.4359 -0.6647
 3444SOL    HW213542   0.580   5.542   5.239  0.0829 -1.1718 -0.1639
 3444SOL    HW313543   0.718   5.505   5.189 -0.0402  0.6374 -2.0091
 3444SOL    MW413544   0.665   5.558   5.234 -0.0861 -0.3914 -0.7760
 3445SOL     OW13545   0.793   5.657   4.724  0.6889  0.5553 -0.1255
 3445SOL    HW213546   0.713   5.707   4.709 -0.2233 -0.7818  0.0316
 3445SOL    HW313547   0.789   5.586   4.660  1.4962  0.1741  0.2266
 3445SOL    MW413548   0.782   5.654   4.714  0.6751  0.3286 -0.0583
 3446SOL     OW13549   0.018   2.210   0.939 -0.0610  0.6635  0.1685
 3446SOL    HW213550   0.047   2.298   0.963 -0.7769  0.8183  0.4907
 3446SOL    HW313551  -0.074   2.207   0.965 -0.9343  0.8325 -2.5806
 3446SOL    MW413552   0.010   2.221   0.946 -0.2706  0.7062 -0.1517
 3447SOL     OW13553   1.187   5.256   1.839 -0.2457 -0.1642 -0.3117
 3447SOL    HW213554   1.161   5.185   1.898  1.8815 -0.8557 -0.1184
 3447SOL    HW313555   1.105   5.304   1.822 -1.3617 -1.3908  1.2267
 3447SOL    MW413556   1.172   5.253   1.845 -0.1123 -0.4173 -0.0833
 3448SOL     OW13557   5.831   1.700   5.674 -0.5806 -0.3118 -1.4187
 3448SOL    HW213558   5.801   1.768   5.734 -0.9771 -0.0962 -1.8532
 3448SOL    HW313559   5.754   1.646   5.658  0.2892 -2.4232  0.8965
 3448SOL    MW413560   5.817   1.702   5.680 -0.5182 -0.5620 -1.1706
 3449SOL     OW13561   3.178   3.537   6.456  0.5216  0.3853  0.9262
 3449SOL    HW213562   3.173   3.479   6.380 -0.4133  1.1605  0.3711
 3449SOL    HW313563   3.106   3.599   6.443  0.5776  0.7523  2.2640
 3449SOL    MW413564   3.168   3.537   6.444  0.4056  0.5360  1.0295
 3450SOL     OW13565   5.472   1.273   2.805 -0.3491  0.1299 -0.1888
 3450SOL    HW213566   5.468   1.193   2.858 -0.2538  0.3254  0.1147
 3450SOL    HW313567   5.548   1.320   2.838  1.7322 -1.2532 -2.6270
 3450SOL    MW413568   5.481   1.269   2.816 -0.0619 -0.0268 -0.4704
 3451SOL     OW13569   2.245   0.838   1.867  0.5471  0.2498 -0.4573
 3451SOL    HW213570   2.280   0.763   1.914 -0.4451  0.5694  0.8584
 3451SOL    HW313571   2.254   0.815   1.775  1.4209 -0.9295 -0.1016
 3451SOL    MW413572   2.251   0.825   1.861  0.5315  0.1363 -0.2367
 3452SOL     OW13573   3.503   6.377   5.575  0.1477 -0.0878 -0.1665
 3452SOL    HW213574   3.501   6.472   5.565  0.0366  0.1806  1.8726
 3452SOL    HW313575   3.417   6.347   5.547 -0.1568  0.5350  0.0962
 3452SOL    MW413576   3.492   6.385   5.570  0.0929  0.0298  0.1372
 3453SOL     OW13577   1.171   1.257   2.668 -0.6433 -0.1100 -0.2186
 3453SOL    HW213578   1.091   1.207   2.679  0.5912 -2.4539 -1.3024
 3453SOL    HW313579   1.241   1.198   2.696  0.7605  1.8638  0.7195
 3453SOL    MW413580   1.170   1.243   2.673 -0.2952 -0.1588 -0.2378
 3454SOL     OW13581   2.079   2.459   3.921  0.3731  0.1600  0.3861
 3454SOL    HW213582   2.022   2.492   3.851 -0.0479 -0.8135  0.2552
 3454SOL    HW313583   2.108   2.538   3.966 -0.6142  0.7192  0.0903
 3454SOL    MW413584   2.075   2.474   3.917  0.1873  0.1053  0.3298
 3455SOL     OW13585   4.525   1.299   2.991 -0.1565  0.3930  0.1885
 3455SOL    HW213586   4.492   1.378   2.950  0.3474  0.5070  0.0022
 3455SOL    HW313587   4.559   1.328   3.076 -0.2759  0.3220  0.2610
 3455SOL    MW413588   4.525   1.313   2.997 -0.1058  0.3987  0.1735
 3456SOL     OW13589   0.080   1.685   2.407 -0.1873  0.1847  0.0060
 3456SOL    HW213590   0.130   1.730   2.339  0.3828 -0.1098  0.2168
 3456SOL    HW313591   0.134   1.694   2.486  0.1335 -1.1936 -0.0319
 3456SOL    MW413592   0.094   1.692   2.409 -0.0698 -0.0360  0.0288
 3457SOL     OW13593   4.356   3.173   0.949 -0.0140  0.7415  0.1133
 3457SOL    HW213594   4.297   3.132   1.012  0.0179  2.1234  1.0917
 3457SOL    HW313595   4.302   3.187   0.871  0.5137 -2.9990 -1.1031
 3457SOL    MW413596   4.341   3.169   0.947  0.0598  0.4303  0.0819
 3458SOL     OW13597   1.540   1.412   5.037  0.1507  0.2634  0.4645
 3458SOL    HW213598   1.623   1.373   5.013 -1.0926 -1.8651 -0.6511
 3458SOL    HW313599   1.514   1.463   4.961 -0.2721 -0.3522  0.1872
 3458SOL    MW413600   1.547   1.414   5.024 -0.0692 -0.0987  0.2807
 3459SOL     OW13601   2.359   1.190   3.199  0.6172 -0.2627  0.6748
 3459SOL    HW213602   2.434   1.249   3.207  0.1154  0.3132  1.2950
 3459SOL    HW313603   2.397   1.104   3.183  1.3700  0.2098 -0.1653
 3459SOL    MW413604   2.374   1.186   3.198  0.6503 -0.1244  0.6458
 3460SOL     OW13605   5.715   0.924   2.850  0.7861 -0.0454  0.4647
 3460SOL    HW213606   5.625   0.954   2.860  0.5107 -0.9125  0.6346
 3460SOL    HW313607   5.767   1.004   2.849 -0.1031  0.5631 -0.9837
 3460SOL    MW413608   5.710   0.939   2.851  0.6324 -0.0795  0.2960
 3461SOL     OW13609   1.579   5.325   3.825 -0.2420  0.1878  0.1696
 3461SOL    HW213610   1.613   5.260   3.885  0.6069  0.9796  0.5638
 3461SOL    HW313611   1.654   5.379   3.802  0.0327 -1.3944 -3.3991
 3461SOL    MW413612   1.593   5.324   3.830 -0.0938  0.0835 -0.2492
 3462SOL     OW13613   1.055   6.358   1.627  1.0203 -0.0902 -0.0406
 3462SOL    HW213614   1.062   6.290   1.560 -1.7546  0.1997 -0.7521
 3462SOL    HW313615   1.078   6.439   1.582  1.0680 -0.1476 -0.1193
 3462SOL    MW413616   1.059   6.360   1.613  0.6605 -0.0595 -0.1449
 3463SOL     OW13617   0.778   6.033   5.476  0.0734 -0.0487  0.2276
 3463SOL    HW213618   0.801   6.099   5.411  0.7805 -0.3772  0.1358
 3463SOL    HW313619   0.759   5.955   5.425 -1.4449  0.2433  0.2871
 3463SOL    MW413620   0.778   6.032   5.461 -0.0337 -0.0535  0.2233
 3464SOL     OW13621   5.095   5.030   0.664 -0.0813  0.3791  0.5061
 3464SOL    HW213622   5.039   5.062   0.735  0.8640 -1.3257  2.1290
 3464SOL    HW313623   5.179   5.012   0.707  0.3579 -1.2509 -0.9219
 3464SOL    MW413624   5.099   5.031   0.679  0.1014 -0.0609  0.5318
 3465SOL     OW13625   6.041   4.169   2.781  0.0382  0.8335 -0.3135
 3465SOL    HW213626   6.133   4.144   2.784  0.7371  2.8373 -2.3995
 3465SOL    HW313627   6.041   4.264   2.788 -1.7122  1.0381 -2.1229
 3465SOL    MW413628   6.053   4.178   2.782 -0.1005  1.1249 -0.8275
 3466SOL     OW13629   0.147   3.238   1.106  0.4757  0.4506  0.1425
 3466SOL    HW213630   0.127   3.322   1.148  1.2472  0.3475  0.7324
 3466SOL    HW313631   0.062   3.197   1.094  0.0028  1.6865 -0.9466
 3466SOL    MW413632   0.133   3.244   1.110  0.5151  0.6000  0.0767
 3467SOL     OW13633   0.829   5.141   1.904 -0.3050  0.1225 -0.0474
 3467SOL    HW213634   0.901   5.089   1.939 -1.1631 -1.4318 -0.4959
 3467SOL    HW313635   0.819   5.213   1.966 -0.1004 -1.1270  1.5075
 3467SOL    MW413636   0.837   5.144   1.916 -0.3912 -0.2475  0.0985
 3468SOL     OW13637   3.888   4.170   5.591 -0.3182  0.2674 -0.2739
 3468SOL    HW213638   3.908   4.245   5.647  1.3166  0.8204 -1.4991
 3468SOL    HW313639   3.793   4.167   5.588 -0.4793  3.1682 -1.2106
 3468SOL    MW413640   3.878   4.180   5.598 -0.1238  0.7231 -0.5591
 3469SOL     OW13641   1.244   1.753   1.863 -0.0652 -0.1262  0.9487
 3469SOL    HW213642   1.155   1.785   1.848 -0.2479 -1.7787 -2.7576
 3469SOL    HW313643   1.287   1.761   1.777  1.4075 -4.7464  0.9520
 3469SOL    MW413644   1.238   1.758   1.850  0.1050 -0.9538  0.4601
 3470SOL     OW13645   5.357   1.848   6.305 -0.1216 -0.2712  0.3142
 3470SOL    HW213646   5.271   1.885   6.288 -0.8818 -1.7116  0.8262
 3470SOL    HW313647   5.381   1.880   6.392 -0.0034  0.3462  0.0597
 3470SOL    MW413648   5.349   1.857   6.314 -0.2063 -0.3798  0.3482
 3471SOL     OW13649   6.084   1.029   4.949 -0.5386  0.2104  0.1744
 3471SOL    HW213650   6.172   1.022   4.911 -1.2086  0.3004 -1.4710
 3471SOL    HW313651   6.026   0.989   4.883 -1.8671  1.2712  0.6483
 3471SOL    MW413652   6.088   1.022   4.935 -0.8023  0.3623  0.0198
 3472SOL     OW13653   6.216   0.949   4.687 -0.8298  0.2248 -0.7028
 3472SOL    HW213654   6.299   0.901   4.675 -0.3861  0.7239  0.2294
 3472SOL    HW313655   6.149   0.881   4.684 -0.3897 -0.1936 -1.4484
 3472SOL    MW413656   6.218   0.934   4.685 -0.7132  0.2354 -0.6782
 3473SOL     OW13657   2.885   2.892   3.272 -0.5427  0.3928  0.0181
 3473SOL    HW213658   2.814   2.955   3.264 -0.7073  0.3113  0.7784
 3473SOL    HW313659   2.965   2.945   3.266 -0.6508  0.4777 -0.8801
 3473SOL    MW413660   2.886   2.907   3.270 -0.5787  0.3932 -0.0001
 3474SOL     OW13661   1.578   0.425   3.693 -0.0271 -0.1561 -0.2919
 3474SOL    HW213662   1.621   0.435   3.778  1.2311  0.6807 -0.9905
 3474SOL    HW313663   1.487   0.407   3.714  0.0518  1.0379  1.2331
 3474SOL    MW413664   1.572   0.424   3.707  0.1493  0.1118 -0.1828
 3475SOL     OW13665   5.348   6.076   4.517  0.6004  0.4390 -0.3662
 3475SOL    HW213666   5.294   6.021   4.460 -1.0867  0.5571  1.0526
 3475SOL    HW313667   5.378   6.147   4.460 -0.5809  0.2539 -1.2616
 3475SOL    MW413668   5.345   6.078   4.502  0.2219  0.4301 -0.2971
 3476SOL     OW13669   2.351   2.556   4.118  0.2614 -0.8600  0.2188
 3476SOL    HW213670   2.436   2.594   4.142  0.0874 -0.5663  0.3797
 3476SOL    HW313671   2.317   2.613   4.049 -0.4647 -0.1035  1.1709
 3476SOL    MW413672   2.358   2.569   4.112  0.1426 -0.7214  0.3657
 3477SOL     OW13673   0.437   5.511   5.545  0.4406 -0.2126 -0.2242
 3477SOL    HW213674   0.351   5.552   5.550  0.6459  0.1559  0.3146
 3477SOL    HW313675   0.492   5.562   5.604  0.4778 -1.8122  1.2219
 3477SOL    MW413676   0.433   5.523   5.553  0.4726 -0.3750  0.0377
 3478SOL     OW13677   4.719   1.028   0.989 -0.4610 -0.2160  0.0620
 3478SOL    HW213678   4.693   1.022   0.897  0.0400  1.6913 -0.2385
 3478SOL    HW313679   4.815   1.023   0.987 -0.3088  1.8769  0.2339
 3478SOL    MW413680   4.728   1.026   0.976 -0.3748  0.3118  0.0451
 3479SOL     OW13681   4.281   1.339   5.143 -0.5749 -0.8469 -0.1645
 3479SOL    HW213682   4.246   1.256   5.110 -0.2756 -1.4377  0.9691
 3479SOL    HW313683   4.204   1.388   5.173 -0.8733 -0.2221 -1.8485
 3479SOL    MW413684   4.266   1.335   5.143 -0.5748 -0.8425 -0.2371
 3480SOL     OW13685   2.874   2.671   3.079 -0.0735 -0.3773  0.7627
 3480SOL    HW213686   2.922   2.685   2.998 -0.5616  0.1897  0.5612
 3480SOL    HW313687   2.894   2.748   3.133 -2.9485  1.3942 -0.4339
 3480SOL    MW413688   2.883   2.683   3.076 -0.5172 -0.0687  0.5782
 3481SOL     OW13689   2.402   2.033   2.142 -0.4406 -0.5355  0.2951
 3481SOL    HW213690   2.384   1.948   2.102 -1.8813 -0.3722  0.5569
 3481SOL    HW313691   2.334   2.043   2.209  0.4919  0.2562  1.1586
 3481SOL    MW413692   2.391   2.023   2.146 -0.5077 -0.4095  0.4436
 3482SOL     OW13693   5.896   2.467   6.219 -0.4366 -0.3200 -0.5495
 3482SOL    HW213694   5.928   2.428   6.138  1.4860 -0.4999  0.2148
 3482SOL    HW313695   5.857   2.394   6.267  0.1873 -0.6491 -0.5180
 3482SOL    MW413696   5.895   2.452   6.215 -0.1006 -0.3872 -0.4445
 3483SOL     OW13697   4.269   2.778   0.199 -0.2555  0.4463 -0.2428
 3483SOL    HW213698   4.344   2.755   0.144 -1.5338 -0.5029 -1.6820
 3483SOL    HW313699   4.193   2.747   0.150 -1.4389 -4.2521  3.6847
 3483SOL    MW413700   4.269   2.771   0.185 -0.5803 -0.2989  0.0855
 3484SOL     OW13701   0.297   3.535   3.334  0.1765  0.1682  0.1973
 3484SOL    HW213702   0.324   3.444   3.318  2.7199  0.5357  1.7822
 3484SOL    HW313703   0.238   3.530   3.410  1.1854 -0.0955  0.9808
 3484SOL    MW413704   0.293   3.522   3.342  0.6452  0.1819  0.5098
 3485SOL     OW13705   2.644   4.570   1.550  0.0227 -0.4296  0.2479
 3485SOL    HW213706   2.700   4.626   1.497 -0.3359 -0.7079 -0.4323
 3485SOL    HW313707   2.654   4.483   1.512 -1.0802 -0.4334 -0.0625
 3485SOL    MW413708   2.653   4.566   1.538 -0.1701 -0.4669  0.1172
 3486SOL     OW13709   1.994   2.725   2.352 -0.0371  0.2982 -0.0434
 3486SOL    HW213710   2.028   2.680   2.429 -1.9131  1.9061  1.8624
 3486SOL    HW313711   1.968   2.655   2.292 -0.9782 -1.1259  1.9255
 3486SOL    MW413712   1.995   2.710   2.354 -0.4088  0.3225  0.4678
 3487SOL     OW13713   6.428   3.235   6.444 -0.6779  0.0887 -0.2013
 3487SOL    HW213714   6.403   3.219   6.353  1.0538 -1.5266 -0.4822
 3487SOL    HW313715   6.452   3.328   6.447  1.1445 -0.2403 -1.9772
 3487SOL    MW413716   6.428   3.245   6.432 -0.2090 -0.1678 -0.4726
 3488SOL     OW13717   4.295   1.842   5.611  0.3648 -0.5577  0.3249
 3488SOL    HW213718   4.284   1.933   5.584 -1.2290 -0.4283  1.2941
 3488SOL    HW313719   4.323   1.847   5.703 -2.5469 -0.9773  1.3479
 3488SOL    MW413720   4.297   1.855   5.620 -0.2297 -0.5960  0.5877
 3489SOL     OW13721   6.416   3.254   5.052  0.2076  0.2522  0.4452
 3489SOL    HW213722   6.478   3.314   5.012 -1.4416  1.9132  0.2755
 3489SOL    HW313723   6.450   3.240   5.141  1.0310  0.8213  0.2277
 3489SOL    MW413724   6.428   3.260   5.059  0.0986  0.5464  0.3941
 3490SOL     OW13725   4.443   0.917   5.785 -0.0550  1.1137  0.0102
 3490SOL    HW213726   4.528   0.874   5.797 -1.0782 -1.0279  0.0330
 3490SOL    HW313727   4.407   0.879   5.706 -1.2150  1.6435  0.2587
 3490SOL    MW413728   4.449   0.907   5.776 -0.3430  0.9010  0.0460
 3491SOL     OW13729   0.238   2.720   0.145 -0.1069  0.3978  0.2057
 3491SOL    HW213730   0.201   2.808   0.142 -2.0053 -0.3794 -1.0112
 3491SOL    HW313731   0.206   2.683   0.228 -3.3800 -0.7017 -1.3766
 3491SOL    MW413732   0.229   2.727   0.156 -0.7892  0.1502 -0.1636
 3492SOL     OW13733   2.299   5.245   5.570 -0.2315  0.2678  0.8481
 3492SOL    HW213734   2.378   5.234   5.516 -1.3027  0.7999 -0.9040
 3492SOL    HW313735   2.325   5.213   5.657  2.5708  2.4151  0.9505
 3492SOL    MW413736   2.313   5.239   5.574 -0.0031  0.6214  0.6304
 3493SOL     OW13737   0.233   5.733   5.374 -0.4436  0.3834 -0.0360
 3493SOL    HW213738   0.159   5.767   5.323 -0.3702  1.7267  0.6996
 3493SOL    HW313739   0.284   5.811   5.396  1.3479 -0.5577 -0.7420
 3493SOL    MW413740   0.230   5.748   5.370 -0.1975  0.4365 -0.0321
 3494SOL     OW13741   0.276   0.838   2.235  0.1638  0.0390 -0.9641
 3494SOL    HW213742   0.359   0.847   2.282  0.2620 -1.6193 -0.7624
 3494SOL    HW313743   0.253   0.927   2.209  1.6602  0.6043 -0.4336
 3494SOL    MW413744   0.284   0.851   2.238  0.3742 -0.1052 -0.8675
 3495SOL     OW13745   0.864   2.481   5.536  0.3662  0.0570  0.0605
 3495SOL    HW213746   0.915   2.532   5.473 -0.7302  1.5592  0.3334
 3495SOL    HW313747   0.773   2.508   5.521 -0.0973 -0.8325  1.1327
 3495SOL    MW413748   0.859   2.491   5.526  0.1604  0.1379  0.2380
 3496SOL     OW13749   5.704   1.694   4.600 -0.1393  0.9994  0.0978
 3496SOL    HW213750   5.770   1.740   4.548 -2.0566  1.7675 -1.7616
 3496SOL    HW313751   5.648   1.764   4.635  0.6456  0.4646  2.7029
 3496SOL    MW413752   5.705   1.710   4.598 -0.2887  1.0302  0.1962
 3497SOL     OW13753   2.729   1.226   1.880  0.1700 -0.0345  0.5530
 3497SOL    HW213754   2.762   1.264   1.962  0.8708  0.9816 -0.1750
 3497SOL    HW313755   2.634   1.238   1.885  0.3448  1.7338  0.4250
 3497SOL    MW413756   2.721   1.233   1.891  0.2855  0.3329  0.4400
 3498SOL     OW13757   3.785   6.073   6.259  0.9359 -0.1323 -0.3734
 3498SOL    HW213758   3.839   6.010   6.213  2.2858  0.1373  0.7963
 3498SOL    HW313759   3.790   6.153   6.206 -0.2986 -0.7844 -1.5329
 3498SOL    MW413760   3.793   6.075   6.246  0.9511 -0.1828 -0.3721
 3499SOL     OW13761   1.400   5.245   1.068  0.6080  0.1616 -0.3964
 3499SOL    HW213762   1.348   5.179   1.115 -0.4511  1.3067  0.0956
 3499SOL    HW313763   1.338   5.315   1.048  2.2289  2.3413  1.6201
 3499SOL    MW413764   1.385   5.245   1.071  0.6821  0.6002 -0.0654
 3500SOL     OW13765   4.133   2.302   4.212 -0.6739 -0.4473 -0.6672
 3500SOL    HW213766   4.082   2.273   4.288 -1.4045 -0.4530 -1.1509
 3500SOL    HW313767   4.211   2.343   4.250 -2.1902  1.8488  0.1954
 3500SOL    MW413768   4.136   2.304   4.227 -0.9703 -0.1451 -0.6172
 3501SOL     OW13769   4.408   3.012   2.802  0.6081  0.3967 -0.6407
 3501SOL    HW213770   4.369   3.093   2.833  1.8664  0.0038  2.2664
 3501SOL    HW313771   4.472   3.040   2.737 -0.7936  1.4482 -1.6386
 3501SOL    MW413772   4.411   3.026   2.797  0.5892  0.4836 -0.3888
 3502SOL     OW13773   3.679   5.559   6.289  0.6925  0.3696  0.1089
 3502SOL    HW213774   3.639   5.472   6.290  1.5029 -0.1117 -2.4509
 3502SOL    HW313775   3.633   5.608   6.358 -0.5897 -1.7052  0.7965
 3502SOL    MW413776   3.668   5.554   6.298  0.6302  0.0323 -0.1381
 3503SOL     OW13777   4.512   1.091   1.411  0.2543  0.2504  0.2139
 3503SOL    HW213778   4.485   1.048   1.492  0.8514 -0.7508 -0.0973
 3503SOL    HW313779   4.577   1.032   1.374 -1.0057 -0.0136 -1.7033
 3503SOL    MW413780   4.517   1.078   1.417  0.1668  0.0835 -0.0801
 3504SOL     OW13781   4.213   4.208   3.290  0.2575  0.2734 -0.1278
 3504SOL    HW213782   4.123   4.180   3.301 -0.0671  0.9722 -0.8904
 3504SOL    HW313783   4.242   4.165   3.209  0.7172 -0.1796  0.2618
 3504SOL    MW413784   4.205   4.199   3.281  0.2753  0.3059 -0.1770
 3505SOL     OW13785   2.277   3.703   3.040 -0.3121  0.1821 -0.1699
 3505SOL    HW213786   2.200   3.663   3.001 -1.0082  2.8253 -1.7763
 3505SOL    HW313787   2.243   3.774   3.095  0.9085 -0.0395  0.9326
 3505SOL    MW413788   2.262   3.707   3.042 -0.2429  0.5016 -0.2364
 3506SOL     OW13789   1.537   4.938   5.520  0.1904  0.1602 -0.5503
 3506SOL    HW213790   1.475   5.005   5.492  0.7100  0.8598 -0.0820
 3506SOL    HW313791   1.592   4.982   5.585 -0.0715 -0.9896  0.5089
 3506SOL    MW413792   1.536   4.953   5.525  0.2244  0.1008 -0.3488
 3507SOL     OW13793   4.061   1.531   3.289 -0.0586 -0.3145  0.2530
 3507SOL    HW213794   3.988   1.507   3.232 -0.2533 -0.3021  0.4937
 3507SOL    HW313795   4.023   1.533   3.377  0.3511 -0.8019  0.4428
 3507SOL    MW413796   4.046   1.528   3.293 -0.0302 -0.3772  0.3098
 3508SOL     OW13797   1.346   2.385   1.551  0.2823 -0.1940  0.5801
 3508SOL    HW213798   1.382   2.447   1.615 -0.6559  0.3261  0.6254
 3508SOL    HW313799   1.268   2.350   1.593 -0.1883 -0.0570 -0.1711
 3508SOL    MW413800   1.341   2.389   1.565  0.0964 -0.1073  0.4870
 3509SOL     OW13801   4.709   1.847   3.932  0.4150  0.2994 -0.2809
 3509SOL    HW213802   4.735   1.939   3.928 -0.1699  0.5374  0.7728
 3509SOL    HW313803   4.631   1.842   3.877  0.5575  0.3846 -0.4940
 3509SOL    MW413804   4.702   1.858   3.924  0.3567  0.3420 -0.1700
 3510SOL     OW13805   3.569   5.020   2.708 -0.2766  0.7117  0.2144
 3510SOL    HW213806   3.658   5.021   2.745 -0.6158  2.3180  1.1040
 3510SOL    HW313807   3.582   5.000   2.615  0.9374  0.1552  0.4786
 3510SOL    MW413808   3.583   5.018   2.701 -0.1612  0.8502  0.3666
 3511SOL     OW13809   2.557   5.748   2.316 -0.0419 -0.2792  0.3836
 3511SOL    HW213810   2.493   5.817   2.332 -1.1103 -1.0594 -0.4049
 3511SOL    HW313811   2.639   5.783   2.351 -0.6157  1.2654  0.2616
 3511SOL    MW413812   2.560   5.762   2.322 -0.2586 -0.1784  0.2634
 3512SOL     OW13813   2.176   1.404   5.922 -0.6187  0.2231 -0.4515
 3512SOL    HW213814   2.181   1.491   5.882  1.0919  0.8856  1.0188
 3512SOL    HW313815   2.268   1.377   5.931 -0.9719 -0.4273  1.7495
 3512SOL    MW413816   2.189   1.412   5.918 -0.4396  0.2247  0.0329
 3513SOL     OW13817   3.689   2.594   6.152 -0.0992 -0.0179  0.6081
 3513SOL    HW213818   3.730   2.652   6.217 -0.8460  0.4159  0.7040
 3513SOL    HW313819   3.750   2.592   6.079  1.1426 -1.1433  1.6243
 3513SOL    MW413820   3.702   2.601   6.151 -0.0339 -0.1092  0.7548
 3514SOL     OW13821   5.832   6.402   4.537  0.3651 -0.2120 -0.3009
 3514SOL    HW213822   5.841   6.421   4.444  0.2491  1.1330 -0.0498
 3514SOL    HW313823   5.904   6.449   4.579  0.1110 -0.3835  0.3463
 3514SOL    MW413824   5.842   6.411   4.531  0.3163 -0.0572 -0.1824
 3515SOL     OW13825   3.153   4.825   4.749  0.5276 -0.2974 -0.0538
 3515SOL    HW213826   3.118   4.888   4.686  1.4827  0.0792 -0.2215
 3515SOL    HW313827   3.151   4.871   4.833 -0.3533 -0.6521  0.1298
 3515SOL    MW413828   3.148   4.839   4.752  0.5374 -0.2945 -0.0517
 3516SOL     OW13829   4.233   4.920   4.708 -0.5941 -0.1038  0.6553
 3516SOL    HW213830   4.187   4.953   4.785  0.1120 -0.5981  1.3141
 3516SOL    HW313831   4.164   4.888   4.650 -1.3747  3.1294 -0.3709
 3516SOL    MW413832   4.218   4.920   4.710 -0.6040  0.2575  0.6068
 3517SOL     OW13833   3.011   1.423   2.158  0.4269  0.6376  0.3298
 3517SOL    HW213834   2.974   1.504   2.124 -1.9497 -0.8288 -0.7894
 3517SOL    HW313835   2.973   1.415   2.246  0.2137  0.4680  0.2230
 3517SOL    MW413836   3.001   1.432   2.165  0.0852  0.4217  0.1681
 3518SOL     OW13837   3.911   6.428   2.369  0.0670 -0.3007 -0.0609
 3518SOL    HW213838   3.897   6.410   2.276 -0.5455  1.2770 -0.3074
 3518SOL    HW313839   3.864   6.358   2.414 -2.1095  0.4792 -0.9568
 3518SOL    MW413840   3.903   6.416   2.362 -0.3010  0.0103 -0.2116
 3519SOL     OW13841   3.706   4.889   1.732 -0.3185  0.3960  0.3824
 3519SOL    HW213842   3.752   4.806   1.718  1.8169  1.2787  1.5419
 3519SOL    HW313843   3.624   4.864   1.775 -0.8962 -1.2538 -1.5447
 3519SOL    MW413844   3.701   4.875   1.736 -0.1130  0.2948  0.2811
 3520SOL     OW13845   3.323   5.180   2.290  0.4928 -0.5085 -0.1048
 3520SOL    HW213846   3.309   5.224   2.207  1.2566  0.1915  0.1305
 3520SOL    HW313847   3.251   5.211   2.346 -0.3088 -1.3567 -0.6282
 3520SOL    MW413848   3.312   5.190   2.286  0.4878 -0.5281 -0.1428
 3521SOL     OW13849   3.975   0.347   0.322 -0.3680 -0.1450  0.0037
 3521SOL    HW213850   4.044   0.376   0.262 -0.2450 -1.3630 -0.4716
 3521SOL    HW313851   3.893   0.367   0.277 -0.3015  0.1283  0.0032
 3521SOL    MW413852   3.973   0.354   0.308 -0.3430 -0.2696 -0.0591
 3522SOL     OW13853   1.449   1.167   1.140  0.1223  0.6307 -1.0598
 3522SOL    HW213854   1.454   1.262   1.149  0.1616  0.6680 -1.4933
 3522SOL    HW313855   1.430   1.136   1.229  0.2378  1.0328 -0.8931
 3522SOL    MW413856   1.447   1.175   1.153  0.1428  0.6886 -1.0950
 3523SOL     OW13857   1.299   2.718   3.824 -0.2935 -0.2754 -0.4015
 3523SOL    HW213858   1.320   2.625   3.819  1.3398  0.1141 -1.5803
 3523SOL    HW313859   1.220   2.721   3.877 -0.9483 -2.4223 -1.1121
 3523SOL    MW413860   1.291   2.706   3.830 -0.1644 -0.5073 -0.6508
 3524SOL     OW13861   1.785   1.219   6.452  0.0935  0.4943 -0.3389
 3524SOL    HW213862   1.756   1.307   6.431  1.4921  1.7019  2.2833
 3524SOL    HW313863   1.866   1.231   6.502 -0.9402 -2.1052  2.2576
 3524SOL    MW413864   1.792   1.232   6.456  0.1416  0.3106  0.3496
 3525SOL     OW13865   3.875   1.444   3.105 -0.5990  0.0195  0.3543
 3525SOL    HW213866   3.887   1.352   3.085  0.4772 -0.1556  1.6650
 3525SOL    HW313867   3.780   1.454   3.118 -1.1288 -0.2397 -2.6215
 3525SOL    MW413868   3.864   1.433   3.104 -0.5269 -0.0378  0.1346
 3526SOL     OW13869   3.673   1.956   3.109  0.7248 -0.6012  0.1443
 3526SOL    HW213870   3.735   2.028   3.115  2.3938 -2.0477  1.5697
 3526SOL    HW313871   3.660   1.929   3.200 -1.1410 -1.0956 -0.2200
 3526SOL    MW413872   3.679   1.962   3.122  0.6989 -0.8572  0.2843
 3527SOL     OW13873   3.079   0.509   1.520 -0.1935 -0.1899  0.3332
 3527SOL    HW213874   3.066   0.468   1.434 -1.2821 -0.1021  0.4369
 3527SOL    HW313875   3.172   0.531   1.523  0.3305 -2.1479  0.0392
 3527SOL    MW413876   3.089   0.506   1.509 -0.2680 -0.4366  0.3081
 3528SOL     OW13877   1.415   2.050   2.834  0.0739  0.0139  0.4608
 3528SOL    HW213878   1.497   2.079   2.794 -0.8438 -1.1480 -2.5205
 3528SOL    HW313879   1.369   2.131   2.857  0.6806  0.7720 -0.8832
 3528SOL    MW413880   1.420   2.065   2.832  0.0328 -0.0393 -0.1099
 3529SOL     OW13881   1.059   3.261   2.036  0.2401 -0.1811  0.1678
 3529SOL    HW213882   1.039   3.267   1.943 -0.3453 -0.9113  0.2396
 3529SOL    HW313883   1.094   3.347   2.059 -0.7646  0.3988 -0.4441
 3529SOL    MW413884   1.061   3.273   2.027  0.0303 -0.2009  0.0965
 3530SOL     OW13885   6.082   3.098   2.411  0.4818  0.0229  0.3198
 3530SOL    HW213886   6.143   3.134   2.476  1.2818 -0.4942 -0.1452
 3530SOL    HW313887   6.076   3.166   2.344  0.7371 -0.0358  0.2391
 3530SOL    MW413888   6.089   3.112   2.411  0.6211 -0.0531  0.2478
 3531SOL     OW13889   3.152   2.432   4.952  0.3254  0.0358  0.0527
 3531SOL    HW213890   3.109   2.517   4.953  1.2403  0.5139  0.4290
 3531SOL    HW313891   3.243   2.451   4.976  1.4617 -0.5346 -3.2474
 3531SOL    MW413892   3.159   2.445   4.955  0.5960  0.0236 -0.3331
 3532SOL     OW13893   3.864   5.119   1.822  0.2782 -0.1631 -0.4729
 3532SOL    HW213894   3.893   5.137   1.911 -0.3321 -1.0026 -0.0921
 3532SOL    HW313895   3.836   5.027   1.824 -0.0894 -0.0837 -1.4344
 3532SOL    MW413896   3.864   5.109   1.834  0.1492 -0.2634 -0.5495
 3533SOL     OW13897   5.113   0.798   4.953  1.0948 -0.0795 -0.0373
 3533SOL    HW213898   5.107   0.858   5.028  1.2980  0.1237 -0.1819
 3533SOL    HW313899   5.142   0.715   4.991  1.6539  0.1517  0.0463
 3533SOL    MW413900   5.116   0.795   4.968  1.1954 -0.0222 -0.0453
 3534SOL     OW13901   6.424   4.966   5.926  0.4160 -0.7244  0.0709
 3534SOL    HW213902   6.360   5.023   5.885  0.3882 -1.4462 -0.9429
 3534SOL    HW313903   6.509   4.998   5.894  0.4991 -0.3615  0.6499
 3534SOL    MW413904   6.427   4.977   5.916  0.4233 -0.7717  0.0135
 3535SOL     OW13905   5.768   0.440   6.432  0.8826  0.5380  0.7347
 3535SOL    HW213906   5.764   0.416   6.524  2.6600 -0.3930  0.6008
 3535SOL    HW313907   5.768   0.357   6.385  3.1999  0.8382  0.0719
 3535SOL    MW413908   5.767   0.426   6.438  1.4228  0.4548  0.6296
 3536SOL     OW13909   6.265   5.547   2.757  0.0519 -0.0206 -0.7442
 3536SOL    HW213910   6.349   5.583   2.785 -0.6943  2.4831 -1.4938
 3536SOL    HW313911   6.284   5.501   2.676  0.4251  2.3969 -2.1164
 3536SOL    MW413912   6.278   5.545   2.750  0.0026  0.6287 -1.0241
 3537SOL     OW13913   4.979   4.713   2.750  0.2107  0.3236  0.2542
 3537SOL    HW213914   4.964   4.807   2.754 -1.4093  0.0503  1.9371
 3537SOL    HW313915   4.919   4.682   2.682  0.6844  0.4807 -0.2416
 3537SOL    MW413916   4.969   4.721   2.742  0.0594  0.3083  0.4108
 3538SOL     OW13917   2.100   2.070   0.809  0.3298 -0.6440 -0.3404
 3538SOL    HW213918   2.184   2.084   0.766  0.5818 -0.0503  0.3180
 3538SOL    HW313919   2.059   2.157   0.810 -0.4936 -1.0085 -1.0513
 3538SOL    MW413920   2.106   2.084   0.804  0.2544 -0.6138 -0.3473
 3539SOL     OW13921   5.619   0.260   0.940 -0.3321 -0.4316  0.5229
 3539SOL    HW213922   5.688   0.296   0.885  0.0264 -3.0543 -0.9301
 3539SOL    HW313923   5.666   0.212   1.008 -0.7825  0.8028  1.7378
 3539SOL    MW413924   5.634   0.258   0.942 -0.3442 -0.6148  0.4915
 3540SOL     OW13925   0.401   4.767   2.766 -0.2613  0.0646  0.5677
 3540SOL    HW213926   0.410   4.802   2.677 -0.5572  0.0385  0.5265
 3540SOL    HW313927   0.354   4.836   2.814 -1.5590 -0.5956  0.2847
 3540SOL    MW413928   0.396   4.781   2.761 -0.4716 -0.0260  0.5250
 3541SOL     OW13929   0.468   5.259   5.368 -0.2996  0.1535 -0.2297
 3541SOL    HW213930   0.373   5.274   5.369 -0.2377  0.5819 -0.4694
 3541SOL    HW313931   0.485   5.215   5.285 -0.3236 -0.1688 -0.0644
 3541SOL    MW413932   0.457   5.255   5.357 -0.2946  0.1675 -0.2395
 3542SOL     OW13933   4.778   1.727   5.265  0.2059 -0.3569  0.1839
 3542SOL    HW213934   4.819   1.644   5.292  1.1433 -0.4556 -1.4022
 3542SOL    HW313935   4.847   1.773   5.217 -1.1414  0.0527 -1.4610
 3542SOL    MW413936   4.792   1.722   5.262  0.1518 -0.3159 -0.2424
 3543SOL     OW13937   2.150   4.912   4.452 -0.3336  0.1614 -0.3322
 3543SOL    HW213938   2.150   5.005   4.432 -2.8004  0.4294  0.5416
 3543SOL    HW313939   2.123   4.869   4.371 -2.4248  0.5596  0.0815
 3543SOL    MW413940   2.146   4.918   4.439 -0.9350  0.2493 -0.1623
 3544SOL     OW13941   5.709   6.136   1.953  0.1872  0.4455  0.3275
 3544SOL    HW213942   5.744   6.056   1.915 -0.1442  0.6123 -0.3495
 3544SOL    HW313943   5.673   6.110   2.037  0.0504 -0.1229  0.0947
 3544SOL    MW413944   5.709   6.122   1.959  0.1254  0.3925  0.2075
 3545SOL     OW13945   3.021   1.455   0.894 -0.0387 -0.1408  0.0154
 3545SOL    HW213946   3.022   1.382   0.956  1.5720 -0.7321 -0.6574
 3545SOL    HW313947   2.929   1.464   0.869 -0.9765  0.8173  3.2452
 3545SOL    MW413948   3.009   1.447   0.899  0.0501 -0.0924  0.3528
 3546SOL     OW13949   4.980   0.884   1.703  0.3967  0.0430  0.3206
 3546SOL    HW213950   4.954   0.793   1.716 -2.1960  0.8048  1.1568
 3546SOL    HW313951   5.014   0.912   1.789  0.0763  0.1647  0.4112
 3546SOL    MW413952   4.981   0.876   1.716  0.0124  0.1596  0.4429
 3547SOL     OW13953   2.359   0.010   6.347 -0.3060  0.7281  0.2090
 3547SOL    HW213954   2.351  -0.013   6.254 -0.0625  1.9436 -0.1298
 3547SOL    HW313955   2.437   0.065   6.351 -0.2376  0.5766  1.1632
 3547SOL    MW413956   2.368   0.014   6.335 -0.2648  0.8685  0.2902
 3548SOL     OW13957   3.528   2.673   0.952  0.3162  0.5751 -0.2034
 3548SOL    HW213958   3.503   2.666   0.860 -0.0911  1.3712 -0.1573
 3548SOL    HW313959   3.528   2.767   0.970 -0.9340  0.3784  0.9659
 3548SOL    MW413960   3.525   2.684   0.942  0.0975  0.6542 -0.0430
 3549SOL     OW13961   0.936   4.945   6.412  0.2918  0.6830 -0.2038
 3549SOL    HW213962   0.968   4.948   6.322 -0.9836  0.0899 -0.7159
 3549SOL    HW313963   0.844   4.971   6.405  0.0715  0.2536  0.8715
 3549SOL    MW413964   0.928   4.949   6.399  0.0945  0.5481 -0.1295
 3550SOL     OW13965   4.988   5.380   1.921 -0.1774  0.2123 -0.2928
 3550SOL    HW213966   5.053   5.448   1.906 -0.7279  0.4714 -1.7110
 3550SOL    HW313967   4.957   5.395   2.010 -0.0722  1.6579 -0.4654
 3550SOL    MW413968   4.992   5.391   1.930 -0.2361  0.4372 -0.5027
 3551SOL     OW13969   4.859   3.519   5.158  0.2839  0.1646  0.3552
 3551SOL    HW213970   4.949   3.502   5.185  1.3190  2.2393 -1.4529
 3551SOL    HW313971   4.808   3.514   5.238  1.7377 -2.3887  1.2477
 3551SOL    MW413972   4.865   3.516   5.172  0.6123  0.1014  0.2344
 3552SOL     OW13973   1.770   2.421   3.361 -0.6882  0.1529  0.0411
 3552SOL    HW213974   1.710   2.365   3.312  2.5836 -1.3655 -2.6470
 3552SOL    HW313975   1.845   2.365   3.380  2.4448  3.1935 -2.0861
 3552SOL    MW413976   1.772   2.406   3.357  0.1568  0.3537 -0.5942
 3553SOL     OW13977   3.429   5.232   2.564  0.0180  0.0382 -0.1180
 3553SOL    HW213978   3.336   5.222   2.586 -0.0861 -0.4452 -0.7712
 3553SOL    HW313979   3.475   5.174   2.624 -0.3695 -2.3628 -2.0010
 3553SOL    MW413980   3.423   5.223   2.575 -0.0468 -0.3423 -0.4526
 3554SOL     OW13981   3.818   2.955   1.375 -0.2101  0.2543 -0.2713
 3554SOL    HW213982   3.783   2.997   1.297 -2.3051  0.6862  0.8249
 3554SOL    HW313983   3.832   3.028   1.437 -0.3001 -0.2561  0.3631
 3554SOL    MW413984   3.816   2.970   1.373 -0.4984  0.2439 -0.0430
 3555SOL     OW13985   5.347   0.873   0.930 -0.2009  0.3442  0.2514
 3555SOL    HW213986   5.325   0.785   0.898  0.1398  1.0084 -2.0247
 3555SOL    HW313987   5.279   0.929   0.892 -1.1596  0.9664  2.7188
 3555SOL    MW413988   5.335   0.869   0.921 -0.2824  0.5139  0.2766
 3556SOL     OW13989   5.435   0.893   5.110  0.3648  0.0940 -0.3275
 3556SOL    HW213990   5.429   0.979   5.069  0.6322  0.1974 -0.1473
 3556SOL    HW313991   5.401   0.833   5.043 -2.0946  0.5787  0.3982
 3556SOL    MW413992   5.430   0.896   5.096  0.0756  0.1716 -0.2080
 3557SOL     OW13993   1.554   2.106   5.398  1.1047  0.4691 -0.0389
 3557SOL    HW213994   1.620   2.162   5.439 -0.0269  1.4316  0.5088
 3557SOL    HW313995   1.569   2.116   5.304  2.5546 -0.3492  0.0735
 3557SOL    MW413996   1.565   2.114   5.391  1.1467  0.4881  0.0482
 3558SOL     OW13997   2.120   4.391   2.737  0.0913 -0.0020  0.2394
 3558SOL    HW213998   2.082   4.307   2.764  1.5237 -0.6832  0.2329
 3558SOL    HW313999   2.144   4.433   2.819 -0.8452  0.5271  0.2534
 3558SOL    MW414000   2.118   4.385   2.751  0.1567 -0.0220  0.2404
 3559SOL     OW14001   6.386   4.921   2.290 -0.2355 -0.8770  0.1972
 3559SOL    HW214002   6.437   4.840   2.284 -1.3097 -1.5810  0.3351
 3559SOL    HW314003   6.352   4.934   2.201 -0.2128 -0.6659  0.2194
 3559SOL    MW414004   6.388   4.912   2.277 -0.3742 -0.9420  0.2183
 3560SOL     OW14005   5.314   6.267   2.249 -0.0181  0.0863 -0.3935
 3560SOL    HW214006   5.314   6.173   2.229 -1.6125  0.2702 -1.4563
 3560SOL    HW314007   5.368   6.306   2.180 -0.2654  0.0525 -0.6096
 3560SOL    MW414008   5.321   6.259   2.237 -0.2611  0.1061 -0.5623
 3561SOL     OW14009   0.706   4.084   5.208 -0.5081 -0.6757 -0.9589
 3561SOL    HW214010   0.740   4.167   5.241 -0.9401 -1.1073  0.6994
 3561SOL    HW314011   0.621   4.074   5.251 -0.7441 -1.6884 -1.6107
 3561SOL    MW414012   0.699   4.093   5.218 -0.5962 -0.8663 -0.8261
 3562SOL     OW14013   4.982   2.973   2.592  0.2421 -0.4734  0.1398
 3562SOL    HW214014   4.943   3.021   2.665 -0.4331 -0.5627 -0.1579
 3562SOL    HW314015   5.003   3.041   2.528  3.3038 -0.0210  1.4393
 3562SOL    MW414016   4.980   2.988   2.593  0.5570 -0.4255  0.2720
 3563SOL     OW14017   3.484   2.532   2.063  0.6554 -0.1186 -0.2949
 3563SOL    HW214018   3.430   2.528   2.142  2.1561  0.6797  0.8299
 3563SOL    HW314019   3.421   2.547   1.992 -0.6588  0.1521  0.8653
 3563SOL    MW414020   3.468   2.534   2.064  0.6800  0.0225  0.0066
 3564SOL     OW14021   2.988   1.078   1.323 -0.0221 -0.2502  0.4413
 3564SOL    HW214022   3.068   1.071   1.374 -0.2766  0.7854  1.0003
 3564SOL    HW314023   2.969   1.172   1.320 -0.3705 -0.3373 -1.0045
 3564SOL    MW414024   2.996   1.090   1.329 -0.1017 -0.1251  0.3243
 3565SOL     OW14025   0.808   0.931   2.949  0.1618 -0.3449 -0.0017
 3565SOL    HW214026   0.874   0.986   2.906  0.2974 -0.6511 -0.1915
 3565SOL    HW314027   0.833   0.841   2.926  0.9953 -0.6167  1.7772
 3565SOL    MW414028   0.820   0.926   2.940  0.2896 -0.4212  0.2079
 3566SOL     OW14029   2.658   3.014   3.744 -0.0688 -0.4437  0.0151
 3566SOL    HW214030   2.606   3.075   3.692  0.0755 -0.8761 -0.6568
 3566SOL    HW314031   2.654   3.048   3.833 -0.6503  0.0954 -0.2097
 3566SOL    MW414032   2.650   3.026   3.749 -0.1265 -0.4296 -0.1032
 3567SOL     OW14033   2.017   0.187   5.728  0.1709 -0.0496 -0.7467
 3567SOL    HW214034   1.935   0.144   5.704 -0.3060  0.3882  0.0601
 3567SOL    HW314035   2.082   0.117   5.728 -0.3351 -0.5240 -0.7267
 3567SOL    MW414036   2.015   0.172   5.725  0.0412 -0.0544 -0.6376
 3568SOL     OW14037   0.452   5.728   6.325  0.1154 -0.2411  0.3570
 3568SOL    HW214038   0.487   5.682   6.402  0.8491 -0.5444 -0.1491
 3568SOL    HW314039   0.475   5.820   6.340  0.2202 -0.2933  0.5177
 3568SOL    MW414040   0.460   5.734   6.337  0.2260 -0.2880  0.3114
 3569SOL     OW14041   3.105   6.357   0.489 -0.7446 -0.9979  0.4918
 3569SOL    HW214042   3.187   6.386   0.530 -0.6809 -0.8228  0.2438
 3569SOL    HW314043   3.116   6.379   0.396 -0.1379 -3.0348  0.0398
 3569SOL    MW414044   3.117   6.364   0.482 -0.6562 -1.2436  0.3994
 3570SOL     OW14045   4.663   6.429   0.974 -0.1354  0.6762  0.0388
 3570SOL    HW214046   4.604   6.502   0.957  0.5543  1.7793  2.0851
 3570SOL    HW314047   4.741   6.448   0.921  1.5819  3.5382  3.1684
 3570SOL    MW414048   4.666   6.441   0.965  0.1822  1.1993  0.7217
 3571SOL     OW14049   2.224   5.801   3.215 -0.3112 -0.5543  0.3448
 3571SOL    HW214050   2.220   5.714   3.255  1.0131 -0.2767  1.1374
 3571SOL    HW314051   2.219   5.861   3.289 -1.9534  0.0880 -0.2491
 3571SOL    MW414052   2.223   5.797   3.230 -0.3531 -0.4329  0.3710
 3572SOL     OW14053   5.772   3.623   6.024  0.1109  0.1325 -0.5290
 3572SOL    HW214054   5.852   3.602   5.976  0.6108  1.2051 -0.1899
 3572SOL    HW314055   5.717   3.546   6.012  1.6737 -1.1700  0.2894
 3572SOL    MW414056   5.775   3.610   6.016  0.3830  0.1022 -0.3763
 3573SOL     OW14057   0.563   2.494   0.606 -0.3202  0.0016 -0.6879
 3573SOL    HW214058   0.635   2.431   0.604  0.3392  0.5954  1.5319
 3573SOL    HW314059   0.486   2.442   0.627  0.0001 -0.2394 -0.0915
 3573SOL    MW414060   0.562   2.479   0.609 -0.1909  0.0481 -0.3163
 3574SOL     OW14061   3.740   4.330   1.312 -0.0270 -0.0766  0.1453
 3574SOL    HW214062   3.777   4.414   1.343 -1.1214  0.4762 -0.0188
 3574SOL    HW314063   3.706   4.349   1.225  0.9223 -1.0538 -0.4717
 3574SOL    MW414064   3.741   4.344   1.305 -0.0461 -0.1326  0.0422
 3575SOL     OW14065   0.056   4.927   1.883 -0.0312 -0.2243  0.3025
 3575SOL    HW214066   0.038   4.862   1.815 -0.1232 -0.6404  0.7171
 3575SOL    HW314067  -0.026   4.932   1.933  0.0997 -0.0712  0.5026
 3575SOL    MW414068   0.043   4.919   1.881 -0.0261 -0.2590  0.3836
 3576SOL     OW14069   3.351   0.239   1.750 -0.2716 -0.0510  0.0916
 3576SOL    HW214070   3.390   0.202   1.829 -0.4967 -1.3111 -0.3552
 3576SOL    HW314071   3.402   0.317   1.731 -0.5240  0.5457  1.7494
 3576SOL    MW414072   3.363   0.244   1.758 -0.3346 -0.1385  0.2514
 3577SOL     OW14073   4.834   3.630   5.547  0.2422  0.0723 -0.2613
 3577SOL    HW214074   4.928   3.631   5.531  0.0976  0.4539 -1.1588
 3577SOL    HW314075   4.804   3.716   5.519 -0.4145 -0.1399 -0.2351
 3577SOL    MW414076   4.842   3.641   5.541  0.1365  0.0946 -0.3762
 3578SOL     OW14077   2.842   3.966   4.066 -0.0218 -0.0375  0.5305
 3578SOL    HW214078   2.788   3.898   4.027 -0.0292  0.4156 -0.2750
 3578SOL    HW314079   2.867   4.022   3.993  0.8584  0.2303  1.0137
 3578SOL    MW414080   2.838   3.965   4.051  0.0933  0.0577  0.4880
 3579SOL     OW14081   4.054   0.884   0.940  0.2376 -0.1537 -0.0741
 3579SOL    HW214082   3.981   0.888   1.001 -0.8542  0.0255 -1.3565
 3579SOL    HW314083   4.025   0.824   0.871  1.9740 -1.4290  0.2315
 3579SOL    MW414084   4.041   0.877   0.939  0.3226 -0.2983 -0.2030
 3580SOL     OW14085   5.687   3.307   6.418 -0.2707 -0.0988  0.6373
 3580SOL    HW214086   5.684   3.297   6.323 -0.7623  1.1901  0.4909
 3580SOL    HW314087   5.687   3.402   6.431  0.8859 -0.2542  1.8949
 3580SOL    MW414088   5.687   3.318   6.407 -0.1830  0.0508  0.7839
 3581SOL     OW14089   1.157   2.432   0.993  0.0448 -0.0534 -0.2940
 3581SOL    HW214090   1.162   2.439   1.088 -0.7957 -0.5644 -0.1992
 3581SOL    HW314091   1.248   2.435   0.964  0.4457 -1.7012  0.6662
 3581SOL    MW414092   1.169   2.434   1.002 -0.0132 -0.3382 -0.1548
 3582SOL     OW14093   3.977   1.558   5.658 -0.2482 -0.2157  0.2588
 3582SOL    HW214094   4.011   1.586   5.744  0.3529 -0.7260  0.1887
 3582SOL    HW314095   4.051   1.514   5.616 -0.0995  1.2377 -1.0945
 3582SOL    MW414096   3.991   1.556   5.664 -0.1493 -0.0913  0.0710
 3583SOL     OW14097   5.646   1.897   2.549 -0.0675  0.2033 -0.2367
 3583SOL    HW214098   5.641   1.843   2.628 -1.5565  1.5193  0.6326
 3583SOL    HW314099   5.621   1.838   2.478  1.6096 -1.0918  0.1685
 3583SOL    MW414100   5.642   1.882   2.550 -0.0426  0.2060 -0.0685
 3584SOL     OW14101   6.052   0.212   3.837 -0.0048  0.4802 -0.1257
 3584SOL    HW214102   6.134   0.193   3.791 -0.4091  0.4959 -0.8590
 3584SOL    HW314103   6.061   0.167   3.921  1.1912  1.3338  0.2268
 3584SOL    MW414104   6.064   0.204   3.842  0.0997  0.5949 -0.1759
 3585SOL     OW14105   1.575   5.223   5.662 -0.2785 -0.4000 -0.0690
 3585SOL    HW214106   1.641   5.242   5.596  0.8091 -0.0081  1.0977
 3585SOL    HW314107   1.621   5.230   5.745 -1.2175 -2.4473  0.6978
 3585SOL    MW414108   1.589   5.226   5.664 -0.2589 -0.6184  0.1861
 3586SOL     OW14109   3.384   6.112   2.584  0.2808  0.1645 -0.6478
 3586SOL    HW214110   3.320   6.183   2.587  0.9210  0.9133 -2.7968
 3586SOL    HW314111   3.413   6.110   2.493  2.6251 -0.7637  0.0463
 3586SOL    MW414112   3.379   6.121   2.572  0.6745  0.1409 -0.8398
 3587SOL     OW14113   5.841   2.144   1.145  0.4929  0.7795 -0.2089
 3587SOL    HW214114   5.869   2.053   1.134  1.0981  1.2118 -2.9413
 3587SOL    HW314115   5.899   2.180   1.212  1.2528 -0.4237 -0.2060
 3587SOL    MW414116   5.852   2.137   1.153  0.6730  0.6778 -0.5690
 3588SOL     OW14117   6.192   1.749   5.917 -0.5357 -0.3829 -0.0072
 3588SOL    HW214118   6.273   1.731   5.869  0.3907 -1.5195  1.8751
 3588SOL    HW314119   6.128   1.689   5.879  0.0150 -0.8462 -0.2204
 3588SOL    MW414120   6.194   1.738   5.905 -0.3408 -0.5940  0.2130
 3589SOL     OW14121   2.392   4.712   1.481  0.6700 -0.9180 -0.5101
 3589SOL    HW214122   2.333   4.671   1.545 -1.8965  2.0457 -0.7688
 3589SOL    HW314123   2.474   4.663   1.490 -0.5434 -2.6739  2.7837
 3589SOL    MW414124   2.395   4.700   1.491  0.1713 -0.7587 -0.1096
 3590SOL     OW14125   0.089   5.522   1.717 -0.4003  0.1121  0.5003
 3590SOL    HW214126   0.005   5.508   1.761  1.1882 -0.1387  3.7569
 3590SOL    HW314127   0.111   5.436   1.680 -1.4570  0.1485 -0.2814
 3590SOL    MW414128   0.080   5.509   1.718 -0.3301  0.0838  0.8268
 3591SOL     OW14129   2.082   3.337   6.225  0.2095 -0.2561 -0.0974
 3591SOL    HW214130   2.105   3.419   6.269 -0.9463 -0.5376  1.1044
 3591SOL    HW314131   2.129   3.270   6.274  1.0163 -0.3600 -0.9729
 3591SOL    MW414132   2.091   3.339   6.237  0.1634 -0.3070 -0.0544
 3592SOL     OW14133   0.482   0.991   4.769  0.2342  0.9489  0.6148
 3592SOL    HW214134   0.424   0.950   4.705  0.6267  1.2937  0.0420
 3592SOL    HW314135   0.566   1.001   4.724  1.5258 -1.7450  2.1548
 3592SOL    MW414136   0.485   0.987   4.755  0.4564  0.6390  0.7424
 3593SOL     OW14137   4.725   6.067   5.179  0.3781  0.0917 -0.6511
 3593SOL    HW214138   4.699   6.159   5.170 -2.4933 -0.1889  2.5389
 3593SOL    HW314139   4.643   6.018   5.174  1.6365 -2.1528 -0.5974
 3593SOL    MW414140   4.711   6.073   5.178  0.1653 -0.2415 -0.2231
 3594SOL     OW14141   1.648   2.004   0.333 -0.3011 -0.2524  0.1766
 3594SOL    HW214142   1.596   2.003   0.413  2.5110 -0.3660  2.1379
 3594SOL    HW314143   1.717   2.068   0.349  0.2961 -0.1937 -2.2156
 3594SOL    MW414144   1.651   2.012   0.346  0.1487 -0.2596  0.1198
 3595SOL     OW14145   0.993   1.313   3.837  0.0378 -0.0440  0.4961
 3595SOL    HW214146   0.986   1.304   3.742 -0.6612 -1.8357  0.6823
 3595SOL    HW314147   1.079   1.274   3.858 -0.0389 -0.1345  0.6456
 3595SOL    MW414148   1.004   1.306   3.827 -0.0645 -0.2923  0.5404
 3596SOL     OW14149   5.401   1.752   5.974  0.0360  0.0909 -0.2344
 3596SOL    HW214150   5.327   1.801   6.009 -0.6391  0.7168 -2.4031
 3596SOL    HW314151   5.387   1.663   6.005 -0.6855  0.5332  0.7851
 3596SOL    MW414152   5.390   1.747   5.983 -0.1483  0.2318 -0.3860
 3597SOL     OW14153   3.868   1.231   5.418  0.7796  0.5246 -0.3340
 3597SOL    HW214154   3.847   1.148   5.374 -0.4751  0.1560  0.8681
 3597SOL    HW314155   3.792   1.287   5.401  1.5613  1.4008 -1.0243
 3597SOL    MW414156   3.855   1.227   5.410  0.7172  0.5915 -0.2665
 3598SOL     OW14157   2.366   4.404   6.111 -0.1681  0.2585 -0.1431
 3598SOL    HW214158   2.424   4.423   6.037 -0.4240 -0.8138 -0.6364
 3598SOL    HW314159   2.317   4.485   6.123  1.7007  1.3382  0.5673
 3598SOL    MW414160   2.367   4.417   6.103  0.0447  0.2594 -0.1145
 3599SOL     OW14161   1.828   0.589   6.370 -0.2786  0.1930  0.6228
 3599SOL    HW214162   1.881   0.509   6.374  0.8989  0.8397 -0.7476
 3599SOL    HW314163   1.874   0.644   6.306 -1.2645  1.8124  1.2441
 3599SOL    MW414164   1.841   0.586   6.362 -0.2533  0.4920  0.5239
 3600SOL     OW14165   1.647   3.248   2.597 -0.4162  0.4586 -0.0875
 3600SOL    HW214166   1.664   3.213   2.510 -1.9422 -4.6085  1.3056
 3600SOL    HW314167   1.575   3.311   2.585 -0.6907 -0.2462 -2.4561
 3600SOL    MW414168   1.639   3.252   2.584 -0.6538 -0.3029 -0.2162
 3601SOL     OW14169   1.729   1.360   4.669  0.1797 -0.3086 -0.5402
 3601SOL    HW214170   1.710   1.287   4.610  0.4495 -0.0028 -1.0141
 3601SOL    HW314171   1.771   1.426   4.613  1.3988 -0.4246  0.1840
 3601SOL    MW414172   1.732   1.359   4.654  0.3762 -0.2835 -0.5072
 3602SOL     OW14173   3.757   6.294   2.561  0.1403  0.7897 -0.7033
 3602SOL    HW214174   3.814   6.293   2.638  0.0150 -0.2034 -0.6163
 3602SOL    HW314175   3.676   6.335   2.592  0.6865  1.9646 -0.7612
 3602SOL    MW414176   3.753   6.299   2.575  0.1959  0.8137 -0.6995
 3603SOL     OW14177   5.917   0.578   4.995  0.5960 -0.6985  0.1095
 3603SOL    HW214178   5.918   0.629   5.076 -0.8500  0.8200 -0.7600
 3603SOL    HW314179   5.879   0.494   5.020 -1.2671  0.2744  0.7934
 3603SOL    MW414180   5.912   0.574   5.009  0.1594 -0.3698  0.0850
 3604SOL     OW14181   5.891   0.766   1.809 -0.3043 -0.5242  0.5333
 3604SOL    HW214182   5.822   0.714   1.768 -0.1102 -0.3583 -0.0160
 3604SOL    HW314183   5.851   0.852   1.823 -0.6758 -0.8534  1.5864
 3604SOL    MW414184   5.877   0.771   1.805 -0.3277 -0.5457  0.5998
 3605SOL     OW14185   4.142   0.096   0.475  0.1160  0.6849  0.3491
 3605SOL    HW214186   4.105   0.008   0.484  0.5655  0.4167 -0.3534
 3605SOL    HW314187   4.086   0.151   0.529 -0.9364  0.1871 -0.2057
 3605SOL    MW414188   4.130   0.091   0.484  0.0364  0.5838  0.1832
 3606SOL     OW14189   2.684   3.537   0.879 -0.0030 -0.2707 -0.3273
 3606SOL    HW214190   2.770   3.579   0.885  0.1097 -0.4749 -0.4969
 3606SOL    HW314191   2.673   3.521   0.785 -0.1425 -0.4183 -0.2848
 3606SOL    MW414192   2.694   3.540   0.867 -0.0065 -0.3171 -0.3440
 3607SOL     OW14193   1.201   6.067   3.497  0.5997  0.3087 -0.0810
 3607SOL    HW214194   1.221   6.149   3.542 -2.0059  0.9992  0.0105
 3607SOL    HW314195   1.260   6.065   3.422  1.0127  2.0735  0.1518
 3607SOL    MW414196   1.211   6.078   3.493  0.3104  0.6327 -0.0382
 3608SOL     OW14197   0.266   6.424   6.464 -0.7677  0.1375 -0.5324
 3608SOL    HW214198   0.344   6.460   6.507 -0.6949  0.1705 -0.6889
 3608SOL    HW314199   0.292   6.415   6.372 -1.0838  0.5257 -0.6625
 3608SOL    MW414200   0.280   6.427   6.458 -0.7998  0.1931 -0.5702
 3609SOL     OW14201   5.827   5.720   3.761  0.2989 -0.6011 -0.0492
 3609SOL    HW214202   5.757   5.685   3.707  0.1751 -1.2122  0.4867
 3609SOL    HW314203   5.819   5.815   3.753 -0.1590 -0.6778 -0.5331
 3609SOL    MW414204   5.817   5.728   3.753  0.2221 -0.6918 -0.0424
 3610SOL     OW14205   2.808   2.348   1.459  0.2918 -0.1732 -0.5696
 3610SOL    HW214206   2.861   2.279   1.498  0.2988 -0.1135 -0.4732
 3610SOL    HW314207   2.854   2.429   1.480 -0.0746 -0.0831 -0.0957
 3610SOL    MW414208   2.821   2.350   1.467  0.2443 -0.1535 -0.4944
 3611SOL     OW14209   1.742   2.286   4.338  0.5762  0.4348  0.2770
 3611SOL    HW214210   1.717   2.223   4.270  0.0665 -1.0273  1.7472
 3611SOL    HW314211   1.661   2.330   4.362  0.5017  0.0272  0.8064
 3611SOL    MW414212   1.728   2.283   4.332  0.4991  0.1881  0.5408
 3612SOL     OW14213   3.962   1.059   4.553 -0.3844  0.6274  0.2620
 3612SOL    HW214214   3.935   1.030   4.466 -0.3500 -2.3889  1.1350
 3612SOL    HW314215   3.901   1.129   4.575 -2.6629 -0.9042 -0.8232
 3612SOL    MW414216   3.951   1.064   4.544 -0.6805  0.0273  0.2340
 3613SOL     OW14217   2.793   1.678   3.328  0.2271 -0.6673  0.1191
 3613SOL    HW214218   2.770   1.707   3.240 -0.8922 -1.5577  0.0805
 3613SOL    HW314219   2.712   1.640   3.362  0.1488  1.1849  2.1960
 3613SOL    MW414220   2.779   1.677   3.321  0.0691 -0.5404  0.3880
 3614SOL     OW14221   0.064   1.124   5.434 -0.3717 -0.7094 -0.3001
 3614SOL    HW214222   0.111   1.159   5.510 -1.6769  1.1774 -0.2753
 3614SOL    HW314223   0.085   1.184   5.363 -0.3034 -1.6381 -1.0829
 3614SOL    MW414224   0.073   1.137   5.435 -0.5349 -0.5830 -0.4001
 3615SOL     OW14225   2.034   5.221   1.280  0.5195 -0.3131  0.7124
 3615SOL    HW214226   2.022   5.316   1.282 -2.6174 -0.6193  0.6937
 3615SOL    HW314227   2.033   5.194   1.372 -0.8426 -0.5049  0.6602
 3615SOL    MW414228   2.032   5.230   1.292 -0.0741 -0.3788  0.7031
 3616SOL     OW14229   6.209   0.514   4.761 -0.0494  0.1394 -0.0930
 3616SOL    HW214230   6.297   0.495   4.795 -0.9057 -0.9881  1.6628
 3616SOL    HW314231   6.163   0.430   4.768 -0.7309  0.1950 -2.8772
 3616SOL    MW414232   6.215   0.500   4.766 -0.2523 -0.0020 -0.2287
 3617SOL     OW14233   3.428   0.528   5.743  0.0442 -0.4452 -0.3793
 3617SOL    HW214234   3.452   0.459   5.804 -0.7851 -2.6973 -2.4229
 3617SOL    HW314235   3.494   0.596   5.755  0.9333 -1.5931  1.6856
 3617SOL    MW414236   3.440   0.528   5.752  0.0521 -0.8938 -0.3765
 3618SOL     OW14237   4.645   5.969   2.041  0.3486  0.5023 -1.1700
 3618SOL    HW214238   4.672   6.029   2.110  3.0013 -2.4225  0.5843
 3618SOL    HW314239   4.712   5.979   1.973  0.1496  0.3929 -1.3827
 3618SOL    MW414240   4.658   5.978   2.041  0.6724  0.1020 -0.9666
 3619SOL     OW14241   0.271   2.095   0.153  0.1981 -0.1077 -0.0987
 3619SOL    HW214242   0.301   2.137   0.234 -1.4605 -0.6035  0.8093
 3619SOL    HW314243   0.212   2.159   0.113  0.5705 -0.0947 -0.6343
 3619SOL    MW414244   0.267   2.109   0.159  0.0284 -0.1714 -0.0495
 3620SOL     OW14245   5.287   2.699   2.606  0.0026 -0.4292  0.4317
 3620SOL    HW214246   5.194   2.679   2.591 -0.1189 -1.2326  2.0681
 3620SOL    HW314247   5.286   2.783   2.652  0.1244 -0.2688  0.1485
 3620SOL    MW414248   5.274   2.707   2.610  0.0027 -0.5140  0.6102
 3621SOL     OW14249   4.682   2.138   4.591  0.5176  0.0710 -0.7103
 3621SOL    HW214250   4.695   2.193   4.514  0.8631  1.3868  0.2624
 3621SOL    HW314251   4.722   2.186   4.663  1.3951 -1.7464  0.0900
 3621SOL    MW414252   4.689   2.151   4.590  0.6790  0.0049 -0.4764
 3622SOL     OW14253   2.597   0.299   5.947 -0.1200  0.4575  0.6830
 3622SOL    HW214254   2.582   0.368   6.012 -0.5306 -0.2558  1.3557
 3622SOL    HW314255   2.648   0.232   5.993  0.2931  0.3056  0.0298
 3622SOL    MW414256   2.602   0.299   5.961 -0.1196  0.3434  0.6856
 3623SOL     OW14257   5.320   0.124   5.516  0.3383 -0.1786 -0.3246
 3623SOL    HW214258   5.274   0.171   5.447  1.1904  0.6513 -0.3499
 3623SOL    HW314259   5.298   0.171   5.596  0.4174 -0.3276 -0.2139
 3623SOL    MW414260   5.311   0.136   5.518  0.4611 -0.0887 -0.3133
 3624SOL     OW14261   6.287   0.404   1.351 -0.1054 -0.3180  0.2483
 3624SOL    HW214262   6.335   0.389   1.270 -0.6456 -0.2391 -0.0944
 3624SOL    HW314263   6.304   0.496   1.372  1.9284 -0.9149  1.5029
 3624SOL    MW414264   6.295   0.414   1.343  0.0917 -0.3863  0.3686
 3625SOL     OW14265   0.780   6.388   1.595  0.0407  0.6644 -0.6112
 3625SOL    HW214266   0.743   6.320   1.651 -0.1123  0.6670 -0.7082
 3625SOL    HW314267   0.874   6.369   1.594  0.2732  1.5727  0.8970
 3625SOL    MW414268   0.788   6.376   1.603  0.0512  0.7846 -0.4250
 3626SOL     OW14269   4.465   3.380   1.099 -0.1578 -0.3920 -0.3913
 3626SOL    HW214270   4.420   3.320   1.040 -1.1215 -0.6901  0.5948
 3626SOL    HW314271   4.549   3.338   1.117 -0.9684 -1.6847  0.5862
 3626SOL    MW414272   4.470   3.366   1.094 -0.3919 -0.6019 -0.1323
 3627SOL     OW14273   6.425   0.639   4.959 -0.0585 -0.6482  0.2917
 3627SOL    HW214274   6.476   0.649   4.879 -0.4852 -1.2144 -0.0611
 3627SOL    HW314275   6.484   0.597   5.020  0.1745 -0.4994  0.1690
 3627SOL    MW414276   6.439   0.635   4.956 -0.0841 -0.7033  0.2290
 3628SOL     OW14277   2.297   4.938   2.055  0.1032 -0.2111 -0.0971
 3628SOL    HW214278   2.206   4.967   2.064  0.3105  0.7214 -0.9429
 3628SOL    HW314279   2.302   4.860   2.110 -0.5770  1.0690  1.8877
 3628SOL    MW414280   2.286   4.931   2.063  0.0408  0.0808  0.0532
 3629SOL     OW14281   2.832   3.356   2.929  0.6236 -0.3022 -0.0600
 3629SOL    HW214282   2.842   3.443   2.889  1.3670  0.4933  1.7345
 3629SOL    HW314283   2.771   3.371   3.002 -0.3141 -1.5979 -0.5388
 3629SOL    MW414284   2.825   3.370   2.933  0.5980 -0.3682  0.1136
 3630SOL     OW14285   2.675   5.658   2.889  0.1647 -0.2525 -0.3640
 3630SOL    HW214286   2.707   5.577   2.927  1.1738  0.4363  0.3165
 3630SOL    HW314287   2.580   5.656   2.902  0.3866 -0.4447  1.4314
 3630SOL    MW414288   2.667   5.647   2.896  0.3271 -0.1870 -0.0373
 3631SOL     OW14289   2.671   3.392   4.388 -0.1688 -0.0637 -0.0512
 3631SOL    HW214290   2.676   3.371   4.295  0.0861  0.1210 -0.0788
 3631SOL    HW314291   2.761   3.411   4.414 -0.2837  0.2122  0.1565
 3631SOL    MW414292   2.683   3.392   4.379 -0.1503 -0.0030 -0.0275
 3632SOL     OW14293   2.486   3.642   3.971  0.0928  0.6610 -0.3889
 3632SOL    HW214294   2.402   3.657   3.928 -0.0870  0.0339 -0.2639
 3632SOL    HW314295   2.476   3.682   4.058 -1.4407 -2.6077  1.0852
 3632SOL    MW414296   2.474   3.650   3.977 -0.1332  0.1470 -0.1779
 3633SOL     OW14297   6.387   1.840   4.425 -0.6289  0.3525 -0.1824
 3633SOL    HW214298   6.461   1.781   4.434 -0.7198  0.2569 -0.0529
 3633SOL    HW314299   6.413   1.919   4.472 -0.8090  0.1292  0.3026
 3633SOL    MW414300   6.400   1.843   4.433 -0.6646  0.3104 -0.1013
 3634SOL     OW14301   2.028   1.208   0.163 -0.1540  0.3705 -0.6905
 3634SOL    HW214302   2.057   1.117   0.158  3.4429  1.3565 -0.4119
 3634SOL    HW314303   2.087   1.256   0.105 -0.3661  2.8507  0.9748
 3634SOL    MW414304   2.039   1.203   0.155  0.2926  0.8279 -0.4340
 3635SOL     OW14305   2.338   3.841   2.688 -0.1729 -0.5128 -0.6822
 3635SOL    HW214306   2.249   3.811   2.709 -0.7738  1.3819 -0.3705
 3635SOL    HW314307   2.327   3.901   2.615  0.5843  1.1929  0.5462
 3635SOL    MW414308   2.324   3.845   2.681 -0.1523 -0.0378 -0.4790
 3636SOL     OW14309   5.997   2.560   0.972  0.7163 -0.5676  0.2253
 3636SOL    HW214310   5.931   2.629   0.962  1.0658 -0.4796 -1.7203
 3636SOL    HW314311   5.945   2.479   0.981  0.3007 -0.5778 -1.8768
 3636SOL    MW414312   5.981   2.558   0.972  0.7076 -0.5573 -0.3087
 3637SOL     OW14313   3.217   3.004   0.724  0.6275  0.1138 -0.7956
 3637SOL    HW214314   3.260   3.063   0.662 -2.2035  1.3579 -1.7503
 3637SOL    HW314315   3.207   3.056   0.803  0.0157  0.2128 -0.9303
 3637SOL    MW414316   3.221   3.019   0.726  0.1733  0.2910 -0.9394
 3638SOL     OW14317   4.069   1.663   6.173  0.6886  0.5755  0.5711
 3638SOL    HW214318   4.028   1.749   6.183 -1.2767 -0.1495 -0.5664
 3638SOL    HW314319   4.017   1.605   6.229  0.6691 -0.2227 -0.2487
 3638SOL    MW414320   4.057   1.667   6.181  0.4267  0.3745  0.3129
 3639SOL     OW14321   2.672   1.095   1.274  0.3916 -0.4882  0.2349
 3639SOL    HW214322   2.665   1.180   1.230 -0.6730  0.1129  1.4844
 3639SOL    HW314323   2.761   1.094   1.311  0.8136 -0.4271 -0.7531
 3639SOL    MW414324   2.683   1.106   1.273  0.3068 -0.4008  0.2694
 3640SOL     OW14325   1.762   1.058   0.263  0.1531 -0.2898  0.2664
 3640SOL    HW214326   1.804   1.112   0.196  0.3914  0.4679  1.0098
 3640SOL    HW314327   1.748   1.117   0.337  2.2711 -1.6670  1.8991
 3640SOL    MW414328   1.766   1.073   0.264  0.4640 -0.3715  0.5799
 3641SOL     OW14329   0.693   0.616   0.865  0.4848  0.4029 -0.0880
 3641SOL    HW214330   0.657   0.700   0.895  0.1578 -0.3282  1.6928
 3641SOL    HW314331   0.624   0.578   0.811 -0.9377 -0.3448  2.1408
 3641SOL    MW414332   0.679   0.622   0.862  0.2539  0.2078  0.4411
 3642SOL     OW14333   1.644   2.341   0.140  0.2764  0.5193  0.2328
 3642SOL    HW214334   1.566   2.286   0.153 -0.1463  0.9187 -0.5415
 3642SOL    HW314335   1.711   2.280   0.108  0.4005  0.1079  1.2390
 3642SOL    MW414336   1.642   2.326   0.138  0.2370  0.5177  0.2634
 3643SOL     OW14337   3.201   5.186   0.223 -0.1817 -0.2053 -0.2763
 3643SOL    HW214338   3.180   5.275   0.249 -1.5776 -0.7850  0.7043
 3643SOL    HW314339   3.289   5.170   0.258  0.1775  0.8423 -0.6719
 3643SOL    MW414340   3.210   5.195   0.231 -0.3185 -0.1435 -0.1991
 3644SOL     OW14341   5.871   1.720   6.058 -0.4727  0.0966 -0.0933
 3644SOL    HW214342   5.781   1.751   6.071 -0.1846  1.3893 -0.9450
 3644SOL    HW314343   5.910   1.721   6.145 -1.3087 -0.5696  0.2977
 3644SOL    MW414344   5.864   1.724   6.071 -0.5450  0.1792 -0.1541
 3645SOL     OW14345   4.225   4.929   0.232  1.0548 -0.0836  0.1200
 3645SOL    HW214346   4.167   4.899   0.302  0.1163 -1.7364 -1.3123
 3645SOL    HW314347   4.174   4.995   0.185  1.2725  0.2305  0.3195
 3645SOL    MW414348   4.211   4.934   0.235  0.9597 -0.2602 -0.0427
 3646SOL     OW14349   2.189   0.689   2.264  0.2072 -0.5816 -0.0528
 3646SOL    HW214350   2.128   0.755   2.299 -0.2724 -0.5235 -0.9732
 3646SOL    HW314351   2.215   0.638   2.341 -4.0254 -3.1941 -0.0020
 3646SOL    MW414352   2.184   0.691   2.279 -0.4145 -0.9186 -0.1675
 3647SOL     OW14353   0.063   1.088   2.503  0.4974  0.2079  0.1606
 3647SOL    HW214354   0.113   1.016   2.467  0.8521  0.4924  0.0785
 3647SOL    HW314355   0.114   1.166   2.482  0.1931  0.4694  0.3750
 3647SOL    MW414356   0.076   1.089   2.495  0.5041  0.2799  0.1781
 3648SOL     OW14357   5.179   3.951   5.500 -0.4910 -0.9161 -0.2163
 3648SOL    HW214358   5.213   4.008   5.569 -0.7789 -2.8458  1.6352
 3648SOL    HW314359   5.090   3.983   5.484 -0.2813 -0.1969  0.0268
 3648SOL    MW414360   5.172   3.963   5.507 -0.5013 -1.0758  0.0601
 3649SOL     OW14361   4.280   5.027   3.171  0.4415  0.1384  0.0567
 3649SOL    HW214362   4.186   5.044   3.168  0.6945  1.7503  0.3998
 3649SOL    HW314363   4.304   5.008   3.080  0.1455  1.8679 -0.4077
 3649SOL    MW414364   4.271   5.026   3.159  0.4359  0.5792  0.0407
 3650SOL     OW14365   5.568   4.943   6.258 -0.1509 -0.5862  0.5608
 3650SOL    HW214366   5.622   4.895   6.194 -1.0058  0.8897 -1.3942
 3650SOL    HW314367   5.631   4.980   6.319  0.9728  0.0144 -0.9020
 3650SOL    MW414368   5.584   4.941   6.257 -0.1155 -0.3123  0.1099
 3651SOL     OW14369   1.063   5.699   4.608 -0.0232  0.1062 -0.1958
 3651SOL    HW214370   1.055   5.792   4.587  1.0721 -0.0044 -1.2374
 3651SOL    HW314371   0.974   5.671   4.630 -0.2487  1.5589  0.8768
 3651SOL    MW414372   1.050   5.708   4.608  0.0916  0.2832 -0.1917
 3652SOL     OW14373   6.383   3.970   3.224 -0.0288 -0.2812 -0.0257
 3652SOL    HW214374   6.305   4.015   3.191  1.1702  1.1234 -1.0530
 3652SOL    HW314375   6.354   3.879   3.236 -1.7105  0.1086 -0.7616
 3652SOL    MW414376   6.369   3.964   3.221 -0.0925 -0.0444 -0.2583
 3653SOL     OW14377   6.141   2.698   4.520 -0.3972  0.5950  0.4297
 3653SOL    HW214378   6.176   2.621   4.564 -0.1506  1.1697  1.2661
 3653SOL    HW314379   6.212   2.728   4.463 -0.0375  0.9145  1.0345
 3653SOL    MW414380   6.155   2.692   4.519 -0.3172  0.7130  0.6198
 3654SOL     OW14381   5.925   6.162   2.581 -0.4330 -0.4932 -0.7468
 3654SOL    HW214382   5.926   6.249   2.622 -3.3072 -0.5246 -0.4086
 3654SOL    HW314383   6.015   6.131   2.589  0.1198  1.3943  1.4348
 3654SOL    MW414384   5.937   6.169   2.587 -0.7393 -0.2483 -0.4143
 3655SOL     OW14385   4.771   1.815   4.841  0.2578 -0.1880  0.1223
 3655SOL    HW214386   4.717   1.798   4.763  1.1877  2.0558 -1.0914
 3655SOL    HW314387   4.725   1.885   4.887  0.5885 -0.3489  0.6955
 3655SOL    MW414388   4.758   1.822   4.836  0.4241  0.0868  0.0378
 3656SOL     OW14389   0.848   5.498   2.519  0.3799 -0.4783  0.2112
 3656SOL    HW214390   0.797   5.579   2.517 -1.3621 -1.5138 -0.8560
 3656SOL    HW314391   0.901   5.504   2.598 -0.0218  1.4917  0.3823
 3656SOL    MW414392   0.848   5.510   2.529  0.0970 -0.3550  0.0930
 3657SOL     OW14393   0.373   0.766   3.549 -0.8688  0.1122 -0.9145
 3657SOL    HW214394   0.355   0.787   3.641  0.4715 -0.2332 -0.5509
 3657SOL    HW314395   0.294   0.721   3.518 -1.6413  0.9286 -0.1669
 3657SOL    MW414396   0.360   0.763   3.557 -0.7939  0.1743 -0.7679
 3658SOL     OW14397   5.339   2.284   5.390 -0.0491  0.0927  0.2161
 3658SOL    HW214398   5.272   2.353   5.382 -0.5700 -0.4564 -0.2633
 3658SOL    HW314399   5.422   2.332   5.390 -0.3872  0.7136 -0.5048
 3658SOL    MW414400   5.341   2.300   5.389 -0.1625  0.1022  0.0577
 3659SOL     OW14401   2.689   6.166   3.749 -0.5800  0.0700  0.3330
 3659SOL    HW214402   2.602   6.185   3.784 -0.5516  1.0814 -0.0925
 3659SOL    HW314403   2.673   6.118   3.668 -0.7888  0.7824 -0.0646
 3659SOL    MW414404   2.675   6.162   3.743 -0.6038  0.2974  0.2244
 3660SOL     OW14405   3.136   3.750   6.122  0.3333 -0.1978 -0.0205
 3660SOL    HW214406   3.219   3.795   6.109 -0.0237 -0.0688 -2.4417
 3660SOL    HW314407   3.154   3.659   6.099 -0.0565 -0.2791 -0.0167
 3660SOL    MW414408   3.149   3.744   6.117  0.2348 -0.1915 -0.3395
 3661SOL     OW14409   5.489   3.346   3.635 -0.5567  0.4304  0.1547
 3661SOL    HW214410   5.491   3.372   3.727 -1.8235  1.2272 -0.0173
 3661SOL    HW314411   5.565   3.389   3.596  1.6562 -2.0921  1.3021
 3661SOL    MW414412   5.499   3.355   3.642 -0.4318  0.2027  0.2834
 3662SOL     OW14413   4.664   2.946   3.990 -0.2212 -0.0557  0.6738
 3662SOL    HW214414   4.759   2.939   4.004 -0.0028  1.9243  0.3637
 3662SOL    HW314415   4.630   2.983   4.071 -0.9503 -1.9391  1.2789
 3662SOL    MW414416   4.672   2.950   4.002 -0.2886 -0.0429  0.7128
 3663SOL     OW14417   2.193   3.038   0.213  0.4456 -0.1617 -0.8613
 3663SOL    HW214418   2.257   3.034   0.143  0.8001 -0.5477 -0.5182
 3663SOL    HW314419   2.178   2.947   0.239  1.2811  0.0317  0.4112
 3663SOL    MW414420   2.200   3.026   0.207  0.6026 -0.1871 -0.6481
 3664SOL     OW14421   4.032   1.871   6.455 -0.2759  0.5174  0.6335
 3664SOL    HW214422   4.020   1.949   6.510 -0.5340  0.4619  0.6581
 3664SOL    HW314423   3.944   1.833   6.448 -0.5083  1.3083 -0.9979
 3664SOL    MW414424   4.019   1.876   6.462 -0.3406  0.6144  0.4215
 3665SOL     OW14425   5.379   5.317   5.377  0.4503 -0.1463 -0.3806
 3665SOL    HW214426   5.402   5.409   5.363 -3.1492  1.1307  1.0098
 3665SOL    HW314427   5.393   5.303   5.471  0.9657 -1.0908 -0.5781
 3665SOL    MW414428   5.384   5.327   5.388  0.0434 -0.1025 -0.2232
 3666SOL     OW14429   1.380   5.404   3.394 -0.2042  0.2073 -0.1801
 3666SOL    HW214430   1.399   5.496   3.413  0.1135 -0.0456  0.8175
 3666SOL    HW314431   1.399   5.359   3.476  2.9715 -1.2309 -1.5372
 3666SOL    MW414432   1.385   5.410   3.407  0.2567 -0.0158 -0.2275
 3667SOL     OW14433   3.559   0.757   1.920  0.1742 -0.0012 -0.1901
 3667SOL    HW214434   3.501   0.720   1.987 -1.5363  0.8708 -1.0981
 3667SOL    HW314435   3.607   0.826   1.965 -2.0776  1.6234 -0.1206
 3667SOL    MW414436   3.557   0.761   1.935 -0.3486  0.3282 -0.3008
 3668SOL     OW14437   1.807   1.419   0.879  0.6380  0.2753  0.1157
 3668SOL    HW214438   1.764   1.338   0.906  0.7389  0.4226  0.7333
 3668SOL    HW314439   1.851   1.396   0.797 -1.0138  0.2636 -0.7915
 3668SOL    MW414440   1.807   1.405   0.872  0.4334  0.2932  0.0775
 3669SOL     OW14441   4.277   0.737   2.612 -0.3467 -0.1878 -0.2527
 3669SOL    HW214442   4.358   0.695   2.584  0.6302  2.3510 -1.5632
 3669SOL    HW314443   4.236   0.768   2.531 -2.2637 -0.7319  0.4458
 3669SOL    MW414444   4.282   0.736   2.598 -0.4707  0.0754 -0.3334
 3670SOL     OW14445   1.632   1.487   6.433  0.2326 -0.2944  0.1515
 3670SOL    HW214446   1.547   1.475   6.391  0.2863  0.6796 -0.2705
 3670SOL    HW314447   1.611   1.503   6.525 -0.0037 -0.6034  0.1534
 3670SOL    MW414448   1.618   1.487   6.439  0.2085 -0.2067  0.0961
 3671SOL     OW14449   1.839   0.273   1.470 -0.2625 -0.3529  0.1501
 3671SOL    HW214450   1.932   0.283   1.486 -0.3095 -0.9502  0.8228
 3671SOL    HW314451   1.817   0.345   1.410  0.4244  0.3888  0.7666
 3671SOL    MW414452   1.848   0.284   1.464 -0.1781 -0.3338  0.3202
 3672SOL     OW14453   6.422   6.097   1.124  0.3164 -0.1754  0.2067
 3672SOL    HW214454   6.452   6.181   1.090 -0.5567  0.0391 -0.0505
 3672SOL    HW314455   6.334   6.086   1.087  0.5204 -1.3123  0.0275
 3672SOL    MW414456   6.414   6.106   1.114  0.2281 -0.2971  0.1491
 3673SOL     OW14457   1.094   0.680   3.857  0.5425  0.1574 -0.1903
 3673SOL    HW214458   1.098   0.772   3.885 -1.5161  0.1824  0.2137
 3673SOL    HW314459   1.117   0.630   3.935 -1.0552  0.3239  0.4415
 3673SOL    MW414460   1.097   0.686   3.871  0.0601  0.1827 -0.0537
 3674SOL     OW14461   5.430   1.812   2.918  0.3229  0.6383 -0.4967
 3674SOL    HW214462   5.458   1.724   2.941 -0.3135  0.0347 -1.8904
 3674SOL    HW314463   5.377   1.841   2.993  0.5189 -0.1704 -0.0378
 3674SOL    MW414464   5.427   1.805   2.931  0.2648  0.4520 -0.6200
 3675SOL     OW14465   4.753   4.948   3.251  0.0179 -0.0470 -0.1425
 3675SOL    HW214466   4.732   4.858   3.277  1.2430  0.2377  2.1640
 3675SOL    HW314467   4.825   4.939   3.189 -0.1175 -0.6844 -0.2135
 3675SOL    MW414468   4.760   4.935   3.246  0.1617 -0.0935  0.1525
 3676SOL     OW14469   3.077   1.315   4.682 -0.1270  0.0826 -0.4188
 3676SOL    HW214470   3.173   1.308   4.686 -0.2096 -0.5810  2.1505
 3676SOL    HW314471   3.053   1.266   4.603  1.5423 -1.4991 -0.0214
 3676SOL    MW414472   3.087   1.307   4.672  0.0823 -0.2137 -0.0274
 3677SOL     OW14473   4.159   2.389   2.999  0.3594 -0.2985 -0.5276
 3677SOL    HW214474   4.109   2.433   2.931 -1.1130 -0.0156  0.6990
 3677SOL    HW314475   4.206   2.459   3.044 -1.5344  0.0439  1.0521
 3677SOL    MW414476   4.159   2.404   2.996 -0.0847 -0.2160 -0.1573
 3678SOL     OW14477   5.784   3.637   1.714  0.1943 -0.3580 -0.5278
 3678SOL    HW214478   5.800   3.679   1.630  0.9473 -0.9197 -0.6708
 3678SOL    HW314479   5.747   3.552   1.692  2.7931 -1.6006 -0.4196
 3678SOL    MW414480   5.781   3.631   1.700  0.6365 -0.5960 -0.5324
 3679SOL     OW14481   1.281   5.631   1.247  0.3462  0.5379  0.0975
 3679SOL    HW214482   1.305   5.589   1.330 -1.3753 -0.3835  0.1766
 3679SOL    HW314483   1.210   5.690   1.270 -0.1651  0.2568 -0.7102
 3679SOL    MW414484   1.275   5.633   1.261  0.0516  0.3793  0.0014
 3680SOL     OW14485   3.113   0.081   1.303 -0.6648  0.5062  0.2034
 3680SOL    HW214486   3.189   0.105   1.355 -1.2936  0.3909  1.1929
 3680SOL    HW314487   3.140   0.003   1.255  0.1375  0.9909 -0.1677
 3680SOL    MW414488   3.127   0.074   1.303 -0.6419  0.5550  0.2850
 3681SOL     OW14489   0.198   5.283   5.430  0.0901  0.1554  0.2694
 3681SOL    HW214490   0.204   5.259   5.522  0.6004 -0.6449  0.0318
 3681SOL    HW314491   0.146   5.364   5.430  1.0863  0.8302  1.3609
 3681SOL    MW414492   0.192   5.291   5.442  0.2888  0.1389  0.3821
 3682SOL     OW14493   5.276   4.881   1.879  0.5656  0.5429 -0.1757
 3682SOL    HW214494   5.346   4.817   1.894 -0.7148 -0.5465  1.4816
 3682SOL    HW314495   5.280   4.939   1.955 -0.2309  0.5563 -0.1348
 3682SOL    MW414496   5.286   4.880   1.891  0.2916  0.4009  0.0484
 3683SOL     OW14497   4.873   5.982   4.156  0.4749  0.2399  0.3461
 3683SOL    HW214498   4.916   5.903   4.190  0.7343  0.6800  1.0568
 3683SOL    HW314499   4.874   5.970   4.061 -2.0888 -1.9614  0.4749
 3683SOL    MW414500   4.879   5.970   4.148  0.1709  0.0075  0.4569
 3684SOL     OW14501   3.775   6.071   2.786  0.6667 -0.9704  0.0916
 3684SOL    HW214502   3.744   6.039   2.701  3.9613 -0.8768 -1.3028
 3684SOL    HW314503   3.815   5.995   2.827  0.0432 -0.7623  1.1098
 3684SOL    MW414504   3.776   6.057   2.780  1.0191 -0.9306  0.0420
 3685SOL     OW14505   0.851   3.915   4.858 -0.6497 -0.4433 -0.5894
 3685SOL    HW214506   0.916   3.881   4.796 -1.1062 -1.6255 -0.4464
 3685SOL    HW314507   0.832   4.004   4.827 -0.3901 -0.7794 -1.7579
 3685SOL    MW414508   0.857   3.922   4.845 -0.6757 -0.6436 -0.7247
 3686SOL     OW14509   3.978   5.919   5.174 -0.0194  0.4802  0.0220
 3686SOL    HW214510   3.953   5.849   5.234 -0.8083  1.4915  0.9255
 3686SOL    HW314511   3.908   5.920   5.108  1.5400 -1.5353 -1.8083
 3686SOL    MW414512   3.965   5.910   5.173  0.0823  0.3477 -0.1003
 3687SOL     OW14513   0.403   4.821   1.116  0.3180 -0.0614  0.1170
 3687SOL    HW214514   0.320   4.835   1.070  0.0464 -0.7817  0.3582
 3687SOL    HW314515   0.382   4.833   1.208  0.6125  0.3177  0.1351
 3687SOL    MW414516   0.389   4.824   1.122  0.3210 -0.1064  0.1513
 3688SOL     OW14517   3.183   1.444   2.539  0.1622  0.4744  0.0382
 3688SOL    HW214518   3.207   1.400   2.621  0.2827 -0.3141 -0.4036
 3688SOL    HW314519   3.267   1.466   2.499  0.1239  0.1558 -0.2294
 3688SOL    MW414520   3.197   1.441   2.544  0.1731  0.3283 -0.0554
 3689SOL     OW14521   2.684   4.395   0.884 -0.0284 -0.3436  0.2780
 3689SOL    HW214522   2.617   4.367   0.945  0.5219  1.1642  1.6370
 3689SOL    HW314523   2.653   4.480   0.852  1.0014  0.1531  0.5721
 3689SOL    MW414524   2.671   4.402   0.888  0.1801 -0.0791  0.4961
 3690SOL     OW14525   1.467   0.336   5.329  0.1798  0.8443 -0.6334
 3690SOL    HW214526   1.439   0.266   5.270  0.4291  0.6733 -0.5471
 3690SOL    HW314527   1.421   0.317   5.411  0.3793  0.6836 -0.5573
 3690SOL    MW414528   1.457   0.324   5.332  0.2390  0.8005 -0.6120
 3691SOL     OW14529   0.124   5.173   0.086  0.2975  0.1901 -0.7218
 3691SOL    HW214530   0.151   5.229   0.158  0.2871  1.8177 -1.9482
 3691SOL    HW314531   0.049   5.124   0.121  0.9309  0.1781  0.6874
 3691SOL    MW414532   0.118   5.174   0.100  0.3797  0.4032 -0.6977
 3692SOL     OW14533   3.753   4.095   1.956 -0.2553  0.1240  0.1910
 3692SOL    HW214534   3.797   4.047   1.885  1.8446  2.1735 -0.0276
 3692SOL    HW314535   3.677   4.135   1.914 -1.0887 -1.5924 -0.0025
 3692SOL    MW414536   3.749   4.094   1.941 -0.0882  0.1679  0.1366
 3693SOL     OW14537   5.981   1.112   0.491  0.2773 -0.4537 -0.2270
 3693SOL    HW214538   6.029   1.194   0.502 -1.3193  0.3266  1.5901
 3693SOL    HW314539   6.010   1.058   0.565  2.5670 -2.2929 -2.3097
 3693SOL    MW414540   5.991   1.116   0.503  0.3688 -0.5934 -0.2621
 3694SOL     OW14541   4.093   1.538   2.464  0.0622 -0.0688  0.1720
 3694SOL    HW214542   4.171   1.592   2.478  0.5644 -0.0224 -2.3651
 3694SOL    HW314543   4.025   1.580   2.518  0.6816  2.5499 -0.9394
 3694SOL    MW414544   4.094   1.551   2.473  0.2102  0.2828 -0.3093
 3695SOL     OW14545   1.463   2.271   5.829  0.2059 -0.0511  0.8552
 3695SOL    HW214546   1.452   2.350   5.777  0.9123 -1.2122 -1.1287
 3695SOL    HW314547   1.374   2.236   5.837  0.0353  0.3665  0.8207
 3695SOL    MW414548   1.450   2.277   5.824  0.2766 -0.1492  0.5889
 3696SOL     OW14549   1.767   1.985   5.763 -0.6145  0.2380  0.2831
 3696SOL    HW214550   1.766   2.077   5.788  0.7752  0.2675  0.3233
 3696SOL    HW314551   1.704   1.978   5.691 -2.4471  0.7422  1.7656
 3696SOL    MW414552   1.758   1.996   5.757 -0.6729  0.3084  0.4840
 3697SOL     OW14553   4.011   2.623   2.529 -0.1018 -0.2318 -0.3302
 3697SOL    HW214554   4.020   2.710   2.489  0.5845 -1.0990 -2.1403
 3697SOL    HW314555   3.943   2.580   2.478 -0.4461 -0.7780  0.5732
 3697SOL    MW414556   4.003   2.629   2.517 -0.0567 -0.4183 -0.4498
 3698SOL     OW14557   2.658   2.994   5.011  0.1481  0.0225  0.2174
 3698SOL    HW214558   2.639   2.980   5.104 -0.4532 -4.0376 -0.3603
 3698SOL    HW314559   2.610   3.074   4.988 -2.5479 -0.7582  2.6342
 3698SOL    MW414560   2.649   3.003   5.020 -0.2869 -0.6162  0.4600
 3699SOL     OW14561   4.511   4.315   1.718  0.3373 -0.4311  0.4422
 3699SOL    HW214562   4.459   4.255   1.663 -0.4047 -1.3700  2.1045
 3699SOL    HW314563   4.539   4.261   1.792  2.4015  0.4725  0.3765
 3699SOL    MW414564   4.507   4.300   1.720  0.5118 -0.4358  0.6528
 3700SOL     OW14565   5.629   4.638   5.902  0.3470 -0.3888 -0.3674
 3700SOL    HW214566   5.552   4.627   5.846 -0.2022  0.7978  0.1000
 3700SOL    HW314567   5.621   4.569   5.968  0.3290 -1.0151 -1.0146
 3700SOL    MW414568   5.618   4.628   5.904  0.2722 -0.3149 -0.3911
 3701SOL     OW14569   5.279   5.701   5.811 -0.1233 -0.2584  0.0775
 3701SOL    HW214570   5.269   5.655   5.728  4.5032 -1.4897 -0.0824
 3701SOL    HW314571   5.261   5.635   5.878  1.7205 -1.0276 -0.1180
 3701SOL    MW414572   5.276   5.687   5.809  0.7304 -0.5223  0.0306
 3702SOL     OW14573   0.988   5.305   2.341 -0.1548  0.1800  0.1169
 3702SOL    HW214574   0.966   5.382   2.394  2.3449  2.1866 -1.5043
 3702SOL    HW314575   0.967   5.331   2.251 -1.3035 -1.9262 -0.2950
 3702SOL    MW414576   0.982   5.319   2.336  0.0234  0.1668 -0.1513
 3703SOL     OW14577   4.703   0.808   5.834 -0.2212  0.5962  0.0877
 3703SOL    HW214578   4.786   0.781   5.795 -1.9372 -2.8187 -1.6481
 3703SOL    HW314579   4.709   0.780   5.925 -0.3704 -2.2324 -0.6881
 3703SOL    MW414580   4.715   0.801   5.841 -0.4673 -0.2276 -0.2436
 3704SOL     OW14581   1.847   6.402   6.220  0.4519  0.4897 -0.6170
 3704SOL    HW214582   1.920   6.455   6.187  0.5834  0.1872 -0.8176
 3704SOL    HW314583   1.867   6.389   6.313  0.4379  0.7615 -0.5758
 3704SOL    MW414584   1.859   6.407   6.228  0.4674  0.4857 -0.6380
 3705SOL     OW14585   2.801   5.995   0.258 -0.0826 -0.1544 -0.7053
 3705SOL    HW214586   2.831   6.052   0.329  0.2202 -0.3916 -0.6382
 3705SOL    HW314587   2.814   5.906   0.292  0.6585 -0.2819 -1.2958
 3705SOL    MW414588   2.807   5.990   0.272  0.0551 -0.2025 -0.7743
 3706SOL     OW14589   3.357   4.668   2.650 -0.2597 -0.4681 -0.2470
 3706SOL    HW214590   3.341   4.631   2.737 -0.2192 -0.0365 -0.0529
 3706SOL    HW314591   3.327   4.600   2.589 -1.5250 -0.2461  0.0948
 3706SOL    MW414592   3.351   4.654   2.653 -0.4213 -0.3819 -0.1763
 3707SOL     OW14593   3.515   0.313   4.894 -0.4569 -0.0320  0.4131
 3707SOL    HW214594   3.591   0.260   4.917 -0.2029 -0.2823 -0.9422
 3707SOL    HW314595   3.481   0.344   4.978  1.6123  0.7604  1.0226
 3707SOL    MW414596   3.520   0.310   4.908 -0.1504  0.0395  0.3147
 3708SOL     OW14597   0.518   1.993   5.498 -0.6899  0.5889 -0.8191
 3708SOL    HW214598   0.585   1.974   5.433 -0.1742  1.6282 -0.6214
 3708SOL    HW314599   0.484   2.079   5.472 -2.2755 -0.0999 -1.1716
 3708SOL    MW414600   0.522   2.002   5.486 -0.8311  0.6352 -0.8395
 3709SOL     OW14601   2.492   3.133   1.576 -0.6561  0.1650 -0.1923
 3709SOL    HW214602   2.417   3.109   1.632 -0.7035  0.2392 -0.2245
 3709SOL    HW314603   2.568   3.120   1.632 -0.8573  3.4219  1.0446
 3709SOL    MW414604   2.492   3.128   1.591 -0.6889  0.6045 -0.0334
 3710SOL     OW14605   4.079   2.905   2.623  0.1843 -0.0281 -0.2595
 3710SOL    HW214606   4.130   2.984   2.605  0.0277 -0.0664 -0.9025
 3710SOL    HW314607   4.088   2.892   2.718  0.2464  0.7305 -0.1515
 3710SOL    MW414608   4.087   2.914   2.633  0.1718  0.0670 -0.3301
 3711SOL     OW14609   5.797   4.308   0.283 -0.2021 -0.1076 -0.1848
 3711SOL    HW214610   5.852   4.242   0.325 -0.0956 -0.2314 -0.5187
 3711SOL    HW314611   5.856   4.353   0.222  0.1141  1.2736  1.0659
 3711SOL    MW414612   5.812   4.305   0.280 -0.1463  0.0583 -0.0638
 3712SOL     OW14613   4.684   5.110   1.748 -0.5166 -0.3841  0.1409
 3712SOL    HW214614   4.704   5.203   1.744 -1.8115 -0.1193 -2.0553
 3712SOL    HW314615   4.761   5.066   1.713 -0.5921  0.0174 -0.5442
 3712SOL    MW414616   4.697   5.117   1.743 -0.6974 -0.2962 -0.2392
 3713SOL     OW14617   3.066   2.847   1.392 -0.0441 -0.1524  0.2474
 3713SOL    HW214618   2.990   2.818   1.341  0.3414 -1.3373  0.3011
 3713SOL    HW314619   3.033   2.916   1.448 -0.3750  1.5956 -1.9457
 3713SOL    MW414620   3.052   2.852   1.392 -0.0369 -0.0781 -0.0349
 3714SOL     OW14621   6.245   1.544   2.129  0.0036 -0.2321  0.3870
 3714SOL    HW214622   6.232   1.480   2.199  0.4902 -1.4273 -0.5906
 3714SOL    HW314623   6.177   1.525   2.066 -0.0482  0.4398  0.2294
 3714SOL    MW414624   6.235   1.533   2.130  0.0610 -0.3011  0.2372
 3715SOL     OW14625   5.830   5.356   1.641 -0.0380 -0.7221  0.4233
 3715SOL    HW214626   5.883   5.277   1.652 -0.7227 -1.2503 -0.0368
 3715SOL    HW314627   5.750   5.326   1.599 -0.1106  0.2923 -0.2021
 3715SOL    MW414628   5.827   5.342   1.637 -0.1379 -0.6579  0.2801
 3716SOL     OW14629   5.177   2.401   0.552 -0.1932 -0.0377 -0.1842
 3716SOL    HW214630   5.182   2.489   0.515  0.3910 -0.3978 -0.9951
 3716SOL    HW314631   5.087   2.373   0.536 -0.5900  0.6626  0.7096
 3716SOL    MW414632   5.166   2.409   0.545 -0.1684  0.0072 -0.1732
 3717SOL     OW14633   6.409   3.435   4.715  0.3980 -0.6722  0.3382
 3717SOL    HW214634   6.486   3.418   4.769 -0.4852 -2.2527  1.1774
 3717SOL    HW314635   6.444   3.471   4.633  2.0866 -1.9440  0.4527
 3717SOL    MW414636   6.424   3.437   4.711  0.5043 -1.0486  0.4640
 3718SOL     OW14637   1.909   0.714   0.618  0.4576 -0.5854  0.4568
 3718SOL    HW214638   1.899   0.806   0.642 -0.1942 -0.4015 -0.4574
 3718SOL    HW314639   1.892   0.712   0.524  1.6491 -1.4744  0.2413
 3718SOL    MW414640   1.905   0.726   0.609  0.5288 -0.6784  0.3077
 3719SOL     OW14641   3.096   0.767   4.384 -0.2452  0.3225 -0.3165
 3719SOL    HW214642   3.177   0.798   4.344 -0.3477  0.6425 -0.2799
 3719SOL    HW314643   3.074   0.834   4.449 -0.2043 -0.0772  0.1101
 3719SOL    MW414644   3.104   0.780   4.387 -0.2533  0.3120 -0.2554
 3720SOL     OW14645   1.156   6.056   2.715 -0.2010  0.2301 -0.2128
 3720SOL    HW214646   1.174   6.119   2.784  1.1525 -1.0539  0.6769
 3720SOL    HW314647   1.098   5.992   2.756 -0.2951  0.0557 -0.6112
 3720SOL    MW414648   1.151   6.056   2.729 -0.0349  0.0377 -0.1480
 3721SOL     OW14649   2.085   0.555   4.088  0.0906  0.3688 -0.0558
 3721SOL    HW214650   2.062   0.483   4.029  0.1174 -0.0515  0.4326
 3721SOL    HW314651   2.140   0.613   4.036 -0.3267  0.2882 -0.6049
 3721SOL    MW414652   2.089   0.553   4.074  0.0391  0.3027 -0.0638
 3722SOL     OW14653   0.105   5.760   5.867  0.1060  0.2307 -0.0077
 3722SOL    HW214654   0.087   5.842   5.821  3.5336  1.8517  1.2245
 3722SOL    HW314655   0.195   5.769   5.897 -0.3228 -2.8329  2.6701
 3722SOL    MW414656   0.115   5.772   5.865  0.5017  0.0403  0.5082
 3723SOL     OW14657   2.149   3.394   5.756  0.3222  0.0230  0.0135
 3723SOL    HW214658   2.181   3.346   5.832 -0.0378  0.5683  0.5107
 3723SOL    HW314659   2.191   3.351   5.681  0.5019 -0.6542  0.4990
 3723SOL    MW414660   2.159   3.382   5.756  0.2984  0.0056  0.1431
 3724SOL     OW14661   4.113   6.013   5.603 -0.7388 -0.2527 -0.8293
 3724SOL    HW214662   4.043   5.955   5.633  1.2876 -1.7886  1.3653
 3724SOL    HW314663   4.191   5.957   5.602  1.0727  2.0994  0.0274
 3724SOL    MW414664   4.114   5.998   5.607 -0.2324 -0.1450 -0.4267
 3725SOL     OW14665   2.944   5.822   5.570 -0.0619 -0.5269 -0.3286
 3725SOL    HW214666   2.952   5.880   5.495  2.1663 -2.8957 -2.0716
 3725SOL    HW314667   2.897   5.746   5.537  0.1703 -1.2531  0.9279
 3725SOL    MW414668   2.939   5.820   5.556  0.2627 -0.9353 -0.3928
 3726SOL     OW14669   1.384   1.008   2.223 -0.1017 -0.0472 -0.0202
 3726SOL    HW214670   1.325   0.980   2.153 -0.1072 -2.5679  0.9009
 3726SOL    HW314671   1.330   1.062   2.280 -1.3690 -1.7416  0.4397
 3726SOL    MW414672   1.369   1.012   2.221 -0.2696 -0.6033  0.1620
 3727SOL     OW14673   2.269   5.012   0.673 -0.1007  0.6957  0.1667
 3727SOL    HW214674   2.281   5.084   0.613  0.1615  1.0360  0.6217
 3727SOL    HW314675   2.257   4.935   0.617 -0.5767  1.1154 -0.3218
 3727SOL    MW414676   2.269   5.011   0.658 -0.1289  0.7959  0.1623
 3728SOL     OW14677   1.805   0.416   1.155 -0.0225 -0.2400 -0.1580
 3728SOL    HW214678   1.833   0.327   1.131 -0.0031 -0.0517 -0.8455
 3728SOL    HW314679   1.716   0.404   1.188  1.2556 -1.0558  3.4107
 3728SOL    MW414680   1.797   0.403   1.156  0.1487 -0.3228  0.2221
 3729SOL     OW14681   4.336   3.411   0.717 -0.1484 -0.0426 -0.4405
 3729SOL    HW214682   4.386   3.492   0.712  0.1278 -0.0177  1.8276
 3729SOL    HW314683   4.391   3.347   0.671  0.8425  0.5124 -0.0683
 3729SOL    MW414684   4.350   3.413   0.710  0.0188  0.0339 -0.0921
 3730SOL     OW14685   5.877   0.120   5.887  0.1541 -0.1516 -0.2233
 3730SOL    HW214686   5.855   0.110   5.795  2.7041 -0.1276 -0.8907
 3730SOL    HW314687   5.834   0.046   5.930 -0.1855 -0.7808 -1.5934
 3730SOL    MW414688   5.868   0.109   5.881  0.4457 -0.2314 -0.4921
 3731SOL     OW14689   4.855   4.974   2.029  0.0297  0.2427 -0.4654
 3731SOL    HW214690   4.875   4.982   1.936 -0.5993  1.2083 -0.5295
 3731SOL    HW314691   4.930   5.013   2.073 -0.2852  1.0492 -0.6206
 3731SOL    MW414692   4.867   4.980   2.022 -0.0949  0.4765 -0.4943
 3732SOL     OW14693   1.071   4.914   6.170 -0.2029 -0.1373 -0.0761
 3732SOL    HW214694   1.152   4.895   6.217 -0.7509  0.2623  1.0743
 3732SOL    HW314695   1.098   4.966   6.095  0.5972  0.0145  0.3119
 3732SOL    MW414696   1.085   4.918   6.166 -0.1697 -0.0645  0.1269
 3733SOL     OW14697   2.293   1.276   5.075 -0.1265 -0.2789 -0.1244
 3733SOL    HW214698   2.340   1.284   4.992 -0.4542  2.9920 -0.1243
 3733SOL    HW314699   2.331   1.343   5.131 -1.4868 -0.8501  1.5677
 3733SOL    MW414700   2.304   1.286   5.071 -0.3492  0.0773  0.0989
 3734SOL     OW14701   2.841   1.958   1.280 -0.6838  0.5242  0.0021
 3734SOL    HW214702   2.757   1.976   1.323 -0.6200  1.2509 -0.1495
 3734SOL    HW314703   2.842   2.020   1.206  0.8482  1.9473  1.1457
 3734SOL    MW414704   2.830   1.969   1.276 -0.4732  0.8078  0.1330
 3735SOL     OW14705   6.009   1.055   6.287  0.2690 -0.0610 -0.0245
 3735SOL    HW214706   5.998   1.130   6.228  2.2964 -0.5233 -1.0945
 3735SOL    HW314707   6.097   1.023   6.268 -0.6199 -2.9038  0.1851
 3735SOL    MW414708   6.019   1.061   6.277  0.4192 -0.4970 -0.1380
 3736SOL     OW14709   5.854   5.225   4.063 -0.4418 -0.2044 -0.1339
 3736SOL    HW214710   5.810   5.284   4.000 -1.3582 -1.2003 -0.4520
 3736SOL    HW314711   5.841   5.267   4.148 -1.4788 -0.1589 -0.3036
 3736SOL    MW414712   5.847   5.239   4.066 -0.6996 -0.3298 -0.1983
 3737SOL     OW14713   1.933   5.543   6.041 -0.6863  0.3604  0.0651
 3737SOL    HW214714   2.006   5.578   6.092 -0.2817  0.7270 -0.7624
 3737SOL    HW314715   1.868   5.519   6.107 -0.5669  1.7236  0.7074
 3737SOL    MW414716   1.934   5.544   6.057 -0.6171  0.5886  0.0406
 3738SOL     OW14717   5.347   1.960   3.156  0.9747 -0.0649  0.0730
 3738SOL    HW214718   5.380   1.912   3.232 -2.2089 -0.7631  1.1946
 3738SOL    HW314719   5.351   2.052   3.181  1.8124 -0.1450  0.2441
 3738SOL    MW414720   5.352   1.965   3.169  0.6652 -0.1676  0.2436
 3739SOL     OW14721   5.488   4.502   5.017  0.0192  0.1571  0.2801
 3739SOL    HW214722   5.408   4.550   5.038  0.5737  0.8457  0.8670
 3739SOL    HW314723   5.524   4.475   5.101  0.0827 -0.6930 -0.0109
 3739SOL    MW414724   5.482   4.505   5.031  0.1008  0.1358  0.3191
 3740SOL     OW14725   1.387   1.919   5.817  0.2689  0.1914 -0.3744
 3740SOL    HW214726   1.452   1.907   5.748 -1.1566 -0.5108 -1.6636
 3740SOL    HW314727   1.302   1.910   5.772 -0.7132  0.0024  1.4140
 3740SOL    MW414728   1.384   1.916   5.802 -0.0487  0.0738 -0.3085
 3741SOL     OW14729   3.141   3.476   2.121 -0.0702  0.2570  0.4387
 3741SOL    HW214730   3.228   3.494   2.157  0.5355  0.2070 -0.9238
 3741SOL    HW314731   3.158   3.452   2.030 -1.5723  0.9424 -0.0541
 3741SOL    MW414732   3.155   3.475   2.114 -0.1885  0.3408  0.1939
 3742SOL     OW14733   2.571   4.468   0.406  0.1276 -0.7544 -0.3464
 3742SOL    HW214734   2.501   4.402   0.406  0.5328 -1.2028  0.4044
 3742SOL    HW314735   2.633   4.436   0.472  0.5154  0.1921 -0.2416
 3742SOL    MW414736   2.570   4.455   0.415  0.2323 -0.6887 -0.2335
 3743SOL     OW14737   4.495   4.154   3.827 -0.3398  0.2365 -0.3339
 3743SOL    HW214738   4.431   4.109   3.882 -0.9264  0.1815 -1.0443
 3743SOL    HW314739   4.466   4.137   3.737  2.2096 -2.1929 -0.8528
 3743SOL    MW414740   4.483   4.146   3.822 -0.0808 -0.0913 -0.4961
 3744SOL     OW14741   6.227   5.443   3.033  1.0852 -0.1551 -0.6685
 3744SOL    HW214742   6.234   5.472   2.942  1.9037 -0.3682 -0.6814
 3744SOL    HW314743   6.137   5.464   3.058  1.0378  0.4735 -1.3326
 3744SOL    MW414744   6.216   5.450   3.024  1.1870 -0.1003 -0.7578
 3745SOL     OW14745   0.258   5.901   0.869  0.3528  0.1237 -0.6293
 3745SOL    HW214746   0.344   5.862   0.884  0.6589 -0.2750 -2.9833
 3745SOL    HW314747   0.212   5.891   0.952  2.8809  1.2342  1.0256
 3745SOL    MW414748   0.263   5.894   0.882  0.7267  0.2176 -0.7215
 3746SOL     OW14749   0.252   4.933   3.389 -0.4284 -0.2461 -0.2490
 3746SOL    HW214750   0.255   4.860   3.451 -0.3893  1.0450  1.3516
 3746SOL    HW314751   0.335   4.978   3.401  0.3904 -0.9798 -2.6352
 3746SOL    MW414752   0.263   4.929   3.399 -0.3152 -0.1725 -0.3527
 3747SOL     OW14753   1.349   3.271   4.249 -0.1320  0.6893  0.4295
 3747SOL    HW214754   1.313   3.325   4.179  3.4166  1.7259 -0.8272
 3747SOL    HW314755   1.364   3.186   4.209  1.0358  1.0117  0.1300
 3747SOL    MW414756   1.347   3.267   4.235  0.4903  0.8686  0.2242
 3748SOL     OW14757   5.816   5.933   0.843 -0.6933 -0.0065  0.3511
 3748SOL    HW214758   5.873   5.873   0.794  1.9040  1.4683  1.3943
 3748SOL    HW314759   5.831   5.910   0.935 -0.0920  1.8368  0.7393
 3748SOL    MW414760   5.825   5.922   0.849 -0.2713  0.4313  0.5400
 3749SOL     OW14761   2.601   0.557   3.646  0.0053 -0.2958 -0.0836
 3749SOL    HW214762   2.682   0.580   3.692 -0.5312 -0.4153  0.9692
 3749SOL    HW314763   2.534   0.557   3.715 -0.9974  0.3611 -1.0274
 3749SOL    MW414764   2.603   0.560   3.661 -0.1978 -0.2249 -0.0692
 3750SOL     OW14765   4.150   5.800   0.876 -0.0427 -0.1626  0.3255
 3750SOL    HW214766   4.126   5.805   0.784  1.2653  0.7228  0.0005
 3750SOL    HW314767   4.180   5.888   0.898 -0.9750 -0.1743  1.8028
 3750SOL    MW414768   4.151   5.812   0.867  0.0069 -0.0474  0.4775
 3751SOL     OW14769   3.313   4.658   0.733 -0.1561 -0.0431  0.4268
 3751SOL    HW214770   3.362   4.622   0.807  0.4581 -0.3311 -0.1005
 3751SOL    HW314771   3.374   4.719   0.691 -0.2250 -0.4197 -0.2531
 3751SOL    MW414772   3.328   4.661   0.737 -0.0842 -0.1308  0.2675
 3752SOL     OW14773   0.124   3.521   3.108  0.1176 -0.3919  0.7302
 3752SOL    HW214774   0.102   3.428   3.115 -0.7293 -0.1878  0.8186
 3752SOL    HW314775   0.194   3.533   3.173  0.6226 -1.0743  0.3365
 3752SOL    MW414776   0.131   3.510   3.118  0.0725 -0.4550  0.6899
 3753SOL     OW14777   0.182   0.174   1.987 -0.0611  0.0423 -0.7534
 3753SOL    HW214778   0.255   0.236   1.995  0.7730 -0.7809 -1.8151
 3753SOL    HW314779   0.111   0.226   1.948  0.5912  0.3649 -1.5287
 3753SOL    MW414780   0.182   0.189   1.983  0.1350 -0.0237 -0.9958
 3754SOL     OW14781   3.765   4.027   2.249 -0.5864  0.0548 -0.3766
 3754SOL    HW214782   3.740   4.057   2.161  0.2082  3.6308  0.4587
 3754SOL    HW314783   3.732   4.094   2.308  0.1331 -1.5184  1.9709
 3754SOL    MW414784   3.758   4.040   2.245 -0.3866  0.3190  0.0433
 3755SOL     OW14785   4.415   0.207   0.243 -0.3387  0.6677 -0.1473
 3755SOL    HW214786   4.328   0.171   0.224  0.2217  0.1785 -2.0058
 3755SOL    HW314787   4.443   0.162   0.322 -1.7416  0.8115  0.4695
 3755SOL    MW414788   4.407   0.197   0.250 -0.4498  0.6222 -0.3111
 3756SOL     OW14789   2.880   5.732   4.757  0.3145  0.4648 -0.0674
 3756SOL    HW214790   2.822   5.789   4.808  0.2880 -0.3710  0.8784
 3756SOL    HW314791   2.825   5.699   4.686 -0.0756  0.4883  0.2201
 3756SOL    MW414792   2.865   5.735   4.754  0.2595  0.3576  0.0953
 3757SOL     OW14793   5.216   3.631   1.656  0.1375  0.0479 -0.1205
 3757SOL    HW214794   5.222   3.538   1.634 -1.9506 -0.0674 -0.4333
 3757SOL    HW314795   5.157   3.667   1.590  1.3815  1.7445 -0.3557
 3757SOL    MW414796   5.209   3.623   1.644  0.0261  0.2565 -0.1928
 3758SOL     OW14797   2.615   0.346   2.396  0.1954 -0.3410  0.2151
 3758SOL    HW214798   2.696   0.332   2.348  1.2319  4.3082  0.1328
 3758SOL    HW314799   2.549   0.360   2.328 -0.0937 -1.3988  0.2660
 3758SOL    MW414800   2.617   0.346   2.381  0.2940  0.1329  0.2110
 3759SOL     OW14801   5.403   0.888   0.224  0.3887 -0.4097 -0.2580
 3759SOL    HW214802   5.464   0.818   0.247  0.2766 -0.4816 -0.1809
 3759SOL    HW314803   5.420   0.904   0.131  0.2486 -0.7051 -0.3361
 3759SOL    MW414804   5.414   0.881   0.215  0.3554 -0.4582 -0.2582
 3760SOL     OW14805   5.366   2.255   5.666  0.0817 -0.5951  0.1885
 3760SOL    HW214806   5.442   2.305   5.698 -0.2637  0.6378 -0.8613
 3760SOL    HW314807   5.378   2.251   5.572 -1.8170  0.7730 -0.1513
 3760SOL    MW414808   5.378   2.261   5.658 -0.2144 -0.2519  0.0051
 3761SOL     OW14809   0.486   5.085   1.574 -0.9012  0.1156 -0.0441
 3761SOL    HW214810   0.494   5.073   1.480  1.9351  1.2577 -0.0393
 3761SOL    HW314811   0.523   5.004   1.612 -0.9385  0.1574  0.0831
 3761SOL    MW414812   0.492   5.072   1.567 -0.5319  0.2718 -0.0267
 3762SOL     OW14813   0.068   2.355   2.471 -0.2597 -0.5473  0.6299
 3762SOL    HW214814   0.081   2.290   2.401 -1.7262 -1.2944  0.9909
 3762SOL    HW314815  -0.015   2.328   2.512 -0.7432  1.3809  0.9990
 3762SOL    MW414816   0.059   2.343   2.467 -0.5170 -0.3915  0.7262
 3763SOL     OW14817   3.743   3.787   0.494 -0.4570 -0.7140 -0.4804
 3763SOL    HW214818   3.770   3.707   0.539  0.2101 -0.4853 -0.4564
 3763SOL    HW314819   3.648   3.790   0.504 -0.2744 -0.3058  1.5179
 3763SOL    MW414820   3.734   3.776   0.501 -0.3449 -0.6299 -0.2136
 3764SOL     OW14821   2.668   2.149   5.468 -0.3331 -0.1896  0.1492
 3764SOL    HW214822   2.718   2.228   5.486  0.3548 -0.7974  1.0053
 3764SOL    HW314823   2.576   2.177   5.470 -0.0858  0.6447  0.0499
 3764SOL    MW414824   2.662   2.163   5.470 -0.2097 -0.1597  0.2490
 3765SOL     OW14825   4.943   2.133   0.827 -0.4034  0.4852  0.1873
 3765SOL    HW214826   4.934   2.100   0.737  0.9129 -1.3202  0.6676
 3765SOL    HW314827   4.861   2.106   0.870 -1.0919  1.4594 -0.4608
 3765SOL    MW414828   4.931   2.125   0.820 -0.3206  0.3756  0.1651
 3766SOL     OW14829   4.691   0.765   4.332 -0.3960  0.1682  0.2586
 3766SOL    HW214830   4.616   0.714   4.363 -0.4842  0.0984 -0.0647
 3766SOL    HW314831   4.652   0.836   4.281 -0.2056 -1.9227 -3.1107
 3766SOL    MW414832   4.676   0.768   4.330 -0.3825 -0.1169 -0.2286
 3767SOL     OW14833   0.920   0.937   5.390  0.4510 -0.2007 -0.6127
 3767SOL    HW214834   0.913   0.845   5.365 -0.3974  0.0695 -1.4200
 3767SOL    HW314835   0.830   0.965   5.404  0.8306 -0.1332  2.1155
 3767SOL    MW414836   0.908   0.928   5.388  0.3891 -0.1562 -0.3593
 3768SOL     OW14837   0.443   4.020   4.112 -0.1062 -0.0136 -0.0685
 3768SOL    HW214838   0.523   4.066   4.135 -0.6580  0.8437  0.1913
 3768SOL    HW314839   0.377   4.056   4.172 -0.9312  0.1396 -1.0417
 3768SOL    MW414840   0.445   4.031   4.123 -0.2878  0.1198 -0.1626
 3769SOL     OW14841   3.712   4.615   1.969 -0.3684 -0.5476  0.1954
 3769SOL    HW214842   3.745   4.542   1.916  0.2582 -0.2148  0.1205
 3769SOL    HW314843   3.787   4.672   1.981 -0.1730 -1.2095  2.4787
 3769SOL    MW414844   3.726   4.613   1.964 -0.2599 -0.5911  0.4868
 3770SOL     OW14845   4.243   3.118   2.571  0.1698 -0.5721 -0.2317
 3770SOL    HW214846   4.332   3.107   2.538  0.8121  2.2716  0.2839
 3770SOL    HW314847   4.251   3.184   2.640 -2.4914  0.6513 -0.9777
 3770SOL    MW414848   4.255   3.125   2.576 -0.0966 -0.0355 -0.2621
 3771SOL     OW14849   1.309   0.561   4.026  0.2482 -0.1906  0.4363
 3771SOL    HW214850   1.279   0.508   4.099  0.2039  0.3962  0.8509
 3771SOL    HW314851   1.312   0.501   3.952 -0.2090 -0.6688  0.8014
 3771SOL    MW414852   1.306   0.546   4.026  0.1820 -0.1763  0.5392
 3772SOL     OW14853   6.098   5.862   4.652  0.4082  0.1434  0.1052
 3772SOL    HW214854   6.054   5.790   4.697 -1.0166  1.4456  0.8964
 3772SOL    HW314855   6.038   5.937   4.661  1.3963  1.2048 -1.4882
 3772SOL    MW414856   6.084   5.863   4.659  0.3506  0.4553 -0.0007
 3773SOL     OW14857   4.024   1.809   5.521  0.3855  0.3074  0.4877
 3773SOL    HW214858   4.118   1.796   5.534 -0.0747 -1.1726  3.4306
 3773SOL    HW314859   3.985   1.725   5.546 -1.7484  0.8275 -0.7870
 3773SOL    MW414860   4.031   1.796   5.526  0.0432  0.1808  0.7078
 3774SOL     OW14861   3.395   5.915   5.000 -0.4304 -0.6604  0.0622
 3774SOL    HW214862   3.326   5.980   4.993 -1.2934 -1.4126  1.2931
 3774SOL    HW314863   3.471   5.964   5.033 -0.6080 -0.0082 -0.4703
 3774SOL    MW414864   3.396   5.930   5.003 -0.5677 -0.6736  0.1543
 3775SOL     OW14865   5.203   0.829   1.538 -0.3628  0.7848 -0.5771
 3775SOL    HW214866   5.231   0.753   1.589 -0.0561 -0.7037 -2.8377
 3775SOL    HW314867   5.115   0.849   1.571  0.4711  1.0017  1.6770
 3775SOL    MW414868   5.195   0.822   1.549 -0.2123  0.6171 -0.5779
 3776SOL     OW14869   3.436   6.371   3.435 -0.3093  0.1679  0.5329
 3776SOL    HW214870   3.418   6.410   3.520 -0.6573 -1.1505  1.0933
 3776SOL    HW314871   3.366   6.307   3.423  0.2432 -0.2944 -0.3350
 3776SOL    MW414872   3.424   6.368   3.445 -0.2823 -0.0671  0.4923
 3777SOL     OW14873   4.853   0.214   3.397 -0.5112 -0.0799  0.2904
 3777SOL    HW214874   4.903   0.289   3.430  0.6286 -1.4687  1.9209
 3777SOL    HW314875   4.831   0.164   3.475 -1.1358 -1.5146 -0.7583
 3777SOL    MW414876   4.856   0.217   3.411 -0.4432 -0.4524  0.3671
 3778SOL     OW14877   5.661   1.080   6.011 -0.4433  0.3095 -0.4270
 3778SOL    HW214878   5.677   1.078   6.105 -2.6100  0.8056 -0.0031
 3778SOL    HW314879   5.696   0.997   5.979  2.1908  0.9994  0.4328
 3778SOL    MW414880   5.668   1.069   6.019 -0.3816  0.4660 -0.2576
 3779SOL     OW14881   2.399   0.726   2.588 -0.2406 -0.6862  0.2701
 3779SOL    HW214882   2.367   0.788   2.522  1.2155  0.3382  0.4711
 3779SOL    HW314883   2.398   0.641   2.544 -1.2198 -0.3501 -0.3839
 3779SOL    MW414884   2.395   0.723   2.573 -0.1777 -0.5067  0.2103
 3780SOL     OW14885   4.720   3.248   6.384  0.0150  0.2756  0.0266
 3780SOL    HW214886   4.798   3.233   6.437 -0.5518  1.2361  1.1896
 3780SOL    HW314887   4.733   3.194   6.306  0.9014 -1.1805  1.1107
 3780SOL    MW414888   4.732   3.239   6.381  0.0572  0.2102  0.3231
 3781SOL     OW14889   5.696   3.128   1.797 -0.1454  0.3147  0.3083
 3781SOL    HW214890   5.777   3.110   1.845 -0.0562  2.3842  1.0263
 3781SOL    HW314891   5.662   3.041   1.775  1.5901 -0.6305  1.1133
 3781SOL    MW414892   5.702   3.114   1.800  0.0953  0.4630  0.5092
 3782SOL     OW14893   4.682   2.914   5.984  0.0590  0.0147 -0.5804
 3782SOL    HW214894   4.756   2.854   5.974  1.2350  0.9733  1.6552
 3782SOL    HW314895   4.622   2.869   6.043  0.0633  0.2711 -0.3784
 3782SOL    MW414896   4.684   2.900   5.991  0.2147  0.1750 -0.2588
 3783SOL     OW14897   5.382   2.166   4.987 -0.1717  0.3681  0.3723
 3783SOL    HW214898   5.320   2.143   4.917 -1.1217  1.9471  0.6562
 3783SOL    HW314899   5.338   2.140   5.068  0.5498 -0.6286  0.4686
 3783SOL    MW414900   5.368   2.160   4.988 -0.2019  0.4449  0.4225
 3784SOL     OW14901   1.657   3.152   5.232 -0.3626  0.1197 -0.1289
 3784SOL    HW214902   1.625   3.117   5.149  0.4127 -0.2692 -0.2706
 3784SOL    HW314903   1.742   3.190   5.211 -0.3263  0.3487  0.4163
 3784SOL    MW414904   1.664   3.153   5.218 -0.2556  0.0986 -0.0756
 3785SOL     OW14905   4.182   6.180   2.409 -0.5600 -0.4855  0.5658
 3785SOL    HW214906   4.247   6.195   2.341  0.0292  0.9466  1.3877
 3785SOL    HW314907   4.198   6.249   2.473 -1.2391 -1.6490  2.0582
 3785SOL    MW414908   4.192   6.191   2.409 -0.5719 -0.4500  0.8711
 3786SOL     OW14909   4.226   0.854   1.198  0.3006 -0.2413 -0.3213
 3786SOL    HW214910   4.255   0.825   1.284  3.5853  1.2232 -0.7675
 3786SOL    HW314911   4.186   0.940   1.213 -1.0391 -0.8915 -0.0623
 3786SOL    MW414912   4.224   0.862   1.211  0.5572 -0.1339 -0.3460
 3787SOL     OW14913   4.222   0.195   1.771 -0.0873  0.3032 -0.2804
 3787SOL    HW214914   4.229   0.100   1.785 -0.5742  0.3511  0.3696
 3787SOL    HW314915   4.268   0.211   1.689  1.3725 -0.2774  0.3890
 3787SOL    MW414916   4.229   0.184   1.762  0.0411  0.2329 -0.1063
 3788SOL     OW14917   3.048   5.509   4.450 -0.0505 -0.2545  0.0933
 3788SOL    HW214918   2.981   5.471   4.506  0.8045 -1.4346  0.3408
 3788SOL    HW314919   3.127   5.460   4.470  1.2535  1.9785  0.7916
 3788SOL    MW414920   3.049   5.498   4.460  0.2344 -0.1156  0.2181
 3789SOL     OW14921   5.016   4.750   1.813  0.0445  0.6343 -0.2584
 3789SOL    HW214922   4.992   4.752   1.721 -0.9649  1.8625  0.0047
 3789SOL    HW314923   5.091   4.810   1.819 -1.7868  3.0170  0.1683
 3789SOL    MW414924   5.023   4.758   1.802 -0.3303  1.1107 -0.1674
 3790SOL     OW14925   5.054   1.052   4.411 -0.0553 -0.5916 -0.4770
 3790SOL    HW214926   5.086   1.001   4.485 -1.8924  0.0470  0.8289
 3790SOL    HW314927   5.011   0.988   4.355 -1.2103 -0.7113  0.5047
 3790SOL    MW414928   5.052   1.037   4.413 -0.4501 -0.5231 -0.1752
 3791SOL     OW14929   3.362   2.925   3.343 -0.1444  0.4652  0.4058
 3791SOL    HW214930   3.419   2.860   3.301 -0.5310 -0.5988  1.4595
 3791SOL    HW314931   3.333   2.882   3.424 -0.8521  1.7569  0.8587
 3791SOL    MW414932   3.366   2.910   3.348 -0.2888  0.4953  0.6046
 3792SOL     OW14933   1.580   4.240   5.440  0.2287 -0.3272 -0.2306
 3792SOL    HW214934   1.661   4.191   5.424 -0.3203 -1.3015 -0.0893
 3792SOL    HW314935   1.598   4.328   5.406  1.7956 -0.1519  0.9809
 3792SOL    MW414936   1.593   4.245   5.433  0.3630 -0.4326 -0.0521
 3793SOL     OW14937   1.923   2.605   3.722  0.2431  0.0220 -0.7223
 3793SOL    HW214938   1.904   2.687   3.767  0.3464 -0.0363 -0.5715
 3793SOL    HW314939   1.837   2.568   3.702  0.1881  0.5633 -1.5267
 3793SOL    MW414940   1.909   2.611   3.725  0.2495  0.0857 -0.8085
 3794SOL     OW14941   4.618   5.265   4.704 -0.0130 -0.4983 -0.4248
 3794SOL    HW214942   4.685   5.248   4.771  0.4683 -1.4682 -1.1321
 3794SOL    HW314943   4.597   5.179   4.669 -2.1072 -0.2799  0.1944
 3794SOL    MW414944   4.624   5.252   4.708 -0.2258 -0.5974 -0.4364
 3795SOL     OW14945   5.061   3.301   5.497  0.3931 -0.3347  0.2351
 3795SOL    HW214946   5.126   3.292   5.567  0.7228 -1.1647 -0.1654
 3795SOL    HW314947   5.088   3.379   5.449  0.0954  0.3138  1.0927
 3795SOL    MW414948   5.073   3.310   5.500  0.3973 -0.3587  0.2954
 3796SOL     OW14949   1.218   3.180   0.611 -0.5995  0.3855  0.1356
 3796SOL    HW214950   1.127   3.205   0.599 -0.3241  1.0115 -0.7983
 3796SOL    HW314951   1.259   3.259   0.646 -0.4658  0.0228  0.8061
 3796SOL    MW414952   1.212   3.194   0.614 -0.5456  0.4202  0.1009
 3797SOL     OW14953   2.210   4.500   1.027  0.2994  0.1296  0.2981
 3797SOL    HW214954   2.227   4.449   1.106  1.5823  0.1744  0.0769
 3797SOL    HW314955   2.197   4.590   1.058 -0.5120 -0.0709  0.5591
 3797SOL    MW414956   2.210   4.505   1.041  0.3616  0.1091  0.3034
 3798SOL     OW14957   0.411   1.761   1.651 -0.0959  0.3178 -0.0339
 3798SOL    HW214958   0.424   1.715   1.734 -0.0253  1.5325  0.6608
 3798SOL    HW314959   0.486   1.821   1.645 -0.8671  1.2866 -0.2420
 3798SOL    MW414960   0.423   1.763   1.661 -0.1883  0.6059  0.0303
 3799SOL     OW14961   4.756   3.413   4.804  0.5884  0.4761 -0.4981
 3799SOL    HW214962   4.845   3.441   4.782  0.7433  2.5290  2.2368
 3799SOL    HW314963   4.699   3.481   4.767  0.1484 -0.5496 -1.7755
 3799SOL    MW414964   4.760   3.426   4.796  0.5508  0.6116 -0.3058
 3800SOL     OW14965   4.294   3.549   4.362 -0.4595  0.1580  0.1153
 3800SOL    HW214966   4.346   3.628   4.373 -1.1103  0.7705 -0.9330
 3800SOL    HW314967   4.347   3.493   4.306  0.6208 -0.7832  2.0060
 3800SOL    MW414968   4.308   3.552   4.356 -0.4028  0.1146  0.2265
 3801SOL     OW14969   1.654   2.640   0.231  0.4738  0.2061  0.3604
 3801SOL    HW214970   1.602   2.718   0.211  0.3291 -0.3463 -1.7155
 3801SOL    HW314971   1.592   2.579   0.271  0.0451  0.3777 -0.0303
 3801SOL    MW414972   1.639   2.642   0.233  0.3981  0.1558  0.0349
 3802SOL     OW14973   0.607   2.628   5.520 -0.4974 -0.0892  0.2844
 3802SOL    HW214974   0.534   2.627   5.458 -1.1377  0.8514  0.9988
 3802SOL    HW314975   0.573   2.582   5.597  0.8849 -2.8828 -0.6512
 3802SOL    MW414976   0.593   2.622   5.522 -0.3995 -0.3337  0.2552
 3803SOL     OW14977   0.189   3.674   5.081  0.5652  0.3284  0.0010
 3803SOL    HW214978   0.254   3.731   5.122  0.2732  0.1350  0.7556
 3803SOL    HW314979   0.113   3.679   5.140  1.0310 -1.9946  0.9008
 3803SOL    MW414980   0.187   3.683   5.094  0.5882 -0.0036  0.2193
 3804SOL     OW14981   0.267   4.573   0.404 -0.0408 -0.5495  0.3623
 3804SOL    HW214982   0.336   4.533   0.456  0.2582 -0.8998 -0.2968
 3804SOL    HW314983   0.305   4.584   0.317 -1.2129 -1.9172 -0.3668
 3804SOL    MW414984   0.281   4.569   0.399 -0.1560 -0.7762  0.1791
 3805SOL     OW14985   4.891   0.454   0.093  0.1502  0.0988  0.4228
 3805SOL    HW214986   4.975   0.495   0.115  0.5878 -1.2582  1.4493
 3805SOL    HW314987   4.897   0.437  -0.001  2.1908 -2.3090  0.8640
 3805SOL    MW414988   4.903   0.457   0.083  0.4771 -0.3979  0.6164
 3806SOL     OW14989   2.152   5.520   2.432 -0.2151  0.4667 -0.1040
 3806SOL    HW214990   2.098   5.528   2.353  0.4914  0.5974 -0.5773
 3806SOL    HW314991   2.241   5.512   2.400  0.0646  0.3597  0.6815
 3806SOL    MW414992   2.156   5.520   2.417 -0.0849  0.4698 -0.0628
 3807SOL     OW14993   4.850   0.887   2.125  0.3889  0.2832 -0.4168
 3807SOL    HW214994   4.825   0.800   2.154  0.3725  0.5253  0.3368
 3807SOL    HW314995   4.767   0.933   2.111  0.3817  0.5647  0.4459
 3807SOL    MW414996   4.836   0.882   2.127  0.3858  0.3523 -0.2035
 3808SOL     OW14997   2.609   0.373   4.453 -0.0163 -0.3033 -0.0505
 3808SOL    HW214998   2.701   0.390   4.475  0.6294  0.2834 -2.7788
 3808SOL    HW314999   2.573   0.460   4.433 -0.7480 -0.6825 -0.4224
 3808SOL    MW415000   2.617   0.387   4.453 -0.0277 -0.2759 -0.4595
 3809SOL     OW15001   4.267   5.996   0.212 -0.1512  0.4406  0.2540
 3809SOL    HW215002   4.309   5.932   0.155 -1.2894 -0.7407  0.6821
 3809SOL    HW315003   4.307   5.982   0.298 -0.7491 -0.0942  0.4639
 3809SOL    MW415004   4.278   5.985   0.216 -0.3803  0.2142  0.3382
 3810SOL     OW15005   2.523   2.854   5.709 -0.1706  0.2064 -0.3129
 3810SOL    HW215006   2.541   2.839   5.802  0.8548 -0.4596 -0.6042
 3810SOL    HW315007   2.543   2.770   5.667 -0.2293  0.6239 -1.1960
 3810SOL    MW415008   2.528   2.841   5.715 -0.0430  0.1736 -0.4678
 3811SOL     OW15009   3.522   2.983   6.347  0.7761  0.0947  0.5098
 3811SOL    HW215010   3.500   2.891   6.331 -1.0636  0.4964  0.5307
 3811SOL    HW315011   3.475   3.031   6.280  1.7135  1.0468  0.5096
 3811SOL    MW415012   3.513   2.977   6.336  0.6570  0.2733  0.5125
 3812SOL     OW15013   5.313   5.216   4.850  0.3290  0.1147  0.6513
 3812SOL    HW215014   5.266   5.137   4.825 -0.4094  0.7196  0.0641
 3812SOL    HW315015   5.347   5.198   4.938  1.5507 -1.4461 -0.0956
 3812SOL    MW415016   5.311   5.203   4.858  0.3927 -0.0114  0.4753
 3813SOL     OW15017   6.279   2.878   2.896 -0.3586 -0.0741  0.4168
 3813SOL    HW215018   6.257   2.930   2.819  0.1112 -0.3163  0.1184
 3813SOL    HW315019   6.363   2.913   2.926 -1.1483  0.9073  1.6056
 3813SOL    MW415020   6.287   2.890   2.890 -0.4008  0.0234  0.5343
 3814SOL     OW15021   3.464   1.948   2.308 -0.7620 -0.6971  0.2206
 3814SOL    HW215022   3.555   1.952   2.336 -0.1390 -3.0051 -1.2231
 3814SOL    HW315023   3.458   2.013   2.239 -0.5419  0.2615  1.0764
 3814SOL    MW415024   3.475   1.957   2.303 -0.6507 -0.8752  0.1430
 3815SOL     OW15025   3.392   6.141   6.261  0.0839 -0.7689 -0.0538
 3815SOL    HW215026   3.334   6.141   6.185  0.1772 -0.1059 -0.1323
 3815SOL    HW315027   3.340   6.181   6.331 -0.0862 -1.5912  0.3073
 3815SOL    MW415028   3.378   6.146   6.260  0.0738 -0.7899 -0.0165
 3816SOL     OW15029   6.011   4.721   1.586 -0.1251 -0.5317  0.8228
 3816SOL    HW215030   6.018   4.779   1.662 -0.6909  0.3949  0.1952
 3816SOL    HW315031   5.926   4.678   1.596 -0.9138  0.7319 -0.0161
 3816SOL    MW415032   6.000   4.723   1.597 -0.3038 -0.2427  0.6293
 3817SOL     OW15033   2.597   0.521   6.130 -0.4393 -0.5254 -0.0670
 3817SOL    HW215034   2.601   0.609   6.091 -0.9700 -0.2393  0.4978
 3817SOL    HW315035   2.639   0.531   6.215 -0.5077 -0.8169  0.0014
 3817SOL    MW415036   2.603   0.534   6.136 -0.5183 -0.5261  0.0165
 3818SOL     OW15037   4.350   5.657   3.830  0.3711  0.0050  0.0927
 3818SOL    HW215038   4.407   5.583   3.810  2.4126  1.0982  1.5131
 3818SOL    HW315039   4.306   5.632   3.912  1.1602  0.3924  0.6435
 3818SOL    MW415040   4.352   5.644   3.838  0.7445  0.2004  0.3528
 3819SOL     OW15041   3.864   6.347   1.752  0.1408  0.3198 -0.2797
 3819SOL    HW215042   3.947   6.307   1.726  0.8307 -0.0442  2.2777
 3819SOL    HW315043   3.810   6.274   1.781 -0.3499  0.7741 -0.0316
 3819SOL    MW415044   3.868   6.332   1.752  0.1671  0.3317  0.0904
 3820SOL     OW15045   3.820   4.712   0.446 -0.3453  0.4879  0.1315
 3820SOL    HW215046   3.812   4.786   0.386  1.0106  1.0153  0.5746
 3820SOL    HW315047   3.888   4.657   0.408 -0.0226  0.4335  0.7721
 3820SOL    MW415048   3.828   4.714   0.433 -0.1239  0.5503  0.2745
 3821SOL     OW15049   0.237   0.294   4.964 -0.2716 -0.9161 -0.0618
 3821SOL    HW215050   0.225   0.283   5.059  2.0824  1.3329  0.6341
 3821SOL    HW315051   0.289   0.218   4.938  2.0864  0.1070  1.2791
 3821SOL    MW415052   0.242   0.282   4.973  0.3501 -0.4844  0.2069
 3822SOL     OW15053   1.698   1.328   5.697 -0.4014  0.7071  0.5823
 3822SOL    HW215054   1.756   1.296   5.766  0.1673  0.9715  0.2272
 3822SOL    HW315055   1.756   1.364   5.630 -0.9176  0.0963 -0.2278
 3822SOL    MW415056   1.713   1.328   5.697 -0.3945  0.6614  0.4286
 3823SOL     OW15057   5.781   5.642   2.952 -0.2187 -0.1469  0.1065
 3823SOL    HW215058   5.749   5.716   3.003  0.1490 -0.6959  1.1911
 3823SOL    HW315059   5.853   5.677   2.900 -0.0480  0.2720  0.6110
 3823SOL    MW415060   5.786   5.656   2.952 -0.1476 -0.1641  0.3162
 3824SOL     OW15061   5.103   3.892   4.595  0.3845 -0.7661 -0.2518
 3824SOL    HW215062   5.163   3.835   4.644  0.4538 -0.4871 -0.0102
 3824SOL    HW315063   5.053   3.937   4.663 -0.7785 -1.7013 -0.4450
 3824SOL    MW415064   5.104   3.890   4.611  0.2402 -0.8527 -0.2454
 3825SOL     OW15065   0.380   0.765   3.181  0.2565 -0.0861 -0.0312
 3825SOL    HW215066   0.339   0.804   3.258 -0.8502 -0.5183 -0.3852
 3825SOL    HW315067   0.365   0.829   3.111  2.7410  1.1249  0.4141
 3825SOL    MW415068   0.373   0.779   3.182  0.4383  0.0166 -0.0191
 3826SOL     OW15069   4.710   4.764   6.191  0.4471  0.5494  0.2120
 3826SOL    HW215070   4.794   4.793   6.226  0.7447  0.7482 -0.6473
 3826SOL    HW315071   4.732   4.716   6.111 -0.1569 -0.6291  0.7224
 3826SOL    MW415072   4.724   4.761   6.185  0.4067  0.4201  0.1660
 3827SOL     OW15073   4.073   2.363   6.273  0.0660  0.5220 -0.8858
 3827SOL    HW215074   4.102   2.307   6.200 -0.9792 -0.4382 -0.5991
 3827SOL    HW315075   4.125   2.332   6.348  1.0008  1.3784 -1.1642
 3827SOL    MW415076   4.084   2.351   6.273  0.0515  0.5083 -0.8847
 3828SOL     OW15077   3.788   6.147   5.325 -0.7898  0.2190  0.0272
 3828SOL    HW215078   3.765   6.240   5.318 -0.0992  0.3485 -0.6745
 3828SOL    HW315079   3.846   6.131   5.250 -0.0262 -0.5125  0.7524
 3828SOL    MW415080   3.793   6.157   5.314 -0.5980  0.1396  0.0303
 3829SOL     OW15081   0.612   3.831   0.764 -0.0877  0.2582  0.3313
 3829SOL    HW215082   0.639   3.745   0.796 -1.7194 -0.0650  0.9397
 3829SOL    HW315083   0.676   3.892   0.801  0.5268 -0.5912  0.6778
 3829SOL    MW415084   0.624   3.828   0.773 -0.2219  0.1035  0.4573
 3830SOL     OW15085   5.160   6.177   6.362  0.6366  0.0988  0.8742
 3830SOL    HW215086   5.095   6.205   6.427  1.5936 -0.9589  2.3573
 3830SOL    HW315087   5.110   6.125   6.299 -0.0357 -0.4280  1.8097
 3830SOL    MW415088   5.145   6.174   6.362  0.6741 -0.1103  1.1933
 3831SOL     OW15089   4.766   4.098   1.047  0.1165 -0.4305  0.2688
 3831SOL    HW215090   4.781   4.044   1.124 -2.3607 -1.2288  0.2605
 3831SOL    HW315091   4.734   4.037   0.981 -0.4631  0.6684 -0.4900
 3831SOL    MW415092   4.764   4.083   1.049 -0.2868 -0.3909  0.1676
 3832SOL     OW15093   2.248   4.553   4.153 -0.1794  0.3637 -0.0348
 3832SOL    HW215094   2.272   4.502   4.231  2.0932 -1.3341 -1.7028
 3832SOL    HW315095   2.300   4.633   4.160  0.2434  0.0831  0.0675
 3832SOL    MW415096   2.258   4.557   4.164  0.1762  0.1027 -0.2414
 3833SOL     OW15097   0.176   6.200   5.851  0.2252 -0.0718 -0.4850
 3833SOL    HW215098   0.256   6.222   5.804  0.4143  0.5463  0.1141
 3833SOL    HW315099   0.205   6.149   5.927  0.0176 -0.1182 -0.4359
 3833SOL    MW415100   0.190   6.196   5.855  0.2228  0.0036 -0.3994
 3834SOL     OW15101   2.951   1.563   6.377 -0.0858  0.1415  0.1890
 3834SOL    HW215102   2.954   1.468   6.386  0.2047  0.2454  1.2978
 3834SOL    HW315103   3.035   1.586   6.337 -0.6968 -0.1724 -1.3455
 3834SOL    MW415104   2.962   1.553   6.373 -0.1281  0.1138  0.1328
 3835SOL     OW15105   2.559   2.531   1.378 -0.0976  0.5388 -0.5186
 3835SOL    HW215106   2.623   2.478   1.330 -0.4872  0.1487 -0.6114
 3835SOL    HW315107   2.503   2.569   1.309 -1.7956 -1.4611 -0.3345
 3835SOL    MW415108   2.560   2.529   1.363 -0.3730  0.2235 -0.5066
 3836SOL     OW15109   3.004   1.355   5.943  0.1487 -0.1150  0.3208
 3836SOL    HW215110   2.953   1.275   5.952 -0.3739  0.1443 -0.2724
 3836SOL    HW315111   2.939   1.424   5.928  0.6972 -0.0079 -2.0125
 3836SOL    MW415112   2.989   1.353   5.942  0.1521 -0.0667 -0.0653
 3837SOL     OW15113   4.817   0.644   1.499  0.0781  0.4867 -0.1461
 3837SOL    HW215114   4.728   0.618   1.475 -0.5276  2.5855 -0.3695
 3837SOL    HW315115   4.821   0.738   1.480  1.8507  0.7718  1.3266
 3837SOL    MW415116   4.806   0.653   1.493  0.2321  0.8012  0.0187
 3838SOL     OW15117   2.454   5.763   4.634  0.3423 -0.1079  0.0602
 3838SOL    HW215118   2.481   5.853   4.648 -1.4894  0.5698 -0.4983
 3838SOL    HW315119   2.448   5.753   4.539 -1.1294 -0.2504  0.1400
 3838SOL    MW415120   2.457   5.773   4.624 -0.0936 -0.0373 -0.0030
 3839SOL     OW15121   4.720   0.607   3.700  0.5042  0.7516  0.1314
 3839SOL    HW215122   4.640   0.554   3.693  0.2221  1.3623 -1.9732
 3839SOL    HW315123   4.786   0.546   3.733 -0.2338 -0.4673 -0.5605
 3839SOL    MW415124   4.718   0.592   3.703  0.3696  0.6714 -0.2376
 3840SOL     OW15125   1.921   0.874   4.056 -0.0445 -0.2536  0.0062
 3840SOL    HW215126   1.978   0.887   4.132  1.4572 -0.9954 -0.9255
 3840SOL    HW315127   1.975   0.900   3.981 -0.9844 -0.8621 -0.9154
 3840SOL    MW415128   1.936   0.879   4.056  0.0296 -0.4317 -0.2383
 3841SOL     OW15129   0.013   5.788   4.801  0.1058  0.2469  0.7058
 3841SOL    HW215130   0.103   5.759   4.787 -0.5034 -1.5513  0.2928
 3841SOL    HW315131  -0.008   5.839   4.723  0.4940 -0.0373  0.4109
 3841SOL    MW415132   0.022   5.791   4.789  0.0767 -0.0279  0.6124
 3842SOL     OW15133   4.627   4.819   5.187 -0.4782  0.0346  0.0251
 3842SOL    HW215134   4.569   4.878   5.139 -2.1497 -1.1048  0.5319
 3842SOL    HW315135   4.680   4.877   5.242  0.4864  1.2644 -2.0915
 3842SOL    MW415136   4.626   4.834   5.188 -0.5714  0.0465 -0.1873
 3843SOL     OW15137   5.688   1.318   3.470 -0.2417 -0.0018  0.0089
 3843SOL    HW215138   5.699   1.370   3.390 -0.2045  0.0553  0.0508
 3843SOL    HW315139   5.595   1.293   3.470 -0.2156 -0.1030 -0.1132
 3843SOL    MW415140   5.677   1.322   3.459 -0.2334 -0.0076 -0.0017
 3844SOL     OW15141   0.266   5.832   0.223 -0.0039  0.1870  0.1856
 3844SOL    HW215142   0.358   5.806   0.224  0.0430  0.3481  0.8614
 3844SOL    HW315143   0.233   5.801   0.139  0.5817 -0.1705  0.0811
 3844SOL    MW415144   0.274   5.825   0.212  0.0796  0.1611  0.2610
 3845SOL     OW15145   5.104   1.630   4.137 -0.0205 -0.4550  0.0947
 3845SOL    HW215146   5.065   1.568   4.076 -0.3299  0.9446 -1.2022
 3845SOL    HW315147   5.176   1.671   4.087  0.3356  0.0428  0.9884
 3845SOL    MW415148   5.108   1.627   4.122 -0.0143 -0.2047  0.0415
 3846SOL     OW15149   4.394   5.911   3.919 -0.1971 -0.3779 -0.1336
 3846SOL    HW215150   4.444   5.893   3.999 -1.2714 -0.0842  0.6274
 3846SOL    HW315151   4.369   5.825   3.886 -0.9829 -0.4685  0.6650
 3846SOL    MW415152   4.398   5.898   3.925 -0.4425 -0.3511  0.0722
 3847SOL     OW15153   2.993   5.127   1.170  0.1814 -0.0677  0.2822
 3847SOL    HW215154   2.930   5.197   1.184  0.1980 -0.3530  2.0228
 3847SOL    HW315155   3.070   5.171   1.134  0.7712  1.1348  2.7903
 3847SOL    MW415156   2.995   5.142   1.167  0.2614  0.0533  0.8427
 3848SOL     OW15157   3.152   0.826   5.623  0.4846 -0.2765 -0.1316
 3848SOL    HW215158   3.079   0.869   5.668  0.8152 -0.4205  0.5550
 3848SOL    HW315159   3.149   0.735   5.654  0.1818 -0.6084 -1.0835
 3848SOL    MW415160   3.142   0.819   5.633  0.4882 -0.3393 -0.1666
 3849SOL     OW15161   1.729   0.504   3.474 -0.9008  0.3156  0.2127
 3849SOL    HW215162   1.677   0.456   3.539 -0.3430 -0.8856 -0.1929
 3849SOL    HW315163   1.814   0.459   3.474 -0.8194  0.4476 -1.1663
 3849SOL    MW415164   1.733   0.491   3.483 -0.8165  0.1745 -0.0227
 3850SOL     OW15165   0.667   5.786   0.751 -0.8001  0.1037 -0.5601
 3850SOL    HW215166   0.612   5.850   0.706 -0.3034  1.1882  0.3132
 3850SOL    HW315167   0.629   5.779   0.838 -0.8480 -0.8138 -0.6455
 3850SOL    MW415168   0.655   5.794   0.756 -0.7409  0.1257 -0.4561
 3851SOL     OW15169   4.285   2.216   2.559  0.5456  0.2188  0.2411
 3851SOL    HW215170   4.317   2.255   2.641  0.5042 -1.6021  1.1647
 3851SOL    HW315171   4.351   2.150   2.537  0.7656  0.9517 -1.4487
 3851SOL    MW415172   4.298   2.213   2.567  0.5692  0.0753  0.1400
 3852SOL     OW15173   0.977   3.295   1.622  0.0897 -0.2588  0.2988
 3852SOL    HW215174   0.900   3.238   1.612 -0.1743  0.3980 -2.3262
 3852SOL    HW315175   1.050   3.235   1.634 -0.5709 -0.9799  0.8547
 3852SOL    MW415176   0.976   3.280   1.622 -0.0323 -0.2672  0.0258
 3853SOL     OW15177   5.493   3.787   1.170  0.1111 -0.5925 -0.0188
 3853SOL    HW215178   5.404   3.823   1.180  0.7174  0.6907  1.1147
 3853SOL    HW315179   5.548   3.864   1.157  0.8294 -1.4948 -3.0137
 3853SOL    MW415180   5.488   3.802   1.170  0.2859 -0.5423 -0.2644
 3854SOL     OW15181   0.883   0.673   3.214  0.4728 -0.9979 -0.5301
 3854SOL    HW215182   0.788   0.670   3.221  0.5243  0.2566  1.2728
 3854SOL    HW315183   0.913   0.591   3.252  0.1892  0.2025  2.5191
 3854SOL    MW415184   0.874   0.662   3.220  0.4421 -0.6740  0.1101
 3855SOL     OW15185   5.973   3.642   5.215  0.4640  0.3427 -0.1408
 3855SOL    HW215186   5.964   3.666   5.123  0.6676 -2.2409 -0.9099
 3855SOL    HW315187   5.901   3.580   5.230  1.1816 -0.2272  1.0790
 3855SOL    MW415188   5.962   3.637   5.205  0.5855 -0.0734 -0.0814
 3856SOL     OW15189   4.422   1.453   2.100 -0.0283 -0.4567  0.1258
 3856SOL    HW215190   4.383   1.389   2.160  1.5710 -1.9632 -0.3483
 3856SOL    HW315191   4.516   1.440   2.110  0.2988 -0.0990 -2.0134
 3856SOL    MW415192   4.429   1.443   2.110  0.2258 -0.6083 -0.2190
 3857SOL     OW15193   4.541   2.482   2.047  0.1748  0.2820 -0.1060
 3857SOL    HW215194   4.559   2.560   2.100  1.6552 -0.7544  1.0468
 3857SOL    HW315195   4.628   2.451   2.021 -0.3465 -1.1770 -0.2049
 3857SOL    MW415196   4.555   2.488   2.051  0.3013 -0.0473  0.0330
 3858SOL     OW15197   4.056   0.637   1.163  0.3494 -0.0430  0.3454
 3858SOL    HW215198   4.111   0.707   1.199  2.7977 -0.9908 -1.3155
 3858SOL    HW315199   4.104   0.605   1.088 -3.2595  0.0680 -2.2803
 3858SOL    MW415200   4.070   0.642   1.158  0.1962 -0.1534 -0.2202
 3859SOL     OW15201   2.972   0.062   0.705 -0.5488  0.9121 -0.3419
 3859SOL    HW215202   2.970   0.014   0.622 -2.7604  0.5674 -0.1589
 3859SOL    HW315203   3.056   0.106   0.706  0.9656 -1.7459 -1.2336
 3859SOL    MW415204   2.983   0.061   0.695 -0.6408  0.5159 -0.4354
 3860SOL     OW15205   1.290   3.699   1.709 -0.0335  0.6064  0.0697
 3860SOL    HW215206   1.299   3.750   1.789 -1.0257 -0.1225  0.6690
 3860SOL    HW315207   1.207   3.728   1.671  0.1399  0.5167 -0.3873
 3860SOL    MW415208   1.280   3.709   1.714 -0.1415  0.4984  0.0885
 3861SOL     OW15209   3.693   3.704   1.544 -0.2863  0.4052  0.2671
 3861SOL    HW215210   3.635   3.759   1.597 -2.2031  0.9818 -2.2772
 3861SOL    HW315211   3.635   3.657   1.485  1.5371 -2.5205  0.6257
 3861SOL    MW415212   3.678   3.705   1.543 -0.2986  0.0953 -0.0212
 3862SOL     OW15213   6.113   4.838   2.392 -0.0136  0.0538 -0.2285
 3862SOL    HW215214   6.188   4.881   2.350 -0.6381  0.4634 -0.9477
 3862SOL    HW315215   6.151   4.761   2.435  0.4879 -1.3508 -2.9454
 3862SOL    MW415216   6.128   4.833   2.392 -0.0298 -0.0775 -0.6818
 3863SOL     OW15217   0.524   2.929   5.972  0.3248 -0.6601  0.2160
 3863SOL    HW215218   0.615   2.903   5.985  0.4786  0.7120  2.3364
 3863SOL    HW315219   0.525   3.024   5.977 -1.0193 -0.5010 -1.5497
 3863SOL    MW415220   0.536   2.938   5.975  0.1678 -0.4580  0.2628
 3864SOL     OW15221   2.761   2.537   6.094 -0.0497  0.4353 -0.1272
 3864SOL    HW215222   2.817   2.582   6.157  0.7174  1.8466 -1.7330
 3864SOL    HW315223   2.672   2.561   6.120  0.1419 -0.2058  1.2517
 3864SOL    MW415224   2.757   2.546   6.106  0.0768  0.5369 -0.1571
 3865SOL     OW15225   2.230   1.160   2.932  0.2269 -0.0561  0.3815
 3865SOL    HW215226   2.309   1.126   2.973  0.4717  0.1701  0.1054
 3865SOL    HW315227   2.161   1.147   2.997  0.0621 -2.1447 -0.1339
 3865SOL    MW415228   2.231   1.154   2.946  0.2374 -0.3018  0.2771
 3866SOL     OW15229   0.082   1.161   1.483  0.2548 -0.1213  0.4312
 3866SOL    HW215230   0.068   1.254   1.501  2.3384  0.3401 -0.1274
 3866SOL    HW315231   0.002   1.133   1.439 -0.1169  1.5930 -0.0504
 3866SOL    MW415232   0.069   1.169   1.479  0.4807  0.1658  0.2940
 3867SOL     OW15233   1.510   2.622   0.751  0.2353  0.1271  0.9583
 3867SOL    HW215234   1.478   2.612   0.661 -1.0021 -0.0733  1.3988
 3867SOL    HW315235   1.604   2.639   0.742  0.0664  0.4305 -0.3817
 3867SOL    MW415236   1.518   2.623   0.738  0.0497  0.1407  0.8397
 3868SOL     OW15237   6.085   2.074   4.712 -0.5851 -0.1693  0.2787
 3868SOL    HW215238   6.097   2.011   4.783  2.1250 -0.1926 -0.0958
 3868SOL    HW315239   6.108   2.158   4.751 -0.2138 -0.0110 -0.2721
 3868SOL    MW415240   6.089   2.077   4.727 -0.1786 -0.1515  0.1566
 3869SOL     OW15241   6.272   3.239   2.558  0.3307 -0.4632 -0.1244
 3869SOL    HW215242   6.298   3.311   2.615 -1.8230  0.6294 -0.4177
 3869SOL    HW315243   6.327   3.248   2.480  1.5580 -0.4764  0.7090
 3869SOL    MW415244   6.283   3.249   2.555  0.2085 -0.3208 -0.0532
 3870SOL     OW15245   4.963   0.738   2.496 -0.0560  0.0372 -0.0657
 3870SOL    HW215246   4.939   0.830   2.512 -0.0745  0.0796 -0.3407
 3870SOL    HW315247   5.045   0.726   2.544 -0.4525 -0.0176  0.6122
 3870SOL    MW415248   4.971   0.749   2.505 -0.1107  0.0356 -0.0126
 3871SOL     OW15249   6.168   0.898   6.470  0.2829 -0.0283 -0.2337
 3871SOL    HW215250   6.162   0.977   6.524 -1.0579 -0.0378 -0.3212
 3871SOL    HW315251   6.078   0.884   6.438  0.2718 -2.0613  0.4894
 3871SOL    MW415252   6.155   0.906   6.473  0.1046 -0.2978 -0.1498
 3872SOL     OW15253   5.327   4.883   4.147 -0.2560 -0.1064 -0.2772
 3872SOL    HW215254   5.419   4.863   4.167  0.4841 -0.0292 -3.1529
 3872SOL    HW315255   5.315   4.972   4.180  0.2647 -0.5764  1.2869
 3872SOL    MW415256   5.338   4.892   4.154 -0.0897 -0.1583 -0.4502
 3873SOL     OW15257   2.010   2.640   6.168  0.9886  0.3714  0.0352
 3873SOL    HW215258   2.044   2.672   6.085  1.3792  1.1695  0.4992
 3873SOL    HW315259   2.040   2.549   6.173  0.8216  0.2646 -0.7607
 3873SOL    MW415260   2.018   2.632   6.158  1.0181  0.4626 -0.0086
 3874SOL     OW15261   4.514   3.858   1.663  0.3969 -0.2505  0.3931
 3874SOL    HW215262   4.532   3.934   1.607 -0.3632 -1.1325 -1.1294
 3874SOL    HW315263   4.433   3.879   1.708  0.0882 -0.2086 -0.1684
 3874SOL    MW415264   4.506   3.870   1.661  0.2559 -0.3613  0.1182
 3875SOL     OW15265   3.758   3.616   2.270  0.0473  0.2541  0.4362
 3875SOL    HW215266   3.742   3.522   2.273  0.4374  0.2035  1.3317
 3875SOL    HW315267   3.676   3.656   2.297 -0.2882  0.1962 -0.4725
 3875SOL    MW415268   3.745   3.609   2.274  0.0545  0.2398  0.4344
 3876SOL     OW15269   6.191   1.766   3.768  0.3299  0.0855 -0.0750
 3876SOL    HW215270   6.130   1.820   3.817  1.1202  0.6054  0.3592
 3876SOL    HW315271   6.234   1.827   3.708 -0.8659 -0.5951 -1.6950
 3876SOL    MW415272   6.189   1.781   3.767  0.2764  0.0643 -0.2314
 3877SOL     OW15273   2.023   5.207   5.476  0.2742  0.4484  0.1416
 3877SOL    HW215274   2.038   5.124   5.430 -0.8582  1.2575 -1.7993
 3877SOL    HW315275   2.110   5.246   5.483  0.6753 -0.4148  0.1302
 3877SOL    MW415276   2.037   5.201   5.471  0.1777  0.4412 -0.1160
 3878SOL     OW15277   2.130   4.985   6.408 -0.3643  0.3616  0.0953
 3878SOL    HW215278   2.197   4.933   6.363 -0.2997  0.5788 -0.0574
 3878SOL    HW315279   2.047   4.944   6.381 -0.2620 -0.4568  0.9687
 3878SOL    MW415280   2.127   4.972   6.398 -0.3423  0.2823  0.1904
 3879SOL     OW15281   4.321   1.298   1.392 -0.0188 -0.5638  0.2640
 3879SOL    HW215282   4.387   1.229   1.397  0.1249 -0.4261  0.3062
 3879SOL    HW315283   4.278   1.297   1.478 -2.4247 -2.9285 -0.8526
 3879SOL    MW415284   4.324   1.289   1.404 -0.3173 -0.8576  0.1222
 3880SOL     OW15285   5.396   1.922   4.333  0.0766 -0.5338 -0.1980
 3880SOL    HW215286   5.397   1.965   4.247 -0.1949 -0.2605 -0.0688
 3880SOL    HW315287   5.411   1.993   4.395  1.3555 -0.9018 -0.0787
 3880SOL    MW415288   5.398   1.937   4.330  0.2095 -0.5463 -0.1652
 3881SOL     OW15289   0.107   3.891   1.807 -0.2366  0.1557  0.2754
 3881SOL    HW215290   0.040   3.921   1.745  0.8894 -1.1103 -1.6726
 3881SOL    HW315291   0.094   3.796   1.813 -0.6981  0.3229  2.5067
 3881SOL    MW415292   0.097   3.882   1.800 -0.1490  0.0107  0.3128
 3882SOL     OW15293   5.583   5.811   0.462  0.7877  0.3793  0.2359
 3882SOL    HW215294   5.528   5.851   0.530  2.0087  0.9792  0.9045
 3882SOL    HW315295   5.631   5.884   0.424 -0.0208  0.0862 -1.4629
 3882SOL    MW415296   5.582   5.826   0.466  0.8421  0.4198  0.1000
 3883SOL     OW15297   1.624   1.030   5.949 -0.3435  0.1648 -0.8741
 3883SOL    HW215298   1.665   1.046   6.034 -1.0288  0.4784 -0.5918
 3883SOL    HW315299   1.658   0.946   5.921  0.5903  0.4823 -0.7089
 3883SOL    MW415300   1.634   1.021   5.957 -0.3107  0.2480 -0.8151
 3884SOL     OW15301   4.564   0.804   3.329  0.1761  0.3103  0.4023
 3884SOL    HW215302   4.487   0.841   3.371 -0.2337 -0.2574  0.1549
 3884SOL    HW315303   4.571   0.852   3.246 -0.2265 -0.0005  0.1829
 3884SOL    MW415304   4.555   0.816   3.323  0.0689  0.1944  0.3407
 3885SOL     OW15305   5.469   1.486   4.671  0.0845  0.0073 -0.5068
 3885SOL    HW215306   5.546   1.429   4.675 -0.1669 -0.3513 -0.6811
 3885SOL    HW315307   5.495   1.565   4.718  0.5740 -0.0942 -0.5980
 3885SOL    MW415308   5.483   1.488   4.677  0.1159 -0.0534 -0.5419
 3886SOL     OW15309   3.369   4.091   5.164  0.4345 -0.3920  0.9802
 3886SOL    HW215310   3.310   4.113   5.237 -1.6839  0.0903 -0.7704
 3886SOL    HW315311   3.398   4.176   5.131 -1.2016 -0.4194 -0.6812
 3886SOL    MW415312   3.365   4.105   5.169 -0.0608 -0.3320  0.5300
 3887SOL     OW15313   1.517   1.191   3.556 -0.5081  0.6041  0.6871
 3887SOL    HW215314   1.577   1.151   3.619 -0.8232 -0.6373  0.2379
 3887SOL    HW315315   1.444   1.129   3.551 -1.2581  1.4992  0.3298
 3887SOL    MW415316   1.515   1.178   3.564 -0.6486  0.5584  0.5807
 3888SOL     OW15317   6.229   2.178   0.088  0.1941 -0.5193 -0.6003
 3888SOL    HW215318   6.271   2.142   0.167 -0.6379 -1.6484 -0.6481
 3888SOL    HW315319   6.280   2.143   0.015 -0.2418 -1.1133 -0.6250
 3888SOL    MW415320   6.241   2.169   0.089  0.0268 -0.7466 -0.6098
 3889SOL     OW15321   0.578   2.687   2.161 -0.1920  0.2717 -0.2272
 3889SOL    HW215322   0.580   2.767   2.109 -1.5593  0.9254  0.6649
 3889SOL    HW315323   0.615   2.713   2.246 -2.1796  0.4476  0.6389
 3889SOL    MW415324   0.583   2.701   2.165 -0.6346  0.3811  0.0048
 3890SOL     OW15325   1.760   3.912   4.311 -0.1230  0.7531  0.4399
 3890SOL    HW215326   1.798   3.839   4.262 -0.2477  1.5114 -0.8250
 3890SOL    HW315327   1.666   3.904   4.297 -0.1097  1.3895 -0.0604
 3890SOL    MW415328   1.753   3.902   4.303 -0.1377  0.9371  0.2070
 3891SOL     OW15329   5.985   0.756   2.442 -0.5341  0.5110  0.8141
 3891SOL    HW215330   6.037   0.755   2.523  1.8154  0.6626 -0.6104
 3891SOL    HW315331   6.002   0.672   2.402  0.4926  1.4309 -0.7810
 3891SOL    MW415332   5.994   0.745   2.448 -0.0886  0.6524  0.4157
 3892SOL     OW15333   5.387   4.664   5.742 -0.3603  0.1493 -0.0200
 3892SOL    HW215334   5.298   4.699   5.749 -0.1288  0.8980 -0.6585
 3892SOL    HW315335   5.401   4.651   5.648  0.1115 -0.2147  0.0963
 3892SOL    MW415336   5.377   4.667   5.731 -0.2675  0.2000 -0.0889
 3893SOL     OW15337   1.449   5.337   1.593  0.6914  0.3517  0.2800
 3893SOL    HW215338   1.448   5.372   1.682  1.2566  0.5832  0.2029
 3893SOL    HW315339   1.402   5.254   1.599  1.1889  0.1047  0.9024
 3893SOL    MW415340   1.442   5.331   1.605  0.8316  0.3497  0.3520
 3894SOL     OW15341   3.042   5.588   3.576 -0.0483 -0.3602  0.7731
 3894SOL    HW215342   3.110   5.630   3.524 -0.8322 -1.7286 -1.4977
 3894SOL    HW315343   3.089   5.527   3.632  0.7496  0.5270  1.1013
 3894SOL    MW415344   3.057   5.586   3.577 -0.0464 -0.4237  0.5168
 3895SOL     OW15345   1.793   4.411   1.517  0.2670  0.3055 -0.5999
 3895SOL    HW215346   1.820   4.320   1.524  1.5546  0.7094 -0.0393
 3895SOL    HW315347   1.850   4.448   1.449  0.5726  0.9773  0.0088
 3895SOL    MW415348   1.804   4.404   1.509  0.4772  0.4474 -0.4456
 3896SOL     OW15349   2.488   3.131   5.718 -0.3185  0.4780 -0.0564
 3896SOL    HW215350   2.489   3.037   5.699 -0.8773  0.6527 -1.0302
 3896SOL    HW315351   2.436   3.169   5.647 -0.5366  1.4679  0.6139
 3896SOL    MW415352   2.481   3.124   5.706 -0.4210  0.6316 -0.0964
 3897SOL     OW15353   4.715   0.062   2.887 -0.2442  0.2972 -0.0178
 3897SOL    HW215354   4.695  -0.001   2.957 -0.5190 -2.1249 -2.1378
 3897SOL    HW315355   4.728   0.145   2.933 -0.7409 -1.0859  2.8596
 3897SOL    MW415356   4.714   0.065   2.902 -0.3460 -0.2049  0.0821
 3898SOL     OW15357   3.001   2.844   6.478  0.1756  0.2308 -0.3366
 3898SOL    HW215358   2.978   2.936   6.491  0.9444  0.3530  0.2371
 3898SOL    HW315359   3.085   2.834   6.523 -0.3989 -1.0071  0.5317
 3898SOL    MW415360   3.009   2.855   6.486  0.2012  0.0836 -0.1464
 3899SOL     OW15361   1.150   6.044   6.463 -0.2146  0.7261  0.5495
 3899SOL    HW215362   1.173   6.127   6.503  1.3436  0.2885  0.6327
 3899SOL    HW315363   1.115   6.067   6.377  2.1768  1.4407 -0.3238
 3899SOL    MW415364   1.149   6.058   6.457  0.3065  0.7626  0.4452
 3900SOL     OW15365   1.793   2.205   4.908 -0.4923 -0.0516  0.2558
 3900SOL    HW215366   1.758   2.118   4.891 -0.2762 -0.2343  0.7200
 3900SOL    HW315367   1.751   2.262   4.843 -2.4470 -0.0575  1.4334
 3900SOL    MW415368   1.783   2.201   4.897 -0.7217 -0.0765  0.4724
 3901SOL     OW15369   5.164   3.972   0.145  0.0602  0.3685 -0.3082
 3901SOL    HW215370   5.183   4.060   0.177  0.8353 -0.5854  2.0037
 3901SOL    HW315371   5.111   3.932   0.214  0.2757 -1.2020 -1.0218
 3901SOL    MW415372   5.159   3.978   0.158  0.1909  0.0354 -0.0973
 3902SOL     OW15373   1.287   6.117   5.977  0.4419 -0.0270 -0.7612
 3902SOL    HW215374   1.264   6.175   6.051 -0.1387  0.7471 -1.5231
 3902SOL    HW315375   1.273   6.029   6.011 -0.4519  0.3321 -0.1332
 3902SOL    MW415376   1.282   6.113   5.991  0.2474  0.1225 -0.7789
 3903SOL     OW15377   3.064   6.389   5.760  0.3834 -0.6263 -0.0281
 3903SOL    HW215378   3.076   6.300   5.727 -2.2359 -1.0943  0.1095
 3903SOL    HW315379   3.096   6.386   5.850  2.1469 -0.8659 -0.6271
 3903SOL    MW415380   3.070   6.377   5.767  0.2705 -0.7197 -0.0890
 3904SOL     OW15381   3.420   5.875   2.069 -0.3478 -0.0211 -0.3558
 3904SOL    HW215382   3.387   5.959   2.039 -0.7359  1.0920  2.8080
 3904SOL    HW315383   3.511   5.872   2.038 -1.0858  0.3218 -2.7097
 3904SOL    MW415384   3.428   5.886   2.061 -0.4964  0.1710 -0.2489
 3905SOL     OW15385   3.085   2.595   0.916 -0.2056  0.4658 -0.7887
 3905SOL    HW215386   2.998   2.629   0.893 -0.1665  2.2628  1.3463
 3905SOL    HW315387   3.134   2.597   0.834 -1.9465 -0.0003 -1.9233
 3905SOL    MW415388   3.080   2.600   0.902 -0.4301  0.6414 -0.6567
 3906SOL     OW15389   1.850   2.815   2.690 -0.3231 -0.1102 -0.3345
 3906SOL    HW215390   1.792   2.740   2.700  0.1873 -0.4463  0.1815
 3906SOL    HW315391   1.792   2.891   2.693 -0.6931 -0.4240  0.5942
 3906SOL    MW415392   1.835   2.815   2.692 -0.3046 -0.1960 -0.1439
 3907SOL     OW15393   5.909   0.026   2.487  0.0937 -0.4584 -0.3137
 3907SOL    HW215394   5.960   0.102   2.461  0.5103 -0.6820 -0.1466
 3907SOL    HW315395   5.946  -0.047   2.436  0.4601 -0.7672  0.3840
 3907SOL    MW415396   5.920   0.026   2.477  0.1970 -0.5287 -0.1996
 3908SOL     OW15397   0.229   0.196   0.781 -0.7793  0.1153 -0.6061
 3908SOL    HW215398   0.161   0.262   0.771 -0.7535  0.3660  0.7342
 3908SOL    HW315399   0.277   0.222   0.860  0.9952  0.0481 -1.5896
 3908SOL    MW415400   0.227   0.208   0.790 -0.5418  0.1395 -0.5590
 3909SOL     OW15401   4.661   1.671   0.172 -0.1436  0.5630  0.0031
 3909SOL    HW215402   4.703   1.678   0.258 -1.6615  1.5188  0.7136
 3909SOL    HW315403   4.731   1.692   0.109  1.1454 -0.7369  0.9366
 3909SOL    MW415404   4.676   1.675   0.175 -0.1738  0.5176  0.2200
 3910SOL     OW15405   5.300   0.819   3.089 -0.1015  0.2077  0.1381
 3910SOL    HW215406   5.318   0.737   3.042 -1.7582  0.3440 -0.8019
 3910SOL    HW315407   5.339   0.806   3.175 -1.2044 -2.0028  0.3793
 3910SOL    MW415408   5.308   0.806   3.094 -0.4656 -0.0660  0.0459
 3911SOL     OW15409   2.390   6.174   3.335 -0.1875  0.3909 -0.2652
 3911SOL    HW215410   2.335   6.107   3.377 -3.3252  2.8199 -0.1387
 3911SOL    HW315411   2.419   6.133   3.253  0.6266 -2.1292  1.1542
 3911SOL    MW415412   2.386   6.160   3.330 -0.4940  0.3788 -0.0612
 3912SOL     OW15413   5.614   1.006   5.331 -0.9785  0.4667 -0.1719
 3912SOL    HW215414   5.601   0.982   5.240  0.7598 -2.6962  0.2944
 3912SOL    HW315415   5.693   1.060   5.331 -0.8263  0.2426 -0.5030
 3912SOL    MW415416   5.622   1.010   5.319 -0.7290  0.0198 -0.1541
 3913SOL     OW15417   4.563   3.361   6.065 -0.0552 -0.2979  0.2168
 3913SOL    HW215418   4.611   3.278   6.060  0.8065  0.0607  2.0416
 3913SOL    HW315419   4.606   3.410   6.134 -0.7143  1.6020 -0.6600
 3913SOL    MW415420   4.575   3.356   6.073 -0.0285  0.0001  0.3419
 3914SOL     OW15421   5.265   3.322   2.044 -0.2857 -0.0212  0.1797
 3914SOL    HW215422   5.191   3.371   2.008 -1.4877 -2.0261 -0.2692
 3914SOL    HW315423   5.260   3.339   2.139 -1.5640 -0.3917  0.2005
 3914SOL    MW415424   5.254   3.331   2.052 -0.6130 -0.3346  0.1232
 3915SOL     OW15425   5.542   1.679   4.216  0.2801  0.0556 -0.1716
 3915SOL    HW215426   5.516   1.609   4.275 -0.9903  0.6504  0.0120
 3915SOL    HW315427   5.513   1.759   4.260 -2.0228  0.4353 -2.1907
 3915SOL    MW415428   5.535   1.680   4.230 -0.1914  0.1842 -0.4138
 3916SOL     OW15429   5.035   0.099   1.366  0.0376 -0.6807  0.1301
 3916SOL    HW215430   5.001   0.174   1.415  0.1304  0.0131 -0.8396
 3916SOL    HW315431   4.957   0.051   1.340 -0.2931  0.8544 -2.0030
 3916SOL    MW415432   5.020   0.103   1.369  0.0062 -0.3866 -0.2793
 3917SOL     OW15433   2.587   3.524   0.260  0.1590  0.1698  0.3847
 3917SOL    HW215434   2.534   3.564   0.329  0.2538  0.3084  0.3773
 3917SOL    HW315435   2.677   3.533   0.291  0.3480  1.7845 -0.5404
 3917SOL    MW415436   2.592   3.531   0.274  0.1964  0.4011  0.2617
 3918SOL     OW15437   0.888   4.562   5.450  0.2218  0.2074  0.1669
 3918SOL    HW215438   0.826   4.607   5.392  0.0566 -0.6430 -0.3323
 3918SOL    HW315439   0.877   4.605   5.535 -1.0537  0.0722  0.0823
 3918SOL    MW415440   0.878   4.574   5.454  0.0317  0.0774  0.0898
 3919SOL     OW15441   3.809   3.935   4.839 -0.4529 -0.2439 -0.3979
 3919SOL    HW215442   3.833   4.025   4.859  0.8075 -0.4464 -0.9205
 3919SOL    HW315443   3.719   3.940   4.807 -0.1297  0.9176 -1.1480
 3919SOL    MW415444   3.800   3.947   4.838 -0.2439 -0.1174 -0.5658
 3920SOL     OW15445   0.105   3.968   0.661  0.4504 -0.3860  0.2198
 3920SOL    HW215446   0.064   4.039   0.710  2.8560  0.1720  1.5754
 3920SOL    HW315447   0.194   3.998   0.647  0.7538 -2.0007 -1.6380
 3920SOL    MW415448   0.111   3.981   0.666  0.8078 -0.5254  0.1535
 3921SOL     OW15449   2.846   1.938   5.396 -0.0190  0.1000  0.2335
 3921SOL    HW215450   2.774   1.887   5.359 -0.6071  3.1611 -3.4594
 3921SOL    HW315451   2.806   2.019   5.425  1.4863  0.3357  1.8742
 3921SOL    MW415452   2.831   1.942   5.395  0.1020  0.5350 -0.0373
 3922SOL     OW15453   4.401   1.534   2.898  0.2531  0.3379 -0.0362
 3922SOL    HW215454   4.321   1.546   2.848 -2.2485 -2.0563  2.9403
 3922SOL    HW315455   4.421   1.620   2.935 -1.1007  0.9184 -0.6175
 3922SOL    MW415456   4.393   1.547   2.896 -0.2556  0.0986  0.2798
 3923SOL     OW15457   4.078   3.322   1.751  0.0167  0.5264  0.3468
 3923SOL    HW215458   4.110   3.392   1.808  2.6677  0.9433 -1.4953
 3923SOL    HW315459   4.086   3.357   1.662 -0.2667 -1.4795 -0.5305
 3923SOL    MW415460   4.083   3.336   1.747  0.3291  0.3168 -0.0120
 3924SOL     OW15461   2.543   3.493   4.620  0.1438  0.0929 -0.4654
 3924SOL    HW215462   2.574   3.469   4.533  0.8048  1.8270 -0.7286
 3924SOL    HW315463   2.622   3.504   4.673 -0.2077  0.1312  0.0674
 3924SOL    MW415464   2.557   3.491   4.616  0.1846  0.3267 -0.4299
 3925SOL     OW15465   0.253   1.893   0.536 -0.0592  0.1046 -0.1033
 3925SOL    HW215466   0.284   1.972   0.492 -1.5502  0.0556 -1.3186
 3925SOL    HW315467   0.194   1.924   0.604  1.3334  0.1240  1.1323
 3925SOL    MW415468   0.249   1.907   0.539 -0.0722  0.1007 -0.1006
 3926SOL     OW15469   5.972   5.527   3.122  0.3054 -0.1683  0.0994
 3926SOL    HW215470   5.979   5.605   3.177  1.8142 -0.8896  0.9771
 3926SOL    HW315471   5.897   5.545   3.065 -0.8234  0.9253  1.8576
 3926SOL    MW415472   5.963   5.540   3.121  0.3555 -0.1192  0.4472
 3927SOL     OW15473   2.358   4.435   3.090 -0.5929  1.0513 -0.4769
 3927SOL    HW215474   2.417   4.471   3.024 -0.4555  0.7112 -0.5420
 3927SOL    HW315475   2.270   4.457   3.059 -0.6117 -0.4215 -1.5861
 3927SOL    MW415476   2.354   4.442   3.077 -0.5772  0.8121 -0.6319
 3928SOL     OW15477   3.791   2.697   4.549 -0.1648  0.1373 -0.0473
 3928SOL    HW215478   3.864   2.637   4.565 -1.0885 -1.8027 -2.4061
 3928SOL    HW315479   3.833   2.777   4.518  1.0191 -0.7836 -0.9238
 3928SOL    MW415480   3.806   2.700   4.547 -0.1305 -0.2402 -0.4741
 3929SOL     OW15481   1.050   3.219   0.950  0.4341  0.6741 -0.1797
 3929SOL    HW215482   1.122   3.262   0.903  0.3517  0.9466 -0.0583
 3929SOL    HW315483   1.049   3.130   0.915 -0.0324  1.0463 -1.1588
 3929SOL    MW415484   1.059   3.213   0.939  0.3617  0.7592 -0.2929
 3930SOL     OW15485   4.233   0.458   0.210  0.4311  0.0756  0.0963
 3930SOL    HW215486   4.289   0.387   0.242  2.7430  1.5241 -0.5026
 3930SOL    HW315487   4.228   0.519   0.284  1.4831  0.9818 -0.5633
 3930SOL    MW415488   4.240   0.457   0.224  0.8749  0.3863 -0.0697
 3931SOL     OW15489   0.055   0.600   0.916 -0.6992  0.1240 -0.3786
 3931SOL    HW215490   0.148   0.611   0.935 -0.9175  0.1673  0.7019
 3931SOL    HW315491   0.032   0.680   0.868 -0.3737  0.5064  0.0901
 3931SOL    MW415492   0.065   0.612   0.912 -0.6850  0.1802 -0.1742
 3932SOL     OW15493   3.633   5.776   5.390 -0.1721  0.3709  0.1021
 3932SOL    HW215494   3.639   5.781   5.485  1.1107 -1.9509  0.2146
 3932SOL    HW315495   3.582   5.697   5.373 -0.4590  0.8014 -1.1471
 3932SOL    MW415496   3.627   5.766   5.400 -0.0407  0.1213 -0.0479
 3933SOL     OW15497   4.412   4.745   4.827  0.0620  0.3109 -0.2023
 3933SOL    HW215498   4.419   4.808   4.898 -1.0334 -0.7346  0.8679
 3933SOL    HW315499   4.338   4.776   4.774  1.1658  1.3479 -1.2006
 3933SOL    MW415500   4.403   4.757   4.829  0.0631  0.3098 -0.1928
 3934SOL     OW15501   0.022   6.249   6.160 -0.7858  0.3273 -0.4436
 3934SOL    HW215502   0.101   6.200   6.139 -1.8657 -0.5790 -2.7145
 3934SOL    HW315503   0.046   6.341   6.149  0.0361  0.0758 -0.7887
 3934SOL    MW415504   0.036   6.255   6.156 -0.8199  0.1745 -0.7887
 3935SOL     OW15505   4.745   5.731   4.572 -0.4845  0.6550  0.5081
 3935SOL    HW215506   4.685   5.738   4.646 -0.8136  1.6865  0.1621
 3935SOL    HW315507   4.744   5.638   4.550 -0.9866  0.4583  1.2977
 3935SOL    MW415508   4.737   5.719   4.579 -0.5941  0.7652  0.5666
 3936SOL     OW15509   5.396   3.030   3.401 -0.1679  0.0588  0.3397
 3936SOL    HW215510   5.473   2.974   3.408  0.8415  1.2930 -0.3449
 3936SOL    HW315511   5.427   3.106   3.351 -1.4208  1.3014  1.3767
 3936SOL    MW415512   5.411   3.033   3.396 -0.2000  0.3856  0.3862
 3937SOL     OW15513   3.203   1.833   6.060 -0.0939  0.5248 -0.0360
 3937SOL    HW215514   3.110   1.851   6.048 -0.4274 -1.6783 -1.2601
 3937SOL    HW315515   3.239   1.826   5.971  0.7329 -0.9151  0.3738
 3937SOL    MW415516   3.196   1.835   6.047 -0.0288  0.0441 -0.1434
 3938SOL     OW15517   5.426   0.231   4.594  0.2811 -0.0109 -0.4123
 3938SOL    HW215518   5.352   0.290   4.581 -0.3214 -0.2875  1.4040
 3938SOL    HW315519   5.387   0.144   4.599  0.7239 -0.1756  0.4121
 3938SOL    MW415520   5.411   0.228   4.593  0.2600 -0.0691 -0.0639
 3939SOL     OW15521   1.471   6.307   2.133  0.3527  0.5454 -0.4534
 3939SOL    HW215522   1.475   6.402   2.143  0.0160  0.4174  1.3236
 3939SOL    HW315523   1.379   6.288   2.113  0.1415  0.5181  0.4995
 3939SOL    MW415524   1.459   6.317   2.132  0.2804  0.5249 -0.0932
 3940SOL     OW15525   5.469   1.361   2.330 -0.3783 -0.5790 -0.5206
 3940SOL    HW215526   5.379   1.335   2.349 -0.8000 -0.8253 -2.6163
 3940SOL    HW315527   5.486   1.327   2.242  1.0218  1.3033 -1.0412
 3940SOL    MW415528   5.459   1.353   2.321 -0.2492 -0.3631 -0.8658
 3941SOL     OW15529   5.700   4.197   5.237  0.6515  0.6116 -0.4682
 3941SOL    HW215530   5.720   4.119   5.186  0.5385 -0.3067  0.8369
 3941SOL    HW315531   5.754   4.189   5.316 -0.1492  1.3082  0.1748
 3941SOL    MW415532   5.710   4.186   5.241  0.5310  0.5824 -0.2112
 3942SOL     OW15533   4.620   5.418   4.043 -0.0343  0.3564  0.1699
 3942SOL    HW215534   4.628   5.375   4.128 -2.1651  0.2323  0.3661
 3942SOL    HW315535   4.678   5.368   3.985 -1.7762 -2.3176  0.5917
 3942SOL    MW415536   4.629   5.406   4.047 -0.5452 -0.0127  0.2514
 3943SOL     OW15537   5.232   3.259   2.680  0.3103 -0.2516  0.1448
 3943SOL    HW215538   5.293   3.297   2.744  0.5673 -0.3060 -0.0667
 3943SOL    HW315539   5.223   3.168   2.708  0.8660 -0.4264 -0.2204
 3943SOL    MW415540   5.239   3.252   2.692  0.4175 -0.2819  0.0687
 3944SOL     OW15541   4.911   3.196   0.162  0.0646 -0.0515 -0.7576
 3944SOL    HW215542   4.983   3.143   0.130 -0.8728 -0.1124 -2.9742
 3944SOL    HW315543   4.952   3.277   0.193  1.2016 -0.7275 -0.4446
 3944SOL    MW415544   4.926   3.200   0.161  0.0909 -0.1487 -1.0088
 3945SOL     OW15545   3.303   4.323   0.800  0.1293 -0.3943 -0.1403
 3945SOL    HW215546   3.216   4.304   0.765  0.6813  0.4309 -2.0401
 3945SOL    HW315547   3.287   4.383   0.873 -0.7897  2.5447 -2.5375
 3945SOL    MW415548   3.290   4.328   0.805  0.0808  0.1024 -0.7073
 3946SOL     OW15549   2.398   5.185   2.066 -0.0121 -0.3530  0.1864
 3946SOL    HW215550   2.352   5.101   2.069  2.4771 -1.7753  1.8626
 3946SOL    HW315551   2.443   5.185   1.982  0.6321 -1.1007  0.5211
 3946SOL    MW415552   2.398   5.174   2.055  0.4014 -0.6393  0.4517
 3947SOL     OW15553   6.104   3.463   0.717 -0.2908 -0.3419 -0.0617
 3947SOL    HW215554   6.072   3.398   0.655 -0.3571  0.1509 -0.5452
 3947SOL    HW315555   6.044   3.537   0.708 -1.2328 -0.8231  1.6593
 3947SOL    MW415556   6.092   3.464   0.708 -0.4239 -0.3403  0.1016
 3948SOL     OW15557   4.933   2.710   0.726  0.1151 -0.1993  0.6366
 3948SOL    HW215558   4.994   2.725   0.798  1.6236 -0.1522 -0.5967
 3948SOL    HW315559   4.925   2.614   0.721  1.5395 -0.2972 -0.3148
 3948SOL    MW415560   4.940   2.699   0.735  0.5020 -0.2060  0.3483
 3949SOL     OW15561   0.974   3.627   4.574 -0.1103 -0.1390 -0.0949
 3949SOL    HW215562   0.903   3.659   4.519 -0.0655  0.8121  0.3789
 3949SOL    HW315563   1.050   3.678   4.548 -0.0950  0.3497  0.8296
 3949SOL    MW415564   0.974   3.638   4.564 -0.1024  0.0510  0.0896
 3950SOL     OW15565   3.790   2.496   3.184  0.2106 -0.1561  0.1523
 3950SOL    HW215566   3.745   2.566   3.231  2.3638  1.6220 -0.2878
 3950SOL    HW315567   3.791   2.525   3.093  2.5323  0.1104  0.2063
 3950SOL    MW415568   3.784   2.509   3.178  0.8010  0.1137  0.1014
 3951SOL     OW15569   2.685   5.915   4.869  0.0391  0.6511 -0.1386
 3951SOL    HW215570   2.626   5.953   4.803  0.2385  1.3786  0.0941
 3951SOL    HW315571   2.628   5.862   4.925 -0.2771  0.7635 -0.3505
 3951SOL    MW415572   2.670   5.913   4.867  0.0237  0.7619 -0.1359
 3952SOL     OW15573   4.360   2.044   6.251 -0.0883  0.1223 -0.4903
 3952SOL    HW215574   4.340   1.957   6.218  0.0053 -0.1887  0.2409
 3952SOL    HW315575   4.389   2.093   6.175  2.7968 -1.3529 -0.4554
 3952SOL    MW415576   4.361   2.039   6.237  0.3047 -0.1133 -0.3892
 3953SOL     OW15577   0.840   4.505   6.265 -0.2006 -0.6310  0.3871
 3953SOL    HW215578   0.806   4.507   6.355 -2.0824 -0.1077 -0.2941
 3953SOL    HW315579   0.772   4.459   6.215  0.7659 -0.8123 -0.8063
 3953SOL    MW415580   0.827   4.499   6.270 -0.3214 -0.5858  0.1397
 3954SOL     OW15581   4.996   5.854   5.738  0.2160 -0.1089  0.0564
 3954SOL    HW215582   4.965   5.933   5.783 -0.4171  0.3148 -1.0904
 3954SOL    HW315583   5.088   5.848   5.761  0.2347  0.8836  0.2796
 3954SOL    MW415584   5.004   5.863   5.747  0.1349  0.0779 -0.0654
 3955SOL     OW15585   3.118   1.573   1.257  0.3841 -0.2613 -0.0233
 3955SOL    HW215586   3.035   1.528   1.241 -0.1633  0.1932  1.4212
 3955SOL    HW315587   3.094   1.665   1.266  1.1764  0.0008 -0.4697
 3955SOL    MW415588   3.104   1.580   1.256  0.4164 -0.1667  0.1084
 3956SOL     OW15589   5.710   4.833   2.676 -0.0438  0.8272  0.5116
 3956SOL    HW215590   5.645   4.809   2.609  2.1144 -0.9778 -1.1155
 3956SOL    HW315591   5.709   4.928   2.677 -1.0286  0.8891 -1.2040
 3956SOL    MW415592   5.701   4.842   2.667  0.1110  0.5972  0.0705
 3957SOL     OW15593   5.030   2.453   3.991  0.1803 -0.5127  0.3444
 3957SOL    HW215594   5.010   2.360   3.997  0.2961 -0.7167 -1.7560
 3957SOL    HW315595   4.995   2.480   3.906  1.0701  1.1300  0.4538
 3957SOL    MW415596   5.023   2.445   3.981  0.3130 -0.3229  0.0817
 3958SOL     OW15597   2.733   3.136   4.435 -0.4889 -0.0236 -0.4408
 3958SOL    HW215598   2.703   3.225   4.419  0.6762  0.5431  0.3962
 3958SOL    HW315599   2.765   3.106   4.350 -1.1908  0.2195 -0.8026
 3958SOL    MW415600   2.733   3.144   4.422 -0.4278  0.0832 -0.3781
 3959SOL     OW15601   5.795   1.412   3.228  0.7593 -0.2790 -0.1298
 3959SOL    HW215602   5.728   1.361   3.183 -0.0554 -0.8780  1.6524
 3959SOL    HW315603   5.856   1.347   3.262 -0.4043 -0.1695  2.3536
 3959SOL    MW415604   5.794   1.397   3.227  0.4983 -0.3436  0.4330
 3960SOL     OW15605   0.634   0.967   5.752  0.4756  0.4095  0.5957
 3960SOL    HW215606   0.622   0.913   5.830  1.5007 -1.1540 -0.2679
 3960SOL    HW315607   0.692   1.038   5.781 -1.1734  1.3030  1.8316
 3960SOL    MW415608   0.640   0.969   5.766  0.3933  0.3211  0.6448
 3961SOL     OW15609   4.692   3.945   0.826  0.1724  0.2187  0.4520
 3961SOL    HW215610   4.612   3.896   0.806 -0.6936  0.4247  3.0246
 3961SOL    HW315611   4.762   3.879   0.823 -0.3309 -0.2938 -0.2288
 3961SOL    MW415612   4.691   3.930   0.823 -0.0083  0.1783  0.7016
 3962SOL     OW15613   0.493   3.602   6.355  0.5370 -0.1792  0.8311
 3962SOL    HW215614   0.444   3.549   6.292  1.8371  0.0219 -0.4001
 3962SOL    HW315615   0.459   3.575   6.441 -1.2036 -0.5315  0.0713
 3962SOL    MW415616   0.482   3.591   6.358  0.4789 -0.1992  0.5685
 3963SOL     OW15617   6.152   0.247   5.408  0.7405  0.2593  0.3673
 3963SOL    HW215618   6.119   0.296   5.483  0.0096  0.4505 -0.0670
 3963SOL    HW315619   6.234   0.292   5.384  0.6314  0.6019  0.6354
 3963SOL    MW415620   6.159   0.259   5.415  0.6297  0.3298  0.3453
 3964SOL     OW15621   1.028   0.438   0.543 -0.1813 -0.0497 -0.0228
 3964SOL    HW215622   1.079   0.418   0.464 -0.1901  0.4339 -0.1509
 3964SOL    HW315623   1.067   0.383   0.611  0.3618  0.1415 -0.1754
 3964SOL    MW415624   1.040   0.428   0.541 -0.1108  0.0393 -0.0599
 3965SOL     OW15625   1.632   5.373   1.156  0.0396  0.3071 -0.4646
 3965SOL    HW215626   1.551   5.331   1.126 -0.3330  0.8462 -0.2273
 3965SOL    HW315627   1.702   5.324   1.112 -0.4682  0.8558 -1.9557
 3965SOL    MW415628   1.631   5.361   1.146 -0.0765  0.4506 -0.6300
 3966SOL     OW15629   3.611   2.103   1.007  0.3513  0.1094 -0.2132
 3966SOL    HW215630   3.587   2.066   1.092 -3.5107  1.3668 -0.5718
 3966SOL    HW315631   3.569   2.046   0.943  0.6825  0.8651 -1.1339
 3966SOL    MW415632   3.602   2.091   1.010 -0.1146  0.3750 -0.3820
 3967SOL     OW15633   0.520   3.073   3.409  0.2044 -0.2265  0.0140
 3967SOL    HW215634   0.514   2.978   3.421 -0.2418 -0.3933 -1.4041
 3967SOL    HW315635   0.440   3.097   3.362 -1.6809  1.4666  3.6037
 3967SOL    MW415636   0.508   3.064   3.404 -0.1032 -0.0251  0.3005
 3968SOL     OW15637   6.202   4.638   2.555 -0.0867  0.1586 -0.1432
 3968SOL    HW215638   6.149   4.663   2.630 -0.4189  1.9433 -0.9251
 3968SOL    HW315639   6.145   4.581   2.503 -0.0652 -0.5852  0.6209
 3968SOL    MW415640   6.188   4.634   2.558 -0.1277  0.2959 -0.1456
 3969SOL     OW15641   2.353   0.234   1.375 -0.2757  0.8044  0.4806
 3969SOL    HW215642   2.273   0.222   1.425 -0.9421 -0.8750 -0.8809
 3969SOL    HW315643   2.422   0.197   1.430 -0.7518  0.3983  0.8056
 3969SOL    MW415644   2.351   0.228   1.389 -0.4264  0.5292  0.3439
 3970SOL     OW15645   6.254   2.383   1.625 -0.8741  0.1927  0.0485
 3970SOL    HW215646   6.345   2.393   1.598 -0.7691  0.9678  0.6307
 3970SOL    HW315647   6.203   2.407   1.548 -0.6010  3.3232  0.7052
 3970SOL    MW415648   6.259   2.387   1.612 -0.8242  0.7080  0.2120
 3971SOL     OW15649   2.126   5.930   1.898  0.3230 -0.3989  0.7578
 3971SOL    HW215650   2.199   5.915   1.838  1.8517  0.8547  2.2204
 3971SOL    HW315651   2.093   6.017   1.874 -0.4761 -0.8093  0.3396
 3971SOL    MW415652   2.131   5.940   1.886  0.4193 -0.2876  0.8956
 3972SOL     OW15653   4.758   1.126   4.642 -0.1619 -0.4247 -0.2499
 3972SOL    HW215654   4.689   1.063   4.620 -1.1125 -0.0671  1.5793
 3972SOL    HW315655   4.769   1.177   4.562 -0.3563 -1.9788 -1.3295
 3972SOL    MW415656   4.750   1.124   4.628 -0.3130 -0.5826 -0.1510
 3973SOL     OW15657   2.942   4.317   0.972 -0.4773  0.3889  0.1160
 3973SOL    HW215658   2.931   4.264   1.051  0.1137  0.1455  0.0375
 3973SOL    HW315659   2.852   4.342   0.948 -0.7860 -0.7025  0.0644
 3973SOL    MW415660   2.928   4.313   0.980 -0.4400  0.2128  0.0988
 3974SOL     OW15661   5.243   0.637   1.330  0.8877  0.3186 -0.7528
 3974SOL    HW215662   5.213   0.699   1.397 -1.6821 -0.7303 -0.7983
 3974SOL    HW315663   5.164   0.589   1.306  2.5228 -2.0877 -1.6536
 3974SOL    MW415664   5.228   0.639   1.336  0.7643 -0.1373 -0.8777
 3975SOL     OW15665   1.955   3.200   5.998 -0.2265  0.1332  0.0153
 3975SOL    HW215666   1.974   3.243   6.081 -1.1462  0.3998  0.0984
 3975SOL    HW315667   1.881   3.142   6.018  0.9953 -1.5375 -0.0755
 3975SOL    MW415668   1.947   3.198   6.012 -0.1867 -0.0520  0.0143
 3976SOL     OW15669   4.567   0.477   6.375 -0.4497  0.2089  0.0747
 3976SOL    HW215670   4.591   0.468   6.282 -0.3007 -0.1265  0.1429
 3976SOL    HW315671   4.482   0.520   6.373 -1.5419 -1.8353 -0.3314
 3976SOL    MW415672   4.559   0.481   6.362 -0.5741 -0.1051  0.0301
 3977SOL     OW15673   6.385   4.432   3.698  0.1068  0.4631 -0.0791
 3977SOL    HW215674   6.440   4.397   3.628  1.7212 -0.3302  1.5104
 3977SOL    HW315675   6.399   4.526   3.695  1.8475  0.2450  0.5016
 3977SOL    MW415676   6.394   4.440   3.689  0.5495  0.3297  0.2072
 3978SOL     OW15677   2.060   6.114   1.413  0.6126 -0.6460 -0.0764
 3978SOL    HW215678   1.982   6.083   1.368 -0.2864  0.2473  0.7843
 3978SOL    HW315679   2.124   6.044   1.403 -0.6775 -1.9074  0.1527
 3978SOL    MW415680   2.058   6.101   1.406  0.3238 -0.6946  0.0674
 3979SOL     OW15681   0.340   6.225   3.391 -0.1925 -0.1554  0.0578
 3979SOL    HW215682   0.430   6.217   3.422  0.1772  1.9293 -0.3086
 3979SOL    HW315683   0.348   6.236   3.296 -0.9853 -1.6136 -0.2150
 3979SOL    MW415684   0.353   6.225   3.382 -0.2484 -0.0728 -0.0265
 3980SOL     OW15685   1.603   3.067   0.833  0.2098 -0.1447  0.1627
 3980SOL    HW215686   1.617   2.980   0.871  0.6837  0.1239  0.6212
 3980SOL    HW315687   1.536   3.053   0.767 -0.4500 -0.6884  0.9167
 3980SOL    MW415688   1.596   3.053   0.829  0.1852 -0.1810  0.3227
 3981SOL     OW15689   6.148   1.238   4.644  0.2192  0.5787 -0.0249
 3981SOL    HW215690   6.110   1.228   4.557  1.4022  1.1940 -0.6419
 3981SOL    HW315691   6.179   1.150   4.666  0.0908  0.4609 -0.3078
 3981SOL    MW415692   6.147   1.225   4.636  0.3583  0.6443 -0.1436
 3982SOL     OW15693   3.295   5.155   4.903 -1.1654  0.1413 -0.6735
 3982SOL    HW215694   3.296   5.215   4.978 -1.1345  0.6890 -1.1025
 3982SOL    HW315695   3.286   5.213   4.827 -0.1128 -0.3175 -1.1688
 3982SOL    MW415696   3.294   5.171   4.903 -1.0225  0.1530 -0.7955
 3983SOL     OW15697   3.991   1.439   1.090 -0.3697 -0.1727  0.5858
 3983SOL    HW215698   4.086   1.445   1.076 -0.4718  2.9557  0.4902
 3983SOL    HW315699   3.967   1.353   1.056  2.4745 -1.2561  1.0184
 3983SOL    MW415700   4.000   1.429   1.084 -0.0079  0.0971  0.6303
 3984SOL     OW15701   6.354   5.397   4.198 -0.8165  0.1675  0.2496
 3984SOL    HW215702   6.443   5.373   4.173 -1.0329  0.4067 -0.7824
 3984SOL    HW315703   6.315   5.434   4.119 -2.3904 -1.4906  0.1767
 3984SOL    MW415704   6.360   5.399   4.184 -1.0527 -0.0197  0.1039
 3985SOL     OW15705   4.146   4.063   5.544  0.2899 -0.4400 -0.0019
 3985SOL    HW215706   4.053   4.083   5.557  0.4086  0.5004 -0.4287
 3985SOL    HW315707   4.165   3.993   5.605 -0.8402 -1.0321 -0.2984
 3985SOL    MW415708   4.136   4.057   5.553  0.1564 -0.3940 -0.0973
 3986SOL     OW15709   4.573   3.314   2.943 -0.1135 -0.3709  0.1289
 3986SOL    HW215710   4.661   3.323   2.906 -0.3938 -0.9659 -0.7171
 3986SOL    HW315711   4.514   3.326   2.868 -0.7121 -1.0091  0.4822
 3986SOL    MW415712   4.577   3.317   2.928 -0.2294 -0.5336  0.0639
 3987SOL     OW15713   5.797   3.008   0.808  0.2042  0.1300 -0.2040
 3987SOL    HW215714   5.855   2.935   0.784  1.1439  0.5643  0.6828
 3987SOL    HW315715   5.725   2.966   0.855  0.4746 -0.2811 -0.1476
 3987SOL    MW415716   5.795   2.993   0.811  0.3638  0.1330 -0.0795
 3988SOL     OW15717   1.977   0.864   1.954 -0.2441  0.0284  0.1500
 3988SOL    HW215718   2.068   0.840   1.939 -0.4420 -0.5145 -0.2307
 3988SOL    HW315719   1.980   0.929   2.024  0.2940 -1.3876  1.5016
 3988SOL    MW415720   1.989   0.869   1.961 -0.1992 -0.2301  0.2781
 3989SOL     OW15721   1.266   4.832   6.348 -0.6312  0.3118  0.1922
 3989SOL    HW215722   1.357   4.806   6.334 -0.6044  0.1688  0.6339
 3989SOL    HW315723   1.228   4.761   6.400 -1.6953 -0.9014 -2.1033
 3989SOL    MW415724   1.273   4.820   6.353 -0.7680  0.1329 -0.0524
 3990SOL     OW15725   2.296   4.516   3.351  0.1402  0.2375 -0.1547
 3990SOL    HW215726   2.334   4.506   3.264 -0.1280  0.1261 -0.2621
 3990SOL    HW315727   2.366   4.554   3.404  0.7380 -0.9212 -0.0893
 3990SOL    MW415728   2.310   4.520   3.346  0.1837  0.0699 -0.1603
 3991SOL     OW15729   3.756   0.657   4.206 -1.0451  0.2295 -0.4752
 3991SOL    HW215730   3.784   0.683   4.118  0.4982 -0.2724 -0.1604
 3991SOL    HW315731   3.764   0.738   4.258 -2.6424  0.7050 -0.9222
 3991SOL    MW415732   3.761   0.671   4.202 -1.0522  0.2260 -0.4927
 3992SOL     OW15733   6.201   3.050   5.948  0.2491  0.4108 -0.3082
 3992SOL    HW215734   6.187   2.970   6.000 -1.0383  1.6806  1.4062
 3992SOL    HW315735   6.260   3.022   5.878 -0.9016 -2.2645 -0.3494
 3992SOL    MW415736   6.207   3.036   5.946 -0.0725  0.2254 -0.0874
 3993SOL     OW15737   4.521   1.862   1.409 -0.7889 -0.2753  0.3695
 3993SOL    HW215738   4.580   1.938   1.414 -0.6697 -0.3400 -0.0824
 3993SOL    HW315739   4.434   1.900   1.405 -0.6495 -0.0944 -1.7863
 3993SOL    MW415740   4.518   1.877   1.409 -0.7548 -0.2600  0.0254
 3994SOL     OW15741   1.844   2.194   2.960 -0.1680 -0.0307 -0.0874
 3994SOL    HW215742   1.829   2.109   3.000 -1.7227 -0.2002 -0.9446
 3994SOL    HW315743   1.915   2.180   2.898 -0.0459 -0.5678  0.1744
 3994SOL    MW415744   1.851   2.181   2.957 -0.3570 -0.1239 -0.1659
 3995SOL     OW15745   5.355   0.277   1.309 -0.1620  0.2069  0.3428
 3995SOL    HW215746   5.326   0.334   1.238 -0.6881  0.6813  0.9222
 3995SOL    HW315747   5.450   0.270   1.297 -0.4166 -0.9675 -1.2817
 3995SOL    MW415748   5.364   0.284   1.298 -0.2650  0.1146  0.2049
 3996SOL     OW15749   3.802   6.321   4.836 -0.3438  0.2197  0.3138
 3996SOL    HW215750   3.881   6.335   4.784 -0.8328 -2.1700 -1.1879
 3996SOL    HW315751   3.776   6.410   4.863  2.9160  1.0816  1.1004
 3996SOL    MW415752   3.809   6.335   4.833  0.0217  0.0181  0.2195
 3997SOL     OW15753   2.391   5.984   0.142 -0.6710 -0.0867 -0.3724
 3997SOL    HW215754   2.406   5.898   0.102  2.5198  0.0713  0.1731
 3997SOL    HW315755   2.435   6.046   0.083 -1.5848  0.9740  0.0279
 3997SOL    MW415756   2.399   5.981   0.129 -0.3706  0.0741 -0.2476
 3998SOL     OW15757   3.764   2.768   3.587  0.2089  0.2452 -0.4861
 3998SOL    HW215758   3.748   2.862   3.578  0.2630  0.1588 -1.6625
 3998SOL    HW315759   3.859   2.758   3.584  0.3886  0.3613  2.2685
 3998SOL    MW415760   3.774   2.779   3.586  0.2398  0.2491 -0.2779
 3999SOL     OW15761   1.320   0.362   3.804  0.2715 -0.4559  0.3745
 3999SOL    HW215762   1.273   0.332   3.726  0.1914  0.0065  0.2460
 3999SOL    HW315763   1.331   0.283   3.857 -0.5169 -0.5962  0.3328
 3999SOL    MW415764   1.315   0.347   3.800  0.1569 -0.4134  0.3520
 4000SOL     OW15765   3.613   0.437   4.164 -0.1217  0.0837  0.0165
 4000SOL    HW215766   3.670   0.388   4.104  1.5009  0.8383  0.8929
 4000SOL    HW315767   3.645   0.527   4.160 -2.4212  0.9461 -0.7977
 4000SOL    MW415768   3.625   0.442   4.155 -0.2110  0.2970  0.0247
 4001SOL     OW15769   1.021   2.675   3.536  0.5983 -0.5069  0.0144
 4001SOL    HW215770   1.068   2.621   3.472  0.6770  1.1177 -1.3822
 4001SOL    HW315771   0.930   2.672   3.508  0.4223 -0.8400  0.6180
 4001SOL    MW415772   1.015   2.668   3.524  0.5855 -0.3365 -0.0903
 4002SOL     OW15773   0.998   4.952   1.279 -0.1915 -0.2218  0.1748
 4002SOL    HW215774   1.015   5.046   1.268 -1.5619  0.0034 -0.2487
 4002SOL    HW315775   0.976   4.922   1.191 -4.1868  0.0457  0.9183
 4002SOL    MW415776   0.997   4.960   1.266 -0.8994 -0.1568  0.2170
 4003SOL     OW15777   2.981   2.899   3.973  0.5116  0.3249  0.0224
 4003SOL    HW215778   2.988   2.894   3.878  1.0612 -1.8093  0.1218
 4003SOL    HW315779   2.887   2.896   3.991  0.4111  0.6422 -0.4372
 4003SOL    MW415780   2.970   2.898   3.963  0.5709  0.0851 -0.0251
 4004SOL     OW15781   1.417   5.463   0.760 -0.1253 -0.2117 -0.2079
 4004SOL    HW215782   1.356   5.515   0.708 -2.0336 -1.6310  0.4623
 4004SOL    HW315783   1.386   5.472   0.850  1.1160 -0.4040  0.2626
 4004SOL    MW415784   1.405   5.471   0.765 -0.2133 -0.4243 -0.0574
 4005SOL     OW15785   4.901   6.052   5.909  0.4627  0.3528 -0.1373
 4005SOL    HW215786   4.853   6.115   5.855 -1.4028 -1.5479 -0.8256
 4005SOL    HW315787   4.832   6.004   5.956  1.8087 -1.1643  0.3741
 4005SOL    MW415788   4.886   6.054   5.908  0.3941 -0.0981 -0.1607
 4006SOL     OW15789   4.369   0.920   4.033  0.4405 -0.0141 -0.0534
 4006SOL    HW215790   4.386   0.975   3.957 -0.2027  0.0276 -0.1749
 4006SOL    HW315791   4.360   0.832   3.996  0.0543  0.0174 -0.0363
 4006SOL    MW415792   4.370   0.915   4.018  0.3047 -0.0044 -0.0672
 4007SOL     OW15793   2.919   5.777   3.769  0.0128  0.1657  0.2366
 4007SOL    HW215794   2.958   5.863   3.782 -1.7888  1.1694 -0.7864
 4007SOL    HW315795   2.981   5.731   3.712  1.8687  0.0675  2.1773
 4007SOL    MW415796   2.932   5.782   3.763  0.0200  0.2852  0.3577
 4008SOL     OW15797   2.550   6.120   3.089  0.0209 -0.1865 -0.5789
 4008SOL    HW215798   2.630   6.068   3.076  0.8277  1.0045 -0.5849
 4008SOL    HW315799   2.506   6.118   3.005  1.2273  1.0240 -1.2760
 4008SOL    MW415800   2.555   6.113   3.076  0.2865  0.1304 -0.6717
 4009SOL     OW15801   2.497   3.585   5.719  0.8460 -0.1863  0.4857
 4009SOL    HW215802   2.551   3.527   5.666 -0.1638 -0.4998 -0.2350
 4009SOL    HW315803   2.551   3.663   5.732  1.5482 -0.5758 -0.0376
 4009SOL    MW415804   2.511   3.588   5.714  0.8054 -0.2790  0.3216
 4010SOL     OW15805   1.471   5.829   0.308 -0.1634  0.3280 -0.0006
 4010SOL    HW215806   1.380   5.857   0.314 -0.2325 -0.1487  1.6716
 4010SOL    HW315807   1.475   5.778   0.227 -1.6564 -0.5574  0.4444
 4010SOL    MW415808   1.460   5.826   0.298 -0.3695  0.1483  0.2787
 4011SOL     OW15809   3.501   3.527   1.867 -0.0142 -0.2792  0.1845
 4011SOL    HW215810   3.501   3.596   1.802 -1.0796  0.7112  1.1903
 4011SOL    HW315811   3.594   3.509   1.884  0.3194  1.8301  0.8253
 4011SOL    MW415812   3.513   3.533   1.861 -0.1108  0.1298  0.4017
 4012SOL     OW15813   5.769   4.044   2.778 -0.7547  0.4116  0.1731
 4012SOL    HW215814   5.783   3.954   2.808 -0.1892  0.5976  0.4792
 4012SOL    HW315815   5.857   4.077   2.762 -0.9734  0.8556 -0.0999
 4012SOL    MW415816   5.782   4.036   2.780 -0.7090  0.4947  0.1774
 4013SOL     OW15817   2.803   3.942   0.737 -0.0847  0.0152  0.5713
 4013SOL    HW215818   2.711   3.938   0.711  0.4340  0.2243 -1.4965
 4013SOL    HW315819   2.827   3.850   0.752 -0.7398  0.0020  1.6891
 4013SOL    MW415820   2.794   3.929   0.735 -0.1027  0.0411  0.4460
 4014SOL     OW15821   0.251   3.436   6.246  0.0310 -1.2121  0.3201
 4014SOL    HW215822   0.214   3.409   6.330 -1.5253  0.2771  0.1575
 4014SOL    HW315823   0.206   3.517   6.224  1.2203 -0.9564 -1.4284
 4014SOL    MW415824   0.240   3.443   6.254 -0.0175 -0.9819  0.0680
 4015SOL     OW15825   0.022   2.218   3.147  0.1671 -0.5796  0.3219
 4015SOL    HW215826   0.064   2.202   3.231 -0.7316 -0.6909  0.7618
 4015SOL    HW315827  -0.016   2.305   3.154  0.7235 -0.2854 -0.2435
 4015SOL    MW415828   0.023   2.227   3.159  0.1219 -0.5554  0.3053
 4016SOL     OW15829   4.896   1.888   3.419 -0.0389  0.7769  1.0613
 4016SOL    HW215830   4.950   1.896   3.498  1.9345 -0.2806 -0.0984
 4016SOL    HW315831   4.959   1.892   3.347 -1.7898  1.7428 -0.4843
 4016SOL    MW415832   4.911   1.890   3.420 -0.0095  0.7648  0.7044
 4017SOL     OW15833   2.693   6.274   1.522  0.8167  0.2971 -0.3836
 4017SOL    HW215834   2.648   6.209   1.468  0.5720 -0.6163  0.8571
 4017SOL    HW315835   2.643   6.355   1.511 -0.2989 -0.3411 -0.1403
 4017SOL    MW415836   2.680   6.276   1.514  0.6372  0.0924 -0.1878
 4018SOL     OW15837   1.163   3.091   5.414 -0.0163 -0.0779 -0.0220
 4018SOL    HW215838   1.206   3.028   5.356 -0.2108 -0.0169 -0.2338
 4018SOL    HW315839   1.214   3.171   5.404  1.9269 -0.8840  2.2807
 4018SOL    MW415840   1.175   3.093   5.405  0.2144 -0.1762  0.2539
 4019SOL     OW15841   0.900   1.613   1.424 -0.5102  0.6405 -0.6434
 4019SOL    HW215842   0.931   1.694   1.464 -0.6131  1.1359 -1.5505
 4019SOL    HW315843   0.884   1.554   1.498  1.1371  0.8766 -0.0492
 4019SOL    MW415844   0.902   1.616   1.439 -0.3064  0.7370 -0.6847
 4020SOL     OW15845   6.381   4.145   0.828 -0.0891 -0.2354 -0.0579
 4020SOL    HW215846   6.393   4.163   0.922 -1.0986  1.5468 -0.2366
 4020SOL    HW315847   6.291   4.172   0.810 -0.1068 -1.1295 -1.4384
 4020SOL    MW415848   6.371   4.151   0.838 -0.2246 -0.1183 -0.2636
 4021SOL     OW15849   0.590   4.522   2.746 -0.6445  0.3949 -0.1001
 4021SOL    HW215850   0.533   4.584   2.790 -1.1938 -0.5392  0.5309
 4021SOL    HW315851   0.636   4.476   2.816 -0.3900 -0.0488 -0.5422
 4021SOL    MW415852   0.589   4.524   2.761 -0.6834  0.2131 -0.0752
 4022SOL     OW15853   2.887   3.598   2.759  0.2253 -0.4921  0.4023
 4022SOL    HW215854   2.798   3.613   2.728 -0.4308 -0.3400  2.2053
 4022SOL    HW315855   2.934   3.679   2.739 -0.2137 -0.3456 -0.0365
 4022SOL    MW415856   2.881   3.611   2.753  0.0808 -0.4527  0.5823
 4023SOL     OW15857   0.232   1.588   1.317  0.4493  0.0981  0.5379
 4023SOL    HW215858   0.312   1.640   1.312 -0.2289  1.0803 -0.2519
 4023SOL    HW315859   0.235   1.531   1.240 -0.0844  0.8395 -0.0411
 4023SOL    MW415860   0.243   1.587   1.306  0.2894  0.3255  0.3573
 4024SOL     OW15861   2.477   0.158   5.294 -0.6260  0.5607  0.4639
 4024SOL    HW215862   2.547   0.220   5.317  0.1691 -0.0416 -0.2469
 4024SOL    HW315863   2.524   0.079   5.265 -1.6075  0.1002  0.0850
 4024SOL    MW415864   2.493   0.156   5.293 -0.6506  0.4205  0.3201
 4025SOL     OW15865   0.902   4.806   4.114  1.0540  0.0916 -0.2000
 4025SOL    HW215866   0.922   4.845   4.029  0.4594  0.7609 -0.0491
 4025SOL    HW315867   0.835   4.864   4.152  0.7536 -0.6213  0.3977
 4025SOL    MW415868   0.896   4.819   4.108  0.9359  0.0858 -0.1012
 4026SOL     OW15869   0.626   5.524   0.924 -0.1634  0.3094  0.8604
 4026SOL    HW215870   0.592   5.589   0.984  1.2093 -0.1679  2.2267
 4026SOL    HW315871   0.619   5.441   0.972  1.1518 -0.0498  0.4752
 4026SOL    MW415872   0.621   5.521   0.938  0.1912  0.1991  0.9898
 4027SOL     OW15873   0.600   3.351   4.818 -0.6043 -0.5936  0.0624
 4027SOL    HW215874   0.669   3.308   4.868 -1.4477 -2.0171  0.0331
 4027SOL    HW315875   0.585   3.294   4.744 -0.0479  1.0069 -1.3595
 4027SOL    MW415876   0.607   3.338   4.815 -0.6422 -0.5703 -0.1291
 4028SOL     OW15877   1.161   3.530   2.062  0.2436  1.0377  0.1622
 4028SOL    HW215878   1.217   3.496   1.993 -0.5145 -0.2478  0.1466
 4028SOL    HW315879   1.219   3.545   2.136  0.5306 -0.9244  0.3732
 4028SOL    MW415880   1.176   3.528   2.063  0.1815  0.6092  0.1880
 4029SOL     OW15881   3.363   3.421   0.377  0.0321  0.0482  0.0499
 4029SOL    HW215882   3.322   3.373   0.304 -2.6273  1.4971  0.4786
 4029SOL    HW315883   3.290   3.459   0.425  1.8283  0.8757  2.3105
 4029SOL    MW415884   3.348   3.419   0.373 -0.0818  0.3486  0.4048
 4030SOL     OW15885   5.448   0.944   6.360 -0.2764  0.7398  0.4445
 4030SOL    HW215886   5.414   0.982   6.279  2.0325  0.4238 -0.7371
 4030SOL    HW315887   5.535   0.982   6.370  1.5434 -2.9049  0.0662
 4030SOL    MW415888   5.455   0.954   6.351  0.2683  0.2172  0.2387
 4031SOL     OW15889   5.977   2.638   0.375  0.2974  0.2120 -0.0819
 4031SOL    HW215890   6.020   2.723   0.382  0.4367  0.2901 -1.4675
 4031SOL    HW315891   6.049   2.575   0.382  0.3521  0.2638 -0.1607
 4031SOL    MW415892   5.992   2.641   0.377  0.3230  0.2292 -0.2751
 4032SOL     OW15893   5.841   2.628   3.158  0.0288  0.4495 -0.4604
 4032SOL    HW215894   5.902   2.698   3.134  0.0218  0.2617 -1.0376
 4032SOL    HW315895   5.856   2.615   3.251 -0.2748  1.5206 -0.2453
 4032SOL    MW415896   5.851   2.636   3.167 -0.0122  0.5660 -0.5082
 4033SOL     OW15897   0.717   3.469   3.671 -0.1536 -0.1363 -0.1044
 4033SOL    HW215898   0.697   3.561   3.691 -1.4219 -0.3931 -0.0806
 4033SOL    HW315899   0.646   3.441   3.613  0.7355 -0.8446 -0.8788
 4033SOL    MW415900   0.705   3.478   3.666 -0.2036 -0.2636 -0.2034
 4034SOL     OW15901   4.904   4.561   3.094  0.0829  0.6840  0.1361
 4034SOL    HW215902   4.906   4.474   3.056 -1.0133  1.1499 -1.1008
 4034SOL    HW315903   4.845   4.554   3.169  2.5334 -0.3235  2.1169
 4034SOL    MW415904   4.896   4.549   3.099  0.2616  0.6125  0.2343
 4035SOL     OW15905   3.653   6.173   1.824 -0.4230 -0.0591 -0.0580
 4035SOL    HW215906   3.646   6.081   1.798  1.1836  0.2857 -2.0085
 4035SOL    HW315907   3.568   6.211   1.801 -1.0503 -1.0126  0.6345
 4035SOL    MW415908   3.641   6.166   1.817 -0.2938 -0.1394 -0.2240
 4036SOL     OW15909   0.631   4.686   1.247  0.2514 -0.9583  0.2005
 4036SOL    HW215910   0.663   4.722   1.330  0.8457  0.1897 -0.5132
 4036SOL    HW315911   0.563   4.747   1.219  2.5585  0.7651 -1.9696
 4036SOL    MW415912   0.626   4.699   1.254  0.6342 -0.5794 -0.1800
 4037SOL     OW15913   3.692   2.742   3.865  0.5506 -0.2949 -0.4057
 4037SOL    HW215914   3.704   2.739   3.770  0.7656  2.1182 -0.5076
 4037SOL    HW315915   3.599   2.723   3.878  0.4571 -0.3495 -1.1213
 4037SOL    MW415916   3.681   2.739   3.854  0.5666  0.0163 -0.5135
 4038SOL     OW15917   6.195   4.452   0.314 -0.8913 -0.2527 -0.2461
 4038SOL    HW215918   6.151   4.441   0.229 -0.1455  0.4555 -0.7363
 4038SOL    HW315919   6.288   4.460   0.292 -0.6102 -0.8119  0.7039
 4038SOL    MW415920   6.201   4.452   0.300 -0.7558 -0.2331 -0.1854
 4039SOL     OW15921   2.270   4.582   5.202 -0.2578  0.8073 -0.7606
 4039SOL    HW215922   2.176   4.592   5.219 -0.1946  0.7435 -0.3791
 4039SOL    HW315923   2.274   4.521   5.128 -0.5001  0.3147 -0.3780
 4039SOL    MW415924   2.258   4.575   5.194 -0.2814  0.7339 -0.6597
 4040SOL     OW15925   3.068   4.509   1.126 -0.5078  0.4558 -0.2754
 4040SOL    HW215926   3.082   4.571   1.054 -0.7130 -0.9109 -1.5551
 4040SOL    HW315927   3.030   4.431   1.083 -0.6765 -0.3856  1.3262
 4040SOL    MW415928   3.065   4.507   1.111 -0.5571  0.1645 -0.2330
 4041SOL     OW15929   1.094   6.154   1.427 -0.1884  0.0405  0.3813
 4041SOL    HW215930   1.041   6.140   1.349 -0.2656 -0.4031  0.5103
 4041SOL    HW315931   1.076   6.078   1.482  0.7814 -0.2502  0.3136
 4041SOL    MW415932   1.085   6.142   1.424 -0.0706 -0.0564  0.3894
 4042SOL     OW15933   2.104   4.190   2.143  0.8746  0.5469 -0.2171
 4042SOL    HW215934   2.139   4.105   2.115  3.6041  2.4920 -3.3574
 4042SOL    HW315935   2.067   4.228   2.064 -0.7634  2.1825  1.2372
 4042SOL    MW415936   2.104   4.184   2.129  1.0186  1.0194 -0.4396
 4043SOL     OW15937   4.883   4.608   4.223  0.6863  0.0765 -0.0048
 4043SOL    HW215938   4.804   4.564   4.194  0.5615  0.9308 -1.0200
 4043SOL    HW315939   4.864   4.635   4.313 -0.3895  0.7338 -0.4112
 4043SOL    MW415940   4.870   4.606   4.231  0.5279  0.2760 -0.1924
 4044SOL     OW15941   2.644   4.441   5.345 -0.1216  0.9495 -0.2876
 4044SOL    HW215942   2.614   4.396   5.266 -0.3013  0.3445  0.1224
 4044SOL    HW315943   2.564   4.460   5.394  0.1650 -2.5085  1.8143
 4044SOL    MW415944   2.629   4.438   5.341 -0.1075  0.4135  0.0438
 4045SOL     OW15945   6.272   5.482   5.618 -0.3837 -0.2505 -0.0732
 4045SOL    HW215946   6.296   5.505   5.528 -1.6671 -0.0013 -0.3733
 4045SOL    HW315947   6.219   5.403   5.610 -1.0862  0.1494  0.3734
 4045SOL    MW415948   6.268   5.475   5.605 -0.6457 -0.1649 -0.0538
 4046SOL     OW15949   5.478   4.455   3.797  0.2232  0.4443 -0.4028
 4046SOL    HW215950   5.447   4.413   3.717 -0.3043  1.8638 -0.9666
 4046SOL    HW315951   5.567   4.482   3.777  0.2151  0.4843 -0.3852
 4046SOL    MW415952   5.486   4.453   3.784  0.1526  0.6368 -0.4748
 4047SOL     OW15953   3.490   2.422   0.496  0.3291 -0.1950  0.4237
 4047SOL    HW215954   3.415   2.442   0.552 -0.1030 -0.5162 -0.0308
 4047SOL    HW315955   3.564   2.418   0.556 -0.0362  0.0130  0.8957
 4047SOL    MW415956   3.490   2.424   0.511  0.2239 -0.2099  0.4260
 4048SOL     OW15957   3.253   2.218   0.863 -0.0382 -0.2084 -0.3433
 4048SOL    HW215958   3.239   2.295   0.808 -0.3210 -0.9707 -1.3852
 4048SOL    HW315959   3.321   2.244   0.925 -0.9750  1.2565  0.1144
 4048SOL    MW415960   3.260   2.232   0.864 -0.1991 -0.1157 -0.4204
 4049SOL     OW15961   0.219   4.596   2.437  0.2555  0.2120 -0.0977
 4049SOL    HW215962   0.165   4.669   2.467 -0.1975 -0.7454  1.5686
 4049SOL    HW315963   0.163   4.548   2.376  0.0095  0.4116 -0.0302
 4049SOL    MW415964   0.204   4.600   2.433  0.1633  0.1120  0.1311
 4050SOL     OW15965   4.677   3.753   5.200 -0.1675  0.0990 -0.1530
 4050SOL    HW215966   4.752   3.781   5.148 -0.6921 -1.6779 -1.9994
 4050SOL    HW315967   4.603   3.802   5.164 -0.0511  1.4201  1.2862
 4050SOL    MW415968   4.677   3.763   5.188 -0.2214  0.0389 -0.2067
 4051SOL     OW15969   6.369   0.269   3.493 -0.2347  0.1990 -0.0187
 4051SOL    HW215970   6.314   0.229   3.426 -0.9881 -0.0165  0.7247
 4051SOL    HW315971   6.326   0.352   3.513  0.7092  0.8871 -0.7360
 4051SOL    MW415972   6.356   0.275   3.487 -0.2096  0.2614 -0.0153
 4052SOL     OW15973   1.575   2.854   6.339 -0.1474  0.2997 -0.1500
 4052SOL    HW215974   1.663   2.852   6.303 -0.1920  1.2881 -0.3411
 4052SOL    HW315975   1.517   2.847   6.263 -0.2868 -2.3328  0.0936
 4052SOL    MW415976   1.579   2.853   6.324 -0.1717  0.0828 -0.1430
 4053SOL     OW15977   4.976   1.123   4.816 -0.0317 -0.0510  0.2746
 4053SOL    HW215978   4.906   1.128   4.750  0.1951  0.1281  0.0455
 4053SOL    HW315979   5.047   1.076   4.772  0.7901  1.5736 -0.2176
 4053SOL    MW415980   4.976   1.117   4.801  0.1067  0.1870  0.1794
 4054SOL     OW15981   0.956   5.241   5.702  0.1089 -0.2353 -0.3337
 4054SOL    HW215982   0.929   5.189   5.628  2.8777  2.5885 -3.7368
 4054SOL    HW315983   1.033   5.196   5.737  0.4440 -0.2066 -1.0250
 4054SOL    MW415984   0.963   5.228   5.697  0.5185  0.1410 -0.8739
 4055SOL     OW15985   5.233   4.210   1.035  0.4553 -0.2543  0.0909
 4055SOL    HW215986   5.188   4.173   0.959  2.8578  1.5590 -2.4687
 4055SOL    HW315987   5.182   4.288   1.057  0.4919 -0.0005 -0.6654
 4055SOL    MW415988   5.220   4.216   1.028  0.7771  0.0184 -0.3466
 4056SOL     OW15989   4.450   2.094   5.270 -0.6813  0.4233 -0.6564
 4056SOL    HW215990   4.470   2.054   5.355 -3.4203  0.8177  0.2703
 4056SOL    HW315991   4.489   2.182   5.276 -2.2086  1.0671  0.9381
 4056SOL    MW415992   4.458   2.101   5.282 -1.2442  0.5603 -0.3238
 4057SOL     OW15993   5.891   5.829   1.090 -0.0361  0.0090 -0.7771
 4057SOL    HW215994   5.955   5.862   1.153  1.3290  0.6501 -2.4110
 4057SOL    HW315995   5.902   5.734   1.092 -1.1604 -0.1371  1.0598
 4057SOL    MW415996   5.901   5.821   1.099 -0.0043  0.0743 -0.7503
 4058SOL     OW15997   3.248   2.000   1.244 -0.4215 -0.0313  0.1768
 4058SOL    HW215998   3.206   1.991   1.159  0.1560 -1.5835  0.0363
 4058SOL    HW315999   3.237   2.093   1.266 -3.5485 -0.2517 -0.0218
 4058SOL    MW416000   3.241   2.011   1.236 -0.7579 -0.2651  0.1320
 4059SOL     OW16001   6.322   4.228   2.844  0.2041  0.1807 -0.6399
 4059SOL    HW216002   6.416   4.211   2.847 -0.1786 -2.2787  0.2346
 4059SOL    HW316003   6.314   4.309   2.795  2.6656 -0.6376 -2.6623
 4059SOL    MW416004   6.333   4.236   2.838  0.4784 -0.2517 -0.7914
 4060SOL     OW16005   0.016   5.556   0.741 -0.7565 -0.4220  0.4862
 4060SOL    HW216006   0.102   5.585   0.710 -1.6702  1.3459 -0.5349
 4060SOL    HW316007  -0.021   5.508   0.667 -0.8781 -0.6680  0.7069
 4060SOL    MW416008   0.023   5.554   0.727 -0.8931 -0.2212  0.3806
 4061SOL     OW16009   6.350   4.030   3.869 -0.1304  0.1181  0.3121
 4061SOL    HW216010   6.301   4.111   3.853  0.1072  1.0043  3.5335
 4061SOL    HW316011   6.303   3.987   3.940  1.5927 -0.9448  0.8538
 4061SOL    MW416012   6.337   4.035   3.876  0.1283  0.0948  0.8086
 4062SOL     OW16013   4.985   3.313   2.178 -0.3927  0.4206  0.0514
 4062SOL    HW216014   4.967   3.407   2.186 -4.1984 -0.1607  0.4872
 4062SOL    HW316015   4.906   3.271   2.211  1.3740 -3.0032  0.3692
 4062SOL    MW416016   4.972   3.320   2.183 -0.6617 -0.1078  0.1508
 4063SOL     OW16017   3.164   2.887   4.244  0.0712  0.1786 -0.0074
 4063SOL    HW216018   3.166   2.962   4.304  0.7476  0.2490 -0.1160
 4063SOL    HW316019   3.216   2.916   4.169  0.8655 -0.6431  0.2242
 4063SOL    MW416020   3.171   2.901   4.242  0.2652  0.0795  0.0089
 4064SOL     OW16021   6.143   0.725   1.666  0.0960  0.7244 -0.2928
 4064SOL    HW216022   6.206   0.795   1.682 -0.2928  0.5717  2.3843
 4064SOL    HW316023   6.060   0.760   1.699 -0.0780 -0.9697  1.2413
 4064SOL    MW416024   6.140   0.739   1.673  0.0218  0.4807  0.2628
 4065SOL     OW16025   6.117   1.919   3.473  0.1795  0.0749 -0.0197
 4065SOL    HW216026   6.151   1.876   3.395 -1.0925  0.5658 -0.8927
 4065SOL    HW316027   6.189   1.918   3.536  0.6549 -1.9876 -0.5271
 4065SOL    MW416028   6.131   1.914   3.471  0.0744 -0.1324 -0.2019
 4066SOL     OW16029   3.460   0.280   3.033  0.2725 -0.0002 -0.1926
 4066SOL    HW216030   3.530   0.240   2.981 -0.4402  0.7979 -1.8221
 4066SOL    HW316031   3.454   0.225   3.111  0.2719 -2.2551 -1.6840
 4066SOL    MW416032   3.468   0.267   3.036  0.1784 -0.1924 -0.6044
 4067SOL     OW16033   5.516   3.960   4.547 -0.0946 -0.3860 -0.3640
 4067SOL    HW216034   5.471   3.895   4.601 -0.3268 -0.8066 -1.0499
 4067SOL    HW316035   5.607   3.955   4.574 -0.2969 -0.2031  0.3729
 4067SOL    MW416036   5.522   3.951   4.558 -0.1519 -0.4174 -0.3573
 4068SOL     OW16037   2.847   0.559   3.784 -0.0164 -0.4302 -0.1767
 4068SOL    HW216038   2.897   0.640   3.770  1.1957 -1.0936  0.1606
 4068SOL    HW316039   2.831   0.557   3.878 -3.2795  1.2125 -0.5408
 4068SOL    MW416040   2.851   0.570   3.794 -0.2870 -0.3010 -0.1803
 4069SOL     OW16041   4.764   4.213   5.838 -0.0345  0.0248  0.2734
 4069SOL    HW216042   4.722   4.279   5.894 -0.6610  0.2103 -0.3958
 4069SOL    HW316043   4.801   4.150   5.899 -1.7405 -0.4310  0.8936
 4069SOL    MW416044   4.763   4.214   5.853 -0.3422 -0.0109  0.2670
 4070SOL     OW16045   5.244   2.094   5.212 -0.3345  0.4119  0.2835
 4070SOL    HW216046   5.276   2.012   5.249 -1.4192  0.0212  0.4171
 4070SOL    HW316047   5.273   2.162   5.272  0.0589  0.0548  0.4971
 4070SOL    MW416048   5.252   2.092   5.225 -0.4257  0.3132  0.3293
 4071SOL     OW16049   0.696   4.322   0.207 -0.4554 -0.1376 -0.2728
 4071SOL    HW216050   0.609   4.312   0.167 -0.0187 -0.0954 -1.2679
 4071SOL    HW316051   0.731   4.402   0.168  0.9738 -1.4092 -1.7482
 4071SOL    MW416052   0.689   4.331   0.196 -0.2092 -0.2998 -0.5987
 4072SOL     OW16053   5.864   6.015   5.418  0.0127 -0.1273 -0.1525
 4072SOL    HW216054   5.845   5.929   5.455  0.0782  0.4006  1.1516
 4072SOL    HW316055   5.951   6.038   5.452  0.0254  0.4318 -0.5331
 4072SOL    MW416056   5.873   6.007   5.427  0.0230  0.0161 -0.0307
 4073SOL     OW16057   4.595   1.721   0.662  0.4691  0.3374 -0.3904
 4073SOL    HW216058   4.507   1.688   0.640  0.6668  0.5027 -1.5070
 4073SOL    HW316059   4.579   1.797   0.718 -0.0948  0.2527 -0.4257
 4073SOL    MW416060   4.581   1.726   0.666  0.4208  0.3481 -0.5424
 4074SOL     OW16061   5.345   1.492   6.077 -0.0964 -0.3240 -0.2906
 4074SOL    HW216062   5.297   1.540   6.144  0.1245  0.6050 -0.7723
 4074SOL    HW316063   5.283   1.484   6.004  0.2957  0.4532 -0.7292
 4074SOL    MW416064   5.330   1.497   6.076 -0.0155 -0.0989 -0.4120
 4075SOL     OW16065   0.587   2.937   1.979  0.1998 -0.6486  0.1779
 4075SOL    HW216066   0.573   3.031   1.987 -2.8979 -1.0826  1.4807
 4075SOL    HW316067   0.546   2.913   1.896  1.1467 -0.8610 -0.2443
 4075SOL    MW416068   0.580   2.946   1.969 -0.0840 -0.7339  0.2941
 4076SOL     OW16069   1.907   0.178   0.638  0.4219  0.8261 -0.1531
 4076SOL    HW216070   1.933   0.251   0.583 -0.9536  0.8746 -0.7926
 4076SOL    HW316071   1.987   0.128   0.652  1.2169  1.9956 -0.3966
 4076SOL    MW416072   1.921   0.181   0.633  0.3453  0.9868 -0.2696
 4077SOL     OW16073   3.809   5.161   2.104  0.5029  0.0790  0.8685
 4077SOL    HW216074   3.718   5.130   2.095  0.1388  1.2545  0.2137
 4077SOL    HW316075   3.856   5.088   2.143 -0.6390 -0.7212  0.7896
 4077SOL    MW416076   3.803   5.147   2.108  0.3042  0.1285  0.7717
 4078SOL     OW16077   0.167   2.577   2.589  0.2672  0.0133  0.8188
 4078SOL    HW216078   0.087   2.597   2.638 -0.0016 -1.1096  0.8726
 4078SOL    HW316079   0.141   2.506   2.530  1.1686 -0.1898  0.6613
 4078SOL    MW416080   0.153   2.570   2.588  0.3507 -0.1617  0.8051
 4079SOL     OW16081   6.124   3.369   1.691  0.1034 -0.6531 -0.2831
 4079SOL    HW216082   6.110   3.428   1.765 -2.0673 -0.5716 -0.7152
 4079SOL    HW316083   6.036   3.346   1.660  0.9049 -0.5139 -2.9766
 4079SOL    MW416084   6.111   3.374   1.696 -0.0773 -0.6240 -0.6955
 4080SOL     OW16085   0.916   6.199   2.853 -0.5929 -0.0141 -0.0148
 4080SOL    HW216086   0.867   6.271   2.892  1.0861  0.0530  2.1611
 4080SOL    HW316087   0.892   6.122   2.906  1.3255 -0.0381  0.8794
 4080SOL    MW416088   0.906   6.198   2.865 -0.1183 -0.0084  0.3902
 4081SOL     OW16089   5.972   3.512   3.466  0.0508  0.4342  0.2629
 4081SOL    HW216090   5.942   3.592   3.423  1.1105  0.2311 -0.9176
 4081SOL    HW316091   6.067   3.515   3.460  0.1517 -0.5053  0.9857
 4081SOL    MW416092   5.981   3.523   3.460  0.2040  0.2834  0.2025
 4082SOL     OW16093   1.353   0.136   5.188  0.1528  0.1387  0.6182
 4082SOL    HW216094   1.379   0.057   5.141 -0.4826  0.3913 -0.1690
 4082SOL    HW316095   1.284   0.106   5.248 -0.5715  0.2204 -0.1694
 4082SOL    MW416096   1.347   0.122   5.190 -0.0266  0.1828  0.4104
 4083SOL     OW16097   3.616   1.537   1.951  0.0927 -0.4580 -0.5063
 4083SOL    HW216098   3.609   1.572   2.039 -0.0346 -0.1755 -0.6267
 4083SOL    HW316099   3.574   1.451   1.955  1.4683 -1.1303  0.0764
 4083SOL    MW416100   3.609   1.530   1.963  0.2574 -0.5095 -0.4453
 4084SOL     OW16101   5.403   4.211   5.255 -0.1957  0.0102 -0.5876
 4084SOL    HW216102   5.491   4.208   5.218 -0.2131 -2.7301 -0.5503
 4084SOL    HW316103   5.351   4.152   5.201 -1.7180  0.5832  0.1839
 4084SOL    MW416104   5.408   4.203   5.243 -0.3988 -0.2757 -0.4809
 4085SOL     OW16105   0.340   2.569   0.909 -0.1977  0.1379  1.0172
 4085SOL    HW216106   0.417   2.603   0.954 -0.8924  0.9449  1.6182
 4085SOL    HW316107   0.304   2.645   0.863 -0.3166 -0.3607  0.2713
 4085SOL    MW416108   0.346   2.584   0.909 -0.3050  0.1786  0.9981
 4086SOL     OW16109   1.850   2.965   3.139 -0.1272  0.4108  0.4686
 4086SOL    HW216110   1.899   2.920   3.208 -0.4458 -2.0175 -0.7771
 4086SOL    HW316111   1.810   3.040   3.183  0.1266 -0.7195  2.7829
 4086SOL    MW416112   1.851   2.969   3.154 -0.1357 -0.0587  0.6096
 4087SOL     OW16113   5.333   4.213   6.370  0.0323 -0.5616  0.2056
 4087SOL    HW216114   5.332   4.118   6.373  0.9739 -0.5752  0.3784
 4087SOL    HW316115   5.308   4.234   6.280  1.4772 -1.0385 -0.3363
 4087SOL    MW416116   5.330   4.203   6.358  0.3472 -0.6264  0.1569
 4088SOL     OW16117   0.443   0.366   1.688 -0.0296 -0.2153  0.5331
 4088SOL    HW216118   0.439   0.439   1.626 -1.9740 -0.8692 -0.1903
 4088SOL    HW316119   0.523   0.319   1.663 -0.5598 -0.2474 -1.2676
 4088SOL    MW416120   0.453   0.369   1.677 -0.3561 -0.3058  0.2001
 4089SOL     OW16121   5.062   3.405   0.247  0.5212 -0.1781 -0.5798
 4089SOL    HW216122   5.026   3.408   0.335  0.7923 -1.9689 -0.3655
 4089SOL    HW316123   5.151   3.371   0.258  1.2468  1.3312 -1.3899
 4089SOL    MW416124   5.069   3.401   0.260  0.6527 -0.2152 -0.6584
 4090SOL     OW16125   0.049   2.599   3.907  0.1881 -0.7808  0.2743
 4090SOL    HW216126   0.019   2.685   3.938  0.4157 -0.2283 -0.9772
 4090SOL    HW316127   0.025   2.597   3.815 -0.3294 -2.3174  0.4108
 4090SOL    MW416128   0.042   2.610   3.899  0.1499 -0.9106  0.1272
 4091SOL     OW16129   3.957   4.754   2.009 -0.5955  0.4807  0.3758
 4091SOL    HW216130   3.937   4.785   2.097  1.8012 -0.1075  1.2218
 4091SOL    HW316131   4.015   4.822   1.973 -0.7685  0.2426 -0.3593
 4091SOL    MW416132   3.962   4.767   2.016 -0.3021  0.3717  0.3904
 4092SOL     OW16133   3.429   4.558   6.469 -0.2060  0.7111  0.1783
 4092SOL    HW216134   3.371   4.618   6.517  1.1437  0.7357  1.8914
 4092SOL    HW316135   3.482   4.616   6.413 -0.7729  0.8382 -0.2296
 4092SOL    MW416136   3.429   4.574   6.468 -0.1028  0.7311  0.3505
 4093SOL     OW16137   5.865   3.683   3.197  0.2050 -0.2588  0.2765
 4093SOL    HW216138   5.951   3.654   3.165  1.3884  1.9054  1.2997
 4093SOL    HW316139   5.883   3.762   3.247 -2.5513  0.8911 -0.3707
 4093SOL    MW416140   5.879   3.689   3.199 -0.0025  0.1784  0.3261
 4094SOL     OW16141   1.717   4.550   2.338 -0.4127 -0.3013  0.2160
 4094SOL    HW216142   1.647   4.615   2.329 -1.7792 -1.6416  0.8224
 4094SOL    HW316143   1.683   4.487   2.402 -0.0525 -2.7931 -1.9062
 4094SOL    MW416144   1.703   4.551   2.345 -0.5455 -0.8069  0.0160
 4095SOL     OW16145   1.708   0.765   1.066  0.1251 -0.3958  0.1357
 4095SOL    HW216146   1.771   0.830   1.036  1.4205 -1.1427  1.1346
 4095SOL    HW316147   1.727   0.687   1.015 -0.2521 -0.5080  0.1629
 4095SOL    MW416148   1.719   0.763   1.056  0.2462 -0.5092  0.2711
 4096SOL     OW16149   4.383   0.828   6.263  0.1755  0.3852  0.1254
 4096SOL    HW216150   4.330   0.908   6.257 -1.1695 -0.5162 -0.5006
 4096SOL    HW316151   4.391   0.798   6.172  0.4961 -0.2970  0.3757
 4096SOL    MW416152   4.377   0.835   6.250  0.0403  0.1762  0.0758
 4097SOL     OW16153   4.206   3.181   5.821 -0.0407 -0.0296 -0.1747
 4097SOL    HW216154   4.293   3.219   5.812 -0.2235  0.1566 -1.4064
 4097SOL    HW316155   4.146   3.252   5.796 -0.4305 -0.8288 -1.6276
 4097SOL    MW416156   4.209   3.196   5.816 -0.1162 -0.1105 -0.5289
 4098SOL     OW16157   4.920   3.578   2.211 -0.0224 -0.0539  0.3295
 4098SOL    HW216158   4.830   3.610   2.210 -0.1692 -0.4637  0.1575
 4098SOL    HW316159   4.957   3.607   2.128  0.6793  1.9697  1.2829
 4098SOL    MW416160   4.913   3.586   2.200  0.0508  0.1590  0.4326
 4099SOL     OW16161   3.665   1.585   2.850  0.0177  0.4984 -0.1532
 4099SOL    HW216162   3.754   1.551   2.860 -0.7162 -1.1498  1.3737
 4099SOL    HW316163   3.677   1.679   2.832  2.0511  0.2876 -0.1360
 4099SOL    MW416164   3.678   1.593   2.849  0.1892  0.2531  0.0505
 4100SOL     OW16165   4.756   1.464   5.592  0.0313 -0.3621  0.4920
 4100SOL    HW216166   4.764   1.437   5.683  0.2236  1.4218  1.0370
 4100SOL    HW316167   4.818   1.536   5.582 -0.0724 -0.4368 -1.0201
 4100SOL    MW416168   4.765   1.470   5.603  0.0430 -0.1366  0.3644
 4101SOL     OW16169   2.203   0.148   5.026  0.2172 -0.1618 -0.4024
 4101SOL    HW216170   2.207   0.198   5.107  0.1086  1.2142 -1.2151
 4101SOL    HW316171   2.169   0.062   5.052 -0.3264  0.4300  0.9092
 4101SOL    MW416172   2.199   0.143   5.040  0.1312  0.0978 -0.3366
 4102SOL     OW16173   3.188   1.825   4.741  0.7570  0.4862 -0.2304
 4102SOL    HW216174   3.119   1.813   4.806  0.6084  1.0476 -0.2759
 4102SOL    HW316175   3.160   1.771   4.667 -0.0280  1.2863 -0.5411
 4102SOL    MW416176   3.175   1.816   4.740  0.6338  0.6658 -0.2774
 4103SOL     OW16177   5.508   0.506   4.278  0.2819  0.1201  0.1305
 4103SOL    HW216178   5.554   0.424   4.294 -0.0739 -0.3422 -1.0653
 4103SOL    HW316179   5.557   0.571   4.327 -0.8697 -1.1515  3.2118
 4103SOL    MW416180   5.520   0.504   4.286  0.0830 -0.1087  0.3793
 4104SOL     OW16181   2.470   6.087   0.995 -0.0014 -0.2254  0.4328
 4104SOL    HW216182   2.415   6.143   0.941  0.4870 -1.1648 -1.1055
 4104SOL    HW316183   2.409   6.036   1.047 -0.5277  0.0397  0.0830
 4104SOL    MW416184   2.455   6.088   0.994 -0.0064 -0.3144  0.1837
 4105SOL     OW16185   5.060   1.665   3.051  0.4154  0.1417  0.3750
 4105SOL    HW216186   5.134   1.609   3.071 -0.8425 -1.5318  0.5203
 4105SOL    HW316187   5.078   1.746   3.099  2.4240  0.0293 -0.1114
 4105SOL    MW416188   5.072   1.669   3.060  0.5145 -0.0940  0.3300
 4106SOL     OW16189   2.484   3.013   4.448  0.6654  0.1083  0.0209
 4106SOL    HW216190   2.429   3.082   4.485 -1.2221 -1.3613  0.1271
 4106SOL    HW316191   2.566   3.019   4.496 -0.7138  0.0448  2.5455
 4106SOL    MW416192   2.487   3.023   4.459  0.2344 -0.0940  0.3680
 4107SOL     OW16193   5.762   5.996   6.288  0.5995 -0.1138 -0.5719
 4107SOL    HW216194   5.788   6.004   6.380  0.4959  1.4276 -0.6531
 4107SOL    HW316195   5.845   5.994   6.240  0.6469 -0.5536 -0.4776
 4107SOL    MW416196   5.776   5.997   6.294  0.5921  0.0315 -0.5702
 4108SOL     OW16197   0.565   3.250   2.655  0.6864 -0.6036 -0.1000
 4108SOL    HW216198   0.646   3.248   2.605  0.5367  1.8331 -0.5442
 4108SOL    HW316199   0.526   3.335   2.635 -0.7206 -0.6571  2.0624
 4108SOL    MW416200   0.571   3.261   2.646  0.4810 -0.2892  0.1267
 4109SOL     OW16201   4.143   3.508   2.219  0.2056 -0.2538  0.0871
 4109SOL    HW216202   4.133   3.495   2.125 -0.3622 -0.0885  0.1168
 4109SOL    HW316203   4.078   3.449   2.258 -0.4715  0.6134  0.3176
 4109SOL    MW416204   4.133   3.499   2.212  0.0414 -0.1176  0.1214
 4110SOL     OW16205   5.976   0.185   0.470 -0.4842 -0.1307  0.1928
 4110SOL    HW216206   6.047   0.244   0.445  0.2539 -1.1134 -0.1420
 4110SOL    HW316207   6.015   0.097   0.462 -2.2757 -0.8103 -1.7970
 4110SOL    MW416208   5.991   0.181   0.466 -0.6232 -0.3500 -0.1139
 4111SOL     OW16209   4.951   2.069   1.180 -0.2771 -0.1520 -0.2631
 4111SOL    HW216210   5.035   2.108   1.153 -0.1785 -0.9006 -1.0859
 4111SOL    HW316211   4.885   2.132   1.149 -0.0172  0.5990  0.6739
 4111SOL    MW416212   4.954   2.083   1.172 -0.2298 -0.1517 -0.2480
 4112SOL     OW16213   5.810   4.075   2.498 -0.2325  0.1285 -0.1478
 4112SOL    HW216214   5.835   4.167   2.502 -1.2997  0.4901 -1.3509
 4112SOL    HW316215   5.759   4.060   2.578  0.1400  0.5125  0.1624
 4112SOL    MW416216   5.806   4.085   2.509 -0.3241  0.2269 -0.2656
 4113SOL     OW16217   5.486   2.370   4.656  0.1380  0.0745  0.1298
 4113SOL    HW216218   5.484   2.327   4.570 -1.7728 -0.9726  0.6452
 4113SOL    HW316219   5.397   2.358   4.691  0.4753  1.6770  1.6840
 4113SOL    MW416220   5.474   2.363   4.649 -0.0696  0.1477  0.4029
 4114SOL     OW16221   3.124   4.958   5.295  0.1776  0.1005 -0.3721
 4114SOL    HW216222   3.051   4.897   5.284 -0.5217  0.7163  0.7129
 4114SOL    HW316223   3.186   4.911   5.350 -0.2691  0.2736  0.2913
 4114SOL    MW416224   3.122   4.944   5.300  0.0264  0.2046 -0.1414
 4115SOL     OW16225   6.364   2.841   0.928  0.2494 -0.1563 -0.1710
 4115SOL    HW216226   6.459   2.845   0.935  0.2822  0.7327 -0.9319
 4115SOL    HW316227   6.346   2.750   0.904  0.9388 -0.2252 -0.4573
 4115SOL    MW416228   6.374   2.829   0.925  0.3447 -0.0481 -0.3092
 4116SOL     OW16229   0.413   3.708   3.625 -0.4112 -0.4198  0.3516
 4116SOL    HW216230   0.392   3.630   3.676 -0.2561 -0.8019 -0.1562
 4116SOL    HW316231   0.498   3.737   3.659 -0.4451 -0.5066  0.5100
 4116SOL    MW416232   0.422   3.701   3.636 -0.3952 -0.4817  0.3055
 4117SOL     OW16233   3.746   0.561   1.906 -0.4364  0.6844 -0.1255
 4117SOL    HW216234   3.670   0.619   1.908  0.7912  2.4674 -1.6825
 4117SOL    HW316235   3.736   0.506   1.984 -4.0754 -0.2583 -1.0833
 4117SOL    MW416236   3.735   0.561   1.917 -0.7545  0.7953 -0.4573
 4118SOL     OW16237   5.118   3.807   3.030 -0.1193 -0.6151  0.2227
 4118SOL    HW216238   5.173   3.751   3.085 -1.8596 -0.4743  2.2721
 4118SOL    HW316239   5.135   3.778   2.941  1.4103 -2.2060  0.9715
 4118SOL    MW416240   5.127   3.796   3.025 -0.1471 -0.8064  0.5919
 4119SOL     OW16241   1.297   1.537   2.074  0.0922  1.0173  0.3172
 4119SOL    HW216242   1.334   1.610   2.124  0.1255  0.0224  1.8126
 4119SOL    HW316243   1.359   1.523   2.002  2.1134  0.1294  2.1044
 4119SOL    MW416244   1.310   1.545   2.071  0.3633  0.7689  0.7503
 4120SOL     OW16245   3.196   5.078   2.651  0.3241 -0.0062 -0.1557
 4120SOL    HW216246   3.237   5.068   2.737  0.4458  1.7389  0.0101
 4120SOL    HW316247   3.116   5.025   2.657  0.7243 -0.5315  0.7490
 4120SOL    MW416248   3.191   5.069   2.663  0.3930  0.1547 -0.0144
 4121SOL     OW16249   0.275   2.880   3.079  0.2323 -0.2166  0.3872
 4121SOL    HW216250   0.349   2.917   3.032  0.3492 -0.2023  0.5786
 4121SOL    HW316251   0.286   2.786   3.073 -0.0196 -0.2232 -0.0290
 4121SOL    MW416252   0.286   2.873   3.072  0.2145 -0.2156  0.3575
 4122SOL     OW16253   1.031   0.403   5.698 -0.3397  0.3571 -0.3442
 4122SOL    HW216254   0.999   0.489   5.726 -1.6199 -0.3279  0.3726
 4122SOL    HW316255   1.126   0.408   5.710 -0.4829  1.3688  0.5196
 4122SOL    MW416256   1.039   0.415   5.703 -0.5275  0.4002 -0.1357
 4123SOL     OW16257   6.021   2.380   2.073  0.7458  0.0766 -0.2456
 4123SOL    HW216258   6.051   2.305   2.124 -1.2897 -1.2634 -0.9302
 4123SOL    HW316259   6.052   2.456   2.123  0.5859 -1.1836  1.8933
 4123SOL    MW416260   6.029   2.381   2.087  0.4561 -0.2665 -0.0537
 4124SOL     OW16261   4.664   4.810   4.643  0.0439  0.2135  0.1670
 4124SOL    HW216262   4.604   4.882   4.623  0.1111  0.1352 -0.3521
 4124SOL    HW316263   4.608   4.733   4.647  0.3330 -0.2726 -2.7246
 4124SOL    MW416264   4.649   4.810   4.641  0.0909  0.1391 -0.2830
 4125SOL     OW16265   3.126   2.991   3.169 -0.2759 -0.0363  0.8757
 4125SOL    HW216266   3.160   2.926   3.107  1.3458  0.5252  1.1284
 4125SOL    HW316267   3.190   2.992   3.240  0.4650  2.7272  0.2798
 4125SOL    MW416268   3.139   2.983   3.170  0.0358  0.4024  0.8304
 4126SOL     OW16269   5.084   2.324   1.697  0.1793 -0.5225  0.5520
 4126SOL    HW216270   5.162   2.336   1.750  1.8371 -0.1604 -1.8000
 4126SOL    HW316271   5.052   2.237   1.720  2.3955 -1.4802  0.2712
 4126SOL    MW416272   5.090   2.314   1.707  0.6904 -0.6011  0.2046
 4127SOL     OW16273   0.669   6.265   2.679  0.5004 -0.1702  0.5371
 4127SOL    HW216274   0.647   6.316   2.757  0.1908  0.7556 -0.1385
 4127SOL    HW316275   0.758   6.234   2.695  0.5797  0.3228  1.0946
 4127SOL    MW416276   0.678   6.267   2.692  0.4700  0.0170  0.5215
 4128SOL     OW16277   1.022   0.292   2.845  0.0866 -0.2666 -0.1803
 4128SOL    HW216278   1.061   0.337   2.770  1.2220  0.9228  1.0633
 4128SOL    HW316279   1.083   0.309   2.917 -1.3640 -0.7018  1.2102
 4128SOL    MW416280   1.036   0.300   2.844  0.0450 -0.1671  0.1673
 4129SOL     OW16281   2.124   2.224   1.632  0.2070  0.3376 -0.1847
 4129SOL    HW216282   2.144   2.132   1.651 -2.1955 -0.2767 -0.3091
 4129SOL    HW316283   2.126   2.229   1.537 -1.0260  0.0381 -0.2406
 4129SOL    MW416284   2.127   2.213   1.622 -0.2727  0.2171 -0.2085
 4130SOL     OW16285   2.184   1.660   5.798 -0.3316  0.2474 -0.6673
 4130SOL    HW216286   2.260   1.709   5.768  0.3891 -2.5192 -4.0542
 4130SOL    HW316287   2.112   1.693   5.744 -0.8600  0.6500  0.2650
 4130SOL    MW416288   2.184   1.671   5.787 -0.3062 -0.0645 -0.9912
 4131SOL     OW16289   2.586   3.779   0.983  0.5893  0.0918 -0.0118
 4131SOL    HW216290   2.543   3.830   0.914 -1.4236  0.4215  1.4124
 4131SOL    HW316291   2.608   3.695   0.941  0.1827  0.5957 -1.2629
 4131SOL    MW416292   2.584   3.774   0.968  0.2701  0.2018  0.0110
 4132SOL     OW16293   4.519   4.299   2.413  0.5404  0.4162 -0.1384
 4132SOL    HW216294   4.538   4.205   2.415  1.6144  0.6051 -0.7877
 4132SOL    HW316295   4.485   4.314   2.324 -1.7423  0.2758  0.6534
 4132SOL    MW416296   4.517   4.289   2.401  0.3809  0.4226 -0.1196
 4133SOL     OW16297   6.054   4.619   5.002 -0.5982  0.0195 -0.2020
 4133SOL    HW216298   6.038   4.594   5.093 -0.6639  0.0853 -0.1953
 4133SOL    HW316299   6.062   4.715   5.004  0.0824 -0.0324 -0.1630
 4133SOL    MW416300   6.053   4.629   5.014 -0.5171  0.0213 -0.1960
 4134SOL     OW16301   6.381   5.068   2.789 -0.4793 -0.2402 -0.4801
 4134SOL    HW216302   6.364   4.988   2.837  1.6455 -0.5624 -0.1680
 4134SOL    HW316303   6.390   5.135   2.857 -0.5331 -0.0671 -0.6417
 4134SOL    MW416304   6.380   5.067   2.804 -0.2061 -0.2599 -0.4603
 4135SOL     OW16305   5.330   3.645   3.806 -0.2294 -0.2804 -0.2035
 4135SOL    HW216306   5.284   3.566   3.836 -0.4693 -0.8653 -1.9633
 4135SOL    HW316307   5.422   3.620   3.806 -0.1832 -0.1140  0.4896
 4135SOL    MW416308   5.336   3.631   3.810 -0.2550 -0.3356 -0.3442
 4136SOL     OW16309   3.955   5.889   2.010  0.2311 -0.1009 -0.4329
 4136SOL    HW216310   3.963   5.880   1.915 -1.5499 -1.1946 -0.5327
 4136SOL    HW316311   3.950   5.799   2.042  1.3315  0.2382  0.7908
 4136SOL    MW416312   3.955   5.876   2.002  0.1413 -0.2005 -0.2846
 4137SOL     OW16313   4.416   4.721   0.731  0.1214  0.2401 -0.3340
 4137SOL    HW216314   4.403   4.804   0.778 -0.9205 -0.1335  0.0610
 4137SOL    HW316315   4.410   4.654   0.798 -2.0306 -0.3514 -1.0452
 4137SOL    MW416316   4.414   4.723   0.746 -0.3000  0.1127 -0.3757
 4138SOL     OW16317   5.653   3.865   6.072  0.7330 -0.6208  0.3608
 4138SOL    HW216318   5.697   3.780   6.064  2.4191  0.0083  2.2647
 4138SOL    HW316319   5.653   3.884   6.166 -1.9018  0.3538  0.2415
 4138SOL    MW416320   5.659   3.856   6.083  0.6078 -0.4092  0.5962
 4139SOL     OW16321   4.149   3.593   2.782 -0.5590 -0.0023  0.1967
 4139SOL    HW216322   4.120   3.505   2.808  0.4752 -1.0414 -1.9252
 4139SOL    HW316323   4.208   3.620   2.852  1.3264 -2.2545 -0.3746
 4139SOL    MW416324   4.153   3.585   2.795 -0.1738 -0.4365 -0.1587
 4140SOL     OW16325   1.464   6.343   5.038 -0.0841 -0.0305 -0.3244
 4140SOL    HW216326   1.498   6.388   4.960 -0.7053 -1.3524 -1.4015
 4140SOL    HW316327   1.518   6.265   5.046 -0.9200 -0.6174 -0.2768
 4140SOL    MW416328   1.475   6.339   5.029 -0.2763 -0.2823 -0.4602
 4141SOL     OW16329   5.888   1.871   4.450 -0.3256 -0.3592  0.2520
 4141SOL    HW216330   5.844   1.950   4.483  1.4696  1.5783 -1.6551
 4141SOL    HW316331   5.980   1.884   4.471  0.2881 -0.9901 -1.7792
 4141SOL    MW416332   5.894   1.883   4.457 -0.0078 -0.1868 -0.2676
 4142SOL     OW16333   2.688   2.156   0.450  0.3107  0.0010  0.3116
 4142SOL    HW216334   2.735   2.079   0.484 -0.3197 -0.3131  0.5022
 4142SOL    HW316335   2.597   2.126   0.443 -0.0961  0.9768  1.1611
 4142SOL    MW416336   2.682   2.142   0.454  0.1739  0.0883  0.4488
 4143SOL     OW16337   3.744   4.889   5.874  0.2783 -1.3387  0.7760
 4143SOL    HW216338   3.736   4.900   5.968  0.6095  1.4385  0.5780
 4143SOL    HW316339   3.831   4.923   5.853 -0.6506  0.3482 -0.7288
 4143SOL    MW416340   3.754   4.895   5.884  0.1995 -0.7497  0.5513
 4144SOL     OW16341   3.509   3.730   3.540 -0.1080  0.2243 -0.0253
 4144SOL    HW216342   3.477   3.766   3.457 -0.5433  1.4178  0.6329
 4144SOL    HW316343   3.433   3.686   3.578 -1.1182  2.9822  1.4956
 4144SOL    MW416344   3.495   3.729   3.534 -0.2987  0.7456  0.2622
 4145SOL     OW16345   3.561   0.439   1.666 -0.7359  0.1748  0.2728
 4145SOL    HW216346   3.588   0.390   1.588 -1.7200 -2.0738  1.2517
 4145SOL    HW316347   3.642   0.472   1.703  0.0389 -1.0348 -0.2599
 4145SOL    MW416348   3.575   0.437   1.660 -0.7635 -0.2814  0.3317
 4146SOL     OW16349   2.871   0.073   1.083 -0.4650  0.0954  0.0882
 4146SOL    HW216350   2.841   0.111   1.000 -0.5511 -0.7421 -0.2727
 4146SOL    HW316351   2.955   0.116   1.099 -1.4635  1.9301  0.7376
 4146SOL    MW416352   2.878   0.084   1.074 -0.6081  0.2269  0.1262
 4147SOL     OW16353   2.973   5.783   5.236 -0.0867 -0.2865  0.8843
 4147SOL    HW216354   2.886   5.748   5.213 -2.0084  1.9530  4.0420
 4147SOL    HW316355   3.010   5.718   5.296 -0.2856 -0.4371  0.8456
 4147SOL    MW416356   2.966   5.770   5.241 -0.3665 -0.0109  1.2958
 4148SOL     OW16357   0.683   6.352   0.908  0.4258 -0.3779  0.1000
 4148SOL    HW216358   0.656   6.289   0.975  1.6557  0.4501  1.4460
 4148SOL    HW316359   0.634   6.327   0.830 -2.1481 -0.5399  1.6575
 4148SOL    MW416360   0.673   6.340   0.907  0.2485 -0.2901  0.4831
 4149SOL     OW16361   2.627   5.576   4.305  0.3295 -0.5210  0.7312
 4149SOL    HW216362   2.711   5.621   4.296  0.3419 -0.9407 -1.9303
 4149SOL    HW316363   2.648   5.483   4.299 -0.3100 -0.6390  0.1879
 4149SOL    MW416364   2.641   5.570   4.303  0.2468 -0.5919  0.3083
 4150SOL     OW16365   2.604   1.928   1.809 -0.2222  0.1160 -0.1677
 4150SOL    HW216366   2.593   1.893   1.721  0.4324 -1.1674  0.2372
 4150SOL    HW316367   2.695   1.906   1.832 -0.5061  0.0994  0.9724
 4150SOL    MW416368   2.615   1.921   1.800 -0.1733 -0.0555  0.0361
 4151SOL     OW16369   1.111   2.650   2.449 -0.4443  0.3343 -0.0191
 4151SOL    HW216370   1.097   2.647   2.544 -0.6468 -0.1451 -0.0564
 4151SOL    HW316371   1.106   2.558   2.422 -0.7742  0.5002 -0.5487
 4151SOL    MW416372   1.108   2.637   2.458 -0.5146  0.2929 -0.0939
 4152SOL     OW16373   2.105   4.688   3.411 -0.0350 -0.0060  0.1520
 4152SOL    HW216374   2.033   4.630   3.435  1.1837 -0.6859  2.4869
 4152SOL    HW316375   2.168   4.631   3.365 -0.5984  0.4244 -1.2151
 4152SOL    MW416376   2.104   4.673   3.408  0.0515 -0.0389  0.2797
 4153SOL     OW16377   2.574   2.106   3.450  0.1621 -0.6023  0.1260
 4153SOL    HW216378   2.609   2.023   3.482  0.0198 -0.8224 -0.2801
 4153SOL    HW316379   2.629   2.172   3.491  0.6092 -0.9165  0.0455
 4153SOL    MW416380   2.586   2.103   3.460  0.2023 -0.6728  0.0618
 4154SOL     OW16381   0.474   1.470   5.635  0.6467  0.0640 -0.3224
 4154SOL    HW216382   0.468   1.399   5.698  0.6540 -0.1150 -0.5205
 4154SOL    HW316383   0.561   1.507   5.648  0.2610  0.7129  0.4972
 4154SOL    MW416384   0.484   1.466   5.645  0.5967  0.1260 -0.2404
 4155SOL     OW16385   4.575   2.091   2.832 -0.8939 -0.1578  0.1978
 4155SOL    HW216386   4.597   2.039   2.755  0.7626  0.3559  0.3001
 4155SOL    HW316387   4.590   2.033   2.906 -0.9404 -0.1510  0.2125
 4155SOL    MW416388   4.580   2.077   2.831 -0.6814 -0.0891  0.2132
 4156SOL     OW16389   1.356   3.168   3.330  0.1074  0.2631  0.2545
 4156SOL    HW216390   1.329   3.076   3.327  0.0090  0.2643  0.9677
 4156SOL    HW316391   1.318   3.201   3.411  0.9057  0.6915  0.4602
 4156SOL    MW416392   1.347   3.160   3.340  0.1997  0.3198  0.3757
 4157SOL     OW16393   2.315   1.115   3.625  0.3746  0.6450 -0.2365
 4157SOL    HW216394   2.354   1.153   3.704  1.4187  1.4406 -1.1028
 4157SOL    HW316395   2.382   1.055   3.592  0.1732  0.7318 -0.8130
 4157SOL    MW416396   2.329   1.112   3.631  0.4858  0.7614 -0.4269
 4158SOL     OW16397   2.803   3.092   0.482  0.1769  0.6347  0.3836
 4158SOL    HW216398   2.881   3.147   0.493  0.9922 -0.4326  0.0879
 4158SOL    HW316399   2.780   3.065   0.571  3.3007 -3.2596  0.2878
 4158SOL    MW416400   2.811   3.096   0.495  0.6966 -0.0199  0.3320
 4159SOL     OW16401   2.020   4.612   2.071  0.3549 -0.3020 -0.1504
 4159SOL    HW216402   1.932   4.637   2.043  0.1363 -0.3590  0.4764
 4159SOL    HW316403   2.007   4.571   2.157  0.7727 -1.8863 -0.7987
 4159SOL    MW416404   2.006   4.610   2.079  0.3812 -0.5186 -0.1532
 4160SOL     OW16405   0.842   4.418   5.050  0.0919 -0.1686 -0.2686
 4160SOL    HW216406   0.892   4.498   5.066 -0.9906  0.5176 -0.1656
 4160SOL    HW316407   0.798   4.401   5.133 -0.2671 -0.4456 -0.5132
 4160SOL    MW416408   0.843   4.426   5.063 -0.0983 -0.1147 -0.2873
 4161SOL     OW16409   4.208   0.531   5.027  0.1902  0.9384 -0.0654
 4161SOL    HW216410   4.113   0.533   5.034  0.1077 -1.1536  0.1030
 4161SOL    HW316411   4.238   0.603   5.083 -1.2871  2.0197 -0.6138
 4161SOL    MW416412   4.200   0.541   5.036 -0.0156  0.8051 -0.1155
 4162SOL     OW16413   0.566   0.245   2.499  0.2163 -0.2377  0.0490
 4162SOL    HW216414   0.645   0.190   2.503  0.1185 -0.3579  0.3761
 4162SOL    HW316415   0.495   0.183   2.483 -0.0449 -0.3536  1.5531
 4162SOL    MW416416   0.567   0.229   2.497  0.1689 -0.2689  0.2906
 4163SOL     OW16417   2.680   0.383   5.303 -0.5210  0.2017 -0.2113
 4163SOL    HW216418   2.618   0.450   5.333 -0.4662  0.1779 -0.0399
 4163SOL    HW316419   2.717   0.418   5.222 -2.2331 -0.6569 -1.4308
 4163SOL    MW416420   2.677   0.396   5.297 -0.7397  0.0853 -0.3496
 4164SOL     OW16421   4.222   4.386   3.982  0.5160  0.5286 -0.2084
 4164SOL    HW216422   4.268   4.414   4.061  2.4395  0.6193 -1.3192
 4164SOL    HW316423   4.142   4.344   4.015  1.3326  0.4141  1.7698
 4164SOL    MW416424   4.217   4.384   3.997  0.8775  0.5255 -0.0939
 4165SOL     OW16425   2.310   4.872   3.342 -0.4750 -0.2557  0.6440
 4165SOL    HW216426   2.222   4.872   3.379  0.1057  0.2993  2.0978
 4165SOL    HW316427   2.357   4.804   3.391 -0.2033 -0.8800 -0.4465
 4165SOL    MW416428   2.304   4.863   3.354 -0.3625 -0.2649  0.6919
 4166SOL     OW16429   4.763   4.891   3.835 -0.6666 -0.4316 -0.1188
 4166SOL    HW216430   4.785   4.916   3.925  1.8656 -0.4441 -0.6623
 4166SOL    HW316431   4.762   4.795   3.837 -1.1857 -0.4304 -0.0139
 4166SOL    MW416432   4.766   4.882   3.847 -0.4010 -0.4331 -0.1767
 4167SOL     OW16433   6.413   6.322   5.622 -0.1973  0.6115  0.5781
 4167SOL    HW216434   6.363   6.317   5.703 -1.2514 -2.7989 -0.1073
 4167SOL    HW316435   6.350   6.352   5.556 -0.5894 -0.8057  0.2738
 4167SOL    MW416436   6.398   6.325   5.624 -0.3881 -0.0254  0.4475
 4168SOL     OW16437   5.281   2.596   5.093  0.2910 -0.2886 -0.0404
 4168SOL    HW216438   5.360   2.544   5.078  2.4134  2.8141 -0.4868
 4168SOL    HW316439   5.243   2.610   5.006  1.3697  1.2001 -0.3127
 4168SOL    MW416440   5.286   2.591   5.080  0.7133  0.3172 -0.1352
 4169SOL     OW16441   1.544   2.907   0.554 -0.0976  0.1811 -0.1053
 4169SOL    HW216442   1.564   2.999   0.534  1.8041 -0.2499 -0.3748
 4169SOL    HW316443   1.623   2.859   0.529 -0.0984 -1.2385  2.2775
 4169SOL    MW416444   1.557   2.913   0.548  0.1532 -0.0631  0.1735
 4170SOL     OW16445   5.240   2.648   0.446  0.0659 -0.0444  0.3141
 4170SOL    HW216446   5.165   2.697   0.413 -0.1272 -0.6360 -0.1250
 4170SOL    HW316447   5.296   2.635   0.370  1.1598  1.3243  0.8235
 4170SOL    MW416448   5.238   2.653   0.432  0.1848  0.0581  0.3234
 4171SOL     OW16449   4.574   5.037   3.638  0.2126  0.6403 -0.1838
 4171SOL    HW216450   4.646   5.062   3.580 -0.1532  0.4421 -0.7370
 4171SOL    HW316451   4.615   5.016   3.721  1.1326 -2.1735 -1.2456
 4171SOL    MW416452   4.589   5.038   3.641  0.2857  0.2429 -0.3969
 4172SOL     OW16453   4.497   6.240   0.782 -0.1296  0.4495  0.3542
 4172SOL    HW216454   4.516   6.218   0.873 -1.5803 -0.8750  0.3595
 4172SOL    HW316455   4.583   6.256   0.743  1.0004 -3.5589  0.7920
 4172SOL    MW416456   4.511   6.240   0.789 -0.1719 -0.2541  0.4127
 4173SOL     OW16457   6.276   3.202   3.312 -0.7863 -0.1613 -0.2876
 4173SOL    HW216458   6.284   3.106   3.313 -1.4788 -0.2195  1.3259
 4173SOL    HW316459   6.209   3.219   3.246 -1.1789 -0.8347 -0.0717
 4173SOL    MW416460   6.269   3.191   3.303 -0.9295 -0.2578 -0.0462
 4174SOL     OW16461   5.858   5.270   5.688 -0.1453  0.3536 -0.3251
 4174SOL    HW216462   5.803   5.193   5.672 -0.3412  0.4867 -0.2870
 4174SOL    HW316463   5.861   5.277   5.784  0.1392  0.2019 -0.3210
 4174SOL    MW416464   5.852   5.260   5.699 -0.1336  0.3511 -0.3195
 4175SOL     OW16465   5.765   1.533   6.454  0.6330  0.5952 -0.6946
 4175SOL    HW216466   5.724   1.535   6.541  1.3046 -0.4780 -0.3314
 4175SOL    HW316467   5.858   1.550   6.470  0.4994  2.1875 -1.4219
 4175SOL    MW416468   5.772   1.536   6.468  0.7040  0.6637 -0.7426
 4176SOL     OW16469   4.543   5.381   2.556 -0.5782  0.0373 -0.6548
 4176SOL    HW216470   4.576   5.321   2.623  0.6347  0.2777 -0.9974
 4176SOL    HW316471   4.479   5.330   2.506  0.4683 -1.0023 -0.9778
 4176SOL    MW416472   4.539   5.367   2.558 -0.2801 -0.0682 -0.7426
 4177SOL     OW16473   2.474   6.137   1.366 -0.1828  0.0047 -0.1999
 4177SOL    HW216474   2.536   6.064   1.356  0.0422 -0.3996  3.0303
 4177SOL    HW316475   2.403   6.116   1.305  0.8337 -1.8160 -0.8506
 4177SOL    MW416476   2.473   6.125   1.356 -0.0190 -0.2888  0.1405
 4178SOL     OW16477   0.770   2.322   1.751  0.2544 -0.1479  0.0728
 4178SOL    HW216478   0.819   2.404   1.746 -0.1275  0.1989  1.5638
 4178SOL    HW316479   0.711   2.333   1.826 -0.8374 -1.2369 -0.5785
 4178SOL    MW416480   0.768   2.334   1.760  0.0600 -0.2458  0.1836
 4179SOL     OW16481   0.271   0.547   6.244  0.4132  0.2162 -0.3446
 4179SOL    HW216482   0.355   0.522   6.204  0.4903 -1.0750  0.5528
 4179SOL    HW316483   0.261   0.486   6.317 -0.1204  1.9678  1.1037
 4179SOL    MW416484   0.281   0.536   6.248  0.3530  0.2769 -0.0351
 4180SOL     OW16485   2.892   1.665   2.014 -0.1840  0.1202 -0.2888
 4180SOL    HW216486   2.799   1.672   2.037  0.0740  1.7075  0.4358
 4180SOL    HW316487   2.892   1.633   1.924 -1.5329  2.1499 -1.0908
 4180SOL    MW416488   2.880   1.662   2.005 -0.3279  0.5974 -0.2990
 4181SOL     OW16489   4.512   0.993   4.646  0.0726  0.5018 -0.1289
 4181SOL    HW216490   4.474   0.925   4.590 -0.6726 -1.0774  2.1354
 4181SOL    HW316491   4.571   0.945   4.705  0.1704  1.9565  1.0080
 4181SOL    MW416492   4.515   0.978   4.646 -0.0128  0.4854  0.3198
 4182SOL     OW16493   4.884   0.417   2.343 -0.0564 -0.3498 -0.1676
 4182SOL    HW216494   4.815   0.376   2.395  0.5461 -1.4599 -0.1928
 4182SOL    HW316495   4.940   0.343   2.318  1.5833  0.6115  0.5402
 4182SOL    MW416496   4.882   0.402   2.347  0.2394 -0.3694 -0.0776
 4183SOL     OW16497   0.264   1.942   5.629  0.0699 -0.0945 -0.7458
 4183SOL    HW216498   0.241   1.853   5.655 -1.2223  0.2285 -0.7207
 4183SOL    HW316499   0.344   1.932   5.577  1.2568 -1.0148  1.1581
 4183SOL    MW416500   0.272   1.929   5.625  0.0560 -0.1733 -0.4913
 4184SOL     OW16501   1.920   2.413   1.706 -0.6797 -0.2735  0.0802
 4184SOL    HW216502   1.902   2.468   1.630 -0.4437  0.4831  0.5626
 4184SOL    HW316503   1.976   2.343   1.673 -3.4617 -2.0667 -1.2397
 4184SOL    MW416504   1.925   2.411   1.692 -1.0156 -0.4102 -0.0303
 4185SOL     OW16505   4.388   2.178   3.163  1.2900 -0.0220 -0.0405
 4185SOL    HW216506   4.363   2.229   3.240 -0.9232  1.9397 -1.8726
 4185SOL    HW316507   4.441   2.238   3.111  0.7495 -0.4403 -1.1031
 4185SOL    MW416508   4.392   2.193   3.166  0.9266  0.1816 -0.4224
 4186SOL     OW16509   1.547   2.804   3.247 -0.6920  1.1930  0.2120
 4186SOL    HW216510   1.539   2.843   3.160 -0.2516 -1.4308 -1.1264
 4186SOL    HW316511   1.489   2.727   3.244  0.2007  0.4044  1.8202
 4186SOL    MW416512   1.538   2.799   3.235 -0.5162  0.7428  0.2476
 4187SOL     OW16513   2.843   5.464   3.970 -0.3827 -0.3788  0.1340
 4187SOL    HW216514   2.820   5.417   4.050 -0.5746  0.6897  0.7175
 4187SOL    HW316515   2.890   5.542   4.000 -0.3810 -0.0076 -0.7954
 4187SOL    MW416516   2.846   5.468   3.984 -0.4078 -0.1889  0.0884
 4188SOL     OW16517   4.680   3.479   4.422 -0.0838 -0.1803 -0.5099
 4188SOL    HW216518   4.705   3.547   4.360  0.6004 -0.9228 -1.0708
 4188SOL    HW316519   4.763   3.441   4.450 -0.3505  0.3813  1.1565
 4188SOL    MW416520   4.694   3.483   4.418 -0.0287 -0.2042 -0.3640
 4189SOL     OW16521   5.973   4.235   4.926  0.0291 -0.1074 -0.1316
 4189SOL    HW216522   6.032   4.164   4.901 -1.9021 -1.4568 -1.0700
 4189SOL    HW316523   5.971   4.292   4.849 -0.6979 -0.6390 -0.5145
 4189SOL    MW416524   5.981   4.233   4.913 -0.3216 -0.3556 -0.3059
 4190SOL     OW16525   4.980   1.878   4.110 -0.2850  0.3027  0.8066
 4190SOL    HW216526   4.893   1.884   4.072  0.8534  1.6149 -1.8127
 4190SOL    HW316527   4.997   1.784   4.116 -0.2067 -0.0972 -3.0354
 4190SOL    MW416528   4.971   1.867   4.106 -0.1245  0.4231 -0.0459
 4191SOL     OW16529   3.986   3.517   1.322 -0.3553  0.3568  0.4640
 4191SOL    HW216530   4.013   3.441   1.271  0.5525 -0.5445  2.2196
 4191SOL    HW316531   3.891   3.523   1.309 -0.6727 -1.9186  1.3548
 4191SOL    MW416532   3.977   3.508   1.313 -0.2774 -0.0623  0.8131
 4192SOL     OW16533   5.470   3.381   4.431  0.4007  0.2997  0.0763
 4192SOL    HW216534   5.501   3.444   4.496  2.4802 -2.0589  1.4862
 4192SOL    HW316535   5.531   3.389   4.358  0.8200 -0.2396  0.3636
 4192SOL    MW416536   5.482   3.391   4.430  0.7304 -0.0827  0.3002
 4193SOL     OW16537   3.146   2.205   4.380  0.4434 -0.1889  0.2788
 4193SOL    HW216538   3.187   2.192   4.466  1.8929  1.4617 -0.1097
 4193SOL    HW316539   3.220   2.218   4.320 -0.5682  2.1055 -0.5874
 4193SOL    MW416540   3.161   2.205   4.384  0.5012  0.3316  0.1133
 4194SOL     OW16541   0.620   4.928   0.910  0.1996  0.5988 -0.1819
 4194SOL    HW216542   0.594   4.925   0.818 -2.0832 -0.8091  0.4322
 4194SOL    HW316543   0.560   4.868   0.955  2.6923 -0.5568  1.9135
 4194SOL    MW416544   0.608   4.920   0.904  0.2273  0.2606  0.1756
 4195SOL     OW16545   1.955   1.007   1.508 -0.3023 -0.0035  0.0941
 4195SOL    HW216546   1.929   0.970   1.593  1.5204  0.9654  1.1223
 4195SOL    HW316547   2.005   1.086   1.530  2.5643 -1.1422 -1.7490
 4195SOL    MW416548   1.958   1.013   1.522  0.3164 -0.0259 -0.0134
 4196SOL     OW16549   5.496   5.443   0.532  0.7819  0.0242 -0.0066
 4196SOL    HW216550   5.463   5.499   0.461  0.9190  0.3862  0.2112
 4196SOL    HW316551   5.472   5.354   0.506  2.4120 -0.0563 -1.3965
 4196SOL    MW416552   5.488   5.439   0.519  1.0150  0.0613 -0.1612
 4197SOL     OW16553   5.869   0.020   5.336 -0.4245 -0.4029  0.7426
 4197SOL    HW216554   5.858   0.029   5.431  0.5734 -1.9704  1.0487
 4197SOL    HW316555   5.781  -0.001   5.304 -0.4868 -1.5169  1.5714
 4197SOL    MW416556   5.856   0.018   5.345 -0.3010 -0.7567  0.8923
 4198SOL     OW16557   0.781   0.714   4.611 -0.2325 -0.5130 -0.2082
 4198SOL    HW216558   0.750   0.803   4.628 -0.3046 -0.8238  1.4023
 4198SOL    HW316559   0.702   0.665   4.588 -0.4271 -0.5323  0.5061
 4198SOL    MW416560   0.767   0.719   4.610 -0.2677 -0.5566  0.0986
 4199SOL     OW16561   0.314   4.766   3.155  0.5718 -0.2368 -0.4123
 4199SOL    HW216562   0.309   4.816   3.237  1.2543 -0.7875 -0.0234
 4199SOL    HW316563   0.291   4.830   3.087  0.3202  0.3139  0.1696
 4199SOL    MW416564   0.310   4.781   3.157  0.6287 -0.2368 -0.2842
 4200SOL     OW16565   5.993   3.989   6.333  0.1055 -0.2066  0.5606
 4200SOL    HW216566   5.903   4.015   6.352  1.1729  2.5358  2.3255
 4200SOL    HW316567   5.985   3.934   6.255 -3.0860 -0.2222  0.7502
 4200SOL    MW416568   5.980   3.985   6.325 -0.1748  0.1532  0.8185
 4201SOL     OW16569   0.109   4.881   0.986 -0.5282 -0.3120 -0.6255
 4201SOL    HW216570   0.142   4.969   0.968 -0.3230 -0.4671 -1.0233
 4201SOL    HW316571   0.091   4.844   0.899 -1.4981 -0.3289 -0.4232
 4201SOL    MW416572   0.111   4.888   0.972 -0.6291 -0.3347 -0.6513
 4202SOL     OW16573   2.131   0.329   2.162  0.3827  0.7553  0.0284
 4202SOL    HW216574   2.100   0.409   2.204  1.7580  0.6449  1.3302
 4202SOL    HW316575   2.082   0.325   2.080  0.1956  2.8522 -0.0236
 4202SOL    MW416576   2.120   0.339   2.157  0.5395  1.0174  0.1933
 4203SOL     OW16577   4.455   0.966   5.038  0.1183  0.0262 -0.0542
 4203SOL    HW216578   4.465   0.935   5.128  0.7173  0.1202 -0.0834
 4203SOL    HW316579   4.531   0.931   4.992 -0.7976 -1.0325 -0.8190
 4203SOL    MW416580   4.466   0.957   5.044  0.0765 -0.1011 -0.1589
 4204SOL     OW16581   3.720   6.068   5.934  0.0362 -0.2294 -0.0793
 4204SOL    HW216582   3.788   6.019   5.981 -0.7837 -1.1649  0.1583
 4204SOL    HW316583   3.742   6.160   5.949 -0.3433 -0.4766  2.3938
 4204SOL    MW416584   3.732   6.074   5.942 -0.1220 -0.3854  0.2783
 4205SOL     OW16585   1.525   3.400   3.270  0.1195  0.0561 -0.0075
 4205SOL    HW216586   1.491   3.315   3.297  0.0027  0.6324  1.7719
 4205SOL    HW316587   1.497   3.409   3.179 -0.6530 -1.4020  0.0546
 4205SOL    MW416588   1.517   3.390   3.261  0.0022 -0.0603  0.2354
 4206SOL     OW16589   1.267   1.831   1.454  0.1097  0.1325  0.2020
 4206SOL    HW216590   1.317   1.901   1.497 -0.0780  0.3214  0.1139
 4206SOL    HW316591   1.307   1.825   1.366  0.9546 -0.7295  0.6300
 4206SOL    MW416592   1.279   1.840   1.448  0.1964  0.0437  0.2469
 4207SOL     OW16593   5.220   0.149   6.235  0.2065 -0.3123 -0.1050
 4207SOL    HW216594   5.214   0.056   6.214 -2.2984 -0.1839 -0.3312
 4207SOL    HW316595   5.238   0.192   6.152 -1.0801 -0.4396 -0.4647
 4207SOL    MW416596   5.221   0.142   6.222 -0.2937 -0.3122 -0.1823
 4208SOL     OW16597   1.297   4.620   4.936  0.6289 -0.5265 -0.0070
 4208SOL    HW216598   1.276   4.695   4.881 -1.3060 -0.8980  0.1672
 4208SOL    HW316599   1.331   4.555   4.874 -1.1048 -0.7807 -0.7400
 4208SOL    MW416600   1.299   4.621   4.921  0.1449 -0.6091 -0.0807
 4209SOL     OW16601   4.663   6.346   1.713  0.1445  0.6285  0.5004
 4209SOL    HW216602   4.639   6.400   1.638 -0.8368  0.3271  0.5857
 4209SOL    HW316603   4.753   6.318   1.695 -0.8814 -1.5763 -1.8818
 4209SOL    MW416604   4.672   6.349   1.701 -0.1203  0.2978  0.1974
 4210SOL     OW16605   0.090   3.171   5.291  0.5962 -0.6580 -0.1483
 4210SOL    HW216606   0.151   3.235   5.255 -0.7848 -0.4066 -2.2497
 4210SOL    HW316607   0.027   3.223   5.341  0.7190 -0.6325 -0.0201
 4210SOL    MW416608   0.089   3.186   5.293  0.4302 -0.6214 -0.4086
 4211SOL     OW16609   4.075   4.826   1.726 -0.9534  0.4063  0.4735
 4211SOL    HW216610   4.147   4.782   1.681 -0.5858 -0.0598  1.4848
 4211SOL    HW316611   4.082   4.918   1.698  1.7591  0.9783  2.5870
 4211SOL    MW416612   4.086   4.832   1.717 -0.5470  0.4203  0.8858
 4212SOL     OW16613   1.268   4.294   5.570  0.0296 -0.1968 -0.0247
 4212SOL    HW216614   1.319   4.358   5.520  0.7087  1.0186  2.1166
 4212SOL    HW316615   1.333   4.237   5.609 -0.2011  0.9209  2.1439
 4212SOL    MW416616   1.283   4.295   5.569  0.0888  0.1110  0.5439
 4213SOL     OW16617   4.331   0.750   5.986  0.5467 -0.0514 -0.0333
 4213SOL    HW216618   4.368   0.806   5.918 -1.3272  1.7404  0.3530
 4213SOL    HW316619   4.342   0.661   5.952  1.2788  0.6852 -1.8367
 4213SOL    MW416620   4.338   0.746   5.972  0.3961  0.2822 -0.2202
 4214SOL     OW16621   2.654   5.972   5.371  0.2498 -0.3665  0.1013
 4214SOL    HW216622   2.607   5.890   5.382 -0.0577 -0.0869  0.9741
 4214SOL    HW316623   2.638   5.997   5.280 -0.2172 -0.9299  0.0239
 4214SOL    MW416624   2.645   5.965   5.360  0.1476 -0.4039  0.2062
 4215SOL     OW16625   2.709   4.994   2.534 -0.1823 -0.1255  0.1134
 4215SOL    HW216626   2.628   5.036   2.565  0.4331  1.4000 -0.2806
 4215SOL    HW316627   2.679   4.934   2.466 -0.8451  1.8186 -1.3953
 4215SOL    MW416628   2.694   4.992   2.529 -0.1886  0.3322 -0.1377
 4216SOL     OW16629   0.008   4.753   1.682  0.8505 -0.1051 -0.2253
 4216SOL    HW216630   0.044   4.678   1.730  1.0974 -0.4917 -0.9871
 4216SOL    HW316631  -0.055   4.714   1.621  1.1415  0.2736 -0.7810
 4216SOL    MW416632   0.004   4.738   1.680  0.9215 -0.1062 -0.3991
 4217SOL     OW16633   0.587   2.048   1.262  0.2511  0.0177 -0.4462
 4217SOL    HW216634   0.674   2.086   1.268  1.0466 -1.4874 -1.6582
 4217SOL    HW316635   0.577   1.997   1.342  1.3431 -1.4093 -1.1732
 4217SOL    MW416636   0.597   2.046   1.273  0.5001 -0.3691 -0.7021
 4218SOL     OW16637   3.237   0.292   5.596  0.0278 -0.4342 -0.5708
 4218SOL    HW216638   3.193   0.229   5.539 -0.9293 -0.6979  0.4068
 4218SOL    HW316639   3.239   0.249   5.682  1.4388 -0.0579 -0.3943
 4218SOL    MW416640   3.231   0.278   5.600  0.0877 -0.4193 -0.4185
 4219SOL     OW16641   0.608   0.651   3.497 -0.0229  0.4555 -0.3525
 4219SOL    HW216642   0.529   0.703   3.511 -0.0204  0.1783  0.7871
 4219SOL    HW316643   0.585   0.563   3.526  0.8019  0.4577  0.3736
 4219SOL    MW416644   0.595   0.646   3.503  0.0863  0.4192 -0.1064
 4220SOL     OW16645   4.978   0.585   1.718  0.8900 -0.2384  0.3465
 4220SOL    HW216646   4.919   0.587   1.643  1.2832  0.7038  0.0513
 4220SOL    HW316647   4.920   0.591   1.794  0.5424 -0.4423  0.1037
 4220SOL    MW416648   4.963   0.586   1.718  0.8960 -0.1410  0.2755
 4221SOL     OW16649   3.349   5.634   4.926 -0.2779 -0.1331 -0.0071
 4221SOL    HW216650   3.369   5.622   4.833 -0.5694 -0.3959 -0.0401
 4221SOL    HW316651   3.377   5.723   4.946 -0.7082  0.1155 -0.4832
 4221SOL    MW416652   3.355   5.644   4.917 -0.3731 -0.1349 -0.0743
 4222SOL     OW16653   6.262   6.409   5.383 -0.2271 -0.4578  0.1185
 4222SOL    HW216654   6.318   6.415   5.305  1.4487  0.1481  1.2934
 4222SOL    HW316655   6.218   6.494   5.387  0.8320  0.1007  0.5906
 4222SOL    MW416656   6.264   6.421   5.373  0.1337 -0.3041  0.3358
 4223SOL     OW16657   5.065   0.867   3.839 -0.5152  0.0627 -0.7942
 4223SOL    HW216658   5.112   0.861   3.922 -0.6502  0.3043 -0.7004
 4223SOL    HW316659   5.081   0.783   3.796 -1.0011 -0.3234 -0.2276
 4223SOL    MW416660   5.073   0.855   3.844 -0.5971  0.0436 -0.7070
 4224SOL     OW16661   3.750   3.691   2.880  0.4084  0.3669  0.3211
 4224SOL    HW216662   3.820   3.730   2.933  2.1624 -0.6172 -1.1612
 4224SOL    HW316663   3.782   3.697   2.790 -1.9386  0.8594 -0.5510
 4224SOL    MW416664   3.764   3.697   2.875  0.3301  0.3020  0.0105
 4225SOL     OW16665   0.657   0.303   3.214  0.2651 -0.1764 -0.3395
 4225SOL    HW216666   0.572   0.336   3.184  1.3062  1.7642 -1.3402
 4225SOL    HW316667   0.697   0.265   3.136  0.9220  0.2811 -0.2316
 4225SOL    MW416668   0.651   0.302   3.200  0.4892  0.1400 -0.4573
 4226SOL     OW16669   2.101   1.959   4.748 -0.1376 -0.6384 -0.3479
 4226SOL    HW216670   2.177   1.957   4.806 -0.5320 -1.7278  0.1564
 4226SOL    HW316671   2.074   2.051   4.747  0.1395 -0.5254  0.8495
 4226SOL    MW416672   2.107   1.971   4.755 -0.1531 -0.7672 -0.1234
 4227SOL     OW16673   3.314   3.831   4.812  0.1102  0.9280 -0.0032
 4227SOL    HW216674   3.343   3.755   4.863  0.0400  0.5742 -0.4825
 4227SOL    HW316675   3.266   3.885   4.875  0.1901  0.5904  0.3530
 4227SOL    MW416676   3.311   3.828   4.827  0.1115  0.8368 -0.0194
 4228SOL     OW16677   1.452   2.469   2.490  0.1654 -0.8413 -0.2816
 4228SOL    HW216678   1.442   2.562   2.511 -0.3603 -0.8846 -0.3220
 4228SOL    HW316679   1.537   2.463   2.447  0.2620 -0.3998 -0.1546
 4228SOL    MW416680   1.462   2.481   2.487  0.1088 -0.7887 -0.2702
 4229SOL     OW16681   2.241   0.539   1.064 -0.2283 -0.3124  0.2519
 4229SOL    HW216682   2.222   0.462   1.010  0.9564  1.2652 -2.6315
 4229SOL    HW316683   2.155   0.573   1.088 -0.7742 -2.3519  1.4186
 4229SOL    MW416684   2.227   0.533   1.060 -0.1440 -0.3734  0.0254
 4230SOL     OW16685   0.036   2.667   3.370 -0.2384 -0.2008 -0.2380
 4230SOL    HW216686   0.100   2.621   3.317 -0.6247  0.9228 -1.7365
 4230SOL    HW316687   0.053   2.637   3.460  2.2509 -0.0838 -0.6017
 4230SOL    MW416688   0.046   2.657   3.375  0.0390 -0.0371 -0.4837
 4231SOL     OW16689   5.953   5.020   4.449 -0.2481  0.4913 -0.0885
 4231SOL    HW216690   5.868   4.985   4.423  0.7991 -0.7139 -2.1433
 4231SOL    HW316691   6.014   4.946   4.440  0.9591  1.1742  1.8455
 4231SOL    MW416692   5.950   5.006   4.444  0.0493  0.4224 -0.1045
 4232SOL     OW16693   2.834   2.816   0.964  0.2823  0.6618 -0.5508
 4232SOL    HW216694   2.829   2.878   1.037  2.6062 -0.1550  0.3768
 4232SOL    HW316695   2.857   2.733   1.005 -1.8838 -0.7007 -1.8722
 4232SOL    MW416696   2.836   2.813   0.979  0.3031  0.3742 -0.6028
 4233SOL     OW16697   1.722   2.352   0.610 -0.1672  0.4271  0.9103
 4233SOL    HW216698   1.632   2.325   0.593 -0.3097  0.3986  1.6777
 4233SOL    HW316699   1.776   2.281   0.575 -0.4454  0.4327  0.4757
 4233SOL    MW416700   1.718   2.339   0.603 -0.2227  0.4241  0.9542
 4234SOL     OW16701   0.373   2.593   5.377 -0.7905  0.5690 -0.0566
 4234SOL    HW216702   0.344   2.505   5.401 -3.0790  1.4400  0.6121
 4234SOL    HW316703   0.398   2.586   5.284  0.5322 -1.0646  0.3648
 4234SOL    MW416704   0.373   2.581   5.368 -0.9179  0.4684  0.0872
 4235SOL     OW16705   1.955   2.241   2.211 -0.3837  0.2887  0.4595
 4235SOL    HW216706   1.989   2.228   2.122  0.1129 -0.8051  0.7907
 4235SOL    HW316707   1.860   2.235   2.202 -0.3006 -0.7600  0.1256
 4235SOL    MW416708   1.947   2.238   2.198 -0.3072  0.0060  0.4591
 4236SOL     OW16709   4.749   0.003   6.358 -0.2271  0.1877 -0.9529
 4236SOL    HW216710   4.756  -0.022   6.450 -0.4263 -0.2177 -1.0428
 4236SOL    HW316711   4.705   0.088   6.359 -2.2308 -0.7813 -0.7512
 4236SOL    MW416712   4.744   0.011   6.370 -0.5178  0.0063 -0.9381
 4237SOL     OW16713   4.763   3.282   1.401  0.3557 -0.3922  0.6798
 4237SOL    HW216714   4.839   3.325   1.441 -0.4726  0.5488  1.2769
 4237SOL    HW316715   4.689   3.339   1.422 -0.2843 -0.4148 -1.3017
 4237SOL    MW416716   4.764   3.295   1.409  0.1620 -0.2710  0.4971
 4238SOL     OW16717   6.083   5.654   5.781  0.0267  0.2793  0.5756
 4238SOL    HW216718   6.035   5.635   5.862 -0.0187 -0.6124  0.3589
 4238SOL    HW316719   6.139   5.577   5.768 -0.3011  0.1936 -0.4762
 4238SOL    MW416720   6.084   5.641   5.790 -0.0225  0.1504  0.4083
 4239SOL     OW16721   4.157   5.360   1.523  0.3118  0.0978 -0.2099
 4239SOL    HW216722   4.202   5.387   1.603  2.3402 -2.2642 -0.4467
 4239SOL    HW316723   4.160   5.264   1.524 -1.6949 -0.0686 -2.0012
 4239SOL    MW416724   4.163   5.351   1.534  0.3146 -0.2358 -0.4775
 4240SOL     OW16725   4.997   1.380   1.671 -0.1233  0.3635 -0.4710
 4240SOL    HW216726   4.967   1.289   1.669  2.2973 -0.6565  2.3815
 4240SOL    HW316727   4.928   1.427   1.718 -0.1744 -0.6154  0.4618
 4240SOL    MW416728   4.984   1.375   1.677  0.1894  0.0998  0.0284
 4241SOL     OW16729   4.472   5.941   6.147  0.5090  0.5560 -0.5972
 4241SOL    HW216730   4.456   5.853   6.181 -1.2705  0.5917 -1.2072
 4241SOL    HW316731   4.534   5.980   6.209  2.4020 -1.5350 -1.0555
 4241SOL    MW416732   4.478   5.934   6.160  0.5240  0.2849 -0.7381
 4242SOL     OW16733   3.847   1.836   0.783  0.4334  0.0624 -0.1468
 4242SOL    HW216734   3.853   1.768   0.850  0.5013  0.4801  0.2841
 4242SOL    HW316735   3.754   1.840   0.761  0.3068  0.3703  0.4097
 4242SOL    MW416736   3.836   1.828   0.789  0.4256  0.1582 -0.0166
 4243SOL     OW16737   2.964   2.640   4.914  0.2674 -0.2458 -0.0811
 4243SOL    HW216738   3.021   2.717   4.916 -0.0797  0.0128  0.0038
 4243SOL    HW316739   2.876   2.676   4.918  0.1216 -0.6864  1.4003
 4243SOL    MW416740   2.960   2.655   4.915  0.2024 -0.2698  0.1256
 4244SOL     OW16741   3.259   3.255   3.016  0.2556 -0.1725 -0.6936
 4244SOL    HW216742   3.169   3.250   3.048  0.4641 -0.7180 -0.1614
 4244SOL    HW316743   3.251   3.278   2.923 -0.4535 -0.7762 -0.7911
 4244SOL    MW416744   3.246   3.257   3.008  0.1896 -0.3241 -0.6362
 4245SOL     OW16745   1.629   2.901   1.924 -0.4433  0.2604  0.1324
 4245SOL    HW216746   1.618   2.853   2.007  0.2292 -3.1282 -1.5668
 4245SOL    HW316747   1.702   2.960   1.941  0.6134 -1.3634  1.5950
 4245SOL    MW416748   1.637   2.902   1.937 -0.2151 -0.4009  0.1012
 4246SOL     OW16749   1.301   4.888   3.409  0.4560  0.4691 -0.4937
 4246SOL    HW216750   1.301   4.923   3.320 -0.5831 -0.4276 -0.8733
 4246SOL    HW316751   1.281   4.963   3.465 -1.1163  0.6256 -1.2271
 4246SOL    MW416752   1.298   4.903   3.405  0.1114  0.3714 -0.6406
 4247SOL     OW16753   0.908   0.822   1.931 -0.1119 -0.2766 -0.5001
 4247SOL    HW216754   0.845   0.865   1.989 -1.7092 -2.2665 -0.6430
 4247SOL    HW316755   0.910   0.877   1.853  0.7940  1.5164  0.6932
 4247SOL    MW416756   0.900   0.835   1.929 -0.2031 -0.3026 -0.3615
 4248SOL     OW16757   3.340   2.609   5.991 -0.1607 -0.1963 -0.3360
 4248SOL    HW216758   3.381   2.544   6.049 -1.0429 -0.5093 -0.0376
 4248SOL    HW316759   3.347   2.691   6.039 -1.7348 -0.6156  0.6920
 4248SOL    MW416760   3.346   2.611   6.005 -0.4848 -0.2930 -0.1610
 4249SOL     OW16761   6.046   4.431   2.865  0.5571  0.0512 -0.1544
 4249SOL    HW216762   6.014   4.512   2.824 -0.7170 -0.4482 -0.1943
 4249SOL    HW316763   6.116   4.460   2.923 -0.4847  1.3226  0.5234
 4249SOL    MW416764   6.051   4.446   2.867  0.2515  0.1531 -0.0702
 4250SOL     OW16765   5.097   5.474   5.112 -0.1322 -0.3469 -0.2438
 4250SOL    HW216766   5.191   5.486   5.099  0.4450 -0.7771  2.6984
 4250SOL    HW316767   5.062   5.563   5.117  0.9413  0.0582  2.7842
 4250SOL    MW416768   5.105   5.487   5.111  0.0856 -0.3502  0.5439
 4251SOL     OW16769   4.508   0.148   2.700  0.1051 -0.5265  0.3780
 4251SOL    HW216770   4.581   0.141   2.762  0.6603 -2.5788 -0.4180
 4251SOL    HW316771   4.500   0.242   2.683  2.0108 -0.1807  1.1334
 4251SOL    MW416772   4.516   0.159   2.706  0.4298 -0.7516  0.3726
 4252SOL     OW16773   3.164   2.335   6.056  0.2494  0.0803  0.0004
 4252SOL    HW216774   3.175   2.389   6.135  0.6777 -0.7616  0.5208
 4252SOL    HW316775   3.080   2.291   6.069  0.6968 -0.6761  0.3674
 4252SOL    MW416776   3.154   2.337   6.068  0.3650 -0.1306  0.1175
 4253SOL     OW16777   3.932   1.240   4.898  0.0298 -0.2462 -0.5708
 4253SOL    HW216778   3.968   1.287   4.973 -2.4911  2.1957 -0.7270
 4253SOL    HW316779   4.002   1.240   4.833  1.4647 -0.3497  0.9167
 4253SOL    MW416780   3.946   1.246   4.899 -0.1135  0.0623 -0.3952
 4254SOL     OW16781   5.756   2.857   6.145  0.2029 -0.7475 -0.1463
 4254SOL    HW216782   5.764   2.820   6.233  0.5747 -0.1318  0.0882
 4254SOL    HW316783   5.702   2.795   6.097 -1.4026 -0.2806  0.9954
 4254SOL    MW416784   5.750   2.844   6.150  0.0401 -0.6046  0.0353
 4255SOL     OW16785   1.659   5.743   4.331 -0.6047  0.6710  0.3967
 4255SOL    HW216786   1.647   5.686   4.254  3.5594  0.9737 -0.7214
 4255SOL    HW316787   1.653   5.684   4.406  0.3942 -0.7113 -0.5479
 4255SOL    MW416788   1.657   5.727   4.330  0.0765  0.5286  0.1245
 4256SOL     OW16789   3.845   0.516   4.426 -0.1238  0.1072  0.2804
 4256SOL    HW216790   3.795   0.435   4.421 -0.6862  0.4558  0.1375
 4256SOL    HW316791   3.825   0.562   4.344  2.8029 -1.0861 -1.2258
 4256SOL    MW416792   3.835   0.512   4.415  0.1881 -0.0043  0.0628
 4257SOL     OW16793   1.908   1.768   3.190 -0.3207  0.1700  0.3123
 4257SOL    HW216794   1.974   1.740   3.127 -1.4529 -1.3939 -0.2351
 4257SOL    HW316795   1.906   1.863   3.181  1.2047  0.1725 -0.2981
 4257SOL    MW416796   1.916   1.777   3.180 -0.2688 -0.0360  0.1595
 4258SOL     OW16797   2.169   3.912   3.210 -0.1254 -0.7838  0.4008
 4258SOL    HW216798   2.081   3.952   3.211 -0.4221 -1.4181 -0.0314
 4258SOL    HW316799   2.228   3.986   3.223 -0.6492 -0.1452 -0.6665
 4258SOL    MW416800   2.165   3.927   3.212 -0.2336 -0.7832  0.2029
 4259SOL     OW16801   1.698   5.986   1.587 -0.1256  0.2490  0.1427
 4259SOL    HW216802   1.787   5.967   1.616  0.6909  2.0082 -0.9945
 4259SOL    HW316803   1.696   6.082   1.581 -2.2102  0.2580  0.4628
 4259SOL    MW416804   1.710   5.996   1.590 -0.2929  0.4823  0.0349
 4260SOL     OW16805   1.144   1.141   4.165  0.0976 -0.1904  0.2489
 4260SOL    HW216806   1.181   1.167   4.080  3.2866  0.6664  1.7532
 4260SOL    HW316807   1.092   1.217   4.192 -0.2409 -0.1349 -0.5107
 4260SOL    MW416808   1.142   1.154   4.157  0.4737 -0.0700  0.3472
 4261SOL     OW16809   4.883   1.769   1.159 -0.1728 -0.1889 -0.2018
 4261SOL    HW216810   4.881   1.864   1.172  1.0737  0.0086 -1.2279
 4261SOL    HW316811   4.794   1.745   1.135 -0.2976  0.8729 -0.8238
 4261SOL    MW416812   4.871   1.778   1.158 -0.0248 -0.0228 -0.4192
 4262SOL     OW16813   3.250   6.159   5.231  0.0960 -0.0497  0.2441
 4262SOL    HW216814   3.193   6.110   5.171  0.7507  0.1069 -0.5244
 4262SOL    HW316815   3.327   6.103   5.242 -0.2412 -0.3255  1.3940
 4262SOL    MW416816   3.253   6.145   5.225  0.1379 -0.0654  0.2944
 4263SOL     OW16817   3.201   4.960   1.408  0.3883 -0.1116  0.2118
 4263SOL    HW216818   3.166   4.964   1.497  1.6422 -2.3371  0.8839
 4263SOL    HW316819   3.209   5.052   1.381 -1.2505  0.5752  1.8632
 4263SOL    MW416820   3.197   4.973   1.416  0.3375 -0.3146  0.5183
 4264SOL     OW16821   3.745   1.860   2.832 -0.1278 -0.1364  0.4076
 4264SOL    HW216822   3.711   1.880   2.920 -1.0103 -0.3207  0.1235
 4264SOL    HW316823   3.677   1.893   2.773 -0.0535 -0.9871 -0.1621
 4264SOL    MW416824   3.731   1.867   2.836 -0.2344 -0.2730  0.2950
 4265SOL     OW16825   2.070   2.641   4.168 -0.0327  0.3349  0.2579
 4265SOL    HW216826   2.109   2.578   4.228 -1.1749  0.0750  0.7591
 4265SOL    HW316827   2.118   2.723   4.185  0.7638 -0.1374  0.3286
 4265SOL    MW416828   2.081   2.644   4.178 -0.0783  0.2383  0.3333
 4266SOL     OW16829   0.884   4.594   1.207 -0.4951 -0.0151 -0.3633
 4266SOL    HW216830   0.850   4.679   1.177 -1.6858  0.2577  1.5730
 4266SOL    HW316831   0.909   4.549   1.126 -0.5424  1.8692 -1.5045
 4266SOL    MW416832   0.883   4.599   1.192 -0.6585  0.2695 -0.2584
 4267SOL     OW16833   5.238   3.194   4.158 -0.0952 -0.1688 -0.2043
 4267SOL    HW216834   5.228   3.208   4.063 -1.3660  0.7655  0.0437
 4267SOL    HW316835   5.268   3.278   4.192 -0.0465 -0.3817  0.2880
 4267SOL    MW416836   5.241   3.207   4.150 -0.2564 -0.0736 -0.1066
 4268SOL     OW16837   6.204   0.213   6.463  0.2904  0.3809  0.2402
 4268SOL    HW216838   6.158   0.205   6.379 -2.2729 -0.6961  1.6486
 4268SOL    HW316839   6.292   0.243   6.439 -0.8635  1.8399 -2.6907
 4268SOL    MW416840   6.209   0.216   6.449 -0.2000  0.4313  0.0393
 4269SOL     OW16841   0.190   2.413   4.753  0.0870 -0.4978  0.3587
 4269SOL    HW216842   0.164   2.399   4.844 -0.6729  0.8070  0.3713
 4269SOL    HW316843   0.108   2.438   4.708  0.4742 -0.9646 -0.6461
 4269SOL    MW416844   0.176   2.415   4.759  0.0378 -0.3872  0.2278
 4270SOL     OW16845   2.511   1.637   4.956  0.0019 -0.2269  0.1685
 4270SOL    HW216846   2.483   1.618   5.045  1.3773 -1.0513  0.4511
 4270SOL    HW316847   2.605   1.654   4.963 -0.4804  3.6849 -0.5439
 4270SOL    MW416848   2.520   1.637   4.968  0.1197  0.1805  0.1118
 4271SOL     OW16849   5.391   4.595   2.763  0.2209 -0.5041 -1.3341
 4271SOL    HW216850   5.350   4.521   2.809  0.3523 -0.9344 -1.8956
 4271SOL    HW316851   5.318   4.649   2.733  0.1018  1.7105  2.3356
 4271SOL    MW416852   5.376   4.592   2.765  0.2226 -0.2687 -0.9240
 4272SOL     OW16853   5.915   1.838   2.827  0.7156  0.2687 -0.7856
 4272SOL    HW216854   5.942   1.921   2.787  1.9448  0.0781 -0.4075
 4272SOL    HW316855   5.846   1.862   2.888  1.9788  1.2397  0.3226
 4272SOL    MW416856   5.909   1.852   2.830  1.0444  0.3717 -0.5895
 4273SOL     OW16857   6.117   2.050   4.433 -0.4343  0.0753  0.5383
 4273SOL    HW216858   6.209   2.068   4.415 -0.8457  2.1272  0.1930
 4273SOL    HW316859   6.103   2.087   4.520 -0.5538 -1.8463  1.3924
 4273SOL    MW416860   6.127   2.057   4.442 -0.5043  0.0925  0.6055
 4274SOL     OW16861   3.793   5.782   3.859  0.3048 -0.1241  0.1752
 4274SOL    HW216862   3.712   5.732   3.864 -0.4372  0.9491 -0.4920
 4274SOL    HW316863   3.769   5.860   3.807  1.6503  0.4180  0.3368
 4274SOL    MW416864   3.779   5.786   3.853  0.3844  0.0890  0.1085
 4275SOL     OW16865   5.827   5.221   5.126  0.3080 -0.3610 -0.8665
 4275SOL    HW216866   5.879   5.299   5.140 -0.3457 -0.0616  0.0114
 4275SOL    HW316867   5.755   5.228   5.189 -0.7531 -0.7948 -1.9858
 4275SOL    MW416868   5.824   5.232   5.137  0.0818 -0.3788 -0.8983
 4276SOL     OW16869   3.758   5.156   4.352  0.2804  0.5813  0.2061
 4276SOL    HW216870   3.805   5.150   4.436  0.7874 -0.8626 -0.1462
 4276SOL    HW316871   3.800   5.229   4.307 -0.4566  1.8298  1.4587
 4276SOL    MW416872   3.770   5.165   4.357  0.2501  0.5555  0.3249
 4277SOL     OW16873   0.301   5.530   6.138 -0.1370 -0.0879 -0.3123
 4277SOL    HW216874   0.334   5.618   6.153  0.1979 -0.3818  0.8556
 4277SOL    HW316875   0.320   5.512   6.046 -1.9713  1.7473 -1.1315
 4277SOL    MW416876   0.308   5.539   6.128 -0.3349  0.1154 -0.2663
 4278SOL     OW16877   5.572   0.733   1.027 -0.1659  0.4073  0.4929
 4278SOL    HW216878   5.570   0.698   0.938  0.4528  2.0576 -0.2051
 4278SOL    HW316879   5.504   0.800   1.029 -1.8835 -1.2797  2.0541
 4278SOL    MW416880   5.563   0.737   1.015 -0.3109  0.4025  0.6068
 4279SOL     OW16881   6.231   2.586   1.102  0.8332  0.4567  1.0836
 4279SOL    HW216882   6.146   2.575   1.060  1.1019  0.2536  0.5866
 4279SOL    HW316883   6.224   2.535   1.183  1.6266 -2.4855 -0.5691
 4279SOL    MW416884   6.219   2.578   1.107  0.9734  0.0417  0.7999
 4280SOL     OW16885   2.096   6.138   2.180  0.4521 -0.7481  0.4843
 4280SOL    HW216886   2.013   6.177   2.209 -0.5331 -1.3370 -1.3954
 4280SOL    HW316887   2.145   6.212   2.144  0.1023 -0.6256  0.2477
 4280SOL    MW416888   2.091   6.153   2.179  0.2760 -0.8096  0.2051
 4281SOL     OW16889   4.966   2.780   5.344 -0.0599 -0.1438  0.4579
 4281SOL    HW216890   4.926   2.781   5.431  1.7496 -0.8630  1.3636
 4281SOL    HW316891   4.992   2.689   5.330  0.5535  0.1468 -0.4013
 4281SOL    MW416892   4.964   2.768   5.354  0.2598 -0.2004  0.4641
 4282SOL     OW16893   1.707   4.092   2.507 -0.0096  0.4556  0.1845
 4282SOL    HW216894   1.798   4.072   2.527  0.8843  2.6833 -1.2622
 4282SOL    HW316895   1.697   4.184   2.529 -2.1241  0.1332  0.8466
 4282SOL    MW416896   1.718   4.101   2.512 -0.1706  0.7070  0.0810
 4283SOL     OW16897   4.102   0.536   2.770  0.0723  0.4248 -0.2646
 4283SOL    HW216898   4.015   0.539   2.730 -0.4273 -1.8951  0.4752
 4283SOL    HW316899   4.153   0.601   2.722 -2.1236  2.0618 -0.5282
 4283SOL    MW416900   4.097   0.545   2.758 -0.2833  0.3347 -0.2018
 4284SOL     OW16901   1.224   4.535   4.042  0.2613 -1.1848  0.0504
 4284SOL    HW216902   1.135   4.500   4.043 -0.5098  0.4593 -2.3090
 4284SOL    HW316903   1.221   4.610   4.101  0.0781 -1.1086 -0.0567
 4284SOL    MW416904   1.212   4.540   4.050  0.1354 -0.9578 -0.2750
 4285SOL     OW16905   2.599   1.099   5.129 -0.3440  0.8700 -0.5195
 4285SOL    HW216906   2.638   1.084   5.043  0.8308 -0.2730  0.1919
 4285SOL    HW316907   2.591   1.195   5.135  1.6464  1.1044 -1.0150
 4285SOL    MW416908   2.603   1.110   5.119  0.0736  0.7501 -0.4910
 4286SOL     OW16909   3.532   5.434   2.737  0.3090 -0.2557 -0.0013
 4286SOL    HW216910   3.496   5.373   2.672 -2.6714 -0.8437  1.9686
 4286SOL    HW316911   3.594   5.381   2.788  0.4297 -0.6169 -0.5179
 4286SOL    MW416912   3.535   5.419   2.736 -0.0683 -0.3810  0.1905
 4287SOL     OW16913   2.567   5.365   6.133 -0.0949 -0.0933  0.2039
 4287SOL    HW216914   2.529   5.437   6.083  0.6436 -0.0314 -0.2824
 4287SOL    HW316915   2.651   5.399   6.164 -0.6299 -0.0429  1.7060
 4287SOL    MW416916   2.573   5.379   6.130 -0.0681 -0.0785  0.3379
 4288SOL     OW16917   5.959   4.684   2.721  0.3646 -0.2370  0.1675
 4288SOL    HW216918   5.884   4.733   2.687  0.1730 -0.5856  0.0847
 4288SOL    HW316919   5.976   4.723   2.806  0.9981  0.8039 -0.4134
 4288SOL    MW416920   5.951   4.695   2.728  0.4229 -0.1457  0.0799
 4289SOL     OW16921   0.608   2.058   3.948  0.4446  0.8523  0.7212
 4289SOL    HW216922   0.600   2.146   3.913 -0.4617  0.5860  0.2298
 4289SOL    HW316923   0.560   2.003   3.886  1.3416 -0.0485  0.8000
 4289SOL    MW416924   0.600   2.062   3.935  0.4433  0.6983  0.6667
 4290SOL     OW16925   5.768   6.260   1.101  0.1530 -0.4773 -0.7553
 4290SOL    HW216926   5.694   6.237   1.044 -0.2765 -2.6427  0.5393
 4290SOL    HW316927   5.765   6.195   1.171  1.2805  1.4474  1.2075
 4290SOL    MW416928   5.758   6.248   1.103  0.2451 -0.5091 -0.3255
 4291SOL     OW16929   4.061   5.200   4.771 -0.2880  0.4325  0.0945
 4291SOL    HW216930   4.016   5.220   4.852  0.4072  1.0592  0.3413
 4291SOL    HW316931   3.992   5.188   4.706 -0.8770 -0.7484  0.9107
 4291SOL    MW416932   4.046   5.201   4.773 -0.2740  0.3594  0.2348
 4292SOL     OW16933   5.704   1.672   2.706  0.1293 -0.1432 -0.5257
 4292SOL    HW216934   5.776   1.732   2.720  0.6160  1.2072 -6.1559
 4292SOL    HW316935   5.737   1.608   2.643 -2.6583 -1.5184 -0.7846
 4292SOL    MW416936   5.718   1.671   2.699 -0.1743 -0.1465 -1.3027
 4293SOL     OW16937   0.095   0.629   0.233  0.6886  0.1991  0.6882
 4293SOL    HW216938   0.075   0.703   0.175  1.5851 -0.3481 -0.3517
 4293SOL    HW316939   0.160   0.664   0.295  1.3956  0.2032 -0.0364
 4293SOL    MW416940   0.101   0.643   0.234  0.9001  0.1274  0.4554
 4294SOL     OW16941   1.673   6.066   5.309 -0.4130  0.4136  0.3950
 4294SOL    HW216942   1.765   6.091   5.313 -0.6237  1.0541  2.7926
 4294SOL    HW316943   1.629   6.126   5.369 -2.1470 -0.9170  0.5460
 4294SOL    MW416944   1.679   6.077   5.317 -0.6696  0.3225  0.7313
 4295SOL     OW16945   4.190   1.021   2.937  0.4119  0.0962 -0.0981
 4295SOL    HW216946   4.225   1.002   2.850  0.9215 -1.8468  0.4719
 4295SOL    HW316947   4.186   1.116   2.941 -1.4242  0.2516 -2.9124
 4295SOL    MW416948   4.194   1.031   2.926  0.2369 -0.1396 -0.3942
 4296SOL     OW16949   4.327   5.273   3.311  0.1727  0.0897  0.1991
 4296SOL    HW216950   4.300   5.193   3.265  0.9761  0.2051 -0.4983
 4296SOL    HW316951   4.332   5.247   3.403 -1.7007 -0.0801  0.2832
 4296SOL    MW416952   4.324   5.259   3.317  0.0315  0.0825  0.1182
 4297SOL     OW16953   6.142   5.910   3.498 -0.4168 -0.0104 -0.1037
 4297SOL    HW216954   6.164   5.925   3.590 -0.6038 -1.4257  0.1816
 4297SOL    HW316955   6.145   5.815   3.487  2.2438  0.2108 -2.2229
 4297SOL    MW416956   6.145   5.900   3.509 -0.0904 -0.1679 -0.3457
 4298SOL     OW16957   5.458   0.796   3.340  0.0350 -0.4642  0.4345
 4298SOL    HW216958   5.429   0.708   3.361 -1.2092 -0.8680 -2.4661
 4298SOL    HW316959   5.552   0.787   3.322 -0.3588 -1.5566 -1.2657
 4298SOL    MW416960   5.467   0.783   3.340 -0.1811 -0.6616 -0.1725
 4299SOL     OW16961   4.964   1.226   3.645  0.1679 -0.3176  0.6617
 4299SOL    HW216962   5.041   1.247   3.698 -1.1105 -0.9584  2.9126
 4299SOL    HW316963   4.918   1.310   3.636  0.6649 -0.1017  0.0579
 4299SOL    MW416964   4.968   1.240   3.651  0.0648 -0.3736  0.8790
 4300SOL     OW16965   4.253   1.627   1.299 -0.1005  0.5163 -0.3122
 4300SOL    HW216966   4.342   1.632   1.334 -0.4099 -0.4501  0.6386
 4300SOL    HW316967   4.258   1.562   1.229 -0.3768 -0.7625  0.8183
 4300SOL    MW416968   4.265   1.619   1.294 -0.1778  0.2201 -0.0376
 4301SOL     OW16969   5.097   0.157   0.688 -0.0088 -0.3790 -0.5289
 4301SOL    HW216970   5.073   0.179   0.598 -1.8096  1.5694  0.3141
 4301SOL    HW316971   5.162   0.223   0.712 -2.1592  1.4817  0.6232
 4301SOL    MW416972   5.103   0.169   0.680 -0.5301  0.1236 -0.2657
 4302SOL     OW16973   4.703   1.351   5.077  0.0980 -0.4287 -0.3344
 4302SOL    HW216974   4.640   1.378   5.011  1.5047  1.7393 -0.9130
 4302SOL    HW316975   4.732   1.264   5.050  0.3834  0.2734 -2.4122
 4302SOL    MW416976   4.699   1.343   5.065  0.3213 -0.0500 -0.6849
 4303SOL     OW16977   1.885   3.740   4.133  0.0160  0.3797  0.2490
 4303SOL    HW216978   1.864   3.657   4.177 -0.9353  1.4913  2.0325
 4303SOL    HW316979   1.836   3.737   4.051 -0.1704 -0.7361  0.3892
 4303SOL    MW416980   1.875   3.729   4.128 -0.1341  0.3791  0.5028
 4304SOL     OW16981   0.097   4.125   1.492  0.1101  0.1565 -0.2825
 4304SOL    HW216982   0.048   4.206   1.478  0.0374  0.3340  0.9053
 4304SOL    HW316983   0.039   4.070   1.544 -0.3724 -1.2166 -2.1525
 4304SOL    MW416984   0.083   4.128   1.497  0.0369 -0.0012 -0.3725
 4305SOL     OW16985   2.911   0.143   0.424 -0.0146  0.1741 -0.1606
 4305SOL    HW216986   2.839   0.080   0.417 -0.8120  0.8712  1.2115
 4305SOL    HW316987   2.988   0.090   0.445 -0.9326 -0.3172  2.3783
 4305SOL    MW416988   2.912   0.128   0.426 -0.2409  0.2013  0.3554
 4306SOL     OW16989   4.182   5.587   5.201 -0.1325 -0.1417 -0.2596
 4306SOL    HW216990   4.236   5.617   5.275 -1.2242 -0.4817  0.7040
 4306SOL    HW316991   4.185   5.659   5.138  1.4590 -0.1604 -0.2641
 4306SOL    MW416992   4.190   5.600   5.202 -0.0665 -0.1890 -0.1331
 4307SOL     OW16993   0.059   0.207   6.402  0.5825  0.1632 -0.2208
 4307SOL    HW216994   0.056   0.206   6.306  0.4159 -1.2490 -0.2148
 4307SOL    HW316995   0.085   0.118   6.427 -2.2173 -0.3863  1.1257
 4307SOL    MW416996   0.062   0.195   6.393  0.1911 -0.0956 -0.0424
 4308SOL     OW16997   3.454   5.505   4.219  0.1245 -0.0829  0.1695
 4308SOL    HW216998   3.367   5.513   4.180 -1.3710  0.3687  3.2708
 4308SOL    HW316999   3.485   5.419   4.191 -1.5643 -0.4831 -0.5895
 4308SOL    MW417000   3.447   5.494   4.210 -0.2957 -0.0761  0.4786
 4309SOL     OW17001   1.518   0.151   2.121  0.2877  0.2487 -0.3150
 4309SOL    HW217002   1.531   0.167   2.028  0.6002 -0.5557 -0.4176
 4309SOL    HW317003   1.440   0.202   2.144 -0.0320  0.1219 -1.1044
 4309SOL    MW417004   1.509   0.160   2.112  0.2868  0.1259 -0.4327
 4310SOL     OW17005   4.434   1.520   4.565  0.0262  0.5430  0.1203
 4310SOL    HW217006   4.525   1.545   4.581 -0.0761  0.0382  1.6693
 4310SOL    HW317007   4.431   1.426   4.583 -0.5312  0.2661 -1.2678
 4310SOL    MW417008   4.446   1.511   4.570 -0.0608  0.4399  0.1415
 4311SOL     OW17009   6.376   4.634   1.177 -0.3336  0.0251  0.6114
 4311SOL    HW217010   6.362   4.674   1.263 -0.2846  0.7591  0.2896
 4311SOL    HW317011   6.470   4.621   1.172 -0.4679 -1.4078  1.2557
 4311SOL    MW417012   6.386   4.638   1.188 -0.3449 -0.0671  0.6540
 4312SOL     OW17013   2.613   5.031   6.327  0.5195 -0.0225 -0.6037
 4312SOL    HW217014   2.541   4.968   6.322  0.3390 -0.0553  1.5372
 4312SOL    HW317015   2.634   5.036   6.420  2.5270  0.8682 -1.0544
 4312SOL    MW417016   2.606   5.024   6.338  0.7606  0.0907 -0.3807
 4313SOL     OW17017   5.248   1.309   1.726 -0.4068  0.1177 -0.8317
 4313SOL    HW217018   5.169   1.349   1.691 -1.0522 -0.6669 -0.3015
 4313SOL    HW317019   5.268   1.237   1.666  0.4721  0.9059 -1.5112
 4313SOL    MW417020   5.240   1.304   1.714 -0.3760  0.1182 -0.8514
 4314SOL     OW17021   0.007   4.220   1.089 -0.1843 -0.1304 -0.7289
 4314SOL    HW217022   0.084   4.187   1.134  0.1354  2.3422  0.7353
 4314SOL    HW317023  -0.038   4.275   1.153 -1.4032  1.0871 -2.4986
 4314SOL    MW417024   0.011   4.223   1.103 -0.3029  0.3564 -0.7692
 4315SOL     OW17025   1.915   0.945   1.042 -0.0393  0.4276  0.2022
 4315SOL    HW217026   1.908   0.986   1.129 -1.4931 -0.1449  0.3728
 4315SOL    HW317027   2.007   0.919   1.036 -0.3674 -1.7262  2.6019
 4315SOL    MW417028   1.926   0.947   1.053 -0.2744  0.0679  0.5413
 4316SOL     OW17029   5.158   4.005   3.587 -0.0375  0.2774 -0.0404
 4316SOL    HW217030   5.188   4.072   3.525  2.3052 -2.2433 -1.8451
 4316SOL    HW317031   5.176   4.043   3.673  1.4753  1.8647 -0.9928
 4316SOL    MW417032   5.164   4.019   3.590  0.4712  0.1542 -0.4042
 4317SOL     OW17033   1.399   3.129   2.816 -0.4574  0.0375 -0.5115
 4317SOL    HW217034   1.389   3.198   2.881  0.8482 -0.3772  0.1677
 4317SOL    HW317035   1.494   3.121   2.805 -0.6425 -0.2000 -2.1585
 4317SOL    MW417036   1.411   3.137   2.823 -0.3096 -0.0485 -0.6392
 4318SOL     OW17037   4.570   4.024   2.455 -0.0036  0.4162 -0.5706
 4318SOL    HW217038   4.489   4.004   2.501 -0.5490  3.0116 -0.2509
 4318SOL    HW317039   4.635   4.036   2.524  0.1713  0.3282 -0.7184
 4318SOL    MW417040   4.568   4.023   2.470 -0.0525  0.7470 -0.5479
 4319SOL     OW17041   5.791   4.632   3.066 -0.3001 -0.0301 -0.2356
 4319SOL    HW217042   5.791   4.536   3.071  1.6541 -0.0742 -0.2731
 4319SOL    HW317043   5.727   4.653   2.998 -0.0044 -1.3734 -0.9596
 4319SOL    MW417044   5.783   4.622   3.058 -0.0032 -0.2132 -0.3361
 4320SOL     OW17045   1.393   1.457   6.286  0.2579  0.8828  0.3416
 4320SOL    HW217046   1.350   1.523   6.231  1.4421  1.0909 -0.3579
 4320SOL    HW317047   1.416   1.387   6.226 -0.3795  0.1162  0.9686
 4320SOL    MW417048   1.390   1.457   6.271  0.3300  0.8091  0.3320
 4321SOL     OW17049   1.734   4.858   2.477  0.0083 -0.1260  0.0598
 4321SOL    HW217050   1.703   4.933   2.428 -1.3055  1.8339  3.5128
 4321SOL    HW317051   1.697   4.782   2.432 -0.6807  1.4172 -2.1372
 4321SOL    MW417052   1.725   4.858   2.465 -0.2560  0.3362  0.2255
 4322SOL     OW17053   3.937   1.244   5.686  0.2465 -0.0630 -0.1538
 4322SOL    HW217054   3.918   1.336   5.704 -0.0164 -0.1816  0.2019
 4322SOL    HW317055   3.905   1.229   5.597 -2.3938 -0.5260  0.7869
 4322SOL    MW417056   3.930   1.254   5.677 -0.1366 -0.1397  0.0173
 4323SOL     OW17057   5.266   4.964   6.044  0.4088  0.1885  0.0490
 4323SOL    HW217058   5.278   4.900   6.114 -0.8548 -1.7072 -1.3889
 4323SOL    HW317059   5.338   4.946   5.983 -0.6163 -0.6893 -0.9318
 4323SOL    MW417060   5.277   4.953   6.045  0.1068 -0.1774 -0.2701
 4324SOL     OW17061   2.126   5.133   6.082  0.1360 -0.6972  0.0242
 4324SOL    HW217062   2.201   5.074   6.071 -1.0166 -2.3093  0.4529
 4324SOL    HW317063   2.151   5.192   6.153  1.5027 -0.3076 -0.7396
 4324SOL    MW417064   2.139   5.133   6.090  0.1643 -0.8585 -0.0200
 4325SOL     OW17065   5.244   1.805   1.106  0.0680  0.0897 -0.7829
 4325SOL    HW217066   5.182   1.852   1.051  0.6294 -0.5637 -1.9970
 4325SOL    HW317067   5.326   1.804   1.057  0.7434 -0.0100  0.3152
 4325SOL    MW417068   5.246   1.811   1.093  0.2312 -0.0097 -0.7982
 4326SOL     OW17069   3.101   4.945   2.046 -0.6951  0.0617  0.6163
 4326SOL    HW217070   3.135   4.864   2.009 -1.2238  0.1313 -0.0540
 4326SOL    HW317071   3.137   4.949   2.134 -0.1019 -0.5492  0.4081
 4326SOL    MW417072   3.110   4.935   2.052 -0.6866 -0.0097  0.5004
 4327SOL     OW17073   3.647   1.862   2.023 -0.4809 -0.0922 -0.4548
 4327SOL    HW217074   3.699   1.936   2.055  0.2475 -0.1414 -1.4714
 4327SOL    HW317075   3.571   1.902   1.981 -0.4495  0.0471 -0.3797
 4327SOL    MW417076   3.644   1.877   2.022 -0.3806 -0.0803 -0.5790
 4328SOL     OW17077   1.832   5.216   1.850 -0.0003  0.3933  0.1667
 4328SOL    HW217078   1.810   5.160   1.775  0.1297  0.9460 -0.2906
 4328SOL    HW317079   1.843   5.303   1.812  0.5018  0.5965  0.7642
 4328SOL    MW417080   1.831   5.220   1.835  0.0831  0.4930  0.1852
 4329SOL     OW17081   3.906   3.752   5.779  0.1943  0.0204  0.0099
 4329SOL    HW217082   3.865   3.828   5.819 -1.2765  0.0124 -1.4024
 4329SOL    HW317083   3.847   3.679   5.800  1.4780 -0.7321  1.1722
 4329SOL    MW417084   3.893   3.752   5.787  0.1696 -0.0799 -0.0231
 4330SOL     OW17085   2.734   1.143   0.834  0.6201 -0.2598  0.1444
 4330SOL    HW217086   2.782   1.137   0.751  0.9569 -2.4453  0.4455
 4330SOL    HW317087   2.652   1.187   0.810  0.7917 -0.6576 -1.3142
 4330SOL    MW417088   2.730   1.148   0.820  0.6872 -0.6006 -0.0083
 4331SOL     OW17089   4.573   2.217   0.196  0.3249 -0.5945  0.1007
 4331SOL    HW217090   4.635   2.204   0.125  1.8969 -1.5489  1.5622
 4331SOL    HW317091   4.492   2.176   0.166  0.5747  0.0930 -1.5934
 4331SOL    MW417092   4.570   2.210   0.183  0.5653 -0.6297  0.0700
 4332SOL     OW17093   1.594   6.167   5.989 -0.3867  0.1483 -0.0752
 4332SOL    HW217094   1.632   6.234   5.933 -0.7553 -0.0017 -0.5094
 4332SOL    HW317095   1.512   6.142   5.945 -0.1250 -0.7761 -0.0690
 4332SOL    MW417096   1.588   6.172   5.976 -0.4008  0.0066 -0.1317
 4333SOL     OW17097   3.746   3.371   5.640  0.0147 -0.4933  0.0731
 4333SOL    HW217098   3.734   3.281   5.669 -0.6664  0.0956  1.7403
 4333SOL    HW317099   3.712   3.424   5.712  1.9494  1.1286 -0.1268
 4333SOL    MW417100   3.740   3.366   5.653  0.1801 -0.2016  0.2667
 4334SOL     OW17101   3.992   4.244   1.175  0.0682 -0.3107 -0.1316
 4334SOL    HW217102   3.914   4.248   1.229  0.3068 -1.2821  0.3069
 4334SOL    HW317103   4.065   4.247   1.237  0.4279  1.5520 -0.5870
 4334SOL    MW417104   3.992   4.245   1.190  0.1471 -0.1931 -0.1339
 4335SOL     OW17105   4.853   2.635   4.149 -0.3253 -0.1333  0.4029
 4335SOL    HW217106   4.882   2.573   4.082  1.3455 -1.8257  2.5313
 4335SOL    HW317107   4.876   2.721   4.113  0.4592 -0.9706 -1.2153
 4335SOL    MW417108   4.860   2.638   4.135 -0.0013 -0.4671  0.4702
 4336SOL     OW17109   0.589   0.794   2.600  0.4613  0.2404  0.0867
 4336SOL    HW217110   0.594   0.860   2.669 -1.5287 -1.3639  1.8935
 4336SOL    HW317111   0.569   0.844   2.521 -0.0511  1.8839  1.2017
 4336SOL    MW417112   0.587   0.809   2.599  0.1311  0.2456  0.4722
 4337SOL     OW17113   2.929   0.577   2.252 -0.3002 -0.0710 -0.1849
 4337SOL    HW217114   3.024   0.579   2.237 -0.2989 -0.0093 -0.1687
 4337SOL    HW317115   2.897   0.511   2.190 -0.3776  0.6427 -0.9228
 4337SOL    MW417116   2.937   0.569   2.242 -0.3102  0.0313 -0.2801
 4338SOL     OW17117   0.518   2.764   4.037 -0.5044 -0.1497  0.0550
 4338SOL    HW217118   0.585   2.695   4.039 -0.7222 -0.4542 -1.7842
 4338SOL    HW317119   0.568   2.845   4.046 -0.2420 -0.4736  2.1998
 4338SOL    MW417120   0.534   2.765   4.039 -0.4985 -0.2326  0.0953
 4339SOL     OW17121   2.816   1.783   5.811  0.6531  0.4324  0.4658
 4339SOL    HW217122   2.880   1.772   5.742  0.1951 -0.3038  0.1397
 4339SOL    HW317123   2.742   1.828   5.769  1.5294  2.6759  1.2044
 4339SOL    MW417124   2.815   1.787   5.797  0.7083  0.6313  0.5202
 4340SOL     OW17125   1.938   6.025   3.841  0.1705 -0.2963 -1.0186
 4340SOL    HW217126   2.009   6.023   3.777  0.4957 -0.8973 -0.6388
 4340SOL    HW317127   1.979   6.002   3.924 -0.6947 -1.9120 -1.0113
 4340SOL    MW417128   1.953   6.022   3.843  0.0993 -0.5888 -0.9675
 4341SOL     OW17129   3.318   2.233   1.791 -0.4548  0.0545 -0.2222
 4341SOL    HW217130   3.329   2.212   1.698  0.6191 -1.8190  0.2621
 4341SOL    HW317131   3.227   2.211   1.810 -0.1444 -1.5067 -0.4153
 4341SOL    MW417132   3.308   2.227   1.781 -0.2722 -0.3987 -0.1838
 4342SOL     OW17133   0.607   1.088   2.076  0.1269 -0.4086  0.2441
 4342SOL    HW217134   0.667   1.129   2.014  0.4173 -0.6491  0.3633
 4342SOL    HW317135   0.653   1.009   2.106 -0.7110 -1.2211 -0.5232
 4342SOL    MW417136   0.621   1.083   2.072  0.0547 -0.5476  0.1586
 4343SOL     OW17137   0.550   2.894   0.658 -0.0893  0.4059 -0.1307
 4343SOL    HW217138   0.527   2.887   0.565  0.8085  0.4488 -0.3704
 4343SOL    HW317139   0.645   2.881   0.659  0.0612  1.5248  0.6562
 4343SOL    MW417140   0.560   2.891   0.646  0.0490  0.5592 -0.0585
 4344SOL     OW17141   4.434   4.382   2.137 -0.0360 -0.0364 -0.6754
 4344SOL    HW217142   4.359   4.326   2.117  0.6452 -1.1468 -0.1847
 4344SOL    HW317143   4.499   4.362   2.070  0.1045  0.3890 -0.6714
 4344SOL    MW417144   4.433   4.372   2.126  0.0724 -0.1268 -0.6101
 4345SOL     OW17145   1.849   5.842   4.756  0.3387 -0.1212  0.0243
 4345SOL    HW217146   1.772   5.873   4.708 -0.6216 -1.5668  0.5461
 4345SOL    HW317147   1.899   5.921   4.776  1.7400  0.5767 -4.7649
 4345SOL    MW417148   1.845   5.856   4.752  0.3969 -0.2198 -0.5387
 4346SOL     OW17149   1.730   5.013   6.401  0.3004 -0.0473 -0.1350
 4346SOL    HW217150   1.793   5.016   6.330  1.6795  3.8304  0.9809
 4346SOL    HW317151   1.646   5.033   6.359  0.6389 -0.3649 -0.9830
 4346SOL    MW417152   1.727   5.016   6.386  0.5270  0.4224 -0.0997
 4347SOL     OW17153   1.568   1.252   5.359  0.3071  0.4556  0.1041
 4347SOL    HW217154   1.540   1.234   5.449 -0.3329 -0.5707 -0.2791
 4347SOL    HW317155   1.487   1.271   5.312  0.6549  1.1341 -0.2292
 4347SOL    MW417156   1.554   1.252   5.365  0.2685  0.4097  0.0096
 4348SOL     OW17157   4.973   5.134   3.735 -0.1414  0.4878 -0.5262
 4348SOL    HW217158   5.033   5.082   3.789 -0.3489  1.9341  1.1629
 4348SOL    HW317159   5.031   5.185   3.678  0.0631 -1.6438 -2.3753
 4348SOL    MW417160   4.989   5.134   3.734 -0.1418  0.3974 -0.5473
 4349SOL     OW17161   4.452   5.312   0.285 -0.7335  0.2630  0.5699
 4349SOL    HW217162   4.373   5.352   0.250 -0.8173  1.1590  1.7281
 4349SOL    HW317163   4.513   5.385   0.298 -0.0953 -0.2732  0.6906
 4349SOL    MW417164   4.450   5.327   0.282 -0.6603  0.3105  0.7386
 4350SOL     OW17165   6.257   4.898   2.027 -0.1048 -0.1352 -0.3650
 4350SOL    HW217166   6.175   4.945   2.010 -1.4354 -2.4537 -0.7358
 4350SOL    HW317167   6.237   4.806   2.008  2.1863 -0.9882  0.9109
 4350SOL    MW417168   6.243   4.892   2.022  0.0219 -0.5536 -0.2456
 4351SOL     OW17169   4.034   5.134   0.071 -0.3109  0.4982  0.6792
 4351SOL    HW217170   4.046   5.166  -0.019 -0.2601  0.3186  0.6216
 4351SOL    HW317171   4.056   5.209   0.126  0.4903  0.3574  0.5584
 4351SOL    MW417172   4.038   5.148   0.066 -0.1985  0.4559  0.6556
 4352SOL     OW17173   2.455   2.257   2.012 -0.0747  0.4819 -0.3277
 4352SOL    HW217174   2.418   2.179   2.054  0.3128  1.1325  1.2681
 4352SOL    HW317175   2.404   2.330   2.047 -0.3908  0.9777 -1.7569
 4352SOL    MW417176   2.443   2.256   2.022 -0.0653  0.6332 -0.3057
 4353SOL     OW17177   4.643   5.273   4.289  0.5652  0.3038  0.4498
 4353SOL    HW217178   4.564   5.270   4.345 -0.1034 -0.9975 -0.4999
 4353SOL    HW317179   4.684   5.187   4.302  1.3250  0.6226  0.2077
 4353SOL    MW417180   4.638   5.261   4.298  0.5772  0.1741  0.2926
 4354SOL     OW17181   0.783   0.643   4.880 -0.0138  0.0869 -0.4083
 4354SOL    HW217182   0.789   0.665   4.787 -1.9290 -1.0670 -0.8677
 4354SOL    HW317183   0.691   0.657   4.902  0.1605 -0.7834  1.0102
 4354SOL    MW417184   0.771   0.648   4.870 -0.2435 -0.1802 -0.2818
 4355SOL     OW17185   3.724   3.435   4.494  0.1741 -0.2498 -0.3503
 4355SOL    HW217186   3.717   3.447   4.399 -0.5998  3.1452  0.0313
 4355SOL    HW317187   3.634   3.433   4.524  0.3602  2.1704  0.5775
 4355SOL    MW417188   3.711   3.436   4.485  0.0966  0.5175 -0.1775
 4356SOL     OW17189   1.121   1.599   3.878 -0.3646 -0.0101 -0.2852
 4356SOL    HW217190   1.115   1.549   3.797  1.3630  0.5156 -0.7876
 4356SOL    HW317191   1.151   1.536   3.943  0.1396 -0.0277 -0.5244
 4356SOL    MW417192   1.124   1.584   3.876 -0.0701  0.0569 -0.3830
 4357SOL     OW17193   2.448   1.703   4.690  0.8383 -0.1586 -0.2725
 4357SOL    HW217194   2.404   1.636   4.638  1.2361  0.8911 -2.0745
 4357SOL    HW317195   2.456   1.665   4.777  1.3391 -2.5601 -1.2916
 4357SOL    MW417196   2.443   1.689   4.695  0.9568 -0.3370 -0.6447
 4358SOL     OW17197   0.738   4.137   4.749 -0.3356  0.1649  0.4242
 4358SOL    HW217198   0.794   4.211   4.725  0.1105 -0.0085  0.9249
 4358SOL    HW317199   0.678   4.172   4.815 -0.2598  0.1310  0.5106
 4358SOL    MW417200   0.737   4.151   4.754 -0.2667  0.1375  0.5017
 4359SOL     OW17201   5.520   4.724   1.032  0.0036  0.6428  0.0377
 4359SOL    HW217202   5.519   4.676   1.115  2.2881  2.4731  1.2591
 4359SOL    HW317203   5.613   4.732   1.011 -0.4234  2.3707 -1.3963
 4359SOL    MW417204   5.532   4.719   1.040  0.2487  1.1123  0.0096
 4360SOL     OW17205   0.708   6.312   1.354  0.2186 -0.0410  0.4580
 4360SOL    HW217206   0.741   6.343   1.438  0.1045  0.0927  0.4545
 4360SOL    HW317207   0.659   6.232   1.375  0.7207 -0.3591  0.4343
 4360SOL    MW417208   0.706   6.305   1.368  0.2698 -0.0653  0.4544
 4361SOL     OW17209   1.130   0.685   2.000  0.2403 -0.0882 -0.4529
 4361SOL    HW217210   1.171   0.676   1.914 -0.2145 -1.8594 -0.5144
 4361SOL    HW317211   1.047   0.730   1.983  0.3243 -0.0946 -0.8878
 4361SOL    MW417212   1.125   0.690   1.987  0.1914 -0.3227 -0.5184
 4362SOL     OW17213   5.050   3.703   1.076  0.0095 -0.3059 -0.4393
 4362SOL    HW217214   5.094   3.783   1.105  0.0650 -0.1970 -0.8213
 4362SOL    HW317215   5.119   3.652   1.034  1.1544 -2.6813  3.7923
 4362SOL    MW417216   5.065   3.707   1.074  0.1679 -0.6049  0.0686
 4363SOL     OW17217   0.827   4.453   3.215 -0.2061  0.5199 -0.1286
 4363SOL    HW217218   0.769   4.402   3.272  0.9526  0.3018  0.9037
 4363SOL    HW317219   0.814   4.544   3.242  0.0652  0.4502  0.2597
 4363SOL    MW417220   0.818   4.458   3.226 -0.0174  0.4820  0.0588
 4364SOL     OW17221   0.077   3.822   0.893 -0.2238  0.1036 -0.4308
 4364SOL    HW217222   0.144   3.864   0.947 -0.4995  0.4077 -0.3239
 4364SOL    HW317223   0.080   3.869   0.810 -1.7283  1.5267  0.2652
 4364SOL    MW417224   0.086   3.834   0.889 -0.4586  0.3315 -0.3249
 4365SOL     OW17225   3.204   1.595   6.234 -0.0203 -0.1519  0.7829
 4365SOL    HW217226   3.184   1.686   6.212 -0.2168 -0.4582 -0.3303
 4365SOL    HW317227   3.232   1.555   6.152  0.5636 -0.9737  1.3603
 4365SOL    MW417228   3.205   1.602   6.221  0.0308 -0.3007  0.7122
 4366SOL     OW17229   3.263   4.509   0.493 -0.1425  0.1124 -0.0919
 4366SOL    HW217230   3.195   4.447   0.518 -1.8558  1.4332 -1.1879
 4366SOL    HW317231   3.290   4.550   0.575 -1.0516 -0.0743  0.3131
 4366SOL    MW417232   3.257   4.506   0.507 -0.4885  0.2620 -0.1831
 4367SOL     OW17233   6.326   1.386   0.681 -0.0476  0.1990 -0.2412
 4367SOL    HW217234   6.278   1.404   0.762  0.1678 -0.5432  0.0521
 4367SOL    HW317235   6.378   1.465   0.667 -1.7487  1.2842 -0.8800
 4367SOL    MW417236   6.326   1.399   0.690 -0.2436  0.2443 -0.2868
 4368SOL     OW17237   1.896   5.934   1.034  0.3898 -0.3294  0.2003
 4368SOL    HW217238   1.866   5.846   1.015  0.7348 -0.4056  0.0114
 4368SOL    HW317239   1.890   5.981   0.951 -1.6630  0.3885  0.6876
 4368SOL    MW417240   1.891   5.929   1.021  0.1645 -0.2447  0.2397
 4369SOL     OW17241   1.457   0.853   3.055 -0.0438 -0.6789 -0.4749
 4369SOL    HW217242   1.523   0.830   2.989 -1.0508 -0.4529 -1.6042
 4369SOL    HW317243   1.381   0.798   3.033  0.3317 -2.2820  1.9031
 4369SOL    MW417244   1.455   0.842   3.043 -0.1271 -0.8606 -0.3102
 4370SOL     OW17245   0.873   4.831   1.040 -0.2271 -0.2851 -0.7995
 4370SOL    HW217246   0.940   4.795   0.983 -1.1749 -0.6873 -1.6896
 4370SOL    HW317247   0.808   4.867   0.981 -0.2690  1.1224  0.0534
 4370SOL    MW417248   0.873   4.831   1.025 -0.3577 -0.1524 -0.8044
 4371SOL     OW17249   5.263   5.841   3.049 -0.1161 -0.4571 -0.6658
 4371SOL    HW217250   5.218   5.879   2.974 -1.8352 -1.1481 -0.0172
 4371SOL    HW317251   5.199   5.842   3.120  0.9435 -1.3081  0.3540
 4371SOL    MW417252   5.249   5.846   3.049 -0.2031 -0.6605 -0.4456
 4372SOL     OW17253   3.864   4.656   3.285  0.4310 -0.1769 -0.0755
 4372SOL    HW217254   3.950   4.654   3.327  0.4582  1.5874 -0.0038
 4372SOL    HW317255   3.823   4.736   3.316 -1.2101 -0.9136 -0.2304
 4372SOL    MW417256   3.870   4.666   3.294  0.2181 -0.0413 -0.0864
 4373SOL     OW17257   6.236   0.821   4.253 -0.0823  0.3395  0.1844
 4373SOL    HW217258   6.157   0.767   4.256 -1.1544  1.6116 -1.8496
 4373SOL    HW317259   6.288   0.793   4.328 -1.4002 -2.1659  0.2773
 4373SOL    MW417260   6.233   0.811   4.263 -0.3976  0.1767 -0.0717
 4374SOL     OW17261   2.763   5.125   5.383  0.3029  0.4120  0.4009
 4374SOL    HW217262   2.851   5.155   5.407 -0.1710  1.5373  0.7758
 4374SOL    HW317263   2.730   5.084   5.463 -0.3292  1.9564  0.9749
 4374SOL    MW417264   2.771   5.123   5.397  0.1570  0.7643  0.5261
 4375SOL     OW17265   0.871   2.567   4.403 -0.1214 -0.7541  0.0569
 4375SOL    HW217266   0.824   2.484   4.389 -0.2313 -0.5161 -1.0018
 4375SOL    HW317267   0.876   2.607   4.317  0.4971  0.0548  0.4586
 4375SOL    MW417268   0.865   2.561   4.390 -0.0543 -0.6159 -0.0298
 4376SOL     OW17269   4.389   3.391   4.139 -0.1068 -0.3998  0.2922
 4376SOL    HW217270   4.387   3.311   4.191  0.6285 -0.9618 -0.5193
 4376SOL    HW317271   4.476   3.392   4.099  0.3097  1.3500  1.1206
 4376SOL    MW417272   4.400   3.381   4.141  0.0452 -0.2431  0.2944
 4377SOL     OW17273   2.271   3.721   3.386  0.0994 -0.3306 -0.0593
 4377SOL    HW217274   2.351   3.687   3.346  0.1923  0.9270 -0.9919
 4377SOL    HW317275   2.236   3.783   3.322 -0.7273  0.3956  1.0489
 4377SOL    MW417276   2.277   3.724   3.372  0.0026 -0.0689 -0.0361
 4378SOL     OW17277   1.869   5.958   2.405 -0.7766 -0.1988  0.1479
 4378SOL    HW217278   1.866   5.864   2.424  1.3073 -0.3610 -0.1062
 4378SOL    HW317279   1.957   5.985   2.430 -0.6239  1.2410 -1.7152
 4378SOL    MW417280   1.880   5.949   2.411 -0.4815 -0.0302 -0.1314
 4379SOL     OW17281   2.665   5.342   5.244 -0.2857 -0.0332 -0.2579
 4379SOL    HW217282   2.681   5.292   5.164 -0.4158 -0.2171 -0.1706
 4379SOL    HW317283   2.699   5.286   5.314 -0.8516 -0.2086 -0.1172
 4379SOL    MW417284   2.672   5.328   5.243 -0.3776 -0.0806 -0.2278
 4380SOL     OW17285   4.489   3.271   1.996  0.0483  0.0139  0.1114
 4380SOL    HW217286   4.514   3.288   2.087 -0.0293 -1.5254  0.4341
 4380SOL    HW317287   4.561   3.219   1.960  0.3194  1.0163 -0.8828
 4380SOL    MW417288   4.502   3.267   2.003  0.0738 -0.0570  0.0228
 4381SOL     OW17289   4.414   2.847   1.438 -0.1399 -0.2068  0.3276
 4381SOL    HW217290   4.377   2.930   1.469  2.3250  0.5333  1.5699
 4381SOL    HW317291   4.390   2.783   1.505 -0.0518  0.0394  0.5939
 4381SOL    MW417292   4.406   2.849   1.451  0.1969 -0.0766  0.5267
 4382SOL     OW17293   6.191   1.784   0.129 -0.0253 -0.7739  0.7157
 4382SOL    HW217294   6.279   1.803   0.098 -1.3941  0.1666 -3.1491
 4382SOL    HW317295   6.148   1.870   0.135 -1.4666 -1.3746 -0.3349
 4382SOL    MW417296   6.197   1.798   0.126 -0.3961 -0.7290  0.0672
 4383SOL     OW17297   0.650   2.833   5.092  0.0830  0.4320  0.0965
 4383SOL    HW217298   0.660   2.784   5.010  0.3992 -0.3883  0.6109
 4383SOL    HW317299   0.737   2.833   5.131  0.0605  1.3269  0.1589
 4383SOL    MW417300   0.663   2.826   5.087  0.1217  0.4418  0.1726
 4384SOL     OW17301   2.176   0.870   0.936  0.1735  0.4059  0.2106
 4384SOL    HW217302   2.268   0.865   0.963 -0.1477  0.3324  1.3223
 4384SOL    HW317303   2.163   0.793   0.881  0.8493  0.5800 -0.2155
 4384SOL    MW417304   2.187   0.859   0.932  0.2203  0.4192  0.3010
 4385SOL     OW17305   2.259   2.449   1.163  0.1466  0.3551 -0.2274
 4385SOL    HW217306   2.304   2.530   1.190  2.1927 -0.5742 -0.6131
 4385SOL    HW317307   2.217   2.417   1.242  0.0923  1.3241  0.1500
 4385SOL    MW417308   2.260   2.456   1.177  0.4094  0.3604 -0.2285
 4386SOL     OW17309   0.488   1.413   6.272 -0.0158 -0.2255 -0.3733
 4386SOL    HW217310   0.524   1.483   6.327  0.6247 -1.6393  1.1094
 4386SOL    HW317311   0.529   1.333   6.306 -0.6835 -1.3226 -2.0317
 4386SOL    MW417312   0.498   1.412   6.284 -0.0194 -0.5568 -0.3964
 4387SOL     OW17313   0.606   4.036   1.412  0.0668 -0.5821 -0.2472
 4387SOL    HW217314   0.553   4.068   1.485  0.4289 -1.1520  0.2703
 4387SOL    HW317315   0.544   4.026   1.340  0.0268  1.9092 -0.6544
 4387SOL    MW417316   0.591   4.039   1.412  0.1093 -0.3286 -0.2326
 4388SOL     OW17317   4.173   0.818   3.413  0.0171 -0.0150  0.2217
 4388SOL    HW217318   4.082   0.830   3.438 -0.0407 -1.3412  0.7669
 4388SOL    HW317319   4.171   0.803   3.318 -0.0960  1.8985 -0.1200
 4388SOL    MW417320   4.161   0.818   3.404 -0.0054  0.0625  0.2485
 4389SOL     OW17321   1.200   0.189   2.320  0.0410 -0.2552 -0.2390
 4389SOL    HW217322   1.128   0.252   2.317  0.5635  0.3671 -0.1291
 4389SOL    HW317323   1.235   0.198   2.409  0.7066 -0.0228 -0.5201
 4389SOL    MW417324   1.195   0.198   2.332  0.1977 -0.1424 -0.2616
 4390SOL     OW17325   1.491   5.073   6.274 -0.1225 -0.1590 -0.3883
 4390SOL    HW217326   1.424   5.104   6.335 -0.8255  1.3556 -1.8568
 4390SOL    HW317327   1.489   5.136   6.202  1.5426 -1.1878 -1.4006
 4390SOL    MW417328   1.482   5.086   6.272  0.0044 -0.0949 -0.7156
 4391SOL     OW17329   3.402   1.018   4.017 -0.0550  0.2854 -0.2754
 4391SOL    HW217330   3.392   0.953   4.086  0.8065  1.1918  0.7365
 4391SOL    HW317331   3.435   0.968   3.942  0.6883 -0.4219  0.5072
 4391SOL    MW417332   3.405   1.003   4.016  0.1567  0.3117 -0.0386
 4392SOL     OW17333   6.369   0.633   2.944 -0.0209  0.1445  0.1301
 4392SOL    HW217334   6.458   0.627   2.978  0.2927  0.9459 -0.5259
 4392SOL    HW317335   6.379   0.665   2.854 -0.9809  0.3736  0.0922
 4392SOL    MW417336   6.382   0.636   2.936 -0.1062  0.2804  0.0385
 4393SOL     OW17337   3.959   4.395   2.816  0.0342  0.2646  0.4317
 4393SOL    HW217338   3.952   4.460   2.885  0.4465 -0.6325  1.3496
 4393SOL    HW317339   4.044   4.354   2.831 -1.0564 -1.8730  1.1657
 4393SOL    MW417340   3.969   4.398   2.827 -0.0553 -0.1358  0.6496
 4394SOL     OW17341   1.159   2.510   4.168  0.3852  0.0458 -0.2489
 4394SOL    HW217342   1.249   2.510   4.200 -0.0507 -0.0216  1.0247
 4394SOL    HW317343   1.120   2.431   4.206  0.1113 -0.5806 -1.7580
 4394SOL    MW417344   1.166   2.499   4.177  0.2916 -0.0458 -0.2800
 4395SOL     OW17345   5.422   0.317   0.210 -0.6544  0.2285 -0.2979
 4395SOL    HW217346   5.447   0.283   0.124 -2.2286 -0.1849 -0.6358
 4395SOL    HW317347   5.368   0.247   0.248  0.5675  0.0993  1.3487
 4395SOL    MW417348   5.418   0.303   0.204 -0.7009  0.1569 -0.1253
 4396SOL     OW17349   5.081   0.937   1.954  0.0560 -0.7568  0.3542
 4396SOL    HW217350   5.155   0.876   1.964 -0.3227 -1.3988 -0.6071
 4396SOL    HW317351   5.017   0.907   2.018  0.5877 -0.2480  1.1371
 4396SOL    MW417352   5.083   0.925   1.964  0.0762 -0.7744  0.3307
 4397SOL     OW17353   1.186   1.926   3.476  0.5553 -0.0066 -0.2052
 4397SOL    HW217354   1.138   1.867   3.417 -0.9723  0.3637  0.6048
 4397SOL    HW317355   1.225   1.992   3.419 -0.9498  0.3852 -0.8255
 4397SOL    MW417356   1.185   1.927   3.461  0.1552  0.0939 -0.1802
 4398SOL     OW17357   3.689   0.973   2.038 -0.0277 -0.1293 -0.0090
 4398SOL    HW217358   3.702   1.040   1.970 -0.8571 -0.9219 -0.9798
 4398SOL    HW317359   3.775   0.961   2.076  0.2402  1.1219 -0.1708
 4398SOL    MW417360   3.702   0.981   2.034 -0.1018 -0.0688 -0.1585
 4399SOL     OW17361   3.438   6.326   5.858  0.4082 -0.2505  0.0927
 4399SOL    HW217362   3.457   6.330   5.764 -1.2375 -1.3087 -0.3180
 4399SOL    HW317363   3.386   6.247   5.869 -2.6786  1.7454  1.2824
 4399SOL    MW417364   3.434   6.316   5.847 -0.2162 -0.1268  0.1955
 4400SOL     OW17365   1.258   0.398   1.685  0.2943 -0.0561 -0.0453
 4400SOL    HW217366   1.252   0.376   1.778 -1.1413  1.6561  0.3129
 4400SOL    HW317367   1.195   0.341   1.642 -0.2429  0.2883  0.2742
 4400SOL    MW417368   1.249   0.388   1.691  0.0340  0.2152  0.0441
 4401SOL     OW17369   3.133   2.939   2.394  0.1591 -0.3796  0.0417
 4401SOL    HW217370   3.054   2.884   2.388 -0.6943  0.8307 -0.0812
 4401SOL    HW317371   3.127   2.979   2.480  0.3339  0.1771 -0.2032
 4401SOL    MW417372   3.122   2.937   2.404  0.0696 -0.1464 -0.0068
 4402SOL     OW17373   3.461   2.949   2.747 -0.0118 -0.4417  0.2276
 4402SOL    HW217374   3.444   2.977   2.837 -0.3367 -0.9308  0.3229
 4402SOL    HW317375   3.483   3.030   2.700  2.3464 -0.4289  1.2184
 4402SOL    MW417376   3.462   2.963   2.753  0.2564 -0.5045  0.3709
 4403SOL     OW17377   4.572   3.487   0.390 -0.3559  0.0382  0.1059
 4403SOL    HW217378   4.510   3.415   0.376  2.2080 -1.9331 -2.3935
 4403SOL    HW317379   4.629   3.455   0.460 -0.1131  0.3281  0.0390
 4403SOL    MW417380   4.571   3.473   0.398  0.0144 -0.1836 -0.2327
 4404SOL     OW17381   4.257   1.952   1.345  0.5978 -0.8558 -0.0637
 4404SOL    HW217382   4.287   1.920   1.260  2.1488  0.6134 -0.1022
 4404SOL    HW317383   4.175   1.998   1.325  0.3469 -1.4920 -0.5626
 4404SOL    MW417384   4.250   1.954   1.331  0.7694 -0.7459 -0.1346
 4405SOL     OW17385   1.318   5.451   2.562 -0.1268 -0.4164  0.1752
 4405SOL    HW217386   1.246   5.421   2.617 -0.2365 -0.2367  0.1278
 4405SOL    HW317387   1.394   5.402   2.594 -0.3242 -0.8241  0.0336
 4405SOL    MW417388   1.319   5.440   2.573 -0.1673 -0.4465  0.1503
 4406SOL     OW17389   3.459   3.792   0.475 -0.4486  0.1474  0.3625
 4406SOL    HW217390   3.477   3.779   0.382  0.8704  1.3530  0.4032
 4406SOL    HW317391   3.405   3.871   0.478 -0.2441  0.2799  0.6256
 4406SOL    MW417392   3.454   3.801   0.463 -0.2476  0.3240  0.4026
 4407SOL     OW17393   6.349   2.037   5.862 -0.4421  0.1774  0.1571
 4407SOL    HW217394   6.285   1.979   5.903  0.0237  0.3672  1.1896
 4407SOL    HW317395   6.421   2.042   5.926  0.5895 -0.0144 -0.9645
 4407SOL    MW417396   6.350   2.030   5.876 -0.2445  0.1771  0.1453
 4408SOL     OW17397   6.069   1.492   0.105  0.3850  0.3212 -0.8510
 4408SOL    HW217398   6.121   1.449   0.038  0.5390  0.6516 -0.9437
 4408SOL    HW317399   6.129   1.553   0.148  0.5258 -0.4983  0.1672
 4408SOL    MW417400   6.083   1.494   0.102  0.4239  0.2567 -0.7289
 4409SOL     OW17401   5.554   0.290   3.157 -0.0633  0.1741  0.2150
 4409SOL    HW217402   5.608   0.225   3.200  0.2902 -0.2188 -0.7835
 4409SOL    HW317403   5.533   0.354   3.225  3.6307  1.6680  0.1952
 4409SOL    MW417404   5.558   0.290   3.171  0.4707  0.3194  0.0807
 4410SOL     OW17405   1.775   1.383   3.331  0.2371  0.2687  0.3312
 4410SOL    HW217406   1.864   1.406   3.359  0.7900 -0.0839 -1.0515
 4410SOL    HW317407   1.783   1.295   3.295 -0.3869  0.7121 -0.9831
 4410SOL    MW417408   1.788   1.375   3.330  0.2277  0.2807 -0.0246
 4411SOL     OW17409   3.785   5.253   1.392 -0.1931 -0.5515 -0.3725
 4411SOL    HW217410   3.791   5.284   1.483  0.0896  0.2458 -0.6633
 4411SOL    HW317411   3.833   5.170   1.393  0.3015 -0.2663  0.0785
 4411SOL    MW417412   3.792   5.246   1.404 -0.0905 -0.4087 -0.3514
 4412SOL     OW17413   3.554   1.950   1.244  0.2249 -0.3028  0.2166
 4412SOL    HW217414   3.461   1.953   1.266  0.2291 -0.7180  0.3036
 4412SOL    HW317415   3.571   1.857   1.226  0.9186 -0.4413  1.4988
 4412SOL    MW417416   3.544   1.938   1.245  0.3170 -0.3759  0.3972
 4413SOL     OW17417   5.275   1.525   3.154 -0.3677 -0.1381  0.7531
 4413SOL    HW217418   5.248   1.569   3.235 -0.6604 -0.9210  1.0934
 4413SOL    HW317419   5.279   1.432   3.178 -0.0936 -0.3338 -0.0380
 4413SOL    MW417420   5.272   1.518   3.168 -0.3702 -0.2672  0.6936
 4414SOL     OW17421   0.745   6.301   6.302 -0.1726  0.5948  0.0576
 4414SOL    HW217422   0.731   6.394   6.321 -0.6379  0.1176  2.2279
 4414SOL    HW317423   0.759   6.260   6.387  2.2963 -1.0135 -1.0007
 4414SOL    MW417424   0.745   6.308   6.315  0.0917  0.3196  0.2043
 4415SOL     OW17425   5.011   4.278   3.963 -0.2611  0.3073  0.0295
 4415SOL    HW217426   4.919   4.252   3.949 -0.3045  1.3295 -1.9805
 4415SOL    HW317427   5.013   4.371   3.940  1.5649 -0.0606 -1.5253
 4415SOL    MW417428   4.999   4.287   3.958 -0.0259  0.3937 -0.4409
 4416SOL     OW17429   6.081   3.432   6.212  0.3991 -0.1704 -0.5705
 4416SOL    HW217430   6.042   3.393   6.290  0.1541 -0.9169 -1.0467
 4416SOL    HW317431   6.016   3.416   6.143  1.4199 -1.2281 -1.3265
 4416SOL    MW417432   6.067   3.425   6.213  0.5015 -0.4084 -0.7331
 4417SOL     OW17433   2.897   2.948   4.275  0.3398  0.1873 -0.2916
 4417SOL    HW217434   2.834   2.896   4.224  0.4690 -0.8275  0.5388
 4417SOL    HW317435   2.982   2.929   4.235  0.2278  0.8834 -0.8743
 4417SOL    MW417436   2.900   2.938   4.263  0.3420  0.1453 -0.2589
 4418SOL     OW17437   3.971   6.068   6.467  0.0029 -0.2531  0.1144
 4418SOL    HW217438   3.944   6.112   6.548 -0.6636 -2.3600  1.1246
 4418SOL    HW317439   3.911   6.100   6.400 -0.6392  0.1289  0.8655
 4418SOL    MW417440   3.960   6.078   6.469 -0.1698 -0.4806  0.3468
 4419SOL     OW17441   5.158   5.148   1.493 -0.5125  0.1428 -0.3850
 4419SOL    HW217442   5.124   5.120   1.408 -0.7973 -0.9171  0.0658
 4419SOL    HW317443   5.230   5.087   1.511 -0.4019  0.4131  0.1038
 4419SOL    MW417444   5.163   5.136   1.484 -0.5355  0.0386 -0.2610
 4420SOL     OW17445   3.886   0.732   5.663 -0.6377 -0.0596  1.0013
 4420SOL    HW217446   3.897   0.665   5.730  1.3008 -0.2691  0.5222
 4420SOL    HW317447   3.853   0.685   5.587  1.0536 -0.5610  0.5564
 4420SOL    MW417448   3.883   0.717   5.662 -0.1588 -0.1534  0.8794
 4421SOL     OW17449   4.448   5.189   0.783 -0.2297 -0.3114  0.3239
 4421SOL    HW217450   4.467   5.244   0.859  1.1940  0.4219 -0.5065
 4421SOL    HW317451   4.533   5.178   0.740 -1.1817  0.5485 -1.9740
 4421SOL    MW417452   4.462   5.195   0.787 -0.1675 -0.1012 -0.0888
 4422SOL     OW17453   2.290   0.977   5.296 -0.1295  0.6065  0.0666
 4422SOL    HW217454   2.381   0.949   5.291 -0.0624  1.0144 -2.8314
 4422SOL    HW317455   2.287   1.036   5.371  1.9861  0.5882  0.2351
 4422SOL    MW417456   2.302   0.981   5.305  0.1584  0.6579 -0.2936
 4423SOL     OW17457   0.704   5.256   2.585  0.0892  0.0810  0.4290
 4423SOL    HW217458   0.735   5.341   2.551 -1.1435 -0.1303 -1.3300
 4423SOL    HW317459   0.641   5.280   2.654  1.3587  0.5267  1.4983
 4423SOL    MW417460   0.700   5.271   2.590  0.0941  0.1120  0.3380
 4424SOL     OW17461   0.407   4.407   3.442 -0.0606 -0.3334  0.1518
 4424SOL    HW217462   0.376   4.428   3.530  0.4859 -0.3009  0.3377
 4424SOL    HW317463   0.343   4.344   3.408 -1.1514  0.8337 -0.0246
 4424SOL    MW417464   0.394   4.402   3.449 -0.1324 -0.1751  0.1530
 4425SOL     OW17465   4.331   0.898   2.093  0.4140  0.4009 -0.2107
 4425SOL    HW217466   4.364   0.840   2.161 -1.1304  0.3168  0.5085
 4425SOL    HW317467   4.333   0.986   2.132 -1.5401  0.2132  0.4195
 4425SOL    MW417468   4.335   0.902   2.107 -0.0476  0.3650 -0.0326
 4426SOL     OW17469   4.894   5.118   0.821  0.2426  0.4089  0.3347
 4426SOL    HW217470   4.905   5.168   0.902 -2.9364  1.8419  0.0443
 4426SOL    HW317471   4.834   5.047   0.844  1.0950 -0.5279 -0.2760
 4426SOL    MW417472   4.887   5.115   0.834 -0.0644  0.4744  0.2158
 4427SOL     OW17473   5.727   5.030   0.352 -0.1503 -0.0593  0.5052
 4427SOL    HW217474   5.645   5.017   0.305  0.3493 -0.5897 -0.2409
 4427SOL    HW317475   5.775   5.093   0.298 -0.3491  0.8199  1.3173
 4427SOL    MW417476   5.722   5.037   0.339 -0.1106 -0.0133  0.5139
 4428SOL     OW17477   2.373   3.334   1.078 -0.1169  0.0738  0.0218
 4428SOL    HW217478   2.280   3.310   1.079 -0.3371  0.8744 -0.4487
 4428SOL    HW317479   2.390   3.364   1.168  0.2492 -2.0511  0.7163
 4428SOL    MW417480   2.363   3.335   1.090 -0.0977 -0.1010  0.0513
 4429SOL     OW17481   2.068   2.976   3.921  0.2148  0.7255 -0.2155
 4429SOL    HW217482   2.135   3.033   3.885 -0.8295  2.0423 -0.1352
 4429SOL    HW317483   2.101   2.951   4.007  1.1020  0.4430 -0.6326
 4429SOL    MW417484   2.081   2.980   3.928  0.1941  0.8620 -0.2600
 4430SOL     OW17485   3.639   3.768   4.098  0.2871  0.2233  0.1677
 4430SOL    HW217486   3.548   3.772   4.069 -0.0800  1.0172  1.3569
 4430SOL    HW317487   3.665   3.860   4.106  1.7591  0.0422 -1.7957
 4430SOL    MW417488   3.630   3.781   4.095  0.4328  0.3042  0.0656
 4431SOL     OW17489   1.106   3.368   6.040  0.2558  0.0887  0.2917
 4431SOL    HW217490   1.126   3.387   5.948  1.9913  2.5708  1.0814
 4431SOL    HW317491   1.112   3.273   6.047  4.9745  0.0271 -1.2062
 4431SOL    MW417492   1.109   3.358   6.028  1.1074  0.4080  0.1983
 4432SOL     OW17493   1.675   6.163   1.194 -0.2641 -0.3288 -0.3186
 4432SOL    HW217494   1.631   6.113   1.124  0.0600  1.6598 -2.0531
 4432SOL    HW317495   1.674   6.254   1.162 -0.5553  0.7561  2.5360
 4432SOL    MW417496   1.669   6.168   1.180 -0.2598  0.0767 -0.1708
 4433SOL     OW17497   3.717   3.115   5.270  0.0792 -0.1168 -0.3024
 4433SOL    HW217498   3.706   3.189   5.210  0.9041 -0.2337 -0.6122
 4433SOL    HW317499   3.779   3.148   5.336  1.3285 -0.8840 -1.0659
 4433SOL    MW417500   3.724   3.129   5.271  0.3529 -0.2335 -0.4440
 4434SOL     OW17501   2.246   6.360   0.197 -0.6136 -0.4438 -0.1980
 4434SOL    HW217502   2.247   6.421   0.123  0.6758 -1.3635 -0.9756
 4434SOL    HW317503   2.211   6.278   0.161 -0.1066 -0.8617  0.2405
 4434SOL    MW417504   2.241   6.357   0.182 -0.3766 -0.6203 -0.2427
 4435SOL     OW17505   6.014   3.371   3.915  0.1255  0.4728  0.2191
 4435SOL    HW217506   6.099   3.346   3.878 -0.8023 -1.0381 -1.0220
 4435SOL    HW317507   6.031   3.379   4.009  1.3936 -1.1000  0.1714
 4435SOL    MW417508   6.028   3.368   3.923  0.1704  0.0659  0.0490
 4436SOL     OW17509   2.321   3.669   4.582  0.5833 -0.2201 -0.4428
 4436SOL    HW217510   2.404   3.623   4.594 -0.4895 -2.1822 -0.0934
 4436SOL    HW317511   2.257   3.600   4.568 -1.1027  1.1964 -0.1409
 4436SOL    MW417512   2.323   3.654   4.582  0.2193 -0.2921 -0.3569
 4437SOL     OW17513   0.893   3.672   3.469 -0.0155  0.5539  0.1092
 4437SOL    HW217514   0.967   3.626   3.430 -0.0474  0.6729 -0.0945
 4437SOL    HW317515   0.817   3.644   3.418 -0.1758  0.1093  0.5844
 4437SOL    MW417516   0.892   3.662   3.457 -0.0409  0.5109  0.1450
 4438SOL     OW17517   2.905   4.522   0.596 -0.0191 -0.3891  0.1218
 4438SOL    HW217518   2.908   4.476   0.512 -1.1697  0.1181 -0.2127
 4438SOL    HW317519   2.817   4.507   0.628 -0.4619  1.6151 -0.0299
 4438SOL    MW417520   2.894   4.514   0.589 -0.2293 -0.0578  0.0577
 4439SOL     OW17521   5.412   5.619   3.098  0.5638  0.1409 -0.1127
 4439SOL    HW217522   5.373   5.702   3.072  2.1909  0.6899 -0.9706
 4439SOL    HW317523   5.416   5.623   3.193  2.2001  1.8488 -0.2019
 4439SOL    MW417524   5.408   5.630   3.107  0.9944  0.4386 -0.2376
 4440SOL     OW17525   6.282   1.475   0.929 -0.2132 -0.0649 -0.1267
 4440SOL    HW217526   6.280   1.563   0.966 -0.0850  0.0215 -0.3202
 4440SOL    HW317527   6.216   1.426   0.978  0.7808 -0.2780  1.0216
 4440SOL    MW417528   6.273   1.481   0.940 -0.0651 -0.0816 -0.0008
 4441SOL     OW17529   1.829   5.455   3.745 -0.1156 -0.3054  0.0376
 4441SOL    HW217530   1.851   5.546   3.722 -0.1612 -0.0105  1.1141
 4441SOL    HW317531   1.796   5.418   3.663 -1.3088  1.0273 -0.1418
 4441SOL    MW417532   1.827   5.462   3.731 -0.2791 -0.0907  0.1559
 4442SOL     OW17533   1.368   3.499   0.961  0.5026  0.2148  0.1581
 4442SOL    HW217534   1.459   3.527   0.960  0.3900  0.6037 -1.0313
 4442SOL    HW317535   1.352   3.466   0.872 -0.3102 -0.5367  0.5642
 4442SOL    MW417536   1.378   3.498   0.949  0.3805  0.1670  0.0548
 4443SOL     OW17537   5.184   5.852   4.401  0.4791  0.2608  0.4178
 4443SOL    HW217538   5.259   5.793   4.400  0.3009  0.0310  0.5480
 4443SOL    HW317539   5.127   5.822   4.330  0.8183  0.8452 -0.1182
 4443SOL    MW417540   5.186   5.841   4.392  0.5003  0.3076  0.3643
 4444SOL     OW17541   2.339   4.747   1.836 -0.1167  0.1770 -0.1041
 4444SOL    HW217542   2.316   4.809   1.906  1.7362 -0.8058  1.4468
 4444SOL    HW317543   2.271   4.761   1.769 -0.1004  3.4751  0.4033
 4444SOL    MW417544   2.327   4.757   1.836  0.1299  0.4825  0.1675
 4445SOL     OW17545   4.088   4.359   4.442  0.5510 -0.3985  0.5658
 4445SOL    HW217546   4.022   4.428   4.442  1.1682  0.2014  0.6889
 4445SOL    HW317547   4.043   4.283   4.406  0.3906  0.5957 -1.5146
 4445SOL    MW417548   4.073   4.358   4.437  0.6113 -0.1881  0.3076
 4446SOL     OW17549   0.135   2.862   1.743 -0.2378 -0.1996 -0.0162
 4446SOL    HW217550   0.164   2.840   1.831  2.1609  0.1604 -0.6512
 4446SOL    HW317551   0.098   2.781   1.708 -0.5802 -0.5193  1.0605
 4446SOL    MW417552   0.134   2.849   1.750  0.0335 -0.1943  0.0421
 4447SOL     OW17553   1.651   1.417   1.644 -0.1280 -0.3062 -0.3241
 4447SOL    HW217554   1.586   1.436   1.712  0.8130  1.3915  0.1676
 4447SOL    HW317555   1.663   1.323   1.649 -1.3736 -0.4468  0.6687
 4447SOL    MW417556   1.644   1.407   1.654 -0.1682 -0.1008 -0.1282
 4448SOL     OW17557   6.186   0.960   2.368  0.2329 -0.3190 -0.0586
 4448SOL    HW217558   6.156   1.001   2.288  1.7183  0.4309 -0.2586
 4448SOL    HW317559   6.111   0.909   2.398 -0.7909  0.4686 -1.1854
 4448SOL    MW417560   6.172   0.959   2.362  0.2938 -0.1161 -0.2336
 4449SOL     OW17561   3.004   2.158   3.770  0.6228  0.1500  0.5045
 4449SOL    HW217562   2.942   2.209   3.718  2.4798  0.2169 -1.7999
 4449SOL    HW317563   3.011   2.075   3.723  0.6928 -0.7084  1.9614
 4449SOL    MW417564   2.996   2.154   3.757  0.8770  0.0456  0.3927
 4450SOL     OW17565   6.211   1.820   3.191 -0.5024  0.3146 -0.4777
 4450SOL    HW217566   6.183   1.787   3.105  0.3531 -1.5877 -0.0942
 4450SOL    HW317567   6.184   1.751   3.252 -1.1495  1.6698  0.8124
 4450SOL    MW417568   6.204   1.806   3.187 -0.4749  0.2424 -0.2569
 4451SOL     OW17569   6.004   1.199   3.296  0.1886  0.2503  0.1941
 4451SOL    HW217570   6.008   1.134   3.226  0.6781  0.4297  0.0538
 4451SOL    HW317571   6.086   1.247   3.289  0.5976 -0.2444  1.3939
 4451SOL    MW417572   6.015   1.197   3.286  0.3072  0.2087  0.3339
 4452SOL     OW17573   4.085   1.795   1.535 -0.0970  0.2917  0.3782
 4452SOL    HW217574   4.116   1.706   1.553  0.9280  0.7793  1.1330
 4452SOL    HW317575   4.144   1.826   1.466 -0.5780  0.3285 -0.0212
 4452SOL    MW417576   4.097   1.787   1.528 -0.0252  0.3609  0.4251
 4453SOL     OW17577   3.773   4.277   0.900  0.8429 -0.6548 -0.2926
 4453SOL    HW217578   3.727   4.298   0.819  1.9909  0.4509 -0.6934
 4453SOL    HW317579   3.856   4.239   0.871  0.9348 -0.9973  0.3839
 4453SOL    MW417580   3.778   4.275   0.885  1.0065 -0.5541 -0.2562
 4454SOL     OW17581   0.512   3.628   4.763 -0.3518  0.4266  0.1796
 4454SOL    HW217582   0.564   3.557   4.802  0.3831  1.2489  0.7381
 4454SOL    HW317583   0.541   3.631   4.672 -2.2992 -1.7093 -0.6060
 4454SOL    MW417584   0.523   3.619   4.756 -0.5117  0.2533  0.1497
 4455SOL     OW17585   5.919   0.720   6.454  0.4193  0.5851  0.0774
 4455SOL    HW217586   5.954   0.754   6.536  2.5337  0.0359 -0.5323
 4455SOL    HW317587   5.982   0.654   6.426 -0.3175  0.6325 -1.8916
 4455SOL    MW417588   5.932   0.716   6.461  0.6011  0.5189 -0.2629
 4456SOL     OW17589   4.669   3.506   6.271  0.4431  0.4123 -0.1224
 4456SOL    HW217590   4.693   3.430   6.324  0.7284  0.3057 -0.3990
 4456SOL    HW317591   4.753   3.550   6.253  0.1559  1.4950  1.0820
 4456SOL    MW417592   4.683   3.502   6.275  0.4429  0.5411 -0.0000
 4457SOL     OW17593   2.165   2.064   5.515 -0.2766  0.2783  0.3033
 4457SOL    HW217594   2.236   2.119   5.481 -0.5572  1.1699  1.0984
 4457SOL    HW317595   2.086   2.118   5.506 -0.4716  0.2575  1.6481
 4457SOL    MW417596   2.164   2.078   5.509 -0.3393  0.3932  0.5856
 4458SOL     OW17597   0.442   4.678   5.567  0.3465 -0.8590  0.3783
 4458SOL    HW217598   0.349   4.700   5.560  0.1512 -1.4700  0.9281
 4458SOL    HW317599   0.453   4.604   5.507  0.8006  0.1076 -0.7710
 4458SOL    MW417600   0.431   4.671   5.558  0.3807 -0.8121  0.2992
 4459SOL     OW17601   4.657   0.300   3.221 -0.1135  0.7649 -0.0718
 4459SOL    HW217602   4.735   0.257   3.257  0.0998 -0.6186 -2.0141
 4459SOL    HW317603   4.634   0.366   3.286  1.3805 -0.2572  1.5982
 4459SOL    MW417604   4.665   0.303   3.235  0.1117  0.4475 -0.1077
 4460SOL     OW17605   2.155   3.132   2.780 -0.6404 -0.1750 -0.1646
 4460SOL    HW217606   2.188   3.128   2.690 -1.5404  0.1705 -0.5290
 4460SOL    HW317607   2.200   3.062   2.826 -1.2327 -1.2991 -1.2560
 4460SOL    MW417608   2.165   3.122   2.774 -0.8373 -0.2777 -0.3566
 4461SOL     OW17609   0.788   2.810   4.546  0.1581  0.6593  0.2319
 4461SOL    HW217610   0.759   2.853   4.465  0.4733  0.7993  0.1946
 4461SOL    HW317611   0.810   2.720   4.519  0.3911  0.7446  0.1366
 4461SOL    MW417612   0.787   2.804   4.532  0.2304  0.6890  0.2144
 4462SOL     OW17613   0.981   1.108   2.083  0.4604  0.1964  0.3072
 4462SOL    HW217614   1.066   1.070   2.060  0.8428 -0.3063  2.3414
 4462SOL    HW317615   0.929   1.102   2.003  1.7509 -1.1825 -0.4645
 4462SOL    MW417616   0.985   1.102   2.069  0.6811 -0.0519  0.4738
 4463SOL     OW17617   0.041   5.654   3.932  0.2644 -0.0995  0.6061
 4463SOL    HW217618   0.051   5.702   4.014 -1.4669 -1.5075  1.7186
 4463SOL    HW317619  -0.046   5.615   3.938 -0.2076  0.3296 -2.2397
 4463SOL    MW417620   0.031   5.655   3.944 -0.0263 -0.2286  0.3774
 4464SOL     OW17621   1.462   3.352   2.997  0.0765 -0.2309 -1.0849
 4464SOL    HW217622   1.461   3.446   2.980 -2.2276 -0.4550 -2.5557
 4464SOL    HW317623   1.550   3.323   2.972  0.5246  1.3810 -1.4418
 4464SOL    MW417624   1.473   3.360   2.992 -0.1684 -0.0478 -1.3261
 4465SOL     OW17625   3.175   3.150   5.830  0.6196 -0.3522 -0.3008
 4465SOL    HW217626   3.174   3.245   5.841 -1.4845 -0.0021 -2.5949
 4465SOL    HW317627   3.083   3.124   5.838  0.8561 -1.8711 -1.8435
 4465SOL    MW417628   3.163   3.159   5.833  0.3732 -0.5064 -0.8070
 4466SOL     OW17629   6.143   4.240   2.497 -0.5904  0.4770 -0.3303
 4466SOL    HW217630   6.230   4.279   2.503 -1.4897  2.9196 -1.7532
 4466SOL    HW317631   6.152   4.170   2.433  0.2930  0.8265 -0.5964
 4466SOL    MW417632   6.155   4.236   2.489 -0.5925  0.8454 -0.5532
 4467SOL     OW17633   2.341   5.160   3.298 -0.6923 -0.4204  0.1512
 4467SOL    HW217634   2.318   5.081   3.346 -1.0290  0.1838  1.0024
 4467SOL    HW317635   2.416   5.134   3.245  1.8284 -0.3310  3.3625
 4467SOL    MW417636   2.348   5.146   3.297 -0.4042 -0.3289  0.6872
 4468SOL     OW17637   6.057   5.359   0.554 -0.0039  0.2275  0.3485
 4468SOL    HW217638   6.074   5.268   0.577 -1.3436 -0.0555  0.2984
 4468SOL    HW317639   6.030   5.400   0.637  1.0095  0.6962  0.4606
 4468SOL    MW417640   6.055   5.353   0.568 -0.0470  0.2520  0.3567
 4469SOL     OW17641   3.425   6.167   2.311  0.0735 -0.2256  0.1762
 4469SOL    HW217642   3.516   6.158   2.285  0.3620 -0.0245  1.0693
 4469SOL    HW317643   3.392   6.241   2.260  0.3119 -0.5067 -0.3909
 4469SOL    MW417644   3.432   6.175   2.301  0.1430 -0.2361  0.2192
 4470SOL     OW17645   2.783   5.680   6.423  0.1833  0.5410 -0.3825
 4470SOL    HW217646   2.772   5.676   6.518 -0.2549 -0.6811 -0.4738
 4470SOL    HW317647   2.796   5.773   6.405 -0.7812  0.9198  0.7613
 4470SOL    MW417648   2.783   5.692   6.433 -0.0018  0.4298 -0.2436
 4471SOL     OW17649   4.105   1.908   4.799 -0.1304  0.1397  0.2856
 4471SOL    HW217650   4.133   1.951   4.880  2.9354 -2.1447  0.6481
 4471SOL    HW317651   4.184   1.906   4.745 -0.3067 -3.7910 -0.1387
 4471SOL    MW417652   4.119   1.914   4.803  0.2509 -0.6803  0.2774
 4472SOL     OW17653   4.057   2.956   5.731  0.1211 -0.2049  0.5566
 4472SOL    HW217654   4.104   2.915   5.658 -0.4427  0.3416 -0.1259
 4472SOL    HW317655   4.114   3.026   5.760  0.4060 -0.5063  0.7349
 4472SOL    MW417656   4.071   2.960   5.725  0.0843 -0.1726  0.4900
 4473SOL     OW17657   4.276   1.711   2.557 -0.1468 -0.1236  0.4472
 4473SOL    HW217658   4.222   1.789   2.556 -0.7819 -0.5576  0.5295
 4473SOL    HW317659   4.327   1.716   2.476 -1.2099 -0.3355 -0.2445
 4473SOL    MW417660   4.276   1.722   2.546 -0.3709 -0.2089  0.3668
 4474SOL     OW17661   0.333   3.829   6.324  0.1139 -0.4427  0.3524
 4474SOL    HW217662   0.373   3.743   6.337  2.2511  0.5688  0.7867
 4474SOL    HW317663   0.337   3.843   6.229  1.9593  0.1428  0.4863
 4474SOL    MW417664   0.339   3.820   6.313  0.6394 -0.2320  0.4274
 4475SOL     OW17665   3.487   1.680   1.744 -0.6138  0.8633 -0.4459
 4475SOL    HW217666   3.505   1.635   1.826  1.2329  1.8519 -0.2613
 4475SOL    HW317667   3.453   1.766   1.771  1.6972  1.8893 -0.6095
 4475SOL    MW417668   3.485   1.685   1.758 -0.0652  1.1291 -0.4432
 4476SOL     OW17669   5.392   5.724   6.454  0.2326  0.1479 -0.4982
 4476SOL    HW217670   5.386   5.724   6.358 -1.4853  1.7969 -0.4544
 4476SOL    HW317671   5.381   5.816   6.478  0.8923 -0.2082  1.2938
 4476SOL    MW417672   5.390   5.736   6.445  0.0930  0.3185 -0.2560
 4477SOL     OW17673   5.357   3.760   4.681 -0.0897  0.1322 -0.5490
 4477SOL    HW217674   5.346   3.666   4.666 -1.6596  0.2595 -0.4123
 4477SOL    HW317675   5.450   3.770   4.703  0.0887 -1.3932 -0.4588
 4477SOL    MW417676   5.368   3.749   4.682 -0.2733 -0.0523 -0.5191
 4478SOL     OW17677   5.492   6.029   3.061  0.4970  0.4828 -0.2062
 4478SOL    HW217678   5.419   5.970   3.043 -0.7423  1.9775 -0.1919
 4478SOL    HW317679   5.519   6.061   2.975  0.3083  0.9044 -0.1073
 4478SOL    MW417680   5.486   6.025   3.047  0.3086  0.7356 -0.1913
 4479SOL     OW17681   1.438   2.566   1.769  0.1751 -0.3229  0.1185
 4479SOL    HW217682   1.521   2.602   1.736  0.2137  0.2869  0.8487
 4479SOL    HW317683   1.460   2.531   1.856 -0.8829  2.4413  1.6198
 4479SOL    MW417684   1.452   2.566   1.776  0.0406  0.1223  0.4129
 4480SOL     OW17685   3.926   0.205   6.459 -0.1832 -0.1446 -0.2187
 4480SOL    HW217686   4.002   0.183   6.512 -0.1899 -1.6579 -0.7774
 4480SOL    HW317687   3.942   0.295   6.431  1.5891 -0.5276 -0.5963
 4480SOL    MW417688   3.938   0.214   6.462  0.0497 -0.3948 -0.3422
 4481SOL     OW17689   3.866   4.659   1.625  0.0321 -0.1958  0.4839
 4481SOL    HW217690   3.836   4.599   1.693  0.3315 -0.0560  0.7431
 4481SOL    HW317691   3.933   4.713   1.668  0.9060 -0.7320 -0.1652
 4481SOL    MW417692   3.871   4.659   1.639  0.1869 -0.2481  0.4325
 4482SOL     OW17693   4.533   3.761   5.865 -0.0434  0.7771 -0.0542
 4482SOL    HW217694   4.537   3.856   5.876  1.6317  0.8918 -1.3365
 4482SOL    HW317695   4.480   3.749   5.786 -2.2246  0.4869  1.3713
 4482SOL    MW417696   4.526   3.772   5.856 -0.1101  0.7539 -0.0353
 4483SOL     OW17697   4.235   4.172   1.980  0.1800 -0.5129 -0.4240
 4483SOL    HW217698   4.144   4.199   1.994  0.6242  1.1264 -0.5007
 4483SOL    HW317699   4.231   4.112   1.905 -0.5888  1.4625 -2.0579
 4483SOL    MW417700   4.222   4.168   1.972  0.1372 -0.0360 -0.6497
 4484SOL     OW17701   5.878   2.954   2.550 -0.3543 -0.8705 -0.4920
 4484SOL    HW217702   5.953   2.990   2.502  1.7350 -2.1376  1.5831
 4484SOL    HW317703   5.815   3.026   2.553  2.0107  1.3177  0.1654
 4484SOL    MW417704   5.880   2.968   2.544  0.2334 -0.7490 -0.1315
 4485SOL     OW17705   3.158   3.075   2.651  0.6491 -0.3832 -0.2937
 4485SOL    HW217706   3.216   3.026   2.709  1.1069  0.4747 -0.0049
 4485SOL    HW317707   3.075   3.081   2.698  0.7958 -0.3088 -0.0479
 4485SOL    MW417708   3.155   3.070   2.665  0.7289 -0.2602 -0.2232
 4486SOL     OW17709   0.854   1.978   5.196 -0.3018  0.4681  0.0876
 4486SOL    HW217710   0.859   1.933   5.280  1.0358  2.6496  1.2700
 4486SOL    HW317711   0.795   1.924   5.143  0.1964 -1.9251  1.7880
 4486SOL    MW417712   0.847   1.965   5.200 -0.0596  0.4402  0.4679
 4487SOL     OW17713   3.479   3.340   4.068 -0.5001  0.5653 -0.0313
 4487SOL    HW217714   3.519   3.367   3.985  0.0711 -2.5316 -0.9137
 4487SOL    HW317715   3.416   3.408   4.087  0.7039  2.3780 -1.9929
 4487SOL    MW417716   3.476   3.352   4.059 -0.2659  0.3959 -0.4066
 4488SOL     OW17717   2.363   6.186   5.386  0.1301  0.9130 -0.2140
 4488SOL    HW217718   2.338   6.098   5.414  0.8206  1.0203  0.7907
 4488SOL    HW317719   2.310   6.202   5.308 -1.4455  0.3603  0.6747
 4488SOL    MW417720   2.352   6.177   5.380  0.0133  0.8543  0.0358
 4489SOL     OW17721   2.382   3.704   4.304 -0.0256 -0.0328 -0.9326
 4489SOL    HW217722   2.329   3.669   4.376 -1.7023  1.2495 -1.4715
 4489SOL    HW317723   2.342   3.789   4.284  1.4334  0.3868 -2.2854
 4489SOL    MW417724   2.370   3.710   4.311 -0.0543  0.1918 -1.1822
 4490SOL     OW17725   3.547   6.362   4.224  0.0325 -0.2833  0.1084
 4490SOL    HW217726   3.505   6.340   4.306  0.6811 -0.7368  0.3303
 4490SOL    HW317727   3.514   6.449   4.202 -1.3020 -0.7802  0.0613
 4490SOL    MW417728   3.537   6.371   4.232 -0.0580 -0.4087  0.1315
 4491SOL     OW17729   6.209   6.372   0.154  0.9229  0.0157 -0.4775
 4491SOL    HW217730   6.292   6.353   0.196  1.3753 -0.3953 -1.5321
 4491SOL    HW317731   6.220   6.460   0.118  0.3562  0.5788  0.6569
 4491SOL    MW417732   6.221   6.381   0.155  0.9078  0.0357 -0.4670
 4492SOL     OW17733   5.835   0.530   5.431  0.2644 -0.6267 -0.4303
 4492SOL    HW217734   5.907   0.558   5.374 -1.1179 -1.7330 -2.8399
 4492SOL    HW317735   5.775   0.605   5.433  1.3272  0.2546  1.4912
 4492SOL    MW417736   5.837   0.544   5.424  0.2223 -0.6564 -0.4947
 4493SOL     OW17737   2.553   1.057   1.547  0.3123 -0.3811 -0.0579
 4493SOL    HW217738   2.538   1.031   1.637  0.4203 -1.3699 -0.3091
 4493SOL    HW317739   2.632   1.111   1.550  0.2352 -0.2921  0.4452
 4493SOL    MW417740   2.561   1.061   1.559  0.3164 -0.4998 -0.0247
 4494SOL     OW17741   5.755   3.575   4.908  0.7424  0.0378 -0.3838
 4494SOL    HW217742   5.699   3.592   4.984  1.4320 -1.8709  0.6008
 4494SOL    HW317743   5.700   3.596   4.833 -1.6245 -2.4187  0.5193
 4494SOL    MW417744   5.740   3.580   4.908  0.5211 -0.5382 -0.1348
 4495SOL     OW17745   5.113   3.672   5.551 -0.1982 -0.0389  0.1928
 4495SOL    HW217746   5.178   3.642   5.614 -1.0547 -1.1651  0.5634
 4495SOL    HW317747   5.123   3.768   5.550 -0.1884  0.0175  2.0785
 4495SOL    MW417748   5.123   3.681   5.559 -0.3099 -0.1800  0.4905
 4496SOL     OW17749   3.815   4.450   1.794 -0.0848 -0.3255 -0.1227
 4496SOL    HW217750   3.877   4.381   1.770  0.5550 -0.2687  1.2351
 4496SOL    HW317751   3.729   4.408   1.788  0.1155 -0.5934 -1.3967
 4496SOL    MW417752   3.812   4.435   1.790  0.0260 -0.3533 -0.1117
 4497SOL     OW17753   5.066   5.478   0.522 -0.7146 -0.0599  0.3573
 4497SOL    HW217754   5.151   5.491   0.480 -1.0492 -1.2714 -0.7354
 4497SOL    HW317755   5.003   5.519   0.463 -1.1723 -1.6195 -0.2756
 4497SOL    MW417756   5.069   5.485   0.509 -0.8192 -0.4255  0.1297
 4498SOL     OW17757   4.617   0.015   4.783 -0.2165  0.1101 -0.6442
 4498SOL    HW217758   4.686  -0.051   4.781 -3.5758 -3.9204  1.3814
 4498SOL    HW317759   4.582   0.017   4.694  0.3611 -0.3632 -0.8871
 4498SOL    MW417760   4.621   0.007   4.771 -0.5835 -0.4842 -0.4090
 4499SOL     OW17761   5.169   5.299   2.330 -0.5983  0.0089  0.6070
 4499SOL    HW217762   5.204   5.387   2.316 -2.9391  0.8304 -0.6399
 4499SOL    HW317763   5.123   5.305   2.414 -1.1147  0.1200  0.3206
 4499SOL    MW417764   5.167   5.312   2.339 -0.9753  0.1320  0.4047
 4500SOL     OW17765   3.834   3.095   5.784 -0.0906  0.4721 -0.7308
 4500SOL    HW217766   3.927   3.071   5.784 -0.3689 -0.9031 -2.7883
 4500SOL    HW317767   3.789   3.013   5.806 -0.8753  0.4204 -2.3801
 4500SOL    MW417768   3.840   3.081   5.787 -0.2308  0.2839 -1.2199
 4501SOL     OW17769   4.768   3.881   4.428  0.2709  0.4587 -0.0748
 4501SOL    HW217770   4.802   3.970   4.427 -0.2707  0.6831 -2.0258
 4501SOL    HW317771   4.725   3.873   4.513  0.7656  1.8702  0.3371
 4501SOL    MW417772   4.767   3.891   4.439  0.2647  0.6746 -0.2779
 4502SOL     OW17773   2.901   0.207   5.769  0.2979 -0.1938  0.1378
 4502SOL    HW217774   2.944   0.126   5.742  0.1102  0.1658 -1.3470
 4502SOL    HW317775   2.813   0.201   5.730 -0.4383 -0.1795  1.7321
 4502SOL    MW417776   2.895   0.195   5.760  0.1760 -0.1444  0.1523
 4503SOL     OW17777   0.576   2.141   0.976  0.2439 -0.1301  0.1175
 4503SOL    HW217778   0.560   2.109   1.065 -0.6453  0.0057  0.0137
 4503SOL    HW317779   0.610   2.229   0.988  2.5879 -1.0046  0.3999
 4503SOL    MW417780   0.578   2.148   0.989  0.4358 -0.2276  0.1411
 4504SOL     OW17781   1.510   4.098   1.705  0.0369 -0.1392 -0.2499
 4504SOL    HW217782   1.555   4.158   1.765  0.8026 -0.4101 -0.5388
 4504SOL    HW317783   1.581   4.059   1.654 -0.6059  0.0659 -1.3069
 4504SOL    MW417784   1.526   4.101   1.707  0.0531 -0.1479 -0.4275
 4505SOL     OW17785   3.311   0.666   3.116 -0.0359  0.7094 -0.3301
 4505SOL    HW217786   3.221   0.635   3.122  0.3479 -0.5866 -0.8297
 4505SOL    HW317787   3.359   0.612   3.180  0.5713  0.6025 -0.8652
 4505SOL    MW417788   3.306   0.655   3.126  0.0948  0.5243 -0.4666
 4506SOL     OW17789   4.871   3.986   4.786  0.8279 -0.1339 -0.6877
 4506SOL    HW217790   4.829   4.072   4.791  0.5795 -0.0201 -3.3009
 4506SOL    HW317791   4.811   3.932   4.735  0.6853 -2.1348  1.4030
 4506SOL    MW417792   4.858   3.990   4.780  0.7763 -0.3829 -0.7566
 4507SOL     OW17793   6.232   3.868   0.959 -0.0537  0.1499 -0.2823
 4507SOL    HW217794   6.228   3.778   0.991  0.0989  0.4128  0.4951
 4507SOL    HW317795   6.322   3.878   0.928  0.2533  0.3580  0.6355
 4507SOL    MW417796   6.243   3.857   0.959  0.0069  0.2121 -0.0587
 4508SOL     OW17797   2.494   1.729   2.794 -0.0961 -0.6486  0.2686
 4508SOL    HW217798   2.454   1.816   2.793  1.0807 -0.0536  1.4008
 4508SOL    HW317799   2.542   1.724   2.711  0.1184 -0.0666  0.3513
 4508SOL    MW417800   2.495   1.740   2.783  0.0874 -0.4933  0.4289
 4509SOL     OW17801   6.025   0.298   3.424 -0.7370 -0.1747  0.0541
 4509SOL    HW217802   6.002   0.373   3.368  2.0441  1.2695  0.6500
 4509SOL    HW317803   6.091   0.251   3.373 -0.5593 -0.7099  0.7756
 4509SOL    MW417804   6.031   0.302   3.410 -0.3466 -0.0548  0.2279
 4510SOL     OW17805   3.216   1.353   1.969 -0.1562 -0.3410 -0.2846
 4510SOL    HW217806   3.157   1.371   2.042  0.9180  2.1377  0.0736
 4510SOL    HW317807   3.178   1.277   1.925  0.3261 -3.4518  4.0445
 4510SOL    MW417808   3.203   1.345   1.973  0.0491 -0.4244  0.3339
 4511SOL     OW17809   3.308   2.178   5.198  0.1182  0.0656  0.6352
 4511SOL    HW217810   3.305   2.122   5.120 -0.1264  0.5396  0.3015
 4511SOL    HW317811   3.391   2.155   5.240  0.5309  0.2231 -0.0752
 4511SOL    MW417812   3.318   2.167   5.193  0.1404  0.1489  0.4975
 4512SOL     OW17813   5.842   1.931   3.716  0.4232  0.2881 -0.4203
 4512SOL    HW217814   5.794   1.914   3.635  0.1491 -1.2386  0.0450
 4512SOL    HW317815   5.781   1.909   3.786  0.7447  1.3545  0.2161
 4512SOL    MW417816   5.828   1.926   3.714  0.4294  0.2273 -0.2749
 4513SOL     OW17817   5.994   3.326   0.496  0.3326 -0.6892  0.3496
 4513SOL    HW217818   5.981   3.232   0.481  1.0773 -1.4368  3.6637
 4513SOL    HW317819   5.905   3.361   0.501  0.0457 -1.0540 -1.3841
 4513SOL    MW417820   5.980   3.318   0.494  0.3930 -0.8360  0.5581
 4514SOL     OW17821   6.028   3.336   2.263  0.2803  0.4035 -0.0333
 4514SOL    HW217822   5.940   3.325   2.298  0.7467 -0.1505  1.0136
 4514SOL    HW317823   6.061   3.414   2.307  0.6131  0.1233  0.2162
 4514SOL    MW417824   6.021   3.345   2.273  0.3857  0.2934  0.1378
 4515SOL     OW17825   4.107   5.721   4.305  0.4777 -0.3022 -0.4522
 4515SOL    HW217826   4.170   5.748   4.372 -0.5507  0.5024  0.2267
 4515SOL    HW317827   4.081   5.804   4.264 -0.7115 -0.5331 -0.1865
 4515SOL    MW417828   4.112   5.736   4.308  0.1851 -0.2265 -0.3276
 4516SOL     OW17829   0.317   5.141   2.464  0.4960 -0.4095  0.0485
 4516SOL    HW217830   0.287   5.062   2.508 -0.3521 -0.3270 -0.3557
 4516SOL    HW317831   0.255   5.153   2.392  0.9642  0.2973 -0.2487
 4516SOL    MW417832   0.305   5.132   2.460  0.4459 -0.3053 -0.0441
 4517SOL     OW17833   4.119   0.231   3.716  1.1723  0.2831  0.2163
 4517SOL    HW217834   4.059   0.209   3.645  1.7722 -0.2134 -0.1473
 4517SOL    HW317835   4.095   0.320   3.741  0.6641  0.2985 -0.3077
 4517SOL    MW417836   4.108   0.240   3.710  1.1844  0.2196  0.0992
 4518SOL     OW17837   5.011   0.980   2.812 -0.1025  0.3589  0.4942
 4518SOL    HW217838   4.935   0.987   2.753  0.5948  0.5332 -0.4028
 4518SOL    HW317839   4.997   0.897   2.858 -0.3025 -0.1413 -0.4397
 4518SOL    MW417840   4.999   0.970   2.810 -0.0369  0.3159  0.2526
 4519SOL     OW17841   0.439   2.903   1.737 -0.1564 -0.3558  0.0608
 4519SOL    HW217842   0.466   2.851   1.662  0.6726 -1.6666  1.2165
 4519SOL    HW317843   0.347   2.881   1.750  0.0277 -1.0994  0.1694
 4519SOL    MW417844   0.431   2.893   1.729 -0.0228 -0.6268  0.2276
 4520SOL     OW17845   4.530   1.923   4.230  0.6735  0.0869 -0.4680
 4520SOL    HW217846   4.503   1.871   4.154 -1.2562 -0.1071  0.2942
 4520SOL    HW317847   4.449   1.964   4.261  1.4425  0.2903  1.4008
 4520SOL    MW417848   4.516   1.922   4.224  0.5203  0.0881 -0.1209
 4521SOL     OW17849   0.659   1.262   3.626 -0.4550  0.1904  0.9492
 4521SOL    HW217850   0.740   1.308   3.649  0.7877 -0.7965 -1.1456
 4521SOL    HW317851   0.632   1.301   3.543 -0.1070 -1.8753 -0.1929
 4521SOL    MW417852   0.666   1.273   3.618 -0.2451 -0.2123  0.5221
 4522SOL     OW17853   2.194   3.597   1.645  0.2571  0.0422 -0.0647
 4522SOL    HW217854   2.110   3.552   1.632  0.4029 -0.4993  0.7512
 4522SOL    HW317855   2.230   3.556   1.724  1.5051 -0.0660 -0.6772
 4522SOL    MW417856   2.188   3.585   1.654  0.4410 -0.0435 -0.0378
 4523SOL     OW17857   5.695   1.904   2.049  0.2581  0.1192  0.6594
 4523SOL    HW217858   5.694   1.999   2.061 -0.7206  0.2733 -0.3756
 4523SOL    HW317859   5.625   1.888   1.985  0.3598 -1.3063  0.8747
 4523SOL    MW417860   5.685   1.915   2.042  0.1424 -0.0486  0.5512
 4524SOL     OW17861   1.610   5.607   1.003 -0.6621  0.2109  0.3338
 4524SOL    HW217862   1.623   5.523   1.048 -1.1831 -0.2528 -0.3651
 4524SOL    HW317863   1.607   5.585   0.910  1.3220  1.2721 -0.0285
 4524SOL    MW417864   1.611   5.593   0.997 -0.4691  0.2897  0.1938
 4525SOL     OW17865   5.742   1.432   2.016  0.1118 -0.0630 -0.2660
 4525SOL    HW217866   5.805   1.361   2.003 -0.8809 -0.8800 -0.7847
 4525SOL    HW317867   5.746   1.451   2.110  0.2202 -0.9833 -0.0743
 4525SOL    MW417868   5.751   1.425   2.027 -0.0049 -0.2922 -0.3092
 4526SOL     OW17869   4.447   3.766   5.571 -0.6084  0.5108 -0.4135
 4526SOL    HW217870   4.457   3.672   5.587  0.0335  0.7085  0.4122
 4526SOL    HW317871   4.352   3.778   5.558 -1.1449  0.1695  2.5085
 4526SOL    MW417872   4.435   3.755   5.572 -0.5945  0.4919  0.0809
 4527SOL     OW17873   4.337   1.622   6.284 -0.0682  0.1897  0.1426
 4527SOL    HW217874   4.256   1.626   6.232 -0.9511  1.0194  1.5201
 4527SOL    HW317875   4.309   1.639   6.374  1.6052  0.1353  0.7138
 4527SOL    MW417876   4.323   1.625   6.289  0.0361  0.2920  0.3997
 4528SOL     OW17877   6.009   5.235   4.667  0.1987  0.0929  0.2351
 4528SOL    HW217878   6.011   5.187   4.584  0.4632 -2.1784  1.4605
 4528SOL    HW317879   5.955   5.181   4.725  0.3728  1.3850  1.6787
 4528SOL    MW417880   6.002   5.221   4.664  0.2566 -0.0363  0.5873
 4529SOL     OW17881   5.052   6.378   2.336  0.2901 -0.3316  0.0498
 4529SOL    HW217882   5.145   6.368   2.357  0.4848 -0.7552 -0.9603
 4529SOL    HW317883   5.045   6.466   2.298  0.0980  0.0724  0.9843
 4529SOL    MW417884   5.063   6.389   2.333  0.2904 -0.3342  0.0398
 4530SOL     OW17885   4.069   1.804   3.191  0.3142  0.1538 -0.2907
 4530SOL    HW217886   4.063   1.723   3.242  1.2285  0.4694  0.3534
 4530SOL    HW317887   4.154   1.841   3.215 -0.4538  1.7449  0.0970
 4530SOL    MW417888   4.080   1.798   3.201  0.3335  0.4054 -0.1546
 4531SOL     OW17889   5.606   2.903   3.221 -0.2099 -0.0851  0.0130
 4531SOL    HW217890   5.683   2.897   3.278 -2.0658  0.2266  2.7455
 4531SOL    HW317891   5.597   2.996   3.201 -1.6355  0.3693  2.4421
 4531SOL    MW417892   5.615   2.914   3.226 -0.6429  0.0160  0.6940
 4532SOL     OW17893   4.489   2.738   3.820 -0.2176  0.7597  0.3152
 4532SOL    HW217894   4.402   2.774   3.838 -0.4909  0.5207 -0.5031
 4532SOL    HW317895   4.549   2.801   3.859 -0.7483  1.0010  0.7630
 4532SOL    MW417896   4.485   2.751   3.828 -0.3237  0.7600  0.2664
 4533SOL     OW17897   5.785   4.764   6.478 -0.2135  0.1085 -0.7073
 4533SOL    HW217898   5.832   4.713   6.544  1.2975  1.0400 -1.0113
 4533SOL    HW317899   5.694   4.764   6.508  0.0818 -1.1911  0.2643
 4533SOL    MW417900   5.779   4.758   6.491  0.0248  0.0600 -0.6193
 4534SOL     OW17901   6.392   0.728   4.460  0.1609 -0.1417  0.2646
 4534SOL    HW217902   6.396   0.753   4.553 -0.5238  0.2675  0.1908
 4534SOL    HW317903   6.362   0.638   4.461 -1.7624  0.4518  0.3999
 4534SOL    MW417904   6.388   0.720   4.472 -0.1832 -0.0094  0.2727
 4535SOL     OW17905   2.222   1.635   6.205  0.3062 -0.1277 -0.5071
 4535SOL    HW217906   2.235   1.703   6.272 -0.3819 -0.3714 -0.1085
 4535SOL    HW317907   2.153   1.671   6.149 -0.4730 -0.7365  0.0478
 4535SOL    MW417908   2.215   1.649   6.206  0.1126 -0.2402 -0.3813
 4536SOL     OW17909   1.861   1.129   1.260  0.3369 -0.1898  0.3987
 4536SOL    HW217910   1.927   1.191   1.228  1.7734 -2.0023 -0.3572
 4536SOL    HW317911   1.907   1.077   1.325 -0.6260 -0.9428  0.4950
 4536SOL    MW417912   1.876   1.131   1.264  0.3994 -0.5283  0.3117
 4537SOL     OW17913   1.744   0.073   5.600  0.2428 -0.4549 -0.1242
 4537SOL    HW217914   1.732   0.011   5.672  2.9290 -0.6054  0.3100
 4537SOL    HW317915   1.689   0.148   5.624  0.3183 -0.9081  1.6068
 4537SOL    MW417916   1.735   0.075   5.613  0.6072 -0.5346  0.1614
 4538SOL     OW17917   5.771   5.391   3.857  0.3280 -0.1721  0.1504
 4538SOL    HW217918   5.837   5.428   3.798 -0.3567  0.1474 -0.4214
 4538SOL    HW317919   5.708   5.348   3.799 -0.1263 -0.2248  0.6756
 4538SOL    MW417920   5.772   5.390   3.842  0.1777 -0.1369  0.1443
 4539SOL     OW17921   2.880   5.264   2.071 -0.1431  0.0182  0.1203
 4539SOL    HW217922   2.817   5.274   2.143 -0.0036 -1.2787  0.4565
 4539SOL    HW317923   2.844   5.194   2.017  1.5791 -1.6385  1.0016
 4539SOL    MW417924   2.867   5.256   2.074  0.1025 -0.3715  0.2809
 4540SOL     OW17925   4.612   4.646   0.084  0.2804  0.2464  0.2886
 4540SOL    HW217926   4.530   4.694   0.088 -0.8763 -1.7240  2.4793
 4540SOL    HW317927   4.665   4.682   0.156  0.7480  0.4850 -0.1679
 4540SOL    MW417928   4.608   4.657   0.094  0.1895  0.0179  0.5174
 4541SOL     OW17929   0.438   5.217   0.335  0.5958 -0.0178  0.1884
 4541SOL    HW217930   0.352   5.258   0.337 -0.2890 -1.8026  1.1231
 4541SOL    HW317931   0.477   5.247   0.253 -1.0217  0.5870 -0.4033
 4541SOL    MW417932   0.432   5.226   0.325  0.2656 -0.1735  0.2337
 4542SOL     OW17933   5.160   1.570   2.068 -0.0417  0.0136  0.2158
 4542SOL    HW217934   5.130   1.480   2.080  1.2045 -0.3336  0.9215
 4542SOL    HW317935   5.203   1.592   2.151  2.0571  0.2655 -0.8670
 4542SOL    MW417936   5.162   1.561   2.080  0.3996  0.0010  0.1661
 4543SOL     OW17937   4.572   2.739   5.262 -0.6559  0.2674  0.1794
 4543SOL    HW217938   4.482   2.709   5.275 -0.3678 -0.2958  0.9163
 4543SOL    HW317939   4.586   2.804   5.331 -0.3465  0.0134  0.3567
 4543SOL    MW417940   4.562   2.744   5.273 -0.5771  0.1596  0.3000
 4544SOL     OW17941   3.839   0.960   5.294 -0.9249  0.0271 -0.5449
 4544SOL    HW217942   3.831   0.883   5.350  0.1857 -0.7993 -1.4472
 4544SOL    HW317943   3.778   0.944   5.222 -0.3223 -0.2788 -0.9989
 4544SOL    MW417944   3.830   0.948   5.292 -0.6989 -0.1223 -0.7238
 4545SOL     OW17945   2.766   2.488   2.757  0.3261 -0.6909 -0.3244
 4545SOL    HW217946   2.846   2.541   2.764 -1.1531  1.4527  2.3943
 4545SOL    HW317947   2.702   2.548   2.719 -0.4959 -1.7549 -0.6425
 4545SOL    MW417948   2.768   2.503   2.752  0.0225 -0.5484 -0.0077
 4546SOL     OW17949   2.108   0.497   3.630  0.1696 -0.1242 -0.5589
 4546SOL    HW217950   2.071   0.464   3.549  0.0323  0.1465 -0.6079
 4546SOL    HW317951   2.179   0.436   3.651  0.9544  0.4477 -1.4879
 4546SOL    MW417952   2.112   0.485   3.622  0.2550 -0.0130 -0.6879
 4547SOL     OW17953   0.770   5.660   5.469  0.5781 -1.0119 -0.2043
 4547SOL    HW217954   0.716   5.595   5.424 -0.5046 -1.5277  1.7016
 4547SOL    HW317955   0.728   5.670   5.555  0.3774  2.6046 -0.5654
 4547SOL    MW417956   0.758   5.653   5.475  0.4087 -0.6028 -0.0005
 4548SOL     OW17957   4.958   5.239   1.074  0.3120  0.2031  0.6194
 4548SOL    HW217958   4.891   5.306   1.058  0.3606 -0.1623 -1.3605
 4548SOL    HW317959   5.037   5.288   1.095 -0.0622  0.6885  0.9299
 4548SOL    MW417960   4.960   5.254   1.075  0.2690  0.2190  0.3992
 4549SOL     OW17961   1.877   5.659   1.001  0.3420 -0.3968 -0.0039
 4549SOL    HW217962   1.786   5.645   0.973  0.2397 -0.4142  0.3336
 4549SOL    HW317963   1.926   5.587   0.962  0.1365 -0.6317  0.1748
 4549SOL    MW417964   1.871   5.648   0.992  0.3014 -0.4301  0.0642
 4550SOL     OW17965   0.978   4.471   0.964  0.8197 -0.3137 -0.3529
 4550SOL    HW217966   1.015   4.388   0.934  1.0157 -0.7801  1.0974
 4550SOL    HW317967   1.050   4.533   0.960  0.5626 -0.0624 -1.8721
 4550SOL    MW417968   0.992   4.468   0.960  0.8116 -0.3420 -0.3620
 4551SOL     OW17969   0.907   6.284   5.027 -0.0116 -0.3008 -0.3993
 4551SOL    HW217970   1.000   6.286   5.003 -0.4394  0.5857 -2.1337
 4551SOL    HW317971   0.893   6.368   5.072  0.2303 -0.8818  0.8000
 4551SOL    MW417972   0.917   6.295   5.030 -0.0362 -0.2605 -0.4699
 4552SOL     OW17973   2.182   5.802   4.653  0.0483  0.6713  0.4961
 4552SOL    HW217974   2.155   5.727   4.706  0.3038 -1.5132 -2.2776
 4552SOL    HW317975   2.276   5.792   4.643 -0.1256  0.4844 -1.1393
 4552SOL    MW417976   2.191   5.791   4.659  0.0590  0.3584 -0.0856
 4553SOL     OW17977   5.764   5.929   2.698 -0.4758 -0.1750  0.0928
 4553SOL    HW217978   5.738   6.018   2.677 -1.3864 -0.6364 -0.8524
 4553SOL    HW317979   5.810   5.898   2.619 -2.6857 -1.4600 -0.7846
 4553SOL    MW417980   5.767   5.936   2.685 -0.8875 -0.4054 -0.1476
 4554SOL     OW17981   6.136   4.687   4.654 -0.0218  0.3390 -0.0989
 4554SOL    HW217982   6.169   4.627   4.587  1.1856 -0.7278  1.3769
 4554SOL    HW317983   6.071   4.635   4.702  0.9940  0.1904  1.1602
 4554SOL    MW417984   6.132   4.672   4.652  0.2715  0.1787  0.2619
 4555SOL     OW17985   4.444   1.855   3.827 -0.2693 -0.5359 -0.0084
 4555SOL    HW217986   4.383   1.795   3.869  0.5555 -0.8686  0.7410
 4555SOL    HW317987   4.431   1.938   3.873 -2.1961  0.2273 -1.7643
 4555SOL    MW417988   4.434   1.858   3.839 -0.4147 -0.4791 -0.1412
 4556SOL     OW17989   5.241   3.617   3.204 -0.3988  0.2704  0.0499
 4556SOL    HW217990   5.327   3.657   3.211 -0.9307  1.4999 -0.2587
 4556SOL    HW317991   5.255   3.540   3.149  0.6209  0.0741  0.5671
 4556SOL    MW417992   5.254   3.612   3.198 -0.3344  0.4067  0.0774
 4557SOL     OW17993   4.289   2.321   3.426 -0.6439  0.2812 -0.3677
 4557SOL    HW217994   4.238   2.256   3.474  0.0164 -0.9930 -1.3176
 4557SOL    HW317995   4.368   2.333   3.479 -0.1565 -0.7309 -0.8315
 4557SOL    MW417996   4.293   2.314   3.439 -0.4925 -0.0204 -0.5542
 4558SOL     OW17997   2.941   2.171   4.582 -0.3198  0.0183 -0.0950
 4558SOL    HW217998   3.011   2.228   4.615  0.9908 -1.3045 -0.5032
 4558SOL    HW317999   2.897   2.224   4.516  0.5487  0.7380 -0.1242
 4558SOL    MW418000   2.944   2.186   4.578 -0.0323 -0.0613 -0.1527
 4559SOL     OW18001   1.542   4.869   3.540  0.0648  0.7232  0.1834
 4559SOL    HW218002   1.519   4.809   3.611  1.8431 -1.4717 -0.9524
 4559SOL    HW318003   1.462   4.875   3.488 -0.0567 -1.1194  0.0711
 4559SOL    MW418004   1.528   4.862   3.542  0.2834  0.1905  0.0187
 4560SOL     OW18005   5.856   4.263   1.873  0.1311  0.3911  0.0879
 4560SOL    HW218006   5.830   4.173   1.851  0.7442  0.1481  0.3417
 4560SOL    HW318007   5.777   4.315   1.856  0.2053  0.0334 -1.5027
 4560SOL    MW418008   5.842   4.258   1.868  0.2218  0.3118 -0.0885
 4561SOL     OW18009   1.572   0.653   6.459 -0.4156 -0.0191 -0.3978
 4561SOL    HW218010   1.663   0.645   6.431  0.3188  0.6348  1.6056
 4561SOL    HW318011   1.561   0.746   6.480 -1.9452  0.1583 -1.7610
 4561SOL    MW418012   1.582   0.664   6.458 -0.5205  0.0906 -0.3133
 4562SOL     OW18013   3.335   5.033   2.882 -0.0306  0.8526  0.2383
 4562SOL    HW218014   3.295   4.947   2.889 -1.5337  1.2297 -2.4922
 4562SOL    HW318015   3.417   5.017   2.835 -0.6266  0.9370 -0.8692
 4562SOL    MW418016   3.341   5.019   2.876 -0.3075  0.9135 -0.2681
 4563SOL     OW18017   4.244   2.427   3.773  0.3932  0.2301  0.0199
 4563SOL    HW218018   4.295   2.448   3.695 -0.3960  0.3684 -0.4736
 4563SOL    HW318019   4.219   2.335   3.761 -1.5801  0.8368 -1.0056
 4563SOL    MW418020   4.247   2.418   3.761  0.0288  0.3284 -0.1805
 4564SOL     OW18021   3.226   3.451   4.740 -0.9618 -0.1953 -0.0662
 4564SOL    HW218022   3.211   3.543   4.718  1.7017  0.0867 -1.1383
 4564SOL    HW318023   3.215   3.447   4.835 -1.7391  1.0903 -0.0783
 4564SOL    MW418024   3.223   3.463   4.749 -0.7129  0.0115 -0.2093
 4565SOL     OW18025   3.559   0.041   1.271  0.3176 -0.2290 -0.3453
 4565SOL    HW218026   3.544   0.067   1.180 -1.5013 -0.2863 -0.0931
 4565SOL    HW318027   3.575  -0.053   1.266 -1.0217 -0.4719 -0.5185
 4565SOL    MW418028   3.559   0.032   1.258 -0.0991 -0.2686 -0.3349
 4566SOL     OW18029   1.536   2.758   1.223 -0.2380 -0.3420 -0.5404
 4566SOL    HW218030   1.538   2.773   1.128 -1.1438 -0.0912 -0.5264
 4566SOL    HW318031   1.581   2.835   1.260 -0.3595 -0.1719 -0.7404
 4566SOL    MW418032   1.542   2.770   1.215 -0.3736 -0.2865 -0.5649
 4567SOL     OW18033   2.024   1.295   3.856 -0.0264  0.3143 -0.2758
 4567SOL    HW218034   1.959   1.285   3.926  0.2912 -0.6375 -0.1124
 4567SOL    HW318035   1.985   1.360   3.797 -1.2240 -0.3844 -0.2883
 4567SOL    MW418036   2.010   1.303   3.858 -0.1425  0.0965 -0.2559
 4568SOL     OW18037   0.320   0.936   0.850  0.2786 -0.2223  0.9595
 4568SOL    HW218038   0.291   0.964   0.763 -0.5413 -0.6979  1.0741
 4568SOL    HW318039   0.271   0.991   0.911 -0.3193 -0.9494  1.1522
 4568SOL    MW418040   0.310   0.947   0.847  0.0915 -0.3810  1.0000
 4569SOL     OW18041   2.622   2.640   5.524 -0.2114 -0.2857 -0.0186
 4569SOL    HW218042   2.692   2.701   5.546  1.9216 -2.5466 -0.0641
 4569SOL    HW318043   2.576   2.680   5.451  1.5548  0.9487 -0.5129
 4569SOL    MW418044   2.625   2.653   5.518  0.3031 -0.4212 -0.0898
 4570SOL     OW18045   6.213   3.935   4.095  0.5683 -0.0728  0.4437
 4570SOL    HW218046   6.122   3.915   4.074  1.0175 -1.2743 -0.5353
 4570SOL    HW318047   6.211   3.966   4.185 -0.8570  0.3471  0.2898
 4570SOL    MW418048   6.201   3.936   4.104  0.4395 -0.1759  0.2942
 4571SOL     OW18049   5.163   3.176   1.768  0.2027  0.0390 -0.0751
 4571SOL    HW218050   5.243   3.167   1.716  2.5551 -0.5515  3.3276
 4571SOL    HW318051   5.111   3.099   1.745  1.6560 -0.7827 -0.7640
 4571SOL    MW418052   5.167   3.165   1.758  0.7048 -0.1473  0.2830
 4572SOL     OW18053   0.643   2.238   1.531  1.0051 -0.1376  0.1961
 4572SOL    HW218054   0.671   2.154   1.496 -1.9986 -1.4429  0.6480
 4572SOL    HW318055   0.703   2.255   1.604  2.0651 -1.5476 -0.3130
 4572SOL    MW418056   0.655   2.229   1.536  0.7487 -0.4958  0.1885
 4573SOL     OW18057   5.953   4.811   0.286 -0.4495  0.5393  0.3420
 4573SOL    HW218058   6.039   4.810   0.242 -1.1880  0.0959 -1.1854
 4573SOL    HW318059   5.902   4.875   0.236 -1.2247  0.2715  0.7804
 4573SOL    MW418060   5.958   4.819   0.273 -0.6492  0.4455  0.1983
 4574SOL     OW18061   3.867   0.482   2.338  0.3488 -0.1219 -0.2751
 4574SOL    HW218062   3.948   0.443   2.371  1.4805  0.2288 -2.4363
 4574SOL    HW318063   3.834   0.536   2.411  1.5438 -0.9941  0.9539
 4574SOL    MW418064   3.873   0.484   2.352  0.6558 -0.1907 -0.3981
 4575SOL     OW18065   4.723   5.667   2.414  0.4504 -0.4379  0.5033
 4575SOL    HW218066   4.667   5.702   2.345 -1.6140 -2.2134  1.1565
 4575SOL    HW318067   4.803   5.638   2.368  0.2141  0.7350 -0.7024
 4575SOL    MW418068   4.727   5.668   2.399  0.1468 -0.5174  0.4304
 4576SOL     OW18069   3.866   3.184   3.424  0.0157  0.0525 -0.0326
 4576SOL    HW218070   3.808   3.132   3.480  0.8199  0.4740  1.2243
 4576SOL    HW318071   3.814   3.202   3.346 -1.1549 -0.4999  0.5972
 4576SOL    MW418072   3.852   3.179   3.421 -0.0327  0.0352  0.2163
 4577SOL     OW18073   3.529   1.133   5.170  0.6567  0.3022 -0.1907
 4577SOL    HW218074   3.578   1.215   5.162 -1.0001  1.2598 -1.2690
 4577SOL    HW318075   3.462   1.139   5.101  0.5669 -2.0260 -0.3711
 4577SOL    MW418076   3.527   1.145   5.159  0.4262  0.1213 -0.3568
 4578SOL     OW18077   3.826   5.413   5.985 -0.0352  0.4146 -0.6087
 4578SOL    HW218078   3.922   5.414   5.985  0.0910 -1.9994  1.1139
 4578SOL    HW318079   3.801   5.503   6.004  1.9739  0.7383  0.8369
 4578SOL    MW418080   3.836   5.425   5.987  0.2465  0.1388 -0.1907
 4579SOL     OW18081   5.799   0.423   0.815  0.1904 -0.1696  0.1102
 4579SOL    HW218082   5.879   0.371   0.814  0.7360  0.5786  1.9037
 4579SOL    HW318083   5.819   0.498   0.870 -1.7557  0.0217  0.6424
 4579SOL    MW418084   5.812   0.426   0.822  0.0056 -0.0456  0.4170
 4580SOL     OW18085   2.570   6.268   0.287  0.4003  0.0501  0.3562
 4580SOL    HW218086   2.552   6.254   0.194 -2.3834  0.5708  0.7285
 4580SOL    HW318087   2.555   6.182   0.327  2.4398 -0.3899  0.2803
 4580SOL    MW418088   2.566   6.255   0.280  0.3021  0.0608  0.3953
 4581SOL     OW18089   5.333   0.344   6.084  0.2946 -0.3941 -0.3015
 4581SOL    HW218090   5.326   0.393   6.166 -4.9499  0.2944 -0.7951
 4581SOL    HW318091   5.359   0.409   6.019 -0.5511  0.3252  0.0547
 4581SOL    MW418092   5.336   0.359   6.086 -0.5089 -0.2084 -0.3196
 4582SOL     OW18093   0.618   0.574   1.367 -0.5566  0.5655 -0.2947
 4582SOL    HW218094   0.530   0.584   1.404 -0.9827 -0.9186 -0.8068
 4582SOL    HW318095   0.615   0.623   1.285 -0.4930  1.5653  0.2900
 4582SOL    MW418096   0.606   0.582   1.361 -0.6044  0.5016 -0.2851
 4583SOL     OW18097   4.184   3.869   2.765 -0.3367  0.3961  0.1886
 4583SOL    HW218098   4.130   3.942   2.738  0.2175  0.1196 -1.8324
 4583SOL    HW318099   4.130   3.791   2.749  0.5414  0.1255 -1.7485
 4583SOL    MW418100   4.170   3.868   2.759 -0.1477  0.3239 -0.3336
 4584SOL     OW18101   3.802   1.255   2.659  0.0419 -0.2905 -0.0805
 4584SOL    HW218102   3.756   1.183   2.702 -0.3970 -0.9108 -1.5376
 4584SOL    HW318103   3.853   1.297   2.729 -1.0647 -0.9233  1.1281
 4584SOL    MW418104   3.803   1.251   2.674 -0.1620 -0.4559 -0.1133
 4585SOL     OW18105   2.593   1.021   2.097  0.1494  0.4788  0.2165
 4585SOL    HW218106   2.646   0.941   2.090  1.3221  1.2331  0.1901
 4585SOL    HW318107   2.555   1.017   2.185 -0.6937 -0.6208 -0.1740
 4585SOL    MW418108   2.595   1.010   2.108  0.1929  0.4333  0.1615
 4586SOL     OW18109   6.280   3.216   0.282 -0.2205 -0.8193 -0.0829
 4586SOL    HW218110   6.210   3.279   0.264  1.4357  0.8268 -1.1215
 4586SOL    HW318111   6.337   3.220   0.206  0.8648 -2.3356  0.5942
 4586SOL    MW418112   6.278   3.225   0.270  0.1412 -0.8021 -0.1306
 4587SOL     OW18113   1.749   1.743   5.910  0.0904  0.3236  0.1894
 4587SOL    HW218114   1.837   1.724   5.942 -0.2242 -1.3443  0.1580
 4587SOL    HW318115   1.758   1.824   5.861  1.6969 -0.0367 -0.1502
 4587SOL    MW418116   1.762   1.751   5.908  0.2608  0.0560  0.1405
 4588SOL     OW18117   2.805   2.900   2.786  0.0601  0.0257 -0.0234
 4588SOL    HW218118   2.753   2.858   2.717  0.7947 -2.8913  1.0575
 4588SOL    HW318119   2.740   2.934   2.847 -0.5829  0.8055 -1.1104
 4588SOL    MW418120   2.790   2.899   2.785  0.0722 -0.2563 -0.0242
 4589SOL     OW18121   3.521   2.502   4.858 -0.2087  0.0331  0.2171
 4589SOL    HW218122   3.586   2.572   4.858  0.0179 -0.1578 -1.1164
 4589SOL    HW318123   3.521   2.471   4.948  2.2124 -0.5504  0.1014
 4589SOL    MW418124   3.530   2.507   4.870  0.1406 -0.0690  0.0259
 4590SOL     OW18125   2.913   1.409   3.137  0.1451  0.6322 -0.0943
 4590SOL    HW218126   2.975   1.336   3.142  0.0489  0.6217  1.7653
 4590SOL    HW318127   2.957   1.474   3.083  1.5426  0.3807  0.6828
 4590SOL    MW418128   2.927   1.408   3.130  0.3168  0.5976  0.2536
 4591SOL     OW18129   3.675   3.205   0.377  0.2744  0.0578 -0.0130
 4591SOL    HW218130   3.669   3.125   0.429  0.8384  1.2854  2.0728
 4591SOL    HW318131   3.629   3.184   0.296  2.0755 -2.9906 -0.4017
 4591SOL    MW418132   3.668   3.192   0.373  0.5864 -0.1824  0.2109
 4592SOL     OW18133   2.400   2.024   6.176  0.2038  0.2421  0.1009
 4592SOL    HW218134   2.457   1.958   6.216  1.9404  0.0778 -2.3856
 4592SOL    HW318135   2.421   2.105   6.223  1.7129 -0.0553  0.0136
 4592SOL    MW418136   2.411   2.026   6.188  0.6321  0.1812 -0.2387
 4593SOL     OW18137   4.753   6.255   0.677 -0.5150 -0.0573  0.0146
 4593SOL    HW218138   4.730   6.306   0.599 -0.7552  0.7800  0.6205
 4593SOL    HW318139   4.841   6.286   0.701 -1.2783  1.2658  1.2966
 4593SOL    MW418140   4.762   6.266   0.670 -0.6474  0.2277  0.2637
 4594SOL     OW18141   1.571   6.079   5.031  0.2994 -0.2123  0.2779
 4594SOL    HW218142   1.614   6.113   5.110  1.2385  0.1998 -0.4036
 4594SOL    HW318143   1.513   6.010   5.064 -1.1490  1.5345  1.6314
 4594SOL    MW418144   1.569   6.075   5.046  0.2322  0.0726  0.3665
 4595SOL     OW18145   2.671   3.951   6.291  0.1558 -0.1985 -0.3194
 4595SOL    HW218146   2.634   3.968   6.204  2.5188  0.6228 -1.2416
 4595SOL    HW318147   2.620   4.007   6.349 -0.0151  0.9659 -1.5284
 4595SOL    MW418148   2.659   3.960   6.287  0.4450  0.0635 -0.6006
 4596SOL     OW18149   6.203   0.495   5.109 -0.1699  0.0078 -0.2064
 4596SOL    HW218150   6.172   0.423   5.054 -1.6615  0.9815 -0.6903
 4596SOL    HW318151   6.254   0.551   5.049 -0.0678  0.0117 -0.1166
 4596SOL    MW418152   6.206   0.493   5.094 -0.3533  0.1368 -0.2584
 4597SOL     OW18153   2.687   5.557   3.235 -0.3625 -0.0601  0.2518
 4597SOL    HW218154   2.673   5.496   3.162 -0.2236 -0.9145  0.9320
 4597SOL    HW318155   2.731   5.632   3.194  0.6734 -0.9712 -0.3873
 4597SOL    MW418156   2.691   5.559   3.220 -0.2075 -0.2931  0.2572
 4598SOL     OW18157   1.518   4.037   2.909  0.0293  0.1667  0.3070
 4598SOL    HW218158   1.580   4.041   2.982  0.2075 -0.2434  0.1791
 4598SOL    HW318159   1.460   4.112   2.923  0.5780  0.5741  0.4011
 4598SOL    MW418160   1.518   4.047   2.920  0.1252  0.1663  0.3025
 4599SOL     OW18161   4.162   2.271   1.770  0.5892  0.0308  0.2380
 4599SOL    HW218162   4.182   2.339   1.706  1.4141 -0.5700 -0.1539
 4599SOL    HW318163   4.124   2.200   1.719  0.6516 -0.1919  0.4986
 4599SOL    MW418164   4.160   2.271   1.755  0.7063 -0.0779  0.2207
 4600SOL     OW18165   2.152   3.725   4.043  0.1993  0.1145 -0.1232
 4600SOL    HW218166   2.064   3.747   4.073 -0.2040 -2.7642  1.1043
 4600SOL    HW318167   2.207   3.797   4.076 -1.2899  0.5721  1.5050
 4600SOL    MW418168   2.148   3.738   4.051 -0.0504 -0.2049  0.2536
 4601SOL     OW18169   0.389   1.274   0.176 -0.0607  0.5029  0.5040
 4601SOL    HW218170   0.373   1.368   0.169  2.3620  0.8470 -1.8807
 4601SOL    HW318171   0.331   1.235   0.110 -0.8830  0.3117  1.3209
 4601SOL    MW418172   0.379   1.281   0.167  0.1505  0.5230  0.2972
 4602SOL     OW18173   3.372   4.802   5.055  0.2088  1.0110  0.1278
 4602SOL    HW218174   3.375   4.790   5.150  0.5585 -1.0495 -0.0966
 4602SOL    HW318175   3.449   4.854   5.035 -0.7719  2.9471  1.1108
 4602SOL    MW418176   3.382   4.807   5.065  0.1255  0.9946  0.2279
 4603SOL     OW18177   2.286   0.366   0.649  0.1788  0.1700 -0.3425
 4603SOL    HW218178   2.313   0.457   0.638 -1.7211  0.8886  0.4266
 4603SOL    HW318179   2.213   0.355   0.588  0.5582 -0.9318 -0.6232
 4603SOL    MW418180   2.280   0.376   0.640 -0.0218  0.1194 -0.2780
 4604SOL     OW18181   5.559   4.406   3.320  0.3537  0.0618  0.5082
 4604SOL    HW218182   5.581   4.313   3.317  1.2799  0.2834  0.2881
 4604SOL    HW318183   5.510   4.422   3.239 -1.5274 -0.6367  1.4428
 4604SOL    MW418184   5.555   4.396   3.309  0.2277 -0.0011  0.6025
 4605SOL     OW18185   3.249   0.037   4.869  0.2716 -0.1449 -0.0513
 4605SOL    HW218186   3.329   0.007   4.912  0.7400 -0.1096 -0.8705
 4605SOL    HW318187   3.278   0.105   4.808  0.0540 -1.9211 -2.2814
 4605SOL    MW418188   3.263   0.042   4.867  0.3047 -0.3746 -0.4536
 4606SOL     OW18189   1.485   1.286   6.092  0.5510 -0.3181 -0.2819
 4606SOL    HW218190   1.516   1.341   6.020  0.7334 -0.6039 -0.4261
 4606SOL    HW318191   1.423   1.225   6.051 -2.3881  1.9561  0.4156
 4606SOL    MW418192   1.481   1.285   6.077  0.1873 -0.0558 -0.2089
 4607SOL     OW18193   4.405   2.939   2.018 -0.1532  0.0747  0.2376
 4607SOL    HW218194   4.421   2.975   2.105  0.9166 -0.0620  0.1217
 4607SOL    HW318195   4.367   3.011   1.968  0.3994  0.5471  0.4781
 4607SOL    MW418196   4.402   2.953   2.023  0.0609  0.1190  0.2540
 4608SOL     OW18197   0.793   1.902   2.330 -0.3809 -0.2981  0.5598
 4608SOL    HW218198   0.856   1.846   2.284  0.8162  0.8020  0.7711
 4608SOL    HW318199   0.769   1.968   2.265  2.2053  1.9673  1.6545
 4608SOL    MW418200   0.798   1.903   2.315  0.1183  0.1460  0.7321
 4609SOL     OW18201   5.012   2.446   4.850  0.0036  0.1453  0.3011
 4609SOL    HW218202   5.088   2.412   4.803  0.7971  0.4281  1.3661
 4609SOL    HW318203   5.011   2.399   4.933 -1.8535 -0.9255 -0.2506
 4609SOL    MW418204   5.022   2.435   4.854 -0.1368  0.0413  0.3688
 4610SOL     OW18205   6.230   2.469   1.344  0.1213  0.1863  0.0065
 4610SOL    HW218206   6.306   2.418   1.318  0.1509  0.8903 -1.3819
 4610SOL    HW318207   6.266   2.553   1.374 -0.0846  0.4764 -0.5421
 4610SOL    MW418208   6.245   2.473   1.344  0.0980  0.3175 -0.2491
 4611SOL     OW18209   1.327   1.114   5.935 -0.0491 -0.0588  0.4242
 4611SOL    HW218210   1.414   1.076   5.920 -0.6076 -0.4930 -2.2128
 4611SOL    HW318211   1.288   1.057   6.001  0.0128 -2.8498 -1.7459
 4611SOL    MW418212   1.334   1.101   5.942 -0.1146 -0.4843 -0.2101
 4612SOL     OW18213   5.366   0.476   5.817 -0.1957  0.6270 -0.5568
 4612SOL    HW218214   5.448   0.497   5.773 -0.5762  0.1165 -1.5294
 4612SOL    HW318215   5.321   0.559   5.825 -0.3686  0.6478 -1.6513
 4612SOL    MW418216   5.371   0.490   5.812 -0.2687  0.5624 -0.8295
 4613SOL     OW18217   3.082   1.838   1.382  0.1332 -0.8834 -0.0652
 4613SOL    HW218218   2.998   1.875   1.354  0.1562  0.3283  1.3863
 4613SOL    HW318219   3.147   1.885   1.330  0.0018 -0.8534 -0.2034
 4613SOL    MW418220   3.080   1.849   1.371  0.1189 -0.7195  0.1080
 4614SOL     OW18221   3.042   3.353   4.224 -0.1682 -0.0572  0.5513
 4614SOL    HW218222   3.086   3.280   4.268 -1.0242 -0.4775  0.7248
 4614SOL    HW318223   3.002   3.404   4.294  0.7825  0.8372  0.4663
 4614SOL    MW418224   3.042   3.350   4.239 -0.1557  0.0053  0.5630
 4615SOL     OW18225   2.842   1.968   0.555 -0.0417  0.4302  0.0519
 4615SOL    HW218226   2.827   1.902   0.623  1.1580 -0.1164 -0.2062
 4615SOL    HW318227   2.844   1.918   0.474 -0.9356  1.0243 -0.3564
 4615SOL    MW418228   2.840   1.953   0.554 -0.0014  0.4365 -0.0360
 4616SOL     OW18229   4.566   4.938   1.367  0.3150  0.4011 -0.4553
 4616SOL    HW218230   4.582   5.031   1.385  0.3014 -0.0277  2.1595
 4616SOL    HW318231   4.471   4.928   1.378  0.4395 -0.0727  0.3135
 4616SOL    MW418232   4.555   4.949   1.371  0.3296  0.2820 -0.0088
 4617SOL     OW18233   6.133   3.130   4.032  0.6261  0.6917  0.2101
 4617SOL    HW218234   6.131   3.034   4.034 -1.9056  0.6975  1.1025
 4617SOL    HW318235   6.226   3.152   4.044  1.4387 -1.6197 -1.1686
 4617SOL    MW418236   6.145   3.120   4.034  0.3993  0.3875  0.1460
 4618SOL     OW18237   5.810   4.989   3.596 -0.0781 -0.1134  0.0128
 4618SOL    HW218238   5.858   5.012   3.517  1.6737  1.6482  1.4676
 4618SOL    HW318239   5.802   4.894   3.592  0.5031 -0.1309 -1.9553
 4618SOL    MW418240   5.815   4.980   3.585  0.2297  0.1167 -0.0549
 4619SOL     OW18241   4.161   5.600   1.373  0.8768 -0.2530  0.2252
 4619SOL    HW218242   4.247   5.592   1.332  1.6182 -0.9271  1.8025
 4619SOL    HW318243   4.140   5.511   1.402 -0.7486 -0.2572 -0.8450
 4619SOL    MW418244   4.169   5.587   1.372  0.7601 -0.3425  0.2921
 4620SOL     OW18245   1.776   5.310   3.522  0.0730 -0.1656 -0.6314
 4620SOL    HW218246   1.770   5.355   3.437 -1.1455  0.7936 -0.0705
 4620SOL    HW318247   1.855   5.257   3.515 -0.7279 -1.2037 -2.8747
 4620SOL    MW418248   1.786   5.309   3.510 -0.1935 -0.1760 -0.8534
 4621SOL     OW18249   0.356   3.879   4.396 -0.6445  0.3279 -0.0434
 4621SOL    HW218250   0.342   3.973   4.382 -0.5659  0.4891  0.8416
 4621SOL    HW318251   0.449   3.873   4.420 -0.9513  0.1998  1.1710
 4621SOL    MW418252   0.367   3.891   4.398 -0.6746  0.3323  0.2336
 4622SOL     OW18253   6.098   0.719   0.799  0.1004 -0.3933  0.4059
 4622SOL    HW218254   6.021   0.680   0.840 -1.1302  0.2616 -1.1782
 4622SOL    HW318255   6.147   0.758   0.872 -1.9963  0.7314  1.2878
 4622SOL    MW418256   6.095   0.719   0.814 -0.3386 -0.1585  0.3133
 4623SOL     OW18257   0.822   0.749   6.000  0.0419 -0.1743  0.2183
 4623SOL    HW218258   0.846   0.711   5.916  0.8286 -1.4259  0.9777
 4623SOL    HW318259   0.730   0.772   5.990 -0.1439 -1.2011 -0.6770
 4623SOL    MW418260   0.813   0.747   5.988  0.1212 -0.4749  0.2004
 4624SOL     OW18261   0.926   2.826   4.910 -0.4629  0.2548  0.1711
 4624SOL    HW218262   0.949   2.824   5.003  0.8652  2.4707 -0.0488
 4624SOL    HW318263   1.010   2.818   4.865 -0.9215  0.8706 -0.8146
 4624SOL    MW418264   0.941   2.824   4.916 -0.3481  0.6284  0.0121
 4625SOL     OW18265   0.974   3.547   4.210 -0.1180  0.2673 -0.5809
 4625SOL    HW218266   0.955   3.516   4.122 -0.3489  2.1154 -1.2318
 4625SOL    HW318267   0.985   3.467   4.262 -0.1771 -0.8575 -2.2216
 4625SOL    MW418268   0.973   3.532   4.206 -0.1562  0.3627 -0.8832
 4626SOL     OW18269   5.832   0.075   4.252  0.1129  0.7057  0.1633
 4626SOL    HW218270   5.896   0.109   4.190  0.2616  0.5695  0.2425
 4626SOL    HW318271   5.794  -0.001   4.209 -0.8772  1.4980 -0.4006
 4626SOL    MW418272   5.836   0.069   4.238  0.0019  0.7923  0.0994
 4627SOL     OW18273   3.234   6.333   5.441 -0.0115  0.5502 -0.0173
 4627SOL    HW218274   3.167   6.288   5.492 -0.0832 -0.3333 -0.8647
 4627SOL    HW318275   3.266   6.267   5.379  0.9772  1.2264 -0.2566
 4627SOL    MW418276   3.229   6.319   5.440  0.1095  0.5228 -0.1607
 4628SOL     OW18277   5.578   3.881   3.962 -0.2240  0.3904 -0.2143
 4628SOL    HW218278   5.592   3.816   3.893 -1.3825  0.2534 -0.3396
 4628SOL    HW318279   5.484   3.880   3.977 -0.0390  0.7565  1.0598
 4628SOL    MW418280   5.567   3.872   3.955 -0.3524  0.4207 -0.0628
 4629SOL     OW18281   3.836   3.510   6.390  0.7048 -0.2147 -0.2327
 4629SOL    HW218282   3.842   3.605   6.381  0.4810 -0.3512 -2.1706
 4629SOL    HW318283   3.916   3.476   6.350  1.2358 -0.8447  1.2708
 4629SOL    MW418284   3.847   3.518   6.384  0.7453 -0.3159 -0.2900
 4630SOL     OW18285   2.217   0.224   4.238 -0.7302 -0.2158  0.3092
 4630SOL    HW218286   2.282   0.294   4.229 -0.2283 -0.7379 -0.2610
 4630SOL    HW318287   2.217   0.202   4.331  0.3898 -0.6409  0.2253
 4630SOL    MW418288   2.226   0.230   4.249 -0.5162 -0.3408  0.2229
 4631SOL     OW18289   5.427   0.777   4.775 -0.0708  0.3338 -0.8301
 4631SOL    HW218290   5.365   0.704   4.784  0.6036 -0.1640 -0.0291
 4631SOL    HW318291   5.513   0.738   4.789  0.4415  1.0090 -1.9920
 4631SOL    MW418292   5.430   0.762   4.778  0.0858  0.3572 -0.8777
 4632SOL     OW18293   1.196   0.090   1.925  0.4395  0.0645  0.3743
 4632SOL    HW218294   1.246   0.050   1.854 -0.3678 -0.4855  0.1034
 4632SOL    HW318295   1.126   0.139   1.882  0.3998  0.3607  0.7665
 4632SOL    MW418296   1.194   0.091   1.910  0.3277  0.0310  0.3903
 4633SOL     OW18297   4.714   0.024   5.216 -0.4592  0.3410  0.2663
 4633SOL    HW218298   4.792  -0.006   5.263 -1.7878  0.9885  3.0809
 4633SOL    HW318299   4.747   0.091   5.156  1.4008 -0.9137 -0.1876
 4633SOL    MW418300   4.729   0.029   5.215 -0.3891  0.2609  0.5777
 4634SOL     OW18301   0.751   4.031   0.400 -0.4218 -0.0149 -0.2069
 4634SOL    HW218302   0.702   3.951   0.415 -0.3547  0.1183  0.7590
 4634SOL    HW318303   0.798   4.047   0.481  0.1487  0.6031 -0.6450
 4634SOL    MW418304   0.751   4.023   0.413 -0.3377  0.0842 -0.1373
 4635SOL     OW18305   1.046   2.257   3.863 -0.2183  0.2318  0.4453
 4635SOL    HW218306   1.126   2.308   3.877  0.1459  0.3913 -1.8045
 4635SOL    HW318307   0.984   2.290   3.928  0.2050  3.1094 -0.4874
 4635SOL    MW418308   1.049   2.268   3.873 -0.1144  0.6325  0.0254
 4636SOL     OW18309   4.559   2.403   2.545  0.4765 -0.1374 -0.5897
 4636SOL    HW218310   4.469   2.410   2.514  1.1620  0.9380 -2.4490
 4636SOL    HW318311   4.610   2.380   2.468  2.2618  2.6184 -0.3591
 4636SOL    MW418312   4.554   2.401   2.531  0.8025  0.3680 -0.8046
 4637SOL     OW18313   2.197   3.612   2.127 -0.3807 -0.2710 -0.1433
 4637SOL    HW218314   2.234   3.571   2.205  0.3310 -1.5401 -1.1156
 4637SOL    HW318315   2.200   3.706   2.145 -1.0031 -0.5591  1.6796
 4637SOL    MW418316   2.202   3.619   2.140 -0.3689 -0.4765 -0.0311
 4638SOL     OW18317   3.755   2.546   5.050  0.4931 -0.1698  0.3131
 4638SOL    HW218318   3.780   2.592   4.969 -0.0594 -0.1927  0.1256
 4638SOL    HW318319   3.732   2.615   5.111 -0.2178 -0.1850  0.0708
 4638SOL    MW418320   3.755   2.561   5.047  0.3264 -0.1748  0.2564
 4639SOL     OW18321   1.180   2.732   0.820  0.7470  0.2543  0.2707
 4639SOL    HW218322   1.190   2.637   0.818 -0.5040  0.1077 -0.2948
 4639SOL    HW318323   1.255   2.765   0.771  0.9811 -0.4676  0.1275
 4639SOL    MW418324   1.191   2.724   0.813  0.6128  0.1397  0.1772
 4640SOL     OW18325   0.040   0.882   0.811 -0.2916  0.1244  0.6965
 4640SOL    HW218326   0.035   0.956   0.750 -0.7185 -0.9502 -0.6342
 4640SOL    HW318327   0.131   0.883   0.841  0.1861  0.1869 -0.6568
 4640SOL    MW418328   0.052   0.892   0.807 -0.2849 -0.0092  0.3424
 4641SOL     OW18329   0.212   3.964   4.902 -0.3592 -0.1960  0.7342
 4641SOL    HW218330   0.304   3.947   4.882 -0.4603 -0.0285  0.1086
 4641SOL    HW318331   0.177   4.003   4.822 -0.9140 -0.0257  1.0541
 4641SOL    MW418332   0.219   3.967   4.889 -0.4457 -0.1515  0.6938
 4642SOL     OW18333   5.974   5.417   2.416 -0.1643  0.1439 -0.0627
 4642SOL    HW218334   5.978   5.458   2.330 -0.5282  1.1930  0.4075
 4642SOL    HW318335   5.933   5.332   2.400 -1.4820  0.8740 -0.7316
 4642SOL    MW418336   5.969   5.411   2.403 -0.3861  0.3787 -0.0889
 4643SOL     OW18337   5.116   5.169   0.146  0.0122  0.6186 -0.0811
 4643SOL    HW218338   5.131   5.169   0.241  2.3809 -1.1377 -0.3527
 4643SOL    HW318339   5.189   5.219   0.111 -0.2734  0.3837 -1.0249
 4643SOL    MW418340   5.127   5.175   0.154  0.2870  0.3559 -0.2415
 4644SOL     OW18341   2.313   5.158   4.660  0.2711 -0.0861 -0.3602
 4644SOL    HW218342   2.237   5.164   4.602  0.3752 -0.2150 -0.5110
 4644SOL    HW318343   2.276   5.148   4.748  0.1129  0.3573 -0.3757
 4644SOL    MW418344   2.298   5.158   4.664  0.2640 -0.0446 -0.3821
 4645SOL     OW18345   1.334   3.760   5.235  0.4388  0.0861  0.9406
 4645SOL    HW218346   1.273   3.814   5.284 -0.5597  0.0410 -0.2045
 4645SOL    HW318347   1.321   3.672   5.270  1.6859  0.4696  2.4383
 4645SOL    MW418348   1.324   3.755   5.246  0.4716  0.1307  0.9871
 4646SOL     OW18349   0.754   1.178   5.181 -0.1023 -0.1465 -0.6281
 4646SOL    HW218350   0.811   1.158   5.107 -0.6680 -0.5067 -0.9775
 4646SOL    HW318351   0.686   1.111   5.177 -0.8856  0.6347 -0.5766
 4646SOL    MW418352   0.753   1.167   5.170 -0.2803 -0.0909 -0.6674
 4647SOL     OW18353   2.511   3.193   2.772  0.4582 -0.0509  0.2209
 4647SOL    HW218354   2.538   3.161   2.858  0.3606 -1.8104 -0.3656
 4647SOL    HW318355   2.432   3.244   2.789 -0.3769 -1.5431  1.0520
 4647SOL    MW418356   2.505   3.195   2.786  0.3352 -0.4799  0.2531
 4648SOL     OW18357   3.290   5.739   2.445 -0.1845 -0.0108  0.1895
 4648SOL    HW218358   3.337   5.689   2.378  1.3299  0.1449  1.1009
 4648SOL    HW318359   3.249   5.673   2.501  0.2128 -0.1877  0.2707
 4648SOL    MW418360   3.291   5.724   2.444  0.0677 -0.0136  0.3204
 4649SOL     OW18361   6.427   2.490   3.089 -0.2872  0.1801  0.2083
 4649SOL    HW218362   6.458   2.435   3.017  0.3683 -0.7407  1.1557
 4649SOL    HW318363   6.334   2.501   3.072  0.0316  0.8052 -1.2935
 4649SOL    MW418364   6.419   2.484   3.077 -0.1587  0.1411  0.1351
 4650SOL     OW18365   1.742   5.401   3.260 -0.3076  0.3490  0.2195
 4650SOL    HW218366   1.685   5.372   3.189  0.3933  1.0506 -0.6489
 4650SOL    HW318367   1.813   5.448   3.217  0.5146  0.1881  1.3339
 4650SOL    MW418368   1.744   5.403   3.245 -0.1067  0.4203  0.2520
 4651SOL     OW18369   0.028   3.524   6.438 -0.4412 -0.4520  0.0143
 4651SOL    HW218370   0.058   3.547   6.526  0.4267 -0.4018 -0.2891
 4651SOL    HW318371   0.035   3.605   6.388  0.8756 -0.9035 -0.5824
 4651SOL    MW418372   0.033   3.538   6.443 -0.1530 -0.5050 -0.1045
 4652SOL     OW18373   3.073   5.010   0.755 -0.3833  0.6925  0.3896
 4652SOL    HW218374   3.143   4.992   0.818  0.5419 -1.0817 -1.0528
 4652SOL    HW318375   3.014   4.935   0.762  0.6653 -0.4608 -1.9768
 4652SOL    MW418376   3.075   4.998   0.764 -0.1229  0.3063 -0.1129
 4653SOL     OW18377   5.161   2.929   6.075  0.2196  0.1076 -0.5202
 4653SOL    HW218378   5.184   2.852   6.127  1.2300  0.9002  0.2710
 4653SOL    HW318379   5.143   2.895   5.988 -0.6040 -1.1614  0.1116
 4653SOL    MW418380   5.162   2.914   6.070  0.2443  0.0447 -0.3324
 4654SOL     OW18381   5.332   4.052   0.407 -0.0740  0.7974 -0.1137
 4654SOL    HW218382   5.304   4.113   0.338 -0.5212 -0.2245 -0.8677
 4654SOL    HW318383   5.405   4.004   0.368  0.3683  0.9376  0.5258
 4654SOL    MW418384   5.338   4.054   0.393 -0.0746  0.6811 -0.1288
 4655SOL     OW18385   1.238   1.629   6.137  0.0270  0.7078  0.1135
 4655SOL    HW218386   1.154   1.666   6.163 -0.8566 -0.9780 -0.1699
 4655SOL    HW318387   1.235   1.630   6.041  0.2442  0.4647  0.1053
 4655SOL    MW418388   1.226   1.634   6.128 -0.0609  0.4533  0.0750
 4656SOL     OW18389   5.134   4.894   5.101 -0.2895 -0.3632  0.3541
 4656SOL    HW218390   5.131   4.976   5.150  0.3322  0.1485 -0.4432
 4656SOL    HW318391   5.047   4.856   5.115 -0.0032 -0.4474  2.1692
 4656SOL    MW418392   5.122   4.900   5.109 -0.1697 -0.3068  0.4884
 4657SOL     OW18393   0.019   4.262   2.472 -0.1737 -0.2702  0.4766
 4657SOL    HW218394   0.033   4.170   2.493  2.5670 -0.0727 -0.0807
 4657SOL    HW318395   0.011   4.305   2.557 -1.0500 -0.9421  0.7476
 4657SOL    MW418396   0.020   4.256   2.486  0.0723 -0.3328  0.4388
 4658SOL     OW18397   3.158   5.479   0.206  0.0895  0.0867  0.0578
 4658SOL    HW218398   3.092   5.452   0.143  0.2047  2.8694 -1.4179
 4658SOL    HW318399   3.225   5.523   0.154  1.3252  0.4933  1.8874
 4658SOL    MW418400   3.158   5.481   0.191  0.2677  0.5075  0.1045
 4659SOL     OW18401   5.300   1.075   1.596  0.1347  0.2099  0.3666
 4659SOL    HW218402   5.395   1.080   1.609  0.2317  0.1878 -0.3037
 4659SOL    HW318403   5.281   0.981   1.595  0.1897  0.2032 -0.0787
 4659SOL    MW418404   5.310   1.063   1.598  0.1547  0.2061  0.2194
 4660SOL     OW18405   3.080   0.277   1.663 -0.0558  0.6311  0.7022
 4660SOL    HW218406   3.169   0.273   1.698  0.0611  2.8578  0.8229
 4660SOL    HW318407   3.087   0.335   1.587 -1.3113  0.3960  0.3861
 4660SOL    MW418408   3.093   0.284   1.658 -0.2060  0.8939  0.6764
 4661SOL     OW18409   0.502   6.142   4.112  0.1107 -0.1168  0.2263
 4661SOL    HW218410   0.515   6.224   4.064  0.2744  0.3859  1.0991
 4661SOL    HW318411   0.426   6.160   4.169 -0.1529 -0.7339  0.0762
 4661SOL    MW418412   0.494   6.155   4.113  0.0975 -0.1319  0.3216
 4662SOL     OW18413   5.202   0.272   5.748  0.0920 -0.2411 -0.1766
 4662SOL    HW218414   5.270   0.339   5.759  0.3636 -0.6723  0.8393
 4662SOL    HW318415   5.121   0.316   5.772  0.1561 -0.0476 -0.3065
 4662SOL    MW418416   5.200   0.287   5.752  0.1363 -0.2725 -0.0597
 4663SOL     OW18417   0.932   3.943   5.130  0.2241  0.1217 -0.4085
 4663SOL    HW218418   0.911   3.913   5.041 -0.5948  1.0179 -0.5288
 4663SOL    HW318419   0.859   4.000   5.154  0.7011  0.3065  0.6414
 4663SOL    MW418420   0.919   3.947   5.121  0.1790  0.2644 -0.2859
 4664SOL     OW18421   1.286   3.746   3.880 -0.0148 -0.1636  0.5203
 4664SOL    HW218422   1.372   3.708   3.900  0.5570  0.6813 -0.2273
 4664SOL    HW318423   1.281   3.824   3.935  0.7739  1.1396 -1.1371
 4664SOL    MW418424   1.297   3.751   3.890  0.1647  0.1198  0.2030
 4665SOL     OW18425   2.891   0.309   3.642  0.3475 -0.0171 -0.0053
 4665SOL    HW218426   2.899   0.404   3.654 -0.5249  0.2883 -1.6066
 4665SOL    HW318427   2.802   0.289   3.673  0.2220 -0.1642 -0.4506
 4665SOL    MW418428   2.880   0.319   3.648  0.2159  0.0038 -0.2754
 4666SOL     OW18429   6.109   0.695   2.690 -0.2698  0.1229  0.3368
 4666SOL    HW218430   6.044   0.762   2.712 -0.7260  0.1129 -0.8829
 4666SOL    HW318431   6.193   0.738   2.706 -0.5436  1.1950 -0.8713
 4666SOL    MW418432   6.111   0.709   2.695 -0.3661  0.2631  0.0165
 4667SOL     OW18433   1.325   2.907   5.266  0.4968  0.3451  0.6946
 4667SOL    HW218434   1.312   2.950   5.181 -1.5650 -0.6410  0.4379
 4667SOL    HW318435   1.420   2.905   5.278  0.8007  1.3211 -1.1560
 4667SOL    MW418436   1.336   2.913   5.256  0.2649  0.3438  0.4166
 4668SOL     OW18437   3.490   3.070   5.422  0.1810 -0.6436  0.0597
 4668SOL    HW218438   3.449   3.155   5.441 -1.5877 -1.6161  0.8209
 4668SOL    HW318439   3.571   3.092   5.377  0.1568  1.4866  0.9478
 4668SOL    MW418440   3.495   3.084   5.419 -0.0556 -0.4909  0.2773
 4669SOL     OW18441   4.543   2.138   2.137 -0.0418  0.3536  0.3534
 4669SOL    HW218442   4.489   2.069   2.175  0.1979 -0.5224 -0.8269
 4669SOL    HW318443   4.485   2.183   2.076  0.3565 -0.1827 -0.4460
 4669SOL    MW418444   4.528   2.134   2.134  0.0424  0.1673  0.0922
 4670SOL     OW18445   0.535   3.540   5.934 -0.5038 -0.1317 -0.0538
 4670SOL    HW218446   0.485   3.620   5.921  0.5271  0.2820 -1.7574
 4670SOL    HW318447   0.480   3.470   5.899 -1.4578 -0.2353  1.5506
 4670SOL    MW418448   0.521   3.541   5.928 -0.4936 -0.0908 -0.0669
 4671SOL     OW18449   1.758   6.182   2.887  0.2008 -0.1212 -0.7408
 4671SOL    HW218450   1.761   6.092   2.854 -1.0541 -0.9454  1.2356
 4671SOL    HW318451   1.691   6.225   2.833  0.6031 -0.4294 -1.5061
 4671SOL    MW418452   1.750   6.176   2.875  0.0883 -0.2706 -0.5810
 4672SOL     OW18453   2.371   1.728   3.049  0.1745 -0.5379 -0.5707
 4672SOL    HW218454   2.403   1.737   2.959  0.0641 -0.4046 -0.5969
 4672SOL    HW318455   2.384   1.815   3.088  1.1728 -0.8687 -0.1460
 4672SOL    MW418456   2.377   1.741   3.042  0.2917 -0.5639 -0.5181
 4673SOL     OW18457   2.836   2.763   3.510  0.1366  0.5712  0.0678
 4673SOL    HW218458   2.845   2.671   3.486  1.5178  0.5229  0.6846
 4673SOL    HW318459   2.861   2.811   3.431 -0.8282  0.4294 -0.3333
 4673SOL    MW418460   2.840   2.757   3.496  0.1915  0.5461  0.0963
 4674SOL     OW18461   4.290   5.344   5.128 -0.2789 -0.2605 -0.3133
 4674SOL    HW218462   4.234   5.419   5.148  0.6305 -0.0886  1.9962
 4674SOL    HW318463   4.379   5.381   5.127  0.2566 -1.3271  1.5687
 4674SOL    MW418464   4.294   5.359   5.131 -0.0882 -0.3785  0.2397
 4675SOL     OW18465   5.348   3.785   5.353 -0.4322 -0.0775 -0.0433
 4675SOL    HW218466   5.328   3.766   5.261 -1.6489  0.9913 -0.0279
 4675SOL    HW318467   5.278   3.843   5.381  1.4646  1.9465  0.7452
 4675SOL    MW418468   5.336   3.790   5.344 -0.3425  0.3306  0.0628
 4676SOL     OW18469   1.899   4.938   1.060 -0.3215 -0.2573  0.1828
 4676SOL    HW218470   1.806   4.915   1.057 -0.2272 -0.8567  1.3538
 4676SOL    HW318471   1.903   5.027   1.024 -1.0079 -1.1243 -2.2332
 4676SOL    MW418472   1.887   4.947   1.055 -0.3997 -0.4508  0.0185
 4677SOL     OW18473   0.237   6.213   2.534  0.1689 -0.5209 -0.2266
 4677SOL    HW218474   0.277   6.299   2.526 -0.0642 -0.5022 -1.3430
 4677SOL    HW318475   0.204   6.210   2.624 -0.8327  1.0050 -0.4997
 4677SOL    MW418476   0.238   6.224   2.545  0.0060 -0.3171 -0.4099
 4678SOL     OW18477   5.547   0.257   1.820 -0.2951  0.0422  0.0312
 4678SOL    HW218478   5.592   0.178   1.790  0.2283  0.9213 -1.6193
 4678SOL    HW318479   5.460   0.252   1.781 -0.0468  0.5648 -0.6157
 4678SOL    MW418480   5.542   0.246   1.811 -0.1933  0.2271 -0.2719
 4679SOL     OW18481   5.897   2.356   5.014 -0.2520  0.4435  0.5376
 4679SOL    HW218482   5.984   2.395   5.023 -0.6316  1.0949  1.5258
 4679SOL    HW318483   5.908   2.287   4.949  0.9336  0.7350  0.4186
 4679SOL    MW418484   5.910   2.352   5.007 -0.1456  0.5679  0.6523
 4680SOL     OW18485   4.158   0.770   2.381  0.3760  0.0011  0.2004
 4680SOL    HW218486   4.238   0.818   2.360  1.6777 -1.8096  0.8468
 4680SOL    HW318487   4.173   0.682   2.348 -1.0592 -0.5725  1.0003
 4680SOL    MW418488   4.170   0.765   2.374  0.3584 -0.3135  0.3912
 4681SOL     OW18489   6.113   1.199   3.641 -0.3303  0.1340  0.1935
 4681SOL    HW218490   6.173   1.275   3.639  1.3571 -1.1557 -1.5754
 4681SOL    HW318491   6.030   1.235   3.673  1.2244  2.0975  2.4434
 4681SOL    MW418492   6.110   1.214   3.645  0.0975  0.2229  0.2569
 4682SOL     OW18493   1.432   5.017   2.050  0.8450  0.2427 -0.4999
 4682SOL    HW218494   1.471   4.941   2.008  1.1389  0.3018 -0.3391
 4682SOL    HW318495   1.452   5.090   1.992  0.2490  0.1457 -0.8387
 4682SOL    MW418496   1.439   5.017   2.037  0.8052  0.2377 -0.5234
 4683SOL     OW18497   5.065   2.379   5.119 -0.3095  0.3647 -0.0938
 4683SOL    HW218498   4.979   2.419   5.135 -0.2412  0.9819 -1.2056
 4683SOL    HW318499   5.128   2.443   5.152 -0.2621 -0.2847  1.1403
 4683SOL    MW418500   5.062   2.393   5.126 -0.2942  0.3604 -0.0776
 4684SOL     OW18501   4.319   0.565   6.406 -0.8063 -0.0283 -0.1426
 4684SOL    HW218502   4.283   0.527   6.326 -1.4466 -2.8154  1.3559
 4684SOL    HW318503   4.301   0.501   6.474  0.5837  1.7848  2.1026
 4684SOL    MW418504   4.312   0.552   6.404 -0.7074 -0.1568  0.3513
 4685SOL     OW18505   1.001   2.953   2.620 -0.2912  0.0102  0.3455
 4685SOL    HW218506   0.960   2.924   2.539  0.3986 -0.1630  0.0477
 4685SOL    HW318507   1.093   2.968   2.596 -0.1216  0.1381  1.0500
 4685SOL    MW418508   1.008   2.951   2.607 -0.1778  0.0042  0.3991
 4686SOL     OW18509   0.176   0.221   5.227 -0.5484 -0.0356 -0.0576
 4686SOL    HW218510   0.176   0.134   5.188 -1.3387  0.6744 -1.7456
 4686SOL    HW318511   0.090   0.230   5.268  0.2616 -0.7621  1.9410
 4686SOL    MW418512   0.165   0.211   5.227 -0.5458 -0.0378 -0.0166
 4687SOL     OW18513   0.483   2.175   3.470  0.6194 -0.1332  0.7093
 4687SOL    HW218514   0.505   2.264   3.498  1.0589  1.1347 -3.0860
 4687SOL    HW318515   0.428   2.141   3.540  0.5902  3.0336  2.4176
 4687SOL    MW418516   0.479   2.182   3.483  0.6735  0.4519  0.4340
 4688SOL     OW18517   2.703   2.871   0.329 -0.1601 -0.4193 -0.3812
 4688SOL    HW218518   2.730   2.941   0.388  0.8268 -0.7954 -0.3665
 4688SOL    HW318519   2.679   2.799   0.387 -0.6433 -0.2790 -0.4073
 4688SOL    MW418520   2.704   2.871   0.345 -0.0936 -0.4504 -0.3827
 4689SOL     OW18521   2.669   4.354   1.397 -0.4224  0.0458  0.0622
 4689SOL    HW218522   2.735   4.390   1.338 -1.5694 -1.4088 -2.2645
 4689SOL    HW318523   2.707   4.270   1.425 -0.1464  0.4566  0.9636
 4689SOL    MW418524   2.683   4.347   1.393 -0.5373 -0.0919 -0.1258
 4690SOL     OW18525   0.740   1.528   1.879  0.2185 -0.5479  0.2256
 4690SOL    HW218526   0.809   1.512   1.944 -1.1180 -1.2845  1.5115
 4690SOL    HW318527   0.687   1.449   1.880 -0.2010 -0.3162 -1.3427
 4690SOL    MW418528   0.742   1.516   1.888 -0.0132 -0.6145  0.1883
 4691SOL     OW18529   3.340   0.102   3.672  0.1992  0.2513  0.0772
 4691SOL    HW218530   3.367   0.073   3.759 -0.0414  2.1683  0.8313
 4691SOL    HW318531   3.410   0.161   3.643 -0.2918  0.5536 -0.5234
 4691SOL    MW418532   3.353   0.106   3.679  0.1027  0.5441  0.0975
 4692SOL     OW18533   4.723   1.528   4.655  0.5520 -0.2118 -0.1590
 4692SOL    HW218534   4.707   1.621   4.642  1.0744  0.3415  2.6337
 4692SOL    HW318535   4.814   1.522   4.682  0.4568 -1.5290 -0.0572
 4692SOL    MW418536   4.733   1.539   4.657  0.6083 -0.3126  0.2229
 4693SOL     OW18537   2.335   3.938   3.941  0.6706 -0.9374 -0.0290
 4693SOL    HW218538   2.418   3.951   3.896  0.2933  0.1971 -0.4153
 4693SOL    HW318539   2.269   3.970   3.880  0.2152  1.5691  1.6271
 4693SOL    MW418540   2.337   3.944   3.927  0.5607 -0.4570  0.1385
 4694SOL     OW18541   0.965   0.377   2.301  0.1962  0.1528 -0.2186
 4694SOL    HW218542   0.921   0.462   2.294 -0.5863 -0.3044 -0.9935
 4694SOL    HW318543   0.894   0.315   2.317  0.7171 -0.4165 -0.0980
 4694SOL    MW418544   0.950   0.380   2.303  0.1617  0.0174 -0.3049
 4695SOL     OW18545   2.733   3.303   2.118 -0.1667 -0.0791  0.5022
 4695SOL    HW218546   2.720   3.361   2.193  0.0261  0.5659  0.0382
 4695SOL    HW318547   2.755   3.361   2.046 -0.2433 -0.7079 -0.0350
 4695SOL    MW418548   2.734   3.318   2.119 -0.1514 -0.0770  0.3701
 4696SOL     OW18549   5.978   1.201   4.418  0.2813 -0.2830 -0.2845
 4696SOL    HW218550   5.980   1.250   4.336 -0.3616 -0.0997 -0.2005
 4696SOL    HW318551   5.938   1.117   4.395 -0.4652  0.0033 -0.0457
 4696SOL    MW418552   5.973   1.196   4.404  0.0980 -0.2210 -0.2419
 4697SOL     OW18553   5.163   3.003   5.528  0.1027 -0.1107 -0.2874
 4697SOL    HW218554   5.118   3.017   5.444 -0.5855 -2.7687 -0.4672
 4697SOL    HW318555   5.093   2.999   5.593  0.3707 -0.7775 -0.0266
 4697SOL    MW418556   5.148   3.004   5.525  0.0472 -0.5494 -0.2767
 4698SOL     OW18557   4.283   2.695   5.301  0.3643  0.0678 -0.6531
 4698SOL    HW218558   4.232   2.653   5.233 -0.7145 -0.4435  0.4307
 4698SOL    HW318559   4.218   2.729   5.363  1.2376 -2.3787  1.8265
 4698SOL    MW418560   4.268   2.694   5.300  0.3372 -0.3225 -0.1830
 4699SOL     OW18561   1.134   3.587   2.359  0.4946  0.2838  0.3352
 4699SOL    HW218562   1.126   3.492   2.363 -0.2500  0.2021 -1.7853
 4699SOL    HW318563   1.045   3.618   2.344  0.8829  1.2389 -0.0780
 4699SOL    MW418564   1.121   3.579   2.358  0.4476  0.3991  0.0009
 4700SOL     OW18565   1.923   5.162   2.710  0.5018 -0.1396  0.0994
 4700SOL    HW218566   1.883   5.079   2.736  0.3179  0.8895  3.6362
 4700SOL    HW318567   2.014   5.139   2.689  0.3526 -1.3141  0.6363
 4700SOL    MW418568   1.930   5.148   2.711  0.4579 -0.1588  0.6368
 4701SOL     OW18569   4.019   5.065   3.504 -0.0265  0.2936 -0.0222
 4701SOL    HW218570   4.012   5.095   3.414 -0.5783  0.2328 -0.0035
 4701SOL    HW318571   4.059   5.138   3.551  0.8900  0.0747 -0.4346
 4701SOL    MW418572   4.023   5.079   3.499  0.0216  0.2567 -0.0741
 4702SOL     OW18573   5.006   0.357   1.040 -0.2754  0.0820 -0.4639
 4702SOL    HW218574   4.991   0.421   0.970  0.4845 -0.0505 -0.7535
 4702SOL    HW318575   4.985   0.405   1.120 -0.9246  0.3062 -0.7613
 4702SOL    MW418576   5.001   0.372   1.041 -0.2608  0.0941 -0.5413
 4703SOL     OW18577   1.158   0.359   3.075  0.2959 -0.1627  0.3571
 4703SOL    HW218578   1.187   0.445   3.104  0.2464 -1.0499  3.4758
 4703SOL    HW318579   1.232   0.301   3.094 -0.6679 -1.2200  1.0466
 4703SOL    MW418580   1.172   0.362   3.081  0.1622 -0.4192  0.8595
 4704SOL     OW18581   1.710   3.644   1.333  0.3843 -0.4914  0.1771
 4704SOL    HW218582   1.763   3.564   1.341 -0.8070 -1.3478 -0.1037
 4704SOL    HW318583   1.671   3.655   1.420 -0.0282 -0.6569  0.0202
 4704SOL    MW418584   1.712   3.635   1.346  0.1727 -0.6262  0.1193
 4705SOL     OW18585   4.694   2.321   1.473  0.1704 -0.1382  0.3888
 4705SOL    HW218586   4.622   2.384   1.479 -1.5709 -1.9907 -0.1682
 4705SOL    HW318587   4.748   2.354   1.401 -1.2762  0.2051 -0.5883
 4705SOL    MW418588   4.692   2.334   1.464 -0.2502 -0.3373  0.1864
 4706SOL     OW18589   2.775   0.634   6.354  0.3563  0.5395 -0.2845
 4706SOL    HW218590   2.813   0.628   6.442  2.0984  0.1802 -1.0126
 4706SOL    HW318591   2.789   0.726   6.329 -1.6189  1.0736  0.3974
 4706SOL    MW418592   2.782   0.646   6.362  0.3255  0.5626 -0.2906
 4707SOL     OW18593   2.995   3.746   6.387  0.2867  0.0399  0.0686
 4707SOL    HW218594   2.921   3.688   6.369 -0.3097  0.6195  0.5770
 4707SOL    HW318595   3.031   3.766   6.301  1.2808 -2.0373 -0.0606
 4707SOL    MW418596   2.990   3.741   6.374  0.3392 -0.1577  0.1187
 4708SOL     OW18597   3.721   3.406   2.544 -0.0967  0.1914  0.0227
 4708SOL    HW218598   3.673   3.386   2.624 -1.3303 -1.5590 -1.0737
 4708SOL    HW318599   3.765   3.489   2.562  0.1972 -0.4596  2.7181
 4708SOL    MW418600   3.721   3.414   2.557 -0.2207 -0.1255  0.2337
 4709SOL     OW18601   1.312   4.522   1.219 -0.0122  0.2447 -0.1567
 4709SOL    HW218602   1.268   4.526   1.134  1.5842 -1.1271 -1.1083
 4709SOL    HW318603   1.405   4.522   1.198  0.4227 -1.0067  1.5145
 4709SOL    MW418604   1.318   4.522   1.205  0.2558 -0.1014 -0.0618
 4710SOL     OW18605   5.263   6.190   1.174 -0.5536  0.2062 -0.0809
 4710SOL    HW218606   5.185   6.168   1.225 -1.2174  0.4168 -0.9694
 4710SOL    HW318607   5.283   6.280   1.198 -0.1818 -0.0597  0.6364
 4710SOL    MW418608   5.255   6.199   1.183 -0.5922  0.1989 -0.1034
 4711SOL     OW18609   2.399   4.161   3.562  0.6815 -0.2146  0.6483
 4711SOL    HW218610   2.427   4.180   3.472 -1.0838 -2.6049 -0.4973
 4711SOL    HW318611   2.442   4.229   3.615 -0.6984  3.2921 -2.2924
 4711SOL    MW418612   2.409   4.173   3.557  0.2666 -0.0673  0.1092
 4712SOL     OW18613   0.356   0.058   2.442 -0.5633 -0.2276 -0.4427
 4712SOL    HW218614   0.361   0.019   2.355  1.2116  1.0677 -0.9863
 4712SOL    HW318615   0.266   0.087   2.450 -0.7439 -0.3115 -1.8902
 4712SOL    MW418616   0.345   0.057   2.432 -0.3529 -0.0678 -0.7054
 4713SOL     OW18617   1.382   3.637   6.319 -0.3024  0.0441 -0.7137
 4713SOL    HW218618   1.409   3.556   6.275 -1.1775 -0.6744  0.0284
 4713SOL    HW318619   1.455   3.659   6.377 -1.2983 -2.0488  1.5069
 4713SOL    MW418620   1.395   3.629   6.321 -0.5492 -0.3268 -0.3228
 4714SOL     OW18621   1.492   0.832   3.792 -0.0842 -0.0351  0.1514
 4714SOL    HW218622   1.531   0.786   3.866  0.5186 -0.8658 -0.6695
 4714SOL    HW318623   1.535   0.796   3.715 -0.5034  1.0072 -0.6024
 4714SOL    MW418624   1.503   0.821   3.792 -0.0600 -0.0072 -0.0564
 4715SOL     OW18625   3.813   0.927   0.662 -0.1872 -0.4498 -0.1433
 4715SOL    HW218626   3.885   0.987   0.682  0.8426 -1.5814 -0.3582
 4715SOL    HW318627   3.850   0.839   0.675 -1.6769 -1.0593  0.2336
 4715SOL    MW418628   3.827   0.923   0.666 -0.2479 -0.6795 -0.1219
 4716SOL     OW18629   1.050   5.409   2.696  0.2743  0.2937  0.0963
 4716SOL    HW218630   1.081   5.395   2.785  0.0175  0.2012  0.1720
 4716SOL    HW318631   1.062   5.324   2.653 -1.3861 -0.2351  0.5857
 4716SOL    MW418632   1.056   5.396   2.702  0.0213  0.2117  0.1708
 4717SOL     OW18633   4.200   5.955   2.090 -0.3023  0.9819  0.4387
 4717SOL    HW218634   4.254   5.994   2.021 -0.2217 -0.6122 -0.4509
 4717SOL    HW318635   4.112   5.951   2.052  0.0326 -1.3537 -0.2902
 4717SOL    MW418636   4.195   5.959   2.076 -0.2475  0.4634  0.2252
 4718SOL     OW18637   5.279   2.672   4.622  0.7778 -0.3726 -0.1932
 4718SOL    HW218638   5.288   2.585   4.583  0.8191 -0.8749  0.9067
 4718SOL    HW318639   5.244   2.727   4.551 -0.7014 -1.6214 -0.4735
 4718SOL    MW418640   5.275   2.668   4.607  0.5881 -0.6036 -0.0851
 4719SOL     OW18641   2.825   0.142   0.071  0.1249 -0.1751  0.0251
 4719SOL    HW218642   2.880   0.116  -0.003  0.7097 -0.1852  0.4609
 4719SOL    HW318643   2.819   0.064   0.125 -0.3062 -0.1672 -0.0071
 4719SOL    MW418644   2.831   0.129   0.068  0.1452 -0.1754  0.0783
 4720SOL     OW18645   4.680   3.665   0.212  0.4741 -0.1495  0.2977
 4720SOL    HW218646   4.653   3.589   0.264  0.1924  0.6247  1.3134
 4720SOL    HW318647   4.674   3.739   0.272  1.5832  0.5658 -0.4295
 4720SOL    MW418648   4.675   3.665   0.227  0.5833  0.0470  0.3357
 4721SOL     OW18649   2.665   2.894   6.330  0.0357  0.1116 -0.2893
 4721SOL    HW218650   2.623   2.817   6.367  0.3350  0.2280  0.3045
 4721SOL    HW318651   2.656   2.883   6.235  0.6913 -1.0143 -0.2412
 4721SOL    MW418652   2.658   2.883   6.322  0.1617 -0.0216 -0.2046
 4722SOL     OW18653   5.085   3.655   4.948 -0.6467  0.3473 -0.2120
 4722SOL    HW218654   5.073   3.574   4.998 -0.4781  1.4599  1.7333
 4722SOL    HW318655   5.027   3.718   4.991  1.2218  1.9574  0.0594
 4722SOL    MW418656   5.076   3.653   4.960 -0.3779  0.7065  0.0805
 4723SOL     OW18657   4.884   3.855   5.066  0.0148 -0.5521  0.2986
 4723SOL    HW218658   4.879   3.898   4.981  1.9773 -1.2751 -0.2452
 4723SOL    HW318659   4.903   3.925   5.128 -1.5738  0.0015  0.1835
 4723SOL    MW418660   4.886   3.870   5.063  0.0641 -0.5744  0.2117
 4724SOL     OW18661   0.140   1.536   1.022  0.3218 -0.1431  0.1931
 4724SOL    HW218662   0.209   1.474   1.043  0.7425  0.9558  2.3545
 4724SOL    HW318663   0.059   1.492   1.048  0.5587 -0.0727  1.0827
 4724SOL    MW418664   0.138   1.522   1.028  0.4086  0.0112  0.5956
 4725SOL     OW18665   1.738   6.322   4.652 -0.6864 -0.1162  0.3895
 4725SOL    HW218666   1.787   6.392   4.609 -1.6478  0.1757 -0.2467
 4725SOL    HW318667   1.796   6.292   4.722  1.3011 -1.2010 -1.6068
 4725SOL    MW418668   1.752   6.327   4.656 -0.5510 -0.2208  0.0422
 4726SOL     OW18669   1.809   1.301   1.884  0.6799  0.2102  0.4740
 4726SOL    HW218670   1.762   1.251   1.817  0.3837  2.1277 -0.8556
 4726SOL    HW318671   1.901   1.281   1.868  0.6664  1.1618 -1.0272
 4726SOL    MW418672   1.815   1.292   1.873  0.6391  0.5887  0.1005
 4727SOL     OW18673   4.409   3.527   1.907 -0.3334  0.1476  0.2480
 4727SOL    HW218674   4.450   3.443   1.928 -0.2351  0.0154 -0.4570
 4727SOL    HW318675   4.406   3.529   1.811 -3.4995 -0.6340  0.1992
 4727SOL    MW418676   4.414   3.516   1.897 -0.7381  0.0270  0.1486
 4728SOL     OW18677   4.283   4.918   1.403 -0.0466 -0.0793 -0.2424
 4728SOL    HW218678   4.253   4.926   1.313 -0.9458  0.5794  0.0899
 4728SOL    HW318679   4.265   4.827   1.427 -1.8014  0.2689 -0.0833
 4728SOL    MW418680   4.277   4.907   1.395 -0.3967  0.0535 -0.1776
 4729SOL     OW18681   2.211   2.921   3.660  0.0518  0.4370 -0.5515
 4729SOL    HW218682   2.151   2.967   3.601 -0.5639  0.7103  0.2780
 4729SOL    HW318683   2.236   2.987   3.725  0.6622  0.1146 -0.4500
 4729SOL    MW418684   2.207   2.936   3.661  0.0511  0.4305 -0.4286
 4730SOL     OW18685   2.496   5.522   2.137  0.0635 -0.8120 -0.4198
 4730SOL    HW218686   2.506   5.524   2.042  0.5830 -0.7734 -0.3669
 4730SOL    HW318687   2.531   5.606   2.167 -1.5238 -0.1571 -0.3139
 4730SOL    MW418688   2.502   5.533   2.128 -0.0774 -0.7205 -0.3989
 4731SOL     OW18689   3.431   2.021   4.433  0.4485  0.3490 -0.1000
 4731SOL    HW218690   3.407   2.065   4.514  0.5125  1.9440 -0.8849
 4731SOL    HW318691   3.413   1.929   4.448 -1.0434  0.8144  1.1630
 4731SOL    MW418692   3.426   2.015   4.445  0.2601  0.6208 -0.0369
 4732SOL     OW18693   3.205   0.548   2.320  0.2194  0.5936  0.2347
 4732SOL    HW218694   3.168   0.463   2.342  2.2061 -0.0392  1.3966
 4732SOL    HW318695   3.180   0.605   2.394  1.1923  0.2556  0.8482
 4732SOL    MW418696   3.197   0.545   2.333  0.6099  0.4655  0.4690
 4733SOL     OW18697   5.475   4.721   2.487 -0.0720 -0.0108 -0.1994
 4733SOL    HW218698   5.400   4.744   2.542 -0.8065 -0.7291 -0.8754
 4733SOL    HW318699   5.439   4.715   2.398  0.5931 -1.2889 -0.3998
 4733SOL    MW418700   5.461   4.723   2.482 -0.0812 -0.2742 -0.3150
 4734SOL     OW18701   3.320   6.199   4.052  0.0394  0.1231  0.1557
 4734SOL    HW218702   3.276   6.134   3.998 -2.1867  1.1958  0.5620
 4734SOL    HW318703   3.406   6.161   4.070 -0.5948 -1.9759 -0.9031
 4734SOL    MW418704   3.326   6.185   4.047 -0.3380 -0.0123  0.0696
 4735SOL     OW18705   4.558   0.673   2.624  0.8649  0.7611 -0.2216
 4735SOL    HW218706   4.575   0.758   2.665  1.3072  1.2438 -1.3746
 4735SOL    HW318707   4.627   0.616   2.656  2.5126  1.6963 -1.8889
 4735SOL    MW418708   4.569   0.677   2.634  1.1407  0.9482 -0.5937
 4736SOL     OW18709   6.355   5.688   0.389  0.4091  0.1634  0.4129
 4736SOL    HW218710   6.327   5.701   0.299 -0.9511 -0.3427  0.7509
 4736SOL    HW318711   6.337   5.596   0.408  0.4829  0.3128  1.2629
 4736SOL    MW418712   6.349   5.678   0.380  0.2394  0.1163  0.5696
 4737SOL     OW18713   5.545   4.630   3.479 -0.1960 -0.2423 -0.4138
 4737SOL    HW218714   5.461   4.649   3.521  0.7363  0.6524  1.1611
 4737SOL    HW318715   5.531   4.547   3.434 -1.3440 -1.2125  1.5882
 4737SOL    MW418716   5.532   4.622   3.479 -0.2244 -0.2523  0.0581
 4738SOL     OW18717   5.453   4.818   3.121 -0.1836  0.6949 -0.0038
 4738SOL    HW218718   5.519   4.882   3.148  0.4241  0.2026 -0.3082
 4738SOL    HW318719   5.468   4.806   3.027 -0.5009  0.3429 -0.0109
 4738SOL    MW418720   5.464   4.825   3.112 -0.1453  0.5835 -0.0449
 4739SOL     OW18721   1.150   4.308   0.200 -0.6158  0.4020 -0.0522
 4739SOL    HW218722   1.157   4.271   0.112 -2.3252  1.3363 -0.6275
 4739SOL    HW318723   1.059   4.291   0.226  0.1246 -0.7317  1.9587
 4739SOL    MW418724   1.139   4.301   0.192 -0.7436  0.3757  0.1372
 4740SOL     OW18725   6.180   2.227   1.051  0.1962  0.1208  0.4445
 4740SOL    HW218726   6.119   2.252   1.121 -0.5355 -0.3182 -0.0228
 4740SOL    HW318727   6.125   2.184   0.986  1.3389 -2.4689  1.0737
 4740SOL    MW418728   6.164   2.225   1.052  0.2504 -0.2788  0.4659
 4741SOL     OW18729   5.075   2.398   3.095 -1.0589  0.8527 -0.2199
 4741SOL    HW218730   5.147   2.456   3.069 -0.9069  1.4315  1.3823
 4741SOL    HW318731   5.059   2.420   3.187 -1.2415 -1.4119  0.3448
 4741SOL    MW418732   5.082   2.409   3.104 -1.0630  0.6303  0.0660
 4742SOL     OW18733   3.225   0.130   6.275  0.2446  0.6179 -0.5242
 4742SOL    HW218734   3.314   0.164   6.285  0.4077  0.5045 -1.4928
 4742SOL    HW318735   3.168   0.205   6.290  0.5178  0.7876 -0.3240
 4742SOL    MW418736   3.229   0.144   6.278  0.3022  0.6253 -0.6256
 4743SOL     OW18737   5.726   2.921   4.639 -0.2737  0.1305 -0.7475
 4743SOL    HW218738   5.746   2.883   4.724 -0.0184  2.3249  0.2556
 4743SOL    HW318739   5.660   2.863   4.601 -0.8091 -0.5957  1.1838
 4743SOL    MW418740   5.720   2.908   4.645 -0.3107  0.3242 -0.3603
 4744SOL     OW18741   2.844   1.689   1.178  0.1143 -0.3684 -0.1467
 4744SOL    HW218742   2.760   1.661   1.142 -0.8938 -0.9990  2.4088
 4744SOL    HW318743   2.826   1.774   1.218  0.2166 -1.1892  1.7641
 4744SOL    MW418744   2.831   1.696   1.179 -0.0052 -0.5599  0.4426
 4745SOL     OW18745   2.720   5.618   5.208  0.2929  0.3063 -0.1441
 4745SOL    HW218746   2.657   5.661   5.265 -0.5491  3.2064 -2.9351
 4745SOL    HW318747   2.699   5.525   5.213 -1.6316  0.7741  1.9311
 4745SOL    MW418748   2.709   5.612   5.216 -0.0721  0.7506 -0.2385
 4746SOL     OW18749   0.296   1.782   4.245  0.1005 -0.4146 -0.2099
 4746SOL    HW218750   0.238   1.756   4.316 -1.0472  2.6322  0.0944
 4746SOL    HW318751   0.357   1.708   4.236 -0.5221 -1.4839  3.0211
 4746SOL    MW418752   0.297   1.769   4.254 -0.1331 -0.1537  0.2566
 4747SOL     OW18753   2.260   5.462   0.777 -0.5584  0.1175 -0.2113
 4747SOL    HW218754   2.291   5.411   0.703  0.4029 -2.3146  1.7277
 4747SOL    HW318755   2.307   5.427   0.853 -0.8740  3.0213  1.4892
 4747SOL    MW418756   2.270   5.451   0.777 -0.4732  0.1797  0.2689
 4748SOL     OW18757   4.561   4.548   4.374 -0.3136 -0.0670  0.6353
 4748SOL    HW218758   4.579   4.507   4.290  0.0058  1.5385 -0.1138
 4748SOL    HW318759   4.466   4.558   4.377 -0.3316 -0.2133  0.5039
 4748SOL    MW418760   4.551   4.544   4.363 -0.2738  0.1255  0.5192
 4749SOL     OW18761   6.058   2.506   4.285 -0.0208  0.6867 -0.0341
 4749SOL    HW218762   6.081   2.572   4.350  0.6526 -0.9760  1.5066
 4749SOL    HW318763   5.969   2.529   4.258  0.8138  3.2020 -0.8998
 4749SOL    MW418764   6.049   2.518   4.290  0.1781  0.7992  0.0550
 4750SOL     OW18765   1.784   1.184   2.136 -0.7009  0.6932  0.1239
 4750SOL    HW218766   1.723   1.115   2.110 -3.1866  2.5718  0.5061
 4750SOL    HW318767   1.801   1.232   2.055 -0.8518  0.9888  0.2661
 4750SOL    MW418768   1.778   1.181   2.122 -1.0488  0.9801  0.1931
 4751SOL     OW18769   0.976   2.080   2.138  0.0437 -0.4014  0.0734
 4751SOL    HW218770   1.058   2.057   2.181 -0.3370 -1.7113  0.1317
 4751SOL    HW318771   0.999   2.096   2.047  0.6913  1.3832  0.5074
 4751SOL    MW418772   0.990   2.079   2.132  0.0789 -0.3388  0.1383
 4752SOL     OW18773   5.082   6.164   3.376 -0.2691  0.0379  0.1173
 4752SOL    HW218774   5.013   6.142   3.438 -1.3262 -0.0961 -1.0824
 4752SOL    HW318775   5.130   6.082   3.364  0.7542  0.3550  1.6904
 4752SOL    MW418776   5.079   6.151   3.382 -0.2735  0.0621  0.1666
 4753SOL     OW18777   3.342   1.178   4.331  0.4398 -0.1807 -0.4650
 4753SOL    HW218778   3.265   1.234   4.340  1.2189  0.8477  0.0851
 4753SOL    HW318779   3.408   1.235   4.292  1.6804 -0.2545  1.3932
 4753SOL    MW418780   3.341   1.193   4.327  0.7062 -0.0548 -0.1473
 4754SOL     OW18781   3.478   4.522   1.735 -0.6000 -0.4108 -1.2829
 4754SOL    HW218782   3.400   4.550   1.687 -0.6562 -0.0448 -0.9830
 4754SOL    HW318783   3.493   4.592   1.799 -1.0402 -1.3108 -0.1619
 4754SOL    MW418784   3.470   4.535   1.737 -0.6655 -0.4812 -1.0954
 4755SOL     OW18785   4.095   0.909   1.497 -0.2198  0.5689 -0.1008
 4755SOL    HW218786   4.044   0.958   1.562  0.0955  0.3860  0.2957
 4755SOL    HW318787   4.185   0.935   1.514 -0.1144  0.3422 -0.3114
 4755SOL    MW418788   4.100   0.919   1.508 -0.1643  0.5148 -0.0763
 4756SOL     OW18789   5.253   5.090   5.690 -0.0605 -0.1552 -0.4400
 4756SOL    HW218790   5.243   5.180   5.721 -0.9741 -0.4320  0.1285
 4756SOL    HW318791   5.164   5.054   5.692  0.3859 -1.2822  0.0409
 4756SOL    MW418792   5.240   5.097   5.695 -0.1222 -0.3404 -0.3015
 4757SOL     OW18793   5.977   5.082   1.650  0.2091 -0.1506 -0.1786
 4757SOL    HW218794   6.011   5.052   1.566  1.3896  1.0509 -0.1651
 4757SOL    HW318795   6.006   5.016   1.713  2.6452  0.8126 -0.1641
 4757SOL    MW418796   5.985   5.069   1.648  0.6862  0.1350 -0.1749
 4758SOL     OW18797   4.978   1.163   5.529 -0.4362 -0.4249  0.0155
 4758SOL    HW218798   4.961   1.140   5.438 -0.4431  1.7154 -0.5892
 4758SOL    HW318799   4.891   1.170   5.569 -0.4499 -0.9871  0.0839
 4758SOL    MW418800   4.964   1.161   5.522 -0.4389 -0.2167 -0.0553
 4759SOL     OW18801   5.995   3.792   6.123  0.3251 -0.5966  0.1472
 4759SOL    HW218802   5.929   3.734   6.083  0.7054 -0.6775 -0.3696
 4759SOL    HW318803   6.078   3.746   6.110  0.6497  0.1142 -0.3885
 4759SOL    MW418804   5.997   3.778   6.116  0.4181 -0.5135  0.0084
 4760SOL     OW18805   4.668   5.710   1.083  0.0973 -0.5180 -0.5936
 4760SOL    HW218806   4.682   5.776   1.015 -0.2334  0.4323  0.2366
 4760SOL    HW318807   4.752   5.666   1.091  0.7148  0.6810 -0.2617
 4760SOL    MW418808   4.681   5.713   1.075  0.1351 -0.2344 -0.4403
 4761SOL     OW18809   3.586   4.014   0.717 -0.2309 -0.2765  0.1363
 4761SOL    HW218810   3.620   4.070   0.648  0.2307 -2.3410 -1.3819
 4761SOL    HW318811   3.493   4.037   0.722 -0.2053  0.1098 -0.9483
 4761SOL    MW418812   3.578   4.025   0.709 -0.1666 -0.4979 -0.2071
 4762SOL     OW18813   3.628   3.484   5.401 -0.4851 -0.2159  0.1298
 4762SOL    HW218814   3.655   3.423   5.469  1.0654  0.3173  0.0084
 4762SOL    HW318815   3.709   3.510   5.357 -1.2076  1.1935 -0.4492
 4762SOL    MW418816   3.642   3.479   5.404 -0.3759  0.0404  0.0374
 4763SOL     OW18817   1.816   0.461   2.991 -0.2556 -0.3534 -0.3752
 4763SOL    HW218818   1.897   0.459   3.042  0.4753 -0.2079 -1.5014
 4763SOL    HW318819   1.793   0.369   2.979 -0.8954 -0.3801  0.9047
 4763SOL    MW418820   1.823   0.449   2.996 -0.2436 -0.3377 -0.3549
 4764SOL     OW18821   2.091   2.193   2.835 -0.1144  0.5603 -0.0950
 4764SOL    HW218822   2.154   2.121   2.843 -2.6186 -1.6306  1.5428
 4764SOL    HW318823   2.119   2.257   2.899  1.8036  0.8396 -1.1336
 4764SOL    MW418824   2.103   2.192   2.844 -0.1917  0.3081 -0.0160
 4765SOL     OW18825   6.141   2.447   5.107  0.0443 -0.2384  0.0441
 4765SOL    HW218826   6.135   2.540   5.127 -0.5827 -0.3896  0.6028
 4765SOL    HW318827   6.151   2.404   5.192  1.6519 -0.6002 -0.3014
 4765SOL    MW418828   6.141   2.454   5.121  0.1737 -0.3061  0.0722
 4766SOL     OW18829   4.651   0.882   4.862 -0.2439  0.1377  0.1912
 4766SOL    HW218830   4.711   0.949   4.894  1.3610  0.1921 -2.5554
 4766SOL    HW318831   4.707   0.805   4.848 -0.7412  0.1373 -2.2726
 4766SOL    MW418832   4.667   0.880   4.864 -0.0978  0.1448 -0.4962
 4767SOL     OW18833   1.908   6.045   0.774  0.4662  0.7581 -0.5681
 4767SOL    HW218834   1.825   6.037   0.725  0.1192 -0.7963  0.2235
 4767SOL    HW318835   1.906   6.135   0.808 -0.1866  1.2418 -1.7812
 4767SOL    MW418836   1.897   6.056   0.772  0.3343  0.6169 -0.6237
 4768SOL     OW18837   1.023   5.714   3.475 -0.5542  0.0561 -0.5779
 4768SOL    HW218838   1.069   5.764   3.543 -1.2021  2.1211 -1.5710
 4768SOL    HW318839   0.932   5.712   3.505 -0.5041 -0.7378 -0.4542
 4768SOL    MW418840   1.017   5.721   3.488 -0.6331  0.2238 -0.6926
 4769SOL     OW18841   1.749   5.828   3.842 -0.4917 -0.3718  0.2617
 4769SOL    HW218842   1.696   5.790   3.913 -0.1442  0.6611  1.0945
 4769SOL    HW318843   1.801   5.895   3.885 -0.8286  0.8016 -1.1111
 4769SOL    MW418844   1.749   5.831   3.857 -0.4903 -0.0807  0.1905
 4770SOL     OW18845   3.015   5.172   5.461  0.2874 -0.0532 -0.1731
 4770SOL    HW218846   3.056   5.252   5.494 -0.0491 -0.1875  0.5835
 4770SOL    HW318847   3.077   5.137   5.397  0.2835  1.0034 -0.7837
 4770SOL    MW418848   3.028   5.178   5.457  0.2425  0.0685 -0.1538
 4771SOL     OW18849   2.222   6.341   2.063  0.7328  0.2235 -0.3158
 4771SOL    HW218850   2.202   6.404   1.994 -1.2918  0.0065  0.0091
 4771SOL    HW318851   2.252   6.393   2.136 -0.7252  0.8464 -0.1184
 4771SOL    MW418852   2.223   6.356   2.063  0.2733  0.2770 -0.2469
 4772SOL     OW18853   0.431   3.950   2.619  0.3011  0.1268 -0.0984
 4772SOL    HW218854   0.449   4.030   2.669  0.2726  0.3933 -0.5153
 4772SOL    HW318855   0.516   3.926   2.582  0.6816 -0.9758  1.3820
 4772SOL    MW418856   0.445   3.958   2.621  0.3475  0.0165  0.0419
 4773SOL     OW18857   3.560   3.130   0.756 -0.0728 -0.7384 -0.4276
 4773SOL    HW218858   3.520   3.215   0.736 -1.1641 -1.4049 -1.1960
 4773SOL    HW318859   3.654   3.149   0.764 -0.3854  0.6666  0.2360
 4773SOL    MW418860   3.567   3.144   0.754 -0.2580 -0.6410 -0.4414
 4774SOL     OW18861   2.057   1.146   5.193  0.2858  0.8683 -0.3646
 4774SOL    HW218862   2.108   1.065   5.191  0.4592  0.8274  2.5208
 4774SOL    HW318863   2.119   1.214   5.167  0.7652  0.3724 -0.5355
 4774SOL    MW418864   2.072   1.144   5.189  0.3720  0.7974 -0.0065
 4775SOL     OW18865   2.748   6.348   4.766  0.8420  0.1239 -0.6498
 4775SOL    HW218866   2.673   6.369   4.823  1.2007 -0.5207  0.0909
 4775SOL    HW318867   2.708   6.324   4.682  0.2309  0.0640 -0.3502
 4775SOL    MW418868   2.733   6.347   4.763  0.8087  0.0310 -0.5125
 4776SOL     OW18869   3.366   1.905   1.882 -0.5325  0.2937 -0.2053
 4776SOL    HW218870   3.323   1.962   1.818 -1.3489 -1.5190 -1.3674
 4776SOL    HW318871   3.303   1.899   1.954  0.1979  1.9916  0.6144
 4776SOL    MW418872   3.352   1.912   1.883 -0.5439  0.2786 -0.2505
 4777SOL     OW18873   1.486   4.403   0.128 -0.2009  0.0139  0.2209
 4777SOL    HW218874   1.394   4.393   0.104 -0.1992  0.7504 -0.1175
 4777SOL    HW318875   1.489   4.485   0.177  0.0359 -0.7650  1.5384
 4777SOL    MW418876   1.474   4.412   0.131 -0.1694  0.0083  0.3501
 4778SOL     OW18877   0.737   4.513   0.818  0.5046 -0.7060  0.3094
 4778SOL    HW218878   0.699   4.429   0.790  0.0861  0.5618 -3.5631
 4778SOL    HW318879   0.814   4.489   0.869  0.8850 -3.5453 -1.3658
 4778SOL    MW418880   0.742   4.499   0.821  0.4996 -0.9134 -0.4226
 4779SOL     OW18881   5.770   5.908   1.816  0.0201  0.0262 -0.2460
 4779SOL    HW218882   5.715   5.897   1.739 -1.6263  1.3181  0.6677
 4779SOL    HW318883   5.818   5.825   1.823 -2.4818 -1.5772 -0.6123
 4779SOL    MW418884   5.769   5.895   1.807 -0.5272 -0.0149 -0.1738
 4780SOL     OW18885   2.836   5.447   6.266  0.4875 -0.7046  0.3270
 4780SOL    HW218886   2.906   5.468   6.205 -0.3046  0.6168 -0.1737
 4780SOL    HW318887   2.815   5.530   6.308 -0.6740 -1.1011  0.5739
 4780SOL    MW418888   2.843   5.460   6.264  0.2298 -0.5826  0.2936
 4781SOL     OW18889   2.792   6.148   2.482  0.0156 -0.3290  0.2506
 4781SOL    HW218890   2.881   6.180   2.467  0.6504 -2.2375 -0.2425
 4781SOL    HW318891   2.749   6.156   2.396 -0.1937  0.2248  0.3985
 4781SOL    MW418892   2.798   6.153   2.469  0.0717 -0.5078  0.2051
 4782SOL     OW18893   3.771   0.886   4.364 -0.1493  0.0539  0.4174
 4782SOL    HW218894   3.712   0.916   4.433  0.5251  1.1618  0.5274
 4782SOL    HW318895   3.803   0.966   4.322  1.1711 -0.5078  0.2855
 4782SOL    MW418896   3.768   0.900   4.368  0.1139  0.1260  0.4145
 4783SOL     OW18897   2.816   0.141   5.281 -0.2179 -0.0103 -0.1733
 4783SOL    HW218898   2.795   0.129   5.189 -2.1683  1.4046  0.0357
 4783SOL    HW318899   2.777   0.225   5.304  1.7736  0.5297  1.5152
 4783SOL    MW418900   2.808   0.150   5.272 -0.2125  0.2476  0.0771
 4784SOL     OW18901   4.135   4.836   6.055  0.0877 -0.0216 -0.2467
 4784SOL    HW218902   4.198   4.786   6.003 -1.1831 -1.5110 -0.4200
 4784SOL    HW318903   4.119   4.781   6.132 -0.1570  0.8670  0.3515
 4784SOL    MW418904   4.141   4.822   6.058 -0.1123 -0.1008 -0.1907
 4785SOL     OW18905   3.271   0.540   1.961  0.7886 -0.0879 -0.2093
 4785SOL    HW218906   3.301   0.459   2.001  0.5919 -0.1690 -0.2249
 4785SOL    HW318907   3.178   0.545   1.985  0.6092 -0.2611 -0.8710
 4785SOL    MW418908   3.263   0.530   1.970  0.7390 -0.1214 -0.2986
 4786SOL     OW18909   4.410   1.936   5.863  0.6275 -0.0551 -0.5251
 4786SOL    HW218910   4.398   2.023   5.902  0.6559  0.0358 -0.7192
 4786SOL    HW318911   4.437   1.880   5.936  1.5718  0.3118 -0.5828
 4786SOL    MW418912   4.412   1.940   5.878  0.7558  0.0053 -0.5583
 4787SOL     OW18913   2.532   1.832   6.323  0.1533 -0.1298 -0.4001
 4787SOL    HW218914   2.496   1.848   6.410  0.9183 -1.4213  0.1683
 4787SOL    HW318915   2.613   1.883   6.321 -0.0633  0.2187 -0.5194
 4787SOL    MW418916   2.538   1.841   6.334  0.2257 -0.2542 -0.3408
 4788SOL     OW18917   3.783   1.584   4.518  0.4050  0.6709 -0.1674
 4788SOL    HW218918   3.803   1.498   4.557  0.6167  0.3756 -0.9019
 4788SOL    HW318919   3.839   1.645   4.566 -0.5542  0.5727  1.1112
 4788SOL    MW418920   3.793   1.580   4.529  0.3064  0.6190 -0.0956
 4789SOL     OW18921   2.037   1.444   3.432 -0.1530  0.5456  0.3502
 4789SOL    HW218922   2.087   1.363   3.433 -1.7319 -0.4784 -0.1547
 4789SOL    HW318923   2.100   1.511   3.405  1.5377 -0.2117  2.2161
 4789SOL    MW418924   2.052   1.442   3.428 -0.1382  0.3106  0.5298
 4790SOL     OW18925   2.660   5.280   0.774  0.3196 -0.0135 -0.6311
 4790SOL    HW218926   2.754   5.268   0.785  0.1784 -0.6713 -0.0657
 4790SOL    HW318927   2.625   5.191   0.770 -0.7393  0.0720  3.1533
 4790SOL    MW418928   2.667   5.267   0.775  0.1612 -0.0890 -0.0572
 4791SOL     OW18929   4.071   2.798   1.349  0.2291  0.3407  0.1747
 4791SOL    HW218930   4.039   2.709   1.361  0.0707  0.7528  4.0232
 4791SOL    HW318931   3.992   2.852   1.354  0.4592  0.7966 -0.8905
 4791SOL    MW418932   4.056   2.793   1.351  0.2386  0.4552  0.5419
 4792SOL     OW18933   0.193   4.951   1.583 -0.0239 -0.4203 -0.2163
 4792SOL    HW218934   0.126   4.899   1.629 -0.1630 -0.9997 -1.0548
 4792SOL    HW318935   0.274   4.932   1.630 -0.5560  0.9466  1.3426
 4792SOL    MW418936   0.195   4.942   1.595 -0.1125 -0.3164 -0.1213
 4793SOL     OW18937   6.119   1.190   5.559 -0.1983 -0.4160 -0.2472
 4793SOL    HW218938   6.057   1.135   5.511 -0.0892 -0.9280  0.1822
 4793SOL    HW318939   6.068   1.225   5.632 -0.1108 -0.4444 -0.1722
 4793SOL    MW418940   6.104   1.187   5.562 -0.1724 -0.4873 -0.1806
 4794SOL     OW18941   1.502   6.393   0.391 -0.0899 -0.4276 -0.4958
 4794SOL    HW218942   1.465   6.324   0.336 -1.2404 -1.7143  1.7269
 4794SOL    HW318943   1.451   6.388   0.472  1.5610  1.3065  0.7270
 4794SOL    MW418944   1.490   6.383   0.394 -0.0239 -0.3686 -0.0412
 4795SOL     OW18945   3.569   4.770   5.459 -0.0164 -0.0524 -0.2908
 4795SOL    HW218946   3.637   4.831   5.432  1.1468 -0.9800  0.4119
 4795SOL    HW318947   3.594   4.686   5.420  0.2840 -0.8198  1.4342
 4795SOL    MW418948   3.581   4.767   5.451  0.1767 -0.2761  0.0295
 4796SOL     OW18949   1.184   0.704   2.284  0.7323  0.3249 -0.1905
 4796SOL    HW218950   1.208   0.722   2.193  1.3614  1.9302  0.2584
 4796SOL    HW318951   1.260   0.732   2.335  0.0940  0.1569  0.8802
 4796SOL    MW418952   1.197   0.710   2.279  0.7311  0.5146  0.0100
 4797SOL     OW18953   1.828   2.131   1.796  0.3446  0.8342 -0.5484
 4797SOL    HW218954   1.844   2.041   1.823  0.1986  0.5766 -1.2917
 4797SOL    HW318955   1.744   2.153   1.836 -0.4117  0.0787 -1.6640
 4797SOL    MW418956   1.819   2.122   1.805  0.2256  0.7006 -0.7936
 4798SOL     OW18957   2.407   1.846   1.162 -0.6447 -0.1815 -0.5074
 4798SOL    HW218958   2.344   1.898   1.112 -0.4908 -0.0407 -0.5512
 4798SOL    HW318959   2.453   1.910   1.217 -0.9117 -0.3501 -0.0821
 4798SOL    MW418960   2.404   1.861   1.163 -0.6596 -0.1851 -0.4571
 4799SOL     OW18961   3.499   0.483   2.279 -0.4568 -0.1070  0.6676
 4799SOL    HW218962   3.417   0.508   2.322  0.0738  2.0585  0.5126
 4799SOL    HW318963   3.562   0.549   2.308  1.0700 -1.3154  0.2065
 4799SOL    MW418964   3.496   0.495   2.289 -0.1854  0.0193  0.5863
 4800SOL     OW18965   4.705   5.371   3.598  0.0933  0.7200 -0.1682
 4800SOL    HW218966   4.757   5.309   3.546  1.5394  1.2094  0.6384
 4800SOL    HW318967   4.770   5.417   3.651 -1.2493  0.9473  1.3341
 4800SOL    MW418968   4.721   5.369   3.598  0.1069  0.8146  0.1364
 4801SOL     OW18969   1.095   2.351   2.970  0.5340  0.3451  0.2884
 4801SOL    HW218970   1.034   2.296   3.020  2.2279 -0.1373  1.9942
 4801SOL    HW318971   1.064   2.346   2.880  0.1487 -2.8689  0.4728
 4801SOL    MW418972   1.083   2.343   2.965  0.7066 -0.1426  0.5377
 4802SOL     OW18973   5.668   2.796   1.493  0.3365 -0.3671 -0.3613
 4802SOL    HW218974   5.648   2.796   1.586  0.1673 -2.1731 -0.3547
 4802SOL    HW318975   5.762   2.809   1.489  0.3964 -0.6254  0.0930
 4802SOL    MW418976   5.678   2.798   1.505  0.3221 -0.6395 -0.3005
 4803SOL     OW18977   3.074   0.344   4.975 -0.0630  0.5193  0.4534
 4803SOL    HW218978   3.050   0.266   5.025 -0.5850 -0.0487 -0.6302
 4803SOL    HW318979   3.160   0.368   5.008  0.4224 -0.9313  0.3398
 4803SOL    MW418980   3.082   0.337   4.986 -0.0678  0.2530  0.2955
 4804SOL     OW18981   3.423   2.988   3.663 -0.6910 -0.2403 -0.3130
 4804SOL    HW218982   3.335   3.022   3.679 -0.7950 -0.1199 -1.0929
 4804SOL    HW318983   3.414   2.893   3.667 -0.4250 -0.2331  1.7535
 4804SOL    MW418984   3.410   2.980   3.666 -0.6696 -0.2235 -0.1433
 4805SOL     OW18985   2.995   5.394   2.953  0.0751 -0.1604  0.2227
 4805SOL    HW218986   3.007   5.488   2.968 -0.4653 -0.1750  0.7698
 4805SOL    HW318987   3.069   5.353   2.999  0.1004 -0.0292  0.2978
 4805SOL    MW418988   3.007   5.401   2.961  0.0071 -0.1450  0.3048
 4806SOL     OW18989   0.595   6.109   6.135 -0.0908 -0.5104 -0.0647
 4806SOL    HW218990   0.662   6.167   6.170 -1.6034  1.4957 -0.3417
 4806SOL    HW318991   0.550   6.075   6.212 -0.9614  0.8983  0.0804
 4806SOL    MW418992   0.598   6.112   6.150 -0.4052 -0.0599 -0.0821
 4807SOL     OW18993   2.234   0.092   2.873 -0.4708  0.2260  0.1450
 4807SOL    HW218994   2.264   0.019   2.818  0.7705 -0.7065  1.9373
 4807SOL    HW318995   2.241   0.169   2.816 -2.3456 -1.0527 -1.9819
 4807SOL    MW418996   2.239   0.092   2.858 -0.5544 -0.0658  0.1008
 4808SOL     OW18997   3.540   4.013   3.631 -0.2402 -0.2312 -0.4082
 4808SOL    HW218998   3.540   3.923   3.597 -1.1591  0.1862 -1.5910
 4808SOL    HW318999   3.597   4.061   3.570 -0.1735  0.0964 -0.0870
 4808SOL    MW419000   3.548   4.007   3.618 -0.3527 -0.1329 -0.5219
 4809SOL     OW19001   4.305   4.848   2.521 -0.5795 -0.2668  0.2564
 4809SOL    HW219002   4.271   4.835   2.433 -1.0270 -0.3364  0.4362
 4809SOL    HW319003   4.265   4.778   2.573 -0.5276 -0.0689  0.5689
 4809SOL    MW419004   4.296   4.837   2.516 -0.6317 -0.2498  0.3213
 4810SOL     OW19005   6.071   6.321   0.411 -0.1955 -0.2933  0.5415
 4810SOL    HW219006   6.147   6.326   0.469  0.3025  0.1107 -0.1329
 4810SOL    HW319007   6.108   6.308   0.324 -0.8786  0.3801  0.1440
 4810SOL    MW419008   6.086   6.320   0.407 -0.2199 -0.1512  0.4000
 4811SOL     OW19009   2.895   4.324   4.200 -0.1989 -0.4331  0.0296
 4811SOL    HW219010   2.877   4.417   4.184 -0.4821 -0.3590  0.7411
 4811SOL    HW319011   2.958   4.325   4.273 -0.3603 -0.8065  0.1739
 4811SOL    MW419012   2.901   4.337   4.208 -0.2576 -0.4726  0.1425
 4812SOL     OW19013   0.766   5.135   1.267  0.5956  0.1766  0.1174
 4812SOL    HW219014   0.768   5.106   1.359  0.2347  0.4559  0.2164
 4812SOL    HW319015   0.826   5.076   1.222 -0.7759 -1.3136  0.1526
 4812SOL    MW419016   0.774   5.123   1.273  0.3670  0.0169  0.1351
 4813SOL     OW19017   1.246   2.911   3.313 -0.2563 -0.2265 -0.0784
 4813SOL    HW219018   1.195   2.880   3.238  0.7548 -0.3177 -0.7423
 4813SOL    HW319019   1.335   2.880   3.296  0.4325  1.5783  0.1116
 4813SOL    MW419020   1.251   2.903   3.301 -0.0320 -0.0004 -0.1409
 4814SOL     OW19021   5.948   2.877   1.179  0.6108 -0.1421  0.2372
 4814SOL    HW219022   5.942   2.956   1.126  0.6383 -0.3514 -0.0811
 4814SOL    HW319023   6.040   2.849   1.170  0.8060  0.2302  0.9928
 4814SOL    MW419024   5.960   2.883   1.171  0.6402 -0.1206  0.2949
 4815SOL     OW19025   1.143   4.845   5.770  0.8389  0.0580  0.4456
 4815SOL    HW219026   1.231   4.844   5.734  2.1273 -0.3599  3.3003
 4815SOL    HW319027   1.134   4.760   5.813 -1.0749 -0.0093 -0.0013
 4815SOL    MW419028   1.153   4.833   5.771  0.7564 -0.0060  0.7633
 4816SOL     OW19029   5.470   6.383   2.457 -0.1324  0.0694 -0.1196
 4816SOL    HW219030   5.540   6.418   2.402  0.0358  1.1591  0.7581
 4816SOL    HW319031   5.413   6.336   2.395 -0.1369  1.5405 -1.3133
 4816SOL    MW419032   5.471   6.382   2.441 -0.1108  0.4073 -0.1613
 4817SOL     OW19033   3.698   0.533   4.897 -0.1874  0.3313  0.1248
 4817SOL    HW219034   3.650   0.455   4.868  1.0174 -0.0075 -1.0545
 4817SOL    HW319035   3.760   0.551   4.826  0.3848  1.6517  0.9234
 4817SOL    MW419036   3.700   0.525   4.884  0.0471  0.4608  0.0746
 4818SOL     OW19037   1.421   2.424   0.904  0.1226  0.0363  0.4077
 4818SOL    HW219038   1.457   2.490   0.845 -0.6215  0.4631  0.4211
 4818SOL    HW319039   1.465   2.342   0.878  0.5665  0.4119 -0.0375
 4818SOL    MW419040   1.432   2.422   0.893  0.0830  0.1422  0.3508
 4819SOL     OW19041   5.618   2.749   2.543 -0.0191  0.8172 -0.3936
 4819SOL    HW219042   5.697   2.711   2.505 -0.2187 -0.0355  0.0256
 4819SOL    HW319043   5.558   2.760   2.469 -0.3914 -0.7952 -0.3753
 4819SOL    MW419044   5.620   2.746   2.528 -0.0945  0.4920 -0.3359
 4820SOL     OW19045   6.433   4.399   1.490  0.5967 -0.0316  0.0624
 4820SOL    HW219046   6.518   4.442   1.486  0.6306 -0.1208 -0.1922
 4820SOL    HW319047   6.425   4.372   1.581  0.5181  0.6225  0.2541
 4820SOL    MW419048   6.443   4.401   1.501  0.5908  0.0429  0.0541
 4821SOL     OW19049   4.178   5.406   2.015  0.0130  0.0016 -0.0027
 4821SOL    HW219050   4.221   5.369   1.938  0.5673 -1.6082  1.0375
 4821SOL    HW319051   4.199   5.499   2.012 -0.2205  0.0285 -1.9396
 4821SOL    MW419052   4.186   5.413   2.004  0.0553 -0.2072 -0.1210
 4822SOL     OW19053   4.760   2.230   1.066  0.0590 -0.3175 -0.4448
 4822SOL    HW219054   4.677   2.183   1.062  0.3528 -0.8067 -0.9018
 4822SOL    HW319055   4.743   2.304   1.125 -0.2019 -1.3934  0.8649
 4822SOL    MW419056   4.746   2.234   1.074  0.0634 -0.5240 -0.3323
 4823SOL     OW19057   1.255   1.527   0.122 -0.7869  0.2262 -0.0601
 4823SOL    HW219058   1.260   1.454   0.184 -0.7626 -0.2017 -0.5530
 4823SOL    HW319059   1.309   1.499   0.048  0.8423  1.5705  0.5521
 4823SOL    MW419060   1.263   1.513   0.120 -0.5688  0.3471 -0.0444
 4824SOL     OW19061   3.538   0.721   4.463 -0.5875 -0.2941  0.0788
 4824SOL    HW219062   3.516   0.781   4.535 -1.0680 -0.1101 -0.2205
 4824SOL    HW319063   3.630   0.699   4.478  0.0641  1.7048 -0.6632
 4824SOL    MW419064   3.547   0.726   4.475 -0.5649 -0.0061 -0.0586
 4825SOL     OW19065   0.127   5.711   6.401 -0.3417  0.2616 -0.1564
 4825SOL    HW219066   0.078   5.632   6.423 -0.2326 -0.1434 -1.3358
 4825SOL    HW319067   0.103   5.731   6.311 -0.4166  1.6197  0.1408
 4825SOL    MW419068   0.118   5.703   6.392 -0.3372  0.3874 -0.2728
 4826SOL     OW19069   2.060   3.768   1.369 -0.4032 -0.4163 -0.3198
 4826SOL    HW219070   2.147   3.807   1.378  0.1217 -1.8485  1.5597
 4826SOL    HW319071   2.009   3.832   1.320  1.0708  1.4746  0.5144
 4826SOL    MW419072   2.065   3.781   1.363 -0.1395 -0.3557  0.0382
 4827SOL     OW19073   5.130   5.191   0.438  0.0956 -0.1921 -0.4283
 4827SOL    HW219074   5.125   5.154   0.526 -1.3691 -0.7082 -0.6970
 4827SOL    HW319075   5.094   5.279   0.447  0.8311  0.1104 -0.3502
 4827SOL    MW419076   5.124   5.198   0.451 -0.0006 -0.2203 -0.4535
 4828SOL     OW19077   6.078   4.809   3.297  0.5799  0.0844  0.0865
 4828SOL    HW219078   6.078   4.748   3.223  0.5887 -1.4363  1.2866
 4828SOL    HW319079   6.124   4.886   3.264 -0.9131  0.1716 -2.0316
 4828SOL    MW419080   6.084   4.811   3.283  0.3841 -0.1047 -0.0346
 4829SOL     OW19081   2.063   5.142   5.131  0.1090 -0.2757  0.1093
 4829SOL    HW219082   2.073   5.102   5.218  2.5595  1.6984  0.8699
 4829SOL    HW319083   2.050   5.235   5.149 -0.0159  0.0688 -1.6494
 4829SOL    MW419084   2.063   5.149   5.145  0.4158  0.0302 -0.0224
 4830SOL     OW19085   0.695   6.269   3.761 -0.0271 -0.0429 -0.2207
 4830SOL    HW219086   0.704   6.281   3.666  0.8656 -0.6081 -0.2211
 4830SOL    HW319087   0.756   6.332   3.799  0.1229 -0.2902 -0.0476
 4830SOL    MW419088   0.704   6.279   3.753  0.1105 -0.1501 -0.1979
 4831SOL     OW19089   3.669   4.361   2.785 -0.3628 -0.1334 -0.2910
 4831SOL    HW219090   3.632   4.278   2.815  0.4541 -0.8651 -1.2600
 4831SOL    HW319091   3.763   4.345   2.778 -0.0245  1.2392  0.6470
 4831SOL    MW419092   3.676   4.348   2.788 -0.2104 -0.0489 -0.2951
 4832SOL     OW19093   3.494   4.165   4.551  0.3724  0.3686  0.2981
 4832SOL    HW219094   3.504   4.146   4.458  0.5275  0.0446  0.3794
 4832SOL    HW319095   3.403   4.195   4.559 -0.4150 -1.8120  0.3861
 4832SOL    MW419096   3.483   4.166   4.540  0.2890  0.0382  0.3205
 4833SOL     OW19097   6.063   1.861   4.037 -0.3837  0.2906 -0.8798
 4833SOL    HW219098   6.131   1.847   4.103  1.6556  0.2236 -2.8711
 4833SOL    HW319099   5.991   1.803   4.063  1.2836 -1.4736  0.0286
 4833SOL    MW419100   6.062   1.852   4.049  0.1054  0.0490 -1.0227
 4834SOL     OW19101   2.876   4.983   4.803 -0.1679  0.5856  0.1281
 4834SOL    HW219102   2.781   4.983   4.812 -0.2945 -0.1451 -1.0248
 4834SOL    HW319103   2.908   4.995   4.893 -1.3226 -1.5127  0.8923
 4834SOL    MW419104   2.868   4.985   4.816 -0.3369  0.2124  0.0768
 4835SOL     OW19105   2.145   5.193   4.411 -0.2579 -0.0206  0.0914
 4835SOL    HW219106   2.053   5.207   4.392 -0.2203 -0.2921 -0.3121
 4835SOL    HW319107   2.192   5.231   4.336 -0.0274  0.4278  0.4611
 4835SOL    MW419108   2.139   5.200   4.399 -0.2225  0.0027  0.0869
 4836SOL     OW19109   4.392   6.227   2.252  0.2074  0.2245  0.7663
 4836SOL    HW219110   4.471   6.173   2.259 -0.0752 -0.3699 -0.3530
 4836SOL    HW319111   4.415   6.309   2.295  1.9147  0.5823 -0.7302
 4836SOL    MW419112   4.405   6.230   2.258  0.3954  0.1933  0.4212
 4837SOL     OW19113   5.632   1.864   6.154 -0.1668  0.2020 -0.1208
 4837SOL    HW219114   5.549   1.826   6.125 -0.2077  0.3609 -0.2162
 4837SOL    HW319115   5.635   1.847   6.248 -0.0398 -0.3052 -0.2149
 4837SOL    MW419116   5.621   1.857   6.163 -0.1555  0.1560 -0.1458
 4838SOL     OW19117   4.212   4.264   6.289  0.2275 -0.2735  0.1076
 4838SOL    HW219118   4.284   4.204   6.269  0.2290 -0.3344  0.2905
 4838SOL    HW319119   4.148   4.210   6.334 -0.2149 -0.3611 -0.6122
 4838SOL    MW419120   4.213   4.249   6.292  0.1693 -0.2931  0.0368
 4839SOL     OW19121   5.155   1.093   1.353 -0.1990 -0.1220  0.2030
 4839SOL    HW219122   5.188   1.020   1.302 -1.5358 -1.9090  1.7481
 4839SOL    HW319123   5.194   1.082   1.440 -2.2276 -0.4745  1.1466
 4839SOL    MW419124   5.164   1.082   1.358 -0.6431 -0.4043  0.5314
 4840SOL     OW19125   2.351   5.909   1.706  0.6501 -0.2900 -0.4567
 4840SOL    HW219126   2.415   5.980   1.716  0.5340 -0.1990 -0.3529
 4840SOL    HW319127   2.404   5.829   1.707  0.7659 -0.2134 -0.4002
 4840SOL    MW419128   2.366   5.908   1.708  0.6500 -0.2679 -0.4355
 4841SOL     OW19129   2.549   5.805   3.866 -0.7126 -0.2831  0.5386
 4841SOL    HW219130   2.527   5.715   3.843 -1.9042 -0.1908  1.2416
 4841SOL    HW319131   2.620   5.828   3.806  1.5154 -2.5669  2.1139
 4841SOL    MW419132   2.555   5.796   3.855 -0.5759 -0.5723  0.8392
 4842SOL     OW19133   5.728   3.091   4.207 -0.0639  0.6400  0.3534
 4842SOL    HW219134   5.747   3.136   4.289  2.1302  1.4368 -0.5394
 4842SOL    HW319135   5.787   3.015   4.206 -0.7463  0.0982 -0.0637
 4842SOL    MW419136   5.738   3.087   4.217  0.1356  0.6737  0.1806
 4843SOL     OW19137   4.756   2.358   4.797  0.0066 -0.2640 -0.2172
 4843SOL    HW219138   4.846   2.382   4.823 -0.5424  0.1764  1.4183
 4843SOL    HW319139   4.718   2.322   4.877 -1.2639 -0.5299 -0.9278
 4843SOL    MW419140   4.763   2.356   4.811 -0.2334 -0.2410 -0.0952
 4844SOL     OW19141   4.533   0.516   3.322 -0.0122  0.4347 -0.7254
 4844SOL    HW219142   4.564   0.606   3.337  0.7251  0.0888 -0.1032
 4844SOL    HW319143   4.457   0.507   3.380  0.0648  0.5773 -0.6019
 4844SOL    MW419144   4.527   0.527   3.332  0.0952  0.4079 -0.6270
 4845SOL     OW19145   0.909   3.968   2.649 -0.4159  0.0264  0.4982
 4845SOL    HW219146   0.957   3.945   2.570 -2.4357 -3.6476  0.1213
 4845SOL    HW319147   0.862   4.049   2.626 -1.8987 -1.5391 -2.6166
 4845SOL    MW419148   0.909   3.976   2.636 -0.8780 -0.6649  0.0375
 4846SOL     OW19149   1.588   3.145   1.555  0.2082  0.0510  0.5831
 4846SOL    HW219150   1.652   3.212   1.580  0.8991 -0.4633  0.2302
 4846SOL    HW319151   1.617   3.066   1.600 -0.1470 -0.2019  0.3707
 4846SOL    MW419152   1.600   3.143   1.564  0.2525 -0.0502  0.5085
 4847SOL     OW19153   0.267   1.221   2.804  0.0845  0.4607  0.0371
 4847SOL    HW219154   0.307   1.242   2.888  0.1819  2.4714 -0.4554
 4847SOL    HW319155   0.219   1.140   2.820 -0.1401  0.9463  2.1170
 4847SOL    MW419156   0.266   1.213   2.817  0.0677  0.7900  0.2465
 4848SOL     OW19157   2.942   0.860   4.980 -0.0784  0.0586  0.3618
 4848SOL    HW219158   2.877   0.820   4.922 -0.5472 -1.3681  1.7936
 4848SOL    HW319159   2.890   0.898   5.051  0.5381  1.0045  0.3187
 4848SOL    MW419160   2.926   0.860   4.982 -0.0589 -0.0048  0.5450
 4849SOL     OW19161   0.036   5.871   5.234  0.4385  0.3237 -0.1538
 4849SOL    HW219162  -0.003   5.907   5.313 -0.7040 -0.2518 -0.4300
 4849SOL    HW319163  -0.022   5.799   5.209  3.3709 -2.7920  1.2005
 4849SOL    MW419164   0.023   5.866   5.241  0.6747 -0.1633 -0.0116
 4850SOL     OW19165   0.313   4.218   4.690 -0.0156 -0.3004 -0.1855
 4850SOL    HW219166   0.382   4.168   4.646 -0.2346 -1.9916  1.2759
 4850SOL    HW319167   0.235   4.163   4.681 -0.2767 -0.2419  1.4454
 4850SOL    MW419168   0.312   4.204   4.683 -0.0789 -0.5158  0.2225
 4851SOL     OW19169   5.894   3.050   0.461 -0.0441  0.1132 -0.0085
 4851SOL    HW219170   5.809   3.046   0.505 -0.4498 -0.1153 -0.8030
 4851SOL    HW319171   5.882   3.002   0.379  0.4192  1.3404 -0.8274
 4851SOL    MW419172   5.882   3.043   0.456 -0.0365  0.2450 -0.2214
 4852SOL     OW19173   3.680   1.726   0.538  0.2740 -0.1058 -0.7640
 4852SOL    HW219174   3.651   1.817   0.538  0.4744 -0.0404 -1.1182
 4852SOL    HW319175   3.695   1.706   0.446 -0.7825 -0.8265 -0.7916
 4852SOL    MW419176   3.678   1.736   0.526  0.1611 -0.1923 -0.8143
 4853SOL     OW19177   5.364   4.540   3.156  0.2474 -0.0266  0.2734
 4853SOL    HW219178   5.388   4.632   3.166 -0.6193  0.2281  0.0528
 4853SOL    HW319179   5.278   4.532   3.196 -0.5605 -0.2990 -1.4051
 4853SOL    MW419180   5.356   4.551   3.162  0.0265 -0.0289  0.0229
 4854SOL     OW19181   3.722   6.172   2.113  0.1455  0.0130  0.1558
 4854SOL    HW219182   3.678   6.154   2.030 -0.7990  0.3559  0.5710
 4854SOL    HW319183   3.739   6.085   2.150 -0.5446 -0.1163  0.1739
 4854SOL    MW419184   3.719   6.158   2.107 -0.0701  0.0412  0.2130
 4855SOL     OW19185   4.746   5.840   1.325  0.9370  0.1986 -0.1588
 4855SOL    HW219186   4.724   5.813   1.236 -1.1174  1.2164 -0.0178
 4855SOL    HW319187   4.788   5.763   1.364  2.4211 -0.0827 -2.1321
 4855SOL    MW419188   4.749   5.827   1.319  0.8618  0.2957 -0.4005
 4856SOL     OW19189   5.072   6.279   5.036  1.0547  0.3539 -0.0959
 4856SOL    HW219190   5.159   6.240   5.046  1.0681 -0.3788 -2.5968
 4856SOL    HW319191   5.012   6.204   5.041  0.6867  0.6562  0.0419
 4856SOL    MW419192   5.076   6.264   5.038  1.0079  0.2971 -0.4077
 4857SOL     OW19193   2.181   0.830   2.793 -0.4810  0.1165  0.0356
 4857SOL    HW219194   2.217   0.890   2.727 -0.6655  0.2696  0.0742
 4857SOL    HW319195   2.241   0.755   2.792 -0.1479  0.3786  0.1124
 4857SOL    MW419196   2.194   0.828   2.784 -0.4614  0.1713  0.0508
 4858SOL     OW19197   0.627   4.259   3.342  0.2987  0.7337 -0.2127
 4858SOL    HW219198   0.576   4.328   3.383 -0.1402  0.3841 -0.1552
 4858SOL    HW319199   0.568   4.221   3.277  0.3961  0.1536  0.0314
 4858SOL    MW419200   0.613   4.263   3.339  0.2536  0.6111 -0.1729
 4859SOL     OW19201   1.003   1.738   5.923  0.0191  0.3952  0.0808
 4859SOL    HW219202   0.999   1.816   5.978  0.4970  3.1421 -3.4850
 4859SOL    HW319203   0.965   1.669   5.978  0.6963  2.7275  3.8820
 4859SOL    MW419204   0.998   1.739   5.938  0.1715  1.0654  0.1118
 4860SOL     OW19205   3.010   0.315   3.129  0.0164 -0.1500 -0.2482
 4860SOL    HW219206   2.978   0.405   3.138 -2.0495 -0.9450  1.0953
 4860SOL    HW319207   2.932   0.261   3.142  0.9273 -2.1377 -2.4203
 4860SOL    MW419208   2.995   0.320   3.132 -0.1360 -0.5172 -0.3575
 4861SOL     OW19209   2.673   2.860   4.666  0.2585 -0.1281 -0.4163
 4861SOL    HW219210   2.716   2.916   4.731  0.1423 -1.7340  1.1311
 4861SOL    HW319211   2.746   2.819   4.619  0.3475  0.6780 -1.0014
 4861SOL    MW419212   2.688   2.862   4.669  0.2549 -0.2337 -0.2893
 4862SOL     OW19213   0.334   0.483   5.519  0.0269 -0.2556 -0.5434
 4862SOL    HW219214   0.323   0.564   5.469 -0.2567 -0.7718 -1.3292
 4862SOL    HW319215   0.362   0.418   5.454  1.2579 -0.5519  0.2546
 4862SOL    MW419216   0.336   0.485   5.504  0.1519 -0.3628 -0.5418
 4863SOL     OW19217   2.446   2.489   0.304  0.1064 -0.3912 -0.3860
 4863SOL    HW219218   2.398   2.427   0.250 -2.4937 -0.9171  2.2680
 4863SOL    HW319219   2.535   2.453   0.308 -0.3606 -1.8510 -1.9158
 4863SOL    MW419220   2.452   2.476   0.297 -0.2983 -0.6532 -0.2377
 4864SOL     OW19221   2.845   2.479   4.205  0.2113 -0.1943 -0.0523
 4864SOL    HW219222   2.890   2.531   4.138  0.2647  0.6959  0.6646
 4864SOL    HW319223   2.898   2.489   4.283  0.9845 -2.4621 -0.2133
 4864SOL    MW419224   2.858   2.487   4.206  0.3204 -0.3761  0.0211
 4865SOL     OW19225   2.044   1.554   2.008  0.4450  0.1788  0.8166
 4865SOL    HW219226   2.032   1.461   1.986  0.9989  0.4241 -0.6593
 4865SOL    HW319227   2.013   1.562   2.098  0.2341 -1.4068  0.9106
 4865SOL    MW419228   2.039   1.543   2.017  0.4903  0.0020  0.6343
 4866SOL     OW19229   5.492   6.356   0.243  0.5954 -0.2106  0.0367
 4866SOL    HW219230   5.488   6.371   0.149 -3.5715 -0.9234 -0.0908
 4866SOL    HW319231   5.456   6.268   0.254 -2.1161  1.0378  2.3860
 4866SOL    MW419232   5.487   6.346   0.232 -0.3121 -0.1400  0.3299
 4867SOL     OW19233   2.180   6.248   5.876  0.0912 -0.0031  0.4446
 4867SOL    HW219234   2.160   6.286   5.791 -0.6788 -0.5125  0.3907
 4867SOL    HW319235   2.237   6.174   5.857  0.4172  0.2503  0.4282
 4867SOL    MW419236   2.185   6.243   5.863  0.0326 -0.0369  0.4353
 4868SOL     OW19237   1.988   2.319   4.137 -0.4705  0.3755 -0.0458
 4868SOL    HW219238   1.926   2.361   4.197  0.6461  1.9763  0.0497
 4868SOL    HW319239   2.003   2.384   4.069  1.3247  0.1691  0.0983
 4868SOL    MW419240   1.982   2.333   4.136 -0.0863  0.5595 -0.0142
 4869SOL     OW19241   5.545   4.466   2.546  0.3137  0.3120 -0.4361
 4869SOL    HW219242   5.551   4.469   2.641  1.8359  0.2181 -0.5066
 4869SOL    HW319243   5.520   4.555   2.520 -0.4041  0.2579  0.0593
 4869SOL    MW419244   5.542   4.478   2.555  0.4199  0.2925 -0.3801
 4870SOL     OW19245   1.079   2.488   0.215  0.2318  0.2771 -0.6289
 4870SOL    HW219246   1.001   2.477   0.269  0.9226  2.0164  0.7940
 4870SOL    HW319247   1.055   2.449   0.131 -1.8156 -0.0897  0.0688
 4870SOL    MW419248   1.065   2.481   0.211  0.0528  0.4582 -0.3492
 4871SOL     OW19249   2.686   1.099   3.025 -1.3399 -0.4277  0.9984
 4871SOL    HW219250   2.631   1.175   3.007 -2.1164 -0.9144  1.2856
 4871SOL    HW319251   2.646   1.028   2.975 -0.5246 -0.6189  0.5992
 4871SOL    MW419252   2.673   1.099   3.016 -1.3348 -0.5172  0.9836
 4872SOL     OW19253   0.844   3.553   0.521 -0.1239  0.2741  0.0448
 4872SOL    HW219254   0.751   3.578   0.525 -0.1217  0.8478 -2.1645
 4872SOL    HW319255   0.891   3.636   0.529  0.1480  0.1447 -0.2248
 4872SOL    MW419256   0.838   3.567   0.523 -0.0877  0.3327 -0.2822
 4873SOL     OW19257   3.699   3.053   3.613  0.3913  0.4559 -0.2366
 4873SOL    HW219258   3.724   3.077   3.702 -0.8564  4.2499 -0.7100
 4873SOL    HW319259   3.609   3.021   3.622  0.9738 -1.2042  0.0306
 4873SOL    MW419260   3.690   3.052   3.626  0.3035  0.7374 -0.2638
 4874SOL     OW19261   5.596   1.216   0.099  0.1516 -0.5563 -0.1217
 4874SOL    HW219262   5.633   1.132   0.127 -0.5921 -1.1216 -0.7999
 4874SOL    HW319263   5.673   1.269   0.077  0.6565 -0.8527  0.8638
 4874SOL    MW419264   5.611   1.212   0.100  0.1201 -0.6700 -0.0811
 4875SOL     OW19265   1.949   4.068   0.910  0.1355  0.9221  0.2414
 4875SOL    HW219266   1.956   4.162   0.890 -0.6630  1.5095  2.5112
 4875SOL    HW319267   1.876   4.038   0.855  0.3290  1.6245 -0.4283
 4875SOL    MW419268   1.941   4.076   0.900  0.0557  1.0922  0.4525
 4876SOL     OW19269   3.680   0.924   6.085 -0.4397  0.1301 -0.1643
 4876SOL    HW219270   3.713   0.968   6.007 -1.2855 -0.5232 -0.9139
 4876SOL    HW319271   3.637   0.994   6.135  0.0985  0.5536 -0.2882
 4876SOL    MW419272   3.678   0.939   6.081 -0.4803  0.0998 -0.2795
 4877SOL     OW19273   2.893   5.722   2.236 -0.2520  0.6641 -0.4080
 4877SOL    HW219274   2.957   5.755   2.173  1.2524  0.0973  0.7695
 4877SOL    HW319275   2.929   5.639   2.266 -1.9491 -0.0696 -0.2729
 4877SOL    MW419276   2.906   5.716   2.232 -0.2774  0.4925 -0.2348
 4878SOL     OW19277   2.198   4.982   1.721  0.3161  0.0775  0.5100
 4878SOL    HW219278   2.192   5.056   1.782 -0.1474 -0.7600  1.5059
 4878SOL    HW319279   2.292   4.967   1.712  0.3918  0.0932  1.1839
 4878SOL    MW419280   2.210   4.990   1.728  0.2650 -0.0310  0.7303
 4879SOL     OW19281   2.724   4.624   2.537 -0.2274 -0.3524 -0.3470
 4879SOL    HW219282   2.689   4.535   2.528 -0.2898 -0.2511 -1.2621
 4879SOL    HW319283   2.672   4.676   2.475 -0.6299  0.4615  0.6468
 4879SOL    MW419284   2.712   4.619   2.527 -0.2887 -0.2317 -0.3366
 4880SOL     OW19285   3.497   2.823   4.475  0.1914  0.1046 -0.6859
 4880SOL    HW219286   3.413   2.788   4.507  1.0450 -0.6524  0.8675
 4880SOL    HW319287   3.522   2.765   4.403  0.6232 -1.3560  0.5702
 4880SOL    MW419288   3.489   2.811   4.470  0.3610 -0.1880 -0.3152
 4881SOL     OW19289   4.134   0.051   2.073 -0.0906 -0.3524 -0.0827
 4881SOL    HW219290   4.203  -0.007   2.040  1.6280  0.7961  1.2910
 4881SOL    HW319291   4.140   0.129   2.018 -0.4848 -0.3513 -0.1240
 4881SOL    MW419292   4.144   0.053   2.061  0.0841 -0.2007  0.0931
 4882SOL     OW19293   0.248   5.536   3.236 -0.2497 -0.1760 -0.2116
 4882SOL    HW219294   0.272   5.443   3.236 -0.6299 -0.3001  1.2911
 4882SOL    HW319295   0.255   5.563   3.144  2.1894 -1.0749 -0.3497
 4882SOL    MW419296   0.252   5.527   3.224  0.0220 -0.3110 -0.0316
 4883SOL     OW19297   1.505   4.039   3.227 -0.0511  0.4128  0.0012
 4883SOL    HW219298   1.458   4.122   3.228 -0.5260  0.1736  1.9225
 4883SOL    HW319299   1.439   3.974   3.253  1.2190  0.0413  2.6538
 4883SOL    MW419300   1.490   4.041   3.230  0.0538  0.3322  0.6047
 4884SOL     OW19301   3.997   2.501   2.795 -0.1055  0.0235 -0.4554
 4884SOL    HW219302   3.937   2.436   2.758 -1.0649  2.0010 -2.5579
 4884SOL    HW319303   4.021   2.556   2.722  0.4679  2.2293  1.2907
 4884SOL    MW419304   3.992   2.499   2.781 -0.1564  0.5755 -0.5024
 4885SOL     OW19305   3.175   0.475   5.298 -0.0515  0.3278 -0.0897
 4885SOL    HW219306   3.110   0.407   5.315 -0.1734 -0.1970 -2.3526
 4885SOL    HW319307   3.125   0.556   5.296 -0.1825  0.2784  0.9018
 4885SOL    MW419308   3.160   0.477   5.300 -0.0849  0.2521 -0.2574
 4886SOL     OW19309   2.066   4.610   0.488  0.3312  0.1085 -0.4697
 4886SOL    HW219310   2.079   4.548   0.559  1.8557  1.0260  0.0824
 4886SOL    HW319311   1.985   4.657   0.511 -0.6741 -1.4202 -0.7460
 4886SOL    MW419312   2.057   4.608   0.500  0.3997  0.0278 -0.4333
 4887SOL     OW19313   3.708   5.580   3.386  0.7344 -0.1524 -0.7465
 4887SOL    HW219314   3.796   5.617   3.372 -0.4049  2.3782 -1.8169
 4887SOL    HW319315   3.687   5.537   3.304  0.7449 -0.2837 -0.6810
 4887SOL    MW419316   3.717   5.579   3.374  0.5855  0.1642 -0.8791
 4888SOL     OW19317   1.271   0.743   0.262  0.3932  0.6527  0.5222
 4888SOL    HW219318   1.252   0.649   0.270  0.3248  0.7074  0.9982
 4888SOL    HW319319   1.191   0.786   0.289  0.8196  0.8658  1.4669
 4888SOL    MW419320   1.258   0.736   0.266  0.4404  0.6881  0.7097
 4889SOL     OW19321   5.792   0.547   5.832  0.0187  0.5085 -0.3273
 4889SOL    HW219322   5.805   0.477   5.768 -2.1165  0.1903 -0.4824
 4889SOL    HW319323   5.859   0.612   5.811  0.3759 -0.3167 -1.8656
 4889SOL    MW419324   5.803   0.546   5.821 -0.2159  0.3576 -0.5507
 4890SOL     OW19325   4.489   1.546   1.420  0.6928  0.3074  0.4582
 4890SOL    HW219326   4.424   1.477   1.408  1.6798 -1.0569  2.3515
 4890SOL    HW319327   4.569   1.511   1.379  0.6559  1.3192 -0.5302
 4890SOL    MW419328   4.491   1.532   1.413  0.8182  0.2609  0.5776
 4891SOL     OW19329   2.227   1.201   4.018  0.3025 -0.4895 -0.1838
 4891SOL    HW219330   2.158   1.227   3.956  1.7079 -1.0012 -2.0424
 4891SOL    HW319331   2.180   1.184   4.100 -1.5978  0.5020 -0.9958
 4891SOL    MW419332   2.212   1.202   4.020  0.2372 -0.4262 -0.5362
 4892SOL     OW19333   1.704   1.795   5.143  0.4492 -0.6734 -0.3210
 4892SOL    HW219334   1.756   1.720   5.173  1.3609  0.2801  0.5759
 4892SOL    HW319335   1.751   1.871   5.177 -0.1740  0.3350 -1.6472
 4892SOL    MW419336   1.717   1.795   5.151  0.4872 -0.4145 -0.3777
 4893SOL     OW19337   4.587   2.591   4.255 -0.2368 -0.8608  0.2120
 4893SOL    HW219338   4.526   2.643   4.203 -0.8005 -0.7075  1.0146
 4893SOL    HW319339   4.668   2.592   4.203 -1.2337 -2.1033 -1.4787
 4893SOL    MW419340   4.590   2.598   4.241 -0.4427 -1.0045  0.0949
 4894SOL     OW19341   1.042   5.756   5.433 -0.4630 -0.5780  0.3537
 4894SOL    HW219342   0.950   5.733   5.444 -0.5962 -0.8530 -1.1513
 4894SOL    HW319343   1.089   5.674   5.452 -0.6376 -0.8490 -0.3399
 4894SOL    MW419344   1.036   5.742   5.437 -0.5036 -0.6500  0.0637
 4895SOL     OW19345   1.269   5.027   5.128  0.1615 -0.1314 -0.1421
 4895SOL    HW219346   1.180   4.993   5.141  0.6999 -0.8448  2.1983
 4895SOL    HW319347   1.257   5.116   5.095 -1.4227 -0.1095  0.4352
 4895SOL    MW419348   1.256   5.034   5.125  0.0235 -0.2227  0.2428
 4896SOL     OW19349   2.126   3.330   0.686 -0.3376 -0.5788 -0.2743
 4896SOL    HW219350   2.214   3.339   0.723 -1.2014  0.3860  1.6835
 4896SOL    HW319351   2.092   3.419   0.683 -2.4347 -1.1898  2.1797
 4896SOL    MW419352   2.133   3.343   0.690 -0.7282 -0.5321  0.3078
 4897SOL     OW19353   6.221   4.748   0.971 -0.2709 -0.0065  0.0271
 4897SOL    HW219354   6.162   4.800   1.027 -0.2321 -0.2825  0.3268
 4897SOL    HW319355   6.285   4.711   1.031  0.1590  0.2181 -0.2888
 4897SOL    MW419356   6.221   4.750   0.986 -0.2090 -0.0133  0.0250
 4898SOL     OW19357   0.268   0.303   0.313  0.2782  0.0294 -0.5336
 4898SOL    HW219358   0.243   0.353   0.235 -0.8405  0.0014 -0.2177
 4898SOL    HW319359   0.339   0.246   0.284  0.7449  0.9248 -1.2065
 4898SOL    MW419360   0.274   0.302   0.299  0.1922  0.1439 -0.5807
 4899SOL     OW19361   4.119   3.279   3.912 -0.4107 -1.0141 -0.0481
 4899SOL    HW219362   4.119   3.296   4.006 -0.8613  0.9047 -0.3627
 4899SOL    HW319363   4.169   3.198   3.902  1.6347 -0.0287  1.6376
 4899SOL    MW419364   4.125   3.270   3.923 -0.2003 -0.6309  0.1328
 4900SOL     OW19365   3.905   6.420   5.548 -0.1835 -0.5374 -0.1150
 4900SOL    HW219366   3.937   6.510   5.556 -2.3311  0.5129 -2.2463
 4900SOL    HW319367   3.974   6.375   5.498  0.9136 -0.1130  0.9829
 4900SOL    MW419368   3.919   6.426   5.542 -0.3221 -0.3428 -0.2513
 4901SOL     OW19369   5.317   2.425   4.003 -0.1733  0.0634  0.0804
 4901SOL    HW219370   5.245   2.486   3.993 -0.2418  0.6029  3.1348
 4901SOL    HW319371   5.280   2.350   4.050  0.8638 -0.4446  0.1274
 4901SOL    MW419372   5.303   2.423   4.008 -0.0455  0.0676  0.4896
 4902SOL     OW19373   5.543   4.710   4.634 -0.0262 -0.2148  0.3113
 4902SOL    HW219374   5.549   4.716   4.538 -0.5132 -2.4154  0.0669
 4902SOL    HW319375   5.462   4.756   4.656 -0.1207 -0.0336 -0.3857
 4902SOL    MW419376   5.533   4.717   4.624 -0.1029 -0.4812  0.1871
 4903SOL     OW19377   1.224   1.524   2.681 -0.7183 -0.1085  0.2722
 4903SOL    HW219378   1.142   1.571   2.669  0.0734  0.7622 -2.3744
 4903SOL    HW319379   1.199   1.431   2.679 -1.8811  0.1053  2.1892
 4903SOL    MW419380   1.210   1.518   2.679 -0.7673  0.0346  0.1759
 4904SOL     OW19381   2.447   1.259   6.150  0.7414 -0.1229  0.3712
 4904SOL    HW219382   2.444   1.195   6.079 -0.0002  0.7635 -0.4424
 4904SOL    HW319383   2.533   1.249   6.189  1.0159 -0.9009 -0.4053
 4904SOL    MW419384   2.458   1.250   6.145  0.6798 -0.1086  0.1614
 4905SOL     OW19385   5.652   2.270   0.750 -0.0651  0.1670 -0.7997
 4905SOL    HW219386   5.647   2.175   0.741  0.8508  0.1271 -0.9548
 4905SOL    HW319387   5.564   2.297   0.776  0.1455 -0.9301  1.2064
 4905SOL    MW419388   5.640   2.261   0.752  0.0835  0.0170 -0.5555
 4906SOL     OW19389   1.870   6.400   0.071  0.2245 -0.2107  0.4593
 4906SOL    HW219390   1.899   6.466   0.135 -0.2783  2.3188 -1.7351
 4906SOL    HW319391   1.932   6.327   0.082  1.5988  1.1189  2.1840
 4906SOL    MW419392   1.882   6.399   0.081  0.3395  0.2984  0.3973
 4907SOL     OW19393   3.458   6.398   2.141 -0.3743 -0.3105  0.1454
 4907SOL    HW219394   3.518   6.451   2.088 -0.4079 -0.1228  0.2900
 4907SOL    HW319395   3.371   6.428   2.115 -0.4144 -0.7577 -0.2421
 4907SOL    MW419396   3.455   6.409   2.131 -0.3840 -0.3447  0.1133
 4908SOL     OW19397   5.121   4.824   1.077 -0.1544 -0.2038 -0.5335
 4908SOL    HW219398   5.051   4.759   1.076 -0.0828 -0.3888  1.5062
 4908SOL    HW319399   5.090   4.892   1.137  1.3344 -0.2538  0.3561
 4908SOL    MW419400   5.107   4.824   1.085  0.0514 -0.2348 -0.1470
 4909SOL     OW19401   6.192   5.461   4.607 -0.3384 -0.2053  0.2470
 4909SOL    HW219402   6.218   5.477   4.698  2.8317 -1.6092 -0.2687
 4909SOL    HW319403   6.115   5.406   4.613 -2.1885  2.3351  1.9895
 4909SOL    MW419404   6.186   5.456   4.620 -0.1642 -0.0554  0.4089
 4910SOL     OW19405   6.319   5.038   0.183  0.3073  0.0499  0.3475
 4910SOL    HW219406   6.278   4.985   0.114 -0.2160 -1.3961  1.6967
 4910SOL    HW319407   6.250   5.099   0.209 -0.8768 -1.8613  2.0709
 4910SOL    MW419408   6.304   5.039   0.177  0.0820 -0.3930  0.7529
 4911SOL     OW19409   0.316   2.113   1.272  0.2759 -0.6044  0.1834
 4911SOL    HW219410   0.411   2.103   1.271  0.4698  1.0175 -0.6300
 4911SOL    HW319411   0.299   2.191   1.220 -1.5133 -0.8403  0.3342
 4911SOL    MW419412   0.326   2.122   1.265  0.0654 -0.4215  0.0960
 4912SOL     OW19413   5.013   4.169   6.339  0.0472  0.2626 -0.4039
 4912SOL    HW219414   5.041   4.246   6.289  0.8602 -0.0606 -0.4712
 4912SOL    HW319415   5.084   4.155   6.401  0.4512 -1.0906 -1.1314
 4912SOL    MW419416   5.026   4.178   6.340  0.2078  0.0414 -0.5088
 4913SOL     OW19417   0.250   0.316   5.878 -0.1811 -0.1570 -0.0749
 4913SOL    HW219418   0.250   0.256   5.803 -0.8762 -0.4093  0.1197
 4913SOL    HW319419   0.198   0.270   5.944 -0.0488  0.3173  0.3572
 4913SOL    MW419420   0.243   0.302   5.876 -0.2553 -0.1277  0.0078
 4914SOL     OW19421   5.098   0.192   0.072 -0.1643  0.4448  0.1028
 4914SOL    HW219422   5.136   0.186  -0.015 -0.9515  0.3682 -0.2424
 4914SOL    HW319423   5.004   0.195   0.057 -0.3122  0.3267  0.9548
 4914SOL    MW419424   5.091   0.192   0.059 -0.2876  0.4191  0.1697
 4915SOL     OW19425   1.058   3.592   6.399  0.1394  0.2557  1.0687
 4915SOL    HW219426   1.137   3.645   6.389  0.9846 -0.9583  1.1059
 4915SOL    HW319427   1.088   3.511   6.440 -1.2544  0.0678  1.7934
 4915SOL    MW419428   1.072   3.589   6.403  0.0670  0.0707  1.1692
 4916SOL     OW19429   5.107   5.008   4.832 -0.0503 -0.8424  0.0726
 4916SOL    HW219430   5.117   4.992   4.925 -1.5280  1.0534  0.6085
 4916SOL    HW319431   5.013   4.998   4.815 -0.3416  1.9509 -0.4994
 4916SOL    MW419432   5.096   5.004   4.842 -0.2837 -0.2237  0.0678
 4917SOL     OW19433   4.240   2.858   3.860  0.4650 -0.1491  0.0514
 4917SOL    HW219434   4.166   2.800   3.876 -1.6306  2.1572 -0.5862
 4917SOL    HW319435   4.246   2.912   3.938  0.0993  1.0097 -0.6868
 4917SOL    MW419436   4.231   2.857   3.872  0.1403  0.3080 -0.1301
 4918SOL     OW19437   1.663   3.912   2.702 -0.4251  0.1496 -0.8587
 4918SOL    HW219438   1.663   3.974   2.629  0.4751  1.8777  0.5456
 4918SOL    HW319439   1.603   3.949   2.766  0.5719 -0.0805  0.2568
 4918SOL    MW419440   1.655   3.925   2.701 -0.1748  0.3473 -0.5262
 4919SOL     OW19441   1.967   0.022   2.864 -0.2012 -0.1646  0.0654
 4919SOL    HW219442   1.942   0.045   2.775 -1.6739  1.2191  0.7951
 4919SOL    HW319443   2.051   0.067   2.877 -1.3321  2.0340  0.2751
 4919SOL    MW419444   1.975   0.031   2.854 -0.5447  0.3081  0.1893
 4920SOL     OW19445   1.404   5.704   5.951  0.6517 -0.3164  0.4617
 4920SOL    HW219446   1.383   5.688   5.859  2.8475  1.9534 -0.5548
 4920SOL    HW319447   1.333   5.760   5.983 -0.7085 -2.0123  0.5493
 4920SOL    MW419448   1.392   5.710   5.943  0.7620 -0.2407  0.3392
 4921SOL     OW19449   1.699   2.596   5.607  0.3014  0.0700 -0.0552
 4921SOL    HW219450   1.717   2.621   5.517  1.6374  1.4710  0.5666
 4921SOL    HW319451   1.783   2.600   5.651 -0.3230 -0.6230  1.2719
 4921SOL    MW419452   1.712   2.600   5.601  0.3952  0.1634  0.2019
 4922SOL     OW19453   0.399   5.161   2.985  0.2316  0.2179 -0.3546
 4922SOL    HW219454   0.487   5.172   2.948  0.6714 -2.5562 -0.3699
 4922SOL    HW319455   0.404   5.202   3.071  1.9857 -0.9964  0.1666
 4922SOL    MW419456   0.411   5.168   2.992  0.5211 -0.3084 -0.2879
 4923SOL     OW19457   1.937   4.160   4.006 -0.2595  0.5234 -0.1330
 4923SOL    HW219458   2.006   4.226   4.014 -1.1877  1.7264 -1.5233
 4923SOL    HW319459   1.901   4.152   4.094  0.0058  1.7163  0.0973
 4923SOL    MW419460   1.942   4.167   4.019 -0.3470  0.8395 -0.2860
 4924SOL     OW19461   5.717   1.437   0.368 -0.0150 -0.1015 -0.1092
 4924SOL    HW219462   5.779   1.474   0.431  2.6248  0.3345 -2.7594
 4924SOL    HW319463   5.659   1.382   0.421  2.0984  0.1077  2.6465
 4924SOL    MW419464   5.717   1.435   0.383  0.6121 -0.0164 -0.0953
 4925SOL     OW19465   0.060   2.325   1.876  0.2830  0.0000  0.1687
 4925SOL    HW219466   0.038   2.267   1.802  0.4846  2.6306 -2.1257
 4925SOL    HW319467   0.155   2.332   1.872  0.1758  1.3509 -0.3417
 4925SOL    MW419468   0.069   2.318   1.866  0.2954  0.5253 -0.2014
 4926SOL     OW19469   0.359   3.496   4.376  0.1903 -0.0673  0.2539
 4926SOL    HW219470   0.394   3.407   4.385  0.1681 -0.2961 -1.5800
 4926SOL    HW319471   0.434   3.553   4.391  0.1837 -0.3722  1.5509
 4926SOL    MW419472   0.373   3.492   4.379  0.1865 -0.1377  0.1831
 4927SOL     OW19473   6.364   1.913   3.612  0.7392 -0.1864 -0.0424
 4927SOL    HW219474   6.344   1.994   3.566 -0.1430 -0.0937  0.4901
 4927SOL    HW319475   6.406   1.942   3.693  1.4943 -0.3171 -0.3764
 4927SOL    MW419476   6.367   1.928   3.617  0.7224 -0.1914 -0.0162
 4928SOL     OW19477   4.048   0.178   0.999 -0.3685  0.5952  0.1287
 4928SOL    HW219478   3.968   0.230   1.005 -0.5707  0.4322 -0.8924
 4928SOL    HW319479   4.024   0.105   0.941  0.7744  1.0429 -0.9336
 4928SOL    MW419480   4.034   0.175   0.992 -0.2444  0.6327 -0.1462
 4929SOL     OW19481   1.705   2.307   3.955 -0.1190 -0.0088 -0.1798
 4929SOL    HW219482   1.631   2.248   3.939 -0.2441 -0.0170  0.4257
 4929SOL    HW319483   1.778   2.265   3.910  0.0737 -1.2485  1.1877
 4929SOL    MW419484   1.705   2.293   3.947 -0.1101 -0.1734  0.0805
 4930SOL     OW19485   6.168   0.456   3.587  0.3790 -0.0386 -0.5448
 4930SOL    HW219486   6.115   0.405   3.526  0.4720 -0.7673 -0.0219
 4930SOL    HW319487   6.192   0.534   3.537 -2.1834  0.9320 -0.4261
 4930SOL    MW419488   6.164   0.460   3.572  0.0532 -0.0067 -0.4602
 4931SOL     OW19489   1.410   1.776   3.599  0.2771  0.2066  0.0254
 4931SOL    HW219490   1.341   1.826   3.555  1.9035  2.0873 -0.5757
 4931SOL    HW319491   1.390   1.685   3.581 -0.7782  0.8038 -2.0934
 4931SOL    MW419492   1.398   1.771   3.591  0.3525  0.5335 -0.3335
 4932SOL     OW19493   4.737   5.644   4.169  0.6492 -0.4212  0.1960
 4932SOL    HW219494   4.712   5.558   4.136 -0.0331 -0.4675  0.8098
 4932SOL    HW319495   4.653   5.690   4.182  0.9828  0.1602  0.3248
 4932SOL    MW419496   4.722   5.639   4.166  0.6032 -0.3506  0.2940
 4933SOL     OW19497   5.455   1.686   0.685  0.4379 -0.1094 -0.4954
 4933SOL    HW219498   5.528   1.634   0.719 -0.3326 -0.2975  0.9432
 4933SOL    HW319499   5.377   1.634   0.703 -0.1600  0.6060 -0.9521
 4933SOL    MW419500   5.454   1.672   0.692  0.2573 -0.0399 -0.3658
 4934SOL     OW19501   6.264   4.461   4.547 -0.5447 -0.2682  0.3075
 4934SOL    HW219502   6.346   4.471   4.594 -1.1535  0.2184  1.3106
 4934SOL    HW319503   6.289   4.456   4.455  0.5351  0.9669  0.5084
 4934SOL    MW419504   6.278   4.462   4.541 -0.4826 -0.0410  0.4663
 4935SOL     OW19505   0.867   3.965   3.992 -0.5756  0.4293  0.6219
 4935SOL    HW219506   0.928   3.900   3.956  0.3594  0.9563  1.2148
 4935SOL    HW319507   0.860   4.032   3.924  1.8707  1.8668  1.6751
 4935SOL    MW419508   0.874   3.965   3.978 -0.1295  0.6885  0.8390
 4936SOL     OW19509   5.492   3.831   2.796 -0.3738  0.4833 -0.2031
 4936SOL    HW219510   5.402   3.806   2.776  0.4555 -2.3619 -0.9049
 4936SOL    HW319511   5.522   3.875   2.717 -0.7941  0.3413 -0.4474
 4936SOL    MW419512   5.484   3.834   2.783 -0.3199  0.0892 -0.3280
 4937SOL     OW19513   5.276   2.892   1.294  0.1255 -0.7383 -0.2829
 4937SOL    HW219514   5.365   2.918   1.318 -0.5376  1.6904 -0.2039
 4937SOL    HW319515   5.270   2.801   1.322  1.3337  0.1445  3.5210
 4937SOL    MW419516   5.287   2.884   1.301  0.1975 -0.3014  0.2294
 4938SOL     OW19517   0.876   2.523   1.343 -0.3661  0.2436 -0.1356
 4938SOL    HW219518   0.931   2.540   1.266 -0.6842 -1.7658 -0.8845
 4938SOL    HW319519   0.873   2.606   1.390  2.1265  0.8006 -0.8171
 4938SOL    MW419520   0.882   2.536   1.339 -0.0792  0.0520 -0.3243
 4939SOL     OW19521   5.353   1.857   5.377  0.0818 -0.0714  0.4566
 4939SOL    HW219522   5.266   1.816   5.375  0.5461 -1.3006  2.5363
 4939SOL    HW319523   5.402   1.811   5.309 -0.7063  0.1903 -0.3075
 4939SOL    MW419524   5.348   1.845   5.368  0.0391 -0.1991  0.6301
 4940SOL     OW19525   1.016   4.330   3.395 -0.6711 -0.2775 -0.0074
 4940SOL    HW219526   0.947   4.365   3.338 -1.2218  0.7893  1.2802
 4940SOL    HW319527   1.033   4.399   3.458 -0.3431 -1.5628  1.3698
 4940SOL    MW419528   1.009   4.344   3.396 -0.7005 -0.3063  0.3442
 4941SOL     OW19529   4.983   0.436   5.787 -0.0276  0.3145  0.2118
 4941SOL    HW219530   4.995   0.434   5.882 -1.8154 -3.9108  0.5567
 4941SOL    HW319531   4.900   0.391   5.772  1.2294 -1.1662 -3.4176
 4941SOL    MW419532   4.974   0.430   5.798 -0.0977 -0.4383 -0.2216
 4942SOL     OW19533   0.166   5.287   2.869 -0.1561 -0.2535 -0.3445
 4942SOL    HW219534   0.183   5.309   2.777 -1.6701 -1.3347 -0.9249
 4942SOL    HW319535   0.252   5.265   2.904  0.6685  1.5826 -1.0860
 4942SOL    MW419536   0.179   5.287   2.861 -0.2471 -0.1539 -0.5189
 4943SOL     OW19537   4.089   6.010   3.349 -0.2870 -0.4605  0.3219
 4943SOL    HW219538   4.123   5.925   3.321 -1.0798  0.0822 -2.6158
 4943SOL    HW319539   4.144   6.074   3.304 -1.3650  0.5262  0.3617
 4943SOL    MW419540   4.101   6.007   3.340 -0.5339 -0.2587 -0.0605
 4944SOL     OW19541   2.131   3.244   1.082 -0.7184  0.1364  0.2907
 4944SOL    HW219542   2.121   3.192   1.162  3.0799 -0.7665  0.3768
 4944SOL    HW319543   2.121   3.181   1.011  1.0896 -0.2444  0.3145
 4944SOL    MW419544   2.129   3.229   1.083  0.0213 -0.0330  0.3052
 4945SOL     OW19545   3.658   5.052   3.582  0.5537 -0.0604  0.3058
 4945SOL    HW219546   3.659   5.142   3.549  2.9659 -0.4087 -0.7799
 4945SOL    HW319547   3.664   5.061   3.677  1.0993  0.9253  0.1899
 4945SOL    MW419548   3.659   5.065   3.590  0.9439  0.0237  0.1472
 4946SOL     OW19549   1.881   2.953   1.700 -0.1798 -0.4865 -0.4440
 4946SOL    HW219550   1.937   2.916   1.768  0.8367  1.5829 -0.0654
 4946SOL    HW319551   1.851   3.036   1.736 -0.3763  0.2341 -2.1490
 4946SOL    MW419552   1.884   2.959   1.714 -0.0716 -0.1184 -0.6190
 4947SOL     OW19553   3.986   1.382   3.777  0.2236 -0.9919 -0.2324
 4947SOL    HW219554   3.896   1.382   3.810 -0.5812 -1.1695 -2.3129
 4947SOL    HW319555   4.010   1.474   3.773  0.5143 -0.9846  1.2500
 4947SOL    MW419556   3.977   1.394   3.781  0.1558 -1.0144 -0.3113
 4948SOL     OW19557   0.384   4.788   1.765  0.2240 -0.0676 -0.0107
 4948SOL    HW219558   0.452   4.741   1.716  1.1451  2.4796 -1.3478
 4948SOL    HW319559   0.431   4.857   1.812 -1.2667  0.8069  0.2701
 4948SOL    MW419560   0.399   4.791   1.765  0.1489  0.3838 -0.1501
 4949SOL     OW19561   4.152   5.847   4.767 -0.5009 -0.0652  0.4196
 4949SOL    HW219562   4.144   5.937   4.734 -0.0147  0.0489  0.6157
 4949SOL    HW319563   4.178   5.796   4.691 -1.1586 -0.1158  0.2145
 4949SOL    MW419564   4.154   5.852   4.752 -0.5235 -0.0568  0.4184
 4950SOL     OW19565   6.055   4.670   4.096 -0.2746 -0.4144  0.4039
 4950SOL    HW219566   6.039   4.595   4.039  0.5832 -1.7665  1.8776
 4950SOL    HW319567   5.977   4.724   4.087 -0.7570 -1.2971 -0.9576
 4950SOL    MW419568   6.043   4.667   4.087 -0.2250 -0.7092  0.4187
 4951SOL     OW19569   3.592   4.565   2.572  0.1124  0.3165  0.3013
 4951SOL    HW219570   3.610   4.502   2.642  0.5030  0.8254  0.6624
 4951SOL    HW319571   3.512   4.609   2.598  0.5605  0.8973  0.7092
 4951SOL    MW419572   3.584   4.562   2.584  0.2231  0.4603  0.4028
 4952SOL     OW19573   3.586   5.379   2.381  0.1347  0.0252  0.2099
 4952SOL    HW219574   3.532   5.331   2.444  0.6421  0.7932  1.2659
 4952SOL    HW319575   3.552   5.353   2.295 -1.5749  0.1052  0.8353
 4952SOL    MW419576   3.574   5.369   2.378 -0.0239  0.1371  0.4317
 4953SOL     OW19577   4.357   1.156   2.167 -0.6008 -0.3972  0.3999
 4953SOL    HW219578   4.272   1.190   2.193 -1.3732 -1.0868 -1.1275
 4953SOL    HW319579   4.370   1.189   2.078  0.6834 -0.4045  0.5602
 4953SOL    MW419580   4.348   1.165   2.159 -0.5333 -0.4891  0.2195
 4954SOL     OW19581   4.792   2.380   1.983  0.2275 -0.4094 -0.2261
 4954SOL    HW219582   4.883   2.352   1.994  0.2578 -0.0502  0.5085
 4954SOL    HW319583   4.758   2.326   1.911  0.7536 -1.1678  0.0888
 4954SOL    MW419584   4.799   2.369   1.975  0.3009 -0.4620 -0.0876
 4955SOL     OW19585   0.530   5.049   5.888  0.0085 -0.0291 -0.5090
 4955SOL    HW219586   0.600   5.040   5.953  0.4718  0.1866 -0.9726
 4955SOL    HW319587   0.512   5.143   5.884 -0.0549 -0.0478 -0.6637
 4955SOL    MW419588   0.537   5.060   5.896  0.0612 -0.0031 -0.5905
 4956SOL     OW19589   5.036   3.929   1.413  0.2109 -0.0874  0.4793
 4956SOL    HW219590   5.096   3.974   1.473 -0.4017  0.7424  0.4843
 4956SOL    HW319591   5.029   3.840   1.449  1.4387 -0.2118  0.4663
 4956SOL    MW419592   5.043   3.923   1.426  0.2921  0.0057  0.4782
 4957SOL     OW19593   4.758   5.350   2.902  0.7067 -0.4262 -0.3734
 4957SOL    HW219594   4.718   5.323   2.985  0.6150  0.6480 -0.0520
 4957SOL    HW319595   4.746   5.275   2.844  0.9056 -1.2555  0.6264
 4957SOL    MW419596   4.751   5.337   2.905  0.7209 -0.3939 -0.1991
 4958SOL     OW19597   4.298   3.263   1.319 -0.0800  0.7532 -0.7295
 4958SOL    HW219598   4.363   3.315   1.271  2.0635 -1.9962 -1.0446
 4958SOL    HW319599   4.227   3.251   1.257  0.2053  1.7094 -1.2745
 4958SOL    MW419600   4.297   3.269   1.304  0.2404  0.5166 -0.8430
 4959SOL     OW19601   5.880   3.236   1.225 -0.9885 -0.0105 -0.0240
 4959SOL    HW219602   5.925   3.319   1.241 -2.2826  0.8086 -0.5173
 4959SOL    HW319603   5.926   3.197   1.151 -0.3340  0.2100  0.2551
 4959SOL    MW419604   5.892   3.242   1.218 -1.0729  0.1267 -0.0523
 4960SOL     OW19605   5.474   2.486   2.426 -0.9324  0.3800 -0.0407
 4960SOL    HW219606   5.509   2.520   2.343 -0.1063 -0.3632 -0.0161
 4960SOL    HW319607   5.457   2.564   2.479  0.1944  0.8082 -0.2711
 4960SOL    MW419608   5.477   2.500   2.422 -0.6747  0.3384 -0.0679
 4961SOL     OW19609   3.972   3.468   5.470 -0.3297  0.0047  0.4136
 4961SOL    HW219610   3.938   3.554   5.445  0.8056  0.1534 -0.6621
 4961SOL    HW319611   3.902   3.431   5.524 -1.5403  0.9414 -0.4306
 4961SOL    MW419612   3.958   3.474   5.474 -0.3396  0.1479  0.1603
 4962SOL     OW19613   4.473   0.479   3.697  0.2016  0.0024 -0.3252
 4962SOL    HW219614   4.409   0.534   3.651  0.1673 -0.7385 -1.2041
 4962SOL    HW319615   4.435   0.391   3.694 -0.2068  0.0347  1.8943
 4962SOL    MW419616   4.460   0.474   3.690  0.1432 -0.0911 -0.1483
 4963SOL     OW19617   0.284   0.468   0.534  0.8383  0.5521  0.2845
 4963SOL    HW219618   0.290   0.420   0.452 -0.0374  1.8069 -0.5503
 4963SOL    HW319619   0.206   0.433   0.577  0.3664  1.0083 -0.1884
 4963SOL    MW419620   0.275   0.457   0.529  0.6605  0.7779  0.1120
 4964SOL     OW19621   2.474   1.413   5.451 -0.1526 -0.5667 -0.3144
 4964SOL    HW219622   2.508   1.325   5.436  1.0062 -0.1410 -0.2635
 4964SOL    HW319623   2.520   1.444   5.528 -2.1641 -0.7170  1.0313
 4964SOL    MW419624   2.484   1.405   5.459 -0.2651 -0.5304 -0.1301
 4965SOL     OW19625   1.382   0.087   0.178 -0.2703  0.1303  0.7194
 4965SOL    HW219626   1.437   0.070   0.255 -0.8301 -2.6152  0.6056
 4965SOL    HW319627   1.295   0.104   0.215 -0.4645 -0.8452  0.7339
 4965SOL    MW419628   1.378   0.087   0.193 -0.3698 -0.3607  0.7063
 4966SOL     OW19629   0.622   1.408   1.135  0.3756 -0.6848 -0.4736
 4966SOL    HW219630   0.633   1.316   1.156 -0.5546 -0.7067  0.0116
 4966SOL    HW319631   0.657   1.418   1.047 -0.9586 -1.8424 -1.1821
 4966SOL    MW419632   0.628   1.397   1.126  0.0768 -0.8404 -0.5031
 4967SOL     OW19633   4.692   1.710   2.339 -0.7989 -0.0344 -0.0750
 4967SOL    HW219634   4.742   1.760   2.274  0.2509 -0.1695  0.6088
 4967SOL    HW319635   4.739   1.627   2.346 -0.9481 -0.0555  0.7940
 4967SOL    MW419636   4.705   1.706   2.331 -0.6801 -0.0550  0.1299
 4968SOL     OW19637   5.806   3.409   5.260 -0.3655 -0.3546  0.3267
 4968SOL    HW219638   5.739   3.466   5.299  0.2967  0.5536  0.1477
 4968SOL    HW319639   5.828   3.347   5.330  0.5455  1.0334  1.3124
 4968SOL    MW419640   5.800   3.408   5.274 -0.1579 -0.0516  0.4331
 4969SOL     OW19641   1.632   0.135   6.120  0.4022 -0.3859 -0.2191
 4969SOL    HW219642   1.693   0.064   6.144 -1.4434 -1.9227  0.1338
 4969SOL    HW319643   1.587   0.156   6.202 -0.5055 -0.2295 -0.7566
 4969SOL    MW419644   1.634   0.128   6.134  0.0389 -0.5680 -0.2434
 4970SOL     OW19645   4.837   4.244   0.102 -0.3162  0.2230  0.3883
 4970SOL    HW219646   4.866   4.223   0.014 -1.2021 -0.3296  0.2170
 4970SOL    HW319647   4.903   4.207   0.159  2.4226  3.8614 -0.0381
 4970SOL    MW419648   4.849   4.237   0.098 -0.0717  0.6301  0.3095
 4971SOL     OW19649   4.187   5.942   6.039  0.4169 -0.3474 -1.0040
 4971SOL    HW219650   4.164   6.010   5.975 -0.8853 -0.3400 -0.5529
 4971SOL    HW319651   4.252   5.984   6.096  0.0867  0.3216 -1.1101
 4971SOL    MW419652   4.193   5.957   6.038  0.2015 -0.2582 -0.9585
 4972SOL     OW19653   5.479   4.235   4.295 -0.3547 -0.6221  0.2645
 4972SOL    HW219654   5.458   4.291   4.370  0.7839  0.7546 -0.4084
 4972SOL    HW319655   5.573   4.218   4.303 -0.2183 -0.4248 -0.8763
 4972SOL    MW419656   5.488   4.240   4.306 -0.1865 -0.4144  0.0252
 4973SOL     OW19657   2.216   2.434   2.333 -0.7283  0.6115 -0.1102
 4973SOL    HW219658   2.300   2.440   2.378 -1.3838 -0.0952  1.2761
 4973SOL    HW319659   2.164   2.376   2.388 -2.6310  2.1821 -0.1652
 4973SOL    MW419660   2.220   2.427   2.346 -1.0658  0.7255  0.0654
 4974SOL     OW19661   4.165   0.896   0.542  0.1859 -0.3118  0.0441
 4974SOL    HW219662   4.247   0.944   0.546  0.5395 -0.9838  1.8011
 4974SOL    HW319663   4.189   0.809   0.509  0.8586 -1.6302  3.5627
 4974SOL    MW419664   4.179   0.891   0.538  0.3213 -0.5744  0.7401
 4975SOL     OW19665   3.556   5.931   6.349 -0.1278  0.7173 -0.0567
 4975SOL    HW219666   3.635   5.985   6.343 -0.0561  0.6335  0.1253
 4975SOL    HW319667   3.487   5.984   6.309  0.3660  0.1301 -1.7957
 4975SOL    MW419668   3.557   5.945   6.343 -0.0531  0.6288 -0.2621
 4976SOL     OW19669   0.333   1.289   1.656 -0.2041  0.3852 -0.4116
 4976SOL    HW219670   0.296   1.209   1.619  0.3248 -0.1229  0.1264
 4976SOL    HW319671   0.262   1.328   1.706 -0.1827 -0.2947  0.1659
 4976SOL    MW419672   0.319   1.284   1.658 -0.1315  0.2285 -0.2644
 4977SOL     OW19673   3.779   4.906   0.249 -0.0310  0.1698 -1.0314
 4977SOL    HW219674   3.685   4.891   0.262 -0.9522  3.0421 -3.2558
 4977SOL    HW319675   3.791   4.999   0.267  3.2173 -0.7263  2.5977
 4977SOL    MW419676   3.768   4.916   0.253  0.2760  0.4305 -0.8461
 4978SOL     OW19677   1.799   1.898   3.771  0.3380  0.0821 -0.5492
 4978SOL    HW219678   1.863   1.886   3.841 -0.5202 -1.4916  0.0036
 4978SOL    HW319679   1.719   1.857   3.804 -0.5818  0.8238 -1.7702
 4978SOL    MW419680   1.797   1.891   3.784  0.1034 -0.0277 -0.6374
 4979SOL     OW19681   3.016   6.268   0.938 -0.7590 -0.2634  0.3692
 4979SOL    HW219682   3.015   6.353   0.894 -0.5044  0.2496  1.3063
 4979SOL    HW319683   2.956   6.279   1.012 -1.4705 -1.2203 -0.0474
 4979SOL    MW419684   3.008   6.281   0.942 -0.8193 -0.3219  0.4379
 4980SOL     OW19685   1.488   4.105   3.686  0.1148  0.1128 -0.6341
 4980SOL    HW219686   1.410   4.149   3.719  0.2908  2.5951 -3.1826
 4980SOL    HW319687   1.552   4.113   3.757 -1.0597  0.6072  0.3976
 4980SOL    MW419688   1.486   4.112   3.700 -0.0170  0.5056 -0.8342
 4981SOL     OW19689   2.619   2.820   6.056 -0.2549 -0.1367  0.0117
 4981SOL    HW219690   2.599   2.727   6.067 -1.0540 -0.1450 -1.3275
 4981SOL    HW319691   2.712   2.822   6.036 -0.3439 -0.6965 -0.4779
 4981SOL    MW419692   2.629   2.808   6.055 -0.3721 -0.2117 -0.2296
 4982SOL     OW19693   1.737   3.314   2.982 -0.3241 -0.5497  0.1927
 4982SOL    HW219694   1.785   3.386   3.022 -0.9827 -0.3640  0.6744
 4982SOL    HW319695   1.802   3.245   2.971 -0.1191 -0.6166  1.6340
 4982SOL    MW419696   1.752   3.314   2.986 -0.3840 -0.5340  0.4464
 4983SOL     OW19697   2.876   5.948   1.164  0.1838  0.1260  0.0374
 4983SOL    HW219698   2.890   6.037   1.195 -0.0523  0.1182  0.1700
 4983SOL    HW319699   2.802   5.955   1.103 -2.2232 -0.5039  2.6966
 4983SOL    MW419700   2.868   5.960   1.160 -0.1649  0.0418  0.4057
 4984SOL     OW19701   2.485   2.211   2.936  0.2654 -0.0537 -0.1959
 4984SOL    HW219702   2.460   2.222   2.844 -0.7749 -0.4346  0.0252
 4984SOL    HW319703   2.512   2.299   2.964 -3.2613  1.0755  0.2102
 4984SOL    MW419704   2.485   2.224   2.927 -0.3372  0.0451 -0.1131
 4985SOL     OW19705   5.359   6.242   1.792  0.0597 -0.5432 -0.5112
 4985SOL    HW219706   5.405   6.296   1.858 -1.7363 -0.1589  0.4960
 4985SOL    HW319707   5.389   6.278   1.708  1.2605 -0.0363  0.0926
 4985SOL    MW419708   5.369   6.254   1.790 -0.0188 -0.4256 -0.2986
 4986SOL     OW19709   3.854   0.750   3.069 -0.2658  0.2843  0.4050
 4986SOL    HW219710   3.792   0.731   2.999  0.1719  0.7297 -0.1107
 4986SOL    HW319711   3.932   0.699   3.047 -0.5296 -0.4892  1.1959
 4986SOL    MW419712   3.856   0.741   3.057 -0.2429  0.2410  0.4413
 4987SOL     OW19713   3.121   2.413   2.680  0.2091 -0.4830  0.0480
 4987SOL    HW219714   3.111   2.318   2.691  3.6671 -1.1401 -1.1985
 4987SOL    HW319715   3.052   2.437   2.618 -0.4273 -2.2992 -0.0097
 4987SOL    MW419716   3.111   2.403   2.673  0.5814 -0.8093 -0.1241
 4988SOL     OW19717   0.069   2.426   2.824 -0.2758  0.0009 -0.1245
 4988SOL    HW219718   0.009   2.484   2.776  1.3067  0.0170 -2.2225
 4988SOL    HW319719   0.050   2.339   2.788  1.6130  0.1499 -1.6222
 4988SOL    MW419720   0.058   2.422   2.813  0.1822  0.0226 -0.5989
 4989SOL     OW19721   1.572   2.066   5.997 -0.0746 -0.3455  0.1439
 4989SOL    HW219722   1.589   2.131   5.930  2.6751 -1.4188 -0.3286
 4989SOL    HW319723   1.515   2.001   5.954 -0.2809  0.1613 -0.3611
 4989SOL    MW419724   1.567   2.066   5.983  0.2610 -0.4202  0.0149
 4990SOL     OW19725   0.322   4.490   4.389  0.7201  0.2224 -0.1580
 4990SOL    HW219726   0.387   4.516   4.323 -0.3394  1.2813 -0.8169
 4990SOL    HW319727   0.338   4.549   4.463  0.3956  0.6088 -0.3933
 4990SOL    MW419728   0.333   4.501   4.390  0.5375  0.4131 -0.2760
 4991SOL     OW19729   0.496   0.217   2.170 -0.3484 -1.0174 -0.5515
 4991SOL    HW219730   0.442   0.253   2.240 -0.3103 -0.2902 -0.8841
 4991SOL    HW319731   0.504   0.124   2.190  0.7061 -0.6114  1.1028
 4991SOL    MW419732   0.490   0.209   2.182 -0.2042 -0.8679 -0.3771
 4992SOL     OW19733   3.006   3.241   3.135 -0.3953 -0.4021  0.2148
 4992SOL    HW219734   3.042   3.152   3.134 -0.3976 -0.4415  1.5559
 4992SOL    HW319735   2.958   3.248   3.052  2.5021 -0.3868 -1.5679
 4992SOL    MW419736   3.004   3.230   3.124 -0.0133 -0.4053  0.1565
 4993SOL     OW19737   0.050   5.323   4.829 -0.0855  0.5636 -0.4929
 4993SOL    HW219738  -0.012   5.395   4.840  1.3435  1.5285  2.1229
 4993SOL    HW319739   0.057   5.284   4.916  0.5328 -1.6284 -1.4673
 4993SOL    MW419740   0.043   5.327   4.842  0.1846  0.4017 -0.2764
 4994SOL     OW19741   0.862   4.427   4.404 -0.1841 -0.3619 -0.4772
 4994SOL    HW219742   0.951   4.392   4.406  0.1693  0.3626 -1.8504
 4994SOL    HW319743   0.857   4.488   4.477  1.2152  1.2828 -1.6856
 4994SOL    MW419744   0.873   4.430   4.414  0.0471 -0.0493 -0.8178
 4995SOL     OW19745   2.309   5.446   4.628  0.0969  0.3239 -0.2723
 4995SOL    HW219746   2.316   5.351   4.632  1.1291  0.4167  2.3971
 4995SOL    HW319747   2.216   5.463   4.617 -0.4497 -1.0471  1.6577
 4995SOL    MW419748   2.298   5.436   4.627  0.1610  0.1553  0.3346
 4996SOL     OW19749   3.124   3.153   5.531  0.2183 -0.2139 -0.3600
 4996SOL    HW219750   3.132   3.152   5.627  2.2712  1.3492 -0.4463
 4996SOL    HW319751   3.074   3.233   5.513  0.4785 -0.1042 -0.6017
 4996SOL    MW419752   3.118   3.164   5.541  0.5235  0.0068 -0.4033
 4997SOL     OW19753   5.966   5.084   2.493 -0.1839 -0.1529 -0.1665
 4997SOL    HW219754   6.032   5.129   2.546  0.6963 -1.2472 -0.2975
 4997SOL    HW319755   6.007   5.001   2.468 -0.9932 -0.1334 -1.6679
 4997SOL    MW419756   5.980   5.079   2.497 -0.1746 -0.2947 -0.3819
 4998SOL     OW19757   0.977   1.096   2.371  0.0816  0.3491 -0.4366
 4998SOL    HW219758   0.888   1.116   2.399  0.1711 -0.4975  0.5260
 4998SOL    HW319759   0.978   1.115   2.278 -1.1603  0.2088 -0.4909
 4998SOL    MW419760   0.965   1.101   2.363 -0.0705  0.2189 -0.3167
 4999SOL     OW19761   4.317   3.714   3.993 -0.8438 -0.3097 -0.1824
 4999SOL    HW219762   4.296   3.686   3.904  0.0875 -1.0242 -0.1924
 4999SOL    HW319763   4.412   3.709   3.998 -0.9577 -1.9127  1.3559
 4999SOL    MW419764   4.327   3.709   3.982 -0.7360 -0.6155  0.0193
 5000SOL     OW19765   5.073   4.505   0.171  0.1031 -0.6552  0.0380
 5000SOL    HW219766   5.010   4.535   0.106  0.5437 -1.5167 -0.7937
 5000SOL    HW319767   5.041   4.543   0.254 -0.2001  0.8297 -0.7284
 5000SOL    MW419768   5.060   4.514   0.174  0.1212 -0.5729 -0.1729
 5001SOL     OW19769   5.129   2.684   1.649 -0.3122  0.7558  0.1129
 5001SOL    HW219770   5.212   2.637   1.644 -0.9265 -0.2398 -1.3154
 5001SOL    HW319771   5.082   2.642   1.721 -0.9327 -1.0045 -1.2772
 5001SOL    MW419772   5.134   2.673   1.658 -0.4751  0.3922 -0.2590
 5002SOL     OW19773   5.216   3.748   3.547 -0.1699 -0.0019 -0.6318
 5002SOL    HW219774   5.206   3.842   3.557 -0.2349 -0.2305  2.3662
 5002SOL    HW319775   5.295   3.726   3.596 -1.0424 -1.6805  0.1151
 5002SOL    MW419776   5.225   3.757   3.555 -0.2936 -0.2535 -0.1377
 5003SOL     OW19777   1.471   0.007   3.504  0.0938  0.4770  0.0426
 5003SOL    HW219778   1.478  -0.037   3.420  0.3431  0.6752 -0.0418
 5003SOL    HW319779   1.413  -0.049   3.556  0.7231 -0.1644  0.0768
 5003SOL    MW419780   1.465  -0.006   3.500  0.2097  0.4185  0.0360
 5004SOL     OW19781   0.941   0.780   3.600 -0.0095 -0.5217  0.4624
 5004SOL    HW219782   0.852   0.755   3.577 -0.2727  1.1739 -0.5354
 5004SOL    HW319783   0.996   0.732   3.538 -0.2984 -0.7898  0.4128
 5004SOL    MW419784   0.937   0.771   3.589 -0.0823 -0.3333  0.3242
 5005SOL     OW19785   5.743   4.802   3.280 -0.1823 -0.0336  0.2400
 5005SOL    HW219786   5.836   4.816   3.297  0.0569  1.3203 -1.8481
 5005SOL    HW319787   5.740   4.727   3.220 -0.3026  0.8251 -0.8483
 5005SOL    MW419788   5.755   4.794   3.275 -0.1666  0.2583 -0.1791
 5006SOL     OW19789   1.640   1.520   2.230  0.2952 -0.3670  0.0075
 5006SOL    HW219790   1.632   1.429   2.257  1.5389 -0.2732  0.7813
 5006SOL    HW319791   1.716   1.553   2.278 -0.4372  1.2244  0.1488
 5006SOL    MW419792   1.649   1.512   2.240  0.3627 -0.1446  0.1283
 5007SOL     OW19793   4.258   2.106   5.028 -0.2401  0.3337  0.2738
 5007SOL    HW219794   4.265   2.042   5.098 -0.3371  1.2647  1.1586
 5007SOL    HW319795   4.164   2.127   5.024 -0.4007 -0.5209 -0.8923
 5007SOL    MW419796   4.246   2.101   5.037 -0.2741  0.3438  0.2367
 5008SOL     OW19797   4.532   1.824   2.702  0.1997  0.1795  0.5098
 5008SOL    HW219798   4.472   1.848   2.632  1.2491  2.1937  0.2236
 5008SOL    HW319799   4.479   1.829   2.782 -0.6066 -0.5329  0.0286
 5008SOL    MW419800   4.517   1.828   2.703  0.2318  0.3512  0.4086
 5009SOL     OW19801   2.434   4.401   1.229 -0.4611  0.4396 -0.4525
 5009SOL    HW219802   2.465   4.469   1.170 -0.9235  0.1924 -0.9838
 5009SOL    HW319803   2.505   4.390   1.292 -0.4098  1.4584 -0.3173
 5009SOL    MW419804   2.447   4.408   1.230 -0.5153  0.5414 -0.5048
 5010SOL     OW19805   1.714   2.344   6.151 -0.2474  0.2049 -0.1166
 5010SOL    HW219806   1.641   2.297   6.192 -1.1936  2.1242  0.4784
 5010SOL    HW319807   1.727   2.421   6.205  0.0452  1.6110 -2.0876
 5010SOL    MW419808   1.707   2.348   6.164 -0.3336  0.6436 -0.2981
 5011SOL     OW19809   0.566   3.653   4.481 -0.0723 -0.3458 -0.1882
 5011SOL    HW219810   0.621   3.731   4.469  1.1788 -1.0008  1.0378
 5011SOL    HW319811   0.609   3.586   4.428 -0.2530 -0.6259  0.0199
 5011SOL    MW419812   0.579   3.655   4.472  0.0689 -0.4691  0.0010
 5012SOL     OW19813   3.236   3.116   1.058  0.2307 -0.0416  0.3265
 5012SOL    HW219814   3.252   3.055   1.130  0.5772 -1.8293 -1.1933
 5012SOL    HW319815   3.143   3.139   1.066 -0.2216 -1.7251  0.2693
 5012SOL    MW419816   3.226   3.111   1.069  0.2168 -0.4996  0.1185
 5013SOL     OW19817   1.896   1.613   1.767 -0.4057  1.0029  0.1235
 5013SOL    HW219818   1.968   1.593   1.827  0.5031 -1.0926 -1.5319
 5013SOL    HW319819   1.817   1.588   1.816  0.2818 -0.2134  0.6717
 5013SOL    MW419820   1.895   1.607   1.781 -0.1951  0.5660 -0.0226
 5014SOL     OW19821   6.258   5.551   1.820  0.4485 -0.2101  0.2541
 5014SOL    HW219822   6.187   5.499   1.781  0.7882  0.4442 -1.3304
 5014SOL    HW319823   6.236   5.557   1.913 -0.1376 -2.2908  0.2914
 5014SOL    MW419824   6.246   5.545   1.827  0.4160 -0.3983  0.0500
 5015SOL     OW19825   0.842   2.237   4.044 -0.2780 -0.6337  0.5034
 5015SOL    HW219826   0.825   2.144   4.058 -2.6817 -0.5475 -1.2568
 5015SOL    HW319827   0.765   2.282   4.079 -1.0025  0.3270 -2.0327
 5015SOL    MW419828   0.830   2.231   4.050 -0.6907 -0.4956 -0.0634
 5016SOL     OW19829   1.222   6.299   6.216  0.2988  0.5471 -0.9247
 5016SOL    HW219830   1.209   6.384   6.174 -1.2211  0.1444 -1.3156
 5016SOL    HW319831   1.310   6.304   6.253  0.4869  2.0427 -1.5105
 5016SOL    MW419832   1.232   6.311   6.215  0.1231  0.6913 -1.0536
 5017SOL     OW19833   3.330   4.548   2.908  0.3767  0.3141 -0.2894
 5017SOL    HW219834   3.307   4.626   2.959 -2.5075 -1.6428  1.7223
 5017SOL    HW319835   3.364   4.486   2.973 -1.4755 -1.5621 -1.0073
 5017SOL    MW419836   3.332   4.550   2.923 -0.2482 -0.1916 -0.1187
 5018SOL     OW19837   2.729   4.534   5.628  0.4662  0.4226  0.6135
 5018SOL    HW219838   2.776   4.617   5.627 -0.7736  1.1506  0.4834
 5018SOL    HW319839   2.736   4.500   5.538 -0.7687  1.4305  0.1105
 5018SOL    MW419840   2.736   4.540   5.616  0.1397  0.6516  0.5299
 5019SOL     OW19841   0.887   2.048   2.543  0.1416 -0.2596 -0.1671
 5019SOL    HW219842   0.863   2.009   2.627  0.3903 -0.5948 -0.2496
 5019SOL    HW319843   0.857   1.984   2.478  1.4875 -0.8129 -0.2657
 5019SOL    MW419844   0.880   2.034   2.545  0.3520 -0.3768 -0.1910
 5020SOL     OW19845   2.176   5.801   2.581  0.4554 -0.0088 -0.0674
 5020SOL    HW219846   2.157   5.742   2.508 -1.3459  1.1272 -0.5708
 5020SOL    HW319847   2.176   5.888   2.542  1.6943  0.4656  0.9185
 5020SOL    MW419848   2.173   5.804   2.566  0.3812  0.2036 -0.0037
 5021SOL     OW19849   5.231   5.154   4.556 -0.4206  0.2770 -0.3433
 5021SOL    HW219850   5.151   5.157   4.609  0.1987  0.9164  0.5914
 5021SOL    HW319851   5.278   5.234   4.580  0.8647 -0.4784 -0.2913
 5021SOL    MW419852   5.227   5.165   4.566 -0.1693  0.2617 -0.2131
 5022SOL     OW19853   6.368   0.869   3.704 -0.1859  0.3132 -0.1844
 5022SOL    HW219854   6.274   0.874   3.690 -0.3239 -1.2105 -0.0166
 5022SOL    HW319855   6.391   0.778   3.681  1.4796  1.0318 -1.6221
 5022SOL    MW419856   6.359   0.857   3.699  0.0157  0.2070 -0.3519
 5023SOL     OW19857   1.734   6.150   4.264 -0.3303  0.2799 -0.1557
 5023SOL    HW219858   1.648   6.187   4.284 -0.4735  0.6323 -1.3714
 5023SOL    HW319859   1.787   6.225   4.237 -0.2778 -0.2207 -1.5000
 5023SOL    MW419860   1.730   6.165   4.263 -0.3422  0.2603 -0.4935
 5024SOL     OW19861   4.163   0.036   1.210  0.0251 -0.6927  0.2617
 5024SOL    HW219862   4.105  -0.040   1.206  0.7738 -1.2333 -0.9492
 5024SOL    HW319863   4.132   0.094   1.140 -1.7595  1.0812  2.3726
 5024SOL    MW419864   4.151   0.034   1.200 -0.1116 -0.5300  0.3804
 5025SOL     OW19865   1.267   0.055   1.222  0.3428  0.2591  0.4269
 5025SOL    HW219866   1.284   0.145   1.251 -0.9776  0.1410  1.6549
 5025SOL    HW319867   1.277   0.001   1.300  0.4315 -0.5755 -0.1471
 5025SOL    MW419868   1.271   0.060   1.236  0.1803  0.1334  0.5132
 5026SOL     OW19869   3.190   4.168   2.154  0.7319 -0.1925  0.3974
 5026SOL    HW219870   3.145   4.212   2.083  1.8194  0.1463 -0.0937
 5026SOL    HW319871   3.170   4.220   2.232  0.2306 -0.0912  0.2041
 5026SOL    MW419872   3.181   4.180   2.155  0.8092 -0.1344  0.3071
 5027SOL     OW19873   3.456   3.699   5.785  0.6128 -0.6910 -0.0244
 5027SOL    HW219874   3.475   3.774   5.728 -1.2089 -1.1512 -1.3312
 5027SOL    HW319875   3.382   3.656   5.744 -1.0476 -0.8875  2.9002
 5027SOL    MW419876   3.449   3.704   5.772  0.1534 -0.7776  0.1890
 5028SOL     OW19877   1.622   4.477   2.824  0.2177  0.2245 -0.1389
 5028SOL    HW219878   1.535   4.510   2.846  0.1048  0.1075 -0.4032
 5028SOL    HW319879   1.682   4.541   2.861 -0.0067  0.8805 -0.9007
 5028SOL    MW419880   1.618   4.490   2.832  0.1732  0.2956 -0.2743
 5029SOL     OW19881   3.137   4.745   3.503  0.0471 -0.1679 -0.1659
 5029SOL    HW219882   3.176   4.797   3.574 -0.0240  1.2852 -1.1496
 5029SOL    HW319883   3.206   4.738   3.437  0.4922 -2.4618  0.4598
 5029SOL    MW419884   3.151   4.751   3.504  0.0964 -0.2789 -0.2131
 5030SOL     OW19885   0.582   6.045   0.652  0.4514 -0.0174 -0.1540
 5030SOL    HW219886   0.527   6.049   0.573  1.1505 -1.1497 -0.7204
 5030SOL    HW319887   0.564   6.127   0.698 -1.5693 -0.2634 -0.4151
 5030SOL    MW419888   0.572   6.056   0.648  0.2770 -0.1992 -0.2631
 5031SOL     OW19889   6.366   5.907   0.557 -0.0508  0.6898  0.5165
 5031SOL    HW219890   6.358   5.822   0.512  0.5858  0.9496 -0.1192
 5031SOL    HW319891   6.315   5.897   0.637 -1.3688  0.2636 -0.3493
 5031SOL    MW419892   6.358   5.894   0.561 -0.1407  0.6678  0.3184
 5032SOL     OW19893   0.769   3.238   4.992  0.2688  0.1362  0.1593
 5032SOL    HW219894   0.759   3.186   5.072 -0.0774  0.2031  0.1615
 5032SOL    HW319895   0.823   3.312   5.018 -1.0442  0.9402  0.7006
 5032SOL    MW419896   0.775   3.241   5.006  0.0499  0.2511  0.2310
 5033SOL     OW19897   5.042   0.208   2.231  0.5770  0.5112  0.4115
 5033SOL    HW219898   5.005   0.179   2.147  1.3618  0.4359  0.0794
 5033SOL    HW319899   5.128   0.243   2.208  0.8440  0.3900  1.2034
 5033SOL    MW419900   5.048   0.209   2.217  0.7158  0.4852  0.4721
 5034SOL     OW19901   5.739   2.379   0.145 -0.1478  0.5779 -0.1207
 5034SOL    HW219902   5.804   2.449   0.145 -0.1455  0.5976  0.9525
 5034SOL    HW319903   5.769   2.319   0.213 -0.8053  0.1610 -0.1898
 5034SOL    MW419904   5.751   2.380   0.154 -0.2342  0.5255  0.0118
 5035SOL     OW19905   2.107   0.920   3.375 -0.3331 -0.0204  0.4648
 5035SOL    HW219906   2.115   0.890   3.465  0.6545 -0.9156  0.0919
 5035SOL    HW319907   2.078   1.011   3.383 -1.8016 -0.5510  1.6378
 5035SOL    MW419908   2.104   0.928   3.388 -0.3965 -0.2085  0.5704
 5036SOL     OW19909   3.143   4.341   0.258  0.0938 -0.5556 -0.5225
 5036SOL    HW219910   3.139   4.354   0.163  0.7643  0.1387 -0.4617
 5036SOL    HW319911   3.204   4.408   0.289 -0.6536 -0.3159  0.4836
 5036SOL    MW419912   3.150   4.352   0.249  0.0836 -0.4324 -0.3818
 5037SOL     OW19913   2.809   4.322   2.185  0.5384  0.5253  0.2272
 5037SOL    HW219914   2.848   4.402   2.219  1.3502  0.3545 -0.2891
 5037SOL    HW319915   2.791   4.341   2.092 -0.2549  0.4697  0.3567
 5037SOL    MW419916   2.812   4.335   2.177  0.5408  0.4954  0.1762
 5038SOL     OW19917   5.581   0.674   0.264  0.4876  0.1993  0.0003
 5038SOL    HW219918   5.520   0.602   0.283  0.8299 -0.1710 -0.2688
 5038SOL    HW319919   5.607   0.659   0.173  2.5155 -0.8230  0.6975
 5038SOL    MW419920   5.576   0.662   0.255  0.8003  0.0156  0.0568
 5039SOL     OW19921   1.903   2.154   3.759  0.4082  0.1322 -0.1538
 5039SOL    HW219922   1.997   2.139   3.771  0.0508 -1.3886  1.0079
 5039SOL    HW319923   1.863   2.069   3.776 -1.4117  1.3543  2.3077
 5039SOL    MW419924   1.910   2.141   3.763  0.1209  0.0928  0.3242
 5040SOL     OW19925   3.921   4.619   3.883 -0.1348 -0.2275  0.2931
 5040SOL    HW219926   3.844   4.656   3.927 -0.3989  0.0498 -0.3863
 5040SOL    HW319927   3.901   4.526   3.873 -0.6588 -0.0467 -0.4290
 5040SOL    MW419928   3.908   4.612   3.888 -0.2388 -0.1671  0.1082
 5041SOL     OW19929   5.757   2.938   0.205  0.4309  0.0369  0.0494
 5041SOL    HW219930   5.717   2.887   0.276  1.3186  0.2120  0.6886
 5041SOL    HW319931   5.704   3.018   0.200 -1.4968 -1.2270 -1.5106
 5041SOL    MW419932   5.745   2.942   0.214  0.2937 -0.1068 -0.0721
 5042SOL     OW19933   3.235   1.588   4.251 -0.3536 -0.2635 -0.0401
 5042SOL    HW219934   3.272   1.546   4.172 -0.4554 -1.0440  0.3187
 5042SOL    HW319935   3.239   1.682   4.232 -2.9252 -0.4570 -2.1606
 5042SOL    MW419936   3.241   1.595   4.238 -0.7063 -0.3920 -0.2725
 5043SOL     OW19937   5.654   1.074   4.204 -0.1122  0.1726 -0.6629
 5043SOL    HW219938   5.630   1.142   4.266 -0.0439 -0.8999  0.5752
 5043SOL    HW319939   5.573   1.025   4.190  0.4434 -1.2084  0.6772
 5043SOL    MW419940   5.640   1.076   4.210 -0.0299 -0.1511 -0.3228
 5044SOL     OW19941   4.884   6.142   0.971  0.8019 -0.0207 -0.3878
 5044SOL    HW219942   4.884   6.237   0.963 -0.1909  0.1691  1.3602
 5044SOL    HW319943   4.926   6.111   0.891  1.0905  1.8743 -1.0162
 5044SOL    MW419944   4.890   6.150   0.959  0.7090  0.2543 -0.2401
 5045SOL     OW19945   4.173   6.325   6.443 -0.1318 -0.0070 -0.2710
 5045SOL    HW219946   4.154   6.235   6.471  1.0135  0.3329  1.8223
 5045SOL    HW319947   4.264   6.322   6.414 -0.9987 -0.1209 -3.2987
 5045SOL    MW419948   4.182   6.313   6.443 -0.0951  0.0228 -0.3943
 5046SOL     OW19949   0.825   5.344   0.552 -0.1521  0.3572  0.1691
 5046SOL    HW219950   0.788   5.433   0.549  0.9616  0.8532  0.5398
 5046SOL    HW319951   0.766   5.296   0.611 -0.1833  1.1438  0.7972
 5046SOL    MW419952   0.812   5.350   0.560 -0.0093  0.5264  0.3009
 5047SOL     OW19953   5.857   1.832   4.912 -0.7074  0.5709 -0.2173
 5047SOL    HW219954   5.898   1.808   4.995  0.9778  1.2948 -0.7844
 5047SOL    HW319955   5.897   1.774   4.847 -2.3488 -0.3023 -0.4754
 5047SOL    MW419956   5.868   1.821   4.914 -0.7016  0.5512 -0.3262
 5048SOL     OW19957   3.102   3.805   2.390 -0.4733  0.0107  0.4500
 5048SOL    HW219958   3.108   3.720   2.434 -2.6916  0.6494  2.1715
 5048SOL    HW319959   3.053   3.860   2.451 -0.0076  2.2335 -1.0757
 5048SOL    MW419960   3.096   3.801   2.404 -0.7045  0.3883  0.4758
 5049SOL     OW19961   1.125   5.474   3.290 -0.0132  0.7263  0.4613
 5049SOL    HW219962   1.208   5.462   3.336  0.0759  0.4305  0.2271
 5049SOL    HW319963   1.089   5.385   3.282  0.1260  0.7343 -0.3215
 5049SOL    MW419964   1.131   5.460   3.295  0.0169  0.6883  0.3271
 5050SOL     OW19965   6.267   3.683   2.867 -0.0225  0.3125  0.1649
 5050SOL    HW219966   6.317   3.632   2.804  0.4987 -0.8237  1.4494
 5050SOL    HW319967   6.330   3.747   2.901 -0.0306  0.2855  0.2310
 5050SOL    MW419968   6.282   3.685   2.863  0.0452  0.1590  0.3431
 5051SOL     OW19969   1.389   4.492   4.676  0.0136 -0.2272  0.6003
 5051SOL    HW219970   1.322   4.536   4.624  1.1358 -0.3355 -0.9675
 5051SOL    HW319971   1.445   4.449   4.613  1.2617 -0.6189  1.9207
 5051SOL    MW419972   1.387   4.492   4.661  0.3263 -0.2932  0.5676
 5052SOL     OW19973   5.421   6.306   1.520  0.0883  0.2166 -0.1410
 5052SOL    HW219974   5.364   6.362   1.468 -0.6526  0.2598  0.7029
 5052SOL    HW319975   5.443   6.233   1.462 -1.6456 -0.3237 -0.1608
 5052SOL    MW419976   5.417   6.304   1.505 -0.2382  0.1510 -0.0323
 5053SOL     OW19977   4.020   1.750   2.931 -0.2090  0.0381  0.1707
 5053SOL    HW219978   3.932   1.778   2.904 -0.9681 -2.9402 -0.9217
 5053SOL    HW319979   4.032   1.787   3.018 -3.1713 -0.5973  0.9491
 5053SOL    MW419980   4.010   1.758   2.939 -0.7000 -0.4387  0.1293
 5054SOL     OW19981   3.031   3.254   0.547 -0.1762 -0.1208  0.0193
 5054SOL    HW219982   3.027   3.327   0.486 -2.2777 -1.4838 -1.6375
 5054SOL    HW319983   3.120   3.221   0.540 -0.1766  0.1672 -1.8827
 5054SOL    MW419984   3.042   3.259   0.538 -0.4536 -0.2626 -0.4503
 5055SOL     OW19985   3.855   5.882   3.137  0.3199  0.0374  0.2207
 5055SOL    HW219986   3.863   5.863   3.043  1.8759  0.7965  0.1763
 5055SOL    HW319987   3.760   5.886   3.152  0.0222  1.2109 -1.6008
 5055SOL    MW419988   3.843   5.880   3.126  0.4860  0.2924 -0.0255
 5056SOL     OW19989   4.771   2.118   5.258  0.4821 -0.2473  0.1902
 5056SOL    HW219990   4.717   2.062   5.313 -0.7631  0.7274  0.0054
 5056SOL    HW319991   4.817   2.175   5.320  1.3547 -1.0849  0.3473
 5056SOL    MW419992   4.770   2.118   5.273  0.4330 -0.2292  0.1866
 5057SOL     OW19993   5.204   3.572   0.884 -0.3218  0.2019  0.3023
 5057SOL    HW219994   5.291   3.563   0.923 -0.0186 -0.1501 -0.4291
 5057SOL    HW319995   5.176   3.483   0.864  0.7230  0.4236 -2.7590
 5057SOL    MW419996   5.212   3.559   0.886 -0.1439  0.1847 -0.1981
 5058SOL     OW19997   4.346   3.499   2.614 -0.0405 -0.1902  0.1559
 5058SOL    HW219998   4.280   3.560   2.646 -0.7248 -0.5013 -0.6111
 5058SOL    HW319999   4.419   3.554   2.587 -0.6565  0.2976 -0.5374
 5058SOL    MW420000   4.347   3.514   2.615 -0.2120 -0.1669 -0.0368
 5059SOL     OW20001   0.934   3.012   2.891 -0.3520  0.2081  0.3424
 5059SOL    HW220002   0.964   2.977   2.808 -1.5707  0.8062 -0.3897
 5059SOL    HW320003   0.838   3.002   2.888 -0.2963 -1.6840  2.5762
 5059SOL    MW420004   0.925   3.006   2.880 -0.5055  0.0373  0.5406
 5060SOL     OW20005   5.996   3.853   1.929  0.1080 -0.0679  0.0974
 5060SOL    HW220006   6.024   3.774   1.883  1.2719  1.1927 -1.4651
 5060SOL    HW320007   6.037   3.845   2.016  1.0497 -0.7133 -0.3898
 5060SOL    MW420008   6.005   3.842   1.935  0.3858  0.0133 -0.1730
 5061SOL     OW20009   0.193   4.567   2.822  0.2620  0.5217  0.0473
 5061SOL    HW220010   0.269   4.624   2.808 -0.9380  2.4605  1.0031
 5061SOL    HW320011   0.194   4.549   2.916  1.6927 -2.7356 -0.4610
 5061SOL    MW420012   0.203   4.572   2.833  0.2925  0.3477  0.1064
 5062SOL     OW20013   2.933   4.326   1.661  0.1090  0.0357  0.3541
 5062SOL    HW220014   2.969   4.329   1.749  0.5127  0.9823  0.1655
 5062SOL    HW320015   3.002   4.285   1.608 -0.0623 -0.3693  0.4433
 5062SOL    MW420016   2.947   4.321   1.665  0.1397  0.1072  0.3410
 5063SOL     OW20017   1.802   3.133   1.156 -0.4622 -0.3294  0.4439
 5063SOL    HW220018   1.821   3.211   1.207 -0.0708 -0.7376  0.9397
 5063SOL    HW320019   1.777   3.067   1.221  0.0273 -0.8540  0.1209
 5063SOL    MW420020   1.801   3.134   1.171 -0.3460 -0.4525  0.4667
 5064SOL     OW20021   4.844   4.510   4.929  0.2492 -0.2791  0.0790
 5064SOL    HW220022   4.847   4.498   4.834  2.0288 -2.0026  0.2888
 5064SOL    HW320023   4.812   4.426   4.963  0.3233  0.0750  1.0457
 5064SOL    MW420024   4.840   4.497   4.921  0.4938 -0.4598  0.2343
 5065SOL     OW20025   0.571   4.969   1.874  0.5688 -0.1182  0.0071
 5065SOL    HW220026   0.507   5.032   1.908  0.2812 -0.3497 -0.1085
 5065SOL    HW320027   0.649   5.022   1.857  0.6433  0.0420  0.8076
 5065SOL    MW420028   0.573   4.985   1.876  0.5407 -0.1276  0.0975
 5066SOL     OW20029   2.767   6.290   6.311  0.3938  0.0297  0.0557
 5066SOL    HW220030   2.753   6.288   6.216 -1.5255  0.9571  0.2670
 5066SOL    HW320031   2.860   6.313   6.321  0.8757 -1.0288 -1.5664
 5066SOL    MW420032   2.778   6.293   6.300  0.2042  0.0124 -0.1305
 5067SOL     OW20033   3.727   0.626   0.420 -0.0803  0.8301 -0.6249
 5067SOL    HW220034   3.811   0.600   0.457 -0.6579  1.9561  1.6619
 5067SOL    HW320035   3.736   0.721   0.405 -1.1452  1.0918  0.2999
 5067SOL    MW420036   3.739   0.635   0.423 -0.2970  1.0132 -0.2012
 5068SOL     OW20037   0.093   3.666   6.184  0.1263  0.3799 -0.0105
 5068SOL    HW220038   0.005   3.703   6.175  0.6600  1.3926 -1.4274
 5068SOL    HW320039   0.150   3.743   6.192  0.9193 -0.2569  0.6236
 5068SOL    MW420040   0.089   3.681   6.184  0.3013  0.4295 -0.1138
 5069SOL     OW20041   3.137   3.454   5.012 -0.4566  0.1854 -0.2450
 5069SOL    HW220042   3.195   3.498   5.073  0.9723 -2.8032  0.7595
 5069SOL    HW320043   3.050   3.460   5.052  0.0142  0.5453  0.7466
 5069SOL    MW420044   3.133   3.461   5.025 -0.2060 -0.1614  0.0183
 5070SOL     OW20045   6.341   1.296   2.990 -0.0172 -0.1155  0.8202
 5070SOL    HW220046   6.271   1.339   3.040  0.6085  0.5435  1.1536
 5070SOL    HW320047   6.380   1.234   3.052  0.4524  0.3616  1.0051
 5070SOL    MW420048   6.337   1.293   3.005  0.1273  0.0344  0.8886
 5071SOL     OW20049   3.497   5.516   1.434  0.9509  0.2439  0.1048
 5071SOL    HW220050   3.539   5.548   1.513 -1.2408  0.5130  1.2385
 5071SOL    HW320051   3.422   5.574   1.421 -0.0997 -1.2285 -0.7867
 5071SOL    MW420052   3.493   5.528   1.443  0.5231  0.0852  0.1367
 5072SOL     OW20053   0.981   4.825   3.052  0.1760  0.3115  0.3525
 5072SOL    HW220054   0.984   4.828   3.148 -0.3012 -0.1288  0.3928
 5072SOL    HW320055   1.072   4.820   3.025  0.2775 -1.4230  0.8755
 5072SOL    MW420056   0.993   4.825   3.061  0.1264  0.0245  0.4268
 5073SOL     OW20057   2.670   5.044   1.316  0.1854  0.1084  0.2872
 5073SOL    HW220058   2.732   5.106   1.279 -0.5637  2.1633  2.2437
 5073SOL    HW320059   2.587   5.091   1.321 -1.1512 -1.9873 -0.6469
 5073SOL    MW420060   2.667   5.058   1.312 -0.0898  0.1030  0.4221
 5074SOL     OW20061   3.321   0.365   0.486  0.3451 -0.0524 -0.6892
 5074SOL    HW220062   3.327   0.352   0.391  0.2906 -0.9570 -0.5736
 5074SOL    HW320063   3.359   0.452   0.500  2.6614 -0.9232 -1.2564
 5074SOL    MW420064   3.327   0.375   0.475  0.6435 -0.2867 -0.7488
 5075SOL     OW20065   1.448   1.736   2.242  0.0092 -0.1471 -0.2499
 5075SOL    HW220066   1.511   1.671   2.213 -0.6357 -1.1043  0.4067
 5075SOL    HW320067   1.471   1.752   2.334 -1.1434 -1.1125  0.2452
 5075SOL    MW420068   1.459   1.729   2.250 -0.2280 -0.4008 -0.0980
 5076SOL     OW20069   2.594   0.515   2.118  0.2474 -0.5900 -0.3220
 5076SOL    HW220070   2.666   0.484   2.063  0.3918  0.6873 -0.8683
 5076SOL    HW320071   2.636   0.576   2.180 -0.3259  0.0003 -0.5082
 5076SOL    MW420072   2.609   0.519   2.119  0.1908 -0.3436 -0.4186
 5077SOL     OW20073   2.053   2.607   2.607 -0.0622 -0.1199  0.0182
 5077SOL    HW220074   1.985   2.666   2.641  1.0234  0.7686  0.7397
 5077SOL    HW320075   2.136   2.651   2.628  0.7531 -1.2853 -0.6147
 5077SOL    MW420076   2.055   2.620   2.614  0.1886 -0.1564  0.0299
 5078SOL     OW20077   3.852   1.847   1.388  0.1681  0.5089  0.0372
 5078SOL    HW220078   3.826   1.764   1.347  1.8840  0.5135 -1.1500
 5078SOL    HW320079   3.911   1.821   1.459  1.4898  0.7036 -0.9462
 5078SOL    MW420080   3.856   1.832   1.392  0.5688  0.5352 -0.2492
 5079SOL     OW20081   3.346   1.859   0.379 -0.1507  0.3408  0.3255
 5079SOL    HW220082   3.371   1.889   0.292  4.5442  2.3017  2.0100
 5079SOL    HW320083   3.286   1.926   0.412 -1.8349 -0.3373 -1.2401
 5079SOL    MW420084   3.341   1.872   0.372  0.2465  0.5100  0.3412
 5080SOL     OW20085   3.237   5.883   2.698  0.0571 -0.5257  0.2844
 5080SOL    HW220086   3.212   5.814   2.637  1.8084 -1.8808  0.9871
 5080SOL    HW320087   3.284   5.947   2.644 -2.3730  0.6790 -0.5398
 5080SOL    MW420088   3.240   5.882   2.683 -0.0325 -0.5456  0.2683
 5081SOL     OW20089   6.212   6.228   1.997  0.1959  0.4496 -0.2570
 5081SOL    HW220090   6.249   6.251   2.082  0.2981  2.1421 -0.7148
 5081SOL    HW320091   6.152   6.156   2.015  0.7472  0.3043  1.1204
 5081SOL    MW420092   6.209   6.221   2.010  0.2821  0.6537 -0.1356
 5082SOL     OW20093   6.412   1.430   2.523 -0.0343  0.0167 -0.7149
 5082SOL    HW220094   6.449   1.441   2.611  0.4365 -1.1759 -0.7420
 5082SOL    HW320095   6.440   1.508   2.475 -0.4523  0.7611  0.2447
 5082SOL    MW420096   6.421   1.442   2.528 -0.0274 -0.0424 -0.5919
 5083SOL     OW20097   4.633   1.329   0.764  0.1868 -0.3852  0.2290
 5083SOL    HW220098   4.625   1.407   0.819  0.6407 -0.9807  1.1463
 5083SOL    HW320099   4.723   1.330   0.733 -0.1791  0.1776 -0.8769
 5083SOL    MW420100   4.644   1.339   0.767  0.1984 -0.3895  0.2041
 5084SOL     OW20101   1.697   2.352   4.679  0.2217  0.3445  0.7970
 5084SOL    HW220102   1.635   2.425   4.687  2.9304  2.9187  0.2875
 5084SOL    HW320103   1.766   2.386   4.621  2.2778 -2.1913  1.5523
 5084SOL    MW420104   1.698   2.367   4.672  0.8503  0.3496  0.8295
 5085SOL     OW20105   6.295   6.130   1.770 -0.8654 -0.0710 -0.1259
 5085SOL    HW220106   6.224   6.080   1.728 -2.0575  0.9356  0.6221
 5085SOL    HW320107   6.255   6.166   1.849  0.2205  1.2780 -0.1597
 5085SOL    MW420108   6.280   6.128   1.775 -0.8794  0.2398 -0.0317
 5086SOL     OW20109   3.458   3.122   5.091 -0.4111 -0.3177 -0.2957
 5086SOL    HW220110   3.547   3.097   5.117 -0.0034  0.1380 -1.1987
 5086SOL    HW320111   3.431   3.187   5.155 -0.0036 -0.2980 -0.1415
 5086SOL    MW420112   3.466   3.127   5.103 -0.3036 -0.2549 -0.3945
 5087SOL     OW20113   3.509   4.661   5.705 -0.1121 -0.3307  0.0672
 5087SOL    HW220114   3.520   4.691   5.615  0.5403  1.3863  0.6843
 5087SOL    HW320115   3.415   4.668   5.721 -0.3250 -1.3113 -0.6801
 5087SOL    MW420116   3.498   4.666   5.695 -0.0541 -0.2335  0.0501
 5088SOL     OW20117   0.505   4.495   4.988  0.4939 -0.1095 -0.4450
 5088SOL    HW220118   0.426   4.486   4.935  0.0368  0.9142  0.0387
 5088SOL    HW320119   0.559   4.419   4.964  0.6264  0.6568 -2.8772
 5088SOL    MW420120   0.502   4.484   4.978  0.4511  0.1267 -0.7021
 5089SOL     OW20121   1.831   4.787   4.354 -0.2105 -0.2694  0.1672
 5089SOL    HW220122   1.802   4.839   4.279  0.2177 -0.0621  0.1417
 5089SOL    HW320123   1.777   4.818   4.426 -0.2730 -0.1107  0.0529
 5089SOL    MW420124   1.820   4.798   4.354 -0.1622 -0.2211  0.1488
 5090SOL     OW20125   1.901   0.249   1.975 -0.3591  0.6325  0.4530
 5090SOL    HW220126   1.853   0.167   1.984  1.1535 -0.3650 -0.1780
 5090SOL    HW320127   1.834   0.313   1.951 -1.3899 -0.6895 -0.3325
 5090SOL    MW420128   1.886   0.247   1.973 -0.2955  0.3265  0.2661
 5091SOL     OW20129   2.862   5.926   4.471 -0.2238 -0.3310  0.0213
 5091SOL    HW220130   2.916   5.995   4.432 -0.3067 -0.0390  0.4162
 5091SOL    HW320131   2.893   5.920   4.561  0.5199 -1.5636 -0.2925
 5091SOL    MW420132   2.873   5.934   4.478 -0.1366 -0.4551  0.0320
 5092SOL     OW20133   4.169   2.065   2.108 -0.2555 -0.4600  0.0602
 5092SOL    HW220134   4.101   2.064   2.041 -0.4681  0.0302  0.2647
 5092SOL    HW320135   4.234   2.128   2.075 -0.7501  0.4020  0.6837
 5092SOL    MW420136   4.169   2.073   2.095 -0.3488 -0.2816  0.1694
 5093SOL     OW20137   1.806   2.572   1.505 -0.3908  0.3997 -0.5464
 5093SOL    HW220138   1.760   2.632   1.564 -1.0892  0.2251 -0.9041
 5093SOL    HW320139   1.746   2.498   1.495  0.9446 -0.9299  0.8143
 5093SOL    MW420140   1.792   2.570   1.512 -0.3067  0.2013 -0.4141
 5094SOL     OW20141   3.629   0.124   1.977 -0.1355  0.0108  0.2049
 5094SOL    HW220142   3.697   0.070   2.019  0.0978 -0.7607 -1.1201
 5094SOL    HW320143   3.643   0.212   2.014  0.2934 -0.5497  1.4465
 5094SOL    MW420144   3.640   0.129   1.987 -0.0481 -0.1649  0.1939
 5095SOL     OW20145   1.191   3.994   0.598  0.4450 -0.3035  0.1395
 5095SOL    HW220146   1.188   3.972   0.505  3.0180 -1.3209  0.2268
 5095SOL    HW320147   1.284   4.003   0.618  0.0433 -1.3134  2.9073
 5095SOL    MW420148   1.203   3.992   0.588  0.7315 -0.5710  0.5162
 5096SOL     OW20149   1.066   0.682   4.540 -0.5479 -0.7917 -0.3478
 5096SOL    HW220150   1.040   0.698   4.449  0.2636 -1.3662 -0.6942
 5096SOL    HW320151   0.988   0.703   4.592 -0.7159  0.4997 -1.0917
 5096SOL    MW420152   1.052   0.687   4.535 -0.4630 -0.6971 -0.4917
 5097SOL     OW20153   1.995   5.622   4.816  0.8697  0.0861 -0.1236
 5097SOL    HW220154   1.930   5.686   4.788 -1.1169 -1.2845  1.0604
 5097SOL    HW320155   2.005   5.564   4.741 -0.8475 -0.8374  0.3064
 5097SOL    MW420156   1.988   5.623   4.803  0.3810 -0.2166  0.0893
 5098SOL     OW20157   1.453   2.086   0.074  0.3264  0.1526  0.0987
 5098SOL    HW220158   1.375   2.052   0.031 -0.0551 -0.5528  1.3077
 5098SOL    HW320159   1.511   2.011   0.081  1.1352  0.6628 -0.7617
 5098SOL    MW420160   1.451   2.072   0.069  0.3828  0.1268  0.1447
 5099SOL     OW20161   2.642   3.961   2.293  0.3708 -0.2335  0.8605
 5099SOL    HW220162   2.638   3.980   2.387 -0.3135  2.0473  0.4285
 5099SOL    HW320163   2.736   3.962   2.273  0.4674  0.6659  1.2971
 5099SOL    MW420164   2.654   3.964   2.303  0.2933  0.1861  0.8611
 5100SOL     OW20165   4.686   2.821   4.463 -0.3060  0.0368 -0.5791
 5100SOL    HW220166   4.664   2.793   4.552 -1.1883  0.9456 -0.4807
 5100SOL    HW320167   4.626   2.772   4.407 -0.1302 -0.1227 -0.6286
 5100SOL    MW420168   4.675   2.811   4.468 -0.3992  0.1357 -0.5726
 5101SOL     OW20169   2.671   1.385   5.157 -0.0718 -0.6340  0.0556
 5101SOL    HW220170   2.598   1.426   5.202 -0.6878 -0.1846 -1.2971
 5101SOL    HW320171   2.713   1.457   5.109  1.0896 -0.9395  0.5626
 5101SOL    MW420172   2.667   1.400   5.157  0.0002 -0.6150 -0.0560
 5102SOL     OW20173   3.343   1.583   1.086  0.2244 -0.1364 -0.0655
 5102SOL    HW220174   3.322   1.655   1.025  0.6649  0.7035  0.7413
 5102SOL    HW320175   3.266   1.575   1.141  0.3599  0.0595  0.1572
 5102SOL    MW420176   3.330   1.592   1.085  0.3004  0.0003  0.0703
 5103SOL     OW20177   1.600   5.795   2.297  0.0182 -0.5720 -0.7862
 5103SOL    HW220178   1.544   5.723   2.268 -0.4281 -1.0464  1.0920
 5103SOL    HW320179   1.539   5.868   2.309 -0.1481 -0.9027  0.6224
 5103SOL    MW420180   1.584   5.795   2.295 -0.0627 -0.6782 -0.3525
 5104SOL     OW20181   1.527   3.646   1.562  0.9082 -0.0036  0.0429
 5104SOL    HW220182   1.503   3.560   1.527  0.0876  0.4733 -0.5991
 5104SOL    HW320183   1.450   3.674   1.612  1.1227  0.4112  0.1486
 5104SOL    MW420184   1.514   3.638   1.564  0.8282  0.1141 -0.0279
 5105SOL     OW20185   1.837   2.147   0.071  0.8968  0.6107 -0.2378
 5105SOL    HW220186   1.876   2.204   0.005 -0.3244  0.9759 -0.6701
 5105SOL    HW320187   1.868   2.059   0.048  2.1489  0.9829 -0.0390
 5105SOL    MW420188   1.846   2.143   0.059  0.9009  0.7080 -0.2686
 5106SOL     OW20189   2.537   5.168   4.214  0.8560 -0.1550  0.4855
 5106SOL    HW220190   2.518   5.096   4.274  1.2412 -0.4293  0.2829
 5106SOL    HW320191   2.468   5.232   4.230  0.7580 -0.3831  0.9712
 5106SOL    MW420192   2.526   5.167   4.224  0.8939 -0.2213  0.5229
 5107SOL     OW20193   4.263   3.912   0.279  0.7198  0.3503 -0.1058
 5107SOL    HW220194   4.234   3.877   0.195 -3.1472 -0.9509  1.5535
 5107SOL    HW320195   4.303   3.837   0.324  1.8996  0.8061 -0.3446
 5107SOL    MW420196   4.265   3.897   0.274  0.3652  0.2388  0.0816
 5108SOL     OW20197   4.480   4.074   1.092 -0.9895  0.6730  0.2165
 5108SOL    HW220198   4.560   4.121   1.072 -0.1177 -0.7968  0.0942
 5108SOL    HW320199   4.420   4.141   1.125  0.1420  1.8599 -0.0670
 5108SOL    MW420200   4.482   4.089   1.094 -0.7252  0.6356  0.1630
 5109SOL     OW20201   3.465   3.668   1.365  0.4465  0.7952  0.1719
 5109SOL    HW220202   3.409   3.671   1.287 -0.4504  2.5310  0.8320
 5109SOL    HW320203   3.407   3.641   1.436  1.0189  0.2592  0.4522
 5109SOL    MW420204   3.450   3.665   1.364  0.4037  0.9535  0.2960
 5110SOL     OW20205   0.882   3.730   0.124  0.1004 -0.1805 -0.1138
 5110SOL    HW220206   0.896   3.825   0.116 -1.2057  0.1029  0.5949
 5110SOL    HW320207   0.949   3.691   0.069  0.7411  1.1610 -0.3284
 5110SOL    MW420208   0.893   3.738   0.116  0.0126  0.0339 -0.0486
 5111SOL     OW20209   1.876   5.251   4.358 -0.2037 -0.2610 -0.4998
 5111SOL    HW220210   1.848   5.287   4.442 -1.9241 -1.7596 -0.3694
 5111SOL    HW320211   1.853   5.318   4.294  2.1076  1.3728  0.2560
 5111SOL    MW420212   1.869   5.265   4.361 -0.1257 -0.2432 -0.3829
 5112SOL     OW20213   3.036   5.395   3.769 -0.2967  0.0455  0.5354
 5112SOL    HW220214   2.970   5.405   3.838 -0.5595 -0.0709  0.3051
 5112SOL    HW320215   3.106   5.345   3.809 -0.5552 -0.2272  0.6483
 5112SOL    MW420216   3.036   5.390   3.783 -0.3655 -0.0059  0.5199
 5113SOL     OW20217   3.894   5.570   4.806 -0.2523  0.9709  0.7091
 5113SOL    HW220218   3.989   5.565   4.796 -0.0911  2.3359  1.3382
 5113SOL    HW320219   3.871   5.656   4.770 -1.2163  0.7648  0.8101
 5113SOL    MW420220   3.904   5.581   4.800 -0.3582  1.1238  0.8054
 5114SOL     OW20221   1.950   2.623   6.493  0.3756 -0.4032  0.3708
 5114SOL    HW220222   1.869   2.626   6.441 -0.5687  2.5241  1.8129
 5114SOL    HW320223   1.929   2.567   6.567 -0.4172  0.4407  0.8015
 5114SOL    MW420224   1.936   2.616   6.496  0.1464  0.0943  0.6179
 5115SOL     OW20225   4.760   4.136   3.962  0.0398  0.0786  0.5775
 5115SOL    HW220226   4.683   4.125   3.906 -0.4440 -2.0514  1.5271
 5115SOL    HW320227   4.724   4.143   4.051  0.8962 -0.3764  0.9770
 5115SOL    MW420228   4.745   4.135   3.967  0.0890 -0.2624  0.7555
 5116SOL     OW20229   5.874   2.775   2.780  0.0108 -0.0799 -0.0961
 5116SOL    HW220230   5.933   2.718   2.731 -1.6085 -1.2248 -0.8297
 5116SOL    HW320231   5.858   2.849   2.722 -0.7499 -0.7156 -0.7244
 5116SOL    MW420232   5.879   2.777   2.766 -0.3032 -0.3149 -0.2758
 5117SOL     OW20233   6.370   6.336   3.146 -0.4602  0.2407  0.0645
 5117SOL    HW220234   6.292   6.355   3.094 -0.7364 -1.9109 -0.4347
 5117SOL    HW320235   6.396   6.248   3.117  1.9934  0.7901  0.4214
 5117SOL    MW420236   6.363   6.327   3.135 -0.1729  0.0293  0.0458
 5118SOL     OW20237   3.218   4.991   0.501 -0.1467  0.1592  0.5260
 5118SOL    HW220238   3.196   4.898   0.487 -0.2934  0.2372  0.2304
 5118SOL    HW320239   3.163   5.017   0.575 -0.0517 -0.0097  0.6579
 5118SOL    MW420240   3.207   4.982   0.509 -0.1535  0.1472  0.5044
 5119SOL     OW20241   0.867   6.269   3.229  0.8082  0.8197 -0.0502
 5119SOL    HW220242   0.958   6.298   3.227  1.4806 -1.1661 -1.2489
 5119SOL    HW320243   0.868   6.188   3.281 -0.3952  1.0760  0.4220
 5119SOL    MW420244   0.879   6.262   3.236  0.7382  0.5915 -0.1461
 5120SOL     OW20245   1.043   2.436   5.783 -0.1103  0.1787  0.5797
 5120SOL    HW220246   1.072   2.527   5.792 -0.5506  0.3042  0.7388
 5120SOL    HW320247   0.973   2.439   5.718 -2.6235  0.5205  3.0966
 5120SOL    MW420248   1.037   2.448   5.776 -0.5000  0.2403  0.9328
 5121SOL     OW20249   2.434   3.884   3.643 -0.1484 -0.3380 -0.9268
 5121SOL    HW220250   2.420   3.973   3.612  1.7325  0.1675 -0.4197
 5121SOL    HW320251   2.400   3.829   3.572  0.6315  0.7934 -2.2403
 5121SOL    MW420252   2.428   3.888   3.629  0.2027 -0.1220 -1.0332
 5122SOL     OW20253   0.161   5.581   5.652  0.7561  0.4616 -0.1535
 5122SOL    HW220254   0.152   5.652   5.715 -3.0072  0.1762 -0.1908
 5122SOL    HW320255   0.144   5.621   5.567  3.0225  0.2752 -0.7782
 5122SOL    MW420256   0.158   5.595   5.649  0.5586  0.3993 -0.2408
 5123SOL     OW20257   0.402   3.479   2.626  0.1981  0.0901  0.0506
 5123SOL    HW220258   0.395   3.529   2.707 -1.8572  1.7391 -1.0421
 5123SOL    HW320259   0.468   3.526   2.574  1.3493 -0.8363  0.6283
 5123SOL    MW420260   0.410   3.492   2.630  0.0788  0.1854 -0.0173
 5124SOL     OW20261   0.953   1.589   2.395  0.5404  0.2148  0.1178
 5124SOL    HW220262   1.019   1.524   2.374 -1.5159 -2.2773  0.8996
 5124SOL    HW320263   0.958   1.598   2.490 -0.1405  0.0814  0.1723
 5124SOL    MW420264   0.963   1.582   2.405  0.1793 -0.1316  0.2281
 5125SOL     OW20265   1.421   0.771   5.395  1.4247 -0.5228 -0.2434
 5125SOL    HW220266   1.458   0.807   5.476  0.1169  1.8678 -0.6158
 5125SOL    HW320267   1.401   0.848   5.341 -0.4063 -1.8891 -1.6627
 5125SOL    MW420268   1.423   0.786   5.398  1.0106 -0.3876 -0.4798
 5126SOL     OW20269   1.577   4.735   1.587 -0.2820  0.5267  0.2490
 5126SOL    HW220270   1.585   4.658   1.642 -0.1580  0.0855 -0.3795
 5126SOL    HW320271   1.491   4.727   1.545  0.7792 -0.6714 -1.8725
 5126SOL    MW420272   1.567   4.724   1.588 -0.1257  0.3104 -0.1138
 5127SOL     OW20273   3.443   2.482   3.675  0.5528 -0.5402 -0.6041
 5127SOL    HW220274   3.372   2.419   3.684  1.1417 -1.8643 -3.6449
 5127SOL    HW320275   3.473   2.498   3.764 -2.0357 -1.6899  0.5747
 5127SOL    MW420276   3.438   2.476   3.688  0.2890 -0.8666 -0.8498
 5128SOL     OW20277   1.355   1.254   4.642  0.3814  0.2871 -0.4294
 5128SOL    HW220278   1.373   1.330   4.587  1.2329 -0.1257 -0.7269
 5128SOL    HW320279   1.345   1.181   4.580  1.0447 -0.1244 -0.0618
 5128SOL    MW420280   1.356   1.254   4.627  0.5813  0.1784 -0.4202
 5129SOL     OW20281   2.591   4.543   5.948  0.3724  0.2781  0.1865
 5129SOL    HW220282   2.669   4.508   5.905 -0.6189 -1.6375 -0.1706
 5129SOL    HW320283   2.532   4.566   5.877  0.7593  2.1833  0.4421
 5129SOL    MW420284   2.594   4.541   5.933  0.2926  0.2767  0.1731
 5130SOL     OW20285   4.946   3.895   2.174 -0.5973  0.5234 -0.0303
 5130SOL    HW220286   4.981   3.822   2.225 -0.8730 -1.1875 -2.1132
 5130SOL    HW320287   4.851   3.881   2.173 -0.6590  0.9303 -0.4110
 5130SOL    MW420288   4.938   3.883   2.180 -0.6418  0.3514 -0.3553
 5131SOL     OW20289   2.113   6.127   3.626 -0.5691  0.1167 -0.1857
 5131SOL    HW220290   2.036   6.164   3.583 -1.9203 -0.8594  1.2785
 5131SOL    HW320291   2.161   6.203   3.660 -0.9675  0.7287 -0.9847
 5131SOL    MW420292   2.109   6.142   3.625 -0.7999  0.0687 -0.0980
 5132SOL     OW20293   3.812   0.324   3.989  0.3441 -0.0283 -0.2872
 5132SOL    HW220294   3.895   0.292   4.025 -0.4397  0.2457  1.9375
 5132SOL    HW320295   3.783   0.255   3.930  1.2697 -0.9706  0.3222
 5132SOL    MW420296   3.820   0.310   3.986  0.3628 -0.1164  0.0868
 5133SOL     OW20297   0.831   2.892   0.308  0.1602 -0.0567 -0.0246
 5133SOL    HW220298   0.759   2.952   0.289 -0.5464 -0.7855  0.3316
 5133SOL    HW320299   0.910   2.946   0.299 -0.4310  0.7776 -0.2899
 5133SOL    MW420300   0.832   2.907   0.304 -0.0111 -0.0428 -0.0126
 5134SOL     OW20301   0.651   0.841   1.159  0.1883  0.2522  0.1290
 5134SOL    HW220302   0.739   0.877   1.172  0.0750  1.1593 -1.3609
 5134SOL    HW320303   0.606   0.907   1.106 -0.7088 -1.1309 -0.8895
 5134SOL    MW420304   0.657   0.854   1.154  0.0550  0.1894 -0.2020
 5135SOL     OW20305   5.819   3.109   6.064  0.2444 -0.0310  0.2836
 5135SOL    HW220306   5.816   3.015   6.082  2.1034 -0.2615 -0.3444
 5135SOL    HW320307   5.764   3.120   5.987  0.2284 -0.6693  0.1996
 5135SOL    MW420308   5.812   3.098   6.056  0.4875 -0.1456  0.1897
 5136SOL     OW20309   3.298   5.854   4.437 -0.4983 -0.0142 -0.5720
 5136SOL    HW220310   3.255   5.848   4.522  0.1417 -1.8778 -0.3544
 5136SOL    HW320311   3.228   5.839   4.373 -0.7912  0.4144 -0.3576
 5136SOL    MW420312   3.283   5.851   4.440 -0.4525 -0.2036 -0.5150
 5137SOL     OW20313   3.536   0.470   5.292 -0.3387  0.3336  0.1022
 5137SOL    HW220314   3.532   0.534   5.221  2.4861 -0.4198 -0.8623
 5137SOL    HW320315   3.475   0.504   5.357 -0.1036  3.2110 -0.9969
 5137SOL    MW420316   3.527   0.483   5.291  0.0650  0.6139 -0.1701
 5138SOL     OW20317   0.659   4.732   5.023 -0.1345  0.5159  0.2619
 5138SOL    HW220318   0.604   4.658   4.997 -0.7294 -0.3610  3.4553
 5138SOL    HW320319   0.604   4.809   5.010 -1.2534 -0.1113  1.0387
 5138SOL    MW420320   0.644   4.732   5.018 -0.3606  0.3175  0.7857
 5139SOL     OW20321   2.885   2.273   2.922 -0.1003  0.9209  0.3867
 5139SOL    HW220322   2.951   2.248   2.857  0.0444  1.3853  0.3495
 5139SOL    HW320323   2.823   2.328   2.874 -1.4732 -0.8652  0.0016
 5139SOL    MW420324   2.886   2.277   2.907 -0.2623  0.7465  0.3310
 5140SOL     OW20325   2.408   0.266   1.918  0.3189 -0.1369 -0.4947
 5140SOL    HW220326   2.440   0.217   1.993 -0.2460 -1.6686 -1.2095
 5140SOL    HW320327   2.483   0.273   1.860  0.2796 -0.6194 -0.6101
 5140SOL    MW420328   2.422   0.261   1.920  0.2392 -0.4027 -0.6042
 5141SOL     OW20329   3.558   0.538   3.072 -0.8945 -0.2333  0.6897
 5141SOL    HW220330   3.498   0.607   3.044 -0.6261 -0.1369  0.3421
 5141SOL    HW320331   3.507   0.457   3.064 -0.3108 -0.4375 -1.8162
 5141SOL    MW420332   3.544   0.537   3.067 -0.7820 -0.2475  0.3132
 5142SOL     OW20333   5.804   1.012   1.888 -0.6846 -0.3344 -0.1131
 5142SOL    HW220334   5.728   1.008   1.946  0.7604 -1.7478  1.8181
 5142SOL    HW320335   5.859   1.081   1.925  0.4992 -1.6089  0.5875
 5142SOL    MW420336   5.801   1.021   1.900 -0.3377 -0.6890  0.2341
 5143SOL     OW20337   0.779   5.533   4.968  0.3463  0.2280  0.5209
 5143SOL    HW220338   0.788   5.575   4.882 -0.2185 -0.0354  0.3324
 5143SOL    HW320339   0.686   5.514   4.976  0.1474  1.5278  1.7944
 5143SOL    MW420340   0.768   5.536   4.958  0.2456  0.3648  0.6640
 5144SOL     OW20341   4.878   1.622   3.404 -0.4698  0.0052 -0.2917
 5144SOL    HW220342   4.882   1.716   3.420 -0.5686  0.0856 -0.7128
 5144SOL    HW320343   4.845   1.615   3.314  0.4745 -0.4140 -0.6102
 5144SOL    MW420344   4.874   1.634   3.394 -0.3582 -0.0395 -0.3893
 5145SOL     OW20345   2.387   6.391   4.933  0.1480 -0.2532 -0.3382
 5145SOL    HW220346   2.387   6.368   4.840  0.6614  2.6897 -1.1951
 5145SOL    HW320347   2.322   6.462   4.940 -0.4120 -0.8806  1.7346
 5145SOL    MW420348   2.378   6.398   4.922  0.1418  0.0523 -0.1778
 5146SOL     OW20349   3.813   1.554   1.621 -0.2627 -0.0164 -0.0468
 5146SOL    HW220350   3.721   1.578   1.607  0.4668  5.6286  2.2725
 5146SOL    HW320351   3.812   1.499   1.699 -1.6686  0.3997  0.2557
 5146SOL    MW420352   3.801   1.550   1.629 -0.3520  0.7833  0.2991
 5147SOL     OW20353   2.307   2.346   0.088  1.1741  0.5916  0.1577
 5147SOL    HW220354   2.269   2.433   0.072  0.4366  0.1375 -0.6061
 5147SOL    HW320355   2.356   2.327   0.008 -0.1018 -0.4226 -0.4268
 5147SOL    MW420356   2.308   2.355   0.075  0.9084  0.3979 -0.0202
 5148SOL     OW20357   6.401   5.828   3.131 -0.0021 -0.3218 -0.0329
 5148SOL    HW220358   6.421   5.747   3.177  0.1809  0.3478  1.1232
 5148SOL    HW320359   6.307   5.825   3.117 -0.3314  0.1059  1.7654
 5148SOL    MW420360   6.391   5.817   3.136 -0.0214 -0.1770  0.3569
 5149SOL     OW20361   1.024   4.852   5.520  0.0153 -0.2153 -0.4513
 5149SOL    HW220362   1.061   4.796   5.451  0.1708 -1.3322  0.5072
 5149SOL    HW320363   1.062   4.819   5.601  0.0298  1.2443  0.1623
 5149SOL    MW420364   1.034   4.840   5.522  0.0377 -0.1701 -0.2439
 5150SOL     OW20365   5.996   0.993   5.878  0.6714 -1.0975  0.3958
 5150SOL    HW220366   5.982   0.944   5.959  1.9128 -0.7243  0.8594
 5150SOL    HW320367   6.080   1.036   5.890 -0.3424  1.1556  0.0067
 5150SOL    MW420368   6.005   0.992   5.890  0.7014 -0.7510  0.4056
 5151SOL     OW20369   0.817   4.994   1.510  0.5264 -0.5144  0.1872
 5151SOL    HW220370   0.839   5.060   1.576  3.8874  0.3179 -1.5301
 5151SOL    HW320371   0.900   4.951   1.491 -0.2568 -0.7688 -3.3958
 5151SOL    MW420372   0.831   4.997   1.516  0.8665 -0.4382 -0.5121
 5152SOL     OW20373   3.658   0.804   0.937 -0.4108 -0.1776 -0.1033
 5152SOL    HW220374   3.606   0.884   0.936  1.0045  0.7825  0.0615
 5152SOL    HW320375   3.697   0.801   1.024 -0.0682 -0.7884 -0.2691
 5152SOL    MW420376   3.656   0.814   0.948 -0.1788 -0.1315 -0.1034
 5153SOL     OW20377   6.301   5.640   5.171 -0.5241 -0.1882  0.1992
 5153SOL    HW220378   6.296   5.586   5.092 -2.4494  1.0516 -0.6215
 5153SOL    HW320379   6.239   5.599   5.232  1.4502 -1.5388  1.4071
 5153SOL    MW420380   6.292   5.627   5.169 -0.5177 -0.2028  0.2503
 5154SOL     OW20381   3.278   0.861   6.406  0.4736 -0.1557  0.3092
 5154SOL    HW220382   3.323   0.866   6.491  0.7493 -0.7229  0.2031
 5154SOL    HW320383   3.263   0.767   6.394  1.0471 -0.1375 -0.5911
 5154SOL    MW420384   3.282   0.849   6.416  0.5856 -0.2282  0.1764
 5155SOL     OW20385   4.198   5.587   2.340  0.1663 -0.0910 -0.1759
 5155SOL    HW220386   4.186   5.515   2.402  0.7202  0.1238  0.1932
 5155SOL    HW320387   4.111   5.603   2.305  0.3989 -2.6998 -2.2688
 5155SOL    MW420388   4.185   5.580   2.344  0.2701 -0.4069 -0.4033
 5156SOL     OW20389   1.770   3.764   3.273 -0.7408  0.3768 -0.0174
 5156SOL    HW220390   1.771   3.847   3.226 -0.0349  0.2739 -0.1986
 5156SOL    HW320391   1.852   3.764   3.324  0.0734 -0.8867 -1.2568
 5156SOL    MW420392   1.781   3.775   3.274 -0.5402  0.1965 -0.2049
 5157SOL     OW20393   4.938   0.850   4.228  0.0533 -0.1627 -0.1333
 5157SOL    HW220394   4.868   0.809   4.279  1.2828 -0.4049  1.4275
 5157SOL    HW320395   4.892   0.904   4.163 -1.6035  0.4427  1.4570
 5157SOL    MW420396   4.922   0.852   4.226 -0.0030 -0.1148  0.2824
 5158SOL     OW20397   4.323   4.622   4.544  0.4739  0.6476  0.0852
 5158SOL    HW220398   4.279   4.678   4.479  1.0441  1.0374  0.0313
 5158SOL    HW320399   4.257   4.610   4.612 -0.4170 -0.4307 -0.9250
 5158SOL    MW420400   4.308   4.628   4.544  0.4316  0.5567 -0.0552
 5159SOL     OW20401   0.379   2.013   2.397 -0.0328 -0.3623 -0.9369
 5159SOL    HW220402   0.339   2.057   2.472  2.6915  2.2257 -0.8503
 5159SOL    HW320403   0.318   2.028   2.325 -0.8265  0.5462 -0.1059
 5159SOL    MW420404   0.366   2.021   2.397  0.2219  0.0990 -0.8158
 5160SOL     OW20405   4.637   4.247   6.237 -0.1410  0.4707 -0.8039
 5160SOL    HW220406   4.595   4.318   6.285 -0.3889  0.3228 -0.7996
 5160SOL    HW320407   4.645   4.176   6.301 -0.1625  0.3905 -0.8900
 5160SOL    MW420408   4.633   4.247   6.252 -0.1765  0.4406 -0.8147
 5161SOL     OW20409   1.742   5.740   3.398 -0.2135 -0.0846 -0.3422
 5161SOL    HW220410   1.698   5.784   3.471  0.5746 -0.1106  0.1581
 5161SOL    HW320411   1.763   5.811   3.337 -0.8705 -0.0622 -0.5522
 5161SOL    MW420412   1.739   5.756   3.399 -0.1962 -0.0851 -0.3039
 5162SOL     OW20413   4.050   4.909   4.952 -0.1656 -0.0777  0.1689
 5162SOL    HW220414   4.041   4.972   5.023 -1.6484 -0.6319  0.5085
 5162SOL    HW320415   3.973   4.925   4.896  0.1411 -0.6958 -0.4459
 5162SOL    MW420416   4.038   4.920   4.954 -0.3208 -0.2324  0.1326
 5163SOL     OW20417   1.593   3.190   5.754 -0.6178 -0.0508 -0.1393
 5163SOL    HW220418   1.674   3.214   5.797  0.0321 -0.5927 -1.0307
 5163SOL    HW320419   1.565   3.270   5.709  0.0023 -0.1420 -0.7093
 5163SOL    MW420420   1.600   3.204   5.754 -0.4502 -0.1343 -0.3321
 5164SOL     OW20421   4.377   1.209   5.852 -0.5151  0.1695  0.5097
 5164SOL    HW220422   4.354   1.230   5.942 -1.0411  0.7940  0.2381
 5164SOL    HW320423   4.418   1.123   5.857 -0.2482  0.3373  1.3836
 5164SOL    MW420424   4.380   1.200   5.864 -0.5493  0.2740  0.5892
 5165SOL     OW20425   4.613   4.226   1.949 -0.0010 -0.2064 -0.0325
 5165SOL    HW220426   4.700   4.264   1.960 -0.4292  0.5586  0.8176
 5165SOL    HW320427   4.629   4.132   1.940  1.0744  0.1306 -2.1645
 5165SOL    MW420428   4.627   4.218   1.950  0.0844 -0.0610 -0.2016
 5166SOL     OW20429   1.337   6.332   0.607 -0.0865  0.1124 -0.7057
 5166SOL    HW220430   1.377   6.301   0.688 -0.2574  1.6331 -0.0103
 5166SOL    HW320431   1.243   6.334   0.626 -0.0861  0.9642 -0.7455
 5166SOL    MW420432   1.330   6.328   0.620 -0.1090  0.4254 -0.6192
 5167SOL     OW20433   1.081   3.086   6.129 -0.2859 -0.1124 -0.0222
 5167SOL    HW220434   1.088   3.003   6.175  1.8577 -0.7640 -1.3726
 5167SOL    HW320435   1.037   3.065   6.046  0.5282  0.0316 -0.4979
 5167SOL    MW420436   1.076   3.073   6.124  0.1043 -0.1794 -0.2631
 5168SOL     OW20437   5.259   6.054   5.723 -0.7132  0.3269  0.2672
 5168SOL    HW220438   5.313   6.130   5.703  0.3104 -0.4544  0.0099
 5168SOL    HW320439   5.314   5.998   5.777 -1.2775 -0.4619  0.0466
 5168SOL    MW420440   5.273   6.057   5.727 -0.6526  0.1197  0.2042
 5169SOL     OW20441   3.367   1.299   4.724 -0.2101 -0.0770  0.8433
 5169SOL    HW220442   3.460   1.277   4.725 -0.3125 -0.7599 -1.0613
 5169SOL    HW320443   3.363   1.384   4.680 -0.5763 -0.8306 -0.6659
 5169SOL    MW420444   3.378   1.307   4.718 -0.2719 -0.2666  0.3929
 5170SOL     OW20445   2.152   2.793   3.059 -0.0579  0.1585 -0.0973
 5170SOL    HW220446   2.063   2.768   3.034  0.1923 -0.1645 -0.6704
 5170SOL    HW320447   2.206   2.717   3.038  0.1822 -0.1153  1.3830
 5170SOL    MW420448   2.147   2.780   3.053  0.0068  0.0798  0.0224
 5171SOL     OW20449   2.754   1.605   0.522  0.4689 -0.0682 -0.3933
 5171SOL    HW220450   2.799   1.668   0.579 -0.0871  0.5658 -0.6569
 5171SOL    HW320451   2.817   1.533   0.513  1.2586  0.6099 -0.3956
 5171SOL    MW420452   2.768   1.604   0.528  0.4998  0.1049 -0.4284
 5172SOL     OW20453   3.773   4.551   4.773  0.2714 -0.4230 -0.0595
 5172SOL    HW220454   3.772   4.600   4.855 -0.1406  1.8417 -1.3148
 5172SOL    HW320455   3.854   4.500   4.775  1.3057  1.1844  0.8786
 5172SOL    MW420456   3.783   4.551   4.784  0.3535  0.0879 -0.1013
 5173SOL     OW20457   6.394   0.801   4.034 -0.8831  0.2990 -0.3058
 5173SOL    HW220458   6.349   0.813   4.117  0.7327  1.8138  0.4026
 5173SOL    HW320459   6.474   0.852   4.042  0.7142 -1.8199 -1.7306
 5173SOL    MW420460   6.399   0.809   4.046 -0.4591  0.2193 -0.4003
 5174SOL     OW20461   3.521   1.898   3.359  0.0905  0.1910  0.2105
 5174SOL    HW220462   3.584   1.874   3.427  1.2543  0.9842 -0.5501
 5174SOL    HW320463   3.497   1.815   3.318  1.5502 -0.0496 -0.2316
 5174SOL    MW420464   3.526   1.884   3.362  0.4366  0.2639  0.0518
 5175SOL     OW20465   1.083   4.341   0.710 -0.0963 -0.3354 -0.0517
 5175SOL    HW220466   1.045   4.419   0.669 -0.6539 -0.4142  0.3002
 5175SOL    HW320467   1.020   4.272   0.691  0.8135 -0.8998 -1.1069
 5175SOL    MW420468   1.069   4.342   0.702 -0.0498 -0.4203 -0.1445
 5176SOL     OW20469   5.515   2.754   5.980  0.3987  0.2973  0.0931
 5176SOL    HW220470   5.508   2.678   6.037 -3.1054  0.4609  0.0739
 5176SOL    HW320471   5.448   2.741   5.913 -0.8217  3.6456  0.4607
 5176SOL    MW420472   5.506   2.742   5.979 -0.2246  0.7607  0.1391
 5177SOL     OW20473   1.355   3.054   5.902  0.1138  0.3998 -0.9707
 5177SOL    HW220474   1.365   3.134   5.953 -1.9061  0.1277 -0.0214
 5177SOL    HW320475   1.401   3.071   5.820  1.0254  1.9350 -0.1877
 5177SOL    MW420476   1.363   3.067   5.898 -0.0324  0.5665 -0.7421
 5178SOL     OW20477   4.469   2.488   4.562  0.4016 -0.0579  0.7990
 5178SOL    HW220478   4.547   2.506   4.615 -0.8150  3.4085  1.6956
 5178SOL    HW320479   4.405   2.453   4.625  0.4831 -0.7040  0.5337
 5178SOL    MW420480   4.471   2.486   4.577  0.2518  0.3142  0.8823
 5179SOL     OW20481   2.255   1.799   3.490  0.3456 -0.0592  0.0934
 5179SOL    HW220482   2.282   1.891   3.487 -0.3539  0.1652  0.6149
 5179SOL    HW320483   2.219   1.787   3.577  3.2289 -1.6346  1.2025
 5179SOL    MW420484   2.254   1.810   3.501  0.6337 -0.2375  0.3086
 5180SOL     OW20485   1.265   2.645   5.203 -0.6131  0.2582 -0.1754
 5180SOL    HW220486   1.257   2.736   5.234 -2.8039 -0.0490  0.3468
 5180SOL    HW320487   1.278   2.594   5.282 -1.0831 -0.0301 -0.2782
 5180SOL    MW420488   1.265   2.651   5.217 -0.9642  0.1797 -0.1200
 5181SOL     OW20489   2.549   5.503   1.870 -0.3273 -0.2991  0.2424
 5181SOL    HW220490   2.641   5.508   1.898 -0.3281  0.0624  0.1812
 5181SOL    HW320491   2.542   5.417   1.830  0.0300 -0.2658  0.1022
 5181SOL    MW420492   2.560   5.492   1.868 -0.2803 -0.2470  0.2158
 5182SOL     OW20493   6.154   4.282   5.130 -0.1945  0.1271 -0.0688
 5182SOL    HW220494   6.210   4.321   5.063 -0.2770  0.2734 -0.0530
 5182SOL    HW320495   6.072   4.264   5.084  0.6055 -2.2371 -0.7188
 5182SOL    MW420496   6.150   4.285   5.115 -0.0998 -0.1655 -0.1525
 5183SOL     OW20497   0.915   5.455   3.541 -0.1476  0.1289 -0.2160
 5183SOL    HW220498   0.966   5.529   3.509 -2.2389  1.0587 -1.6570
 5183SOL    HW320499   0.901   5.473   3.634 -0.1621  1.2890 -0.4262
 5183SOL    MW420500   0.920   5.467   3.549 -0.4254  0.4046 -0.4338
 5184SOL     OW20501   3.150   5.587   0.620  0.2514 -0.1810  0.3133
 5184SOL    HW220502   3.085   5.655   0.603 -0.6464 -0.7537  1.2682
 5184SOL    HW320503   3.100   5.505   0.616  1.1106 -0.7096  0.1555
 5184SOL    MW420504   3.135   5.585   0.618  0.2463 -0.3263  0.4185
 5185SOL     OW20505   3.317   5.373   4.449 -0.1917  0.0465 -0.2614
 5185SOL    HW220506   3.370   5.313   4.502 -1.4597 -1.6411 -0.7941
 5185SOL    HW320507   3.378   5.409   4.385  0.6950 -0.3671  0.3288
 5185SOL    MW420508   3.332   5.370   4.448 -0.2420 -0.2307 -0.2538
 5186SOL     OW20509   5.861   5.638   1.700 -0.0665 -0.9355  0.1663
 5186SOL    HW220510   5.825   5.672   1.619  1.1148  0.8866  0.3416
 5186SOL    HW320511   5.842   5.544   1.698 -0.9394 -0.7561 -1.7148
 5186SOL    MW420512   5.854   5.630   1.689 -0.0258 -0.6715 -0.0588
 5187SOL     OW20513   2.803   3.436   4.725 -0.2162  0.2774  0.0072
 5187SOL    HW220514   2.813   3.341   4.733 -0.1484 -0.0879 -3.0596
 5187SOL    HW320515   2.875   3.472   4.777 -1.7748 -1.1437  3.4258
 5187SOL    MW420516   2.814   3.428   4.733 -0.4129  0.0417  0.0536
 5188SOL     OW20517   5.854   3.617   4.016 -0.1709  0.9800 -0.0763
 5188SOL    HW220518   5.853   3.600   3.921 -2.2879 -0.0374  0.0570
 5188SOL    HW320519   5.912   3.549   4.051  1.0720  1.7093 -0.6756
 5188SOL    MW420520   5.861   3.606   4.008 -0.2862  0.9420 -0.1378
 5189SOL     OW20521   5.840   4.415   5.161 -0.0884  0.1986  0.4214
 5189SOL    HW220522   5.811   4.441   5.073  1.1940 -1.8975 -0.7202
 5189SOL    HW320523   5.783   4.342   5.184 -0.9271  1.2300  1.7147
 5189SOL    MW420524   5.829   4.409   5.152 -0.0298  0.0581  0.4414
 5190SOL     OW20525   1.819   6.416   2.007  0.1510  0.0826 -0.4680
 5190SOL    HW220526   1.838   6.378   2.093  1.8497 -0.8527 -1.1886
 5190SOL    HW320527   1.752   6.359   1.969  1.2971 -1.1106 -0.7724
 5190SOL    MW420528   1.813   6.403   2.013  0.5263 -0.1982 -0.6033
 5191SOL     OW20529   1.240   3.530   5.366 -0.0861 -0.0486 -0.5347
 5191SOL    HW220530   1.275   3.447   5.335  0.0218 -0.7612  1.3624
 5191SOL    HW320531   1.149   3.530   5.336 -0.1354 -0.9269 -0.4128
 5191SOL    MW420532   1.233   3.519   5.358 -0.0784 -0.2585 -0.2683
 5192SOL     OW20533   1.997   4.380   5.362 -0.5665  0.2500  0.2351
 5192SOL    HW220534   2.037   4.377   5.449 -1.3659 -1.4078  0.5941
 5192SOL    HW320535   2.011   4.292   5.326  1.5377  1.4508 -2.2067
 5192SOL    MW420536   2.004   4.368   5.369 -0.3943  0.1897 -0.0397
 5193SOL     OW20537   0.458   0.427   3.610 -0.0359  0.6599 -0.5996
 5193SOL    HW220538   0.479   0.415   3.703  0.8358 -0.2251 -0.8854
 5193SOL    HW320539   0.380   0.373   3.596  0.4255 -0.0326 -0.5848
 5193SOL    MW420540   0.451   0.418   3.620  0.1400  0.4518 -0.6353
 5194SOL     OW20541   0.501   2.955   2.470  0.3217 -0.3469 -0.4531
 5194SOL    HW220542   0.512   3.049   2.484 -0.6979 -0.3535  0.4978
 5194SOL    HW320543   0.476   2.947   2.378 -0.5526  0.3966 -0.2845
 5194SOL    MW420544   0.499   2.966   2.460  0.0718 -0.2497 -0.3054
 5195SOL     OW20545   4.716   3.497   3.891 -0.2081 -0.4178  0.6865
 5195SOL    HW220546   4.675   3.410   3.894 -0.2924 -0.4378 -0.5231
 5195SOL    HW320547   4.807   3.482   3.914 -0.2721 -0.7946  0.6979
 5195SOL    MW420548   4.722   3.483   3.895 -0.2277 -0.4702  0.5284
 5196SOL     OW20549   3.206   2.337   3.709 -0.3400  0.3580 -0.8928
 5196SOL    HW220550   3.141   2.274   3.741  0.9783 -0.2504  0.7189
 5196SOL    HW320551   3.227   2.306   3.620 -0.2949 -1.0358 -0.4300
 5196SOL    MW420552   3.200   2.324   3.701 -0.1601  0.0938 -0.6191
 5197SOL     OW20553   2.786   3.051   5.392 -0.6215 -0.2595  0.2352
 5197SOL    HW220554   2.726   2.998   5.338  1.3420  0.6223 -3.1316
 5197SOL    HW320555   2.867   3.000   5.395  0.2039  0.9784 -0.1071
 5197SOL    MW420556   2.789   3.037   5.385 -0.2535  0.0201 -0.2541
 5198SOL     OW20557   4.603   2.153   5.637  0.2689 -0.4093  0.1585
 5198SOL    HW220558   4.674   2.213   5.612 -0.0802 -0.3063 -0.6172
 5198SOL    HW320559   4.646   2.068   5.645  0.8796  0.0256  1.8448
 5198SOL    MW420560   4.618   2.150   5.634  0.3034 -0.3383  0.2786
 5199SOL     OW20561   2.214   3.126   4.332  0.0401  0.4654  0.5874
 5199SOL    HW220562   2.259   3.203   4.298  0.3063 -0.6502 -1.7607
 5199SOL    HW320563   2.125   3.155   4.348  0.3407  1.4523  0.5389
 5199SOL    MW420564   2.208   3.140   4.330  0.1149  0.4484  0.2712
 5200SOL     OW20565   0.038   6.092   3.040 -0.6306 -0.0003  0.0442
 5200SOL    HW220566   0.132   6.075   3.035 -0.5956  0.4648 -1.1940
 5200SOL    HW320567  -0.001   6.007   3.062  0.3917  0.6398  5.9742
 5200SOL    MW420568   0.045   6.078   3.042 -0.4911  0.1455  0.6632
 5201SOL     OW20569   4.606   4.314   0.231 -0.0893 -0.0885  0.1529
 5201SOL    HW220570   4.692   4.301   0.190  0.8123 -0.7359  2.1291
 5201SOL    HW320571   4.547   4.332   0.158  1.8282  0.9919 -1.2206
 5201SOL    MW420572   4.610   4.315   0.216  0.2827 -0.0313  0.2325
 5202SOL     OW20573   3.228   1.799   5.788  0.3973 -0.1541  0.0170
 5202SOL    HW220574   3.162   1.811   5.720  1.0934  0.8422 -0.5145
 5202SOL    HW320575   3.288   1.733   5.752 -0.0348 -0.7108  0.3008
 5202SOL    MW420576   3.227   1.792   5.774  0.4322 -0.0961 -0.0157
 5203SOL     OW20577   3.140   5.856   4.213  0.1951 -0.4414 -0.1484
 5203SOL    HW220578   3.095   5.940   4.212 -1.6520 -1.3729 -1.3810
 5203SOL    HW320579   3.077   5.795   4.176  1.1782 -2.5428  1.4123
 5203SOL    MW420580   3.125   5.859   4.208  0.0811 -0.8416 -0.1051
 5204SOL     OW20581   6.077   4.527   0.840  0.0765  0.2317  0.3900
 5204SOL    HW220582   6.124   4.597   0.884  3.4752 -0.6751 -1.4235
 5204SOL    HW320583   6.120   4.446   0.871 -0.0905 -0.6424 -1.5061
 5204SOL    MW420584   6.089   4.525   0.850  0.5028 -0.0032 -0.0994
 5205SOL     OW20585   0.666   3.946   2.437 -0.0852 -0.0417  0.2663
 5205SOL    HW220586   0.690   4.035   2.462 -2.5747  1.0039 -0.7933
 5205SOL    HW320587   0.606   3.956   2.363  0.5963 -2.6769 -0.7851
 5205SOL    MW420588   0.661   3.959   2.430 -0.3237 -0.2514 -0.0122
 5206SOL     OW20589   0.657   3.631   1.620  0.3131 -0.0988  0.2592
 5206SOL    HW220590   0.652   3.651   1.527  2.1585  1.5774  0.4500
 5206SOL    HW320591   0.609   3.703   1.663  0.3821 -0.2788  0.6457
 5206SOL    MW420592   0.650   3.643   1.614  0.5657  0.0986  0.3354
 5207SOL     OW20593   5.258   0.939   2.688  0.2264 -0.3851 -0.1825
 5207SOL    HW220594   5.178   0.944   2.740  0.8017 -1.1356  0.7881
 5207SOL    HW320595   5.238   0.992   2.610 -0.8815  0.1998  0.4650
 5207SOL    MW420596   5.245   0.947   2.684  0.1562 -0.4069  0.0310
 5208SOL     OW20597   0.275   3.611   0.587 -0.4150 -0.1962 -0.4064
 5208SOL    HW220598   0.358   3.581   0.549  1.0357  1.7774  1.0188
 5208SOL    HW320599   0.294   3.621   0.680 -2.2743  0.3356 -0.0504
 5208SOL    MW420600   0.288   3.608   0.594 -0.4689  0.1344 -0.1714
 5209SOL     OW20601   0.996   1.656   5.092  0.0930  0.2167 -0.2544
 5209SOL    HW220602   0.915   1.675   5.046 -0.5705 -0.1731  0.7302
 5209SOL    HW320603   1.014   1.564   5.073  0.7150  0.4988 -1.0783
 5209SOL    MW420604   0.988   1.646   5.084  0.0875  0.2025 -0.2332
 5210SOL     OW20605   3.270   1.838   5.304  0.2187  0.0698  0.3206
 5210SOL    HW220606   3.336   1.819   5.238  0.5365  0.2167  0.5962
 5210SOL    HW320607   3.204   1.889   5.258 -0.4570 -1.3197 -0.3384
 5210SOL    MW420608   3.270   1.842   5.289  0.1715 -0.0941  0.2700
 5211SOL     OW20609   4.921   3.853   2.750 -0.2113  0.3767 -0.3644
 5211SOL    HW220610   4.837   3.836   2.792  0.2277  0.3179  0.5117
 5211SOL    HW320611   4.906   3.931   2.697 -0.4669  1.1842  0.8617
 5211SOL    MW420612   4.908   3.861   2.749 -0.1871  0.4755 -0.0870
 5212SOL     OW20613   3.655   4.428   3.269  0.4319  0.4494  0.0120
 5212SOL    HW220614   3.733   4.478   3.294  1.1182 -1.3952  1.9054
 5212SOL    HW320615   3.583   4.471   3.316  0.2939  1.9943 -1.5226
 5212SOL    MW420616   3.656   4.440   3.279  0.5043  0.4099  0.0593
 5213SOL     OW20617   1.136   5.595   5.172  0.5191  0.7541  0.2978
 5213SOL    HW220618   1.066   5.660   5.166  1.4709  1.8547  0.7249
 5213SOL    HW320619   1.105   5.532   5.238 -0.7768  0.2578 -0.7210
 5213SOL    MW420620   1.123   5.595   5.180  0.4737  0.8338  0.2197
 5214SOL     OW20621   0.782   6.387   3.473  0.6487  0.0873  0.7260
 5214SOL    HW220622   0.768   6.482   3.468  1.8279  0.2473  0.0942
 5214SOL    HW320623   0.809   6.362   3.385  0.2698 -0.8617  0.8678
 5214SOL    MW420624   0.784   6.397   3.461  0.7543 -0.0168  0.6614
 5215SOL     OW20625   2.868   3.163   4.107  0.0608 -0.1179 -0.6351
 5215SOL    HW220626   2.950   3.210   4.124 -0.3720  0.0851  1.0169
 5215SOL    HW320627   2.868   3.091   4.170 -0.5382 -0.7513 -1.3438
 5215SOL    MW420628   2.879   3.160   4.118 -0.0753 -0.1747 -0.5106
 5216SOL     OW20629   5.350   4.131   5.903  0.2888 -0.2595  0.0696
 5216SOL    HW220630   5.351   4.225   5.887  0.5990 -0.6392 -2.6777
 5216SOL    HW320631   5.264   4.113   5.940 -0.9040  0.7948 -2.0348
 5216SOL    MW420632   5.339   4.141   5.906  0.1724 -0.1705 -0.5705
 5217SOL     OW20633   2.555   6.026   3.497 -0.4824 -0.5142 -0.3949
 5217SOL    HW220634   2.634   5.998   3.450 -0.6090 -2.6162  0.5569
 5217SOL    HW320635   2.519   6.096   3.443  1.4478 -0.2371 -1.4082
 5217SOL    MW420636   2.561   6.032   3.483 -0.2444 -0.7550 -0.4030
 5218SOL     OW20637   2.820   5.356   1.208  0.4433  0.0127  0.2029
 5218SOL    HW220638   2.836   5.389   1.297  0.4009 -1.4495  0.7834
 5218SOL    HW320639   2.747   5.408   1.176  1.6685  1.8745  0.2647
 5218SOL    MW420640   2.813   5.367   1.216  0.5994  0.0654  0.2876
 5219SOL     OW20641   1.031   3.996   3.262  0.4798 -0.1159 -0.2086
 5219SOL    HW220642   1.123   3.968   3.268  0.9325  1.0037 -1.4418
 5219SOL    HW320643   1.027   4.078   3.311 -0.3276 -1.1203  1.4757
 5219SOL    MW420644   1.043   4.003   3.269  0.4330 -0.1007 -0.1491
 5220SOL     OW20645   1.401   5.277   6.477  0.0511  0.1218 -0.4731
 5220SOL    HW220646   1.313   5.302   6.449  0.3127  2.6163  0.6415
 5220SOL    HW320647   1.388   5.193   6.522 -1.8415  0.6107  0.0135
 5220SOL    MW420648   1.387   5.269   6.479 -0.1641  0.5155 -0.2618
 5221SOL     OW20649   1.700   1.188   0.532 -0.2241 -0.0195  1.1894
 5221SOL    HW220650   1.654   1.268   0.558 -0.3272  0.5489 -0.5973
 5221SOL    HW320651   1.636   1.118   0.546 -1.4866  0.6877 -0.6930
 5221SOL    MW420652   1.685   1.189   0.537 -0.4043  0.1488  0.7053
 5222SOL     OW20653   1.485   6.162   1.409 -0.1783  0.0416 -0.0434
 5222SOL    HW220654   1.485   6.253   1.439  1.6901 -0.3395  1.2917
 5222SOL    HW320655   1.549   6.160   1.338 -0.3827 -0.1948 -0.2209
 5222SOL    MW420656   1.494   6.174   1.404  0.0413 -0.0399  0.1093
 5223SOL     OW20657   0.211   4.733   6.290 -0.1854  0.1278 -0.1376
 5223SOL    HW220658   0.226   4.811   6.344 -2.1083  1.2001 -1.0517
 5223SOL    HW320659   0.193   4.767   6.203 -0.7997 -1.3591 -0.6247
 5223SOL    MW420660   0.211   4.748   6.286 -0.5201  0.0731 -0.3225
 5224SOL     OW20661   2.136   0.962   3.900 -0.2479 -0.0628 -0.3507
 5224SOL    HW220662   2.200   1.024   3.934 -0.9716  1.3641 -1.4753
 5224SOL    HW320663   2.110   0.999   3.815 -0.3030 -2.1871 -1.3269
 5224SOL    MW420664   2.141   0.975   3.893 -0.3507 -0.1548 -0.6279
 5225SOL     OW20665   3.674   5.999   0.220  0.0445 -0.1439 -0.0672
 5225SOL    HW220666   3.675   5.951   0.303  0.2952 -0.6413 -0.3542
 5225SOL    HW320667   3.682   5.931   0.153 -0.7055  0.2032 -0.5206
 5225SOL    MW420668   3.675   5.984   0.222 -0.0214 -0.1637 -0.1649
 5226SOL     OW20669   6.388   2.898   4.750 -0.1187 -0.8401  0.7573
 5226SOL    HW220670   6.479   2.914   4.775 -0.3864  0.8476  0.7718
 5226SOL    HW320671   6.363   2.976   4.701 -1.4632 -1.4323  0.4622
 5226SOL    MW420672   6.396   2.910   4.747 -0.3314 -0.6955  0.7203
 5227SOL     OW20673   6.052   4.385   5.396  0.8069 -0.3929  0.3581
 5227SOL    HW220674   6.057   4.359   5.304 -0.4621 -1.0625  0.4627
 5227SOL    HW320675   5.971   4.435   5.402  1.2704  0.2940  0.9645
 5227SOL    MW420676   6.042   4.388   5.385  0.7007 -0.3906  0.4519
 5228SOL     OW20677   5.561   5.408   0.964  0.2243  0.6517  0.0215
 5228SOL    HW220678   5.609   5.350   0.905  1.8876  0.7341  1.2259
 5228SOL    HW320679   5.497   5.452   0.907  2.0007  1.0166 -1.7964
 5228SOL    MW420680   5.559   5.406   0.949  0.6782  0.7107 -0.0594
 5229SOL     OW20681   0.450   5.129   6.313  0.1228  0.0838 -0.4564
 5229SOL    HW220682   0.535   5.089   6.295  1.1902  2.0398 -0.0837
 5229SOL    HW320683   0.397   5.059   6.350  2.5385 -0.5544  2.0941
 5229SOL    MW420684   0.454   5.115   6.315  0.5823  0.2577 -0.0707
 5230SOL     OW20685   2.230   2.325   4.904  0.5478 -0.5242  0.1412
 5230SOL    HW220686   2.307   2.280   4.939  0.0014 -0.5011  1.4349
 5230SOL    HW320687   2.226   2.407   4.953 -0.4837 -0.6771  0.3431
 5230SOL    MW420688   2.239   2.330   4.915  0.3396 -0.5413  0.3385
 5231SOL     OW20689   0.926   2.296   0.367  0.1901  0.0817  0.0054
 5231SOL    HW220690   0.859   2.229   0.354  1.1647 -0.8744 -0.2524
 5231SOL    HW320691   0.892   2.349   0.439 -1.2219  0.1406 -0.6549
 5231SOL    MW420692   0.912   2.294   0.375  0.1324 -0.0367 -0.1157
 5232SOL     OW20693   5.367   4.947   1.592 -0.0071  0.3167 -0.1751
 5232SOL    HW220694   5.338   4.945   1.683 -0.4214  2.9885 -0.1771
 5232SOL    HW320695   5.462   4.940   1.597  0.0437  1.3110  0.5659
 5232SOL    MW420696   5.376   4.946   1.605 -0.0551  0.8004 -0.0776
 5233SOL     OW20697   6.064   6.081   4.873  0.1363  0.1845 -0.1986
 5233SOL    HW220698   6.153   6.071   4.838  0.3552  1.9553 -0.2381
 5233SOL    HW320699   6.010   6.102   4.796 -0.3768 -1.0563 -0.2040
 5233SOL    MW420700   6.068   6.082   4.858  0.0975  0.2544 -0.2045
 5234SOL     OW20701   0.113   2.977   0.142 -0.2432 -0.1086 -0.8370
 5234SOL    HW220702   0.140   3.041   0.076 -2.2259  0.0579 -1.5612
 5234SOL    HW320703   0.020   2.961   0.124 -1.4484  1.3123  2.9614
 5234SOL    MW420704   0.104   2.984   0.131 -0.6638  0.1009 -0.4314
 5235SOL     OW20705   0.037   2.015   3.868  0.0438  0.1019 -0.1687
 5235SOL    HW220706  -0.049   2.019   3.909  0.9204  0.4550  1.7852
 5235SOL    HW320707   0.077   1.937   3.905  0.5307 -0.1226 -1.1440
 5235SOL    MW420708   0.031   2.005   3.878  0.2237  0.1188 -0.0396
 5236SOL     OW20709   0.415   1.176   2.536 -0.0293  0.1355 -0.2568
 5236SOL    HW220710   0.484   1.238   2.513  0.1417  0.0201 -0.0595
 5236SOL    HW320711   0.412   1.178   2.632  0.3978 -0.6116 -0.2178
 5236SOL    MW420712   0.423   1.184   2.546  0.0496  0.0217 -0.2256
 5237SOL     OW20713   0.908   1.520   6.079 -0.0475 -0.3912  0.5072
 5237SOL    HW220714   0.832   1.480   6.038  0.0023 -0.3132  0.3376
 5237SOL    HW320715   0.966   1.446   6.098 -0.4768 -0.5310  1.3038
 5237SOL    MW420716   0.906   1.505   6.076 -0.0976 -0.3994  0.5899
 5238SOL     OW20717   6.364   4.892   5.205 -0.2385 -0.1526  0.0286
 5238SOL    HW220718   6.439   4.944   5.233  1.4395 -2.7059  0.7148
 5238SOL    HW320719   6.326   4.940   5.132  2.1526  1.2118 -0.4275
 5238SOL    MW420720   6.369   4.905   5.199  0.2984 -0.3094  0.0590
 5239SOL     OW20721   6.322   4.412   4.271  0.1477  0.0621 -0.0255
 5239SOL    HW220722   6.399   4.469   4.267  1.4775 -1.6255  0.6343
 5239SOL    HW320723   6.346   4.336   4.218 -1.2476 -0.3140 -0.1461
 5239SOL    MW420724   6.335   4.410   4.263  0.1390 -0.2102  0.0456
 5240SOL     OW20725   5.682   5.555   6.109  0.4281  0.9300  0.0692
 5240SOL    HW220726   5.641   5.641   6.119  1.0577  1.1444  0.8054
 5240SOL    HW320727   5.770   5.574   6.078  0.5079  0.5397  0.0567
 5240SOL    MW420728   5.688   5.569   6.106  0.5217  0.9068  0.1647
 5241SOL     OW20729   5.504   2.286   3.504  0.4843 -0.8769  0.3292
 5241SOL    HW220730   5.589   2.296   3.460  0.9279 -0.3152  1.2829
 5241SOL    HW320731   5.446   2.345   3.457  0.6185 -1.2308 -0.3034
 5241SOL    MW420732   5.508   2.295   3.492  0.5606 -0.8495  0.3715
 5242SOL     OW20733   4.546   2.808   6.216 -0.4304  0.4539  0.1793
 5242SOL    HW220734   4.534   2.770   6.303  1.1917  1.8173  1.0717
 5242SOL    HW320735   4.491   2.886   6.216  0.6780  1.2641  0.5746
 5242SOL    MW420736   4.537   2.814   6.227 -0.0701  0.7407  0.3492
 5243SOL     OW20737   1.967   4.380   0.879  0.1608  0.2522 -0.5299
 5243SOL    HW220738   2.049   4.429   0.887  1.4067 -1.3853 -2.3006
 5243SOL    HW320739   1.927   4.387   0.965  1.4889  2.2406 -0.0049
 5243SOL    MW420740   1.973   4.387   0.891  0.5004  0.2985 -0.6943
 5244SOL     OW20741   5.146   4.225   3.414  0.5578 -0.2902  0.1204
 5244SOL    HW220742   5.198   4.208   3.335  0.0360  0.6050 -0.4358
 5244SOL    HW320743   5.055   4.211   3.386  0.2933  1.0232  0.2684
 5244SOL    MW420744   5.141   4.221   3.400  0.4540  0.0012  0.0665
 5245SOL     OW20745   2.036   4.158   2.854  0.4451 -0.0197  0.0171
 5245SOL    HW220746   1.958   4.162   2.910  0.2836  1.2653 -0.2615
 5245SOL    HW320747   2.104   4.122   2.911 -0.1977 -0.6319  0.4322
 5245SOL    MW420748   2.034   4.154   2.869  0.3390  0.0691  0.0351
 5246SOL     OW20749   3.697   0.548   0.822 -0.1587 -0.1997  0.0844
 5246SOL    HW220750   3.711   0.471   0.878  0.6799  0.2553  0.5040
 5246SOL    HW320751   3.647   0.608   0.876  2.1231  0.9656  1.0276
 5246SOL    MW420752   3.692   0.546   0.837  0.2530  0.0141  0.2642
 5247SOL     OW20753   0.054   4.026   6.325  0.0170 -0.0571  0.6643
 5247SOL    HW220754   0.052   3.953   6.387  1.1875 -0.4043  0.3316
 5247SOL    HW320755  -0.032   4.026   6.285 -0.5825 -0.1595  1.9061
 5247SOL    MW420756   0.043   4.016   6.328  0.0924 -0.1164  0.7843
 5248SOL     OW20757   2.947   6.108   6.492 -0.1945  0.5239  0.0474
 5248SOL    HW220758   2.881   6.073   6.551  0.9435 -1.1036  0.4248
 5248SOL    HW320759   2.991   6.031   6.456  0.4255  1.5211 -1.4453
 5248SOL    MW420760   2.944   6.094   6.495  0.0375  0.4407 -0.0998
 5249SOL     OW20761   3.734   0.745   1.457  0.7548  0.5686  0.8741
 5249SOL    HW220762   3.759   0.764   1.367  1.4626 -0.7872  0.7557
 5249SOL    HW320763   3.655   0.691   1.450 -1.1769  3.0962  1.2023
 5249SOL    MW420764   3.727   0.741   1.445  0.5933  0.7232  0.9018
 5250SOL     OW20765   2.875   5.680   4.304  0.4191 -0.0788  0.0059
 5250SOL    HW220766   2.865   5.746   4.373  1.4375 -0.5531  0.6396
 5250SOL    HW320767   2.930   5.612   4.344 -0.4599 -1.2359 -0.6810
 5250SOL    MW420768   2.881   5.680   4.319  0.4375 -0.2940 -0.0011
 5251SOL     OW20769   2.647   2.844   1.459  0.0825 -0.1205  0.0086
 5251SOL    HW220770   2.678   2.827   1.549  0.6124  3.8876  0.7773
 5251SOL    HW320771   2.554   2.863   1.469  0.3878  1.4843 -0.0676
 5251SOL    MW420772   2.639   2.844   1.472  0.1927  0.6201  0.0999
 5252SOL     OW20773   1.490   2.822   4.006 -0.4023  0.0856  0.2581
 5252SOL    HW220774   1.567   2.769   4.028  0.1575  0.6961 -0.2020
 5252SOL    HW320775   1.436   2.764   3.952  1.5566  0.8435 -2.7444
 5252SOL    MW420776   1.493   2.807   4.002 -0.0700  0.2661 -0.1987
 5253SOL     OW20777   5.942   3.661   3.718  0.0487  0.2147  0.2258
 5253SOL    HW220778   5.946   3.627   3.629  1.2905 -0.0270  0.3474
 5253SOL    HW320779   5.921   3.754   3.708 -1.5962 -0.1675 -0.2008
 5253SOL    MW420780   5.940   3.669   3.705 -0.0045  0.1324  0.1855
 5254SOL     OW20781   5.896   0.695   1.304 -0.1545 -0.1223  0.0522
 5254SOL    HW220782   5.944   0.615   1.282  0.6090  0.4527 -0.4197
 5254SOL    HW320783   5.959   0.747   1.354 -1.6027 -1.1039  3.1461
 5254SOL    MW420784   5.911   0.691   1.308 -0.2449 -0.1760  0.3981
 5255SOL     OW20785   2.575   1.359   1.214  0.3289  0.3544 -0.0306
 5255SOL    HW220786   2.492   1.344   1.258  0.3900  1.0145  0.3074
 5255SOL    HW320787   2.559   1.435   1.157 -0.3190 -1.5511 -2.6217
 5255SOL    MW420788   2.562   1.367   1.212  0.2515  0.1901 -0.3279
 5256SOL     OW20789   3.507   0.502   1.059 -0.3237  0.1571 -0.1687
 5256SOL    HW220790   3.552   0.504   1.144 -0.2414 -2.6086 -0.0731
 5256SOL    HW320791   3.451   0.580   1.060 -2.3728 -1.1201  3.6083
 5256SOL    MW420792   3.506   0.513   1.071 -0.5832 -0.3763  0.3423
 5257SOL     OW20793   1.672   2.456   3.614  0.2047 -0.1145  0.0366
 5257SOL    HW220794   1.709   2.450   3.526 -0.2659  0.5952 -0.2194
 5257SOL    HW320795   1.605   2.525   3.608 -1.0018 -1.1954  0.5452
 5257SOL    MW420796   1.668   2.464   3.602 -0.0166 -0.1635  0.0699
 5258SOL     OW20797   5.609   2.723   3.025  0.4010 -0.1475 -0.2737
 5258SOL    HW220798   5.614   2.787   3.095  0.9340 -0.1708 -0.2903
 5258SOL    HW320799   5.689   2.672   3.032 -0.6375 -1.7415  0.6117
 5258SOL    MW420800   5.620   2.725   3.035  0.3343 -0.3609 -0.1591
 5259SOL     OW20801   1.069   1.845   3.006  0.1096 -0.3073  0.6389
 5259SOL    HW220802   1.116   1.838   2.923 -0.6856  0.7503  0.0711
 5259SOL    HW320803   0.979   1.822   2.984 -0.7432  2.6952  0.5245
 5259SOL    MW420804   1.063   1.841   2.992 -0.1079  0.2284  0.5489
 5260SOL     OW20805   1.485   5.173   3.261  0.1902 -0.2536 -0.7333
 5260SOL    HW220806   1.504   5.213   3.176  1.7553  0.1990 -0.1960
 5260SOL    HW320807   1.465   5.246   3.318  0.3804 -0.4641 -0.3974
 5260SOL    MW420808   1.485   5.188   3.257  0.4218 -0.2217 -0.6181
 5261SOL     OW20809   2.317   4.305   1.913  0.9195 -0.0483 -0.3064
 5261SOL    HW220810   2.233   4.342   1.884 -0.3254 -1.7290  0.9750
 5261SOL    HW320811   2.344   4.249   1.840 -0.4773 -1.6120  0.3289
 5261SOL    MW420812   2.309   4.303   1.899  0.5709 -0.4763 -0.0535
 5262SOL     OW20813   3.919   4.541   4.204 -0.2152 -0.2633  0.1134
 5262SOL    HW220814   3.850   4.510   4.262 -0.4156  0.4842  0.2921
 5262SOL    HW320815   3.911   4.637   4.207  0.7583 -0.1703  0.0578
 5262SOL    MW420816   3.909   4.550   4.212 -0.1132 -0.1524  0.1296
 5263SOL     OW20817   3.021   2.103   5.822  0.0780  0.1309 -0.5971
 5263SOL    HW220818   3.090   2.103   5.755  1.3331  1.1516  0.6185
 5263SOL    HW320819   2.977   2.188   5.810  0.4678  0.4257 -0.0020
 5263SOL    MW420820   3.024   2.114   5.811  0.2950  0.3044 -0.3582
 5264SOL     OW20821   3.900   1.978   4.030 -0.2861 -0.6177  0.0156
 5264SOL    HW220822   3.828   1.999   4.089  1.1247 -0.1166  1.6321
 5264SOL    HW320823   3.857   1.954   3.948 -2.2478  1.3104  0.3739
 5264SOL    MW420824   3.885   1.978   4.027 -0.3588 -0.2972  0.2761
 5265SOL     OW20825   6.345   2.659   4.349  0.4486  0.2293 -0.0628
 5265SOL    HW220826   6.440   2.656   4.363  0.5723  2.8776  0.0819
 5265SOL    HW320827   6.325   2.577   4.304  3.0278  0.1941 -1.3276
 5265SOL    MW420828   6.355   2.648   4.345  0.8052  0.5740 -0.2106
 5266SOL     OW20829   0.397   2.130   0.736 -0.2375  0.1117 -0.1968
 5266SOL    HW220830   0.450   2.129   0.815 -1.5226  1.9139  0.7669
 5266SOL    HW320831   0.320   2.077   0.757 -0.4835  0.4253 -0.2902
 5266SOL    MW420832   0.394   2.123   0.749 -0.4395  0.3909 -0.0820
 5267SOL     OW20833   5.355   4.529   0.134  0.2171  0.0699 -0.1123
 5267SOL    HW220834   5.265   4.540   0.166  0.5956  0.1169  0.9539
 5267SOL    HW320835   5.400   4.484   0.204  0.8847 -0.5302 -0.9067
 5267SOL    MW420836   5.349   4.525   0.147  0.3551 -0.0031 -0.0764
 5268SOL     OW20837   2.760   4.223   3.350  0.2535  0.1237  0.2914
 5268SOL    HW220838   2.694   4.154   3.347 -0.2235  0.4993  1.4790
 5268SOL    HW320839   2.738   4.280   3.276  0.6735 -0.9928 -0.7151
 5268SOL    MW420840   2.748   4.222   3.340  0.2460  0.0260  0.3153
 5269SOL     OW20841   5.072   6.159   1.800 -0.5982  0.1532  0.0481
 5269SOL    HW220842   5.153   6.209   1.789 -0.9318  0.7983  0.4981
 5269SOL    HW320843   5.102   6.071   1.826 -0.0617  0.6333  1.1212
 5269SOL    MW420844   5.087   6.154   1.802 -0.5715  0.3017  0.2491
 5270SOL     OW20845   2.050   0.138   6.097  0.8494 -0.2492 -0.4029
 5270SOL    HW220846   2.119   0.116   6.035  2.2343  1.4450  0.4574
 5270SOL    HW320847   2.060   0.231   6.113 -0.7023 -0.2594  0.8987
 5270SOL    MW420848   2.060   0.147   6.091  0.8274 -0.0270 -0.1177
 5271SOL     OW20849   4.034   4.492   5.355  0.1752  0.1374 -0.3785
 5271SOL    HW220850   4.089   4.448   5.419 -0.3441  1.5932  1.1618
 5271SOL    HW320851   4.091   4.509   5.281  1.2599 -0.1161  0.3772
 5271SOL    MW420852   4.049   4.488   5.354  0.2498  0.2960 -0.0756
 5272SOL     OW20853   2.493   1.090   4.647 -0.2696 -0.8546  0.3894
 5272SOL    HW220854   2.420   1.066   4.705  0.0571 -2.0344  0.3231
 5272SOL    HW320855   2.557   1.130   4.706 -0.9861  0.2603  0.4383
 5272SOL    MW420856   2.492   1.092   4.662 -0.3210 -0.8631  0.3871
 5273SOL     OW20857   3.488   1.408   2.699  0.1613  0.4468 -0.0800
 5273SOL    HW220858   3.504   1.339   2.764  0.6495  0.1891 -0.4708
 5273SOL    HW320859   3.544   1.481   2.727 -0.8946  0.9690  0.7489
 5273SOL    MW420860   3.498   1.409   2.711  0.0864  0.4817 -0.0222
 5274SOL     OW20861   3.296   4.973   5.700 -0.2017 -0.3208 -0.3131
 5274SOL    HW220862   3.327   5.010   5.617  1.2362 -1.0376 -0.1368
 5274SOL    HW320863   3.340   5.024   5.767 -2.0603  0.8460  0.0706
 5274SOL    MW420864   3.306   4.984   5.698 -0.2572 -0.2614 -0.2392
 5275SOL     OW20865   3.243   0.962   1.371 -0.5624 -0.0929 -0.4044
 5275SOL    HW220866   3.257   0.914   1.452  2.2300  2.0463  0.5355
 5275SOL    HW320867   3.276   0.905   1.302 -0.8688 -1.0213  0.2059
 5275SOL    MW420868   3.249   0.948   1.372 -0.2344  0.0668 -0.1998
 5276SOL     OW20869   5.106   5.345   3.599 -1.1128  0.1769  0.4243
 5276SOL    HW220870   5.063   5.420   3.640 -2.3927 -0.9561  1.2580
 5276SOL    HW320871   5.088   5.354   3.506 -0.1635  1.5473  0.3465
 5276SOL    MW420872   5.098   5.356   3.592 -1.1564  0.2082  0.5241
 5277SOL     OW20873   2.477   2.256   2.668 -0.5139 -1.1437  0.3460
 5277SOL    HW220874   2.456   2.348   2.683 -1.2843 -1.3619  0.6628
 5277SOL    HW320875   2.550   2.258   2.606 -0.9617 -0.3377 -0.1805
 5277SOL    MW420876   2.483   2.269   2.662 -0.6746 -1.0661  0.3183
 5278SOL     OW20877   2.987   4.361   6.117 -0.4038  0.7740  0.5618
 5278SOL    HW220878   3.066   4.312   6.140 -0.2388  0.6555 -0.2194
 5278SOL    HW320879   3.010   4.406   6.036 -1.5214 -0.2534 -0.3774
 5278SOL    MW420880   3.000   4.360   6.109 -0.5294  0.6228  0.3348
 5279SOL     OW20881   0.482   3.772   3.377  0.0706  0.2439 -0.3351
 5279SOL    HW220882   0.464   3.736   3.464  1.6880 -0.0075 -0.0716
 5279SOL    HW320883   0.399   3.763   3.330 -1.5468  2.3927  1.8162
 5279SOL    MW420884   0.469   3.766   3.382  0.0706  0.4943 -0.0165
 5280SOL     OW20885   2.501   1.535   6.197  0.6650 -0.5701 -0.4873
 5280SOL    HW220886   2.415   1.574   6.215  0.5548 -1.2781  0.6029
 5280SOL    HW320887   2.483   1.441   6.185  1.1454 -0.5589 -1.4022
 5280SOL    MW420888   2.487   1.528   6.198  0.7139 -0.6620 -0.4642
 5281SOL     OW20889   1.063   2.136   0.532 -0.2675 -0.0626 -0.2469
 5281SOL    HW220890   1.127   2.092   0.477  0.0981  0.1804 -0.0156
 5281SOL    HW320891   1.029   2.207   0.478 -1.6848 -1.2862 -1.0417
 5281SOL    MW420892   1.067   2.139   0.518 -0.4063 -0.1920 -0.3213
 5282SOL     OW20893   3.993   2.084   0.451 -0.5467 -0.2834  0.0333
 5282SOL    HW220894   3.988   2.013   0.515  0.0009  0.6954  1.1986
 5282SOL    HW320895   4.084   2.112   0.453 -0.8479  0.7519 -0.0544
 5282SOL    MW420896   4.004   2.078   0.460 -0.5142 -0.0177  0.1754
 5283SOL     OW20897   3.462   0.513   3.895 -0.4497 -0.1264 -0.3652
 5283SOL    HW220898   3.499   0.497   3.981 -0.1228  0.9361 -0.2983
 5283SOL    HW320899   3.525   0.570   3.851 -1.9232  1.6519 -0.2792
 5283SOL    MW420900   3.475   0.519   3.900 -0.6010  0.2484 -0.3450
 5284SOL     OW20901   1.543   0.212   6.377 -0.1268  0.5588  0.2165
 5284SOL    HW220902   1.492   0.144   6.420 -0.3835 -0.6940 -1.8903
 5284SOL    HW320903   1.488   0.290   6.380 -1.1329 -0.1345  0.1051
 5284SOL    MW420904   1.529   0.213   6.383 -0.2934  0.3020 -0.0762
 5285SOL     OW20905   6.369   3.269   3.565 -0.3934 -0.3688 -0.0546
 5285SOL    HW220906   6.465   3.262   3.564 -0.3975 -0.4572  0.1134
 5285SOL    HW320907   6.341   3.225   3.485 -0.3695 -1.4879  0.5450
 5285SOL    MW420908   6.378   3.263   3.554 -0.3908 -0.5281  0.0467
 5286SOL     OW20909   4.153   2.100   0.726  0.4306  0.4846 -0.3185
 5286SOL    HW220910   4.213   2.172   0.707 -0.7389  2.0806  1.6889
 5286SOL    HW320911   4.161   2.085   0.820 -1.3998 -0.1019 -0.2113
 5286SOL    MW420912   4.162   2.107   0.736  0.0348  0.6178 -0.0395
 5287SOL     OW20913   4.268   1.235   6.103 -0.0939  0.4662  0.2297
 5287SOL    HW220914   4.246   1.162   6.162 -2.5649  1.8751  1.1954
 5287SOL    HW320915   4.336   1.283   6.149  2.2495 -1.5973 -0.8222
 5287SOL    MW420916   4.274   1.231   6.117 -0.1107  0.3798  0.2184
 5288SOL     OW20917   2.308   0.696   5.898  0.0385 -0.1673 -0.3401
 5288SOL    HW220918   2.395   0.697   5.937  1.1449 -1.0774 -2.6042
 5288SOL    HW320919   2.318   0.744   5.816 -1.4569 -0.7885 -0.9199
 5288SOL    MW420920   2.321   0.703   5.893 -0.0128 -0.3693 -0.7153
 5289SOL     OW20921   1.122   4.355   4.407  0.3093 -0.0855  0.1037
 5289SOL    HW220922   1.165   4.430   4.366 -1.4203  0.2517 -1.1822
 5289SOL    HW320923   1.141   4.281   4.349  0.0147 -0.1463  0.0827
 5289SOL    MW420924   1.131   4.355   4.394  0.0422 -0.0490 -0.0687
 5290SOL     OW20925   2.134   1.775   6.437  0.0500 -0.6145 -0.0085
 5290SOL    HW220926   2.130   1.821   6.521  0.9044 -0.3974 -0.0885
 5290SOL    HW320927   2.051   1.727   6.434  0.0922 -0.7921  1.0557
 5290SOL    MW420928   2.122   1.775   6.448  0.1683 -0.6093  0.1214
 5291SOL     OW20929   4.687   4.766   2.343 -0.1717  0.3653  0.7078
 5291SOL    HW220930   4.744   4.713   2.286 -0.4269  1.0148 -0.1738
 5291SOL    HW320931   4.734   4.849   2.353  0.0120  0.1491  1.7094
 5291SOL    MW420932   4.701   4.770   2.336 -0.1811  0.4225  0.7236
 5292SOL     OW20933   3.838   4.114   2.928  0.0165  0.4865  0.1747
 5292SOL    HW220934   3.869   4.062   3.002 -0.5120  2.6095  1.9782
 5292SOL    HW320935   3.891   4.084   2.854 -0.1972 -2.4898  1.1108
 5292SOL    MW420936   3.849   4.103   2.928 -0.0815  0.3739  0.5362
 5293SOL     OW20937   3.870   1.255   2.275  0.6179 -0.0642 -0.5134
 5293SOL    HW220938   3.791   1.302   2.248  0.4553 -0.6277 -1.0395
 5293SOL    HW320939   3.850   1.163   2.256  1.2432 -0.2516 -0.2615
 5293SOL    MW420940   3.857   1.249   2.269  0.6789 -0.1633 -0.5496
 5294SOL     OW20941   1.119   3.654   3.118  0.1917  0.5475 -0.6144
 5294SOL    HW220942   1.082   3.568   3.099 -2.1932  1.3461 -0.0461
 5294SOL    HW320943   1.114   3.701   3.035 -0.1668  0.6729 -0.5250
 5294SOL    MW420944   1.113   3.649   3.104 -0.1703  0.6694 -0.5277
 5295SOL     OW20945   3.585   3.050   1.986 -0.3683  0.4431  0.2354
 5295SOL    HW220946   3.573   2.955   1.991  0.4887  0.3417  0.6199
 5295SOL    HW320947   3.497   3.086   1.977 -0.5760 -0.5739 -3.6887
 5295SOL    MW420948   3.572   3.042   1.985 -0.2826  0.2955 -0.2316
 5296SOL     OW20949   3.494   2.342   0.976 -0.1026  0.2373 -0.0599
 5296SOL    HW220950   3.487   2.356   1.071 -3.3127 -0.7072 -0.0595
 5296SOL    HW320951   3.544   2.260   0.968 -0.6571 -0.2099  0.8699
 5296SOL    MW420952   3.500   2.333   0.988 -0.5993  0.0537  0.0628
 5297SOL     OW20953   3.979   2.201   5.048  0.4766  0.0120  0.2006
 5297SOL    HW220954   3.939   2.211   4.962 -0.2077  0.6179  0.5775
 5297SOL    HW320955   3.909   2.161   5.102  1.1408 -1.0766  0.2918
 5297SOL    MW420956   3.964   2.197   5.044  0.4739 -0.0517  0.2624
 5298SOL     OW20957   2.890   2.682   0.249 -0.4136 -0.1457 -0.0353
 5298SOL    HW220958   2.906   2.730   0.168 -0.3630  0.1870  0.1720
 5298SOL    HW320959   2.838   2.742   0.303  1.9549  0.7803  1.3399
 5298SOL    MW420960   2.885   2.696   0.246 -0.0944  0.0204  0.1735
 5299SOL     OW20961   3.134   2.217   5.554 -0.6455 -0.2593 -0.1191
 5299SOL    HW220962   3.100   2.233   5.466  2.5465 -0.0649 -1.4361
 5299SOL    HW320963   3.103   2.291   5.606 -0.0741  1.2661 -1.8730
 5299SOL    MW420964   3.125   2.229   5.550 -0.1490 -0.0324 -0.5243
 5300SOL     OW20965   3.113   1.454   3.828  0.2138  0.3511 -0.4396
 5300SOL    HW220966   3.129   1.369   3.788  1.7732  0.5344 -0.2878
 5300SOL    HW320967   3.155   1.516   3.768  1.8802  0.7023  0.9948
 5300SOL    MW420968   3.121   1.451   3.815  0.6394  0.4216 -0.2303
 5301SOL     OW20969   5.883   1.742   0.315  0.3587  0.1324 -0.0204
 5301SOL    HW220970   5.930   1.777   0.240  0.9522 -0.7594 -0.0745
 5301SOL    HW320971   5.937   1.671   0.347 -0.2978 -0.0409  0.7481
 5301SOL    MW420972   5.896   1.737   0.309  0.3504 -0.0081  0.0739
 5302SOL     OW20973   5.114   4.541   3.286  0.0208  0.1809 -0.3765
 5302SOL    HW220974   5.050   4.544   3.215 -0.7332 -1.0501  0.2090
 5302SOL    HW320975   5.062   4.519   3.364  1.0954 -0.4894  0.1731
 5302SOL    MW420976   5.099   4.538   3.287  0.0631 -0.0699 -0.2267
 5303SOL     OW20977   1.119   4.368   3.043 -0.5192  0.7225 -0.4746
 5303SOL    HW220978   1.081   4.419   2.971 -1.3719  1.1317  0.2390
 5303SOL    HW320979   1.060   4.293   3.052  0.8392 -0.5357 -1.6444
 5303SOL    MW420980   1.106   4.365   3.034 -0.4525  0.6105 -0.5348
 5304SOL     OW20981   3.536   2.200   6.168  0.2899  0.8849 -0.5037
 5304SOL    HW220982   3.557   2.195   6.075  0.7013  0.4182 -0.3881
 5304SOL    HW320983   3.620   2.211   6.211  0.1474  0.5984 -0.1495
 5304SOL    MW420984   3.550   2.200   6.161  0.3254  0.7855 -0.4417
 5305SOL     OW20985   1.257   1.605   3.096 -0.2075  0.4143 -0.3741
 5305SOL    HW220986   1.224   1.679   3.045  1.4791  1.0759 -0.5791
 5305SOL    HW320987   1.341   1.635   3.131  0.4503 -1.3357 -0.3208
 5305SOL    MW420988   1.264   1.619   3.094  0.1018  0.2707 -0.3941
 5306SOL     OW20989   5.866   0.378   1.933  0.5893 -0.4800 -0.2433
 5306SOL    HW220990   5.774   0.353   1.938  1.3494 -3.4023  3.1703
 5306SOL    HW320991   5.879   0.440   2.005  0.9084  1.9522 -2.2644
 5306SOL    MW420992   5.855   0.383   1.943  0.7317 -0.5447 -0.0596
 5307SOL     OW20993   4.740   5.701   0.577 -0.0523 -0.0166 -0.1997
 5307SOL    HW220994   4.743   5.644   0.500  0.9280  2.0046 -1.7791
 5307SOL    HW320995   4.649   5.729   0.582 -1.0701 -3.2104  1.8926
 5307SOL    MW420996   4.728   5.697   0.567 -0.0572 -0.1713 -0.1321
 5308SOL     OW20997   4.017   3.745   1.936  0.5307 -1.2009 -0.3953
 5308SOL    HW220998   3.952   3.676   1.944 -0.9013  0.0936 -0.5030
 5308SOL    HW320999   4.022   3.783   2.024  1.6064 -1.6587 -0.2356
 5308SOL    MW421000   4.009   3.741   1.949  0.4837 -1.0905 -0.3884
 5309SOL     OW21001   4.817   3.068   4.474 -0.3201 -0.3873 -0.1739
 5309SOL    HW221002   4.769   3.103   4.549  3.5614  0.2584  2.2720
 5309SOL    HW321003   4.809   2.973   4.483  0.2005 -0.3255  1.1796
 5309SOL    MW421004   4.810   3.060   4.485  0.2607 -0.2939  0.3274
 5310SOL     OW21005   0.172   2.978   3.727 -0.4265 -0.2411 -0.3732
 5310SOL    HW221006   0.201   3.058   3.682  0.5015  1.8390  3.4851
 5310SOL    HW321007   0.253   2.930   3.744 -0.7419 -0.8797 -0.6532
 5310SOL    MW421008   0.186   2.983   3.723 -0.3457 -0.0509  0.0989
 5311SOL     OW21009   5.037   4.689   6.110 -0.3182  0.0327 -0.4089
 5311SOL    HW221010   5.061   4.646   6.028  1.2369  2.3476 -1.2871
 5311SOL    HW321011   4.969   4.752   6.085 -0.2995  0.3003  0.1898
 5311SOL    MW421012   5.031   4.692   6.095 -0.1106  0.3734 -0.4458
 5312SOL     OW21013   0.459   6.306   4.657  0.1562  0.1605  0.0347
 5312SOL    HW221014   0.471   6.215   4.683  0.1875 -0.1791 -1.1316
 5312SOL    HW321015   0.367   6.312   4.632  0.8268 -0.3948 -2.9183
 5312SOL    MW421016   0.449   6.295   4.657  0.2488  0.0425 -0.5088
 5313SOL     OW21017   3.389   2.342   2.489 -0.3622 -0.5416  0.3012
 5313SOL    HW221018   3.446   2.265   2.483  1.8079  0.9565  0.2211
 5313SOL    HW321019   3.449   2.414   2.511 -1.6714  1.7930 -3.0016
 5313SOL    MW421020   3.405   2.341   2.491 -0.2486 -0.0359 -0.1451
 5314SOL     OW21021   0.540   4.042   5.617  0.4297 -0.0595 -0.4156
 5314SOL    HW221022   0.545   3.952   5.585 -0.3780  0.2531 -1.4858
 5314SOL    HW321023   0.537   4.095   5.538 -1.7006  0.7434  0.1498
 5314SOL    MW421024   0.540   4.037   5.603  0.0421  0.0877 -0.4822
 5315SOL     OW21025   2.510   2.774   3.833  0.4429 -0.1125 -0.0793
 5315SOL    HW221026   2.588   2.722   3.850  0.2157 -0.9646 -1.4487
 5315SOL    HW321027   2.543   2.858   3.803  0.8263 -0.2092  0.0634
 5315SOL    MW421028   2.525   2.778   3.831  0.4635 -0.2377 -0.2411
 5316SOL     OW21029   4.091   3.580   0.185  0.4669 -0.2843 -0.2267
 5316SOL    HW221030   4.016   3.624   0.224 -0.5572 -0.6001 -1.7533
 5316SOL    HW321031   4.059   3.492   0.164  0.9747 -0.1218 -1.7451
 5316SOL    MW421032   4.077   3.574   0.188  0.3988 -0.3045 -0.6285
 5317SOL     OW21033   1.168   5.434   2.964  0.2504 -0.1826  0.1240
 5317SOL    HW221034   1.243   5.478   3.005 -1.0512  0.9747  1.3431
 5317SOL    HW321035   1.116   5.402   3.038 -0.0037 -1.8088 -0.7218
 5317SOL    MW421036   1.171   5.436   2.979  0.0451 -0.2445  0.1732
 5318SOL     OW21037   4.217   0.419   4.096  0.2176 -0.3197 -0.2095
 5318SOL    HW221038   4.171   0.431   4.179 -2.4998  1.2323 -1.7915
 5318SOL    HW321039   4.183   0.337   4.061  0.2528 -0.2459 -0.4237
 5318SOL    MW421040   4.207   0.410   4.102 -0.1363 -0.1052 -0.4465
 5319SOL     OW21041   4.320   6.007   4.245 -0.1256  0.1838 -0.3912
 5319SOL    HW221042   4.363   6.064   4.181  1.5510 -0.5899 -0.0201
 5319SOL    HW321043   4.335   6.051   4.329 -1.0167  0.4434 -0.3592
 5319SOL    MW421044   4.328   6.020   4.248 -0.0219  0.1159 -0.3380
 5320SOL     OW21045   3.557   6.304   0.548  0.0305 -0.2420  0.7038
 5320SOL    HW221046   3.535   6.243   0.477  1.2199 -0.5639  0.5797
 5320SOL    HW321047   3.473   6.330   0.585 -0.9260  2.2669 -2.6916
 5320SOL    MW421048   3.543   6.299   0.543  0.0613  0.0466  0.2395
 5321SOL     OW21049   0.331   0.714   1.257 -0.2947  0.1080 -0.2104
 5321SOL    HW221050   0.379   0.790   1.291  0.0024 -0.1495 -0.0415
 5321SOL    HW321051   0.246   0.717   1.301  0.5587 -0.9680  1.6343
 5321SOL    MW421052   0.326   0.724   1.268 -0.1429 -0.0679  0.0553
 5322SOL     OW21053   0.202   2.707   0.674  0.6397  0.0006 -0.1743
 5322SOL    HW221054   0.119   2.661   0.687  0.8142 -0.1929  0.2891
 5322SOL    HW321055   0.177   2.800   0.669  0.1965 -0.1751 -1.9371
 5322SOL    MW421056   0.188   2.714   0.675  0.6043 -0.0481 -0.3457
 5323SOL     OW21057   3.711   3.920   6.225 -0.3051 -0.0437 -0.0212
 5323SOL    HW221058   3.752   3.890   6.306  1.5864 -1.6775 -1.4775
 5323SOL    HW321059   3.633   3.968   6.254  0.9366  0.4804  2.7648
 5323SOL    MW421060   3.706   3.922   6.239  0.1083 -0.1901  0.1543
 5324SOL     OW21061   1.909   4.793   5.382 -0.0535  0.1323  0.1187
 5324SOL    HW221062   1.928   4.718   5.327 -0.5314  1.2139 -1.6215
 5324SOL    HW321063   1.827   4.771   5.426 -0.8109  0.0738 -1.2720
 5324SOL    MW421064   1.901   4.781   5.381 -0.2165  0.2673 -0.2944
 5325SOL     OW21065   6.041   1.507   1.921  0.4168 -0.5859  0.6129
 5325SOL    HW221066   6.091   1.568   1.867 -0.2602 -0.6989 -0.1521
 5325SOL    HW321067   5.956   1.550   1.933  0.1067 -1.1596  0.4802
 5325SOL    MW421068   6.036   1.521   1.915  0.2866 -0.6765  0.4945
 5326SOL     OW21069   5.904   5.051   0.860  0.0351 -0.4860 -0.3071
 5326SOL    HW221070   5.944   5.036   0.945 -0.0633  1.2139  0.0761
 5326SOL    HW321071   5.977   5.075   0.802 -0.1319  0.5355 -0.1251
 5326SOL    MW421072   5.919   5.052   0.863  0.0001 -0.1269 -0.2325
 5327SOL     OW21073   4.756   4.655   3.318 -0.1995 -0.3376 -0.2436
 5327SOL    HW221074   4.761   4.606   3.399 -1.0909  0.3710  0.2571
 5327SOL    HW321075   4.663   4.671   3.304 -0.0762 -0.5790 -1.4951
 5327SOL    MW421076   4.744   4.651   3.327 -0.3008 -0.2759 -0.3426
 5328SOL     OW21077   5.551   2.530   2.168 -0.2146  0.4323 -0.1090
 5328SOL    HW221078   5.479   2.513   2.108 -1.2856  1.8937  0.7090
 5328SOL    HW321079   5.625   2.552   2.111 -0.0953 -1.9662 -0.9941
 5328SOL    MW421080   5.552   2.531   2.152 -0.3402  0.3086 -0.1179
 5329SOL     OW21081   0.507   1.899   3.368  0.8434 -0.1570 -0.5172
 5329SOL    HW221082   0.518   1.990   3.395 -0.5224 -0.6576  2.0336
 5329SOL    HW321083   0.562   1.849   3.429  1.2278 -1.1091 -1.5962
 5329SOL    MW421084   0.516   1.904   3.379  0.7139 -0.3487 -0.3230
 5330SOL     OW21085   3.543   3.959   4.743  0.0852  0.0894 -0.4716
 5330SOL    HW221086   3.508   4.023   4.681 -0.4378  1.0339  0.7533
 5330SOL    HW321087   3.465   3.919   4.782  0.3998 -0.1648 -0.1010
 5330SOL    MW421088   3.528   3.962   4.740  0.0577  0.1805 -0.2611
 5331SOL     OW21089   2.284   2.766   2.660 -0.1111 -0.4157 -0.0352
 5331SOL    HW221090   2.274   2.822   2.738 -0.4522 -0.5812  0.0369
 5331SOL    HW321091   2.347   2.814   2.606  0.7902 -0.7063  0.7246
 5331SOL    MW421092   2.291   2.780   2.663 -0.0372 -0.4759  0.0745
 5332SOL     OW21093   2.560   5.707   5.424  0.0314 -0.1779  0.1408
 5332SOL    HW221094   2.467   5.688   5.412  0.1814  0.1087 -1.9564
 5332SOL    HW321095   2.587   5.651   5.496 -1.5443 -1.0437  0.1099
 5332SOL    MW421096   2.551   5.697   5.432 -0.1567 -0.2543 -0.1400
 5333SOL     OW21097   3.416   2.999   3.007  0.2243 -0.0796 -0.4410
 5333SOL    HW221098   3.381   3.082   3.038  1.4729  0.1167  0.5258
 5333SOL    HW321099   3.504   2.994   3.045 -0.1420 -2.2519  0.2595
 5333SOL    MW421100   3.423   3.010   3.016  0.3407 -0.3403 -0.2210
 5334SOL     OW21101   4.351   1.327   5.582 -0.3909 -0.2023  0.3339
 5334SOL    HW221102   4.350   1.307   5.675 -2.1653 -0.4311  0.3042
 5334SOL    HW321103   4.304   1.253   5.542  0.5035 -0.1979 -0.7634
 5334SOL    MW421104   4.345   1.314   5.589 -0.5070 -0.2319  0.1852
 5335SOL     OW21105   6.032   6.228   2.896  0.0704  0.1491  0.2974
 5335SOL    HW221106   6.082   6.285   2.954 -0.6868  0.9013  0.2435
 5335SOL    HW321107   5.971   6.288   2.851 -1.1323 -0.7625  0.6499
 5335SOL    MW421108   6.030   6.244   2.898 -0.1882  0.1281  0.3368
 5336SOL     OW21109   5.339   5.797   3.866  0.2342 -0.0071 -0.4374
 5336SOL    HW221110   5.419   5.758   3.901  0.6504 -0.3887 -1.7397
 5336SOL    HW321111   5.347   5.786   3.771  0.5743  3.6320 -0.9675
 5336SOL    MW421112   5.350   5.790   3.858  0.3340  0.4227 -0.6792
 5337SOL     OW21113   3.329   5.524   6.191 -0.8605  0.4966 -0.6509
 5337SOL    HW221114   3.377   5.602   6.165  1.4469 -0.4883  0.3930
 5337SOL    HW321115   3.333   5.523   6.286 -0.6526 -0.9740 -0.6506
 5337SOL    MW421116   3.336   5.534   6.200 -0.5286  0.1726 -0.5131
 5338SOL     OW21117   4.163   5.396   3.102  0.6844  0.0193  0.0960
 5338SOL    HW221118   4.170   5.387   3.197  2.0833  3.3953  0.4529
 5338SOL    HW321119   4.230   5.338   3.067  0.2573 -1.1448  1.1428
 5338SOL    MW421120   4.172   5.388   3.110  0.8126  0.3111  0.2812
 5339SOL     OW21121   3.038   1.934   3.620  0.4667  0.3401 -0.3650
 5339SOL    HW221122   3.114   1.912   3.566 -0.1216  1.3532 -1.6505
 5339SOL    HW321123   2.963   1.921   3.562 -0.4333 -1.2032  1.0499
 5339SOL    MW421124   3.038   1.929   3.605  0.2704  0.2701 -0.3480
 5340SOL     OW21125   1.323   4.832   0.846  0.7551 -0.1959 -0.4999
 5340SOL    HW221126   1.346   4.886   0.770  0.1374 -0.0210 -0.5656
 5340SOL    HW321127   1.228   4.842   0.855  1.0188  1.1942  1.3632
 5340SOL    MW421128   1.314   4.841   0.837  0.7084  0.0106 -0.2628
 5341SOL     OW21129   1.318   5.254   5.770 -0.5975 -0.5191 -0.3662
 5341SOL    HW221130   1.268   5.285   5.695  0.9750  0.7611 -0.9543
 5341SOL    HW321131   1.407   5.243   5.736  0.4944  1.4908  1.5643
 5341SOL    MW421132   1.323   5.257   5.756 -0.2460 -0.0850 -0.1891
 5342SOL     OW21133   3.163   5.515   4.162  0.9324 -0.4103 -0.2853
 5342SOL    HW221134   3.129   5.514   4.252  2.4108 -0.3909  0.3069
 5342SOL    HW321135   3.111   5.581   4.118  0.4762 -0.0920  0.6945
 5342SOL    MW421136   3.152   5.524   4.168  1.0673 -0.3657 -0.0779
 5343SOL     OW21137   6.042   2.903   5.697 -1.2140 -0.1940 -0.3968
 5343SOL    HW221138   6.010   2.822   5.736 -1.3975 -0.1930 -0.5446
 5343SOL    HW321139   6.114   2.930   5.754 -1.9157  0.1632  0.3362
 5343SOL    MW421140   6.047   2.896   5.709 -1.3308 -0.1468 -0.3196
 5344SOL     OW21141   1.679   0.637   0.771  0.5107 -0.1934 -0.0965
 5344SOL    HW221142   1.626   0.712   0.743 -1.5799 -1.6035 -0.0947
 5344SOL    HW321143   1.750   0.633   0.707  0.0671  1.1475 -0.7133
 5344SOL    MW421144   1.681   0.647   0.759  0.1764 -0.2025 -0.1776
 5345SOL     OW21145   4.242   5.685   2.026  0.5657 -0.9847  0.3836
 5345SOL    HW221146   4.209   5.774   2.037  1.8192 -0.7297  2.8351
 5345SOL    HW321147   4.311   5.693   1.961  0.3821 -0.2425  0.2706
 5345SOL    MW421148   4.247   5.698   2.019  0.7069 -0.8532  0.6921
 5346SOL     OW21149   5.037   3.491   4.750  0.2381  0.1128  0.0277
 5346SOL    HW221150   5.051   3.554   4.820 -1.7680 -0.0836  0.6796
 5346SOL    HW321151   5.030   3.545   4.671  0.0806  0.5668  0.3453
 5346SOL    MW421152   5.038   3.507   4.748 -0.0474  0.1468  0.1556
 5347SOL     OW21153   4.875   5.981   3.887  0.4268  0.2170 -0.4003
 5347SOL    HW221154   4.914   6.069   3.883 -0.3646  0.5468 -1.2126
 5347SOL    HW321155   4.949   5.922   3.876  0.9068  0.7979 -0.3548
 5347SOL    MW421156   4.890   5.985   3.885  0.3857  0.3372 -0.5015
 5348SOL     OW21157   3.744   5.702   1.141 -0.2040  0.2593  0.8767
 5348SOL    HW221158   3.737   5.608   1.153  0.5585 -0.7661 -4.1779
 5348SOL    HW321159   3.820   5.728   1.193  0.9454 -2.4290  0.7225
 5348SOL    MW421160   3.753   5.693   1.149  0.0483 -0.2307  0.1895
 5349SOL     OW21161   0.874   1.164   5.755  0.1622 -0.0495 -0.1315
 5349SOL    HW221162   0.827   1.244   5.732  1.1592  0.6464  0.1916
 5349SOL    HW321163   0.931   1.189   5.827 -0.2289 -1.3090  0.6562
 5349SOL    MW421164   0.875   1.178   5.761  0.2422 -0.1239  0.0151
 5350SOL     OW21165   5.801   4.670   3.616  0.1661 -0.1099 -0.2212
 5350SOL    HW221166   5.730   4.653   3.555 -0.1890 -1.1171  0.4491
 5350SOL    HW321167   5.779   4.620   3.694  2.8115 -2.5144 -0.8555
 5350SOL    MW421168   5.789   4.662   3.618  0.4683 -0.5600 -0.2165
 5351SOL     OW21169   2.933   5.335   0.074 -0.4988  0.3290 -0.0958
 5351SOL    HW221170   2.904   5.256   0.119 -2.3233 -0.2288 -2.0967
 5351SOL    HW321171   2.855   5.367   0.029  1.0804  1.1417 -2.4102
 5351SOL    MW421172   2.919   5.329   0.074 -0.5312  0.3626 -0.6652
 5352SOL     OW21173   3.659   2.208   4.052 -0.2078 -0.5763  0.7798
 5352SOL    HW221174   3.631   2.286   4.098  1.1984  0.4410  0.0054
 5352SOL    HW321175   3.624   2.135   4.103 -0.1036  0.5266  2.4993
 5352SOL    MW421176   3.651   2.209   4.064 -0.0085 -0.2966  0.9045
 5353SOL     OW21177   5.811   2.595   3.452  0.4652 -0.2999 -0.6771
 5353SOL    HW221178   5.877   2.591   3.521  2.1170 -1.9044 -2.2481
 5353SOL    HW321179   5.797   2.504   3.427 -0.5376  0.1880 -2.0383
 5353SOL    MW421180   5.818   2.583   3.458  0.5508 -0.4472 -1.0640
 5354SOL     OW21181   1.593   3.989   6.064  0.5103 -0.2197  0.0845
 5354SOL    HW221182   1.601   4.078   6.099 -1.0704  1.1412 -2.5976
 5354SOL    HW321183   1.514   3.955   6.105 -1.4363  1.4261 -1.9772
 5354SOL    MW421184   1.583   3.996   6.074  0.0449  0.1770 -0.5414
 5355SOL     OW21185   3.214   0.563   3.708 -0.3927 -0.1077 -0.3794
 5355SOL    HW221186   3.188   0.623   3.778  0.2859 -1.6041  1.2261
 5355SOL    HW321187   3.301   0.534   3.733 -0.2315 -0.8588 -1.7543
 5355SOL    MW421188   3.222   0.567   3.720 -0.2819 -0.4042 -0.3490
 5356SOL     OW21189   3.466   5.463   5.831  0.6448  0.3361 -1.1411
 5356SOL    HW221190   3.551   5.420   5.828 -0.6706 -2.5975 -0.6105
 5356SOL    HW321191   3.477   5.537   5.890  2.7581 -0.0637 -0.9828
 5356SOL    MW421192   3.478   5.467   5.838  0.7501 -0.1037 -1.0502
 5357SOL     OW21193   4.783   3.061   2.786 -0.0223 -0.0164  0.1542
 5357SOL    HW221194   4.795   3.068   2.881  0.3187  0.5689  0.0682
 5357SOL    HW321195   4.756   2.970   2.773  0.2678 -0.2010  0.7774
 5357SOL    MW421196   4.781   3.050   2.797  0.0609  0.0365  0.2250
 5358SOL     OW21197   3.184   2.285   1.312 -0.5912 -0.1000 -0.2000
 5358SOL    HW221198   3.143   2.370   1.297 -1.1541 -0.5801 -1.5158
 5358SOL    HW321199   3.149   2.255   1.396 -3.3064 -0.6622 -1.4265
 5358SOL    MW421200   3.174   2.292   1.321 -1.0237 -0.2375 -0.5354
 5359SOL     OW21201   4.201   2.923   5.003 -0.1515 -0.1687  0.1084
 5359SOL    HW221202   4.166   2.950   5.088 -0.3098  0.6774 -0.2248
 5359SOL    HW321203   4.295   2.909   5.020  0.3074  2.3304 -0.0945
 5359SOL    MW421204   4.209   2.925   5.017 -0.1118  0.2727  0.0377
 5360SOL     OW21205   1.883   4.555   5.981 -0.2887  0.4442  0.8104
 5360SOL    HW221206   1.804   4.547   5.928  0.6229 -1.8452 -0.3709
 5360SOL    HW321207   1.873   4.490   6.050 -0.1865  1.3798  1.7303
 5360SOL    MW421208   1.871   4.545   5.983 -0.1549  0.2656  0.7759
 5361SOL     OW21209   1.094   0.109   5.320 -0.0409 -0.4731  0.3241
 5361SOL    HW221210   1.046   0.138   5.242 -0.4943  1.2865  1.1985
 5361SOL    HW321211   1.035   0.045   5.361  0.4210 -1.8007 -0.9957
 5361SOL    MW421212   1.080   0.105   5.315 -0.0398 -0.4161  0.2653
 5362SOL     OW21213   6.183   4.065   2.280  0.4920 -0.1953  0.2114
 5362SOL    HW221214   6.241   3.992   2.301  0.9439  0.2763  0.6009
 5362SOL    HW321215   6.227   4.111   2.208 -1.9907 -3.0142 -3.5419
 5362SOL    MW421216   6.197   4.061   2.273  0.2241 -0.5050 -0.2324
 5363SOL     OW21217   2.081   4.109   0.523  0.3160 -0.2737 -0.1313
 5363SOL    HW221218   1.997   4.122   0.566 -2.1117 -2.4855 -3.6395
 5363SOL    HW321219   2.106   4.019   0.546  0.6586 -0.3229 -0.6700
 5363SOL    MW421220   2.073   4.099   0.531  0.0409 -0.5720 -0.6652
 5364SOL     OW21221   5.376   5.864   0.645 -0.1338  0.2290 -0.0274
 5364SOL    HW221222   5.319   5.787   0.650 -0.2739  0.1035 -2.2515
 5364SOL    HW321223   5.326   5.934   0.686 -0.0730 -0.7917  1.8887
 5364SOL    MW421224   5.362   5.863   0.651 -0.1443  0.0777 -0.0680
 5365SOL     OW21225   2.411   4.994   5.455 -0.4254 -0.4814 -0.3793
 5365SOL    HW221226   2.315   4.991   5.453 -0.5201 -0.5704  1.7457
 5365SOL    HW321227   2.433   5.073   5.406 -1.5558 -0.7070 -1.3003
 5365SOL    MW421228   2.401   5.004   5.449 -0.5871 -0.5229 -0.2204
 5366SOL     OW21229   4.460   2.919   1.187 -0.0251 -0.0690 -0.0183
 5366SOL    HW221230   4.453   2.887   1.277  0.6876 -0.6897 -0.1724
 5366SOL    HW321231   4.370   2.944   1.164 -0.7639 -2.4206 -0.0371
 5366SOL    MW421232   4.447   2.918   1.196 -0.0285 -0.4612 -0.0411
 5367SOL     OW21233   4.714   1.090   5.994 -0.4406 -0.3367  0.3208
 5367SOL    HW221234   4.655   1.076   6.069 -2.7115 -1.4478 -1.5353
 5367SOL    HW321235   4.791   1.037   6.015 -1.3785 -1.3101  1.5212
 5367SOL    MW421236   4.717   1.081   6.007 -0.8640 -0.6118  0.2343
 5368SOL     OW21237   3.984   5.273   0.986 -0.1498  0.1435  0.8866
 5368SOL    HW221238   4.049   5.274   1.056  0.3816 -0.1253  0.4015
 5368SOL    HW321239   3.913   5.219   1.020  0.6893 -1.1101  0.7131
 5368SOL    MW421240   3.983   5.266   1.000  0.0310 -0.0574  0.7997
 5369SOL     OW21241   1.817   2.231   2.537  0.2290  0.5280 -0.3760
 5369SOL    HW221242   1.898   2.271   2.570 -0.1833  0.4133  0.8111
 5369SOL    HW321243   1.795   2.283   2.459  0.8914  1.2010 -0.1257
 5369SOL    MW421244   1.825   2.243   2.531  0.2620  0.6017 -0.1864
 5370SOL     OW21245   2.350   5.950   3.993  0.2566  0.3738 -0.0123
 5370SOL    HW221246   2.420   5.894   3.959  0.4571 -0.2117  1.2907
 5370SOL    HW321247   2.301   5.894   4.053 -1.5238  0.7092 -1.1173
 5370SOL    MW421248   2.353   5.935   3.997  0.0481  0.3408  0.0138
 5371SOL     OW21249   6.289   4.390   1.249  0.4290 -0.1073  0.3362
 5371SOL    HW221250   6.320   4.474   1.214 -0.4353  0.4162  0.8061
 5371SOL    HW321251   6.338   4.378   1.330  0.3779  0.0659  0.3935
 5371SOL    MW421252   6.299   4.400   1.255  0.3082 -0.0154  0.4058
 5372SOL     OW21253   5.058   1.279   5.999  0.3488 -0.7135 -0.0022
 5372SOL    HW221254   4.980   1.318   5.960  0.0646 -1.2628  0.0044
 5372SOL    HW321255   5.072   1.328   6.080  1.5494  1.1456 -1.2500
 5372SOL    MW421256   5.050   1.291   6.005  0.4697 -0.5407 -0.1660
 5373SOL     OW21257   0.408   2.620   5.093  0.2273 -0.2857  0.1077
 5373SOL    HW221258   0.322   2.635   5.054 -0.2612 -0.0488  1.2442
 5373SOL    HW321259   0.468   2.668   5.036 -0.5254  0.4381 -0.0999
 5373SOL    MW421260   0.405   2.628   5.080  0.0635 -0.1589  0.2303
 5374SOL     OW21261   2.990   3.706   2.099  0.0709  0.0093 -0.4513
 5374SOL    HW221262   2.994   3.723   2.193 -0.9867 -1.7614 -0.0476
 5374SOL    HW321263   3.019   3.616   2.090 -3.6737 -1.3069 -1.2766
 5374SOL    MW421264   2.994   3.696   2.110 -0.5627 -0.3980 -0.5069
 5375SOL     OW21265   1.321   0.098   4.615 -0.8367 -0.6024  0.4060
 5375SOL    HW221266   1.378   0.083   4.691 -2.2187 -0.8448  1.4476
 5375SOL    HW321267   1.283   0.185   4.630  0.6186  0.3648 -1.2216
 5375SOL    MW421268   1.323   0.107   4.627 -0.8271 -0.5067  0.3287
 5376SOL     OW21269   5.125   5.362   5.759 -0.0716  0.0900  0.2400
 5376SOL    HW221270   5.164   5.434   5.709  1.1633 -1.0430 -0.5047
 5376SOL    HW321271   5.039   5.348   5.718  0.1954  0.3460 -0.4263
 5376SOL    MW421272   5.119   5.369   5.747  0.1266 -0.0257  0.0538
 5377SOL     OW21273   4.870   2.872   4.737  0.5890 -0.3164 -0.4758
 5377SOL    HW221274   4.919   2.816   4.678  0.7393 -2.2149  1.3201
 5377SOL    HW321275   4.921   2.953   4.743  2.6034 -1.5675 -0.0204
 5377SOL    MW421276   4.883   2.875   4.730  0.8746 -0.7320 -0.1788
 5378SOL     OW21277   2.107   1.250   0.425  0.0741  0.3296  0.0313
 5378SOL    HW221278   2.077   1.242   0.334  1.2774 -0.3994 -0.3335
 5378SOL    HW321279   2.159   1.171   0.440 -1.8086 -0.6334  2.0776
 5378SOL    MW421280   2.110   1.238   0.415 -0.0155  0.1064  0.2531
 5379SOL     OW21281   0.518   2.703   4.404  0.3248 -0.4842  0.2351
 5379SOL    HW221282   0.570   2.624   4.422  2.3332  0.7775  0.3355
 5379SOL    HW321283   0.458   2.677   4.334  3.3927 -1.2454 -2.3796
 5379SOL    MW421284   0.517   2.689   4.397  0.9945 -0.4182 -0.0966
 5380SOL     OW21285   3.879   5.316   1.639  0.2256  0.2647 -0.4195
 5380SOL    HW221286   3.973   5.320   1.621  0.2100  0.7196 -0.4167
 5380SOL    HW321287   3.870   5.245   1.703  0.6400  0.6328  0.0565
 5380SOL    MW421288   3.890   5.307   1.645  0.2782  0.3732 -0.3563
 5381SOL     OW21289   5.034   3.090   4.799  0.0038 -1.1104  0.5471
 5381SOL    HW221290   5.071   3.159   4.745 -2.5684  0.3375  0.4707
 5381SOL    HW321291   5.110   3.050   4.842  1.6874  1.0864 -0.1777
 5381SOL    MW421292   5.049   3.094   4.798 -0.1135 -0.6295  0.4414
 5382SOL     OW21293   0.112   2.603   1.620 -0.2302  0.4358  0.0737
 5382SOL    HW221294   0.194   2.588   1.574  0.0804 -0.5353  0.9132
 5382SOL    HW321295   0.046   2.610   1.551  0.5201  1.0786 -0.5977
 5382SOL    MW421296   0.114   2.602   1.605 -0.0902  0.3925  0.0959
 5383SOL     OW21297   4.561   5.498   1.465  0.0183 -0.0550  0.1993
 5383SOL    HW221298   4.556   5.499   1.561 -0.6280 -0.4171  0.1794
 5383SOL    HW321299   4.516   5.578   1.438  0.5462  0.2489  0.2029
 5383SOL    MW421300   4.554   5.509   1.474  0.0027 -0.0627  0.1971
 5384SOL     OW21301   4.809   4.805   5.602  0.5950 -0.1789  0.5732
 5384SOL    HW221302   4.781   4.862   5.531  0.6146  0.8051  1.3397
 5384SOL    HW321303   4.767   4.841   5.680  2.3655  0.1603  1.4283
 5384SOL    MW421304   4.800   4.817   5.603  0.8312 -0.0043  0.7872
 5385SOL     OW21305   5.992   1.257   2.498 -0.1563  0.0156 -0.0243
 5385SOL    HW221306   5.965   1.166   2.497  2.9027 -1.0071 -0.8289
 5385SOL    HW321307   6.007   1.278   2.590  1.7943 -1.2709  0.0096
 5385SOL    MW421308   5.991   1.248   2.510  0.5047 -0.2891 -0.1260
 5386SOL     OW21309   5.078   5.699   3.907 -0.8648  0.5216  0.0631
 5386SOL    HW221310   5.068   5.731   3.817 -0.1188 -2.7094 -1.3099
 5386SOL    HW321311   5.170   5.714   3.928 -0.9103  0.7716  0.0889
 5386SOL    MW421312   5.089   5.705   3.898 -0.7724  0.1283 -0.1147
 5387SOL     OW21313   1.771   0.183   2.985 -0.0056  0.0620  0.3421
 5387SOL    HW221314   1.755   0.159   3.076 -2.5519 -2.4196 -0.6222
 5387SOL    HW321315   1.837   0.120   2.955  1.1461  1.1452  0.5235
 5387SOL    MW421316   1.777   0.171   2.993 -0.1896 -0.1225  0.2388
 5388SOL     OW21317   5.824   2.811   6.407 -0.2345 -0.0912  0.0964
 5388SOL    HW221318   5.791   2.847   6.490  1.5529  1.3167  0.2442
 5388SOL    HW321319   5.878   2.737   6.433 -2.0680 -1.5791 -0.0702
 5388SOL    MW421320   5.827   2.806   6.421 -0.2406 -0.1017  0.0939
 5389SOL     OW21321   1.631   5.116   4.367 -0.4207  0.2090  0.0109
 5389SOL    HW221322   1.724   5.133   4.381 -0.7284  2.5255 -0.3248
 5389SOL    HW321323   1.598   5.197   4.326 -2.4051 -0.8787 -0.6600
 5389SOL    MW421324   1.639   5.129   4.364 -0.7231  0.3711 -0.1219
 5390SOL     OW21325   2.936   0.806   3.663 -0.5654  0.2266  0.3491
 5390SOL    HW221326   3.023   0.847   3.660 -0.8184  0.8923  1.3337
 5390SOL    HW321327   2.913   0.790   3.572  0.6070  0.0114  0.0772
 5390SOL    MW421328   2.945   0.809   3.651 -0.4441  0.2861  0.4432
 5391SOL     OW21329   6.182   1.955   6.082 -0.4674  0.1162  0.7384
 5391SOL    HW221330   6.104   1.997   6.045  0.1153  0.9833  0.4614
 5391SOL    HW321331   6.184   1.869   6.041  0.1252  1.0282 -1.2806
 5391SOL    MW421332   6.172   1.949   6.071 -0.3123  0.3510  0.4355
 5392SOL     OW21333   1.358   4.923   6.057 -0.2218  0.1718 -0.4908
 5392SOL    HW221334   1.412   4.958   6.128  0.1214 -1.1210 -0.0812
 5392SOL    HW321335   1.310   4.998   6.024  0.1469  0.9326  0.6446
 5392SOL    MW421336   1.359   4.937   6.062 -0.1279  0.1016 -0.2870
 5393SOL     OW21337   5.917   5.908   0.451  0.3475  0.4589 -0.2313
 5393SOL    HW221338   5.991   5.935   0.397 -0.4567  1.1783 -1.0157
 5393SOL    HW321339   5.840   5.941   0.405 -0.6603 -2.2400 -0.6580
 5393SOL    MW421340   5.916   5.916   0.438  0.1084  0.1978 -0.3911
 5394SOL     OW21341   6.367   4.447   2.681 -0.4887 -0.1425  0.0483
 5394SOL    HW221342   6.423   4.498   2.739 -0.3588 -0.5277  0.2634
 5394SOL    HW321343   6.324   4.513   2.626 -1.8554  0.3856  1.6538
 5394SOL    MW421344   6.369   4.462   2.681 -0.6519 -0.1236  0.2885
 5395SOL     OW21345   1.130   0.200   1.497  0.0375  0.1121 -0.2870
 5395SOL    HW221346   1.064   0.203   1.428 -0.0964  1.4172 -0.1361
 5395SOL    HW321347   1.210   0.231   1.455 -0.4159  2.5372  0.4792
 5395SOL    MW421348   1.132   0.205   1.482 -0.0400  0.6043 -0.1660
 5396SOL     OW21349   0.936   1.828   0.498 -0.2008 -0.3005  0.0002
 5396SOL    HW221350   1.000   1.828   0.569  0.8589 -0.6241 -0.9151
 5396SOL    HW321351   0.925   1.735   0.476 -0.1134 -0.1706 -0.5996
 5396SOL    MW421352   0.943   1.816   0.504 -0.0495 -0.3261 -0.1997
 5397SOL     OW21353   0.543   4.712   5.859 -0.4093 -0.3737  0.1826
 5397SOL    HW221354   0.504   4.792   5.891 -1.9949 -1.5277  1.2603
 5397SOL    HW321355   0.531   4.715   5.764 -0.1980  0.7511  0.1788
 5397SOL    MW421356   0.537   4.723   5.851 -0.5906 -0.3776  0.3243
 5398SOL     OW21357   0.186   1.648   3.727 -0.0108 -0.2952  0.4241
 5398SOL    HW221358   0.129   1.646   3.650  0.0735  2.6646  0.1679
 5398SOL    HW321359   0.238   1.569   3.720 -0.4851 -0.4833 -2.2026
 5398SOL    MW421360   0.185   1.638   3.716 -0.0622  0.0705  0.0438
 5399SOL     OW21361   1.425   4.069   2.126  0.0650  0.2422 -0.2395
 5399SOL    HW221362   1.384   4.023   2.199  0.4441 -0.3147 -0.3764
 5399SOL    HW321363   1.514   4.088   2.156 -0.1715  1.1590 -0.0685
 5399SOL    MW421364   1.431   4.065   2.139  0.0838  0.2897 -0.2350
 5400SOL     OW21365   0.361   2.865   5.731  0.5122 -0.3245  0.5546
 5400SOL    HW221366   0.424   2.858   5.802  0.8995  0.2106  0.2671
 5400SOL    HW321367   0.305   2.939   5.754  1.5661  0.8077 -0.4007
 5400SOL    MW421368   0.362   2.874   5.743  0.7023 -0.1045  0.3906
 5401SOL     OW21369   4.081   6.241   5.425 -0.1507  0.3304  0.0546
 5401SOL    HW221370   4.096   6.163   5.479  2.6882  0.9887  0.3447
 5401SOL    HW321371   4.015   6.213   5.361  0.0457 -1.9739  0.7677
 5401SOL    MW421372   4.074   6.227   5.424  0.2497  0.1132  0.1870
 5402SOL     OW21373   2.579   4.709   4.427 -0.1706 -0.6886 -0.2325
 5402SOL    HW221374   2.536   4.674   4.505 -1.7339 -0.9805 -1.2027
 5402SOL    HW321375   2.585   4.635   4.367 -0.4462 -0.0875 -1.0112
 5402SOL    MW421376   2.574   4.695   4.430 -0.4132 -0.6478 -0.4632
 5403SOL     OW21377   5.535   3.108   3.784  0.2242  0.2640 -0.1889
 5403SOL    HW221378   5.527   3.168   3.709  1.1343 -0.5542 -0.9608
 5403SOL    HW321379   5.601   3.149   3.839  0.0966  0.4912 -0.2022
 5403SOL    MW421380   5.543   3.122   3.781  0.3274  0.1861 -0.2925
 5404SOL     OW21381   3.239   5.858   0.451  0.3286  0.5040 -0.3350
 5404SOL    HW221382   3.264   5.843   0.360 -1.8003  0.3006 -0.9344
 5404SOL    HW321383   3.152   5.820   0.459 -0.1851  1.8908  1.3880
 5404SOL    MW421384   3.231   5.851   0.440 -0.0200  0.6602 -0.1868
 5405SOL     OW21385   5.708   2.135   2.789 -0.3611  0.3941  0.4133
 5405SOL    HW221386   5.630   2.171   2.747 -0.9045 -0.8708  0.2900
 5405SOL    HW321387   5.770   2.121   2.718 -1.2017 -1.5408 -0.0155
 5405SOL    MW421388   5.706   2.138   2.774 -0.5437 -0.0281  0.3405
 5406SOL     OW21389   4.293   2.718   1.904  0.6806  0.0368 -0.3432
 5406SOL    HW221390   4.338   2.790   1.947 -2.6733  2.7156 -0.8259
 5406SOL    HW321391   4.271   2.658   1.975 -0.9110  2.1637  1.0919
 5406SOL    MW421392   4.296   2.719   1.919  0.0281  0.6708 -0.2176
 5407SOL     OW21393   5.924   2.049   6.027 -0.0910  0.6364 -0.0107
 5407SOL    HW221394   5.926   2.145   6.031  0.2051  0.5936  1.1254
 5407SOL    HW321395   5.903   2.022   6.116  0.0738 -0.3726 -0.2678
 5407SOL    MW421396   5.921   2.058   6.039 -0.0302  0.4976  0.1053
 5408SOL     OW21397   3.596   6.049   4.421  0.7246  0.3231 -0.0847
 5408SOL    HW221398   3.568   6.059   4.512 -1.5310 -1.5862 -0.4915
 5408SOL    HW321399   3.685   6.014   4.427  0.3533 -0.4349  1.3913
 5408SOL    MW421400   3.604   6.046   4.434  0.3780 -0.0288  0.0564
 5409SOL     OW21401   4.570   3.783   3.338 -0.8194  0.3791 -0.0481
 5409SOL    HW221402   4.578   3.687   3.338 -0.5633  0.3733 -1.4423
 5409SOL    HW321403   4.487   3.801   3.382 -0.0002 -0.3674  1.9145
 5409SOL    MW421404   4.560   3.772   3.344 -0.6775  0.2799  0.0269
 5410SOL     OW21405   4.108   5.920   3.638  0.4229  0.1125 -0.3529
 5410SOL    HW221406   4.200   5.913   3.614  0.3701 -1.3144 -0.2470
 5410SOL    HW321407   4.062   5.929   3.554  0.6008 -0.0370 -0.4688
 5410SOL    MW421408   4.114   5.920   3.624  0.4394 -0.0955 -0.3542
 5411SOL     OW21409   6.259   2.926   1.195  0.7467 -0.0873  0.1804
 5411SOL    HW221410   6.320   2.930   1.268 -0.5459 -1.3047  1.3907
 5411SOL    HW321411   6.309   2.885   1.124  2.8091  3.3353 -0.5701
 5411SOL    MW421412   6.273   2.921   1.195  0.8482  0.2037  0.2410
 5412SOL     OW21413   4.377   0.199   3.683 -0.0045 -0.1938  0.4562
 5412SOL    HW221414   4.391   0.123   3.626  0.3827  1.3136 -1.5340
 5412SOL    HW321415   4.283   0.215   3.678 -0.1595 -0.7991  1.2538
 5412SOL    MW421416   4.366   0.191   3.675  0.0261 -0.0747  0.2988
 5413SOL     OW21417   2.975   0.548   6.167 -0.3328 -0.0280  0.2980
 5413SOL    HW221418   2.894   0.592   6.192 -1.2789 -0.9469 -1.0249
 5413SOL    HW321419   2.965   0.531   6.073 -0.0417 -3.0545  0.7427
 5413SOL    MW421420   2.963   0.552   6.158 -0.4192 -0.5485  0.1822
 5414SOL     OW21421   3.378   3.591   3.769 -0.5100 -0.1681 -0.0144
 5414SOL    HW221422   3.439   3.523   3.739  0.4758  0.7506 -0.1450
 5414SOL    HW321423   3.412   3.619   3.853 -1.1746 -0.1394  0.2541
 5414SOL    MW421424   3.390   3.586   3.776 -0.4676 -0.0431  0.0038
 5415SOL     OW21425   2.144   2.440   4.359 -0.3971  0.1500 -0.0770
 5415SOL    HW221426   2.143   2.375   4.289 -0.6732 -0.6353  0.6501
 5415SOL    HW321427   2.080   2.409   4.422 -0.0128  0.7539  0.6240
 5415SOL    MW421428   2.135   2.428   4.358 -0.3828  0.1260  0.1114
 5416SOL     OW21429   6.024   0.566   3.313  0.4290  0.4065  0.9627
 5416SOL    HW221430   6.048   0.571   3.220 -1.1565  0.2089  0.5166
 5416SOL    HW321431   6.099   0.605   3.359  0.9839  1.0476 -0.4287
 5416SOL    MW421432   6.037   0.572   3.307  0.2930  0.4650  0.7203
 5417SOL     OW21433   6.400   5.444   5.918  0.1100  0.0165  0.0799
 5417SOL    HW221434   6.424   5.529   5.881  0.7217  0.3741  1.2493
 5417SOL    HW321435   6.416   5.382   5.847  0.8993  0.7199 -0.3780
 5417SOL    MW421436   6.405   5.447   5.904  0.2949  0.1565  0.1737
 5418SOL     OW21437   1.771   3.661   5.916  0.6040  0.1658  0.2331
 5418SOL    HW221438   1.786   3.573   5.880 -0.0868  0.9223 -2.0725
 5418SOL    HW321439   1.850   3.680   5.966  0.9716 -1.5701  0.3833
 5418SOL    MW421440   1.783   3.652   5.918  0.5614  0.0366 -0.0512
 5419SOL     OW21441   1.133   4.625   5.339  0.1736  0.0247  0.1032
 5419SOL    HW221442   1.056   4.597   5.389  0.3192 -1.7882 -0.6172
 5419SOL    HW321443   1.208   4.591   5.389  0.3945 -0.2069 -0.3743
 5419SOL    MW421444   1.133   4.616   5.352  0.2219 -0.2450 -0.0549
 5420SOL     OW21445   4.597   0.078   1.506  0.3432 -0.5007 -0.3756
 5420SOL    HW221446   4.502   0.071   1.504  0.1603  1.5054 -0.0578
 5420SOL    HW321447   4.625   0.048   1.419 -0.5626 -1.0207 -0.4994
 5420SOL    MW421448   4.588   0.073   1.494  0.1996 -0.3047 -0.3500
 5421SOL     OW21449   5.949   4.727   6.254 -0.5137 -0.2910 -0.3058
 5421SOL    HW221450   5.884   4.705   6.321  2.0384 -2.0296  1.8220
 5421SOL    HW321451   5.994   4.804   6.289 -1.4394  0.9843 -1.8228
 5421SOL    MW421452   5.946   4.734   6.268 -0.2991 -0.3521 -0.2252
 5422SOL     OW21453   3.500   4.486   4.506 -0.0085  0.4096 -0.1475
 5422SOL    HW221454   3.447   4.549   4.554  0.0692  0.0698  0.4031
 5422SOL    HW321455   3.437   4.434   4.457 -0.2655 -0.3978  0.9870
 5422SOL    MW421456   3.485   4.487   4.506 -0.0322  0.2582  0.0748
 5423SOL     OW21457   6.405   0.805   2.264  0.3346 -0.1820 -0.0175
 5423SOL    HW221458   6.484   0.859   2.255  2.2054 -2.3763  1.9259
 5423SOL    HW321459   6.347   0.857   2.319  2.1137 -0.0992  1.8956
 5423SOL    MW421460   6.408   0.819   2.270  0.8162 -0.4606  0.4913
 5424SOL     OW21461   4.205   3.119   4.504 -0.1354 -0.5067  0.0806
 5424SOL    HW221462   4.171   3.033   4.530 -1.9815  0.0686 -0.2508
 5424SOL    HW321463   4.126   3.174   4.496  1.0184  1.3743  0.8443
 5424SOL    MW421464   4.190   3.115   4.507 -0.2267 -0.1826  0.1376
 5425SOL     OW21465   5.827   1.932   0.887 -0.4846 -0.1431  0.5517
 5425SOL    HW221466   5.761   1.944   0.819 -0.7876 -1.2453  0.6387
 5425SOL    HW321467   5.893   1.999   0.868 -1.9061  1.4175  0.8357
 5425SOL    MW421468   5.827   1.942   0.875 -0.7121 -0.0826  0.6007
 5426SOL     OW21469   4.950   6.245   3.852 -0.6023  0.2106 -0.1906
 5426SOL    HW221470   5.001   6.310   3.900 -0.5840  0.4271 -0.5013
 5426SOL    HW321471   4.859   6.269   3.870 -0.5961  0.2050 -0.1506
 5426SOL    MW421472   4.945   6.257   3.861 -0.5991  0.2384 -0.2263
 5427SOL     OW21473   5.251   3.686   2.775  0.3920 -0.1328  0.6512
 5427SOL    HW221474   5.197   3.611   2.798  2.4912 -1.3944  1.8363
 5427SOL    HW321475   5.270   3.675   2.682 -1.7945  0.6838  0.0471
 5427SOL    MW421476   5.247   3.675   2.766  0.3805 -0.1915  0.7279
 5428SOL     OW21477   6.164   5.255   3.955 -0.8935  0.1699 -0.2854
 5428SOL    HW221478   6.094   5.207   3.912 -1.5650  1.1110 -0.2635
 5428SOL    HW321479   6.149   5.241   4.049  0.8019 -2.2168 -0.2633
 5428SOL    MW421480   6.153   5.247   3.962 -0.7584 -0.0209 -0.2796
 5429SOL     OW21481   5.885   2.676   5.283  0.6291  0.7828 -0.3114
 5429SOL    HW221482   5.885   2.745   5.349  0.2839 -0.9718  1.6283
 5429SOL    HW321483   5.813   2.700   5.223  0.3851  1.9766  0.4406
 5429SOL    MW421484   5.875   2.688   5.284  0.5514  0.7088  0.0438
 5430SOL     OW21485   0.735   3.154   0.490  0.1632  0.0178 -0.3970
 5430SOL    HW221486   0.662   3.187   0.544  0.8856 -0.9246  1.2310
 5430SOL    HW321487   0.715   3.185   0.402 -1.4969  0.9481  0.2516
 5430SOL    MW421488   0.722   3.163   0.486  0.0395  0.0162 -0.0966
 5431SOL     OW21489   5.109   5.953   5.422  0.2730  0.8419 -0.1454
 5431SOL    HW221490   5.081   5.962   5.513 -1.0399  2.9879 -0.6740
 5431SOL    HW321491   5.027   5.936   5.374  0.9883 -0.6115 -0.9140
 5431SOL    MW421492   5.094   5.952   5.428  0.1942  0.9333 -0.3165
 5432SOL     OW21493   4.941   1.377   0.100  0.4280 -0.0354 -0.6973
 5432SOL    HW221494   5.024   1.423   0.102  0.1577  0.5450 -1.9500
 5432SOL    HW321495   4.912   1.374   0.191  1.1292  1.0260 -0.4306
 5432SOL    MW421496   4.948   1.383   0.112  0.4849  0.1812 -0.8274
 5433SOL     OW21497   3.786   2.994   0.160  0.1865 -1.2115 -0.2262
 5433SOL    HW221498   3.833   2.970   0.239  0.6473 -0.9267 -0.4112
 5433SOL    HW321499   3.696   2.962   0.175  0.0078 -0.2562  0.8308
 5433SOL    MW421500   3.780   2.986   0.172  0.2237 -1.0479 -0.1111
 5434SOL     OW21501   4.578   5.744   4.808  0.5302 -0.0901  0.3637
 5434SOL    HW221502   4.595   5.730   4.902  2.9929 -0.1186 -0.0266
 5434SOL    HW321503   4.556   5.837   4.801  1.3144  0.1403  0.8580
 5434SOL    MW421504   4.577   5.754   4.820  0.9586 -0.0635  0.3774
 5435SOL     OW21505   1.050   3.726   1.543 -0.1490 -0.3830  0.1982
 5435SOL    HW221506   1.016   3.637   1.555 -0.8273 -0.2864 -0.9147
 5435SOL    HW321507   0.973   3.782   1.544  0.2702  0.2003  0.8477
 5435SOL    MW421508   1.036   3.721   1.545 -0.1832 -0.2933  0.1371
 5436SOL     OW21509   0.395   4.659   4.602  0.0886  0.1138  0.5710
 5436SOL    HW221510   0.372   4.750   4.582 -2.7096 -0.7567 -0.7618
 5436SOL    HW321511   0.487   4.651   4.577 -0.0966  2.1442 -0.9753
 5436SOL    MW421512   0.404   4.670   4.596 -0.3051  0.2668  0.1911
 5437SOL     OW21513   1.024   2.108   1.444 -0.3993 -0.0593  0.5682
 5437SOL    HW221514   1.008   2.016   1.462  1.7709 -0.4046  0.9450
 5437SOL    HW321515   1.094   2.109   1.379 -0.7563  1.3262  0.1707
 5437SOL    MW421516   1.031   2.096   1.438 -0.1601  0.0780  0.5655
 5438SOL     OW21517   0.528   5.404   4.976  0.3435  0.3844 -0.5438
 5438SOL    HW221518   0.451   5.413   4.919 -1.1989 -0.2940  1.3452
 5438SOL    HW321519   0.529   5.311   5.000  2.0286  0.2930 -0.8575
 5438SOL    MW421520   0.518   5.392   4.971  0.3623  0.2828 -0.3359
 5439SOL     OW21521   0.044   2.397   5.535  0.1910 -0.6653 -0.2011
 5439SOL    HW221522   0.019   2.472   5.481  0.3495 -0.0392  0.5648
 5439SOL    HW321523  -0.033   2.339   5.533 -0.9939  0.7492  1.2858
 5439SOL    MW421524   0.030   2.399   5.528  0.0556 -0.3960  0.0961
 5440SOL     OW21525   5.863   1.291   3.683  0.5490  0.2376 -0.3471
 5440SOL    HW221526   5.844   1.379   3.715  0.1632  0.2847 -0.6970
 5440SOL    HW321527   5.802   1.278   3.611 -0.6945 -1.0105  0.8508
 5440SOL    MW421528   5.852   1.301   3.678  0.3341  0.0791 -0.2352
 5441SOL     OW21529   1.522   0.602   1.485 -0.1564  0.0730 -0.2443
 5441SOL    HW221530   1.489   0.525   1.439  0.7862  0.1068 -1.0065
 5441SOL    HW321531   1.447   0.662   1.489 -0.5683 -0.4047 -0.7019
 5441SOL    MW421532   1.508   0.600   1.480 -0.0864  0.0144 -0.4052
 5442SOL     OW21533   2.714   3.288   2.569 -0.5201  0.0411 -0.9951
 5442SOL    HW221534   2.782   3.246   2.622 -0.3069 -0.0534 -1.3404
 5442SOL    HW321535   2.632   3.265   2.613 -0.2428  1.8102  0.5899
 5442SOL    MW421536   2.712   3.279   2.582 -0.4554  0.2620 -0.8315
 5443SOL     OW21537   4.280   4.486   0.869  0.1455  0.0695  0.2027
 5443SOL    HW221538   4.306   4.499   0.960 -0.2971 -0.9743  0.4903
 5443SOL    HW321539   4.281   4.391   0.857 -1.6034  0.0901 -0.3438
 5443SOL    MW421540   4.284   4.475   0.879 -0.1436 -0.0655  0.1685
 5444SOL     OW21541   3.997   0.650   1.556 -0.4287 -0.3735 -0.4610
 5444SOL    HW221542   3.914   0.643   1.509  0.9050 -2.5689 -2.7776
 5444SOL    HW321543   4.038   0.728   1.521 -0.4744 -0.6672 -1.1815
 5444SOL    MW421544   3.991   0.659   1.545 -0.2587 -0.7019 -0.8617
 5445SOL     OW21545   1.082   5.749   1.734  0.3348 -0.1240 -0.2987
 5445SOL    HW221546   1.175   5.742   1.716  0.7969 -1.1236  2.1074
 5445SOL    HW321547   1.052   5.658   1.743 -0.3144  0.2154  1.3078
 5445SOL    MW421548   1.090   5.736   1.733  0.3101 -0.2111  0.2307
 5446SOL     OW21549   0.559   5.698   3.861  0.0124  0.5333 -0.1175
 5446SOL    HW221550   0.613   5.722   3.936  1.8968 -1.4898 -0.7088
 5446SOL    HW321551   0.587   5.757   3.791 -0.0639  0.8778  0.1407
 5446SOL    MW421552   0.570   5.709   3.861  0.2510  0.3118 -0.1614
 5447SOL     OW21553   6.059   2.631   3.862 -0.7231 -0.4873  0.3252
 5447SOL    HW221554   6.124   2.621   3.793  1.1808  2.3354  1.5344
 5447SOL    HW321555   6.096   2.584   3.937 -0.6091  0.1400  0.6712
 5447SOL    MW421556   6.072   2.623   3.863 -0.4569 -0.0321  0.5304
 5448SOL     OW21557   4.286   3.189   4.934  0.7332 -0.0181  0.1060
 5448SOL    HW221558   4.329   3.186   4.849  0.4947 -0.3428 -0.0020
 5448SOL    HW321559   4.268   3.098   4.956  0.3768  0.0949  0.2933
 5448SOL    MW421560   4.290   3.177   4.926  0.6547 -0.0460  0.1165
 5449SOL     OW21561   1.576   5.026   1.317  0.7226 -1.0202 -0.1645
 5449SOL    HW221562   1.621   4.942   1.320  3.2490  0.2439  0.9986
 5449SOL    HW321563   1.639   5.088   1.354 -1.4815  1.2040  0.1439
 5449SOL    MW421564   1.590   5.023   1.322  0.7651 -0.5600  0.0297
 5450SOL     OW21565   0.136   5.196   5.050 -0.2542  0.0230 -0.1084
 5450SOL    HW221566   0.116   5.125   4.988  0.3144  0.9326 -1.3831
 5450SOL    HW321567   0.165   5.151   5.129  0.9922 -1.1933 -1.1964
 5450SOL    MW421568   0.138   5.181   5.052 -0.0148 -0.0175 -0.4202
 5451SOL     OW21569   5.840   6.154   1.551 -0.9617  0.4447  0.4351
 5451SOL    HW221570   5.921   6.108   1.573 -0.0514  1.1284 -1.3387
 5451SOL    HW321571   5.820   6.126   1.462 -2.6029  0.4289  0.7736
 5451SOL    MW421572   5.848   6.144   1.542 -1.0581  0.5328  0.2457
 5452SOL     OW21573   4.924   3.462   0.473 -0.0127  0.1963 -0.0139
 5452SOL    HW221574   4.937   3.555   0.493  0.3910 -0.4294  3.0786
 5452SOL    HW321575   4.847   3.437   0.524 -0.6037 -1.0329 -1.4322
 5452SOL    MW421576   4.916   3.471   0.482 -0.0374 -0.0484  0.2070
 5453SOL     OW21577   2.869   2.838   2.402  0.3586 -0.2145  0.0492
 5453SOL    HW221578   2.849   2.922   2.360 -0.4011  0.2391  1.2797
 5453SOL    HW321579   2.823   2.773   2.349  1.2680  0.0756 -1.1419
 5453SOL    MW421580   2.860   2.841   2.389  0.3783 -0.1164  0.0544
 5454SOL     OW21581   4.856   5.162   5.198 -0.6189  0.0760 -0.3054
 5454SOL    HW221582   4.949   5.154   5.218 -0.6661 -0.5963 -0.3204
 5454SOL    HW321583   4.826   5.236   5.250  0.2916  1.4213 -1.6081
 5454SOL    MW421584   4.864   5.170   5.207 -0.5050  0.1648 -0.4792
 5455SOL     OW21585   4.307   4.220   5.942  0.6564  0.0103 -0.6369
 5455SOL    HW221586   4.318   4.203   6.035 -1.9061 -1.3427 -0.4806
 5455SOL    HW321587   4.386   4.185   5.901 -0.2511 -4.1412  0.6428
 5455SOL    MW421588   4.319   4.213   5.949  0.1986 -0.7159 -0.4474
 5456SOL     OW21589   6.087   2.148   2.214 -0.7393 -0.2581 -0.5498
 5456SOL    HW221590   6.044   2.081   2.161  1.2891 -1.4458 -0.7812
 5456SOL    HW321591   6.110   2.102   2.295 -0.4667  0.5212 -0.1822
 5456SOL    MW421592   6.084   2.133   2.218 -0.4357 -0.3120 -0.5318
 5457SOL     OW21593   2.192   2.256   5.855 -0.0379 -0.2008  0.4145
 5457SOL    HW221594   2.152   2.303   5.781 -0.2798 -1.6312 -0.4022
 5457SOL    HW321595   2.146   2.172   5.858  0.3093 -0.3685  1.9041
 5457SOL    MW421596   2.181   2.251   5.845 -0.0240 -0.4116  0.5033
 5458SOL     OW21597   2.004   0.659   2.631  0.1413  0.3758 -0.1680
 5458SOL    HW221598   1.992   0.720   2.558 -2.2235 -0.4888 -0.5756
 5458SOL    HW321599   2.046   0.712   2.699 -0.1075  1.9325 -1.1756
 5458SOL    MW421600   2.008   0.674   2.630 -0.2036  0.4671 -0.3547
 5459SOL     OW21601   1.799   4.121   0.616 -0.6160  0.0798 -0.0110
 5459SOL    HW221602   1.753   4.193   0.659  0.9122  1.4251 -0.5435
 5459SOL    HW321603   1.753   4.110   0.533 -1.2976 -0.0557  0.3766
 5459SOL    MW421604   1.787   4.129   0.611 -0.5043  0.2394 -0.0301
 5460SOL     OW21605   3.450   4.201   0.336  0.3747  0.1720 -0.0673
 5460SOL    HW221606   3.402   4.130   0.378  1.1561 -0.3402 -0.0166
 5460SOL    HW321607   3.423   4.198   0.244 -0.4197  0.5202  0.1442
 5460SOL    MW421608   3.440   4.191   0.329  0.3730  0.1504 -0.0327
 5461SOL     OW21609   0.648   1.680   2.831  0.4805  0.3671  0.3877
 5461SOL    HW221610   0.575   1.639   2.877  1.2475 -1.4004  0.0848
 5461SOL    HW321611   0.641   1.646   2.741  1.7323  0.0892  0.3873
 5461SOL    MW421612   0.637   1.670   2.825  0.7468  0.0973  0.3477
 5462SOL     OW21613   0.534   0.495   6.177  0.2178  0.0978  0.1160
 5462SOL    HW221614   0.540   0.504   6.082  1.4483  2.0033  0.3203
 5462SOL    HW321615   0.590   0.420   6.197 -0.5505 -0.7206 -0.6905
 5462SOL    MW421616   0.543   0.486   6.167  0.2788  0.2413  0.0366
 5463SOL     OW21617   3.710   3.220   6.338  0.1199 -0.3546  0.4774
 5463SOL    HW221618   3.719   3.305   6.381  1.0926  0.0818 -0.5090
 5463SOL    HW321619   3.622   3.220   6.301 -0.3167 -0.2856  1.5008
 5463SOL    MW421620   3.700   3.231   6.339  0.1906 -0.2879  0.4823
 5464SOL     OW21621   5.336   2.365   1.809  0.2972 -0.3942 -0.0269
 5464SOL    HW221622   5.328   2.413   1.892  1.8911 -1.2653  0.6722
 5464SOL    HW321623   5.369   2.279   1.835 -2.0417 -1.7772 -1.2905
 5464SOL    MW421624   5.339   2.360   1.824  0.1989 -0.6916 -0.1014
 5465SOL     OW21625   1.093   2.165   0.110 -0.5692  0.5560 -0.4419
 5465SOL    HW221626   1.171   2.215   0.087 -0.1465  0.0596 -0.0936
 5465SOL    HW321627   1.059   2.210   0.188 -0.2784  0.3950 -0.2211
 5465SOL    MW421628   1.099   2.178   0.118 -0.4751  0.4693 -0.3668
 5466SOL     OW21629   3.729   4.619   5.061  0.5374 -0.0486 -0.2687
 5466SOL    HW221630   3.742   4.585   5.150  0.3219 -0.0878 -0.2517
 5466SOL    HW321631   3.696   4.708   5.075 -0.2798 -0.3367 -0.2992
 5466SOL    MW421632   3.727   4.626   5.075  0.4011 -0.0918 -0.2705
 5467SOL     OW21633   5.991   6.022   2.284 -0.3515 -0.1188  0.4138
 5467SOL    HW221634   5.979   6.114   2.306  0.1430  0.1899 -0.5804
 5467SOL    HW321635   6.078   6.000   2.320  0.6809  0.5218 -1.5732
 5467SOL    MW421636   6.001   6.031   2.292 -0.1500  0.0064  0.0204
 5468SOL     OW21637   2.141   1.731   0.443  0.1530 -0.6490 -0.8170
 5468SOL    HW221638   2.155   1.765   0.532 -1.5659 -1.1522 -0.3054
 5468SOL    HW321639   2.190   1.649   0.440 -1.3311 -1.6454  0.3991
 5468SOL    MW421640   2.149   1.725   0.454 -0.2696 -0.8468 -0.5890
 5469SOL     OW21641   5.838   4.296   4.136 -0.1580  0.0848  0.4115
 5469SOL    HW221642   5.804   4.381   4.162  1.3167  0.8205  0.0596
 5469SOL    HW321643   5.765   4.252   4.092 -1.3372  0.6049  1.7961
 5469SOL    MW421644   5.824   4.301   4.134 -0.1190  0.2505  0.5477
 5470SOL     OW21645   0.424   3.736   1.924  0.0710  0.1071  0.4330
 5470SOL    HW221646   0.434   3.776   1.838 -1.2524  0.4052  0.4033
 5470SOL    HW321647   0.503   3.682   1.934  0.8833  1.0851 -0.3935
 5470SOL    MW421648   0.436   3.734   1.914  0.0036  0.2755  0.3200
 5471SOL     OW21649   2.892   1.103   0.595  0.5660  0.1673 -0.4883
 5471SOL    HW221650   2.824   1.103   0.528  0.6091  0.2817 -0.5319
 5471SOL    HW321651   2.960   1.046   0.561 -0.0841 -1.0238  0.1398
 5471SOL    MW421652   2.892   1.096   0.582  0.4859  0.0252 -0.4112
 5472SOL     OW21653   1.945   6.242   4.827 -0.6026 -0.0226 -0.9838
 5472SOL    HW221654   2.002   6.303   4.781 -0.7942 -0.1170 -1.3478
 5472SOL    HW321655   1.994   6.159   4.828  0.4811  0.5625  1.1288
 5472SOL    MW421656   1.959   6.239   4.821 -0.4849  0.0421 -0.7531
 5473SOL     OW21657   4.479   1.384   6.205  0.2765 -1.1251 -0.4796
 5473SOL    HW221658   4.425   1.456   6.239  1.1531 -0.1842 -1.0304
 5473SOL    HW321659   4.566   1.400   6.242  0.5709 -1.6989 -0.9125
 5473SOL    MW421660   4.483   1.396   6.214  0.4310 -1.0767 -0.6094
 5474SOL     OW21661   3.241   6.368   2.677  0.5259  0.2315  0.3032
 5474SOL    HW221662   3.254   6.424   2.754  1.6379 -0.6079  0.7532
 5474SOL    HW321663   3.149   6.342   2.681  0.7909 -0.5321  1.8681
 5474SOL    MW421664   3.231   6.372   2.688  0.7075  0.0200  0.5690
 5475SOL     OW21665   6.389   5.976   3.370 -1.1089  0.8719 -0.4620
 5475SOL    HW221666   6.393   5.907   3.304 -1.3698  1.4837 -1.1151
 5475SOL    HW321667   6.300   5.971   3.405 -0.6425 -0.2098  0.6873
 5475SOL    MW421668   6.378   5.966   3.366 -1.0818  0.8099 -0.3965
 5476SOL     OW21669   1.937   6.172   5.336 -0.3950 -0.3798  0.1573
 5476SOL    HW221670   1.973   6.261   5.333 -0.9210 -0.1493  0.5641
 5476SOL    HW321671   1.969   6.131   5.256  0.7936 -0.1956  0.5182
 5476SOL    MW421672   1.946   6.178   5.325 -0.3076 -0.3251  0.2586
 5477SOL     OW21673   5.982   3.293   6.438  0.3334  0.0983  0.4245
 5477SOL    HW221674   5.997   3.349   6.515 -0.5054 -1.6403  1.9377
 5477SOL    HW321675   5.887   3.291   6.429  0.3682 -0.7553  0.1675
 5477SOL    MW421676   5.971   3.300   6.447  0.2274 -0.2437  0.5902
 5478SOL     OW21677   0.805   1.738   4.342 -0.0226 -0.1146  0.8176
 5478SOL    HW221678   0.821   1.807   4.278  0.6909  0.8061  1.9622
 5478SOL    HW321679   0.802   1.657   4.290  2.0362  0.4091 -0.2171
 5478SOL    MW421680   0.806   1.736   4.327  0.3432  0.0760  0.8321
 5479SOL     OW21681   0.884   4.552   2.436 -0.1068 -0.2539 -0.5467
 5479SOL    HW221682   0.848   4.622   2.490  1.0571  0.7956 -1.0735
 5479SOL    HW321683   0.900   4.480   2.497 -0.6648  0.1901  0.1358
 5479SOL    MW421684   0.881   4.552   2.451 -0.0268 -0.0568 -0.5262
 5480SOL     OW21685   5.768   2.431   1.966  0.0174 -0.4308 -0.4069
 5480SOL    HW221686   5.852   2.396   1.994  0.5155 -0.4559 -1.8582
 5480SOL    HW321687   5.766   2.416   1.871 -0.9274  1.0124 -0.6428
 5480SOL    MW421688   5.778   2.424   1.957 -0.0416 -0.2437 -0.6295
 5481SOL     OW21689   2.885   3.072   5.865 -0.0747 -0.5714  0.0742
 5481SOL    HW221690   2.837   3.110   5.938  0.8795 -1.1150  1.0093
 5481SOL    HW321691   2.830   3.090   5.789 -0.8023  0.5386  0.8243
 5481SOL    MW421692   2.872   3.079   5.865 -0.0448 -0.4966  0.2965
 5482SOL     OW21693   2.395   2.085   4.218 -0.5940  0.6425  0.1279
 5482SOL    HW221694   2.463   2.142   4.254 -0.6833 -0.0355  1.4355
 5482SOL    HW321695   2.316   2.108   4.266 -0.8936  0.2150 -0.1457
 5482SOL    MW421696   2.394   2.095   4.229 -0.6453  0.4966  0.2643
 5483SOL     OW21697   2.918   3.479   4.484 -0.5076 -0.3304 -0.0704
 5483SOL    HW221698   2.884   3.467   4.572  1.1493 -1.8502  0.4189
 5483SOL    HW321699   2.912   3.573   4.468  0.0574  0.1112  2.0523
 5483SOL    MW421700   2.913   3.490   4.493 -0.2145 -0.4727  0.2742
 5484SOL     OW21701   0.911   3.368   0.300  0.3571 -0.0177 -0.3697
 5484SOL    HW221702   0.944   3.298   0.356 -0.2043 -0.1602 -0.2067
 5484SOL    HW321703   0.878   3.435   0.360  1.0254  0.4570 -0.5244
 5484SOL    MW421704   0.911   3.368   0.315  0.3712  0.0261 -0.3686
 5485SOL     OW21705   2.006   1.737   6.022  0.1102  0.1147  0.2169
 5485SOL    HW221706   2.058   1.732   5.942 -0.2354 -0.6354  0.0238
 5485SOL    HW321707   2.033   1.818   6.064  0.2498  0.5463 -0.6905
 5485SOL    MW421708   2.016   1.747   6.017  0.0830  0.0727  0.0717
 5486SOL     OW21709   2.453   2.309   4.011  0.3296  0.7184 -0.2425
 5486SOL    HW221710   2.538   2.290   4.051  0.8909  0.2920 -1.5861
 5486SOL    HW321711   2.423   2.388   4.056  0.9641  0.3053  0.9475
 5486SOL    MW421712   2.461   2.317   4.022  0.4874  0.6077 -0.2627
 5487SOL     OW21713   5.012   6.183   4.315 -0.2647  0.5665 -1.0915
 5487SOL    HW221714   5.100   6.145   4.318 -0.2674  0.6255  0.4450
 5487SOL    HW321715   4.956   6.109   4.291  0.0872  0.2983 -1.1154
 5487SOL    MW421716   5.017   6.168   4.312 -0.2187  0.5389 -0.8919
 5488SOL     OW21717   5.621   4.959   2.355  0.5437  0.1427 -0.4551
 5488SOL    HW221718   5.706   4.916   2.343  1.0876  0.9046  0.5297
 5488SOL    HW321719   5.570   4.896   2.407  0.8629  0.1122 -0.1728
 5488SOL    MW421720   5.625   4.945   2.361  0.6575  0.2392 -0.2879
 5489SOL     OW21721   4.774   5.827   6.075  0.6003  0.2201  0.7658
 5489SOL    HW221722   4.854   5.785   6.043  1.1622  2.1611 -0.5758
 5489SOL    HW321723   4.781   5.824   6.170  1.0596 -1.7934  0.7135
 5489SOL    MW421724   4.785   5.821   6.083  0.7350  0.2105  0.5819
 5490SOL     OW21725   5.628   3.161   4.741  0.4463 -0.5370  0.1417
 5490SOL    HW221726   5.677   3.228   4.694  1.9301  0.0896  2.4269
 5490SOL    HW321727   5.666   3.078   4.711 -0.0415 -0.2979 -1.2194
 5490SOL    MW421728   5.639   3.158   4.730  0.5777 -0.4228  0.2636
 5491SOL     OW21729   0.673   0.076   0.439 -0.1412 -0.5743 -0.1914
 5491SOL    HW221730   0.612   0.115   0.502  1.1696 -0.2048  0.8794
 5491SOL    HW321731   0.644   0.109   0.354 -0.0345  1.4846  0.5313
 5491SOL    MW421732   0.661   0.085   0.436  0.0458 -0.2539  0.0453
 5492SOL     OW21733   5.808   2.885   2.155  0.1478  0.0090  0.1408
 5492SOL    HW221734   5.738   2.924   2.208  0.7435 -0.0984  1.0268
 5492SOL    HW321735   5.761   2.832   2.090 -0.6533  1.5711 -0.6064
 5492SOL    MW421736   5.792   2.883   2.154  0.1207  0.2009  0.1591
 5493SOL     OW21737   1.473   3.858   5.484  0.1214  0.3647 -0.2627
 5493SOL    HW221738   1.456   3.810   5.403 -2.1396 -3.6132  2.2383
 5493SOL    HW321739   1.419   3.936   5.478 -1.0811 -0.5343 -2.0115
 5493SOL    MW421740   1.464   3.862   5.472 -0.3356 -0.2788 -0.1635
 5494SOL     OW21741   5.090   0.302   3.997 -0.0103 -0.2976  0.0500
 5494SOL    HW221742   5.024   0.360   4.036 -1.0947 -2.2559  1.2849
 5494SOL    HW321743   5.173   0.348   4.011 -1.0090  2.1292 -1.3540
 5494SOL    MW421744   5.092   0.316   4.004 -0.2851 -0.2358  0.0277
 5495SOL     OW21745   3.800   3.550   1.993 -0.1242  0.2811  0.3166
 5495SOL    HW221746   3.790   3.566   2.087  2.9543 -0.2498  0.8438
 5495SOL    HW321747   3.787   3.455   1.983 -1.3687  0.4660  0.0114
 5495SOL    MW421748   3.797   3.540   2.004  0.1178  0.2354  0.3459
 5496SOL     OW21749   0.463   4.060   5.343 -0.2549  0.7531 -0.2799
 5496SOL    HW221750   0.453   3.967   5.321  2.6363  0.8068 -2.4181
 5496SOL    HW321751   0.416   4.106   5.274 -0.7440  0.9015  0.1479
 5496SOL    MW421752   0.455   4.053   5.331  0.0620  0.7797 -0.5056
 5497SOL     OW21753   3.772   4.244   0.130 -0.0224  0.8447 -0.2519
 5497SOL    HW221754   3.741   4.164   0.172  1.2175  0.5323  0.1324
 5497SOL    HW321755   3.766   4.225   0.036  1.6167 -0.3070 -0.1803
 5497SOL    MW421756   3.767   4.231   0.123  0.3575  0.6515 -0.1917
 5498SOL     OW21757   5.920   3.931   3.767 -0.1263  0.0541 -0.0225
 5498SOL    HW221758   5.871   4.000   3.723 -0.7695 -0.4218 -0.0590
 5498SOL    HW321759   5.902   3.945   3.860  0.4900  0.4954  0.0354
 5498SOL    MW421760   5.911   3.942   3.774 -0.1299  0.0496 -0.0197
 5499SOL     OW21761   0.631   5.779   3.516 -0.7469  0.2574  0.1698
 5499SOL    HW221762   0.674   5.809   3.435 -0.5485  0.2878  0.2855
 5499SOL    HW321763   0.577   5.705   3.488 -0.4330  0.0638  0.0611
 5499SOL    MW421764   0.630   5.773   3.501 -0.6793  0.2359  0.1707
 5500SOL     OW21765   2.933   1.433   2.431  0.0971  0.5665 -0.9715
 5500SOL    HW221766   3.017   1.418   2.474  0.6776  0.4044 -2.1371
 5500SOL    HW321767   2.875   1.366   2.468  1.0437 -0.6887 -1.6848
 5500SOL    MW421768   2.937   1.422   2.442  0.2986  0.3795 -1.2194
 5501SOL     OW21769   4.397   5.409   2.225 -0.1703 -0.2311 -0.7783
 5501SOL    HW221770   4.324   5.400   2.164  0.3300  0.4955 -1.5028
 5501SOL    HW321771   4.409   5.504   2.233  1.4571 -0.3537 -1.5919
 5501SOL    MW421772   4.389   5.420   2.218  0.1104 -0.1514 -0.9813
 5502SOL     OW21773   1.840   2.033   3.221  0.1595  0.4986 -0.0398
 5502SOL    HW221774   1.756   1.996   3.250  0.2891  1.0140  1.0196
 5502SOL    HW321775   1.900   2.015   3.293  1.1541 -0.4717 -1.0750
 5502SOL    MW421776   1.837   2.026   3.234  0.3078  0.4386 -0.0366
 5503SOL     OW21777   4.046   5.289   5.609 -0.2087  0.0044  0.1580
 5503SOL    HW221778   4.014   5.222   5.549  0.8510 -1.2410  0.9459
 5503SOL    HW321779   3.987   5.364   5.594 -1.5924 -1.1688 -0.5507
 5503SOL    MW421780   4.034   5.290   5.599 -0.2514 -0.3147  0.1685
 5504SOL     OW21781   6.298   0.144   1.798 -0.5755 -0.0210 -0.0909
 5504SOL    HW221782   6.271   0.170   1.710 -0.6064 -2.3236 -0.8315
 5504SOL    HW321783   6.216   0.141   1.847 -0.8707 -0.9031 -0.6166
 5504SOL    MW421784   6.283   0.147   1.793 -0.6185 -0.4412 -0.2580
 5505SOL     OW21785   2.599   6.317   2.643 -0.5132 -0.1502  0.6504
 5505SOL    HW221786   2.656   6.243   2.625 -1.4665 -0.8623  0.4851
 5505SOL    HW321787   2.534   6.315   2.572 -0.9489  0.4320  1.0254
 5505SOL    MW421788   2.598   6.307   2.631 -0.6965 -0.1673  0.6781
 5506SOL     OW21789   1.563   2.797   5.847 -0.3186 -0.1222  0.0120
 5506SOL    HW221790   1.630   2.738   5.882  1.0897  0.8359 -0.9763
 5506SOL    HW321791   1.480   2.756   5.870  0.5961 -2.7412 -1.0630
 5506SOL    MW421792   1.561   2.784   5.855 -0.0121 -0.3413 -0.2602
 5507SOL     OW21793   0.398   4.257   5.968  0.4803 -0.0822  0.4251
 5507SOL    HW221794   0.323   4.233   6.022 -0.0664 -1.1792 -0.7664
 5507SOL    HW321795   0.437   4.173   5.943  0.2051  0.3164 -1.5448
 5507SOL    MW421796   0.393   4.243   5.971  0.3719 -0.1743  0.0080
 5508SOL     OW21797   0.651   0.007   5.361  0.4104  0.1751  0.6447
 5508SOL    HW221798   0.688   0.095   5.354  0.7734 -0.0975 -1.4018
 5508SOL    HW321799   0.724  -0.052   5.345 -0.4071 -0.4085 -1.2738
 5508SOL    MW421800   0.665   0.011   5.358  0.3504  0.0622  0.1215
 5509SOL     OW21801   2.508   0.282   4.906 -0.0018 -0.0599 -0.3273
 5509SOL    HW221802   2.562   0.233   4.967  3.2661  0.1982 -2.7502
 5509SOL    HW321803   2.460   0.345   4.961  0.8960 -1.4013  2.1231
 5509SOL    MW421804   2.508   0.284   4.921  0.5478 -0.2028 -0.3237
 5510SOL     OW21805   0.736   0.968   4.339 -0.0583 -0.0188  0.1878
 5510SOL    HW221806   0.732   1.058   4.307 -0.8808 -0.0696  0.1202
 5510SOL    HW321807   0.823   0.936   4.314  0.7788  1.1986  1.4220
 5510SOL    MW421808   0.747   0.975   4.332 -0.0564  0.1351  0.3417
 5511SOL     OW21809   0.924   5.238   1.655 -0.2870 -0.1811  0.0977
 5511SOL    HW221810   0.889   5.326   1.639 -1.2109 -0.6801 -0.7472
 5511SOL    HW321811   0.885   5.213   1.739  0.5112  0.4609  0.6757
 5511SOL    MW421812   0.914   5.246   1.664 -0.3036 -0.1623  0.0625
 5512SOL     OW21813   4.183   1.627   1.813  0.0931  0.1308 -0.0098
 5512SOL    HW221814   4.277   1.619   1.827  0.0830 -0.8986 -0.4256
 5512SOL    HW321815   4.164   1.720   1.828  0.9358  0.1011  1.4591
 5512SOL    MW421816   4.193   1.638   1.817  0.2030 -0.0089  0.1291
 5513SOL     OW21817   4.709   3.276   1.122 -0.0304 -0.3173 -0.1189
 5513SOL    HW221818   4.685   3.196   1.075 -0.5839  0.3286 -0.9645
 5513SOL    HW321819   4.718   3.249   1.213 -1.6965 -1.0469 -0.1439
 5513SOL    MW421820   4.707   3.262   1.128 -0.3233 -0.3283 -0.2338
 5514SOL     OW21821   4.366   2.405   4.331 -0.4046 -0.1157  0.6696
 5514SOL    HW221822   4.436   2.418   4.266  0.0639  0.3711  1.2606
 5514SOL    HW321823   4.403   2.438   4.413 -1.2238 -0.1334  1.0542
 5514SOL    MW421824   4.380   2.411   4.333 -0.4509 -0.0538  0.7983
 5515SOL     OW21825   5.312   4.333   0.747 -0.4333 -0.5845 -0.3860
 5515SOL    HW221826   5.399   4.373   0.749 -0.4161 -0.6483  0.3269
 5515SOL    HW321827   5.328   4.240   0.729 -0.2274 -0.9012  1.2898
 5515SOL    MW421828   5.325   4.326   0.745 -0.4039 -0.6347 -0.0708
 5516SOL     OW21829   5.288   3.427   3.472  0.6463 -0.5207  0.5184
 5516SOL    HW221830   5.234   3.348   3.465  2.1133 -1.4721 -0.7435
 5516SOL    HW321831   5.367   3.399   3.518  0.8337  0.4079  0.7832
 5516SOL    MW421832   5.291   3.413   3.477  0.8646 -0.5237  0.3868
 5517SOL     OW21833   4.548   0.903   6.488 -0.7476 -0.4922  0.1567
 5517SOL    HW221834   4.600   0.823   6.496 -1.1312 -0.8106 -0.4443
 5517SOL    HW321835   4.529   0.909   6.394  1.0242  1.4055 -0.1602
 5517SOL    MW421836   4.552   0.893   6.477 -0.5645 -0.2838  0.0356
 5518SOL     OW21837   3.059   1.725   4.511 -0.7340 -0.2389 -0.0246
 5518SOL    HW221838   3.028   1.804   4.467 -2.4196 -1.4501 -1.1303
 5518SOL    HW321839   3.085   1.667   4.439  1.3951 -0.3842  0.7928
 5518SOL    MW421840   3.059   1.727   4.495 -0.6755 -0.4179 -0.0626
 5519SOL     OW21841   4.111   3.602   5.152 -0.2233 -0.3395 -0.2167
 5519SOL    HW221842   4.027   3.584   5.194 -0.5827  0.5830 -0.5190
 5519SOL    HW321843   4.091   3.668   5.086  1.2213  2.4007  1.8609
 5519SOL    MW421844   4.097   3.608   5.149 -0.0801  0.1437  0.0175
 5520SOL     OW21845   4.650   4.827   1.618 -0.7249  0.4679 -0.3391
 5520SOL    HW221846   4.602   4.858   1.541 -0.7660 -1.7163 -1.2563
 5520SOL    HW321847   4.585   4.825   1.688 -0.9585  1.4057 -0.5130
 5520SOL    MW421848   4.635   4.831   1.617 -0.7611  0.3035 -0.4831
 5521SOL     OW21849   5.286   3.883   3.986 -0.0547 -0.5165  0.0857
 5521SOL    HW221850   5.229   3.853   4.057  0.4538 -1.6960  0.0176
 5521SOL    HW321851   5.301   3.805   3.932  0.2194  0.1735 -0.8725
 5521SOL    MW421852   5.280   3.869   3.988  0.0486 -0.5811 -0.0497
 5522SOL     OW21853   4.075   6.306   4.323  0.3834  0.1730  0.4214
 5522SOL    HW221854   3.982   6.291   4.339  0.5472 -0.9655  0.4239
 5522SOL    HW321855   4.086   6.294   4.228  0.5978 -0.1852  0.4870
 5522SOL    MW421856   4.064   6.302   4.312  0.4333 -0.0245  0.4304
 5523SOL     OW21857   0.506   2.532   5.749 -0.0872  0.1193 -0.4590
 5523SOL    HW221858   0.564   2.530   5.825 -0.8165 -2.2708  0.1193
 5523SOL    HW321859   0.424   2.569   5.782 -0.8982 -2.2464  0.4067
 5523SOL    MW421860   0.503   2.536   5.763 -0.2904 -0.5082 -0.2685
 5524SOL     OW21861   4.133   1.165   4.728  0.3296 -0.5723  0.0641
 5524SOL    HW221862   4.089   1.118   4.656 -0.3360  0.0427  0.0592
 5524SOL    HW321863   4.215   1.195   4.689  0.8831 -1.8962  0.1269
 5524SOL    MW421864   4.138   1.163   4.713  0.3148 -0.6659  0.0718
 5525SOL     OW21865   5.194   1.195   1.977 -0.0904 -0.3737  0.5337
 5525SOL    HW221866   5.207   1.236   1.892  0.3917  0.5636  1.0492
 5525SOL    HW321867   5.172   1.104   1.956  1.1188 -0.4474 -0.5562
 5525SOL    MW421868   5.193   1.188   1.963  0.1327 -0.2598  0.4579
 5526SOL     OW21869   3.974   2.859   2.317 -0.2202 -0.1880  0.2483
 5526SOL    HW221870   3.895   2.867   2.370  1.2671 -1.4041  2.8093
 5526SOL    HW321871   3.950   2.799   2.247 -1.1975 -1.7220  1.8404
 5526SOL    MW421872   3.960   2.852   2.315 -0.1529 -0.5508  0.7962
 5527SOL     OW21873   1.831   3.167   4.844  0.2902  0.7124 -0.1236
 5527SOL    HW221874   1.841   3.258   4.871  0.2297  1.2787 -1.9153
 5527SOL    HW321875   1.836   3.169   4.749 -2.5133 -0.7875 -0.4012
 5527SOL    MW421876   1.833   3.179   4.835 -0.0877  0.5892 -0.3966
 5528SOL     OW21877   1.651   6.145   2.383  0.0582 -0.0591  0.1339
 5528SOL    HW221878   1.728   6.090   2.397 -0.6290 -1.1381 -0.1835
 5528SOL    HW321879   1.668   6.224   2.435  1.5340 -0.1044 -0.2297
 5528SOL    MW421880   1.663   6.148   2.392  0.1622 -0.2075  0.0441
 5529SOL     OW21881   0.040   1.133   3.166 -0.2545  0.1357 -0.3294
 5529SOL    HW221882  -0.024   1.113   3.235 -1.6401  0.1407 -1.5775
 5529SOL    HW321883   0.052   1.050   3.119  1.3750 -0.1012  0.4198
 5529SOL    MW421884   0.033   1.119   3.169 -0.2223  0.1051 -0.3952
 5530SOL     OW21885   3.343   1.988   4.973 -0.1984  0.0812  0.2274
 5530SOL    HW221886   3.262   1.983   4.921 -0.2343 -0.6064  0.3421
 5530SOL    HW321887   3.409   2.018   4.911 -0.6916  1.4548  0.3172
 5530SOL    MW421888   3.341   1.991   4.958 -0.2682  0.1717  0.2544
 5531SOL     OW21889   2.011   6.308   1.601  0.4252 -0.2577  0.2788
 5531SOL    HW221890   2.030   6.239   1.538  1.9491 -0.7271  1.1919
 5531SOL    HW321891   2.020   6.266   1.687 -1.1117  0.4828  0.8387
 5531SOL    MW421892   2.015   6.294   1.604  0.4235 -0.2220  0.4732
 5532SOL     OW21893   6.282   5.098   6.182  0.3927  0.1975  0.7666
 5532SOL    HW221894   6.361   5.149   6.163  0.4910  0.1220  0.9696
 5532SOL    HW321895   6.239   5.088   6.097  1.7253 -1.6388  0.2336
 5532SOL    MW421896   6.287   5.104   6.168  0.5815 -0.0547  0.7231
 5533SOL     OW21897   4.894   3.698   3.435 -0.1339  0.0051  0.1021
 5533SOL    HW221898   4.800   3.682   3.442 -0.2419  0.9869  1.1102
 5533SOL    HW321899   4.912   3.764   3.502  1.1033  0.5483 -0.7372
 5533SOL    MW421900   4.884   3.704   3.445  0.0151  0.2063  0.1244
 5534SOL     OW21901   3.071   6.207   6.158  0.3077  0.6195 -0.0784
 5534SOL    HW221902   3.105   6.295   6.141  1.0909  0.4077  0.3286
 5534SOL    HW321903   3.049   6.208   6.251  0.7926  0.2393  0.0464
 5534SOL    MW421904   3.073   6.219   6.168  0.4750  0.5414 -0.0082
 5535SOL     OW21905   2.280   3.391   2.769 -0.0723 -0.3988 -0.2383
 5535SOL    HW221906   2.230   3.455   2.820  0.3405 -1.2054  1.2624
 5535SOL    HW321907   2.223   3.314   2.765 -0.4958 -0.0412 -1.8852
 5535SOL    MW421908   2.266   3.390   2.776 -0.0737 -0.4581 -0.2576
 5536SOL     OW21909   3.937   2.069   5.566 -0.2538  0.0672 -0.2137
 5536SOL    HW221910   3.937   1.974   5.563  0.5270 -0.0102  1.0657
 5536SOL    HW321911   3.845   2.094   5.576 -0.3735 -0.6139  0.4428
 5536SOL    MW421912   3.925   2.060   5.567 -0.1666 -0.0329  0.0417
 5537SOL     OW21913   4.383   1.822   2.948  0.4072  0.1240 -0.3859
 5537SOL    HW221914   4.315   1.887   2.965  0.4954  0.4276 -1.1480
 5537SOL    HW321915   4.454   1.844   3.008 -0.6561 -1.0069  1.4022
 5537SOL    MW421916   4.383   1.834   2.958  0.2785  0.0148 -0.2505
 5538SOL     OW21917   5.186   2.453   5.791 -0.3316 -0.2176 -0.1221
 5538SOL    HW221918   5.170   2.483   5.880  0.0523  0.6892 -0.3416
 5538SOL    HW321919   5.259   2.392   5.798 -0.1289  0.0585  0.1503
 5538SOL    MW421920   5.193   2.449   5.803 -0.2542 -0.0615 -0.1151
 5539SOL     OW21921   4.021   0.238   2.739 -0.0586 -0.1487 -0.0161
 5539SOL    HW221922   4.037   0.332   2.747  0.3803 -0.3329  1.7387
 5539SOL    HW321923   3.947   0.221   2.798 -0.8650 -0.7542 -1.1544
 5539SOL    MW421924   4.013   0.248   2.748 -0.1071 -0.2529  0.0652
 5540SOL     OW21925   2.301   2.564   3.001 -0.4501 -0.0999 -0.5167
 5540SOL    HW221926   2.215   2.524   3.008 -0.3589 -0.2676 -0.3533
 5540SOL    HW321927   2.331   2.574   3.092 -1.4768  2.5227 -0.3802
 5540SOL    MW421928   2.294   2.560   3.014 -0.5735  0.2240 -0.4771
 5541SOL     OW21929   5.413   1.515   4.401  0.0134 -0.4249  0.2561
 5541SOL    HW221930   5.336   1.572   4.404  0.5128  0.2294  0.8886
 5541SOL    HW321931   5.448   1.517   4.490  1.1328 -0.1874 -0.1746
 5541SOL    MW421932   5.407   1.523   4.413  0.2270 -0.3073  0.2827
 5542SOL     OW21933   4.707   2.342   2.774 -0.3696  0.0983 -0.2860
 5542SOL    HW221934   4.659   2.365   2.695 -0.1254 -0.3151 -0.5598
 5542SOL    HW321935   4.675   2.254   2.796 -0.2879  0.1292 -0.0417
 5542SOL    MW421936   4.696   2.333   2.767 -0.3266  0.0479 -0.2899
 5543SOL     OW21937   4.684   3.665   1.556 -0.2091 -0.0613  0.3717
 5543SOL    HW221938   4.652   3.610   1.484  2.0747 -0.6482 -0.2774
 5543SOL    HW321939   4.613   3.728   1.570 -1.5450 -1.1372 -1.0578
 5543SOL    MW421940   4.670   3.666   1.548 -0.0840 -0.2807  0.0975
 5544SOL     OW21941   2.752   5.857   4.066 -0.3333  0.0064 -0.2804
 5544SOL    HW221942   2.693   5.830   3.995  1.3446 -3.1986 -0.6612
 5544SOL    HW321943   2.815   5.916   4.024 -0.2844 -0.6230 -1.1234
 5544SOL    MW421944   2.753   5.861   4.051 -0.1055 -0.4995 -0.4418
 5545SOL     OW21945   0.107   3.011   3.982  0.9010  0.0313  0.2687
 5545SOL    HW221946   0.131   3.014   3.889  0.0273 -0.6585  0.0146
 5545SOL    HW321947   0.075   2.922   3.996 -1.3317  0.8351  0.6212
 5545SOL    MW421948   0.106   3.000   3.971  0.4912  0.0463  0.2817
 5546SOL     OW21949   2.876   4.785   0.707  0.2573 -0.7099  0.3151
 5546SOL    HW221950   2.811   4.831   0.654 -1.3468 -1.3947  1.6067
 5546SOL    HW321951   2.900   4.708   0.654  1.0862  0.2420 -0.7553
 5546SOL    MW421952   2.871   4.781   0.693  0.1550 -0.6746  0.3443
 5547SOL     OW21953   2.236   4.375   1.425 -0.1758 -0.3350 -0.4190
 5547SOL    HW221954   2.297   4.390   1.353  0.9958  1.1665  0.8098
 5547SOL    HW321955   2.283   4.316   1.484  0.1446  0.8308  0.5348
 5547SOL    MW421956   2.250   4.369   1.423  0.0210  0.0169 -0.1311
 5548SOL     OW21957   5.040   3.512   3.677  0.2417 -0.1147 -0.1725
 5548SOL    HW221958   4.982   3.438   3.663  1.6731 -1.0595 -1.3097
 5548SOL    HW321959   5.093   3.487   3.753 -0.1415  0.3191  0.2463
 5548SOL    MW421960   5.040   3.499   3.685  0.3800 -0.1821 -0.2673
 5549SOL     OW21961   2.000   5.444   0.879 -0.0143 -0.0502  0.1816
 5549SOL    HW221962   2.084   5.442   0.834  0.6684 -0.4704  1.4135
 5549SOL    HW321963   1.934   5.435   0.810  0.8730  1.8279 -0.9765
 5549SOL    MW421964   2.002   5.443   0.864  0.1928  0.1422  0.1914
 5550SOL     OW21965   2.896   4.737   1.825  0.1532 -0.1694  0.6533
 5550SOL    HW221966   2.801   4.729   1.828  0.0166  0.3033 -1.0965
 5550SOL    HW321967   2.928   4.663   1.878 -1.1880 -1.6738 -0.5302
 5550SOL    MW421968   2.888   4.726   1.832 -0.0417 -0.3055  0.2663
 5551SOL     OW21969   2.605   4.774   1.735  0.1696  0.3708 -0.1467
 5551SOL    HW221970   2.517   4.756   1.768  0.0939 -0.5918 -0.8254
 5551SOL    HW321971   2.620   4.705   1.670  1.3607  0.6198 -0.1482
 5551SOL    MW421972   2.595   4.762   1.731  0.3168  0.2766 -0.2364
 5552SOL     OW21973   5.843   3.834   2.947 -0.5564 -0.0469  0.2223
 5552SOL    HW221974   5.870   3.794   3.030  2.4049  1.9481  0.3869
 5552SOL    HW321975   5.814   3.761   2.893  2.3366 -2.1380  1.2708
 5552SOL    MW421976   5.842   3.819   2.951  0.2160 -0.0596  0.3824
 5553SOL     OW21977   2.397   5.710   2.998 -0.6644 -0.5639  0.0589
 5553SOL    HW221978   2.365   5.759   3.074 -0.1520 -0.0944 -0.0198
 5553SOL    HW321979   2.329   5.645   2.981  0.2294 -2.2411  2.3470
 5553SOL    MW421980   2.384   5.708   3.006 -0.4788 -0.7232  0.3504
 5554SOL     OW21981   4.874   3.281   3.636 -0.1960  0.5246 -0.1166
 5554SOL    HW221982   4.846   3.281   3.545 -0.2105  0.6506 -0.1133
 5554SOL    HW321983   4.799   3.249   3.685 -0.5243  1.3720 -0.0542
 5554SOL    MW421984   4.861   3.277   3.631 -0.2412  0.6531 -0.1080
 5555SOL     OW21985   5.631   5.679   2.686  0.0878 -0.1993 -0.0277
 5555SOL    HW221986   5.672   5.766   2.683  0.3224 -0.3296 -1.1611
 5555SOL    HW321987   5.648   5.648   2.775  0.2138  0.8108  0.3227
 5555SOL    MW421988   5.639   5.687   2.698  0.1354 -0.0832 -0.1310
 5556SOL     OW21989   2.857   5.375   4.581  0.0065 -0.7002 -0.4033
 5556SOL    HW221990   2.781   5.431   4.600 -1.2100 -2.9421  2.1349
 5556SOL    HW321991   2.822   5.307   4.525  0.5537 -0.8786 -0.5276
 5556SOL    MW421992   2.842   5.374   4.576 -0.0818 -1.0195 -0.0848
 5557SOL     OW21993   0.072   4.474   3.960 -0.2917 -0.9622 -0.1545
 5557SOL    HW221994   0.020   4.447   3.884 -1.3297  0.0411  0.1715
 5557SOL    HW321995   0.018   4.540   4.004  2.1664  1.8130 -1.0005
 5557SOL    MW421996   0.058   4.479   3.956 -0.1044 -0.4637 -0.2231
 5558SOL     OW21997   5.079   4.773   0.561 -0.2011  0.3006  0.1551
 5558SOL    HW221998   5.169   4.741   0.556 -0.1095  0.4574  0.6824
 5558SOL    HW321999   5.088   4.866   0.584 -0.5105 -0.0501  1.8685
 5558SOL    MW422000   5.092   4.781   0.564 -0.2298  0.2750  0.4507
 5559SOL     OW22001   1.563   3.530   2.201  0.0298  0.7778  0.0226
 5559SOL    HW222002   1.570   3.488   2.116 -0.1934  0.7925 -0.0046
 5559SOL    HW322003   1.486   3.490   2.242 -0.3102  1.3042 -0.0895
 5559SOL    MW422004   1.553   3.519   2.195 -0.0445  0.8492  0.0042
 5560SOL     OW22005   4.168   0.188   5.346  0.2508 -0.4439 -0.7013
 5560SOL    HW222006   4.243   0.154   5.395  1.0182 -1.5960 -2.6058
 5560SOL    HW322007   4.175   0.283   5.355  0.9463 -0.5877  0.5384
 5560SOL    MW422008   4.179   0.196   5.354  0.4438 -0.6149 -0.7890
 5561SOL     OW22009   1.607   5.853   0.806 -0.1117 -0.1145 -0.4012
 5561SOL    HW222010   1.652   5.908   0.742  0.5034  0.4784  0.5105
 5561SOL    HW322011   1.578   5.914   0.874  1.4187 -0.9780  1.1152
 5561SOL    MW422012   1.609   5.869   0.807  0.1714 -0.1502 -0.0809
 5562SOL     OW22013   5.045   3.492   2.863 -0.0235  0.1556  0.3380
 5562SOL    HW222014   5.103   3.433   2.911 -0.2177 -0.5082 -0.2350
 5562SOL    HW322015   4.981   3.520   2.928 -1.0930 -1.8014  0.1721
 5562SOL    MW422016   5.044   3.488   2.878 -0.1902 -0.1902  0.2405
 5563SOL     OW22017   6.243   5.699   0.123  0.3558 -0.0788 -0.3872
 5563SOL    HW222018   6.165   5.675   0.073  0.0908 -1.4965  0.6414
 5563SOL    HW322019   6.282   5.771   0.073 -1.0950  0.0473 -1.4163
 5563SOL    MW422020   6.238   5.705   0.110  0.1294 -0.2493 -0.3872
 5564SOL     OW22021   1.310   5.016   4.201 -1.1042 -0.5125 -0.4506
 5564SOL    HW222022   1.379   4.950   4.207  0.5433  1.2751  2.7085
 5564SOL    HW322023   1.322   5.055   4.114  0.8590 -1.3123 -0.5863
 5564SOL    MW422024   1.320   5.012   4.190 -0.6278 -0.3822 -0.0517
 5565SOL     OW22025   0.344   3.927   0.924  0.0722 -0.2802  0.1919
 5565SOL    HW222026   0.383   3.919   1.011 -1.4440 -3.7899  0.7052
 5565SOL    HW322027   0.406   3.883   0.866 -0.5729 -1.1197  0.1237
 5565SOL    MW422028   0.358   3.920   0.928 -0.2130 -0.8540  0.2506
 5566SOL     OW22029   4.636   6.334   0.440 -0.2574  0.5150 -0.2226
 5566SOL    HW222030   4.597   6.277   0.374  0.9254  0.6748 -1.1008
 5566SOL    HW322031   4.565   6.390   0.470 -1.7741 -2.1117  1.4998
 5566SOL    MW422032   4.622   6.334   0.435 -0.3014  0.1895 -0.1112
 5567SOL     OW22033   5.922   1.199   2.084 -0.3292  1.0920  0.0559
 5567SOL    HW222034   5.900   1.129   2.146 -1.2433  0.8253 -0.5612
 5567SOL    HW322035   6.018   1.203   2.087 -0.2906  0.1684  0.4928
 5567SOL    MW422036   5.932   1.190   2.092 -0.4447  0.9350  0.0321
 5568SOL     OW22037   3.794   2.678   1.712  0.3364 -0.0106 -0.4882
 5568SOL    HW222038   3.825   2.768   1.713  1.0771 -0.2362 -1.1706
 5568SOL    HW322039   3.831   2.639   1.791  0.6062  0.1095 -0.5511
 5568SOL    MW422040   3.803   2.684   1.722  0.4697 -0.0245 -0.5865
 5569SOL     OW22041   1.917   1.327   5.890  0.0242 -0.2704 -0.2036
 5569SOL    HW222042   1.892   1.369   5.972  0.4928  1.4671 -0.8989
 5569SOL    HW322043   2.007   1.357   5.874 -0.2637 -0.0663 -1.6274
 5569SOL    MW422044   1.926   1.337   5.899  0.0480 -0.0143 -0.4832
 5570SOL     OW22045   1.570   3.131   4.956 -0.4009  0.2823 -0.2577
 5570SOL    HW222046   1.654   3.126   4.910  0.2188 -0.0118  0.8639
 5570SOL    HW322047   1.536   3.218   4.933  1.1414  1.2255  0.7800
 5570SOL    MW422048   1.577   3.142   4.947 -0.1156  0.3679  0.0272
 5571SOL     OW22049   3.427   0.492   3.319  0.7735  0.0001  0.8477
 5571SOL    HW222050   3.353   0.439   3.349  0.6414  0.2803  1.0233
 5571SOL    HW322051   3.494   0.428   3.294  0.6326 -0.2494  1.0977
 5571SOL    MW422052   3.426   0.477   3.320  0.7375  0.0041  0.9038
 5572SOL     OW22053   0.846   0.132   0.815 -0.6746  0.1153 -0.7295
 5572SOL    HW222054   0.830   0.205   0.875  1.1549 -0.7280  0.8965
 5572SOL    HW322055   0.799   0.058   0.855  2.1769 -0.9547  0.9357
 5572SOL    MW422056   0.838   0.132   0.828 -0.0570 -0.1372 -0.2953
 5573SOL     OW22057   3.267   3.350   1.475  0.2465  0.3340  0.0785
 5573SOL    HW222058   3.179   3.331   1.509 -0.0892  1.0317 -0.3619
 5573SOL    HW322059   3.324   3.289   1.520 -0.0755  1.6105  2.4119
 5573SOL    MW422060   3.263   3.340   1.485  0.1597  0.5945  0.3283
 5574SOL     OW22061   5.619   3.124   5.600  0.0500  0.3398 -0.2197
 5574SOL    HW222062   5.620   3.029   5.595 -0.3872  0.3042  0.3589
 5574SOL    HW322063   5.684   3.152   5.536 -0.4522 -0.3210 -1.0375
 5574SOL    MW422064   5.628   3.115   5.591 -0.0739  0.2479 -0.2513
 5575SOL     OW22065   1.976   6.190   1.901  0.1200  1.0072  0.2197
 5575SOL    HW222066   1.924   6.263   1.935  0.1541  0.2433  2.0088
 5575SOL    HW322067   2.023   6.156   1.977  1.4114  0.1617 -0.8983
 5575SOL    MW422068   1.976   6.195   1.915  0.2949  0.7949  0.3082
 5576SOL     OW22069   2.625   2.439   2.993  0.3672  0.1405 -1.1531
 5576SOL    HW222070   2.662   2.464   2.908 -0.2430  1.6421 -1.0167
 5576SOL    HW322071   2.578   2.517   3.022  0.8127 -0.2288  0.7133
 5576SOL    MW422072   2.624   2.453   2.986  0.3455  0.2899 -0.8889
 5577SOL     OW22073   2.401   6.304   4.671 -0.4186 -0.1439 -0.3338
 5577SOL    HW222074   2.339   6.273   4.605 -1.6330  0.2494  0.5747
 5577SOL    HW322075   2.478   6.332   4.621 -1.8580  1.5207 -1.7694
 5577SOL    MW422076   2.403   6.304   4.656 -0.7688  0.1276 -0.4033
 5578SOL     OW22077   3.164   5.883   5.893  0.1644 -0.4838 -0.1206
 5578SOL    HW222078   3.174   5.817   5.824  0.7202 -0.1889 -0.3350
 5578SOL    HW322079   3.233   5.863   5.956 -0.6112 -1.0113  0.5778
 5578SOL    MW422080   3.175   5.872   5.892  0.1354 -0.5145 -0.0567
 5579SOL     OW22081   1.299   0.319   1.294  0.1433 -0.7391  0.2546
 5579SOL    HW222082   1.254   0.398   1.322 -1.5970 -0.8201 -2.0806
 5579SOL    HW322083   1.383   0.350   1.260 -1.4289  0.5160 -2.8185
 5579SOL    MW422084   1.304   0.333   1.293 -0.2937 -0.5842 -0.4589
 5580SOL     OW22085   2.004   0.383   0.500 -0.4690  0.3832 -0.0125
 5580SOL    HW222086   2.051   0.321   0.444 -1.5140 -0.1135 -0.3716
 5580SOL    HW322087   2.031   0.469   0.468  1.4770  0.1737  0.8926
 5580SOL    MW422088   2.014   0.386   0.488 -0.3501  0.2900  0.0595
 5581SOL     OW22089   4.869   4.948   5.993 -0.3675 -0.3397  0.2612
 5581SOL    HW222090   4.870   5.016   6.060  0.1191  0.8162 -0.8695
 5581SOL    HW322091   4.942   4.971   5.935  1.1814 -3.0183  0.9858
 5581SOL    MW422092   4.879   4.960   5.994 -0.0989 -0.5406  0.2076
 5582SOL     OW22093   3.874   5.715   0.906  0.6006  0.6670  0.1544
 5582SOL    HW222094   3.964   5.746   0.911  0.6650  0.6856 -0.8413
 5582SOL    HW322095   3.851   5.690   0.996  1.4874  0.9545  0.4646
 5582SOL    MW422096   3.883   5.716   0.918  0.7261  0.7074  0.0639
 5583SOL     OW22097   5.429   3.982   2.556  0.4415 -0.1789  0.4072
 5583SOL    HW222098   5.466   3.931   2.484  0.7157 -0.5983  0.8356
 5583SOL    HW322099   5.347   3.938   2.578  0.4946 -0.2172  0.5323
 5583SOL    MW422100   5.423   3.970   2.549  0.4847 -0.2393  0.4802
 5584SOL     OW22101   4.530   5.686   6.005 -0.2725 -0.4346 -0.1108
 5584SOL    HW222102   4.569   5.602   5.982 -0.7397 -0.9376  0.9190
 5584SOL    HW322103   4.605   5.744   6.021  0.0448 -0.8660 -0.0322
 5584SOL    MW422104   4.545   5.683   6.004 -0.2923 -0.5579  0.0354
 5585SOL     OW22105   4.871   4.578   6.409 -0.4606 -0.1182  0.1975
 5585SOL    HW222106   4.890   4.665   6.374  3.1604  0.6145  3.3316
 5585SOL    HW322107   4.791   4.590   6.460 -0.0655  1.4294  0.5138
 5585SOL    MW422108   4.863   4.591   6.411  0.0693  0.1827  0.6528
 5586SOL     OW22109   3.794   3.451   2.993 -0.0464 -0.5642 -0.6947
 5586SOL    HW222110   3.782   3.545   2.978  0.2780 -0.3677  0.1833
 5586SOL    HW322111   3.878   3.430   2.951 -0.9223 -0.8503 -2.3908
 5586SOL    MW422112   3.804   3.461   2.986 -0.1192 -0.5760 -0.8027
 5587SOL     OW22113   3.778   3.568   6.100  0.2790 -0.1609 -0.0480
 5587SOL    HW222114   3.718   3.582   6.173  1.2392  1.7772  0.4227
 5587SOL    HW322115   3.810   3.479   6.113 -4.5164 -2.5319 -1.9249
 5587SOL    MW422116   3.774   3.558   6.111 -0.2270 -0.2180 -0.2336
 5588SOL     OW22117   3.484   4.548   3.461  0.8409 -0.6629 -0.4106
 5588SOL    HW222118   3.499   4.601   3.539  1.7342 -0.8088 -0.4675
 5588SOL    HW322119   3.425   4.479   3.489  1.6091 -1.0500  0.2960
 5588SOL    MW422120   3.478   4.546   3.475  1.0601 -0.7333 -0.3249
 5589SOL     OW22121   5.301   1.332   1.184  0.4001  0.4504  0.5854
 5589SOL    HW222122   5.283   1.261   1.246  1.1030 -2.9380 -2.7430
 5589SOL    HW322123   5.214   1.360   1.154  0.0673  1.9467  2.7437
 5589SOL    MW422124   5.287   1.326   1.188  0.4489  0.2008  0.4310
 5590SOL     OW22125   0.158   3.812   4.551  0.0242 -0.3756 -0.5518
 5590SOL    HW222126   0.190   3.772   4.632  1.7341  2.4992  0.3159
 5590SOL    HW322127   0.237   3.834   4.501 -0.8549  0.8164 -1.4981
 5590SOL    MW422128   0.173   3.810   4.555  0.1338  0.1609 -0.5622
 5591SOL     OW22129   1.071   2.679   2.734  0.6504 -0.4197  0.5510
 5591SOL    HW222130   1.143   2.713   2.786 -0.4320  0.8328  1.2887
 5591SOL    HW322131   1.016   2.755   2.716 -0.7923 -1.4231  0.5064
 5591SOL    MW422132   1.073   2.694   2.738  0.3172 -0.3868  0.6425
 5592SOL     OW22133   3.524   2.512   5.377  0.1880  0.3770  0.8367
 5592SOL    HW222134   3.454   2.470   5.427  0.5822 -0.3234  0.8137
 5592SOL    HW322135   3.524   2.603   5.408 -1.4539  0.6799  0.0279
 5592SOL    MW422136   3.515   2.518   5.388  0.0234  0.3246  0.7270
 5593SOL     OW22137   4.367   0.951   2.724 -0.0726  0.0237  0.1652
 5593SOL    HW222138   4.326   0.868   2.701  0.7785 -0.6695  1.0138
 5593SOL    HW322139   4.450   0.925   2.765  0.0060  1.2728  0.8472
 5593SOL    MW422140   4.373   0.937   2.727  0.0501  0.0970  0.3671
 5594SOL     OW22141   3.548   2.754   5.551  0.4633  0.0728 -0.4440
 5594SOL    HW222142   3.541   2.695   5.627 -1.3345 -0.0723 -0.6795
 5594SOL    HW322143   3.477   2.816   5.563  2.5227  2.5070 -0.0286
 5594SOL    MW422144   3.538   2.754   5.563  0.4978  0.3749 -0.4203
 5595SOL     OW22145   5.759   4.556   3.868  0.0152  0.6224 -0.3029
 5595SOL    HW222146   5.838   4.509   3.893 -1.3228 -1.3528  0.4420
 5595SOL    HW322147   5.753   4.628   3.931  0.9992  0.5672 -0.1339
 5595SOL    MW422148   5.769   4.559   3.880 -0.0315  0.3545 -0.1823
 5596SOL     OW22149   1.703   3.827   3.630  0.0052 -0.0322 -0.7084
 5596SOL    HW222150   1.661   3.756   3.581 -1.3596  0.6889 -0.6448
 5596SOL    HW322151   1.679   3.906   3.582 -2.5049  0.8540  1.7338
 5596SOL    MW422152   1.694   3.828   3.617 -0.5061  0.1799 -0.3778
 5597SOL     OW22153   0.260   6.176   1.233  0.5250  0.2949  0.3550
 5597SOL    HW222154   0.180   6.161   1.283  0.7390 -1.0753  0.3229
 5597SOL    HW322155   0.330   6.173   1.298  0.7734 -1.1696  0.0613
 5597SOL    MW422156   0.258   6.174   1.248  0.5860 -0.0791  0.3120
 5598SOL     OW22157   3.020   2.855   5.181  0.0908  0.1343  0.0317
 5598SOL    HW222158   2.939   2.808   5.201  0.2275  0.5955  1.8703
 5598SOL    HW322159   3.083   2.787   5.159 -0.2688 -0.3916  0.6033
 5598SOL    MW422160   3.018   2.840   5.180  0.0614  0.1258  0.3497
 5599SOL     OW22161   4.625   4.828   2.046 -0.7558  0.1027 -0.0780
 5599SOL    HW222162   4.584   4.850   2.129 -0.1319 -0.8327  0.4925
 5599SOL    HW322163   4.711   4.870   2.049 -0.2447 -0.9302  0.2916
 5599SOL    MW422164   4.631   4.836   2.057 -0.6060 -0.1570  0.0460
 5600SOL     OW22165   1.936   2.987   0.923 -0.0676 -0.0356 -0.5420
 5600SOL    HW222166   1.974   2.913   0.970  0.5848 -0.0520 -1.0802
 5600SOL    HW322167   1.893   3.039   0.991  1.2324  0.1799  0.1421
 5600SOL    MW422168   1.935   2.984   0.938  0.1900 -0.0093 -0.5228
 5601SOL     OW22169   6.231   5.523   3.950  0.8306 -1.2381  0.3716
 5601SOL    HW222170   6.178   5.444   3.941 -1.5607  0.0019  2.4610
 5601SOL    HW322171   6.167   5.594   3.956  2.8632  0.7642 -0.2780
 5601SOL    MW422172   6.216   5.522   3.949  0.7833 -0.8103  0.5616
 5602SOL     OW22173   4.329   2.648   2.213 -0.6090 -0.0309  0.0181
 5602SOL    HW222174   4.412   2.695   2.206  0.1806 -1.4617 -0.4979
 5602SOL    HW322175   4.336   2.600   2.295 -1.9720  1.7477  1.2384
 5602SOL    MW422176   4.341   2.648   2.223 -0.6847  0.0150  0.1110
 5603SOL     OW22177   1.801   3.302   1.623 -0.0282 -0.2542  0.3836
 5603SOL    HW222178   1.812   3.377   1.682  1.1461  0.6247 -0.8811
 5603SOL    HW322179   1.885   3.257   1.626 -0.5007 -1.1448  0.5973
 5603SOL    MW422180   1.813   3.306   1.631  0.0644 -0.2557  0.2449
 5604SOL     OW22181   3.507   5.765   3.382  0.2727 -0.2431  0.4808
 5604SOL    HW222182   3.422   5.721   3.379  0.3666 -0.3801 -1.4590
 5604SOL    HW322183   3.569   5.695   3.406  0.0730 -0.5671  0.0658
 5604SOL    MW422184   3.504   5.750   3.385  0.2588 -0.3039  0.1701
 5605SOL     OW22185   1.694   0.320   4.184 -0.1535  0.0155  0.2780
 5605SOL    HW222186   1.787   0.303   4.203  0.0690  1.5961  0.7769
 5605SOL    HW322187   1.695   0.368   4.102 -0.5982 -0.6322 -0.1090
 5605SOL    MW422188   1.707   0.324   4.176 -0.1828  0.1386  0.2928
 5606SOL     OW22189   2.544   4.029   3.319  0.5225  0.0413 -0.2362
 5606SOL    HW222190   2.468   4.052   3.266  1.3795  1.3281 -0.9590
 5606SOL    HW322191   2.580   3.952   3.277 -0.7576 -1.0234  0.5315
 5606SOL    MW422192   2.539   4.022   3.307  0.4666  0.0706 -0.2302
 5607SOL     OW22193   0.507   3.010   1.324  0.2380 -0.5391  0.0522
 5607SOL    HW222194   0.519   2.919   1.352 -1.1297 -0.3744  1.3499
 5607SOL    HW322195   0.473   3.054   1.402 -1.4017  0.5341 -1.1960
 5607SOL    MW422196   0.504   3.004   1.338 -0.1588 -0.3758  0.0587
 5608SOL     OW22197   1.017   0.035   3.623 -0.2699  0.5058  0.1136
 5608SOL    HW222198   1.002   0.128   3.609  0.5258  0.8956  1.6562
 5608SOL    HW322199   0.946  -0.008   3.575 -3.2030  2.0675  2.6871
 5608SOL    MW422200   1.005   0.041   3.615 -0.5519  0.7633  0.6567
 5609SOL     OW22201   3.165   5.238   4.126 -0.6787  0.8266 -0.5766
 5609SOL    HW222202   3.182   5.330   4.108  1.2541  0.4867 -0.7047
 5609SOL    HW322203   3.246   5.193   4.104 -1.1030 -0.7409  0.7722
 5609SOL    MW422204   3.178   5.244   4.121 -0.4797  0.5750 -0.4155
 5610SOL     OW22205   0.836   5.083   5.506  0.6625  0.1445  0.0259
 5610SOL    HW222206   0.909   5.021   5.507  0.7603  0.1951  2.3329
 5610SOL    HW322207   0.777   5.049   5.439  1.9919 -0.8666 -0.6997
 5610SOL    MW422208   0.838   5.070   5.498  0.8508  0.0178  0.2346
 5611SOL     OW22209   5.034   3.082   1.083 -0.3165 -0.3965  0.2542
 5611SOL    HW222210   5.125   3.053   1.081 -0.2948 -0.4882 -3.0980
 5611SOL    HW322211   4.983   3.001   1.084 -0.4201 -0.3446  2.3867
 5611SOL    MW422212   5.039   3.068   1.083 -0.3273 -0.4017  0.0933
 5612SOL     OW22213   4.676   0.330   0.467 -0.5469  0.4841 -0.0976
 5612SOL    HW222214   4.699   0.346   0.558 -0.9756  0.5649 -0.0011
 5612SOL    HW322215   4.660   0.417   0.430 -0.8156  0.4242 -0.1285
 5612SOL    MW422216   4.677   0.344   0.474 -0.6389  0.4869 -0.0889
 5613SOL     OW22217   2.003   0.113   2.298 -0.0181  0.0618  0.2151
 5613SOL    HW222218   1.933   0.176   2.313  0.3108  1.1096 -2.2064
 5613SOL    HW322219   2.061   0.156   2.235  0.4279 -2.5073 -1.2826
 5613SOL    MW422220   2.002   0.127   2.292  0.0841 -0.1389 -0.3020
 5614SOL     OW22221   3.135   6.349   4.230 -0.3557 -0.0924  0.5477
 5614SOL    HW222222   3.102   6.410   4.164  1.4753 -0.0637 -0.4082
 5614SOL    HW322223   3.210   6.306   4.188  1.1643  0.2421  2.7203
 5614SOL    MW422224   3.141   6.351   4.215  0.0864 -0.0445  0.7082
 5615SOL     OW22225   2.818   5.059   2.924  0.1301 -0.0982  0.9930
 5615SOL    HW222226   2.829   5.132   2.863  1.6663 -1.1756 -0.0598
 5615SOL    HW322227   2.728   5.029   2.909  0.4036 -0.1880 -0.5820
 5615SOL    MW422228   2.807   5.065   2.914  0.3688 -0.2522  0.6463
 5616SOL     OW22229   3.515   0.314   3.658 -0.7175  0.4364  0.2394
 5616SOL    HW222230   3.556   0.355   3.581 -1.1517 -0.6065 -0.5677
 5616SOL    HW322231   3.489   0.388   3.713 -1.5850  1.2802 -1.2297
 5616SOL    MW422232   3.517   0.329   3.655 -0.8892  0.4101 -0.0609
 5617SOL     OW22233   1.112   4.460   6.283  0.0536 -0.3726 -0.3708
 5617SOL    HW222234   1.114   4.364   6.285  0.7821 -0.3770  2.2516
 5617SOL    HW322235   1.019   4.482   6.292 -0.0026 -0.8630  0.3499
 5617SOL    MW422236   1.100   4.450   6.285  0.1423 -0.4379  0.0703
 5618SOL     OW22237   3.744   2.423   2.158  0.1442  0.1141  0.1331
 5618SOL    HW222238   3.802   2.425   2.082  0.2201  0.6801  0.2040
 5618SOL    HW322239   3.660   2.456   2.125 -0.2575 -1.0530 -0.0603
 5618SOL    MW422240   3.740   2.427   2.144  0.1012  0.0348  0.1170
 5619SOL     OW22241   3.621   4.695   2.302 -0.6042 -0.1513  0.1874
 5619SOL    HW222242   3.575   4.632   2.247  0.1541 -1.5992  1.1530
 5619SOL    HW322243   3.603   4.667   2.392  2.2026 -0.8827  0.6196
 5619SOL    MW422244   3.613   4.683   2.307 -0.1338 -0.4388  0.3718
 5620SOL     OW22245   5.101   0.030   3.966 -0.0781  0.1649 -0.5391
 5620SOL    HW222246   5.096   0.124   3.983  0.8696  0.1827 -0.2852
 5620SOL    HW322247   5.141  -0.006   4.046 -1.3261 -0.5835 -0.2360
 5620SOL    MW422248   5.106   0.038   3.979 -0.1177  0.0685 -0.4656
 5621SOL     OW22249   0.805   4.761   2.611  0.9347  0.2523 -0.2036
 5621SOL    HW222250   0.806   4.845   2.564  0.6226  0.6304  0.4442
 5621SOL    HW322251   0.879   4.766   2.671  1.0047 -0.0034 -0.2661
 5621SOL    MW422252   0.815   4.773   2.613  0.9028  0.2684 -0.1264
 5622SOL     OW22253   0.927   5.975   2.373 -0.0378  0.6291 -0.1939
 5622SOL    HW222254   0.892   6.005   2.289 -0.0342 -0.0302 -0.4369
 5622SOL    HW322255   0.937   6.055   2.425  0.0381  1.0518 -0.8483
 5622SOL    MW422256   0.924   5.990   2.369 -0.0273  0.5978 -0.3123
 5623SOL     OW22257   4.879   0.658   0.493  0.1602 -0.3443  0.9753
 5623SOL    HW222258   4.894   0.607   0.572  1.0034 -3.5719 -1.0546
 5623SOL    HW322259   4.966   0.669   0.455 -0.2969  0.5769  0.1460
 5623SOL    MW422260   4.893   0.653   0.498  0.2112 -0.6486  0.5980
 5624SOL     OW22261   4.744   1.111   0.137 -0.2319  0.2287  0.1282
 5624SOL    HW222262   4.666   1.096   0.190 -0.2577  0.6456  0.2083
 5624SOL    HW322263   4.738   1.203   0.110 -0.0949  0.0916 -0.3911
 5624SOL    MW422264   4.733   1.121   0.140 -0.2172  0.2656  0.0703
 5625SOL     OW22265   5.932   3.074   1.960 -0.1953  0.1960  0.4695
 5625SOL    HW222266   5.889   3.015   2.021 -1.4223  0.6041  0.0360
 5625SOL    HW322267   5.981   3.017   1.901 -0.5574 -0.3310  0.6736
 5625SOL    MW422268   5.933   3.059   1.960 -0.4049  0.1803  0.4393
 5626SOL     OW22269   0.292   5.588   1.363 -0.6500 -0.0867  0.0510
 5626SOL    HW222270   0.321   5.558   1.449  0.5461 -0.5461 -0.4839
 5626SOL    HW322271   0.216   5.533   1.343 -0.3206 -0.6737  0.3871
 5626SOL    MW422272   0.286   5.577   1.372 -0.4488 -0.2247  0.0248
 5627SOL     OW22273   3.490   0.822   0.684 -0.0964  0.3741 -0.4092
 5627SOL    HW222274   3.562   0.811   0.747 -1.7595 -1.2001  1.3783
 5627SOL    HW322275   3.503   0.752   0.620 -1.5368 -1.8700  1.5842
 5627SOL    MW422276   3.501   0.811   0.684 -0.5059 -0.1297  0.0897
 5628SOL     OW22277   5.371   5.152   3.942  0.0733  0.7107 -0.0040
 5628SOL    HW222278   5.403   5.099   3.870  0.4745  0.7732  0.1254
 5628SOL    HW322279   5.282   5.119   3.959  0.4264 -0.1137  0.2679
 5628SOL    MW422280   5.363   5.141   3.935  0.1729  0.6102  0.0489
 5629SOL     OW22281   1.384   2.575   3.207  0.0199  0.5702  0.2527
 5629SOL    HW222282   1.387   2.526   3.125  0.2529 -0.9917  1.1588
 5629SOL    HW322283   1.300   2.551   3.246  0.3710  0.4639  0.9565
 5629SOL    MW422284   1.373   2.565   3.201  0.0970  0.3501  0.4651
 5630SOL     OW22285   1.598   0.515   0.263 -0.2996  0.5763  0.1655
 5630SOL    HW222286   1.549   0.574   0.205 -2.6472  0.6356  2.0828
 5630SOL    HW322287   1.665   0.477   0.206 -2.4528  0.6196 -2.6253
 5630SOL    MW422288   1.600   0.518   0.248 -0.8934  0.5898  0.0502
 5631SOL     OW22289   0.436   6.378   2.179  0.5366 -0.1729  0.2867
 5631SOL    HW222290   0.363   6.395   2.119 -2.2081 -2.2985  2.7169
 5631SOL    HW322291   0.482   6.304   2.140  0.9027  0.5881 -0.7953
 5631SOL    MW422292   0.432   6.371   2.166  0.2228 -0.3529  0.4646
 5632SOL     OW22293   4.160   4.166   5.114 -0.0808 -0.3678 -0.4212
 5632SOL    HW222294   4.194   4.140   5.029  1.0430  0.0496 -0.1124
 5632SOL    HW322295   4.171   4.089   5.169 -0.0594 -0.3775 -0.4390
 5632SOL    MW422296   4.166   4.153   5.110  0.0703 -0.3140 -0.3828
 5633SOL     OW22297   2.497   0.581   0.927 -0.2761 -0.5463  0.1081
 5633SOL    HW222298   2.404   0.568   0.943 -0.5854  0.3053 -0.8442
 5633SOL    HW322299   2.510   0.675   0.939  0.7682 -0.8648  1.6385
 5633SOL    MW422300   2.486   0.592   0.930 -0.1791 -0.4760  0.1843
 5634SOL     OW22301   2.973   6.023   5.371  0.1725  0.2081 -0.1849
 5634SOL    HW222302   2.878   6.028   5.386  0.2683 -0.1449  0.6174
 5634SOL    HW322303   2.985   5.943   5.319 -0.1288  1.2324 -1.9101
 5634SOL    MW422304   2.962   6.013   5.366  0.1454  0.2967 -0.3066
 5635SOL     OW22305   1.348   5.890   0.693  0.4397  0.1542 -0.0488
 5635SOL    HW222306   1.442   5.889   0.711  0.1248  2.7932  2.4669
 5635SOL    HW322307   1.336   5.958   0.627  0.3009 -0.3963 -0.5996
 5635SOL    MW422308   1.358   5.899   0.687  0.3798  0.4298  0.2105
 5636SOL     OW22309   0.366   2.937   2.208 -0.4479 -0.2418 -0.1531
 5636SOL    HW222310   0.393   2.908   2.121  1.2414  0.9812 -0.1035
 5636SOL    HW322311   0.306   2.870   2.239 -1.1950 -0.6335 -2.3010
 5636SOL    MW422312   0.362   2.924   2.201 -0.3236 -0.1321 -0.4300
 5637SOL     OW22313   4.915   3.435   2.613  0.0202  0.2700 -0.2276
 5637SOL    HW222314   4.976   3.375   2.571 -1.6312 -1.6918  0.0579
 5637SOL    HW322315   4.957   3.456   2.697  0.3054 -1.0560 -0.0241
 5637SOL    MW422316   4.929   3.430   2.619 -0.1601 -0.1638 -0.1631
 5638SOL     OW22317   2.432   2.978   3.345  0.4860  0.8134  0.2001
 5638SOL    HW222318   2.467   2.889   3.346 -1.3095  0.0234  3.3632
 5638SOL    HW322319   2.452   3.013   3.432 -1.1027  2.5482 -0.0658
 5638SOL    MW422320   2.440   2.971   3.356  0.0395  0.9381  0.5823
 5639SOL     OW22321   3.793   0.241   2.452  0.6649  0.3886  0.4506
 5639SOL    HW222322   3.828   0.311   2.397  0.7843  0.2458  0.3422
 5639SOL    HW322323   3.840   0.163   2.424 -1.2487 -0.2584 -1.2315
 5639SOL    MW422324   3.804   0.240   2.441  0.4281  0.2844  0.2143
 5640SOL     OW22325   1.344   2.238   3.048 -0.6753 -0.0601 -0.1518
 5640SOL    HW222326   1.322   2.154   3.090 -1.2814 -0.4713 -1.2592
 5640SOL    HW322327   1.262   2.267   3.008 -0.4425  1.0152  0.1209
 5640SOL    MW422328   1.330   2.230   3.048 -0.7245  0.0275 -0.2620
 5641SOL     OW22329   1.994   3.580   1.931 -0.2670 -0.3203 -0.0581
 5641SOL    HW222330   2.041   3.657   1.899  0.7203 -1.7194 -2.2457
 5641SOL    HW322331   2.059   3.534   1.984 -0.4615 -0.2609  0.2324
 5641SOL    MW422332   2.009   3.584   1.934 -0.1624 -0.4971 -0.3084
 5642SOL     OW22333   5.939   5.471   5.104  0.4764 -0.1272  0.1179
 5642SOL    HW222334   5.985   5.426   5.033 -0.4396  0.5557 -0.9502
 5642SOL    HW322335   5.860   5.507   5.062  0.4349  1.1777  1.2562
 5642SOL    MW422336   5.934   5.470   5.089  0.3501  0.1350  0.1272
 5643SOL     OW22337   0.276   0.380   4.345 -0.2154  0.1184  0.1815
 5643SOL    HW222338   0.310   0.377   4.255 -0.9402 -0.3111 -0.0896
 5643SOL    HW322339   0.253   0.472   4.359  0.2440  0.2524  0.0576
 5643SOL    MW422340   0.277   0.391   4.335 -0.2504  0.0794  0.1294
 5644SOL     OW22341   1.459   6.014   1.030 -0.7144  0.3476  0.2324
 5644SOL    HW222342   1.482   5.935   1.079  1.9156  1.7319  1.4579
 5644SOL    HW322343   1.394   6.058   1.085 -0.8193 -0.0930  0.4601
 5644SOL    MW422344   1.453   6.010   1.044 -0.3812  0.4721  0.4241
 5645SOL     OW22345   0.155   1.888   1.721 -0.1544  0.0378  0.6795
 5645SOL    HW222346   0.095   1.879   1.795 -1.7453 -1.2842 -0.6995
 5645SOL    HW322347   0.217   1.815   1.732  1.3843  1.4489  2.1460
 5645SOL    MW422348   0.155   1.877   1.733 -0.1613  0.0495  0.6911
 5646SOL     OW22349   3.054   2.285   0.321  0.1239 -0.3486 -0.3814
 5646SOL    HW222350   3.074   2.231   0.397 -0.1411  0.5352  0.3305
 5646SOL    HW322351   2.995   2.231   0.268  0.3437 -0.9853  0.0065
 5646SOL    MW422352   3.049   2.271   0.324  0.1179 -0.3160 -0.2363
 5647SOL     OW22353   0.519   0.051   1.085  0.2435 -0.3934 -0.8951
 5647SOL    HW222354   0.524   0.092   1.171 -1.5069 -3.4026  0.8033
 5647SOL    HW322355   0.611   0.041   1.059  0.7893  1.5871  0.0124
 5647SOL    MW422356   0.532   0.055   1.093  0.0846 -0.5291 -0.5513
 5648SOL     OW22357   1.015   4.544   3.564  0.5204 -0.0317  0.1463
 5648SOL    HW222358   0.922   4.533   3.580  0.2878  0.2734 -0.9214
 5648SOL    HW322359   1.049   4.582   3.645 -0.3229  0.0594  0.4653
 5648SOL    MW422360   1.008   4.548   3.577  0.3784  0.0206  0.0475
 5649SOL     OW22361   4.025   5.928   2.375 -0.5829  0.1235  0.5332
 5649SOL    HW222362   4.046   6.019   2.396 -0.7814  0.2930  0.0328
 5649SOL    HW322363   4.106   5.894   2.336 -1.3995  1.0238 -2.1671
 5649SOL    MW422364   4.039   5.936   2.372 -0.7168  0.2646  0.1109
 5650SOL     OW22365   0.377   2.622   0.462  0.3559  0.0698  0.0486
 5650SOL    HW222366   0.439   2.590   0.527 -0.3617  0.2249  0.8282
 5650SOL    HW322367   0.312   2.671   0.513  0.3536  1.0956 -0.8960
 5650SOL    MW422368   0.377   2.624   0.478  0.2609  0.2256  0.0268
 5651SOL     OW22369   3.759   5.676   6.041  0.2299  0.3199  0.1428
 5651SOL    HW222370   3.684   5.687   5.983 -1.1116  0.9747  1.9194
 5651SOL    HW322371   3.723   5.682   6.129  2.2103 -0.5126  1.0783
 5651SOL    MW422372   3.745   5.678   6.045  0.3142  0.2965  0.5006
 5652SOL     OW22373   0.222   0.390   4.047 -0.3629  0.1905 -0.3030
 5652SOL    HW222374   0.179   0.475   4.040 -0.1688  0.2613 -0.6678
 5652SOL    HW322375   0.168   0.331   3.995  1.0614  0.7095 -2.5270
 5652SOL    MW422376   0.209   0.393   4.040 -0.1494  0.2683 -0.6446
 5653SOL     OW22377   1.812   3.226   0.699  0.2181 -0.3063  0.5759
 5653SOL    HW222378   1.771   3.163   0.759  0.0698 -0.6238  0.1426
 5653SOL    HW322379   1.822   3.305   0.752 -0.4900 -0.3795  0.8363
 5653SOL    MW422380   1.808   3.228   0.714  0.1051 -0.3579  0.5531
 5654SOL     OW22381   3.345   5.897   0.172  0.1631  0.4220  0.0120
 5654SOL    HW222382   3.269   5.922   0.119 -0.0256 -0.1662 -0.0017
 5654SOL    HW322383   3.419   5.898   0.111  0.2379  1.3267  0.0963
 5654SOL    MW422384   3.345   5.901   0.157  0.1481  0.4638  0.0213
 5655SOL     OW22385   3.798   3.896   4.413 -0.3342  0.2129 -0.5007
 5655SOL    HW222386   3.766   3.986   4.419  0.1295  0.5580 -2.5210
 5655SOL    HW322387   3.719   3.842   4.402 -0.6459  0.2750  1.1199
 5655SOL    MW422388   3.783   3.900   4.413 -0.3141  0.2666 -0.5534
 5656SOL     OW22389   3.390   1.010   2.559  0.3717  0.1235  0.4773
 5656SOL    HW222390   3.477   1.044   2.538 -0.1171  0.8163 -0.5140
 5656SOL    HW322391   3.395   0.917   2.538  0.6790  0.2970 -0.2430
 5656SOL    MW422392   3.402   1.002   2.553  0.3477  0.2378  0.2514
 5657SOL     OW22393   3.929   0.548   5.081  0.2788  0.3427  0.6086
 5657SOL    HW222394   3.926   0.493   5.158 -1.0412 -0.4589  0.0054
 5657SOL    HW322395   3.838   0.558   5.053  0.4775  2.6200  0.5367
 5657SOL    MW422396   3.917   0.542   5.087  0.1309  0.5374  0.5196
 5658SOL     OW22397   0.270   6.188   0.940 -0.0911 -0.0341 -0.0327
 5658SOL    HW222398   0.267   6.094   0.924  3.1267  0.0049 -1.7378
 5658SOL    HW322399   0.249   6.198   1.032 -2.3415 -2.1803 -0.2178
 5658SOL    MW422400   0.267   6.177   0.950  0.0365 -0.3121 -0.2821
 5659SOL     OW22401   5.820   3.155   4.467  0.0848  0.2489  0.0567
 5659SOL    HW222402   5.792   3.071   4.505 -0.9845  0.2052 -0.7833
 5659SOL    HW322403   5.910   3.140   4.439 -0.1827 -0.7132 -0.3286
 5659SOL    MW422404   5.828   3.142   4.469 -0.0916  0.1162 -0.1049
 5660SOL     OW22405   0.505   1.317   4.371 -0.1182  0.0847  0.0204
 5660SOL    HW222406   0.576   1.302   4.310  0.3092 -0.7729  0.6961
 5660SOL    HW322407   0.449   1.240   4.362  0.1979 -0.2796  1.0219
 5660SOL    MW422408   0.507   1.305   4.362 -0.0201 -0.0765  0.2417
 5661SOL     OW22409   4.084   0.344   2.466 -0.1786  0.1101  0.3283
 5661SOL    HW222410   4.130   0.274   2.420  1.1430  0.9634  0.2725
 5661SOL    HW322411   4.055   0.305   2.549  1.3271 -0.2901  0.6940
 5661SOL    MW422412   4.086   0.330   2.471  0.1945  0.1699  0.3692
 5662SOL     OW22413   5.838   4.027   0.668  0.1275 -0.1031 -0.1868
 5662SOL    HW222414   5.910   4.014   0.730  0.7383 -0.1803 -0.9043
 5662SOL    HW322415   5.813   4.118   0.679  0.6636  0.0570 -0.2828
 5662SOL    MW422416   5.844   4.037   0.678  0.2789 -0.0922 -0.2941
 5663SOL     OW22417   2.027   2.172   5.066  0.0207  0.3635  0.0116
 5663SOL    HW222418   1.957   2.203   5.008 -0.5132  2.5057  1.6686
 5663SOL    HW322419   2.108   2.205   5.027  0.1376 -1.6937 -1.6402
 5663SOL    MW422420   2.028   2.180   5.053 -0.0343  0.3747  0.0123
 5664SOL     OW22421   2.146   4.252   3.586  0.6527 -0.5626 -0.5235
 5664SOL    HW222422   2.232   4.212   3.572  0.8622  0.5693 -3.1559
 5664SOL    HW322423   2.084   4.180   3.572  1.1017 -1.3284  1.1406
 5664SOL    MW422424   2.149   4.237   3.582  0.7396 -0.5143 -0.6512
 5665SOL     OW22425   1.191   3.141   2.299 -0.0907 -0.2756 -0.2198
 5665SOL    HW222426   1.209   3.088   2.221  0.2004  0.7647 -0.8761
 5665SOL    HW322427   1.227   3.090   2.371 -0.6327 -1.4021 -0.7161
 5665SOL    MW422428   1.198   3.127   2.298 -0.1238 -0.2870 -0.3719
 5666SOL     OW22429   5.877   3.405   4.571 -0.0493 -0.3378 -0.2722
 5666SOL    HW222430   5.847   3.343   4.505 -1.0309  1.7606 -1.9434
 5666SOL    HW322431   5.967   3.378   4.590  0.1501 -1.2303 -2.2393
 5666SOL    MW422432   5.885   3.393   4.565 -0.1525 -0.1787 -0.7522
 5667SOL     OW22433   4.876   1.670   3.790  0.0815  0.0203  0.2497
 5667SOL    HW222434   4.942   1.733   3.761 -1.2609  1.3437 -0.0514
 5667SOL    HW322435   4.818   1.720   3.848 -2.5747 -0.1265 -2.0587
 5667SOL    MW422436   4.877   1.685   3.794 -0.4461  0.1756 -0.0946
 5668SOL     OW22437   1.906   2.910   0.162 -0.1696 -0.1903  0.3121
 5668SOL    HW222438   1.942   2.947   0.082 -0.6657  1.1715  0.6874
 5668SOL    HW322439   1.931   2.818   0.160  0.1500 -0.0883 -1.2109
 5668SOL    MW422440   1.914   2.903   0.151 -0.1929  0.0028  0.1606
 5669SOL     OW22441   4.392   0.003   3.458 -0.0056  0.3831 -0.0552
 5669SOL    HW222442   4.398   0.071   3.391 -0.2327 -0.7856 -1.3239
 5669SOL    HW322443   4.483  -0.021   3.476  0.0284  0.0559 -0.6491
 5669SOL    MW422444   4.405   0.008   3.452 -0.0311  0.1858 -0.3009
 5670SOL     OW22445   4.686   3.665   1.867 -0.0833  0.6118 -0.0288
 5670SOL    HW222446   4.766   3.714   1.850 -0.4728  0.9994 -0.7811
 5670SOL    HW322447   4.638   3.667   1.785 -1.3345  1.2630  0.6788
 5670SOL    MW422448   4.690   3.672   1.854 -0.2998  0.7489 -0.0347
 5671SOL     OW22449   6.233   1.095   4.280  0.0478  0.2559  0.2348
 5671SOL    HW222450   6.151   1.129   4.315  1.3034  1.4926  2.2129
 5671SOL    HW322451   6.220   1.000   4.275 -0.8768  0.2164  2.3632
 5671SOL    MW422452   6.221   1.087   4.284  0.0915  0.4139  0.7766
 5672SOL     OW22453   2.731   0.107   5.031 -0.1923  0.1008 -0.2833
 5672SOL    HW222454   2.669   0.036   5.048 -3.0725  1.2110 -4.5627
 5672SOL    HW322455   2.809   0.064   4.996 -1.2053 -1.0552 -1.1562
 5672SOL    MW422456   2.733   0.092   5.029 -0.7059  0.0947 -0.9631
 5673SOL     OW22457   1.693   2.367   5.174 -0.0880  0.5062 -0.1584
 5673SOL    HW222458   1.673   2.275   5.158 -2.5939  0.9230  0.0469
 5673SOL    HW322459   1.757   2.391   5.107  0.4473 -1.3114 -0.3315
 5673SOL    MW422460   1.699   2.358   5.163 -0.3480  0.3214 -0.1542
 5674SOL     OW22461   0.500   5.115   3.415 -0.5441 -0.4080  0.1062
 5674SOL    HW222462   0.566   5.064   3.368 -0.9511  0.2966 -1.2765
 5674SOL    HW322463   0.550   5.177   3.468 -0.0631  0.7202 -1.6011
 5674SOL    MW422464   0.515   5.116   3.416 -0.5343 -0.1662 -0.3015
 5675SOL     OW22465   2.646   0.652   1.844  0.1650  0.1437 -0.1918
 5675SOL    HW222466   2.615   0.709   1.774  0.2976  1.2042  0.5808
 5675SOL    HW322467   2.728   0.615   1.810  1.1290  1.9606  0.0093
 5675SOL    MW422468   2.653   0.655   1.830  0.3097  0.5233 -0.0634
 5676SOL     OW22469   0.267   2.054   3.626 -0.2860  0.7097 -0.0687
 5676SOL    HW222470   0.314   2.005   3.694  0.0617 -0.2565 -0.9822
 5676SOL    HW322471   0.254   1.991   3.555 -1.7895  1.3252 -0.3932
 5676SOL    MW422472   0.271   2.039   3.626 -0.4385  0.6634 -0.2320
 5677SOL     OW22473   4.756   6.291   4.449 -0.2794  0.1045 -0.3224
 5677SOL    HW222474   4.747   6.213   4.394  0.7329 -0.9462  0.9138
 5677SOL    HW322475   4.777   6.256   4.536  0.5457  1.7726  0.1939
 5677SOL    MW422476   4.758   6.276   4.453 -0.0370  0.1860 -0.0912
 5678SOL     OW22477   6.120   2.864   0.355 -0.2282  0.3793 -0.0058
 5678SOL    HW222478   6.161   2.901   0.277  0.4529 -0.1874  0.0789
 5678SOL    HW322479   6.193   2.839   0.412 -0.6251 -1.6611 -0.3111
 5678SOL    MW422480   6.135   2.866   0.353 -0.1907  0.0353 -0.0349
 5679SOL     OW22481   1.250   6.372   4.237  0.0484 -0.8053 -0.0312
 5679SOL    HW222482   1.198   6.378   4.157  0.7646  0.8121 -0.4200
 5679SOL    HW322483   1.188   6.342   4.303 -2.1115  3.0730  0.0163
 5679SOL    MW422484   1.235   6.369   4.235 -0.1421 -0.0802 -0.0762
 5680SOL     OW22485   2.826   6.334   3.376 -0.2518 -0.2337 -0.1014
 5680SOL    HW222486   2.840   6.317   3.469  2.6965  1.0516 -0.1898
 5680SOL    HW322487   2.880   6.269   3.332  0.4179  0.7554 -0.7908
 5680SOL    MW422488   2.835   6.323   3.382  0.2256  0.0664 -0.2040
 5681SOL     OW22489   3.058   0.400   1.252 -0.6245 -0.3262 -0.4138
 5681SOL    HW222490   2.996   0.450   1.199  0.3925 -0.9466 -2.2786
 5681SOL    HW322491   3.072   0.319   1.203  3.3167  0.6895 -1.3632
 5681SOL    MW422492   3.052   0.396   1.239  0.0297 -0.2740 -0.7851
 5682SOL     OW22493   0.022   3.925   5.405 -0.4657 -0.3856  0.0487
 5682SOL    HW222494   0.036   3.838   5.368  1.0955  0.0738 -0.5525
 5682SOL    HW322495  -0.015   3.977   5.334  0.6018 -0.0322 -0.2686
 5682SOL    MW422496   0.019   3.921   5.391 -0.1188 -0.2783 -0.0725
 5683SOL     OW22497   2.434   5.345   0.961 -0.2585 -0.2795  0.6092
 5683SOL    HW222498   2.382   5.265   0.955  1.7300 -1.6683  0.7964
 5683SOL    HW322499   2.521   5.320   0.928  0.7581  1.4628  1.7910
 5683SOL    MW422500   2.439   5.331   0.956  0.1380 -0.2328  0.7898
 5684SOL     OW22501   4.450   4.232   4.370 -0.1599  0.6145 -0.1788
 5684SOL    HW222502   4.473   4.245   4.462  2.0682  2.2857 -0.8793
 5684SOL    HW322503   4.402   4.311   4.346 -1.1367 -0.0171 -0.3908
 5684SOL    MW422504   4.447   4.244   4.379  0.0052  0.7516 -0.2992
 5685SOL     OW22505   2.010   5.307   5.904  0.0640  0.1159 -0.4148
 5685SOL    HW222506   2.062   5.257   5.966 -0.6758  1.4569  1.3531
 5685SOL    HW322507   1.993   5.390   5.947  0.4132  1.5547 -2.8512
 5685SOL    MW422508   2.014   5.311   5.918  0.0124  0.4826 -0.5030
 5686SOL     OW22509   6.049   3.935   2.562 -0.1079  0.0332 -0.3840
 5686SOL    HW222510   5.970   3.957   2.513 -0.7996  0.3869  0.8558
 5686SOL    HW322511   6.078   4.017   2.601 -0.2817 -0.4425  0.7959
 5686SOL    MW422512   6.042   3.948   2.560 -0.2221  0.0171 -0.0648
 5687SOL     OW22513   0.422   3.721   2.300 -0.2671  0.4686 -0.8866
 5687SOL    HW222514   0.450   3.632   2.277 -0.2047  0.8464 -2.3949
 5687SOL    HW322515   0.430   3.770   2.218 -2.8875  1.2164 -0.7834
 5687SOL    MW422516   0.427   3.716   2.286 -0.6046  0.6171 -1.0720
 5688SOL     OW22517   2.159   5.270   3.115  0.0580  0.0701 -0.1198
 5688SOL    HW222518   2.210   5.213   3.173 -0.9531 -2.3484 -1.4743
 5688SOL    HW322519   2.084   5.217   3.088  0.6783  0.8160 -3.9553
 5688SOL    MW422520   2.156   5.255   3.119  0.0065 -0.1506 -0.8045
 5689SOL     OW22521   0.592   1.586   6.453 -0.0742  0.0645  0.7920
 5689SOL    HW222522   0.663   1.627   6.404  0.4518  0.2124  1.6468
 5689SOL    HW322523   0.533   1.658   6.474 -1.4269 -0.3101 -1.3961
 5689SOL    MW422524   0.594   1.601   6.449 -0.1833  0.0346  0.6161
 5690SOL     OW22525   1.298   4.837   1.164 -0.2742  0.3388 -0.3369
 5690SOL    HW222526   1.324   4.818   1.074  2.1795 -0.4643  0.4568
 5690SOL    HW322527   1.281   4.752   1.203 -1.3296  0.6822 -0.0204
 5690SOL    MW422528   1.299   4.823   1.157 -0.0897  0.2781 -0.1904
 5691SOL     OW22529   1.334   2.674   5.887  0.5099  0.7298 -0.6847
 5691SOL    HW222530   1.361   2.608   5.822  0.1193 -0.1727  0.0472
 5691SOL    HW322531   1.249   2.705   5.855 -0.6578 -1.1563  0.3699
 5691SOL    MW422532   1.326   2.669   5.874  0.3043  0.3619 -0.4490
 5692SOL     OW22533   0.496   2.306   3.881 -0.4416  0.0750 -0.2143
 5692SOL    HW222534   0.464   2.382   3.833 -0.7499  0.4654  0.5799
 5692SOL    HW322535   0.416   2.261   3.910 -0.2632 -0.5672 -0.6887
 5692SOL    MW422536   0.481   2.310   3.879 -0.4587  0.0418 -0.1721
 5693SOL     OW22537   2.906   4.695   4.786 -0.2259 -0.1687  0.2750
 5693SOL    HW222538   2.999   4.711   4.771 -0.8858  1.7171 -2.3916
 5693SOL    HW322539   2.870   4.780   4.811 -1.4911 -0.5288 -0.2567
 5693SOL    MW422540   2.913   4.708   4.787 -0.4799  0.0326 -0.1470
 5694SOL     OW22541   5.782   3.419   3.674 -0.9987 -0.3285  0.0528
 5694SOL    HW222542   5.825   3.416   3.589  0.4189  1.7595  0.6499
 5694SOL    HW322543   5.853   3.420   3.738 -1.9845  0.3218  1.1824
 5694SOL    MW422544   5.797   3.419   3.671 -0.9417  0.0328  0.2806
 5695SOL     OW22545   3.611   1.449   3.088 -0.0392 -0.2650 -0.3162
 5695SOL    HW222546   3.540   1.385   3.086 -0.3138  0.0352 -0.1597
 5695SOL    HW322547   3.597   1.503   3.010  0.3303 -0.5380 -0.5787
 5695SOL    MW422548   3.600   1.447   3.077 -0.0267 -0.2614 -0.3302
 5696SOL     OW22549   3.284   4.962   0.939 -0.3770  0.2203  0.1295
 5696SOL    HW222550   3.254   4.904   1.008  2.9628  0.8787  2.3716
 5696SOL    HW322551   3.374   4.934   0.921  0.3940  2.8792 -0.6642
 5696SOL    MW422552   3.292   4.951   0.946  0.1653  0.6579  0.3206
 5697SOL     OW22553   5.962   1.287   6.114 -0.3131 -0.4155  0.4482
 5697SOL    HW222554   5.956   1.261   6.022  0.7525  0.4143  0.1291
 5697SOL    HW322555   5.872   1.304   6.140 -0.4168  2.0600 -1.2518
 5697SOL    MW422556   5.949   1.286   6.105 -0.1862  0.0206  0.1818
 5698SOL     OW22557   4.053   0.844   1.986 -0.0166 -0.3752  0.1418
 5698SOL    HW222558   4.137   0.821   2.026 -1.0968 -1.4238  1.9604
 5698SOL    HW322559   4.032   0.769   1.930  0.0658 -0.2942  0.0015
 5698SOL    MW422560   4.061   0.831   1.984 -0.1482 -0.5029  0.3632
 5699SOL     OW22561   5.337   2.850   5.205  0.2257 -0.5799 -0.0436
 5699SOL    HW222562   5.425   2.882   5.184  0.0155 -0.4558 -0.7349
 5699SOL    HW322563   5.329   2.769   5.154 -0.9773  0.6689 -1.9252
 5699SOL    MW422564   5.348   2.843   5.196  0.0392 -0.3988 -0.3831
 5700SOL     OW22565   4.987   6.213   5.619  0.0343 -0.0025  0.3568
 5700SOL    HW222566   4.993   6.309   5.620  0.8641 -0.0053 -1.3480
 5700SOL    HW322567   5.070   6.183   5.656  0.3766 -0.0537 -0.4419
 5700SOL    MW422568   4.999   6.222   5.624  0.1889 -0.0096  0.0265
 5701SOL     OW22569   0.835   1.346   5.388  0.3426 -0.0114  0.2475
 5701SOL    HW222570   0.870   1.431   5.359 -0.5890  0.1953 -0.3144
 5701SOL    HW322571   0.811   1.302   5.306 -3.1842  0.9270  0.6278
 5701SOL    MW422572   0.836   1.351   5.373 -0.2457  0.1397  0.2235
 5702SOL     OW22573   5.319   6.000   6.490  0.3818 -0.2376 -0.0329
 5702SOL    HW222574   5.243   6.049   6.458 -1.0244 -1.4606  1.2665
 5702SOL    HW322575   5.322   6.020   6.584  0.7489 -1.3713  0.2087
 5702SOL    MW422576   5.309   6.009   6.498  0.2447 -0.5485  0.1704
 5703SOL     OW22577   4.835   5.992   5.419  0.3077  0.1526  0.3950
 5703SOL    HW222578   4.873   6.067   5.464 -1.8435  1.8702 -0.4294
 5703SOL    HW322579   4.831   6.020   5.327 -0.1393 -1.1458  0.0077
 5703SOL    MW422580   4.839   6.006   5.412 -0.0351  0.2079  0.2351
 5704SOL     OW22581   5.140   1.146   0.600  0.9310 -0.6032  0.4604
 5704SOL    HW222582   5.157   1.065   0.552  2.9298 -1.3498  2.2479
 5704SOL    HW322583   5.188   1.213   0.552  0.6173 -0.7867 -0.1168
 5704SOL    MW422584   5.149   1.144   0.587  1.1533 -0.7259  0.6201
 5705SOL     OW22585   4.901   4.174   3.282 -0.1587  0.3282  0.1056
 5705SOL    HW222586   4.921   4.083   3.260  0.6400  0.3500  0.7271
 5705SOL    HW322587   4.805   4.176   3.285 -0.1949 -0.4385 -0.1282
 5705SOL    MW422588   4.891   4.162   3.279 -0.0581  0.2300  0.1568
 5706SOL     OW22589   5.440   2.082   2.257  0.2688  0.2834 -0.0432
 5706SOL    HW222590   5.513   2.128   2.215  0.3624  0.5830  0.4351
 5706SOL    HW322591   5.376   2.151   2.275  0.2368  0.1617  0.3137
 5706SOL    MW422592   5.441   2.097   2.254  0.2769  0.3069  0.0670
 5707SOL     OW22593   5.164   3.441   3.909 -0.2264 -0.2834 -0.5873
 5707SOL    HW222594   5.218   3.369   3.878 -2.0847 -0.7186 -3.1626
 5707SOL    HW322595   5.081   3.401   3.934  0.3362  0.4181  2.8080
 5707SOL    MW422596   5.160   3.426   3.908 -0.3973 -0.2483 -0.4791
 5708SOL     OW22597   0.427   6.424   1.792  0.2740  0.4163  0.3057
 5708SOL    HW222598   0.494   6.485   1.762 -0.4622  1.0778 -0.0577
 5708SOL    HW322599   0.364   6.421   1.719 -0.2356  0.0523  0.7506
 5708SOL    MW422600   0.427   6.432   1.778  0.1096  0.4556  0.3164
 5709SOL     OW22601   1.225   5.918   0.296  0.0087  0.5108 -0.5487
 5709SOL    HW222602   1.239   5.995   0.240  1.5521 -0.0456 -0.9834
 5709SOL    HW322603   1.174   5.858   0.242 -1.1921  1.1977 -0.2125
 5709SOL    MW422604   1.220   5.920   0.281  0.0539  0.5280 -0.5617
 5710SOL     OW22605   3.909   0.862   2.471 -0.2987  0.2527  0.1716
 5710SOL    HW222606   3.929   0.940   2.522  0.1511 -0.4670  1.1295
 5710SOL    HW322607   3.994   0.820   2.457 -0.3629  0.6221 -1.5106
 5710SOL    MW422608   3.923   0.866   2.476 -0.2478  0.2065  0.0760
 5711SOL     OW22609   0.142   4.239   6.491 -0.1422  0.2669 -0.5471
 5711SOL    HW222610   0.089   4.179   6.438 -0.2502 -1.1000  1.0420
 5711SOL    HW322611   0.232   4.211   6.474 -0.1184  0.4772 -0.7682
 5711SOL    MW422612   0.147   4.227   6.482 -0.1533  0.1143 -0.3666
 5712SOL     OW22613   4.552   4.376   4.601  0.0961 -0.0652  0.2153
 5712SOL    HW222614   4.466   4.345   4.630  0.3288 -2.2060 -1.0843
 5712SOL    HW322615   4.532   4.443   4.535 -0.5201  0.6266  1.0860
 5712SOL    MW422616   4.538   4.380   4.596  0.0455 -0.2564  0.1587
 5713SOL     OW22617   1.960   3.245   4.336 -0.5513  0.1440  0.2884
 5713SOL    HW222618   1.907   3.214   4.409 -0.3495 -0.6190  0.1105
 5713SOL    HW322619   1.916   3.211   4.258  0.0010 -0.2081  0.1220
 5713SOL    MW422620   1.947   3.237   4.335 -0.4518 -0.0031  0.2430
 5714SOL     OW22621   4.116   4.511   1.977 -0.3155 -0.7432  0.2301
 5714SOL    HW222622   4.076   4.432   1.941  0.6798 -1.1911  0.0687
 5714SOL    HW322623   4.048   4.578   1.970 -1.3454 -1.6957  0.8141
 5714SOL    MW422624   4.101   4.510   1.971 -0.3201 -0.9280  0.2858
 5715SOL     OW22625   4.445   1.829   0.284 -0.2608  0.0605 -0.5740
 5715SOL    HW222626   4.527   1.789   0.255 -0.5713 -1.3709  0.4132
 5715SOL    HW322627   4.377   1.772   0.248 -0.7813  0.6777 -0.5747
 5715SOL    MW422628   4.447   1.816   0.276 -0.3704 -0.0469 -0.4439
 5716SOL     OW22629   4.052   0.367   5.950  0.4349  0.3441  0.3178
 5716SOL    HW222630   4.128   0.367   5.892 -0.3191  0.7025 -0.7079
 5716SOL    HW322631   4.040   0.275   5.974  2.4914  0.5096  2.3168
 5716SOL    MW422632   4.061   0.355   5.946  0.6067  0.4133  0.4462
 5717SOL     OW22633   2.696   6.352   0.806  0.3258  0.9338 -0.4777
 5717SOL    HW222634   2.776   6.399   0.785  1.5677 -1.1157 -0.6382
 5717SOL    HW322635   2.685   6.365   0.901  0.2556  2.0540 -0.6281
 5717SOL    MW422636   2.705   6.360   0.816  0.4804  0.8112 -0.5187
 5718SOL     OW22637   4.912   1.626   6.227  0.1319 -0.6432  0.2248
 5718SOL    HW222638   5.007   1.613   6.222  0.0058 -2.0110  0.7546
 5718SOL    HW322639   4.877   1.537   6.234 -1.0692 -0.0825  1.8224
 5718SOL    MW422640   4.920   1.612   6.227 -0.0432 -0.7497  0.5055
 5719SOL     OW22641   6.215   0.598   5.518  0.2640 -0.1784  0.2270
 5719SOL    HW222642   6.159   0.611   5.441  0.2399 -0.7361  0.1444
 5719SOL    HW322643   6.177   0.655   5.585  0.0127 -0.0304 -0.0334
 5719SOL    MW422644   6.203   0.607   5.517  0.2277 -0.2324  0.1817
 5720SOL     OW22645   2.640   1.582   5.628  0.3629 -0.4738  0.3423
 5720SOL    HW222646   2.727   1.559   5.594 -1.0404 -2.9142 -2.0341
 5720SOL    HW322647   2.637   1.544   5.716  1.6594 -0.4566  0.4055
 5720SOL    MW422648   2.651   1.574   5.635  0.3488 -0.7935  0.0371
 5721SOL     OW22649   3.509   3.444   6.440 -0.1143 -0.4013  0.0747
 5721SOL    HW222650   3.467   3.388   6.375  0.3167  0.2365 -0.7784
 5721SOL    HW322651   3.522   3.527   6.394  0.6941 -0.1123  0.8110
 5721SOL    MW422652   3.505   3.448   6.425  0.0492 -0.2790  0.0593
 5722SOL     OW22653   1.528   4.331   3.470 -0.0975 -0.4482 -0.8102
 5722SOL    HW222654   1.623   4.329   3.484 -0.4558 -1.9383  2.5924
 5722SOL    HW322655   1.511   4.417   3.433  2.5072  0.1520 -0.8277
 5722SOL    MW422656   1.538   4.342   3.467  0.1989 -0.5656 -0.3636
 5723SOL     OW22657   4.905   3.898   3.180  0.6604 -0.4868 -0.2994
 5723SOL    HW222658   4.895   3.818   3.233  0.9190  0.9299  2.0322
 5723SOL    HW322659   4.992   3.889   3.141  2.2553  0.1126  2.7788
 5723SOL    MW422660   4.915   3.886   3.182  0.9050 -0.2208  0.4144
 5724SOL     OW22661   4.147   3.508   1.934  0.3445  0.0689 -0.4898
 5724SOL    HW222662   4.112   3.596   1.924 -0.6783 -0.4209 -1.4230
 5724SOL    HW322663   4.241   3.518   1.918  0.0315  0.7742 -2.1786
 5724SOL    MW422664   4.155   3.521   1.930  0.1682  0.0973 -0.8358
 5725SOL     OW22665   2.965   3.055   1.597 -0.3178 -1.0203  0.8585
 5725SOL    HW222666   2.946   3.123   1.533  0.9419 -0.4576  1.0440
 5725SOL    HW322667   3.019   3.099   1.664 -2.4266 -1.3149  2.8769
 5725SOL    MW422668   2.970   3.070   1.598 -0.4298 -0.9849  1.1493
 5726SOL     OW22669   3.798   1.275   0.157 -0.1466 -0.3489 -0.2558
 5726SOL    HW222670   3.710   1.240   0.144 -0.2411 -0.0253 -0.5116
 5726SOL    HW322671   3.844   1.207   0.206 -0.8162 -0.1100  0.7207
 5726SOL    MW422672   3.792   1.261   0.161 -0.2474 -0.2747 -0.1607
 5727SOL     OW22673   2.968   3.332   1.533 -0.3704 -0.5712  0.4205
 5727SOL    HW222674   2.888   3.348   1.482  0.3942  1.3592 -0.2482
 5727SOL    HW322675   2.979   3.410   1.587  0.8731 -0.9596  0.7700
 5727SOL    MW422676   2.959   3.344   1.533 -0.1055 -0.3677  0.3784
 5728SOL     OW22677   1.668   1.648   5.561  0.0965  0.4218  0.0954
 5728SOL    HW222678   1.706   1.625   5.477  1.1222  0.9633  0.3921
 5728SOL    HW322679   1.585   1.600   5.564  0.1692  0.1962 -1.1016
 5728SOL    MW422680   1.662   1.638   5.551  0.2414  0.4635 -0.0234
 5729SOL     OW22681   5.021   5.606   2.321  0.0416  0.0505 -0.2344
 5729SOL    HW222682   5.099   5.626   2.269  0.3214 -0.0405  0.1518
 5729SOL    HW322683   5.052   5.600   2.411 -0.2400 -0.9347 -0.1905
 5729SOL    MW422684   5.035   5.608   2.326  0.0414 -0.0915 -0.1776
 5730SOL     OW22685   5.701   3.370   4.261  0.3989  0.0617 -0.0684
 5730SOL    HW222686   5.706   3.332   4.174  0.3775 -3.7364  1.3903
 5730SOL    HW322687   5.791   3.392   4.283  0.5136  0.2824 -0.7383
 5730SOL    MW422688   5.713   3.368   4.253  0.4112 -0.4103  0.0357
 5731SOL     OW22689   5.183   5.539   0.129  0.0639  0.4949  0.3560
 5731SOL    HW222690   5.205   5.456   0.086  1.7548  0.7300  0.6729
 5731SOL    HW322691   5.240   5.604   0.088 -1.1570  1.5101  0.1933
 5731SOL    MW422692   5.194   5.536   0.118  0.1259  0.6598  0.3764
 5732SOL     OW22693   5.484   6.314   4.418 -0.0109 -0.4115  0.3298
 5732SOL    HW222694   5.560   6.323   4.360  0.8274 -0.0837  1.4595
 5732SOL    HW322695   5.518   6.328   4.506 -1.4970  0.3795  0.8160
 5732SOL    MW422696   5.498   6.317   4.422 -0.0964 -0.2639  0.5430
 5733SOL     OW22697   3.651   6.054   2.500  0.0952 -0.2764  0.0808
 5733SOL    HW222698   3.681   6.021   2.416  0.3480 -0.3456  0.1957
 5733SOL    HW322699   3.689   6.142   2.506  0.7828 -0.5892  0.4881
 5733SOL    MW422700   3.660   6.061   2.490  0.2192 -0.3268  0.1497
 5734SOL     OW22701   2.948   5.086   0.424  0.2192 -0.2290 -0.2006
 5734SOL    HW222702   3.044   5.088   0.418  0.5737 -1.0949  3.2040
 5734SOL    HW322703   2.925   4.993   0.418 -0.5705  0.0329 -1.9043
 5734SOL    MW422704   2.958   5.074   0.423  0.1618 -0.3087  0.0238
 5735SOL     OW22705   6.012   3.669   2.702  0.3420 -0.0107  0.2658
 5735SOL    HW222706   6.065   3.650   2.779  0.6038 -0.9505 -0.1400
 5735SOL    HW322707   6.035   3.759   2.679  1.0077 -0.0685  0.6875
 5735SOL    MW422708   6.022   3.679   2.709  0.4644 -0.1423  0.2679
 5736SOL     OW22709   5.142   3.718   2.305  0.0235  0.4166  0.7552
 5736SOL    HW222710   5.133   3.759   2.391  1.3966  0.6348  0.8114
 5736SOL    HW322711   5.066   3.661   2.298 -0.8858  1.4757  1.5031
 5736SOL    MW422712   5.131   3.716   2.316  0.0847  0.5852  0.8613
 5737SOL     OW22713   4.656   6.101   2.279 -0.1756 -0.2956 -0.1231
 5737SOL    HW222714   4.657   6.183   2.329  0.3741  1.5840 -2.9421
 5737SOL    HW322715   4.701   6.038   2.335  0.7289  1.7180  1.5660
 5737SOL    MW422716   4.662   6.103   2.293  0.0162  0.2180 -0.2722
 5738SOL     OW22717   5.002   5.968   1.183  0.3696  0.2137 -0.4378
 5738SOL    HW222718   4.964   6.021   1.113 -1.0671 -0.4929 -0.2234
 5738SOL    HW322719   5.074   5.921   1.141 -1.9634 -2.1028 -2.1660
 5738SOL    MW422720   5.007   5.969   1.169 -0.1278 -0.1851 -0.6376
 5739SOL     OW22721   2.546   2.604   1.660  0.5866  0.3099  0.0628
 5739SOL    HW222722   2.569   2.579   1.571 -0.6946 -0.2917 -0.1223
 5739SOL    HW322723   2.453   2.582   1.668  1.1236 -1.6214  2.2075
 5739SOL    MW422724   2.537   2.598   1.649  0.4884 -0.0243  0.3214
 5740SOL     OW22725   5.302   5.329   6.422 -0.1775 -0.3356  0.2209
 5740SOL    HW222726   5.268   5.293   6.340 -0.8419 -0.0998  0.3858
 5740SOL    HW322727   5.393   5.299   6.426 -0.0712 -0.1608 -0.7087
 5740SOL    MW422728   5.310   5.320   6.412 -0.2511 -0.2814  0.1200
 5741SOL     OW22729   4.315   0.021   0.770 -0.0509  0.3433  0.5691
 5741SOL    HW222730   4.359   0.099   0.803 -0.1089  0.2985  0.7488
 5741SOL    HW322731   4.381  -0.048   0.774  0.6711  0.8337 -1.5264
 5741SOL    MW422732   4.329   0.022   0.775  0.0367  0.4021  0.3164
 5742SOL     OW22733   5.002   1.002   0.213 -0.6794 -0.1696 -0.1570
 5742SOL    HW222734   4.924   1.051   0.239 -1.3743 -1.4550  0.2849
 5742SOL    HW322735   4.969   0.914   0.192  0.4183 -0.2819 -1.6171
 5742SOL    MW422736   4.987   0.997   0.213 -0.6263 -0.3540 -0.2913
 5743SOL     OW22737   6.249   5.035   3.294 -0.1545 -0.1964 -0.0193
 5743SOL    HW222738   6.310   4.961   3.294  0.2542  0.1352 -0.0221
 5743SOL    HW322739   6.244   5.062   3.203 -1.0738 -0.8362 -0.1720
 5743SOL    MW422740   6.256   5.028   3.282 -0.2219 -0.2371 -0.0398
 5744SOL     OW22741   0.544   6.210   1.964  0.1648  0.1129 -0.6882
 5744SOL    HW222742   0.497   6.281   1.919 -0.4627 -0.3092 -0.7109
 5744SOL    HW322743   0.500   6.130   1.935 -0.4447 -0.1561  0.8889
 5744SOL    MW422744   0.532   6.209   1.954  0.0016  0.0217 -0.4831
 5745SOL     OW22745   1.787   1.584   5.317  0.0344  0.3542  0.2560
 5745SOL    HW222746   1.875   1.596   5.354  0.3288 -0.9440  0.0289
 5745SOL    HW322747   1.785   1.492   5.289 -0.1936  1.1963 -2.8804
 5745SOL    MW422748   1.799   1.574   5.318  0.0431  0.2940 -0.1878
 5746SOL     OW22749   5.057   0.459   6.073 -0.4261 -0.0007 -0.3974
 5746SOL    HW222750   5.151   0.447   6.057 -0.1838  1.0246  0.1047
 5746SOL    HW322751   5.046   0.554   6.075 -1.8749 -0.0483 -2.5692
 5746SOL    MW422752   5.068   0.470   6.071 -0.5853  0.1283 -0.6177
 5747SOL     OW22753   5.609   1.646   1.497 -0.3277  0.4685  0.2431
 5747SOL    HW222754   5.541   1.581   1.479 -1.7100  1.7218  0.7869
 5747SOL    HW322755   5.619   1.694   1.414 -2.3944  2.3032  0.9552
 5747SOL    MW422756   5.601   1.644   1.483 -0.7828  0.8759  0.4088
 5748SOL     OW22757   6.273   3.252   5.381 -0.3147  0.6685  0.3861
 5748SOL    HW222758   6.256   3.338   5.344 -0.6293  0.5147  0.1682
 5748SOL    HW322759   6.292   3.269   5.473 -1.6540  0.8549  0.6478
 5748SOL    MW422760   6.274   3.265   5.388 -0.5329  0.6728  0.3918
 5749SOL     OW22761   4.588   1.268   1.081  0.7976  0.7516  0.2902
 5749SOL    HW222762   4.640   1.203   1.034  2.5615  1.2727  1.4488
 5749SOL    HW322763   4.575   1.339   1.018  0.5846  0.1582 -0.3402
 5749SOL    MW422764   4.593   1.269   1.066  1.0022  0.7420  0.3599
 5750SOL     OW22765   4.127   5.842   6.347 -0.4757  0.0764  0.1995
 5750SOL    HW222766   4.076   5.920   6.368 -1.9909 -0.9859  0.7468
 5750SOL    HW322767   4.068   5.769   6.370  0.7643 -1.2139 -0.5587
 5750SOL    MW422768   4.112   5.842   6.353 -0.5120 -0.2340  0.1717
 5751SOL     OW22769   4.965   3.025   6.228 -0.2595 -0.0614 -0.1010
 5751SOL    HW222770   5.033   2.985   6.173 -0.6648 -0.2081 -0.5024
 5751SOL    HW322771   5.001   3.022   6.317 -0.1595 -1.0595 -0.1664
 5751SOL    MW422772   4.979   3.019   6.233 -0.2998 -0.2125 -0.1626
 5752SOL     OW22773   5.855   5.326   4.315  0.4969  0.2138 -0.5852
 5752SOL    HW222774   5.869   5.420   4.323 -0.9606  0.6413 -2.4351
 5752SOL    HW322775   5.761   5.314   4.332  0.4001 -0.7083 -1.6492
 5752SOL    MW422776   5.844   5.337   4.319  0.2918  0.1485 -0.9696
 5753SOL     OW22777   2.520   0.980   1.805 -0.2031  0.1495 -0.1284
 5753SOL    HW222778   2.439   0.934   1.825  0.8189 -1.5334  0.3364
 5753SOL    HW322779   2.560   0.997   1.890  1.1406 -1.3788 -0.4013
 5753SOL    MW422780   2.515   0.976   1.819  0.1090 -0.2742 -0.1031
 5754SOL     OW22781   3.791   2.213   5.990 -0.4671  0.6306  0.0347
 5754SOL    HW222782   3.807   2.245   6.079  2.4145 -1.2132  0.2843
 5754SOL    HW322783   3.796   2.118   5.997  0.1256  0.4499 -2.1637
 5754SOL    MW422784   3.794   2.205   6.003 -0.0087  0.3635 -0.2224
 5755SOL     OW22785   3.365   0.887   4.284 -0.3841  0.5727 -0.2724
 5755SOL    HW222786   3.378   0.981   4.298 -0.2803  0.4964  0.1860
 5755SOL    HW322787   3.434   0.845   4.337 -1.3175  0.2056  0.6917
 5755SOL    MW422788   3.376   0.894   4.293 -0.4936  0.5142 -0.0847
 5756SOL     OW22789   3.293   1.235   5.482  0.1656  0.4987 -0.1742
 5756SOL    HW222790   3.201   1.217   5.498  0.3324  0.1009  0.4009
 5756SOL    HW322791   3.324   1.276   5.563  0.5155  0.5208 -0.3152
 5756SOL    MW422792   3.285   1.238   5.495  0.2338  0.4491 -0.1169
 5757SOL     OW22793   3.279   5.706   5.197 -0.3781  0.0436  0.3467
 5757SOL    HW222794   3.189   5.703   5.165 -1.6263  0.1048  3.4494
 5757SOL    HW322795   3.322   5.772   5.143 -2.0467 -0.2967 -1.4969
 5757SOL    MW422796   3.273   5.715   5.186 -0.7629  0.0068  0.5128
 5758SOL     OW22797   3.180   4.071   1.120  0.5038  0.2618  0.7619
 5758SOL    HW222798   3.270   4.104   1.121  0.5426  0.1898  1.9830
 5758SOL    HW322799   3.167   4.037   1.032  2.2104 -1.1474  1.0155
 5758SOL    MW422800   3.190   4.071   1.109  0.7341  0.0664  0.9565
 5759SOL     OW22801   3.593   1.683   1.171 -0.5377 -0.3763  0.2957
 5759SOL    HW222802   3.509   1.640   1.153 -1.7191  1.5316  1.0064
 5759SOL    HW322803   3.648   1.659   1.097 -1.1904 -2.8474  0.5051
 5759SOL    MW422804   3.589   1.674   1.159 -0.7797 -0.4506  0.4171
 5760SOL     OW22805   2.904   6.118   0.498 -0.4450 -0.3172  0.4049
 5760SOL    HW222806   2.951   6.035   0.495 -0.5157 -0.3275 -0.7964
 5760SOL    HW322807   2.973   6.185   0.495 -0.4449 -0.3382 -0.3157
 5760SOL    MW422808   2.919   6.116   0.497 -0.4543 -0.3213  0.1513
 5761SOL     OW22809   3.842   3.780   6.424  0.0278 -0.0315  0.0200
 5761SOL    HW222810   3.936   3.799   6.422 -0.0418  0.5744  1.2178
 5761SOL    HW322811   3.828   3.740   6.510 -0.7016 -0.7751 -0.4276
 5761SOL    MW422812   3.853   3.777   6.435 -0.0776 -0.0497  0.1190
 5762SOL     OW22813   3.147   4.028   6.387 -0.1621 -0.6423  0.2339
 5762SOL    HW222814   3.059   4.033   6.351  0.1273 -0.2361 -0.4534
 5762SOL    HW322815   3.135   4.031   6.482 -0.9295 -1.3971  0.1689
 5762SOL    MW422816   3.134   4.029   6.395 -0.2252 -0.6883  0.1346
 5763SOL     OW22817   5.498   3.727   3.217 -0.3455  0.0958 -0.1796
 5763SOL    HW222818   5.563   3.672   3.173  0.4331  1.7850 -1.2374
 5763SOL    HW322819   5.514   3.815   3.183 -0.2408  1.3884  2.9098
 5763SOL    MW422820   5.508   3.731   3.207 -0.2289  0.4892  0.0885
 5764SOL     OW22821   5.387   5.854   5.291  0.2341 -0.3513  0.2773
 5764SOL    HW222822   5.390   5.893   5.379 -1.0857 -1.5200  0.8853
 5764SOL    HW322823   5.396   5.760   5.307 -2.6695 -0.8457 -0.5328
 5764SOL    MW422824   5.389   5.847   5.305 -0.3231 -0.5707  0.2507
 5765SOL     OW22825   0.224   5.962   4.268  0.5409  0.3228 -0.0294
 5765SOL    HW222826   0.190   6.039   4.314 -0.8086  0.8504 -1.7755
 5765SOL    HW322827   0.149   5.904   4.259  0.8790  0.0223 -1.0976
 5765SOL    MW422828   0.210   5.965   4.273  0.4075  0.3527 -0.4007
 5766SOL     OW22829   6.176   1.556   5.458 -0.0745  0.0729  0.5552
 5766SOL    HW222830   6.213   1.628   5.407 -0.4858  0.2086  0.4429
 5766SOL    HW322831   6.102   1.526   5.405 -0.5892  0.2988  1.1335
 5766SOL    MW422832   6.171   1.561   5.444 -0.1967  0.1206  0.6167
 5767SOL     OW22833   5.655   2.138   4.102  0.2084 -0.3874  0.1127
 5767SOL    HW222834   5.675   2.121   4.194  1.5073 -3.0565 -0.5476
 5767SOL    HW322835   5.736   2.174   4.066 -0.3276  0.7465  0.0078
 5767SOL    MW422836   5.668   2.141   4.109  0.3090 -0.5899  0.0117
 5768SOL     OW22837   0.038   0.985   3.473  0.1407  0.2643  0.3693
 5768SOL    HW222838   0.008   0.945   3.554 -0.7740 -1.5922 -0.8167
 5768SOL    HW322839  -0.037   0.982   3.415  1.4123 -0.6278 -1.3232
 5768SOL    MW422840   0.024   0.979   3.476  0.1878 -0.0983 -0.0104
 5769SOL     OW22841   2.621   4.867   6.022 -0.2893 -0.1853 -0.0199
 5769SOL    HW222842   2.629   4.785   5.973  0.2235 -0.5670  0.6903
 5769SOL    HW322843   2.599   4.840   6.111 -1.3574  0.5089 -0.0622
 5769SOL    MW422844   2.619   4.852   6.027 -0.3626 -0.1440  0.0682
 5770SOL     OW22845   3.045   5.437   5.168 -0.5795  0.1242  0.4344
 5770SOL    HW222846   3.032   5.466   5.078  0.0029 -0.2904  0.2096
 5770SOL    HW322847   2.989   5.361   5.177 -0.0339 -0.3170  0.1654
 5770SOL    MW422848   3.036   5.431   5.157 -0.4306  0.0113  0.3692
 5771SOL     OW22849   2.910   5.705   2.660 -0.5738 -0.3902  0.2444
 5771SOL    HW222850   2.866   5.755   2.593  0.7173  0.7842  0.2153
 5771SOL    HW322851   2.840   5.667   2.713 -1.6562 -2.1119 -2.2278
 5771SOL    MW422852   2.895   5.706   2.658 -0.5463 -0.4624 -0.0856
 5772SOL     OW22853   3.097   0.283   4.710  0.3334 -0.4945 -0.4733
 5772SOL    HW222854   3.102   0.301   4.804 -0.3196 -2.2348 -0.0649
 5772SOL    HW322855   3.074   0.190   4.705  2.1879 -0.9265 -2.3672
 5772SOL    MW422856   3.095   0.273   4.722  0.4919 -0.7811 -0.6693
 5773SOL     OW22857   3.574   4.742   6.258 -0.7049  0.5694 -0.3080
 5773SOL    HW222858   3.558   4.741   6.163  1.3102 -0.9922 -0.7017
 5773SOL    HW322859   3.665   4.716   6.267 -1.4994 -1.9025  2.1341
 5773SOL    MW422860   3.584   4.738   6.247 -0.5439  0.0373 -0.0377
 5774SOL     OW22861   2.462   5.240   1.245 -0.3322  0.4636 -0.1189
 5774SOL    HW222862   2.439   5.254   1.153  0.2862  1.2946 -0.1586
 5774SOL    HW322863   2.411   5.307   1.292 -0.5847  0.0932  0.1379
 5774SOL    MW422864   2.452   5.251   1.239 -0.2840  0.5244 -0.0903
 5775SOL     OW22865   3.126   4.432   3.283 -0.2552 -0.3056  0.1796
 5775SOL    HW222866   3.156   4.514   3.243  0.7920 -0.3083  0.9133
 5775SOL    HW322867   3.064   4.458   3.351  0.7912 -0.0288  1.0582
 5775SOL    MW422868   3.122   4.446   3.287  0.0210 -0.2695  0.3923
 5776SOL     OW22869   4.113   1.099   5.849 -0.1597  0.0958  0.1194
 5776SOL    HW222870   4.046   1.135   5.791 -0.4177 -0.8128 -0.1667
 5776SOL    HW322871   4.186   1.162   5.844 -0.7977  0.8397  0.0603
 5776SOL    MW422872   4.114   1.112   5.841 -0.2779  0.0740  0.0738
 5777SOL     OW22873   1.296   4.229   3.317 -0.1252 -0.4377  0.5706
 5777SOL    HW222874   1.244   4.309   3.323  1.9098  1.0716 -0.7934
 5777SOL    HW322875   1.359   4.236   3.388  1.0962  0.0276 -0.5133
 5777SOL    MW422876   1.297   4.241   3.327  0.3044 -0.1772  0.2476
 5778SOL     OW22877   1.383   3.730   5.920 -0.3763 -0.2061  0.4470
 5778SOL    HW222878   1.386   3.800   5.985 -0.5787  0.8499 -0.6359
 5778SOL    HW322879   1.291   3.703   5.919 -0.5395  0.3364  0.0514
 5778SOL    MW422880   1.371   3.735   5.929 -0.4245  0.0048  0.2519
 5779SOL     OW22881   5.848   1.908   0.539  0.0696  0.4339 -0.0021
 5779SOL    HW222882   5.941   1.901   0.558 -0.0006  1.5777  0.8536
 5779SOL    HW322883   5.836   1.857   0.459  1.4305  0.2925 -0.1323
 5779SOL    MW422884   5.858   1.901   0.531  0.2399  0.5661  0.0936
 5780SOL     OW22885   1.338   5.528   0.311 -0.1624 -0.1750 -0.3376
 5780SOL    HW222886   1.267   5.560   0.256 -0.7690  0.7982  0.9600
 5780SOL    HW322887   1.335   5.584   0.389  1.7709 -0.3684 -0.0700
 5780SOL    MW422888   1.328   5.540   0.314  0.0126 -0.0721 -0.1311
 5781SOL     OW22889   2.303   1.436   4.169 -0.3928  0.4025 -0.5508
 5781SOL    HW222890   2.342   1.513   4.129  0.7630  0.7664  1.1648
 5781SOL    HW322891   2.305   1.369   4.100  0.7015  1.2386 -1.3616
 5781SOL    MW422892   2.308   1.437   4.155 -0.0960  0.5608 -0.4314
 5782SOL     OW22893   5.967   6.022   3.988 -0.2078 -0.5412  0.4619
 5782SOL    HW222894   5.941   6.050   4.075 -1.0012  1.4598 -0.3457
 5782SOL    HW322895   5.983   5.928   3.996 -1.6589 -0.6740  2.4165
 5782SOL    MW422896   5.966   6.013   4.000 -0.5040 -0.2947  0.6133
 5783SOL     OW22897   3.755   3.222   3.179  0.1916  0.5721  0.3438
 5783SOL    HW222898   3.684   3.157   3.182  1.4204 -0.9637 -1.9267
 5783SOL    HW322899   3.715   3.299   3.137 -0.0048 -0.5505 -1.6342
 5783SOL    MW422900   3.740   3.224   3.174  0.3278  0.2213 -0.2167
 5784SOL     OW22901   3.902   0.950   2.901 -0.1437  0.2582 -0.9678
 5784SOL    HW222902   3.890   0.881   2.967 -1.3362 -0.4342 -1.8711
 5784SOL    HW322903   3.997   0.960   2.895  0.0569 -1.1957 -0.6768
 5784SOL    MW422904   3.913   0.942   2.909 -0.2746 -0.0250 -1.0486
 5785SOL     OW22905   2.464   0.860   3.790  0.1182  0.1031  0.1424
 5785SOL    HW222906   2.487   0.948   3.820  0.3345 -0.1049  0.5972
 5785SOL    HW322907   2.482   0.861   3.696 -0.6332  0.7900 -0.0096
 5785SOL    MW422908   2.469   0.872   3.782  0.0476  0.1663  0.1824
 5786SOL     OW22909   5.614   3.674   4.147  0.2384 -0.0120 -0.2408
 5786SOL    HW222910   5.577   3.728   4.077  1.0162 -0.1698 -0.7792
 5786SOL    HW322911   5.701   3.650   4.116  0.0695 -1.2434  0.1599
 5786SOL    MW422912   5.621   3.678   4.133  0.3187 -0.1953 -0.2589
 5787SOL     OW22913   5.485   3.917   4.271  0.0075 -0.0963 -0.2212
 5787SOL    HW222914   5.510   3.941   4.360 -1.9219 -2.0927  0.9479
 5787SOL    HW322915   5.552   3.855   4.243  0.3923  0.2228 -0.0246
 5787SOL    MW422916   5.497   3.912   4.279 -0.1963 -0.3176 -0.0410
 5788SOL     OW22917   3.901   5.407   2.000  0.1797  0.6783  0.1868
 5788SOL    HW222918   3.996   5.400   1.995  0.2383 -0.0274  1.6359
 5788SOL    HW322919   3.874   5.334   2.057 -1.3520  0.1145 -1.1698
 5788SOL    MW422920   3.910   5.397   2.007 -0.0147  0.5108  0.1990
 5789SOL     OW22921   4.703   2.022   2.562  0.1927 -0.4874  0.2253
 5789SOL    HW222922   4.778   2.082   2.566 -0.6552  0.5314  1.3431
 5789SOL    HW322923   4.741   1.935   2.577  1.0804  0.0783  1.4380
 5789SOL    MW422924   4.718   2.019   2.564  0.1980 -0.2783  0.5328
 5790SOL     OW22925   5.562   5.410   1.251  0.0562 -0.5426 -0.1515
 5790SOL    HW222926   5.563   5.395   1.157  1.4446  2.1266 -0.6329
 5790SOL    HW322927   5.473   5.439   1.270  0.2256  0.5586 -0.9714
 5790SOL    MW422928   5.550   5.411   1.241  0.2617 -0.0452 -0.3232
 5791SOL     OW22929   0.455   0.419   4.801  0.2904 -0.3900 -0.0075
 5791SOL    HW222930   0.453   0.367   4.721 -0.5846  0.5376 -0.6251
 5791SOL    HW322931   0.401   0.369   4.863 -1.6585  0.3504 -1.0078
 5791SOL    MW422932   0.447   0.406   4.799 -0.0822 -0.1699 -0.2210
 5792SOL     OW22933   1.795   4.209   0.238  0.2528 -0.8668  0.5137
 5792SOL    HW222934   1.790   4.244   0.149  0.1375 -0.4459  0.6850
 5792SOL    HW322935   1.887   4.218   0.262  0.1819 -0.4723  0.6408
 5792SOL    MW422936   1.806   4.215   0.229  0.2282 -0.7592  0.5531
 5793SOL     OW22937   4.868   0.478   4.683 -0.1184 -0.2055  0.0693
 5793SOL    HW222938   4.917   0.538   4.627 -1.2716  0.7026  0.0180
 5793SOL    HW322939   4.936   0.431   4.732  0.8755 -0.3464 -1.3778
 5793SOL    MW422940   4.884   0.480   4.682 -0.1394 -0.1043 -0.1284
 5794SOL     OW22941   2.074   3.412   2.463 -0.1969 -0.1517  0.4255
 5794SOL    HW222942   2.142   3.474   2.435  0.1842 -1.1627 -1.0031
 5794SOL    HW322943   2.121   3.333   2.486 -0.8142 -0.5479  0.3512
 5794SOL    MW422944   2.089   3.410   2.462 -0.2280 -0.3374  0.2272
 5795SOL     OW22945   2.108   1.590   0.840  0.0022 -0.1658  0.1166
 5795SOL    HW222946   2.066   1.520   0.789  2.8533 -0.9695 -1.3220
 5795SOL    HW322947   2.067   1.671   0.807 -1.0501 -0.9363 -0.5478
 5795SOL    MW422948   2.097   1.592   0.829  0.2395 -0.3735 -0.1609
 5796SOL     OW22949   1.607   0.065   4.096  0.3164 -0.4237  0.5726
 5796SOL    HW222950   1.594   0.006   4.170 -0.9995  0.2732  0.9147
 5796SOL    HW322951   1.627   0.150   4.136  2.0607 -0.5589  0.0858
 5796SOL    MW422952   1.608   0.069   4.111  0.3730 -0.3496  0.5535
 5797SOL     OW22953   0.975   3.351   3.607 -0.2916  0.1357 -0.3404
 5797SOL    HW222954   0.898   3.409   3.601 -2.2606 -2.2334  0.4239
 5797SOL    HW322955   1.022   3.366   3.525 -1.2469  2.0901 -0.5946
 5797SOL    MW422956   0.971   3.361   3.595 -0.6775  0.0810 -0.2731
 5798SOL     OW22957   0.806   6.050   4.941 -0.1142  0.2963 -0.0870
 5798SOL    HW222958   0.848   5.980   4.992  0.7340  0.7149 -0.1884
 5798SOL    HW322959   0.851   6.130   4.969  1.3664  0.3941 -2.4637
 5798SOL    MW422960   0.818   6.051   4.952  0.1931  0.3644 -0.4139
 5799SOL     OW22961   3.035   4.994   3.419  0.1381  0.4244 -0.1604
 5799SOL    HW222962   3.055   5.009   3.326  0.3565 -0.5872 -0.2831
 5799SOL    HW322963   3.078   4.912   3.440 -2.3337 -0.9038  0.0519
 5799SOL    MW422964   3.043   4.985   3.409 -0.1592  0.1157 -0.1486
 5800SOL     OW22965   0.366   5.812   5.975 -0.3626 -0.4410 -0.1250
 5800SOL    HW222966   0.354   5.870   6.050  0.0815  1.1790 -1.2541
 5800SOL    HW322967   0.459   5.791   5.976 -0.3601 -0.4345 -0.2135
 5800SOL    MW422968   0.377   5.817   5.985 -0.3037 -0.2264 -0.2856
 5801SOL     OW22969   4.732   3.177   5.685  0.1888 -0.2606 -0.3914
 5801SOL    HW222970   4.783   3.218   5.755  0.8245  0.0265 -1.0111
 5801SOL    HW322971   4.642   3.209   5.699  0.8445  2.4308 -1.5848
 5801SOL    MW422972   4.727   3.187   5.696  0.3592  0.1324 -0.6306
 5802SOL     OW22973   4.398   4.634   3.766  0.3180 -0.5568  0.1710
 5802SOL    HW222974   4.304   4.622   3.754  0.5297 -0.4786 -1.8183
 5802SOL    HW322975   4.427   4.680   3.687  2.2675 -1.8309  0.0759
 5802SOL    MW422976   4.390   4.639   3.754  0.6031 -0.7146 -0.1040
 5803SOL     OW22977   4.557   5.709   2.875  0.0627  0.3428 -0.5271
 5803SOL    HW222978   4.500   5.771   2.828 -1.4071 -2.1327 -2.2472
 5803SOL    HW322979   4.522   5.623   2.853  3.0661 -1.2417  0.3254
 5803SOL    MW422980   4.545   5.706   2.866  0.2651 -0.1929 -0.6416
 5804SOL     OW22981   1.625   1.099   1.391  0.0895  0.3036  0.0687
 5804SOL    HW222982   1.614   1.005   1.378  0.2221  0.3087 -0.0807
 5804SOL    HW322983   1.693   1.124   1.329 -0.2489  0.5767 -0.1962
 5804SOL    MW422984   1.632   1.090   1.381  0.0623  0.3403  0.0141
 5805SOL     OW22985   4.732   2.532   5.814  0.4036 -0.1084  0.4410
 5805SOL    HW222986   4.760   2.445   5.841 -1.7888 -0.9702  0.2103
 5805SOL    HW322987   4.653   2.516   5.761  1.6414  1.8182 -2.2336
 5805SOL    MW422988   4.725   2.518   5.810  0.2777  0.0321  0.0577
 5806SOL     OW22989   2.943   1.277   6.401  0.0568 -0.3541 -0.3162
 5806SOL    HW222990   2.929   1.272   6.496  0.3967  0.1113 -0.2420
 5806SOL    HW322991   3.019   1.220   6.385  0.6861  0.4210 -0.1567
 5806SOL    MW422992   2.951   1.269   6.411  0.1847 -0.1904 -0.2853
 5807SOL     OW22993   0.693   4.321   0.478 -0.3279  0.4951  0.5361
 5807SOL    HW222994   0.704   4.313   0.383  1.3881  1.7284  0.5934
 5807SOL    HW322995   0.720   4.236   0.512 -2.2923 -0.4712 -0.1024
 5807SOL    MW422996   0.698   4.309   0.470 -0.3607  0.5303  0.4594
 5808SOL     OW22997   3.342   2.254   4.197  0.2544  0.7939  0.1542
 5808SOL    HW222998   3.351   2.321   4.130  2.2156  0.0013 -0.4469
 5808SOL    HW322999   3.404   2.280   4.265  1.1197 -0.4067 -0.1367
 5808SOL    MW423000   3.352   2.266   4.197  0.6273  0.5309  0.0365
 5809SOL     OW23001   4.504   0.142   1.207 -0.0574 -0.0408  0.0016
 5809SOL    HW223002   4.567   0.204   1.243  1.4248  0.0732 -2.5553
 5809SOL    HW323003   4.425   0.194   1.192  0.8037  1.0347 -1.0752
 5809SOL    MW423004   4.502   0.157   1.210  0.2518  0.1162 -0.4778
 5810SOL     OW23005   5.904   4.960   5.890  0.2204 -0.0038  0.2202
 5810SOL    HW223006   5.869   5.049   5.889 -1.6742 -0.6971 -0.2078
 5810SOL    HW323007   5.849   4.913   5.953  1.3693 -0.8227  0.6577
 5810SOL    MW423008   5.892   4.965   5.898  0.1220 -0.2033  0.2214
 5811SOL     OW23009   2.427   4.043   2.886  0.8214 -0.1886  0.3831
 5811SOL    HW223010   2.401   3.978   2.821 -1.6831  1.1902 -0.0977
 5811SOL    HW323011   2.467   4.114   2.834  3.1137 -1.0361  0.8614
 5811SOL    MW423012   2.429   4.044   2.871  0.7934 -0.1185  0.3828
 5812SOL     OW23013   1.972   5.555   3.430  0.0798 -0.2522 -0.7287
 5812SOL    HW223014   1.900   5.613   3.405  0.3715 -0.1693 -1.3922
 5812SOL    HW323015   1.965   5.548   3.525 -1.4738 -1.1262 -0.8781
 5812SOL    MW423016   1.962   5.561   3.439 -0.0867 -0.3565 -0.8359
 5813SOL     OW23017   5.870   4.028   1.534  0.2907 -0.3720  0.1036
 5813SOL    HW223018   5.896   3.940   1.506  0.8713 -0.2259  0.1770
 5813SOL    HW323019   5.827   4.015   1.618  0.5905 -0.5581  0.2279
 5813SOL    MW423020   5.868   4.015   1.541  0.4068 -0.3773  0.1297
 5814SOL     OW23021   1.314   3.120   3.870 -0.5269 -0.0936 -0.1920
 5814SOL    HW223022   1.354   3.086   3.950  0.4488  1.1530 -0.1303
 5814SOL    HW323023   1.220   3.106   3.883 -0.2225 -2.4570 -0.0514
 5814SOL    MW423024   1.307   3.113   3.882 -0.3580 -0.2409 -0.1653
 5815SOL     OW23025   5.723   3.250   3.984  0.0608 -0.2842 -0.2874
 5815SOL    HW223026   5.813   3.272   3.962  0.7200  0.2160  2.5253
 5815SOL    HW323027   5.730   3.186   4.055 -1.8326 -1.5667 -1.1647
 5815SOL    MW423028   5.736   3.245   3.990 -0.1020 -0.3874 -0.0321
 5816SOL     OW23029   0.386   3.615   1.206 -0.3381 -0.2645  0.4259
 5816SOL    HW223030   0.453   3.642   1.144 -0.4094  0.3321  0.5956
 5816SOL    HW323031   0.425   3.541   1.252  0.0547 -0.1687  0.2575
 5816SOL    MW423032   0.400   3.609   1.204 -0.2957 -0.1732  0.4261
 5817SOL     OW23033   5.646   2.532   1.131  0.4406  0.2485 -0.0921
 5817SOL    HW223034   5.574   2.530   1.068 -0.5947 -0.4479  1.0587
 5817SOL    HW323035   5.701   2.457   1.107  0.1926  0.1370 -0.3173
 5817SOL    MW423036   5.644   2.521   1.120  0.2713  0.1419  0.0300
 5818SOL     OW23037   2.728   0.736   4.847 -0.0193 -0.8369 -0.0100
 5818SOL    HW223038   2.657   0.754   4.908  0.8956  0.4300  0.7317
 5818SOL    HW323039   2.723   0.642   4.831 -2.0635 -0.7343 -0.2574
 5818SOL    MW423040   2.718   0.726   4.853 -0.1683 -0.6562  0.0552
 5819SOL     OW23041   4.000   1.747   4.185  0.1216 -0.0624  0.1465
 5819SOL    HW223042   3.917   1.699   4.182  0.2510 -0.2128 -1.8965
 5819SOL    HW323043   3.978   1.834   4.150  0.9682 -0.3552 -1.1442
 5819SOL    MW423044   3.986   1.752   4.180  0.2504 -0.1209 -0.2933
 5820SOL     OW23045   4.749   6.202   2.787  0.0577 -0.1766  0.0109
 5820SOL    HW223046   4.670   6.161   2.752  0.5848 -2.2449  1.0842
 5820SOL    HW323047   4.731   6.296   2.784 -2.1087 -0.5584 -0.4932
 5820SOL    MW423048   4.736   6.209   2.782 -0.1586 -0.4999  0.0860
 5821SOL     OW23049   5.371   4.069   0.662  0.9297  0.8950  0.2330
 5821SOL    HW223050   5.317   3.998   0.699  1.0132  0.4516 -0.4762
 5821SOL    HW323051   5.351   4.067   0.568  2.1162  0.7820 -0.0298
 5821SOL    MW423052   5.361   4.059   0.655  1.0973  0.8216  0.1048
 5822SOL     OW23053   2.723   6.377   5.708 -0.4589  0.1046  0.7941
 5822SOL    HW223054   2.753   6.316   5.775 -3.6129 -1.1355  1.2503
 5822SOL    HW323055   2.772   6.352   5.629 -0.2052 -1.6959  1.4744
 5822SOL    MW423056   2.734   6.366   5.706 -0.8416 -0.2966  0.9441
 5823SOL     OW23057   1.493   5.345   4.253 -0.1501 -0.0976  0.2942
 5823SOL    HW223058   1.433   5.395   4.197 -0.8316  0.0901  1.1831
 5823SOL    HW323059   1.487   5.386   4.339  0.9685 -0.3225  0.4931
 5823SOL    MW423060   1.484   5.357   4.257 -0.0924 -0.1025  0.4377
 5824SOL     OW23061   3.701   2.279   0.226 -0.1322  0.2791  0.4448
 5824SOL    HW223062   3.661   2.318   0.148  1.7677  0.2333 -0.6277
 5824SOL    HW323063   3.701   2.185   0.209 -0.5212  0.1865  0.9281
 5824SOL    MW423064   3.696   2.272   0.213  0.0672  0.2608  0.3670
 5825SOL     OW23065   0.726   3.509   4.286  0.3535 -0.1145  0.0631
 5825SOL    HW223066   0.667   3.515   4.211  0.2564 -0.3446  0.1195
 5825SOL    HW323067   0.805   3.555   4.258  0.0961  0.3163  0.0391
 5825SOL    MW423068   0.729   3.515   4.272  0.3067 -0.0880  0.0673
 5826SOL     OW23069   2.475   0.529   1.635 -0.1183  0.3268  0.0581
 5826SOL    HW223070   2.520   0.551   1.717 -0.7485 -0.2115  0.5567
 5826SOL    HW323071   2.540   0.480   1.585 -0.3751 -1.1937  1.1306
 5826SOL    MW423072   2.490   0.525   1.640 -0.2353  0.0552  0.2654
 5827SOL     OW23073   2.104   3.252   3.164 -0.0328 -0.9002  0.7224
 5827SOL    HW223074   2.092   3.249   3.069 -1.5605 -0.5873  0.8893
 5827SOL    HW323075   2.108   3.160   3.190  1.9215 -1.0176  0.2233
 5827SOL    MW423076   2.103   3.239   3.155  0.0235 -0.8744  0.6786
 5828SOL     OW23077   5.460   0.367   2.895  0.0535  0.2966 -0.5365
 5828SOL    HW223078   5.368   0.344   2.881 -0.2842  1.0318  0.3864
 5828SOL    HW323079   5.481   0.330   2.981  0.2052  1.3332 -0.1232
 5828SOL    MW423080   5.451   0.359   2.904  0.0290  0.5303 -0.3602
 5829SOL     OW23081   2.500   5.352   0.370  0.1085 -0.2805 -0.2991
 5829SOL    HW223082   2.461   5.347   0.283  0.1337  2.4402 -0.5520
 5829SOL    HW323083   2.561   5.425   0.364 -0.3240  0.3581  2.1503
 5829SOL    MW423084   2.503   5.361   0.358  0.0547  0.1627 -0.0093
 5830SOL     OW23085   4.895   5.748   5.221 -0.6995 -0.5355 -0.9408
 5830SOL    HW223086   4.895   5.707   5.307  0.3726 -0.2644 -0.7911
 5830SOL    HW323087   4.988   5.759   5.200 -0.9484  1.1005 -1.3096
 5830SOL    MW423088   4.907   5.744   5.229 -0.5909 -0.2839 -0.9697
 5831SOL     OW23089   3.359   1.825   3.752 -0.3719  1.0465 -0.2040
 5831SOL    HW223090   3.292   1.759   3.732 -0.2749  0.9803 -0.3105
 5831SOL    HW323091   3.352   1.888   3.680  0.3354  0.5321 -0.7397
 5831SOL    MW423092   3.349   1.825   3.740 -0.2658  0.9699 -0.2887
 5832SOL     OW23093   2.396   2.944   0.695  0.1908 -0.1752 -0.3093
 5832SOL    HW223094   2.304   2.970   0.705  0.2993  0.2440 -0.4023
 5832SOL    HW323095   2.403   2.913   0.605  0.0813 -0.4566 -0.2231
 5832SOL    MW423096   2.385   2.943   0.684  0.1907 -0.1570 -0.3102
 5833SOL     OW23097   0.986   5.085   4.132 -0.1631 -0.3904  0.2370
 5833SOL    HW223098   1.045   5.154   4.162 -1.2552  0.9682 -0.6184
 5833SOL    HW323099   1.031   5.045   4.057 -0.7125  1.3280 -1.0672
 5833SOL    MW423100   1.000   5.089   4.126 -0.3797  0.0156 -0.0479
 5834SOL     OW23101   1.510   4.128   6.457  0.6142 -0.1369  0.1305
 5834SOL    HW223102   1.518   4.216   6.492  2.3115 -0.4872  0.6809
 5834SOL    HW323103   1.560   4.130   6.375  2.4891 -1.1022  1.1892
 5834SOL    MW423104   1.517   4.140   6.451  1.0855 -0.3105  0.3428
 5835SOL     OW23105   6.178   3.579   6.425  0.1498 -0.3533  0.6280
 5835SOL    HW223106   6.164   3.524   6.348 -1.1382  0.3735  0.3071
 5835SOL    HW323107   6.272   3.578   6.439  0.4366 -0.2769 -1.1384
 5835SOL    MW423108   6.188   3.572   6.417  0.0177 -0.2474  0.3526
 5836SOL     OW23109   3.631   1.484   6.356  0.1526 -0.7211  0.3201
 5836SOL    HW223110   3.552   1.538   6.357 -0.8196 -2.0390 -0.8198
 5836SOL    HW323111   3.606   1.405   6.404  0.5737 -1.3745 -0.5051
 5836SOL    MW423112   3.617   1.481   6.362  0.0799 -0.9812  0.0609
 5837SOL     OW23113   4.540   1.458   5.919  0.4130  0.3167 -0.3139
 5837SOL    HW223114   4.498   1.393   5.863 -0.6227  0.6661  0.0448
 5837SOL    HW323115   4.524   1.426   6.008  1.6909 -0.0175 -0.1789
 5837SOL    MW423116   4.533   1.445   5.924  0.4450  0.3187 -0.2488
 5838SOL     OW23117   5.265   3.392   3.048 -0.2054  0.5169 -0.0863
 5838SOL    HW223118   5.314   3.337   3.109  0.1869  1.0573  0.0944
 5838SOL    HW323119   5.331   3.422   2.985  0.0262  2.4762  1.0257
 5838SOL    MW423120   5.280   3.388   3.047 -0.1231  0.8467  0.0843
 5839SOL     OW23121   1.046   2.273   4.230 -0.0560 -0.5391  0.2116
 5839SOL    HW223122   1.014   2.303   4.315 -0.9486 -0.6798 -0.0731
 5839SOL    HW323123   0.968   2.260   4.177  0.4768 -0.6924 -0.5608
 5839SOL    MW423124   1.032   2.275   4.234 -0.1034 -0.5779  0.0721
 5840SOL     OW23125   3.696   0.147   3.781  0.3990  0.4824 -0.9324
 5840SOL    HW223126   3.624   0.192   3.736  0.5879  0.5701 -1.1506
 5840SOL    HW323127   3.730   0.086   3.716 -0.3556 -0.5477 -0.3884
 5840SOL    MW423128   3.691   0.145   3.767  0.3244  0.3581 -0.8894
 5841SOL     OW23129   2.452   0.517   3.876 -0.5194  0.1162 -0.0382
 5841SOL    HW223130   2.515   0.494   3.944  2.3698  1.7891 -1.9178
 5841SOL    HW323131   2.396   0.584   3.917 -0.7436 -0.9678  1.4993
 5841SOL    MW423132   2.453   0.523   3.891 -0.1678  0.1939 -0.0834
 5842SOL     OW23133   6.136   5.372   5.961 -0.3785  0.2305  0.3233
 5842SOL    HW223134   6.129   5.277   5.953  0.8430  0.2000 -0.5704
 5842SOL    HW323135   6.229   5.391   5.950 -0.5464  1.5065  0.8879
 5842SOL    MW423136   6.147   5.362   5.959 -0.2395  0.3948  0.2799
 5843SOL     OW23137   4.267   4.815   5.300 -0.0346 -0.4588  0.5955
 5843SOL    HW223138   4.172   4.821   5.304 -0.3083 -1.6190 -1.9817
 5843SOL    HW323139   4.289   4.736   5.350 -0.1168  0.9870  3.0745
 5843SOL    MW423140   4.257   4.805   5.307 -0.0816 -0.4211  0.5826
 5844SOL     OW23141   0.373   3.289   5.585  0.3851  0.4794 -0.0229
 5844SOL    HW223142   0.333   3.217   5.535  1.9015  0.8603 -1.9301
 5844SOL    HW323143   0.463   3.260   5.600  0.4893  1.2172  0.7939
 5844SOL    MW423144   0.380   3.276   5.580  0.5989  0.6270 -0.1667
 5845SOL     OW23145   3.234   1.316   2.787  0.0931  0.3290 -0.4678
 5845SOL    HW223146   3.313   1.368   2.799  0.7471 -0.8807  0.6591
 5845SOL    HW323147   3.254   1.231   2.825 -1.5135 -0.2410 -0.7887
 5845SOL    MW423148   3.247   1.312   2.794 -0.0326  0.0942 -0.3614
 5846SOL     OW23149   3.894   4.332   3.130  0.3206 -0.3801 -0.1474
 5846SOL    HW223150   3.911   4.413   3.082  0.9121 -0.8514 -0.7387
 5846SOL    HW323151   3.873   4.267   3.063  0.0543 -0.7758  0.3075
 5846SOL    MW423152   3.893   4.334   3.115  0.3635 -0.4945 -0.1654
 5847SOL     OW23153   3.405   2.440   5.130  0.3433  0.5966 -0.0315
 5847SOL    HW223154   3.365   2.359   5.163  3.8614 -0.6942  1.5038
 5847SOL    HW323155   3.465   2.467   5.200  1.0252  3.2346 -1.5204
 5847SOL    MW423156   3.407   2.433   5.144  0.8974  0.7743 -0.0253
 5848SOL     OW23157   2.751   2.625   3.901 -0.7025  0.5735 -0.1689
 5848SOL    HW223158   2.839   2.638   3.864 -0.8247  0.0688 -0.6535
 5848SOL    HW323159   2.741   2.530   3.905 -1.0652  0.6272  0.2852
 5848SOL    MW423160   2.762   2.614   3.897 -0.7665  0.5140 -0.1729
 5849SOL     OW23161   6.359   3.709   3.228 -0.3510  0.1692  0.1813
 5849SOL    HW223162   6.343   3.651   3.302  0.2357 -1.1656 -0.6801
 5849SOL    HW323163   6.403   3.653   3.163  0.9579  1.7850 -0.3947
 5849SOL    MW423164   6.363   3.694   3.229 -0.1009  0.2062 -0.0083
 5850SOL     OW23165   3.096   4.998   4.999  0.3669  0.0236  0.6194
 5850SOL    HW223166   3.155   4.969   5.068  0.1597 -0.2790  0.6773
 5850SOL    HW323167   3.148   5.055   4.944  1.1304 -1.3572 -0.1425
 5850SOL    MW423168   3.110   5.001   5.001  0.4403 -0.1985  0.5265
 5851SOL     OW23169   3.808   1.776   3.807  0.3697 -0.5743 -0.3473
 5851SOL    HW223170   3.728   1.754   3.855  0.1888  1.7592  0.5418
 5851SOL    HW323171   3.777   1.821   3.728  0.7163  2.8676  1.3134
 5851SOL    MW423172   3.793   1.779   3.803  0.3915  0.1877 -0.0108
 5852SOL     OW23173   0.211   2.919   3.334  0.2451 -0.6389 -0.1413
 5852SOL    HW223174   0.225   2.919   3.239 -1.1104  0.9839 -0.3858
 5852SOL    HW323175   0.136   2.861   3.347 -1.1367  1.0265 -0.3847
 5852SOL    MW423176   0.203   2.911   3.323 -0.1160 -0.2050 -0.2057
 5853SOL     OW23177   4.239   5.142   1.863 -0.5062  0.1847  0.1439
 5853SOL    HW223178   4.189   5.101   1.935 -1.6443  0.2177 -0.6005
 5853SOL    HW323179   4.191   5.117   1.784 -0.4600  1.8456 -0.4459
 5853SOL    MW423180   4.226   5.133   1.862 -0.6503  0.4082 -0.0321
 5854SOL     OW23181   1.782   3.600   4.532  0.5701  0.0175 -0.4576
 5854SOL    HW223182   1.841   3.540   4.576  0.8018  0.1182 -0.6269
 5854SOL    HW323183   1.769   3.560   4.445  2.4796  1.2986 -1.4026
 5854SOL    MW423184   1.788   3.587   4.526  0.8526  0.1998 -0.6046
 5855SOL     OW23185   5.989   6.239   3.596  0.3523  0.2044 -0.0528
 5855SOL    HW223186   6.022   6.257   3.508  0.3237  0.1463 -0.0756
 5855SOL    HW323187   5.938   6.158   3.587  0.2818  0.2427  0.0011
 5855SOL    MW423188   5.987   6.230   3.583  0.3392  0.2018 -0.0487
 5856SOL     OW23189   2.798   4.128   1.502  0.0092 -0.4302  0.0163
 5856SOL    HW223190   2.842   4.186   1.564 -0.4596  1.8909 -1.6845
 5856SOL    HW323191   2.859   4.121   1.428 -0.7618 -0.4782 -0.6274
 5856SOL    MW423192   2.812   4.135   1.501 -0.1544 -0.1303 -0.2931
 5857SOL     OW23193   5.354   5.551   5.033 -0.2081  0.3719 -0.6291
 5857SOL    HW223194   5.341   5.616   4.964  2.0924  1.4605 -0.1086
 5857SOL    HW323195   5.443   5.520   5.021  0.6491  1.3018  2.3878
 5857SOL    MW423196   5.364   5.556   5.022  0.2085  0.6382 -0.1624
 5858SOL     OW23197   0.768   0.523   5.472 -0.3373 -0.1137  0.1542
 5858SOL    HW223198   0.688   0.482   5.505 -1.5973  1.4901 -0.7602
 5858SOL    HW323199   0.739   0.579   5.401  1.4014  1.7745  0.8320
 5858SOL    MW423200   0.754   0.525   5.467 -0.2741  0.3471  0.1230
 5859SOL     OW23201   4.980   6.364   0.829  0.0887  1.0486 -0.4816
 5859SOL    HW223202   5.027   6.439   0.793  0.5121  1.1857  0.3425
 5859SOL    HW323203   5.048   6.304   0.857 -0.2491  0.3027 -1.2157
 5859SOL    MW423204   4.995   6.366   0.828  0.1000  0.9683 -0.4697
 5860SOL     OW23205   0.559   4.595   1.669  0.0957 -0.0906 -0.0851
 5860SOL    HW223206   0.573   4.533   1.741 -1.4885  0.5194  0.7994
 5860SOL    HW323207   0.537   4.541   1.594  0.3219 -0.6771  0.2653
 5860SOL    MW423208   0.558   4.580   1.669 -0.0835 -0.0875  0.0778
 5861SOL     OW23209   2.980   1.973   4.333  0.5151 -0.1757 -0.8117
 5861SOL    HW223210   3.033   1.958   4.255  0.2067  0.1609 -1.0872
 5861SOL    HW323211   3.013   2.056   4.368  0.1243  0.0675 -1.0207
 5861SOL    MW423212   2.992   1.982   4.327  0.4228 -0.0992 -0.8756
 5862SOL     OW23213   2.492   3.154   2.402 -0.4175 -0.1579 -0.3309
 5862SOL    HW223214   2.508   3.243   2.433  0.8870 -0.2426 -0.7308
 5862SOL    HW323215   2.571   3.131   2.354  0.1228 -2.2824  1.4555
 5862SOL    MW423216   2.504   3.163   2.399 -0.1741 -0.4494 -0.1480
 5863SOL     OW23217   4.699   1.378   4.000  0.0187 -0.2924  0.0140
 5863SOL    HW223218   4.616   1.396   3.955 -0.0833  0.6784  0.5510
 5863SOL    HW323219   4.715   1.457   4.053  0.6069 -1.0144  0.9441
 5863SOL    MW423220   4.690   1.391   4.001  0.0828 -0.2595  0.2076
 5864SOL     OW23221   4.232   2.573   0.826 -0.0783  0.2534  0.6001
 5864SOL    HW223222   4.317   2.612   0.848 -0.2197  1.5163 -0.9782
 5864SOL    HW323223   4.253   2.503   0.765 -0.0850 -0.3428  1.2590
 5864SOL    MW423224   4.246   2.568   0.821 -0.0978  0.3414  0.4788
 5865SOL     OW23225   1.043   1.783   6.280 -0.2561 -0.3820  0.8439
 5865SOL    HW223226   1.025   1.719   6.348 -1.0949  2.9836  4.0957
 5865SOL    HW323227   0.959   1.827   6.264  0.0158 -0.6810 -2.1160
 5865SOL    MW423228   1.029   1.781   6.287 -0.3309  0.0226  0.8824
 5866SOL     OW23229   3.475   3.087   0.176 -0.0083 -0.3792 -0.5494
 5866SOL    HW223230   3.488   3.058   0.085 -0.1440 -0.3043 -0.5941
 5866SOL    HW323231   3.404   3.152   0.170  1.4229  1.2452 -0.7030
 5866SOL    MW423232   3.467   3.092   0.163  0.1626 -0.1550 -0.5756
 5867SOL     OW23233   4.130   2.551   4.433  0.0185  0.3766 -0.6093
 5867SOL    HW223234   4.065   2.562   4.363 -0.5298 -2.0963 -0.5596
 5867SOL    HW323235   4.187   2.481   4.403  0.3447 -0.0911  1.0225
 5867SOL    MW423236   4.129   2.543   4.420 -0.0108 -0.0114 -0.3874
 5868SOL     OW23237   5.353   5.829   3.579 -0.4865  0.4975  0.4815
 5868SOL    HW223238   5.427   5.770   3.569 -1.2827 -0.5234  0.3931
 5868SOL    HW323239   5.380   5.910   3.535  0.2279 -0.1707 -0.3444
 5868SOL    MW423240   5.366   5.832   3.572 -0.4973  0.2747  0.3609
 5869SOL     OW23241   6.106   5.503   5.325 -0.7916 -0.7157 -0.3488
 5869SOL    HW223242   6.129   5.411   5.314  0.3583 -0.6181  0.8854
 5869SOL    HW323243   6.032   5.517   5.266  0.8413 -1.6850 -2.7790
 5869SOL    MW423244   6.099   5.493   5.316 -0.4245 -0.8307 -0.5066
 5870SOL     OW23245   0.411   4.316   2.184 -0.2511  0.2356 -0.3292
 5870SOL    HW223246   0.381   4.404   2.162 -1.0097  0.3394  1.0335
 5870SOL    HW323247   0.333   4.272   2.218  0.8408  0.1770  2.3319
 5870SOL    MW423248   0.397   4.322   2.186 -0.2071  0.2415  0.2017
 5871SOL     OW23249   3.859   3.173   1.599  0.4921 -0.3475 -0.1368
 5871SOL    HW223250   3.815   3.111   1.657 -0.4466  0.4169  0.0031
 5871SOL    HW323251   3.941   3.195   1.643 -1.5338  2.6508  2.6237
 5871SOL    MW423252   3.864   3.168   1.612  0.1009  0.1489  0.2459
 5872SOL     OW23253   0.766   2.087   5.894  0.0292  0.2983  0.0874
 5872SOL    HW223254   0.703   2.145   5.939 -0.4088 -0.1069  0.0063
 5872SOL    HW323255   0.711   2.020   5.853  0.6220 -1.1871  1.6101
 5872SOL    MW423256   0.750   2.086   5.894  0.0496  0.0489  0.2776
 5873SOL     OW23257   0.671   4.468   5.714  0.2962 -0.2603  0.2783
 5873SOL    HW223258   0.735   4.410   5.756 -1.5503  0.3403  4.4396
 5873SOL    HW323259   0.703   4.556   5.732 -0.4199  0.0273  0.1634
 5873SOL    MW423260   0.684   4.472   5.722 -0.0419 -0.1431  0.8121
 5874SOL     OW23261   5.526   4.480   2.101 -0.2893 -0.2720 -0.1244
 5874SOL    HW223262   5.617   4.503   2.121 -0.5296 -0.6527  1.5798
 5874SOL    HW323263   5.499   4.545   2.036  1.3921 -0.5704 -1.1724
 5874SOL    MW423264   5.534   4.492   2.095 -0.0991 -0.3616 -0.0378
 5875SOL     OW23265   5.189   0.302   2.842 -0.5397  0.6223 -0.4060
 5875SOL    HW223266   5.107   0.351   2.853 -0.9697  0.3210 -2.0194
 5875SOL    HW323267   5.184   0.267   2.753  0.4806 -1.0431  0.1597
 5875SOL    MW423268   5.177   0.304   2.831 -0.4618  0.3628 -0.5443
 5876SOL     OW23269   5.434   5.218   3.106 -0.1346 -0.1154  0.2470
 5876SOL    HW223270   5.449   5.195   3.198 -0.5332  0.5114  0.4738
 5876SOL    HW323271   5.481   5.300   3.094 -1.4992  0.7293  0.3830
 5876SOL    MW423272   5.442   5.226   3.117 -0.3672  0.0788  0.2949
 5877SOL     OW23273   1.751   4.225   2.906  0.6762 -0.3848  0.4839
 5877SOL    HW223274   1.753   4.301   2.849  1.2421 -0.9722 -0.2912
 5877SOL    HW323275   1.680   4.171   2.872  0.6854 -0.4981  0.6438
 5877SOL    MW423276   1.742   4.228   2.894  0.7521 -0.4773  0.4027
 5878SOL     OW23277   1.563   0.893   0.831 -0.1925 -0.1330 -0.5346
 5878SOL    HW223278   1.606   0.872   0.914  0.7661 -2.0738 -1.4682
 5878SOL    HW323279   1.633   0.926   0.775 -1.0117  2.1837 -0.3338
 5878SOL    MW423280   1.578   0.895   0.835 -0.1741 -0.0834 -0.6313
 5879SOL     OW23281   0.089   1.436   1.509  0.4064  0.3929  0.6276
 5879SOL    HW223282   0.007   1.483   1.525  0.7387  1.6250 -1.0151
 5879SOL    HW323283   0.132   1.486   1.440  1.3660 -1.6562 -0.3521
 5879SOL    MW423284   0.084   1.448   1.502  0.5768  0.2851  0.2816
 5880SOL     OW23285   6.120   2.728   5.138  0.3209 -0.0615  0.2664
 5880SOL    HW223286   6.174   2.785   5.193 -0.2331  0.4798  0.2512
 5880SOL    HW323287   6.042   2.711   5.191 -1.6364  2.8383 -1.3821
 5880SOL    MW423288   6.117   2.733   5.152 -0.0104  0.3925  0.0469
 5881SOL     OW23289   3.751   1.443   3.407 -0.1773 -0.6901  0.2712
 5881SOL    HW223290   3.804   1.485   3.475  0.2879  0.0877 -0.5634
 5881SOL    HW323291   3.694   1.512   3.374  1.3958 -0.3463 -1.9240
 5881SOL    MW423292   3.751   1.457   3.412  0.0917 -0.5421 -0.1285
 5882SOL     OW23293   2.795   3.548   3.284 -0.0234  0.4216  0.0005
 5882SOL    HW223294   2.847   3.560   3.205 -0.4475 -0.8793 -0.4966
 5882SOL    HW323295   2.847   3.589   3.353  0.6392  1.0299 -0.8327
 5882SOL    MW423296   2.808   3.555   3.283  0.0081  0.3302 -0.1750
 5883SOL     OW23297   6.142   0.554   6.381 -0.3032 -0.4514 -0.0110
 5883SOL    HW223298   6.107   0.466   6.393 -0.2453 -0.2717  1.7249
 5883SOL    HW323299   6.197   0.568   6.459 -0.1836  1.0502 -0.3508
 5883SOL    MW423300   6.145   0.544   6.393 -0.2797 -0.2296  0.1732
 5884SOL     OW23301   5.207   0.952   0.399  0.3826 -0.6134  0.1723
 5884SOL    HW223302   5.280   0.933   0.339 -0.0513  0.5011 -0.7459
 5884SOL    HW323303   5.143   0.999   0.345  0.3596  1.2534  1.7139
 5884SOL    MW423304   5.208   0.956   0.384  0.3223 -0.2201  0.2545
 5885SOL     OW23305   1.152   5.382   6.399 -0.3715 -0.4173  0.0394
 5885SOL    HW223306   1.108   5.404   6.317 -2.0187 -1.1788  0.6809
 5885SOL    HW323307   1.090   5.325   6.445  0.9469 -0.8303  1.3684
 5885SOL    MW423308   1.138   5.378   6.394 -0.4149 -0.5723  0.2994
 5886SOL     OW23309   1.936   2.865   1.435 -0.5104 -0.5460  0.2979
 5886SOL    HW223310   1.915   2.888   1.525 -0.2055  1.6202 -0.1259
 5886SOL    HW323311   2.009   2.803   1.442 -1.4015 -1.5094  1.5334
 5886SOL    MW423312   1.943   2.860   1.448 -0.5877 -0.3873  0.4050
 5887SOL     OW23313   4.385   3.124   5.372  0.1782  0.5647 -0.2887
 5887SOL    HW223314   4.407   3.213   5.397  1.0410  0.9666 -2.2645
 5887SOL    HW323315   4.460   3.072   5.400 -0.9585  0.1415  2.2014
 5887SOL    MW423316   4.398   3.129   5.379  0.1421  0.5619 -0.2208
 5888SOL     OW23317   2.277   3.662   3.777 -0.0178  0.1890 -0.1437
 5888SOL    HW223318   2.210   3.692   3.838 -2.0129  0.4876 -2.3532
 5888SOL    HW323319   2.307   3.742   3.733 -0.3796 -0.2480 -1.2285
 5888SOL    MW423320   2.272   3.677   3.779 -0.3287  0.1707 -0.5783
 5889SOL     OW23321   0.193   1.026   1.948  0.3694  0.1425 -0.1413
 5889SOL    HW223322   0.276   1.073   1.956  1.3296 -1.7246  1.7789
 5889SOL    HW323323   0.193   0.993   1.858  0.7109  1.8618 -0.8114
 5889SOL    MW423324   0.204   1.028   1.937  0.5412  0.1230  0.0236
 5890SOL     OW23325   5.187   2.596   3.615 -0.3505 -0.1557 -0.0952
 5890SOL    HW223326   5.229   2.514   3.640 -0.5492 -0.8799 -1.9714
 5890SOL    HW323327   5.183   2.593   3.519  0.5617  2.5279 -0.2873
 5890SOL    MW423328   5.192   2.585   3.605 -0.2564  0.1028 -0.3681
 5891SOL     OW23329   1.750   5.544   2.698 -0.6517  0.0654 -0.1642
 5891SOL    HW223330   1.734   5.478   2.765 -0.0928 -0.6750 -0.7363
 5891SOL    HW323331   1.769   5.493   2.619  0.8481  0.8911 -0.3673
 5891SOL    MW423332   1.750   5.528   2.696 -0.3800  0.0767 -0.2665
 5892SOL     OW23333   3.767   1.778   5.837  0.4200 -0.7369  0.4979
 5892SOL    HW223334   3.859   1.756   5.854  1.2209  2.2632  0.6094
 5892SOL    HW323335   3.759   1.871   5.861 -2.9665 -1.1718  1.6373
 5892SOL    MW423336   3.778   1.788   5.842  0.0789 -0.3985  0.6629
 5893SOL     OW23337   0.087   4.046   4.672 -0.6171 -0.1387  0.2212
 5893SOL    HW223338   0.015   4.097   4.633  0.0393  0.2279 -0.5546
 5893SOL    HW323339   0.105   3.977   4.607 -0.0739 -0.0438  0.2677
 5893SOL    MW423340   0.080   4.044   4.658 -0.4588 -0.0778  0.1250
 5894SOL     OW23341   1.637   4.136   0.897  0.1574  0.4996 -0.2828
 5894SOL    HW223342   1.632   4.199   0.825  0.1669 -0.2840 -0.9825
 5894SOL    HW323343   1.546   4.119   0.920  0.1620  1.2579  0.3666
 5894SOL    MW423344   1.624   4.142   0.890  0.1593  0.4963 -0.2894
 5895SOL     OW23345   5.307   4.121   3.145  0.1067 -0.0350  0.2131
 5895SOL    HW223346   5.328   4.197   3.090  0.5659  0.5089  1.1190
 5895SOL    HW323347   5.390   4.076   3.159 -0.1205 -0.5614 -0.0991
 5895SOL    MW423348   5.320   4.125   3.140  0.1373 -0.0327  0.2914
 5896SOL     OW23349   3.011   5.699   0.285  0.5927 -0.6515  0.2684
 5896SOL    HW223350   2.919   5.675   0.292  0.7395 -1.8965 -1.5655
 5896SOL    HW323351   3.057   5.617   0.270  1.9270  0.0393  0.3754
 5896SOL    MW423352   3.005   5.685   0.284  0.7881 -0.7247  0.0405
 5897SOL     OW23353   4.528   4.413   3.915  0.0324  0.0175  0.2590
 5897SOL    HW223354   4.511   4.323   3.887  0.8630  0.6476 -2.6593
 5897SOL    HW323355   4.480   4.467   3.852  1.3385  1.6393  0.5712
 5897SOL    MW423356   4.519   4.408   3.903  0.3143  0.3146 -0.0849
 5898SOL     OW23357   4.818   4.439   4.658  0.7242  0.1112 -0.0982
 5898SOL    HW223358   4.858   4.358   4.689  0.4890  0.1186  0.2250
 5898SOL    HW323359   4.725   4.420   4.653  1.0015 -0.9003 -3.8003
 5898SOL    MW423360   4.811   4.426   4.662  0.7297 -0.0213 -0.5440
 5899SOL     OW23361   2.602   1.793   5.385 -0.1877  0.7879 -0.0222
 5899SOL    HW223362   2.522   1.793   5.331  0.2066 -1.3891 -0.7485
 5899SOL    HW323363   2.590   1.719   5.444  1.8458 -0.5417 -1.1343
 5899SOL    MW423364   2.590   1.783   5.385  0.1326  0.3252 -0.2648
 5900SOL     OW23365   5.627   2.788   0.404 -0.0489  0.3906 -0.1098
 5900SOL    HW223366   5.664   2.701   0.417 -1.1630 -0.3942 -1.8878
 5900SOL    HW323367   5.556   2.794   0.468 -0.6245 -0.4143 -0.6633
 5900SOL    MW423368   5.623   2.778   0.414 -0.2719  0.1809 -0.4174
 5901SOL     OW23369   6.071   4.879   4.864 -0.0889  0.2391  0.6528
 5901SOL    HW223370   5.990   4.929   4.857 -1.9581 -2.3015  2.6122
 5901SOL    HW323371   6.070   4.820   4.788  0.5928  0.9967  0.0267
 5901SOL    MW423372   6.060   4.878   4.853 -0.2456  0.0039  0.8287
 5902SOL     OW23373   1.198   5.268   0.286 -0.4633 -0.1012  0.4029
 5902SOL    HW223374   1.221   5.206   0.355 -2.1451 -0.1423  0.9763
 5902SOL    HW323375   1.253   5.344   0.303  1.7688 -1.4384 -0.4211
 5902SOL    MW423376   1.208   5.270   0.297 -0.3907 -0.2830  0.3699
 5903SOL     OW23377   4.017   2.525   4.692 -0.1144  0.0405 -0.5529
 5903SOL    HW223378   4.056   2.543   4.607  0.3044 -0.5336 -0.4891
 5903SOL    HW323379   4.043   2.599   4.747 -0.8271  0.6807 -1.0561
 5903SOL    MW423380   4.026   2.537   4.688 -0.1531  0.0492 -0.6109
 5904SOL     OW23381   3.926   3.226   2.660 -0.2256 -0.0740 -0.2468
 5904SOL    HW223382   3.887   3.170   2.727  1.7238  0.3513  1.3290
 5904SOL    HW323383   3.851   3.267   2.617 -1.6025 -1.8589  0.3184
 5904SOL    MW423384   3.911   3.224   2.663 -0.1500 -0.2534  0.0357
 5905SOL     OW23385   4.888   1.554   4.339  0.2950  0.2166  0.0745
 5905SOL    HW223386   4.968   1.505   4.321 -0.2655 -0.6921  0.0219
 5905SOL    HW323387   4.883   1.556   4.435  0.1880 -0.0405  0.0741
 5905SOL    MW423388   4.898   1.548   4.349  0.2069  0.0628  0.0675
 5906SOL     OW23389   4.545   1.051   0.779 -0.2334 -0.1438  0.1621
 5906SOL    HW223390   4.585   1.136   0.766 -1.6796  0.3705 -1.2830
 5906SOL    HW323391   4.472   1.067   0.839 -0.7477 -0.2780 -0.4197
 5906SOL    MW423392   4.541   1.064   0.785 -0.4921 -0.0937 -0.1053
 5907SOL     OW23393   3.419   5.911   3.639  0.2584 -0.9015  1.0447
 5907SOL    HW223394   3.429   5.879   3.549 -0.6030  0.5956  0.3766
 5907SOL    HW323395   3.508   5.916   3.673  0.5770 -1.7830  0.3982
 5907SOL    MW423396   3.432   5.907   3.632  0.1868 -0.8203  0.8712
 5908SOL     OW23397   6.160   0.490   5.808  0.0714 -0.0746  0.4613
 5908SOL    HW223398   6.250   0.504   5.836  0.0003 -1.4609  1.4610
 5908SOL    HW323399   6.112   0.472   5.889 -1.4327  2.1106  0.1484
 5908SOL    MW423400   6.166   0.490   5.822 -0.1364  0.0308  0.5519
 5909SOL     OW23401   0.441   0.508   0.769 -0.1700  0.4664  0.2589
 5909SOL    HW223402   0.389   0.468   0.699  2.0475 -0.5757 -0.8769
 5909SOL    HW323403   0.384   0.577   0.804 -1.6085  0.6451 -2.1766
 5909SOL    MW423404   0.426   0.512   0.764 -0.0672  0.3525 -0.2123
 5910SOL     OW23405   6.317   2.145   5.616  0.3213 -0.0218 -0.4942
 5910SOL    HW223406   6.335   2.113   5.705 -1.2015 -0.3935 -0.2832
 5910SOL    HW323407   6.231   2.109   5.595  0.6049  0.1599 -2.0888
 5910SOL    MW423408   6.308   2.136   5.625  0.1578 -0.0469 -0.6768
 5911SOL     OW23409   5.763   2.210   4.372  0.1235  0.0846 -0.6639
 5911SOL    HW223410   5.850   2.214   4.332  0.9579  1.0797  1.1342
 5911SOL    HW323411   5.738   2.301   4.383 -2.1456 -0.1439 -3.0749
 5911SOL    MW423412   5.771   2.222   4.368 -0.0657  0.1858 -0.7447
 5912SOL     OW23413   2.825   2.089   3.287  0.6403  0.0538 -0.4534
 5912SOL    HW223414   2.781   2.172   3.273 -0.3683 -0.3998 -0.0815
 5912SOL    HW323415   2.780   2.050   3.362  0.2433 -1.3677 -1.3726
 5912SOL    MW423416   2.813   2.094   3.295  0.4548 -0.1936 -0.5256
 5913SOL     OW23417   0.640   2.578   2.712 -0.0818  0.0553 -0.0549
 5913SOL    HW223418   0.550   2.552   2.729  0.3005 -0.7470  0.7970
 5913SOL    HW323419   0.633   2.646   2.644 -1.2799 -0.3558 -0.3612
 5913SOL    MW423420   0.628   2.584   2.705 -0.1895 -0.1048  0.0171
 5914SOL     OW23421   1.799   5.044   0.703 -0.5182 -0.4310  0.6591
 5914SOL    HW223422   1.874   5.072   0.756  0.6239 -1.2754 -0.4360
 5914SOL    HW323423   1.727   5.100   0.732  0.9103  1.5406  0.6436
 5914SOL    MW423424   1.800   5.055   0.714 -0.1791 -0.2823  0.5126
 5915SOL     OW23425   3.690   3.559   5.840  0.2529 -1.1081  0.1795
 5915SOL    HW223426   3.603   3.592   5.815  1.4340  1.6521 -0.6735
 5915SOL    HW323427   3.694   3.570   5.934  0.3856  0.7634 -0.0158
 5915SOL    MW423428   3.679   3.565   5.849  0.4263 -0.4970  0.0412
 5916SOL     OW23429   2.321   4.776   1.193  0.0666  0.4445  0.0450
 5916SOL    HW223430   2.237   4.818   1.211  0.3024  0.4911  1.1223
 5916SOL    HW323431   2.353   4.747   1.279  1.1196  0.3583 -0.3500
 5916SOL    MW423432   2.314   4.778   1.207  0.2366  0.4393  0.1350
 5917SOL     OW23433   4.898   5.564   1.162  0.3980  0.0396  0.4814
 5917SOL    HW223434   4.839   5.512   1.108  1.6778 -1.4220  0.4052
 5917SOL    HW323435   4.896   5.522   1.248  0.4853  0.6471  0.7841
 5917SOL    MW423436   4.890   5.552   1.166  0.5784 -0.0731  0.5113
 5918SOL     OW23437   2.436   5.521   3.814  0.6691  0.3747 -0.1007
 5918SOL    HW223438   2.487   5.441   3.795  1.6063  1.0484 -0.4991
 5918SOL    HW323439   2.350   5.504   3.774  1.1899 -0.0279 -1.0910
 5918SOL    MW423440   2.431   5.508   3.806  0.8615  0.4105 -0.2839
 5919SOL     OW23441   2.757   4.387   3.115 -0.2375 -0.1215  0.0017
 5919SOL    HW223442   2.830   4.351   3.064 -0.5220 -0.6099 -0.0618
 5919SOL    HW323443   2.785   4.476   3.136 -0.4286  0.3660 -1.6465
 5919SOL    MW423444   2.771   4.394   3.111 -0.3003 -0.1216 -0.2241
 5920SOL     OW23445   1.104   6.408   4.750 -0.3536 -0.0665  0.2841
 5920SOL    HW223446   1.090   6.476   4.816 -0.3565 -0.3287  0.5560
 5920SOL    HW323447   1.180   6.438   4.701 -1.2720  0.9030 -0.6006
 5920SOL    MW423448   1.112   6.421   4.753 -0.4751  0.0268  0.2032
 5921SOL     OW23449   2.793   5.955   3.368  0.7505  0.0368 -0.0375
 5921SOL    HW223450   2.789   5.890   3.438 -0.3457  1.4866  1.3420
 5921SOL    HW323451   2.761   5.910   3.290  0.6449 -1.2450  0.7251
 5921SOL    MW423452   2.788   5.941   3.367  0.5919  0.0590  0.2451
 5922SOL     OW23453   0.203   5.244   3.724  0.4376 -0.0410 -0.2992
 5922SOL    HW223454   0.222   5.326   3.770  0.8447 -0.8683  1.0554
 5922SOL    HW323455   0.280   5.189   3.741 -1.4896 -2.2079  2.3280
 5922SOL    MW423456   0.216   5.248   3.732  0.2370 -0.4361  0.2262
 5923SOL     OW23457   5.408   0.082   0.675  0.0348 -0.6907  0.1544
 5923SOL    HW223458   5.384   0.171   0.701  0.9669 -0.9764  2.2104
 5923SOL    HW323459   5.484   0.093   0.618 -0.9027 -0.1174 -1.0225
 5923SOL    MW423460   5.415   0.095   0.671  0.0341 -0.6528  0.2704
 5924SOL     OW23461   5.983   3.404   4.231  0.1964 -1.0888  0.1628
 5924SOL    HW223462   6.004   3.313   4.253 -0.7579 -1.0305  1.3850
 5924SOL    HW323463   6.029   3.456   4.296 -0.5912 -0.7810  0.4822
 5924SOL    MW423464   5.992   3.398   4.242 -0.0334 -1.0405  0.3662
 5925SOL     OW23465   0.347   4.202   0.825  0.0431 -0.2234 -0.4708
 5925SOL    HW223466   0.282   4.262   0.861  2.0129  0.7678  1.7045
 5925SOL    HW323467   0.337   4.122   0.877  0.7812  0.0754  0.1509
 5925SOL    MW423468   0.337   4.199   0.836  0.4004 -0.0532 -0.1017
 5926SOL     OW23469   2.259   4.092   1.206 -1.1286 -0.2631  0.3465
 5926SOL    HW223470   2.323   4.163   1.202 -1.3378 -0.1054 -0.3025
 5926SOL    HW323471   2.274   4.042   1.125 -2.0004 -0.0746  0.0676
 5926SOL    MW423472   2.270   4.094   1.195 -1.2712 -0.2174  0.2240
 5927SOL     OW23473   4.535   5.149   5.265  0.0475 -0.1252  0.1379
 5927SOL    HW223474   4.515   5.085   5.197  0.9081 -0.8685  0.5625
 5927SOL    HW323475   4.455   5.156   5.317 -1.0258  1.3101 -1.5821
 5927SOL    MW423476   4.522   5.142   5.263  0.0194 -0.0339 -0.0330
 5928SOL     OW23477   1.395   1.920   4.057 -0.6252 -0.6376 -0.3474
 5928SOL    HW223478   1.406   1.968   4.139 -2.1840 -1.8233  0.6182
 5928SOL    HW323479   1.302   1.929   4.036 -0.1891 -0.0468 -2.2237
 5928SOL    MW423480   1.384   1.927   4.065 -0.7733 -0.7161 -0.4675
 5929SOL     OW23481   5.281   3.570   4.386  0.7267  0.7104 -0.0696
 5929SOL    HW223482   5.349   3.504   4.399  1.4050  0.9307 -2.0797
 5929SOL    HW323483   5.317   3.650   4.423  1.2224  0.6298 -0.3682
 5929SOL    MW423484   5.294   3.572   4.392  0.8816  0.7288 -0.3742
 5930SOL     OW23485   3.827   0.553   2.628  0.2254 -0.2551  0.4440
 5930SOL    HW223486   3.802   0.619   2.693 -2.6382  1.6818 -2.3153
 5930SOL    HW323487   3.772   0.477   2.649 -2.3264  1.1138 -0.7625
 5930SOL    MW423488   3.816   0.552   2.639 -0.4891  0.1810 -0.0792
 5931SOL     OW23489   5.087   4.811   5.436 -0.1101 -0.2538 -0.6787
 5931SOL    HW223490   5.103   4.728   5.390  1.3794  0.0490 -0.7602
 5931SOL    HW323491   5.070   4.786   5.526 -0.0206 -0.6739 -0.7771
 5931SOL    MW423492   5.087   4.797   5.442  0.0982 -0.2693 -0.7024
 5932SOL     OW23493   4.871   2.938   5.133 -0.3396 -0.0474  0.3974
 5932SOL    HW223494   4.872   2.914   5.225 -1.8480 -0.8287  0.2462
 5932SOL    HW323495   4.839   2.860   5.088  1.7438 -0.1797 -0.9845
 5932SOL    MW423496   4.867   2.925   5.139 -0.2638 -0.1679  0.1951
 5933SOL     OW23497   2.213   3.979   0.968 -0.5256 -0.4827  0.4039
 5933SOL    HW223498   2.217   3.884   0.958 -0.5259 -0.3070 -1.9604
 5933SOL    HW323499   2.120   3.998   0.983 -0.7935 -0.7916 -0.7308
 5933SOL    MW423500   2.201   3.969   0.968 -0.5610 -0.5003 -0.0577
 5934SOL     OW23501   4.132   1.302   2.220  0.5760 -0.2406  0.4882
 5934SOL    HW223502   4.158   1.327   2.309  1.4042  0.2429  0.1258
 5934SOL    HW323503   4.037   1.287   2.226  0.7643 -1.1183  1.6404
 5934SOL    MW423504   4.123   1.304   2.233  0.7101 -0.2926  0.5924
 5935SOL     OW23505   2.282   6.288   2.704 -0.5428  0.2220 -0.0462
 5935SOL    HW223506   2.197   6.253   2.729 -0.6349  0.2382 -0.3362
 5935SOL    HW323507   2.345   6.225   2.739 -0.7014 -0.1556 -0.4311
 5935SOL    MW423508   2.279   6.276   2.712 -0.5759  0.1743 -0.1352
 5936SOL     OW23509   3.161   4.924   2.336  0.0959 -0.5925  0.5286
 5936SOL    HW223510   3.234   4.986   2.331 -0.3683 -0.0083  0.7674
 5936SOL    HW323511   3.094   4.970   2.387 -1.4250 -0.0775 -1.7569
 5936SOL    MW423512   3.162   4.939   2.342 -0.1660 -0.4475  0.2586
 5937SOL     OW23513   5.167   0.886   5.204 -0.7338 -0.0483  0.2966
 5937SOL    HW223514   5.160   0.815   5.268 -1.0985  0.7945  1.2082
 5937SOL    HW323515   5.257   0.883   5.174 -0.7210 -0.8379  0.4012
 5937SOL    MW423516   5.178   0.876   5.208 -0.7802 -0.0413  0.4307
 5938SOL     OW23517   2.267   3.859   1.654  0.2472  0.3886 -0.2824
 5938SOL    HW223518   2.304   3.857   1.566  0.9237 -1.0668  0.0036
 5938SOL    HW323519   2.226   3.773   1.665 -1.1172  1.0737  0.3177
 5938SOL    MW423520   2.266   3.847   1.644  0.1564  0.2870 -0.1655
 5939SOL     OW23521   1.279   1.776   5.061 -0.4773 -0.2897  0.2572
 5939SOL    HW223522   1.344   1.736   5.119  0.0913  2.6398  1.8548
 5939SOL    HW323523   1.195   1.741   5.091 -0.0590  0.0410  1.9499
 5939SOL    MW423524   1.276   1.766   5.073 -0.3471  0.1404  0.6913
 5940SOL     OW23525   3.563   3.656   6.278 -0.6668  0.1327 -0.0195
 5940SOL    HW223526   3.485   3.639   6.225 -1.8672 -1.0670  1.9764
 5940SOL    HW323527   3.604   3.732   6.237 -2.1775  0.0167 -1.8920
 5940SOL    MW423528   3.558   3.664   6.266 -1.0245 -0.0409 -0.0032
 5941SOL     OW23529   5.021   2.938   1.732 -0.7741  0.1084  0.1015
 5941SOL    HW223530   4.959   2.982   1.673 -0.6633  1.3136  0.8527
 5941SOL    HW323531   5.058   2.867   1.679 -3.2957 -1.1268 -0.1655
 5941SOL    MW423532   5.017   2.934   1.717 -1.0922  0.1044  0.1654
 5942SOL     OW23533   3.490   6.082   1.093  0.5167  0.0532 -0.5846
 5942SOL    HW223534   3.480   5.990   1.115 -1.1659  0.2753 -0.2807
 5942SOL    HW323535   3.570   6.086   1.040  1.3692 -1.3621  0.5223
 5942SOL    MW423536   3.499   6.071   1.089  0.4072 -0.1042 -0.3984
 5943SOL     OW23537   4.501   1.385   3.825 -0.0310 -0.5130 -0.0990
 5943SOL    HW223538   4.542   1.344   3.750 -1.3948 -0.1759 -1.0726
 5943SOL    HW323539   4.459   1.464   3.790 -6.1493 -3.3971 -0.5260
 5943SOL    MW423540   4.501   1.390   3.811 -1.0182 -0.8490 -0.2838
 5944SOL     OW23541   1.675   5.289   6.484  0.5260  0.4546  0.4169
 5944SOL    HW223542   1.700   5.200   6.458  0.2610 -0.0578  1.8119
 5944SOL    HW323543   1.580   5.287   6.489  0.5753  0.3134  1.9934
 5944SOL    MW423544   1.666   5.277   6.482  0.4976  0.3684  0.8090
 5945SOL     OW23545   2.743   2.938   0.736  0.0393 -0.0245  0.3115
 5945SOL    HW223546   2.772   2.900   0.818  1.5050  1.3090  0.4460
 5945SOL    HW323547   2.683   3.008   0.762 -0.2891 -0.2599  0.1949
 5945SOL    MW423548   2.739   2.942   0.750  0.1893  0.1204  0.3138
 5946SOL     OW23549   5.740   2.262   6.309 -0.1062 -0.2416  0.6632
 5946SOL    HW223550   5.745   2.294   6.399 -2.5045 -1.3880  1.2783
 5946SOL    HW323551   5.775   2.173   6.314 -1.6547 -0.8607  0.8101
 5946SOL    MW423552   5.745   2.254   6.322 -0.6270 -0.4746  0.7638
 5947SOL     OW23553   0.969   0.808   4.277  0.3424 -0.1542  0.4178
 5947SOL    HW223554   0.924   0.737   4.232 -1.6283  1.6565 -0.6494
 5947SOL    HW323555   1.033   0.839   4.214 -1.1689  1.1872 -0.5421
 5947SOL    MW423556   0.971   0.803   4.263 -0.1170  0.2617  0.1503
 5948SOL     OW23557   2.754   4.012   1.061  0.4347 -0.0587 -0.7537
 5948SOL    HW223558   2.761   3.959   0.982 -0.9446 -2.4816  0.6352
 5948SOL    HW323559   2.674   4.063   1.049  0.8300  0.4189 -1.3775
 5948SOL    MW423560   2.745   4.012   1.049  0.3049 -0.3154 -0.6528
 5949SOL     OW23561   0.168   5.614   3.591 -0.7344  0.4009  0.2680
 5949SOL    HW223562   0.117   5.677   3.641  1.5391  2.0977  0.6310
 5949SOL    HW323563   0.233   5.580   3.653 -2.1206 -2.6893  0.1829
 5949SOL    MW423564   0.170   5.618   3.605 -0.6174  0.2170  0.3046
 5950SOL     OW23565   4.942   2.749   2.220 -0.1253  0.4733 -0.8560
 5950SOL    HW223566   4.881   2.789   2.282 -0.1269  0.8301 -1.0853
 5950SOL    HW323567   4.935   2.804   2.141  1.7308  1.5632 -0.3255
 5950SOL    MW423568   4.933   2.762   2.218  0.1193  0.6642 -0.8163
 5951SOL     OW23569   5.669   1.502   3.970 -0.4807  0.7324 -0.0514
 5951SOL    HW223570   5.621   1.420   3.984 -2.0231  1.4908 -0.6829
 5951SOL    HW323571   5.658   1.551   4.051  1.9735 -0.3611  1.0412
 5951SOL    MW423572   5.661   1.498   3.982 -0.3604  0.6882  0.0094
 5952SOL     OW23573   3.469   4.772   4.214 -0.1467  0.1186  0.2634
 5952SOL    HW223574   3.399   4.708   4.227  0.4918 -0.7966 -0.6347
 5952SOL    HW323575   3.535   4.748   4.279  1.0655 -1.6072 -1.4694
 5952SOL    MW423576   3.468   4.760   4.224  0.0975 -0.2298 -0.0837
 5953SOL     OW23577   4.971   2.503   1.270 -0.3356 -1.0245  0.1572
 5953SOL    HW223578   4.884   2.527   1.239  0.2683  0.3167 -0.5508
 5953SOL    HW323579   5.013   2.462   1.195 -0.2757 -1.5152  0.4478
 5953SOL    MW423580   4.965   2.501   1.256 -0.2480 -0.9123  0.1021
 5954SOL     OW23581   1.147   6.387   3.133 -0.2686 -0.0783  0.0468
 5954SOL    HW223582   1.219   6.325   3.144  0.6767  0.7948 -1.0545
 5954SOL    HW323583   1.129   6.388   3.039 -0.5135  1.0248  0.0835
 5954SOL    MW423584   1.154   6.379   3.122 -0.1762  0.1824 -0.0936
 5955SOL     OW23585   1.132   0.559   1.354  0.2801  0.1091 -0.0797
 5955SOL    HW223586   1.067   0.551   1.424 -0.5934 -0.9953 -0.9676
 5955SOL    HW323587   1.080   0.553   1.273  1.4081  0.0044 -0.8152
 5955SOL    MW423588   1.117   0.557   1.352  0.3137 -0.0504 -0.2939
 5956SOL     OW23589   5.265   6.398   4.200  0.1732 -0.1772 -0.0080
 5956SOL    HW223590   5.275   6.310   4.234  0.0229  1.2956  4.4455
 5956SOL    HW323591   5.354   6.429   4.185  0.2656 -0.6934 -0.5557
 5956SOL    MW423592   5.278   6.391   4.202  0.1656 -0.0510  0.5073
 5957SOL     OW23593   3.905   3.805   0.992  0.3811 -0.2790 -0.0512
 5957SOL    HW223594   3.886   3.863   0.918  1.3312  0.8163  0.5245
 5957SOL    HW323595   3.829   3.747   0.997 -0.8201  1.1881 -0.4154
 5957SOL    MW423596   3.892   3.805   0.983  0.3480  0.0591 -0.0233
 5958SOL     OW23597   5.700   0.224   6.231  0.0089 -0.1081  0.2898
 5958SOL    HW223598   5.696   0.260   6.143 -0.0308 -0.2930  0.2151
 5958SOL    HW323599   5.748   0.142   6.221 -1.0065 -0.7125  0.2416
 5958SOL    MW423600   5.706   0.218   6.218 -0.1303 -0.2122  0.2736
 5959SOL     OW23601   0.194   4.351   5.210 -0.8035  0.0733 -0.2727
 5959SOL    HW223602   0.205   4.343   5.304 -0.6687 -1.1233 -0.3776
 5959SOL    HW323603   0.156   4.438   5.197  2.0854  1.5953  0.6522
 5959SOL    MW423604   0.191   4.361   5.220 -0.4045  0.1162 -0.1645
 5960SOL     OW23605   5.379   2.082   0.853  0.0817  0.1511  0.0719
 5960SOL    HW223606   5.307   2.026   0.823  3.4782 -4.3387 -0.8328
 5960SOL    HW323607   5.378   2.156   0.792 -0.9474 -2.2423 -3.1578
 5960SOL    MW423608   5.370   2.084   0.841  0.3940 -0.7571 -0.4736
 5961SOL     OW23609   3.511   0.611   3.556 -0.1949  0.2513  0.0549
 5961SOL    HW223610   3.598   0.643   3.535  0.8450 -1.5541  1.3643
 5961SOL    HW323611   3.473   0.588   3.471  0.2495  1.7760 -0.6026
 5961SOL    MW423612   3.517   0.612   3.542  0.0009  0.2142  0.1409
 5962SOL     OW23613   2.575   0.897   5.329  0.0216 -0.0243  0.1101
 5962SOL    HW223614   2.619   0.816   5.300 -1.5769 -0.3468 -1.6563
 5962SOL    HW323615   2.607   0.964   5.268  1.1844  0.6788  1.4434
 5962SOL    MW423616   2.585   0.895   5.317 -0.0359  0.0259  0.0529
 5963SOL     OW23617   1.453   5.665   3.362  0.0473 -0.2214  0.3550
 5963SOL    HW223618   1.413   5.752   3.364 -2.0882 -1.0513 -1.5613
 5963SOL    HW323619   1.545   5.681   3.344 -0.0459  1.6859  1.3880
 5963SOL    MW423620   1.460   5.679   3.360 -0.2467 -0.0793  0.2385
 5964SOL     OW23621   5.795   0.251   3.571 -0.1893  0.2339 -0.4328
 5964SOL    HW223622   5.798   0.171   3.623 -0.3016 -0.6785 -1.7768
 5964SOL    HW323623   5.885   0.260   3.537 -0.4173  0.1174 -1.0813
 5964SOL    MW423624   5.808   0.242   3.573 -0.2342  0.0982 -0.6957
 5965SOL     OW23625   2.110   2.972   0.706  0.1011  0.2188  0.1662
 5965SOL    HW223626   2.056   2.973   0.785 -0.8426 -1.0988 -0.4327
 5965SOL    HW323627   2.114   2.880   0.681  1.5118  0.4496 -0.5892
 5965SOL    MW423628   2.104   2.960   0.713  0.1627  0.0754 -0.0125
 5966SOL     OW23629   1.036   3.226   5.165  0.5752 -0.0058  0.1862
 5966SOL    HW223630   1.108   3.167   5.190  1.0855  0.5885  0.1415
 5966SOL    HW323631   1.033   3.291   5.234  0.9644  0.7423 -0.4880
 5966SOL    MW423632   1.045   3.227   5.177  0.6939  0.1713  0.0913
 5967SOL     OW23633   3.522   0.223   5.519  0.1352  0.0700 -0.2036
 5967SOL    HW223634   3.432   0.253   5.530 -0.2327 -1.1179  0.1760
 5967SOL    HW323635   3.570   0.263   5.591 -0.2580  0.0346  0.0777
 5967SOL    MW423636   3.516   0.232   5.530  0.0348 -0.0914 -0.1164
 5968SOL     OW23637   5.802   4.277   5.822  0.2021  0.2616 -0.7340
 5968SOL    HW223638   5.828   4.194   5.783 -2.0316 -0.9777  0.2205
 5968SOL    HW323639   5.756   4.252   5.903 -2.3177  2.2601 -1.4327
 5968SOL    MW423640   5.800   4.263   5.828 -0.4250  0.3618 -0.7003
 5969SOL     OW23641   2.678   1.275   2.405  0.1952  0.7744 -0.3514
 5969SOL    HW223642   2.632   1.358   2.396 -0.9750  0.0318 -1.6599
 5969SOL    HW323643   2.715   1.258   2.319 -0.6672 -0.6302 -0.4958
 5969SOL    MW423644   2.677   1.284   2.393 -0.0730  0.4911 -0.5431
 5970SOL     OW23645   2.293   3.392   1.364 -0.0162  0.3571 -0.0826
 5970SOL    HW223646   2.242   3.336   1.423 -0.1717  0.2099 -0.3587
 5970SOL    HW323647   2.364   3.425   1.419 -0.4498  0.6252  0.3297
 5970SOL    MW423648   2.296   3.389   1.379 -0.0939  0.3730 -0.0646
 5971SOL     OW23649   3.099   4.471   5.878 -0.2708 -0.2879 -0.1175
 5971SOL    HW223650   3.144   4.551   5.903  0.5322 -1.3758  2.0958
 5971SOL    HW323651   3.155   4.432   5.811 -0.9281  1.1608 -1.6195
 5971SOL    MW423652   3.112   4.477   5.872 -0.2516 -0.2403 -0.0236
 5972SOL     OW23653   3.262   0.691   0.360 -0.2665  0.2101 -0.5126
 5972SOL    HW223654   3.227   0.648   0.283  0.6821  0.2910 -0.9994
 5972SOL    HW323655   3.187   0.701   0.419 -0.8264 -0.5706 -1.0901
 5972SOL    MW423656   3.248   0.687   0.358 -0.2152  0.1178 -0.6530
 5973SOL     OW23657   6.408   2.399   4.246 -0.3253 -0.4573 -0.0243
 5973SOL    HW223658   6.380   2.308   4.248  0.1173 -0.5842  0.6423
 5973SOL    HW323659   6.487   2.399   4.192  0.3308 -0.6710  0.9036
 5973SOL    MW423660   6.415   2.387   4.239 -0.1803 -0.5023  0.1861
 5974SOL     OW23661   1.063   2.355   1.538 -0.1305 -0.3940  0.2809
 5974SOL    HW223662   0.989   2.408   1.509  1.3018  1.1301 -0.8192
 5974SOL    HW323663   1.035   2.264   1.525 -1.8166  0.1469 -0.0210
 5974SOL    MW423664   1.050   2.350   1.532 -0.1639 -0.1215  0.0959
 5975SOL     OW23665   6.316   5.433   0.488 -0.1036  0.2079 -0.6018
 5975SOL    HW223666   6.229   5.418   0.526 -0.1376 -0.2765 -0.8705
 5975SOL    HW323667   6.366   5.354   0.511  0.4357  0.7090  0.0193
 5975SOL    MW423668   6.311   5.421   0.496 -0.0370  0.2101 -0.5553
 5976SOL     OW23669   1.344   5.590   4.965  0.2761 -0.7013 -0.1877
 5976SOL    HW223670   1.420   5.546   5.003 -0.0118 -2.6103 -1.6782
 5976SOL    HW323671   1.278   5.588   5.034  0.1233 -3.1013 -0.3410
 5976SOL    MW423672   1.345   5.584   4.979  0.2180 -1.2699 -0.4046
 5977SOL     OW23673   4.465   3.914   2.768 -0.2430 -0.1165 -0.4483
 5977SOL    HW223674   4.493   3.984   2.826  1.7516 -1.4147  0.2776
 5977SOL    HW323675   4.370   3.924   2.761 -0.7988 -0.5387  3.9369
 5977SOL    MW423676   4.456   3.924   2.774 -0.0532 -0.3435  0.2260
 5978SOL     OW23677   4.013   3.359   2.402  0.4090 -0.3607  0.0261
 5978SOL    HW223678   3.997   3.284   2.346 -3.1800  0.3907 -0.1977
 5978SOL    HW323679   4.012   3.324   2.491 -2.4700 -0.5469 -0.0024
 5978SOL    MW423680   4.011   3.345   2.406 -0.4444 -0.2861 -0.0072
 5979SOL     OW23681   2.661   5.768   5.836  0.3042 -0.4406 -0.9015
 5979SOL    HW223682   2.740   5.803   5.878 -0.8205  1.0266  0.1244
 5979SOL    HW323683   2.633   5.837   5.777 -1.0740 -0.2278 -0.0482
 5979SOL    MW423684   2.668   5.782   5.834 -0.0261 -0.2189 -0.6536
 5980SOL     OW23685   5.915   5.083   3.355 -0.0582 -0.1506 -0.2410
 5980SOL    HW223686   6.000   5.086   3.312  0.3510 -1.2921  0.4305
 5980SOL    HW323687   5.874   5.167   3.334  1.2164  0.4057 -0.5975
 5980SOL    MW423688   5.921   5.094   3.347  0.1640 -0.2278 -0.1995
 5981SOL     OW23689   3.918   2.932   0.395 -0.1423 -0.2492 -0.4170
 5981SOL    HW223690   3.975   3.009   0.397 -0.0911 -0.2976  0.0808
 5981SOL    HW323691   3.845   2.955   0.452 -1.9918  0.8410 -2.9859
 5981SOL    MW423692   3.916   2.945   0.403 -0.3796 -0.1118 -0.6903
 5982SOL     OW23693   2.220   3.177   2.511  0.0851 -0.2233 -0.1436
 5982SOL    HW223694   2.157   3.114   2.475 -0.6639  0.3881  0.0684
 5982SOL    HW323695   2.303   3.153   2.470 -0.2851 -1.0220 -0.4663
 5982SOL    MW423696   2.222   3.165   2.501 -0.0626 -0.2480 -0.1582
 5983SOL     OW23697   4.057   4.941   0.475  0.5788 -0.5421 -0.2302
 5983SOL    HW223698   4.116   5.006   0.514  0.2901 -0.5412  0.2101
 5983SOL    HW323699   4.085   4.857   0.513  0.5389 -0.5925 -0.3105
 5983SOL    MW423700   4.069   4.938   0.485  0.5354 -0.5487 -0.1827
 5984SOL     OW23701   6.215   0.441   3.913  0.3958 -0.3582 -0.2966
 5984SOL    HW223702   6.137   0.386   3.924 -0.1834 -0.1162 -2.6939
 5984SOL    HW323703   6.184   0.517   3.865  1.9123  0.3112 -0.2603
 5984SOL    MW423704   6.201   0.443   3.908  0.5195 -0.2379 -0.6081
 5985SOL     OW23705   5.290   2.828   1.003  0.5142  0.1498  0.1303
 5985SOL    HW223706   5.206   2.783   1.014 -0.7399  2.4564  0.7100
 5985SOL    HW323707   5.306   2.868   1.088  1.0726  1.5600 -0.6187
 5985SOL    MW423708   5.281   2.827   1.016  0.4224  0.6402  0.1079
 5986SOL     OW23709   6.002   0.700   5.720 -0.5121  0.2440  0.1390
 5986SOL    HW223710   6.035   0.788   5.737 -0.5659  0.6839 -1.8057
 5986SOL    HW323711   6.074   0.642   5.745 -0.3268  0.8437  1.0481
 5986SOL    MW423712   6.016   0.704   5.725 -0.4947  0.3812  0.0023
 5987SOL     OW23713   6.251   3.517   3.481  0.4237  0.2377 -0.2477
 5987SOL    HW223714   6.260   3.561   3.566  0.7819  0.6729 -0.5044
 5987SOL    HW323715   6.298   3.435   3.492  0.9749  0.5545 -0.2013
 5987SOL    MW423716   6.259   3.512   3.494  0.5437  0.3369 -0.2754
 5988SOL     OW23717   2.700   5.936   0.945  0.0726  0.4321  0.1314
 5988SOL    HW223718   2.740   5.996   0.882 -1.3943  2.3577  0.9287
 5988SOL    HW323719   2.611   5.970   0.957 -1.0305 -2.2529  0.2366
 5988SOL    MW423720   2.693   5.948   0.938 -0.2665  0.3319  0.2505
 5989SOL     OW23721   4.267   2.138   0.389  0.3874 -0.5204  0.1652
 5989SOL    HW223722   4.300   2.106   0.305  1.4667  2.8334 -0.8552
 5989SOL    HW323723   4.329   2.105   0.454  2.6583  1.0147 -1.0744
 5989SOL    MW423724   4.279   2.130   0.387  0.8294  0.1246 -0.1330
 5990SOL     OW23725   3.185   0.776   2.883 -0.0478 -0.3827  0.0748
 5990SOL    HW223726   3.228   0.763   2.967 -0.2700 -2.3675 -0.0893
 5990SOL    HW323727   3.167   0.688   2.850 -0.7514  0.3524 -1.6562
 5990SOL    MW423728   3.188   0.763   2.890 -0.1700 -0.5476 -0.1752
 5991SOL     OW23729   6.215   2.041   1.508  0.0857  0.0653 -0.0964
 5991SOL    HW223730   6.147   2.105   1.529 -0.5370 -0.4656 -0.4688
 5991SOL    HW323731   6.291   2.071   1.557  0.0738  1.5960 -0.9549
 5991SOL    MW423732   6.216   2.053   1.518  0.0020  0.1972 -0.2588
 5992SOL     OW23733   5.426   0.230   5.056  0.3693 -0.6536 -0.0354
 5992SOL    HW223734   5.375   0.167   5.006 -0.1231 -0.4847  0.2510
 5992SOL    HW323735   5.368   0.257   5.127  0.5541  0.1777 -0.1980
 5992SOL    MW423736   5.412   0.225   5.059  0.3287 -0.5216 -0.0191
 5993SOL     OW23737   4.596   0.579   5.713 -0.3076  0.1961 -0.5666
 5993SOL    HW223738   4.582   0.575   5.619  1.2673 -0.0964 -0.8149
 5993SOL    HW323739   4.623   0.669   5.730  0.2734  0.0216 -0.5404
 5993SOL    MW423740   4.597   0.590   5.703 -0.0231  0.1345 -0.5959
 5994SOL     OW23741   1.610   4.159   4.404  0.2639 -0.5617  0.2047
 5994SOL    HW223742   1.655   4.114   4.476  0.3370 -2.8821 -1.2166
 5994SOL    HW323743   1.678   4.176   4.339 -0.4838 -2.2504 -1.0794
 5994SOL    MW423744   1.625   4.156   4.405  0.1749 -1.0906 -0.1523
 5995SOL     OW23745   5.540   5.434   4.809 -0.1031 -0.1783 -0.0971
 5995SOL    HW223746   5.493   5.370   4.863  0.6165 -0.5291  0.1195
 5995SOL    HW323747   5.498   5.428   4.723 -0.1752 -0.7912 -0.0217
 5995SOL    MW423748   5.528   5.425   4.805 -0.0177 -0.3055 -0.0586
 5996SOL     OW23749   1.104   5.888   1.977 -0.0118  0.1931 -0.0533
 5996SOL    HW223750   1.150   5.961   1.938  1.6567 -0.5158  0.5047
 5996SOL    HW323751   1.064   5.842   1.903 -0.5554  1.2973 -0.4588
 5996SOL    MW423752   1.104   5.891   1.962  0.1366  0.2452 -0.0332
 5997SOL     OW23753   1.995   4.714   1.509  0.4885 -0.0299  0.2149
 5997SOL    HW223754   1.977   4.640   1.451  0.7034 -1.6020  2.0478
 5997SOL    HW323755   2.007   4.789   1.450  0.7915 -1.5456 -1.7460
 5997SOL    MW423756   1.994   4.714   1.494  0.5568 -0.4373  0.1980
 5998SOL     OW23757   3.197   5.218   3.058  0.0277  0.0520 -0.1679
 5998SOL    HW223758   3.247   5.164   2.997  1.7378  1.0694  0.2627
 5998SOL    HW323759   3.262   5.252   3.119 -1.1057  1.8828  0.1084
 5998SOL    MW423760   3.212   5.215   3.058  0.1038  0.4278 -0.0746
 5999SOL     OW23761   5.779   2.397   2.872  0.3277 -0.5332  0.1040
 5999SOL    HW223762   5.781   2.313   2.825  0.0014 -0.2237 -0.4766
 5999SOL    HW323763   5.742   2.459   2.809  0.1989 -0.0316  0.6627
 5999SOL    MW423764   5.775   2.394   2.857  0.2677 -0.4262  0.1011
 6000SOL     OW23765   5.267   1.025   3.747 -0.7432  0.0371  0.7271
 6000SOL    HW223766   5.283   1.008   3.654 -0.9277  0.3008  0.6443
 6000SOL    HW323767   5.209   0.954   3.775  1.0363 -1.2994  1.1875
 6000SOL    MW423768   5.262   1.014   3.738 -0.5328 -0.1045  0.7769
 6001SOL     OW23769   3.627   2.267   4.726 -0.6703 -0.2256  1.1879
 6001SOL    HW223770   3.606   2.196   4.787  0.3860 -0.0393  1.8013
 6001SOL    HW323771   3.600   2.347   4.772  1.8254  0.0809  2.2959
 6001SOL    MW423772   3.621   2.268   4.740 -0.2017 -0.1606  1.4151
 6002SOL     OW23773   0.411   3.751   2.814 -0.4041  0.6542  0.0489
 6002SOL    HW223774   0.493   3.774   2.857 -0.4699  0.8779  0.0579
 6002SOL    HW323775   0.407   3.808   2.738 -0.9001  1.1641  0.4504
 6002SOL    MW423776   0.421   3.761   2.810 -0.4782  0.7510  0.1030
 6003SOL     OW23777   6.300   4.482   4.950  0.3225  0.1080 -0.0673
 6003SOL    HW223778   6.232   4.543   4.979  1.5909  2.1338 -1.0354
 6003SOL    HW323779   6.365   4.482   5.021 -0.0491 -0.7801  0.2819
 6003SOL    MW423780   6.300   4.490   4.963  0.4408  0.2581 -0.1490
 6004SOL     OW23781   3.006   2.522   2.152 -0.3370 -0.1166 -0.2700
 6004SOL    HW223782   3.095   2.536   2.185 -0.8451 -0.9869  1.5807
 6004SOL    HW323783   2.994   2.427   2.152 -0.7309 -0.1137 -2.1090
 6004SOL    MW423784   3.016   2.512   2.156 -0.4560 -0.2311 -0.2685
 6005SOL     OW23785   3.398   4.224   5.973 -0.2262  0.0912 -0.1403
 6005SOL    HW223786   3.350   4.249   5.894 -1.9699 -0.4422  0.6960
 6005SOL    HW323787   3.447   4.146   5.947 -1.4850 -0.6250 -0.5053
 6005SOL    MW423788   3.398   4.217   5.959 -0.6224 -0.0737 -0.0781
 6006SOL     OW23789   6.180   3.673   5.408 -0.5530 -0.0267  0.1542
 6006SOL    HW223790   6.188   3.610   5.480 -0.4726 -2.2317 -1.6648
 6006SOL    HW323791   6.140   3.623   5.337  2.1612  1.1206 -2.3767
 6006SOL    MW423792   6.176   3.658   5.409 -0.1843 -0.1663 -0.4197
 6007SOL     OW23793   4.661   5.715   5.075 -0.0688 -0.6228 -0.2055
 6007SOL    HW223794   4.636   5.627   5.103 -0.9538 -0.4798 -0.5220
 6007SOL    HW323795   4.751   5.725   5.106 -0.0669 -1.5178  0.1098
 6007SOL    MW423796   4.669   5.705   5.083 -0.1853 -0.7221 -0.2056
 6008SOL     OW23797   5.743   0.755   3.376  0.5355  0.2747  0.5532
 6008SOL    HW223798   5.767   0.700   3.451  0.6074  0.8159  0.9302
 6008SOL    HW323799   5.761   0.844   3.405  0.2101  0.5152  0.0214
 6008SOL    MW423800   5.749   0.759   3.390  0.5020  0.3778  0.5328
 6009SOL     OW23801   2.035   5.952   4.090 -0.0453 -0.5084  0.0494
 6009SOL    HW223802   2.099   5.902   4.140 -0.2183 -0.3605  0.4265
 6009SOL    HW323803   1.950   5.915   4.115 -0.1787 -0.0183  0.3592
 6009SOL    MW423804   2.032   5.941   4.100 -0.0857 -0.4242  0.1400
 6010SOL     OW23805   0.612   2.123   2.686 -0.2089 -0.0224  0.0349
 6010SOL    HW223806   0.602   2.183   2.611  0.1190 -1.5540 -1.2984
 6010SOL    HW323807   0.658   2.174   2.752 -1.0978  1.5883 -0.5436
 6010SOL    MW423808   0.617   2.138   2.684 -0.2830 -0.0119 -0.2173
 6011SOL     OW23809   0.156   1.631   4.453 -0.3532  0.2509  0.4382
 6011SOL    HW223810   0.190   1.598   4.536 -0.8812  0.5594  0.7869
 6011SOL    HW323811   0.092   1.565   4.425 -2.3386  1.4990  1.7642
 6011SOL    MW423812   0.152   1.618   4.460 -0.6848  0.4563  0.6592
 6012SOL     OW23813   5.245   2.147   3.425 -0.5247  0.4230  0.1253
 6012SOL    HW223814   5.325   2.183   3.463  0.0915 -0.0524 -0.6680
 6012SOL    HW323815   5.246   2.054   3.450 -0.2226  0.1544 -0.8058
 6012SOL    MW423816   5.256   2.139   3.433 -0.4036  0.3249 -0.1022
 6013SOL     OW23817   1.267   4.013   4.015 -1.1198 -0.4114 -0.3980
 6013SOL    HW223818   1.228   4.070   3.948  0.5235  0.6602 -0.4994
 6013SOL    HW323819   1.344   4.062   4.046  0.8366 -2.8683 -1.0477
 6013SOL    MW423820   1.272   4.027   4.010 -0.6449 -0.5942 -0.4971
 6014SOL     OW23821   5.238   2.431   4.407 -0.0432  0.5341 -0.4137
 6014SOL    HW223822   5.151   2.452   4.372 -1.2337  0.9570  2.5107
 6014SOL    HW323823   5.298   2.478   4.349 -1.9693  2.7981 -0.7786
 6014SOL    MW423824   5.234   2.440   4.395 -0.4544  0.8886 -0.0760
 6015SOL     OW23825   1.946   2.539   1.259  0.2048 -0.5440 -0.3655
 6015SOL    HW223826   1.936   2.455   1.214  0.2122 -1.0086  0.4668
 6015SOL    HW323827   1.900   2.527   1.343 -0.1347  0.4193 -0.4005
 6015SOL    MW423828   1.939   2.526   1.264  0.1609 -0.4782 -0.2603
 6016SOL     OW23829   3.743   5.348   2.917 -0.2972 -0.1860  0.3939
 6016SOL    HW223830   3.833   5.352   2.885 -0.3553  0.0054  0.2488
 6016SOL    HW323831   3.729   5.256   2.939 -0.0807 -0.2234  0.3780
 6016SOL    MW423832   3.753   5.336   2.916 -0.2763 -0.1657  0.3727
 6017SOL     OW23833   1.913   2.055   4.427  0.0552 -0.0143 -0.2535
 6017SOL    HW223834   1.915   1.968   4.467 -3.8302 -0.4601 -0.6386
 6017SOL    HW323835   2.005   2.076   4.412  1.4024 -2.4774  3.0870
 6017SOL    MW423836   1.926   2.046   4.431 -0.2797 -0.3981  0.1364
 6018SOL     OW23837   5.346   0.322   1.001  0.2848  0.3412 -0.4659
 6018SOL    HW223838   5.437   0.298   0.985  0.3698  1.5804 -2.0770
 6018SOL    HW323839   5.304   0.240   1.025  1.7278 -0.3375 -0.1598
 6018SOL    MW423840   5.352   0.308   1.002  0.4864  0.4152 -0.6380
 6019SOL     OW23841   1.026   4.825   0.482 -0.3938  0.0498  0.1935
 6019SOL    HW223842   1.022   4.830   0.386 -1.3501  0.9969  0.2595
 6019SOL    HW323843   0.991   4.909   0.511  2.2874  0.8436  1.3744
 6019SOL    MW423844   1.021   4.836   0.473 -0.1663  0.2795  0.3580
 6020SOL     OW23845   3.419   5.264   3.222 -0.2715  0.4162  0.2545
 6020SOL    HW223846   3.446   5.341   3.172  1.6988  0.8410  1.8311
 6020SOL    HW323847   3.396   5.298   3.308  0.0157 -0.6707  0.7808
 6020SOL    MW423848   3.419   5.279   3.227  0.0264  0.3289  0.5320
 6021SOL     OW23849   3.809   5.310   3.747  0.1221 -0.6873 -0.3986
 6021SOL    HW223850   3.890   5.277   3.786  0.3881 -0.6834 -0.9373
 6021SOL    HW323851   3.819   5.292   3.653 -1.5895 -3.0797 -0.2255
 6021SOL    MW423852   3.821   5.303   3.740 -0.0686 -1.0024 -0.4468
 6022SOL     OW23853   1.812   0.119   4.481 -0.8560  0.1665  0.2985
 6022SOL    HW223854   1.723   0.153   4.474 -0.5736  0.9782  0.5348
 6022SOL    HW323855   1.855   0.178   4.543 -0.4454 -0.8384  0.9804
 6022SOL    MW423856   1.806   0.132   4.488 -0.7646  0.1410  0.4196
 6023SOL     OW23857   4.615   1.382   0.199 -0.7273 -0.3781  0.3029
 6023SOL    HW223858   4.531   1.353   0.162 -0.8861 -0.7950  0.9790
 6023SOL    HW323859   4.612   1.477   0.193 -1.6466 -0.3334  1.1481
 6023SOL    MW423860   4.603   1.390   0.193 -0.8695 -0.4272  0.5036
 6024SOL     OW23861   6.072   3.161   4.328  0.0224  0.2006 -0.1990
 6024SOL    HW223862   6.139   3.116   4.379 -1.7125 -2.1520  0.1872
 6024SOL    HW323863   6.074   3.119   4.242 -0.2712  0.8412 -0.5293
 6024SOL    MW423864   6.081   3.150   4.323 -0.2453 -0.0253 -0.1916
 6025SOL     OW23865   4.471   4.824   1.812  0.3101 -0.3237  0.0101
 6025SOL    HW223866   4.449   4.731   1.817  0.5748 -0.3377  1.2899
 6025SOL    HW323867   4.526   4.840   1.889  0.0458  0.9556 -0.0420
 6025SOL    MW423868   4.476   4.814   1.823  0.3101 -0.1568  0.1721
 6026SOL     OW23869   4.525   3.666   2.477  0.2150  0.4326  0.2865
 6026SOL    HW223870   4.460   3.737   2.486 -0.4090 -0.1892  0.7464
 6026SOL    HW323871   4.608   3.707   2.501 -0.4930  0.3864  3.1688
 6026SOL    MW423872   4.527   3.681   2.481  0.0393  0.3445  0.7275
 6027SOL     OW23873   5.237   0.362   3.364  0.1914 -0.6551  0.2770
 6027SOL    HW223874   5.246   0.368   3.459 -1.9076  0.2866  0.4631
 6027SOL    HW323875   5.248   0.269   3.345  0.4146 -0.8866  1.4559
 6027SOL    MW423876   5.240   0.350   3.374 -0.0561 -0.5614  0.4571
 6028SOL     OW23877   0.452   2.858   2.735  0.0892  0.0208  0.3972
 6028SOL    HW223878   0.452   2.898   2.648  1.7641 -0.5025  0.1306
 6028SOL    HW323879   0.362   2.827   2.747 -0.0288 -0.4347 -1.4088
 6028SOL    MW423880   0.440   2.859   2.725  0.2946 -0.1084  0.1237
 6029SOL     OW23881   3.113   1.568   4.984  0.0468 -0.3586  0.0594
 6029SOL    HW223882   3.069   1.500   4.934 -3.9332  0.9332  1.3369
 6029SOL    HW323883   3.062   1.647   4.967  1.8155  1.3333  1.9304
 6029SOL    MW423884   3.100   1.570   4.975 -0.2449  0.0351  0.4748
 6030SOL     OW23885   0.690   5.186   4.177 -0.5119  0.1785  0.5029
 6030SOL    HW223886   0.632   5.205   4.251 -0.0611 -0.4631  1.0296
 6030SOL    HW323887   0.778   5.205   4.209 -0.3033 -0.1833  0.1592
 6030SOL    MW423888   0.694   5.191   4.191 -0.4249  0.0461  0.5270
 6031SOL     OW23889   0.206   2.240   3.380  0.1615 -0.4685 -0.0971
 6031SOL    HW223890   0.292   2.197   3.376  0.7113  0.5361  0.6176
 6031SOL    HW323891   0.190   2.251   3.474 -0.4907 -0.1328 -0.2489
 6031SOL    MW423892   0.215   2.236   3.392  0.1480 -0.2917 -0.0228
 6032SOL     OW23893   0.161   3.765   3.937 -0.0365 -0.1310 -0.5548
 6032SOL    HW223894   0.150   3.752   4.032  0.1012  0.1595 -0.4984
 6032SOL    HW323895   0.211   3.846   3.930 -1.8166  0.9935 -0.9240
 6032SOL    MW423896   0.166   3.774   3.949 -0.2532  0.0557 -0.5961
 6033SOL     OW23897   0.733   1.730   6.215  0.6193  0.2071  0.0352
 6033SOL    HW223898   0.794   1.662   6.187  1.6891  0.6200  1.2615
 6033SOL    HW323899   0.662   1.726   6.151  1.0102 -1.5558 -0.3420
 6033SOL    MW423900   0.732   1.721   6.203  0.8120  0.0290  0.1472
 6034SOL     OW23901   0.245   5.376   2.604 -0.0846 -0.5070  0.3342
 6034SOL    HW223902   0.270   5.301   2.549 -1.5362 -2.0566  1.6665
 6034SOL    HW323903   0.326   5.402   2.646  0.5190 -1.1293 -0.4025
 6034SOL    MW423904   0.259   5.369   2.602 -0.1965 -0.7936  0.4128
 6035SOL     OW23905   3.491   3.923   5.617  0.5013  0.7681 -0.1134
 6035SOL    HW223906   3.541   3.865   5.560 -0.2932  0.6219 -0.6692
 6035SOL    HW323907   3.403   3.924   5.580 -1.1950 -2.3729  3.1524
 6035SOL    MW423908   3.486   3.915   5.605  0.1727  0.3344  0.2441
 6036SOL     OW23909   4.056   0.471   3.388 -0.0737  0.5264 -0.5986
 6036SOL    HW223910   3.971   0.515   3.385 -0.1246  0.4033 -1.0925
 6036SOL    HW323911   4.042   0.388   3.342  0.0357  0.0124  0.2731
 6036SOL    MW423912   4.043   0.466   3.381 -0.0660  0.4424 -0.5487
 6037SOL     OW23913   4.199   5.148   2.739  0.4087 -0.0202  0.4098
 6037SOL    HW223914   4.156   5.126   2.657 -0.4463 -1.0947  1.1182
 6037SOL    HW323915   4.145   5.217   2.778  0.2713 -0.1963  0.5284
 6037SOL    MW423916   4.186   5.154   2.733  0.2778 -0.1852  0.5189
 6038SOL     OW23917   2.814   5.697   1.380 -0.1314  0.0872  0.0683
 6038SOL    HW223918   2.843   5.686   1.289  1.7971  0.3620  0.6194
 6038SOL    HW323919   2.763   5.618   1.398  0.1476 -0.3575 -1.0033
 6038SOL    MW423920   2.811   5.685   1.370  0.1598  0.0648 -0.0004
 6039SOL     OW23921   4.667   4.905   5.814 -0.7843  0.3239  0.4205
 6039SOL    HW223922   4.744   4.908   5.871  1.3020 -0.0910 -2.1901
 6039SOL    HW323923   4.640   4.997   5.808  0.2027  0.6364  0.4867
 6039SOL    MW423924   4.674   4.918   5.821 -0.3788  0.3104  0.0848
 6040SOL     OW23925   4.470   5.007   0.325  0.2006 -0.6282  0.1164
 6040SOL    HW223926   4.464   5.103   0.332 -1.0290 -0.7812  1.6010
 6040SOL    HW323927   4.390   4.981   0.279  0.1750 -1.0079  0.3742
 6040SOL    MW423928   4.459   5.017   0.320  0.0350 -0.6985  0.3463
 6041SOL     OW23929   3.518   1.062   6.304  0.2449 -0.5307  0.0527
 6041SOL    HW223930   3.473   0.994   6.354 -0.7016 -1.3065 -1.7679
 6041SOL    HW323931   3.450   1.127   6.286  0.7133  0.0143  0.2244
 6041SOL    MW423932   3.503   1.062   6.308  0.1818 -0.5612 -0.1648
 6042SOL     OW23933   5.366   1.065   6.142 -0.2896  0.6056  0.1120
 6042SOL    HW223934   5.434   1.047   6.077 -1.3583 -0.1415 -0.8313
 6042SOL    HW323935   5.373   1.160   6.157  0.9988  0.5362  0.1079
 6042SOL    MW423936   5.376   1.075   6.135 -0.2606  0.4979 -0.0130
 6043SOL     OW23937   4.590   1.108   5.470 -0.0430 -0.5885 -1.1234
 6043SOL    HW223938   4.499   1.084   5.486 -0.0667 -0.0053 -0.3254
 6043SOL    HW323939   4.584   1.186   5.414  0.0151 -1.5938 -2.6024
 6043SOL    MW423940   4.577   1.115   5.465 -0.0385 -0.6442 -1.2133
 6044SOL     OW23941   1.838   3.575   5.463 -0.7292  0.0326 -0.0461
 6044SOL    HW223942   1.910   3.524   5.427  0.1394 -0.0101  1.6737
 6044SOL    HW323943   1.797   3.616   5.386  1.4870  0.5337 -1.0255
 6044SOL    MW423944   1.842   3.574   5.448 -0.3222  0.0931  0.0516
 6045SOL     OW23945   1.894   3.304   5.143  0.3632 -0.5074 -0.6138
 6045SOL    HW223946   1.875   3.354   5.064 -3.6918  1.7283  1.4339
 6045SOL    HW323947   1.954   3.360   5.193  0.3672 -0.3835 -0.7568
 6045SOL    MW423948   1.899   3.318   5.139 -0.1713 -0.1960 -0.3625
 6046SOL     OW23949   0.126   5.803   2.087  0.4518 -0.2762  0.3685
 6046SOL    HW223950   0.168   5.881   2.123 -0.4434 -0.4979  1.9992
 6046SOL    HW323951   0.080   5.835   2.009 -1.5403  1.3391  2.0451
 6046SOL    MW423952   0.125   5.818   2.081  0.0709 -0.0923  0.8048
 6047SOL     OW23953   5.040   5.666   3.413 -0.1245  0.3111 -0.3125
 6047SOL    HW223954   5.000   5.630   3.334 -0.6574 -1.8368  0.8416
 6047SOL    HW323955   5.130   5.632   3.412 -0.0028  0.6276 -0.2044
 6047SOL    MW423956   5.046   5.656   3.403 -0.1788  0.0694 -0.1460
 6048SOL     OW23957   0.332   6.293   4.264  0.3414  0.0953  0.3006
 6048SOL    HW223958   0.256   6.336   4.227  0.8828  1.3800  0.6223
 6048SOL    HW323959   0.298   6.241   4.337 -0.4331 -0.7274 -0.6299
 6048SOL    MW423960   0.318   6.292   4.269  0.3107  0.1563  0.2203
 6049SOL     OW23961   1.962   5.944   1.658  0.4725  0.6540 -0.4327
 6049SOL    HW223962   1.972   5.850   1.677 -0.2057  0.3687 -1.3495
 6049SOL    HW323963   2.033   5.963   1.596 -0.7602  0.1361 -2.0981
 6049SOL    MW423964   1.972   5.934   1.652  0.2204  0.5480 -0.7734
 6050SOL     OW23965   5.466   2.853   3.902  0.2795 -0.2997  0.0709
 6050SOL    HW223966   5.427   2.868   3.987  2.6730 -0.3820  1.2655
 6050SOL    HW323967   5.487   2.940   3.869 -1.6845 -0.1869 -1.0284
 6050SOL    MW423968   5.464   2.866   3.909  0.3362 -0.2957  0.0835
 6051SOL     OW23969   2.537   0.158   2.575 -0.2013 -0.3974 -0.4315
 6051SOL    HW223970   2.566   0.223   2.511 -0.1445  0.7010  0.6798
 6051SOL    HW323971   2.611   0.097   2.580 -0.2860 -0.6262 -1.5411
 6051SOL    MW423972   2.551   0.159   2.567 -0.2049 -0.2827 -0.4313
 6052SOL     OW23973   5.595   5.692   3.578 -0.4744 -0.3198  0.2974
 6052SOL    HW223974   5.577   5.600   3.564  0.5170 -0.4787  0.0147
 6052SOL    HW323975   5.603   5.729   3.490 -2.2157  0.3383  0.3699
 6052SOL    MW423976   5.593   5.685   3.565 -0.5733 -0.2540  0.2696
 6053SOL     OW23977   3.896   5.381   4.198  0.4580 -0.2107  0.0492
 6053SOL    HW223978   3.833   5.399   4.128  0.1849 -0.4221  0.2427
 6053SOL    HW323979   3.875   5.444   4.266  2.3238  1.7261 -1.0453
 6053SOL    MW423980   3.885   5.392   4.198  0.6681  0.0169 -0.0697
 6054SOL     OW23981   4.168   5.429   6.322  0.2098 -0.4494  0.1721
 6054SOL    HW223982   4.129   5.349   6.286  1.9599 -1.2193 -0.1034
 6054SOL    HW323983   4.239   5.451   6.262  1.2674 -0.0408  1.5249
 6054SOL    MW423984   4.172   5.421   6.309  0.5803 -0.4971  0.3142
 6055SOL     OW23985   0.237   4.569   1.179  0.6242  0.2725 -0.2036
 6055SOL    HW223986   0.273   4.649   1.140  2.0764  0.9660  2.3242
 6055SOL    HW323987   0.263   4.499   1.119  0.6708  1.4873 -1.6718
 6055SOL    MW423988   0.245   4.571   1.166  0.8220  0.5243 -0.0638
 6056SOL     OW23989   6.274   4.071   5.242 -0.0802 -0.6398 -0.6610
 6056SOL    HW223990   6.318   4.038   5.164  2.0034  2.0478 -0.7409
 6056SOL    HW323991   6.235   4.154   5.215  0.1070  0.0259  0.9612
 6056SOL    MW423992   6.275   4.078   5.228  0.2194 -0.1974 -0.4575
 6057SOL     OW23993   6.390   5.322   2.159  0.0865 -0.0869 -0.1083
 6057SOL    HW223994   6.433   5.378   2.094 -3.2545  1.1659 -1.4842
 6057SOL    HW323995   6.355   5.383   2.223  1.0174 -1.1257  1.4479
 6057SOL    MW423996   6.391   5.338   2.159 -0.2314 -0.0587 -0.0845
 6058SOL     OW23997   5.625   2.015   0.689 -0.2195 -0.3335 -0.4415
 6058SOL    HW223998   5.673   1.988   0.611  0.4233 -0.5323  0.0113
 6058SOL    HW323999   5.555   1.951   0.699  2.1854 -2.8655  1.4927
 6058SOL    MW424000   5.622   2.003   0.680  0.1826 -0.6938 -0.1266
 6059SOL     OW24001   3.139   3.786   1.874 -1.2197 -0.0836 -0.3258
 6059SOL    HW224002   3.087   3.836   1.812 -1.5299  1.1803  0.9029
 6059SOL    HW324003   3.083   3.779   1.952 -0.3043 -0.3987  0.3230
 6059SOL    MW424004   3.124   3.792   1.876 -1.1399  0.0416 -0.0781
 6060SOL     OW24005   6.099   6.295   3.968 -0.3119 -0.5283  0.3292
 6060SOL    HW224006   6.188   6.260   3.974 -0.1948 -0.0722  1.5138
 6060SOL    HW324007   6.044   6.217   3.955  0.3063 -0.7464 -1.0958
 6060SOL    MW424008   6.103   6.280   3.967 -0.2149 -0.4969  0.2975
 6061SOL     OW24009   5.377   5.481   0.781  0.6608  1.0891  0.0327
 6061SOL    HW224010   5.306   5.543   0.764  0.4993  0.6721 -0.8866
 6061SOL    HW324011   5.415   5.464   0.695  1.0065  0.2800  0.3339
 6061SOL    MW424012   5.372   5.487   0.767  0.6851  0.9273 -0.0489
 6062SOL     OW24013   2.809   4.520   1.211 -0.1237  0.5095 -0.1486
 6062SOL    HW224014   2.799   4.600   1.261  0.3327 -1.2508  3.0316
 6062SOL    HW324015   2.898   4.522   1.178  0.2101  0.9170  0.7494
 6062SOL    MW424016   2.819   4.531   1.213 -0.0194  0.3310  0.3895
 6063SOL     OW24017   5.526   3.472   1.703 -0.1950  0.2771  0.2611
 6063SOL    HW224018   5.515   3.378   1.696  0.7571  0.1812 -0.0460
 6063SOL    HW324019   5.474   3.508   1.631 -1.5237  0.0725  1.0852
 6063SOL    MW424020   5.517   3.465   1.693 -0.2447  0.2374  0.3293
 6064SOL     OW24021   1.957   0.427   4.506 -0.1079 -0.3204  0.6441
 6064SOL    HW224022   1.935   0.385   4.423  2.1695 -1.5662  0.5969
 6064SOL    HW324023   1.900   0.505   4.509 -1.3730 -1.0878 -1.2965
 6064SOL    MW424024   1.947   0.432   4.495  0.0257 -0.5860  0.3818
 6065SOL     OW24025   3.429   1.979   0.138  0.0278  0.0844  0.0033
 6065SOL    HW224026   3.485   1.958   0.063  0.5804  0.1010  0.4063
 6065SOL    HW324027   3.358   2.031   0.101 -1.5606 -2.6602 -1.0998
 6065SOL    MW424028   3.427   1.983   0.123 -0.1089 -0.2756 -0.0890
 6066SOL     OW24029   5.616   5.669   1.188 -0.0716  0.5489  0.0468
 6066SOL    HW224030   5.615   5.576   1.208 -2.1977  0.5848  0.3396
 6066SOL    HW324031   5.633   5.674   1.094  1.7566 -0.0231  0.3208
 6066SOL    MW424032   5.618   5.658   1.178 -0.1109  0.4782  0.1216
 6067SOL     OW24033   1.867   3.410   5.830  0.3015  0.4414 -0.8838
 6067SOL    HW224034   1.954   3.424   5.794  0.1956 -0.0884 -1.3613
 6067SOL    HW324035   1.880   3.348   5.901  0.5909  1.9160  0.3991
 6067SOL    MW424036   1.880   3.404   5.834  0.3257  0.5660 -0.7775
 6068SOL     OW24037   1.412   1.464   3.411 -0.4708 -0.1447 -0.4007
 6068SOL    HW224038   1.491   1.469   3.465 -1.7864  1.6100  1.5246
 6068SOL    HW324039   1.407   1.549   3.367 -0.1057 -1.0868 -2.3330
 6068SOL    MW424040   1.421   1.476   3.412 -0.5962 -0.0375 -0.4016
 6069SOL     OW24041   4.728   5.001   4.331 -0.0572 -0.1458 -0.5416
 6069SOL    HW224042   4.668   4.928   4.318 -0.5944  0.2091 -0.1087
 6069SOL    HW324043   4.794   4.990   4.263 -0.9910 -0.1436 -1.4734
 6069SOL    MW424044   4.729   4.990   4.321 -0.2513 -0.0986 -0.6074
 6070SOL     OW24045   2.909   4.066   6.279 -0.0540 -0.2085  0.9625
 6070SOL    HW224046   2.832   4.009   6.285 -1.2621  0.9270 -1.8837
 6070SOL    HW324047   2.879   4.151   6.310  0.4085 -0.0184  0.9028
 6070SOL    MW424048   2.895   4.070   6.284 -0.1524 -0.0336  0.5791
 6071SOL     OW24049   1.393   5.930   6.354  0.0151 -0.2759  0.0536
 6071SOL    HW224050   1.324   5.958   6.414  0.3751 -0.3008  0.4894
 6071SOL    HW324051   1.438   5.859   6.400  2.5508  1.9762  1.3656
 6071SOL    MW424052   1.390   5.925   6.368  0.3972  0.0180  0.2842
 6072SOL     OW24053   4.719   3.680   4.248 -0.1549 -0.0704 -0.3822
 6072SOL    HW224054   4.729   3.760   4.300 -1.5332  0.0045 -0.1906
 6072SOL    HW324055   4.680   3.710   4.165  2.4626 -0.1131 -1.7513
 6072SOL    MW424056   4.715   3.694   4.244  0.0086 -0.0661 -0.5376
 6073SOL     OW24057   4.723   1.057   3.632 -0.3013 -0.4158  0.0909
 6073SOL    HW224058   4.749   0.974   3.594  0.6782  0.5884 -1.5464
 6073SOL    HW324059   4.805   1.099   3.658 -0.6075  0.7038 -0.6293
 6073SOL    MW424060   4.737   1.052   3.630 -0.2125 -0.1356 -0.2201
 6074SOL     OW24061   2.335   1.352   1.387 -0.2874 -0.3875  0.4949
 6074SOL    HW224062   2.312   1.439   1.355 -1.9812 -0.3202  1.7475
 6074SOL    HW324063   2.381   1.369   1.470  2.6852 -0.6122 -0.9736
 6074SOL    MW424064   2.338   1.366   1.394 -0.1186 -0.4082  0.4664
 6075SOL     OW24065   1.692   0.732   5.736  0.0210  0.1046 -0.3159
 6075SOL    HW224066   1.621   0.783   5.697  0.5293  0.1322 -1.2574
 6075SOL    HW324067   1.771   0.765   5.692  0.4105 -1.1471 -0.5921
 6075SOL    MW424068   1.693   0.743   5.725  0.1395 -0.0569 -0.4766
 6076SOL     OW24069   3.383   2.044   5.773  0.7032 -0.7167  0.5135
 6076SOL    HW224070   3.379   2.012   5.682  0.8244  1.0322 -0.1472
 6076SOL    HW324071   3.323   1.987   5.821 -1.7341  0.1509 -1.2782
 6076SOL    MW424072   3.375   2.032   5.767  0.3976 -0.3715  0.1900
 6077SOL     OW24073   3.631   5.900   1.746  0.0757 -0.6049  0.2764
 6077SOL    HW224074   3.683   5.883   1.667  1.0682 -0.2788  0.8394
 6077SOL    HW324075   3.540   5.895   1.717  0.4302 -0.3307 -0.9249
 6077SOL    MW424076   3.626   5.897   1.732  0.2534 -0.5257  0.1922
 6078SOL     OW24077   0.857   4.193   6.441 -0.0171  0.1528 -0.3374
 6078SOL    HW224078   0.803   4.245   6.501  0.6961  1.6688 -0.9547
 6078SOL    HW324079   0.810   4.196   6.358  0.0158 -0.2031 -0.3672
 6078SOL    MW424080   0.844   4.201   6.438  0.0813  0.3059 -0.4228
 6079SOL     OW24081   4.176   1.173   1.195 -0.0147 -0.2946 -0.0237
 6079SOL    HW224082   4.193   1.219   1.277  0.8925  0.2633 -0.4978
 6079SOL    HW324083   4.086   1.142   1.202  0.4008 -1.2183  1.6365
 6079SOL    MW424084   4.167   1.175   1.207  0.1598 -0.3429  0.1328
 6080SOL     OW24085   0.698   5.768   4.133  0.4322  0.1866  0.1288
 6080SOL    HW224086   0.697   5.681   4.174  0.2152  0.5534  0.9032
 6080SOL    HW324087   0.664   5.827   4.200 -0.8179  0.6625 -0.8779
 6080SOL    MW424088   0.693   5.764   4.147  0.2386  0.2978  0.0982
 6081SOL     OW24089   2.374   2.135   0.768 -0.0235 -0.4731 -0.2137
 6081SOL    HW224090   2.383   2.135   0.673 -2.0852 -1.1048 -0.4613
 6081SOL    HW324091   2.344   2.223   0.789  0.3865 -0.3478 -0.1488
 6081SOL    MW424092   2.371   2.147   0.758 -0.2414 -0.5400 -0.2378
 6082SOL     OW24093   4.725   1.220   1.890  0.0346 -0.0365  0.1559
 6082SOL    HW224094   4.729   1.289   1.957  2.1902  0.0901 -0.0277
 6082SOL    HW324095   4.692   1.143   1.937  1.4879  0.0572  1.3920
 6082SOL    MW424096   4.721   1.219   1.905  0.5108 -0.0074  0.2947
 6083SOL     OW24097   1.820   4.680   2.896  0.1673 -0.0045  0.2983
 6083SOL    HW224098   1.889   4.671   2.830 -0.4280  2.0634 -0.6975
 6083SOL    HW324099   1.867   4.685   2.979  1.2486  1.2835 -0.3523
 6083SOL    MW424100   1.836   4.679   2.898  0.2314  0.4383  0.0811
 6084SOL     OW24101   4.624   2.654   3.470 -0.1973  0.0691  0.4971
 6084SOL    HW224102   4.557   2.723   3.471 -0.9941 -0.5952 -1.7559
 6084SOL    HW324103   4.707   2.701   3.462 -0.7709  0.8258 -1.7593
 6084SOL    MW424104   4.626   2.669   3.469 -0.3781  0.0813 -0.0979
 6085SOL     OW24105   1.188   3.290   2.681 -0.2108 -0.3224  0.0960
 6085SOL    HW224106   1.116   3.291   2.744 -0.1036  0.0110  0.2138
 6085SOL    HW324107   1.229   3.204   2.692 -1.2686 -0.9563 -0.7326
 6085SOL    MW424108   1.184   3.279   2.691 -0.3362 -0.3621  0.0022
 6086SOL     OW24109   0.823   5.921   0.414 -0.1125 -1.0193  0.5536
 6086SOL    HW224110   0.842   5.941   0.322 -1.4341  0.0990  0.4827
 6086SOL    HW324111   0.799   6.006   0.452 -0.8013 -1.6626  1.6055
 6086SOL    MW424112   0.822   5.935   0.407 -0.3777 -0.9566  0.6830
 6087SOL     OW24113   5.502   2.378   6.029 -1.2640 -0.3386 -0.4399
 6087SOL    HW224114   5.543   2.443   6.087  0.0087 -0.3327 -1.3083
 6087SOL    HW324115   5.509   2.296   6.078 -2.0022 -0.0128  0.2460
 6087SOL    MW424116   5.509   2.376   6.043 -1.1935 -0.2948 -0.4640
 6088SOL     OW24117   1.784   0.670   4.223  0.1332  0.1406 -0.0109
 6088SOL    HW224118   1.817   0.662   4.313 -0.1486  0.4315  0.1228
 6088SOL    HW324119   1.844   0.732   4.181 -0.0989  0.4830  0.1600
 6088SOL    MW424120   1.796   0.677   4.230  0.0654  0.2241  0.0293
 6089SOL     OW24121   3.226   3.062   4.914  0.2118  0.2121 -0.0270
 6089SOL    HW224122   3.141   3.058   4.958 -1.2771  0.4424 -2.6742
 6089SOL    HW324123   3.279   3.117   4.970 -1.7519  0.9910  1.1712
 6089SOL    MW424124   3.222   3.069   4.927 -0.2437  0.3453 -0.2182
 6090SOL     OW24125   2.741   0.008   1.920  0.7868  0.5526  0.0198
 6090SOL    HW224126   2.668   0.063   1.891 -0.0751  0.2139  1.4731
 6090SOL    HW324127   2.727  -0.075   1.874  0.5252  0.6359 -0.0550
 6090SOL    MW424128   2.730   0.005   1.910  0.6386  0.5189  0.2017
 6091SOL     OW24129   3.169   3.917   3.755  0.1480  0.7202  0.1848
 6091SOL    HW224130   3.244   3.871   3.794  0.4481  2.2894  1.5591
 6091SOL    HW324131   3.128   3.851   3.699  1.0321 -0.9866  1.4228
 6091SOL    MW424132   3.173   3.902   3.753  0.3042  0.7020  0.5295
 6092SOL     OW24133   5.083   3.911   0.434  0.0103 -0.2076 -0.8122
 6092SOL    HW224134   5.177   3.925   0.442  0.1068 -0.3552 -1.6696
 6092SOL    HW324135   5.060   3.857   0.510  0.6310 -0.2831 -0.6763
 6092SOL    MW424136   5.092   3.906   0.445  0.1049 -0.2370 -0.9074
 6093SOL     OW24137   1.914   1.873   5.446 -0.3374 -0.2022  0.0215
 6093SOL    HW224138   1.932   1.804   5.510  1.1844 -0.3685 -0.5534
 6093SOL    HW324139   1.975   1.857   5.375 -0.6815  1.1273 -0.6128
 6093SOL    MW424140   1.924   1.862   5.445 -0.1820 -0.0487 -0.1380
 6094SOL     OW24141   3.536   4.003   5.907  0.3164  0.1171  0.5661
 6094SOL    HW224142   3.627   4.019   5.934  0.8137 -1.8305  0.2355
 6094SOL    HW324143   3.538   4.012   5.812  0.3216 -0.5786  0.4978
 6094SOL    MW424144   3.548   4.006   5.898  0.3827 -0.2316  0.5135
 6095SOL     OW24145   1.301   3.054   5.031 -0.3028  0.2307 -0.4048
 6095SOL    HW224146   1.238   3.075   4.961  1.2949 -0.5940 -2.1891
 6095SOL    HW324147   1.376   3.111   5.012  0.5759 -0.7714  0.0068
 6095SOL    MW424148   1.303   3.064   5.019  0.0239 -0.0103 -0.5859
 6096SOL     OW24149   3.539   5.429   0.586 -0.1124 -0.8636  0.1191
 6096SOL    HW224150   3.533   5.494   0.517  1.2884  0.0667  0.8129
 6096SOL    HW324151   3.547   5.480   0.667  2.2809 -1.8187  0.5749
 6096SOL    MW424152   3.540   5.444   0.588  0.3882 -0.8669  0.2708
 6097SOL     OW24153   2.811   1.478   2.771 -0.9117  0.3967  0.1318
 6097SOL    HW224154   2.866   1.400   2.760 -1.9311 -0.6511  1.9050
 6097SOL    HW324155   2.860   1.534   2.831  0.7077  2.1306 -2.5748
 6097SOL    MW424156   2.824   1.475   2.777 -0.8325  0.4873  0.0087
 6098SOL     OW24157   0.519   6.342   6.011 -0.1041 -0.5895 -0.5258
 6098SOL    HW224158   0.494   6.311   5.925  0.5409 -1.0657 -0.5477
 6098SOL    HW324159   0.559   6.267   6.054  2.7790  0.4903 -1.0972
 6098SOL    MW424160   0.521   6.328   6.005  0.3614 -0.5099 -0.6041
 6099SOL     OW24161   5.437   2.775   2.308  0.3132 -0.5070 -0.5560
 6099SOL    HW224162   5.353   2.817   2.289  0.8329  0.6494 -0.4301
 6099SOL    HW324163   5.451   2.715   2.235  0.6006  1.2579 -2.0329
 6099SOL    MW424164   5.428   2.773   2.296  0.4197 -0.1216 -0.7343
 6100SOL     OW24165   6.432   5.591   1.032 -0.2896 -0.2604  0.3339
 6100SOL    HW224166   6.430   5.567   0.939 -1.2073 -0.9584  0.5176
 6100SOL    HW324167   6.358   5.651   1.042  0.4023  0.6013  0.4282
 6100SOL    MW424168   6.422   5.596   1.021 -0.3194 -0.2388  0.3706
 6101SOL     OW24169   5.803   5.741   1.421  0.7197  0.1705  0.4523
 6101SOL    HW224170   5.755   5.721   1.341 -0.2755 -0.9420  1.2904
 6101SOL    HW324171   5.735   5.764   1.485  1.4424  0.3944  1.1602
 6101SOL    MW424172   5.788   5.741   1.419  0.6837  0.0533  0.6562
 6102SOL     OW24173   0.397   0.043   5.538  0.3233  0.2698  0.0960
 6102SOL    HW224174   0.437   0.103   5.475 -1.5116  0.4932 -0.9219
 6102SOL    HW324175   0.372  -0.033   5.486 -1.5918  0.6292  0.4117
 6102SOL    MW424176   0.399   0.041   5.523 -0.1715  0.3467  0.0034
 6103SOL     OW24177   5.645   3.813   3.492 -0.1748  0.1163  1.0337
 6103SOL    HW224178   5.599   3.777   3.416  0.3029  0.2498  0.6766
 6103SOL    HW324179   5.592   3.889   3.518  0.0727  0.5263  0.3579
 6103SOL    MW424180   5.632   3.818   3.485 -0.0791  0.1880  0.8974
 6104SOL     OW24181   2.309   2.927   2.879  0.4096 -0.1735 -0.8372
 6104SOL    HW224182   2.263   2.885   2.952  1.5052  4.0044  2.6804
 6104SOL    HW324183   2.401   2.906   2.893  0.5927  0.2588 -1.3371
 6104SOL    MW424184   2.315   2.919   2.890  0.5783  0.4348 -0.4391
 6105SOL     OW24185   4.064   1.855   0.617  0.0004  0.1407 -0.1831
 6105SOL    HW224186   3.985   1.832   0.665 -1.1663 -0.4930 -2.2820
 6105SOL    HW324187   4.095   1.935   0.659 -1.6523  0.3190  0.8005
 6105SOL    MW424188   4.058   1.862   0.629 -0.3716  0.0806 -0.3302
 6106SOL     OW24189   3.447   6.115   0.314 -0.5706 -0.2066  0.0697
 6106SOL    HW224190   3.387   6.041   0.307 -1.3784  0.5869 -2.5930
 6106SOL    HW324191   3.527   6.085   0.272  1.0684 -1.2331  3.5376
 6106SOL    MW424192   3.449   6.101   0.308 -0.4609 -0.2373  0.1759
 6107SOL     OW24193   2.245   0.369   2.748 -0.0183 -0.3239 -0.0804
 6107SOL    HW224194   2.233   0.446   2.803  0.7032 -2.0466  2.7097
 6107SOL    HW324195   2.338   0.371   2.725  0.3838 -1.1230  1.3496
 6107SOL    MW424196   2.256   0.379   2.752  0.1299 -0.6566  0.4764
 6108SOL     OW24197   4.969   2.154   3.035 -0.1452 -0.0978  0.8097
 6108SOL    HW224198   4.993   2.148   2.943  0.4022 -1.6957  1.0247
 6108SOL    HW324199   4.997   2.242   3.062  1.0208 -0.1404 -0.1892
 6108SOL    MW424200   4.976   2.165   3.027  0.0809 -0.3143  0.7063
 6109SOL     OW24201   6.344   2.923   3.378 -0.6546 -0.1488  0.0932
 6109SOL    HW224202   6.350   2.829   3.360 -0.8885 -0.3898  1.2213
 6109SOL    HW324203   6.365   2.931   3.471  1.5556  1.1648 -0.4527
 6109SOL    MW424204   6.347   2.911   3.388 -0.3939 -0.0073  0.1700
 6110SOL     OW24205   2.325   6.241   1.576  0.1103  0.3717 -0.3615
 6110SOL    HW224206   2.377   6.207   1.503 -1.8462 -0.0731 -1.6216
 6110SOL    HW324207   2.237   6.248   1.541 -0.5329  1.9895  1.4106
 6110SOL    MW424208   2.321   6.238   1.561 -0.2327  0.5265 -0.2940
 6111SOL     OW24209   3.253   6.102   1.309 -0.2698  0.3329 -0.0646
 6111SOL    HW224210   3.246   6.162   1.235 -1.7696 -0.3476 -0.5362
 6111SOL    HW324211   3.238   6.015   1.271  1.8356 -0.3812  0.5933
 6111SOL    MW424212   3.250   6.098   1.294 -0.1899  0.1489 -0.0400
 6112SOL     OW24213   5.529   6.363   4.712 -0.2460  0.0831 -0.3657
 6112SOL    HW224214   5.555   6.301   4.780 -0.7434 -0.2128 -0.4425
 6112SOL    HW324215   5.604   6.422   4.705 -0.3250  0.3314  0.6794
 6112SOL    MW424216   5.542   6.362   4.720 -0.3221  0.0768 -0.2380
 6113SOL     OW24217   4.602   5.918   3.053  0.6243 -0.5104  0.3773
 6113SOL    HW224218   4.605   5.839   3.000  0.5979  0.3159 -0.9072
 6113SOL    HW324219   4.691   5.930   3.085  0.7857 -0.6932 -0.0004
 6113SOL    MW424220   4.614   5.909   3.050  0.6421 -0.4255  0.1580
 6114SOL     OW24221   1.649   0.562   5.976  0.2840  0.4766 -0.5771
 6114SOL    HW224222   1.691   0.617   5.910  1.7064 -0.6509 -0.6830
 6114SOL    HW324223   1.716   0.497   5.999 -0.5579  0.1534  1.1583
 6114SOL    MW424224   1.664   0.560   5.970  0.3606  0.2852 -0.3621
 6115SOL     OW24225   4.552   3.566   4.655 -0.4548  0.0653  0.1874
 6115SOL    HW224226   4.460   3.541   4.652 -0.7704  1.1183  0.4423
 6115SOL    HW324227   4.592   3.522   4.580 -1.4222  0.5303 -0.6187
 6115SOL    MW424228   4.545   3.557   4.644 -0.6241  0.2656  0.1146
 6116SOL     OW24229   5.016   1.792   0.675  0.2453 -0.3516  0.0514
 6116SOL    HW224230   5.024   1.709   0.628  1.0373 -0.2387 -0.0332
 6116SOL    HW324231   4.993   1.855   0.607  0.0594 -0.4322  0.0415
 6116SOL    MW424232   5.014   1.790   0.660  0.3253 -0.3473  0.0389
 6117SOL     OW24233   5.290   5.595   0.378  0.6320  0.7820  0.2094
 6117SOL    HW224234   5.272   5.687   0.396 -2.8045 -0.1119  2.4312
 6117SOL    HW324235   5.245   5.577   0.295  2.0204  1.2342 -0.6649
 6117SOL    MW424236   5.282   5.605   0.370  0.3618  0.7238  0.3872
 6118SOL     OW24237   6.123   4.113   1.867 -0.0531  0.0142  0.0595
 6118SOL    HW224238   6.068   4.184   1.834  0.4534 -0.4527 -1.9718
 6118SOL    HW324239   6.067   4.036   1.865 -0.1109  0.0414  0.6164
 6118SOL    MW424240   6.108   4.112   1.862  0.0061 -0.0438 -0.1350
 6119SOL     OW24241   4.266   4.888   2.233 -0.3712 -0.6843 -0.6427
 6119SOL    HW224242   4.300   4.799   2.221  1.2602 -0.0778 -0.7732
 6119SOL    HW324243   4.344   4.943   2.239 -1.1499  0.3213  3.3265
 6119SOL    MW424244   4.281   4.884   2.232 -0.2587 -0.4716 -0.1362
 6120SOL     OW24245   2.614   1.336   4.326  0.0162  0.2967 -0.0135
 6120SOL    HW224246   2.602   1.424   4.291  0.5113 -0.7068 -3.0608
 6120SOL    HW324247   2.525   1.304   4.342 -0.1372  1.8506  2.8410
 6120SOL    MW424248   2.600   1.343   4.323  0.0613  0.3693 -0.0389
 6121SOL     OW24249   0.711   3.234   4.232  0.1170 -0.1072 -0.4589
 6121SOL    HW224250   0.711   3.327   4.252 -0.9681 -0.6005  2.2239
 6121SOL    HW324251   0.755   3.193   4.307 -1.7217 -1.9387 -0.2882
 6121SOL    MW424252   0.717   3.241   4.245 -0.2687 -0.4139 -0.0824
 6122SOL     OW24253   5.263   3.175   3.866 -0.3675  0.2238 -0.0869
 6122SOL    HW224254   5.207   3.100   3.845 -0.2511 -0.8582  2.9921
 6122SOL    HW324255   5.351   3.147   3.843 -0.3028 -0.6851  1.2121
 6122SOL    MW424256   5.267   3.162   3.860 -0.3436 -0.0389  0.4907
 6123SOL     OW24257   3.070   4.485   2.811  0.1617 -0.0891  0.2848
 6123SOL    HW224258   3.042   4.557   2.754 -1.0980  0.3062  1.3316
 6123SOL    HW324259   3.162   4.503   2.829 -0.0681  1.1567  0.3424
 6123SOL    MW424260   3.078   4.497   2.806 -0.0348  0.1274  0.4305
 6124SOL     OW24261   5.880   6.404   6.225  0.3582  0.4902 -0.3018
 6124SOL    HW224262   5.897   6.351   6.303  0.9125  0.5079 -0.4052
 6124SOL    HW324263   5.820   6.351   6.173  2.2764 -0.8703 -1.2494
 6124SOL    MW424264   5.874   6.390   6.229  0.6844  0.3131 -0.4405
 6125SOL     OW24265   6.156   5.202   2.653  0.3911 -0.3715 -0.6899
 6125SOL    HW224266   6.193   5.129   2.702  0.1118 -0.1819 -0.1918
 6125SOL    HW324267   6.082   5.232   2.706 -2.3112 -2.5097 -2.9065
 6125SOL    MW424268   6.151   5.197   2.666 -0.0023 -0.6286 -0.9167
 6126SOL     OW24269   3.265   1.607   0.272  0.4531 -0.1466 -0.3303
 6126SOL    HW224270   3.229   1.541   0.331  0.4492 -0.4018 -0.6150
 6126SOL    HW324271   3.300   1.674   0.330 -1.6988  0.8019 -0.0322
 6126SOL    MW424272   3.265   1.607   0.287  0.1686 -0.0551 -0.3286
 6127SOL     OW24273   4.863   2.807   3.423 -0.3388 -0.0563 -0.2151
 6127SOL    HW224274   4.940   2.777   3.376  0.1402  0.0112  0.5108
 6127SOL    HW324275   4.895   2.876   3.482 -1.1158  0.6547 -0.5895
 6127SOL    MW424276   4.877   2.812   3.425 -0.3781  0.0464 -0.1687
 6128SOL     OW24277   3.717   4.025   4.109  0.0998  0.5245  0.5720
 6128SOL    HW224278   3.721   4.037   4.014 -0.2422  1.3166  0.6497
 6128SOL    HW324279   3.809   4.017   4.136  0.2077  0.4958  0.1969
 6128SOL    MW424280   3.730   4.026   4.100  0.0689  0.6252  0.5327
 6129SOL     OW24281   4.687   3.761   2.880 -0.2863  0.1290  0.1808
 6129SOL    HW224282   4.624   3.738   2.812  1.7125 -1.0160 -1.4121
 6129SOL    HW324283   4.644   3.828   2.932 -3.1685 -1.2973 -0.2091
 6129SOL    MW424284   4.673   3.767   2.878 -0.4028 -0.2102 -0.0808
 6130SOL     OW24285   4.349   0.845   4.485 -0.2726 -0.1587  0.1441
 6130SOL    HW224286   4.371   0.905   4.414 -0.3736 -0.6406 -0.3078
 6130SOL    HW324287   4.342   0.759   4.442 -0.5279 -0.4240  0.7038
 6130SOL    MW424288   4.351   0.841   4.470 -0.3196 -0.2573  0.1583
 6131SOL     OW24289   2.910   6.084   1.633  0.5506  0.1413 -0.3187
 6131SOL    HW224290   2.830   6.132   1.612 -0.8539 -0.8529  2.3581
 6131SOL    HW324291   2.912   6.011   1.571 -0.2058  0.5828 -0.8761
 6131SOL    MW424292   2.900   6.081   1.622  0.2655  0.0684 -0.0391
 6132SOL     OW24293   2.937   3.142   1.999  0.3348  0.5131 -0.1998
 6132SOL    HW224294   2.850   3.180   2.015 -1.3938 -2.1779 -2.3580
 6132SOL    HW324295   2.987   3.165   2.077 -2.0161  2.9056  0.7646
 6132SOL    MW424296   2.932   3.150   2.012 -0.2035  0.4737 -0.3573
 6133SOL     OW24297   1.391   3.021   1.802 -0.7038 -0.0505 -0.1132
 6133SOL    HW224298   1.352   2.941   1.767 -0.0270  0.1181 -1.3347
 6133SOL    HW324299   1.479   2.995   1.829 -0.4543  0.2884 -0.5868
 6133SOL    MW424300   1.397   3.007   1.801 -0.5816  0.0164 -0.3369
 6134SOL     OW24301   0.996   2.150   1.868 -0.2127  0.6971  0.0939
 6134SOL    HW224302   1.060   2.212   1.833  0.2584  0.0897 -0.1465
 6134SOL    HW324303   0.912   2.183   1.836  0.1636  0.3967 -1.3008
 6134SOL    MW424304   0.994   2.163   1.859 -0.1009  0.5773 -0.1219
 6135SOL     OW24305   3.933   5.492   5.079  0.1890 -0.7479  0.3600
 6135SOL    HW224306   3.924   5.530   4.992  0.0933 -3.9995 -1.2056
 6135SOL    HW324307   4.025   5.506   5.103 -0.5325  3.2408  1.4491
 6135SOL    MW424308   3.944   5.499   5.071  0.0812 -0.6507  0.2971
 6136SOL     OW24309   5.841   1.234   0.830 -0.0854  0.1942 -0.4329
 6136SOL    HW224310   5.802   1.261   0.747 -1.3548 -0.2434 -0.0107
 6136SOL    HW324311   5.841   1.139   0.827 -1.7835  0.0983  0.7309
 6136SOL    MW424312   5.836   1.225   0.819 -0.4769  0.1238 -0.2237
 6137SOL     OW24313   3.936   4.153   3.315 -0.0379  0.4788  0.3286
 6137SOL    HW224314   3.948   4.209   3.391 -0.4375  1.6495 -0.4311
 6137SOL    HW324315   3.913   4.214   3.244  0.4951 -0.5444 -0.7639
 6137SOL    MW424316   3.935   4.168   3.315 -0.0203  0.4983  0.0843
 6138SOL     OW24317   3.283   4.762   0.178  1.0376 -0.0140 -0.5154
 6138SOL    HW224318   3.214   4.757   0.244  0.1110  0.9343 -1.3773
 6138SOL    HW324319   3.263   4.841   0.128  2.5277  0.0557 -1.0488
 6138SOL    MW424320   3.271   4.771   0.180  1.1120  0.1203 -0.6995
 6139SOL     OW24321   0.428   5.961   1.922 -0.5875  0.0598  0.3549
 6139SOL    HW224322   0.350   5.968   1.976 -0.1474 -0.0795  1.0229
 6139SOL    HW324323   0.501   5.957   1.985 -0.0478  0.1516 -0.2505
 6139SOL    MW424324   0.428   5.961   1.937 -0.4582  0.0535  0.3631
 6140SOL     OW24325   5.780   1.523   1.697 -0.3646 -0.3062  0.2868
 6140SOL    HW224326   5.788   1.587   1.768  2.3433  0.0696 -0.2506
 6140SOL    HW324327   5.716   1.561   1.637 -0.2223  0.9529  0.9158
 6140SOL    MW424328   5.772   1.536   1.699  0.0114 -0.0905  0.2989
 6141SOL     OW24329   3.480   1.303   1.880  0.5078  0.2729 -0.0534
 6141SOL    HW224330   3.464   1.309   1.786 -0.1052  0.9128  0.0786
 6141SOL    HW324331   3.395   1.322   1.919  1.0175  1.2039  0.6481
 6141SOL    MW424332   3.467   1.306   1.873  0.4941  0.4802  0.0566
 6142SOL     OW24333   1.766   5.122   0.450  0.0173  0.5299  0.3137
 6142SOL    HW224334   1.684   5.168   0.470 -0.5932 -0.8612  1.1088
 6142SOL    HW324335   1.799   5.094   0.535 -0.4499 -1.8631 -0.2425
 6142SOL    MW424336   1.760   5.125   0.464 -0.1249  0.0306  0.3452
 6143SOL     OW24337   0.731   2.572   4.000  0.7074  0.2496 -0.2200
 6143SOL    HW224338   0.680   2.508   4.050 -0.7487  1.7581  0.3165
 6143SOL    HW324339   0.731   2.538   3.911 -1.4119  0.2557 -0.2713
 6143SOL    MW424340   0.724   2.559   3.995  0.2357  0.4494 -0.1560
 6144SOL     OW24341   2.414   4.709   0.243  0.2042  0.2232 -0.1879
 6144SOL    HW224342   2.376   4.621   0.237 -0.6484  0.6696 -1.9700
 6144SOL    HW324343   2.340   4.768   0.226  1.1957  1.2147 -1.1626
 6144SOL    MW424344   2.399   4.705   0.240  0.2225  0.4129 -0.5516
 6145SOL     OW24345   6.186   6.086   2.680  0.2281 -0.1629  0.0223
 6145SOL    HW224346   6.143   6.118   2.759  0.0409 -0.8868  0.2220
 6145SOL    HW324347   6.265   6.042   2.712 -1.2003 -2.8887  0.1185
 6145SOL    MW424348   6.191   6.085   2.695  0.0149 -0.6180  0.0613
 6146SOL     OW24349   3.957   2.142   0.162  0.0706  0.0419 -0.1928
 6146SOL    HW224350   4.048   2.163   0.139  0.2262  1.1610  1.2479
 6146SOL    HW324351   3.962   2.118   0.255 -1.3229  1.8671  0.4054
 6146SOL    MW424352   3.970   2.142   0.172 -0.0928  0.4304  0.0762
 6147SOL     OW24353   6.123   4.212   0.737  0.6330 -0.2183  0.0480
 6147SOL    HW224354   6.080   4.128   0.747  2.1560 -1.0528 -0.0428
 6147SOL    HW324355   6.139   4.220   0.643 -2.5364  1.8157 -0.4486
 6147SOL    MW424356   6.120   4.202   0.726  0.4158 -0.0600 -0.0295
 6148SOL     OW24357   5.027   0.120   0.396 -0.2712 -0.3282 -0.2346
 6148SOL    HW224358   4.960   0.161   0.341  0.7170 -0.7156 -1.7720
 6148SOL    HW324359   5.109   0.132   0.348  0.4701 -1.6024  0.6462
 6148SOL    MW424360   5.029   0.127   0.382 -0.0430 -0.5475 -0.3212
 6149SOL     OW24361   0.491   2.795   3.344  0.4302  0.6552  0.2367
 6149SOL    HW224362   0.515   2.785   3.252 -0.1854  0.5749  0.0816
 6149SOL    HW324363   0.398   2.816   3.343  0.3292  0.2798  0.8605
 6149SOL    MW424364   0.482   2.797   3.332  0.3357  0.5951  0.2986
 6150SOL     OW24365   0.420   0.502   5.122 -0.2070  0.1984 -0.3498
 6150SOL    HW224366   0.477   0.426   5.114  1.8760  1.8187 -2.1328
 6150SOL    HW324367   0.333   0.470   5.098  0.6052 -1.6198 -1.0257
 6150SOL    MW424368   0.416   0.488   5.118  0.1750  0.1723 -0.6742
 6151SOL     OW24369   1.249   5.470   0.992  0.0268  0.2162 -0.0781
 6151SOL    HW224370   1.243   5.554   1.037 -0.5892  0.6933 -1.0372
 6151SOL    HW324371   1.181   5.473   0.924  0.3603 -0.8361 -0.4853
 6151SOL    MW424372   1.239   5.481   0.989 -0.0104  0.1403 -0.2584
 6152SOL     OW24373   3.444   0.879   3.510  0.2650  0.3039 -0.1523
 6152SOL    HW224374   3.441   0.783   3.514 -0.6156  0.3653  1.9428
 6152SOL    HW324375   3.538   0.900   3.506  0.7634 -0.6368  3.4549
 6152SOL    MW424376   3.456   0.869   3.510  0.2146  0.1879  0.6000
 6153SOL     OW24377   4.082   4.233   1.469  0.3297  0.4445 -0.5027
 6153SOL    HW224378   4.148   4.192   1.525  0.1953  0.5748 -0.2530
 6153SOL    HW324379   4.024   4.160   1.444 -1.4256  0.8611  1.9956
 6153SOL    MW424380   4.083   4.218   1.473  0.0804  0.5167 -0.1401
 6154SOL     OW24381   0.636   1.543   0.867 -0.8072  0.2433 -0.0914
 6154SOL    HW224382   0.552   1.571   0.830  0.0693  2.9553 -0.2648
 6154SOL    HW324383   0.690   1.524   0.791 -0.9323 -0.4885 -0.0031
 6154SOL    MW424384   0.632   1.544   0.852 -0.7081  0.5046 -0.1026
 6155SOL     OW24385   3.705   1.794   4.845 -0.1134  0.0650 -1.0419
 6155SOL    HW224386   3.741   1.736   4.912  0.2081 -0.0655 -1.3254
 6155SOL    HW324387   3.628   1.748   4.812 -1.1891  0.7977  0.2839
 6155SOL    MW424388   3.699   1.780   4.850 -0.2129  0.1445 -0.9044
 6156SOL     OW24389   2.165   3.210   4.934  0.0850  0.0954 -0.3623
 6156SOL    HW224390   2.100   3.152   4.973  0.5995 -0.8344 -0.8557
 6156SOL    HW324391   2.134   3.298   4.954 -1.6071 -0.3151 -1.0256
 6156SOL    MW424392   2.153   3.214   4.941 -0.0703 -0.0814 -0.5149
 6157SOL     OW24393   3.169   1.007   0.234  0.1530 -0.0338 -0.1819
 6157SOL    HW224394   3.264   1.006   0.251 -0.1793  1.3799  2.1330
 6157SOL    HW324395   3.129   0.986   0.318 -1.6182 -0.4822 -1.0900
 6157SOL    MW424396   3.177   1.004   0.247 -0.1246  0.0935  0.0037
 6158SOL     OW24397   0.837   1.888   3.396 -0.1964 -0.1263 -0.1351
 6158SOL    HW224398   0.865   1.808   3.440  1.4388 -0.2697 -1.3320
 6158SOL    HW324399   0.825   1.952   3.466  1.5387 -0.5624  0.6165
 6158SOL    MW424400   0.839   1.886   3.411  0.2483 -0.2027 -0.1938
 6159SOL     OW24401   5.117   3.500   5.332  0.1488 -0.3052 -0.3483
 6159SOL    HW224402   5.205   3.506   5.296 -0.1298  0.6232 -0.9078
 6159SOL    HW324403   5.112   3.572   5.395 -0.4715  0.1584 -0.9164
 6159SOL    MW424404   5.128   3.510   5.335  0.0302 -0.1215 -0.4970
 6160SOL     OW24405   2.528   2.180   5.823  0.0820 -0.7221 -0.0458
 6160SOL    HW224406   2.450   2.234   5.840  0.6172  1.3780 -3.2304
 6160SOL    HW324407   2.509   2.097   5.865 -2.1716  0.9266  2.5968
 6160SOL    MW424408   2.515   2.176   5.831 -0.1447 -0.2275 -0.1173
 6161SOL     OW24409   1.163   5.618   3.891  0.0920  0.3855 -0.6623
 6161SOL    HW224410   1.179   5.678   3.819 -0.7453  1.6861  0.1920
 6161SOL    HW324411   1.199   5.662   3.968  2.3112 -1.6053 -0.4238
 6161SOL    MW424412   1.170   5.631   3.892  0.2743  0.2945 -0.5181
 6162SOL     OW24413   3.725   6.316   3.099  0.0083 -0.1592  0.3610
 6162SOL    HW224414   3.709   6.264   3.178 -0.0828  0.8988  1.0604
 6162SOL    HW324415   3.802   6.276   3.059  0.1291 -0.6280  1.0461
 6162SOL    MW424416   3.733   6.303   3.104  0.0122 -0.0814  0.5436
 6163SOL     OW24417   3.910   5.463   0.778  0.0958 -0.1065 -0.0168
 6163SOL    HW224418   3.932   5.413   0.857 -0.8390 -1.3533 -0.5211
 6163SOL    HW324419   3.909   5.554   0.808  0.9787 -0.4355  1.1208
 6163SOL    MW424420   3.913   5.469   0.792  0.0890 -0.3144  0.0667
 6164SOL     OW24421   0.297   2.332   5.441 -0.4501 -0.5800  0.3585
 6164SOL    HW224422   0.352   2.302   5.513 -0.9288 -0.6858  0.6866
 6164SOL    HW324423   0.215   2.358   5.483 -1.3968 -2.3029 -0.3181
 6164SOL    MW424424   0.293   2.332   5.456 -0.6381 -0.8213  0.3126
 6165SOL     OW24425   0.361   3.670   0.190 -0.0880  0.6035  0.0423
 6165SOL    HW224426   0.389   3.724   0.265 -2.8223  2.5974 -0.2130
 6165SOL    HW324427   0.276   3.635   0.217 -0.1445 -0.3934 -1.3608
 6165SOL    MW424428   0.354   3.673   0.204 -0.4562  0.7351 -0.1765
 6166SOL     OW24429   4.198   3.959   5.952  1.3282  0.3221 -0.1040
 6166SOL    HW224430   4.154   3.966   6.037  0.4863 -1.2036 -0.3899
 6166SOL    HW324431   4.252   4.038   5.947  0.7610  0.8505  1.4823
 6166SOL    MW424432   4.199   3.971   5.963  1.1423  0.1905  0.0675
 6167SOL     OW24433   4.977   5.700   2.878  0.1967  0.6765  0.4825
 6167SOL    HW224434   4.901   5.718   2.822 -0.5255  0.2692  1.3008
 6167SOL    HW324435   5.011   5.617   2.846 -0.2460  0.4176  0.6858
 6167SOL    MW424436   4.971   5.692   2.866  0.0430  0.5886  0.6173
 6168SOL     OW24437   1.994   1.540   6.376 -0.8790  0.2440 -0.1103
 6168SOL    HW224438   2.064   1.551   6.312 -0.5991  0.2595  0.1915
 6168SOL    HW324439   1.920   1.507   6.326 -0.8285  0.7630 -0.5292
 6168SOL    MW424440   1.994   1.537   6.361 -0.8354  0.3145 -0.1258
 6169SOL     OW24441   3.465   4.710   3.822 -0.7120 -0.4879 -0.0161
 6169SOL    HW224442   3.511   4.667   3.894 -0.2145 -2.6355 -1.5094
 6169SOL    HW324443   3.530   4.718   3.753 -2.4583 -4.1775 -2.4239
 6169SOL    MW424444   3.480   4.705   3.823 -0.8768 -1.2581 -0.5308
 6170SOL     OW24445   0.074   5.193   1.849  0.4930 -0.1403 -0.4387
 6170SOL    HW224446   0.056   5.100   1.858 -0.2698  0.1350  1.1515
 6170SOL    HW324447   0.018   5.221   1.777 -1.0753 -0.4750  0.6055
 6170SOL    MW424448   0.064   5.184   1.840  0.1855 -0.1481 -0.0912
 6171SOL     OW24449   4.563   6.280   5.032 -0.4156  0.0423 -0.2780
 6171SOL    HW224450   4.582   6.354   4.975  1.4504  1.0793  1.5644
 6171SOL    HW324451   4.563   6.317   5.120  1.6941 -2.3065  0.8158
 6171SOL    MW424452   4.565   6.294   5.036  0.1090 -0.1308  0.1094
 6172SOL     OW24453   5.783   3.533   0.995 -0.4121 -0.3610 -0.5150
 6172SOL    HW224454   5.740   3.452   0.970  1.8489 -1.6341 -0.5037
 6172SOL    HW324455   5.749   3.598   0.933 -1.6353 -1.4703 -1.0562
 6172SOL    MW424456   5.773   3.531   0.984 -0.2752 -0.6754 -0.5849
 6173SOL     OW24457   3.215   6.306   1.120  0.1184 -0.2780 -0.0083
 6173SOL    HW224458   3.148   6.299   1.052  0.9494  1.4315 -1.0803
 6173SOL    HW324459   3.270   6.379   1.091  0.9333  0.0244  2.1477
 6173SOL    MW424460   3.213   6.315   1.107  0.3355 -0.0126  0.1347
 6174SOL     OW24461   1.145   5.237   4.292  0.0360  0.9906  0.0785
 6174SOL    HW224462   1.170   5.260   4.382  1.1816  1.1565 -0.2586
 6174SOL    HW324463   1.195   5.156   4.275 -1.2158  0.2022  0.0429
 6174SOL    MW424464   1.155   5.229   4.302  0.0220  0.9085  0.0293
 6175SOL     OW24465   2.147   2.407   3.653  0.3400  0.5011 -0.2993
 6175SOL    HW224466   2.137   2.421   3.747  0.7524  0.2901 -0.2237
 6175SOL    HW324467   2.164   2.495   3.618 -0.7222  0.7164 -0.3015
 6175SOL    MW424468   2.148   2.421   3.661  0.2543  0.5016 -0.2896
 6176SOL     OW24469   5.084   5.547   4.572 -0.5224 -0.1788 -0.6141
 6176SOL    HW224470   5.072   5.500   4.655  0.7181 -0.4526 -0.5718
 6176SOL    HW324471   5.074   5.640   4.596 -0.1984 -0.2564 -0.1453
 6176SOL    MW424472   5.081   5.553   4.586 -0.3160 -0.2252 -0.5467
 6177SOL     OW24473   3.189   4.720   5.977  0.3400  0.0758 -0.1627
 6177SOL    HW224474   3.169   4.712   6.070  0.2482  0.1305 -0.1774
 6177SOL    HW324475   3.279   4.752   5.973  0.4189 -0.1390 -0.0949
 6177SOL    MW424476   3.198   4.723   5.989  0.3383  0.0547 -0.1557
 6178SOL     OW24477   2.258   0.682   4.670  0.0966 -0.0930 -0.2778
 6178SOL    HW224478   2.268   0.594   4.635  0.0682  1.2287 -3.9775
 6178SOL    HW324479   2.344   0.722   4.663 -0.2974  0.7676 -0.3862
 6178SOL    MW424480   2.270   0.676   4.665  0.0409  0.1949 -0.7802
 6179SOL     OW24481   6.314   0.793   5.840 -0.5573  0.1782  0.0842
 6179SOL    HW224482   6.270   0.847   5.774 -2.0808 -0.1226  0.8082
 6179SOL    HW324483   6.389   0.755   5.793 -1.8513 -0.4013 -1.6152
 6179SOL    MW424484   6.318   0.795   5.825 -0.9290  0.0620 -0.0445
 6180SOL     OW24485   4.286   2.525   6.251  0.0051 -0.1025 -0.0244
 6180SOL    HW224486   4.249   2.611   6.270 -0.5584 -0.7364  1.9016
 6180SOL    HW324487   4.226   2.462   6.291  0.9334 -1.3615 -0.5128
 6180SOL    MW424488   4.273   2.528   6.259  0.0532 -0.3523  0.1652
 6181SOL     OW24489   3.704   5.320   5.755  0.3267  0.6351  0.4933
 6181SOL    HW224490   3.783   5.352   5.800  2.1620 -1.5896 -0.9141
 6181SOL    HW324491   3.711   5.354   5.666 -1.5028  2.1895  0.8826
 6181SOL    MW424492   3.715   5.329   5.749  0.3275  0.5467  0.3590
 6182SOL     OW24493   1.097   0.409   2.028  0.4624  0.5272  0.1763
 6182SOL    HW224494   1.047   0.391   2.108  2.2029 -2.0191  0.7985
 6182SOL    HW324495   1.102   0.505   2.024 -1.4354  0.7805  1.9513
 6182SOL    MW424496   1.091   0.419   2.038  0.4416  0.2247  0.4926
 6183SOL     OW24497   6.358   2.591   4.681 -0.4072 -0.1962 -0.7411
 6183SOL    HW224498   6.336   2.575   4.772 -0.5224 -0.3275 -0.7911
 6183SOL    HW324499   6.357   2.687   4.672 -0.6976 -0.1907 -0.6777
 6183SOL    MW424500   6.355   2.602   4.692 -0.4607 -0.2128 -0.7393
 6184SOL     OW24501   0.758   5.475   0.211  0.5584 -1.0117  0.2021
 6184SOL    HW224502   0.713   5.390   0.212 -1.1016 -0.1746 -0.1306
 6184SOL    HW324503   0.761   5.500   0.119  0.4862 -0.4431  0.3491
 6184SOL    MW424504   0.752   5.467   0.199  0.3298 -0.8262  0.1776
 6185SOL     OW24505   4.192   4.358   5.538  0.3525  0.4413 -0.7522
 6185SOL    HW224506   4.190   4.267   5.508  1.2912  0.5805 -1.2492
 6185SOL    HW324507   4.173   4.352   5.632 -0.7802 -0.1544 -1.0024
 6185SOL    MW424508   4.189   4.345   5.547  0.3269  0.3811 -0.8508
 6186SOL     OW24509   0.984   0.287   4.240  0.7039 -0.0234  0.0016
 6186SOL    HW224510   0.976   0.205   4.288 -0.4005 -0.3344 -0.6825
 6186SOL    HW324511   0.897   0.327   4.244  1.4844  1.6746  1.2627
 6186SOL    MW424512   0.972   0.282   4.247  0.6612  0.1596  0.0777
 6187SOL     OW24513   0.804   0.076   2.521  0.0489 -0.5823  0.0800
 6187SOL    HW224514   0.892   0.059   2.556 -0.4237  0.1025  1.7052
 6187SOL    HW324515   0.751   0.003   2.555 -0.2877 -0.2511  0.2653
 6187SOL    MW424516   0.809   0.064   2.530 -0.0579 -0.4482  0.3189
 6188SOL     OW24517   0.749   5.004   3.251  0.2947  0.4609  0.3130
 6188SOL    HW224518   0.827   5.009   3.307  0.2259 -2.1215  0.7492
 6188SOL    HW324519   0.740   4.911   3.231 -0.4905  1.1419 -2.9335
 6188SOL    MW424520   0.758   4.992   3.256  0.1820  0.2101 -0.0578
 6189SOL     OW24521   1.281   5.535   5.724  0.0412  0.2804  0.4936
 6189SOL    HW224522   1.312   5.450   5.756  1.5805  0.1943 -1.0815
 6189SOL    HW324523   1.188   5.522   5.707  0.5979 -1.7235 -1.5405
 6189SOL    MW424524   1.273   5.522   5.726  0.3177  0.0047  0.0174
 6190SOL     OW24525   0.903   5.467   0.857 -0.1409  0.4252  0.4520
 6190SOL    HW224526   0.930   5.522   0.783 -1.2382 -0.1688 -0.4320
 6190SOL    HW324527   0.819   5.504   0.885 -0.7837 -0.6140 -0.0130
 6190SOL    MW424528   0.895   5.479   0.851 -0.3704  0.2097  0.2740
 6191SOL     OW24529   3.952   1.135   0.356 -0.3575 -0.0089 -0.2023
 6191SOL    HW224530   3.950   1.209   0.416  0.8180 -0.5114  0.4849
 6191SOL    HW324531   3.908   1.064   0.405  0.9083 -0.5172  0.2297
 6191SOL    MW424532   3.946   1.135   0.371 -0.0354 -0.1423 -0.0547
 6192SOL     OW24533   5.329   2.395   0.113  0.0816 -0.2965  0.7282
 6192SOL    HW224534   5.334   2.359   0.202  1.1188 -2.0374  0.0289
 6192SOL    HW324535   5.324   2.317   0.057  1.7192  0.6710 -0.8489
 6192SOL    MW424536   5.329   2.380   0.117  0.4345 -0.3985  0.4278
 6193SOL     OW24537   1.215   1.006   6.143  0.7052  0.4051  0.4815
 6193SOL    HW224538   1.270   0.933   6.173 -0.3534 -0.6120  0.0337
 6193SOL    HW324539   1.142   0.963   6.097  0.5404  1.7899 -0.5924
 6193SOL    MW424540   1.213   0.991   6.141  0.5438  0.4536  0.2807
 6194SOL     OW24541   4.261   4.597   2.214  0.2814 -0.1839 -0.2863
 6194SOL    HW224542   4.230   4.607   2.124 -1.1266 -1.3030  0.0290
 6194SOL    HW324543   4.323   4.524   2.209  0.8982  0.3521 -0.4947
 6194SOL    MW424544   4.265   4.588   2.201  0.1770 -0.2608 -0.2722
 6195SOL     OW24545   1.890   3.312   3.988  0.2474 -0.3244 -0.0651
 6195SOL    HW224546   1.916   3.222   4.005  0.6878 -0.1670  0.1163
 6195SOL    HW324547   1.970   3.363   4.002 -0.2961  0.2444  1.0698
 6195SOL    MW424548   1.904   3.307   3.992  0.2338 -0.2286  0.1086
 6196SOL     OW24549   4.810   4.276   5.146  0.3911 -0.4545  0.1735
 6196SOL    HW224550   4.730   4.225   5.149  0.6599 -0.9114 -0.3401
 6196SOL    HW324551   4.789   4.357   5.193 -0.5393 -0.3347 -0.4369
 6196SOL    MW424552   4.797   4.280   5.152  0.3038 -0.4990  0.0252
 6197SOL     OW24553   4.005   0.494   3.045 -0.1870  0.0057  0.1897
 6197SOL    HW224554   4.061   0.430   3.089 -1.7539 -3.0946 -1.9332
 6197SOL    HW324555   4.052   0.515   2.964 -0.3266  0.4551  0.2209
 6197SOL    MW424556   4.019   0.488   3.040 -0.4121 -0.3441 -0.0863
 6198SOL     OW24557   3.099   0.140   3.549  0.4507 -0.5009 -0.2281
 6198SOL    HW224558   3.031   0.198   3.584 -0.0954 -1.4547  0.3509
 6198SOL    HW324559   3.169   0.144   3.615 -0.2813 -1.7465  0.6746
 6198SOL    MW424560   3.100   0.148   3.563  0.2821 -0.7911 -0.0326
 6199SOL     OW24561   2.303   0.102   5.511 -0.2152  0.1732 -0.3603
 6199SOL    HW224562   2.327   0.034   5.573 -2.3500  0.2085  0.5877
 6199SOL    HW324563   2.367   0.094   5.440  0.2191 -2.1220  0.2197
 6199SOL    MW424564   2.315   0.092   5.510 -0.4395 -0.1249 -0.1587
 6200SOL     OW24565   2.019   4.240   2.426 -0.8462 -0.1988  0.3736
 6200SOL    HW224566   2.060   4.202   2.349 -0.2752 -0.6619  0.8904
 6200SOL    HW324567   2.003   4.331   2.403 -0.1779 -0.1922 -0.0970
 6200SOL    MW424568   2.022   4.247   2.413 -0.6827 -0.2590  0.3797
 6201SOL     OW24569   1.586   0.308   4.447 -0.0172 -0.2102  0.5624
 6201SOL    HW224570   1.641   0.313   4.368  2.4445 -0.9001  2.1215
 6201SOL    HW324571   1.507   0.263   4.417  1.2089 -1.2676 -1.3469
 6201SOL    MW424572   1.583   0.302   4.432  0.4693 -0.4408  0.5162
 6202SOL     OW24573   5.916   5.239   6.284  0.0598  0.3196 -0.2498
 6202SOL    HW224574   6.008   5.259   6.303 -0.0553 -0.5646  1.3292
 6202SOL    HW324575   5.867   5.309   6.326 -0.0778 -0.3219  0.6778
 6202SOL    MW424576   5.922   5.251   6.292  0.0264  0.1183  0.0809
 6203SOL     OW24577   3.051   2.323   4.035  0.4020  0.1685 -0.1789
 6203SOL    HW224578   3.080   2.238   4.068 -0.2842 -0.2662 -0.6588
 6203SOL    HW324579   2.988   2.354   4.101  1.4888  0.8511  0.5757
 6203SOL    MW424580   3.047   2.316   4.048  0.4549  0.2012 -0.1427
 6204SOL     OW24581   4.553   5.304   6.253  0.2990  0.1370  0.1133
 6204SOL    HW224582   4.520   5.278   6.339 -0.1076  1.9784  0.5446
 6204SOL    HW324583   4.561   5.221   6.205 -1.7581 -0.6976  1.0963
 6204SOL    MW424584   4.550   5.289   6.258 -0.0260  0.2699  0.2999
 6205SOL     OW24585   6.095   2.414   5.628  0.6259  0.2272  0.4605
 6205SOL    HW224586   6.112   2.476   5.698 -1.2589  1.8591 -0.4519
 6205SOL    HW324587   6.036   2.349   5.667  0.6299  0.3911  0.7390
 6205SOL    MW424588   6.089   2.413   5.642  0.3778  0.4641  0.3769
 6206SOL     OW24589   4.269   5.442   5.599  0.0198  0.0978 -0.1110
 6206SOL    HW224590   4.189   5.389   5.601  1.2901 -1.9191 -0.2017
 6206SOL    HW324591   4.321   5.410   5.673  0.4564  1.9215  0.4342
 6206SOL    MW424592   4.265   5.431   5.609  0.2450  0.0723 -0.0510
 6207SOL     OW24593   5.477   0.758   4.458 -0.1508  0.2160 -0.5523
 6207SOL    HW224594   5.465   0.803   4.542  0.3090  0.4494 -0.6107
 6207SOL    HW324595   5.564   0.719   4.463 -1.0086 -1.7660 -0.0047
 6207SOL    MW424596   5.487   0.759   4.470 -0.2033 -0.0147 -0.4878
 6208SOL     OW24597   4.221   4.198   0.275 -0.4833  0.2735 -0.3229
 6208SOL    HW224598   4.265   4.113   0.281  0.6425  0.9467  1.5116
 6208SOL    HW324599   4.231   4.238   0.361 -1.8859  1.8629 -0.8266
 6208SOL    MW424600   4.228   4.192   0.287 -0.5198  0.5720 -0.1473
 6209SOL     OW24601   0.575   2.423   4.430  0.4728  0.0264  0.3217
 6209SOL    HW224602   0.613   2.383   4.509 -1.1616 -2.0424  0.1432
 6209SOL    HW324603   0.484   2.440   4.453  0.3838  0.9088 -0.6173
 6209SOL    MW424604   0.568   2.420   4.444  0.2454 -0.1302  0.1742
 6210SOL     OW24605   0.167   4.211   3.749  0.4236  0.3197  0.1781
 6210SOL    HW224606   0.207   4.141   3.801 -0.3025  0.8941  1.5833
 6210SOL    HW324607   0.100   4.166   3.697  0.2658 -0.1170  0.7385
 6210SOL    MW424608   0.163   4.196   3.749  0.3070  0.3379  0.4374
 6211SOL     OW24609   4.143   4.625   3.706  0.2106  0.0830 -0.0027
 6211SOL    HW224610   4.058   4.625   3.750 -0.5569  0.3381 -1.4456
 6211SOL    HW324611   4.122   4.629   3.613  1.7798 -1.8054 -0.4781
 6211SOL    MW424612   4.129   4.626   3.700  0.3164 -0.1325 -0.2558
 6212SOL     OW24613   0.269   4.818   0.501  0.0060 -0.0352 -0.1889
 6212SOL    HW224614   0.251   4.739   0.451 -1.1965  0.0417  0.0822
 6212SOL    HW324615   0.184   4.862   0.507  0.3458  0.4975  0.9746
 6212SOL    MW424616   0.256   4.814   0.495 -0.1078  0.0452  0.0003
 6213SOL     OW24617   3.161   6.194   4.767 -0.3997 -0.8838  0.2092
 6213SOL    HW224618   3.193   6.182   4.677 -2.6417  0.1584 -0.8153
 6213SOL    HW324619   3.158   6.289   4.779  0.7545 -1.0046  1.7734
 6213SOL    MW424620   3.165   6.205   4.757 -0.5432 -0.7622  0.2804
 6214SOL     OW24621   5.608   1.306   0.590 -0.1413 -0.0617  0.6312
 6214SOL    HW224622   5.520   1.269   0.599 -0.0283 -0.2618  0.9472
 6214SOL    HW324623   5.618   1.361   0.667  0.0402 -0.1031  0.6364
 6214SOL    MW424624   5.598   1.308   0.602 -0.1025 -0.0936  0.6736
 6215SOL     OW24625   3.063   0.308   2.853 -0.2142  0.2360  0.2796
 6215SOL    HW224626   3.033   0.339   2.938 -0.5605  0.5661  0.0400
 6215SOL    HW324627   3.126   0.239   2.873  0.5841  1.1077  0.8182
 6215SOL    MW424628   3.067   0.303   2.867 -0.1546  0.3946  0.3191
 6216SOL     OW24629   0.382   1.273   4.734  0.5674  0.7796 -0.5161
 6216SOL    HW224630   0.436   1.197   4.755  1.5532  1.2740 -1.1774
 6216SOL    HW324631   0.308   1.238   4.684  0.6237  0.1702 -0.1754
 6216SOL    MW424632   0.379   1.259   4.730  0.7049  0.7645 -0.5584
 6217SOL     OW24633   3.111   2.670   5.841 -0.2622  0.8268 -0.4923
 6217SOL    HW224634   3.183   2.653   5.901  0.0802  1.2564 -0.7764
 6217SOL    HW324635   3.038   2.694   5.898  0.4197  2.5513 -0.2799
 6217SOL    MW424636   3.111   2.671   5.857 -0.1271  1.1110 -0.5018
 6218SOL     OW24637   3.261   1.478   4.509 -0.1800  0.0004 -0.1959
 6218SOL    HW224638   3.273   1.511   4.420 -1.7012  1.5973  0.1364
 6218SOL    HW324639   3.187   1.418   4.503 -0.8166  0.7390  0.1137
 6218SOL    MW424640   3.253   1.475   4.497 -0.4647  0.3086 -0.1112
 6219SOL     OW24641   2.453   0.350   0.131  0.0644  0.0674 -0.4011
 6219SOL    HW224642   2.421   0.424   0.080  1.0078  1.1741  0.5781
 6219SOL    HW324643   2.507   0.301   0.070 -0.6595  0.0964 -1.0879
 6219SOL    MW424644   2.456   0.353   0.116  0.0933  0.2172 -0.3625
 6220SOL     OW24645   3.389   6.202   3.100  0.6409 -0.3776  0.0378
 6220SOL    HW224646   3.442   6.238   3.171  2.0457 -2.7197  0.2789
 6220SOL    HW324647   3.448   6.201   3.025  1.1273 -3.0985  0.3333
 6220SOL    MW424648   3.404   6.207   3.100  0.8904 -1.0456  0.1086
 6221SOL     OW24649   3.638   6.381   6.258 -0.0109  0.9199  0.2039
 6221SOL    HW224650   3.580   6.306   6.244 -0.3550  0.7431  2.2579
 6221SOL    HW324651   3.670   6.403   6.171  0.0364 -1.5678 -0.4791
 6221SOL    MW424652   3.635   6.374   6.245 -0.0500  0.5683  0.3848
 6222SOL     OW24653   2.538   0.701   1.348  0.5839  0.8197  0.0101
 6222SOL    HW224654   2.468   0.639   1.367  2.0530 -0.6813  0.7735
 6222SOL    HW324655   2.564   0.734   1.435  2.3265 -0.4147  0.0202
 6222SOL    MW424656   2.532   0.697   1.362  1.0076  0.4588  0.1122
 6223SOL     OW24657   4.608   2.163   3.482  0.2164  0.5971 -0.2280
 6223SOL    HW224658   4.604   2.249   3.525 -0.7838  0.8290 -0.7555
 6223SOL    HW324659   4.634   2.183   3.392 -3.1393  0.7504 -1.2900
 6223SOL    MW424660   4.611   2.177   3.476 -0.3583  0.6480 -0.4377
 6224SOL     OW24661   2.109   2.540   0.470  0.3125  0.2323  0.1808
 6224SOL    HW224662   2.032   2.510   0.423  0.6491 -0.3607  0.0053
 6224SOL    HW324663   2.183   2.512   0.416  0.7161 -0.6084  1.1381
 6224SOL    MW424664   2.109   2.533   0.457  0.4102  0.0431  0.2840
 6225SOL     OW24665   5.214   0.581   4.723 -0.0994 -0.0923  0.5614
 6225SOL    HW224666   5.177   0.514   4.781  1.3450 -0.6462  0.8943
 6225SOL    HW324667   5.232   0.535   4.641 -1.2536  0.4623 -0.0194
 6225SOL    MW424668   5.212   0.566   4.720 -0.0611 -0.0922  0.5287
 6226SOL     OW24669   4.136   5.992   1.278 -0.8145  0.5066  0.1919
 6226SOL    HW224670   4.224   5.985   1.314 -0.7610 -0.4945 -0.1061
 6226SOL    HW324671   4.150   6.018   1.187 -0.7355 -1.1296 -0.2880
 6226SOL    MW424672   4.149   5.995   1.271 -0.7970  0.1586  0.0892
 6227SOL     OW24673   1.872   5.906   5.639  0.1301 -0.0638  0.3179
 6227SOL    HW224674   1.800   5.969   5.639  0.6173  0.5571 -1.3828
 6227SOL    HW324675   1.892   5.891   5.732 -1.7253  0.2635  0.7965
 6227SOL    MW424676   1.866   5.913   5.651 -0.0504  0.0613  0.1567
 6228SOL     OW24677   3.597   0.730   6.421  0.1265  0.5375  0.2601
 6228SOL    HW224678   3.520   0.727   6.479  1.1189 -1.3787  1.6275
 6228SOL    HW324679   3.616   0.638   6.404 -0.2855  1.0135 -3.4937
 6228SOL    MW424680   3.589   0.717   6.427  0.2031  0.3475 -0.0548
 6229SOL     OW24681   0.039   5.794   6.132  0.1080  0.1682 -0.3334
 6229SOL    HW224682   0.083   5.734   6.072  2.4004  1.1657  0.2458
 6229SOL    HW324683  -0.053   5.789   6.107  0.4262 -2.4107 -1.2863
 6229SOL    MW424684   0.033   5.786   6.121  0.4524 -0.0404 -0.3827
 6230SOL     OW24685   4.970   4.059   5.234  0.9458  0.2130 -0.2520
 6230SOL    HW224686   4.936   4.144   5.209  0.6008 -0.1257 -0.9796
 6230SOL    HW324687   5.059   4.057   5.197  0.3554 -0.3756 -1.7277
 6230SOL    MW424688   4.977   4.070   5.226  0.8224  0.0907 -0.5427
 6231SOL     OW24689   2.039   1.900   5.183 -0.2045  0.0437 -0.7930
 6231SOL    HW224690   2.054   1.985   5.142  1.0332 -0.1244 -0.7150
 6231SOL    HW324691   2.059   1.836   5.114  0.0443 -0.2014 -0.4961
 6231SOL    MW424692   2.043   1.903   5.168 -0.0084 -0.0108 -0.7435
 6232SOL     OW24693   3.416   1.711   2.668  0.1807  0.3653 -0.3552
 6232SOL    HW224694   3.443   1.651   2.599 -0.5133  0.6823 -0.9281
 6232SOL    HW324695   3.451   1.796   2.641 -1.4858  0.8306 -1.2341
 6232SOL    MW424696   3.424   1.715   2.655 -0.1308  0.4685 -0.5468
 6233SOL     OW24697   2.224   3.686   5.756  0.1284 -0.2317 -0.3364
 6233SOL    HW224698   2.301   3.666   5.703  0.8974  0.0595  0.6563
 6233SOL    HW324699   2.186   3.600   5.775 -0.7592 -0.3027 -2.1825
 6233SOL    MW424700   2.229   3.672   5.751  0.1128 -0.2027 -0.4490
 6234SOL     OW24701   3.737   5.916   5.003  0.0186  0.1101  0.9269
 6234SOL    HW224702   3.685   5.852   4.954  0.4672  0.2704  0.2144
 6234SOL    HW324703   3.737   5.994   4.948  2.2583 -0.3725  0.1202
 6234SOL    MW424704   3.730   5.918   4.989  0.3733  0.0676  0.7265
 6235SOL     OW24705   0.283   1.276   0.445 -0.2500 -0.2904  0.5095
 6235SOL    HW224706   0.323   1.267   0.358  0.2665 -0.9626  0.8121
 6235SOL    HW324707   0.227   1.199   0.454  1.9297 -1.8409  1.9198
 6235SOL    MW424708   0.281   1.265   0.435  0.1057 -0.5836  0.7355
 6236SOL     OW24709   1.203   5.318   5.531  0.2975 -0.3895 -0.1583
 6236SOL    HW224710   1.245   5.402   5.512  1.0788 -0.5262  0.9004
 6236SOL    HW324711   1.253   5.254   5.480  1.9464 -0.6604  1.6823
 6236SOL    MW424712   1.215   5.321   5.521  0.6181 -0.4433  0.2242
 6237SOL     OW24713   4.473   2.922   5.060 -0.7532  0.0099  0.4388
 6237SOL    HW224714   4.530   2.871   5.117 -1.2349 -0.8733  0.1443
 6237SOL    HW324715   4.519   2.923   4.976 -1.6718 -1.6784 -0.1253
 6237SOL    MW424716   4.487   2.916   5.057 -0.9379 -0.3294  0.3255
 6238SOL     OW24717   4.203   3.744   3.701  0.2931 -0.5219 -0.7438
 6238SOL    HW224718   4.254   3.770   3.624  0.7611 -0.3894 -0.3860
 6238SOL    HW324719   4.196   3.649   3.693 -0.4166 -0.4261 -1.4209
 6238SOL    MW424720   4.209   3.735   3.690  0.2612 -0.4918 -0.7859
 6239SOL     OW24721   1.805   2.009   0.934 -0.1888  0.6634  0.7483
 6239SOL    HW224722   1.744   2.082   0.944  0.4172  1.5049 -1.2021
 6239SOL    HW324723   1.890   2.051   0.921  0.3152 -0.4163  0.4826
 6239SOL    MW424724   1.808   2.024   0.933 -0.0424  0.6320  0.4559
 6240SOL     OW24725   4.284   4.030   3.978 -0.7536  0.5365  0.6558
 6240SOL    HW224726   4.291   3.935   3.967  2.8815  0.7664 -0.2712
 6240SOL    HW324727   4.275   4.043   4.073 -0.4995 -0.6972  0.8578
 6240SOL    MW424728   4.284   4.019   3.989 -0.2405  0.4041  0.5601
 6241SOL     OW24729   3.368   3.371   1.193 -0.1206  0.4829 -0.1423
 6241SOL    HW224730   3.330   3.302   1.138  0.2074  0.3149 -0.1625
 6241SOL    HW324731   3.363   3.336   1.282  1.0793 -0.0632 -0.2669
 6241SOL    MW424732   3.362   3.357   1.198  0.0810  0.3887 -0.1614
 6242SOL     OW24733   4.346   3.316   0.395 -0.3054  0.2964  0.5649
 6242SOL    HW224734   4.288   3.251   0.354  0.8925 -0.8050  0.5654
 6242SOL    HW324735   4.286   3.375   0.441 -1.4545 -0.5845  0.2630
 6242SOL    MW424736   4.330   3.315   0.395 -0.2990  0.0349  0.5252
 6243SOL     OW24737   5.697   1.853   6.449  0.3352 -0.0378  0.3654
 6243SOL    HW224738   5.666   1.898   6.528  0.9255  1.2720 -0.1214
 6243SOL    HW324739   5.708   1.762   6.476 -1.9856 -0.1659  1.0792
 6243SOL    MW424740   5.694   1.847   6.463  0.1069  0.1181  0.3954
 6244SOL     OW24741   5.159   0.647   3.688 -0.3751 -0.0639  0.3037
 6244SOL    HW224742   5.131   0.688   3.606  0.6690 -0.0403 -0.0566
 6244SOL    HW324743   5.204   0.567   3.661 -0.0953 -0.1014  0.8628
 6244SOL    MW424744   5.161   0.642   3.674 -0.2005 -0.0657  0.3299
 6245SOL     OW24745   0.662   4.886   4.411 -0.1238 -0.0129 -0.5624
 6245SOL    HW224746   0.589   4.948   4.424  0.6593  0.7271  0.4096
 6245SOL    HW324747   0.740   4.941   4.414  0.5505 -0.9679 -0.3901
 6245SOL    MW424748   0.662   4.902   4.413  0.0685 -0.0413 -0.4114
 6246SOL     OW24749   4.860   0.166   4.713 -0.2784  0.7937 -0.2601
 6246SOL    HW224750   4.851   0.225   4.638 -0.1384  2.5198  1.0077
 6246SOL    HW324751   4.772   0.131   4.726 -0.0258 -0.5964 -2.0169
 6246SOL    MW424752   4.847   0.169   4.705 -0.2266  0.8380 -0.3246
 6247SOL     OW24753   5.612   5.240   1.478  0.1828 -0.7618 -0.1577
 6247SOL    HW224754   5.613   5.278   1.390  2.4325  0.3472  0.2921
 6247SOL    HW324755   5.568   5.305   1.532  2.5520  0.5784  0.2876
 6247SOL    MW424756   5.607   5.253   1.473  0.7922 -0.4386 -0.0396
 6248SOL     OW24757   0.280   0.346   2.304  0.0078  0.3572  0.1966
 6248SOL    HW224758   0.226   0.347   2.225 -0.5247 -2.6072  0.4160
 6248SOL    HW324759   0.224   0.307   2.371  0.8642  1.6729  1.7616
 6248SOL    MW424760   0.265   0.341   2.302  0.0505  0.1397  0.4321
 6249SOL     OW24761   3.405   3.817   6.077 -0.4487 -0.5179  0.0353
 6249SOL    HW224762   3.402   3.733   6.032 -0.9750 -0.3136 -0.3144
 6249SOL    HW324763   3.454   3.874   6.019  1.0143 -0.8928  0.8245
 6249SOL    MW424764   3.411   3.813   6.064 -0.3251 -0.5404  0.0933
 6250SOL     OW24765   1.501   5.582   2.800  0.0655 -0.0436 -0.0329
 6250SOL    HW224766   1.569   5.558   2.737 -2.4642 -2.2278 -2.2077
 6250SOL    HW324767   1.486   5.675   2.785  0.3405 -0.2560 -1.9205
 6250SOL    MW424768   1.508   5.591   2.789 -0.2320 -0.3598 -0.5689
 6251SOL     OW24769   0.488   2.468   2.463 -0.4368  0.1934  0.4201
 6251SOL    HW224770   0.537   2.550   2.469 -0.2719  0.1690 -0.4194
 6251SOL    HW324771   0.429   2.480   2.389 -0.2609 -0.5194  0.1476
 6251SOL    MW424772   0.487   2.480   2.454 -0.3919  0.0961  0.2733
 6252SOL     OW24773   3.196   1.960   2.492 -0.1885 -0.6156 -0.4392
 6252SOL    HW224774   3.172   1.895   2.559 -0.7002  1.7741  1.8337
 6252SOL    HW324775   3.285   1.935   2.467  1.4174  0.1547  3.6350
 6252SOL    MW424776   3.205   1.948   2.498 -0.0442 -0.1987  0.3982
 6253SOL     OW24777   5.513   0.428   0.618  0.0739  0.0745  0.2113
 6253SOL    HW224778   5.600   0.390   0.601  0.7291  2.3137 -2.2654
 6253SOL    HW324779   5.532   0.507   0.669 -0.1785  1.5082 -1.7626
 6253SOL    MW424780   5.527   0.433   0.622  0.1270  0.5591 -0.3759
 6254SOL     OW24781   5.424   3.007   6.043 -0.1293  0.2835  0.5987
 6254SOL    HW224782   5.334   2.985   6.068 -0.5565  1.0165 -0.2177
 6254SOL    HW324783   5.466   2.922   6.028 -1.0260 -0.0511 -0.1331
 6254SOL    MW424784   5.418   2.993   6.044 -0.3040  0.3360  0.3944
 6255SOL     OW24785   3.094   4.300   0.642  0.1392 -0.2154  0.0888
 6255SOL    HW224786   3.041   4.225   0.615  2.2591 -1.7155 -0.1017
 6255SOL    HW324787   3.030   4.363   0.676 -2.0188 -0.8712 -2.3747
 6255SOL    MW424788   3.079   4.298   0.643  0.1342 -0.4998 -0.2614
 6256SOL     OW24789   3.199   4.651   3.910  0.1853 -0.2921  0.1154
 6256SOL    HW224790   3.270   4.698   3.866  0.7164 -1.1863 -0.0115
 6256SOL    HW324791   3.148   4.719   3.952  0.9448  0.3987 -0.0479
 6256SOL    MW424792   3.202   4.666   3.910  0.3556 -0.3189  0.0771
 6257SOL     OW24793   4.820   3.025   0.639  0.0262 -0.6961  0.3088
 6257SOL    HW224794   4.851   2.936   0.656 -0.5283 -1.0655 -0.5133
 6257SOL    HW324795   4.863   3.079   0.705 -0.4931 -1.7291  1.5372
 6257SOL    MW424796   4.830   3.020   0.650 -0.1155 -0.8811  0.3624
 6258SOL     OW24797   2.660   5.273   2.256  0.2017  0.8296 -0.3554
 6258SOL    HW224798   2.585   5.318   2.217 -0.5609 -0.2549 -0.1719
 6258SOL    HW324799   2.657   5.296   2.349  0.8476  1.8001 -0.5638
 6258SOL    MW424800   2.650   5.282   2.263  0.1863  0.8146 -0.3587
 6259SOL     OW24801   1.459   0.262   2.821  0.2791 -0.3223 -0.3685
 6259SOL    HW224802   1.387   0.254   2.760 -0.9737  1.0868  0.8545
 6259SOL    HW324803   1.455   0.182   2.874  0.8326 -1.1303 -1.5045
 6259SOL    MW424804   1.449   0.250   2.820  0.1869 -0.2430 -0.3570
 6260SOL     OW24805   1.962   4.378   0.610 -0.4934  0.1649 -0.3549
 6260SOL    HW224806   1.880   4.375   0.561  0.5758  1.0669 -2.3018
 6260SOL    HW324807   1.936   4.406   0.698 -2.3694 -0.5510 -0.6424
 6260SOL    MW424808   1.948   4.381   0.615 -0.5998  0.1895 -0.6497
 6261SOL     OW24809   5.586   2.780   1.218  0.0948 -0.3221 -0.0887
 6261SOL    HW224810   5.598   2.797   1.312 -2.7269 -0.3115  0.3642
 6261SOL    HW324811   5.594   2.685   1.210 -2.5034 -0.7068  0.7899
 6261SOL    MW424812   5.588   2.769   1.229 -0.6203 -0.3715  0.0870
 6262SOL     OW24813   0.736   4.702   3.280 -0.1151  0.5793 -0.0070
 6262SOL    HW224814   0.691   4.684   3.198 -0.1796  0.5200  0.0410
 6262SOL    HW324815   0.668   4.697   3.347  0.3013 -1.5996  0.3293
 6262SOL    MW424816   0.721   4.699   3.278 -0.0687  0.2840  0.0437
 6263SOL     OW24817   1.807   0.690   2.058 -0.2444  0.6592 -0.2520
 6263SOL    HW224818   1.809   0.616   1.997  0.5815  0.5305 -0.0865
 6263SOL    HW324819   1.857   0.758   2.013  0.9608  0.3376  0.5333
 6263SOL    MW424820   1.814   0.689   2.044  0.0236  0.5998 -0.1266
 6264SOL     OW24821   3.531   2.375   6.456 -0.3373 -0.1086 -0.4936
 6264SOL    HW224822   3.510   2.369   6.363 -2.8013 -0.3244 -0.0031
 6264SOL    HW324823   3.454   2.337   6.500  0.8189 -0.1316  1.6225
 6264SOL    MW424824   3.518   2.369   6.450 -0.5099 -0.1401 -0.1497
 6265SOL     OW24825   3.545   3.305   5.981 -0.3534 -0.7646 -0.1939
 6265SOL    HW224826   3.521   3.343   5.896 -1.2668 -0.8608  0.0106
 6265SOL    HW324827   3.640   3.314   5.985 -0.5111  1.7056 -0.0909
 6265SOL    MW424828   3.554   3.311   5.970 -0.4947 -0.4514 -0.1534
 6266SOL     OW24829   2.332   5.495   5.369  0.4727 -0.1698 -0.5221
 6266SOL    HW224830   2.281   5.508   5.449  1.1802  0.0432 -0.0968
 6266SOL    HW324831   2.295   5.558   5.307  0.4349  0.2247 -0.1076
 6266SOL    MW424832   2.321   5.505   5.371  0.5610 -0.0896 -0.4113
 6267SOL     OW24833   6.105   2.404   0.355  0.1265 -0.8660  0.6441
 6267SOL    HW224834   6.170   2.408   0.286 -0.3667 -2.2662  0.0645
 6267SOL    HW324835   6.095   2.311   0.374 -2.4066 -0.8135  0.0189
 6267SOL    MW424836   6.112   2.392   0.349 -0.2728 -1.0438  0.4852
 6268SOL     OW24837   0.189   2.755   2.363 -0.1715 -0.1507  0.1586
 6268SOL    HW224838   0.214   2.710   2.443 -2.0617 -1.2367  0.1851
 6268SOL    HW324839   0.127   2.823   2.391 -1.6887 -1.2325 -0.4337
 6268SOL    MW424840   0.184   2.758   2.377 -0.6210 -0.4367  0.0839
 6269SOL     OW24841   5.874   5.842   2.465  0.4908  0.4158 -0.2934
 6269SOL    HW224842   5.914   5.904   2.403  0.3982  0.1579 -0.6163
 6269SOL    HW324843   5.944   5.779   2.483 -0.1701 -0.9084 -2.0252
 6269SOL    MW424844   5.888   5.842   2.459  0.3913  0.2071 -0.5645
 6270SOL     OW24845   2.039   2.663   5.329  0.0018  0.0878 -0.4707
 6270SOL    HW224846   2.097   2.699   5.396 -0.2585 -2.2689  1.1681
 6270SOL    HW324847   1.950   2.676   5.364 -0.1881 -0.3456 -0.7715
 6270SOL    MW424848   2.035   2.669   5.342 -0.0576 -0.2803 -0.2942
 6271SOL     OW24849   0.723   0.301   4.808 -0.0382 -0.2226  0.1484
 6271SOL    HW224850   0.639   0.348   4.804  1.0273  1.7820 -0.2679
 6271SOL    HW324851   0.707   0.219   4.762 -1.6219  0.3971 -0.4652
 6271SOL    MW424852   0.710   0.297   4.801 -0.1066  0.1237  0.0125
 6272SOL     OW24853   5.138   4.111   2.900  0.6007  0.0624  0.4001
 6272SOL    HW224854   5.090   4.056   2.839  0.5504 -0.3322  0.7935
 6272SOL    HW324855   5.201   4.052   2.942 -1.6544 -0.5130  3.2661
 6272SOL    MW424856   5.140   4.096   2.897  0.2965 -0.0656  0.8301
 6273SOL     OW24857   2.487   0.910   3.508 -0.0846 -0.4810 -0.0638
 6273SOL    HW224858   2.543   0.942   3.437  2.4854 -0.7130  1.7052
 6273SOL    HW324859   2.432   0.843   3.466  1.3502 -0.6385 -1.8543
 6273SOL    MW424860   2.487   0.905   3.493  0.4438 -0.5324 -0.0666
 6274SOL     OW24861   6.364   2.805   3.719 -0.2240  0.6364 -0.4626
 6274SOL    HW224862   6.445   2.855   3.712  0.0411  0.7731  2.5937
 6274SOL    HW324863   6.295   2.870   3.708  0.1176  1.1643  0.4288
 6274SOL    MW424864   6.365   2.820   3.716 -0.1440  0.7241  0.0582
 6275SOL     OW24865   2.450   3.492   1.575 -0.1507  0.5362  0.5068
 6275SOL    HW224866   2.359   3.519   1.584 -0.8754 -0.8395 -1.9199
 6275SOL    HW324867   2.497   3.572   1.550 -1.5619  0.5279 -2.6596
 6275SOL    MW424868   2.445   3.506   1.573 -0.4325  0.3536 -0.2312
 6276SOL     OW24869   3.915   4.605   2.996 -0.3094  0.2268  0.3376
 6276SOL    HW224870   3.953   4.621   3.083  0.0513  1.1301  0.0285
 6276SOL    HW324871   3.822   4.622   3.007 -0.1583  1.0378  0.3851
 6276SOL    MW424872   3.908   4.609   3.009 -0.2419  0.4530  0.3031
 6277SOL     OW24873   4.389   3.936   4.553  0.6211 -0.5739 -0.1284
 6277SOL    HW224874   4.377   4.029   4.571  0.9160 -0.3208 -1.1767
 6277SOL    HW324875   4.308   3.895   4.584  0.1585  0.1331 -0.3722
 6277SOL    MW424876   4.377   3.943   4.560  0.5990 -0.4472 -0.2989
 6278SOL     OW24877   1.908   0.324   0.885  0.9329  0.1417  0.2750
 6278SOL    HW224878   1.917   0.289   0.797 -0.5899 -0.8910  0.5013
 6278SOL    HW324879   1.998   0.340   0.914  1.4644  0.1058 -1.2965
 6278SOL    MW424880   1.921   0.322   0.877  0.8021  0.0007  0.0975
 6279SOL     OW24881   5.174   1.617   5.106  0.1211 -0.2723  0.6728
 6279SOL    HW224882   5.138   1.654   5.187 -1.4933  1.2694 -0.6786
 6279SOL    HW324883   5.119   1.541   5.088 -0.4042  0.1828  0.3261
 6279SOL    MW424884   5.162   1.612   5.115 -0.1612 -0.0088  0.4488
 6280SOL     OW24885   1.091   1.094   2.999  0.1471 -0.6867  0.0625
 6280SOL    HW224886   1.129   1.038   2.932 -2.9910 -1.7942 -0.9587
 6280SOL    HW324887   1.102   1.183   2.965  2.5188 -0.8463  0.2783
 6280SOL    MW424888   1.097   1.099   2.986  0.0460 -0.8539 -0.0438
 6281SOL     OW24889   1.582   0.741   3.541  0.2058 -0.1313 -0.0576
 6281SOL    HW224890   1.593   0.775   3.452  0.1850 -0.0147 -0.0160
 6281SOL    HW324891   1.632   0.659   3.541  2.1198  0.9880  0.4788
 6281SOL    MW424892   1.590   0.735   3.529  0.4556  0.0317  0.0187
 6282SOL     OW24893   0.503   2.378   4.768  0.1262 -0.5463 -0.3384
 6282SOL    HW224894   0.474   2.468   4.782  1.2681 -0.1496 -0.3935
 6282SOL    HW324895   0.442   2.325   4.819 -0.3856  0.2734 -0.0666
 6282SOL    MW424896   0.491   2.383   4.776  0.2093 -0.3858 -0.3098
 6283SOL     OW24897   0.819   2.942   1.031  0.2591 -0.0204 -0.0959
 6283SOL    HW224898   0.882   2.964   0.962 -1.0338  0.6286 -1.1046
 6283SOL    HW324899   0.742   2.996   1.011  0.4759  1.5926  2.8930
 6283SOL    MW424900   0.817   2.952   1.019  0.1171  0.2781  0.1654
 6284SOL     OW24901   3.046   0.946   6.093 -0.1116  0.5836 -0.3215
 6284SOL    HW224902   2.965   0.925   6.139 -0.0745 -1.4181 -1.0817
 6284SOL    HW324903   3.020   0.963   6.003  0.1704  1.3599 -0.2657
 6284SOL    MW424904   3.032   0.945   6.087 -0.0695  0.4219 -0.4145
 6285SOL     OW24905   1.387   3.387   1.238  0.2133  0.8392  0.2658
 6285SOL    HW224906   1.342   3.415   1.159 -1.9186 -0.1819  1.0411
 6285SOL    HW324907   1.464   3.339   1.207  0.5568  2.2148 -1.1115
 6285SOL    MW424908   1.391   3.384   1.224 -0.0227  0.8859  0.1864
 6286SOL     OW24909   0.448   3.236   4.354 -0.0180  0.3355  0.0183
 6286SOL    HW224910   0.379   3.183   4.314  0.9249 -0.4878 -0.5576
 6286SOL    HW324911   0.526   3.219   4.301  0.7411  0.9088  0.9110
 6286SOL    MW424912   0.449   3.227   4.342  0.2065  0.3025  0.0601
 6287SOL     OW24913   5.464   4.977   5.840 -0.0102  0.5258  0.2322
 6287SOL    HW224914   5.393   5.015   5.788 -0.8568 -0.7089  0.4593
 6287SOL    HW324915   5.485   4.895   5.796  1.5558  1.0432 -0.0495
 6287SOL    MW424916   5.457   4.971   5.827  0.0847  0.4312  0.2250
 6288SOL     OW24917   0.150   0.983   2.745 -0.2994 -0.1976  0.0433
 6288SOL    HW224918   0.117   1.025   2.665 -0.0501  1.5223  0.8026
 6288SOL    HW324919   0.235   0.948   2.720 -0.6297 -0.4870 -0.6903
 6288SOL    MW424920   0.157   0.984   2.731 -0.3101 -0.0089  0.0467
 6289SOL     OW24921   6.191   4.446   2.162  0.5790  0.3077 -0.0304
 6289SOL    HW224922   6.122   4.439   2.228  0.2737  0.9454 -0.2735
 6289SOL    HW324923   6.197   4.359   2.124  0.4164  0.0619  0.5060
 6289SOL    MW424924   6.183   4.434   2.166  0.5173  0.3594  0.0083
 6290SOL     OW24925   0.740   1.140   2.511 -0.5551 -0.1181  0.3776
 6290SOL    HW224926   0.722   1.114   2.601  0.6011  0.5971  0.8335
 6290SOL    HW324927   0.713   1.232   2.508 -0.6682 -0.1631 -0.0352
 6290SOL    MW424928   0.734   1.149   2.522 -0.4175 -0.0297  0.3833
 6291SOL     OW24929   1.743   3.230   6.387 -0.2209 -0.3121  0.1005
 6291SOL    HW224930   1.665   3.277   6.355  0.1489  1.1068  1.2053
 6291SOL    HW324931   1.770   3.278   6.465  1.0310 -1.5478  0.4655
 6291SOL    MW424932   1.736   3.243   6.393 -0.0070 -0.2879  0.2944
 6292SOL     OW24933   4.052   3.788   3.319  0.2294  0.6046  0.5974
 6292SOL    HW224934   4.015   3.702   3.300  0.1079  0.8195 -0.1858
 6292SOL    HW324935   3.985   3.833   3.370  0.0178  0.4772  0.4330
 6292SOL    MW424936   4.039   3.782   3.323  0.1854  0.6161  0.4724
 6293SOL     OW24937   2.415   2.226   1.131 -0.5127  0.4844  0.5356
 6293SOL    HW224938   2.358   2.303   1.134  0.4394  1.1732  2.0529
 6293SOL    HW324939   2.494   2.253   1.176  0.3970 -0.9723 -0.1229
 6293SOL    MW424940   2.418   2.239   1.137 -0.2670  0.3831  0.6489
 6294SOL     OW24941   1.282   2.767   2.244  0.1087  0.0748  0.5180
 6294SOL    HW224942   1.242   2.755   2.330 -1.5343 -3.3777 -0.5582
 6294SOL    HW324943   1.213   2.807   2.191  0.1011 -0.5310  0.0698
 6294SOL    MW424944   1.268   2.771   2.248 -0.1091 -0.4606  0.3169
 6295SOL     OW24945   3.082   4.087   0.215  0.9533  0.2810 -0.2205
 6295SOL    HW224946   2.987   4.093   0.229  0.6961  0.5657 -1.9266
 6295SOL    HW324947   3.116   4.170   0.249  0.0491  2.0666 -3.2976
 6295SOL    MW424948   3.074   4.098   0.222  0.8000  0.5542 -0.8516
 6296SOL     OW24949   4.996   0.303   4.424  0.1246 -0.3962 -0.2099
 6296SOL    HW224950   5.036   0.219   4.403 -0.8279 -0.9412  0.1336
 6296SOL    HW324951   4.994   0.350   4.340  0.1890 -0.9161 -0.5062
 6296SOL    MW424952   5.001   0.298   4.410  0.0074 -0.5367 -0.2037
 6297SOL     OW24953   2.029   4.371   3.237 -0.8548  0.0167  0.6625
 6297SOL    HW224954   2.109   4.379   3.289  0.6813 -0.8301 -1.4027
 6297SOL    HW324955   1.963   4.421   3.286 -0.0946 -2.1714  4.3030
 6297SOL    MW424956   2.031   4.379   3.250 -0.5518 -0.3837  0.8704
 6298SOL     OW24957   5.286   1.249   5.331  0.1911 -0.0953  0.2454
 6298SOL    HW224958   5.310   1.171   5.382  1.6576  1.7051  2.5096
 6298SOL    HW324959   5.355   1.257   5.265 -0.0598 -0.7804 -0.1087
 6298SOL    MW424960   5.299   1.240   5.329  0.3514  0.0519  0.4974
 6299SOL     OW24961   1.117   1.541   1.255 -0.0802 -0.5102 -0.1831
 6299SOL    HW224962   1.183   1.531   1.324  0.5858  1.1108 -0.5500
 6299SOL    HW324963   1.038   1.569   1.302  0.3586  0.5469 -0.0432
 6299SOL    MW424964   1.115   1.543   1.270  0.0655 -0.1568 -0.2131
 6300SOL     OW24965   3.376   3.900   1.964  0.2038  0.3190 -0.0965
 6300SOL    HW224966   3.369   3.935   2.053  1.0832  1.0881 -0.3156
 6300SOL    HW324967   3.288   3.869   1.943  0.6104 -2.9244  2.2238
 6300SOL    MW424968   3.363   3.900   1.973  0.3735 -0.0075  0.1807
 6301SOL     OW24969   0.622   3.533   0.803 -0.4525  0.3834 -0.3612
 6301SOL    HW224970   0.541   3.558   0.848  1.1080  1.2098  2.1667
 6301SOL    HW324971   0.671   3.482   0.867  1.8877  1.5502 -1.0900
 6301SOL    MW424972   0.618   3.529   0.817  0.0622  0.6464 -0.1238
 6302SOL     OW24973   0.309   4.486   3.717  0.0916 -0.4243  0.3928
 6302SOL    HW224974   0.337   4.505   3.807  0.8206 -0.4270  0.1726
 6302SOL    HW324975   0.263   4.402   3.724 -2.7676  1.0909  1.2941
 6302SOL    MW424976   0.307   4.477   3.730 -0.1894 -0.2248  0.4827
 6303SOL     OW24977   1.597   3.713   6.471  0.3982 -0.5873  0.0815
 6303SOL    HW224978   1.529   3.771   6.506  1.0834  0.8163 -0.8144
 6303SOL    HW324979   1.667   3.772   6.443  2.3308 -2.0286  1.6300
 6303SOL    MW424980   1.597   3.729   6.472  0.7436 -0.5923  0.1676
 6304SOL     OW24981   6.191   5.734   1.109 -0.3180  0.5619  0.0815
 6304SOL    HW224982   6.196   5.776   1.023  0.3614  0.8055  0.2347
 6304SOL    HW324983   6.129   5.662   1.096  2.5261 -1.8033 -1.6761
 6304SOL    MW424984   6.183   5.730   1.096  0.1468  0.2820 -0.1302
 6305SOL     OW24985   2.084   6.265   0.421  0.3479 -0.6342  0.4258
 6305SOL    HW224986   2.124   6.179   0.406  1.7874  0.0610  0.0214
 6305SOL    HW324987   2.119   6.320   0.350 -0.4041  0.3267  0.7805
 6305SOL    MW424988   2.094   6.261   0.410  0.4386 -0.4157  0.4193
 6306SOL     OW24989   1.169   5.182   2.534 -0.3287  0.7015 -0.2795
 6306SOL    HW224990   1.246   5.143   2.492  1.2003  3.6496 -0.5306
 6306SOL    HW324991   1.112   5.207   2.462 -2.1597 -2.4234 -0.0546
 6306SOL    MW424992   1.172   5.180   2.519 -0.3685  0.6782 -0.2829
 6307SOL     OW24993   3.625   4.950   1.321  0.1312 -0.1806 -0.2307
 6307SOL    HW224994   3.565   4.905   1.380  0.7345 -1.9710 -0.8735
 6307SOL    HW324995   3.581   4.948   1.236 -0.3330  1.5418 -0.0523
 6307SOL    MW424996   3.612   4.944   1.317  0.1496 -0.1896 -0.2920
 6308SOL     OW24997   4.114   3.005   3.466 -0.8557 -0.3140  0.3140
 6308SOL    HW224998   4.033   3.055   3.451 -1.2034 -1.2698 -1.1316
 6308SOL    HW324999   4.083   2.918   3.493 -0.3344 -0.7650 -0.4981
 6308SOL    MW425000   4.099   3.000   3.468 -0.8328 -0.4996  0.0161
 6309SOL     OW25001   3.665   2.013   0.269  0.2085 -0.1212  0.3184
 6309SOL    HW225002   3.700   1.924   0.278  2.2579  0.5430 -0.4762
 6309SOL    HW325003   3.576   2.000   0.236  0.3710 -1.8819  0.4690
 6309SOL    MW425004   3.657   2.000   0.266  0.5003 -0.2658  0.2334
 6310SOL     OW25005   4.660   2.193   0.452 -0.2655 -0.1556  0.4192
 6310SOL    HW225006   4.610   2.255   0.503  0.7084  1.2382 -0.2617
 6310SOL    HW325007   4.619   2.194   0.365 -0.3645 -0.6300  0.4540
 6310SOL    MW425008   4.648   2.201   0.447 -0.1501 -0.0343  0.3340
 6311SOL     OW25009   3.084   2.158   2.754  0.3275  0.4714  0.1696
 6311SOL    HW225010   3.038   2.083   2.715  1.5401  0.4624 -1.3925
 6311SOL    HW325011   3.172   2.124   2.773  0.4806  1.1413  0.6902
 6311SOL    MW425012   3.090   2.143   2.751  0.5077  0.5586  0.0322
 6312SOL     OW25013   4.820   1.371   5.858 -0.0588  0.1085 -0.3223
 6312SOL    HW225014   4.818   1.282   5.822 -0.2861  0.9954 -2.6342
 6312SOL    HW325015   4.730   1.388   5.885  0.0176 -0.3933  0.2795
 6312SOL    MW425016   4.808   1.361   5.857 -0.0787  0.1593 -0.5479
 6313SOL     OW25017   0.390   0.488   2.646  0.6678  0.0920 -0.4394
 6313SOL    HW225018   0.408   0.494   2.552 -0.8998 -0.9934 -0.8567
 6313SOL    HW325019   0.476   0.489   2.687  1.4796 -0.9830 -2.0131
 6313SOL    MW425020   0.404   0.489   2.639  0.5681 -0.1930 -0.7021
 6314SOL     OW25021   0.800   1.156   1.844  0.4308  0.9619 -0.1214
 6314SOL    HW225022   0.822   1.090   1.777 -0.4554 -0.6255  1.0824
 6314SOL    HW325023   0.725   1.203   1.807 -0.0626  0.0895 -0.2620
 6314SOL    MW425024   0.793   1.153   1.830  0.2488  0.6374  0.0189
 6315SOL     OW25025   5.141   5.427   4.821 -0.4105  0.5947  0.1403
 6315SOL    HW225026   5.123   5.462   4.908  0.8276  0.2831  0.5384
 6315SOL    HW325027   5.204   5.357   4.835 -1.8449 -0.9607 -0.7826
 6315SOL    MW425028   5.147   5.423   4.834 -0.4364  0.3484  0.0710
 6316SOL     OW25029   4.173   1.301   2.935 -0.1475 -0.0694  0.1682
 6316SOL    HW225030   4.244   1.329   2.993  0.7696 -0.2371 -0.8346
 6316SOL    HW325031   4.173   1.367   2.865 -0.6875 -0.3210 -0.0676
 6316SOL    MW425032   4.183   1.314   2.933 -0.0977 -0.1248  0.0048
 6317SOL     OW25033   1.502   2.986   4.409  0.1271 -0.4765 -0.0052
 6317SOL    HW225034   1.491   3.070   4.454 -2.1050 -1.2563  1.0584
 6317SOL    HW325035   1.498   3.007   4.316 -0.8936  0.5726  0.2506
 6317SOL    MW425036   1.500   3.000   4.403 -0.3021 -0.4410  0.1688
 6318SOL     OW25037   0.743   5.487   4.529  0.5731 -0.3641  0.1811
 6318SOL    HW225038   0.804   5.421   4.494  0.1266 -0.4425 -0.4672
 6318SOL    HW325039   0.684   5.437   4.586 -0.3406 -0.7162 -1.0206
 6318SOL    MW425040   0.743   5.471   4.532  0.3937 -0.4209 -0.0630
 6319SOL     OW25041   4.095   0.343   1.986  0.0153 -0.2207  0.3160
 6319SOL    HW225042   4.160   0.356   1.917 -0.1883 -1.7820 -0.2199
 6319SOL    HW325043   4.017   0.313   1.939 -0.4420 -0.3536  1.1476
 6319SOL    MW425044   4.093   0.341   1.971 -0.0719 -0.4443  0.3550
 6320SOL     OW25045   0.896   3.535   1.733  0.4496  0.2865  0.1399
 6320SOL    HW225046   0.909   3.450   1.691 -0.7376 -0.5359  1.3371
 6320SOL    HW325047   0.814   3.568   1.698 -0.3635 -0.2391  1.4677
 6320SOL    MW425048   0.887   3.528   1.723  0.1857  0.1087  0.4730
 6321SOL     OW25049   2.187   0.710   4.961  0.3025  0.1559  0.6796
 6321SOL    HW225050   2.211   0.704   4.868 -3.9204  0.2482 -0.6051
 6321SOL    HW325051   2.196   0.803   4.982  0.3427  0.2928  0.0750
 6321SOL    MW425052   2.191   0.722   4.951 -0.2493  0.1861  0.4303
 6322SOL     OW25053   2.011   5.576   5.089 -0.4284 -0.0623 -0.4020
 6322SOL    HW225054   1.983   5.611   5.004 -0.1441  4.5024  1.1155
 6322SOL    HW325055   2.102   5.548   5.075  0.3856  2.6720 -1.2780
 6322SOL    MW425056   2.019   5.577   5.076 -0.2835  0.9007 -0.3173
 6323SOL     OW25057   5.021   6.391   5.297  0.2713  0.1968  0.2658
 6323SOL    HW225058   5.055   6.324   5.356  1.1299  0.3446 -0.0441
 6323SOL    HW325059   5.048   6.362   5.210 -0.0062  0.5550  0.0551
 6323SOL    MW425060   5.029   6.378   5.293  0.3479  0.2635  0.1971
 6324SOL     OW25061   5.975   5.823   2.830 -0.3796 -0.5704  0.1953
 6324SOL    HW225062   5.915   5.893   2.805 -0.7904 -1.7279 -2.3850
 6324SOL    HW325063   6.022   5.802   2.749  0.9827 -2.0799  1.3216
 6324SOL    MW425064   5.973   5.829   2.816 -0.2541 -0.9222  0.0035
 6325SOL     OW25065   4.355   2.590   2.821 -0.0745  0.7922  0.1258
 6325SOL    HW225066   4.375   2.498   2.801  3.4285  1.1682  1.2731
 6325SOL    HW325067   4.359   2.635   2.737  0.2779  0.1988 -0.1810
 6325SOL    MW425068   4.358   2.584   2.807  0.4342  0.7635  0.2367
 6326SOL     OW25069   1.919   5.560   3.093  0.1622 -0.0621  0.2047
 6326SOL    HW225070   1.981   5.521   3.031  0.9427  1.3099  0.0886
 6326SOL    HW325071   1.972   5.623   3.142 -1.1369  1.0719  0.1748
 6326SOL    MW425072   1.934   5.563   3.091  0.0938  0.2685  0.1854
 6327SOL     OW25073   4.249   3.378   5.159  0.2628  0.5123  0.2136
 6327SOL    HW225074   4.254   3.323   5.081  0.1102  2.3834 -1.1942
 6327SOL    HW325075   4.198   3.454   5.131  0.4518  1.3682  2.0691
 6327SOL    MW425076   4.243   3.381   5.145  0.2676  0.8721  0.2727
 6328SOL     OW25077   2.257   0.966   4.994 -0.7274 -0.1610  0.0616
 6328SOL    HW225078   2.281   1.028   5.062  0.3996 -1.9767  1.4098
 6328SOL    HW325079   2.257   1.017   4.913  0.5394  1.4828  1.0493
 6328SOL    MW425080   2.260   0.981   4.992 -0.4116 -0.1837  0.3698
 6329SOL     OW25081   5.685   5.018   3.120 -0.0837 -0.2013 -0.1970
 6329SOL    HW225082   5.667   5.086   3.185  1.8894  0.6300 -0.4646
 6329SOL    HW325083   5.700   4.939   3.173  2.1565  0.6054  0.4955
 6329SOL    MW425084   5.684   5.016   3.136  0.4722  0.0148 -0.1409
 6330SOL     OW25085   3.306   3.931   2.240 -0.1634  0.0833 -0.0676
 6330SOL    HW225086   3.249   3.883   2.300 -0.2659  0.1377 -0.1193
 6330SOL    HW325087   3.250   4.001   2.205 -0.3114 -0.3572 -0.7471
 6330SOL    MW425088   3.291   3.934   2.243 -0.1964  0.0324 -0.1641
 6331SOL     OW25089   1.763   3.973   2.052  0.1046  0.3048 -0.2997
 6331SOL    HW225090   1.719   3.918   1.987 -0.5322 -0.2113  0.5386
 6331SOL    HW325091   1.800   3.910   2.114  0.5411  0.7911 -0.0628
 6331SOL    MW425092   1.762   3.957   2.051  0.0781  0.3009 -0.1578
 6332SOL     OW25093   1.772   0.051   3.858  0.4348  0.1178  0.7109
 6332SOL    HW225094   1.715   0.053   3.935 -1.6749  2.4842 -0.7514
 6332SOL    HW325095   1.718   0.084   3.787  2.3257 -1.8807 -1.8428
 6332SOL    MW425096   1.758   0.056   3.859  0.4059  0.1663  0.1811
 6333SOL     OW25097   4.050   2.745   0.550 -0.5001 -0.1089 -0.3826
 6333SOL    HW225098   4.013   2.818   0.501  0.4054  1.7647  1.5878
 6333SOL    HW325099   3.990   2.731   0.623  0.7332  0.5042  0.7728
 6333SOL    MW425100   4.037   2.752   0.553 -0.2180  0.2192  0.0298
 6334SOL     OW25101   4.818   4.949   4.810 -0.0521  0.2270  0.5984
 6334SOL    HW225102   4.834   4.877   4.871  1.3494 -0.3283 -0.3951
 6334SOL    HW325103   4.753   4.915   4.749  1.1402 -0.4854 -0.3047
 6334SOL    MW425104   4.811   4.935   4.810  0.2901  0.0598  0.3482
 6335SOL     OW25105   3.899   4.030   1.455  0.0686  0.6406 -0.2744
 6335SOL    HW225106   3.902   3.945   1.413  0.6652  0.3011  0.4273
 6335SOL    HW325107   3.813   4.034   1.497  0.7224 -0.3706  1.2050
 6335SOL    MW425108   3.888   4.020   1.455  0.2336  0.4624  0.0134
 6336SOL     OW25109   5.537   4.419   0.311 -0.2778 -0.7539 -0.0253
 6336SOL    HW225110   5.615   4.376   0.343  0.0960  1.2847  2.0421
 6336SOL    HW325111   5.553   4.512   0.323 -2.8047 -0.2242 -0.0421
 6336SOL    MW425112   5.549   4.426   0.317 -0.5619 -0.4150  0.2452
 6337SOL     OW25113   1.860   0.702   4.497  0.3698 -0.3443 -0.0124
 6337SOL    HW225114   1.926   0.731   4.560  1.1498 -0.5324 -0.7228
 6337SOL    HW325115   1.781   0.751   4.521  0.7504 -0.1336  0.8681
 6337SOL    MW425116   1.858   0.713   4.509  0.5229 -0.3413  0.0100
 6338SOL     OW25117   5.628   3.633   4.419  0.1689  0.1680 -0.1405
 6338SOL    HW225118   5.601   3.648   4.328  0.7256  0.8862 -0.2019
 6338SOL    HW325119   5.722   3.619   4.414 -0.2081 -3.0694 -0.0142
 6338SOL    MW425120   5.637   3.633   4.406  0.1926 -0.1643 -0.1319
 6339SOL     OW25121   5.316   3.127   1.074 -0.7429  0.1310  0.2862
 6339SOL    HW225122   5.396   3.097   1.116 -0.9266  0.7957  1.1364
 6339SOL    HW325123   5.344   3.161   0.989  0.2754  2.5202  1.4741
 6339SOL    MW425124   5.330   3.128   1.068 -0.6328  0.5339  0.5551
 6340SOL     OW25125   4.062   5.533   5.815 -0.7472  0.1780 -0.2366
 6340SOL    HW225126   4.097   5.550   5.728 -0.0564 -0.6455 -0.1261
 6340SOL    HW325127   4.120   5.580   5.875 -0.1724 -0.6951 -0.0974
 6340SOL    MW425128   4.074   5.541   5.812 -0.5802 -0.0458 -0.2037
 6341SOL     OW25129   4.410   6.053   1.895 -0.3409  0.0573  0.5224
 6341SOL    HW225130   4.411   6.146   1.918 -0.0177  0.0906  0.3715
 6341SOL    HW325131   4.495   6.020   1.923 -0.6405 -0.3053  1.0286
 6341SOL    MW425132   4.421   6.061   1.902 -0.3378  0.0138  0.5693
 6342SOL     OW25133   1.738   4.139   1.160  0.0751 -0.1617 -0.4593
 6342SOL    HW225134   1.656   4.167   1.202  1.1059  2.5054  0.0293
 6342SOL    HW325135   1.714   4.118   1.070 -1.2206  0.2192 -0.2184
 6342SOL    MW425136   1.724   4.140   1.154  0.0401  0.2405 -0.3630
 6343SOL     OW25137   4.353   3.697   2.232  0.5409 -0.1080  0.7042
 6343SOL    HW225138   4.276   3.640   2.243  0.1097  0.5936  1.3549
 6343SOL    HW325139   4.418   3.661   2.292  0.0109  0.5145  1.6784
 6343SOL    MW425140   4.352   3.684   2.241  0.4141  0.0667  0.9186
 6344SOL     OW25141   5.731   3.602   6.334 -0.1847  0.0259  0.2643
 6344SOL    HW225142   5.809   3.654   6.352 -0.9705  1.5037 -0.5001
 6344SOL    HW325143   5.757   3.545   6.262  0.3836  0.0226  0.4608
 6344SOL    MW425144   5.745   3.601   6.327 -0.2134  0.2204  0.1894
 6345SOL     OW25145   6.247   4.058   6.189  0.6871  0.0351  0.6700
 6345SOL    HW225146   6.220   4.117   6.118  1.1279 -0.6922 -0.1226
 6345SOL    HW325147   6.168   4.049   6.243 -0.1359 -0.5773 -0.5707
 6345SOL    MW425148   6.233   4.064   6.186  0.6367 -0.1416  0.4017
 6346SOL     OW25149   5.464   2.104   1.841  0.0906 -0.3383 -0.1335
 6346SOL    HW225150   5.496   2.077   1.755 -0.5779  0.3651 -0.6088
 6346SOL    HW325151   5.451   2.022   1.888  0.7199 -0.7180 -0.6034
 6346SOL    MW425152   5.466   2.090   1.836  0.0854 -0.2956 -0.2582
 6347SOL     OW25153   1.004   5.409   5.361 -0.1857  0.2668  0.2330
 6347SOL    HW225154   1.070   5.371   5.418 -0.8918 -3.4773 -1.1352
 6347SOL    HW325155   0.920   5.386   5.402 -0.7413  2.6944  0.6147
 6347SOL    MW425156   1.002   5.401   5.374 -0.3521  0.0931  0.1029
 6348SOL     OW25157   5.946   6.121   4.623  0.1811 -0.4150 -0.1583
 6348SOL    HW225158   5.922   6.214   4.620 -0.1954 -0.4103  1.9675
 6348SOL    HW325159   5.906   6.084   4.544 -0.6384  1.0032 -0.4457
 6348SOL    MW425160   5.938   6.128   4.612  0.0233 -0.2273  0.0842
 6349SOL     OW25161   6.048   5.650   6.337 -0.5009 -0.1426 -0.2810
 6349SOL    HW225162   5.978   5.673   6.398 -1.3479  0.4915 -1.4498
 6349SOL    HW325163   6.031   5.558   6.315 -0.9136 -0.0219 -0.4798
 6349SOL    MW425164   6.037   5.641   6.342 -0.6671 -0.0430 -0.4615
 6350SOL     OW25165   0.660   3.064   2.831  0.8729 -0.4254 -0.0312
 6350SOL    HW225166   0.603   3.134   2.797  0.2650 -0.2546  1.2828
 6350SOL    HW325167   0.601   2.989   2.840  0.7812 -0.1827  1.5608
 6350SOL    MW425168   0.644   3.064   2.827  0.7806 -0.3708  0.3522
 6351SOL     OW25169   0.489   5.929   1.524 -0.3390 -0.8123  0.2917
 6351SOL    HW225170   0.476   5.871   1.599 -0.1014 -1.6075 -0.2728
 6351SOL    HW325171   0.425   5.900   1.459 -0.8506  0.1573  0.3392
 6351SOL    MW425172   0.479   5.918   1.525 -0.3752 -0.7893  0.2235
 6352SOL     OW25173   6.091   2.165   0.484  0.0888  0.0022 -0.3039
 6352SOL    HW225174   6.073   2.211   0.566 -0.5168 -1.3528  0.3514
 6352SOL    HW325175   6.124   2.080   0.511  1.0626 -0.0252 -1.4936
 6352SOL    MW425176   6.093   2.160   0.499  0.1374 -0.1802 -0.3744
 6353SOL     OW25177   0.149   5.146   2.236  0.3210 -0.2926  0.1249
 6353SOL    HW225178   0.082   5.209   2.212  0.2260  0.7332  2.7797
 6353SOL    HW325179   0.103   5.062   2.241 -0.8203  0.4125  1.9995
 6353SOL    MW425180   0.134   5.143   2.233  0.1579 -0.0643  0.7225
 6354SOL     OW25181   2.825   2.439   4.740 -0.1237  0.4054 -0.0999
 6354SOL    HW225182   2.747   2.475   4.783 -0.7866 -0.2394 -0.7323
 6354SOL    HW325183   2.898   2.489   4.778 -0.5930 -0.5040  2.1990
 6354SOL    MW425184   2.824   2.450   4.751 -0.2731  0.2003  0.1200
 6355SOL     OW25185   0.428   3.127   1.563 -0.0227 -0.6484  0.5847
 6355SOL    HW225186   0.445   3.212   1.604  0.3885 -0.6381  0.4004
 6355SOL    HW325187   0.404   3.069   1.635 -3.1220  0.2954  0.4568
 6355SOL    MW425188   0.427   3.131   1.578 -0.3773 -0.5225  0.5435
 6356SOL     OW25189   2.195   6.001   0.378  0.6256  0.0938  0.1282
 6356SOL    HW225190   2.258   5.981   0.447  2.3514  0.4000 -1.3068
 6356SOL    HW325191   2.246   6.001   0.297 -1.1210  0.8560 -1.0366
 6356SOL    MW425192   2.210   5.999   0.377  0.6228  0.2348 -0.2148
 6357SOL     OW25193   0.049   0.672   1.854 -0.0763  0.8228 -0.7484
 6357SOL    HW225194  -0.026   0.713   1.898  0.5585  1.5481 -0.3068
 6357SOL    HW325195   0.121   0.679   1.918  1.0200  2.4163 -2.0698
 6357SOL    MW425196   0.049   0.678   1.868  0.1521  1.1287 -0.8645
 6358SOL     OW25197   5.242   4.236   0.199  0.5880 -0.2520 -0.5265
 6358SOL    HW225198   5.192   4.318   0.197 -0.1199 -0.6708 -0.4938
 6358SOL    HW325199   5.287   4.234   0.114  0.4126  0.0477 -0.6311
 6358SOL    MW425200   5.241   4.247   0.187  0.4715 -0.2677 -0.5360
 6359SOL     OW25201   1.731   3.459   0.146  0.1982  0.3790  0.0249
 6359SOL    HW225202   1.683   3.466   0.229  0.2169 -0.3173  0.0938
 6359SOL    HW325203   1.686   3.521   0.088 -0.4048  0.1867  0.2748
 6359SOL    MW425204   1.719   3.468   0.149  0.1211  0.2618  0.0670
 6360SOL     OW25205   6.155   5.627   3.454  0.1117 -0.1128 -0.5463
 6360SOL    HW225206   6.187   5.555   3.509 -0.1086 -0.8137 -1.3037
 6360SOL    HW325207   6.225   5.639   3.389  1.5014  2.3328  1.2427
 6360SOL    MW425208   6.169   5.619   3.452  0.2660  0.1174 -0.4102
 6361SOL     OW25209   4.980   1.439   3.925  0.1035  0.1277  0.0144
 6361SOL    HW225210   4.887   1.415   3.924 -0.5833  2.2828  2.5382
 6361SOL    HW325211   4.986   1.513   3.865 -0.0358  0.6574  0.6490
 6361SOL    MW425212   4.968   1.445   3.917 -0.0055  0.4819  0.4311
 6362SOL     OW25213   5.825   2.235   2.369 -0.0887 -0.5191  0.5933
 6362SOL    HW225214   5.754   2.218   2.430  0.1438 -2.4337  0.4054
 6362SOL    HW325215   5.863   2.149   2.352  1.6044  0.3174 -0.1325
 6362SOL    MW425216   5.821   2.221   2.374  0.1654 -0.6614  0.4727
 6363SOL     OW25217   5.286   1.188   3.966 -0.3968  0.2324  0.2824
 6363SOL    HW225218   5.284   1.132   3.888  0.2913 -1.3511  1.3397
 6363SOL    HW325219   5.195   1.194   3.994 -0.4714 -0.4795  0.2151
 6363SOL    MW425220   5.274   1.181   3.960 -0.3158 -0.0704  0.4131
 6364SOL     OW25221   0.109   0.161   2.490  0.2240  0.2459  0.4362
 6364SOL    HW225222   0.097   0.213   2.570  0.5254 -0.2618  0.8163
 6364SOL    HW325223   0.033   0.183   2.436  1.4200  2.7808 -0.3763
 6364SOL    MW425224   0.098   0.171   2.494  0.4216  0.5134  0.3792
 6365SOL     OW25225   4.113   4.218   2.322 -0.5978  0.1265 -0.0194
 6365SOL    HW225226   4.165   4.145   2.288  0.5719  0.7318  0.4227
 6365SOL    HW325227   4.052   4.239   2.250 -0.4034 -0.7448 -0.4536
 6365SOL    MW425228   4.111   4.212   2.308 -0.4178  0.0914 -0.0184
 6366SOL     OW25229   3.572   5.009   3.862 -0.4043  0.2187  0.1234
 6366SOL    HW225230   3.546   5.038   3.949 -0.0118 -0.1051  0.3513
 6366SOL    HW325231   3.533   4.922   3.853 -0.2780  0.1690  0.0550
 6366SOL    MW425232   3.564   5.001   3.872 -0.3358  0.1694  0.1444
 6367SOL     OW25233   2.635   0.272   5.683  0.5368 -0.0112  0.0570
 6367SOL    HW225234   2.625   0.285   5.777  0.2453  0.9034 -0.0870
 6367SOL    HW325235   2.585   0.192   5.664  3.3212 -2.1968  1.1636
 6367SOL    MW425236   2.627   0.263   5.693  0.8657 -0.1789  0.1840
 6368SOL     OW25237   0.737   6.370   3.002 -0.0223  0.4755 -0.3026
 6368SOL    HW225238   0.788   6.330   3.072  0.1584  0.0267 -0.6885
 6368SOL    HW325239   0.653   6.393   3.042 -1.4787 -3.2938 -0.8111
 6368SOL    MW425240   0.732   6.368   3.016 -0.1906 -0.0810 -0.4206
 6369SOL     OW25241   5.160   3.973   4.339  0.5936 -0.1341 -0.3857
 6369SOL    HW225242   5.151   3.948   4.431 -1.0656  1.8518  0.0591
 6369SOL    HW325243   5.117   3.902   4.291  0.6224 -0.7219  0.4260
 6369SOL    MW425244   5.153   3.960   4.345  0.3785  0.0503 -0.2199
 6370SOL     OW25245   2.921   4.961   5.936 -0.3139  0.3710 -0.3812
 6370SOL    HW225246   2.940   5.001   5.851 -0.4573  1.7216  0.2041
 6370SOL    HW325247   2.999   4.909   5.956  0.9075  2.2355 -0.0885
 6370SOL    MW425248   2.933   4.959   5.927 -0.1717  0.7952 -0.2654
 6371SOL     OW25249   0.130   4.309   1.784 -0.2081  0.4075 -0.1346
 6371SOL    HW225250   0.131   4.400   1.813 -0.3860  0.0929  0.9166
 6371SOL    HW325251   0.125   4.259   1.866  2.0517 -0.6244 -0.5517
 6371SOL    MW425252   0.129   4.315   1.799  0.0666  0.2298 -0.0509
 6372SOL     OW25253   6.110   5.841   3.083  0.1947  0.3863  0.7760
 6372SOL    HW225254   6.051   5.812   3.152  0.4322 -1.0355  0.4221
 6372SOL    HW325255   6.060   5.831   3.002  0.1322  1.4322  0.6771
 6372SOL    MW425256   6.096   5.836   3.081  0.2178  0.3367  0.7162
 6373SOL     OW25257   5.427   6.016   2.727 -0.4278 -0.3948  0.4723
 6373SOL    HW225258   5.446   5.923   2.714 -0.3262 -0.3387  0.2029
 6373SOL    HW325259   5.331   6.020   2.736 -0.6383 -0.3177 -1.4444
 6373SOL    MW425260   5.417   6.004   2.726 -0.4422 -0.3773  0.1839
 6374SOL     OW25261   5.560   0.337   5.320 -0.3644 -0.1920 -0.3594
 6374SOL    HW225262   5.540   0.254   5.276 -0.3463 -0.6299  0.4351
 6374SOL    HW325263   5.578   0.312   5.411 -0.5456  0.7061 -0.0668
 6374SOL    MW425264   5.560   0.323   5.326 -0.3859 -0.1313 -0.2160
 6375SOL     OW25265   1.283   0.186   5.522  0.0645  1.0097 -0.0751
 6375SOL    HW225266   1.302   0.106   5.571 -1.4959  1.1976  0.8646
 6375SOL    HW325267   1.221   0.159   5.455 -0.4455  1.4272  0.2253
 6375SOL    MW425268   1.278   0.172   5.519 -0.2086  1.0896  0.0885
 6376SOL     OW25269   6.270   3.131   4.515  0.2662 -0.1846  0.1364
 6376SOL    HW225270   6.321   3.187   4.457  0.2638  0.2319  0.5322
 6376SOL    HW325271   6.215   3.191   4.564 -0.9844 -0.6536 -0.6271
 6376SOL    MW425272   6.270   3.146   4.514  0.1008 -0.1915  0.0879
 6377SOL     OW25273   5.352   3.100   2.404  0.0489 -0.3515  0.2895
 6377SOL    HW225274   5.334   3.087   2.497  0.0373 -0.4475  0.2738
 6377SOL    HW325275   5.300   3.033   2.359  0.5899 -0.7675  0.2586
 6377SOL    MW425276   5.343   3.089   2.410  0.1187 -0.4191  0.2834
 6378SOL     OW25277   1.310   3.633   3.467 -0.0671  0.5408  0.0457
 6378SOL    HW225278   1.399   3.605   3.445 -0.3850 -0.8969  0.4818
 6378SOL    HW325279   1.321   3.690   3.543  0.6374  2.0580 -1.1331
 6378SOL    MW425280   1.323   3.637   3.474 -0.0161  0.5513 -0.0523
 6379SOL     OW25281   4.239   4.654   1.549 -0.0249  0.6660  0.3289
 6379SOL    HW225282   4.208   4.606   1.472  0.4589  0.7669  0.0690
 6379SOL    HW325283   4.263   4.586   1.612  0.8238  0.5620 -0.1017
 6379SOL    MW425284   4.238   4.639   1.547  0.1509  0.6656  0.2378
 6380SOL     OW25285   5.100   4.496   1.934 -0.3271  0.2349  0.2673
 6380SOL    HW225286   5.168   4.449   1.885 -0.5932 -1.0421  1.0794
 6380SOL    HW325287   5.073   4.567   1.875  0.9655  0.1284 -0.4872
 6380SOL    MW425288   5.105   4.499   1.920 -0.1916  0.0524  0.2749
 6381SOL     OW25289   5.112   3.041   6.458  0.5271  0.0390  0.2398
 6381SOL    HW225290   5.182   3.096   6.423  0.5097 -0.5061 -0.6759
 6381SOL    HW325291   5.150   3.002   6.537  0.0845  2.3797  1.7063
 6381SOL    MW425292   5.126   3.043   6.464  0.4664  0.2759  0.3125
 6382SOL     OW25293   3.934   6.284   1.125  0.2624 -0.1942 -0.0402
 6382SOL    HW225294   3.877   6.214   1.093 -0.2980  0.3600 -0.2738
 6382SOL    HW325295   3.989   6.307   1.050 -0.3516  0.4056 -0.3141
 6382SOL    MW425296   3.934   6.277   1.111  0.1075 -0.0419 -0.1072
 6383SOL     OW25297   0.466   5.147   4.368 -0.4836  0.3279  0.6773
 6383SOL    HW225298   0.416   5.109   4.296  0.0555 -0.0636  0.5028
 6383SOL    HW325299   0.400   5.189   4.424 -1.3311 -2.2000  1.7368
 6383SOL    MW425300   0.450   5.148   4.366 -0.5243 -0.0573  0.7941
 6384SOL     OW25301   4.154   5.401   2.553 -0.4596  0.6004  0.3146
 6384SOL    HW225302   4.059   5.389   2.541 -0.1814 -1.3184 -0.3999
 6384SOL    HW325303   4.191   5.316   2.529  1.3640  0.9737  1.6448
 6384SOL    MW425304   4.146   5.388   2.548 -0.1823  0.3965  0.3958
 6385SOL     OW25305   2.540   4.038   0.519  0.4305 -0.9893  0.3385
 6385SOL    HW225306   2.520   4.039   0.613 -1.5784 -1.5764 -0.0520
 6385SOL    HW325307   2.479   4.101   0.481  2.8332  1.0929 -0.3431
 6385SOL    MW425308   2.529   4.047   0.526  0.4825 -0.7921  0.1971
 6386SOL     OW25309   4.045   5.646   2.751 -0.3523  0.0279  0.1628
 6386SOL    HW225310   4.133   5.686   2.750 -1.0565  1.6827  0.8115
 6386SOL    HW325311   4.015   5.653   2.660 -0.4009  0.8701  0.2336
 6386SOL    MW425312   4.053   5.652   2.738 -0.4516  0.3573  0.2578
 6387SOL     OW25313   4.480   4.221   4.933  0.4166 -0.5823 -0.0754
 6387SOL    HW225314   4.497   4.185   5.020 -0.2783  1.7569  1.1056
 6387SOL    HW325315   4.456   4.312   4.949 -0.7115 -0.3454 -2.6514
 6387SOL    MW425316   4.479   4.228   4.946  0.1761 -0.2425 -0.2595
 6388SOL     OW25317   2.043   1.908   0.259  0.2029  0.6857  0.8553
 6388SOL    HW225318   1.962   1.860   0.241  1.1185 -0.9767  0.9511
 6388SOL    HW325319   2.086   1.857   0.328  2.0690  0.5915 -0.2907
 6388SOL    MW425320   2.038   1.895   0.266  0.5699  0.4539  0.7167
 6389SOL     OW25321   0.238   3.749   5.606  0.1199 -0.8510 -0.3897
 6389SOL    HW225322   0.322   3.794   5.593 -0.4485  0.2131 -0.4772
 6389SOL    HW325323   0.188   3.768   5.527 -0.2366 -1.4376 -0.3117
 6389SOL    MW425324   0.243   3.758   5.594 -0.0021 -0.7880 -0.3909
 6390SOL     OW25325   2.703   4.269   0.603  0.2358 -0.5845  0.0640
 6390SOL    HW225326   2.720   4.245   0.694 -2.1929 -0.3568  0.6510
 6390SOL    HW325327   2.686   4.186   0.559 -0.3922 -0.5794  0.2770
 6390SOL    MW425328   2.703   4.255   0.609 -0.1675 -0.5538  0.1696
 6391SOL     OW25329   3.326   0.444   1.357 -0.2700 -0.1760  0.3400
 6391SOL    HW225330   3.352   0.363   1.401 -2.8202 -0.0519  2.3067
 6391SOL    HW325331   3.244   0.422   1.314 -2.2277  1.7788  2.7729
 6391SOL    MW425332   3.319   0.430   1.357 -0.8647  0.0983  0.9205
 6392SOL     OW25333   6.304   4.420   5.805  0.3656 -0.0258 -0.3219
 6392SOL    HW225334   6.272   4.357   5.869 -2.5559  0.6777 -0.9767
 6392SOL    HW325335   6.314   4.369   5.725 -0.4693 -0.0067 -0.4485
 6392SOL    MW425336   6.301   4.405   5.803 -0.1300  0.0696 -0.4250
 6393SOL     OW25337   3.814   0.792   1.185 -0.2273  0.3324 -0.0857
 6393SOL    HW225338   3.893   0.744   1.162  0.6828  0.9225  1.7121
 6393SOL    HW325339   3.842   0.882   1.197 -1.2213  0.5972  0.3866
 6393SOL    MW425340   3.828   0.797   1.183 -0.2383  0.4452  0.2138
 6394SOL     OW25341   4.297   3.950   1.324 -0.0365  0.0306 -0.6249
 6394SOL    HW225342   4.213   3.938   1.281 -0.0573  0.5989 -0.7515
 6394SOL    HW325343   4.360   3.957   1.253  0.4917 -2.7236 -0.5339
 6394SOL    MW425344   4.294   3.949   1.309  0.0304 -0.2578 -0.6296
 6395SOL     OW25345   1.279   5.102   3.903  0.1744  0.2591 -0.0349
 6395SOL    HW225346   1.305   5.106   3.811  1.6217 -0.5669  0.3088
 6395SOL    HW325347   1.220   5.176   3.914 -0.6203 -0.0668 -1.7981
 6395SOL    MW425348   1.275   5.112   3.892  0.2605  0.1072 -0.2222
 6396SOL     OW25349   3.256   4.327   5.688 -0.0201 -0.1734  0.0116
 6396SOL    HW225350   3.260   4.285   5.602  0.0752  0.4882 -0.3171
 6396SOL    HW325351   3.345   4.356   5.704 -0.0470 -0.2595  0.3197
 6396SOL    MW425352   3.268   4.325   5.679 -0.0110 -0.0975  0.0089
 6397SOL     OW25353   4.765   2.042   1.994 -0.0012 -0.7878  0.3845
 6397SOL    HW225354   4.694   2.075   2.050  1.1458  0.5010  1.1363
 6397SOL    HW325355   4.719   2.001   1.921 -1.5646  0.9259  0.3036
 6397SOL    MW425356   4.749   2.041   1.992 -0.0561 -0.3917  0.4730
 6398SOL     OW25357   3.615   0.351   4.425 -0.0064  0.2515 -0.1940
 6398SOL    HW225358   3.529   0.382   4.451 -1.4606 -3.2618 -0.3080
 6398SOL    HW325359   3.618   0.365   4.330 -1.2851 -1.2858 -0.4945
 6398SOL    MW425360   3.604   0.357   4.416 -0.3669 -0.4148 -0.2487
 6399SOL     OW25361   4.338   1.283   0.162 -0.0000 -0.2450  0.0420
 6399SOL    HW225362   4.292   1.202   0.140 -0.1336 -0.4480  1.0436
 6399SOL    HW325363   4.269   1.348   0.171  0.0108 -0.2723  0.3275
 6399SOL    MW425364   4.323   1.281   0.160 -0.0162 -0.2754  0.2118
 6400SOL     OW25365   0.615   5.390   3.809 -0.3157 -0.9274  0.0157
 6400SOL    HW225366   0.531   5.352   3.831  0.4338 -2.7649 -0.1142
 6400SOL    HW325367   0.604   5.484   3.824 -2.2132 -1.1874  0.4615
 6400SOL    MW425368   0.603   5.398   3.814 -0.4672 -1.2042  0.0573
 6401SOL     OW25369   0.313   5.294   1.656 -0.5050  0.2367 -0.1207
 6401SOL    HW225370   0.249   5.255   1.716 -1.0346  0.2367 -0.6796
 6401SOL    HW325371   0.368   5.221   1.629 -1.5260 -0.1597 -1.2063
 6401SOL    MW425372   0.311   5.280   1.660 -0.7096  0.1844 -0.3377
 6402SOL     OW25373   5.545   5.058   1.964 -0.0273 -0.0251  0.2693
 6402SOL    HW225374   5.504   5.121   1.905  0.6643  1.4160  1.2730
 6402SOL    HW325375   5.476   5.033   2.025 -0.8672 -1.8477 -1.3225
 6402SOL    MW425376   5.530   5.063   1.964 -0.0469 -0.0754  0.1917
 6403SOL     OW25377   0.606   1.386   2.488 -0.0480  0.1286 -0.1084
 6403SOL    HW225378   0.632   1.476   2.504  0.9888 -0.0335 -0.8020
 6403SOL    HW325379   0.615   1.374   2.394  1.8642 -1.2843  0.1865
 6403SOL    MW425380   0.611   1.396   2.478  0.3411 -0.0792 -0.1610
 6404SOL     OW25381   5.785   4.576   1.598  0.2209  0.2360  0.1740
 6404SOL    HW225382   5.822   4.525   1.670  0.1051  0.4513  0.3873
 6404SOL    HW325383   5.781   4.514   1.525  1.7719  0.4350 -0.1008
 6404SOL    MW425384   5.789   4.561   1.598  0.4103  0.2906  0.1659
 6405SOL     OW25385   3.992   4.859   4.569  0.6599  0.2445 -0.4578
 6405SOL    HW225386   3.967   4.784   4.515  1.0450 -0.0912 -0.1772
 6405SOL    HW325387   4.038   4.917   4.508  2.5526 -0.8715 -0.1849
 6405SOL    MW425388   3.995   4.856   4.553  0.9604  0.0530 -0.3848
 6406SOL     OW25389   4.137   5.017   4.399 -0.2865 -0.3335  0.2241
 6406SOL    HW225390   4.192   4.950   4.360 -0.4567 -0.7705  0.7240
 6406SOL    HW325391   4.087   5.053   4.325 -0.3124 -0.8658 -0.0246
 6406SOL    MW425392   4.137   5.013   4.384 -0.3124 -0.4614  0.2572
 6407SOL     OW25393   5.968   2.193   1.541 -0.0280 -0.4654  0.6138
 6407SOL    HW225394   5.932   2.235   1.619 -0.2422 -0.7824  0.6859
 6407SOL    HW325395   5.924   2.108   1.536  0.2376 -0.5907  0.3424
 6407SOL    MW425396   5.958   2.188   1.551 -0.0212 -0.5238  0.5875
 6408SOL     OW25397   0.270   2.629   5.841 -0.0429 -0.1685  0.0152
 6408SOL    HW225398   0.281   2.719   5.812  0.5756 -0.5493 -0.9924
 6408SOL    HW325399   0.190   2.599   5.797 -0.7784  0.1577  1.0867
 6408SOL    MW425400   0.261   2.637   5.831 -0.0584 -0.1757  0.0236
 6409SOL     OW25401   0.390   5.540   4.252  0.1374  0.4397 -0.4105
 6409SOL    HW225402   0.485   5.529   4.248  0.1273  0.3804 -0.5104
 6409SOL    HW325403   0.373   5.616   4.196  0.1302  0.4700 -0.3666
 6409SOL    MW425404   0.401   5.549   4.244  0.1351  0.4359 -0.4179
 6410SOL     OW25405   1.352   0.299   4.919  0.0856 -0.2455  0.3665
 6410SOL    HW225406   1.429   0.354   4.934  0.8865 -0.9857 -0.8315
 6410SOL    HW325407   1.318   0.281   5.007 -0.3624  2.3061  0.7906
 6410SOL    MW425408   1.358   0.304   4.933  0.1322 -0.0065  0.2644
 6411SOL     OW25409   6.195   4.136   3.086 -0.0596  0.1410  0.3955
 6411SOL    HW225410   6.228   4.162   3.001  0.4499 -2.6431 -0.3737
 6411SOL    HW325411   6.100   4.136   3.076 -0.1245  2.0212  0.6182
 6411SOL    MW425412   6.187   4.139   3.074 -0.0009  0.0217  0.3234
 6412SOL     OW25413   3.147   3.356   6.223  0.4081 -0.1184 -0.0407
 6412SOL    HW225414   3.073   3.296   6.215 -1.2002  1.7359  0.1809
 6412SOL    HW325415   3.144   3.410   6.145 -0.0621  1.6332  1.1302
 6412SOL    MW425416   3.137   3.355   6.212  0.1338  0.3574  0.1430
 6413SOL     OW25417   0.467   2.712   1.157  0.8155  0.2927  0.4750
 6413SOL    HW225418   0.526   2.658   1.210  1.0385 -1.3316 -1.3598
 6413SOL    HW325419   0.515   2.729   1.076 -2.1073 -3.5766 -2.4032
 6413SOL    MW425420   0.481   2.707   1.154  0.4593 -0.4321 -0.1468
 6414SOL     OW25421   0.490   1.167   3.323 -0.5000  0.1590 -0.0110
 6414SOL    HW225422   0.579   1.134   3.315 -0.1855  0.7873  0.7863
 6414SOL    HW325423   0.436   1.089   3.335 -0.0920 -0.2371 -0.7012
 6414SOL    MW425424   0.494   1.153   3.323 -0.4047  0.1896  0.0032
 6415SOL     OW25425   1.310   2.301   6.368 -0.1411  0.0256 -0.6334
 6415SOL    HW225426   1.389   2.267   6.324 -0.7564  1.0034 -2.5981
 6415SOL    HW325427   1.249   2.319   6.297 -1.9241 -0.0661  0.8045
 6415SOL    MW425428   1.313   2.299   6.353 -0.4575  0.1425 -0.7029
 6416SOL     OW25429   2.441   5.288   3.503 -0.4383  0.2763  0.0292
 6416SOL    HW225430   2.461   5.371   3.461  0.4064 -0.3434 -0.8475
 6416SOL    HW325431   2.403   5.234   3.434  0.6302 -0.6405  0.1184
 6416SOL    MW425432   2.439   5.292   3.489 -0.1858  0.0736 -0.0747
 6417SOL     OW25433   4.699   6.288   3.952 -0.7471 -0.1520  0.1590
 6417SOL    HW225434   4.647   6.334   3.886  1.2390 -1.0505 -2.1539
 6417SOL    HW325435   4.727   6.357   4.013 -0.3242  1.2110 -1.5064
 6417SOL    MW425436   4.696   6.303   3.951 -0.4292 -0.0907 -0.3658
 6418SOL     OW25437   6.344   0.888   5.396 -0.0837  0.1528 -0.3520
 6418SOL    HW225438   6.339   0.858   5.305 -0.5102 -0.8626 -0.0066
 6418SOL    HW325439   6.394   0.969   5.392  1.9424 -1.0765 -1.2074
 6418SOL    MW425440   6.350   0.895   5.383  0.1274 -0.1433 -0.4193
 6419SOL     OW25441   1.863   5.257   1.034  0.3309  0.3305  0.2817
 6419SOL    HW225442   1.906   5.250   1.120  0.5290  2.0147  0.3501
 6419SOL    HW325443   1.928   5.299   0.978  0.0898 -0.4902 -0.6217
 6419SOL    MW425444   1.878   5.262   1.038  0.3252  0.4445  0.1715
 6420SOL     OW25445   4.606   5.982   3.768 -0.1816 -0.0739 -0.2931
 6420SOL    HW225446   4.543   6.005   3.837  0.0290  1.6824 -0.6274
 6420SOL    HW325447   4.691   5.993   3.809 -0.0699 -0.2895 -0.4663
 6420SOL    MW425448   4.609   5.987   3.783 -0.1391  0.1294 -0.3600
 6421SOL     OW25449   4.786   4.601   2.559 -0.4426 -0.2714 -0.0213
 6421SOL    HW225450   4.805   4.521   2.511  1.6277  0.7259 -0.9892
 6421SOL    HW325451   4.734   4.654   2.499  0.8847  0.3646 -0.6547
 6421SOL    MW425452   4.782   4.597   2.545  0.0056 -0.0559 -0.2326
 6422SOL     OW25453   5.070   2.306   6.244 -0.4646  0.3032  0.5036
 6422SOL    HW225454   5.046   2.231   6.188  0.3333  0.0960  0.4245
 6422SOL    HW325455   5.005   2.373   6.223  0.1252  0.4208 -1.0744
 6422SOL    MW425456   5.058   2.305   6.234 -0.2815  0.2913  0.2849
 6423SOL     OW25457   3.793   5.341   0.564  0.0517  0.4411  0.0479
 6423SOL    HW225458   3.844   5.383   0.633 -0.2822 -0.4922  0.8842
 6423SOL    HW325459   3.706   5.380   0.572 -0.1830 -0.1829  0.6437
 6423SOL    MW425460   3.788   5.352   0.574 -0.0233  0.2357  0.2368
 6424SOL     OW25461   5.967   4.871   1.821  0.0069  0.4529  0.1768
 6424SOL    HW225462   5.878   4.893   1.796 -0.0036 -0.3787 -0.5453
 6424SOL    HW325463   5.974   4.898   1.913 -1.2682 -0.2720  0.5073
 6424SOL    MW425464   5.956   4.877   1.830 -0.1627  0.2476  0.1251
 6425SOL     OW25465   0.483   0.773   1.773  0.0843  0.2404  0.0230
 6425SOL    HW225466   0.428   0.770   1.851 -1.1180 -0.1796 -0.8033
 6425SOL    HW325467   0.556   0.713   1.792 -0.5601 -0.3791  0.5629
 6425SOL    MW425468   0.486   0.765   1.786 -0.1593  0.1032 -0.0147
 6426SOL     OW25469   1.694   2.815   2.431 -0.2321  0.0992 -0.2004
 6426SOL    HW225470   1.788   2.807   2.445 -0.2511  0.8534  0.4197
 6426SOL    HW325471   1.678   2.909   2.424 -1.2188  0.1493  1.9033
 6426SOL    MW425472   1.704   2.827   2.432 -0.3648  0.2053  0.1590
 6427SOL     OW25473   5.505   5.261   5.699 -0.2325 -0.2575  0.2747
 6427SOL    HW225474   5.507   5.338   5.756  0.0602  0.4825 -0.7196
 6427SOL    HW325475   5.546   5.192   5.751  2.2878  1.0050  0.1167
 6427SOL    MW425476   5.510   5.262   5.713  0.1387  0.0067  0.1227
 6428SOL     OW25477   5.411   0.782   3.904  0.0919 -0.9394 -0.2287
 6428SOL    HW225478   5.333   0.833   3.925  1.3864  0.4623  1.4192
 6428SOL    HW325479   5.464   0.840   3.849  1.2906 -0.6948  1.1355
 6428SOL    MW425480   5.408   0.796   3.899  0.4209 -0.7222  0.1687
 6429SOL     OW25481   2.739   1.989   4.978 -0.0463 -0.5599 -0.0588
 6429SOL    HW225482   2.720   1.964   4.888 -0.2490 -0.4230 -0.0551
 6429SOL    HW325483   2.783   2.074   4.971 -1.4406  0.1949  0.0465
 6429SOL    MW425484   2.743   1.997   4.965 -0.2570 -0.4423 -0.0444
 6430SOL     OW25485   4.002   6.426   6.244  0.4010  0.6611 -0.3717
 6430SOL    HW225486   4.052   6.387   6.316 -1.0710  1.6127  1.2434
 6430SOL    HW325487   3.979   6.513   6.275 -1.2108  0.6992 -1.5678
 6430SOL    MW425488   4.006   6.432   6.257 -0.0059  0.7917 -0.3164
 6431SOL     OW25489   3.539   1.197   0.109 -0.0823  0.4729  0.4572
 6431SOL    HW225490   3.445   1.205   0.096 -0.1276 -0.3719  0.2198
 6431SOL    HW325491   3.568   1.136   0.042  0.2296 -1.2177  2.0455
 6431SOL    MW425492   3.531   1.190   0.099 -0.0472  0.1384  0.6354
 6432SOL     OW25493   1.892   1.615   0.468  0.1621 -0.3712  0.3191
 6432SOL    HW225494   1.875   1.563   0.390 -0.3325  0.8211 -0.3987
 6432SOL    HW325495   1.983   1.642   0.460 -0.7464  2.6792 -1.7649
 6432SOL    MW425496   1.902   1.612   0.457 -0.0230  0.1886 -0.0506
 6433SOL     OW25497   0.473   2.859   0.406  0.1730  0.7710  0.2042
 6433SOL    HW225498   0.507   2.856   0.317  2.3951  1.0289  0.9968
 6433SOL    HW325499   0.440   2.770   0.422 -0.1575  0.6960 -0.8160
 6433SOL    MW425500   0.473   2.847   0.396  0.4226  0.7952  0.1741
 6434SOL     OW25501   5.811   1.025   3.460 -0.2645  0.5457 -0.0544
 6434SOL    HW225502   5.722   1.060   3.469  0.0428  1.4092 -0.2525
 6434SOL    HW325503   5.862   1.097   3.423  0.5359  0.0805  0.1038
 6434SOL    MW425504   5.806   1.039   3.456 -0.1183  0.5982 -0.0597
 6435SOL     OW25505   2.735   1.526   1.382 -0.3914 -0.3402  0.2479
 6435SOL    HW225506   2.682   1.469   1.327  0.7204 -0.4465 -0.7775
 6435SOL    HW325507   2.762   1.597   1.323  2.5568 -1.5306 -0.0385
 6435SOL    MW425508   2.732   1.528   1.367  0.1443 -0.5113  0.0748
 6436SOL     OW25509   3.596   5.561   0.193 -0.4493 -0.2956 -0.0405
 6436SOL    HW225510   3.677   5.611   0.195 -0.3470 -0.4793  0.9747
 6436SOL    HW325511   3.546   5.593   0.269 -1.8106  0.5947 -1.2540
 6436SOL    MW425512   3.600   5.572   0.204 -0.6154 -0.2024 -0.0667
 6437SOL     OW25513   1.511   4.360   6.033  0.4620 -0.2198 -0.0963
 6437SOL    HW225514   1.563   4.412   5.971  2.2270 -0.3568  1.1840
 6437SOL    HW325515   1.451   4.422   6.073  1.8378  0.6724  0.6667
 6437SOL    MW425516   1.510   4.375   6.030  0.8764 -0.1202  0.1733
 6438SOL     OW25517   1.238   3.990   1.546 -0.1572  0.1548 -0.4132
 6438SOL    HW225518   1.251   4.085   1.547  0.6253  0.0613 -0.7520
 6438SOL    HW325519   1.218   3.970   1.454 -0.7885  0.0514 -0.2522
 6438SOL    MW425520   1.237   4.000   1.534 -0.1372  0.1288 -0.4366
 6439SOL     OW25521   1.819   1.250   4.237 -0.6046 -0.3964 -0.1327
 6439SOL    HW225522   1.803   1.241   4.143 -0.0647  2.1727 -0.5467
 6439SOL    HW325523   1.845   1.342   4.248  0.8434 -1.0170  2.3195
 6439SOL    MW425524   1.820   1.261   4.226 -0.3423 -0.1393  0.1362
 6440SOL     OW25525   5.363   3.074   1.930 -0.1251 -0.2034 -0.3680
 6440SOL    HW225526   5.285   3.099   1.880 -0.1817  1.0253  0.3036
 6440SOL    HW325527   5.376   3.146   1.991  1.9422 -0.0548 -0.9281
 6440SOL    MW425528   5.354   3.087   1.931  0.1402 -0.0217 -0.3533
 6441SOL     OW25529   3.293   3.373   2.747 -0.3979 -0.0667  0.0770
 6441SOL    HW225530   3.361   3.434   2.775 -0.5066  0.2248 -0.2870
 6441SOL    HW325531   3.242   3.422   2.682 -1.4769  0.0214  0.9536
 6441SOL    MW425532   3.295   3.388   2.742 -0.5546 -0.0166  0.1446
 6442SOL     OW25533   2.805   1.690   2.364 -0.5726  0.7354 -0.5103
 6442SOL    HW225534   2.755   1.676   2.444 -0.1481 -0.0238 -0.3651
 6442SOL    HW325535   2.867   1.617   2.362 -0.5253  0.7869 -1.4860
 6442SOL    MW425536   2.806   1.678   2.374 -0.5104  0.6420 -0.6199
 6443SOL     OW25537   5.274   2.028   0.498 -0.7323 -0.1652  0.0715
 6443SOL    HW225538   5.321   2.097   0.452 -0.6069 -0.4021 -0.1603
 6443SOL    HW325539   5.191   2.019   0.452 -0.9939  0.2310  0.4616
 6443SOL    MW425540   5.269   2.036   0.486 -0.7502 -0.1442  0.0924
 6444SOL     OW25541   0.207   5.910   5.003  0.8943 -0.5810 -0.2081
 6444SOL    HW225542   0.211   5.823   4.964  1.6345 -1.4058  1.6129
 6444SOL    HW325543   0.133   5.907   5.062 -0.6999  0.9056 -1.9739
 6444SOL    MW425544   0.198   5.898   5.005  0.7816 -0.4937 -0.2008
 6445SOL     OW25545   6.148   2.282   3.344  0.5431  0.0498  0.0146
 6445SOL    HW225546   6.070   2.230   3.322  0.4124 -0.1654  0.9555
 6445SOL    HW325547   6.142   2.295   3.439  1.7343 -0.0970  0.1216
 6445SOL    MW425548   6.137   2.277   3.354  0.6830  0.0020  0.1528
 6446SOL     OW25549   4.454   3.914   5.168 -0.2854  0.8034 -0.3126
 6446SOL    HW225550   4.421   3.886   5.083 -0.4612 -2.6220  0.7292
 6446SOL    HW325551   4.382   3.897   5.229  1.0981 -0.6104  1.0396
 6446SOL    MW425552   4.440   3.908   5.165 -0.1260  0.1649  0.0033
 6447SOL     OW25553   1.010   4.181   5.471  0.7486  0.0736 -0.4460
 6447SOL    HW225554   1.002   4.220   5.384  1.6902 -0.2769 -0.7036
 6447SOL    HW325555   1.096   4.208   5.502 -0.0274  1.1350  0.8750
 6447SOL    MW425556   1.020   4.189   5.463  0.7704  0.1674 -0.3057
 6448SOL     OW25557   3.424   5.615   1.056 -0.5004  0.1616  0.1870
 6448SOL    HW225558   3.423   5.540   1.115  0.8576 -1.0406 -1.2446
 6448SOL    HW325559   3.446   5.690   1.113  0.1007 -0.8298  1.3056
 6448SOL    MW425560   3.427   5.615   1.072 -0.2419 -0.1278  0.1457
 6449SOL     OW25561   0.931   0.162   5.578 -0.4104  0.0005 -0.3319
 6449SOL    HW225562   0.960   0.087   5.630  1.8489 -0.9899 -2.7902
 6449SOL    HW325563   0.979   0.237   5.615 -0.3329 -0.3129  0.2095
 6449SOL    MW425564   0.941   0.162   5.589 -0.1021 -0.1715 -0.5848
 6450SOL     OW25565   4.064   0.057   5.931 -0.2814  0.5415 -0.2538
 6450SOL    HW225566   4.117   0.078   5.854  1.6757  0.0454  0.8979
 6450SOL    HW325567   3.996  -0.002   5.897  0.5583  0.2954 -1.5931
 6450SOL    MW425568   4.062   0.052   5.916  0.0876  0.4435 -0.2785
 6451SOL     OW25569   1.307   6.388   5.696  0.3338 -0.1664 -0.2469
 6451SOL    HW225570   1.247   6.356   5.764 -1.4206  0.8285 -1.2348
 6451SOL    HW325571   1.383   6.421   5.744 -0.3835 -0.4554  1.1474
 6451SOL    MW425572   1.309   6.388   5.712  0.0077 -0.0733 -0.1933
 6452SOL     OW25573   4.965   5.024   1.665  0.0538 -0.0576 -0.1081
 6452SOL    HW225574   5.035   5.072   1.620 -0.3429  0.6439  0.0116
 6452SOL    HW325575   4.954   4.944   1.614 -0.4875  0.7895 -1.3694
 6452SOL    MW425576   4.973   5.020   1.653 -0.0700  0.1467 -0.2587
 6453SOL     OW25577   1.708   3.792   3.915  0.2474 -0.0293  0.4670
 6453SOL    HW225578   1.698   3.832   3.829 -0.9164  1.1646  1.1200
 6453SOL    HW325579   1.660   3.710   3.910 -0.4142  0.3690  0.1756
 6453SOL    MW425580   1.701   3.786   3.903  0.0066  0.1808  0.5147
 6454SOL     OW25581   4.703   2.262   1.743 -0.2714 -0.2471 -0.1301
 6454SOL    HW225582   4.748   2.288   1.663  0.1779  0.4321  0.3341
 6454SOL    HW325583   4.671   2.174   1.725 -1.3668  0.3808 -1.5632
 6454SOL    MW425584   4.705   2.254   1.730 -0.3566 -0.0746 -0.2579
 6455SOL     OW25585   3.373   4.274   6.473 -0.3330 -0.1910 -0.4853
 6455SOL    HW225586   3.295   4.264   6.419 -0.7248  1.1370 -0.1949
 6455SOL    HW325587   3.382   4.369   6.485  1.6697 -0.2683 -1.0374
 6455SOL    MW425588   3.364   4.285   6.467 -0.1204 -0.0260 -0.5198
 6456SOL     OW25589   5.185   4.531   2.214  0.0329 -0.3250  0.2586
 6456SOL    HW225590   5.159   4.508   2.125  0.4213 -0.9278  0.2914
 6456SOL    HW325591   5.103   4.551   2.259 -0.2190 -0.5758 -0.0833
 6456SOL    MW425592   5.171   4.530   2.208  0.0509 -0.4376  0.2178
 6457SOL     OW25593   3.596   1.241   0.657  0.4252 -0.1754  0.2642
 6457SOL    HW225594   3.549   1.298   0.596 -0.3169 -0.8348  0.2016
 6457SOL    HW325595   3.688   1.251   0.633  0.5885  2.5736  1.5706
 6457SOL    MW425596   3.602   1.250   0.645  0.3488  0.1003  0.4283
 6458SOL     OW25597   4.382   1.085   1.005  0.3839  0.8371 -0.1205
 6458SOL    HW225598   4.301   1.095   1.055  0.2286 -1.3680  0.1760
 6458SOL    HW325599   4.451   1.112   1.066  0.1687 -1.4280  1.2325
 6458SOL    MW425600   4.380   1.090   1.020  0.3350  0.2473  0.0971
 6459SOL     OW25601   6.349   5.928   6.461  0.1711 -0.6197  0.1426
 6459SOL    HW225602   6.286   5.996   6.437  0.1448 -0.9920 -0.9125
 6459SOL    HW325603   6.403   5.918   6.383 -1.0351 -3.1540 -0.4852
 6459SOL    MW425604   6.348   5.936   6.448  0.0085 -1.0032 -0.0794
 6460SOL     OW25605   3.855   5.242   4.983  0.0074  0.0209 -0.0472
 6460SOL    HW225606   3.888   5.179   5.047 -0.5970 -0.2862 -0.0235
 6460SOL    HW325607   3.888   5.327   5.013  2.0513 -0.4209 -0.8724
 6460SOL    MW425608   3.864   5.245   4.995  0.1973 -0.0779 -0.1529
 6461SOL     OW25609   2.754   1.985   6.243 -0.1689 -0.1786 -0.0058
 6461SOL    HW225610   2.782   1.934   6.167  0.3550 -3.2089  2.0096
 6461SOL    HW325611   2.826   2.046   6.259 -0.1817  0.3319 -1.7726
 6461SOL    MW425612   2.767   1.986   6.235 -0.1015 -0.5111  0.0270
 6462SOL     OW25613   1.815   2.754   4.156  0.3022  0.0691 -0.4253
 6462SOL    HW225614   1.893   2.708   4.188  1.8769  0.4197 -3.3981
 6462SOL    HW325615   1.780   2.696   4.089 -1.5673  0.3144  0.2977
 6462SOL    MW425616   1.821   2.740   4.152  0.2633  0.1477 -0.7221
 6463SOL     OW25617   4.201   6.334   2.882 -0.2804  0.1243 -0.0898
 6463SOL    HW225618   4.217   6.427   2.897  2.0422  0.0842 -1.7055
 6463SOL    HW325619   4.236   6.290   2.959  1.4424  0.4660 -0.6443
 6463SOL    MW425620   4.208   6.341   2.894  0.2533  0.1641 -0.3761
 6464SOL     OW25621   3.167   3.747   0.311 -0.6535  0.5436  0.1337
 6464SOL    HW225622   3.211   3.743   0.227 -0.4159 -1.2738  0.2884
 6464SOL    HW325623   3.177   3.837   0.340  0.6255  0.8188 -1.0593
 6464SOL    MW425624   3.174   3.758   0.304 -0.4534  0.3401 -0.0033
 6465SOL     OW25625   3.573   0.777   5.738 -0.4496 -0.8055  0.2136
 6465SOL    HW225626   3.567   0.765   5.643  1.0638 -1.1464  0.1258
 6465SOL    HW325627   3.665   0.798   5.753 -0.2732 -2.4548  1.7657
 6465SOL    MW425628   3.585   0.778   5.727 -0.2267 -1.0681  0.4068
 6466SOL     OW25629   0.034   2.339   1.300 -0.3089  0.6969  0.0053
 6466SOL    HW225630   0.063   2.338   1.391 -0.8763  0.4604  0.1885
 6466SOL    HW325631  -0.013   2.256   1.288 -0.1867  0.6955 -0.5210
 6466SOL    MW425632   0.032   2.328   1.310 -0.3676  0.6655 -0.0399
 6467SOL     OW25633   3.477   4.160   2.861 -0.4549 -0.1270  0.0761
 6467SOL    HW225634   3.533   4.082   2.874 -0.9635 -0.5621 -0.2914
 6467SOL    HW325635   3.472   4.200   2.947 -0.1443 -0.4772  0.2645
 6467SOL    MW425636   3.484   4.155   2.874 -0.4811 -0.2306  0.0525
 6468SOL     OW25637   5.021   1.206   4.068 -0.0875  0.1063 -0.6250
 6468SOL    HW225638   4.950   1.145   4.050 -0.4635  0.7567 -1.4154
 6468SOL    HW325639   5.004   1.281   4.010  0.2279  1.0676  0.4946
 6468SOL    MW425640   5.010   1.208   4.058 -0.0955  0.3190 -0.5815
 6469SOL     OW25641   1.162   1.637   3.352  0.3798  0.0508 -0.0895
 6469SOL    HW225642   1.082   1.586   3.337 -0.7081  1.7973 -0.4232
 6469SOL    HW325643   1.198   1.651   3.265 -0.1428  1.0741 -0.1628
 6469SOL    MW425644   1.156   1.632   3.339  0.1673  0.4162 -0.1432
 6470SOL     OW25645   3.481   2.218   3.847 -0.2665 -0.2313 -0.1169
 6470SOL    HW225646   3.535   2.215   3.768 -0.9049  1.7846 -0.6820
 6470SOL    HW325647   3.545   2.220   3.919  0.3215 -1.4636 -0.5689
 6470SOL    MW425648   3.497   2.218   3.846 -0.2731 -0.1279 -0.2511
 6471SOL     OW25649   5.628   0.894   3.729 -0.0709 -0.1287 -0.2104
 6471SOL    HW225650   5.683   0.818   3.713  0.1420 -0.1265  0.4552
 6471SOL    HW325651   5.689   0.962   3.758 -0.4648 -0.3089  1.1485
 6471SOL    MW425652   5.643   0.893   3.731 -0.0948 -0.1522  0.0567
 6472SOL     OW25653   4.852   1.123   1.642  0.2923  0.3359  0.7195
 6472SOL    HW225654   4.881   1.035   1.661  1.4547  0.8276  1.2715
 6472SOL    HW325655   4.814   1.155   1.724 -1.2378 -0.0436  0.2038
 6472SOL    MW425656   4.851   1.116   1.655  0.2438  0.3507  0.7243
 6473SOL     OW25657   0.023   4.962   0.525  0.2492 -0.2987 -0.1898
 6473SOL    HW225658   0.002   4.916   0.606 -2.3575  1.8660  0.5183
 6473SOL    HW325659   0.004   4.899   0.456  2.8626 -2.3057  0.7599
 6473SOL    MW425660   0.018   4.948   0.527  0.2501 -0.2779  0.0289
 6474SOL     OW25661   1.217   3.752   4.415 -0.1860  0.0298 -0.2997
 6474SOL    HW225662   1.259   3.834   4.439 -0.6987  0.1994  0.0339
 6474SOL    HW325663   1.156   3.775   4.346 -1.3218  0.1872  0.7209
 6474SOL    MW425664   1.215   3.766   4.409 -0.4035  0.0729 -0.1210
 6475SOL     OW25665   0.253   2.158   3.965  0.3267 -0.4632 -0.5516
 6475SOL    HW225666   0.285   2.134   4.052 -1.0828 -0.3190  0.0323
 6475SOL    HW325667   0.161   2.130   3.965  0.0300  0.4535 -1.6327
 6475SOL    MW425668   0.245   2.151   3.976  0.1016 -0.3232 -0.6172
 6476SOL     OW25669   6.325   6.024   4.924 -0.1259  0.0578  0.3970
 6476SOL    HW225670   6.342   5.937   4.887  3.4389  0.8964 -0.3913
 6476SOL    HW325671   6.346   6.084   4.853  1.0993  1.5993  1.9846
 6476SOL    MW425672   6.330   6.020   4.910  0.5061  0.3718  0.5024
 6477SOL     OW25673   3.021   3.541   1.713  0.5712 -0.0056  0.8369
 6477SOL    HW225674   3.106   3.553   1.755  1.2410  3.3784 -1.0741
 6477SOL    HW325675   2.962   3.601   1.761 -0.0158 -0.2201  0.3928
 6477SOL    MW425676   3.024   3.551   1.725  0.5822  0.4126  0.5262
 6478SOL     OW25677   6.123   5.126   0.694 -0.2698 -0.5928 -0.6827
 6478SOL    HW225678   6.113   5.035   0.667  1.7993 -1.2266  0.4870
 6478SOL    HW325679   6.190   5.124   0.762  2.4612  2.1837 -2.9845
 6478SOL    MW425680   6.130   5.114   0.699  0.3635 -0.3101 -0.8321
 6479SOL     OW25681   0.383   5.802   2.523 -0.2859  0.4440 -0.3991
 6479SOL    HW225682   0.328   5.727   2.500 -0.6547  1.2978 -2.5619
 6479SOL    HW325683   0.473   5.771   2.511 -0.4475  0.4375 -1.6930
 6479SOL    MW425684   0.388   5.788   2.519 -0.3558  0.5558 -0.8551
 6480SOL     OW25685   2.972   5.559   0.878  0.0152 -0.4406 -0.3643
 6480SOL    HW225686   3.019   5.489   0.925 -1.5044 -0.8503  0.6021
 6480SOL    HW325687   3.038   5.628   0.867  0.8293 -0.9467  1.0428
 6480SOL    MW425688   2.987   5.559   0.883 -0.0779 -0.5614 -0.0511
 6481SOL     OW25689   2.774   2.464   3.527 -0.4291  0.3157 -0.2914
 6481SOL    HW225690   2.710   2.425   3.466 -1.3517  1.6581 -0.2223
 6481SOL    HW325691   2.720   2.510   3.591  0.5937  0.3315  0.5706
 6481SOL    MW425692   2.758   2.465   3.527 -0.4158  0.4949 -0.1685
 6482SOL     OW25693   3.924   2.836   3.068 -0.0389 -0.7014  0.2106
 6482SOL    HW225694   3.997   2.843   3.006  0.0176  1.6227  0.4378
 6482SOL    HW325695   3.866   2.770   3.030  0.4329  0.0037 -1.8507
 6482SOL    MW425696   3.926   2.828   3.055  0.0308 -0.3017 -0.0314
 6483SOL     OW25697   2.856   0.393   4.598 -0.2162  0.4786  0.4608
 6483SOL    HW225698   2.934   0.340   4.615 -0.4920 -0.4857 -1.1675
 6483SOL    HW325699   2.889   0.483   4.596  0.9802  0.0483 -0.7672
 6483SOL    MW425700   2.871   0.398   4.600 -0.0947  0.2946  0.0839
 6484SOL     OW25701   1.559   0.266   5.621  0.7438  0.0577  0.0401
 6484SOL    HW225702   1.606   0.346   5.643  1.2799 -0.2278 -0.0616
 6484SOL    HW325703   1.517   0.239   5.703 -1.4478  1.7346 -0.4174
 6484SOL    MW425704   1.560   0.273   5.635  0.5254  0.2413 -0.0337
 6485SOL     OW25705   5.186   2.806   4.382 -0.1684  0.1395 -0.2025
 6485SOL    HW225706   5.161   2.888   4.339 -0.1066  1.0087  1.3386
 6485SOL    HW325707   5.103   2.770   4.412 -0.0260  0.6818  0.8811
 6485SOL    MW425708   5.171   2.812   4.380 -0.1415  0.3257  0.1438
 6486SOL     OW25709   4.781   3.953   1.282  0.2261  0.5802  0.1466
 6486SOL    HW225710   4.855   3.971   1.341 -0.0519  1.5591  0.2183
 6486SOL    HW325711   4.703   3.974   1.335 -0.1946 -1.6982  0.5211
 6486SOL    MW425712   4.780   3.958   1.297  0.1340  0.4087  0.2055
 6487SOL     OW25713   4.448   0.256   2.095  0.1867  0.4785 -0.3103
 6487SOL    HW225714   4.387   0.305   2.039 -0.7933 -1.1319 -0.7264
 6487SOL    HW325715   4.510   0.216   2.034  0.1172  0.0570 -0.1111
 6487SOL    MW425716   4.448   0.257   2.079  0.0482  0.2104 -0.3389
 6488SOL     OW25717   0.414   5.889   4.455  0.1712  0.4085  0.2969
 6488SOL    HW225718   0.351   5.918   4.389 -0.1809 -1.8437 -0.4149
 6488SOL    HW325719   0.499   5.892   4.411 -0.1707 -2.0390 -0.6965
 6488SOL    MW425720   0.417   5.893   4.440  0.0796 -0.2116  0.0719
 6489SOL     OW25721   4.726   5.350   5.359  0.0234 -0.6207  0.3851
 6489SOL    HW225722   4.687   5.435   5.381  0.6687 -0.1493 -0.2358
 6489SOL    HW325723   4.652   5.296   5.332 -0.4798 -0.4770  1.4346
 6489SOL    MW425724   4.711   5.354   5.358  0.0421 -0.5396  0.4417
 6490SOL     OW25725   2.191   5.512   3.707 -0.2114 -0.0490 -0.1019
 6490SOL    HW225726   2.216   5.581   3.645  0.6425 -0.2012  0.0689
 6490SOL    HW325727   2.134   5.556   3.770 -0.8936  0.1608 -0.8521
 6490SOL    MW425728   2.187   5.527   3.707 -0.1887 -0.0414 -0.1783
 6491SOL     OW25729   4.139   2.560   3.404 -0.6503 -0.1859 -0.4329
 6491SOL    HW225730   4.124   2.555   3.310  1.4274  0.0880 -0.8237
 6491SOL    HW325731   4.185   2.479   3.426 -2.7733 -1.1783  0.7629
 6491SOL    MW425732   4.143   2.548   3.395 -0.6563 -0.2807 -0.3267
 6492SOL     OW25733   4.434   3.474   5.627 -0.1575  0.4390  0.2229
 6492SOL    HW225734   4.341   3.489   5.646 -0.0546  1.7694 -0.2749
 6492SOL    HW325735   4.436   3.453   5.534 -0.0300 -0.3446  0.3965
 6492SOL    MW425736   4.422   3.473   5.617 -0.1271  0.5111  0.1801
 6493SOL     OW25737   3.146   1.212   1.544 -0.2730 -0.1710  0.2877
 6493SOL    HW225738   3.241   1.211   1.557  0.1837 -0.5545 -2.5657
 6493SOL    HW325739   3.125   1.301   1.518 -0.7561 -0.0488  1.0434
 6493SOL    MW425740   3.156   1.223   1.542 -0.2765 -0.2055  0.0110
 6494SOL     OW25741   3.606   2.563   2.509  0.0868  0.0182  0.3745
 6494SOL    HW225742   3.568   2.613   2.437  0.1682  1.3609  1.2376
 6494SOL    HW325743   3.684   2.523   2.471  0.3241  0.9882 -0.1928
 6494SOL    MW425744   3.611   2.564   2.494  0.1288  0.3233  0.4135
 6495SOL     OW25745   6.295   1.748   4.181 -0.2122  0.8664 -0.1267
 6495SOL    HW225746   6.370   1.749   4.121  0.2734 -1.2148  0.3671
 6495SOL    HW325747   6.320   1.807   4.252  0.4582  1.0984 -0.5493
 6495SOL    MW425748   6.308   1.756   4.183 -0.0597  0.6224 -0.1173
 6496SOL     OW25749   4.137   4.679   1.249  1.1838  0.2055  0.0373
 6496SOL    HW225750   4.127   4.764   1.206  0.2189 -0.4711 -1.1330
 6496SOL    HW325751   4.048   4.650   1.267  1.4635 -0.8662 -0.2098
 6496SOL    MW425752   4.124   4.686   1.246  1.0934 -0.0251 -0.1497
 6497SOL     OW25753   0.694   5.585   0.556  0.6186 -0.0044  0.0328
 6497SOL    HW225754   0.613   5.537   0.572  0.8364 -0.3413  0.1352
 6497SOL    HW325755   0.685   5.665   0.607 -0.5843  0.9917 -1.6375
 6497SOL    MW425756   0.682   5.589   0.565  0.4887  0.0826 -0.1741
 6498SOL     OW25757   2.047   3.616   0.175  0.5757 -0.1822 -0.1614
 6498SOL    HW225758   1.958   3.582   0.188  0.1882  1.1161  0.9118
 6498SOL    HW325759   2.054   3.629   0.081 -0.8850  0.9354 -0.1505
 6498SOL    MW425760   2.036   3.613   0.164  0.3318  0.1366 -0.0184
 6499SOL     OW25761   6.197   4.280   6.045  0.7791  0.5218  0.3919
 6499SOL    HW225762   6.254   4.312   6.115  0.8887  2.7727 -0.6339
 6499SOL    HW325763   6.108   4.299   6.075  0.7720  0.4722  0.4025
 6499SOL    MW425764   6.193   4.287   6.058  0.7926  0.8122  0.2579
 6500SOL     OW25765   5.775   3.504   1.400 -0.3560  0.2834  0.4292
 6500SOL    HW225766   5.867   3.503   1.375 -0.5093 -1.0874 -0.1537
 6500SOL    HW325767   5.764   3.429   1.458 -0.6844  1.6479  2.2221
 6500SOL    MW425768   5.786   3.494   1.404 -0.4196  0.2826  0.5889
 6501SOL     OW25769   1.700   4.188   2.208 -0.2720  0.2051 -0.0770
 6501SOL    HW225770   1.713   4.148   2.294 -0.0043 -0.0401 -0.2275
 6501SOL    HW325771   1.749   4.132   2.148 -0.4814  0.3581 -0.3941
 6501SOL    MW425772   1.708   4.175   2.212 -0.2643  0.1930 -0.1387
 6502SOL     OW25773   0.189   4.386   0.964 -0.1601  0.0414  0.1816
 6502SOL    HW225774   0.133   4.341   1.028 -0.5574 -0.3125 -0.4103
 6502SOL    HW325775   0.129   4.411   0.894  0.1777  0.9298  0.2046
 6502SOL    MW425776   0.173   4.383   0.963 -0.1680  0.1120  0.1065
 6503SOL     OW25777   2.446   2.879   4.214  0.0887 -0.4943  0.0296
 6503SOL    HW225778   2.462   2.933   4.292 -1.3768 -1.4896  1.0624
 6503SOL    HW325779   2.456   2.789   4.244 -0.9060 -0.9131 -0.8125
 6503SOL    MW425780   2.449   2.874   4.228 -0.2359 -0.6809  0.0548
 6504SOL     OW25781   0.526   4.652   3.468  0.0119  0.4253  0.0144
 6504SOL    HW225782   0.481   4.571   3.446  0.9889 -0.3808  0.8915
 6504SOL    HW325783   0.480   4.685   3.546 -1.6281  1.7871 -1.4361
 6504SOL    MW425784   0.514   4.646   3.475 -0.0756  0.4986 -0.0612
 6505SOL     OW25785   0.010   3.912   2.939 -0.3818 -0.1468  0.1375
 6505SOL    HW225786   0.049   3.993   2.906 -0.3122 -0.4006 -0.4142
 6505SOL    HW325787  -0.011   3.931   3.030  0.1871  0.2975  0.1852
 6505SOL    MW425788   0.013   3.925   2.946 -0.2976 -0.1217  0.0710
 6506SOL     OW25789   3.725   4.552   5.343  0.1545  0.2863  0.2031
 6506SOL    HW225790   3.687   4.464   5.338 -2.0836  1.2183 -0.2539
 6506SOL    HW325791   3.817   4.536   5.367  0.0601 -2.1984 -0.7197
 6506SOL    MW425792   3.732   4.538   5.346 -0.1533  0.0814  0.0211
 6507SOL     OW25793   1.334   2.316   4.629  0.4164 -0.2021 -0.1128
 6507SOL    HW225794   1.390   2.307   4.706  0.2371 -2.1672 -0.1615
 6507SOL    HW325795   1.323   2.411   4.619  2.9373  0.2465  0.4458
 6507SOL    MW425796   1.340   2.327   4.638  0.7253 -0.4022 -0.0455
 6508SOL     OW25797   4.604   2.951   1.712 -0.4564 -0.3246  0.1820
 6508SOL    HW225798   4.669   2.918   1.649  0.2238 -1.2977  1.3459
 6508SOL    HW325799   4.542   3.000   1.659  0.4190 -0.6270 -1.1704
 6508SOL    MW425800   4.605   2.953   1.697 -0.2512 -0.4929  0.1571
 6509SOL     OW25801   2.414   2.093   0.473  0.1383  0.4376  0.0101
 6509SOL    HW225802   2.359   2.099   0.395  2.4696  0.5734 -1.7481
 6509SOL    HW325803   2.438   2.000   0.479 -1.0306  0.1900  1.3671
 6509SOL    MW425804   2.410   2.081   0.463  0.2917  0.4229 -0.0428
 6510SOL     OW25805   3.903   2.314   3.776 -0.5525  0.6395 -0.7145
 6510SOL    HW225806   3.819   2.358   3.788 -0.6130  0.7758 -1.6086
 6510SOL    HW325807   3.946   2.362   3.705 -0.8942 -1.1377 -2.1795
 6510SOL    MW425808   3.898   2.327   3.768 -0.6056  0.4230 -1.0257
 6511SOL     OW25809   2.776   6.298   5.449  0.0572  0.1702  0.6079
 6511SOL    HW225810   2.723   6.229   5.407 -0.4430 -0.3988  2.1020
 6511SOL    HW325811   2.768   6.373   5.390  0.0791 -0.8361 -0.7371
 6511SOL    MW425812   2.768   6.299   5.436 -0.0059 -0.0376  0.6276
 6512SOL     OW25813   1.596   0.997   5.285 -0.5421 -0.1823  0.3130
 6512SOL    HW225814   1.586   1.086   5.319  0.3597  0.0884 -0.1020
 6512SOL    HW325815   1.518   0.982   5.232 -0.3443  0.6513 -0.2308
 6512SOL    MW425816   1.585   1.007   5.283 -0.3970 -0.0366  0.1865
 6513SOL     OW25817   2.849   3.586   0.345 -0.2728 -0.3747  0.1977
 6513SOL    HW225818   2.842   3.666   0.294 -1.5580  0.0060  0.9443
 6513SOL    HW325819   2.938   3.554   0.327 -0.7870 -0.4938 -2.5667
 6513SOL    MW425820   2.860   3.592   0.336 -0.5102 -0.3402 -0.0686
 6514SOL     OW25821   0.829   5.489   1.587 -0.4962  0.4351  0.1129
 6514SOL    HW225822   0.838   5.510   1.494  0.4090  0.4472  0.2024
 6514SOL    HW325823   0.774   5.560   1.622 -1.0867  0.2731 -0.4619
 6514SOL    MW425824   0.823   5.501   1.579 -0.4547  0.4153  0.0489
 6515SOL     OW25825   2.456   1.138   3.874  0.4359  0.1632 -0.2654
 6515SOL    HW225826   2.401   1.164   3.947 -0.0078 -1.8154  0.1592
 6515SOL    HW325827   2.526   1.203   3.872  0.1187  0.6042  1.5176
 6515SOL    MW425828   2.458   1.150   3.883  0.3355 -0.0397  0.0259
 6516SOL     OW25829   0.317   0.202   2.936  0.0468  0.4582 -0.9559
 6516SOL    HW225830   0.256   0.245   2.877 -0.4615 -1.2472 -1.7588
 6516SOL    HW325831   0.394   0.184   2.882  1.2516  2.4628  0.0108
 6516SOL    MW425832   0.319   0.205   2.921  0.1387  0.4977 -0.9343
 6517SOL     OW25833   4.404   2.126   4.643  0.0516  0.1993  0.5072
 6517SOL    HW225834   4.499   2.121   4.633 -0.0039  0.7322 -0.4479
 6517SOL    HW325835   4.388   2.218   4.663 -0.4848  0.8909 -2.5966
 6517SOL    MW425836   4.415   2.138   4.645 -0.0265  0.3609 -0.0284
 6518SOL     OW25837   4.394   5.956   1.415  0.6944  0.2214  0.8947
 6518SOL    HW225838   4.368   5.946   1.506  3.5864 -0.9517  1.7153
 6518SOL    HW325839   4.421   6.047   1.407  0.5713  0.2902  1.2513
 6518SOL    MW425840   4.394   5.966   1.426  1.0597  0.0757  1.0501
 6519SOL     OW25841   0.381   3.481   3.815  0.2800  0.0760  0.3379
 6519SOL    HW225842   0.323   3.454   3.886 -0.6251 -0.7128 -0.6578
 6519SOL    HW325843   0.417   3.399   3.780  0.7287  0.4458 -0.0935
 6519SOL    MW425844   0.378   3.467   3.819  0.2197  0.0207  0.1496
 6520SOL     OW25845   0.885   4.648   1.605  0.0631  0.1551 -0.1136
 6520SOL    HW225846   0.828   4.659   1.681 -0.4135 -2.4998  0.0081
 6520SOL    HW325847   0.966   4.613   1.641  0.4207  0.4032 -0.6718
 6520SOL    MW425848   0.888   4.645   1.620  0.0474 -0.1624 -0.1712
 6521SOL     OW25849   0.527   0.642   2.149 -0.2521  0.4683  0.3498
 6521SOL    HW225850   0.480   0.632   2.232  0.4812  1.5418  0.9272
 6521SOL    HW325851   0.547   0.553   2.121 -1.3108  0.0610  0.8577
 6521SOL    MW425852   0.524   0.629   2.156 -0.2950  0.5562  0.4930
 6522SOL     OW25853   1.489   5.840   2.729  0.1017  0.2135  0.4510
 6522SOL    HW225854   1.578   5.876   2.726 -0.1700  1.2207  2.6273
 6522SOL    HW325855   1.476   5.801   2.643  2.4142  0.6105 -0.1371
 6522SOL    MW425856   1.499   5.840   2.717  0.3709  0.3988  0.6605
 6523SOL     OW25857   5.009   3.347   1.600  0.3715 -0.0302  0.4044
 6523SOL    HW225858   4.940   3.377   1.659 -1.1552  1.1430 -1.8204
 6523SOL    HW325859   5.064   3.290   1.654  2.3289  4.9706  4.4912
 6523SOL    MW425860   5.007   3.343   1.615  0.4284  0.7844  0.6501
 6524SOL     OW25861   2.072   5.639   1.670  0.3218 -0.1005 -0.0011
 6524SOL    HW225862   2.014   5.597   1.734 -1.5241 -0.0095 -1.5456
 6524SOL    HW325863   2.144   5.672   1.723  0.0055 -1.9668  1.7497
 6524SOL    MW425864   2.074   5.638   1.686  0.0365 -0.3348  0.0261
 6525SOL     OW25865   1.249   2.536   2.104 -0.2676 -0.6443 -0.3157
 6525SOL    HW225866   1.268   2.613   2.157 -0.8201  0.1050 -1.2019
 6525SOL    HW325867   1.245   2.464   2.168  2.3763 -0.3504  0.3066
 6525SOL    MW425868   1.251   2.536   2.120  0.0083 -0.5067 -0.3505
 6526SOL     OW25869   5.863   0.976   2.243 -0.1554  0.2011  0.4565
 6526SOL    HW225870   5.849   0.982   2.338 -2.2067 -1.6312  0.3512
 6526SOL    HW325871   5.778   0.950   2.208  0.8523 -0.3209 -1.7653
 6526SOL    MW425872   5.850   0.973   2.251 -0.2931 -0.1095  0.1495
 6527SOL     OW25873   5.494   2.428   5.087  0.1113  0.0072  0.0277
 6527SOL    HW225874   5.566   2.476   5.046  0.8548 -0.3311  0.9078
 6527SOL    HW325875   5.474   2.358   5.025  1.2067 -0.4872  0.2176
 6527SOL    MW425876   5.501   2.425   5.073  0.3539 -0.1026  0.1689
 6528SOL     OW25877   3.382   1.540   4.970 -0.5076  0.3019  0.5154
 6528SOL    HW225878   3.417   1.599   5.037 -0.7024 -1.1623  1.9794
 6528SOL    HW325879   3.287   1.552   4.975 -0.5054  0.4430  0.2448
 6528SOL    MW425880   3.374   1.549   4.979 -0.5330  0.1273  0.6729
 6529SOL     OW25881   3.765   0.483   1.254  0.1826  0.0065 -0.1633
 6529SOL    HW225882   3.739   0.575   1.256  0.1776  0.0474 -1.3717
 6529SOL    HW325883   3.729   0.445   1.334 -1.1601  0.6968 -0.4201
 6529SOL    MW425884   3.757   0.490   1.265  0.0048  0.1030 -0.3566
 6530SOL     OW25885   0.480   5.250   5.664 -0.4639  0.5512  0.1371
 6530SOL    HW225886   0.450   5.313   5.598  0.8621 -0.0507 -1.0864
 6530SOL    HW325887   0.441   5.167   5.637  0.8054  0.1226 -0.4480
 6530SOL    MW425888   0.471   5.247   5.651 -0.1215  0.4152 -0.1015
 6531SOL     OW25889   1.115   5.744   2.796  0.5489  0.1172 -0.0027
 6531SOL    HW225890   1.171   5.667   2.807 -0.7027 -0.5854  1.8400
 6531SOL    HW325891   1.092   5.742   2.703  1.5409 -1.0254 -0.2580
 6531SOL    MW425892   1.119   5.733   2.785  0.5146 -0.1262  0.2068
 6532SOL     OW25893   5.838   2.881   3.797  0.1931 -0.1465  0.0233
 6532SOL    HW225894   5.831   2.805   3.855  0.8573 -0.1459  0.1211
 6532SOL    HW325895   5.797   2.853   3.716 -0.9399 -0.0747  0.5531
 6532SOL    MW425896   5.832   2.867   3.794  0.1312 -0.1370  0.1061
 6533SOL     OW25897   5.701   2.696   3.993 -0.4722 -0.0384  0.0156
 6533SOL    HW225898   5.636   2.762   3.968 -0.8525 -0.0631  0.9189
 6533SOL    HW325899   5.665   2.614   3.960  0.0578  0.1959 -1.2161
 6533SOL    MW425900   5.687   2.694   3.985 -0.4524 -0.0108 -0.0277
 6534SOL     OW25901   6.035   4.465   2.405 -1.0927 -0.3915  0.2973
 6534SOL    HW225902   6.072   4.381   2.430  0.7807 -0.0336 -1.0162
 6534SOL    HW325903   5.941   4.457   2.422 -1.2640 -3.3952 -1.4646
 6534SOL    MW425904   6.028   4.453   2.410 -0.8681 -0.7406 -0.1085
 6535SOL     OW25905   4.980   2.646   2.632  0.1280 -0.9122 -0.6212
 6535SOL    HW225906   4.943   2.599   2.707 -0.4705 -0.8828 -0.8882
 6535SOL    HW325907   4.938   2.732   2.634  3.0504  0.6444  1.3334
 6535SOL    MW425908   4.970   2.651   2.642  0.4346 -0.7030 -0.3985
 6536SOL     OW25909   3.473   5.541   5.328 -1.0110  0.6175 -0.2758
 6536SOL    HW225910   3.400   5.597   5.302 -0.2601  0.9491 -1.8071
 6536SOL    HW325911   3.515   5.517   5.245  0.6457  0.4854  0.5636
 6536SOL    MW425912   3.469   5.545   5.313 -0.6933  0.6438 -0.3671
 6537SOL     OW25913   3.927   2.531   1.452  0.1986 -0.3246 -0.1744
 6537SOL    HW225914   3.870   2.567   1.519 -1.4955  1.3172 -2.3505
 6537SOL    HW325915   3.896   2.442   1.439 -0.2263 -0.2614  0.3863
 6537SOL    MW425916   3.916   2.524   1.459 -0.0810 -0.0997 -0.3876
 6538SOL     OW25917   0.652   3.211   5.579 -0.4975  0.1373 -0.5705
 6538SOL    HW225918   0.696   3.258   5.650  1.6514 -1.2293 -0.9045
 6538SOL    HW325919   0.655   3.119   5.605  3.2583 -0.8866 -3.6466
 6538SOL    MW425920   0.658   3.205   5.592  0.2816 -0.1781 -1.0204
 6539SOL     OW25921   2.662   0.162   3.695  0.3779  0.0358  0.1767
 6539SOL    HW225922   2.619   0.162   3.610 -0.9499 -0.8610  0.8069
 6539SOL    HW325923   2.724   0.089   3.690  1.8589  1.2884 -0.7095
 6539SOL    MW425924   2.665   0.152   3.683  0.3981  0.0828  0.1429
 6540SOL     OW25925   4.781   0.539   0.896 -0.5526  0.0212 -0.0530
 6540SOL    HW225926   4.710   0.496   0.943 -1.2653  0.5969 -0.5800
 6540SOL    HW325927   4.747   0.626   0.875 -0.0576 -0.0305 -1.1463
 6540SOL    MW425928   4.767   0.545   0.899 -0.5814  0.0903 -0.2668
 6541SOL     OW25929   2.911   1.511   5.551  0.4091 -1.1778 -0.2117
 6541SOL    HW225930   2.969   1.451   5.598  0.3346 -0.3158  1.0143
 6541SOL    HW325931   2.939   1.504   5.459  2.3779 -0.8827  0.3171
 6541SOL    MW425932   2.923   1.502   5.545  0.6590 -1.0251  0.0198
 6542SOL     OW25933   3.089   5.319   2.425 -0.2451  1.1312 -0.1184
 6542SOL    HW225934   3.072   5.392   2.365  1.0383  1.6254  0.0693
 6542SOL    HW325935   3.028   5.251   2.398  1.0936  0.8349 -2.8772
 6542SOL    MW425936   3.079   5.320   2.413  0.1008  1.1573 -0.4576
 6543SOL     OW25937   4.830   2.837   0.169 -0.3075 -0.1537 -0.5577
 6543SOL    HW225938   4.755   2.892   0.190 -0.7423 -0.8101 -0.3649
 6543SOL    HW325939   4.814   2.808   0.079 -0.3754 -0.4373 -0.4550
 6543SOL    MW425940   4.818   2.841   0.160 -0.3738 -0.2777 -0.5188
 6544SOL     OW25941   0.505   4.329   3.995 -0.3820  0.2200 -0.4307
 6544SOL    HW225942   0.535   4.298   3.910  0.6969  0.1644 -0.0450
 6544SOL    HW325943   0.573   4.302   4.056 -1.3128 -0.0574  0.5144
 6544SOL    MW425944   0.518   4.322   3.992 -0.3625  0.1761 -0.2551
 6545SOL     OW25945   0.991   0.255   1.825  0.7281  0.1105  0.1498
 6545SOL    HW225946   0.912   0.213   1.858 -0.9650  0.5541 -2.8981
 6545SOL    HW325947   1.012   0.322   1.890 -1.3281 -0.1123  1.1258
 6545SOL    MW425948   0.984   0.258   1.838  0.2334  0.1396 -0.1236
 6546SOL     OW25949   3.568   4.924   0.894 -0.3908 -0.2472  0.0133
 6546SOL    HW225950   3.537   4.934   0.804  0.9698  2.4674 -0.2727
 6546SOL    HW325951   3.609   4.838   0.896  1.0881  0.2864 -2.5180
 6546SOL    MW425952   3.569   4.914   0.882 -0.0162  0.1814 -0.3584
 6547SOL     OW25953   4.278   4.786   4.309 -0.4697 -0.1369  0.3257
 6547SOL    HW225954   4.370   4.813   4.301 -0.8646  1.5058  0.7875
 6547SOL    HW325955   4.250   4.770   4.219 -0.1310  0.8679  0.0275
 6547SOL    MW425956   4.287   4.788   4.296 -0.4771  0.2124  0.3473
 6548SOL     OW25957   5.596   5.791   1.592  0.3554  0.0260  0.2241
 6548SOL    HW225958   5.564   5.743   1.668 -1.3979 -0.5250 -0.7836
 6548SOL    HW325959   5.584   5.883   1.615 -0.7992 -0.1466  0.3968
 6548SOL    MW425960   5.590   5.797   1.605 -0.0282 -0.0695  0.1139
 6549SOL     OW25961   1.694   4.992   3.198  0.3071  0.2476 -0.9962
 6549SOL    HW225962   1.620   5.043   3.230 -0.5357 -1.1252 -0.6802
 6549SOL    HW325963   1.655   4.924   3.142  1.2736 -0.7508 -0.5024
 6549SOL    MW425964   1.679   4.990   3.195  0.3234 -0.0653 -0.8894
 6550SOL     OW25965   0.986   5.226   6.132  0.5521  0.0027 -0.2333
 6550SOL    HW225966   1.046   5.168   6.086  0.1135  1.1682 -2.4184
 6550SOL    HW325967   0.901   5.182   6.126  0.7046 -0.4536  0.6703
 6550SOL    MW425968   0.983   5.213   6.126  0.5144  0.0963 -0.4024
 6551SOL     OW25969   5.357   3.742   0.331 -0.0004 -0.4702 -0.0922
 6551SOL    HW225970   5.264   3.763   0.324  0.4712  1.7336 -0.6796
 6551SOL    HW325971   5.376   3.690   0.253 -0.3713  0.7826 -1.0556
 6551SOL    MW425972   5.347   3.738   0.320  0.0129 -0.0142 -0.2968
 6552SOL     OW25973   5.766   0.409   3.928  0.1382 -0.1033  0.1276
 6552SOL    HW225974   5.687   0.432   3.880  0.2435  1.0807  0.4944
 6552SOL    HW325975   5.837   0.452   3.879  0.2003  1.5343  1.5609
 6552SOL    MW425976   5.765   0.418   3.915  0.1603  0.2690  0.3651
 6553SOL     OW25977   3.117   4.860   2.909  0.4431 -0.2000 -0.0952
 6553SOL    HW225978   3.103   4.938   2.963 -3.0240  1.2641 -2.7356
 6553SOL    HW325979   3.049   4.799   2.936  0.2570 -0.4399 -1.0616
 6553SOL    MW425980   3.106   4.862   2.920 -0.0389 -0.0385 -0.5711
 6554SOL     OW25981   4.364   1.904   3.264 -0.4738 -0.5231 -0.0139
 6554SOL    HW225982   4.394   1.992   3.239 -1.4990  0.2508  1.3310
 6554SOL    HW325983   4.423   1.845   3.218  0.1199  0.8620 -1.1215
 6554SOL    MW425984   4.375   1.908   3.255 -0.5307 -0.2383  0.0174
 6555SOL     OW25985   2.606   0.181   6.338  0.4088  0.2205  0.4182
 6555SOL    HW225986   2.616   0.146   6.250  0.9066  0.5567  0.3367
 6555SOL    HW325987   2.684   0.152   6.385  0.9066  1.3113  0.3097
 6555SOL    MW425988   2.617   0.173   6.333  0.5402  0.4088  0.3931
 6556SOL     OW25989   2.299   0.742   3.999  0.3447  0.6148 -0.6299
 6556SOL    HW225990   2.356   0.791   4.059  1.8453 -0.5180 -1.0683
 6556SOL    HW325991   2.278   0.806   3.930  0.1511  1.3816  0.1272
 6556SOL    MW425992   2.304   0.757   3.998  0.5171  0.5665 -0.5879
 6557SOL     OW25993   1.608   3.099   4.172 -0.5769 -0.4835  0.2451
 6557SOL    HW225994   1.700   3.087   4.195 -1.2898 -2.9243  2.3502
 6557SOL    HW325995   1.598   3.055   4.088  0.2350  0.0595 -0.1432
 6557SOL    MW425996   1.619   3.092   4.164 -0.5638 -0.7339  0.4716
 6558SOL     OW25997   5.881   0.551   2.153  0.1938 -0.0074  0.1324
 6558SOL    HW225998   5.909   0.627   2.101  2.3092 -1.2408 -0.6461
 6558SOL    HW325999   5.961   0.521   2.196  0.0296 -3.2866 -1.5961
 6558SOL    MW426000   5.895   0.557   2.151  0.4512 -0.6028 -0.1984
 6559SOL     OW26001   4.323   4.518   1.805  0.4552 -0.1564  0.4564
 6559SOL    HW226002   4.268   4.493   1.880 -1.3049 -0.6615 -0.9275
 6559SOL    HW326003   4.378   4.442   1.789 -1.2423 -1.2435 -0.5310
 6559SOL    MW426004   4.323   4.504   1.813 -0.0010 -0.3664  0.1436
 6560SOL     OW26005   4.115   4.001   1.082  0.7467  0.3616  0.6593
 6560SOL    HW226006   4.170   3.993   1.004 -1.5820 -1.5669 -0.9377
 6560SOL    HW326007   4.057   4.075   1.064 -0.8920 -1.0664 -0.3111
 6560SOL    MW426008   4.114   4.010   1.070  0.2232 -0.0812  0.3206
 6561SOL     OW26009   6.095   4.754   4.360 -0.0638  0.2385 -0.6077
 6561SOL    HW226010   6.186   4.749   4.387 -0.3619 -2.2296  0.2246
 6561SOL    HW326011   6.092   4.713   4.274 -0.8606 -3.6752  1.0827
 6561SOL    MW426012   6.106   4.748   4.352 -0.2083 -0.6035 -0.2749
 6562SOL     OW26013   2.869   4.757   4.518 -0.3080 -0.1267 -0.7268
 6562SOL    HW226014   2.773   4.754   4.511 -0.7729  3.1913  1.8120
 6562SOL    HW326015   2.888   4.730   4.608  0.8613  1.4514 -0.4497
 6562SOL    MW426016   2.859   4.753   4.529 -0.2151  0.5193 -0.3553
 6563SOL     OW26017   5.776   1.332   1.164  0.3532  0.4916  0.6079
 6563SOL    HW226018   5.700   1.378   1.129 -0.2081  0.0207  1.1937
 6563SOL    HW326019   5.833   1.320   1.088 -0.2445  0.6724  0.1195
 6563SOL    MW426020   5.774   1.336   1.149  0.2003  0.4533  0.6208
 6564SOL     OW26021   5.041   0.320   1.529  0.3459  0.7616 -0.1441
 6564SOL    HW226022   5.134   0.335   1.546  0.2388  1.6633 -0.2654
 6564SOL    HW326023   5.002   0.310   1.615  0.6537 -0.3480 -0.1163
 6564SOL    MW426024   5.048   0.321   1.542  0.3724  0.7342 -0.1564
 6565SOL     OW26025   4.007   3.291   0.664 -0.4742  0.1625 -0.2781
 6565SOL    HW226026   4.051   3.361   0.711 -0.3654 -0.8065  1.1087
 6565SOL    HW326027   3.956   3.336   0.596  0.3672  1.4969 -0.0643
 6565SOL    MW426028   4.006   3.306   0.661 -0.3488  0.2107 -0.0669
 6566SOL     OW26029   5.973   4.840   5.653 -0.8853  0.4209 -0.6661
 6566SOL    HW226030   5.946   4.880   5.736 -0.2797  0.1182 -0.3175
 6566SOL    HW326031   6.037   4.774   5.678 -0.4971  0.5079 -1.4052
 6566SOL    MW426032   5.978   4.836   5.667 -0.7542  0.3924 -0.7177
 6567SOL     OW26033   6.434   3.499   0.649 -0.5778  0.0642  0.3214
 6567SOL    HW226034   6.378   3.433   0.610  1.0471 -1.0949 -0.1634
 6567SOL    HW326035   6.514   3.498   0.595  0.8333  0.0295  2.2915
 6567SOL    MW426036   6.437   3.490   0.637 -0.1772 -0.0933  0.5174
 6568SOL     OW26037   1.421   2.318   2.730 -0.0548  1.0237 -0.1679
 6568SOL    HW226038   1.507   2.282   2.748 -0.6994 -0.9123 -0.7237
 6568SOL    HW326039   1.432   2.368   2.649  0.7928  1.8203  0.4312
 6568SOL    MW426040   1.434   2.320   2.721 -0.0280  0.8734 -0.1622
 6569SOL     OW26041   0.318   2.239   2.613  0.0026  0.1462 -0.2899
 6569SOL    HW226042   0.362   2.323   2.602  0.3231 -0.2040 -1.8639
 6569SOL    HW326043   0.226   2.258   2.593  0.3904 -0.2403 -2.6810
 6569SOL    MW426044   0.311   2.252   2.609  0.0961  0.0490 -0.8130
 6570SOL     OW26045   0.274   6.148   6.452 -0.2989 -0.6842 -0.1281
 6570SOL    HW226046   0.207   6.117   6.514 -0.6978 -0.1081 -0.2651
 6570SOL    HW326047   0.269   6.243   6.457 -0.4763 -0.6241 -1.1801
 6570SOL    MW426048   0.264   6.156   6.460 -0.3749 -0.6002 -0.2849
 6571SOL     OW26049   0.710   4.178   2.591 -0.1275  0.1812  0.3423
 6571SOL    HW226050   0.678   4.215   2.508 -1.0440 -0.7912  0.2315
 6571SOL    HW326051   0.641   4.198   2.654 -0.9006 -1.7232  0.1647
 6571SOL    MW426052   0.696   4.185   2.588 -0.3504 -0.1983  0.3043
 6572SOL     OW26053   4.938   1.115   3.175  0.3763 -0.1210  0.2771
 6572SOL    HW226054   5.004   1.164   3.126  0.7219  0.3440  1.1912
 6572SOL    HW326055   4.975   1.107   3.263  0.2344 -1.8200  0.2209
 6572SOL    MW426056   4.952   1.120   3.180  0.4032 -0.2838  0.3903
 6573SOL     OW26057   3.000   3.635   3.480 -0.0031  0.1927 -0.4039
 6573SOL    HW226058   2.999   3.621   3.575  0.4720  0.1078 -0.4090
 6573SOL    HW326059   2.998   3.730   3.470 -2.8892  0.2307 -0.3636
 6573SOL    MW426060   3.000   3.646   3.491 -0.3212  0.1865 -0.3992
 6574SOL     OW26061   5.566   2.994   1.018  0.1242 -0.3975 -0.4004
 6574SOL    HW226062   5.580   2.919   1.076 -0.2965  1.3514  2.1174
 6574SOL    HW326063   5.615   3.065   1.059 -0.4689  1.0098 -2.0399
 6574SOL    MW426064   5.574   2.993   1.031 -0.0096  0.0189 -0.2846
 6575SOL     OW26065   4.672   3.181   4.681  0.1421  0.0445  0.3005
 6575SOL    HW226066   4.579   3.204   4.673  0.3403  1.2143  1.0696
 6575SOL    HW326067   4.713   3.261   4.713  1.4283 -0.4608 -0.0488
 6575SOL    MW426068   4.665   3.194   4.684  0.3379  0.1321  0.3559
 6576SOL     OW26069   3.941   0.233   1.535 -0.1481 -0.1585 -0.2656
 6576SOL    HW226070   3.911   0.147   1.504  3.2351 -1.5599 -0.0585
 6576SOL    HW326071   3.934   0.227   1.630 -3.0692  1.1865 -0.2870
 6576SOL    MW426072   3.936   0.221   1.543 -0.0872 -0.1660 -0.2411
 6577SOL     OW26073   1.460   6.219   0.824  0.2950 -0.0028 -0.2305
 6577SOL    HW226074   1.455   6.148   0.887  1.6065 -0.4254 -0.5709
 6577SOL    HW326075   1.442   6.298   0.875  0.5035 -0.4162  0.5013
 6577SOL    MW426076   1.457   6.220   0.839  0.4956 -0.1131 -0.1788
 6578SOL     OW26077   3.567   2.898   4.749 -0.4785  0.1848 -0.3464
 6578SOL    HW226078   3.521   2.874   4.668 -0.8751  0.8651 -0.3347
 6578SOL    HW326079   3.633   2.830   4.760 -0.4900  0.0242 -1.1840
 6578SOL    MW426080   3.569   2.886   4.740 -0.5324  0.2533 -0.4554
 6579SOL     OW26081   2.640   4.265   4.109 -0.3219 -0.5036  0.0944
 6579SOL    HW226082   2.586   4.202   4.156 -0.2925  0.8247  2.0274
 6579SOL    HW326083   2.728   4.252   4.144  0.0922 -0.7552 -0.9988
 6579SOL    MW426084   2.644   4.255   4.120 -0.2634 -0.3615  0.2052
 6580SOL     OW26085   2.833   0.904   6.266 -0.2683  0.2330 -0.2403
 6580SOL    HW226086   2.861   0.903   6.358 -1.2722 -3.5645  0.2205
 6580SOL    HW326087   2.738   0.916   6.271 -0.7013 -2.3839 -0.4331
 6580SOL    MW426088   2.824   0.905   6.279 -0.4579 -0.6133 -0.2049
 6581SOL     OW26089   3.647   1.159   4.060  0.4860 -0.8398  0.2058
 6581SOL    HW226090   3.622   1.228   4.121 -0.8116 -0.9762 -0.1431
 6581SOL    HW326091   3.565   1.118   4.035  0.6779  0.4282 -3.0890
 6581SOL    MW426092   3.633   1.163   4.065  0.3401 -0.6905 -0.2749
 6582SOL     OW26093   3.586   4.255   1.795  0.0827  0.4058 -0.0857
 6582SOL    HW226094   3.596   4.232   1.703  2.5436  2.8855 -0.5641
 6582SOL    HW326095   3.534   4.336   1.794 -0.5401  0.0315  0.7847
 6582SOL    MW426096   3.580   4.263   1.783  0.3252  0.6836 -0.0340
 6583SOL     OW26097   1.148   1.872   2.516  0.0998 -0.1629 -0.6010
 6583SOL    HW226098   1.077   1.936   2.525 -0.4154 -0.3937 -2.5050
 6583SOL    HW326099   1.155   1.831   2.602  0.2372  2.2060  0.5891
 6583SOL    MW426100   1.139   1.875   2.528  0.0500  0.1192 -0.6952
 6584SOL     OW26101   5.695   5.209   2.320 -0.1553 -0.1689 -0.0754
 6584SOL    HW226102   5.623   5.249   2.272  0.7377 -2.7394 -4.0430
 6584SOL    HW326103   5.664   5.121   2.340  0.6838 -0.1773  1.3124
 6584SOL    MW426104   5.682   5.203   2.316  0.0732 -0.5092 -0.4158
 6585SOL     OW26105   0.165   4.786   2.129  0.3554  0.0141  0.0196
 6585SOL    HW226106   0.245   4.829   2.158  1.2468 -0.3788 -1.7230
 6585SOL    HW326107   0.150   4.820   2.041 -0.6403 -0.9223 -0.1955
 6585SOL    MW426108   0.174   4.796   2.122  0.3416 -0.1613 -0.2387
 6586SOL     OW26109   4.982   5.007   5.729 -0.6622 -0.3410  0.4838
 6586SOL    HW226110   4.924   5.081   5.712 -0.2917 -0.5973 -2.3540
 6586SOL    HW326111   4.954   4.940   5.667  0.2943 -1.8630  1.6209
 6586SOL    MW426112   4.971   5.008   5.718 -0.4871 -0.5756  0.2594
 6587SOL     OW26113   2.390   2.782   0.122  0.0291 -0.1000 -0.6681
 6587SOL    HW226114   2.327   2.725   0.077 -0.4548 -0.0625 -0.0478
 6587SOL    HW326115   2.382   2.866   0.077 -1.8262  0.4890  0.6500
 6587SOL    MW426116   2.381   2.785   0.110 -0.2795 -0.0173 -0.4124
 6588SOL     OW26117   0.703   1.201   1.549 -0.5140 -0.2178 -0.6207
 6588SOL    HW226118   0.617   1.184   1.587 -0.2469 -1.2436 -0.4401
 6588SOL    HW326119   0.717   1.295   1.562 -0.9836 -0.3002  0.6608
 6588SOL    MW426120   0.693   1.211   1.556 -0.5407 -0.3640 -0.4278
 6589SOL     OW26121   3.351   1.988   3.962  0.0154 -0.3776 -0.1528
 6589SOL    HW226122   3.371   1.930   3.889 -0.9469 -1.4249  0.3862
 6589SOL    HW326123   3.361   2.076   3.926 -1.8056 -0.8236 -1.9936
 6589SOL    MW426124   3.355   1.992   3.948 -0.3518 -0.5746 -0.3246
 6590SOL     OW26125   0.160   0.966   0.149 -0.5576 -1.3448 -0.2792
 6590SOL    HW226126   0.240   0.980   0.100 -1.0483  0.4835 -0.6201
 6590SOL    HW326127   0.104   0.916   0.090 -0.4957 -0.6666 -0.9233
 6590SOL    MW426128   0.163   0.961   0.135 -0.6142 -1.0141 -0.4092
 6591SOL     OW26129   2.750   2.046   2.866 -0.2465  0.0321  0.2574
 6591SOL    HW226130   2.813   2.116   2.882 -0.4631  0.0308  1.1147
 6591SOL    HW326131   2.670   2.092   2.840  0.0729  0.0355 -0.7809
 6591SOL    MW426132   2.748   2.061   2.864 -0.2329  0.0324  0.2335
 6592SOL     OW26133   1.569   1.041   2.503 -0.3948  0.1004 -0.2764
 6592SOL    HW226134   1.655   1.035   2.543  0.5372 -1.2815 -2.3107
 6592SOL    HW326135   1.575   1.114   2.441  0.2133 -1.5258 -2.2451
 6592SOL    MW426136   1.581   1.050   2.500 -0.1916 -0.2965 -0.8045
 6593SOL     OW26137   4.987   3.453   3.275  0.1451  0.2446 -0.5990
 6593SOL    HW226138   4.915   3.405   3.315  0.3994 -1.0944 -1.7054
 6593SOL    HW326139   4.945   3.511   3.211 -0.0082  0.0884 -0.6403
 6593SOL    MW426140   4.972   3.454   3.272  0.1585  0.0473 -0.7505
 6594SOL     OW26141   1.992   5.609   4.339  0.3642  0.2006 -0.1472
 6594SOL    HW226142   2.075   5.640   4.301  0.0492  0.0849 -0.9561
 6594SOL    HW326143   1.954   5.687   4.380  0.1049  0.6560 -1.2082
 6594SOL    MW426144   1.998   5.624   4.339  0.2884  0.2454 -0.3939
 6595SOL     OW26145   6.096   0.214   2.379 -0.8100  0.2199 -0.0219
 6595SOL    HW226146   6.081   0.223   2.285 -1.2160  0.9265  0.1069
 6595SOL    HW326147   6.189   0.190   2.386 -0.6419  0.6888 -0.5763
 6595SOL    MW426148   6.106   0.212   2.368 -0.8414  0.3750 -0.0780
 6596SOL     OW26149   3.298   0.571   4.145  0.2737  0.1213 -0.0048
 6596SOL    HW226150   3.304   0.545   4.053  0.3535 -0.1124  0.0656
 6596SOL    HW326151   3.295   0.666   4.143  2.2738  0.2171 -0.1324
 6596SOL    MW426152   3.298   0.580   4.133  0.5481  0.1031 -0.0123
 6597SOL     OW26153   4.163   3.539   5.671  0.0891 -0.6410 -0.0193
 6597SOL    HW226154   4.141   3.522   5.579  1.2397 -1.0233 -0.2505
 6597SOL    HW326155   4.151   3.633   5.682 -2.9011 -0.9613  0.2727
 6597SOL    MW426156   4.159   3.549   5.660 -0.1536 -0.7337 -0.0113
 6598SOL     OW26157   1.427   1.770   4.659 -0.2524  0.1105  1.1570
 6598SOL    HW226158   1.445   1.682   4.691 -1.8867 -0.8502 -0.3557
 6598SOL    HW326159   1.348   1.761   4.605 -0.0798  2.3752  0.3793
 6598SOL    MW426160   1.419   1.758   4.656 -0.4453  0.2826  0.8548
 6599SOL     OW26161   3.630   5.631   2.322 -0.1796 -0.4486  0.9295
 6599SOL    HW226162   3.618   5.537   2.332 -0.3260 -0.6008 -0.4624
 6599SOL    HW326163   3.628   5.665   2.411 -1.1233 -1.6468  1.3938
 6599SOL    MW426164   3.628   5.623   2.335 -0.3234 -0.6267  0.8071
 6600SOL     OW26165   0.182   4.485   3.114 -0.0362 -0.1130 -0.3897
 6600SOL    HW226166   0.183   4.409   3.173  0.0582  0.0471 -0.1841
 6600SOL    HW326167   0.205   4.559   3.170 -0.6475  0.1499 -0.4730
 6600SOL    MW426168   0.185   4.485   3.129 -0.1044 -0.0572 -0.3736
 6601SOL     OW26169   3.448   5.656   0.403  0.4920  0.1908 -0.2701
 6601SOL    HW226170   3.509   5.726   0.426 -0.4583  0.9493  0.0357
 6601SOL    HW326171   3.365   5.682   0.444 -0.3056 -0.2911 -1.4995
 6601SOL    MW426172   3.445   5.669   0.412  0.2614  0.2273 -0.3919
 6602SOL     OW26173   0.632   2.991   3.742 -0.1401  0.2035  0.8435
 6602SOL    HW226174   0.579   3.070   3.754 -1.2644 -0.7173  2.4104
 6602SOL    HW326175   0.708   3.020   3.691 -1.0731  2.0325  0.4030
 6602SOL    MW426176   0.635   3.005   3.737 -0.4115  0.3233  0.9921
 6603SOL     OW26177   3.534   1.009   4.503  0.6551  0.0800  0.1561
 6603SOL    HW226178   3.482   1.087   4.486 -0.1696 -0.0833  1.7755
 6603SOL    HW326179   3.573   1.024   4.589 -2.1418 -2.5711  2.1077
 6603SOL    MW426180   3.532   1.021   4.512  0.1772 -0.2913  0.6273
 6604SOL     OW26181   5.526   1.905   4.979 -0.0119  0.6171 -0.4010
 6604SOL    HW226182   5.601   1.943   5.025 -0.6732 -0.2414  1.4653
 6604SOL    HW326183   5.460   1.974   4.978  1.3487  2.0838 -3.7676
 6604SOL    MW426184   5.528   1.919   4.985  0.0804  0.6974 -0.5990
 6605SOL     OW26185   6.410   3.190   2.321  0.2239  0.0414  0.2277
 6605SOL    HW226186   6.503   3.185   2.300 -0.1157  1.0359 -1.8372
 6605SOL    HW326187   6.368   3.210   2.237 -1.7808  0.3030  1.2276
 6605SOL    MW426188   6.417   3.192   2.307 -0.0854  0.2071  0.0872
 6606SOL     OW26189   5.607   2.264   1.326  0.3287  0.0193  0.2053
 6606SOL    HW226190   5.685   2.232   1.280  0.0690 -0.3750  0.0383
 6606SOL    HW326191   5.565   2.185   1.360 -0.3907  0.1610 -0.3274
 6606SOL    MW426192   5.612   2.250   1.325  0.1995 -0.0140  0.1130
 6607SOL     OW26193   6.269   2.936   5.280 -0.1488 -0.7590 -0.2160
 6607SOL    HW226194   6.235   3.024   5.297  0.4807 -0.2117 -1.6354
 6607SOL    HW326195   6.348   2.950   5.228 -0.0713 -2.1733 -0.5305
 6607SOL    MW426196   6.275   2.949   5.276 -0.0555 -0.8734 -0.4448
 6608SOL     OW26197   2.789   1.900   3.506  0.0526  0.0322  0.1344
 6608SOL    HW226198   2.728   1.881   3.577 -1.0585 -1.3618 -1.1285
 6608SOL    HW326199   2.783   1.825   3.448  0.3698  1.4163 -1.8118
 6608SOL    MW426200   2.780   1.888   3.507 -0.0522  0.0309 -0.2890
 6609SOL     OW26201   4.616   1.914   3.042 -0.1911 -0.4926  0.2334
 6609SOL    HW226202   4.652   1.974   3.108 -1.1440  0.4207 -0.0519
 6609SOL    HW326203   4.693   1.875   3.001  0.4485  0.3386  0.6046
 6609SOL    MW426204   4.631   1.916   3.046 -0.2324 -0.2624  0.2447
 6610SOL     OW26205   2.312   0.599   2.882  0.6966 -0.0085 -0.0861
 6610SOL    HW226206   2.306   0.548   2.963  0.4675 -0.3440 -0.3077
 6610SOL    HW326207   2.400   0.580   2.848  0.4318 -0.6833 -0.4326
 6610SOL    MW426208   2.323   0.590   2.888  0.6314 -0.1418 -0.1611
 6611SOL     OW26209   2.784   1.913   4.075  0.0083 -0.4773 -0.3092
 6611SOL    HW226210   2.867   1.950   4.046  0.1975 -0.5766  0.1069
 6611SOL    HW326211   2.801   1.879   4.163 -1.5903  3.6601  1.8746
 6611SOL    MW426212   2.797   1.913   4.083 -0.1776  0.0555  0.0338
 6612SOL     OW26213   5.116   4.735   5.709 -0.3849  0.0186  0.3255
 6612SOL    HW226214   5.068   4.670   5.761 -0.9089  0.3406  0.2510
 6612SOL    HW326215   5.110   4.816   5.760 -3.3073  1.0894 -1.4354
 6612SOL    MW426216   5.109   4.737   5.722 -0.8397  0.2024  0.0834
 6613SOL     OW26217   5.807   0.616   0.433 -0.6106  0.6046  0.2590
 6613SOL    HW226218   5.730   0.633   0.379  0.0576 -0.4819 -1.0867
 6613SOL    HW326219   5.881   0.646   0.381  0.1286 -1.3428  0.0890
 6613SOL    MW426220   5.807   0.622   0.419 -0.4249  0.2043  0.0590
 6614SOL     OW26221   5.042   6.015   2.145 -0.0688 -0.0738 -0.2114
 6614SOL    HW226222   5.134   6.018   2.170 -0.4981  0.8981  1.4271
 6614SOL    HW326223   5.024   6.102   2.109 -0.5797  0.0912  0.4251
 6614SOL    MW426224   5.051   6.027   2.143 -0.1929  0.0762  0.0887
 6615SOL     OW26225   0.679   4.235   4.213 -0.3940  0.2620 -0.2867
 6615SOL    HW226226   0.756   4.179   4.224  1.6900  2.6649 -1.4700
 6615SOL    HW326227   0.663   4.271   4.300 -0.3679 -0.4241  0.0130
 6615SOL    MW426228   0.687   4.232   4.226 -0.1156  0.4885 -0.4033
 6616SOL     OW26229   2.513   0.963   0.625 -0.3366 -0.1233 -0.1414
 6616SOL    HW226230   2.584   0.900   0.610  0.9394  1.0768  0.5578
 6616SOL    HW326231   2.506   0.969   0.720 -0.9110  0.2965 -0.2044
 6616SOL    MW426232   2.522   0.955   0.636 -0.2440  0.0904 -0.0575
 6617SOL     OW26233   4.845   0.284   5.483 -0.4319  0.3002  0.0785
 6617SOL    HW226234   4.829   0.322   5.569  0.0297  0.4207  0.1147
 6617SOL    HW326235   4.758   0.265   5.448 -0.6111 -0.4852  0.8979
 6617SOL    MW426236   4.832   0.286   5.490 -0.3946  0.2125  0.1914
 6618SOL     OW26237   3.542   3.321   3.555 -0.3329  0.0096 -0.4483
 6618SOL    HW226238   3.560   3.229   3.533  0.2751  0.9057 -4.3953
 6618SOL    HW326239   3.449   3.332   3.538 -0.3654  0.2073 -0.1559
 6618SOL    MW426240   3.532   3.310   3.550 -0.2569  0.1539 -0.9305
 6619SOL     OW26241   1.877   6.233   3.505 -0.0505 -0.0484 -0.3847
 6619SOL    HW226242   1.915   6.202   3.423 -1.7090  0.0404 -1.2298
 6619SOL    HW326243   1.785   6.208   3.500 -0.4196  0.9097  0.9868
 6619SOL    MW426244   1.870   6.226   3.494 -0.3180  0.0898 -0.3152
 6620SOL     OW26245   4.504   2.866   0.816  0.1357 -0.0430 -0.5115
 6620SOL    HW226246   4.412   2.870   0.840  0.3134  1.6959  0.0426
 6620SOL    HW326247   4.504   2.853   0.721 -0.7466  2.1178 -0.8565
 6620SOL    MW426248   4.492   2.865   0.807  0.0428  0.4715 -0.4839
 6621SOL     OW26249   1.941   5.774   5.351 -0.0661  0.4631  0.3293
 6621SOL    HW226250   1.876   5.734   5.294 -0.4282 -0.3886  1.2995
 6621SOL    HW326251   1.889   5.818   5.419  0.3122  2.7626 -0.7806
 6621SOL    MW426252   1.926   5.775   5.353 -0.0640  0.6542  0.3109
 6622SOL     OW26253   5.601   6.203   2.842 -0.0353 -0.3137 -0.1070
 6622SOL    HW226254   5.523   6.170   2.797 -0.5602  0.2906  0.3406
 6622SOL    HW326255   5.607   6.295   2.815  1.4352 -0.7365 -1.3777
 6622SOL    MW426256   5.591   6.211   2.832  0.0894 -0.2897 -0.2156
 6623SOL     OW26257   5.059   5.877   3.669 -0.5274  0.3840 -0.5194
 6623SOL    HW226258   5.139   5.892   3.619 -0.2117  0.6548  0.0518
 6623SOL    HW326259   4.993   5.854   3.604  0.0674 -0.0482 -0.9772
 6623SOL    MW426260   5.061   5.876   3.654 -0.4073  0.3627 -0.5044
 6624SOL     OW26261   3.782   2.704   4.826 -0.4936  0.4616  0.2374
 6624SOL    HW226262   3.853   2.763   4.852 -0.4883  0.4435  0.2648
 6624SOL    HW326263   3.787   2.700   4.731  1.5926 -2.0544  0.3468
 6624SOL    MW426264   3.792   2.711   4.817 -0.2177  0.1273  0.2555
 6625SOL     OW26265   4.551   2.339   4.013  0.5244 -0.9342  0.0772
 6625SOL    HW226266   4.472   2.299   3.976  1.4526 -2.8621  0.1057
 6625SOL    HW326267   4.597   2.375   3.937  0.5697 -1.5174 -0.1733
 6625SOL    MW426268   4.546   2.339   3.998  0.6528 -1.2655  0.0479
 6626SOL     OW26269   4.129   5.450   3.619 -0.1563 -0.0190 -0.1544
 6626SOL    HW226270   4.068   5.515   3.653 -1.1423 -0.4766 -0.9938
 6626SOL    HW326271   4.211   5.498   3.606 -0.2804  0.5666  1.1384
 6626SOL    MW426272   4.131   5.465   3.622 -0.3028 -0.0021 -0.0946
 6627SOL     OW26273   3.836   4.876   2.233 -0.0465  1.0249  0.2899
 6627SOL    HW226274   3.758   4.821   2.226  0.9792 -0.2921 -3.4999
 6627SOL    HW326275   3.868   4.862   2.323 -2.0158 -1.4665  0.7035
 6627SOL    MW426276   3.830   4.867   2.244 -0.1710  0.5224 -0.1556
 6628SOL     OW26277   2.229   4.597   6.360 -0.4630  0.3301 -0.0851
 6628SOL    HW226278   2.141   4.634   6.366 -1.8292 -2.6804  0.3957
 6628SOL    HW326279   2.223   4.513   6.407  2.8519  0.2923  0.4976
 6628SOL    MW426280   2.216   4.590   6.367 -0.2059 -0.0721  0.0552
 6629SOL     OW26281   5.448   1.802   0.932 -0.4953  0.1282  0.2394
 6629SOL    HW226282   5.426   1.889   0.900  0.5828  0.1521 -0.4660
 6629SOL    HW326283   5.455   1.748   0.854 -1.6092 -0.7263  0.6963
 6629SOL    MW426284   5.446   1.806   0.918 -0.5001  0.0186  0.2066
 6630SOL     OW26285   3.431   6.110   1.531  0.0072  0.0856  0.7754
 6630SOL    HW226286   3.354   6.096   1.475  0.5815 -1.3125  0.2837
 6630SOL    HW326287   3.403   6.175   1.595 -1.2439  0.3886 -0.0503
 6630SOL    MW426288   3.417   6.117   1.532 -0.0821 -0.0589  0.6016
 6631SOL     OW26289   3.450   0.596   0.523 -0.2077 -0.0483 -0.2885
 6631SOL    HW226290   3.396   0.638   0.456  0.7321  0.3887 -0.7846
 6631SOL    HW326291   3.539   0.600   0.489  0.1991 -0.4284  0.6861
 6631SOL    MW426292   3.454   0.602   0.510 -0.0300 -0.0408 -0.2253
 6632SOL     OW26293   5.539   5.355   4.353 -0.3183 -0.5306  0.9875
 6632SOL    HW226294   5.536   5.419   4.282  3.4781 -1.8576 -0.6443
 6632SOL    HW326295   5.530   5.270   4.308 -1.5152 -1.3413  2.6400
 6632SOL    MW426296   5.537   5.352   4.338  0.0247 -0.8126  0.9902
 6633SOL     OW26297   5.979   1.926   2.094 -0.1181  0.8061 -0.1344
 6633SOL    HW226298   5.983   1.922   1.998  0.3370  0.2919 -0.0990
 6633SOL    HW326299   5.888   1.910   2.115 -0.2346  0.9858 -0.4857
 6633SOL    MW426300   5.968   1.924   2.084 -0.0734  0.7620 -0.1761
 6634SOL     OW26301   5.702   0.354   5.086  0.1073 -0.1447 -0.1298
 6634SOL    HW226302   5.654   0.279   5.053 -1.3164  0.2535  0.9208
 6634SOL    HW326303   5.675   0.362   5.178 -0.2240  1.9461 -0.3434
 6634SOL    MW426304   5.692   0.345   5.094 -0.1243  0.1837 -0.0193
 6635SOL     OW26305   4.801   6.423   1.271 -0.3667 -0.0398  0.0119
 6635SOL    HW226306   4.768   6.447   1.184 -0.9809 -1.1296 -0.0716
 6635SOL    HW326307   4.811   6.328   1.267  2.3000  0.1713  0.2189
 6635SOL    MW426308   4.798   6.414   1.259 -0.0959 -0.1557  0.0282
 6636SOL     OW26309   6.038   0.257   0.793  0.1090  0.1781  0.5102
 6636SOL    HW226310   6.120   0.228   0.834 -0.3377 -1.0082  0.6013
 6636SOL    HW326311   6.022   0.194   0.723 -0.1516  1.0642 -0.2488
 6636SOL    MW426312   6.047   0.245   0.789  0.0157  0.1385  0.4221
 6637SOL     OW26313   1.683   5.787   5.209  0.1466  0.2955  0.4049
 6637SOL    HW226314   1.676   5.785   5.113  0.9097  0.4228  0.3414
 6637SOL    HW326315   1.664   5.877   5.232  0.9632  0.5088  0.2805
 6637SOL    MW426316   1.679   5.798   5.199  0.3550  0.3404  0.3801
 6638SOL     OW26317   0.836   5.208   0.826 -0.0401  0.4427  0.0650
 6638SOL    HW226318   0.865   5.299   0.825  0.9472  0.1357 -0.0264
 6638SOL    HW326319   0.755   5.209   0.879 -0.2281  1.4149 -0.2255
 6638SOL    MW426320   0.829   5.220   0.833  0.0653  0.5304  0.0146
 6639SOL     OW26321   2.723   5.370   3.018 -0.0981 -0.3622  0.5449
 6639SOL    HW226322   2.819   5.364   3.024  0.2066 -1.9023 -3.3315
 6639SOL    HW326323   2.692   5.283   3.042 -0.5810  0.0664  1.5559
 6639SOL    MW426324   2.732   5.358   3.022 -0.1216 -0.5089  0.1668
 6640SOL     OW26325   0.969   4.175   3.622  0.4260 -0.2357  0.4112
 6640SOL    HW226326   0.942   4.083   3.612 -0.3878 -0.1017  1.3026
 6640SOL    HW326327   0.982   4.206   3.532 -0.9442 -0.7401  0.0141
 6640SOL    MW426328   0.967   4.167   3.608  0.1378 -0.2846  0.4764
 6641SOL     OW26329   0.342   1.368   1.121 -0.3385 -1.0909  0.6247
 6641SOL    HW226330   0.323   1.301   1.186  1.0794 -1.8630  0.2682
 6641SOL    HW326331   0.434   1.390   1.134 -0.2314 -0.7002 -0.6098
 6641SOL    MW426332   0.352   1.362   1.131 -0.1373 -1.1412  0.4148
 6642SOL     OW26333   5.757   5.912   4.741  0.3916 -0.6497  0.3907
 6642SOL    HW226334   5.805   5.880   4.817  1.2398 -0.9225 -0.2434
 6642SOL    HW326335   5.753   6.007   4.754 -0.2824 -0.7823  1.2265
 6642SOL    MW426336   5.763   5.920   4.753  0.4146 -0.7032  0.4173
 6643SOL     OW26337   6.293   2.301   3.771 -0.4570 -0.1416 -0.0327
 6643SOL    HW226338   6.276   2.356   3.848 -0.0726  0.8298 -0.6130
 6643SOL    HW326339   6.214   2.310   3.717 -0.7546 -0.8756  0.2785
 6643SOL    MW426340   6.280   2.310   3.774 -0.4455 -0.1103 -0.0682
 6644SOL     OW26341   3.768   6.424   5.309 -0.2352  0.1291  0.4798
 6644SOL    HW226342   3.799   6.409   5.398 -1.3250 -1.5982  0.6076
 6644SOL    HW326343   3.714   6.502   5.315  0.7394  0.7834  1.0519
 6644SOL    MW426344   3.765   6.432   5.321 -0.2504 -0.0125  0.5722
 6645SOL     OW26345   3.829   5.952   0.629 -0.0886  0.2148 -0.6191
 6645SOL    HW226346   3.911   5.903   0.636 -0.8205 -1.0153 -0.5107
 6645SOL    HW326347   3.768   5.906   0.686 -0.9785  0.8771 -1.0110
 6645SOL    MW426348   3.832   5.940   0.637 -0.3025  0.1399 -0.6565
 6646SOL     OW26349   0.563   0.118   2.767  0.2308  0.1943  0.3975
 6646SOL    HW226350   0.544   0.180   2.696  3.1596  2.0942  1.0923
 6646SOL    HW326351   0.635   0.159   2.815  0.4877 -2.5543  2.5669
 6646SOL    MW426352   0.570   0.132   2.764  0.6511  0.0824  0.7754
 6647SOL     OW26353   3.248   4.940   6.368 -0.0417 -0.7211  0.6105
 6647SOL    HW226354   3.341   4.960   6.382 -0.2034 -0.2462  1.0265
 6647SOL    HW326355   3.238   4.935   6.273  0.1201  0.6097  0.5106
 6647SOL    MW426356   3.259   4.942   6.358 -0.0417 -0.4828  0.6522
 6648SOL     OW26357   2.952   4.269   2.955  0.5420 -0.7479 -0.1393
 6648SOL    HW226358   3.033   4.249   3.002  1.4335 -1.0041 -1.7174
 6648SOL    HW326359   2.980   4.322   2.881 -0.8714 -0.0539 -0.2169
 6648SOL    MW426360   2.966   4.273   2.952  0.4732 -0.6901 -0.3577
 6649SOL     OW26361   1.461   1.143   6.389 -0.1138  0.2894  0.4181
 6649SOL    HW226362   1.457   1.174   6.298 -0.1963 -0.9740 -0.0264
 6649SOL    HW326363   1.369   1.138   6.416 -0.1642 -0.6593  0.0949
 6649SOL    MW426364   1.448   1.147   6.380 -0.1313 -0.0024  0.3168
 6650SOL     OW26365   5.769   3.257   2.371  0.2914 -0.4775 -0.2055
 6650SOL    HW226366   5.737   3.242   2.460  0.8544  0.1111  0.1042
 6650SOL    HW326367   5.719   3.196   2.317 -0.9148 -0.0115  0.3431
 6650SOL    MW426368   5.758   3.247   2.376  0.2065 -0.3384 -0.0923
 6651SOL     OW26369   3.510   0.659   5.089  0.1841  0.0597  0.0292
 6651SOL    HW226370   3.532   0.752   5.091 -0.4937  0.2701 -1.3868
 6651SOL    HW326371   3.576   0.619   5.032 -0.4319 -0.0564 -0.6137
 6651SOL    MW426372   3.522   0.666   5.082  0.0134  0.0721 -0.2424
 6652SOL     OW26373   0.908   6.395   5.991  0.0152 -0.1044  0.3701
 6652SOL    HW226374   0.871   6.479   6.019  0.3155  0.0665  0.2552
 6652SOL    HW326375   0.886   6.389   5.898 -0.4664 -0.3990  0.5000
 6652SOL    MW426376   0.900   6.406   5.983 -0.0087 -0.1208  0.3721
 6653SOL     OW26377   5.506   6.216   3.278  0.4625  0.8132  0.3451
 6653SOL    HW226378   5.497   6.154   3.206  0.9125 -0.3748  1.2747
 6653SOL    HW326379   5.454   6.291   3.251 -2.2622 -0.9507  0.2565
 6653SOL    MW426380   5.498   6.218   3.265  0.1623  0.4238  0.4561
 6654SOL     OW26381   1.893   2.530   2.211 -0.0919 -0.7507  0.2768
 6654SOL    HW226382   1.864   2.555   2.123 -0.7628  1.9535  1.1861
 6654SOL    HW326383   1.961   2.464   2.195 -1.0345 -1.2566 -2.1968
 6654SOL    MW426384   1.898   2.525   2.197 -0.3048 -0.4606  0.0704
 6655SOL     OW26385   4.049   5.142   4.160 -0.0326  0.1486 -0.4844
 6655SOL    HW226386   3.988   5.097   4.101 -0.0320  0.6319 -0.8646
 6655SOL    HW326387   4.020   5.233   4.158  2.1098  0.8709 -2.5200
 6655SOL    MW426388   4.037   5.148   4.152  0.2501  0.3077 -0.8031
 6656SOL     OW26389   3.525   4.399   5.763  0.4120  0.0683 -0.0303
 6656SOL    HW226390   3.525   4.491   5.739 -1.3061  0.6294  1.8391
 6656SOL    HW326391   3.556   4.354   5.684  2.1645  2.2517 -0.6980
 6656SOL    MW426392   3.529   4.405   5.750  0.4166  0.4304  0.1283
 6657SOL     OW26393   6.419   2.593   5.345 -0.4374  0.0512  0.5355
 6657SOL    HW226394   6.447   2.609   5.254  0.3144 -0.5568  0.6474
 6657SOL    HW326395   6.393   2.679   5.377  0.3426  0.4694  0.0858
 6657SOL    MW426396   6.419   2.607   5.337 -0.2353  0.0261  0.4909
 6658SOL     OW26397   1.589   0.427   4.988 -0.0745 -0.1875 -0.1356
 6658SOL    HW226398   1.616   0.481   4.914  0.6629 -0.9636 -0.4410
 6658SOL    HW326399   1.560   0.490   5.054  1.8687  0.6445 -0.0331
 6658SOL    MW426400   1.589   0.442   4.987  0.2792 -0.1802 -0.1624
 6659SOL     OW26401   1.509   4.739   2.323  0.4030 -0.2258 -0.4837
 6659SOL    HW226402   1.456   4.747   2.244 -3.0297 -0.9899  1.5079
 6659SOL    HW326403   1.480   4.812   2.378  0.0071 -1.6923  1.3632
 6659SOL    MW426404   1.498   4.750   2.320 -0.1021 -0.5201  0.0228
 6660SOL     OW26405   0.185   4.096   5.570 -0.4213 -0.3334 -0.4884
 6660SOL    HW226406   0.155   4.024   5.515 -0.8967  0.6561 -1.5483
 6660SOL    HW326407   0.173   4.064   5.659 -0.9304 -1.4397 -0.9350
 6660SOL    MW426408   0.179   4.082   5.575 -0.5512 -0.3488 -0.6871
 6661SOL     OW26409   1.754   5.945   2.744  0.6936  0.3297 -0.1268
 6661SOL    HW226410   1.809   5.869   2.765 -0.6217 -1.1710 -1.8413
 6661SOL    HW326411   1.788   5.976   2.660 -0.6068 -0.2027 -0.8722
 6661SOL    MW426412   1.766   5.939   2.736  0.3485  0.0615 -0.4513
 6662SOL     OW26413   4.209   3.778   6.448  0.1779  0.1605  0.6474
 6662SOL    HW226414   4.300   3.749   6.448 -0.3465 -1.9126 -2.5566
 6662SOL    HW326415   4.163   3.715   6.504  0.3831 -0.0414  0.5873
 6662SOL    MW426416   4.215   3.766   6.455  0.1358 -0.1397  0.2168
 6663SOL     OW26417   1.314   5.200   2.920  0.2881  0.8588  0.3122
 6663SOL    HW226418   1.259   5.143   2.867  0.0097  0.6961  0.7671
 6663SOL    HW326419   1.259   5.276   2.939 -0.4740 -0.1101  2.2975
 6663SOL    MW426420   1.300   5.202   2.916  0.1509  0.7095  0.6342
 6664SOL     OW26421   0.815   5.127   0.357  0.3217  0.0213  0.4912
 6664SOL    HW226422   0.806   5.205   0.412  2.9679 -0.3110  1.5336
 6664SOL    HW326423   0.844   5.161   0.272  0.0467  0.2596  0.4908
 6664SOL    MW426424   0.817   5.142   0.353  0.6346  0.0089  0.6287
 6665SOL     OW26425   2.680   4.825   0.143 -0.0327  0.0189  0.2331
 6665SOL    HW226426   2.682   4.779   0.059 -1.1638 -0.2331  0.3310
 6665SOL    HW326427   2.599   4.796   0.184 -1.0760  2.4943  0.0602
 6665SOL    MW426428   2.670   4.815   0.137 -0.3196  0.3122  0.2232
 6666SOL     OW26429   0.562   3.283   0.249  0.2755  0.1860  0.1682
 6666SOL    HW226430   0.620   3.338   0.196  1.5104 -0.4693  0.7895
 6666SOL    HW326431   0.593   3.194   0.233  0.4926 -0.0428  1.7642
 6666SOL    MW426432   0.574   3.278   0.240  0.4671  0.0693  0.4608
 6667SOL     OW26433   0.775   2.372   0.878  0.3654 -0.3563 -0.5558
 6667SOL    HW226434   0.715   2.411   0.942  2.4434  2.5090 -0.1548
 6667SOL    HW326435   0.845   2.334   0.931  0.5097 -0.8446 -1.0833
 6667SOL    MW426436   0.776   2.372   0.893  0.6586 -0.0427 -0.5725
 6668SOL     OW26437   5.797   2.735   0.997  0.1861 -0.0056  0.9294
 6668SOL    HW226438   5.740   2.677   1.048  0.2629  0.9520  2.1697
 6668SOL    HW326439   5.836   2.793   1.063  2.3476 -0.4143  0.0813
 6668SOL    MW426440   5.794   2.735   1.013  0.4814  0.0668  0.9811
 6669SOL     OW26441   3.306   5.281   3.835 -0.4784 -0.2865 -0.3451
 6669SOL    HW226442   3.291   5.194   3.799 -0.5327 -0.2812 -0.3354
 6669SOL    HW326443   3.367   5.267   3.907 -1.0000 -0.4023  0.0839
 6669SOL    MW426444   3.312   5.268   3.839 -0.5544 -0.3011 -0.2872
 6670SOL     OW26445   0.412   0.084   3.387  0.8386 -0.2441  0.2909
 6670SOL    HW226446   0.408  -0.009   3.410  0.6425  0.0822  1.6200
 6670SOL    HW326447   0.497   0.114   3.419  0.8476  0.0710 -0.0165
 6670SOL    MW426448   0.422   0.076   3.394  0.8139 -0.1595  0.4257
 6671SOL     OW26449   2.340   0.385   5.614 -0.8044  0.5258  0.5010
 6671SOL    HW226450   2.342   0.298   5.575 -1.0375  1.0463 -0.6950
 6671SOL    HW326451   2.328   0.368   5.708  0.2146 -0.7507  0.4385
 6671SOL    MW426452   2.339   0.371   5.622 -0.7007  0.4261  0.3349
 6672SOL     OW26453   2.750   5.961   6.343  0.2954  0.0576  0.1629
 6672SOL    HW226454   2.817   6.014   6.385 -0.6649  0.4541  1.2464
 6672SOL    HW326455   2.711   6.018   6.277  1.1443 -0.2463 -0.6245
 6672SOL    MW426456   2.753   5.975   6.339  0.2807  0.0699  0.2020
 6673SOL     OW26457   1.390   1.391   0.942  0.5158 -0.5552 -0.1498
 6673SOL    HW226458   1.395   1.343   0.859  1.9600 -2.6949  1.0938
 6673SOL    HW326459   1.296   1.396   0.960  0.0658  0.9851 -2.3978
 6673SOL    MW426460   1.378   1.385   0.933  0.6469 -0.6343 -0.2823
 6674SOL     OW26461   0.682   2.539   5.987  0.4187  0.0510 -0.0258
 6674SOL    HW226462   0.603   2.530   6.041  0.5061  0.0446  0.1020
 6674SOL    HW326463   0.742   2.472   6.021  0.4908  0.0753 -0.1033
 6674SOL    MW426464   0.679   2.529   5.999  0.4398  0.0534 -0.0191
 6675SOL     OW26465   1.749   0.270   2.307 -0.3514  0.3830 -0.3518
 6675SOL    HW226466   1.714   0.251   2.220 -1.9305  0.1373  0.3037
 6675SOL    HW326467   1.672   0.293   2.359  0.5983  0.7721  0.9190
 6675SOL    MW426468   1.734   0.270   2.302 -0.4344  0.4019 -0.0977
 6676SOL     OW26469   6.038   2.116   0.844 -0.6330 -0.5215 -0.4088
 6676SOL    HW226470   6.110   2.090   0.787  0.0769  0.7837 -0.1459
 6676SOL    HW326471   6.010   2.202   0.811 -0.4156  0.1091  0.9758
 6676SOL    MW426472   6.044   2.124   0.832 -0.5106 -0.2661 -0.1914
 6677SOL     OW26473   2.451   1.368   4.860  0.8137  0.5019  0.1449
 6677SOL    HW226474   2.382   1.399   4.802  0.7239  0.0528  0.0020
 6677SOL    HW326475   2.466   1.440   4.922 -1.0443 -0.0411  1.3114
 6677SOL    MW426476   2.444   1.381   4.861  0.5567  0.3710  0.2800
 6678SOL     OW26477   5.363   5.127   2.431  0.3566 -0.5342  0.2444
 6678SOL    HW226478   5.291   5.175   2.391  2.0249  2.5395  0.6538
 6678SOL    HW326479   5.357   5.147   2.525  1.8916  0.0689  0.2449
 6678SOL    MW426480   5.353   5.136   2.438  0.7792 -0.0491  0.2985
 6679SOL     OW26481   6.345   2.118   0.337  0.2262  0.1402 -0.2567
 6679SOL    HW226482   6.280   2.146   0.403 -0.6517 -0.8399 -0.6808
 6679SOL    HW326483   6.362   2.026   0.357 -0.2254 -0.2363 -1.5240
 6679SOL    MW426484   6.338   2.110   0.348  0.0508 -0.0388 -0.4799
 6680SOL     OW26485   1.976   6.096   5.883  0.1079  0.1703 -0.0176
 6680SOL    HW226486   2.061   6.138   5.892  0.4055 -0.3883 -0.1710
 6680SOL    HW326487   1.993   6.003   5.899 -0.6072  0.1493  0.7096
 6680SOL    MW426488   1.989   6.089   5.886  0.0528  0.0938  0.0581
 6681SOL     OW26489   4.377   6.283   5.529  0.5991  0.2652  0.3753
 6681SOL    HW226490   4.455   6.234   5.502  0.1018 -0.9655  1.0891
 6681SOL    HW326491   4.313   6.267   5.459  1.2234  2.0273 -0.6861
 6681SOL    MW426492   4.379   6.275   5.516  0.6158  0.3353  0.3295
 6682SOL     OW26493   3.563   5.039   4.188 -0.7227  0.0456 -0.7279
 6682SOL    HW226494   3.632   5.070   4.247 -1.5927 -0.2533  0.4961
 6682SOL    HW326495   3.567   4.944   4.195 -1.7324  0.0351 -0.0442
 6682SOL    MW426496   3.573   5.030   4.197 -0.9707  0.0048 -0.4762
 6683SOL     OW26497   2.872   0.598   4.270  0.4694  0.2552  0.7090
 6683SOL    HW226498   2.902   0.513   4.237  0.6092 -0.3632  2.3288
 6683SOL    HW326499   2.950   0.652   4.271  0.5501  0.1446  0.4366
 6683SOL    MW426500   2.886   0.594   4.266  0.4985  0.1590  0.8868
 6684SOL     OW26501   0.319   4.468   4.798 -0.0399  0.0737 -0.0174
 6684SOL    HW226502   0.346   4.526   4.726  1.4895  0.2271  0.6320
 6684SOL    HW326503   0.327   4.380   4.761 -0.0215  0.1862 -0.2850
 6684SOL    MW426504   0.324   4.464   4.783  0.1643  0.1088  0.0330
 6685SOL     OW26505   1.873   5.364   0.632  0.1881  0.3468  0.1668
 6685SOL    HW226506   1.799   5.320   0.590  0.1228  0.5108  0.1086
 6685SOL    HW326507   1.839   5.450   0.656  0.5248  0.6309 -0.3680
 6685SOL    MW426508   1.859   5.369   0.630  0.2239  0.4059  0.0886
 6686SOL     OW26509   2.318   1.593   1.252 -0.1096 -0.0309  0.1999
 6686SOL    HW226510   2.364   1.672   1.223  0.5406 -0.7959 -0.9041
 6686SOL    HW326511   2.235   1.594   1.205 -0.1279  0.0131  0.2322
 6686SOL    MW426512   2.313   1.604   1.242 -0.0262 -0.1260  0.0585
 6687SOL     OW26513   5.466   1.836   3.780 -0.6125 -0.2575  0.8156
 6687SOL    HW226514   5.392   1.815   3.837  0.5881 -0.8125  2.2396
 6687SOL    HW326515   5.542   1.835   3.838  0.8315 -1.8920 -0.9618
 6687SOL    MW426516   5.466   1.833   3.795 -0.2636 -0.5464  0.7690
 6688SOL     OW26517   0.884   4.956   0.685  0.3971  0.1211  0.1251
 6688SOL    HW226518   0.845   5.032   0.728  0.0997 -0.8633  1.6530
 6688SOL    HW326519   0.809   4.902   0.659  0.6273 -0.0170 -0.2504
 6688SOL    MW426520   0.869   4.959   0.687  0.3882 -0.0270  0.2771
 6689SOL     OW26521   3.048   3.836   1.496  0.2422 -0.2559  0.4421
 6689SOL    HW226522   3.049   3.796   1.409  0.2093 -0.2319  0.4305
 6689SOL    HW326523   3.085   3.923   1.483 -0.4924  0.0453  0.3018
 6689SOL    MW426524   3.053   3.842   1.483  0.1409 -0.2130  0.4221
 6690SOL     OW26525   3.333   2.086   2.856 -0.5520  0.4928 -0.3471
 6690SOL    HW226526   3.320   2.073   2.950  1.3976 -1.7842 -0.3082
 6690SOL    HW326527   3.407   2.145   2.849 -0.7073  0.6764 -0.4756
 6690SOL    MW426528   3.341   2.092   2.867 -0.3152  0.2166 -0.3589
 6691SOL     OW26529   5.946   4.323   1.012 -0.1627 -0.6692  0.2856
 6691SOL    HW226530   5.883   4.393   0.996 -1.6118 -1.6474  1.3575
 6691SOL    HW326531   5.980   4.340   1.100 -1.6117 -2.0241  1.1676
 6691SOL    MW426532   5.942   4.334   1.022 -0.5451 -0.9771  0.5434
 6692SOL     OW26533   5.001   0.435   5.331  0.0418  0.2555  0.2951
 6692SOL    HW226534   4.947   0.385   5.391  0.6364 -0.6956  0.0728
 6692SOL    HW326535   4.943   0.456   5.258  0.1774 -1.6513 -0.4375
 6692SOL    MW426536   4.986   0.431   5.329  0.1381 -0.1216  0.1691
 6693SOL     OW26537   2.159   5.703   1.090  0.1860 -0.1461  0.0614
 6693SOL    HW226538   2.065   5.700   1.070 -0.3125  4.1152  0.6602
 6693SOL    HW326539   2.202   5.709   1.005 -0.4499  1.2846 -0.1876
 6693SOL    MW426540   2.152   5.704   1.076  0.0363  0.6049  0.1075
 6694SOL     OW26541   0.647   5.691   2.788 -0.1991 -0.7439 -0.3595
 6694SOL    HW226542   0.638   5.779   2.751 -0.6287 -0.5295  0.2425
 6694SOL    HW326543   0.733   5.691   2.829 -0.1339 -0.6540 -0.4962
 6694SOL    MW426544   0.657   5.703   2.789 -0.2472 -0.7038 -0.2981
 6695SOL     OW26545   4.247   2.551   4.037 -0.0087  0.7317  0.0358
 6695SOL    HW226546   4.255   2.520   3.946 -2.7588  1.7777 -0.6686
 6695SOL    HW326547   4.161   2.520   4.065  0.2494  1.5548  1.8510
 6695SOL    MW426548   4.237   2.543   4.029 -0.3375  0.9783  0.1824
 6696SOL     OW26549   2.986   3.922   3.525 -0.3920  0.9564  0.9674
 6696SOL    HW226550   2.896   3.903   3.551 -0.5562 -2.9822 -1.6197
 6696SOL    HW326551   2.988   4.017   3.512 -5.0299  0.9985 -1.5881
 6696SOL    MW426552   2.975   3.932   3.527 -1.0256  0.4423  0.2889
 6697SOL     OW26553   3.186   4.221   4.873 -0.0764  0.5466 -0.2070
 6697SOL    HW226554   3.137   4.139   4.877  0.9902 -0.1230 -0.3060
 6697SOL    HW326555   3.182   4.256   4.963  0.4932 -0.2574  0.1432
 6697SOL    MW426556   3.179   4.215   4.886  0.1395  0.3522 -0.1739
 6698SOL     OW26557   4.915   5.141   6.206  0.1236  0.5488  0.1813
 6698SOL    HW226558   4.880   5.220   6.247 -1.0395  0.4001 -0.4740
 6698SOL    HW326559   4.883   5.069   6.260 -0.8630  0.3949 -0.5678
 6698SOL    MW426560   4.906   5.142   6.218 -0.1601  0.5089 -0.0040
 6699SOL     OW26561   2.205   3.902   2.085  0.4621 -0.2313  0.1711
 6699SOL    HW226562   2.135   3.898   2.021  0.5212 -0.5652  0.1275
 6699SOL    HW326563   2.285   3.887   2.035  0.4821 -0.7936  0.3676
 6699SOL    MW426564   2.206   3.899   2.070  0.4725 -0.3495  0.1913
 6700SOL     OW26565   0.818   1.087   6.169  0.0683  0.6264 -0.7598
 6700SOL    HW226566   0.870   1.145   6.224  0.3239 -1.7178  1.7265
 6700SOL    HW326567   0.879   1.054   6.103  1.1050 -0.0845  0.5141
 6700SOL    MW426568   0.833   1.090   6.168  0.2388  0.2233 -0.2637
 6701SOL     OW26569   5.563   1.071   1.690 -0.1609 -0.2513  0.0697
 6701SOL    HW226570   5.563   1.164   1.712  1.6244 -0.0494 -0.6394
 6701SOL    HW326571   5.597   1.068   1.600  1.7555 -1.7081  0.7807
 6701SOL    MW426572   5.567   1.083   1.681  0.3275 -0.4168  0.0700
 6702SOL     OW26573   4.486   3.209   0.099 -0.2319 -0.0480 -0.0872
 6702SOL    HW226574   4.559   3.233   0.043 -0.2354 -1.8093 -0.9221
 6702SOL    HW326575   4.419   3.275   0.082  0.1021 -0.0575 -1.5172
 6702SOL    MW426576   4.487   3.221   0.089 -0.1883 -0.2817 -0.3860
 6703SOL     OW26577   4.070   1.657   3.770  0.5341  0.0658 -0.3517
 6703SOL    HW226578   3.984   1.694   3.789 -0.0197 -1.5091  0.3398
 6703SOL    HW326579   4.125   1.687   3.842 -0.0121 -0.7527  0.4247
 6703SOL    MW426580   4.066   1.666   3.782  0.3890 -0.2500 -0.1580
 6704SOL     OW26581   1.960   0.343   4.240 -0.4461  1.2016 -0.0222
 6704SOL    HW226582   2.049   0.307   4.234 -1.2574 -0.7734 -1.3138
 6704SOL    HW326583   1.966   0.429   4.200  0.6737  0.6258 -1.1694
 6704SOL    MW426584   1.972   0.350   4.234 -0.4054  0.8651 -0.3439
 6705SOL     OW26585   0.990   3.282   2.905  0.7156  0.1981 -0.3112
 6705SOL    HW226586   1.048   3.298   2.979 -0.0439  0.2027  0.2954
 6705SOL    HW326587   0.962   3.191   2.916 -0.4727  0.6095  0.1816
 6705SOL    MW426588   0.994   3.272   2.916  0.4586  0.2530 -0.1661
 6706SOL     OW26589   3.361   4.660   4.711  0.3783 -0.0162  0.1896
 6706SOL    HW226590   3.352   4.616   4.796  0.8748 -0.5195 -0.0084
 6706SOL    HW326591   3.299   4.732   4.714 -0.2970 -0.6044  0.6148
 6706SOL    MW426592   3.352   4.664   4.722  0.3547 -0.1602  0.2196
 6707SOL     OW26593   3.826   2.308   0.478 -0.5718 -0.0124 -0.0108
 6707SOL    HW226594   3.879   2.231   0.497 -0.6452 -0.5408 -1.7732
 6707SOL    HW326595   3.793   2.293   0.389 -1.0406  1.7961 -0.1830
 6707SOL    MW426596   3.828   2.296   0.469 -0.6434  0.1565 -0.2661
 6708SOL     OW26597   3.213   5.971   2.304 -0.0135 -0.4307 -0.1029
 6708SOL    HW226598   3.285   6.028   2.276  0.0505 -0.1083  0.6740
 6708SOL    HW326599   3.256   5.901   2.353 -0.1608 -0.7090 -0.3688
 6708SOL    MW426600   3.228   5.970   2.307 -0.0245 -0.4249 -0.0355
 6709SOL     OW26601   3.642   2.367   5.785  0.6290  0.3381  0.1559
 6709SOL    HW226602   3.551   2.355   5.813  0.5752  1.3554  0.4655
 6709SOL    HW326603   3.694   2.333   5.858  0.4868  0.4491  0.3107
 6709SOL    MW426604   3.637   2.361   5.799  0.6032  0.4870  0.2172
 6710SOL     OW26605   1.571   1.887   4.447 -0.0786 -0.1040  0.0438
 6710SOL    HW226606   1.526   1.848   4.522 -0.3896 -0.5503 -0.3670
 6710SOL    HW326607   1.616   1.963   4.483 -2.3830  1.2813  0.2336
 6710SOL    MW426608   1.571   1.892   4.461 -0.4237  0.0199  0.0146
 6711SOL     OW26609   1.691   2.098   4.585 -0.4058  0.8895 -0.3247
 6711SOL    HW226610   1.691   2.190   4.611 -0.0590  0.1412  2.7441
 6711SOL    HW326611   1.771   2.087   4.534  0.2154  2.0472  0.3640
 6711SOL    MW426612   1.701   2.108   4.582 -0.2781  0.9435  0.1710
 6712SOL     OW26613   2.415   3.618   0.471 -0.2687  0.0249 -0.0405
 6712SOL    HW226614   2.411   3.693   0.411  0.6911  1.8608  2.0330
 6712SOL    HW326615   2.340   3.564   0.446 -1.3675  1.9841 -1.2845
 6712SOL    MW426616   2.404   3.621   0.460 -0.2870  0.5256  0.0690
 6713SOL     OW26617   6.051   2.303   3.603 -0.0871  0.5986  0.0516
 6713SOL    HW226618   5.969   2.335   3.642 -0.1044 -0.3112  0.8018
 6713SOL    HW326619   6.070   2.223   3.652  1.9276  1.4588  0.7629
 6713SOL    MW426620   6.043   2.297   3.615  0.1765  0.5920  0.2445
 6714SOL     OW26621   1.546   0.047   4.788  0.0349  0.3656 -0.0109
 6714SOL    HW226622   1.598   0.105   4.844  0.8569 -0.4385  0.0873
 6714SOL    HW326623   1.611  -0.008   4.744 -0.7690 -2.1131  1.6740
 6714SOL    MW426624   1.561   0.048   4.790  0.0373 -0.0675  0.2244
 6715SOL     OW26625   1.592   6.426   5.382 -0.4578 -0.0748 -0.2484
 6715SOL    HW226626   1.522   6.490   5.377 -1.4282 -1.1157 -0.5671
 6715SOL    HW326627   1.649   6.457   5.453  0.3884  2.3342 -1.8684
 6715SOL    MW426628   1.590   6.438   5.391 -0.4742  0.1057 -0.5042
 6716SOL     OW26629   1.039   4.202   2.392  0.3362  0.4370  0.3455
 6716SOL    HW226630   0.991   4.126   2.359 -0.4251  0.7756  0.6591
 6716SOL    HW326631   1.131   4.174   2.392 -0.0459 -0.9528  1.7002
 6716SOL    MW426632   1.045   4.188   2.387  0.1853  0.2983  0.5656
 6717SOL     OW26633   4.025   2.091   1.608 -0.1187 -0.4799 -0.5216
 6717SOL    HW226634   3.961   2.022   1.588 -1.0740  0.2311  0.0073
 6717SOL    HW326635   4.001   2.163   1.550  0.8354 -0.5534 -1.0229
 6717SOL    MW426636   4.013   2.092   1.598 -0.1189 -0.3958 -0.5180
 6718SOL     OW26637   1.104   4.908   2.347  0.1155 -0.0417  0.2428
 6718SOL    HW226638   1.031   4.957   2.383 -0.7151 -0.8362 -0.3192
 6718SOL    HW326639   1.160   4.975   2.306 -0.7923  0.4855 -0.1685
 6718SOL    MW426640   1.102   4.923   2.346 -0.1139 -0.0769  0.1144
 6719SOL     OW26641   1.362   4.601   0.383 -0.1538 -0.4474  0.0570
 6719SOL    HW226642   1.330   4.524   0.430  0.2335 -0.0446  1.0094
 6719SOL    HW326643   1.394   4.660   0.452  0.1319  0.3003 -0.6934
 6719SOL    MW426644   1.362   4.598   0.399 -0.0650 -0.2956  0.0836
 6720SOL     OW26645   1.925   2.231   5.636 -0.1691 -0.8336 -0.1735
 6720SOL    HW226646   1.850   2.257   5.582  0.9321 -1.0568 -1.9050
 6720SOL    HW326647   1.890   2.227   5.725 -1.3299  2.8205 -0.2837
 6720SOL    MW426648   1.910   2.234   5.641 -0.1770 -0.3809 -0.4165
 6721SOL     OW26649   6.393   1.621   5.804 -0.9827  0.5769  0.1520
 6721SOL    HW226650   6.372   1.542   5.754 -0.2858 -0.6446  1.6925
 6721SOL    HW326651   6.489   1.624   5.804 -1.0019  1.2336  0.3675
 6721SOL    MW426652   6.403   1.611   5.798 -0.8933  0.5024  0.3836
 6722SOL     OW26653   0.224   1.151   5.647 -0.2403 -0.0639  0.2663
 6722SOL    HW226654   0.252   1.061   5.628  0.0417  0.2960 -1.0934
 6722SOL    HW326655   0.305   1.195   5.674 -0.4432 -0.2909  1.2942
 6722SOL    MW426656   0.238   1.145   5.648 -0.2299 -0.0464  0.2225
 6723SOL     OW26657   3.128   2.370   4.690  0.0689 -0.2990 -0.3433
 6723SOL    HW226658   3.220   2.391   4.676  0.7730 -1.7532  1.6017
 6723SOL    HW326659   3.117   2.374   4.785 -1.5178 -1.4486 -0.4332
 6723SOL    MW426660   3.139   2.373   4.701 -0.0475 -0.6425 -0.0985
 6724SOL     OW26661   5.963   5.642   0.381 -0.7430 -0.1626 -0.2909
 6724SOL    HW226662   5.951   5.735   0.398  0.6660  0.1273 -0.7942
 6724SOL    HW326663   5.923   5.628   0.295 -0.2829  0.1452 -0.5580
 6724SOL    MW426664   5.956   5.652   0.372 -0.4964 -0.0837 -0.3926
 6725SOL     OW26665   5.797   4.787   4.033 -0.1239 -0.0499 -0.0914
 6725SOL    HW226666   5.748   4.845   3.976  1.2721 -0.3456 -1.6838
 6725SOL    HW326667   5.843   4.845   4.094 -0.7062  0.3481 -0.0300
 6725SOL    MW426668   5.797   4.802   4.033 -0.0165 -0.0364 -0.2934
 6726SOL     OW26669   2.941   5.076   4.016 -0.2414  0.0070 -0.4262
 6726SOL    HW226670   2.863   5.128   4.037 -0.8534 -1.9559  2.9382
 6726SOL    HW326671   3.014   5.126   4.053  0.2339  1.6355 -3.2123
 6726SOL    MW426672   2.940   5.090   4.024 -0.2595 -0.0371 -0.3499
 6727SOL     OW26673   1.006   1.182   1.145 -0.4967  0.3736  0.4438
 6727SOL    HW226674   1.081   1.139   1.105 -1.3604 -1.2450  0.4963
 6727SOL    HW326675   1.034   1.198   1.235  0.1829  0.8235  0.1622
 6727SOL    MW426676   1.020   1.179   1.152 -0.5210  0.2194  0.4136
 6728SOL     OW26677   2.418   5.560   6.017 -0.2927 -0.1567 -0.2184
 6728SOL    HW226678   2.350   5.580   5.952 -1.4227 -1.3726  0.5180
 6728SOL    HW326679   2.450   5.645   6.045 -2.0340  0.4979 -0.0874
 6728SOL    MW426680   2.413   5.574   6.012 -0.6715 -0.2307 -0.1040
 6729SOL     OW26681   0.168   0.609   3.441 -0.9099  0.0200  0.1265
 6729SOL    HW226682   0.148   0.562   3.522 -1.0596  0.8677  0.5920
 6729SOL    HW326683   0.120   0.561   3.373 -2.5681  0.5824  0.8586
 6729SOL    MW426684   0.159   0.596   3.443 -1.1484  0.2061  0.2845
 6730SOL     OW26685   0.181   3.996   5.849  0.0522 -0.3410 -0.1692
 6730SOL    HW226686   0.163   4.063   5.916 -1.3566  0.3371 -1.1755
 6730SOL    HW326687   0.236   3.932   5.894 -0.3639  0.3918  1.4670
 6730SOL    MW426688   0.186   3.997   5.864 -0.1886 -0.1549 -0.0861
 6731SOL     OW26689   2.643   0.249   1.762  0.4731 -0.4768  0.2728
 6731SOL    HW226690   2.687   0.334   1.769 -0.7707  0.2436 -0.3483
 6731SOL    HW326691   2.705   0.195   1.712  0.3070  0.7944 -1.4144
 6731SOL    MW426692   2.657   0.253   1.756  0.2871 -0.2140 -0.0318
 6732SOL     OW26693   1.626   5.866   3.609 -0.3436  0.1972  0.1814
 6732SOL    HW226694   1.620   5.960   3.589 -4.4009  0.2049  0.6353
 6732SOL    HW326695   1.656   5.863   3.700 -1.6115  1.1807  0.6589
 6732SOL    MW426696   1.629   5.878   3.619 -1.0462  0.3280  0.3043
 6733SOL     OW26697   2.417   5.086   5.091  0.1992 -0.0175  0.0008
 6733SOL    HW226698   2.413   5.133   5.175  0.0983 -1.7023  0.9718
 6733SOL    HW326699   2.363   5.009   5.104  0.6268 -0.5884 -1.4553
 6733SOL    MW426700   2.410   5.082   5.104  0.2423 -0.3151 -0.0632
 6734SOL     OW26701   0.457   1.020   1.617  0.1172 -0.3358  0.1859
 6734SOL    HW226702   0.474   0.984   1.530 -1.4016 -1.3086  0.2433
 6734SOL    HW326703   0.497   0.958   1.677  0.1966 -0.2581  0.2139
 6734SOL    MW426704   0.464   1.007   1.613 -0.0727 -0.4539  0.1972
 6735SOL     OW26705   0.415   1.115   3.720 -0.2822  0.1938  0.7833
 6735SOL    HW226706   0.432   1.139   3.629  0.2911 -0.7891  0.6249
 6735SOL    HW326707   0.458   1.183   3.771 -2.1165  1.7775  0.3451
 6735SOL    MW426708   0.423   1.127   3.715 -0.4486  0.2731  0.7046
 6736SOL     OW26709   6.399   3.816   6.480 -0.2789 -0.4287 -0.0187
 6736SOL    HW226710   6.428   3.816   6.571  0.6841  2.1525 -0.2458
 6736SOL    HW326711   6.323   3.874   6.478  0.7294  0.9179 -1.1019
 6736SOL    MW426712   6.393   3.823   6.491 -0.0188  0.0896 -0.1916
 6737SOL     OW26713   0.050   5.700   2.869  0.2218 -0.8263 -0.2640
 6737SOL    HW226714   0.011   5.737   2.948 -1.8830 -0.4967 -1.3891
 6737SOL    HW326715   0.073   5.776   2.815 -1.4610 -1.0353 -1.3550
 6737SOL    MW426716   0.048   5.715   2.872 -0.2779 -0.8104 -0.5564
 6738SOL     OW26717   1.714   0.831   2.892 -0.4113  0.4079 -0.2174
 6738SOL    HW226718   1.787   0.835   2.954 -0.4725 -3.4046  0.3291
 6738SOL    HW326719   1.719   0.744   2.854 -3.5289  0.7054 -1.6708
 6738SOL    MW426720   1.724   0.820   2.895 -0.8307 -0.0558 -0.3370
 6739SOL     OW26721   4.428   5.264   1.378  0.4717 -0.2083  0.7698
 6739SOL    HW226722   4.474   5.346   1.395  1.8923 -0.5932 -0.9831
 6739SOL    HW326723   4.412   5.227   1.465  0.8589  1.3395  1.5341
 6739SOL    MW426724   4.432   5.270   1.391  0.7102 -0.0549  0.6394
 6740SOL     OW26725   3.040   1.746   3.834  0.0490  0.1926  0.2657
 6740SOL    HW226726   3.073   1.785   3.915  1.5577 -0.0126 -0.2079
 6740SOL    HW326727   3.055   1.812   3.767  0.4430 -0.2875 -0.1330
 6740SOL    MW426728   3.046   1.760   3.836  0.3000  0.1022  0.1506
 6741SOL     OW26729   5.083   4.099   2.018 -0.0986  0.0828 -0.0317
 6741SOL    HW226730   5.154   4.106   1.954 -1.3085  0.1871 -1.4172
 6741SOL    HW326731   5.070   4.005   2.029  1.5306  0.0194  1.7455
 6741SOL    MW426732   5.091   4.087   2.011 -0.0433  0.0882  0.0200
 6742SOL     OW26733   3.534   1.972   2.682  0.2537 -0.0055  0.5112
 6742SOL    HW226734   3.473   2.013   2.743 -1.8165  0.0089 -1.4296
 6742SOL    HW326735   3.564   2.043   2.626  0.5570 -0.3447  0.2384
 6742SOL    MW426736   3.530   1.987   2.683  0.0206 -0.0484  0.2192
 6743SOL     OW26737   4.386   5.993   3.580 -0.0492  0.2707 -0.2525
 6743SOL    HW226738   4.340   6.073   3.605 -0.3463 -0.4564  1.7505
 6743SOL    HW326739   4.447   5.977   3.653  0.4762 -0.9575 -0.9352
 6743SOL    MW426740   4.388   6.001   3.593 -0.0191  0.0127 -0.0783
 6744SOL     OW26741   6.065   5.913   1.304  0.2807  0.0376  0.7242
 6744SOL    HW226742   6.128   5.863   1.253 -1.9075 -1.4212 -0.6795
 6744SOL    HW326743   6.016   5.847   1.354 -0.8688  1.0239  0.9392
 6744SOL    MW426744   6.067   5.898   1.304 -0.1597 -0.0248  0.5674
 6745SOL     OW26745   1.227   0.690   1.031 -0.3507 -0.2279 -0.2006
 6745SOL    HW226746   1.309   0.695   1.081  0.5712 -2.1747 -1.3985
 6745SOL    HW326747   1.250   0.722   0.944 -1.4907  1.4083  0.0530
 6745SOL    MW426748   1.241   0.695   1.026 -0.3795 -0.2688 -0.3252
 6746SOL     OW26749   0.660   3.601   1.981 -0.9905  0.0911  0.2895
 6746SOL    HW226750   0.605   3.527   2.006 -0.2035 -0.2707  0.9741
 6746SOL    HW326751   0.739   3.562   1.943 -1.3252  0.6127 -0.9958
 6746SOL    MW426752   0.663   3.586   1.979 -0.9308  0.1122  0.2102
 6747SOL     OW26753   2.797   1.198   2.163  0.1131  0.0907 -0.3956
 6747SOL    HW226754   2.877   1.151   2.140  0.4247  1.0528 -1.3668
 6747SOL    HW326755   2.727   1.133   2.154  0.5577 -0.2470 -1.5495
 6747SOL    MW426756   2.798   1.183   2.159  0.2129  0.1731 -0.6760
 6748SOL     OW26757   5.886   4.148   5.430  0.2951 -0.0408  0.1096
 6748SOL    HW226758   5.938   4.077   5.392  0.6127  0.0024  0.4622
 6748SOL    HW326759   5.948   4.219   5.444  0.1062  0.0753  0.3658
 6748SOL    MW426760   5.901   4.148   5.426  0.3121 -0.0198  0.1900
 6749SOL     OW26761   5.422   1.805   0.430 -0.1610  0.5063 -0.5723
 6749SOL    HW226762   5.372   1.884   0.450  1.1904  1.1349  0.4374
 6749SOL    HW326763   5.460   1.778   0.513  0.9061 -0.1387 -1.2449
 6749SOL    MW426764   5.421   1.812   0.443  0.1581  0.5041 -0.5278
 6750SOL     OW26765   1.795   0.492   1.871  0.1634  0.1278  0.2867
 6750SOL    HW226766   1.703   0.499   1.847  0.0837 -1.7421 -0.0809
 6750SOL    HW326767   1.843   0.501   1.789  0.1613 -1.0468  0.1317
 6750SOL    MW426768   1.789   0.494   1.857  0.1526 -0.2739  0.2177
 6751SOL     OW26769   1.717   5.867   2.050 -0.1884  0.0057  0.3244
 6751SOL    HW226770   1.680   5.851   2.137  0.8626 -0.5739  0.6766
 6751SOL    HW326771   1.810   5.847   2.059  0.0114  0.3404 -0.8342
 6751SOL    MW426772   1.724   5.862   2.062 -0.0234 -0.0266  0.2180
 6752SOL     OW26773   0.045   4.671   0.102 -0.2798 -0.0662 -0.1199
 6752SOL    HW226774   0.047   4.595   0.160 -0.0976 -0.6960 -0.9435
 6752SOL    HW326775   0.136   4.681   0.074 -0.5839 -0.5879 -1.3484
 6752SOL    MW426776   0.058   4.662   0.106 -0.2959 -0.2181 -0.3907
 6753SOL     OW26777   0.215   2.792   5.505  0.0485  0.2859  0.1008
 6753SOL    HW226778   0.265   2.785   5.587  1.2975 -0.2188 -0.6774
 6753SOL    HW326779   0.258   2.732   5.445 -1.1573  0.2821 -0.7981
 6753SOL    MW426780   0.227   2.783   5.508  0.0542  0.2188 -0.1205
 6754SOL     OW26781   3.524   0.296   0.692  0.1294 -0.5282  0.4596
 6754SOL    HW226782   3.468   0.320   0.618  2.2397  0.0812 -1.0252
 6754SOL    HW326783   3.535   0.377   0.741  0.6171 -0.3725  0.0994
 6754SOL    MW426784   3.518   0.310   0.689  0.4722 -0.4273  0.2162
 6755SOL     OW26785   0.676   3.356   5.345  0.2996 -0.4420 -0.2437
 6755SOL    HW226786   0.656   3.298   5.271 -0.5964 -0.2922 -0.1237
 6755SOL    HW326787   0.661   3.302   5.423 -0.9770  0.0731 -0.1191
 6755SOL    MW426788   0.671   3.341   5.346  0.0130 -0.3543 -0.2115
 6756SOL     OW26789   4.169   4.685   2.881 -0.7054 -0.0565  0.4234
 6756SOL    HW226790   4.076   4.695   2.903 -0.8473  0.5658 -0.4092
 6756SOL    HW326791   4.169   4.655   2.790 -0.0871  0.1511  0.3500
 6756SOL    MW426792   4.157   4.682   2.872 -0.6425  0.0530  0.3039
 6757SOL     OW26793   5.563   2.737   5.377  0.0805 -0.4164  0.0576
 6757SOL    HW226794   5.555   2.642   5.378 -1.3290 -0.3324 -0.0204
 6757SOL    HW326795   5.592   2.758   5.288  2.0004 -0.8337  0.5382
 6757SOL    MW426796   5.565   2.727   5.366  0.1479 -0.4604  0.1107
 6758SOL     OW26797   4.860   3.670   6.168  0.2755  0.2752 -0.1485
 6758SOL    HW226798   4.900   3.746   6.211 -0.8851 -0.2389  1.9721
 6758SOL    HW326799   4.778   3.704   6.132  0.6112  0.3957 -0.8288
 6758SOL    MW426800   4.855   3.685   6.168  0.1667  0.2233  0.0416
 6759SOL     OW26801   5.704   2.632   5.812  0.0074  0.0723 -0.1317
 6759SOL    HW226802   5.658   2.554   5.781  0.5327 -1.5352  2.7840
 6759SOL    HW326803   5.635   2.690   5.843 -0.2900 -0.1263 -0.4136
 6759SOL    MW426804   5.689   2.629   5.812  0.0375 -0.1660  0.2158
 6760SOL     OW26805   5.246   2.586   1.342  0.6717  0.0770 -0.3125
 6760SOL    HW226806   5.153   2.572   1.326  0.8603 -1.0164 -0.5323
 6760SOL    HW326807   5.260   2.559   1.432  1.0963 -1.5610 -0.8332
 6760SOL    MW426808   5.236   2.581   1.351  0.7526 -0.2834 -0.4102
 6761SOL     OW26809   5.824   2.445   3.757 -0.4129 -0.4810  0.4997
 6761SOL    HW226810   5.862   2.527   3.787  0.4496 -0.0308 -1.6852
 6761SOL    HW326811   5.730   2.463   3.751 -0.3932 -0.0811  1.2466
 6761SOL    MW426812   5.817   2.458   3.760 -0.2965 -0.3688  0.3100
 6762SOL     OW26813   0.399   1.030   6.125  0.3903  0.1950 -0.2036
 6762SOL    HW226814   0.460   1.098   6.096  0.9073  0.4761  1.4709
 6762SOL    HW326815   0.312   1.069   6.113  0.4450 -0.3122 -2.8682
 6762SOL    MW426816   0.395   1.044   6.119  0.4657  0.1652 -0.3343
 6763SOL     OW26817   1.096   5.322   3.962 -0.4203 -0.2836 -0.0179
 6763SOL    HW226818   1.007   5.299   3.936 -0.6598  0.9819 -0.3726
 6763SOL    HW326819   1.101   5.417   3.951  0.6689 -0.2052  0.9387
 6763SOL    MW426820   1.085   5.332   3.957 -0.3082 -0.1063  0.0615
 6764SOL     OW26821   3.015   6.396   2.299  0.3099 -0.1043 -0.8802
 6764SOL    HW226822   2.979   6.442   2.375 -0.2349 -0.4828 -0.8963
 6764SOL    HW326823   3.032   6.307   2.331 -0.3100 -0.3831 -1.2979
 6764SOL    MW426824   3.012   6.390   2.313  0.1562 -0.1910 -0.9374
 6765SOL     OW26825   4.452   5.706   0.601  0.2240  0.1082 -0.0960
 6765SOL    HW226826   4.424   5.620   0.633 -0.1290 -0.1869 -1.1299
 6765SOL    HW326827   4.454   5.762   0.679 -2.9352  0.0510  0.1541
 6765SOL    MW426828   4.448   5.702   0.615 -0.2394  0.0617 -0.1994
 6766SOL     OW26829   0.276   4.948   6.461  0.0826 -0.0417 -0.1680
 6766SOL    HW226830   0.318   4.938   6.547 -0.7743 -0.2839  0.2388
 6766SOL    HW326831   0.216   5.022   6.473 -1.0195 -0.9157 -0.1459
 6766SOL    MW426832   0.274   4.957   6.474 -0.1759 -0.1890 -0.1114
 6767SOL     OW26833   0.267   0.064   3.750  0.4941 -0.0945  0.2294
 6767SOL    HW226834   0.215   0.116   3.811  0.8177 -0.8913  1.2053
 6767SOL    HW326835   0.209  -0.007   3.724  0.3789  0.2064 -0.3677
 6767SOL    MW426836   0.252   0.062   3.755  0.5216 -0.1599  0.2794
 6768SOL     OW26837   4.738   4.594   3.831  0.2971  0.4412  0.2343
 6768SOL    HW226838   4.830   4.572   3.847  0.5684 -0.1406 -1.9107
 6768SOL    HW326839   4.690   4.518   3.863  0.7686 -0.4070 -1.0089
 6768SOL    MW426840   4.744   4.581   3.838  0.3951  0.2525 -0.2127
 6769SOL     OW26841   2.503   4.482   3.993  0.9276  0.1866 -0.2577
 6769SOL    HW226842   2.451   4.504   4.070  1.4812  1.9650 -0.3555
 6769SOL    HW326843   2.568   4.419   4.024 -0.3995 -1.0062  0.1589
 6769SOL    MW426844   2.505   4.477   4.007  0.8256  0.2639 -0.2156
 6770SOL     OW26845   0.232   2.915   4.791 -0.2844 -0.2511  0.0659
 6770SOL    HW226846   0.287   2.982   4.831  1.0351 -2.6741  2.6724
 6770SOL    HW326847   0.267   2.905   4.702  2.8644 -0.8780  1.2453
 6770SOL    MW426848   0.244   2.923   4.785  0.3052 -0.6535  0.5654
 6771SOL     OW26849   6.406   3.239   4.088  0.4647  0.4294 -0.3832
 6771SOL    HW226850   6.448   3.157   4.061  0.0482  0.3354 -0.7555
 6771SOL    HW326851   6.407   3.293   4.009  0.9817  0.8901 -0.0669
 6771SOL    MW426852   6.412   3.235   4.074  0.4780  0.4778 -0.3906
 6772SOL     OW26853   5.379   5.634   4.377  0.0116 -0.0028  0.3038
 6772SOL    HW226854   5.333   5.579   4.314 -1.8732 -0.5268  2.0284
 6772SOL    HW326855   5.460   5.659   4.332  0.8630 -3.8732 -0.7214
 6772SOL    MW426856   5.384   5.630   4.363 -0.1247 -0.5826  0.3961
 6773SOL     OW26857   0.044   5.658   4.466 -0.9168  0.0681 -0.3415
 6773SOL    HW226858   0.008   5.571   4.485 -0.8798  0.0055 -0.5504
 6773SOL    HW326859   0.136   5.652   4.489 -0.4883 -0.5117 -2.0546
 6773SOL    MW426860   0.051   5.646   4.471 -0.8554 -0.0166 -0.5951
 6774SOL     OW26861   4.275   5.662   0.316  0.6718 -0.0398  0.2245
 6774SOL    HW226862   4.263   5.651   0.411 -0.1067 -1.4034  0.0043
 6774SOL    HW326863   4.192   5.633   0.278  0.9302  0.6139 -0.8718
 6774SOL    MW426864   4.263   5.656   0.324  0.6032 -0.1335  0.0508
 6775SOL     OW26865   3.733   2.441   5.530 -0.2560 -0.2768  0.0445
 6775SOL    HW226866   3.664   2.460   5.466 -0.1082  1.2054  0.2809
 6775SOL    HW326867   3.686   2.418   5.610 -0.4792  0.3445  0.0949
 6775SOL    MW426868   3.718   2.440   5.532 -0.2660  0.0007  0.0823
 6776SOL     OW26869   5.081   2.097   5.834  0.3446  0.0541 -0.6023
 6776SOL    HW226870   5.069   2.030   5.768 -1.3744  0.7458 -1.0400
 6776SOL    HW326871   5.133   2.165   5.790 -0.2544  0.2279 -1.0542
 6776SOL    MW426872   5.086   2.097   5.820  0.0387  0.1683 -0.7197
 6777SOL     OW26873   3.726   1.173   1.868 -0.6218 -0.1704  0.4295
 6777SOL    HW226874   3.789   1.245   1.857  1.1187 -1.6255  0.5130
 6777SOL    HW326875   3.641   1.217   1.872  0.3783  1.8921  0.5187
 6777SOL    MW426876   3.724   1.189   1.867 -0.2602 -0.0903  0.4523
 6778SOL     OW26877   0.125   5.219   3.236  0.0640  0.0322 -0.1017
 6778SOL    HW226878   0.114   5.263   3.321  1.5140  0.7622 -0.2649
 6778SOL    HW326879   0.161   5.133   3.258 -1.3955 -0.5464  0.1239
 6778SOL    MW426880   0.128   5.214   3.250  0.0627  0.0521 -0.0935
 6779SOL     OW26881   3.062   2.517   1.267 -0.6401 -0.0152 -0.9406
 6779SOL    HW226882   3.120   2.546   1.197  0.6618 -0.8165 -0.2354
 6779SOL    HW326883   3.104   2.546   1.347 -0.4557 -1.8255 -0.3401
 6779SOL    MW426884   3.075   2.524   1.268 -0.4440 -0.3598 -0.7683
 6780SOL     OW26885   0.328   4.559   3.978 -0.2889 -0.3545  0.3811
 6780SOL    HW226886   0.382   4.488   4.014 -0.4810  0.2740  2.0036
 6780SOL    HW326887   0.240   4.522   3.974 -0.2578 -0.4450  0.5234
 6780SOL    MW426888   0.323   4.544   3.982 -0.3102 -0.2835  0.6140
 6781SOL     OW26889   1.949   2.799   3.331  0.4148  0.3206 -0.0544
 6781SOL    HW226890   2.008   2.780   3.403  1.7143  0.9503 -0.9143
 6781SOL    HW326891   1.864   2.814   3.372  0.5114 -1.9055  1.0965
 6781SOL    MW426892   1.946   2.799   3.346  0.5990  0.1100 -0.0160
 6782SOL     OW26893   0.023   3.820   2.624  0.1604  0.2223  0.0791
 6782SOL    HW226894   0.111   3.783   2.634  0.4498  1.1565  1.4488
 6782SOL    HW326895  -0.016   3.811   2.711 -0.4998  1.2376 -0.0961
 6782SOL    MW426896   0.029   3.814   2.637  0.1115  0.4795  0.2367
 6783SOL     OW26897   5.551   5.881   5.559  0.0035 -0.2205 -0.1650
 6783SOL    HW226898   5.642   5.858   5.578 -0.4116 -1.2463  0.6795
 6783SOL    HW326899   5.500   5.815   5.606 -1.1635 -0.3410 -1.5538
 6783SOL    MW426900   5.557   5.869   5.567 -0.2053 -0.3718 -0.2368
 6784SOL     OW26901   0.349   2.045   1.829  0.0317 -0.1196 -0.1948
 6784SOL    HW226902   0.268   2.001   1.804 -0.7046  1.0194  0.1380
 6784SOL    HW326903   0.349   2.042   1.925  0.0391  0.5010 -0.1751
 6784SOL    MW426904   0.338   2.039   1.838 -0.0645  0.1125 -0.1483
 6785SOL     OW26905   1.331   3.447   1.833 -0.1657  0.3209  0.3615
 6785SOL    HW226906   1.296   3.531   1.803 -1.4656 -0.6833 -1.0984
 6785SOL    HW326907   1.345   3.396   1.753 -0.5797 -1.2830  1.2596
 6785SOL    MW426908   1.328   3.451   1.819 -0.3919 -0.0232  0.2874
 6786SOL     OW26909   1.548   0.726   4.075  0.0122 -0.4310  0.1673
 6786SOL    HW226910   1.483   0.656   4.071 -0.0748 -0.4257  1.1113
 6786SOL    HW326911   1.627   0.683   4.107  0.2149 -0.2668 -0.1115
 6786SOL    MW426912   1.550   0.711   4.079  0.0275 -0.4086  0.2551
 6787SOL     OW26913   6.328   0.219   4.167 -0.4431  0.2878 -0.2203
 6787SOL    HW226914   6.355   0.172   4.245 -0.9383  1.4002  0.6584
 6787SOL    HW326915   6.296   0.303   4.200 -1.9760  0.2455 -1.4748
 6787SOL    MW426916   6.327   0.224   4.181 -0.7107  0.4290 -0.2698
 6788SOL     OW26917   1.785   3.232   4.570 -0.6119 -0.8551  0.1317
 6788SOL    HW226918   1.783   3.320   4.607 -0.9485 -0.4734 -0.7500
 6788SOL    HW326919   1.694   3.211   4.553 -0.5998 -1.7078  1.0629
 6788SOL    MW426920   1.773   3.241   4.572 -0.6547 -0.9173  0.1382
 6789SOL     OW26921   0.855   4.677   5.756  0.0260 -0.6584 -0.1173
 6789SOL    HW226922   0.822   4.762   5.725 -1.2854 -0.8105  0.8121
 6789SOL    HW326923   0.846   4.681   5.851 -0.1508 -1.8839 -0.0733
 6789SOL    MW426924   0.849   4.689   5.764 -0.1703 -0.8402  0.0111
 6790SOL     OW26925   5.829   6.021   3.756  0.2135 -0.3163  0.2434
 6790SOL    HW226926   5.880   6.025   3.836 -0.3130 -1.5705  0.6698
 6790SOL    HW326927   5.746   6.064   3.778  0.9373  1.4676 -0.3651
 6790SOL    MW426928   5.825   6.027   3.769  0.2395 -0.2464  0.2194
 6791SOL     OW26929   2.946   2.198   6.338  0.3863 -0.2633  0.3834
 6791SOL    HW226930   3.003   2.146   6.394 -0.4644 -0.1211  1.4071
 6791SOL    HW326931   2.982   2.286   6.342  0.5915 -0.3456  0.3500
 6791SOL    MW426932   2.958   2.203   6.346  0.3011 -0.2554  0.5141
 6792SOL     OW26933   0.580   5.480   6.178 -0.2171  0.4228 -0.0223
 6792SOL    HW226934   0.640   5.511   6.246 -0.2029 -1.8540  1.0674
 6792SOL    HW326935   0.494   5.481   6.220 -0.3408 -0.1583 -0.2598
 6792SOL    MW426936   0.577   5.484   6.193 -0.2315  0.0457  0.0902
 6793SOL     OW26937   0.639   3.985   3.457  0.5895  0.2124  0.0605
 6793SOL    HW226938   0.642   4.068   3.409 -1.3110  0.6814  0.6827
 6793SOL    HW326939   0.583   3.929   3.403  0.1840  0.0362  0.6512
 6793SOL    MW426940   0.632   3.988   3.443  0.2852  0.2510  0.2206
 6794SOL     OW26941   4.881   1.120   1.228  0.1304 -0.0486  0.4534
 6794SOL    HW226942   4.947   1.128   1.297  1.1721 -2.5109 -0.1615
 6794SOL    HW326943   4.894   1.198   1.173  1.5789  0.2233  1.1451
 6794SOL    MW426944   4.891   1.131   1.230  0.4589 -0.3376  0.4635
 6795SOL     OW26945   3.038   1.061   2.154 -0.0622 -0.3953  0.3841
 6795SOL    HW226946   3.097   0.992   2.123  0.3788  0.3141 -0.4148
 6795SOL    HW326947   3.096   1.131   2.181 -0.4906 -0.5472  1.7514
 6795SOL    MW426948   3.053   1.061   2.153 -0.0605 -0.3217  0.4591
 6796SOL     OW26949   3.057   6.230   1.449 -0.5192  0.4786 -0.2676
 6796SOL    HW226950   3.011   6.170   1.508 -1.2938  1.8552  0.5972
 6796SOL    HW326951   3.137   6.184   1.425 -1.3805 -1.1354 -0.1340
 6796SOL    MW426952   3.062   6.216   1.454 -0.7351  0.4473 -0.1359
 6797SOL     OW26953   0.252   6.038   2.144  0.4316  0.4235  0.2494
 6797SOL    HW226954   0.293   6.041   2.230  0.2069 -0.9722  0.4212
 6797SOL    HW326955   0.223   6.128   2.128  0.5690  0.7163  1.5838
 6797SOL    MW426956   0.253   6.050   2.153  0.4200  0.2780  0.4481
 6798SOL     OW26957   4.605   4.561   0.939  0.5768  0.0215  0.2596
 6798SOL    HW226958   4.654   4.480   0.927  0.3290  0.2209 -2.5968
 6798SOL    HW326959   4.533   4.537   0.998  1.4267 -1.3878  0.7809
 6798SOL    MW426960   4.602   4.547   0.945  0.6563 -0.1381 -0.0485
 6799SOL     OW26961   4.394   1.625   4.275 -0.5236  0.3748 -0.4394
 6799SOL    HW226962   4.482   1.650   4.247 -1.1775  1.3676 -1.7307
 6799SOL    HW326963   4.408   1.553   4.337  1.1652  0.2395 -0.9272
 6799SOL    MW426964   4.408   1.619   4.280 -0.3870  0.4880 -0.6741
 6800SOL     OW26965   0.712   0.409   2.102  0.4305 -0.2595 -0.4943
 6800SOL    HW226966   0.754   0.470   2.164 -2.5702  0.9285  0.5416
 6800SOL    HW326967   0.657   0.353   2.158  0.3673 -1.5559 -1.8043
 6800SOL    MW426968   0.710   0.410   2.118  0.0263 -0.2738 -0.5305
 6801SOL     OW26969   1.124   4.333   5.819 -0.3290  0.4347 -1.0537
 6801SOL    HW226970   1.144   4.424   5.841 -2.1132  0.7468 -0.5881
 6801SOL    HW326971   1.168   4.318   5.736  2.0939  0.9115  0.0545
 6801SOL    MW426972   1.132   4.343   5.811 -0.2448  0.5388 -0.8460
 6802SOL     OW26973   5.445   2.750   0.598 -0.8159  0.0537 -0.3014
 6802SOL    HW226974   5.413   2.816   0.659 -0.6598 -1.7548  1.8673
 6802SOL    HW326975   5.366   2.708   0.564 -0.9078  1.1648 -1.5081
 6802SOL    MW426976   5.430   2.753   0.602 -0.8074 -0.0383 -0.1745
 6803SOL     OW26977   1.558   2.948   5.592 -0.2290  0.0516  0.3692
 6803SOL    HW226978   1.561   2.883   5.662 -2.6107 -0.8192 -0.2501
 6803SOL    HW326979   1.583   3.030   5.634  0.3415 -0.7964  1.7621
 6803SOL    MW426980   1.562   2.950   5.607 -0.4680 -0.1752  0.4713
 6804SOL     OW26981   0.456   1.893   2.740 -0.3700  0.3946 -0.1097
 6804SOL    HW226982   0.514   1.819   2.760 -0.5253 -0.1789 -1.6082
 6804SOL    HW326983   0.515   1.964   2.717 -0.2336  0.1877 -0.4109
 6804SOL    MW426984   0.471   1.892   2.740 -0.3725  0.2917 -0.3471
 6805SOL     OW26985   1.285   3.774   1.043  0.2036  0.0833  0.2315
 6805SOL    HW226986   1.201   3.758   1.088 -0.0675 -0.4794 -0.4545
 6805SOL    HW326987   1.293   3.701   0.981  0.1214  1.3076 -1.2800
 6805SOL    MW426988   1.275   3.762   1.041  0.1570  0.1706 -0.0585
 6806SOL     OW26989   6.184   2.994   2.665  0.2919 -0.1208  0.7834
 6806SOL    HW226990   6.101   3.006   2.711  0.2118 -0.9543  0.8754
 6806SOL    HW326991   6.216   3.083   2.650 -2.0050  0.4315 -1.8272
 6806SOL    MW426992   6.177   3.007   2.669 -0.0217 -0.1579  0.4511
 6807SOL     OW26993   3.993   2.179   3.424  0.6348 -0.1437 -0.0850
 6807SOL    HW226994   3.995   2.188   3.329  1.7600  1.1627  0.0249
 6807SOL    HW326995   3.945   2.256   3.454 -0.4560 -0.9816  0.3923
 6807SOL    MW426996   3.987   2.191   3.415  0.6393 -0.0819 -0.0075
 6808SOL     OW26997   0.552   3.026   4.790  0.3403  0.4228 -0.3541
 6808SOL    HW226998   0.569   3.073   4.709  1.6112  0.9683  0.1964
 6808SOL    HW326999   0.595   2.941   4.779  0.4791  0.4817 -0.2725
 6808SOL    MW427000   0.560   3.021   4.778  0.5263  0.5025 -0.2707
 6809SOL     OW27001   4.031   1.114   1.897 -0.4486 -0.2876  0.0132
 6809SOL    HW227002   3.952   1.156   1.931  0.7224  0.4674  1.9120
 6809SOL    HW327003   4.019   1.021   1.916 -1.5624 -0.4316 -1.2030
 6809SOL    MW427004   4.019   1.108   1.904 -0.4410 -0.2070  0.1032
 6810SOL     OW27005   4.566   4.356   5.962 -0.1253  0.1543  0.4943
 6810SOL    HW227006   4.560   4.290   6.030 -2.1544 -0.6742 -0.4297
 6810SOL    HW327007   4.486   4.407   5.970 -0.9364 -0.6048 -1.8624
 6810SOL    MW427008   4.555   4.354   5.972 -0.5000 -0.0552  0.0614
 6811SOL     OW27009   3.649   1.201   3.478  0.1063 -0.0825  0.5410
 6811SOL    HW227010   3.706   1.178   3.551 -0.4566  0.7741  1.2685
 6811SOL    HW327011   3.681   1.286   3.448  1.8024 -1.4209 -1.7448
 6811SOL    MW427012   3.661   1.209   3.483  0.2558 -0.1461  0.3354
 6812SOL     OW27013   3.813   1.168   3.055 -0.3808  0.0097 -0.5275
 6812SOL    HW227014   3.854   1.104   2.996 -1.6711 -0.9916 -0.3783
 6812SOL    HW327015   3.729   1.188   3.013 -0.9361 -0.0631  0.5345
 6812SOL    MW427016   3.807   1.162   3.042 -0.6243 -0.1320 -0.3677
 6813SOL     OW27017   0.951   3.442   3.939 -0.3206 -0.3673  0.0410
 6813SOL    HW227018   0.881   3.377   3.924 -1.0641  1.0306 -3.6403
 6813SOL    HW327019   1.027   3.405   3.894  0.3186 -0.2708  1.0248
 6813SOL    MW427020   0.952   3.428   3.931 -0.3343 -0.1701 -0.3149
 6814SOL     OW27021   1.994   4.489   1.357 -0.0473 -0.1017  0.4986
 6814SOL    HW227022   2.082   4.455   1.372  0.7280  1.2182 -0.8964
 6814SOL    HW327023   1.961   4.440   1.282  0.1282  0.5222  0.0107
 6814SOL    MW427024   2.001   4.478   1.349  0.0782  0.1547  0.2502
 6815SOL     OW27025   3.482   1.310   3.701 -0.8295  0.3740  0.2089
 6815SOL    HW227026   3.544   1.260   3.648 -0.9328  0.5551 -0.0852
 6815SOL    HW327027   3.536   1.360   3.762 -0.7073  0.2148  0.2304
 6815SOL    MW427028   3.497   1.310   3.702 -0.8270  0.3769  0.1729
 6816SOL     OW27029   2.850   0.321   2.676 -0.7123  0.1156  0.0715
 6816SOL    HW227030   2.918   0.325   2.744 -2.0314  1.1605  1.3917
 6816SOL    HW327031   2.878   0.384   2.610  0.2136 -0.3811 -0.0345
 6816SOL    MW427032   2.863   0.329   2.677 -0.7642  0.1880  0.2317
 6817SOL     OW27033   3.253   5.246   1.427 -0.1013  0.2641 -0.2271
 6817SOL    HW227034   3.338   5.246   1.473 -0.2459  3.1245  0.2146
 6817SOL    HW327035   3.188   5.241   1.497 -0.3015  0.1724 -0.4188
 6817SOL    MW427036   3.256   5.245   1.443 -0.1468  0.6294 -0.1941
 6818SOL     OW27037   0.919   0.862   5.022  0.3677  0.3166 -0.3966
 6818SOL    HW227038   0.996   0.806   5.012 -0.6473 -1.3243  0.4145
 6818SOL    HW327039   0.852   0.820   4.968 -1.2324 -0.9386  2.3722
 6818SOL    MW427040   0.920   0.849   5.013  0.0227 -0.0655  0.0757
 6819SOL     OW27041   2.992   0.844   4.062 -0.2277 -0.0511 -0.0929
 6819SOL    HW227042   2.987   0.867   4.155  2.1899  0.7317 -0.0944
 6819SOL    HW327043   2.939   0.910   4.018 -0.1643  0.4764  0.6107
 6819SOL    MW427044   2.985   0.856   4.069  0.0997  0.1218 -0.0002
 6820SOL     OW27045   3.035   0.401   4.145  0.3476  0.1614 -0.4794
 6820SOL    HW227046   3.104   0.462   4.171 -0.7844  1.2611  0.0566
 6820SOL    HW327047   3.040   0.398   4.050  1.8637 -0.6824 -0.3991
 6820SOL    MW427048   3.044   0.408   4.136  0.3983  0.1951 -0.3981
 6821SOL     OW27049   5.906   0.324   4.566  0.6927 -0.6908 -0.5371
 6821SOL    HW227050   5.944   0.244   4.603 -0.2140 -0.6877  0.4501
 6821SOL    HW327051   5.834   0.293   4.511 -0.0225 -0.5373  0.3001
 6821SOL    MW427052   5.902   0.309   4.564  0.4787 -0.6701 -0.2964
 6822SOL     OW27053   5.505   4.909   3.453  0.7489 -0.1536 -0.4616
 6822SOL    HW227054   5.426   4.856   3.446  0.3261  0.3482  0.3438
 6822SOL    HW327055   5.576   4.849   3.429 -0.0276  0.0380 -3.6777
 6822SOL    MW427056   5.504   4.894   3.449  0.5906 -0.0621 -0.7796
 6823SOL     OW27057   6.274   3.823   2.398 -0.6264 -0.2282 -0.0280
 6823SOL    HW227058   6.215   3.854   2.466  0.4176  0.8391  0.4269
 6823SOL    HW327059   6.352   3.793   2.445  0.3873  1.1578 -0.7399
 6823SOL    MW427060   6.276   3.823   2.413 -0.3549  0.0955 -0.0619
 6824SOL     OW27061   4.273   6.156   4.467  0.5645 -0.4262  0.3732
 6824SOL    HW227062   4.330   6.226   4.500  1.7712 -0.5914 -1.2441
 6824SOL    HW327063   4.211   6.200   4.410  0.8087 -0.5682 -0.0049
 6824SOL    MW427064   4.272   6.171   4.464  0.7559 -0.4668  0.1100
 6825SOL     OW27065   5.119   3.078   2.105 -0.2422 -0.1199 -0.2991
 6825SOL    HW227066   5.176   3.071   2.029  0.9401  0.3257  0.5073
 6825SOL    HW327067   5.109   3.172   2.119 -0.3472 -0.1945  0.1518
 6825SOL    MW427068   5.125   3.089   2.097 -0.1001 -0.0709 -0.1332
 6826SOL     OW27069   1.151   4.611   5.939 -0.4930  0.2741 -0.3338
 6826SOL    HW227070   1.215   4.627   6.008 -0.2117 -2.0650  0.0267
 6826SOL    HW327071   1.066   4.609   5.984 -0.6241  1.4743 -0.5099
 6826SOL    MW427072   1.148   4.613   5.954 -0.4732  0.1238 -0.3094
 6827SOL     OW27073   4.217   4.308   0.530 -0.3790 -0.1100 -0.5747
 6827SOL    HW227074   4.243   4.400   0.540  0.5442 -0.0630 -2.7922
 6827SOL    HW327075   4.121   4.309   0.538 -0.3252  0.9048  0.1634
 6827SOL    MW427076   4.208   4.320   0.533 -0.2501  0.0301 -0.7699
 6828SOL     OW27077   0.886   0.109   5.132 -0.5970 -0.3573 -0.5405
 6828SOL    HW227078   0.921   0.155   5.055  0.9760  1.0177  0.9026
 6828SOL    HW327079   0.873   0.178   5.196 -1.1497 -1.5768  0.6959
 6828SOL    MW427080   0.889   0.124   5.130 -0.4624 -0.3368 -0.1870
 6829SOL     OW27081   4.672   1.285   1.519  0.2201  0.2947 -0.4131
 6829SOL    HW227082   4.744   1.230   1.550  0.4146  0.8191  0.0862
 6829SOL    HW327083   4.607   1.223   1.487 -1.1012 -0.4905  3.3161
 6829SOL    MW427084   4.673   1.270   1.519  0.0715  0.2603  0.1448
 6830SOL     OW27085   6.214   2.601   3.629 -0.4522 -0.1838 -0.3577
 6830SOL    HW227086   6.284   2.662   3.650  0.0511 -0.2700 -1.6911
 6830SOL    HW327087   6.255   2.514   3.631 -0.3643 -0.1956 -1.6407
 6830SOL    MW427088   6.229   2.597   3.632 -0.3742 -0.1967 -0.7029
 6831SOL     OW27089   5.646   5.315   2.591 -0.1577  0.2497 -0.4424
 6831SOL    HW227090   5.724   5.362   2.620  0.4480 -1.4907  0.9171
 6831SOL    HW327091   5.660   5.302   2.497  0.0381  1.9758 -0.6902
 6831SOL    MW427092   5.658   5.320   2.582 -0.0520  0.2478 -0.2957
 6832SOL     OW27093   3.158   0.019   0.241 -0.5894 -0.1605  0.4455
 6832SOL    HW227094   3.072   0.015   0.199 -0.7970 -0.7696  0.9307
 6832SOL    HW327095   3.185   0.110   0.230 -1.0609 -0.0847 -0.1696
 6832SOL    MW427096   3.150   0.030   0.234 -0.6790 -0.2308  0.4284
 6833SOL     OW27097   1.560   2.159   1.298  0.2046 -0.1403  0.0155
 6833SOL    HW227098   1.575   2.247   1.334  1.9974 -1.7450  3.7392
 6833SOL    HW327099   1.648   2.124   1.285 -0.4853 -1.6125 -0.9652
 6833SOL    MW427100   1.574   2.166   1.301  0.3501 -0.5463  0.3774
 6834SOL     OW27101   0.783   5.978   2.932 -0.3701  0.3928 -0.2376
 6834SOL    HW227102   0.731   5.979   2.851 -1.3052  1.3248  0.3563
 6834SOL    HW327103   0.814   5.888   2.939 -2.1112 -0.2705 -0.5016
 6834SOL    MW427104   0.780   5.966   2.922 -0.7232  0.4283 -0.1941
 6835SOL     OW27105   5.706   1.314   6.261  0.0479 -0.8556  0.0387
 6835SOL    HW227106   5.611   1.319   6.254  0.0514  2.3268  0.7679
 6835SOL    HW327107   5.728   1.372   6.335  2.6513  0.2298 -1.4472
 6835SOL    MW427108   5.696   1.322   6.270  0.3918 -0.2925 -0.0612
 6836SOL     OW27109   5.283   6.053   3.949  0.4998  0.3009 -0.3410
 6836SOL    HW227110   5.252   6.103   3.873 -0.1804  0.4370  0.0222
 6836SOL    HW327111   5.278   5.961   3.920  0.8440  0.3849 -0.6767
 6836SOL    MW427112   5.278   6.047   3.935  0.4555  0.3300 -0.3373
 6837SOL     OW27113   2.456   3.181   4.858  0.1433 -0.4629 -0.0977
 6837SOL    HW227114   2.370   3.193   4.898  0.9318  1.0280  1.3166
 6837SOL    HW327115   2.438   3.168   4.765 -1.7035 -2.6556  0.4656
 6837SOL    MW427116   2.443   3.181   4.851  0.0037 -0.5555  0.1632
 6838SOL     OW27117   4.925   1.692   1.426 -0.0512  0.6422  0.0835
 6838SOL    HW227118   4.891   1.714   1.340 -1.6714  2.0340  1.0167
 6838SOL    HW327119   4.966   1.773   1.458  2.1492 -0.3536 -0.0576
 6838SOL    MW427120   4.926   1.706   1.419  0.0253  0.6945  0.1880
 6839SOL     OW27121   0.938   4.413   3.989 -0.1169 -0.0548 -0.7477
 6839SOL    HW227122   0.917   4.470   3.915 -0.9601 -0.0012 -0.4786
 6839SOL    HW327123   0.874   4.437   4.056  0.0716 -0.7253 -0.3218
 6839SOL    MW427124   0.927   4.424   3.988 -0.2033 -0.1362 -0.6560
 6840SOL     OW27125   4.346   5.564   4.163 -0.1049  0.9528 -0.0438
 6840SOL    HW227126   4.363   5.485   4.111  0.2499  0.6797  0.4728
 6840SOL    HW327127   4.254   5.585   4.146 -0.7753 -0.6611  1.2351
 6840SOL    MW427128   4.336   5.556   4.154 -0.1465  0.7038  0.1931
 6841SOL     OW27129   2.280   5.455   1.342 -0.0471 -0.1851  0.1187
 6841SOL    HW227130   2.211   5.420   1.398 -2.9110 -0.5125 -3.2495
 6841SOL    HW327131   2.238   5.524   1.292  2.2175 -0.0237 -1.7760
 6841SOL    MW427132   2.266   5.459   1.342 -0.1262 -0.2070 -0.5757
 6842SOL     OW27133   6.291   1.399   5.001 -0.2215 -0.0910  0.2858
 6842SOL    HW227134   6.343   1.387   4.922  0.8679 -1.8898  1.2025
 6842SOL    HW327135   6.204   1.365   4.979  0.6749 -2.7146  0.4303
 6842SOL    MW427136   6.287   1.393   4.988  0.0405 -0.6745  0.4258
 6843SOL     OW27137   2.523   1.967   3.974 -0.1847  0.2287  0.0804
 6843SOL    HW227138   2.470   2.021   4.033  0.8386  0.0282  1.2232
 6843SOL    HW327139   2.613   1.987   3.997  0.2644  0.4439 -1.7315
 6843SOL    MW427140   2.528   1.977   3.985  0.0096  0.2306 -0.0079
 6844SOL     OW27141   6.072   0.023   1.918 -0.3528 -1.0119  0.6331
 6844SOL    HW227142   5.990  -0.004   1.876  0.8531 -0.9168 -2.0201
 6844SOL    HW327143   6.115  -0.059   1.941 -0.3710 -1.1279  0.2652
 6844SOL    MW427144   6.067   0.009   1.915 -0.1961 -1.0146  0.2345
 6845SOL     OW27145   5.033   3.543   4.276 -0.1068  0.1110 -0.0722
 6845SOL    HW227146   5.121   3.540   4.315  0.9409 -0.2629 -2.2674
 6845SOL    HW327147   4.987   3.468   4.314  1.6606 -1.6714 -1.2236
 6845SOL    MW427148   5.039   3.532   4.286  0.2646 -0.1735 -0.5138
 6846SOL     OW27149   0.615   1.133   0.083  0.5529 -0.2720 -0.0284
 6846SOL    HW227150   0.550   1.186   0.128  0.8979 -0.3181  0.5390
 6846SOL    HW327151   0.564   1.073   0.028  0.1632  0.6440 -0.6803
 6846SOL    MW427152   0.600   1.132   0.081  0.5470 -0.1573 -0.0395
 6847SOL     OW27153   3.508   6.023   4.705 -0.2720  0.1777 -0.0106
 6847SOL    HW227154   3.416   5.997   4.699 -0.2487  0.2347 -0.7357
 6847SOL    HW327155   3.519   6.051   4.796 -0.3094 -2.2678  0.8316
 6847SOL    MW427156   3.497   6.023   4.716 -0.2739 -0.1374  0.0048
 6848SOL     OW27157   1.059   0.888   0.679  0.6726  0.4796 -0.4451
 6848SOL    HW227158   1.146   0.878   0.717  1.5921  0.4660 -2.4749
 6848SOL    HW327159   1.020   0.801   0.685  1.0330  0.3358 -0.1375
 6848SOL    MW427160   1.065   0.876   0.685  0.8415  0.4589 -0.6723
 6849SOL     OW27161   3.764   3.800   5.081  0.1933 -0.4483 -0.2570
 6849SOL    HW227162   3.782   3.845   4.999 -0.4652 -1.1774 -0.8141
 6849SOL    HW327163   3.670   3.814   5.097  0.2619 -0.5203  0.2482
 6849SOL    MW427164   3.754   3.808   5.072  0.1154 -0.5540 -0.2638
 6850SOL     OW27165   5.601   3.257   2.050 -0.0455 -0.4561 -0.3258
 6850SOL    HW227166   5.639   3.344   2.058 -0.9782 -0.0731  0.0694
 6850SOL    HW327167   5.623   3.229   1.962  1.8813 -0.6137  0.1743
 6850SOL    MW427168   5.609   3.265   2.040  0.0857 -0.4264 -0.2077
 6851SOL     OW27169   3.281   2.662   1.110  0.2912 -0.1104 -0.2967
 6851SOL    HW227170   3.370   2.639   1.084  0.0931 -3.3511  1.3744
 6851SOL    HW327171   3.225   2.614   1.049 -0.2452 -0.5179  0.4975
 6851SOL    MW427172   3.285   2.653   1.099  0.1943 -0.5918  0.0286
 6852SOL     OW27173   1.229   3.733   0.715 -0.0230 -0.0508  0.9466
 6852SOL    HW227174   1.203   3.821   0.688 -3.7740 -0.7820  1.6435
 6852SOL    HW327175   1.270   3.695   0.638  1.2795  2.0727  0.4918
 6852SOL    MW427176   1.231   3.740   0.702 -0.3460  0.1329  0.9785
 6853SOL     OW27177   5.284   6.380   0.881  0.2183  0.0385 -0.5540
 6853SOL    HW227178   5.319   6.428   0.806 -1.9576  0.2617 -1.4970
 6853SOL    HW327179   5.247   6.447   0.938  0.1989 -0.2693 -0.1978
 6853SOL    MW427180   5.284   6.395   0.878 -0.0713  0.0273 -0.6315
 6854SOL     OW27181   0.629   0.130   5.695 -0.1830  0.1785 -0.0619
 6854SOL    HW227182   0.591   0.088   5.617  1.0308 -0.2448 -0.4523
 6854SOL    HW327183   0.722   0.106   5.692 -0.0914  0.2380  1.4762
 6854SOL    MW427184   0.636   0.121   5.684 -0.0108  0.1305  0.0895
 6855SOL     OW27185   4.929   3.641   0.104 -0.0645  0.1126 -0.4935
 6855SOL    HW227186   4.980   3.588   0.165 -0.1767  0.4406 -0.1077
 6855SOL    HW327187   4.838   3.629   0.132 -0.0627  0.7525 -0.2091
 6855SOL    MW427188   4.924   3.632   0.115 -0.0791  0.2403 -0.4051
 6856SOL     OW27189   6.349   5.353   1.116  0.7172  0.1510  0.3290
 6856SOL    HW227190   6.413   5.304   1.169 -0.8137 -0.2435  1.9184
 6856SOL    HW327191   6.390   5.438   1.102  2.1262 -0.5178  0.1907
 6856SOL    MW427192   6.363   5.357   1.121  0.7011  0.0107  0.5204
 6857SOL     OW27193   1.599   3.741   0.498 -0.8202 -0.4950  0.0086
 6857SOL    HW227194   1.574   3.791   0.576 -1.5604  0.2137 -0.6708
 6857SOL    HW327195   1.603   3.806   0.428  0.0034 -1.1015 -0.5167
 6857SOL    MW427196   1.596   3.756   0.499 -0.8092 -0.4815 -0.1504
 6858SOL     OW27197   0.157   1.154   6.092  0.4413 -0.0847  0.3647
 6858SOL    HW227198   0.172   1.242   6.128  0.1199 -0.1837  0.7533
 6858SOL    HW327199   0.113   1.170   6.008 -1.3021  0.1058  1.2721
 6858SOL    MW427200   0.153   1.168   6.085  0.1689 -0.0727  0.5357
 6859SOL     OW27201   0.024   1.862   0.381  0.1426  0.2426  0.0408
 6859SOL    HW227202   0.100   1.876   0.438  0.5447 -0.3440 -0.3373
 6859SOL    HW327203  -0.010   1.777   0.407 -0.9836  0.9154  0.8602
 6859SOL    MW427204   0.030   1.853   0.392  0.0471  0.2540  0.0990
 6860SOL     OW27205   2.308   5.621   1.852 -0.2123 -0.1223 -0.3363
 6860SOL    HW227206   2.328   5.695   1.910 -0.7757  1.3974 -1.9873
 6860SOL    HW327207   2.385   5.565   1.858 -0.3181 -0.1160  1.9580
 6860SOL    MW427208   2.321   5.624   1.861 -0.3006  0.0790 -0.2514
 6861SOL     OW27209   2.771   5.493   3.528 -0.4774  0.3318 -0.3971
 6861SOL    HW227210   2.864   5.510   3.541 -0.3367 -0.5252 -0.1769
 6861SOL    HW327211   2.763   5.475   3.434  0.0195 -1.8766 -0.0904
 6861SOL    MW427212   2.782   5.493   3.518 -0.3933 -0.0726 -0.3276
 6862SOL     OW27213   2.693   3.730   5.265  0.1900  0.1780 -0.4875
 6862SOL    HW227214   2.659   3.664   5.205 -0.1825 -0.5905  0.5423
 6862SOL    HW327215   2.734   3.680   5.335 -1.9768  0.9101  1.4440
 6862SOL    MW427216   2.694   3.715   5.266 -0.1450  0.1732 -0.0968
 6863SOL     OW27217   5.144   5.967   2.848 -0.5943  0.2387 -0.0561
 6863SOL    HW227218   5.101   5.885   2.823  0.0804  0.2264 -1.2497
 6863SOL    HW327219   5.075   6.019   2.889 -1.5282 -0.1285 -1.1321
 6863SOL    MW427220   5.129   5.963   2.850 -0.6285  0.1886 -0.3556
 6864SOL     OW27221   0.284   5.570   1.074  0.3772 -0.2238 -0.0508
 6864SOL    HW227222   0.194   5.599   1.060  0.0360 -0.3764  1.6261
 6864SOL    HW327223   0.305   5.599   1.163  1.4247 -1.5718  0.1739
 6864SOL    MW427224   0.275   5.578   1.084  0.4704 -0.4218  0.2001
 6865SOL     OW27225   6.010   3.073   3.129  0.3496  0.0055  0.0674
 6865SOL    HW227226   6.015   3.003   3.193 -0.5141 -1.1993 -1.1077
 6865SOL    HW327227   6.044   3.034   3.048 -1.8116  0.3140 -1.0668
 6865SOL    MW427228   6.015   3.059   3.126 -0.0495 -0.1128 -0.2373
 6866SOL     OW27229   3.810   3.724   3.663 -0.1846  0.0504 -0.0472
 6866SOL    HW227230   3.831   3.636   3.693 -0.4665 -0.3901 -1.1098
 6866SOL    HW327231   3.733   3.714   3.608 -0.3673  0.9968  0.0062
 6866SOL    MW427232   3.803   3.711   3.660 -0.2459  0.1172 -0.1803
 6867SOL     OW27233   4.558   5.441   5.124 -0.2244 -0.3262  0.2354
 6867SOL    HW227234   4.514   5.453   5.040 -1.0058 -0.4742  0.6099
 6867SOL    HW327235   4.635   5.388   5.104 -0.8556 -1.0674 -0.2638
 6867SOL    MW427236   4.563   5.435   5.111 -0.4108 -0.4435  0.2190
 6868SOL     OW27237   2.074   1.984   5.778  0.0353  0.2018  0.1503
 6868SOL    HW227238   1.979   1.971   5.772  0.1280 -0.5741  0.3163
 6868SOL    HW327239   2.100   2.010   5.690 -0.3387  0.4849  0.1205
 6868SOL    MW427240   2.065   1.986   5.766 -0.0018  0.1368  0.1683
 6869SOL     OW27241   5.287   1.185   0.156 -0.1743  0.5229  0.1508
 6869SOL    HW227242   5.380   1.170   0.141 -0.4437 -1.4956  0.2882
 6869SOL    HW327243   5.243   1.127   0.094 -1.3618  1.5033  0.0331
 6869SOL    MW427244   5.294   1.175   0.146 -0.3665  0.3859  0.1534
 6870SOL     OW27245   5.185   5.214   6.209  0.8166 -0.1134  0.7451
 6870SOL    HW227246   5.225   5.144   6.157  2.1621  0.9885  0.2328
 6870SOL    HW327247   5.096   5.221   6.176  1.4521  0.1574 -1.0452
 6870SOL    MW427248   5.179   5.206   6.198  1.0780  0.0677  0.4413
 6871SOL     OW27249   3.462   1.764   5.128 -0.6350  0.4856 -0.2337
 6871SOL    HW227250   3.519   1.810   5.188 -1.7229  1.6068 -0.0104
 6871SOL    HW327251   3.431   1.831   5.067 -0.2652 -0.4482 -1.5153
 6871SOL    MW427252   3.465   1.779   5.128 -0.7297  0.5103 -0.3733
 6872SOL     OW27253   1.699   3.091   0.240 -0.2592  0.0492  0.0917
 6872SOL    HW227254   1.742   3.148   0.305 -1.4728 -1.6156  2.5275
 6872SOL    HW327255   1.769   3.034   0.208  0.0829 -0.2457  1.2896
 6872SOL    MW427256   1.714   3.091   0.245 -0.3742 -0.2093  0.5711
 6873SOL     OW27257   3.206   0.523   2.743 -0.0056  0.0384 -0.0795
 6873SOL    HW227258   3.198   0.525   2.647 -2.8856  2.9665  0.0659
 6873SOL    HW327259   3.136   0.465   2.772 -0.5652  0.8844  0.2913
 6873SOL    MW427260   3.196   0.515   2.734 -0.4594  0.5364 -0.0114
 6874SOL     OW27261   1.485   4.206   1.256  0.0584 -0.1095 -0.1087
 6874SOL    HW227262   1.475   4.129   1.312  0.6012 -0.2285 -0.1752
 6874SOL    HW327263   1.504   4.278   1.316  0.4529 -0.2012 -0.1231
 6874SOL    MW427264   1.486   4.205   1.271  0.1821 -0.1373 -0.1194
 6875SOL     OW27265   6.146   1.901   0.545 -0.4612 -0.0718  0.1676
 6875SOL    HW227266   6.208   1.892   0.618 -1.1404 -1.4941  0.6132
 6875SOL    HW327267   6.153   1.818   0.497 -0.2235  0.7389 -1.2486
 6875SOL    MW427268   6.155   1.888   0.548 -0.5195 -0.1525  0.0395
 6876SOL     OW27269   1.433   2.925   2.995  0.3563  0.6609 -1.0092
 6876SOL    HW227270   1.405   2.998   2.940  0.4968  1.0250 -0.5928
 6876SOL    HW327271   1.380   2.851   2.964 -1.6716  1.4916  0.2655
 6876SOL    MW427272   1.422   2.925   2.983  0.1073  0.8186 -0.7861
 6877SOL     OW27273   6.027   2.406   2.466  0.0110  0.1616  0.1279
 6877SOL    HW227274   5.973   2.335   2.432  0.6168 -0.3564  0.2254
 6877SOL    HW327275   6.060   2.450   2.387  0.6361 -0.4400  0.0489
 6877SOL    MW427276   6.024   2.402   2.451  0.1734  0.0139  0.1304
 6878SOL     OW27277   0.925   3.559   2.914  0.3231  0.2054 -0.1145
 6878SOL    HW227278   1.015   3.564   2.884  0.2688 -0.3389 -0.3763
 6878SOL    HW327279   0.896   3.470   2.892  0.2724 -0.2326  1.5316
 6878SOL    MW427280   0.933   3.548   2.907  0.3093  0.0758  0.0682
 6879SOL     OW27281   5.671   6.133   0.696 -0.5355 -0.1961  0.6071
 6879SOL    HW227282   5.723   6.058   0.726 -1.9204 -1.4503 -0.0136
 6879SOL    HW327283   5.726   6.175   0.631  0.8178  0.1529  1.9115
 6879SOL    MW427284   5.685   6.128   0.692 -0.5397 -0.3155  0.6973
 6880SOL     OW27285   5.065   5.046   1.241  0.3281 -0.5640 -0.3568
 6880SOL    HW227286   4.988   4.994   1.260  1.3127 -1.7709  0.4595
 6880SOL    HW327287   5.033   5.116   1.183 -1.0194 -2.0825 -1.5362
 6880SOL    MW427288   5.051   5.049   1.236  0.2802 -0.9236 -0.4047
 6881SOL     OW27289   3.478   3.196   2.621 -0.4886 -0.3897 -0.0408
 6881SOL    HW227290   3.393   3.234   2.644 -0.0738  0.7385 -0.2727
 6881SOL    HW327291   3.535   3.220   2.695 -0.5422 -1.8301  0.5005
 6881SOL    MW427292   3.474   3.204   2.634 -0.4409 -0.4309  0.0000
 6882SOL     OW27293   3.957   4.038   2.669  0.5309 -0.5256  0.3533
 6882SOL    HW227294   3.907   3.974   2.619  0.6089 -1.8423  1.8562
 6882SOL    HW327295   3.929   4.123   2.635 -0.6532 -1.3103 -0.7272
 6882SOL    MW427296   3.946   4.041   2.658  0.3850 -0.8029  0.4090
 6883SOL     OW27297   1.134   4.016   2.782 -0.2219  0.5912  0.2198
 6883SOL    HW227298   1.086   4.051   2.857 -3.2775  1.7449 -2.0696
 6883SOL    HW327299   1.066   3.983   2.723  1.9148  0.6885 -2.5135
 6883SOL    MW427300   1.119   4.016   2.784 -0.3431  0.7562 -0.4429
 6884SOL     OW27301   5.355   3.932   6.382  0.3798 -0.4910 -0.1805
 6884SOL    HW227302   5.323   3.876   6.311 -0.2814 -0.1242 -0.1740
 6884SOL    HW327303   5.293   3.920   6.453  0.3540  0.0676 -0.0981
 6884SOL    MW427304   5.343   3.923   6.382  0.2892 -0.3689 -0.1688
 6885SOL     OW27305   2.673   1.190   4.860 -0.5575  0.4358 -0.1782
 6885SOL    HW227306   2.618   1.268   4.857 -0.2846  0.6151 -0.6121
 6885SOL    HW327307   2.762   1.223   4.853 -0.5168 -0.0204 -2.6886
 6885SOL    MW427308   2.677   1.205   4.859 -0.5161  0.3992 -0.5667
 6886SOL     OW27309   3.106   5.710   6.231 -0.0833 -0.5881  0.2298
 6886SOL    HW227310   3.186   5.658   6.232 -0.4771 -1.2889  2.6979
 6886SOL    HW327311   3.057   5.676   6.156  0.7964 -1.9921  0.2441
 6886SOL    MW427312   3.110   5.698   6.221 -0.0192 -0.8658  0.5573
 6887SOL     OW27313   4.557   2.696   0.603 -0.3658  0.0373  0.2912
 6887SOL    HW227314   4.620   2.673   0.535 -2.1246  0.3156 -1.5239
 6887SOL    HW327315   4.472   2.696   0.558 -1.4255  1.7455  2.1248
 6887SOL    MW427316   4.554   2.693   0.588 -0.7376  0.2994  0.2936
 6888SOL     OW27317   1.751   0.813   3.253 -0.1916  0.2634 -0.4412
 6888SOL    HW227318   1.671   0.812   3.202 -1.1713  0.5894  1.0161
 6888SOL    HW327319   1.769   0.906   3.268  0.4859  0.1942 -0.8020
 6888SOL    MW427320   1.743   0.825   3.248 -0.2315  0.2973 -0.2965
 6889SOL     OW27321   2.752   3.732   1.236  0.4632  0.5709  0.3657
 6889SOL    HW227322   2.845   3.749   1.252 -0.0397  2.8162  1.2289
 6889SOL    HW327323   2.727   3.794   1.168  0.0734 -1.6562 -1.6614
 6889SOL    MW427324   2.761   3.742   1.229  0.3454  0.5733  0.2121
 6890SOL     OW27325   1.968   3.037   5.048 -0.0171  0.2758 -0.1128
 6890SOL    HW227326   1.910   3.028   4.972 -0.7837  0.3053  0.4590
 6890SOL    HW327327   1.938   3.116   5.092  0.6867  0.4788  0.0050
 6890SOL    MW427328   1.956   3.046   5.044 -0.0254  0.3065 -0.0218
 6891SOL     OW27329   6.307   1.391   5.638 -0.3505  0.1101  0.1450
 6891SOL    HW227330   6.269   1.305   5.617 -1.6025  0.3963  1.1227
 6891SOL    HW327331   6.258   1.453   5.583 -0.6275  0.3838  0.6999
 6891SOL    MW427332   6.296   1.388   5.628 -0.5523  0.1840  0.3472
 6892SOL     OW27333   0.033   3.545   0.950  0.1146  0.4077  0.1266
 6892SOL    HW227334   0.029   3.512   0.861 -0.2692 -0.2081  0.3640
 6892SOL    HW327335   0.057   3.638   0.941  1.3524  0.0435 -0.5420
 6892SOL    MW427336   0.035   3.553   0.937  0.2273  0.2784  0.0697
 6893SOL     OW27337   0.615   2.454   1.380  1.1227  0.2414  0.0886
 6893SOL    HW227338   0.708   2.472   1.366  1.5707 -1.8241  0.2159
 6893SOL    HW327339   0.613   2.373   1.429 -0.7836 -0.5980 -1.2478
 6893SOL    MW427340   0.627   2.446   1.384  0.9303 -0.1418 -0.0709
 6894SOL     OW27341   3.055   6.303   3.814  0.6089  0.0338  0.4596
 6894SOL    HW227342   3.065   6.361   3.890  0.0947  2.3984 -1.1990
 6894SOL    HW327343   3.140   6.306   3.771  0.3171  0.2614 -0.1062
 6894SOL    MW427344   3.068   6.311   3.819  0.5026  0.3758  0.1661
 6895SOL     OW27345   6.224   3.862   5.608 -0.3308  0.0071 -0.2072
 6895SOL    HW227346   6.309   3.876   5.567  0.1536 -0.5804  0.5830
 6895SOL    HW327347   6.189   3.785   5.564 -0.0578 -0.2831  0.0750
 6895SOL    MW427348   6.231   3.853   5.597 -0.2309 -0.1087 -0.0657
 6896SOL     OW27349   2.674   2.729   0.589  0.6235  0.1637 -0.0899
 6896SOL    HW227350   2.697   2.812   0.631 -0.3208  0.7666 -0.7040
 6896SOL    HW327351   2.587   2.708   0.624  1.4083 -1.2841  1.0805
 6896SOL    MW427352   2.665   2.738   0.599  0.6025  0.0522 -0.0165
 6897SOL     OW27353   0.957   3.128   4.124  0.0698  0.5274  0.0756
 6897SOL    HW227354   0.992   3.141   4.036 -0.7843 -1.0833 -0.5414
 6897SOL    HW327355   0.864   3.153   4.116  0.0288  0.5401  0.5636
 6897SOL    MW427356   0.949   3.133   4.111 -0.0483  0.3165  0.0586
 6898SOL     OW27357   1.789   5.321   2.515 -0.2731  0.4181 -0.3809
 6898SOL    HW227358   1.825   5.272   2.589 -2.7416  0.3358  0.8771
 6898SOL    HW327359   1.845   5.297   2.441  0.8138 -1.4260  0.9562
 6898SOL    MW427360   1.801   5.311   2.515 -0.4554  0.1639 -0.0385
 6899SOL     OW27361   5.242   0.559   5.073  0.5277 -0.1828 -0.2690
 6899SOL    HW227362   5.332   0.552   5.042  0.2716  0.3821 -1.1982
 6899SOL    HW327363   5.249   0.552   5.168  1.7755  1.6297 -0.1702
 6899SOL    MW427364   5.255   0.558   5.081  0.6585  0.1309 -0.3786
 6900SOL     OW27365   5.742   3.710   0.445  0.0423  0.4613 -0.1415
 6900SOL    HW227366   5.705   3.796   0.426  0.5310  0.6889 -0.0958
 6900SOL    HW327367   5.675   3.665   0.494 -0.5333  0.5302 -0.8477
 6900SOL    MW427368   5.729   3.716   0.449  0.0308  0.5004 -0.2286
 6901SOL     OW27369   2.655   3.324   4.128  0.1081 -0.0429 -0.5195
 6901SOL    HW227370   2.641   3.360   4.041  1.7160 -1.0511 -1.2274
 6901SOL    HW327371   2.737   3.275   4.122  0.1610 -0.3113  1.5046
 6901SOL    MW427372   2.664   3.322   4.116  0.3272 -0.2114 -0.3458
 6902SOL     OW27373   0.702   0.698   0.505 -0.5998  0.0307 -0.3467
 6902SOL    HW227374   0.667   0.745   0.581 -2.3203 -0.7841 -0.5897
 6902SOL    HW327375   0.677   0.752   0.430 -0.8842 -0.2935 -0.4871
 6902SOL    MW427376   0.694   0.711   0.505 -0.8643 -0.1195 -0.3973
 6903SOL     OW27377   1.056   2.860   3.099 -0.5094  0.4291 -0.1780
 6903SOL    HW227378   1.027   2.769   3.092  0.5267  0.2269 -2.7868
 6903SOL    HW327379   1.004   2.908   3.035 -1.4307  1.8452  1.5344
 6903SOL    MW427380   1.046   2.855   3.090 -0.4942  0.5893 -0.2963
 6904SOL     OW27381   0.451   1.792   4.752  0.5495  0.3527 -0.1953
 6904SOL    HW227382   0.506   1.781   4.674  0.7938 -0.6788  0.1073
 6904SOL    HW327383   0.462   1.711   4.800 -2.3597 -0.5003 -0.8042
 6904SOL    MW427384   0.460   1.780   4.748  0.1979  0.1041 -0.2357
 6905SOL     OW27385   6.277   5.455   3.676  0.0842  0.3852  0.5201
 6905SOL    HW227386   6.341   5.388   3.698 -2.0863 -1.6005  1.1833
 6905SOL    HW327387   6.259   5.498   3.760  1.3539  1.7577  0.1243
 6905SOL    MW427388   6.283   5.452   3.690 -0.0346  0.3043  0.5554
 6906SOL     OW27389   2.986   3.660   3.115  0.0083 -0.0395  0.5834
 6906SOL    HW227390   3.048   3.603   3.069 -0.6361 -1.9704  1.9790
 6906SOL    HW327391   2.949   3.715   3.046 -0.3422 -2.2633 -1.1372
 6906SOL    MW427392   2.989   3.660   3.100 -0.1229 -0.5877  0.5405
 6907SOL     OW27393   4.868   3.326   5.884 -0.2422  0.2189  0.0235
 6907SOL    HW227394   4.840   3.286   5.966  0.8667  1.3485  1.0131
 6907SOL    HW327395   4.845   3.419   5.894  0.6328  0.5164 -0.5907
 6907SOL    MW427396   4.861   3.333   5.896  0.0196  0.4072  0.0730
 6908SOL     OW27397   1.584   1.255   2.313  0.2159 -0.1277  0.2905
 6908SOL    HW227398   1.505   1.227   2.267  0.8904 -1.8790  0.0998
 6908SOL    HW327399   1.656   1.217   2.262  1.0841 -0.0829  1.4338
 6908SOL    MW427400   1.583   1.246   2.300  0.4195 -0.3528  0.4162
 6909SOL     OW27401   0.818   1.718   5.688 -0.0378  0.0957  0.4125
 6909SOL    HW227402   0.859   1.771   5.619 -0.9437  2.2318  1.4241
 6909SOL    HW327403   0.873   1.732   5.765 -0.9017  0.5117  0.9762
 6909SOL    MW427404   0.830   1.727   5.689 -0.2713  0.4324  0.6203
 6910SOL     OW27405   0.330   5.747   4.084 -0.1334 -0.2000  0.2765
 6910SOL    HW227406   0.309   5.831   4.126  0.4336 -0.3369  0.8478
 6910SOL    HW327407   0.379   5.771   4.005  0.9210 -0.0184  0.9700
 6910SOL    MW427408   0.333   5.762   4.079  0.0805 -0.1941  0.4434
 6911SOL     OW27409   1.114   0.664   6.400 -0.0314  0.0854  0.1865
 6911SOL    HW227410   1.064   0.744   6.385  1.1546  1.1153  1.4639
 6911SOL    HW327411   1.196   0.677   6.353  0.8152  0.3365  1.6760
 6911SOL    MW427412   1.118   0.676   6.392  0.2368  0.2544  0.5516
 6912SOL     OW27413   1.775   4.909   5.690  0.6412  0.0987  0.0866
 6912SOL    HW227414   1.797   4.832   5.638  0.1397  0.5514 -0.8033
 6912SOL    HW327415   1.856   4.961   5.691  1.1878 -0.7256  1.2427
 6912SOL    MW427416   1.789   4.906   5.683  0.6471  0.0497  0.1217
 6913SOL     OW27417   3.817   2.631   2.930  0.2395  0.2359  0.0020
 6913SOL    HW227418   3.892   2.592   2.884  0.3299 -0.7767  0.9650
 6913SOL    HW327419   3.753   2.648   2.860 -0.0672 -2.2930 -0.4598
 6913SOL    MW427420   3.818   2.628   2.915  0.2110 -0.2314  0.0681
 6914SOL     OW27421   1.515   2.823   0.948  0.1913 -0.2008  0.3363
 6914SOL    HW227422   1.495   2.762   0.877  3.1177  0.3414 -1.1256
 6914SOL    HW327423   1.458   2.898   0.931 -0.0306 -0.5827 -0.7340
 6914SOL    MW427424   1.505   2.825   0.936  0.5481 -0.1797  0.0022
 6915SOL     OW27425   0.374   4.674   0.788 -0.0566  0.0753  0.2395
 6915SOL    HW227426   0.355   4.762   0.757  2.4823  0.4944 -0.3736
 6915SOL    HW327427   0.470   4.668   0.787 -0.0708 -2.0003  2.2230
 6915SOL    MW427428   0.384   4.685   0.784  0.2765 -0.1433  0.4203
 6916SOL     OW27429   3.469   2.008   0.780  0.2845  0.0813 -0.5408
 6916SOL    HW227430   3.410   2.084   0.781  0.4566  0.2383  1.0688
 6916SOL    HW327431   3.510   2.010   0.694 -1.9270  0.0666 -1.6539
 6916SOL    MW427432   3.467   2.018   0.769  0.0154  0.1001 -0.4753
 6917SOL     OW27433   3.747   0.387   2.932 -0.2284  0.0219 -0.0671
 6917SOL    HW227434   3.675   0.440   2.963  0.3187  0.2705  0.8309
 6917SOL    HW327435   3.824   0.421   2.978  0.2200 -1.1851  0.1398
 6917SOL    MW427436   3.748   0.398   2.942 -0.0970 -0.1046  0.0787
 6918SOL     OW27437   3.390   4.321   3.078 -0.1680  0.5473 -0.1347
 6918SOL    HW227438   3.416   4.310   3.169  0.3517 -0.1166 -0.3472
 6918SOL    HW327439   3.305   4.278   3.071  1.1994 -2.4089 -0.6282
 6918SOL    MW427440   3.382   4.314   3.089  0.0809  0.0697 -0.2278
 6919SOL     OW27441   1.439   3.616   4.357  0.3256 -0.2861  0.1042
 6919SOL    HW227442   1.358   3.663   4.374  0.1478 -0.1499 -1.0011
 6919SOL    HW327443   1.412   3.543   4.302  1.0606  0.3041 -1.0831
 6919SOL    MW427444   1.425   3.613   4.352  0.3991 -0.1902 -0.1983
 6920SOL     OW27445   1.495   1.000   0.530  0.2999 -0.1467 -0.2981
 6920SOL    HW227446   1.473   1.036   0.444  1.2349  1.3225  0.0386
 6920SOL    HW327447   1.519   0.909   0.513  1.8978  0.5166 -1.8312
 6920SOL    MW427448   1.495   0.993   0.517  0.6341  0.1347 -0.4560
 6921SOL     OW27449   3.977   1.374   4.354  0.2891 -0.0028 -0.7461
 6921SOL    HW227450   3.943   1.294   4.314  1.2268  0.8169 -3.4591
 6921SOL    HW327451   4.072   1.360   4.357  0.2386 -0.1943  1.7787
 6921SOL    MW427452   3.985   1.361   4.349  0.4062  0.0801 -0.7709
 6922SOL     OW27453   1.050   4.788   0.840  0.1220  0.0538  0.0161
 6922SOL    HW227454   1.018   4.869   0.800  2.1939  0.2578 -1.3545
 6922SOL    HW327455   1.056   4.726   0.767  0.5973 -0.6841  0.6616
 6922SOL    MW427456   1.046   4.790   0.825  0.4580 -0.0166 -0.0796
 6923SOL     OW27457   2.055   2.988   2.362 -0.7787 -0.0392 -0.1325
 6923SOL    HW227458   2.116   2.979   2.289  0.1508 -0.7822  0.7043
 6923SOL    HW327459   2.019   2.901   2.374  0.3240 -0.3431  1.3145
 6923SOL    MW427460   2.058   2.975   2.354 -0.5106 -0.1773  0.1688
 6924SOL     OW27461   1.034   3.094   3.855 -0.3651  0.2024  0.0717
 6924SOL    HW227462   1.018   3.000   3.854 -0.1548  0.1644 -1.2293
 6924SOL    HW327463   0.979   3.129   3.785  2.2694  0.5377 -2.0231
 6924SOL    MW427464   1.025   3.086   3.846  0.0102  0.2417 -0.3763
 6925SOL     OW27465   4.341   5.273   4.107  0.1115 -0.1397  0.0430
 6925SOL    HW227466   4.418   5.216   4.095 -0.2133 -0.9866  1.7474
 6925SOL    HW327467   4.267   5.215   4.091 -0.2108 -0.0757  1.2213
 6925SOL    MW427468   4.342   5.258   4.103  0.0261 -0.2430  0.4233
 6926SOL     OW27469   4.023   2.340   5.477  0.1653 -0.0885  0.0094
 6926SOL    HW227470   3.989   2.250   5.471 -1.6377  0.3710  2.0986
 6926SOL    HW327471   3.947   2.396   5.464  0.8774  1.0994  0.7371
 6926SOL    MW427472   4.009   2.335   5.474  0.0214  0.1288  0.3811
 6927SOL     OW27473   2.973   1.255   2.724  0.7005  0.0348 -0.1498
 6927SOL    HW227474   2.966   1.166   2.758 -0.3771  0.2172  0.1420
 6927SOL    HW327475   3.059   1.285   2.751  1.4840 -1.2609 -1.1104
 6927SOL    MW427476   2.983   1.247   2.732  0.6617 -0.1121 -0.2380
 6928SOL     OW27477   3.396   2.310   3.249  0.9266 -0.2785  0.1900
 6928SOL    HW227478   3.424   2.233   3.200 -0.1013 -0.6873  0.2199
 6928SOL    HW327479   3.341   2.359   3.188 -0.0358 -0.5830  0.7918
 6928SOL    MW427480   3.392   2.307   3.234  0.6640 -0.3726  0.2734
 6929SOL     OW27481   1.203   0.919   4.643 -0.0036 -0.3470 -0.2920
 6929SOL    HW227482   1.167   0.831   4.628  2.6567 -1.9628  1.8867
 6929SOL    HW327483   1.232   0.948   4.557 -2.7658 -0.5886 -1.4324
 6929SOL    MW427484   1.202   0.911   4.630 -0.0171 -0.5920 -0.1550
 6930SOL     OW27485   4.057   5.367   2.857  0.0605 -0.3734 -0.2355
 6930SOL    HW227486   4.069   5.389   2.949 -1.5566  0.2001 -0.1205
 6930SOL    HW327487   4.068   5.450   2.811  1.1776 -0.7141 -0.6121
 6930SOL    MW427488   4.060   5.381   2.863 -0.0055 -0.3427 -0.2700
 6931SOL     OW27489   0.138   1.988   0.782 -0.1851 -0.3165  0.1844
 6931SOL    HW227490   0.138   1.904   0.827 -0.8310 -1.4824 -1.8511
 6931SOL    HW327491   0.103   2.050   0.846  1.4176 -1.3211  2.1234
 6931SOL    MW427492   0.133   1.985   0.796 -0.0589 -0.6028  0.1717
 6932SOL     OW27493   2.318   1.519   3.825  1.0373  0.1172 -0.3106
 6932SOL    HW227494   2.407   1.518   3.789  0.4617  0.0943 -1.8164
 6932SOL    HW327495   2.283   1.432   3.806  0.7925  0.0216  0.5544
 6932SOL    MW427496   2.325   1.508   3.818  0.9291  0.1016 -0.3951
 6933SOL     OW27497   3.593   5.607   0.806 -0.1274 -0.0423  0.1305
 6933SOL    HW227498   3.534   5.598   0.881 -0.7330  2.7825  0.0925
 6933SOL    HW327499   3.679   5.583   0.841 -0.8334 -1.6094  0.8966
 6933SOL    MW427500   3.597   5.603   0.821 -0.3005  0.1236  0.2265
 6934SOL     OW27501   2.398   5.809   2.050 -0.1367 -0.2629  0.0527
 6934SOL    HW227502   2.334   5.824   2.120  0.0678 -0.0144  0.1867
 6934SOL    HW327503   2.417   5.896   2.016  0.1383 -0.3373  0.0181
 6934SOL    MW427504   2.392   5.822   2.055 -0.0734 -0.2400  0.0658
 6935SOL     OW27505   4.980   0.115   5.679 -0.3482 -0.2836  0.1437
 6935SOL    HW227506   5.069   0.150   5.685 -0.7565  1.2189 -1.6382
 6935SOL    HW327507   4.943   0.156   5.601 -2.7367 -0.5855  1.0309
 6935SOL    MW427508   4.987   0.125   5.670 -0.7172 -0.1252  0.0257
 6936SOL     OW27509   2.219   0.300   5.250  0.4621 -0.2598 -0.2034
 6936SOL    HW227510   2.167   0.287   5.329 -0.0855 -2.7624 -0.9014
 6936SOL    HW327511   2.304   0.261   5.270  1.5699  2.2242  0.2995
 6936SOL    MW427512   2.223   0.293   5.263  0.5360 -0.2623 -0.2292
 6937SOL     OW27513   0.747   5.972   1.127  0.0227  0.5010  0.4670
 6937SOL    HW227514   0.746   5.945   1.218 -0.2289  2.1075  0.9693
 6937SOL    HW327515   0.666   6.021   1.115  1.0110  2.0873 -0.0366
 6937SOL    MW427516   0.736   5.975   1.137  0.1199  0.9222  0.4669
 6938SOL     OW27517   2.514   5.610   1.367  0.2210  0.4375 -0.4962
 6938SOL    HW227518   2.539   5.607   1.275  0.2668  0.0591 -0.4733
 6938SOL    HW327519   2.439   5.552   1.374 -0.2113  0.9973 -0.4232
 6938SOL    MW427520   2.508   5.602   1.356  0.1700  0.4614 -0.4835
 6939SOL     OW27521   0.329   1.410   3.670  0.1315  0.2402  0.4797
 6939SOL    HW227522   0.276   1.331   3.660  2.4328 -1.4692  0.9097
 6939SOL    HW327523   0.393   1.388   3.738  0.9024  2.4700  0.5742
 6939SOL    MW427524   0.331   1.397   3.677  0.5368  0.3088  0.5489
 6940SOL     OW27525   3.391   6.338   1.710 -0.0858  0.4688 -0.3788
 6940SOL    HW227526   3.326   6.408   1.712  0.3823  0.9148  1.7496
 6940SOL    HW327527   3.466   6.376   1.664 -0.1383  1.0973  0.0409
 6940SOL    MW427528   3.392   6.352   1.704 -0.0310  0.6106 -0.0426
 6941SOL     OW27529   1.274   4.270   1.578  0.0152 -0.5926 -0.1085
 6941SOL    HW227530   1.217   4.299   1.506  0.1538  0.2337  0.0996
 6941SOL    HW327531   1.358   4.310   1.558  0.0554 -0.3580  0.5080
 6941SOL    MW427532   1.277   4.279   1.566  0.0388 -0.4526  0.0003
 6942SOL     OW27533   1.510   2.760   2.774  0.0796  0.2756 -0.0316
 6942SOL    HW227534   1.527   2.840   2.825  1.6016  0.4823 -0.7988
 6942SOL    HW327535   1.495   2.692   2.840 -1.2889  1.1665  0.6382
 6942SOL    MW427536   1.510   2.762   2.790  0.0999  0.4205 -0.0444
 6943SOL     OW27537   1.750   1.653   6.227 -0.5936 -0.3724  0.6084
 6943SOL    HW227538   1.822   1.702   6.265 -0.7150  0.0279  0.3415
 6943SOL    HW327539   1.719   1.596   6.297  0.7091 -1.3873  0.3825
 6943SOL    MW427540   1.755   1.652   6.241 -0.4378 -0.4535  0.5434
 6944SOL     OW27541   6.124   1.065   0.981 -0.1938 -0.1210 -1.1831
 6944SOL    HW227542   6.046   1.019   1.012  1.0904 -2.6740 -1.4476
 6944SOL    HW327543   6.120   1.058   0.885  0.0307  0.3245 -1.2286
 6944SOL    MW427544   6.113   1.058   0.972  0.0052 -0.3991 -1.2240
 6945SOL     OW27545   4.041   2.266   2.443  0.1740  0.1894 -0.2617
 6945SOL    HW227546   4.128   2.258   2.482 -0.0369  0.0579  0.2019
 6945SOL    HW327547   4.031   2.186   2.390  1.0058  1.0301 -1.7347
 6945SOL    MW427548   4.051   2.254   2.441  0.2559  0.2830 -0.3949
 6946SOL     OW27549   6.143   2.494   3.148 -0.8263  0.0435 -0.5291
 6946SOL    HW227550   6.155   2.419   3.207 -0.8276  0.5330  0.1051
 6946SOL    HW327551   6.142   2.570   3.206 -0.0129  0.6104 -1.2359
 6946SOL    MW427552   6.145   2.494   3.163 -0.7192  0.1829 -0.5387
 6947SOL     OW27553   0.942   6.088   3.429  0.0671  0.4107  0.4732
 6947SOL    HW227554   1.033   6.102   3.457 -0.1184  1.9368  0.4314
 6947SOL    HW327555   0.890   6.104   3.508 -0.1331 -1.5623  0.7773
 6947SOL    MW427556   0.947   6.092   3.443  0.0162  0.3518  0.5078
 6948SOL     OW27557   4.091   0.365   0.765  0.2039 -0.2258 -0.2154
 6948SOL    HW227558   4.102   0.306   0.840  1.2039 -0.0072 -0.1754
 6948SOL    HW327559   4.015   0.331   0.719  0.3312 -1.1177  0.2081
 6948SOL    MW427560   4.082   0.353   0.769  0.3526 -0.3146 -0.1542
 6949SOL     OW27561   1.484   3.228   0.133  0.1015  0.7118 -0.0907
 6949SOL    HW227562   1.421   3.206   0.202  0.7955 -0.4357  0.2111
 6949SOL    HW327563   1.564   3.181   0.157 -0.0066 -0.8125 -2.3220
 6949SOL    MW427564   1.486   3.219   0.145  0.1788  0.3593 -0.3453
 6950SOL     OW27565   4.286   0.558   3.492  0.1788  0.6494  0.8358
 6950SOL    HW227566   4.206   0.528   3.449 -1.1578  0.3451  3.3147
 6950SOL    HW327567   4.289   0.652   3.475  0.0483  0.4501 -0.3822
 6950SOL    MW427568   4.276   0.566   3.484 -0.0147  0.5830  1.0022
 6951SOL     OW27569   1.158   2.011   3.955 -0.1209  0.0950  0.1405
 6951SOL    HW227570   1.141   2.103   3.935  1.9728  0.0668 -2.2609
 6951SOL    HW327571   1.138   1.964   3.875 -0.2368 -1.4491  1.0263
 6951SOL    MW427572   1.153   2.017   3.942  0.1400 -0.1125 -0.0594
 6952SOL     OW27573   0.841   1.695   1.005  0.2975  0.3801 -0.5814
 6952SOL    HW227574   0.782   1.708   1.079  0.3285  0.7421 -0.6202
 6952SOL    HW327575   0.793   1.638   0.945  0.8358 -1.1603  0.3821
 6952SOL    MW427576   0.827   1.689   1.007  0.3726  0.2246 -0.4594
 6953SOL     OW27577   1.513   5.789   1.174  0.1789 -0.3766  0.9112
 6953SOL    HW227578   1.543   5.731   1.103 -1.9464 -0.7544  0.2543
 6953SOL    HW327579   1.431   5.750   1.204 -0.4371  1.3799  1.6198
 6953SOL    MW427580   1.506   5.776   1.168 -0.1828 -0.1947  0.9180
 6954SOL     OW27581   3.526   0.190   2.391 -0.2642  0.0488 -0.3770
 6954SOL    HW227582   3.619   0.183   2.412 -0.4141 -0.0283  0.3010
 6954SOL    HW327583   3.511   0.283   2.376 -0.0013  0.0127 -0.8743
 6954SOL    MW427584   3.536   0.201   2.392 -0.2493  0.0338 -0.3532
 6955SOL     OW27585   0.741   1.259   3.940 -0.3222 -0.2765  0.1769
 6955SOL    HW227586   0.830   1.286   3.919 -0.0593 -1.3332 -0.1801
 6955SOL    HW327587   0.726   1.184   3.882 -2.0593  0.9230 -1.0064
 6955SOL    MW427588   0.751   1.252   3.929 -0.5167 -0.2577 -0.0263
 6956SOL     OW27589   2.902   4.848   1.153 -0.1326  0.1506  0.2471
 6956SOL    HW227590   2.976   4.798   1.117 -0.5556  1.0345 -2.0027
 6956SOL    HW327591   2.939   4.934   1.173  0.0107 -0.2186  1.6685
 6956SOL    MW427592   2.917   4.852   1.151 -0.1695  0.2185  0.1378
 6957SOL     OW27593   0.774   1.408   5.645 -0.2945  0.2502 -0.4438
 6957SOL    HW227594   0.782   1.366   5.560  1.1572  0.1119 -0.2649
 6957SOL    HW327595   0.798   1.499   5.629 -1.9662  0.7174 -0.5377
 6957SOL    MW427596   0.778   1.415   5.632 -0.3235  0.2936 -0.4326
 6958SOL     OW27597   4.262   2.869   2.360 -0.7761 -0.1434  0.7809
 6958SOL    HW227598   4.274   2.802   2.292  1.7172  1.6431 -0.7226
 6958SOL    HW327599   4.167   2.874   2.373 -1.2492 -1.5257 -1.5696
 6958SOL    MW427600   4.251   2.861   2.353 -0.5095 -0.0900  0.2724
 6959SOL     OW27601   1.585   3.155   3.553 -0.5437  0.3487  0.4613
 6959SOL    HW227602   1.497   3.132   3.521 -0.2510 -0.0480 -0.0672
 6959SOL    HW327603   1.642   3.089   3.515 -0.1925 -0.2255  1.9242
 6959SOL    MW427604   1.581   3.143   3.543 -0.4587  0.2206  0.5846
 6960SOL     OW27605   5.296   1.635   2.307  0.0509  0.1830 -0.9211
 6960SOL    HW227606   5.277   1.716   2.356  0.7963 -0.7479  1.0189
 6960SOL    HW327607   5.392   1.628   2.310 -0.0046 -0.7114 -1.1602
 6960SOL    MW427608   5.306   1.645   2.314  0.1419 -0.0578 -0.6967
 6961SOL     OW27609   4.597   0.411   1.094 -0.8074 -0.4560  0.3533
 6961SOL    HW227610   4.650   0.398   1.173 -0.0846 -1.2001 -0.2279
 6961SOL    HW327611   4.515   0.365   1.111 -0.0460 -1.9769  0.0942
 6961SOL    MW427612   4.593   0.403   1.106 -0.6116 -0.7548  0.2424
 6962SOL     OW27613   5.113   1.184   2.984 -0.4054 -0.2343  0.3000
 6962SOL    HW227614   5.085   1.270   2.954 -0.8225 -0.2132  0.7348
 6962SOL    HW327615   5.062   1.122   2.932  0.2247 -0.2342 -0.3345
 6962SOL    MW427616   5.102   1.187   2.974 -0.3773 -0.2315  0.2737
 6963SOL     OW27617   0.975   5.885   4.139  0.3794 -0.1870 -0.2016
 6963SOL    HW227618   0.902   5.823   4.129  0.0554 -0.9404  4.5706
 6963SOL    HW327619   1.053   5.829   4.147  0.4928  0.1589  1.2958
 6963SOL    MW427620   0.976   5.869   4.138  0.3516 -0.2407  0.6256
 6964SOL     OW27621   1.445   1.857   1.233  0.0072 -0.0869 -0.6771
 6964SOL    HW227622   1.535   1.834   1.254 -0.1943 -1.1183 -0.8878
 6964SOL    HW327623   1.451   1.942   1.190  0.7831  0.2904  0.1338
 6964SOL    MW427624   1.457   1.865   1.230  0.0830 -0.1732 -0.5979
 6965SOL     OW27625   3.311   3.917   4.278  0.3685  0.0641 -0.2121
 6965SOL    HW227626   3.374   3.987   4.258  0.7440 -0.9213 -2.8703
 6965SOL    HW327627   3.361   3.854   4.330  0.8565  0.4392 -0.2168
 6965SOL    MW427628   3.326   3.918   4.282  0.4824 -0.0164 -0.5634
 6966SOL     OW27629   0.480   1.739   5.968 -0.2369  0.1399 -0.3278
 6966SOL    HW227630   0.470   1.817   6.023  1.1544  0.9495 -1.1698
 6966SOL    HW327631   0.528   1.770   5.892  0.6615 -1.6345 -0.5140
 6966SOL    MW427632   0.485   1.753   5.966  0.0652  0.0126 -0.4634
 6967SOL     OW27633   6.145   5.290   1.758 -1.2724  0.0761  0.0740
 6967SOL    HW227634   6.161   5.274   1.851 -0.4095  1.2412  0.1471
 6967SOL    HW327635   6.074   5.230   1.735  0.1326 -1.9975  0.8842
 6967SOL    MW427636   6.138   5.280   1.767 -0.9732 -0.0437  0.1905
 6968SOL     OW27637   4.094   0.574   2.188  0.3637 -0.4842 -0.1111
 6968SOL    HW227638   4.091   0.513   2.114  0.5667 -0.6404  0.0076
 6968SOL    HW327639   4.010   0.561   2.233  0.4876 -0.8208  0.0271
 6968SOL    MW427640   4.082   0.564   2.184  0.4068 -0.5492 -0.0772
 6969SOL     OW27641   4.650   3.029   1.018  0.6786  0.2646 -0.1357
 6969SOL    HW227642   4.604   2.999   1.096  0.5927  1.1049  0.1503
 6969SOL    HW327643   4.595   3.001   0.945 -0.0082  0.7802  0.1775
 6969SOL    MW427644   4.637   3.022   1.019  0.5766  0.4435 -0.0567
 6970SOL     OW27645   4.961   5.335   4.391 -0.5688  0.8451  0.1085
 6970SOL    HW227646   4.942   5.293   4.475  1.1748 -1.1507 -0.4386
 6970SOL    HW327647   5.016   5.410   4.414 -0.0668  0.2935  0.7579
 6970SOL    MW427648   4.965   5.340   4.405 -0.2725  0.5090  0.1220
 6971SOL     OW27649   4.461   2.018   0.531 -0.1868 -0.0908 -0.1516
 6971SOL    HW227650   4.537   2.069   0.504  0.1761 -0.9820 -0.8803
 6971SOL    HW327651   4.451   1.951   0.463 -0.8346 -0.7942  0.6052
 6971SOL    MW427652   4.469   2.016   0.518 -0.2244 -0.3012 -0.1479
 6972SOL     OW27653   4.941   2.901   4.067 -0.1807  0.3975  0.2279
 6972SOL    HW227654   5.005   2.902   3.996 -0.9217 -2.1547 -0.5698
 6972SOL    HW327655   4.982   2.954   4.136  1.0557  2.0199 -1.6304
 6972SOL    MW427656   4.955   2.909   4.067 -0.1154  0.2748 -0.1225
 6973SOL     OW27657   0.754   2.315   0.614  0.1055 -0.1077 -0.1090
 6973SOL    HW227658   0.718   2.229   0.590 -1.9665  0.8657 -0.6531
 6973SOL    HW327659   0.758   2.313   0.710 -2.6221  0.1626  0.0719
 6973SOL    MW427660   0.750   2.303   0.624 -0.5277  0.0564 -0.1569
 6974SOL     OW27661   4.845   5.291   0.144 -0.3598 -0.2268  0.5802
 6974SOL    HW227662   4.797   5.215   0.111 -0.5000  1.1149 -2.6638
 6974SOL    HW327663   4.935   5.259   0.154 -0.3941 -0.8470 -0.8370
 6974SOL    MW427664   4.851   5.277   0.141 -0.3828 -0.1316 -0.0348
 6975SOL     OW27665   4.847   3.055   1.549  0.5192 -0.2938 -0.0522
 6975SOL    HW227666   4.924   3.031   1.497 -0.0471 -1.0547 -0.5552
 6975SOL    HW327667   4.822   3.141   1.515  1.3034  0.0906  0.3071
 6975SOL    MW427668   4.854   3.063   1.538  0.5480 -0.3435 -0.0712
 6976SOL     OW27669   2.881   3.816   0.217  0.5415 -0.2863  0.0649
 6976SOL    HW227670   2.966   3.826   0.262  0.7874  1.3886 -0.6959
 6976SOL    HW327671   2.904   3.788   0.129  0.2698 -0.1961 -0.0337
 6976SOL    MW427672   2.895   3.813   0.211  0.5381 -0.0534 -0.0485
 6977SOL     OW27673   6.225   2.030   5.275 -0.0706 -0.1073 -0.1340
 6977SOL    HW227674   6.163   2.006   5.345  0.0847  1.8956  0.7454
 6977SOL    HW327675   6.247   2.121   5.293  3.1904 -0.7282 -0.3928
 6977SOL    MW427676   6.220   2.039   5.287  0.3802  0.0750 -0.0521
 6978SOL     OW27677   5.192   3.814   1.877 -0.6588  0.1849  0.5116
 6978SOL    HW227678   5.241   3.793   1.956 -0.7461 -0.0836  0.4935
 6978SOL    HW327679   5.233   3.762   1.808 -0.3876  0.6488  0.3187
 6978SOL    MW427680   5.204   3.805   1.878 -0.6345  0.2107  0.4837
 6979SOL     OW27681   5.006   4.530   3.854 -0.9011 -0.2274 -0.0161
 6979SOL    HW227682   5.033   4.536   3.763 -1.1934 -1.3915 -0.2034
 6979SOL    HW327683   5.068   4.586   3.902  0.5462 -1.1842 -0.6835
 6979SOL    MW427684   5.018   4.538   3.849 -0.7487 -0.5072 -0.1289
 6980SOL     OW27685   0.572   6.344   5.070 -0.3631  0.5699  0.4161
 6980SOL    HW227686   0.591   6.416   5.131  0.0171  0.5246  0.3481
 6980SOL    HW327687   0.646   6.284   5.079 -0.9120 -0.0599  0.8359
 6980SOL    MW427688   0.584   6.346   5.080 -0.3853  0.4809  0.4625
 6981SOL     OW27689   4.946   2.712   4.499  0.6486 -0.2899 -0.3479
 6981SOL    HW227690   4.865   2.732   4.452  0.4884 -0.1883 -0.0341
 6981SOL    HW327691   4.977   2.631   4.459  0.0328 -0.7002 -0.0244
 6981SOL    MW427692   4.939   2.704   4.488  0.5462 -0.3306 -0.2639
 6982SOL     OW27693   2.495   5.791   6.385  0.1156  0.2438  0.5390
 6982SOL    HW227694   2.560   5.808   6.316  0.3206 -1.2429  0.3365
 6982SOL    HW327695   2.535   5.722   6.439 -1.3093 -0.7638  0.3628
 6982SOL    MW427696   2.509   5.784   6.383 -0.0453 -0.0853  0.4890
 6983SOL     OW27697   4.631   0.903   2.790  0.1259  0.2675 -0.6125
 6983SOL    HW227698   4.684   0.982   2.802 -2.0844  1.5883  1.2048
 6983SOL    HW327699   4.655   0.847   2.864  0.1676  0.1225 -0.7343
 6983SOL    MW427700   4.641   0.906   2.802 -0.1602  0.4226 -0.3888
 6984SOL     OW27701   0.101   1.768   3.987 -1.4377 -0.3720  0.0739
 6984SOL    HW227702   0.092   1.710   3.911 -0.4900 -2.2167  1.3298
 6984SOL    HW327703   0.184   1.744   4.027 -0.9872  1.9077  0.6332
 6984SOL    MW427704   0.111   1.757   3.982 -1.2532 -0.3146  0.3134
 6985SOL     OW27705   1.942   1.841   4.017  0.0492 -0.4095 -0.1230
 6985SOL    HW227706   1.907   1.918   4.061 -0.3677 -0.5954 -0.1239
 6985SOL    HW327707   2.036   1.846   4.031 -0.0502 -0.3104  0.5396
 6985SOL    MW427708   1.949   1.852   4.025 -0.0189 -0.4210 -0.0357
 6986SOL     OW27709   0.021   0.070   5.965  0.0675  0.8230 -0.4016
 6986SOL    HW227710   0.006  -0.022   5.945  2.3614  0.2838  0.0771
 6986SOL    HW327711  -0.029   0.118   5.898  0.8913 -0.8112 -2.2917
 6986SOL    MW427712   0.013   0.064   5.953  0.4789  0.5362 -0.5878
 6987SOL     OW27713   2.403   5.962   2.395 -0.2961 -0.2582  0.0649
 6987SOL    HW227714   2.391   6.052   2.364 -1.4732 -0.4341 -0.0127
 6987SOL    HW327715   2.458   5.972   2.473  1.2405  0.3336 -1.0298
 6987SOL    MW427716   2.409   5.975   2.401 -0.2486 -0.2033 -0.0898
 6988SOL     OW27717   3.468   2.914   1.617  0.1205 -0.2049  0.0680
 6988SOL    HW227718   3.435   3.004   1.613 -3.7820 -1.4673 -3.6635
 6988SOL    HW327719   3.495   2.894   1.528 -1.7635 -3.4753  0.0629
 6988SOL    MW427720   3.467   2.923   1.605 -0.6429 -0.8030 -0.4250
 6989SOL     OW27721   1.427   2.098   1.070 -0.3468  0.0068  0.1054
 6989SOL    HW227722   1.341   2.130   1.098  0.1776  3.0301 -1.3552
 6989SOL    HW327723   1.488   2.135   1.133  0.1596  0.6989 -0.7671
 6989SOL    MW427724   1.423   2.107   1.082 -0.2108  0.4970 -0.2025
 6990SOL     OW27725   4.788   2.704   4.975 -0.4264 -0.1210 -0.4958
 6990SOL    HW227726   4.734   2.653   4.915 -2.9322  1.3957  0.2956
 6990SOL    HW327727   4.865   2.728   4.924 -1.0431 -1.3758 -2.1049
 6990SOL    MW427728   4.791   2.700   4.960 -0.8383 -0.0864 -0.6037
 6991SOL     OW27729   0.718   1.616   3.876 -0.4470  0.4836  0.2943
 6991SOL    HW227730   0.727   1.574   3.791  0.2652  0.9294  0.1448
 6991SOL    HW327731   0.781   1.688   3.875 -1.8794  1.7961  0.4152
 6991SOL    MW427732   0.727   1.620   3.865 -0.5420  0.7156  0.2905
 6992SOL     OW27733   1.330   0.408   5.704  0.3784 -0.3264  0.1666
 6992SOL    HW227734   1.312   0.367   5.788 -1.1143  0.3950  0.2295
 6992SOL    HW327735   1.336   0.335   5.642 -1.9232 -0.7298  0.3283
 6992SOL    MW427736   1.329   0.393   5.707 -0.1222 -0.2844  0.1962
 6993SOL     OW27737   3.481   5.270   4.063  0.3292  0.1900 -0.4852
 6993SOL    HW227738   3.509   5.188   4.104  0.0420 -0.1231 -0.8883
 6993SOL    HW327739   3.561   5.306   4.023  0.0793 -1.0773 -2.2775
 6993SOL    MW427740   3.495   5.264   4.063  0.2583 -0.0185 -0.7748
 6994SOL     OW27741   2.175   1.259   2.534 -0.3334 -0.4584  0.1670
 6994SOL    HW227742   2.210   1.189   2.589 -1.2792 -1.0470  0.0529
 6994SOL    HW327743   2.080   1.244   2.534 -0.3799 -0.2808 -1.3692
 6994SOL    MW427744   2.167   1.248   2.541 -0.4644 -0.5126 -0.0507
 6995SOL     OW27745   1.613   6.027   5.656 -0.2795  0.4828 -0.2102
 6995SOL    HW227746   1.547   6.064   5.598 -1.4263  0.4018  1.0020
 6995SOL    HW327747   1.615   5.934   5.633 -1.6069  0.2096  0.6403
 6995SOL    MW427748   1.604   6.019   5.646 -0.6059  0.4361  0.0620
 6996SOL     OW27749   2.712   4.087   2.988 -0.1991 -0.6898 -0.4603
 6996SOL    HW227750   2.753   4.173   2.981 -2.0768  0.6446  2.7972
 6996SOL    HW327751   2.622   4.101   2.958 -0.1925 -1.8891 -1.1196
 6996SOL    MW427752   2.705   4.100   2.983 -0.4460 -0.6719 -0.1175
 6997SOL     OW27753   6.381   4.056   0.401  0.4945 -0.1128  0.4875
 6997SOL    HW227754   6.424   4.073   0.317  0.3268 -0.9815  0.2124
 6997SOL    HW327755   6.446   4.006   0.452 -0.4216 -2.1498 -0.2340
 6997SOL    MW427756   6.395   4.051   0.397  0.3515 -0.4962  0.3560
 6998SOL     OW27757   3.186   4.524   4.569 -0.2322  0.2762  0.1272
 6998SOL    HW227758   3.247   4.560   4.633  0.8009 -0.5125 -0.3836
 6998SOL    HW327759   3.167   4.597   4.510  2.0321  0.0119 -1.0543
 6998SOL    MW427760   3.192   4.538   4.570  0.2029  0.1373 -0.0961
 6999SOL     OW27761   4.538   1.654   3.457 -0.0133 -0.2480  0.5088
 6999SOL    HW227762   4.553   1.729   3.516  0.8352 -2.0236  2.6824
 6999SOL    HW327763   4.626   1.620   3.440 -0.4616 -1.3632  0.4088
 6999SOL    MW427764   4.552   1.660   3.463  0.0395 -0.6294  0.7824
 7000SOL     OW27765   1.371   2.519   0.245 -0.0778 -0.3076  0.3508
 7000SOL    HW227766   1.393   2.545   0.156  0.3472  1.2712  0.8787
 7000SOL    HW327767   1.276   2.511   0.245 -0.0099 -1.3325 -0.4777
 7000SOL    MW427768   1.362   2.521   0.234 -0.0128 -0.2345  0.3111
 7001SOL     OW27769   1.172   5.143   0.776 -0.2337  0.3270  0.7902
 7001SOL    HW227770   1.164   5.212   0.710 -1.5516  0.3300  0.9146
 7001SOL    HW327771   1.128   5.180   0.853  0.1818 -0.1623  1.2626
 7001SOL    MW427772   1.165   5.157   0.778 -0.3527  0.2629  0.8690
 7002SOL     OW27773   4.889   2.414   0.793  0.1598  0.1589 -0.4485
 7002SOL    HW227774   4.795   2.408   0.804  0.3584  0.6678  1.9670
 7002SOL    HW327775   4.916   2.324   0.774 -0.9761  0.3561 -3.5627
 7002SOL    MW427776   4.880   2.401   0.792  0.0361  0.2521 -0.5407
 7003SOL     OW27777   5.414   2.659   4.277  0.2218  0.4968  0.4046
 7003SOL    HW227778   5.346   2.727   4.284  0.8602  1.0060  2.2618
 7003SOL    HW327779   5.448   2.668   4.188 -1.3037  1.0392 -0.1559
 7003SOL    MW427780   5.409   2.669   4.266  0.1048  0.6356  0.5757
 7004SOL     OW27781   0.607   5.935   2.140  0.3915  0.3556  0.0106
 7004SOL    HW227782   0.573   5.979   2.218 -1.0199 -0.3422 -0.1746
 7004SOL    HW327783   0.693   5.975   2.125  0.4457  0.8916  1.5856
 7004SOL    MW427784   0.614   5.946   2.148  0.2125  0.3343  0.1940
 7005SOL     OW27785   2.218   0.313   0.917 -0.3696 -0.5161  0.2330
 7005SOL    HW227786   2.287   0.257   0.951  1.3616  1.6901  0.6254
 7005SOL    HW327787   2.242   0.328   0.826 -0.1626  0.4258  0.4264
 7005SOL    MW427788   2.230   0.308   0.910 -0.1139 -0.1008  0.3103
 7006SOL     OW27789   3.626   2.969   0.537 -0.6628  0.5444  0.2318
 7006SOL    HW227790   3.583   3.009   0.612 -2.1803  0.1174 -0.3639
 7006SOL    HW327791   3.555   2.951   0.475  0.3793 -0.2092 -0.8084
 7006SOL    MW427792   3.611   2.972   0.538 -0.7255  0.3887  0.0160
 7007SOL     OW27793   5.060   1.916   5.641  0.3957 -0.0160  0.2878
 7007SOL    HW227794   5.028   1.943   5.555 -2.1540 -1.1305  0.8093
 7007SOL    HW327795   5.152   1.893   5.626 -0.4803 -2.2027 -2.6460
 7007SOL    MW427796   5.068   1.917   5.627 -0.0562 -0.4516 -0.0305
 7008SOL     OW27797   0.521   3.025   1.039  0.2745  0.2447 -0.3585
 7008SOL    HW227798   0.526   3.017   1.135 -0.8514  1.9941 -0.1087
 7008SOL    HW327799   0.522   2.934   1.008  0.0059 -0.3898  1.3445
 7008SOL    MW427800   0.522   3.012   1.048  0.0905  0.3918 -0.1008
 7009SOL     OW27801   3.246   2.810   2.106 -0.3423  0.2902 -0.0931
 7009SOL    HW227802   3.151   2.815   2.104 -0.2977  1.1087 -1.8059
 7009SOL    HW327803   3.266   2.721   2.077 -0.5629 -0.6422  2.3197
 7009SOL    MW427804   3.236   2.799   2.102 -0.3656  0.2752 -0.0007
 7010SOL     OW27805   0.485   4.188   2.777  0.2007  0.3476  0.2312
 7010SOL    HW227806   0.513   4.226   2.861  0.5469 -0.2579  0.3910
 7010SOL    HW327807   0.416   4.247   2.747 -1.1007 -0.3370  1.7442
 7010SOL    MW427808   0.480   4.201   2.784  0.0747  0.1774  0.4519
 7011SOL     OW27809   4.531   1.928   0.823  0.0345  0.6965 -0.3484
 7011SOL    HW227810   4.453   1.906   0.875 -0.6424  0.7690 -1.3045
 7011SOL    HW327811   4.496   1.951   0.737  1.1844 -0.3448 -1.1250
 7011SOL    MW427812   4.516   1.928   0.819  0.0969  0.5687 -0.5770
 7012SOL     OW27813   3.026   2.268   5.292 -0.0554  0.3977 -0.5079
 7012SOL    HW227814   3.019   2.350   5.340 -1.4779 -1.4083  2.6865
 7012SOL    HW327815   3.111   2.274   5.247  0.8195  2.7785  1.2502
 7012SOL    MW427816   3.037   2.280   5.292 -0.1277  0.4736  0.1455
 7013SOL     OW27817   0.206   1.582   4.722  0.2723  0.0180  0.3552
 7013SOL    HW227818   0.164   1.641   4.784 -0.1495 -0.1401  0.2257
 7013SOL    HW327819   0.297   1.575   4.752 -0.1034 -0.6494  1.4042
 7013SOL    MW427820   0.213   1.589   4.734  0.1671 -0.0909  0.4765
 7014SOL     OW27821   2.910   2.581   1.560 -0.0119 -0.1203 -0.1683
 7014SOL    HW227822   2.970   2.654   1.578  0.0713 -0.2594  0.1341
 7014SOL    HW327823   2.891   2.544   1.647 -0.2652 -0.2909 -0.2948
 7014SOL    MW427824   2.916   2.586   1.574 -0.0343 -0.1611 -0.1451
 7015SOL     OW27825   4.376   5.710   6.280  0.8039  0.4037 -0.8433
 7015SOL    HW227826   4.410   5.734   6.366  1.3141  0.0354 -0.9356
 7015SOL    HW327827   4.286   5.743   6.280  0.9496  0.8178 -0.3475
 7015SOL    MW427828   4.368   5.717   6.292  0.8904  0.4098 -0.7900
 7016SOL     OW27829   1.443   0.739   1.186  0.2354 -0.4725  0.2385
 7016SOL    HW227830   1.528   0.781   1.172 -0.5348  0.6200 -1.4837
 7016SOL    HW327831   1.417   0.768   1.274  0.8188  0.7006  0.0435
 7016SOL    MW427832   1.451   0.749   1.196  0.2108 -0.1736 -0.0144
 7017SOL     OW27833   5.051   1.313   5.221  0.0851  0.3524 -0.3268
 7017SOL    HW227834   5.129   1.295   5.273  1.3892 -1.0596 -2.5901
 7017SOL    HW327835   5.002   1.378   5.272  1.3834 -0.6806  2.4347
 7017SOL    MW427836   5.055   1.319   5.234  0.4285  0.0298 -0.2611
 7018SOL     OW27837   1.666   5.277   1.423  0.4411 -0.1049 -0.0101
 7018SOL    HW227838   1.581   5.290   1.465 -0.1323 -1.7769 -0.5834
 7018SOL    HW327839   1.656   5.317   1.336  0.4647  0.2708  0.1578
 7018SOL    MW427840   1.653   5.284   1.417  0.3685 -0.2759 -0.0636
 7019SOL     OW27841   4.565   1.055   2.508 -0.3946  0.3893 -0.1011
 7019SOL    HW227842   4.619   1.134   2.513  0.2708 -0.1150  0.9710
 7019SOL    HW327843   4.499   1.067   2.576 -2.1554  1.3223 -1.8513
 7019SOL    MW427844   4.563   1.067   2.517 -0.5391  0.4459 -0.1906
 7020SOL     OW27845   5.858   6.042   3.436 -0.1411  0.2069  0.1131
 7020SOL    HW227846   5.791   5.980   3.407  0.3988 -0.2397 -0.1994
 7020SOL    HW327847   5.939   5.991   3.437  0.2145  0.7658  0.3933
 7020SOL    MW427848   5.860   6.027   3.432 -0.0229  0.2217  0.1088
 7021SOL     OW27849   6.312   0.987   0.560  0.0291  0.1640 -0.2603
 7021SOL    HW227850   6.384   1.032   0.516 -0.0711 -0.1587 -0.7613
 7021SOL    HW327851   6.328   0.894   0.544 -0.3517  0.0758 -0.1509
 7021SOL    MW427852   6.323   0.981   0.552 -0.0344  0.1098 -0.3120
 7022SOL     OW27853   4.440   3.470   3.134  0.0482  0.3612  0.7595
 7022SOL    HW227854   4.486   3.424   3.064  0.1864  0.5714  0.7127
 7022SOL    HW327855   4.420   3.556   3.098  2.0782  1.2883  1.7154
 7022SOL    MW427856   4.443   3.475   3.120  0.3343  0.5112  0.8795
 7023SOL     OW27857   2.468   2.010   3.118 -0.1675 -0.3406 -0.8113
 7023SOL    HW227858   2.495   2.077   3.055  1.7365 -1.9270 -1.7889
 7023SOL    HW327859   2.544   1.999   3.175 -1.0173 -0.6106  0.3027
 7023SOL    MW427860   2.481   2.018   3.117 -0.0284 -0.5855 -0.7933
 7024SOL     OW27861   2.326   2.211   3.240 -0.0139  0.0567 -0.2373
 7024SOL    HW227862   2.381   2.146   3.197  1.0179  0.7375  0.0216
 7024SOL    HW327863   2.292   2.166   3.317 -4.6538 -2.3714 -3.2326
 7024SOL    MW427864   2.329   2.197   3.245 -0.4900 -0.1739 -0.5983
 7025SOL     OW27865   2.228   5.899   6.026 -0.9848  0.0781 -0.0948
 7025SOL    HW227866   2.170   5.828   6.054  0.1533 -1.5398 -1.6996
 7025SOL    HW327867   2.217   5.903   5.931 -1.0486  2.1150 -0.0438
 7025SOL    MW427868   2.219   5.890   6.017 -0.8431  0.1334 -0.2998
 7026SOL     OW27869   5.729   5.054   5.557  0.0043  0.3668  0.1840
 7026SOL    HW227870   5.681   4.972   5.542 -0.0015  0.2457  0.8476
 7026SOL    HW327871   5.715   5.105   5.477  1.0681 -0.8007 -0.7741
 7026SOL    MW427872   5.721   5.050   5.545  0.1439  0.1968  0.1452
 7027SOL     OW27873   5.560   0.609   6.405  0.6279 -0.2030  0.3407
 7027SOL    HW227874   5.625   0.539   6.411 -0.1642 -1.0565 -0.7072
 7027SOL    HW327875   5.608   0.681   6.362  1.4695 -0.0379  1.5040
 7027SOL    MW427876   5.575   0.609   6.400  0.6344 -0.2939  0.3559
 7028SOL     OW27877   2.719   1.291   6.236  0.1295  0.5283  0.5376
 7028SOL    HW227878   2.797   1.272   6.288 -0.0378  0.7356  0.8676
 7028SOL    HW327879   2.734   1.379   6.200  0.4633  0.1902 -0.1772
 7028SOL    MW427880   2.731   1.300   6.238  0.1514  0.5110  0.4868
 7029SOL     OW27881   3.492   5.134   5.225  0.1090  0.2918  0.0926
 7029SOL    HW227882   3.416   5.189   5.206  0.9117  1.0418 -1.0380
 7029SOL    HW327883   3.480   5.110   5.317 -2.7937 -1.6891 -0.6494
 7029SOL    MW427884   3.480   5.138   5.235 -0.1681  0.1294 -0.1545
 7030SOL     OW27885   0.800   0.166   2.276 -0.2853  0.0613  0.4315
 7030SOL    HW227886   0.803   0.133   2.366  0.8411  2.7579  1.4682
 7030SOL    HW327887   0.877   0.127   2.233 -0.8050 -1.1975  0.6050
 7030SOL    MW427888   0.811   0.156   2.282 -0.2053  0.2510  0.5912
 7031SOL     OW27889   1.459   0.875   5.661  0.0725 -0.1741 -0.1118
 7031SOL    HW227890   1.473   0.969   5.651 -0.3800  0.1079  1.5447
 7031SOL    HW327891   1.375   0.868   5.707  1.2641 -1.2474  2.0801
 7031SOL    MW427892   1.450   0.887   5.666  0.1700 -0.2785  0.3959
 7032SOL     OW27893   3.479   3.879   0.996 -0.1694  0.0576 -0.2834
 7032SOL    HW227894   3.439   3.912   0.916  0.7930  0.5154 -0.5876
 7032SOL    HW327895   3.548   3.942   1.016 -1.5606  1.0280  1.9377
 7032SOL    MW427896   3.483   3.892   0.988 -0.2260  0.2460 -0.0305
 7033SOL     OW27897   2.178   0.575   0.279 -0.1308  0.0876  0.2672
 7033SOL    HW227898   2.191   0.655   0.329 -0.1118 -0.2579  0.8304
 7033SOL    HW327899   2.102   0.592   0.224  0.3475  0.7615 -0.1892
 7033SOL    MW427900   2.169   0.588   0.279 -0.0652  0.1309  0.2813
 7034SOL     OW27901   6.316   0.999   1.359  0.0224  0.1214 -0.3415
 7034SOL    HW227902   6.357   0.924   1.315  0.4133  0.0639  0.1131
 7034SOL    HW327903   6.239   0.962   1.402  1.4752 -0.5190  1.8510
 7034SOL    MW427904   6.311   0.984   1.359  0.2656  0.0293  0.0077
 7035SOL     OW27905   1.393   6.177   0.231  0.0391 -0.5959  0.0170
 7035SOL    HW227906   1.472   6.179   0.177  2.0436 -0.1021  2.7627
 7035SOL    HW327907   1.330   6.229   0.182  2.8352  2.8080 -0.3958
 7035SOL    MW427908   1.395   6.185   0.217  0.6725 -0.0817  0.3248
 7036SOL     OW27909   2.193   5.876   2.220  0.2018  0.1505  0.2766
 7036SOL    HW227910   2.232   5.904   2.302 -1.6109 -1.6932  1.8824
 7036SOL    HW327911   2.151   5.955   2.185  3.0143  1.5391 -0.2163
 7036SOL    MW427912   2.192   5.890   2.226  0.3337  0.0904  0.4234
 7037SOL     OW27913   5.471   3.441   6.072 -0.1908  0.2920 -0.4989
 7037SOL    HW227914   5.427   3.375   6.019 -0.3251 -0.6849  0.7608
 7037SOL    HW327915   5.445   3.525   6.034 -2.0442 -0.3032 -0.6189
 7037SOL    MW427916   5.462   3.443   6.060 -0.4530  0.0845 -0.3485
 7038SOL     OW27917   5.152   4.369   6.136  0.4009 -0.8316  0.1224
 7038SOL    HW227918   5.070   4.416   6.128 -0.7426 -2.6450  0.6860
 7038SOL    HW327919   5.209   4.408   6.070 -0.6999  0.8290  0.1055
 7038SOL    MW427920   5.149   4.380   6.126  0.1048 -0.8517  0.1946
 7039SOL     OW27921   5.510   1.589   3.662  0.0831 -0.4622 -0.3218
 7039SOL    HW227922   5.562   1.534   3.721 -0.7918 -0.3322  0.5843
 7039SOL    HW327923   5.509   1.675   3.705 -1.4364 -0.6305  0.0331
 7039SOL    MW427924   5.517   1.593   3.676 -0.2328 -0.4673 -0.1554
 7040SOL     OW27925   5.043   2.411   1.026  0.1200 -0.7594  0.2284
 7040SOL    HW227926   5.101   2.336   1.037  0.0814 -0.8107  0.0776
 7040SOL    HW327927   5.007   2.401   0.938 -0.9355 -1.2986  0.7100
 7040SOL    MW427928   5.046   2.400   1.016 -0.0244 -0.8373  0.2720
 7041SOL     OW27929   3.640   1.781   4.099  0.2218  0.1898 -0.0085
 7041SOL    HW227930   3.632   1.720   4.172 -0.5531  0.6613  0.3163
 7041SOL    HW327931   3.603   1.863   4.132  0.2098  0.5175 -0.8046
 7041SOL    MW427932   3.634   1.784   4.113  0.1180  0.2952 -0.0707
 7042SOL     OW27933   0.564   4.457   1.050 -0.8187 -0.4374  0.0876
 7042SOL    HW227934   0.571   4.529   1.113 -2.6912 -1.0149  1.0417
 7042SOL    HW327935   0.598   4.494   0.968 -2.2639  1.8013  0.3929
 7042SOL    MW427936   0.569   4.472   1.047 -1.2564 -0.2183  0.2538
 7043SOL     OW27937   1.524   0.326   2.470 -0.1048 -0.1235 -0.0486
 7043SOL    HW227938   1.584   0.323   2.545  0.5613  0.9531 -0.5175
 7043SOL    HW327939   1.475   0.407   2.481  0.2650  0.2401 -0.9570
 7043SOL    MW427940   1.526   0.336   2.481  0.0319  0.0666 -0.2303
 7044SOL     OW27941   3.742   3.137   3.881 -0.5358 -0.2311  0.5155
 7044SOL    HW227942   3.682   3.108   3.951 -0.2940  2.0311  1.7360
 7044SOL    HW327943   3.703   3.217   3.847  0.4122 -0.2031 -0.5818
 7044SOL    MW427944   3.729   3.144   3.886 -0.3788  0.0711  0.5317
 7045SOL     OW27945   1.950   3.725   3.756 -0.5457 -0.1387 -0.1893
 7045SOL    HW227946   1.998   3.803   3.783  0.7309 -0.0227 -2.6166
 7045SOL    HW327947   1.858   3.749   3.766 -0.1702  0.8515  1.1978
 7045SOL    MW427948   1.944   3.738   3.761 -0.3277  0.0072 -0.3265
 7046SOL     OW27949   4.336   1.901   1.053 -0.0133 -0.1762  0.3698
 7046SOL    HW227950   4.333   1.996   1.039  1.3718 -0.3984 -1.8041
 7046SOL    HW327951   4.244   1.874   1.053 -0.4264  1.1291  0.9637
 7046SOL    MW427952   4.323   1.910   1.051  0.1150 -0.0333  0.1614
 7047SOL     OW27953   1.784   1.797   3.517 -0.5534  0.6827  0.1456
 7047SOL    HW227954   1.855   1.846   3.477 -0.1886  0.2263  0.2269
 7047SOL    HW327955   1.784   1.823   3.609 -0.7573  0.9932  0.0573
 7047SOL    MW427956   1.793   1.807   3.524 -0.5322  0.6635  0.1446
 7048SOL     OW27957   1.248   0.721   5.792 -0.0007 -0.1413 -0.4318
 7048SOL    HW227958   1.232   0.676   5.709 -1.1995  1.1898 -0.9700
 7048SOL    HW327959   1.170   0.775   5.805 -0.1978 -0.8852  1.9585
 7048SOL    MW427960   1.235   0.722   5.783 -0.1849 -0.0639 -0.1874
 7049SOL     OW27961   2.901   1.470   4.263  0.5340  0.5211  0.3461
 7049SOL    HW227962   2.828   1.409   4.278  0.6930  0.1986 -0.1874
 7049SOL    HW327963   2.905   1.479   4.168  0.4029  1.5027  0.4231
 7049SOL    MW427964   2.892   1.463   4.252  0.5377  0.6080  0.2859
 7050SOL     OW27965   3.614   2.771   2.039  0.4530 -0.0792  0.9087
 7050SOL    HW227966   3.704   2.756   2.067  0.1835 -1.1487  1.2686
 7050SOL    HW327967   3.568   2.690   2.062 -0.3289 -0.0396 -0.3856
 7050SOL    MW427968   3.620   2.758   2.046  0.3143 -0.2151  0.7854
 7051SOL     OW27969   2.153   0.156   1.842 -0.4803  0.0688  0.0343
 7051SOL    HW227970   2.072   0.201   1.868 -0.3118  1.5292 -1.7155
 7051SOL    HW327971   2.222   0.202   1.889 -0.4744  0.3329 -0.2328
 7051SOL    MW427972   2.151   0.168   1.852 -0.4573  0.2964 -0.2318
 7052SOL     OW27973   1.384   1.762   0.283  0.2009  0.1956 -0.0754
 7052SOL    HW227974   1.433   1.794   0.208 -0.0731  2.2300  0.5578
 7052SOL    HW327975   1.313   1.709   0.245 -0.1370  1.4600 -1.2791
 7052SOL    MW427976   1.381   1.759   0.268  0.1202  0.6308 -0.1507
 7053SOL     OW27977   2.904   5.572   5.441  0.0582 -0.2015  0.1685
 7053SOL    HW227978   2.868   5.550   5.356  1.0481 -0.2357 -0.2588
 7053SOL    HW327979   2.965   5.500   5.461 -0.7092 -0.5880  1.2571
 7053SOL    MW427980   2.907   5.559   5.433  0.0875 -0.2570  0.2557
 7054SOL     OW27981   0.673   1.431   4.553 -0.3531  0.0406  0.2936
 7054SOL    HW227982   0.621   1.511   4.567 -0.3733  0.2205 -0.7526
 7054SOL    HW327983   0.614   1.371   4.508  0.3901  0.3364 -1.1331
 7054SOL    MW427984   0.658   1.434   4.549 -0.2577  0.1034 -0.0327
 7055SOL     OW27985   2.533   2.469   4.820 -0.3477  0.5252  0.0052
 7055SOL    HW227986   2.530   2.497   4.911  1.8776  0.9253  0.0165
 7055SOL    HW327987   2.485   2.387   4.818 -0.3080  0.4326  1.5636
 7055SOL    MW427988   2.526   2.462   4.832 -0.0488  0.5658  0.2123
 7056SOL     OW27989   0.373   4.969   0.709  0.5345  0.9119  0.7417
 7056SOL    HW227990   0.343   4.921   0.632 -0.2137 -0.1689  1.6802
 7056SOL    HW327991   0.413   5.049   0.673 -0.2777  0.6989 -0.7250
 7056SOL    MW427992   0.375   4.974   0.694  0.3286  0.7412  0.6720
 7057SOL     OW27993   0.748   2.061   3.598 -0.1355 -0.6076 -0.0058
 7057SOL    HW227994   0.813   2.132   3.606  2.1862 -2.6840  1.2173
 7057SOL    HW327995   0.669   2.104   3.567  0.3703  2.9767  2.9718
 7057SOL    MW427996   0.746   2.076   3.595  0.2376 -0.4086  0.5484
 7058SOL     OW27997   2.921   3.698   0.954  0.8240 -0.1886  0.3994
 7058SOL    HW227998   3.004   3.706   0.907  0.6746 -1.0501 -0.0388
 7058SOL    HW327999   2.942   3.722   1.044  1.2071  1.0655 -0.0042
 7058SOL    MW428000   2.935   3.702   0.960  0.8549 -0.1368  0.2884
 7059SOL     OW28001   0.320   5.045   5.592 -0.7040 -0.1300 -0.6711
 7059SOL    HW228002   0.274   4.967   5.560  0.8208 -1.6955  0.6944
 7059SOL    HW328003   0.288   5.057   5.682 -0.1414  0.1443 -0.5019
 7059SOL    MW428004   0.310   5.036   5.600 -0.4286 -0.3004 -0.4686
 7060SOL     OW28005   4.670   3.525   0.858 -0.1605 -0.4457 -0.4710
 7060SOL    HW228006   4.603   3.586   0.828 -0.4687 -0.1524  0.7349
 7060SOL    HW328007   4.636   3.491   0.941  1.0646 -0.4448  0.0662
 7060SOL    MW428008   4.657   3.529   0.865 -0.0395 -0.4069 -0.2410
 7061SOL     OW28009   5.234   1.925   2.390 -0.1254  0.7148 -0.0811
 7061SOL    HW228010   5.299   1.943   2.322 -1.6581 -1.6471 -2.3761
 7061SOL    HW328011   5.162   1.985   2.370 -0.2569  0.5675 -0.0445
 7061SOL    MW428012   5.233   1.935   2.378 -0.3450  0.3837 -0.3791
 7062SOL     OW28013   4.085   1.723   5.895  0.0806 -0.3463 -0.1247
 7062SOL    HW228014   4.172   1.706   5.860  0.5302  1.0232  0.2583
 7062SOL    HW328015   4.091   1.697   5.987  0.6151  1.2608  0.3298
 7062SOL    MW428016   4.097   1.717   5.903  0.2104  0.0464 -0.0142
 7063SOL     OW28017   6.346   2.122   3.422  0.0329  0.4054  0.0728
 7063SOL    HW228018   6.418   2.176   3.452 -0.5496  0.0224  2.3459
 7063SOL    HW328019   6.277   2.184   3.400  0.0151  0.6900  0.8809
 7063SOL    MW428020   6.346   2.137   3.423 -0.0463  0.3924  0.4793
 7064SOL     OW28021   1.642   5.861   5.992 -0.1152  0.2119 -0.0552
 7064SOL    HW228022   1.638   5.956   5.985 -0.1632  0.2505  0.4661
 7064SOL    HW328023   1.556   5.831   5.961 -0.1047  0.3412 -0.2066
 7064SOL    MW428024   1.630   5.869   5.987 -0.1202  0.2341 -0.0064
 7065SOL     OW28025   4.030   3.720   0.635 -0.2296 -0.5484  0.1183
 7065SOL    HW228026   4.086   3.732   0.712 -0.5853  0.6286  0.2174
 7065SOL    HW328027   4.036   3.803   0.588 -1.3212 -0.6624 -0.2500
 7065SOL    MW428028   4.039   3.733   0.639 -0.4205 -0.4082  0.0828
 7066SOL     OW28029   4.958   2.169   3.407  0.1463 -0.1823  0.6909
 7066SOL    HW228030   5.054   2.163   3.406  0.2852  1.3806 -1.6591
 7066SOL    HW328031   4.929   2.079   3.396  1.4680 -0.3744 -2.1166
 7066SOL    MW428032   4.967   2.156   3.406  0.3390 -0.0014  0.0105
 7067SOL     OW28033   5.901   2.868   4.212  0.1819 -0.0961 -0.0977
 7067SOL    HW228034   5.928   2.874   4.304 -0.6813  0.6246  0.1213
 7067SOL    HW328035   5.856   2.784   4.206 -0.7660  0.3569  0.4289
 7067SOL    MW428036   5.899   2.858   4.223 -0.0571  0.0587  0.0007
 7068SOL     OW28037   1.748   1.144   4.497  0.3304 -0.0902  0.6810
 7068SOL    HW228038   1.747   1.167   4.404 -1.1838  0.9205  0.9098
 7068SOL    HW328039   1.695   1.065   4.503 -0.6955  0.5872  0.8261
 7068SOL    MW428040   1.741   1.137   4.485 -0.0047  0.1325  0.7304
 7069SOL     OW28041   3.107   2.923   6.225  0.0477  0.0812  0.4483
 7069SOL    HW228042   3.067   3.010   6.222 -1.3015 -0.5067  0.5623
 7069SOL    HW328043   3.065   2.879   6.299 -0.2502 -1.1081 -0.3924
 7069SOL    MW428044   3.096   2.929   6.234 -0.1697 -0.1533  0.3524
 7070SOL     OW28045   3.596   5.740   4.325  0.0870  0.7269 -0.0379
 7070SOL    HW228046   3.536   5.813   4.342 -1.4654 -0.3325 -0.7705
 7070SOL    HW328047   3.543   5.676   4.277  1.6832 -0.4691 -0.2795
 7070SOL    MW428048   3.581   5.741   4.321  0.0928  0.4293 -0.1664
 7071SOL     OW28049   5.409   6.082   6.027  0.1571 -0.1774  0.4416
 7071SOL    HW228050   5.465   6.086   6.104 -1.7888  1.5753  1.8921
 7071SOL    HW328051   5.468   6.096   5.953  1.5603  2.7522  1.9406
 7071SOL    MW428052   5.424   6.084   6.028  0.0855  0.4404  0.8307
 7072SOL     OW28053   4.291   2.432   5.414  0.4714  0.0776 -0.1000
 7072SOL    HW228054   4.198   2.408   5.412  0.4954 -0.3455  1.6940
 7072SOL    HW328055   4.293   2.524   5.388 -0.6135  0.4309  0.9845
 7072SOL    MW428056   4.279   2.441   5.410  0.3314  0.0684  0.2798
 7073SOL     OW28057   2.492   5.494   4.832  0.1593 -0.6130 -0.4822
 7073SOL    HW228058   2.562   5.433   4.810  0.2530 -0.9013  0.5731
 7073SOL    HW328059   2.426   5.481   4.765 -0.1717 -2.4430  0.1477
 7073SOL    MW428060   2.493   5.485   4.821  0.1280 -0.8925 -0.2599
 7074SOL     OW28061   1.520   1.537   4.761 -0.1020  0.2210  0.3252
 7074SOL    HW228062   1.583   1.472   4.730  0.7056  0.4348  1.4512
 7074SOL    HW328063   1.573   1.613   4.784 -0.7043  0.2621  1.6649
 7074SOL    MW428064   1.535   1.538   4.760 -0.0749  0.2546  0.6505
 7075SOL     OW28065   1.839   0.967   0.706 -0.1710 -0.1737 -0.4374
 7075SOL    HW228066   1.814   1.044   0.655 -1.0744 -1.0728 -1.3990
 7075SOL    HW328067   1.911   0.997   0.762 -0.3052  1.2745 -1.0092
 7075SOL    MW428068   1.845   0.981   0.707 -0.3079 -0.1013 -0.6397
 7076SOL     OW28069   1.429   5.333   5.259  0.6119 -0.5113 -0.0827
 7076SOL    HW228070   1.351   5.346   5.206  0.7587  0.3930 -0.0872
 7076SOL    HW328071   1.494   5.298   5.198  0.1554 -1.4667 -0.0322
 7076SOL    MW428072   1.427   5.330   5.244  0.5710 -0.5181 -0.0767
 7077SOL     OW28073   1.624   4.368   2.568  0.1716 -0.1393  0.3313
 7077SOL    HW228074   1.537   4.333   2.545 -0.8348  1.7546  1.0541
 7077SOL    HW328075   1.610   4.414   2.650  1.6202  1.1580 -0.1150
 7077SOL    MW428076   1.611   4.369   2.576  0.2299  0.2818  0.3678
 7078SOL     OW28077   2.038   6.322   5.073 -0.2582  0.1441  0.0543
 7078SOL    HW228078   2.001   6.295   4.989  0.1059 -1.9765  0.5169
 7078SOL    HW328079   1.966   6.367   5.118 -0.3404  1.6690 -1.5073
 7078SOL    MW428080   2.024   6.325   5.068 -0.2210  0.0655 -0.0907
 7079SOL     OW28081   5.701   5.548   5.348 -0.5481 -0.0226 -0.0914
 7079SOL    HW228082   5.769   5.574   5.286 -0.0522 -0.0074  0.4468
 7079SOL    HW328083   5.743   5.558   5.434 -1.4000  0.5143  0.2770
 7079SOL    MW428084   5.716   5.553   5.352 -0.5951  0.0503  0.0282
 7080SOL     OW28085   4.671   4.223   3.542  0.7091  0.1635  0.3689
 7080SOL    HW228086   4.679   4.127   3.546  2.0877  0.2767  0.8557
 7080SOL    HW328087   4.577   4.239   3.536  0.3173 -1.1735  2.1138
 7080SOL    MW428088   4.660   4.212   3.542  0.8393  0.0020  0.6633
 7081SOL     OW28089   2.777   1.083   3.722 -0.4566 -0.4733  0.3701
 7081SOL    HW228090   2.797   1.114   3.634  3.3128 -1.5147  0.6864
 7081SOL    HW328091   2.805   0.992   3.723  0.7854 -0.1683  2.9142
 7081SOL    MW428092   2.784   1.075   3.711  0.2046 -0.5704  0.7475
 7082SOL     OW28093   6.157   4.257   3.766 -0.3959 -0.5031 -0.1576
 7082SOL    HW228094   6.139   4.202   3.690 -0.7301  1.9560 -1.9905
 7082SOL    HW328095   6.222   4.320   3.735 -0.9186  0.8915  1.4007
 7082SOL    MW428096   6.163   4.258   3.751 -0.5090  0.0053 -0.1938
 7083SOL     OW28097   0.703   2.147   4.801 -0.2762  0.1840  0.2057
 7083SOL    HW228098   0.639   2.204   4.759 -0.0817 -0.2804 -0.7450
 7083SOL    HW328099   0.740   2.201   4.871 -0.5961  0.9829 -0.2228
 7083SOL    MW428100   0.700   2.162   4.805 -0.2927  0.2281  0.0238
 7084SOL     OW28101   5.852   3.988   2.240  0.1502 -0.0920  0.2400
 7084SOL    HW228102   5.830   4.015   2.329  0.7852 -1.3428  0.7957
 7084SOL    HW328103   5.768   3.988   2.194 -0.0894  1.2167  0.6381
 7084SOL    MW428104   5.838   3.992   2.245  0.2024 -0.0844  0.3658
 7085SOL     OW28105   4.488   0.366   4.141  0.1098 -0.1638 -0.3728
 7085SOL    HW228106   4.396   0.386   4.128  0.0976 -0.0398 -0.1116
 7085SOL    HW328107   4.490   0.311   4.220  0.2953  0.1704 -0.1410
 7085SOL    MW428108   4.476   0.361   4.150  0.1326 -0.1034 -0.3078
 7086SOL     OW28109   1.523   6.174   4.576  0.1645  0.0755  0.4265
 7086SOL    HW228110   1.581   6.232   4.624  1.6080 -1.3331  0.4833
 7086SOL    HW328111   1.448   6.161   4.634  1.2880 -0.5754  1.7832
 7086SOL    MW428112   1.520   6.180   4.590  0.5032 -0.1962  0.6130
 7087SOL     OW28113   0.583   2.402   1.093 -0.5774 -0.5707 -0.1781
 7087SOL    HW228114   0.488   2.404   1.094 -0.5693  1.1798  0.0533
 7087SOL    HW328115   0.609   2.401   1.185 -0.3560 -1.5819 -0.2382
 7087SOL    MW428116   0.574   2.402   1.105 -0.5471 -0.4732 -0.1555
 7088SOL     OW28117   4.278   4.934   2.910  0.2046 -0.6883 -0.1217
 7088SOL    HW228118   4.219   4.860   2.895 -0.2175 -0.3331 -0.2328
 7088SOL    HW328119   4.257   4.996   2.841 -1.1160  0.5766  1.3415
 7088SOL    MW428120   4.268   4.932   2.899 -0.0253 -0.4745  0.0567
 7089SOL     OW28121   5.519   3.444   3.904 -0.1924  0.1106  0.1579
 7089SOL    HW228122   5.597   3.391   3.919 -0.2943 -0.0155  0.2381
 7089SOL    HW328123   5.485   3.461   3.992  0.2541  0.9289  0.1876
 7089SOL    MW428124   5.525   3.440   3.917 -0.1469  0.2019  0.1724
 7090SOL     OW28125   1.960   3.634   1.037 -0.5984 -0.3040 -0.2531
 7090SOL    HW228126   1.980   3.590   1.120  0.0560  2.4293  1.1471
 7090SOL    HW328127   1.889   3.694   1.059 -0.8409  0.0071 -1.8335
 7090SOL    MW428128   1.954   3.636   1.051 -0.5441  0.0977 -0.2769
 7091SOL     OW28129   3.575   4.980   3.184  0.2202  0.4762 -0.2746
 7091SOL    HW228130   3.528   4.911   3.138 -1.5350  1.3041  0.1884
 7091SOL    HW328131   3.509   5.047   3.200  0.9273  0.5729  2.7692
 7091SOL    MW428132   3.560   4.980   3.180  0.0819  0.5982  0.1881
 7092SOL     OW28133   0.644   2.073   2.141  0.6045  0.1788  0.3256
 7092SOL    HW228134   0.693   2.101   2.064  0.5658 -1.8692 -0.4935
 7092SOL    HW328135   0.650   2.147   2.201  1.9147  1.2354 -1.0385
 7092SOL    MW428136   0.651   2.087   2.139  0.7722  0.0480  0.0375
 7093SOL     OW28137   2.452   3.839   0.325 -0.7869 -0.8812 -0.1222
 7093SOL    HW228138   2.416   3.903   0.264  0.6935 -2.7691 -3.2461
 7093SOL    HW328139   2.496   3.892   0.392 -1.3675  1.3664 -1.4083
 7093SOL    MW428140   2.453   3.855   0.326 -0.6682 -0.8337 -0.7040
 7094SOL     OW28141   2.288   4.674   2.155 -0.0357 -0.2284 -0.0666
 7094SOL    HW228142   2.348   4.631   2.094  0.5132  1.2567 -0.6181
 7094SOL    HW328143   2.203   4.633   2.137  0.1460  0.0180 -1.6916
 7094SOL    MW428144   2.285   4.663   2.144  0.0607  0.0000 -0.3537
 7095SOL     OW28145   5.388   1.281   3.511  0.4142  0.4116 -0.5317
 7095SOL    HW228146   5.417   1.189   3.514 -1.0329 -0.0378  1.3642
 7095SOL    HW328147   5.339   1.288   3.429 -0.4890 -0.8537 -0.1214
 7095SOL    MW428148   5.386   1.270   3.501  0.1041  0.1854 -0.2274
 7096SOL     OW28149   1.373   2.859   6.129 -0.0728 -0.2470 -0.2823
 7096SOL    HW228150   1.279   2.860   6.151  0.0874 -1.8984  0.7103
 7096SOL    HW328151   1.383   2.925   6.061 -1.8325  0.4670  0.0970
 7096SOL    MW428152   1.362   2.868   6.123 -0.2839 -0.3707 -0.1013
 7097SOL     OW28153   4.671   3.999   6.411 -0.4552  0.1461 -0.0417
 7097SOL    HW228154   4.755   3.954   6.404 -0.5129  0.0441 -0.0838
 7097SOL    HW328155   4.651   3.999   6.505 -0.9370 -0.8081 -0.1261
 7097SOL    MW428156   4.680   3.993   6.422 -0.5264  0.0067 -0.0584
 7098SOL     OW28157   5.873   4.679   4.525 -0.1195 -0.0734 -0.5021
 7098SOL    HW228158   5.818   4.748   4.488  1.5897  1.4528 -0.3595
 7098SOL    HW328159   5.962   4.700   4.494  0.9535 -0.3426  2.1159
 7098SOL    MW428160   5.878   4.691   4.516  0.2476  0.0925 -0.1379
 7099SOL     OW28161   4.147   3.729   0.887  0.7324 -0.1983  0.2563
 7099SOL    HW228162   4.074   3.757   0.941  0.0847  2.0575 -1.6330
 7099SOL    HW328163   4.225   3.762   0.933  0.2863  0.6152  0.4429
 7099SOL    MW428164   4.148   3.737   0.901  0.5881  0.2067  0.0316
 7100SOL     OW28165   4.779   4.470   1.746 -0.2423  0.0451  0.5924
 7100SOL    HW228166   4.695   4.426   1.761 -0.3138 -0.2916 -0.6771
 7100SOL    HW328167   4.788   4.530   1.819 -0.9005 -0.9576  1.5255
 7100SOL    MW428168   4.769   4.472   1.757 -0.3386 -0.1316  0.5481
 7101SOL     OW28169   4.928   4.299   2.991  0.2166 -0.1071 -0.2120
 7101SOL    HW228170   4.993   4.244   2.947  0.4493  0.1385 -0.1804
 7101SOL    HW328171   4.929   4.268   3.082  0.2649 -0.1313 -0.2205
 7101SOL    MW428172   4.937   4.288   2.998  0.2536 -0.0779 -0.2090
 7102SOL     OW28173   3.391   6.083   5.618 -0.0598  0.1027 -0.1177
 7102SOL    HW228174   3.362   6.019   5.553  1.4005 -0.0770 -0.6304
 7102SOL    HW328175   3.487   6.084   5.610 -0.0082  1.9414  0.2666
 7102SOL    MW428176   3.400   6.075   5.608  0.1397  0.3216 -0.1346
 7103SOL     OW28177   2.689   0.805   1.574  0.2396 -1.1145 -0.2033
 7103SOL    HW228178   2.766   0.792   1.518  0.5434  0.3979 -0.1774
 7103SOL    HW328179   2.651   0.887   1.544 -0.7833 -1.3152  0.4784
 7103SOL    MW428180   2.694   0.814   1.563  0.1447 -0.9414 -0.1099
 7104SOL     OW28181   4.261   0.169   2.866 -0.4588  0.0890  0.0135
 7104SOL    HW228182   4.329   0.173   2.799  1.1146 -0.0644  1.5304
 7104SOL    HW328183   4.180   0.184   2.818  0.3026 -2.5126 -2.3306
 7104SOL    MW428184   4.260   0.172   2.851 -0.1507 -0.2745 -0.0956
 7105SOL     OW28185   3.956   3.066   4.114  0.0060 -0.0693 -0.4499
 7105SOL    HW228186   3.905   3.095   4.190 -1.8762 -3.5561 -0.2089
 7105SOL    HW328187   3.918   3.115   4.041 -0.9610  0.3110  0.2770
 7105SOL    MW428188   3.945   3.077   4.114 -0.3699 -0.4792 -0.3222
 7106SOL     OW28189   0.374   0.968   3.011 -0.0380 -0.4272 -0.0467
 7106SOL    HW228190   0.279   0.961   3.022 -0.5875  3.2653 -0.8933
 7106SOL    HW328191   0.391   0.930   2.924 -1.0776  0.4687 -0.6687
 7106SOL    MW428192   0.364   0.962   3.001 -0.2476  0.1782 -0.2405
 7107SOL     OW28193   4.799   1.089   5.026 -0.4455 -0.1057 -0.4528
 7107SOL    HW228194   4.861   1.067   5.096 -0.3069  0.1905 -0.4840
 7107SOL    HW328195   4.854   1.118   4.954 -0.6840  3.4013  0.5826
 7107SOL    MW428196   4.815   1.090   5.026 -0.4586  0.3961 -0.3203
 7108SOL     OW28197   4.436   4.510   5.001 -0.9589 -0.5366 -0.2041
 7108SOL    HW228198   4.497   4.537   5.070 -0.2336 -1.4947 -0.4484
 7108SOL    HW328199   4.434   4.584   4.940 -0.5867 -0.2151  0.1664
 7108SOL    MW428200   4.444   4.523   5.002 -0.8141 -0.6206 -0.1874
 7109SOL     OW28201   4.909   4.627   0.776  0.2505  0.2598  0.4499
 7109SOL    HW228202   4.842   4.630   0.708  0.8420 -2.8267 -0.4256
 7109SOL    HW328203   4.979   4.685   0.744  0.9651 -1.8896 -2.2140
 7109SOL    MW428204   4.910   4.635   0.763  0.4228 -0.4310 -0.0171
 7110SOL     OW28205   2.732   0.239   1.245  0.2480  0.4844 -0.2744
 7110SOL    HW228206   2.729   0.302   1.173 -0.0498  0.0003 -0.6931
 7110SOL    HW328207   2.774   0.162   1.207 -1.2865 -0.3411 -0.3951
 7110SOL    MW428208   2.737   0.237   1.230  0.0062  0.3116 -0.3456
 7111SOL     OW28209   3.122   0.975   5.260 -0.1096 -0.2850 -0.4879
 7111SOL    HW228210   3.102   0.882   5.251  2.0359 -0.7223 -1.2442
 7111SOL    HW328211   3.216   0.978   5.278 -0.1882  1.7339 -0.1566
 7111SOL    MW428212   3.132   0.963   5.261  0.1631 -0.0763 -0.5440
 7112SOL     OW28213   1.983   4.818   1.823 -0.6485  0.0725  0.4882
 7112SOL    HW228214   2.057   4.873   1.798 -0.2826  0.6067  2.5574
 7112SOL    HW328215   1.943   4.792   1.739 -1.3063  4.0766 -0.6728
 7112SOL    MW428216   1.987   4.822   1.808 -0.6870  0.6712  0.6081
 7113SOL     OW28217   1.972   1.470   1.479 -0.2796  0.0607  0.1962
 7113SOL    HW228218   1.924   1.493   1.559  0.1591  0.3771  0.3712
 7113SOL    HW328219   2.047   1.529   1.479  2.0344 -2.6660  1.7022
 7113SOL    MW428220   1.975   1.481   1.490  0.0836 -0.2573  0.4180
 7114SOL     OW28221   3.355   3.311   5.505 -0.1088 -1.1764  0.1581
 7114SOL    HW228222   3.325   3.384   5.449 -1.4861 -1.0959  0.9580
 7114SOL    HW328223   3.276   3.258   5.518 -0.0584 -0.7292  2.7067
 7114SOL    MW428224   3.340   3.314   5.499 -0.2839 -1.1068  0.5999
 7115SOL     OW28225   0.256   5.620   0.624 -0.4013 -0.6262 -0.0832
 7115SOL    HW228226   0.240   5.598   0.532  0.6736 -0.6655 -0.2779
 7115SOL    HW328227   0.242   5.714   0.629 -0.3753 -0.6092 -0.3105
 7115SOL    MW428228   0.252   5.629   0.613 -0.2560 -0.6291 -0.1389
 7116SOL     OW28229   1.496   0.156   5.869  0.2382  0.1838  1.1047
 7116SOL    HW228230   1.555   0.141   5.942  0.1823  0.1833  1.1495
 7116SOL    HW328231   1.412   0.177   5.909 -0.6245 -2.7669  1.1175
 7116SOL    MW428232   1.493   0.157   5.884  0.1170 -0.2055  1.1123
 7117SOL     OW28233   1.661   0.166   3.628 -0.0559  0.6448 -0.4423
 7117SOL    HW228234   1.619   0.245   3.663  0.0223 -0.4138  2.2319
 7117SOL    HW328235   1.590   0.117   3.587 -0.1275  1.9767 -2.0299
 7117SOL    MW428236   1.646   0.170   3.627 -0.0550  0.6808 -0.2989
 7118SOL     OW28237   0.465   0.196   0.591  0.2868  0.2643  0.0868
 7118SOL    HW228238   0.390   0.207   0.650  0.5058  0.9781  0.2463
 7118SOL    HW328239   0.471   0.279   0.544  0.3476 -0.1673 -0.6777
 7118SOL    MW428240   0.456   0.208   0.593  0.3237  0.3015  0.0070
 7119SOL     OW28241   2.887   0.349   0.251  0.4980  0.7638 -0.1959
 7119SOL    HW228242   2.902   0.296   0.329  2.4262  0.5954 -0.6358
 7119SOL    HW328243   2.862   0.287   0.183  0.6998  0.6771 -0.1900
 7119SOL    MW428244   2.885   0.334   0.252  0.7790  0.7302 -0.2532
 7120SOL     OW28245   0.444   2.662   6.258  0.1693 -0.0968  0.2255
 7120SOL    HW228246   0.361   2.704   6.282  1.1191  0.8586  2.0559
 7120SOL    HW328247   0.448   2.584   6.314  0.2858 -0.4046 -0.2094
 7120SOL    MW428248   0.433   2.657   6.268  0.3100 -0.0114  0.4096
 7121SOL     OW28249   3.884   0.185   1.815 -0.2698  0.3213  0.1439
 7121SOL    HW228250   3.893   0.090   1.811 -1.0395  0.0719  2.5382
 7121SOL    HW328251   3.810   0.200   1.875 -0.7577  2.4281 -0.8784
 7121SOL    MW428252   3.875   0.175   1.822 -0.4357  0.5664  0.3249
 7122SOL     OW28253   6.046   0.106   4.083 -1.0746  0.0041  1.1725
 7122SOL    HW228254   6.056   0.018   4.047 -0.2797  0.4647  0.2614
 7122SOL    HW328255   6.126   0.121   4.133 -0.3397  0.9327 -0.2429
 7122SOL    MW428256   6.058   0.096   4.085 -0.8728  0.1873  0.8655
 7123SOL     OW28257   2.811   4.091   0.324 -0.3754  0.0914 -0.0660
 7123SOL    HW228258   2.762   4.161   0.281  0.4171  0.6807 -0.0427
 7123SOL    HW328259   2.753   4.015   0.320 -0.6841  0.3678 -1.3868
 7123SOL    MW428260   2.797   4.090   0.318 -0.3115  0.2056 -0.2372
 7124SOL     OW28261   2.629   3.450   0.622 -0.6346  0.0825 -0.3625
 7124SOL    HW228262   2.608   3.362   0.591 -0.4888  0.5160 -1.7385
 7124SOL    HW328263   2.582   3.508   0.562  0.5191  0.9688 -0.4430
 7124SOL    MW428264   2.620   3.446   0.610 -0.4631  0.2566 -0.5547
 7125SOL     OW28265   1.146   3.911   0.342 -0.7543 -0.3013  0.0532
 7125SOL    HW228266   1.090   3.956   0.279  0.6472 -0.0447 -1.0591
 7125SOL    HW328267   1.218   3.875   0.289 -0.7188 -2.0292  1.2082
 7125SOL    MW428268   1.148   3.912   0.327 -0.5647 -0.4954  0.0589
 7126SOL     OW28269   2.408   1.495   5.196  0.3865 -0.0823 -0.5638
 7126SOL    HW228270   2.321   1.535   5.188  0.8868  0.8807 -1.4250
 7126SOL    HW328271   2.424   1.491   5.290  0.2006  1.5376 -0.4391
 7126SOL    MW428272   2.399   1.500   5.207  0.4280  0.2585 -0.6610
 7127SOL     OW28273   3.913   5.893   5.725 -0.0858 -0.8125 -0.1173
 7127SOL    HW228274   3.849   5.962   5.712  0.5948 -0.1227  0.0974
 7127SOL    HW328275   3.928   5.891   5.820  0.2258 -0.9452 -0.1664
 7127SOL    MW428276   3.907   5.902   5.736  0.0451 -0.7390 -0.0955
 7128SOL     OW28277   0.359   1.592   4.016 -0.8684  0.0394  0.4823
 7128SOL    HW228278   0.282   1.535   4.026  0.3345 -1.9454 -0.8107
 7128SOL    HW328279   0.408   1.579   4.097 -0.0575 -1.7341 -0.2357
 7128SOL    MW428280   0.355   1.583   4.028 -0.6027 -0.4565  0.2169
 7129SOL     OW28281   4.982   1.510   4.701  0.0714 -0.3523 -0.8248
 7129SOL    HW228282   5.045   1.439   4.690 -1.0701 -1.5027 -0.2376
 7129SOL    HW328283   4.991   1.537   4.792  0.7011  0.4713 -1.1210
 7129SOL    MW428284   4.991   1.504   4.712  0.0039 -0.3954 -0.7864
 7130SOL     OW28285   2.984   2.248   2.183 -0.4245 -0.6885 -0.8691
 7130SOL    HW228286   3.047   2.223   2.250 -1.1721  1.0264  0.5746
 7130SOL    HW328287   2.922   2.175   2.178 -0.5577 -0.6918  0.5976
 7130SOL    MW428288   2.984   2.235   2.191 -0.5407 -0.4626 -0.4851
 7131SOL     OW28289   5.848   1.907   1.664 -0.1886  0.5549 -0.9668
 7131SOL    HW228290   5.760   1.878   1.686  0.0328  0.5184 -0.0945
 7131SOL    HW328291   5.856   1.890   1.570 -0.9097  0.0359 -0.9437
 7131SOL    MW428292   5.838   1.901   1.655 -0.2545  0.4816 -0.8487
 7132SOL     OW28293   3.399   4.531   0.967  0.3420  0.2006  0.0693
 7132SOL    HW228294   3.395   4.564   1.056  0.5706  1.5414 -0.3949
 7132SOL    HW328295   3.467   4.463   0.969  1.5930  1.4401  0.5508
 7132SOL    MW428296   3.408   4.526   0.979  0.5372  0.5411  0.0716
 7133SOL     OW28297   6.318   0.226   4.603  0.2651  0.3212 -0.2650
 7133SOL    HW228298   6.289   0.304   4.554 -0.2453  0.3547  0.0810
 7133SOL    HW328299   6.368   0.260   4.677  0.3836  0.3014 -0.3357
 7133SOL    MW428300   6.320   0.241   4.606  0.2134  0.3230 -0.2287
 7134SOL     OW28301   0.580   0.522   4.524  0.0088 -0.0189 -0.1482
 7134SOL    HW228302   0.664   0.476   4.528  0.2901  0.5985  1.7908
 7134SOL    HW328303   0.580   0.564   4.438  0.6785 -1.8348 -1.0984
 7134SOL    MW428304   0.591   0.521   4.513  0.1343 -0.1770 -0.0177
 7135SOL     OW28305   2.572   3.999   1.602 -0.5765  0.0290 -0.7216
 7135SOL    HW228306   2.642   4.052   1.565 -0.4482 -0.0138 -0.5451
 7135SOL    HW328307   2.598   3.986   1.694 -0.8102  0.0066 -0.6568
 7135SOL    MW428308   2.584   4.004   1.610 -0.5904  0.0204 -0.6897
 7136SOL     OW28309   2.315   4.344   2.545  0.5474 -0.5376  0.1720
 7136SOL    HW228310   2.300   4.342   2.450  1.7074 -0.2286 -0.0366
 7136SOL    HW328311   2.230   4.366   2.582  0.0431 -0.7914 -0.7894
 7136SOL    MW428312   2.302   4.347   2.537  0.6339 -0.5304  0.0176
 7137SOL     OW28313   1.486   4.905   4.819 -0.4510  0.2128 -0.0386
 7137SOL    HW228314   1.496   4.877   4.910  0.0745 -0.0669 -0.1812
 7137SOL    HW328315   1.490   5.001   4.823  1.0361  0.1588  0.0621
 7137SOL    MW428316   1.488   4.914   4.832 -0.1854  0.1688 -0.0441
 7138SOL     OW28317   1.151   5.682   2.517 -0.3526 -0.2571  0.3921
 7138SOL    HW228318   1.120   5.677   2.426  1.1855 -0.7218 -0.1425
 7138SOL    HW328319   1.196   5.599   2.531 -0.5175 -0.1561  1.5726
 7138SOL    MW428320   1.153   5.670   2.507 -0.1714 -0.3051  0.4773
 7139SOL     OW28321   4.865   3.733   0.854  0.4477 -0.4900 -0.6185
 7139SOL    HW228322   4.802   3.662   0.861 -0.3585  0.2529 -0.1645
 7139SOL    HW328323   4.929   3.716   0.924  0.7769 -1.2606 -1.1027
 7139SOL    MW428324   4.865   3.722   0.864  0.3848 -0.4937 -0.6225
 7140SOL     OW28325   1.532   0.052   2.990  0.0390 -0.1226  0.8617
 7140SOL    HW228326   1.530  -0.017   2.924  0.7687  0.1163  0.5771
 7140SOL    HW328327   1.612   0.101   2.971 -1.1417  1.6517  0.1793
 7140SOL    MW428328   1.542   0.049   2.979 -0.0205  0.1430  0.7341
 7141SOL     OW28329   0.396   4.897   2.194  0.3558 -0.4490  0.2780
 7141SOL    HW228330   0.409   4.950   2.273  1.6825  0.2171 -0.3509
 7141SOL    HW328331   0.466   4.831   2.198  0.0535 -0.7885 -0.0341
 7141SOL    MW428332   0.407   4.895   2.205  0.4910 -0.4059  0.1538
 7142SOL     OW28333   4.465   0.156   6.155 -0.5193 -0.3334 -0.1679
 7142SOL    HW228334   4.500   0.144   6.244  2.5639 -4.3315 -1.5723
 7142SOL    HW328335   4.396   0.090   6.148 -0.6695 -0.1183 -0.7505
 7142SOL    MW428336   4.460   0.145   6.166 -0.1323 -0.8325 -0.4300
 7143SOL     OW28337   6.225   5.921   3.764  0.7200  0.5077  0.0099
 7143SOL    HW228338   6.312   5.885   3.748  0.9752  0.7443  0.7966
 7143SOL    HW328339   6.237   6.016   3.755  0.4344  0.5099 -0.3605
 7143SOL    MW428340   6.238   5.929   3.761  0.7160  0.5392  0.0648
 7144SOL     OW28341   4.533   2.474   1.735  0.1965  0.1460  0.2908
 7144SOL    HW228342   4.592   2.400   1.721  0.2206  0.3025 -0.4692
 7144SOL    HW328343   4.545   2.496   1.827 -0.0534 -0.9907  0.6119
 7144SOL    MW428344   4.543   2.467   1.745  0.1667  0.0166  0.2329
 7145SOL     OW28345   4.386   0.944   3.529  0.1182  0.3403  0.0685
 7145SOL    HW228346   4.386   1.016   3.465 -0.1837  0.3012  0.0203
 7145SOL    HW328347   4.306   0.896   3.509  1.8554 -1.9205 -2.0596
 7145SOL    MW428348   4.376   0.947   3.518  0.3076  0.0369 -0.2186
 7146SOL     OW28349   5.472   1.222   5.703  0.4164  0.0763 -0.2484
 7146SOL    HW228350   5.431   1.165   5.769  0.1342  0.3573 -0.1762
 7146SOL    HW328351   5.558   1.242   5.739  0.8049 -0.8833 -0.6109
 7146SOL    MW428352   5.478   1.217   5.717  0.4304 -0.0132 -0.2867
 7147SOL     OW28353   5.567   6.072   1.664  0.2255  0.2954 -0.9130
 7147SOL    HW228354   5.639   6.127   1.631  1.9800 -1.0520  0.4824
 7147SOL    HW328355   5.536   6.118   1.742 -1.0567  1.2934 -1.9538
 7147SOL    MW428356   5.573   6.086   1.670  0.2878  0.2493 -0.8662
 7148SOL     OW28357   3.398   2.890   5.247  0.5074  0.5449 -0.0276
 7148SOL    HW228358   3.401   2.944   5.168  0.5645 -0.5430 -0.8031
 7148SOL    HW328359   3.397   2.952   5.319 -1.2593  1.6118 -0.9095
 7148SOL    MW428360   3.398   2.905   5.246  0.2819  0.5421 -0.2463
 7149SOL     OW28361   2.739   4.719   3.634  0.3863 -0.2138 -0.2049
 7149SOL    HW228362   2.803   4.765   3.580  2.4770 -2.5829  0.0925
 7149SOL    HW328363   2.701   4.787   3.690  1.3755  1.5427 -1.5693
 7149SOL    MW428364   2.742   4.734   3.634  0.7927 -0.2946 -0.3457
 7150SOL     OW28365   3.951   4.533   0.725  0.1797  0.0015  0.2882
 7150SOL    HW228366   3.957   4.489   0.809  0.6748 -1.4932 -0.4781
 7150SOL    HW328367   3.929   4.463   0.663  1.3289  0.7726 -1.0508
 7150SOL    MW428368   3.949   4.518   0.728  0.3967 -0.0939  0.0104
 7151SOL     OW28369   1.526   1.671   1.003  0.7821 -0.5405 -0.3367
 7151SOL    HW228370   1.494   1.701   1.088 -0.8281 -1.2767 -0.6471
 7151SOL    HW328371   1.479   1.589   0.987  0.9468 -0.3436 -1.9938
 7151SOL    MW428372   1.516   1.664   1.012  0.5914 -0.6117 -0.5963
 7152SOL     OW28373   4.165   3.831   5.693 -0.0609  0.2750 -0.4072
 7152SOL    HW228374   4.073   3.807   5.700 -0.2848  0.5928 -2.0335
 7152SOL    HW328375   4.180   3.888   5.768 -0.5681 -1.5483  1.1938
 7152SOL    MW428376   4.155   3.835   5.704 -0.1573  0.0764 -0.4106
 7153SOL     OW28377   5.071   1.930   3.174  0.4902 -0.0965  0.0031
 7153SOL    HW228378   5.164   1.954   3.169  0.2203  0.7430 -1.7101
 7153SOL    HW328379   5.025   2.003   3.132 -0.8337 -1.1449 -0.4463
 7153SOL    MW428380   5.077   1.943   3.168  0.2799 -0.1241 -0.2822
 7154SOL     OW28381   0.841   3.644   2.336  0.2147  0.0342 -0.2723
 7154SOL    HW228382   0.848   3.564   2.283  2.4225  0.3450 -0.5356
 7154SOL    HW328383   0.766   3.628   2.394 -1.0842 -1.1010 -2.1289
 7154SOL    MW428384   0.832   3.631   2.337  0.3346 -0.0746 -0.5520
 7155SOL     OW28385   1.394   4.018   0.970 -0.2269 -0.3785 -0.2803
 7155SOL    HW228386   1.347   4.100   0.987  0.3018  0.1382 -1.2368
 7155SOL    HW328387   1.341   3.951   1.014 -0.9925  0.3928  0.0127
 7155SOL    MW428388   1.381   4.020   0.978 -0.2581 -0.2086 -0.3678
 7156SOL     OW28389   0.487   5.749   1.013 -0.3528 -0.6700 -0.2858
 7156SOL    HW228390   0.415   5.688   1.024 -0.1947 -0.5905  1.3126
 7156SOL    HW328391   0.507   5.780   1.101 -0.7602  2.1096 -1.0718
 7156SOL    MW428392   0.480   5.745   1.026 -0.3857 -0.2928 -0.1786
 7157SOL     OW28393   4.285   0.623   1.405  0.2570  0.3524 -0.1404
 7157SOL    HW228394   4.287   0.628   1.500 -0.3040 -0.5026 -0.0752
 7157SOL    HW328395   4.211   0.566   1.385  0.5652  0.2564 -1.0738
 7157SOL    MW428396   4.276   0.616   1.415  0.2236  0.2270 -0.2550
 7158SOL     OW28397   4.527   0.440   5.186 -0.4556 -0.9236  0.1579
 7158SOL    HW228398   4.544   0.506   5.119 -2.2586  1.4838  1.9130
 7158SOL    HW328399   4.456   0.387   5.149 -1.1835  0.1479 -0.0226
 7158SOL    MW428400   4.520   0.442   5.172 -0.7895 -0.4646  0.3656
 7159SOL     OW28401   3.612   3.767   5.420  0.3838 -0.2864  0.3133
 7159SOL    HW228402   3.561   3.802   5.346  0.5615  2.2328  1.2774
 7159SOL    HW328403   3.589   3.674   5.424 -1.5529  0.0613 -1.3392
 7159SOL    MW428404   3.602   3.759   5.410  0.1517  0.0918  0.2225
 7160SOL     OW28405   1.943   3.857   0.407  0.1083  0.1054  0.6788
 7160SOL    HW228406   1.855   3.889   0.387 -0.0000 -0.2141  0.6492
 7160SOL    HW328407   1.956   3.880   0.499  0.9127  2.2939  0.0967
 7160SOL    MW428408   1.933   3.864   0.416  0.2001  0.3520  0.5981
 7161SOL     OW28409   1.693   0.833   1.464  1.2029  0.0437  0.0047
 7161SOL    HW228410   1.731   0.843   1.551  0.1638 -1.6850  0.6816
 7161SOL    HW328411   1.644   0.752   1.467  1.2607 -0.1517 -2.2540
 7161SOL    MW428412   1.692   0.824   1.476  1.0734 -0.2101 -0.2040
 7162SOL     OW28413   2.445   6.085   1.970 -0.4156  0.0164 -0.2892
 7162SOL    HW228414   2.486   6.098   1.885  0.0302 -0.2946 -0.1264
 7162SOL    HW328415   2.404   6.169   1.991 -1.0036 -0.0698 -1.0585
 7162SOL    MW428416   2.445   6.097   1.962 -0.4344 -0.0360 -0.3692
 7163SOL     OW28417   5.733   3.198   2.647  0.6291 -0.6017 -0.1088
 7163SOL    HW228418   5.719   3.139   2.721  0.0704  0.6422  0.8164
 7163SOL    HW328419   5.810   3.250   2.671 -0.2932  0.6703  0.1986
 7163SOL    MW428420   5.742   3.197   2.660  0.4337 -0.2697  0.0539
 7164SOL     OW28421   1.049   3.145   6.410 -0.0761  0.3117  0.3196
 7164SOL    HW228422   1.035   3.161   6.316 -0.4129 -2.6043 -0.2257
 7164SOL    HW328423   1.142   3.125   6.417 -0.1427  0.0677  0.5211
 7164SOL    MW428424   1.059   3.144   6.398 -0.1293 -0.1052  0.2743
 7165SOL     OW28425   4.265   1.438   1.082 -0.1333 -0.4630  0.2533
 7165SOL    HW228426   4.255   1.409   0.991 -1.9908  0.7100  0.0203
 7165SOL    HW328427   4.262   1.357   1.134 -0.2414 -1.0605 -0.6586
 7165SOL    MW428428   4.263   1.423   1.077 -0.3926 -0.3871  0.1022
 7166SOL     OW28429   0.264   3.183   2.258 -0.3358 -0.1142 -0.4823
 7166SOL    HW228430   0.310   3.100   2.242  0.4193 -0.0788  1.3114
 7166SOL    HW328431   0.296   3.241   2.189  0.7664 -0.6953 -0.4864
 7166SOL    MW428432   0.275   3.180   2.247 -0.0907 -0.1862 -0.2462
 7167SOL     OW28433   2.820   1.038   0.323  0.2010  0.2084  0.1807
 7167SOL    HW228434   2.870   0.974   0.273 -1.4605 -1.9553  1.1176
 7167SOL    HW328435   2.730   1.027   0.293 -0.4881  0.4421  2.0203
 7167SOL    MW428436   2.814   1.028   0.312 -0.1092 -0.0462  0.5470
 7168SOL     OW28437   3.056   2.914   5.449  0.1331  0.1075  0.0464
 7168SOL    HW228438   3.056   2.900   5.355 -0.4384  0.7703 -0.0657
 7168SOL    HW328439   3.072   3.008   5.459  0.3091  0.0225  0.6179
 7168SOL    MW428440   3.058   2.925   5.438  0.0809  0.1837  0.1070
 7169SOL     OW28441   3.410   6.349   4.454  0.2582  1.1390 -0.0204
 7169SOL    HW228442   3.342   6.415   4.445 -0.2371  0.6240 -0.0821
 7169SOL    HW328443   3.441   6.358   4.545 -0.6172  0.6872  0.3343
 7169SOL    MW428444   3.405   6.359   4.465  0.0773  1.0114  0.0183
 7170SOL     OW28445   5.558   6.102   4.008  0.0240  0.1476 -0.1083
 7170SOL    HW228446   5.463   6.088   4.016  0.2317 -1.1756  0.4473
 7170SOL    HW328447   5.571   6.129   3.918 -0.7745 -0.8974 -0.5656
 7170SOL    MW428448   5.547   6.104   3.997 -0.0539 -0.1649 -0.0953
 7171SOL     OW28449   2.015   1.482   4.887  0.0174  0.1495  0.5165
 7171SOL    HW228450   2.000   1.572   4.859  1.8796  0.5619  0.6951
 7171SOL    HW328451   1.932   1.453   4.924 -0.4969  1.9296  0.8146
 7171SOL    MW428452   2.002   1.490   4.888  0.1953  0.4388  0.5794
 7172SOL     OW28453   5.709   4.138   3.725 -0.3656 -0.2053  0.3574
 7172SOL    HW228454   5.696   4.148   3.819 -1.1352  0.3910  0.2038
 7172SOL    HW328455   5.769   4.210   3.701 -1.2899  0.5251  0.1793
 7172SOL    MW428456   5.715   4.149   3.734 -0.5891 -0.0302  0.3137
 7173SOL     OW28457   3.130   6.054   4.995 -0.4578  0.2299  0.2100
 7173SOL    HW228458   3.148   6.106   4.917  0.4294 -0.1770  0.1333
 7173SOL    HW328459   3.036   6.063   5.009 -0.1704  2.9970  1.0029
 7173SOL    MW428460   3.120   6.062   4.987 -0.3028  0.5413  0.3045
 7174SOL     OW28461   2.432   5.236   5.312 -0.7556 -0.5551  0.0127
 7174SOL    HW228462   2.518   5.263   5.282 -0.2102 -1.9648  0.2309
 7174SOL    HW328463   2.390   5.317   5.342  0.6376  0.0853  0.2860
 7174SOL    MW428464   2.438   5.250   5.312 -0.4998 -0.6566  0.0776
 7175SOL     OW28465   3.652   2.176   2.536 -0.2439 -0.2408  0.3274
 7175SOL    HW228466   3.733   2.203   2.577  0.0906 -0.6464 -0.0560
 7175SOL    HW328467   3.675   2.098   2.485 -0.7413 -0.0313 -0.2414
 7175SOL    MW428468   3.666   2.169   2.534 -0.2654 -0.2667  0.2018
 7176SOL     OW28469   0.390   0.393   1.971  0.0224 -0.0505 -0.0751
 7176SOL    HW228470   0.460   0.343   2.014  0.5960  0.7394 -0.0707
 7176SOL    HW328471   0.422   0.405   1.881  1.4620  3.0952  0.7201
 7176SOL    MW428472   0.404   0.388   1.965  0.2880  0.4687  0.0304
 7177SOL     OW28473   3.449   5.774   6.121 -0.2408 -0.2530 -0.2712
 7177SOL    HW228474   3.504   5.813   6.054  0.2091 -1.1768 -0.4501
 7177SOL    HW328475   3.476   5.818   6.202  0.3976 -0.3330 -0.4356
 7177SOL    MW428476   3.460   5.785   6.123 -0.0972 -0.3854 -0.3165
 7178SOL     OW28477   1.837   0.664   5.220  0.6444 -0.1319 -0.2461
 7178SOL    HW228478   1.780   0.595   5.255  0.8159  0.8940  2.3484
 7178SOL    HW328479   1.924   0.623   5.216  0.6779 -0.2166  0.9136
 7178SOL    MW428480   1.841   0.649   5.224  0.6714 -0.0077  0.2492
 7179SOL     OW28481   3.209   4.666   3.130  0.3234  0.3629 -0.0852
 7179SOL    HW228482   3.162   4.742   3.096  1.5834  0.7258 -1.1127
 7179SOL    HW328483   3.263   4.701   3.201 -1.7172 -0.2550  1.8901
 7179SOL    MW428484   3.210   4.681   3.135  0.2204  0.3292  0.0399
 7180SOL     OW28485   4.202   2.854   0.862 -0.4915  0.4554  0.1263
 7180SOL    HW228486   4.168   2.770   0.832 -1.0593 -0.1375  2.2226
 7180SOL    HW328487   4.170   2.918   0.798 -1.5141 -0.7011 -0.5552
 7180SOL    MW428488   4.193   2.852   0.850 -0.7013  0.2246  0.3129
 7181SOL     OW28489   1.954   1.771   4.902  0.1174 -0.2560  0.6193
 7181SOL    HW228490   2.011   1.826   4.849 -0.0961 -0.4935  0.1386
 7181SOL    HW328491   1.867   1.783   4.865  0.3892 -2.7262 -1.0674
 7181SOL    MW428492   1.950   1.780   4.890  0.1251 -0.6133  0.3334
 7182SOL     OW28493   0.104   6.406   4.164 -0.3555  0.0868  0.0905
 7182SOL    HW228494   0.125   6.457   4.086 -0.3330  0.2141  0.1781
 7182SOL    HW328495   0.082   6.472   4.230  0.4447  0.0143  0.4327
 7182SOL    MW428496   0.104   6.422   4.163 -0.2469  0.0941  0.1472
 7183SOL     OW28497   0.908   4.108   0.611  0.3670 -0.7123  0.1511
 7183SOL    HW228498   0.984   4.051   0.597  0.9859 -0.2921  1.5915
 7183SOL    HW328499   0.864   4.070   0.687  0.0047 -0.0528  0.2764
 7183SOL    MW428500   0.912   4.096   0.619  0.4009 -0.5699  0.3577
 7184SOL     OW28501   2.759   5.782   3.573  0.7199  0.0911  0.0403
 7184SOL    HW228502   2.829   5.780   3.638 -0.2221  0.8067  1.1297
 7184SOL    HW328503   2.748   5.691   3.546  0.9579 -0.2608  1.0859
 7184SOL    MW428504   2.767   5.770   3.578  0.6270  0.1391  0.3220
 7185SOL     OW28505   2.687   3.390   3.620 -0.5325 -0.1571  0.6207
 7185SOL    HW228506   2.739   3.348   3.551  0.9602 -1.0039  2.1870
 7185SOL    HW328507   2.607   3.416   3.576 -0.2736 -1.9871 -1.1170
 7185SOL    MW428508   2.684   3.388   3.605 -0.3014 -0.5103  0.5981
 7186SOL     OW28509   2.051   4.599   5.703 -0.2359 -0.5454 -0.2917
 7186SOL    HW228510   1.960   4.613   5.680 -0.3520 -1.9176 -0.7686
 7186SOL    HW328511   2.087   4.687   5.714 -1.6307  0.0154  0.0311
 7186SOL    MW428512   2.044   4.612   5.701 -0.4352 -0.6525 -0.3120
 7187SOL     OW28513   5.312   1.845   3.422 -0.3088  0.1980  0.5581
 7187SOL    HW228514   5.392   1.793   3.424 -0.3622  0.1080  0.3966
 7187SOL    HW328515   5.241   1.781   3.418 -0.4457  0.2463  1.8828
 7187SOL    MW428516   5.313   1.830   3.422 -0.3339  0.1925  0.7116
 7188SOL     OW28517   1.507   3.833   4.202 -0.5781  0.3014 -0.9572
 7188SOL    HW228518   1.478   3.757   4.253 -1.0751  1.1349  0.0471
 7188SOL    HW328519   1.537   3.796   4.119 -1.1666 -0.9498 -0.6422
 7188SOL    MW428520   1.507   3.818   4.198 -0.7213  0.2463 -0.7831
 7189SOL     OW28521   3.541   4.563   0.500 -0.0619  0.2850 -0.3072
 7189SOL    HW228522   3.627   4.604   0.492 -0.3925  0.9981 -0.3022
 7189SOL    HW328523   3.527   4.520   0.416  1.1423 -1.5573  0.3669
 7189SOL    MW428524   3.551   4.563   0.488  0.0534  0.1360 -0.2176
 7190SOL     OW28525   4.925   0.698   5.682 -0.3603 -0.7894  0.2291
 7190SOL    HW228526   4.977   0.626   5.717  2.2872  0.6951 -0.3917
 7190SOL    HW328527   4.873   0.658   5.612 -0.4356 -2.4207  1.1631
 7190SOL    MW428528   4.925   0.683   5.677 -0.0209 -0.8088  0.2704
 7191SOL     OW28529   1.185   5.837   3.681 -0.0715  0.1620 -0.5399
 7191SOL    HW228530   1.183   5.920   3.634 -1.3367  0.5517  0.1279
 7191SOL    HW328531   1.273   5.803   3.669  0.2054  1.1995 -1.5239
 7191SOL    MW428532   1.196   5.843   3.674 -0.2019  0.3503 -0.5816
 7192SOL     OW28533   5.217   5.203   4.261  0.0421  0.5723  0.0937
 7192SOL    HW228534   5.136   5.187   4.213 -0.2257 -1.0077  0.9859
 7192SOL    HW328535   5.196   5.181   4.352  0.9270  2.0926  0.6988
 7192SOL    MW428536   5.204   5.198   4.267  0.1235  0.5644  0.2913
 7193SOL     OW28537   5.693   0.948   3.138 -0.5343  0.2635  0.1619
 7193SOL    HW228538   5.699   0.926   3.045  1.0872 -0.6950  0.4394
 7193SOL    HW328539   5.738   0.875   3.182 -1.1016  0.7943  1.6820
 7193SOL    MW428540   5.700   0.935   3.131 -0.3952  0.2071  0.3991
 7194SOL     OW28541   5.801   2.363   0.982 -0.5084 -0.1099  0.0715
 7194SOL    HW228542   5.816   2.278   1.023  1.8472 -1.0405 -2.3661
 7194SOL    HW328543   5.741   2.345   0.910  0.2785  0.1534 -0.6751
 7194SOL    MW428544   5.795   2.349   0.978 -0.0938 -0.1979 -0.3487
 7195SOL     OW28545   3.717   5.544   1.617 -0.5530 -0.2671  0.2647
 7195SOL    HW228546   3.777   5.474   1.641  1.1490  1.0864  0.1428
 7195SOL    HW328547   3.689   5.582   1.700 -0.7125 -0.4528  0.2978
 7195SOL    MW428548   3.721   5.540   1.631 -0.3495 -0.1130  0.2530
 7196SOL     OW28549   5.093   1.734   5.347 -0.2626 -0.0231 -0.6559
 7196SOL    HW228550   5.033   1.682   5.401 -0.3347 -1.6235 -2.2228
 7196SOL    HW328551   5.040   1.808   5.318 -0.8194 -0.2475 -0.2363
 7196SOL    MW428552   5.078   1.737   5.351 -0.3456 -0.2639 -0.8073
 7197SOL     OW28553   3.258   2.771   3.026  0.3347 -0.5911 -0.2519
 7197SOL    HW228554   3.315   2.848   3.023 -2.4057  1.5929 -1.3684
 7197SOL    HW328555   3.260   2.736   2.937 -0.5375 -0.0770 -0.4861
 7197SOL    MW428556   3.266   2.777   3.014 -0.1420 -0.2351 -0.4301
 7198SOL     OW28557   1.034   2.821   3.911 -0.1893 -0.2300  0.3324
 7198SOL    HW228558   0.985   2.785   3.985 -1.0864 -2.0423 -1.0562
 7198SOL    HW328559   1.017   2.760   3.839  1.3178  1.0060 -1.1599
 7198SOL    MW428560   1.026   2.808   3.911 -0.1088 -0.3060 -0.0477
 7199SOL     OW28561   5.279   6.114   4.234 -0.1118  0.0715  0.3243
 7199SOL    HW228562   5.263   6.097   4.141  1.6618 -0.5299  0.0887
 7199SOL    HW328563   5.333   6.040   4.263  1.3400  1.4352  1.2330
 7199SOL    MW428564   5.284   6.102   4.226  0.3138  0.1720  0.4131
 7200SOL     OW28565   0.172   0.701   6.040 -0.0934 -0.2035  0.3283
 7200SOL    HW228566   0.201   0.645   6.112  1.0708  0.9063  0.7587
 7200SOL    HW328567   0.108   0.759   6.080  0.5032  0.3681  0.4659
 7200SOL    MW428568   0.167   0.701   6.054  0.1389  0.0184  0.4032
 7201SOL     OW28569   4.188   1.039   6.264 -0.4312 -0.2562  0.0601
 7201SOL    HW228570   4.102   1.016   6.227  0.3001 -0.8384 -1.3780
 7201SOL    HW328571   4.170   1.056   6.356 -2.1366 -0.1023 -0.2513
 7201SOL    MW428572   4.174   1.038   6.271 -0.5597 -0.3127 -0.1708
 7202SOL     OW28573   3.290   5.299   6.374  0.1426 -0.5344 -0.0488
 7202SOL    HW228574   3.260   5.298   6.465 -0.6924  0.6892 -0.2868
 7202SOL    HW328575   3.221   5.252   6.326  0.0304 -0.2271 -0.1926
 7202SOL    MW428576   3.277   5.292   6.379  0.0177 -0.3324 -0.0992
 7203SOL     OW28577   5.880   1.837   5.441 -0.0225 -0.1683 -0.1641
 7203SOL    HW228578   5.795   1.880   5.427  0.8714  2.5898  2.0888
 7203SOL    HW328579   5.865   1.779   5.516 -0.1687 -0.5888 -0.5113
 7203SOL    MW428580   5.867   1.835   5.449  0.0761  0.1401  0.0874
 7204SOL     OW28581   4.899   2.515   0.122 -0.2521  0.1161 -0.0314
 7204SOL    HW228582   4.983   2.562   0.129 -0.6328  0.9867 -1.0363
 7204SOL    HW328583   4.919   2.426   0.150  1.0565  0.2664 -0.4242
 7204SOL    MW428584   4.913   2.509   0.126 -0.1297  0.2508 -0.2158
 7205SOL     OW28585   2.589   1.366   2.925  0.3887 -0.6439  0.3579
 7205SOL    HW228586   2.508   1.395   2.883  0.8846 -1.6063 -1.3553
 7205SOL    HW328587   2.659   1.404   2.872  1.1160  0.2499  1.8580
 7205SOL    MW428588   2.588   1.375   2.913  0.5501 -0.6530  0.3298
 7206SOL     OW28589   6.018   3.936   5.260 -0.0774 -0.0163  0.1802
 7206SOL    HW228590   6.109   3.967   5.261 -0.0105 -0.2140  0.2643
 7206SOL    HW328591   6.024   3.844   5.283 -0.1555 -0.4270 -1.3740
 7206SOL    MW428592   6.031   3.928   5.263 -0.0789 -0.0966 -0.0137
 7207SOL     OW28593   0.086   5.239   0.550 -0.2398  0.8580 -0.1014
 7207SOL    HW228594   0.107   5.225   0.642 -1.1275 -0.7095 -0.1093
 7207SOL    HW328595   0.039   5.160   0.524  0.9659  0.7638 -2.1984
 7207SOL    MW428596   0.083   5.227   0.559 -0.1979  0.6388 -0.3792
 7208SOL     OW28597   2.689   4.779   4.102 -0.3463 -0.2064 -0.0199
 7208SOL    HW228598   2.734   4.834   4.167 -0.1398 -0.8694  0.3998
 7208SOL    HW328599   2.699   4.828   4.020  0.1680  0.2027  0.2759
 7208SOL    MW428600   2.697   4.793   4.099 -0.2512 -0.2399  0.0745
 7209SOL     OW28601   5.711   0.615   4.469  0.2979  0.2895  0.4689
 7209SOL    HW228602   5.805   0.619   4.452  0.2809 -0.6117  0.1019
 7209SOL    HW328603   5.703   0.626   4.563  0.7748  0.3238  0.5095
 7209SOL    MW428604   5.722   0.617   4.479  0.3586  0.1751  0.4258
 7210SOL     OW28605   0.855   2.911   0.603 -0.1559 -0.2879 -0.4732
 7210SOL    HW228606   0.926   2.856   0.573 -1.5730 -1.0583 -2.6254
 7210SOL    HW328607   0.831   2.964   0.527 -1.1171  0.8059  0.5375
 7210SOL    MW428608   0.861   2.911   0.589 -0.4697 -0.2452 -0.6238
 7211SOL     OW28609   0.243   3.961   3.514 -1.1654  0.3523  0.1659
 7211SOL    HW228610   0.304   4.016   3.563 -1.4248  0.4242  0.4144
 7211SOL    HW328611   0.244   3.877   3.559  1.2450 -0.7621 -1.7635
 7211SOL    MW428612   0.251   3.957   3.527 -0.8816  0.2148 -0.0559
 7212SOL     OW28613   4.359   0.580   2.121 -0.1600  1.0001 -0.6686
 7212SOL    HW228614   4.269   0.585   2.154  0.2477  1.4380  0.4154
 7212SOL    HW328615   4.412   0.558   2.197  0.5604 -0.1776 -1.4812
 7212SOL    MW428616   4.354   0.578   2.135 -0.0112  0.9025 -0.6328
 7213SOL     OW28617   2.799   0.934   5.505 -0.3825  0.2198  0.1265
 7213SOL    HW228618   2.742   0.923   5.428  1.1968 -0.7069 -0.9772
 7213SOL    HW328619   2.831   0.845   5.524  0.1495  0.6089  1.1485
 7213SOL    MW428620   2.796   0.921   5.497 -0.1040  0.1489  0.1158
 7214SOL     OW28621   1.497   3.715   2.552  0.4252 -0.6122 -0.3822
 7214SOL    HW228622   1.539   3.757   2.627 -1.4554  2.7310 -0.9672
 7214SOL    HW328623   1.539   3.756   2.476  0.3914 -1.9066 -1.1273
 7214SOL    MW428624   1.508   3.726   2.552  0.1726 -0.3419 -0.5577
 7215SOL     OW28625   4.254   5.719   5.890 -0.0657  0.1325 -0.6783
 7215SOL    HW228626   4.337   5.681   5.921 -1.0099 -2.1203 -0.6812
 7215SOL    HW328627   4.244   5.799   5.940  1.1571 -0.5725  0.7762
 7215SOL    MW428628   4.264   5.724   5.900 -0.0289 -0.2578 -0.4867
 7216SOL     OW28629   0.768   1.540   4.146  0.2522  0.2729 -0.1529
 7216SOL    HW228630   0.849   1.495   4.169 -1.1721 -1.5497  1.6557
 7216SOL    HW328631   0.775   1.555   4.051  1.6866 -1.9559 -0.4743
 7216SOL    MW428632   0.780   1.536   4.136  0.2535 -0.2616  0.0433
 7217SOL     OW28633   0.912   4.352   2.598  0.5747 -0.2295  0.1558
 7217SOL    HW228634   0.957   4.303   2.530  1.2151 -0.0293  0.4318
 7217SOL    HW328635   0.834   4.299   2.618  1.4343 -1.3343  0.7015
 7217SOL    MW428636   0.908   4.338   2.592  0.7726 -0.3488  0.2642
 7218SOL     OW28637   5.247   1.326   0.401 -0.3959  0.0330  0.0367
 7218SOL    HW228638   5.258   1.414   0.365 -1.4988  0.1521 -0.0591
 7218SOL    HW328639   5.281   1.267   0.334 -0.8990  0.3332 -0.4868
 7218SOL    MW428640   5.253   1.330   0.388 -0.6078  0.0883 -0.0450
 7219SOL     OW28641   5.544   3.873   4.917 -0.0019  0.8770 -0.5281
 7219SOL    HW228642   5.601   3.949   4.911  1.0360  0.2107  0.3487
 7219SOL    HW328643   5.594   3.803   4.874  0.2613  0.0798  1.0046
 7219SOL    MW428644   5.558   3.874   4.910  0.1697  0.6839 -0.2102
 7220SOL     OW28645   5.068   0.800   3.479 -0.0791 -0.0782  0.2753
 7220SOL    HW228646   4.991   0.838   3.522 -0.6837  0.3959 -1.1493
 7220SOL    HW328647   5.031   0.753   3.404  0.9392 -0.7922  0.2174
 7220SOL    MW428648   5.053   0.799   3.475 -0.0245 -0.1098  0.0797
 7221SOL     OW28649   6.035   1.779   1.243  0.1565 -0.0045  0.6316
 7221SOL    HW228650   6.129   1.760   1.234 -0.0164  0.0978 -2.5447
 7221SOL    HW328651   5.995   1.693   1.256  0.4827 -0.3783 -0.7286
 7221SOL    MW428652   6.042   1.765   1.244  0.1767 -0.0403  0.0331
 7222SOL     OW28653   4.708   0.679   2.312  0.5016  0.0470 -0.1571
 7222SOL    HW228654   4.769   0.645   2.378  0.0043 -0.1696  0.2008
 7222SOL    HW328655   4.686   0.603   2.258 -1.1815 -0.4093  1.0921
 7222SOL    MW428656   4.713   0.664   2.314  0.2139 -0.0418  0.0549
 7223SOL     OW28657   2.614   1.575   1.049 -0.3693 -0.2118 -0.4435
 7223SOL    HW228658   2.563   1.647   1.012 -0.5068  0.3539  0.7873
 7223SOL    HW328659   2.676   1.552   0.980 -0.5352  0.8781 -0.9841
 7223SOL    MW428660   2.616   1.582   1.035 -0.4093  0.0066 -0.3524
 7224SOL     OW28661   3.255   3.639   0.560  0.1422  0.0690  0.2740
 7224SOL    HW228662   3.345   3.671   0.562  0.2372 -0.0591 -1.2018
 7224SOL    HW328663   3.220   3.667   0.476  0.2088 -3.5441 -1.1653
 7224SOL    MW428664   3.262   3.647   0.549  0.1636 -0.4246 -0.1106
 7225SOL     OW28665   1.002   2.526   0.549  0.2586 -0.5123  0.1499
 7225SOL    HW228666   1.073   2.476   0.591  0.4432  1.1942  2.0039
 7225SOL    HW328667   0.932   2.527   0.615  0.4906  2.1164  0.4531
 7225SOL    MW428668   1.002   2.519   0.563  0.3136  0.0597  0.4345
 7226SOL     OW28669   0.368   1.768   6.383 -0.4452 -0.0921  0.1515
 7226SOL    HW228670   0.325   1.815   6.311 -1.3821 -1.0350  0.0752
 7226SOL    HW328671   0.315   1.789   6.460 -1.1998 -1.4042  0.0233
 7226SOL    MW428672   0.355   1.777   6.383 -0.6684 -0.3896  0.1245
 7227SOL     OW28673   2.942   4.074   3.803 -0.1952 -0.2179 -0.1814
 7227SOL    HW228674   2.952   4.133   3.728  1.4118 -0.7155 -0.3952
 7227SOL    HW328675   2.999   4.000   3.782 -1.2941 -1.3256  0.6043
 7227SOL    MW428676   2.950   4.072   3.790 -0.1281 -0.4297 -0.1060
 7228SOL     OW28677   3.698   5.983   3.684 -0.8396 -0.1928  0.1287
 7228SOL    HW228678   3.674   6.062   3.732 -2.1148 -0.3359 -0.2359
 7228SOL    HW328679   3.758   6.012   3.616  0.9701  0.0296  1.7189
 7228SOL    MW428680   3.703   5.997   3.681 -0.7691 -0.1823  0.2904
 7229SOL     OW28681   0.223   0.935   5.220 -0.4282 -0.1840  0.0053
 7229SOL    HW228682   0.211   1.004   5.285  0.0481  2.4368 -2.4678
 7229SOL    HW328683   0.136   0.924   5.180 -0.6420 -1.5257  0.7657
 7229SOL    MW428684   0.210   0.943   5.223 -0.3936 -0.0152 -0.2206
 7230SOL     OW28685   6.111   4.373   1.510 -0.2508  0.1931 -0.1284
 7230SOL    HW228686   6.123   4.279   1.494  1.2881  0.1378  1.1322
 7230SOL    HW328687   6.061   4.404   1.434  1.3711 -1.1577 -1.8300
 7230SOL    MW428688   6.106   4.364   1.498  0.1663  0.0076 -0.1866
 7231SOL     OW28689   3.276   1.256   0.122  0.3803  0.5277 -0.3512
 7231SOL    HW228690   3.249   1.327   0.180  0.3361 -1.1864  1.8426
 7231SOL    HW328691   3.208   1.189   0.133  0.8881 -0.2355 -1.6709
 7231SOL    MW428692   3.263   1.257   0.131  0.4415  0.2009 -0.2359
 7232SOL     OW28693   5.213   1.623   0.389  0.3668  0.2108  0.2964
 7232SOL    HW228694   5.277   1.685   0.425 -1.0905  2.8036 -1.2681
 7232SOL    HW328695   5.151   1.608   0.460  0.6082  0.7731  0.6321
 7232SOL    MW428696   5.213   1.629   0.403  0.2064  0.6271  0.1342
 7233SOL     OW28697   3.915   3.346   0.186  0.0919 -0.1972  0.3427
 7233SOL    HW228698   3.866   3.395   0.120  1.2683  2.4739  1.2926
 7233SOL    HW328699   3.856   3.276   0.213 -0.6629 -1.0263 -3.0152
 7233SOL    MW428700   3.901   3.343   0.181  0.1476  0.0458  0.0250
 7234SOL     OW28701   2.682   2.712   4.939  0.2258 -0.1925 -0.4182
 7234SOL    HW228702   2.681   2.670   5.025  1.3558 -1.3070 -0.9092
 7234SOL    HW328703   2.685   2.806   4.958 -2.2145 -0.2581  0.7121
 7234SOL    MW428704   2.682   2.719   4.953  0.0529 -0.3482 -0.3339
 7235SOL     OW28705   5.612   5.421   3.037  0.0951 -0.3817 -0.6705
 7235SOL    HW228706   5.560   5.496   3.067  1.9814  0.7144  0.0532
 7235SOL    HW328707   5.673   5.459   2.973  2.7324 -0.6891  1.4658
 7235SOL    MW428708   5.613   5.436   3.033  0.6920 -0.2776 -0.2932
 7236SOL     OW28709   6.293   3.207   1.131  0.3018 -0.4579 -0.2145
 7236SOL    HW228710   6.264   3.236   1.045 -1.5388 -0.1980  0.4539
 7236SOL    HW328711   6.284   3.112   1.128 -1.8183 -0.3275  0.3291
 7236SOL    MW428712   6.288   3.198   1.119 -0.2208 -0.4064 -0.0546
 7237SOL     OW28713   1.477   3.853   0.745  0.2579 -0.0825 -0.1549
 7237SOL    HW228714   1.463   3.929   0.801 -0.2383 -0.8340  0.7580
 7237SOL    HW328715   1.396   3.802   0.752  0.1023 -0.1050 -1.7082
 7237SOL    MW428716   1.465   3.856   0.753  0.1719 -0.1846 -0.2394
 7238SOL     OW28717   0.679   0.665   6.332  0.2529  0.2776  0.1400
 7238SOL    HW228718   0.712   0.601   6.395 -2.6918 -0.9302  0.6064
 7238SOL    HW328719   0.630   0.613   6.269 -0.3415  1.8831 -0.7858
 7238SOL    MW428720   0.677   0.650   6.332 -0.2140  0.3301  0.0794
 7239SOL     OW28721   0.047   6.405   0.254 -0.1867  0.4468  0.1883
 7239SOL    HW228722   0.071   6.339   0.319  0.5381 -1.3420 -1.8142
 7239SOL    HW328723   0.121   6.409   0.194 -0.9534  1.8202 -0.7359
 7239SOL    MW428724   0.060   6.397   0.255 -0.1922  0.3920 -0.1978
 7240SOL     OW28725   4.555   1.751   1.156 -0.4856 -0.5264  0.4340
 7240SOL    HW228726   4.546   1.784   1.246  0.2265  2.2159 -0.3804
 7240SOL    HW328727   4.489   1.799   1.107 -0.5282 -1.6193 -0.6140
 7240SOL    MW428728   4.545   1.762   1.162 -0.3972 -0.3088  0.1883
 7241SOL     OW28729   3.549   5.043   2.110  0.1071 -0.0998 -0.3437
 7241SOL    HW228730   3.526   5.008   2.196 -0.7433  1.4564  0.0898
 7241SOL    HW328731   3.511   5.131   2.108  0.6056  0.1196 -2.0933
 7241SOL    MW428732   3.541   5.050   2.121  0.0606  0.1344 -0.5174
 7242SOL     OW28733   3.879   0.332   5.580 -0.4870 -0.1682 -0.4146
 7242SOL    HW228734   3.927   0.409   5.611 -2.0495  0.6698  0.0297
 7242SOL    HW328735   3.820   0.310   5.652  0.7681 -2.5918 -0.0144
 7242SOL    MW428736   3.877   0.339   5.594 -0.5275 -0.3774 -0.3032
 7243SOL     OW28737   4.561   5.753   2.206  0.2361 -0.3800  0.1887
 7243SOL    HW228738   4.481   5.781   2.251 -0.5791  0.8708 -1.8920
 7243SOL    HW328739   4.600   5.834   2.174  3.4792 -0.7349  2.7478
 7243SOL    MW428740   4.555   5.767   2.208  0.5565 -0.2618  0.2518
 7244SOL     OW28741   1.856   5.313   0.281  0.0936 -0.1749  0.1479
 7244SOL    HW228742   1.851   5.241   0.344  2.0444 -2.0485 -1.6539
 7244SOL    HW328743   1.776   5.304   0.229  0.2253 -0.9402  0.0627
 7244SOL    MW428744   1.845   5.302   0.282  0.3684 -0.5231 -0.1011
 7245SOL     OW28745   2.429   0.884   0.200  0.1042 -0.0480  0.5375
 7245SOL    HW228746   2.450   0.965   0.247 -0.6183  0.6202 -0.2528
 7245SOL    HW328747   2.335   0.889   0.185  0.4519  0.3156 -1.9254
 7245SOL    MW428748   2.420   0.895   0.205  0.0548  0.0882  0.1083
 7246SOL     OW28749   3.909   5.912   6.054 -0.5547 -0.6616 -0.4763
 7246SOL    HW228750   3.884   5.819   6.051  0.5470 -0.9569 -1.3553
 7246SOL    HW328751   4.003   5.911   6.068 -0.6219  0.3596  0.1796
 7246SOL    MW428752   3.918   5.899   6.056 -0.4182 -0.5658 -0.5058
 7247SOL     OW28753   0.972   0.484   1.132  0.4183 -0.5259  0.8275
 7247SOL    HW228754   1.045   0.463   1.073  1.1336 -0.8036  1.8010
 7247SOL    HW328755   0.946   0.573   1.106 -0.3292 -1.2180 -0.9536
 7247SOL    MW428756   0.978   0.493   1.121  0.4141 -0.6538  0.7209
 7248SOL     OW28757   4.782   2.673   0.407 -0.4770  0.8005 -0.2027
 7248SOL    HW228758   4.861   2.695   0.456 -0.5953 -0.0186  0.3858
 7248SOL    HW328759   4.799   2.704   0.318  1.2426 -0.9134 -0.5429
 7248SOL    MW428760   4.795   2.680   0.402 -0.2657  0.4663 -0.1699
 7249SOL     OW28761   4.774   5.229   3.915 -0.7685 -0.0579  0.1363
 7249SOL    HW228762   4.699   5.178   3.886 -0.2050  0.2566 -2.0862
 7249SOL    HW328763   4.838   5.219   3.844  1.3553 -0.4217  1.9989
 7249SOL    MW428764   4.773   5.221   3.902 -0.4139 -0.0644  0.0888
 7250SOL     OW28765   0.072   3.018   2.952 -0.4363  0.0448 -0.2233
 7250SOL    HW228766   0.110   3.031   2.865  0.5512 -1.6010 -0.0872
 7250SOL    HW328767   0.142   2.976   3.002 -0.8206  1.4124  1.5389
 7250SOL    MW428768   0.086   3.014   2.947 -0.3567  0.0081  0.0272
 7251SOL     OW28769   3.510   4.850   0.342 -0.1336  0.1251  0.0303
 7251SOL    HW228770   3.444   4.836   0.274 -0.7870  0.1524  0.6488
 7251SOL    HW328771   3.510   4.770   0.394  0.2325  0.1738  0.1136
 7251SOL    MW428772   3.501   4.838   0.340 -0.1715  0.1352  0.1229
 7252SOL     OW28773   1.903   1.908   2.846 -0.5474  0.5142 -0.1117
 7252SOL    HW228774   1.920   1.867   2.762 -0.0261 -2.4438  1.2971
 7252SOL    HW328775   1.966   1.868   2.906 -2.4370  0.7052  2.1539
 7252SOL    MW428776   1.913   1.898   2.843 -0.7279  0.1491  0.3731
 7253SOL     OW28777   3.536   5.288   4.607 -0.0984  0.1812  0.0633
 7253SOL    HW228778   3.612   5.347   4.605  0.2755 -0.2721 -2.0991
 7253SOL    HW328779   3.526   5.265   4.699  3.6518 -1.3362  0.2862
 7253SOL    MW428780   3.545   5.293   4.619  0.4457 -0.0788 -0.1926
 7254SOL     OW28781   1.555   0.818   4.842  0.2784  0.5264  0.5425
 7254SOL    HW228782   1.465   0.850   4.855 -0.1797 -1.5006  3.5182
 7254SOL    HW328783   1.598   0.835   4.926  1.1009 -2.9843  0.9650
 7254SOL    MW428784   1.548   0.825   4.855  0.3265 -0.2042  0.9909
 7255SOL     OW28785   0.583   2.475   3.184  0.1606 -0.6698  0.0705
 7255SOL    HW228786   0.563   2.386   3.157 -0.8698 -0.2579 -0.5515
 7255SOL    HW328787   0.499   2.513   3.210  0.5295  0.2394 -0.0153
 7255SOL    MW428788   0.569   2.468   3.184  0.0733 -0.4955 -0.0229
 7256SOL     OW28789   4.450   3.647   0.733  0.4052 -0.3038  0.1271
 7256SOL    HW228790   4.432   3.715   0.799 -0.7769  1.1525 -1.5969
 7256SOL    HW328791   4.420   3.686   0.651  2.7054 -1.6756 -1.4535
 7256SOL    MW428792   4.443   3.661   0.731  0.5527 -0.2926 -0.3089
 7257SOL     OW28793   6.250   5.510   2.326  0.1524  0.0305 -0.1392
 7257SOL    HW228794   6.293   5.595   2.341 -1.7293  0.7289  1.8801
 7257SOL    HW328795   6.284   5.454   2.395 -0.6676 -0.0007  0.2486
 7257SOL    MW428796   6.260   5.514   2.337 -0.2040  0.1185  0.1784
 7258SOL     OW28797   1.952   5.502   1.237  0.0834  0.2293 -0.3493
 7258SOL    HW228798   1.981   5.581   1.282  2.4708 -0.6488 -0.2280
 7258SOL    HW328799   1.923   5.533   1.151  0.5001  1.3025 -0.1169
 7258SOL    MW428800   1.952   5.516   1.231  0.4533  0.2551 -0.3026
 7259SOL     OW28801   1.900   1.076   4.968 -0.3781  0.0584 -0.6301
 7259SOL    HW228802   1.960   1.103   5.037 -0.4524  1.4042 -1.0550
 7259SOL    HW328803   1.839   1.016   5.010  0.6691 -0.5541  0.0342
 7259SOL    MW428804   1.900   1.072   4.982 -0.2497  0.1551 -0.5985
 7260SOL     OW28805   4.277   1.912   3.602  0.6261 -0.1839 -0.4277
 7260SOL    HW228806   4.341   1.878   3.664 -0.0714 -0.2383  0.2796
 7260SOL    HW328807   4.315   1.894   3.515  1.9332  0.5238 -0.0204
 7260SOL    MW428808   4.290   1.905   3.598  0.7066 -0.0977 -0.2807
 7261SOL     OW28809   6.418   4.804   0.751  0.0784  0.0956 -0.7072
 7261SOL    HW228810   6.340   4.787   0.804 -0.9394 -1.1752 -2.4871
 7261SOL    HW328811   6.456   4.717   0.737  0.9301  0.5288 -1.1279
 7261SOL    MW428812   6.413   4.790   0.756  0.0565 -0.0149 -0.9975
 7262SOL     OW28813   5.162   1.902   6.013  0.4452  0.1083 -0.2838
 7262SOL    HW228814   5.121   1.825   5.974  0.1394 -0.2164  0.6527
 7262SOL    HW328815   5.142   1.973   5.952  1.3773 -0.6719 -1.5539
 7262SOL    MW428816   5.154   1.901   6.000  0.5278 -0.0375 -0.3278
 7263SOL     OW28817   3.074   0.992   1.077 -0.0182 -0.0241 -0.2471
 7263SOL    HW228818   3.102   0.902   1.065 -0.1905  0.1180 -2.0369
 7263SOL    HW328819   3.044   0.997   1.168  0.5008 -1.6123  0.0273
 7263SOL    MW428820   3.074   0.981   1.087  0.0276 -0.2149 -0.4471
 7264SOL     OW28821   5.688   4.893   4.431 -0.1617 -0.1586 -0.0274
 7264SOL    HW228822   5.618   4.943   4.474 -1.5792 -2.0463 -0.0093
 7264SOL    HW328823   5.644   4.846   4.360  0.9737 -1.7897  0.2900
 7264SOL    MW428824   5.673   4.894   4.427 -0.1989 -0.6229  0.0169
 7265SOL     OW28825   1.050   5.758   6.280 -0.3415  0.2442 -0.0985
 7265SOL    HW228826   1.031   5.675   6.235 -1.2553  1.3084 -1.7631
 7265SOL    HW328827   1.099   5.732   6.358 -1.4388 -1.9450 -0.0597
 7265SOL    MW428828   1.054   5.743   6.284 -0.6068  0.0957 -0.3130
 7266SOL     OW28829   4.461   2.336   1.098  0.0304  0.3037 -0.7391
 7266SOL    HW228830   4.461   2.431   1.110  1.0730  0.1323  0.9692
 7266SOL    HW328831   4.435   2.301   1.184 -0.9869 -0.9664 -1.5184
 7266SOL    MW428832   4.457   2.344   1.111  0.0338  0.1135 -0.6165
 7267SOL     OW28833   0.158   0.626   3.920 -0.6550 -0.3131  0.6116
 7267SOL    HW228834   0.091   0.680   3.962 -1.5249 -0.0147 -1.0832
 7267SOL    HW328835   0.222   0.688   3.887 -1.8583 -0.2158 -1.6914
 7267SOL    MW428836   0.157   0.641   3.922 -0.9285 -0.2609  0.0841
 7268SOL     OW28837   6.061   4.905   0.545 -0.2795  0.0453  0.1942
 7268SOL    HW228838   6.050   4.937   0.456 -1.4176 -0.1008  0.2743
 7268SOL    HW328839   6.057   4.810   0.538 -0.5413  0.0384  0.4217
 7268SOL    MW428840   6.059   4.897   0.533 -0.4642  0.0251  0.2348
 7269SOL     OW28841   4.280   2.467   0.248  0.5646 -0.1456  0.2773
 7269SOL    HW228842   4.331   2.546   0.266 -0.1763  0.7534 -1.3572
 7269SOL    HW328843   4.215   2.464   0.319  2.1879 -0.7608  1.8150
 7269SOL    MW428844   4.278   2.477   0.260  0.6810 -0.1082  0.2646
 7270SOL     OW28845   2.053   0.140   3.786  0.1360  0.2907  0.5982
 7270SOL    HW228846   2.017   0.086   3.856  1.4986 -1.4436  0.0129
 7270SOL    HW328847   1.999   0.119   3.710  1.5985 -1.5078 -0.0144
 7270SOL    MW428848   2.041   0.130   3.785  0.5087 -0.1754  0.4402
 7271SOL     OW28849   4.729   0.344   5.735  0.1638 -0.4138  0.6635
 7271SOL    HW228850   4.689   0.430   5.730  2.8491  0.8812 -2.8438
 7271SOL    HW328851   4.707   0.312   5.822 -5.1695  1.5561  0.3934
 7271SOL    MW428852   4.721   0.351   5.746 -0.1856  0.0169  0.1651
 7272SOL     OW28853   6.356   0.437   6.197 -0.3023 -0.0451 -0.7392
 7272SOL    HW228854   6.283   0.473   6.246 -0.3718 -1.2506  0.0956
 7272SOL    HW328855   6.331   0.448   6.105 -2.0260 -1.3272 -0.4751
 7272SOL    MW428856   6.343   0.443   6.191 -0.5389 -0.3733 -0.5942
 7273SOL     OW28857   4.487   6.215   0.203  0.1685 -0.3910 -0.4536
 7273SOL    HW228858   4.449   6.273   0.137  0.6396 -0.9300 -1.2138
 7273SOL    HW328859   4.416   6.154   0.224 -0.6048  0.9259  0.9615
 7273SOL    MW428860   4.472   6.215   0.197  0.1286 -0.2884 -0.3672
 7274SOL     OW28861   2.070   1.016   6.245 -0.4214 -0.7528  0.2690
 7274SOL    HW228862   2.150   0.966   6.230  0.0811 -0.1078  0.7396
 7274SOL    HW328863   2.097   1.108   6.236 -0.8099 -0.4737  1.6776
 7274SOL    MW428864   2.084   1.022   6.242 -0.4063 -0.6309  0.5169
 7275SOL     OW28865   0.127   4.476   5.948 -0.1338 -0.3235 -0.0186
 7275SOL    HW228866   0.194   4.473   5.880  0.8167 -0.1867  0.8888
 7275SOL    HW328867   0.045   4.462   5.901  0.4733  0.0036 -1.2176
 7275SOL    MW428868   0.125   4.473   5.933  0.0717 -0.2623 -0.0571
 7276SOL     OW28869   6.166   2.006   4.994 -0.1359  0.2401  0.6817
 7276SOL    HW228870   6.251   2.039   4.964 -0.5727  1.0878  0.3550
 7276SOL    HW328871   6.163   2.028   5.087 -0.5002  1.3316  0.4305
 7276SOL    MW428872   6.177   2.013   5.002 -0.2416  0.4959  0.6054
 7277SOL     OW28873   0.009   0.556   3.692  0.4887  0.0380 -0.0849
 7277SOL    HW228874  -0.081   0.532   3.714 -0.4593  2.4304 -1.0203
 7277SOL    HW328875   0.051   0.572   3.777  0.2565 -1.6594  0.3860
 7277SOL    MW428876   0.003   0.555   3.707  0.3330  0.1297 -0.1462
 7278SOL     OW28877   1.595   2.179   3.667 -0.6601  0.3160 -0.3877
 7278SOL    HW228878   1.622   2.271   3.668  0.1960  0.0683 -0.0337
 7278SOL    HW328879   1.677   2.130   3.663 -1.1077 -0.4362 -0.5034
 7278SOL    MW428880   1.610   2.185   3.667 -0.6062  0.1841 -0.3563
 7279SOL     OW28881   5.547   5.673   5.761  0.2253 -0.2836 -0.3235
 7279SOL    HW228882   5.602   5.735   5.810  0.4232 -0.7027 -0.0116
 7279SOL    HW328883   5.461   5.678   5.804 -0.6373  1.9541 -2.1189
 7279SOL    MW428884   5.543   5.682   5.774  0.1376 -0.0437 -0.5192
 7280SOL     OW28885   6.048   5.744   3.935 -0.0213  0.6372  0.3109
 7280SOL    HW228886   5.963   5.733   3.892 -0.6165  0.7996  1.4304
 7280SOL    HW328887   6.097   5.801   3.875  0.1914 -1.3449 -1.5206
 7280SOL    MW428888   6.043   5.750   3.921 -0.0717  0.3971  0.2170
 7281SOL     OW28889   4.547   4.772   2.985 -0.4648  0.7425  0.1339
 7281SOL    HW228890   4.462   4.804   2.952 -0.9109 -0.5736 -0.0648
 7281SOL    HW328891   4.532   4.756   3.078 -1.4547 -2.5123 -0.4852
 7281SOL    MW428892   4.534   4.774   2.993 -0.6542  0.1394  0.0260
 7282SOL     OW28893   5.368   2.024   4.070  0.1480  0.3414 -0.2287
 7282SOL    HW228894   5.410   2.064   3.994  1.2283  0.9316  0.6400
 7282SOL    HW328895   5.320   2.096   4.111 -1.4418 -0.2315 -0.9704
 7282SOL    MW428896   5.367   2.039   4.065  0.0808  0.3437 -0.2120
 7283SOL     OW28897   2.624   5.997   5.664 -0.2581  0.5653 -0.1842
 7283SOL    HW228898   2.645   5.977   5.573 -0.0523 -0.4868  0.0840
 7283SOL    HW328899   2.697   6.052   5.693  0.8350 -0.8812 -0.0389
 7283SOL    MW428900   2.637   6.001   5.656 -0.0868  0.2357 -0.1296
 7284SOL     OW28901   1.365   0.561   5.988  0.4260 -0.1462 -0.4046
 7284SOL    HW228902   1.460   0.549   5.991  0.3369 -0.8031  2.1467
 7284SOL    HW328903   1.350   0.612   5.909  2.9695  0.5541 -0.5324
 7284SOL    MW428904   1.375   0.566   5.978  0.7498 -0.1405 -0.0849
 7285SOL     OW28905   1.328   3.073   3.595  0.1441 -0.1369 -0.7494
 7285SOL    HW228906   1.323   3.103   3.686  1.4993  1.9920 -1.3045
 7285SOL    HW328907   1.246   3.026   3.580 -1.1227  1.4244  0.9066
 7285SOL    MW428908   1.317   3.070   3.605  0.1558  0.3500 -0.6041
 7286SOL     OW28909   5.289   1.593   1.727  0.6164  0.3286  0.1307
 7286SOL    HW228910   5.206   1.631   1.754  0.6214  1.9434 -1.8242
 7286SOL    HW328911   5.280   1.499   1.742 -1.6264  0.4485 -0.1921
 7286SOL    MW428912   5.277   1.586   1.732  0.3212  0.5575 -0.1698
 7287SOL     OW28913   0.645   3.591   2.512  0.0892 -0.4970 -0.0698
 7287SOL    HW228914   0.605   3.672   2.481 -0.2469 -0.4729  0.4311
 7287SOL    HW328915   0.702   3.618   2.584  1.4367 -0.4544 -1.0914
 7287SOL    MW428916   0.647   3.605   2.517  0.2226 -0.4882 -0.1385
 7288SOL     OW28917   3.533   0.873   3.812  0.3549 -0.3959 -0.9250
 7288SOL    HW228918   3.617   0.837   3.840 -0.2742 -1.4795 -0.3817
 7288SOL    HW328919   3.544   0.889   3.718  1.3706  0.0715 -0.7358
 7288SOL    MW428920   3.546   0.870   3.803  0.4059 -0.4772 -0.8284
 7289SOL     OW28921   4.902   2.210   2.579 -0.2487  0.4850  0.0415
 7289SOL    HW228922   4.975   2.157   2.611  0.3634 -0.0135 -2.0170
 7289SOL    HW328923   4.881   2.268   2.651  1.3465 -0.2354  1.1427
 7289SOL    MW428924   4.909   2.211   2.592  0.0426  0.3242 -0.0848
 7290SOL     OW28925   1.962   2.197   6.237  0.0620  0.0365  0.8213
 7290SOL    HW228926   1.876   2.204   6.195 -0.7336 -2.0084  1.9703
 7290SOL    HW328927   2.015   2.264   6.194 -2.5741  2.6617  1.3456
 7290SOL    MW428928   1.958   2.207   6.226 -0.3908  0.1130  1.0421
 7291SOL     OW28929   2.614   6.074   1.741  0.4768  0.3912  0.2583
 7291SOL    HW228930   2.647   6.153   1.698 -0.6728  0.4271 -0.6319
 7291SOL    HW328931   2.691   6.018   1.753  0.8526  0.3169 -2.0427
 7291SOL    MW428932   2.628   6.077   1.737  0.3747  0.3861 -0.1628
 7292SOL     OW28933   4.863   3.727   0.568  0.7638 -0.1697  0.0237
 7292SOL    HW228934   4.774   3.757   0.549  0.0418 -1.7436  0.8014
 7292SOL    HW328935   4.873   3.738   0.662  0.8365 -1.4011  0.1722
 7292SOL    MW428936   4.853   3.733   0.578  0.6781 -0.5398  0.1459
 7293SOL     OW28937   0.092   3.257   3.111  0.0180  0.0724  0.1785
 7293SOL    HW228938   0.081   3.181   3.054 -0.9484  2.3825 -2.9901
 7293SOL    HW328939   0.013   3.259   3.165 -0.1514 -0.9174 -0.0281
 7293SOL    MW428940   0.080   3.248   3.111 -0.1318  0.2466 -0.2668
 7294SOL     OW28941   6.126   5.230   5.623  0.2851  0.4545  0.2900
 7294SOL    HW228942   6.107   5.162   5.559  0.2893  0.9411 -0.2435
 7294SOL    HW328943   6.042   5.247   5.665  0.4172 -0.3342  0.8917
 7294SOL    MW428944   6.112   5.224   5.620  0.3031  0.4147  0.2990
 7295SOL     OW28945   1.478   2.588   6.118  0.1609  0.1307  0.3258
 7295SOL    HW228946   1.435   2.667   6.087 -1.7446 -1.2405 -0.7329
 7295SOL    HW328947   1.548   2.572   6.054  0.5133  0.8881  0.5091
 7295SOL    MW428948   1.482   2.596   6.105 -0.0440  0.0498  0.2103
 7296SOL     OW28949   2.217   1.859   4.096 -0.5599 -0.1091  0.5819
 7296SOL    HW228950   2.174   1.839   4.179  1.7002 -1.3912  1.5490
 7296SOL    HW328951   2.238   1.952   4.102 -0.9341 -0.0588  1.2000
 7296SOL    MW428952   2.214   1.868   4.108 -0.3110 -0.2716  0.7911
 7297SOL     OW28953   5.345   3.534   2.537  0.0081  0.0073  0.5893
 7297SOL    HW228954   5.321   3.479   2.462  1.7813 -0.5032  0.3577
 7297SOL    HW328955   5.365   3.471   2.607  0.7423  0.3977  0.7334
 7297SOL    MW428956   5.344   3.518   2.536  0.3389 -0.0085  0.5778
 7298SOL     OW28957   4.631   6.093   6.290 -0.4016  0.0171 -0.0992
 7298SOL    HW228958   4.656   6.084   6.382 -1.9778 -1.7897  0.2126
 7298SOL    HW328959   4.710   6.126   6.247  0.2141  1.3970  1.9572
 7298SOL    MW428960   4.645   6.096   6.296 -0.5283 -0.0392  0.2133
 7299SOL     OW28961   5.212   6.370   3.515 -0.4498 -0.3489  0.1170
 7299SOL    HW228962   5.144   6.340   3.454 -0.6678 -0.8856  0.6168
 7299SOL    HW328963   5.294   6.360   3.467 -0.8393  2.3387 -1.3213
 7299SOL    MW428964   5.214   6.365   3.501 -0.5300 -0.0651 -0.0068
 7300SOL     OW28965   6.346   2.788   0.473  0.2668 -0.2458  0.0259
 7300SOL    HW228966   6.329   2.736   0.552  0.1924  0.7351  0.6764
 7300SOL    HW328967   6.391   2.867   0.505 -1.0175  0.8370 -0.7075
 7300SOL    MW428968   6.350   2.792   0.488  0.0875  0.0265  0.0149
 7301SOL     OW28969   2.466   0.051   4.184 -0.2793  0.5126  0.4145
 7301SOL    HW228970   2.487   0.062   4.091 -0.3701 -1.1725  0.1673
 7301SOL    HW328971   2.381   0.093   4.194 -0.6606 -0.0083 -0.4630
 7301SOL    MW428972   2.457   0.058   4.173 -0.3416  0.2216  0.2661
 7302SOL     OW28973   5.123   4.858   0.076 -0.1979  0.6804 -0.4211
 7302SOL    HW228974   5.154   4.949   0.072  0.8210  0.3682 -0.0048
 7302SOL    HW328975   5.089   4.849   0.164  1.3395  0.1826  0.1656
 7302SOL    MW428976   5.123   4.869   0.087  0.1393  0.5735 -0.2888
 7303SOL     OW28977   6.246   2.857   6.172 -0.0338 -0.4781 -0.0032
 7303SOL    HW228978   6.228   2.929   6.233 -0.5137  1.0901 -1.8908
 7303SOL    HW328979   6.340   2.862   6.156 -0.0800 -0.1967 -0.1967
 7303SOL    MW428980   6.256   2.867   6.178 -0.1032 -0.2340 -0.2778
 7304SOL     OW28981   5.625   0.030   1.638 -0.3938 -0.6039  0.1267
 7304SOL    HW228982   5.676   0.087   1.580 -0.1382 -0.4312  0.5180
 7304SOL    HW328983   5.557  -0.006   1.582 -1.8819  1.7106  0.3186
 7304SOL    MW428984   5.623   0.033   1.623 -0.5564 -0.2757  0.2036
 7305SOL     OW28985   3.013   1.247   5.319  0.0100  0.0946 -0.5194
 7305SOL    HW228986   3.096   1.267   5.275  0.0862  0.1763 -0.3423
 7305SOL    HW328987   3.009   1.152   5.319  0.9456  0.0075  0.9766
 7305SOL    MW428988   3.024   1.237   5.313  0.1435  0.0939 -0.2986
 7306SOL     OW28989   3.764   1.743   6.413 -0.6050  0.2605 -0.7537
 7306SOL    HW228990   3.685   1.791   6.385 -1.0809  0.9443  1.5898
 7306SOL    HW328991   3.739   1.651   6.406 -2.2335  0.4600  1.4175
 7306SOL    MW428992   3.750   1.737   6.408 -0.8827  0.3770 -0.1581
 7307SOL     OW28993   4.006   2.023   1.234  0.1216  0.7716 -0.3804
 7307SOL    HW228994   3.938   1.978   1.284  0.9150  0.2937  0.2838
 7307SOL    HW328995   3.958   2.066   1.162 -0.5047 -2.9124 -2.4022
 7307SOL    MW428996   3.990   2.023   1.231  0.1436  0.2225 -0.5595
 7308SOL     OW28997   3.198   1.633   3.613  0.0390  0.3256 -0.1305
 7308SOL    HW228998   3.269   1.585   3.569 -1.3082 -2.0848  0.1529
 7308SOL    HW328999   3.128   1.636   3.548 -0.8544 -0.5117  0.7679
 7308SOL    MW429000   3.198   1.627   3.599 -0.2566 -0.1029  0.0254
 7309SOL     OW29001   5.695   0.315   0.244  0.4651  0.3698  0.4182
 7309SOL    HW229002   5.710   0.355   0.330  0.1962  0.1900  0.5501
 7309SOL    HW329003   5.601   0.320   0.231  0.6599  1.9256 -0.6190
 7309SOL    MW429004   5.685   0.321   0.254  0.4553  0.5514  0.2988
 7310SOL     OW29005   0.054   1.203   6.444 -0.2286 -0.1900 -0.0394
 7310SOL    HW229006   0.104   1.126   6.472  0.8109  0.0883 -1.0356
 7310SOL    HW329007  -0.033   1.191   6.482  0.3375 -1.1350  1.0110
 7310SOL    MW429008   0.049   1.191   6.453 -0.0168 -0.2779 -0.0323
 7311SOL     OW29009   6.431   0.237   0.384 -0.0024 -0.5045  0.0018
 7311SOL    HW229010   6.515   0.283   0.391 -0.6678  0.8687 -0.5548
 7311SOL    HW329011   6.454   0.149   0.355  1.2856 -0.3672  0.5164
 7311SOL    MW429012   6.445   0.232   0.381  0.0798 -0.3052 -0.0037
 7312SOL     OW29013   4.992   0.718   0.164 -0.1289 -0.0786 -0.0579
 7312SOL    HW229014   5.044   0.678   0.234 -1.4584 -3.3154 -0.7819
 7312SOL    HW329015   5.049   0.715   0.088 -0.0800 -0.1751 -0.0176
 7312SOL    MW429016   5.007   0.713   0.163 -0.2978 -0.5184 -0.1481
 7313SOL     OW29017   6.412   1.068   4.950 -0.5765 -0.2711 -0.3631
 7313SOL    HW229018   6.409   1.147   4.896 -0.2813 -1.0492 -1.5856
 7313SOL    HW329019   6.499   1.031   4.933  0.8142  1.0434  3.0989
 7313SOL    MW429020   6.423   1.073   4.940 -0.3540 -0.2003 -0.0676
 7314SOL     OW29021   4.613   3.735   3.999 -0.2012  0.5022  0.5130
 7314SOL    HW229022   4.686   3.794   3.978  0.3752  0.3158  1.8557
 7314SOL    HW329023   4.634   3.654   3.955 -0.6178  1.0562 -0.7367
 7314SOL    MW429024   4.625   3.732   3.991 -0.1801  0.5507  0.5253
 7315SOL     OW29025   2.111   3.247   4.638 -0.2892 -0.3157  0.2880
 7315SOL    HW229026   2.039   3.309   4.631  0.3945  0.6802  1.6823
 7315SOL    HW329027   2.111   3.220   4.729  0.0625 -1.6206 -0.0771
 7315SOL    MW429028   2.102   3.252   4.649 -0.1526 -0.3565  0.4238
 7316SOL     OW29029   1.525   0.290   3.355  0.0385  0.0114  0.1088
 7316SOL    HW229030   1.556   0.352   3.289  2.5918 -1.3491 -0.0978
 7316SOL    HW329031   1.460   0.237   3.308  1.1126 -0.3170 -1.0747
 7316SOL    MW429032   1.520   0.291   3.340  0.5171 -0.2115 -0.0746
 7317SOL     OW29033   6.165   6.193   6.077 -0.1346  0.1152  0.6355
 7317SOL    HW229034   6.163   6.264   6.141  0.8135 -0.0486  0.8738
 7317SOL    HW329035   6.252   6.154   6.089  0.1396  0.2148 -0.9008
 7317SOL    MW429036   6.176   6.197   6.087  0.0266  0.1067  0.4642
 7318SOL     OW29037   5.734   3.276   0.838  0.1464 -0.1037  0.3150
 7318SOL    HW229038   5.725   3.301   0.746  0.6216 -2.4138 -0.4361
 7318SOL    HW329039   5.766   3.186   0.835  1.0613  0.0579  2.7613
 7318SOL    MW429040   5.737   3.267   0.825  0.3298 -0.3872  0.5387
 7319SOL     OW29041   0.031   2.215   6.163 -0.3840 -0.2989  0.4039
 7319SOL    HW229042   0.119   2.200   6.128  0.1881  1.9776  0.6913
 7319SOL    HW329043   0.009   2.133   6.208  1.0263 -1.3819 -0.7712
 7319SOL    MW429044   0.040   2.202   6.164 -0.1225 -0.1414  0.2868
 7320SOL     OW29045   2.935   5.087   2.385  0.2287 -0.3984  0.0545
 7320SOL    HW229046   2.847   5.091   2.422  0.1879 -0.3306 -0.0484
 7320SOL    HW329047   2.921   5.060   2.294  0.3815 -1.3723  0.3045
 7320SOL    MW429048   2.922   5.084   2.378  0.2435 -0.5180  0.0739
 7321SOL     OW29049   5.200   2.074   4.797 -0.1721  0.1534 -0.0061
 7321SOL    HW229050   5.218   1.981   4.791  1.9894  0.5066  0.1416
 7321SOL    HW329051   5.114   2.080   4.838 -0.4385 -1.7587 -0.2229
 7321SOL    MW429052   5.191   2.063   4.802  0.0779 -0.0523 -0.0152
 7322SOL     OW29053   5.711   1.047   6.276 -0.6089 -0.3430  0.4500
 7322SOL    HW229054   5.691   1.141   6.277  0.6508 -0.0071 -1.1211
 7322SOL    HW329055   5.794   1.041   6.322 -0.9659 -0.7765  1.0399
 7322SOL    MW429056   5.719   1.059   6.282 -0.4898 -0.3559  0.3206
 7323SOL     OW29057   2.206   4.572   1.623 -0.2974 -0.1369 -0.2602
 7323SOL    HW229058   2.138   4.614   1.572  0.9906  1.6644 -0.5803
 7323SOL    HW329059   2.241   4.504   1.565  0.4978  1.2423 -1.4543
 7323SOL    MW429060   2.202   4.568   1.609 -0.0226  0.2828 -0.4600
 7324SOL     OW29061   5.293   4.747   3.506  0.4297 -0.5756  0.2192
 7324SOL    HW229062   5.248   4.696   3.439  1.1391 -0.1845 -0.5762
 7324SOL    HW329063   5.228   4.811   3.535  0.3189 -0.3224 -0.5686
 7324SOL    MW429064   5.279   4.748   3.501  0.5087 -0.4906  0.0103
 7325SOL     OW29065   1.115   0.253   0.770 -0.3861  0.2824 -0.2759
 7325SOL    HW229066   1.147   0.279   0.857  0.7149 -0.5282 -0.4272
 7325SOL    HW329067   1.022   0.232   0.785  0.0884 -1.0952  0.9953
 7325SOL    MW429068   1.107   0.254   0.784 -0.1782 -0.0063 -0.1282
 7326SOL     OW29069   0.267   5.694   4.823 -0.1375 -0.2860 -0.2253
 7326SOL    HW229070   0.355   5.727   4.805 -0.7474  0.6705 -1.6083
 7326SOL    HW329071   0.279   5.631   4.894  1.4795  0.7483  0.4649
 7326SOL    MW429072   0.280   5.690   4.830 -0.0046 -0.0234 -0.3167
 7327SOL     OW29073   5.584   5.273   6.487 -0.0041  0.9575  0.5968
 7327SOL    HW229074   5.609   5.317   6.568 -0.3737  1.8444  0.2378
 7327SOL    HW329075   5.643   5.198   6.481  1.8861  2.3992  0.2896
 7327SOL    MW429076   5.595   5.269   6.497  0.1966  1.2647  0.5089
 7328SOL     OW29077   1.402   5.035   0.668  0.2864 -0.0117 -0.1590
 7328SOL    HW229078   1.326   5.077   0.709  0.3038  1.1291 -1.2315
 7328SOL    HW329079   1.476   5.089   0.694  0.5647 -0.4254 -0.0916
 7328SOL    MW429080   1.402   5.048   0.677  0.3254  0.0843 -0.2916
 7329SOL     OW29081   1.518   4.233   5.717 -0.4752  0.6614 -0.2180
 7329SOL    HW229082   1.542   4.226   5.625  1.5826  0.0112  0.2943
 7329SOL    HW329083   1.532   4.144   5.752  0.7922  1.3360  1.1053
 7329SOL    MW429084   1.523   4.220   5.710 -0.0365  0.6646  0.0242
 7330SOL     OW29085   2.896   4.263   2.492 -0.0774  0.3280 -0.2555
 7330SOL    HW229086   2.984   4.281   2.460 -0.2351 -1.0201 -1.5875
 7330SOL    HW329087   2.895   4.169   2.508 -2.0107 -0.2469 -2.9891
 7330SOL    MW429088   2.907   4.253   2.490 -0.3533  0.0743 -0.7919
 7331SOL     OW29089   4.278   4.653   0.416 -0.3060 -0.2358  0.1228
 7331SOL    HW229090   4.361   4.607   0.407 -0.9636 -1.1898 -1.4463
 7331SOL    HW329091   4.288   4.704   0.496  1.2434 -1.4640  0.7754
 7331SOL    MW429092   4.290   4.653   0.426 -0.1884 -0.5237  0.0019
 7332SOL     OW29093   5.716   2.566   4.657  0.6040  0.6874 -0.1118
 7332SOL    HW229094   5.676   2.620   4.590 -0.4421  0.7664  0.5652
 7332SOL    HW329095   5.656   2.492   4.668  1.3346  0.0807 -0.0628
 7332SOL    MW429096   5.703   2.563   4.649  0.5624  0.6178 -0.0160
 7333SOL     OW29097   0.068   5.326   3.499 -0.0098  0.0970  0.0237
 7333SOL    HW229098   0.124   5.312   3.575 -1.8063  1.6218  1.7439
 7333SOL    HW329099   0.084   5.417   3.474 -1.0565  0.2958  0.0183
 7333SOL    MW429100   0.077   5.336   3.506 -0.3850  0.3244  0.2499
 7334SOL     OW29101   1.442   3.775   1.261 -0.1111 -0.3307  0.3307
 7334SOL    HW229102   1.482   3.689   1.273 -0.1821 -0.6292 -1.3170
 7334SOL    HW329103   1.390   3.766   1.181 -0.1863  1.2284  0.1829
 7334SOL    MW429104   1.440   3.762   1.252 -0.1304 -0.1644  0.0938
 7335SOL     OW29105   3.888   0.610   5.905  0.5769  0.8155 -0.2550
 7335SOL    HW229106   3.950   0.548   5.942  2.6344  1.9019 -1.6521
 7335SOL    HW329107   3.922   0.696   5.931 -1.9477  1.4432  1.2570
 7335SOL    MW429108   3.901   0.613   5.913  0.5153  1.0417 -0.2399
 7336SOL     OW29109   1.577   2.193   0.849 -0.6337 -0.1554  0.1675
 7336SOL    HW229110   1.517   2.155   0.914  0.3961 -0.2736  1.0833
 7336SOL    HW329111   1.561   2.144   0.769 -2.9800  0.9490 -0.1372
 7336SOL    MW429112   1.567   2.182   0.847 -0.8074 -0.0253  0.2481
 7337SOL     OW29113   2.894   1.916   1.681  0.2551 -0.1218  0.1669
 7337SOL    HW229114   2.865   1.846   1.623 -0.0497 -1.8442  2.2583
 7337SOL    HW329115   2.987   1.901   1.693  0.2264 -0.0658  0.4781
 7337SOL    MW429116   2.902   1.905   1.675  0.2111 -0.3416  0.4839
 7338SOL     OW29117   6.053   5.994   1.579 -0.1640 -0.5271 -0.1801
 7338SOL    HW229118   6.070   5.915   1.629  0.8310 -0.2854 -0.1222
 7338SOL    HW329119   6.083   5.973   1.490  0.8368  0.0350  0.0126
 7338SOL    MW429120   6.059   5.981   1.574  0.0993 -0.4210 -0.1470
 7339SOL     OW29121   4.912   4.128   4.374 -0.0745  0.1177 -0.0042
 7339SOL    HW229122   4.993   4.086   4.342  0.1151  0.6835 -0.2809
 7339SOL    HW329123   4.936   4.164   4.460 -0.5948 -1.4348  0.8267
 7339SOL    MW429124   4.926   4.127   4.381 -0.1182 -0.0125  0.0689
 7340SOL     OW29125   3.769   4.053   3.822 -0.3813 -0.1693  0.1759
 7340SOL    HW229126   3.844   4.011   3.778 -0.0780 -1.1069  1.5206
 7340SOL    HW329127   3.695   4.035   3.765  0.3400  0.4464 -0.9930
 7340SOL    MW429128   3.769   4.045   3.809 -0.2461 -0.2118  0.1991
 7341SOL     OW29129   4.162   3.080   0.693  0.0710  0.2762 -0.1338
 7341SOL    HW229130   4.109   3.160   0.685  0.4167  0.4989 -0.2266
 7341SOL    HW329131   4.237   3.096   0.636 -0.6312 -0.7591 -1.4311
 7341SOL    MW429132   4.165   3.093   0.684  0.0239  0.1690 -0.3172
 7342SOL     OW29133   1.897   1.249   2.489 -0.4043 -0.4037  0.5934
 7342SOL    HW229134   1.865   1.281   2.405 -0.2592 -0.9332  0.3298
 7342SOL    HW329135   1.825   1.262   2.550 -0.0825  1.1517  0.6837
 7342SOL    MW429136   1.883   1.255   2.486 -0.3427 -0.2683  0.5705
 7343SOL     OW29137   5.221   4.293   2.333 -0.3496 -0.3762 -0.0813
 7343SOL    HW229138   5.272   4.294   2.414 -1.6621  1.8740  0.7903
 7343SOL    HW329139   5.216   4.385   2.306 -4.2728 -0.3564  0.1461
 7343SOL    MW429140   5.227   4.305   2.340 -1.0404 -0.0767  0.0637
 7344SOL     OW29141   1.595   5.174   0.841 -0.2820  0.3701  0.1515
 7344SOL    HW229142   1.663   5.226   0.883  0.2661 -0.1478 -0.0860
 7344SOL    HW329143   1.516   5.192   0.893 -0.0092  1.0918  0.3329
 7344SOL    MW429144   1.593   5.183   0.853 -0.1737  0.3970  0.1441
 7345SOL     OW29145   2.294   0.846   6.229 -0.4216 -0.3659  0.3909
 7345SOL    HW229146   2.370   0.885   6.272 -1.2617  1.3434  0.4003
 7345SOL    HW329147   2.314   0.752   6.226  1.0727 -0.1283  1.6074
 7345SOL    MW429148   2.307   0.839   6.234 -0.3353 -0.1090  0.5527
 7346SOL     OW29149   2.097   3.941   0.116 -0.0553 -0.3075  0.1986
 7346SOL    HW229150   2.089   3.862   0.169 -0.9225  0.2826  0.9736
 7346SOL    HW329151   2.191   3.959   0.112  0.0350 -0.4531  1.4139
 7346SOL    MW429152   2.109   3.933   0.122 -0.1578 -0.2488  0.4612
 7347SOL     OW29153   1.894   0.797   6.189  0.3884  0.4008 -0.0724
 7347SOL    HW229154   1.930   0.741   6.120 -2.9616 -0.7711 -1.0467
 7347SOL    HW329155   1.949   0.875   6.187  1.8246 -0.5604 -2.5131
 7347SOL    MW429156   1.906   0.800   6.180  0.1359  0.1194 -0.5230
 7348SOL     OW29157   2.103   5.226   1.821  0.3698 -0.0587  0.1305
 7348SOL    HW229158   2.117   5.290   1.891 -0.4967 -0.6060  0.8161
 7348SOL    HW329159   2.012   5.201   1.829  0.6461 -1.2414 -0.2606
 7348SOL    MW429160   2.093   5.231   1.831  0.2919 -0.2870  0.1693
 7349SOL     OW29161   4.078   6.106   4.664  0.2881  0.1203 -0.0281
 7349SOL    HW229162   4.143   6.099   4.594  1.3567  1.4117  0.7872
 7349SOL    HW329163   4.069   6.200   4.678 -1.0689 -0.0819  0.5217
 7349SOL    MW429164   4.086   6.118   4.656  0.2500  0.2640  0.1520
 7350SOL     OW29165   0.818   4.564   0.147  0.5818 -0.2911 -0.0723
 7350SOL    HW229166   0.895   4.618   0.126  0.1919  0.8363  1.1718
 7350SOL    HW329167   0.771   4.616   0.213 -1.5372 -0.7052 -1.1734
 7350SOL    MW429168   0.822   4.578   0.153  0.2508 -0.1970 -0.0534
 7351SOL     OW29169   2.018   6.194   2.740 -0.1343 -0.5633  0.5778
 7351SOL    HW229170   2.065   6.130   2.794 -0.3774 -1.4118 -0.1996
 7351SOL    HW329171   1.956   6.235   2.800 -0.8698 -1.9727  0.8136
 7351SOL    MW429172   2.016   6.191   2.755 -0.2634 -0.8612  0.5063
 7352SOL     OW29173   4.253   1.682   0.112 -0.5801  0.1178 -0.6465
 7352SOL    HW229174   4.182   1.745   0.129  1.0792  1.6878  0.9380
 7352SOL    HW329175   4.209   1.597   0.107 -2.7105  1.1700 -1.0899
 7352SOL    MW429176   4.238   1.679   0.113 -0.6422  0.4637 -0.4959
 7353SOL     OW29177   2.902   3.556   0.627 -0.1810 -0.1964 -0.8485
 7353SOL    HW229178   2.817   3.515   0.641  0.2315 -1.1559 -1.0369
 7353SOL    HW329179   2.912   3.559   0.532  0.3094 -0.7836 -0.8223
 7353SOL    MW429180   2.892   3.551   0.617 -0.0619 -0.4005 -0.8699
 7354SOL     OW29181   1.880   1.392   6.164  0.0577 -0.1975 -0.1952
 7354SOL    HW229182   1.834   1.310   6.178  0.8797 -0.5645  0.4478
 7354SOL    HW329183   1.811   1.457   6.150 -0.6193 -0.8523  0.0883
 7354SOL    MW429184   1.865   1.390   6.164  0.0769 -0.3324 -0.0730
 7355SOL     OW29185   1.348   4.577   6.154  0.6006  0.3936 -0.2649
 7355SOL    HW229186   1.268   4.538   6.190 -0.9547  1.6574 -2.1356
 7355SOL    HW329187   1.390   4.620   6.229 -0.5272 -0.2013  0.7368
 7355SOL    MW429188   1.343   4.578   6.169  0.2466  0.4819 -0.3795
 7356SOL     OW29189   5.921   5.444   0.795 -0.0372 -0.2980  0.3939
 7356SOL    HW229190   5.877   5.506   0.736 -0.1176 -0.3944  0.3534
 7356SOL    HW329191   5.862   5.370   0.800 -0.1535 -0.1769  0.8088
 7356SOL    MW429192   5.907   5.443   0.788 -0.0631 -0.2947  0.4433
 7357SOL     OW29193   4.139   6.322   4.046  0.0904 -0.1085  0.0428
 7357SOL    HW229194   4.223   6.366   4.043  2.0495 -3.3863  1.7269
 7357SOL    HW329195   4.148   6.247   3.987 -1.6549 -0.4866  0.1834
 7357SOL    MW429196   4.151   6.318   4.038  0.1186 -0.5908  0.2836
 7358SOL     OW29197   6.154   3.320   3.085  0.1602 -0.5242 -0.3356
 7358SOL    HW229198   6.202   3.293   3.006  1.7295  1.2500 -0.0654
 7358SOL    HW329199   6.084   3.255   3.093 -0.0879 -0.7779 -3.1946
 7358SOL    MW429200   6.151   3.308   3.075  0.3346 -0.3236 -0.6771
 7359SOL     OW29201   3.587   6.186   4.933  0.0864 -0.1522 -0.2233
 7359SOL    HW229202   3.680   6.210   4.928  0.7116 -2.0886  1.1002
 7359SOL    HW329203   3.551   6.248   4.996  0.2018  1.3007 -1.5327
 7359SOL    MW429204   3.595   6.198   4.941  0.1841 -0.2160 -0.2215
 7360SOL     OW29205   1.993   4.600   5.199  0.5255 -0.0110  0.0815
 7360SOL    HW229206   1.988   4.521   5.252 -1.5087 -0.7877 -1.1680
 7360SOL    HW329207   1.947   4.579   5.118  0.5023  2.2401 -0.5853
 7360SOL    MW429208   1.986   4.587   5.196  0.2540  0.1836 -0.1714
 7361SOL     OW29209   2.105   5.994   4.839 -0.2161  0.2430  0.4775
 7361SOL    HW229210   2.136   5.936   4.770  0.7876  1.1434  0.1479
 7361SOL    HW329211   2.184   6.019   4.888 -0.7183  0.7485  1.0550
 7361SOL    MW429212   2.119   5.990   4.837 -0.1499  0.4285  0.5102
 7362SOL     OW29213   5.735   4.423   1.332 -0.0099 -0.4254 -0.1635
 7362SOL    HW229214   5.825   4.415   1.302  0.1444  0.6010 -0.0079
 7362SOL    HW329215   5.705   4.332   1.342 -0.1103 -0.8705 -3.4473
 7362SOL    MW429216   5.743   4.410   1.330 -0.0028 -0.3487 -0.5763
 7363SOL     OW29217   5.293   6.420   1.294  0.0739 -0.1453  0.3102
 7363SOL    HW229218   5.334   6.503   1.269  0.5360 -0.5696 -0.3597
 7363SOL    HW329219   5.208   6.446   1.330 -0.0198  0.5866 -0.4028
 7363SOL    MW429220   5.287   6.435   1.295  0.1225 -0.1047  0.1277
 7364SOL     OW29221   5.044   2.495   2.194  0.5145  0.0438 -0.2488
 7364SOL    HW229222   5.048   2.467   2.285  0.4865  0.7037 -0.0340
 7364SOL    HW329223   4.993   2.577   2.196 -0.3517 -0.4588 -0.9923
 7364SOL    MW429224   5.038   2.502   2.206  0.3965  0.0646 -0.3186
 7365SOL     OW29225   0.875   5.275   4.414  0.4153 -0.3781  0.3553
 7365SOL    HW229226   0.906   5.188   4.439  1.2523 -0.5791 -1.2906
 7365SOL    HW329227   0.951   5.317   4.376  0.0895  1.2037  1.3634
 7365SOL    MW429228   0.889   5.269   4.412  0.4827 -0.1959  0.2711
 7366SOL     OW29229   1.997   1.119   3.066 -0.0172 -0.2065 -0.1368
 7366SOL    HW229230   1.941   1.111   3.143 -0.2879  0.2340 -0.2825
 7366SOL    HW329231   2.006   1.029   3.033  0.4087 -0.4480  0.6144
 7366SOL    MW429232   1.991   1.106   3.072  0.0033 -0.1802 -0.0569
 7367SOL     OW29233   1.399   6.418   1.501 -0.4737 -0.0128 -0.1274
 7367SOL    HW229234   1.469   6.481   1.521 -0.4721  0.1338 -0.5826
 7367SOL    HW329235   1.357   6.402   1.585 -0.9435  1.1586 -0.1113
 7367SOL    MW429236   1.403   6.424   1.515 -0.5355  0.1611 -0.1853
 7368SOL     OW29237   4.354   6.341   2.631  0.1204  0.0871  0.5758
 7368SOL    HW229238   4.390   6.429   2.628 -1.0098  0.5524 -1.1912
 7368SOL    HW329239   4.304   6.338   2.712 -1.6380  1.9065 -0.3470
 7368SOL    MW429240   4.352   6.352   2.641 -0.2607  0.3886  0.2209
 7369SOL     OW29241   2.402   4.831   2.581 -0.0392 -0.2916 -0.3385
 7369SOL    HW229242   2.412   4.898   2.513  2.4624 -0.3105 -0.0778
 7369SOL    HW329243   2.392   4.749   2.532 -0.7012 -0.0267 -0.6583
 7369SOL    MW429244   2.402   4.829   2.565  0.2035 -0.2591 -0.3463
 7370SOL     OW29245   2.277   0.406   5.919  0.2928 -0.2784  0.2296
 7370SOL    HW229246   2.210   0.407   5.987 -1.0722 -1.5223 -1.0172
 7370SOL    HW329247   2.289   0.498   5.897 -1.6684 -0.0387 -0.0725
 7370SOL    MW429248   2.270   0.418   5.925 -0.1460 -0.4109  0.0252
 7371SOL     OW29249   3.627   5.875   0.455  0.0701 -0.3515 -0.0838
 7371SOL    HW229250   3.548   5.923   0.481  0.5034 -0.5394  1.7394
 7371SOL    HW329251   3.692   5.899   0.521  0.6397 -2.5373  0.2221
 7371SOL    MW429252   3.625   5.885   0.467  0.2025 -0.6647  0.1971
 7372SOL     OW29253   4.220   5.730   3.330  0.3005  0.0383  0.2459
 7372SOL    HW229254   4.269   5.708   3.250  0.8398  2.1533 -0.0760
 7372SOL    HW329255   4.266   5.684   3.400  0.5024 -0.9455 -0.5138
 7372SOL    MW429256   4.233   5.721   3.328  0.3983  0.1876  0.1032
 7373SOL     OW29257   0.640   6.172   2.354 -0.1540  0.5348  0.1475
 7373SOL    HW229258   0.698   6.169   2.430  2.2170  1.8607 -1.4728
 7373SOL    HW329259   0.555   6.143   2.387  0.7809  0.9935  3.2605
 7373SOL    MW429260   0.636   6.168   2.368  0.2822  0.7702  0.3444
 7374SOL     OW29261   5.774   3.947   5.146 -0.0395  0.3877  0.3469
 7374SOL    HW229262   5.859   3.957   5.187  1.0088  1.0270 -1.8126
 7374SOL    HW329263   5.727   3.885   5.202  2.5011 -1.4634  0.6175
 7374SOL    MW429264   5.779   3.940   5.159  0.4340  0.2278  0.0977
 7375SOL     OW29265   5.035   1.435   1.380 -0.6770  0.3477  0.6522
 7375SOL    HW229266   5.014   1.529   1.375 -3.7931 -0.3232 -1.1455
 7375SOL    HW329267   5.024   1.414   1.473 -2.1219  1.3529  0.7491
 7375SOL    MW429268   5.031   1.445   1.392 -1.2788  0.3918  0.4278
 7376SOL     OW29269   4.329   4.094   3.573 -0.5504 -0.1229  0.0403
 7376SOL    HW229270   4.365   4.176   3.540 -0.6703 -0.7418 -1.7646
 7376SOL    HW329271   4.263   4.120   3.637  0.7753  1.1061  0.9922
 7376SOL    MW429272   4.325   4.108   3.577 -0.3913 -0.0424 -0.0723
 7377SOL     OW29273   1.278   1.924   4.836 -0.5365  0.4352  0.5086
 7377SOL    HW229274   1.289   1.867   4.913  2.4585 -0.1881 -0.2657
 7377SOL    HW329275   1.338   1.888   4.771  0.7663  3.8714 -0.4046
 7377SOL    MW429276   1.287   1.911   4.837  0.0305  0.8063  0.2860
 7378SOL     OW29277   1.405   6.050   2.901 -0.3776 -0.0307  0.2521
 7378SOL    HW229278   1.402   5.993   2.824  1.6066  0.3668 -0.1529
 7378SOL    HW329279   1.466   6.008   2.960  0.3513  1.1364  0.3677
 7378SOL    MW429280   1.412   6.037   2.898 -0.0197  0.1757  0.2139
 7379SOL     OW29281   6.016   1.558   1.533  0.0594  0.1081 -0.3560
 7379SOL    HW229282   5.953   1.572   1.604 -0.4635  0.4390 -0.8730
 7379SOL    HW329283   6.072   1.636   1.536  0.7380 -0.3985  0.3920
 7379SOL    MW429284   6.015   1.570   1.543  0.0799  0.0849 -0.3255
 7380SOL     OW29285   0.737   4.637   3.841 -0.3712 -0.3944  0.4064
 7380SOL    HW229286   0.675   4.623   3.913 -0.7664  0.4235  0.2379
 7380SOL    HW329287   0.722   4.728   3.815  1.1502 -0.0691  0.5987
 7380SOL    MW429288   0.727   4.647   3.847 -0.2226 -0.2435  0.4095
 7381SOL     OW29289   5.793   4.452   6.346  0.4876 -0.0700 -0.2500
 7381SOL    HW229290   5.736   4.385   6.384  1.4020 -1.4654 -1.2322
 7381SOL    HW329291   5.737   4.497   6.283  0.4101 -1.4407 -1.2204
 7381SOL    MW429292   5.778   4.449   6.342  0.5980 -0.4349 -0.5076
 7382SOL     OW29293   2.048   0.643   5.967 -0.8725  0.3584 -0.2664
 7382SOL    HW229294   2.015   0.602   5.888 -0.7117  0.6938 -0.5086
 7382SOL    HW329295   2.129   0.687   5.940  0.0298 -0.8388  0.4167
 7382SOL    MW429296   2.055   0.644   5.953 -0.7323  0.2447 -0.2082
 7383SOL     OW29297   1.677   4.442   3.855  0.3471  0.2629 -0.0992
 7383SOL    HW229298   1.759   4.469   3.895  0.7962 -3.0564  1.6098
 7383SOL    HW329299   1.615   4.437   3.928 -0.4198 -0.5073 -0.7794
 7383SOL    MW429300   1.679   4.445   3.870  0.3052 -0.2767  0.0366
 7384SOL     OW29301   0.300   4.151   4.332  0.0534 -0.3460  0.4362
 7384SOL    HW229302   0.276   4.198   4.252 -0.3813 -1.6981 -0.2486
 7384SOL    HW329303   0.318   4.221   4.395  0.8754  0.7647 -0.9578
 7384SOL    MW429304   0.299   4.167   4.329  0.1045 -0.3779  0.1619
 7385SOL     OW29305   4.289   1.326   1.664 -0.3905  0.4795 -0.5604
 7385SOL    HW229306   4.366   1.383   1.673 -1.3533  1.8660 -0.8558
 7385SOL    HW329307   4.219   1.384   1.633 -1.3408 -0.9295 -1.1634
 7385SOL    MW429308   4.290   1.341   1.661 -0.6429  0.4766 -0.6790
 7386SOL     OW29309   1.235   4.306   2.717  0.5148  0.3824  1.0252
 7386SOL    HW229310   1.281   4.287   2.635 -1.3867  1.2267 -0.3285
 7386SOL    HW329311   1.208   4.221   2.750 -1.1788  0.0989 -0.8290
 7386SOL    MW429312   1.237   4.293   2.710  0.0405  0.4564  0.6019
 7387SOL     OW29313   5.598   5.474   2.225  0.2778 -0.1665 -0.2242
 7387SOL    HW229314   5.632   5.450   2.139 -1.0131  0.8921 -1.0969
 7387SOL    HW329315   5.644   5.556   2.247 -0.3881  0.3187 -0.5874
 7387SOL    MW429316   5.608   5.482   2.217  0.0196  0.0372 -0.3873
 7388SOL     OW29317   0.406   1.464   5.140 -0.2050  0.3955  0.5076
 7388SOL    HW229318   0.354   1.543   5.127 -1.5704 -0.3658  1.1805
 7388SOL    HW329319   0.377   1.429   5.224  0.9262 -0.4252  0.5878
 7388SOL    MW429320   0.395   1.470   5.149 -0.2359  0.1868  0.6069
 7389SOL     OW29321   0.013   0.324   4.805  0.1214 -0.0973  0.8379
 7389SOL    HW229322   0.059   0.286   4.880 -0.0341  1.1066  1.5743
 7389SOL    HW329323   0.059   0.406   4.787 -0.1293 -0.1427 -0.0970
 7389SOL    MW429324   0.025   0.330   4.812  0.0678  0.0556  0.8117
 7390SOL     OW29325   4.070   0.198   3.997 -0.3580 -0.5481 -0.0142
 7390SOL    HW229326   4.073   0.210   3.902  0.9893 -0.0817  0.0661
 7390SOL    HW329327   4.073   0.103   4.008  1.2202 -0.5839 -0.4355
 7390SOL    MW429328   4.071   0.187   3.986  0.0280 -0.4913 -0.0592
 7391SOL     OW29329   2.118   2.775   5.079  0.7309  0.1264 -0.4394
 7391SOL    HW229330   2.069   2.855   5.061 -0.8793 -0.7684 -0.2057
 7391SOL    HW329331   2.090   2.749   5.167  2.1951 -0.0387  0.0117
 7391SOL    MW429332   2.108   2.782   5.089  0.7117 -0.0135 -0.3491
 7392SOL     OW29333   1.518   2.875   0.175 -0.2023 -0.1859  0.1913
 7392SOL    HW229334   1.537   2.881   0.081 -1.6663  1.4591 -0.0557
 7392SOL    HW329335   1.559   2.953   0.212 -1.0631  0.0702  0.6246
 7392SOL    MW429336   1.526   2.886   0.167 -0.5090  0.0649  0.2159
 7393SOL     OW29337   4.491   1.600   5.577 -0.1363  0.9359 -0.6438
 7393SOL    HW229338   4.452   1.513   5.569 -0.8845  0.7249  3.1636
 7393SOL    HW329339   4.585   1.585   5.562 -0.2158 -0.6081  0.1472
 7393SOL    MW429340   4.498   1.586   5.574 -0.2455  0.7044 -0.0371
 7394SOL     OW29341   3.887   2.152   1.014  0.0830 -0.1729 -0.1055
 7394SOL    HW229342   3.792   2.139   1.010 -0.1081 -0.1288  2.5733
 7394SOL    HW329343   3.898   2.234   1.062  1.4896 -0.0245 -0.6355
 7394SOL    MW429344   3.876   2.161   1.019  0.2434 -0.1475  0.1780
 7395SOL     OW29345   2.134   4.980   2.944 -0.6530  0.0631  0.8059
 7395SOL    HW229346   2.121   4.920   2.870  1.2772 -0.2185  0.6677
 7395SOL    HW329347   2.128   5.067   2.904  1.7924 -0.0739 -0.0304
 7395SOL    MW429348   2.131   4.984   2.929 -0.0757  0.0079  0.6773
 7396SOL     OW29349   5.241   2.241   4.198 -0.0992 -0.7519 -0.4232
 7396SOL    HW229350   5.166   2.183   4.213 -2.5114  1.7492 -1.8522
 7396SOL    HW329351   5.253   2.286   4.282 -0.3333 -1.0102 -0.2482
 7396SOL    MW429352   5.232   2.239   4.211 -0.4484 -0.4560 -0.5887
 7397SOL     OW29353   0.240   4.516   2.099 -0.1440 -0.0874 -0.2988
 7397SOL    HW229354   0.156   4.482   2.128 -0.3759  0.8756  0.1907
 7397SOL    HW329355   0.235   4.610   2.115  0.3793  0.2394 -1.8524
 7397SOL    MW429356   0.228   4.524   2.105 -0.1056  0.0828 -0.4392
 7398SOL     OW29357   0.124   3.321   0.448 -0.8862  0.1551  0.0358
 7398SOL    HW229358   0.170   3.244   0.414 -0.6576 -0.4447  1.6102
 7398SOL    HW329359   0.034   3.291   0.462 -0.9502  0.3568  0.0641
 7398SOL    MW429360   0.118   3.307   0.446 -0.8645  0.1026  0.2472
 7399SOL     OW29361   4.116   2.584   1.065 -0.1574 -0.1643  0.1367
 7399SOL    HW229362   4.093   2.497   1.097 -2.0720  0.0454 -0.5225
 7399SOL    HW329363   4.163   2.568   0.983  0.9323 -0.5771  0.8140
 7399SOL    MW429364   4.119   2.570   1.058 -0.2662 -0.1911  0.1391
 7400SOL     OW29365   2.721   3.876   3.155 -0.1591 -0.1400  0.0701
 7400SOL    HW229366   2.680   3.797   3.121  2.6338 -2.0620  0.8051
 7400SOL    HW329367   2.680   3.947   3.106 -2.1566 -2.0903 -1.2823
 7400SOL    MW429368   2.710   3.875   3.144 -0.0541 -0.6509 -0.0113
 7401SOL     OW29369   0.421   0.604   1.564 -0.2259 -0.7012 -0.0649
 7401SOL    HW229370   0.445   0.672   1.627  0.8584 -0.4376 -0.7479
 7401SOL    HW329371   0.325   0.605   1.564 -0.2377 -0.1359  0.9538
 7401SOL    MW429372   0.411   0.613   1.573 -0.0844 -0.5919 -0.0206
 7402SOL     OW29373   3.646   1.105   2.452 -0.3249 -0.4005 -0.1639
 7402SOL    HW229374   3.603   1.114   2.367  0.2979 -3.7320 -0.9796
 7402SOL    HW329375   3.716   1.171   2.450  0.2991 -0.9917 -2.7297
 7402SOL    MW429376   3.650   1.115   2.440 -0.1604 -0.9180 -0.6101
 7403SOL     OW29377   1.305   0.244   0.553  0.6471  0.1511 -0.2033
 7403SOL    HW229378   1.266   0.189   0.484  3.0365 -1.6981 -0.1853
 7403SOL    HW329379   1.255   0.223   0.631  1.7878 -2.5004 -0.0820
 7403SOL    MW429380   1.293   0.234   0.554  1.1129 -0.4427 -0.1849
 7404SOL     OW29381   2.600   2.700   3.086  0.8544 -0.0283  0.4882
 7404SOL    HW229382   2.691   2.677   3.067  0.8735  0.4946 -0.0723
 7404SOL    HW329383   2.596   2.705   3.182  0.5609 -3.4668  0.7832
 7404SOL    MW429384   2.611   2.698   3.096  0.8182 -0.4130  0.4532
 7405SOL     OW29385   3.383   5.802   4.058 -0.6863 -0.3214  0.1605
 7405SOL    HW229386   3.311   5.807   4.120 -0.2530 -0.6071  0.6979
 7405SOL    HW329387   3.437   5.879   4.078 -1.3667  0.4779 -0.9316
 7405SOL    MW429388   3.381   5.813   4.069 -0.7189 -0.2536  0.0873
 7406SOL     OW29389   4.155   3.420   1.511 -0.1500 -0.5963 -0.8260
 7406SOL    HW229390   4.219   3.406   1.441 -0.7082 -2.1605 -1.0704
 7406SOL    HW329391   4.081   3.462   1.468  0.6630  1.1935 -0.5475
 7406SOL    MW429392   4.154   3.423   1.496 -0.1164 -0.5666 -0.8215
 7407SOL     OW29393   3.307   6.427   0.672 -0.5877 -0.1635  0.4236
 7407SOL    HW229394   3.307   6.514   0.712  1.3827  0.4950 -0.8206
 7407SOL    HW329395   3.307   6.366   0.746 -0.7375  0.9234  1.3452
 7407SOL    MW429396   3.307   6.430   0.687 -0.3475  0.0667  0.3810
 7408SOL     OW29397   4.606   0.980   2.032 -0.2901 -0.1544 -0.0418
 7408SOL    HW229398   4.515   0.980   2.063 -0.9553  0.5513 -1.8923
 7408SOL    HW329399   4.616   0.896   1.987 -0.8599  0.7791 -2.0185
 7408SOL    MW429400   4.595   0.969   2.030 -0.4530  0.0619 -0.5468
 7409SOL     OW29401   1.325   4.621   1.532 -0.1526 -0.1779  0.2259
 7409SOL    HW229402   1.268   4.585   1.601  0.4562  0.8700  1.3223
 7409SOL    HW329403   1.273   4.615   1.452 -1.1886 -0.7097  0.9180
 7409SOL    MW429404   1.311   4.616   1.531 -0.2090 -0.1098  0.4619
 7410SOL     OW29405   6.298   4.185   4.575  0.6538  0.0982 -0.4371
 7410SOL    HW229406   6.287   4.280   4.571  1.8182  0.2101 -1.8510
 7410SOL    HW329407   6.299   4.157   4.483 -0.3492 -1.3805 -0.0283
 7410SOL    MW429408   6.296   4.194   4.562  0.6751 -0.0821 -0.5697
 7411SOL     OW29409   1.843   5.273   2.955 -0.5888 -0.2932 -0.0254
 7411SOL    HW229410   1.883   5.217   3.021  0.1124 -0.3989 -0.5347
 7411SOL    HW329411   1.862   5.231   2.872 -1.1204  0.0505 -0.3300
 7411SOL    MW429412   1.851   5.260   2.953 -0.5664 -0.2618 -0.1328
 7412SOL     OW29413   1.280   1.125   0.720  0.2456  0.3749 -0.4683
 7412SOL    HW229414   1.346   1.067   0.683 -1.4619 -1.4399 -0.8400
 7412SOL    HW329415   1.287   1.206   0.668  2.4330  0.4457 -0.1649
 7412SOL    MW429416   1.290   1.128   0.708  0.3089  0.1448 -0.4773
 7413SOL     OW29417   5.910   3.844   3.418 -0.7520 -0.0242 -0.1101
 7413SOL    HW229418   5.924   3.939   3.422  0.7310 -0.2722  2.2185
 7413SOL    HW329419   5.818   3.832   3.444 -0.9225  0.7551 -0.3166
 7413SOL    MW429420   5.900   3.855   3.422 -0.5788  0.0459  0.1699
 7414SOL     OW29421   3.476   1.398   0.434 -0.3357  0.0983  0.2420
 7414SOL    HW229422   3.460   1.481   0.478  1.2197  0.3246  0.4351
 7414SOL    HW329423   3.544   1.418   0.369 -1.2645 -0.6336 -1.0154
 7414SOL    MW429424   3.483   1.411   0.431 -0.2530  0.0315  0.1016
 7415SOL     OW29425   3.768   5.942   2.266 -0.3278  0.2930  0.3751
 7415SOL    HW229426   3.863   5.947   2.258 -0.4192  1.1018 -0.4159
 7415SOL    HW329427   3.747   5.850   2.251  0.2200  0.3733 -1.0240
 7415SOL    MW429428   3.777   5.931   2.263 -0.2676  0.4103  0.0861
 7416SOL     OW29429   6.004   3.140   1.477 -0.1650  0.3243 -0.0154
 7416SOL    HW229430   6.094   3.172   1.485 -0.0291  0.6451 -2.1332
 7416SOL    HW329431   5.978   3.165   1.388 -1.4672 -1.9205 -0.3400
 7416SOL    MW429432   6.013   3.147   1.466 -0.3189  0.0705 -0.3376
 7417SOL     OW29433   3.649   2.881   3.112  0.4062  0.2398 -0.3297
 7417SOL    HW229434   3.634   2.813   3.179 -0.3735  0.3134 -0.4201
 7417SOL    HW329435   3.744   2.893   3.112  0.4393  0.1139  0.6443
 7417SOL    MW429436   3.660   2.873   3.121  0.3077  0.2329 -0.2131
 7418SOL     OW29437   3.264   5.883   5.458  0.1591  0.2696 -0.6593
 7418SOL    HW229438   3.220   5.827   5.522  1.6997 -0.1900  0.0461
 7418SOL    HW329439   3.297   5.823   5.391 -0.9670  0.6958 -1.6356
 7418SOL    MW429440   3.263   5.868   5.458  0.2138  0.2652 -0.6950
 7419SOL     OW29441   1.028   5.206   3.236 -0.2148 -0.0529  0.5519
 7419SOL    HW229442   0.996   5.205   3.146 -0.9732  0.0418  0.8169
 7419SOL    HW329443   1.113   5.161   3.232 -0.9389 -1.4438  0.0460
 7419SOL    MW429444   1.035   5.200   3.224 -0.4104 -0.2239  0.5201
 7420SOL     OW29445   4.623   0.757   0.787 -0.5395  0.7187  0.7851
 7420SOL    HW229446   4.566   0.715   0.723  0.5990  1.0098 -0.4487
 7420SOL    HW329447   4.563   0.787   0.855 -2.1156  2.4837 -1.2504
 7420SOL    MW429448   4.607   0.755   0.788 -0.5972  0.9900  0.3538
 7421SOL     OW29449   2.435   5.086   1.591 -0.0845  0.4013 -0.7356
 7421SOL    HW229450   2.398   5.048   1.511  2.1409  2.1841 -2.7636
 7421SOL    HW329451   2.527   5.060   1.589  0.6725  2.8268 -0.3172
 7421SOL    MW429452   2.442   5.078   1.580  0.3090  0.9565 -0.9480
 7422SOL     OW29453   5.739   2.546   0.476 -0.5193  0.1263  0.0159
 7422SOL    HW229454   5.742   2.578   0.566  0.9290 -2.2714  0.9181
 7422SOL    HW329455   5.824   2.568   0.439 -0.5709 -0.1698 -0.2878
 7422SOL    MW429456   5.750   2.553   0.483 -0.3350 -0.2291  0.0949
 7423SOL     OW29457   2.732   3.734   3.878 -0.0477  0.2652  0.3188
 7423SOL    HW229458   2.715   3.778   3.794 -0.6598  1.5484  1.0782
 7423SOL    HW329459   2.646   3.700   3.904  0.3638 -1.1578 -0.1097
 7423SOL    MW429460   2.718   3.735   3.870 -0.0742  0.2468  0.3624
 7424SOL     OW29461   0.099   3.545   4.481 -0.3622  0.7523 -0.1432
 7424SOL    HW229462   0.182   3.513   4.444 -1.2935 -0.3155 -1.3907
 7424SOL    HW329463   0.114   3.639   4.494  1.4140  0.4032  0.7243
 7424SOL    MW429464   0.112   3.553   4.478 -0.2507  0.5654 -0.1934
 7425SOL     OW29465   6.130   0.939   3.539 -0.1947 -0.4808  0.3073
 7425SOL    HW229466   6.135   1.029   3.572  0.5965 -0.5619  0.4248
 7425SOL    HW329467   6.039   0.913   3.554 -0.1809 -0.0512  1.2214
 7425SOL    MW429468   6.118   0.947   3.545 -0.0885 -0.4348  0.4434
 7426SOL     OW29469   0.589   6.424   4.254 -0.5472  0.5350  0.2513
 7426SOL    HW229470   0.655   6.360   4.226  0.1689  0.2940  2.3417
 7426SOL    HW329471   0.510   6.372   4.271 -0.1545  0.2727  1.3305
 7426SOL    MW429472   0.587   6.409   4.253 -0.4009  0.4686  0.6695
 7427SOL     OW29473   1.686   4.001   0.374 -0.1362 -0.2207  0.2132
 7427SOL    HW229474   1.716   4.064   0.309  1.8225  1.2814  2.4046
 7427SOL    HW329475   1.593   4.023   0.388 -1.0859 -1.5946 -3.0158
 7427SOL    MW429476   1.677   4.012   0.367 -0.0031 -0.2038  0.0763
 7428SOL     OW29477   3.099   0.103   5.339  0.0450 -0.3071  0.5759
 7428SOL    HW229478   3.132   0.022   5.378  0.4284  0.1321  1.1708
 7428SOL    HW329479   3.005   0.100   5.355  0.1909 -0.1402  1.5411
 7428SOL    MW429480   3.091   0.092   5.346  0.1148 -0.2271  0.7817
 7429SOL     OW29481   3.323   6.177   3.709  0.2692  0.2559 -0.4120
 7429SOL    HW229482   3.339   6.088   3.678 -0.6166  0.1661 -0.6302
 7429SOL    HW329483   3.389   6.191   3.778  0.6300 -0.4384 -0.6080
 7429SOL    MW429484   3.334   6.167   3.714  0.1999  0.1524 -0.4667
 7430SOL     OW29485   4.252   4.108   4.857  0.1094 -0.2066  0.0413
 7430SOL    HW229486   4.277   4.018   4.838  1.8553 -0.4540  2.8480
 7430SOL    HW329487   4.334   4.149   4.886 -0.5631  2.4185 -1.4805
 7430SOL    MW429488   4.266   4.102   4.859  0.2510  0.1071  0.2109
 7431SOL     OW29489   3.687   2.467   3.875  0.1734 -0.1152 -0.0998
 7431SOL    HW229490   3.692   2.561   3.889  1.6458 -0.3156  1.0127
 7431SOL    HW329491   3.690   2.429   3.963 -0.9984 -1.2031 -0.4957
 7431SOL    MW429492   3.688   2.474   3.888  0.2130 -0.2852 -0.0053
 7432SOL     OW29493   2.498   0.794   4.996  0.0505  0.5416 -0.3435
 7432SOL    HW229494   2.441   0.870   5.006  0.1629  0.3590  2.3920
 7432SOL    HW329495   2.439   0.719   5.003  0.5684  0.2913  4.3367
 7432SOL    MW429496   2.483   0.794   4.999  0.1337  0.4845  0.6349
 7433SOL     OW29497   0.035   4.484   4.732 -0.4500 -0.5856  0.2573
 7433SOL    HW229498   0.117   4.448   4.766  0.0126  0.2483  0.0492
 7433SOL    HW329499  -0.031   4.461   4.798  0.1225 -0.4529  0.8872
 7433SOL    MW429500   0.037   4.476   4.745 -0.3134 -0.4581  0.3130
 7434SOL     OW29501   4.323   2.629   1.241  0.2176  0.0927 -0.8508
 7434SOL    HW229502   4.309   2.706   1.296 -0.3142 -2.2835  2.6788
 7434SOL    HW329503   4.247   2.626   1.184 -0.9290  0.9770  0.5591
 7434SOL    MW429504   4.311   2.638   1.241 -0.0038 -0.1041 -0.1991
 7435SOL     OW29505   2.789   1.513   5.890  0.5282 -0.1310 -0.4155
 7435SOL    HW229506   2.777   1.523   5.985 -1.8077 -1.3249 -0.5273
 7435SOL    HW329507   2.805   1.602   5.859  1.0971  0.3201  1.0564
 7435SOL    MW429508   2.790   1.526   5.899  0.2951 -0.2290 -0.2360
 7436SOL     OW29509   6.272   0.823   1.004 -0.5207 -0.5351  0.1803
 7436SOL    HW229510   6.324   0.835   0.924  0.6268  0.0252  0.9794
 7436SOL    HW329511   6.220   0.903   1.011  0.7300  0.2534  0.9262
 7436SOL    MW429512   6.272   0.835   0.994 -0.2043 -0.3572  0.3842
 7437SOL     OW29513   3.359   5.815   1.668 -0.5073 -0.3783  0.8388
 7437SOL    HW229514   3.288   5.856   1.718  0.3690  3.7499 -0.8551
 7437SOL    HW329515   3.319   5.794   1.583 -0.2212  0.1719  0.5571
 7437SOL    MW429516   3.344   5.818   1.663 -0.3540  0.2389  0.5781
 7438SOL     OW29517   3.076   1.331   5.670  0.0617  0.3204 -0.1168
 7438SOL    HW229518   3.063   1.341   5.765 -2.5232 -0.9447 -0.2580
 7438SOL    HW329519   3.162   1.369   5.654  0.1219  1.5645  2.5705
 7438SOL    MW429520   3.086   1.337   5.681 -0.2714  0.3176  0.2192
 7439SOL     OW29521   5.331   3.744   2.125 -0.4431 -0.4306 -0.3351
 7439SOL    HW229522   5.354   3.653   2.105 -0.8869 -0.5542 -0.3035
 7439SOL    HW329523   5.257   3.736   2.186  1.0938 -0.0894  1.7106
 7439SOL    MW429524   5.324   3.731   2.131 -0.2989 -0.4019 -0.0610
 7440SOL     OW29525   2.485   0.179   0.743 -0.2394  0.3436  0.4850
 7440SOL    HW229526   2.494   0.109   0.678 -0.9061  0.1808  0.5589
 7440SOL    HW329527   2.428   0.243   0.700  0.0102  0.6353  0.5884
 7440SOL    MW429528   2.479   0.178   0.728 -0.2945  0.3606  0.5084
 7441SOL     OW29529   1.087   1.509   1.821  0.0663 -0.1712  0.4358
 7441SOL    HW229530   1.042   1.487   1.902  0.0975  1.1954  0.8595
 7441SOL    HW329531   1.157   1.569   1.849 -1.3528  2.2309 -0.7937
 7441SOL    MW429532   1.090   1.514   1.836 -0.1168  0.3261  0.3295
 7442SOL     OW29533   0.803   3.035   6.373  0.0437 -0.2849 -0.2695
 7442SOL    HW229534   0.785   2.943   6.357 -1.8422 -0.1164  0.6687
 7442SOL    HW329535   0.898   3.039   6.387  0.7398 -1.5302 -3.5540
 7442SOL    MW429536   0.813   3.023   6.372 -0.1133 -0.4269 -0.5791
 7443SOL     OW29537   0.027   5.449   6.444 -0.1302 -0.3523  0.2741
 7443SOL    HW229538   0.040   5.396   6.365 -4.0653  0.7194 -1.3179
 7443SOL    HW329539  -0.030   5.397   6.499 -0.9602  0.6508  0.3970
 7443SOL    MW429540   0.021   5.436   6.441 -0.7589 -0.0785  0.0802
 7444SOL     OW29541   6.265   1.654   1.141  0.4140 -0.5060 -0.0601
 7444SOL    HW229542   6.337   1.707   1.174  2.8633 -1.1719 -3.6536
 7444SOL    HW329543   6.285   1.565   1.169  1.3787 -0.7601 -1.4176
 7444SOL    MW429544   6.277   1.649   1.149  0.8644 -0.6274 -0.7133
 7445SOL     OW29545   3.661   0.470   6.296 -0.0467  0.3446  0.1073
 7445SOL    HW229546   3.627   0.524   6.224 -0.6226  0.3263  0.3606
 7445SOL    HW329547   3.605   0.392   6.295  0.1789  0.1782  0.3472
 7445SOL    MW429548   3.649   0.467   6.286 -0.0929  0.3203  0.1724
 7446SOL     OW29549   2.480   5.376   1.580 -0.3493  0.0548 -0.0168
 7446SOL    HW229550   2.389   5.396   1.561 -0.3338 -1.1031 -1.5185
 7446SOL    HW329551   2.484   5.280   1.580  1.2868  0.0337 -2.4378
 7446SOL    MW429552   2.469   5.366   1.577 -0.1314 -0.1007 -0.5343
 7447SOL     OW29553   3.177   1.882   1.670 -0.1659 -0.1253 -0.7058
 7447SOL    HW229554   3.170   1.860   1.577  1.1947 -1.8705 -0.4494
 7447SOL    HW329555   3.193   1.799   1.713 -0.7307  0.6601  1.1211
 7447SOL    MW429556   3.178   1.869   1.663 -0.0609 -0.2519 -0.4309
 7448SOL     OW29557   4.518   4.085   5.798 -0.0806 -0.8383 -0.6274
 7448SOL    HW229558   4.613   4.101   5.798 -0.5706  3.1242 -0.8781
 7448SOL    HW329559   4.493   4.087   5.706 -0.5046 -1.1573 -0.5225
 7448SOL    MW429560   4.527   4.087   5.786 -0.2012 -0.3576 -0.6467
 7449SOL     OW29561   5.443   3.232   0.855 -0.0421 -0.4572  0.1430
 7449SOL    HW229562   5.536   3.245   0.871  0.0911 -0.2182 -0.7836
 7449SOL    HW329563   5.422   3.291   0.783 -0.7064 -1.1720 -0.2690
 7449SOL    MW429564   5.453   3.242   0.848 -0.1122 -0.5200 -0.0336
 7450SOL     OW29565   1.257   1.478   4.105 -0.4771 -0.2344  0.3404
 7450SOL    HW229566   1.340   1.525   4.096  0.7531 -1.7381  2.7869
 7450SOL    HW329567   1.282   1.387   4.119 -2.6983 -1.3132 -1.9317
 7450SOL    MW429568   1.271   1.472   4.106 -0.6079 -0.5751  0.3634
 7451SOL     OW29569   0.895   5.610   3.217 -0.1232 -0.0171 -0.1316
 7451SOL    HW229570   0.888   5.695   3.261  0.0257  1.4725 -2.7555
 7451SOL    HW329571   0.981   5.577   3.243  0.0345  0.8764  0.5319
 7451SOL    MW429572   0.906   5.617   3.226 -0.0827  0.2973 -0.3902
 7452SOL     OW29573   3.743   4.227   6.295 -0.2619  0.0421 -0.4351
 7452SOL    HW229574   3.750   4.320   6.275  0.6498  0.3634  1.2378
 7452SOL    HW329575   3.652   4.206   6.273 -1.5760  2.1789  2.2931
 7452SOL    MW429576   3.732   4.237   6.289 -0.3150  0.3664  0.1455
 7453SOL     OW29577   3.215   0.532   4.668  0.3156  0.2924  0.0970
 7453SOL    HW229578   3.249   0.534   4.579  0.6175 -0.3996  0.1914
 7453SOL    HW329579   3.185   0.442   4.681 -0.0577  0.4792  0.5712
 7453SOL    MW429580   3.216   0.521   4.658  0.3061  0.2258  0.1720
 7454SOL     OW29581   0.721   1.921   0.866 -0.4842 -0.6458 -0.1159
 7454SOL    HW229582   0.744   1.855   0.932  0.5701 -0.1713  0.0093
 7454SOL    HW329583   0.675   1.989   0.915  0.0046 -0.4497  0.0747
 7454SOL    MW429584   0.718   1.921   0.881 -0.2806 -0.5573 -0.0742
 7455SOL     OW29585   3.824   4.204   4.936 -0.4172 -0.0934 -0.1243
 7455SOL    HW229586   3.841   4.232   5.026  1.9792  0.0193 -0.5314
 7455SOL    HW329587   3.742   4.247   4.912 -1.3053 -0.4260  2.1074
 7455SOL    MW429588   3.816   4.214   4.944 -0.2182 -0.1224  0.1164
 7456SOL     OW29589   5.163   1.949   1.915 -0.2939 -0.4204  0.4496
 7456SOL    HW229590   5.193   1.989   1.833 -1.3607  1.1637  0.7889
 7456SOL    HW329591   5.244   1.926   1.962  0.3580  0.7576 -0.0522
 7456SOL    MW429592   5.178   1.951   1.910 -0.3487 -0.0560  0.4281
 7457SOL     OW29593   4.771   4.110   2.638 -0.7172 -0.4401 -0.0419
 7457SOL    HW229594   4.743   4.174   2.703 -2.1679 -0.7873 -0.2954
 7457SOL    HW329595   4.857   4.142   2.609 -1.7997  1.9612 -0.8941
 7457SOL    MW429596   4.779   4.123   2.643 -1.0514 -0.1691 -0.1878
 7458SOL     OW29597   5.643   1.956   3.516 -0.7416 -0.2293  0.4690
 7458SOL    HW229598   5.614   1.874   3.475 -0.0855  0.2297 -0.9540
 7458SOL    HW329599   5.680   2.007   3.444  0.5127  0.5789  1.6428
 7458SOL    MW429600   5.644   1.952   3.501 -0.4896 -0.0621  0.4361
 7459SOL     OW29601   5.737   6.106   5.171  0.2748  0.0712  0.1630
 7459SOL    HW229602   5.769   6.088   5.259  0.0627  0.2710  0.2811
 7459SOL    HW329603   5.672   6.176   5.183 -0.2471 -0.3716 -0.0726
 7459SOL    MW429604   5.733   6.113   5.184  0.1779  0.0391  0.1475
 7460SOL     OW29605   5.963   2.193   5.724 -0.3526  0.5187  0.0189
 7460SOL    HW229606   6.028   2.123   5.727  1.3360  1.9637 -0.9844
 7460SOL    HW329607   5.882   2.149   5.699 -0.1513 -1.5405  2.5080
 7460SOL    MW429608   5.961   2.178   5.721 -0.1033  0.4377  0.2149
 7461SOL     OW29609   0.796   2.307   2.573  1.0766 -0.2323 -0.7624
 7461SOL    HW229610   0.746   2.335   2.496  2.7996  0.8285 -1.5702
 7461SOL    HW329611   0.804   2.212   2.563 -1.4551 -0.5774 -0.1331
 7461SOL    MW429612   0.790   2.299   2.561  0.9699 -0.1379 -0.7860
 7462SOL     OW29613   6.146   3.557   4.385 -0.0797  0.2559 -0.0616
 7462SOL    HW229614   6.213   3.490   4.390  0.6450  0.9906  0.3098
 7462SOL    HW329615   6.192   3.635   4.354 -1.0189  0.4416 -1.0698
 7462SOL    MW429616   6.161   3.558   4.381 -0.1080  0.3773 -0.1456
 7463SOL     OW29617   2.184   3.211   2.020 -0.1623 -0.1396  0.3449
 7463SOL    HW229618   2.122   3.271   2.062  0.9885  1.6414 -0.3810
 7463SOL    HW329619   2.270   3.245   2.045  0.5623  0.3079 -2.4054
 7463SOL    MW429620   2.187   3.224   2.029  0.0851  0.1544 -0.1138
 7464SOL     OW29621   1.039   2.840   2.096 -0.3905 -0.0786 -0.1047
 7464SOL    HW229622   1.059   2.876   2.010  0.7010  0.5240  0.3870
 7464SOL    HW329623   0.980   2.767   2.078 -0.9886  0.6632 -1.2800
 7464SOL    MW429624   1.034   2.835   2.083 -0.3254  0.0988 -0.1949
 7465SOL     OW29625   1.864   6.285   2.248  0.3053 -0.4727 -0.2314
 7465SOL    HW229626   1.784   6.267   2.298  0.0538  0.6358 -0.2033
 7465SOL    HW329627   1.891   6.373   2.276  1.4943 -0.7903 -0.3034
 7465SOL    MW429628   1.857   6.294   2.258  0.4290 -0.3683 -0.2372
 7466SOL     OW29629   5.187   3.868   0.768  0.2474  0.0404 -0.2336
 7466SOL    HW229630   5.169   3.782   0.806  0.9505  0.5585  1.3653
 7466SOL    HW329631   5.134   3.929   0.820  1.9260  0.8753  0.5858
 7466SOL    MW429632   5.178   3.865   0.780  0.5617  0.2190  0.0855
 7467SOL     OW29633   4.420   1.911   1.918  0.4706 -0.3764  0.6641
 7467SOL    HW229634   4.346   1.930   1.861  1.5273  0.3938 -0.5153
 7467SOL    HW329635   4.441   1.819   1.900  0.3493 -0.3426  0.3363
 7467SOL    MW429636   4.413   1.902   1.908  0.5940 -0.2703  0.4653
 7468SOL     OW29637   0.445   1.228   3.047 -0.1911 -0.0599 -0.2309
 7468SOL    HW229638   0.436   1.133   3.049 -1.0825  0.0259  0.1968
 7468SOL    HW329639   0.443   1.254   3.139  2.2118  0.2134 -0.1743
 7468SOL    MW429640   0.444   1.219   3.059  0.0083 -0.0125 -0.1670
 7469SOL     OW29641   4.965   5.961   0.758  0.0901  0.8532 -0.0263
 7469SOL    HW229642   4.956   5.963   0.662 -0.0754  0.3986 -0.0240
 7469SOL    HW329643   5.014   5.880   0.775 -0.8072  0.3740  0.3368
 7469SOL    MW429644   4.970   5.950   0.747 -0.0501  0.7300  0.0219
 7470SOL     OW29645   1.518   4.794   5.860  0.3514  0.2712  0.9951
 7470SOL    HW229646   1.598   4.841   5.887  1.0039 -0.8760  1.1171
 7470SOL    HW329647   1.452   4.821   5.924  0.7403  0.9471  1.1189
 7470SOL    MW429648   1.520   4.804   5.872  0.4888  0.2090  1.0275
 7471SOL     OW29649   3.745   1.943   6.082 -0.6594  0.3046  0.0988
 7471SOL    HW229650   3.826   1.935   6.131 -1.6684 -0.5637  1.7229
 7471SOL    HW329651   3.695   1.865   6.106 -2.0241  0.8817 -0.7478
 7471SOL    MW429652   3.749   1.932   6.092 -0.9726  0.2661  0.2014
 7472SOL     OW29653   4.580   2.732   2.180 -0.2688 -0.6311  0.1182
 7472SOL    HW229654   4.598   2.755   2.089  0.4916  0.3271  0.4851
 7472SOL    HW329655   4.631   2.796   2.231 -1.3817 -0.5931  1.2190
 7472SOL    MW429656   4.589   2.743   2.175 -0.3153 -0.4997  0.3118
 7473SOL     OW29657   3.870   5.825   2.864  0.1755 -0.5106 -0.1755
 7473SOL    HW229658   3.948   5.775   2.840 -0.1785 -0.3284 -1.8045
 7473SOL    HW329659   3.797   5.766   2.846 -0.2717  0.6432 -2.4462
 7473SOL    MW429660   3.870   5.810   2.859  0.0698 -0.3343 -0.6900
 7474SOL     OW29661   4.282   5.435   1.739 -0.2784  0.1189  0.7109
 7474SOL    HW229662   4.305   5.525   1.717  0.4492 -0.6065 -1.8568
 7474SOL    HW329663   4.363   5.397   1.772 -0.3318  0.1326  0.8595
 7474SOL    MW429664   4.296   5.442   1.741 -0.1895  0.0250  0.3917
 7475SOL     OW29665   5.893   1.543   3.797 -0.1412 -0.5152 -0.1196
 7475SOL    HW229666   5.824   1.524   3.861  0.5809 -0.4766  0.7004
 7475SOL    HW329667   5.967   1.488   3.825  0.7275  0.6845  0.0565
 7475SOL    MW429668   5.894   1.533   3.809  0.0687 -0.3518  0.0118
 7476SOL     OW29669   1.219   3.470   5.002 -0.1649  0.1055 -0.0182
 7476SOL    HW229670   1.160   3.408   4.960  0.6761 -0.9956  0.3836
 7476SOL    HW329671   1.307   3.438   4.981  0.2792  0.9214  0.5416
 7476SOL    MW429672   1.223   3.458   4.994  0.0047  0.0679  0.1087
 7477SOL     OW29673   2.860   6.122   5.790  0.1256 -0.3284 -0.0609
 7477SOL    HW229674   2.933   6.120   5.728  1.4159  1.6628  1.2813
 7477SOL    HW329675   2.872   6.043   5.843  1.2342 -0.0983  0.0519
 7477SOL    MW429676   2.871   6.111   5.789  0.4421 -0.0353  0.1311
 7478SOL     OW29677   2.439   6.108   2.849 -0.0659 -0.1010  0.0821
 7478SOL    HW229678   2.462   6.060   2.769  0.6309 -0.3216  0.4039
 7478SOL    HW329679   2.349   6.082   2.868  0.5488 -1.9306  0.6803
 7478SOL    MW429680   2.431   6.098   2.841  0.1072 -0.3715  0.2035
 7479SOL     OW29681   0.427   0.688   6.419  0.8440  0.1498  0.1405
 7479SOL    HW229682   0.371   0.632   6.365  0.4234 -0.0306  0.7608
 7479SOL    HW329683   0.512   0.686   6.375 -0.0210  1.7722 -1.8014
 7479SOL    MW429684   0.431   0.681   6.406  0.6744  0.3401 -0.0339
 7480SOL     OW29685   5.930   1.056   5.419  0.1139  0.0455 -0.0573
 7480SOL    HW229686   5.975   0.985   5.374  0.0031  0.0572 -0.1877
 7480SOL    HW329687   5.898   1.112   5.349 -2.4296 -1.3590 -0.1442
 7480SOL    MW429688   5.931   1.054   5.404 -0.2363 -0.1382 -0.0859
 7481SOL     OW29689   2.102   0.929   1.258  0.1870 -0.1634  0.5375
 7481SOL    HW229690   2.189   0.951   1.290  0.3000 -0.6114  0.5545
 7481SOL    HW329691   2.051   0.912   1.337 -0.4856  2.0673  0.6285
 7481SOL    MW429692   2.107   0.930   1.272  0.1132  0.0718  0.5517
 7482SOL     OW29693   1.253   1.994   0.377  0.5613 -0.3007  0.1473
 7482SOL    HW229694   1.303   2.062   0.332 -0.7597  0.1778 -0.6761
 7482SOL    HW329695   1.287   1.912   0.342  0.3648  0.0309 -0.8620
 7482SOL    MW429696   1.264   1.992   0.366  0.3611 -0.1938 -0.0945
 7483SOL     OW29697   2.817   5.503   1.950 -0.4267 -0.1759  0.2538
 7483SOL    HW229698   2.851   5.486   1.862 -0.8385 -0.1193  0.0827
 7483SOL    HW329699   2.857   5.435   2.005 -1.6586 -1.4045 -0.3282
 7483SOL    MW429700   2.827   5.492   1.946 -0.6436 -0.3305  0.1544
 7484SOL     OW29701   2.184   5.432   2.692 -0.1896 -0.2431  0.1302
 7484SOL    HW229702   2.179   5.341   2.662  2.8168 -0.4927  0.1531
 7484SOL    HW329703   2.181   5.484   2.612  1.3315 -0.5811 -0.1798
 7484SOL    MW429704   2.183   5.426   2.678  0.4078 -0.3206  0.0923
 7485SOL     OW29705   0.872   5.281   5.034  0.7708  0.3130  0.1647
 7485SOL    HW229706   0.895   5.250   4.947  1.7560  0.0415  0.5065
 7485SOL    HW329707   0.849   5.373   5.021  0.4105  0.1394 -0.4565
 7485SOL    MW429708   0.872   5.289   5.021  0.8533  0.2543  0.1278
 7486SOL     OW29709   0.474   0.923   1.364  0.1756 -0.2434 -0.2362
 7486SOL    HW229710   0.432   1.000   1.325 -0.1787 -0.4071 -0.1811
 7486SOL    HW329711   0.545   0.902   1.303  0.6458  0.4756  0.0512
 7486SOL    MW429712   0.478   0.930   1.351  0.1909 -0.1702 -0.1910
 7487SOL     OW29713   5.744   4.437   4.444 -0.8755 -0.0185 -0.3022
 7487SOL    HW229714   5.771   4.365   4.501 -1.1386 -0.3927 -0.6426
 7487SOL    HW329715   5.790   4.513   4.478 -1.0961 -0.2221  0.4593
 7487SOL    MW429716   5.753   4.437   4.456 -0.9393 -0.0948 -0.2466
 7488SOL     OW29717   3.291   4.369   3.546 -0.0685  0.5770  0.4727
 7488SOL    HW229718   3.277   4.315   3.624  0.8554 -1.0454 -0.4378
 7488SOL    HW329719   3.203   4.385   3.512 -0.3863  0.0594  1.0363
 7488SOL    MW429720   3.277   4.364   3.552  0.0115  0.2946  0.4269
 7489SOL     OW29721   2.846   6.333   0.216 -0.6129 -0.1398  0.1213
 7489SOL    HW229722   2.860   6.266   0.148 -0.6247  0.9865 -1.0277
 7489SOL    HW329723   2.766   6.306   0.260 -0.5695 -0.9379 -0.2681
 7489SOL    MW429724   2.838   6.320   0.213 -0.6088 -0.0965 -0.0817
 7490SOL     OW29725   3.954   1.643   3.516  0.0940  0.1231  0.4360
 7490SOL    HW229726   4.007   1.661   3.594  0.1072  0.6560  0.3050
 7490SOL    HW329727   3.921   1.728   3.489 -0.0430 -0.0802 -0.0485
 7490SOL    MW429728   3.957   1.657   3.523  0.0777  0.1666  0.3548
 7491SOL     OW29729   6.290   4.015   1.668  0.1547  0.3346 -0.0272
 7491SOL    HW229730   6.236   4.030   1.591  1.2209 -0.1539 -0.8834
 7491SOL    HW329731   6.236   4.045   1.741 -1.8643 -1.5187 -0.6870
 7491SOL    MW429732   6.276   4.021   1.668  0.0290  0.0257 -0.2272
 7492SOL     OW29733   1.349   6.422   0.955 -0.3293 -0.4554 -0.0529
 7492SOL    HW229734   1.346   6.440   1.049 -0.8024  1.3711 -0.3741
 7492SOL    HW329735   1.259   6.402   0.932 -0.5272  0.7087 -0.3681
 7492SOL    MW429736   1.337   6.422   0.964 -0.4178 -0.0609 -0.1369
 7493SOL     OW29737   3.842   1.976   4.408 -0.1566 -0.5390  0.2517
 7493SOL    HW229738   3.849   1.927   4.490  0.8121 -1.1823 -0.1914
 7493SOL    HW329739   3.933   2.000   4.387 -0.5161  0.6448 -0.0261
 7493SOL    MW429740   3.855   1.973   4.416 -0.0762 -0.4677  0.1566
 7494SOL     OW29741   1.735   1.921   0.675 -0.0640  0.3859 -0.2298
 7494SOL    HW229742   1.739   1.961   0.762 -2.0872  1.2421 -0.4841
 7494SOL    HW329743   1.707   1.831   0.692  1.9330 -0.2035  0.1479
 7494SOL    MW429744   1.732   1.914   0.689 -0.0674  0.4211 -0.2135
 7495SOL     OW29745   4.070   5.057   0.822 -0.4386 -0.4130 -0.0113
 7495SOL    HW229746   4.019   5.119   0.874 -0.8936 -1.2874  0.6102
 7495SOL    HW329747   4.005   4.992   0.792  0.2817 -1.4862  0.7077
 7495SOL    MW429748   4.054   5.057   0.825 -0.4036 -0.6700  0.1656
 7496SOL     OW29749   2.257   6.231   4.448  0.2227 -0.4188 -0.5871
 7496SOL    HW229750   2.287   6.227   4.358 -0.9129 -1.5445 -0.9437
 7496SOL    HW329751   2.165   6.202   4.445  0.3712 -1.2040  1.0021
 7496SOL    MW429752   2.248   6.226   4.436  0.0925 -0.6709 -0.4245
 7497SOL     OW29753   0.313   2.680   4.202 -0.3510 -0.0380  0.6418
 7497SOL    HW229754   0.376   2.716   4.141 -3.2904  2.4012 -1.2613
 7497SOL    HW329755   0.288   2.596   4.164  0.8123 -0.4669  0.7865
 7497SOL    MW429756   0.318   2.674   4.189 -0.5854  0.2272  0.4098
 7498SOL     OW29757   3.872   1.342   4.611  0.6886  0.0223 -0.4291
 7498SOL    HW229758   3.898   1.344   4.519 -0.8064  0.4937 -0.8648
 7498SOL    HW329759   3.940   1.391   4.656  1.8067 -0.7868 -1.1715
 7498SOL    MW429760   3.884   1.348   4.605  0.6389 -0.0223 -0.5845
 7499SOL     OW29761   3.636   5.544   1.919 -0.4644  0.4263 -0.4441
 7499SOL    HW229762   3.649   5.624   1.970 -0.4430 -0.3506  0.8081
 7499SOL    HW329763   3.721   5.500   1.922 -0.3052  0.6061 -1.6250
 7499SOL    MW429764   3.649   5.549   1.926 -0.4406  0.3475 -0.4347
 7500SOL     OW29765   3.312   2.147   2.147 -0.6545  0.2911  0.1233
 7500SOL    HW229766   3.245   2.171   2.082 -1.2477 -0.0204  0.6070
 7500SOL    HW329767   3.272   2.167   2.231 -0.1766  0.0011  0.4241
 7500SOL    MW429768   3.298   2.152   2.149 -0.6697  0.2117  0.2268
 7501SOL     OW29769   1.136   5.640   0.121 -0.3281  0.1707  0.5320
 7501SOL    HW229770   1.076   5.637   0.196 -0.8991 -0.9466  0.0493
 7501SOL    HW329771   1.145   5.548   0.094  0.9076  0.4189  0.0404
 7501SOL    MW429772   1.130   5.627   0.127 -0.2404  0.0560  0.4034
 7502SOL     OW29773   1.856   0.085   1.217 -0.6542  0.1076 -0.0546
 7502SOL    HW229774   1.949   0.105   1.212  0.1316 -2.5756  1.4726
 7502SOL    HW329775   1.837   0.084   1.311 -2.1415  0.2269 -0.3257
 7502SOL    MW429776   1.866   0.087   1.229 -0.7468 -0.2307  0.1111
 7503SOL     OW29777   1.207   6.194   2.128  0.0775  0.1209  0.2104
 7503SOL    HW229778   1.275   6.138   2.167  1.3446  1.3520 -0.1602
 7503SOL    HW329779   1.179   6.250   2.200 -2.0701 -1.6874  0.9137
 7503SOL    MW429780   1.213   6.194   2.143 -0.0387  0.0447  0.2543
 7504SOL     OW29781   0.089   4.969   2.569 -0.1171  0.3887 -0.4552
 7504SOL    HW229782   0.042   4.999   2.647  0.3055  0.2651 -0.1489
 7504SOL    HW329783   0.022   4.966   2.501 -0.6344 -0.1076  0.0531
 7504SOL    MW429784   0.074   4.972   2.571 -0.1296  0.3069 -0.3477
 7505SOL     OW29785   5.287   4.430   0.463 -0.1249 -0.1730 -0.0934
 7505SOL    HW229786   5.358   4.415   0.400 -3.1427 -1.8360 -3.4706
 7505SOL    HW329787   5.303   4.367   0.533  2.3245  0.4090 -0.0108
 7505SOL    MW429788   5.299   4.420   0.464 -0.1999 -0.3157 -0.5281
 7506SOL     OW29789   3.409   2.056   3.147  0.0450 -0.2314  0.9395
 7506SOL    HW229790   3.369   1.973   3.121  1.0838 -0.2547 -0.7510
 7506SOL    HW329791   3.500   2.034   3.166  0.9710  0.8038 -1.8153
 7506SOL    MW429792   3.415   2.042   3.146  0.3043 -0.0979  0.3530
 7507SOL     OW29793   3.646   2.734   2.720 -0.2720  0.2555 -0.3173
 7507SOL    HW229794   3.639   2.685   2.638  1.6345  0.0527 -0.4075
 7507SOL    HW329795   3.573   2.796   2.717 -1.5855 -1.2415 -1.0995
 7507SOL    MW429796   3.636   2.735   2.709 -0.1937  0.0312 -0.4324
 7508SOL     OW29797   2.001   3.577   0.664  0.3470 -0.2850 -0.2790
 7508SOL    HW229798   1.933   3.538   0.718  1.0386 -1.4530 -0.2217
 7508SOL    HW329799   1.961   3.584   0.577 -0.0172 -0.4723 -0.1290
 7508SOL    MW429800   1.987   3.573   0.659  0.3902 -0.4638 -0.2516
 7509SOL     OW29801   4.102   4.545   4.719 -0.4413  0.0510  0.0996
 7509SOL    HW229802   4.071   4.585   4.799 -1.8645  0.1095 -0.4552
 7509SOL    HW329803   4.084   4.451   4.729  0.1257 -0.0534  0.1756
 7509SOL    MW429804   4.096   4.537   4.731 -0.5542  0.0449  0.0364
 7510SOL     OW29805   6.123   6.169   5.490  0.8072 -0.3351 -0.2973
 7510SOL    HW229806   6.169   6.245   5.455  0.4686 -0.4837 -1.0802
 7510SOL    HW329807   6.192   6.104   5.505  1.2525  0.4613  1.3694
 7510SOL    MW429808   6.138   6.170   5.488  0.8213 -0.2496 -0.1807
 7511SOL     OW29809   4.672   3.316   4.178 -0.4604  0.4363  0.0068
 7511SOL    HW229810   4.661   3.359   4.263  0.6239 -0.6921  0.7575
 7511SOL    HW329811   4.679   3.223   4.199  1.6368  0.2782 -1.1130
 7511SOL    MW429812   4.671   3.310   4.192 -0.0406  0.2666 -0.0419
 7512SOL     OW29813   6.346   2.005   2.186 -0.1732  0.4475 -0.5374
 7512SOL    HW229814   6.295   1.930   2.219  0.4313 -0.8894 -2.4942
 7512SOL    HW329815   6.282   2.076   2.180 -0.6897  0.2658  1.7100
 7512SOL    MW429816   6.331   2.004   2.190 -0.1616  0.2471 -0.4990
 7513SOL     OW29817   0.380   1.581   2.192  0.6216  0.0340  0.7011
 7513SOL    HW229818   0.338   1.542   2.268  1.1695 -1.9712  0.0259
 7513SOL    HW329819   0.454   1.630   2.227 -1.6314  2.9108  1.8329
 7513SOL    MW429820   0.384   1.582   2.206  0.3966  0.1490  0.7614
 7514SOL     OW29821   3.118   0.709   1.083  0.1257  0.3611  0.9583
 7514SOL    HW229822   3.131   0.641   1.017  1.2312  0.2530  1.2736
 7514SOL    HW329823   3.038   0.683   1.129  1.0129 -1.2285  1.6604
 7514SOL    MW429824   3.109   0.697   1.080  0.3886  0.1371  1.0926
 7515SOL     OW29825   5.507   0.437   2.540  0.1292 -0.0025 -0.9717
 7515SOL    HW229826   5.507   0.506   2.606  0.9048 -0.5780 -0.3387
 7515SOL    HW329827   5.415   0.420   2.522 -0.1169 -0.1752  0.3495
 7515SOL    MW429828   5.495   0.444   2.547  0.1991 -0.1012 -0.7138
 7516SOL     OW29829   3.926   0.676   0.763  0.3429 -0.1211 -0.3379
 7516SOL    HW229830   3.853   0.625   0.798 -0.4455  0.2703 -1.3596
 7516SOL    HW329831   3.958   0.623   0.690 -1.1542  1.2689 -2.0778
 7516SOL    MW429832   3.920   0.662   0.758  0.0413  0.1139 -0.7023
 7517SOL     OW29833   2.654   1.019   3.309 -0.0315 -0.2186 -0.0390
 7517SOL    HW229834   2.675   1.049   3.221 -1.3331  0.9648  0.0073
 7517SOL    HW329835   2.712   1.069   3.367  0.6450 -0.8113 -0.1919
 7517SOL    MW429836   2.664   1.029   3.305 -0.1140 -0.1406 -0.0531
 7518SOL     OW29837   0.640   0.486   2.804 -0.2159 -0.6544 -0.1420
 7518SOL    HW229838   0.681   0.401   2.825  1.5381  0.2395  0.2959
 7518SOL    HW329839   0.591   0.509   2.883 -1.7975 -1.8137 -0.7264
 7518SOL    MW429840   0.639   0.478   2.818 -0.1932 -0.6894 -0.1613
 7519SOL     OW29841   4.318   2.970   6.144 -0.4623  0.1147 -0.1739
 7519SOL    HW229842   4.335   2.931   6.058 -2.0626  0.1042 -0.5220
 7519SOL    HW329843   4.280   2.898   6.195  0.3985  0.1427  0.5362
 7519SOL    MW429844   4.315   2.955   6.140 -0.5599  0.1170 -0.1261
 7520SOL     OW29845   0.052   1.409   2.780  0.0137 -0.0521  0.3237
 7520SOL    HW229846   0.117   1.339   2.776 -1.9011 -1.9179  0.1379
 7520SOL    HW329847  -0.009   1.381   2.848 -1.4358  0.8285 -0.5619
 7520SOL    MW429848   0.053   1.396   2.788 -0.4302 -0.1821  0.1823
 7521SOL     OW29849   0.642   0.164   1.737 -0.0565  0.1147 -0.2366
 7521SOL    HW229850   0.700   0.112   1.682  0.7749  1.0239 -0.2502
 7521SOL    HW329851   0.681   0.159   1.825  0.3745  1.1850 -0.3557
 7521SOL    MW429852   0.655   0.156   1.742  0.1101  0.3759 -0.2541
 7522SOL     OW29853   4.165   3.864   4.674 -0.1041 -0.0414 -0.3638
 7522SOL    HW229854   4.110   3.837   4.748  0.9906 -1.3541  0.0061
 7522SOL    HW329855   4.117   3.833   4.597 -1.0980  1.0554 -0.2069
 7522SOL    MW429856   4.151   3.856   4.673 -0.0908 -0.0699 -0.2943
 7523SOL     OW29857   4.583   3.345   2.245 -0.0127  0.2942  0.0863
 7523SOL    HW229858   4.506   3.358   2.301  0.7265  2.0919  0.7792
 7523SOL    HW329859   4.610   3.433   2.221  2.5581 -0.1739  0.9066
 7523SOL    MW429860   4.576   3.358   2.249  0.4240  0.4696  0.2860
 7524SOL     OW29861   5.123   5.730   0.722  0.3131  0.4619 -0.3167
 7524SOL    HW229862   5.108   5.672   0.796  0.2072  0.8343 -0.0402
 7524SOL    HW329863   5.099   5.679   0.645 -2.0947  0.8904  0.0738
 7524SOL    MW429864   5.118   5.716   0.721 -0.0186  0.5676 -0.2287
 7525SOL     OW29865   6.165   1.409   3.173  0.0186  0.7862 -0.1134
 7525SOL    HW229866   6.183   1.490   3.221  0.1452  1.3998 -1.1645
 7525SOL    HW329867   6.079   1.422   3.134  0.7774  1.1600 -1.7425
 7525SOL    MW429868   6.156   1.421   3.174  0.1354  0.9164 -0.4670
 7526SOL     OW29869   0.658   3.267   6.235 -0.3839  0.0317  0.4719
 7526SOL    HW229870   0.695   3.355   6.248 -1.0809  0.4240 -0.1456
 7526SOL    HW329871   0.729   3.208   6.260  1.2043  0.7392 -1.9439
 7526SOL    MW429872   0.672   3.271   6.240 -0.2664  0.1768  0.0717
 7527SOL     OW29873   1.361   4.657   2.070  0.4858  0.8658 -0.0741
 7527SOL    HW229874   1.432   4.593   2.075  0.9473  1.3556 -0.2665
 7527SOL    HW329875   1.282   4.604   2.065  0.9275  0.2635 -1.4914
 7527SOL    MW429876   1.360   4.641   2.070  0.6050  0.8509 -0.2865
 7528SOL     OW29877   6.394   1.179   1.940  0.1206 -0.1031 -0.2922
 7528SOL    HW229878   6.472   1.125   1.928  0.7077  0.4359  0.9240
 7528SOL    HW329879   6.360   1.192   1.851  0.9094 -1.0579 -0.7609
 7528SOL    MW429880   6.400   1.173   1.926  0.3021 -0.1579 -0.1936
 7529SOL     OW29881   3.316   5.393   3.439 -0.0433  0.2682 -0.3830
 7529SOL    HW229882   3.234   5.348   3.458 -0.2803  0.4038 -1.0399
 7529SOL    HW329883   3.340   5.436   3.521  0.5554 -1.5969  0.4934
 7529SOL    MW429884   3.308   5.393   3.452  0.0044  0.0400 -0.3540
 7530SOL     OW29885   5.630   6.145   5.483  0.4331 -0.1819  0.1860
 7530SOL    HW229886   5.587   6.060   5.492 -0.3345  0.2795  1.0709
 7530SOL    HW329887   5.721   6.124   5.462 -0.2516 -1.1933 -2.1515
 7530SOL    MW429888   5.636   6.131   5.481  0.2415 -0.2545 -0.0056
 7531SOL     OW29889   5.236   1.597   3.656  0.3113 -0.1262 -0.2296
 7531SOL    HW229890   5.329   1.601   3.676  0.6291  0.9874 -1.7195
 7531SOL    HW329891   5.209   1.508   3.679  2.0541 -0.9046 -1.0485
 7531SOL    MW429892   5.244   1.586   3.662  0.5832 -0.0820 -0.5342
 7532SOL     OW29893   3.175   1.375   0.375  0.3985  0.0181  1.1041
 7532SOL    HW229894   3.113   1.364   0.447 -0.9722 -1.9972 -0.2627
 7532SOL    HW329895   3.261   1.357   0.413 -0.4502 -2.7842  1.9466
 7532SOL    MW429896   3.178   1.371   0.389  0.1057 -0.6175  1.0349
 7533SOL     OW29897   0.696   4.991   6.276 -0.1495 -0.1162  0.5179
 7533SOL    HW229898   0.725   5.058   6.214  2.0059 -1.4519 -0.0055
 7533SOL    HW329899   0.675   4.915   6.222 -3.0771  0.1978  1.0569
 7533SOL    MW429900   0.697   4.990   6.261 -0.2513 -0.2510  0.5199
 7534SOL     OW29901   2.883   4.250   3.586 -0.5636 -0.3709 -0.1997
 7534SOL    HW229902   2.928   4.334   3.594 -0.3312 -0.6020  1.1162
 7534SOL    HW329903   2.831   4.259   3.506  0.4162  0.5560 -0.7646
 7534SOL    MW429904   2.882   4.262   3.576 -0.4036 -0.2791 -0.1006
 7535SOL     OW29905   4.805   6.022   1.833  0.1310 -0.5046  0.4770
 7535SOL    HW229906   4.762   5.981   1.758  0.8653 -0.9096  0.2626
 7535SOL    HW329907   4.874   6.076   1.795  1.1378 -1.4551  0.8638
 7535SOL    MW429908   4.809   6.024   1.818  0.3607 -0.6834  0.4997
 7536SOL     OW29909   0.062   3.756   3.644  0.1146  0.4453  0.5337
 7536SOL    HW229910   0.091   3.788   3.729  0.2588 -1.3784  1.2114
 7536SOL    HW329911  -0.031   3.736   3.656  0.0036  0.6974  0.1051
 7536SOL    MW429912   0.053   3.757   3.657  0.1190  0.2380  0.5666
 7537SOL     OW29913   0.628   4.170   6.241 -1.1414 -0.0653 -0.5821
 7537SOL    HW229914   0.565   4.235   6.272  1.0038  1.3621  1.1860
 7537SOL    HW329915   0.618   4.096   6.300 -0.0070  0.9205  0.9506
 7537SOL    MW429916   0.619   4.169   6.253 -0.7087  0.2531 -0.1466
 7538SOL     OW29917   2.662   5.603   4.590 -0.0473  0.1878  0.0950
 7538SOL    HW229918   2.582   5.625   4.638  0.1979  0.1252  0.5328
 7538SOL    HW329919   2.634   5.598   4.498 -0.7969 -1.0332  0.3723
 7538SOL    MW429920   2.648   5.605   4.584 -0.1138  0.0184  0.1894
 7539SOL     OW29921   1.294   1.966   3.146  0.0708 -0.1449 -0.6902
 7539SOL    HW229922   1.222   1.924   3.099  0.6535 -1.8732 -0.1108
 7539SOL    HW329923   1.346   1.893   3.181 -0.9697  0.9150  3.6969
 7539SOL    MW429924   1.291   1.951   3.145  0.0104 -0.2331 -0.0349
 7540SOL     OW29925   5.025   2.015   0.309  0.4861  0.0173 -0.1669
 7540SOL    HW229926   5.029   2.082   0.241  1.1202  0.3667  0.2148
 7540SOL    HW329927   5.029   1.932   0.261 -2.0845  0.1612 -0.8048
 7540SOL    MW429928   5.026   2.013   0.294  0.2306  0.0824 -0.2007
 7541SOL     OW29929   0.850   0.416   4.561 -0.1553  0.3767 -0.0280
 7541SOL    HW229930   0.904   0.495   4.556  0.9970 -0.3993 -0.2367
 7541SOL    HW329931   0.834   0.405   4.655 -1.0331  1.2946 -0.0448
 7541SOL    MW429932   0.855   0.425   4.573 -0.1191  0.3954 -0.0578
 7542SOL     OW29933   0.018   0.490   3.209  0.5311  0.4575  0.4795
 7542SOL    HW229934  -0.051   0.493   3.142  0.8771  1.4234  0.1389
 7542SOL    HW329935   0.043   0.398   3.215 -1.2106 -0.0083  1.0629
 7542SOL    MW429936   0.013   0.478   3.201  0.3470  0.5235  0.5115
 7543SOL     OW29937   5.329   0.541   6.278 -0.1405 -0.5658  0.2536
 7543SOL    HW229938   5.413   0.563   6.318 -0.4890 -0.9461  1.2133
 7543SOL    HW329939   5.271   0.523   6.352 -0.9880 -0.6017 -0.4053
 7543SOL    MW429940   5.333   0.542   6.293 -0.2983 -0.6207  0.2933
 7544SOL     OW29941   5.012   1.665   5.916 -0.0058  0.0894  0.0561
 7544SOL    HW229942   5.041   1.585   5.873 -0.4908 -0.3110  0.4489
 7544SOL    HW329943   4.921   1.675   5.888 -0.7410 -0.8856  1.9595
 7544SOL    MW429944   5.004   1.656   5.907 -0.1668 -0.0920  0.3591
 7545SOL     OW29945   3.863   1.275   0.599  0.0131 -0.2197 -0.0141
 7545SOL    HW229946   3.912   1.241   0.674 -0.5979  1.1976  1.0579
 7545SOL    HW329947   3.869   1.370   0.607 -0.0797 -0.0473 -1.7615
 7545SOL    MW429948   3.870   1.283   0.610 -0.0798 -0.0099 -0.1032
 7546SOL     OW29949   3.326   1.172   4.978 -0.3276  0.0636  0.2506
 7546SOL    HW229950   3.287   1.230   5.043  1.5198  0.3242  1.1766
 7546SOL    HW329951   3.338   1.227   4.901 -1.1683  0.1388  0.1608
 7546SOL    MW429952   3.322   1.187   4.977 -0.1948  0.1079  0.3609
 7547SOL     OW29953   1.441   2.315   4.370 -0.3394  0.0423 -0.6496
 7547SOL    HW229954   1.431   2.221   4.355 -0.4738 -0.1140  0.3101
 7547SOL    HW329955   1.411   2.328   4.460 -2.6088  1.3796 -1.4878
 7547SOL    MW429956   1.436   2.304   4.380 -0.6565  0.1981 -0.6335
 7548SOL     OW29957   6.184   1.076   2.889 -0.4606 -0.1024  0.0425
 7548SOL    HW229958   6.202   1.069   2.795 -1.1973 -2.7168  0.0295
 7548SOL    HW329959   6.233   1.153   2.917  1.2033 -0.2707 -2.1603
 7548SOL    MW429960   6.193   1.085   2.880 -0.3383 -0.4695 -0.2498
 7549SOL     OW29961   0.212   0.413   6.487  0.3292  0.0571  0.7023
 7549SOL    HW229962   0.146   0.350   6.458  0.1996  0.3956  0.2455
 7549SOL    HW329963   0.163   0.479   6.536  0.2961  0.4226  0.1801
 7549SOL    MW429964   0.197   0.413   6.490  0.3077  0.1500  0.5731
 7550SOL     OW29965   0.308   1.539   0.229  0.1097 -0.1267 -0.0810
 7550SOL    HW229966   0.314   1.629   0.198 -0.8225 -0.7517 -2.2357
 7550SOL    HW329967   0.258   1.545   0.311 -3.1945  1.0353 -2.0224
 7550SOL    MW429968   0.302   1.552   0.236 -0.4493 -0.0558 -0.6214
 7551SOL     OW29969   2.949   4.360   5.154 -0.0462  0.0180  0.1478
 7551SOL    HW229970   2.872   4.323   5.110 -0.6877  0.1902  1.0950
 7551SOL    HW329971   2.961   4.445   5.113 -0.3470 -0.0159 -0.0185
 7551SOL    MW429972   2.941   4.366   5.143 -0.1705  0.0363  0.2508
 7552SOL     OW29973   1.277   6.155   5.267 -0.5019  0.5123 -0.0361
 7552SOL    HW229974   1.303   6.170   5.176  0.8159 -0.1173  0.2060
 7552SOL    HW329975   1.233   6.070   5.265  0.5686 -0.0733  0.0621
 7552SOL    MW429976   1.275   6.146   5.254 -0.1868  0.3520  0.0088
 7553SOL     OW29977   3.494   5.347   2.116 -0.3774  0.1103  0.3726
 7553SOL    HW229978   3.439   5.424   2.127  0.1807  0.6621 -0.5735
 7553SOL    HW329979   3.543   5.364   2.036 -1.1035 -1.7461 -0.5268
 7553SOL    MW429980   3.493   5.359   2.107 -0.3996 -0.0618  0.1291
 7554SOL     OW29981   3.749   5.205   6.161 -0.5303 -0.2562  0.2810
 7554SOL    HW229982   3.774   5.288   6.121 -1.9909 -0.3126 -0.8060
 7554SOL    HW329983   3.691   5.229   6.233 -2.5618 -0.3523 -1.2434
 7554SOL    MW429984   3.745   5.219   6.165 -0.9910 -0.2763 -0.0636
 7555SOL     OW29985   2.175   2.900   4.170  0.5375 -0.4175 -0.3958
 7555SOL    HW229986   2.268   2.876   4.177  0.3839 -0.7003  0.8497
 7555SOL    HW329987   2.165   2.976   4.227 -0.2561 -1.2086  0.5525
 7555SOL    MW429988   2.186   2.907   4.178  0.4125 -0.5592 -0.1064
 7556SOL     OW29989   5.585   4.021   2.194  0.2232  0.0796 -0.2477
 7556SOL    HW229990   5.521   4.092   2.194 -0.2910 -0.3198  1.5382
 7556SOL    HW329991   5.550   3.958   2.258  1.4791 -1.0116 -0.5968
 7556SOL    MW429992   5.572   4.022   2.202  0.3211 -0.1170 -0.0582
 7557SOL     OW29993   5.031   1.330   2.147  0.1828 -0.1501 -0.0197
 7557SOL    HW229994   5.093   1.273   2.100  0.2574  1.5257 -2.0997
 7557SOL    HW329995   5.080   1.359   2.224  1.6959  0.3660 -1.1173
 7557SOL    MW429996   5.046   1.327   2.151  0.3923  0.1391 -0.4390
 7558SOL     OW29997   2.905   1.582   1.735 -0.7558 -0.3240  0.6429
 7558SOL    HW229998   2.834   1.634   1.698  0.1190  0.9285  0.6278
 7558SOL    HW329999   2.962   1.564   1.660  0.1507  0.7656  1.0271
 7558SOL    MW430000   2.903   1.587   1.720 -0.5208 -0.0150  0.6916
 7559SOL     OW30001   2.180   4.844   5.748  0.3942  0.1920 -0.0357
 7559SOL    HW230002   2.156   4.935   5.730  1.4407  0.1388 -2.0327
 7559SOL    HW330003   2.273   4.838   5.723  0.7334 -1.1138  1.3594
 7559SOL    MW430004   2.189   4.855   5.742  0.5770  0.0127 -0.1151
 7560SOL     OW30005   4.499   4.815   3.957  0.3376 -0.5731  0.1128
 7560SOL    HW230006   4.573   4.827   3.897  1.4419 -1.9102  1.1358
 7560SOL    HW330007   4.445   4.748   3.915  0.3619 -0.4827 -0.0623
 7560SOL    MW430008   4.502   4.808   3.943  0.4865 -0.7376  0.2247
 7561SOL     OW30009   4.729   0.929   3.122  0.1928  0.1017  0.2580
 7561SOL    HW230010   4.658   0.982   3.087 -1.6141 -1.8132  0.8212
 7561SOL    HW330011   4.802   0.991   3.133 -1.1768  2.0257 -0.8383
 7561SOL    MW430012   4.729   0.944   3.119 -0.2263  0.1029  0.1877
 7562SOL     OW30013   5.854   3.315   1.635  0.4387 -0.0165 -0.1357
 7562SOL    HW230014   5.777   3.275   1.675 -0.9523  1.3714 -1.3062
 7562SOL    HW330015   5.896   3.243   1.587  0.5198 -1.0324  1.3971
 7562SOL    MW430016   5.849   3.300   1.634  0.2659  0.0326 -0.0879
 7563SOL     OW30017   5.590   2.414   4.085 -0.1050  0.8737 -0.4846
 7563SOL    HW230018   5.501   2.401   4.050 -0.4193  0.4007  0.4643
 7563SOL    HW330019   5.620   2.325   4.105  0.2097  1.1124  0.0970
 7563SOL    MW430020   5.582   2.400   4.083 -0.1049  0.8428 -0.2826
 7564SOL     OW30021   1.884   5.915   1.322  0.1632  0.1231 -0.4600
 7564SOL    HW230022   1.874   5.938   1.229  0.2027  0.4438 -0.3845
 7564SOL    HW330023   1.800   5.878   1.347  0.0764  0.2478 -0.5639
 7564SOL    MW430024   1.872   5.913   1.313  0.1569  0.1819 -0.4637
 7565SOL     OW30025   1.714   0.846   5.053 -0.0433  0.2286  0.3954
 7565SOL    HW230026   1.676   0.896   5.125  0.3231  2.1870 -0.7003
 7565SOL    HW330027   1.769   0.781   5.096 -1.1726  0.2184  1.8991
 7565SOL    MW430028   1.716   0.844   5.068 -0.1440  0.4856  0.4493
 7566SOL     OW30029   4.025   1.534   4.791 -0.4768 -0.5370 -0.2875
 7566SOL    HW230030   4.119   1.548   4.798 -0.6238  0.0629  0.6685
 7566SOL    HW330031   3.987   1.584   4.863 -1.5356 -0.7427 -0.6705
 7566SOL    MW430032   4.032   1.542   4.801 -0.6359 -0.4850 -0.2119
 7567SOL     OW30033   6.087   0.209   6.200 -0.0525  0.2440 -0.0572
 7567SOL    HW230034   6.129   0.206   6.114 -1.4328  0.2916 -0.7504
 7567SOL    HW330035   6.032   0.130   6.202 -0.6952  0.7002  0.4237
 7567SOL    MW430036   6.086   0.198   6.189 -0.3194  0.3105 -0.0852
 7568SOL     OW30037   0.030   4.432   2.266 -0.3629  0.1065 -0.5420
 7568SOL    HW230038  -0.057   4.435   2.224  0.1705 -0.4100 -1.7366
 7568SOL    HW330039   0.026   4.354   2.322 -0.1196 -0.9717 -1.9498
 7568SOL    MW430040   0.018   4.422   2.268 -0.2604 -0.1039 -0.8853
 7569SOL     OW30041   4.747   0.150   4.439 -0.2997  0.2032 -0.3274
 7569SOL    HW230042   4.763   0.057   4.454 -0.8770  0.0287 -0.7332
 7569SOL    HW330043   4.834   0.186   4.421  0.2698  0.2186  2.1209
 7569SOL    MW430044   4.761   0.142   4.438 -0.3007  0.1822 -0.0579
 7570SOL     OW30045   5.987   0.901   5.179 -0.1106  0.3586  0.0976
 7570SOL    HW230046   5.898   0.875   5.155  0.2738 -1.8301  0.7945
 7570SOL    HW330047   6.027   0.927   5.096  0.6513 -5.3417 -1.7907
 7570SOL    MW430048   5.980   0.901   5.165  0.0407 -0.6823 -0.0596
 7571SOL     OW30049   3.372   2.209   0.407 -0.0353  0.0247  0.0699
 7571SOL    HW230050   3.416   2.290   0.433  0.7667 -1.0302  2.2409
 7571SOL    HW330051   3.395   2.199   0.315  1.8052  1.0676  0.3507
 7571SOL    MW430052   3.381   2.219   0.399  0.3134  0.0231  0.3934
 7572SOL     OW30053   3.884   6.104   3.493 -0.4310 -0.2138 -0.2597
 7572SOL    HW230054   3.948   6.082   3.426 -0.3262  0.2559 -0.3198
 7572SOL    HW330055   3.925   6.174   3.544 -1.0842  0.4312 -0.5974
 7572SOL    MW430056   3.897   6.110   3.491 -0.5034 -0.0667 -0.3122
 7573SOL     OW30057   5.030   1.712   1.852  0.0076  0.1395 -0.3503
 7573SOL    HW230058   5.057   1.803   1.861  1.2596 -0.0675 -1.6843
 7573SOL    HW330059   5.045   1.673   1.938 -1.6141  1.4327  0.5628
 7573SOL    MW430060   5.035   1.719   1.865 -0.0412  0.2828 -0.4058
 7574SOL     OW30061   4.344   0.547   4.788  0.2913  0.4205 -1.0850
 7574SOL    HW230062   4.308   0.529   4.875  1.8923  3.8850  0.4954
 7574SOL    HW330063   4.303   0.630   4.761  1.0304  0.2486 -2.9057
 7574SOL    MW430064   4.334   0.556   4.796  0.6001  0.8550 -1.1167
 7575SOL     OW30065   0.996   5.515   5.682  1.2059  0.2250  0.0389
 7575SOL    HW230066   0.962   5.534   5.594  1.3375 -0.3208 -0.1358
 7575SOL    HW330067   0.965   5.426   5.700 -1.4617  1.3606  1.8046
 7575SOL    MW430068   0.987   5.506   5.673  0.8713  0.3028  0.2488
 7576SOL     OW30069   0.393   4.042   0.584  0.1841  0.2693  0.0473
 7576SOL    HW230070   0.371   4.104   0.515  1.3607  1.4636  0.6957
 7576SOL    HW330071   0.401   4.096   0.663 -0.0298 -0.9034  0.8925
 7576SOL    MW430072   0.391   4.057   0.585  0.3111  0.2721  0.2443
 7577SOL     OW30073   0.259   6.388   1.554  0.5842 -0.6092  0.2745
 7577SOL    HW230074   0.176   6.390   1.602  0.5881  1.7132  0.3185
 7577SOL    HW330075   0.254   6.464   1.495  2.2048 -1.1126 -0.5625
 7577SOL    MW430076   0.247   6.398   1.552  0.7985 -0.3692  0.1698
 7578SOL     OW30077   0.339   2.551   1.435 -0.3278  0.2234  0.4526
 7578SOL    HW230078   0.421   2.507   1.414 -0.2725  0.1213  0.8770
 7578SOL    HW330079   0.291   2.554   1.352 -0.7522 -1.5103  0.6109
 7578SOL    MW430080   0.343   2.546   1.422 -0.3765 -0.0188  0.5295
 7579SOL     OW30081   0.124   3.714   4.226  0.2202 -0.0030 -0.3248
 7579SOL    HW230082   0.156   3.791   4.274  0.0455  0.4158 -0.8639
 7579SOL    HW330083   0.144   3.640   4.283  0.6516  0.4144  0.0774
 7579SOL    MW430084   0.131   3.715   4.240  0.2541  0.1073 -0.3428
 7580SOL     OW30085   3.404   3.914   3.316 -0.3096 -0.0596 -0.4602
 7580SOL    HW230086   3.418   4.007   3.336 -0.1781 -0.6487  2.6430
 7580SOL    HW330087   3.309   3.906   3.304 -0.7082  0.0966  2.0640
 7580SOL    MW430088   3.393   3.925   3.317 -0.3448 -0.1167  0.2823
 7581SOL     OW30089   1.965   3.456   3.632 -0.4985  0.8052 -0.0544
 7581SOL    HW230090   1.927   3.407   3.705 -2.1864 -0.4565 -1.6871
 7581SOL    HW330091   1.967   3.547   3.663  1.0721  0.0478  2.3879
 7581SOL    MW430092   1.960   3.462   3.646 -0.5140  0.5388  0.0525
 7582SOL     OW30093   1.654   2.174   2.213  0.0799  0.4688 -0.1568
 7582SOL    HW230094   1.608   2.253   2.242  1.6244  1.0201  0.8939
 7582SOL    HW330095   1.658   2.119   2.291  0.1140 -0.1129 -0.5656
 7582SOL    MW430096   1.648   2.177   2.227  0.2881  0.4648 -0.0721
 7583SOL     OW30097   0.352   5.966   5.444  0.4466 -0.2794 -0.0528
 7583SOL    HW230098   0.381   5.967   5.535 -0.4846  0.1208  0.2438
 7583SOL    HW330099   0.265   6.005   5.446  0.4573 -0.1853 -1.1302
 7583SOL    MW430100   0.344   5.971   5.456  0.3251 -0.2142 -0.1558
 7584SOL     OW30101   0.789   3.715   2.738 -0.4638  0.2774 -0.2081
 7584SOL    HW230102   0.821   3.662   2.811  0.6226 -0.5815 -1.2403
 7584SOL    HW330103   0.863   3.771   2.715 -0.1700 -0.6331 -1.6605
 7584SOL    MW430104   0.803   3.716   2.744 -0.2817  0.0440 -0.5359
 7585SOL     OW30105   4.510   3.078   2.509 -0.2632  0.0731  0.1848
 7585SOL    HW230106   4.540   3.169   2.513 -2.2282  1.0388 -2.9899
 7585SOL    HW330107   4.523   3.052   2.418  2.3495 -3.7731  1.4039
 7585SOL    MW430108   4.515   3.087   2.497 -0.1778 -0.3070 -0.0732
 7586SOL     OW30109   3.151   0.733   2.519 -0.6235  0.5152  0.4208
 7586SOL    HW230110   3.246   0.739   2.527 -0.5320 -2.1138  2.9344
 7586SOL    HW330111   3.123   0.823   2.503  2.0534  2.0405  3.0804
 7586SOL    MW430112   3.160   0.746   2.518 -0.2582  0.3696  1.1034
 7587SOL     OW30113   1.872   4.141   1.510  0.2358 -0.3362  0.1060
 7587SOL    HW230114   1.907   4.109   1.426 -0.2778  1.0144 -0.6528
 7587SOL    HW330115   1.949   4.149   1.566  0.5047 -1.9232  0.0197
 7587SOL    MW430116   1.887   4.138   1.506  0.2035 -0.3674 -0.0055
 7588SOL     OW30117   2.288   2.093   3.521  0.5933  0.2469 -0.3346
 7588SOL    HW230118   2.379   2.117   3.535  0.3520  1.5545 -0.8978
 7588SOL    HW330119   2.252   2.083   3.609  1.2712 -0.2750 -0.1089
 7588SOL    MW430120   2.295   2.095   3.534  0.6509  0.3506 -0.3791
 7589SOL     OW30121   4.288   5.789   5.637  0.0967  0.1191  0.2839
 7589SOL    HW230122   4.381   5.814   5.643 -0.0554  0.5123  1.0724
 7589SOL    HW330123   4.266   5.759   5.725 -0.9783  1.6506  0.5749
 7589SOL    MW430124   4.298   5.788   5.649 -0.0652  0.3730  0.4263
 7590SOL     OW30125   3.102   4.697   4.384  0.6554  0.1545 -0.2087
 7590SOL    HW230126   3.015   4.689   4.425 -0.2157  0.4301 -1.8900
 7590SOL    HW330127   3.125   4.789   4.396  0.5293  0.1733 -0.1053
 7590SOL    MW430128   3.093   4.708   4.391  0.5238  0.1934 -0.4169
 7591SOL     OW30129   3.471   4.965   2.455 -0.2375  0.0471 -0.0819
 7591SOL    HW230130   3.437   5.054   2.452  0.1346  0.2648  1.5070
 7591SOL    HW330131   3.410   4.918   2.511 -1.4741 -1.2169 -2.3334
 7591SOL    MW430132   3.459   4.971   2.462 -0.3516 -0.0910 -0.1693
 7592SOL     OW30133   3.318   4.298   2.627 -0.0970 -0.3140 -0.0970
 7592SOL    HW230134   3.386   4.247   2.582 -0.4007 -0.6432 -0.1906
 7592SOL    HW330135   3.349   4.304   2.717  0.5774  0.4517 -0.3588
 7592SOL    MW430136   3.331   4.292   2.633 -0.0481 -0.2564 -0.1439
 7593SOL     OW30137   0.155   3.222   1.865  0.2263 -0.0033 -0.5359
 7593SOL    HW230138   0.104   3.203   1.786  1.1224  0.8166 -1.3373
 7593SOL    HW330139   0.137   3.148   1.923 -2.0948  0.3894 -0.6382
 7593SOL    MW430140   0.146   3.210   1.862  0.0383  0.1567 -0.6551
 7594SOL     OW30141   1.318   0.154   2.554  0.3614 -0.2413  0.3356
 7594SOL    HW230142   1.388   0.216   2.533 -0.0327 -0.3180 -1.3283
 7594SOL    HW330143   1.359   0.068   2.550  0.3405 -0.2408  0.1087
 7594SOL    MW430144   1.333   0.151   2.551  0.3066 -0.2514  0.0862
 7595SOL     OW30145   4.325   3.296   2.781  0.0367  0.1283 -1.1472
 7595SOL    HW230146   4.242   3.319   2.823 -1.1599 -2.0277 -2.1570
 7595SOL    HW330147   4.348   3.374   2.729  1.0887  2.5057  2.4925
 7595SOL    MW430148   4.317   3.309   2.780  0.0176  0.1575 -0.8002
 7596SOL     OW30149   2.663   1.402   0.232  0.1030 -0.2038 -0.3962
 7596SOL    HW230150   2.757   1.387   0.223  0.4069  0.7284  0.8687
 7596SOL    HW330151   2.640   1.455   0.155  0.5175 -0.7505 -0.9109
 7596SOL    MW430152   2.673   1.407   0.221  0.1978 -0.1530 -0.2972
 7597SOL     OW30153   6.029   3.170   2.843  0.0638  0.1547 -0.3545
 7597SOL    HW230154   6.003   3.245   2.790 -0.4053  1.2476  1.3375
 7597SOL    HW330155   5.970   3.171   2.918  1.2591 -0.7830  0.6616
 7597SOL    MW430156   6.018   3.180   2.846  0.1596  0.1752  0.0028
 7598SOL     OW30157   5.103   0.234   2.577 -0.3060 -0.5899 -0.7933
 7598SOL    HW230158   5.015   0.227   2.540 -0.3500 -1.0288 -0.6088
 7598SOL    HW330159   5.130   0.143   2.592  0.6933 -0.5271 -2.0503
 7598SOL    MW430160   5.094   0.221   2.574 -0.1800 -0.6395 -0.9348
 7599SOL     OW30161   4.323   5.836   2.319 -0.0643 -0.1179 -0.0934
 7599SOL    HW230162   4.300   5.881   2.238 -1.2783 -0.0104  0.2972
 7599SOL    HW330163   4.272   5.755   2.317  0.9989 -0.8051 -0.1053
 7599SOL    MW430164   4.313   5.831   2.308 -0.0842 -0.1944 -0.0435
 7600SOL     OW30165   6.158   4.662   5.829 -0.8024  0.4310 -0.0686
 7600SOL    HW230166   6.212   4.584   5.820  0.3511  1.2956 -0.9240
 7600SOL    HW330167   6.069   4.629   5.844 -0.1988 -1.0216  0.4026
 7600SOL    MW430168   6.153   4.648   5.830 -0.5706  0.3534 -0.1193
 7601SOL     OW30169   3.785   3.882   2.524  0.2264  0.1746  0.5032
 7601SOL    HW230170   3.698   3.870   2.562  1.1552 -1.7127  2.2624
 7601SOL    HW330171   3.768   3.903   2.432 -2.1476 -3.5890 -0.1654
 7601SOL    MW430172   3.771   3.883   2.517  0.0357 -0.5709  0.6471
 7602SOL     OW30173   1.275   2.988   4.618  0.0195  0.2305  0.2105
 7602SOL    HW230174   1.194   2.971   4.570  0.3412  0.9947 -0.6444
 7602SOL    HW330175   1.344   2.963   4.557  0.4307 -0.3964  0.9262
 7602SOL    MW430176   1.273   2.983   4.604  0.1162  0.2486  0.1921
 7603SOL     OW30177   6.363   0.208   2.266  0.3684 -0.1890 -0.4538
 7603SOL    HW230178   6.390   0.127   2.224  0.3418 -0.5702  0.2496
 7603SOL    HW330179   6.332   0.263   2.194 -2.1598 -1.7807 -0.7104
 7603SOL    MW430180   6.362   0.205   2.251  0.0313 -0.4493 -0.3949
 7604SOL     OW30181   4.339   3.156   4.270  0.0065  0.2136  0.0897
 7604SOL    HW230182   4.277   3.138   4.200 -0.6569 -2.0798  1.1679
 7604SOL    HW330183   4.284   3.166   4.348  0.8292  0.9458  0.5928
 7604SOL    MW430184   4.323   3.155   4.271  0.0275  0.0076  0.2983
 7605SOL     OW30185   0.576   4.229   4.958 -0.3644  0.1771 -0.5466
 7605SOL    HW230186   0.639   4.196   5.022  0.6620 -2.3600 -2.7061
 7605SOL    HW330187   0.490   4.207   4.996  0.0958  0.9632  1.0339
 7605SOL    MW430188   0.573   4.222   4.972 -0.1682 -0.0539 -0.6230
 7606SOL     OW30189   3.031   4.967   5.640  0.3470  0.2230  0.1182
 7606SOL    HW230190   3.122   4.978   5.666  0.6523 -0.3775 -0.6796
 7606SOL    HW330191   3.017   5.035   5.573  0.4360 -0.1728 -0.3081
 7606SOL    MW430192   3.041   4.978   5.635  0.3990  0.0915 -0.0433
 7607SOL     OW30193   2.535   4.072   4.307 -0.1070  0.0784  0.3480
 7607SOL    HW230194   2.451   4.028   4.297  0.2118 -0.1438 -1.6606
 7607SOL    HW330195   2.517   4.144   4.368 -2.2097  1.1353 -1.3695
 7607SOL    MW430196   2.522   4.076   4.314 -0.3424  0.1885 -0.1436
 7608SOL     OW30197   5.914   5.848   4.963 -0.0535  0.0310  0.4368
 7608SOL    HW230198   5.910   5.813   5.052 -0.1761  0.3810  0.5707
 7608SOL    HW330199   5.978   5.919   4.967  0.0227 -0.0221  0.2195
 7608SOL    MW430200   5.922   5.852   4.975 -0.0596  0.0701  0.4258
 7609SOL     OW30201   0.825   5.822   3.721 -0.0035  0.1109 -0.2344
 7609SOL    HW230202   0.840   5.917   3.726 -1.0378  0.3217 -0.7725
 7609SOL    HW330203   0.757   5.812   3.653 -1.0998 -0.8683  0.9503
 7609SOL    MW430204   0.818   5.834   3.712 -0.2846  0.0095 -0.1491
 7610SOL     OW30205   2.369   0.977   1.307  0.5873  0.5523  0.7141
 7610SOL    HW230206   2.426   0.978   1.385  0.5726 -0.0119  0.7311
 7610SOL    HW330207   2.404   0.907   1.252  0.9242  1.2972 -0.0385
 7610SOL    MW430208   2.381   0.968   1.310  0.6298  0.5762  0.6170
 7611SOL     OW30209   5.912   2.229   5.268 -0.1015  0.4917  0.0827
 7611SOL    HW230210   5.899   2.277   5.186 -0.2649  0.8739  0.3290
 7611SOL    HW330211   5.880   2.288   5.336  1.2827  0.7272  0.5482
 7611SOL    MW430212   5.906   2.243   5.266  0.0596  0.5732  0.1766
 7612SOL     OW30213   6.023   0.417   6.049  0.0255 -0.1464  0.1310
 7612SOL    HW230214   5.952   0.476   6.073 -1.2676 -1.2838 -0.7695
 7612SOL    HW330215   6.036   0.363   6.127 -0.9991 -0.7761 -0.1136
 7612SOL    MW430216   6.015   0.418   6.062 -0.2803 -0.3795 -0.0201
 7613SOL     OW30217   1.537   4.835   3.013  0.6914  0.3821 -0.5668
 7613SOL    HW230218   1.576   4.759   3.056  0.5460  0.2202 -0.7186
 7613SOL    HW330219   1.443   4.816   3.011  0.8935 -0.8084 -3.1911
 7613SOL    MW430220   1.530   4.822   3.018  0.6989  0.2036 -0.9330
 7614SOL     OW30221   5.382   1.318   0.907  0.7967 -0.2713 -0.0307
 7614SOL    HW230222   5.451   1.257   0.884  1.0232 -0.6051  1.4316
 7614SOL    HW330223   5.372   1.308   1.002 -0.5706  0.4847 -0.0720
 7614SOL    MW430224   5.390   1.309   0.916  0.6462 -0.2156  0.1568
 7615SOL     OW30225   5.318   0.049   4.877 -0.1109 -0.7463 -0.3426
 7615SOL    HW230226   5.227   0.070   4.854  0.4359  0.4196 -1.5451
 7615SOL    HW330227   5.350  -0.001   4.802  0.4853 -0.4741 -0.2717
 7615SOL    MW430228   5.310   0.045   4.864  0.0399 -0.5566 -0.4919
 7616SOL     OW30229   4.098   5.021   2.055  0.0344 -0.4815  0.5489
 7616SOL    HW230230   4.148   4.962   2.111  0.6681  0.3104  0.8346
 7616SOL    HW330231   4.073   5.094   2.112  0.6234  0.2953 -0.1657
 7616SOL    MW430232   4.101   5.023   2.070  0.1957 -0.2745  0.4923
 7617SOL     OW30233   1.335   0.162   3.157 -0.1324 -0.0718 -0.0402
 7617SOL    HW230234   1.409   0.120   3.114  0.7222  2.0919 -0.8595
 7617SOL    HW330235   1.265   0.098   3.153  0.8387 -1.1106 -1.9261
 7617SOL    MW430236   1.336   0.148   3.151  0.1085  0.0766 -0.3971
 7618SOL     OW30237   3.173   4.128   1.521 -0.2255  0.2687 -0.0698
 7618SOL    HW230238   3.188   4.189   1.448 -1.0952  2.1970  1.2705
 7618SOL    HW330239   3.243   4.148   1.583  0.3824 -1.2083 -0.2467
 7618SOL    MW430240   3.184   4.139   1.519 -0.2601  0.3283  0.0837
 7619SOL     OW30241   5.219   0.191   1.799  0.5894  0.4180  0.5706
 7619SOL    HW230242   5.244   0.240   1.720  0.3074  2.3761  1.6288
 7619SOL    HW330243   5.125   0.179   1.792  0.9769 -2.7135 -1.0949
 7619SOL    MW430244   5.210   0.196   1.788  0.6033  0.2632  0.4905
 7620SOL     OW30245   2.047   2.366   5.359 -0.4408 -0.2910 -0.2552
 7620SOL    HW230246   1.958   2.334   5.373 -0.3500  0.1430  1.5782
 7620SOL    HW330247   2.039   2.461   5.360  0.2446 -0.1933  1.9276
 7620SOL    MW430248   2.034   2.374   5.361 -0.3384 -0.2209  0.2747
 7621SOL     OW30249   1.587   0.210   1.855  0.3205  0.1926  0.0920
 7621SOL    HW230250   1.568   0.174   1.769  0.8911 -1.8613  0.7871
 7621SOL    HW330251   1.624   0.297   1.836  2.0564 -0.8771 -1.8395
 7621SOL    MW430252   1.590   0.217   1.841  0.6248 -0.2195 -0.0711
 7622SOL     OW30253   2.804   1.763   0.741 -0.6380 -0.0300  0.0106
 7622SOL    HW230254   2.724   1.794   0.783 -0.8428  1.0907 -1.1627
 7622SOL    HW330255   2.872   1.777   0.807 -1.3047 -0.5446  0.8386
 7622SOL    MW430256   2.803   1.769   0.755 -0.7530  0.0499 -0.0350
 7623SOL     OW30257   4.390   2.829   3.272  0.3492  0.1238  0.2369
 7623SOL    HW230258   4.371   2.917   3.239 -0.5387 -0.4529 -0.8402
 7623SOL    HW330259   4.410   2.843   3.365 -0.6514  1.3563  0.2975
 7623SOL    MW430260   4.390   2.843   3.280  0.1001  0.2103  0.1028
 7624SOL     OW30261   1.066   3.493   0.810  0.6212 -0.0758 -0.2072
 7624SOL    HW230262   1.016   3.433   0.755 -0.1479 -0.6985  1.1228
 7624SOL    HW330263   1.099   3.559   0.749 -0.1851 -0.7355 -1.4049
 7624SOL    MW430264   1.064   3.494   0.794  0.4133 -0.2450 -0.1898
 7625SOL     OW30265   4.936   2.201   3.965  0.1766  0.1693  0.0438
 7625SOL    HW230266   4.863   2.186   3.906  1.3733 -2.6105 -0.9159
 7625SOL    HW330267   4.906   2.169   4.050  0.1148 -0.6287 -0.2659
 7625SOL    MW430268   4.923   2.194   3.968  0.3263 -0.3027 -0.1237
 7626SOL     OW30269   3.621   0.021   1.610  0.3386  0.1258  0.1252
 7626SOL    HW230270   3.663  -0.002   1.527  0.6333  0.7051  0.1065
 7626SOL    HW330271   3.692   0.018   1.674  0.0224 -0.7615  0.4397
 7626SOL    MW430272   3.636   0.018   1.608  0.3358  0.0852  0.1642
 7627SOL     OW30273   2.544   4.212   1.056  0.0763 -0.1582  0.1187
 7627SOL    HW230274   2.507   4.273   1.120  0.3256 -1.2695  1.3729
 7627SOL    HW330275   2.481   4.212   0.984 -1.3578 -0.4832  1.3127
 7627SOL    MW430276   2.531   4.220   1.055 -0.0800 -0.3477  0.4417
 7628SOL     OW30277   2.823   0.343   0.641 -0.6813  0.1074  0.1078
 7628SOL    HW230278   2.855   0.267   0.592 -0.4696  0.2721 -0.0069
 7628SOL    HW330279   2.893   0.408   0.636 -0.5042 -0.0042  0.9409
 7628SOL    MW430280   2.836   0.342   0.634 -0.6300  0.1144  0.2026
 7629SOL     OW30281   0.615   2.383   4.166  0.2338  0.3326  0.2364
 7629SOL    HW230282   0.531   2.356   4.128 -0.1347 -0.1746  1.3586
 7629SOL    HW330283   0.599   2.384   4.261  1.0589  1.7484  0.3857
 7629SOL    MW430284   0.602   2.379   4.174  0.2941  0.4525  0.4042
 7630SOL     OW30285   4.582   4.313   1.372 -0.0799  0.2176  0.2800
 7630SOL    HW230286   4.598   4.374   1.445 -1.8288  3.5379 -1.8332
 7630SOL    HW330287   4.623   4.355   1.296 -1.6238 -1.0652 -1.3599
 7630SOL    MW430288   4.589   4.327   1.372 -0.5144  0.4864 -0.2152
 7631SOL     OW30289   2.769   0.711   5.817  0.5250 -0.1783 -0.1865
 7631SOL    HW230290   2.730   0.662   5.744  1.4020 -1.7597  0.3518
 7631SOL    HW330291   2.821   0.646   5.864  0.1839  0.8706  1.7210
 7631SOL    MW430292   2.771   0.696   5.813  0.5957 -0.2486  0.1362
 7632SOL     OW30293   0.402   4.616   5.213 -0.1974 -0.2594  0.0520
 7632SOL    HW230294   0.427   4.576   5.130 -0.6239  0.4221 -0.4166
 7632SOL    HW330295   0.458   4.574   5.278 -1.3853 -2.4195 -0.2314
 7632SOL    MW430296   0.413   4.605   5.210 -0.4104 -0.4545 -0.0472
 7633SOL     OW30297   5.655   1.597   5.278 -0.3514 -0.0915  0.6464
 7633SOL    HW230298   5.603   1.648   5.216  0.1529  0.6328  0.8042
 7633SOL    HW330299   5.720   1.552   5.224  0.2146  0.6939  0.6474
 7633SOL    MW430300   5.657   1.598   5.263 -0.2101  0.1077  0.6673
 7634SOL     OW30301   5.112   1.951   6.291 -0.1067  0.1154  0.3035
 7634SOL    HW230302   5.025   1.911   6.293  0.2675 -0.8215 -1.1387
 7634SOL    HW330303   5.131   1.963   6.198  0.2585  2.7258  0.6305
 7634SOL    MW430304   5.103   1.948   6.279 -0.0092  0.3362  0.1564
 7635SOL     OW30305   1.911   1.811   1.120  0.4703  0.0541 -0.2469
 7635SOL    HW230306   1.864   1.879   1.072 -0.4181  0.4857  1.1645
 7635SOL    HW330307   1.857   1.794   1.197  1.7615 -0.7180  0.5329
 7635SOL    MW430308   1.897   1.817   1.124  0.5235  0.0092  0.0422
 7636SOL     OW30309   6.098   2.849   4.037  0.1710 -0.2445 -0.1141
 7636SOL    HW230310   6.034   2.836   4.107 -0.6240 -1.3100 -1.0106
 7636SOL    HW330311   6.051   2.826   3.957  1.8205 -1.5763 -0.7628
 7636SOL    MW430312   6.083   2.844   4.035  0.2837 -0.5608 -0.3179
 7637SOL     OW30313   4.004   2.195   3.142  0.1107  0.0604 -0.3044
 7637SOL    HW230314   4.042   2.270   3.096 -0.3821  0.1733 -0.5321
 7637SOL    HW330315   3.910   2.202   3.125  0.2812 -2.4301 -3.1339
 7637SOL    MW430316   3.996   2.206   3.133  0.0682 -0.2533 -0.7078
 7638SOL     OW30317   5.937   3.750   1.491 -0.2743  0.1424  0.3056
 7638SOL    HW230318   6.030   3.738   1.510 -0.1037  1.5986  0.4785
 7638SOL    HW330319   5.932   3.748   1.396 -0.2597 -1.1340  0.3132
 7638SOL    MW430320   5.949   3.748   1.481 -0.2499  0.1661  0.3294
 7639SOL     OW30321   1.542   3.412   0.361  0.6669 -0.3215  0.7812
 7639SOL    HW230322   1.473   3.467   0.397  0.9021  1.0164 -0.6921
 7639SOL    HW330323   1.510   3.387   0.274  1.9731  0.2649  0.0978
 7639SOL    MW430324   1.528   3.416   0.354  0.8703 -0.0676  0.4967
 7640SOL     OW30325   3.525   2.797   1.362 -0.6205  0.4639  0.2920
 7640SOL    HW230326   3.464   2.852   1.312 -1.6097  0.4467  1.4419
 7640SOL    HW330327   3.604   2.795   1.308 -1.4410  0.9257 -0.9862
 7640SOL    MW430328   3.528   2.804   1.348 -0.8593  0.5225  0.2751
 7641SOL     OW30329   1.253   1.232   3.912 -0.4130 -0.1709 -0.7066
 7641SOL    HW230330   1.282   1.307   3.860 -1.3507 -0.3603 -1.5056
 7641SOL    HW330331   1.261   1.157   3.853 -0.8428 -0.4924 -0.3579
 7641SOL    MW430332   1.258   1.232   3.898 -0.5935 -0.2383 -0.7660
 7642SOL     OW30333   4.847   4.869   1.256  0.2437 -0.5859  0.4360
 7642SOL    HW230334   4.758   4.899   1.276  0.3604 -0.9174  1.5364
 7642SOL    HW330335   4.835   4.799   1.192 -0.1226  0.8573 -1.1636
 7642SOL    MW430336   4.833   4.864   1.250  0.2108 -0.4392  0.3701
 7643SOL     OW30337   4.691   4.186   4.224 -0.1042  0.1392 -0.1020
 7643SOL    HW230338   4.764   4.184   4.285 -1.4948 -1.5905  1.6463
 7643SOL    HW330339   4.613   4.187   4.279 -1.4487  1.9033 -1.8951
 7643SOL    MW430340   4.690   4.186   4.239 -0.4651  0.1437 -0.1079
 7644SOL     OW30341   2.838   4.912   4.288 -0.5289 -0.6876  0.8424
 7644SOL    HW230342   2.861   4.872   4.372  3.1189 -0.7816 -0.0133
 7644SOL    HW330343   2.907   4.976   4.272 -1.2397 -0.4718 -1.9383
 7644SOL    MW430344   2.850   4.915   4.297 -0.1414 -0.6715  0.3626
 7645SOL     OW30345   1.676   0.576   4.780 -0.0845  0.0603 -0.0004
 7645SOL    HW230346   1.675   0.669   4.804 -1.3812  0.0234  0.1792
 7645SOL    HW330347   1.765   0.547   4.798  0.0159  0.9914  1.0731
 7645SOL    MW430348   1.688   0.584   4.786 -0.2423  0.1783  0.1649
 7646SOL     OW30349   3.851   3.301   6.054  0.4427 -0.3775  0.0901
 7646SOL    HW230350   3.904   3.318   6.131 -0.3200  0.8477  0.3847
 7646SOL    HW330351   3.906   3.330   5.980  0.3810  0.4515  0.3549
 7646SOL    MW430352   3.865   3.307   6.054  0.3339 -0.1065  0.1639
 7647SOL     OW30353   5.664   5.408   0.282  0.3627  0.0960  0.1329
 7647SOL    HW230354   5.621   5.410   0.368  0.1055 -0.1325  0.0126
 7647SOL    HW330355   5.664   5.499   0.253 -1.2677 -0.0566 -0.4653
 7647SOL    MW430356   5.658   5.420   0.290  0.1137  0.0457  0.0381
 7648SOL     OW30357   1.437   4.087   0.506  0.2704 -0.1330 -0.2543
 7648SOL    HW230358   1.397   4.152   0.448  1.4739 -0.0805 -1.0597
 7648SOL    HW330359   1.486   4.139   0.569 -1.6329 -0.1579  1.3334
 7648SOL    MW430360   1.438   4.103   0.506  0.1781 -0.1294 -0.1511
 7649SOL     OW30361   4.062   5.228   2.241 -1.1034 -0.4107 -0.9285
 7649SOL    HW230362   3.995   5.264   2.299 -0.9325 -1.2940 -0.1564
 7649SOL    HW330363   4.095   5.303   2.192  0.9012  1.0134  2.2773
 7649SOL    MW430364   4.058   5.242   2.242 -0.8164 -0.3394 -0.4037
 7650SOL     OW30365   5.234   1.350   4.600 -0.4274 -0.0539  1.4184
 7650SOL    HW230366   5.255   1.308   4.517  0.6484  0.7831  1.2387
 7650SOL    HW330367   5.316   1.393   4.626 -0.6586 -0.5151  3.0490
 7650SOL    MW430368   5.248   1.350   4.592 -0.3160 -0.0043  1.6098
 7651SOL     OW30369   6.381   3.533   2.646  0.3727  0.0345 -0.4297
 7651SOL    HW230370   6.418   3.554   2.561  1.6270  1.2035  0.3706
 7651SOL    HW330371   6.456   3.528   2.705 -0.2366 -2.5907  0.3109
 7651SOL    MW430372   6.396   3.535   2.643  0.4578 -0.1577 -0.2264
 7652SOL     OW30373   0.823   6.191   0.574  0.1702  0.2035  0.0932
 7652SOL    HW230374   0.891   6.159   0.633  0.0647 -0.6975 -0.2556
 7652SOL    HW330375   0.747   6.135   0.592  0.4522 -0.8055 -1.5967
 7652SOL    MW430376   0.822   6.179   0.584  0.1935 -0.0485 -0.1758
 7653SOL     OW30377   2.546   3.689   2.254  0.2141 -0.2806 -0.0951
 7653SOL    HW230378   2.575   3.777   2.277 -0.4038 -0.2309  0.5250
 7653SOL    HW330379   2.561   3.683   2.160 -1.0213  0.9981 -0.4019
 7653SOL    MW430380   2.552   3.700   2.245 -0.0304 -0.1054 -0.0537
 7654SOL     OW30381   4.395   4.383   2.660 -0.6834  0.6396  0.0045
 7654SOL    HW230382   4.435   4.345   2.581  0.1893 -1.0471  1.1924
 7654SOL    HW330383   4.469   4.417   2.710 -0.9739 -0.2274  1.0601
 7654SOL    MW430384   4.410   4.383   2.656 -0.6066  0.3027  0.3005
 7655SOL     OW30385   1.924   2.409   4.513 -0.0623  0.2383  0.1106
 7655SOL    HW230386   1.867   2.374   4.444  0.7396 -1.9990  0.4741
 7655SOL    HW330387   1.924   2.503   4.499  0.5344 -0.1464 -3.3662
 7655SOL    MW430388   1.916   2.417   4.502  0.1222 -0.1076 -0.3001
 7656SOL     OW30389   5.584   2.886   1.773  0.2260  0.1091  0.3191
 7656SOL    HW230390   5.506   2.924   1.813 -0.4042 -1.6280  0.8115
 7656SOL    HW330391   5.618   2.826   1.839  1.1621 -0.2354 -0.4544
 7656SOL    MW430392   5.578   2.883   1.787  0.2664 -0.1655  0.2820
 7657SOL     OW30393   4.105   5.065   1.561  0.3991 -0.3130  0.6698
 7657SOL    HW230394   4.024   5.041   1.516  0.8377  0.9745 -0.8806
 7657SOL    HW330395   4.175   5.025   1.508  0.8136 -2.1880  2.4875
 7657SOL    MW430396   4.104   5.056   1.548  0.5117 -0.3905  0.7051
 7658SOL     OW30397   1.785   1.371   0.307 -0.8279 -0.1989 -0.3889
 7658SOL    HW230398   1.707   1.424   0.293 -0.1136  0.5237 -1.9774
 7658SOL    HW330399   1.766   1.319   0.385 -1.4795  2.5421  1.4198
 7658SOL    MW430400   1.772   1.371   0.315 -0.8196  0.2581 -0.3599
 7659SOL     OW30401   1.936   4.683   0.220  0.1233  0.1550  0.2096
 7659SOL    HW230402   1.998   4.658   0.289  3.0639  1.3143 -1.8139
 7659SOL    HW330403   1.904   4.769   0.246  1.1921  0.5720  0.1845
 7659SOL    MW430404   1.940   4.691   0.233  0.6523  0.3629 -0.0607
 7660SOL     OW30405   0.610   1.538   0.309  0.0539  0.1330 -0.8502
 7660SOL    HW230406   0.521   1.570   0.322  0.4819  1.2386 -0.5717
 7660SOL    HW330407   0.621   1.535   0.214 -0.5507 -0.8348 -0.9138
 7660SOL    MW430408   0.599   1.542   0.298  0.0306  0.1512 -0.8218
 7661SOL     OW30409   2.366   4.141   3.142  0.1469 -0.2553  0.4475
 7661SOL    HW230410   2.352   4.233   3.122 -1.1117 -0.1919  1.5038
 7661SOL    HW330411   2.377   4.099   3.056 -3.5776  0.2330 -0.4466
 7661SOL    MW430412   2.366   4.147   3.128 -0.5105 -0.1825  0.4689
 7662SOL     OW30413   4.634   4.913   0.527  0.2496  0.5516  0.0947
 7662SOL    HW230414   4.557   4.931   0.474 -0.5391 -0.2193  0.9293
 7662SOL    HW330415   4.661   4.999   0.560  0.7263  1.0287 -1.4821
 7662SOL    MW430416   4.627   4.927   0.525  0.2084  0.5129 -0.0032
 7663SOL     OW30417   1.275   1.905   6.381  0.4099  0.2984 -0.3742
 7663SOL    HW230418   1.344   1.905   6.315  2.9556 -0.8354  2.0581
 7663SOL    HW330419   1.207   1.848   6.346  1.9144 -0.6980 -1.7899
 7663SOL    MW430420   1.275   1.898   6.368  0.9443  0.0173 -0.2400
 7664SOL     OW30421   2.527   6.011   0.396  0.2656 -0.1261 -0.3617
 7664SOL    HW230422   2.610   5.966   0.410  0.7035  0.4585 -1.0018
 7664SOL    HW330423   2.501   5.987   0.307  0.4904  0.8409 -0.7001
 7664SOL    MW430424   2.534   6.002   0.386  0.3530  0.0786 -0.4908
 7665SOL     OW30425   2.274   3.137   3.805 -0.7102 -0.8310  0.7919
 7665SOL    HW230426   2.333   3.111   3.875 -0.6753  0.3026  1.1896
 7665SOL    HW330427   2.259   3.230   3.818 -0.3622 -0.4836 -0.9530
 7665SOL    MW430428   2.280   3.146   3.816 -0.6597 -0.6356  0.6142
 7666SOL     OW30429   4.165   2.816   2.898 -0.2888 -0.4204  0.5619
 7666SOL    HW230430   4.225   2.889   2.885 -1.4089  0.8873  2.2574
 7666SOL    HW330431   4.217   2.750   2.944  0.7435 -0.7541 -1.0073
 7666SOL    MW430432   4.180   2.817   2.902 -0.3004 -0.2919  0.5786
 7667SOL     OW30433   0.962   6.184   2.519  0.3226 -0.0300  0.3158
 7667SOL    HW230434   1.027   6.158   2.584  0.8764  2.9706  1.1298
 7667SOL    HW330435   1.009   6.244   2.461 -1.8528  3.4644  1.7927
 7667SOL    MW430436   0.977   6.189   2.520  0.1086  0.8269  0.6181
 7668SOL     OW30437   6.287   3.690   4.187 -0.1802  0.1281 -0.1058
 7668SOL    HW230438   6.248   3.771   4.156 -1.2476 -0.8490 -1.4705
 7668SOL    HW330439   6.381   3.708   4.192 -0.4060  1.4496 -0.3166
 7668SOL    MW430440   6.294   3.703   4.183 -0.3508  0.1735 -0.3137
 7669SOL     OW30441   2.269   3.153   0.476 -0.1834  0.5106  0.0578
 7669SOL    HW230442   2.254   3.248   0.472 -1.3166  0.3596  0.2413
 7669SOL    HW330443   2.236   3.120   0.392  1.3469  0.4056 -0.5215
 7669SOL    MW430444   2.262   3.161   0.464 -0.1310  0.4769  0.0056
 7670SOL     OW30445   1.150   0.879   4.071 -0.0336  0.2049 -0.5166
 7670SOL    HW230446   1.177   0.968   4.094  0.4406 -0.3638  1.3153
 7670SOL    HW330447   1.231   0.828   4.077 -0.6223 -0.6731  0.3975
 7670SOL    MW430448   1.164   0.884   4.075 -0.0487  0.0140 -0.1543
 7671SOL     OW30449   4.882   1.593   4.969 -0.0509  0.3359 -0.0650
 7671SOL    HW230450   4.821   1.661   4.941  0.1371 -0.1076 -1.6792
 7671SOL    HW330451   4.830   1.534   5.024 -1.2173 -0.2546 -1.7326
 7671SOL    MW430452   4.867   1.594   4.973 -0.1800  0.1995 -0.4980
 7672SOL     OW30453   4.014   6.202   1.423  0.4420  0.3923 -0.0509
 7672SOL    HW230454   4.059   6.129   1.382  1.2213 -1.0139  3.0225
 7672SOL    HW330455   3.934   6.213   1.371  1.9761 -0.1828 -2.7583
 7672SOL    MW430456   4.009   6.194   1.411  0.7472  0.1309 -0.0026
 7673SOL     OW30457   5.330   3.221   5.267 -0.3154 -0.2368 -0.0033
 7673SOL    HW230458   5.330   3.225   5.363 -2.3011  1.7937  0.0028
 7673SOL    HW330459   5.261   3.157   5.246  0.3327 -0.9167 -0.1116
 7673SOL    MW430460   5.321   3.213   5.277 -0.4919 -0.0586 -0.0168
 7674SOL     OW30461   2.026   4.922   2.093  0.1746 -0.3631  0.2655
 7674SOL    HW230462   2.048   4.863   2.165 -0.4331  0.4542  1.1398
 7674SOL    HW330463   2.015   4.865   2.017  0.5504 -1.2645  0.8829
 7674SOL    MW430464   2.028   4.907   2.092  0.1440 -0.3742  0.4623
 7675SOL     OW30465   1.847   4.392   1.133  0.2430  0.0296 -0.4144
 7675SOL    HW230466   1.771   4.451   1.138 -1.1863 -1.7283 -0.2956
 7675SOL    HW330467   1.809   4.304   1.139  2.2325 -0.9395 -1.1856
 7675SOL    MW430468   1.832   4.388   1.134  0.3169 -0.3302 -0.5005
 7676SOL     OW30469   4.440   4.775   3.521  0.4840  0.1149 -0.1146
 7676SOL    HW230470   4.506   4.840   3.545  0.3428 -0.7907  3.1841
 7676SOL    HW330471   4.362   4.827   3.502  0.9531  1.0328  0.3809
 7676SOL    MW430472   4.438   4.791   3.522  0.5272  0.1165  0.3860
 7677SOL     OW30473   4.882   5.498   0.753  0.6779 -0.1010 -0.5548
 7677SOL    HW230474   4.942   5.443   0.704  2.5541  1.3791 -0.0399
 7677SOL    HW330475   4.830   5.543   0.687  1.7151  0.2848 -1.1284
 7677SOL    MW430476   4.883   5.496   0.738  1.0623  0.1452 -0.5626
 7678SOL     OW30477   4.792   4.473   1.284 -0.3433 -0.3713 -0.2652
 7678SOL    HW230478   4.753   4.519   1.358  1.3642  0.3354  0.2445
 7678SOL    HW330479   4.847   4.406   1.324  1.5180  0.7624 -0.7794
 7678SOL    MW430480   4.794   4.471   1.299  0.1276 -0.1285 -0.2658
 7679SOL     OW30481   5.778   3.948   4.647 -0.9368  0.1505 -0.0081
 7679SOL    HW230482   5.775   4.006   4.723  0.4197 -1.2250  1.1416
 7679SOL    HW330483   5.869   3.955   4.615 -1.1456 -0.2693 -0.7162
 7679SOL    MW430484   5.790   3.957   4.653 -0.7854 -0.0864  0.0502
 7680SOL     OW30485   0.751   2.227   5.543  1.1161  0.3397  0.0573
 7680SOL    HW230486   0.798   2.309   5.525  1.2139  0.2934  0.1002
 7680SOL    HW330487   0.723   2.197   5.457 -0.4045  1.2918  0.1939
 7680SOL    MW430488   0.754   2.234   5.529  0.9284  0.4592  0.0810
 7681SOL     OW30489   4.668   0.804   3.974  0.2202  0.3500  0.1478
 7681SOL    HW230490   4.670   0.774   3.884 -1.6186 -2.0751  0.8051
 7681SOL    HW330491   4.585   0.851   3.982  0.1545  0.1467  0.7044
 7681SOL    MW430492   4.657   0.807   3.963 -0.0311  0.0032  0.3080
 7682SOL     OW30493   2.314   3.522   1.882  0.3462  0.3901 -0.0610
 7682SOL    HW230494   2.389   3.463   1.883 -0.7274 -1.0344  0.0973
 7682SOL    HW330495   2.309   3.557   1.971  0.1442 -0.4375  0.2625
 7682SOL    MW430496   2.323   3.519   1.894  0.1779  0.0930  0.0025
 7683SOL     OW30497   5.298   1.225   3.187 -0.2590 -0.0657 -0.0134
 7683SOL    HW230498   5.245   1.182   3.254  1.3728 -3.5700 -0.7843
 7683SOL    HW330499   5.251   1.208   3.105  0.1070  0.1913 -0.2787
 7683SOL    MW430500   5.285   1.217   3.185  0.0046 -0.4942 -0.1501
 7684SOL     OW30501   3.703   1.465   2.486  0.7571 -0.1738 -0.3197
 7684SOL    HW230502   3.675   1.423   2.404  1.3169  0.1573 -0.6843
 7684SOL    HW330503   3.737   1.394   2.539  0.7017 -0.3428 -0.5089
 7684SOL    MW430504   3.704   1.450   2.482  0.8237 -0.1524 -0.3928
 7685SOL     OW30505   0.448   1.765   1.350 -0.3061 -0.1479 -0.2017
 7685SOL    HW230506   0.443   1.744   1.443 -0.5306  2.1577  0.3876
 7685SOL    HW330507   0.535   1.738   1.323  0.0481 -0.1508  0.8976
 7685SOL    MW430508   0.459   1.759   1.359 -0.2890  0.1559  0.0211
 7686SOL     OW30509   2.059   6.361   5.646 -0.1998  0.1290  0.0562
 7686SOL    HW230510   2.064   6.267   5.626 -1.6301  0.1669 -0.6166
 7686SOL    HW330511   2.029   6.401   5.565 -0.1404  1.1058  0.5025
 7686SOL    MW430512   2.056   6.354   5.633 -0.3806  0.2629  0.0263
 7687SOL     OW30513   6.183   0.481   4.200 -0.1804 -0.1871  0.1005
 7687SOL    HW230514   6.093   0.506   4.221 -0.6710 -2.3347  0.7972
 7687SOL    HW330515   6.190   0.493   4.105 -2.6416 -3.9228 -0.7686
 7687SOL    MW430516   6.172   0.486   4.190 -0.5699 -0.9633  0.0778
 7688SOL     OW30517   4.654   5.597   3.452  0.3168 -0.6319 -0.5537
 7688SOL    HW230518   4.706   5.666   3.492 -0.2307  0.0613 -1.0097
 7688SOL    HW330519   4.690   5.516   3.487  0.9961 -0.1177 -0.0423
 7688SOL    MW430520   4.665   5.596   3.462  0.3342 -0.4726 -0.5464
 7689SOL     OW30521   2.589   1.626   0.079  0.3166  0.3486  0.2631
 7689SOL    HW230522   2.608   1.658  -0.009  2.4824 -2.6554 -0.5484
 7689SOL    HW330523   2.646   1.676   0.136  2.4816 -0.8246 -0.7522
 7689SOL    MW430524   2.599   1.637   0.075  0.8880 -0.2025  0.0221
 7690SOL     OW30525   0.469   0.076   0.207  0.2933 -0.1894 -0.1095
 7690SOL    HW230526   0.529   0.068   0.133 -0.4732  1.4829 -0.9668
 7690SOL    HW330527   0.477  -0.007   0.254 -0.5143 -2.1036 -3.0937
 7690SOL    MW430528   0.478   0.064   0.203  0.0856 -0.2213 -0.6163
 7691SOL     OW30529   0.477   3.903   4.866 -0.4142 -0.3040 -0.0249
 7691SOL    HW230530   0.516   3.823   4.833 -0.8889  0.0546 -1.5132
 7691SOL    HW330531   0.551   3.955   4.897  0.2693  0.1041 -2.2187
 7691SOL    MW430532   0.492   3.899   4.866 -0.3867 -0.2028 -0.5107
 7692SOL     OW30533   5.403   6.104   4.956 -0.0257  0.1028  0.1653
 7692SOL    HW230534   5.405   6.012   4.928  1.3621  0.6643 -1.8004
 7692SOL    HW330535   5.347   6.147   4.891  1.1746  1.0150 -0.2977
 7692SOL    MW430536   5.395   6.098   4.944  0.3158  0.2972 -0.1551
 7693SOL     OW30537   2.927   1.572   4.739 -0.6311  0.7603  0.3346
 7693SOL    HW230538   2.986   1.601   4.670 -0.2354 -0.4472  0.1304
 7693SOL    HW330539   2.884   1.494   4.703 -0.5408  0.2040  1.3757
 7693SOL    MW430540   2.929   1.565   4.726 -0.5670  0.5276  0.4450
 7694SOL     OW30541   1.626   6.162   3.552 -0.6386  0.3063 -0.3108
 7694SOL    HW230542   1.656   6.164   3.643  1.6051  0.4020 -0.9949
 7694SOL    HW330543   1.587   6.248   3.538  1.1354  1.2090 -0.0586
 7694SOL    MW430544   1.625   6.174   3.563 -0.1085  0.4380 -0.3678
 7695SOL     OW30545   6.199   4.590   6.271 -0.2906 -0.4838  0.2233
 7695SOL    HW230546   6.234   4.645   6.201 -0.7229 -0.3481  0.1111
 7695SOL    HW330547   6.107   4.616   6.279 -0.7901 -1.9280 -0.5462
 7695SOL    MW430548   6.191   4.601   6.263 -0.4136 -0.6565  0.1070
 7696SOL     OW30549   6.029   2.110   3.801 -0.0443  0.2464  0.1462
 7696SOL    HW230550   5.969   2.160   3.856 -0.7934 -1.1796  0.6868
 7696SOL    HW330551   5.973   2.049   3.753  0.8039  0.1153 -0.7220
 7696SOL    MW430552   6.014   2.108   3.802 -0.0312  0.0410  0.1029
 7697SOL     OW30553   4.906   5.146   4.599 -0.1979  0.4265 -0.6179
 7697SOL    HW230554   4.854   5.087   4.546 -0.5593  0.1030  0.0879
 7697SOL    HW330555   4.903   5.109   4.687  2.5663 -0.5198 -0.8271
 7697SOL    MW430556   4.899   5.134   4.604  0.1191  0.2589 -0.5524
 7698SOL     OW30557   4.859   4.063   1.627  0.3981 -0.0494 -0.0934
 7698SOL    HW230558   4.903   4.133   1.675 -0.4614 -0.7249  1.7558
 7698SOL    HW330559   4.917   4.045   1.553  0.8240  2.3167 -0.4013
 7698SOL    MW430560   4.873   4.070   1.623  0.3409  0.1736  0.1099
 7699SOL     OW30561   4.044   2.831   1.880 -0.3868  0.1577  0.2757
 7699SOL    HW230562   4.135   2.806   1.894 -0.1513 -1.0361 -2.6637
 7699SOL    HW330563   4.044   2.875   1.795 -2.2251  2.4121  1.3240
 7699SOL    MW430564   4.056   2.834   1.871 -0.5983  0.2976  0.0262
 7700SOL     OW30565   2.227   5.403   2.052  0.3838 -0.1815  0.0125
 7700SOL    HW230566   2.293   5.333   2.052  0.7284  0.1109  1.4545
 7700SOL    HW330567   2.277   5.482   2.032  0.4406 -0.0152  0.7515
 7700SOL    MW430568   2.242   5.404   2.050  0.4368 -0.1209  0.3003
 7701SOL     OW30569   5.015   4.535   5.879 -0.1061 -0.7374  0.1366
 7701SOL    HW230570   5.017   4.469   5.810 -2.0110 -1.8081  1.0458
 7701SOL    HW330571   4.922   4.553   5.893  0.3490  2.0166  0.0759
 7701SOL    MW430572   5.003   4.529   5.872 -0.2974 -0.5153  0.2486
 7702SOL     OW30573   1.364   5.869   5.098 -0.4675 -0.3314 -0.5773
 7702SOL    HW230574   1.284   5.903   5.138 -0.4939  0.9625 -1.6522
 7702SOL    HW330575   1.345   5.777   5.080 -1.9283  0.0994 -1.3298
 7702SOL    MW430576   1.351   5.861   5.101 -0.6637 -0.1039 -0.8184
 7703SOL     OW30577   5.143   3.857   2.539 -0.6449 -0.2365  0.0338
 7703SOL    HW230578   5.125   3.951   2.542  1.9417  0.3096  2.0265
 7703SOL    HW330579   5.070   3.817   2.587 -1.3888  0.8087 -0.1893
 7703SOL    MW430580   5.131   3.864   2.545 -0.4018 -0.0265  0.2672
 7704SOL     OW30581   5.445   6.250   5.182  0.2961  0.1547  0.3996
 7704SOL    HW230582   5.427   6.197   5.104  1.0568 -0.0125  0.3310
 7704SOL    HW330583   5.378   6.223   5.245 -0.0013 -0.0924 -0.0147
 7704SOL    MW430584   5.434   6.239   5.180  0.3572  0.1000  0.3359
 7705SOL     OW30585   4.495   4.418   6.417  0.8058  0.1489 -0.1588
 7705SOL    HW230586   4.539   4.485   6.469 -0.5216  0.6163  0.3904
 7705SOL    HW330587   4.409   4.408   6.458  1.1264 -2.2333  0.0756
 7705SOL    MW430588   4.490   4.425   6.430  0.6730 -0.1037 -0.0554
 7706SOL     OW30589   6.044   1.332   1.052 -0.3522  0.1460 -0.0387
 7706SOL    HW230590   6.032   1.331   1.147 -2.2764 -1.0134 -0.2300
 7706SOL    HW330591   6.061   1.240   1.030  0.3679  0.4512 -0.7983
 7706SOL    MW430592   6.045   1.320   1.062 -0.5111  0.0333 -0.1642
 7707SOL     OW30593   0.307   5.306   1.003  0.1119 -0.0675  0.7593
 7707SOL    HW230594   0.264   5.264   1.078 -1.3622  0.2776  0.1340
 7707SOL    HW330595   0.299   5.400   1.020 -1.3166  0.0519 -0.3766
 7707SOL    MW430596   0.301   5.313   1.015 -0.2711 -0.0062  0.5269
 7708SOL     OW30597   5.984   4.474   0.116  0.0745 -0.1913  0.2837
 7708SOL    HW230598   5.911   4.491   0.058  0.2914 -0.2062  0.0062
 7708SOL    HW330599   6.044   4.420   0.065  0.5560  0.3136  0.3070
 7708SOL    MW430600   5.983   4.469   0.102  0.1666 -0.1266  0.2502
 7709SOL     OW30601   3.340   3.149   2.120  0.2036 -0.3937 -0.1064
 7709SOL    HW230602   3.253   3.176   2.151  0.4874  0.3000  0.0958
 7709SOL    HW330603   3.383   3.114   2.198  0.3509 -0.1046 -0.0574
 7709SOL    MW430604   3.334   3.148   2.134  0.2605 -0.2640 -0.0732
 7710SOL     OW30605   1.070   3.811   2.134 -0.0998 -0.0304  0.0204
 7710SOL    HW230606   1.001   3.848   2.079 -0.7196  1.3298  1.6091
 7710SOL    HW330607   1.078   3.720   2.105 -0.2675  0.6380 -2.3834
 7710SOL    MW430608   1.062   3.804   2.123 -0.2037  0.2372 -0.0871
 7711SOL     OW30609   6.286   5.554   4.860  0.4093  0.1391 -0.3883
 7711SOL    HW230610   6.199   5.583   4.888  0.8795  1.3927 -0.1515
 7711SOL    HW330611   6.328   5.633   4.828  0.3481 -1.0027 -3.6228
 7711SOL    MW430612   6.280   5.568   4.859  0.4633  0.1539 -0.7838
 7712SOL     OW30613   1.115   4.665   3.812  0.4586  0.3893  0.4097
 7712SOL    HW230614   1.094   4.751   3.848 -0.1543 -0.3519  1.8938
 7712SOL    HW330615   1.178   4.628   3.874 -2.6758 -2.0425  2.4561
 7712SOL    MW430616   1.121   4.671   3.825 -0.0358 -0.0293  0.8755
 7713SOL     OW30617   5.252   5.791   1.143 -0.8126 -0.1681  1.0011
 7713SOL    HW230618   5.315   5.843   1.094 -0.7516 -1.0353  0.1140
 7713SOL    HW330619   5.284   5.793   1.233 -0.2296  0.4475  0.7869
 7713SOL    MW430620   5.265   5.798   1.148 -0.7276 -0.2013  0.8558
 7714SOL     OW30621   2.873   3.143   4.685 -0.0890  0.6338 -0.2271
 7714SOL    HW230622   2.961   3.177   4.674  0.2841 -0.5324 -1.0955
 7714SOL    HW330623   2.834   3.148   4.597 -0.0546 -0.9869 -0.3675
 7714SOL    MW430624   2.879   3.148   4.672 -0.0353  0.2661 -0.3602
 7715SOL     OW30625   3.451   4.127   1.242 -0.3248 -0.1187  0.2382
 7715SOL    HW230626   3.533   4.107   1.197 -1.0498  1.4667 -1.9546
 7715SOL    HW330627   3.441   4.056   1.305  1.6677 -1.5121 -0.8858
 7715SOL    MW430628   3.460   4.115   1.244 -0.1576 -0.0934 -0.1994
 7716SOL     OW30629   0.841   0.675   2.533 -0.2177  0.1592 -0.5214
 7716SOL    HW230630   0.762   0.725   2.555 -0.0696  0.8316 -1.4554
 7716SOL    HW330631   0.913   0.725   2.571 -0.1589  0.0612 -0.5025
 7716SOL    MW430632   0.840   0.688   2.541 -0.1904  0.2350 -0.6422
 7717SOL     OW30633   3.139   5.529   2.583  0.4168 -0.0123  0.1866
 7717SOL    HW230634   3.110   5.448   2.541 -1.5999  0.8343 -0.1361
 7717SOL    HW330635   3.059   5.569   2.617  1.5163  1.2670  1.4101
 7717SOL    MW430636   3.125   5.524   2.582  0.2958  0.2682  0.3055
 7718SOL     OW30637   4.472   4.184   0.469 -0.1341  0.2360  0.2431
 7718SOL    HW230638   4.449   4.277   0.470 -0.2568  0.2555 -1.3674
 7718SOL    HW330639   4.557   4.179   0.512 -0.3511  1.0233  0.7733
 7718SOL    MW430640   4.480   4.196   0.475 -0.1789  0.3424  0.1006
 7719SOL     OW30641   6.367   4.268   5.582 -0.5125 -0.5746 -0.2105
 7719SOL    HW230642   6.300   4.239   5.520 -1.2052 -1.2081  0.7953
 7719SOL    HW330643   6.437   4.204   5.574 -0.0269  0.0483 -1.2121
 7719SOL    MW430644   6.367   4.256   5.573 -0.5398 -0.5760 -0.2099
 7720SOL     OW30645   5.413   3.529   1.960  0.2793 -1.0199 -0.1135
 7720SOL    HW230646   5.389   3.439   1.981  0.5929 -1.3468 -1.0885
 7720SOL    HW330647   5.463   3.522   1.879 -0.3305  0.1059 -0.6073
 7720SOL    MW430648   5.416   3.516   1.952  0.2402 -0.9145 -0.3073
 7721SOL     OW30649   4.045   3.364   2.868 -0.0488  0.3189 -0.2695
 7721SOL    HW230650   4.009   3.336   2.783  1.4974 -0.2522 -0.7666
 7721SOL    HW330651   4.028   3.291   2.927  0.4316 -0.0205 -0.5469
 7721SOL    MW430652   4.038   3.351   2.864  0.2186  0.1988 -0.3716
 7722SOL     OW30653   2.794   5.115   0.177 -0.2223 -0.1524 -0.2553
 7722SOL    HW230654   2.846   5.086   0.252  1.7764  1.0098 -1.0924
 7722SOL    HW330655   2.775   5.035   0.129  2.0133 -0.5523 -0.5941
 7722SOL    MW430656   2.799   5.101   0.180  0.3364 -0.0518 -0.4105
 7723SOL     OW30657   2.523   3.111   0.371 -0.2203  0.2183  0.2038
 7723SOL    HW230658   2.433   3.125   0.400 -0.5770  0.4980 -0.9737
 7723SOL    HW330659   2.576   3.123   0.450 -1.2130 -0.0215  0.9289
 7723SOL    MW430660   2.518   3.114   0.385 -0.3983  0.2235  0.1441
 7724SOL     OW30661   6.202   6.087   0.957 -0.1934  0.2718 -0.5101
 7724SOL    HW230662   6.145   6.154   0.995  0.4223  0.1031  0.7906
 7724SOL    HW330663   6.244   6.130   0.883  0.4800  1.4940  0.5322
 7724SOL    MW430664   6.200   6.101   0.953 -0.0233  0.4108 -0.2009
 7725SOL     OW30665   4.098   6.169   5.884 -0.0639  0.5073 -0.5344
 7725SOL    HW230666   4.082   6.123   5.802  2.6318 -0.7300 -0.4843
 7725SOL    HW330667   4.178   6.219   5.869 -0.3471  1.4563  0.8830
 7725SOL    MW430668   4.106   6.169   5.871  0.2544  0.4693 -0.3408
 7726SOL     OW30669   3.014   5.020   3.123  0.1017  0.3855  0.2042
 7726SOL    HW230670   2.924   5.025   3.091  0.0499 -1.1716  0.0129
 7726SOL    HW330671   3.058   5.095   3.084 -0.8122  0.4446 -0.7474
 7726SOL    MW430672   3.008   5.030   3.114 -0.0257  0.1878  0.0534
 7727SOL     OW30673   0.440   3.315   0.980 -0.1756  0.4298 -0.0502
 7727SOL    HW230674   0.493   3.283   1.053 -0.2755 -1.2420 -0.6784
 7727SOL    HW330675   0.350   3.292   1.004 -0.2278  0.0620 -0.5988
 7727SOL    MW430676   0.435   3.308   0.993 -0.1956  0.1607 -0.2055
 7728SOL     OW30677   3.722   5.070   2.958  0.1027  0.2452  0.5841
 7728SOL    HW230678   3.803   5.022   2.941 -1.2031 -1.1391 -2.4384
 7728SOL    HW330679   3.675   5.014   3.020  0.2569 -0.4388  0.1013
 7728SOL    MW430680   3.727   5.056   2.964 -0.0492 -0.0277  0.1216
 7729SOL     OW30681   5.893   3.799   1.215  0.1606  0.4009  0.1230
 7729SOL    HW230682   5.833   3.869   1.187 -2.0849 -0.6563  1.9706
 7729SOL    HW330683   5.845   3.718   1.196  2.2981 -0.6613 -1.0477
 7729SOL    MW430684   5.878   3.798   1.209  0.1464  0.1213  0.2123
 7730SOL     OW30685   0.977   1.114   4.673 -0.9254  0.3267 -0.0096
 7730SOL    HW230686   0.970   1.198   4.629  0.6251  0.0468 -0.8261
 7730SOL    HW330687   1.065   1.082   4.653 -0.6901 -0.5092  2.0559
 7730SOL    MW430688   0.987   1.121   4.665 -0.6898  0.1795  0.1552
 7731SOL     OW30689   2.390   4.261   0.388 -0.1700  0.1443 -0.0196
 7731SOL    HW230690   2.354   4.283   0.474 -0.8900  0.0268 -0.2823
 7731SOL    HW330691   2.326   4.295   0.326 -0.0611 -0.4934 -0.4917
 7731SOL    MW430692   2.377   4.268   0.391 -0.2506  0.0446 -0.1165
 7732SOL     OW30693   0.728   4.719   5.292  0.2321  0.0285 -0.4121
 7732SOL    HW230694   0.697   4.726   5.201 -0.2626 -0.0564 -0.2522
 7732SOL    HW330695   0.705   4.803   5.331  0.8855  0.2533 -0.4918
 7732SOL    MW430696   0.721   4.731   5.285  0.2530  0.0469 -0.4015
 7733SOL     OW30697   4.327   1.192   3.937  0.1239  0.1015  0.5246
 7733SOL    HW230698   4.409   1.227   3.903 -0.3545  0.5151 -0.2182
 7733SOL    HW330699   4.276   1.168   3.859 -1.7653  2.8088  0.7528
 7733SOL    MW430700   4.331   1.194   3.922 -0.1885  0.5133  0.4567
 7734SOL     OW30701   1.386   3.279   5.401 -0.2753  0.4556 -0.0942
 7734SOL    HW230702   1.417   3.322   5.481  0.9565 -1.5295  0.5583
 7734SOL    HW330703   1.466   3.261   5.351 -0.9225  0.4955 -1.1725
 7734SOL    MW430704   1.401   3.283   5.405 -0.1982  0.1990 -0.1504
 7735SOL     OW30705   4.342   2.789   4.195 -0.3679 -0.2357  0.4816
 7735SOL    HW230706   4.291   2.718   4.156  1.5441 -0.7440 -1.2656
 7735SOL    HW330707   4.303   2.802   4.281 -4.1483  0.1962 -1.0869
 7735SOL    MW430708   4.330   2.782   4.201 -0.6144 -0.2458  0.0441
 7736SOL     OW30709   1.075   0.884   3.198 -0.0890 -0.5426 -0.3131
 7736SOL    HW230710   0.993   0.833   3.195 -0.5735  0.2315 -0.6297
 7736SOL    HW330711   1.070   0.941   3.121  0.8490 -0.6221 -0.4432
 7736SOL    MW430712   1.063   0.885   3.187 -0.0291 -0.4509 -0.3720
 7737SOL     OW30713   0.275   0.418   1.213  0.3169  0.0624  0.2840
 7737SOL    HW230714   0.325   0.497   1.234  0.0066  0.4952 -0.6077
 7737SOL    HW330715   0.319   0.381   1.137 -0.7527  0.4866 -0.5628
 7737SOL    MW430716   0.288   0.424   1.206  0.1348  0.1755  0.0546
 7738SOL     OW30717   0.815   0.280   5.359  0.3860 -0.0982  0.1783
 7738SOL    HW230718   0.872   0.233   5.420 -2.3326 -0.2112  2.8684
 7738SOL    HW330719   0.801   0.365   5.401 -2.7447 -0.7163  0.6077
 7738SOL    MW430720   0.821   0.285   5.372 -0.3858 -0.1947  0.5899
 7739SOL     OW30721   2.037   5.090   5.721  0.4541 -1.1006  0.1436
 7739SOL    HW230722   2.030   5.146   5.644  0.6439 -1.0137  0.1893
 7739SOL    HW330723   2.044   5.151   5.794 -0.8103 -1.1615  0.3497
 7739SOL    MW430724   2.037   5.106   5.720  0.3123 -1.0972  0.1768
 7740SOL     OW30725   0.887   0.935   1.687  0.0338  0.3893 -0.0208
 7740SOL    HW230726   0.831   0.910   1.614  0.8532 -0.6650 -0.3067
 7740SOL    HW330727   0.974   0.945   1.648  0.4726 -0.1598  0.8049
 7740SOL    MW430728   0.891   0.933   1.672  0.1998  0.1777  0.0504
 7741SOL     OW30729   3.430   4.592   2.056 -0.3207 -0.1419 -0.0860
 7741SOL    HW230730   3.509   4.598   2.003 -1.5303 -1.5707 -2.1937
 7741SOL    HW330731   3.433   4.505   2.096  0.9124  1.1369  2.9665
 7741SOL    MW430732   3.440   4.581   2.055 -0.3176 -0.1617  0.0387
 7742SOL     OW30733   5.731   1.012   0.213 -0.5022  0.9533  0.5165
 7742SOL    HW230734   5.728   0.999   0.308  1.8359 -1.6338  0.3632
 7742SOL    HW330735   5.819   1.045   0.196 -0.7525  0.9893 -0.8010
 7742SOL    MW430736   5.742   1.015   0.224 -0.2267  0.6167  0.3225
 7743SOL     OW30737   6.237   5.828   2.003 -0.5007  0.1391  0.3143
 7743SOL    HW230738   6.174   5.900   2.000 -2.6694 -1.6698 -0.2452
 7743SOL    HW330739   6.303   5.851   1.937  0.2905  2.7387  1.8687
 7743SOL    MW430740   6.238   5.840   1.994 -0.6824  0.2434  0.4456
 7744SOL     OW30741   2.772   0.814   2.018  1.1320  0.0278 -0.0132
 7744SOL    HW230742   2.709   0.753   1.978 -0.7959  1.6002  0.4232
 7744SOL    HW330743   2.811   0.860   1.944  3.0349 -2.0452 -0.3791
 7744SOL    MW430744   2.769   0.812   2.003  1.1287 -0.0382 -0.0039
 7745SOL     OW30745   0.174   0.552   4.744  0.9794 -0.1016 -0.3968
 7745SOL    HW230746   0.257   0.525   4.784  1.3579  1.1424 -0.3119
 7745SOL    HW330747   0.199   0.592   4.661  0.5411  0.9727 -0.0247
 7745SOL    MW430748   0.188   0.554   4.739  0.9715  0.2043 -0.3365
 7746SOL     OW30749   0.462   4.272   1.245 -0.3586  0.2866  0.2055
 7746SOL    HW230750   0.494   4.320   1.168  0.9795 -0.7519  0.0752
 7746SOL    HW330751   0.461   4.337   1.315  2.9948  0.2695  0.4540
 7746SOL    MW430752   0.466   4.287   1.244  0.2604  0.1473  0.2211
 7747SOL     OW30753   3.312   0.296   2.120  0.6241 -0.1290  0.6900
 7747SOL    HW230754   3.390   0.257   2.160  0.2126  0.3455  2.0233
 7747SOL    HW330755   3.254   0.221   2.105  0.9958 -0.3817  0.4850
 7747SOL    MW430756   3.315   0.281   2.124  0.6189 -0.0997  0.8389
 7748SOL     OW30757   3.494   5.836   1.228 -0.0063 -0.1578 -0.4783
 7748SOL    HW230758   3.583   5.805   1.214 -0.1068 -1.1427  0.7478
 7748SOL    HW330759   3.503   5.907   1.292 -0.1191 -0.6090  0.0530
 7748SOL    MW430760   3.507   5.841   1.235 -0.0344 -0.3473 -0.2464
 7749SOL     OW30761   0.568   5.700   5.709 -0.0781  0.8116 -0.0301
 7749SOL    HW230762   0.521   5.783   5.704 -1.8407 -0.1077  0.2862
 7749SOL    HW330763   0.585   5.687   5.802 -0.0041  0.7153 -0.0558
 7749SOL    MW430764   0.564   5.709   5.721 -0.3009  0.6776  0.0082
 7750SOL     OW30765   5.333   4.703   3.779  0.0520  0.2120  0.5566
 7750SOL    HW230766   5.382   4.620   3.785  0.1166  0.3031  1.3354
 7750SOL    HW330767   5.287   4.697   3.695  0.7121 -0.2538  0.2139
 7750SOL    MW430768   5.334   4.691   3.769  0.1476  0.1626  0.6141
 7751SOL     OW30769   3.502   0.194   5.211 -0.0332  0.7570 -0.0973
 7751SOL    HW230770   3.489   0.284   5.181  2.3116  1.2395  0.0658
 7751SOL    HW330771   3.500   0.200   5.307  0.1674  0.6625 -0.0849
 7751SOL    MW430772   3.500   0.207   5.220  0.3026  0.8082 -0.0741
 7752SOL     OW30773   2.933   4.686   2.983  0.0154 -0.0685  0.3529
 7752SOL    HW230774   2.852   4.686   2.932 -0.5485 -1.0063  1.2119
 7752SOL    HW330775   2.974   4.601   2.963 -0.2225 -0.4590  1.4333
 7752SOL    MW430776   2.927   4.674   2.974 -0.0904 -0.2437  0.6088
 7753SOL     OW30777   0.640   5.324   3.523 -0.5950 -0.4634  0.0961
 7753SOL    HW230778   0.621   5.338   3.616  0.1987 -0.4350  0.2685
 7753SOL    HW330779   0.731   5.354   3.513 -0.7887 -0.1465 -0.7661
 7753SOL    MW430780   0.650   5.329   3.534 -0.5158 -0.4179  0.0051
 7754SOL     OW30781   6.204   3.320   1.393  0.3400 -0.2484 -0.3297
 7754SOL    HW230782   6.256   3.302   1.314 -0.2015 -0.9216 -0.5436
 7754SOL    HW330783   6.269   3.345   1.459  1.1396 -2.5681 -0.1402
 7754SOL    MW430784   6.220   3.320   1.391  0.3741 -0.6433 -0.3329
 7755SOL     OW30785   1.593   2.902   5.309  0.2045  0.0600  0.3190
 7755SOL    HW230786   1.583   2.895   5.404  0.3704  1.2108  0.4365
 7755SOL    HW330787   1.620   2.993   5.295  2.1814 -0.6110 -0.6673
 7755SOL    MW430788   1.595   2.913   5.320  0.4872  0.1233  0.2044
 7756SOL     OW30789   4.448   2.220   6.054 -0.1580 -0.1295 -0.4039
 7756SOL    HW230790   4.474   2.301   6.098  0.3161 -0.7984  0.5824
 7756SOL    HW330791   4.373   2.245   6.000  1.3852  1.4705 -1.9609
 7756SOL    MW430792   4.441   2.234   6.053  0.1082 -0.0066 -0.4792
 7757SOL     OW30793   3.230   2.676   2.457  0.4579 -0.5194  0.6603
 7757SOL    HW230794   3.210   2.755   2.407 -1.4782 -1.2295  0.2054
 7757SOL    HW330795   3.237   2.707   2.548 -0.6392  0.1604  0.5405
 7757SOL    MW430796   3.228   2.691   2.463  0.0577 -0.5234  0.5845
 7758SOL     OW30797   1.559   4.705   0.896 -0.3227 -0.2348 -0.0154
 7758SOL    HW230798   1.491   4.757   0.853  1.1928  0.7344 -1.3219
 7758SOL    HW330799   1.604   4.767   0.954 -1.2076 -1.1228  1.7077
 7758SOL    MW430800   1.556   4.720   0.898 -0.2395 -0.2241  0.0396
 7759SOL     OW30801   5.218   4.968   3.165  0.5162  0.1482  1.1283
 7759SOL    HW230802   5.279   4.900   3.135 -1.0750 -0.9111  0.1394
 7759SOL    HW330803   5.256   5.050   3.132  1.7284 -0.4041  1.1057
 7759SOL    MW430804   5.231   4.970   3.156  0.4662 -0.0644  0.9949
 7760SOL     OW30805   2.690   2.654   2.309  0.4500 -0.0969  0.7822
 7760SOL    HW230806   2.692   2.644   2.214 -0.2528  1.2187  0.5984
 7760SOL    HW330807   2.743   2.582   2.342  1.6787  0.0830 -0.6647
 7760SOL    MW430808   2.697   2.643   2.301  0.5194  0.1004  0.5671
 7761SOL     OW30809   4.103   1.789   1.118 -0.2233  0.6594 -0.0349
 7761SOL    HW230810   4.114   1.725   1.188 -0.2580 -0.5706 -1.1201
 7761SOL    HW330811   4.048   1.858   1.157 -0.6310 -0.2225  0.9928
 7761SOL    MW430812   4.097   1.790   1.132 -0.2817  0.3807 -0.0425
 7762SOL     OW30813   3.295   2.046   6.241 -0.2110 -0.3076 -0.3751
 7762SOL    HW230814   3.262   1.989   6.172 -1.1554  0.4482 -0.5569
 7762SOL    HW330815   3.368   2.094   6.200  0.4109 -1.1621 -0.2985
 7762SOL    MW430816   3.300   2.045   6.227 -0.2536 -0.3206 -0.3890
 7763SOL     OW30817   4.994   1.400   2.817 -0.4945  0.1727  0.4278
 7763SOL    HW230818   5.026   1.486   2.788  0.9803 -0.7715 -0.9148
 7763SOL    HW330819   5.050   1.337   2.771 -0.2610 -1.5150  2.8675
 7763SOL    MW430820   5.006   1.403   2.807 -0.2691 -0.1745  0.5726
 7764SOL     OW30821   5.561   3.143   0.409  0.3859 -0.2651 -0.4518
 7764SOL    HW230822   5.535   3.126   0.318 -0.4376 -2.0638  0.0800
 7764SOL    HW330823   5.513   3.078   0.460  1.4994  0.1557  1.1966
 7764SOL    MW430824   5.551   3.133   0.403  0.4242 -0.4469 -0.1642
 7765SOL     OW30825   5.322   1.186   4.379  0.0319 -0.0328  0.2001
 7765SOL    HW230826   5.235   1.149   4.392  0.0526 -0.0540  0.2803
 7765SOL    HW330827   5.306   1.271   4.338  0.0596 -0.8111 -1.5106
 7765SOL    MW430828   5.309   1.193   4.375  0.0383 -0.1383 -0.0150
 7766SOL     OW30829   2.532   0.042   6.118  0.5434 -0.0503 -0.2420
 7766SOL    HW230830   2.519  -0.053   6.128  0.8196  0.0239  0.9007
 7766SOL    HW330831   2.454   0.071   6.070  0.1229 -0.7543 -0.0143
 7766SOL    MW430832   2.520   0.033   6.113  0.5243 -0.1334 -0.0612
 7767SOL     OW30833   1.540   1.003   4.086 -0.6293 -0.0223 -0.6143
 7767SOL    HW230834   1.629   1.037   4.087  0.1453 -1.9133 -1.3375
 7767SOL    HW330835   1.550   0.908   4.092 -2.7040 -0.2010  1.6788
 7767SOL    MW430836   1.553   0.995   4.087 -0.8009 -0.2954 -0.4072
 7768SOL     OW30837   1.390   2.228   0.306 -0.5508  0.1238  0.3506
 7768SOL    HW230838   1.406   2.179   0.225 -1.5401 -2.3078  1.5363
 7768SOL    HW330839   1.363   2.315   0.276  0.2694 -0.3206 -1.8820
 7768SOL    MW430840   1.389   2.233   0.291 -0.5731 -0.2557  0.2125
 7769SOL     OW30841   5.420   2.264   3.144  0.3484 -0.2627 -0.1768
 7769SOL    HW230842   5.404   2.228   3.057  0.0571 -2.2714  0.6528
 7769SOL    HW330843   5.510   2.297   3.139  0.1813  0.0800 -1.3500
 7769SOL    MW430844   5.430   2.263   3.132  0.2879 -0.4825 -0.2222
 7770SOL     OW30845   2.977   2.869   2.075  0.4609 -0.2119  0.3432
 7770SOL    HW230846   2.899   2.816   2.056 -0.4583  1.2611 -0.1924
 7770SOL    HW330847   2.955   2.956   2.042  1.3860  0.8650  2.4005
 7770SOL    MW430848   2.964   2.873   2.068  0.4617  0.1245  0.5440
 7771SOL     OW30849   4.712   1.689   5.828  0.0780 -0.0661  0.6613
 7771SOL    HW230850   4.681   1.757   5.767  1.3889 -0.4349 -0.4737
 7771SOL    HW330851   4.643   1.623   5.828  0.3525 -0.4150 -1.0633
 7771SOL    MW430852   4.699   1.689   5.820  0.2872 -0.1608  0.2840
 7772SOL     OW30853   2.754   6.269   6.029  0.0495 -0.6623  0.6033
 7772SOL    HW230854   2.811   6.219   5.971 -0.0124 -0.5529  0.4481
 7772SOL    HW330855   2.677   6.214   6.041 -0.5695 -0.0800 -0.5627
 7772SOL    MW430856   2.751   6.255   6.023 -0.0403 -0.5710  0.4290
 7773SOL     OW30857   5.405   5.226   1.809 -0.1104  0.3107 -0.1283
 7773SOL    HW230858   5.317   5.210   1.844 -0.5055  1.2542 -0.6302
 7773SOL    HW330859   5.398   5.205   1.716  0.2525  0.1765 -0.1261
 7773SOL    MW430860   5.392   5.221   1.801 -0.1147  0.4175 -0.1942
 7774SOL     OW30861   0.242   3.678   4.799 -0.1506 -0.4870 -0.1989
 7774SOL    HW230862   0.337   3.672   4.797 -0.1422 -0.1888 -1.0745
 7774SOL    HW330863   0.223   3.713   4.886  0.6318  0.7008 -0.4784
 7774SOL    MW430864   0.252   3.682   4.811 -0.0463 -0.2910 -0.3513
 7775SOL     OW30865   3.650   2.680   4.285  0.4424 -0.8096  0.3528
 7775SOL    HW230866   3.696   2.733   4.220 -0.5986 -0.3651 -0.0418
 7775SOL    HW330867   3.697   2.698   4.367 -0.7766  1.9758  0.5649
 7775SOL    MW430868   3.663   2.690   4.287  0.1443 -0.3834  0.3288
 7776SOL     OW30869   5.262   0.890   1.196 -0.2652 -0.3396 -0.4746
 7776SOL    HW230870   5.277   0.862   1.105  0.7668 -2.3586  0.2548
 7776SOL    HW330871   5.259   0.808   1.245  0.3775  0.7717  1.4883
 7776SOL    MW430872   5.264   0.875   1.190 -0.0442 -0.4594 -0.1193
 7777SOL     OW30873   5.016   5.829   4.627  0.0533 -0.1557  0.1759
 7777SOL    HW230874   5.075   5.863   4.559  1.6975 -3.4234 -0.2522
 7777SOL    HW330875   4.931   5.824   4.583  0.1530  1.5555 -0.2868
 7777SOL    MW430876   5.013   5.833   4.612  0.2834 -0.3611  0.0584
 7778SOL     OW30877   0.390   0.239   4.584  0.1411  0.4007  0.2598
 7778SOL    HW230878   0.327   0.282   4.525 -0.4995 -0.1240  0.5548
 7778SOL    HW330879   0.457   0.204   4.526 -1.8274 -2.4444 -0.4749
 7778SOL    MW430880   0.390   0.240   4.569 -0.2032 -0.0439  0.2018
 7779SOL     OW30881   1.490   4.414   4.061  0.3535 -0.3946 -0.0552
 7779SOL    HW230882   1.397   4.431   4.046  0.4103  0.0657  0.0958
 7779SOL    HW330883   1.493   4.325   4.097 -0.3647  0.7039  3.0757
 7779SOL    MW430884   1.478   4.405   4.064  0.2662 -0.1889  0.3778
 7780SOL     OW30885   4.105   1.452   0.117  0.0619 -0.0426 -0.1060
 7780SOL    HW230886   4.061   1.455   0.202  0.1681 -1.2300  0.0150
 7780SOL    HW330887   4.034   1.438   0.054 -0.2515  2.6682 -0.4741
 7780SOL    MW430888   4.090   1.450   0.120  0.0345  0.1584 -0.1386
 7781SOL     OW30889   2.629   0.564   4.120  0.0745 -0.4468 -0.4200
 7781SOL    HW230890   2.700   0.580   4.182  0.1122  1.3618 -0.8837
 7781SOL    HW330891   2.590   0.650   4.105 -2.0681 -1.3327 -0.3876
 7781SOL    MW430892   2.633   0.577   4.126 -0.2032 -0.3251 -0.4769
 7782SOL     OW30893   1.596   2.102   1.929  0.5746  0.3183  0.4769
 7782SOL    HW230894   1.524   2.042   1.949  0.9336 -0.6271 -0.9013
 7782SOL    HW330895   1.622   2.139   2.013 -1.0199  0.1039  1.0865
 7782SOL    MW430896   1.590   2.099   1.942  0.4116  0.1653  0.3755
 7783SOL     OW30897   1.232   1.820   0.614 -0.1026  0.7523  0.5021
 7783SOL    HW230898   1.286   1.832   0.691  0.5540  0.2288  0.1279
 7783SOL    HW330899   1.245   1.901   0.563  0.2632  0.6615  0.4501
 7783SOL    MW430900   1.241   1.833   0.617  0.0323  0.6713  0.4459
 7784SOL     OW30901   3.246   4.251   4.609  0.2361  0.1015 -0.0136
 7784SOL    HW230902   3.224   4.338   4.574  0.2910  0.4909  0.9041
 7784SOL    HW330903   3.260   4.265   4.702  0.2148 -0.9063  0.1530
 7784SOL    MW430904   3.245   4.264   4.616  0.2405  0.0199  0.1295
 7785SOL     OW30905   5.813   5.809   5.613 -0.4217 -0.1747 -0.4739
 7785SOL    HW230906   5.853   5.857   5.685 -1.3538  0.3818 -0.3077
 7785SOL    HW330907   5.820   5.717   5.638  1.3520 -0.1567 -0.7792
 7785SOL    MW430908   5.819   5.803   5.626 -0.3107 -0.0989 -0.4923
 7786SOL     OW30909   5.127   4.604   1.314  0.0773  0.3393  0.7936
 7786SOL    HW230910   5.142   4.572   1.225  0.5457 -0.0504  1.0049
 7786SOL    HW330911   5.182   4.682   1.322  0.6877 -0.1040  1.0073
 7786SOL    MW430912   5.137   4.610   1.303  0.2196  0.2294  0.8496
 7787SOL     OW30913   2.029   5.856   3.036 -0.3705 -0.6449  0.2857
 7787SOL    HW230914   1.991   5.795   2.973  0.0150  1.4317 -2.0918
 7787SOL    HW330915   2.102   5.808   3.075  0.1309 -1.6350 -1.7332
 7787SOL    MW430916   2.033   5.842   3.033 -0.2535 -0.5015 -0.2943
 7788SOL     OW30917   4.194   2.641   3.144  0.2563  0.0819  0.0100
 7788SOL    HW230918   4.119   2.700   3.140  1.6750  2.0879  1.0967
 7788SOL    HW330919   4.247   2.675   3.216  0.4089 -3.5136  1.7899
 7788SOL    MW430920   4.191   2.653   3.153  0.4636 -0.1278  0.3882
 7789SOL     OW30921   5.659   4.508   4.194  0.0842 -0.4135  0.1679
 7789SOL    HW230922   5.682   4.510   4.287 -0.8680  0.2857  0.4146
 7789SOL    HW330923   5.572   4.467   4.191 -0.1105  0.0161 -0.3527
 7789SOL    MW430924   5.650   4.503   4.206 -0.0671 -0.2646  0.1318
 7790SOL     OW30925   0.166   0.984   1.090  0.1423  0.1618 -0.3450
 7790SOL    HW230926   0.095   1.046   1.071  0.9581  1.7739  1.5283
 7790SOL    HW330927   0.123   0.912   1.137 -0.6260 -0.1364 -1.4677
 7790SOL    MW430928   0.151   0.983   1.094  0.1486  0.3352 -0.2460
 7791SOL     OW30929   2.067   3.086   3.497 -0.2101 -0.0885 -0.3716
 7791SOL    HW230930   2.099   3.070   3.408 -1.9841  0.4651 -1.1516
 7791SOL    HW330931   2.076   3.181   3.508  0.4350 -0.2122  0.2342
 7791SOL    MW430932   2.073   3.097   3.486 -0.3591 -0.0317 -0.3946
 7792SOL     OW30933   2.618   4.790   2.312  0.0789  0.5796  0.1424
 7792SOL    HW230934   2.688   4.812   2.250  0.9262  0.8371  1.1593
 7792SOL    HW330935   2.581   4.708   2.279  1.5259 -0.0839  0.1144
 7792SOL    MW430936   2.622   4.782   2.299  0.3816  0.5260  0.2729
 7793SOL     OW30937   5.989   0.694   4.289  0.0241 -0.6058 -0.1945
 7793SOL    HW230938   5.920   0.639   4.252  0.0126 -1.4902  1.0613
 7793SOL    HW330939   6.007   0.654   4.374  0.8249  0.6864  0.2593
 7793SOL    MW430940   5.982   0.681   4.295  0.1282 -0.5520  0.0311
 7794SOL     OW30941   4.837   5.828   6.362 -0.2550 -0.4450  0.4675
 7794SOL    HW230942   4.919   5.827   6.412 -0.0929  0.4735  0.2438
 7794SOL    HW330943   4.794   5.908   6.390 -0.0358  0.2268 -1.0472
 7794SOL    MW430944   4.842   5.838   6.373 -0.2047 -0.2351  0.2381
 7795SOL     OW30945   4.071   3.760   1.601 -0.0978  0.2676  0.2554
 7795SOL    HW230946   4.017   3.690   1.637  2.8784 -3.0730 -1.1335
 7795SOL    HW330947   4.036   3.776   1.514 -1.6454  1.6615  1.0786
 7795SOL    MW430948   4.059   3.753   1.595  0.0907  0.0108  0.1808
 7796SOL     OW30949   2.907   2.829   5.995  0.2468 -0.0975  0.4144
 7796SOL    HW230950   2.958   2.843   6.075 -0.1059 -1.1019  0.8218
 7796SOL    HW330951   2.913   2.913   5.948  0.7196  0.3972  1.3332
 7796SOL    MW430952   2.915   2.842   5.999  0.2626 -0.1647  0.5894
 7797SOL     OW30953   4.481   6.146   2.991  0.5148  0.1123 -0.7400
 7797SOL    HW230954   4.490   6.155   2.896 -1.2407  0.0538 -0.9460
 7797SOL    HW330955   4.521   6.062   3.011  1.4296  0.3926 -1.3350
 7797SOL    MW430956   4.487   6.136   2.981  0.4038  0.1416 -0.8457
 7798SOL     OW30957   5.553   4.616   1.279  0.1530 -0.2813 -0.5482
 7798SOL    HW230958   5.621   4.548   1.277 -0.3897 -0.8485  0.0156
 7798SOL    HW330959   5.493   4.588   1.347 -1.3229 -0.4410 -1.8664
 7798SOL    MW430960   5.554   4.603   1.288 -0.1133 -0.3772 -0.6478
 7799SOL     OW30961   1.657   4.589   0.670 -0.4756 -0.0770 -0.4705
 7799SOL    HW230962   1.645   4.622   0.759 -0.1879  1.4424 -0.9539
 7799SOL    HW330963   1.745   4.619   0.646 -0.5631 -0.4517 -1.2667
 7799SOL    MW430964   1.667   4.597   0.679 -0.4492  0.0740 -0.6393
 7800SOL     OW30965   1.308   0.775   0.757 -0.1688  0.0834 -0.4062
 7800SOL    HW230966   1.394   0.812   0.776 -0.9532  1.5890  0.4569
 7800SOL    HW330967   1.321   0.722   0.679  1.9704 -1.4738  0.9046
 7800SOL    MW430968   1.321   0.773   0.749  0.0099  0.0766 -0.1194
 7801SOL     OW30969   4.290   5.743   4.523  0.7858 -0.0652 -0.2022
 7801SOL    HW230970   4.297   5.647   4.525 -0.8142 -0.1993 -0.4173
 7801SOL    HW330971   4.379   5.772   4.500  1.4775 -1.4493  0.5955
 7801SOL    MW430972   4.303   5.734   4.520  0.6660 -0.2655 -0.1253
 7802SOL     OW30973   1.815   0.949   2.666 -0.1908 -0.3405 -0.1688
 7802SOL    HW230974   1.786   0.896   2.740  1.4821 -1.0213  0.0465
 7802SOL    HW330975   1.848   1.029   2.706  0.0448 -0.4009 -0.2428
 7802SOL    MW430976   1.815   0.953   2.681  0.0610 -0.4383 -0.1501
 7803SOL     OW30977   1.088   0.907   0.403 -0.1266  0.4499 -0.3266
 7803SOL    HW230978   1.078   0.919   0.498 -0.6330  2.6828 -0.6193
 7803SOL    HW330979   1.003   0.875   0.374  0.1887 -0.7622  0.0045
 7803SOL    MW430980   1.076   0.904   0.412 -0.1518  0.5846 -0.3215
 7804SOL     OW30981   3.064   2.033   4.020 -0.0877 -0.2747 -0.1141
 7804SOL    HW230982   3.154   2.032   3.986  1.3245  0.5365  3.2363
 7804SOL    HW330983   3.012   2.068   3.948  2.6326  1.3908 -1.4372
 7804SOL    MW430984   3.069   2.037   4.006  0.4575  0.0521  0.1534
 7805SOL     OW30985   6.398   3.942   5.021 -0.2759 -0.0135 -0.4067
 7805SOL    HW230986   6.385   3.847   5.023  0.1711 -0.0747 -0.3268
 7805SOL    HW330987   6.481   3.954   4.975 -0.4115  0.3500 -0.5642
 7805SOL    MW430988   6.407   3.931   5.015 -0.2348  0.0264 -0.4170
 7806SOL     OW30989   0.168   3.485   5.562 -1.0921  0.3647  0.7887
 7806SOL    HW230990   0.246   3.434   5.542 -1.6496 -0.0845 -0.4139
 7806SOL    HW330991   0.200   3.572   5.584 -0.2804  0.5719 -0.9901
 7806SOL    MW430992   0.182   3.490   5.562 -1.0585  0.3328  0.3954
 7807SOL     OW30993   4.469   5.407   3.788 -0.1995  0.0024  0.2903
 7807SOL    HW230994   4.489   5.403   3.882  1.5802  3.2888  0.2042
 7807SOL    HW330995   4.544   5.366   3.746 -0.3982 -0.3211  0.2439
 7807SOL    MW430996   4.481   5.401   3.795  0.0091  0.3933  0.2728
 7808SOL     OW30997   3.961   3.822   2.189  0.3960 -0.6534 -0.2506
 7808SOL    HW230998   3.886   3.763   2.199  1.6833 -2.0585  2.2660
 7808SOL    HW330999   3.929   3.907   2.220 -0.5906 -0.8257 -0.7681
 7808SOL    MW431000   3.947   3.826   2.194  0.4357 -0.8615  0.0132
 7809SOL     OW31001   3.860   4.981   2.632 -0.2419 -0.2669  0.0920
 7809SOL    HW231002   3.838   4.899   2.588  1.7086 -0.3676 -0.8530
 7809SOL    HW331003   3.918   5.026   2.570  0.2688  0.9474  1.3838
 7809SOL    MW431004   3.865   4.976   2.618  0.0828 -0.1199  0.1378
 7810SOL     OW31005   5.581   1.532   1.078  0.0919 -0.2877 -0.7682
 7810SOL    HW231006   5.617   1.612   1.115  2.0938 -1.7270  0.6407
 7810SOL    HW331007   5.489   1.532   1.105  0.6923  0.3253  1.4925
 7810SOL    MW431008   5.574   1.542   1.086  0.4353 -0.3967 -0.2840
 7811SOL     OW31009   5.910   1.741   5.179 -0.2736 -0.0519  0.6072
 7811SOL    HW231010   5.879   1.658   5.144  0.2285  0.1713 -0.3890
 7811SOL    HW331011   5.905   1.730   5.274 -1.4205 -0.7558  0.4910
 7811SOL    MW431012   5.905   1.729   5.187 -0.3587 -0.1153  0.4604
 7812SOL     OW31013   3.247   0.106   2.896  0.3685  0.4615 -0.1817
 7812SOL    HW231014   3.324   0.158   2.921  1.0586 -0.3980 -0.5044
 7812SOL    HW331015   3.228   0.054   2.974 -0.2505  1.0878  0.0987
 7812SOL    MW431016   3.255   0.106   2.910  0.3779  0.4307 -0.1873
 7813SOL     OW31017   3.441   4.851   1.520 -0.2822 -0.3192  0.0737
 7813SOL    HW231018   3.374   4.897   1.469 -0.6814  0.0139  0.8834
 7813SOL    HW331019   3.464   4.912   1.590  3.1578  0.9532 -1.8695
 7813SOL    MW431020   3.435   4.865   1.523  0.1190 -0.1074 -0.0758
 7814SOL     OW31021   3.704   1.413   3.850  0.4633  0.3462  0.3572
 7814SOL    HW231022   3.731   1.382   3.937 -0.1615  0.7872  0.7185
 7814SOL    HW331023   3.668   1.500   3.866  3.1314  1.7729 -0.7761
 7814SOL    MW431024   3.703   1.420   3.864  0.7329  0.5926  0.2553
 7815SOL     OW31025   2.563   4.587   1.091  0.5116 -1.2288 -0.1267
 7815SOL    HW231026   2.647   4.570   1.135  0.0190 -2.3910  0.3906
 7815SOL    HW331027   2.561   4.682   1.081  1.1530 -1.0265  1.3696
 7815SOL    MW431028   2.574   4.597   1.095  0.5313 -1.3554  0.1389
 7816SOL     OW31029   2.189   0.136   1.579  0.1164 -0.5658  0.3595
 7816SOL    HW231030   2.123   0.070   1.555 -1.1384  0.7154  0.1856
 7816SOL    HW331031   2.178   0.146   1.674 -0.1134 -0.1757  0.2927
 7816SOL    MW431032   2.179   0.128   1.589 -0.0795 -0.3453  0.3277
 7817SOL     OW31033   0.292   2.353   1.147 -0.1932  0.9205 -0.0267
 7817SOL    HW231034   0.225   2.357   1.215 -0.4396  1.5877 -0.3027
 7817SOL    HW331035   0.265   2.418   1.082  0.4534  0.8469 -0.3823
 7817SOL    MW431036   0.280   2.362   1.148 -0.1404  0.9988 -0.1100
 7818SOL     OW31037   1.621   0.501   3.192 -0.4724  0.4119  0.5879
 7818SOL    HW231038   1.695   0.513   3.132 -0.9565  1.1256  0.1266
 7818SOL    HW331039   1.660   0.512   3.279  0.2828 -0.8773  0.4542
 7818SOL    MW431040   1.636   0.504   3.196 -0.4366  0.3360  0.5094
 7819SOL     OW31041   3.323   5.614   2.818  0.2594 -0.1969 -0.3512
 7819SOL    HW231042   3.256   5.592   2.753 -0.0742  1.0102 -0.4445
 7819SOL    HW331043   3.397   5.559   2.795 -0.2934 -0.7046 -0.9730
 7819SOL    MW431044   3.324   5.604   2.806  0.1425 -0.1046 -0.4456
 7820SOL     OW31045   3.791   4.924   3.338  0.3997 -0.1192 -0.8624
 7820SOL    HW231046   3.718   4.944   3.280  1.2905  1.7712 -1.4261
 7820SOL    HW331047   3.769   4.967   3.421  0.5047 -0.2395 -0.7703
 7820SOL    MW431048   3.779   4.932   3.341  0.5311  0.1144 -0.9246
 7821SOL     OW31049   4.500   4.700   3.258  0.1392 -0.9057  0.3751
 7821SOL    HW231050   4.474   4.741   3.341  2.0375 -0.2550  0.6833
 7821SOL    HW331051   4.455   4.615   3.258 -0.7604 -0.4571  1.5429
 7821SOL    MW431052   4.490   4.694   3.269  0.2710 -0.7606  0.5698
 7822SOL     OW31053   5.200   3.783   6.140  0.1613 -0.7230  0.1316
 7822SOL    HW231054   5.161   3.718   6.081  0.0101 -0.8119  0.3296
 7822SOL    HW331055   5.178   3.868   6.101  1.3021 -0.8075 -0.7278
 7822SOL    MW431056   5.192   3.786   6.127  0.2919 -0.7459  0.0444
 7823SOL     OW31057   0.445   0.274   5.348  0.5591  0.3111  0.2034
 7823SOL    HW231058   0.497   0.259   5.269  0.3039  0.8513 -0.0745
 7823SOL    HW331059   0.355   0.256   5.321  0.5144  0.1245  0.4745
 7823SOL    MW431060   0.440   0.270   5.334  0.5195  0.3578  0.2025
 7824SOL     OW31061   4.663   3.169   3.809  0.2359 -0.1199 -0.1822
 7824SOL    HW231062   4.605   3.150   3.735  2.4244 -2.2923 -1.4968
 7824SOL    HW331063   4.661   3.089   3.862  0.0978  0.7372  1.1358
 7824SOL    MW431064   4.655   3.156   3.806  0.5064 -0.2935 -0.1818
 7825SOL     OW31065   1.520   3.228   6.090  0.1203  0.3077  0.1902
 7825SOL    HW231066   1.537   3.312   6.048  0.0993  0.8703  1.2727
 7825SOL    HW331067   1.580   3.167   6.046 -1.0929  0.4744 -1.8251
 7825SOL    MW431068   1.530   3.231   6.079 -0.0425  0.4039  0.0671
 7826SOL     OW31069   3.505   3.736   2.311  0.6383  0.0871  0.0977
 7826SOL    HW231070   3.493   3.654   2.262  1.6148 -0.3852  0.6108
 7826SOL    HW331071   3.447   3.799   2.268  0.5139 -0.6517 -0.8473
 7826SOL    MW431072   3.496   3.733   2.299  0.7507 -0.0727  0.0407
 7827SOL     OW31073   0.175   4.021   2.522 -0.4562  0.5334 -0.5762
 7827SOL    HW231074   0.129   3.938   2.538  0.1906 -0.0290 -1.5251
 7827SOL    HW331075   0.255   4.013   2.574  0.7219 -0.4677 -2.4431
 7827SOL    MW431076   0.180   4.009   2.531 -0.2154  0.3271 -0.9477
 7828SOL     OW31077   5.698   1.520   2.300  0.5616  0.2449  0.5529
 7828SOL    HW231078   5.617   1.470   2.312  0.2918  0.5224 -0.0494
 7828SOL    HW331079   5.743   1.515   2.384 -0.0462  0.0175  0.8656
 7828SOL    MW431080   5.693   1.513   2.313  0.4458  0.2515  0.5147
 7829SOL     OW31081   4.426   3.388   5.366  0.0831  0.0080  0.5463
 7829SOL    HW231082   4.513   3.421   5.344  0.2464  0.0535  1.2156
 7829SOL    HW331083   4.379   3.385   5.283  0.1590  1.6663  0.4055
 7829SOL    MW431084   4.431   3.392   5.352  0.1147  0.2328  0.6160
 7830SOL     OW31085   1.686   5.688   2.997  0.1137 -0.2660  0.5594
 7830SOL    HW231086   1.657   5.627   2.929  2.6935 -0.4506 -0.4685
 7830SOL    HW331087   1.740   5.635   3.056  2.2035  0.8652 -0.2167
 7830SOL    MW431088   1.689   5.673   2.996  0.7298 -0.1411  0.3214
 7831SOL     OW31089   4.723   3.367   0.630 -0.3718 -0.7851  0.2528
 7831SOL    HW231090   4.641   3.322   0.608 -0.9366  1.4654 -2.8066
 7831SOL    HW331091   4.702   3.418   0.708 -2.0446  0.0112 -0.6680
 7831SOL    MW431092   4.709   3.368   0.638 -0.6670 -0.3831 -0.2723
 7832SOL     OW31093   4.513   1.334   0.510  0.2450 -0.0229 -0.2464
 7832SOL    HW231094   4.527   1.425   0.483 -0.2866  0.1506  0.0350
 7832SOL    HW331095   4.565   1.325   0.591  1.4286 -0.3943 -1.0222
 7832SOL    MW431096   4.522   1.345   0.517  0.3310 -0.0490 -0.3117
 7833SOL     OW31097   2.378   5.852   0.577  0.0201 -0.1029 -0.3447
 7833SOL    HW231098   2.371   5.762   0.545  1.0977  0.2224 -1.6022
 7833SOL    HW331099   2.450   5.889   0.525  0.9786  0.8711  1.5926
 7833SOL    MW431100   2.387   5.845   0.566  0.2887  0.0685 -0.2550
 7834SOL     OW31101   6.166   4.631   1.959 -0.5667  0.4340 -0.0770
 7834SOL    HW231102   6.122   4.587   1.886 -0.9271  0.0377  0.3717
 7834SOL    HW331103   6.182   4.562   2.022  1.7371  0.3267 -0.6789
 7834SOL    MW431104   6.162   4.616   1.957 -0.3103  0.3675 -0.0972
 7835SOL     OW31105   5.803   4.474   5.458  0.2076 -0.3464  0.6513
 7835SOL    HW231106   5.751   4.421   5.519 -0.1780 -0.0612  0.5681
 7835SOL    HW331107   5.765   4.455   5.372 -0.2171  0.4078  0.6709
 7835SOL    MW431108   5.791   4.464   5.455  0.1006 -0.2093  0.6429
 7836SOL     OW31109   3.404   1.317   1.011 -0.6098  0.8018 -0.0506
 7836SOL    HW231110   3.380   1.409   1.022  2.7094  1.7270  0.6918
 7836SOL    HW331111   3.423   1.286   1.099 -0.3919 -0.1925 -0.4317
 7836SOL    MW431112   3.403   1.325   1.024 -0.1431  0.7927 -0.0029
 7837SOL     OW31113   5.591   6.153   5.806 -0.5012  0.1127 -0.8730
 7837SOL    HW231114   5.622   6.063   5.809  1.7127  0.7496 -2.2362
 7837SOL    HW331115   5.579   6.172   5.713  0.8284  1.7219 -0.7648
 7837SOL    MW431116   5.594   6.144   5.794 -0.0337  0.4091 -1.0386
 7838SOL     OW31117   5.321   6.386   3.198 -0.1842 -0.3040  0.1280
 7838SOL    HW231118   5.324   6.420   3.109 -2.3046  2.1214  0.8614
 7838SOL    HW331119   5.257   6.442   3.243  0.8793 -1.3486  3.2041
 7838SOL    MW431120   5.313   6.398   3.192 -0.3237 -0.1218  0.6306
 7839SOL     OW31121   5.652   4.154   3.991 -0.2091 -0.2783  0.3257
 7839SOL    HW231122   5.644   4.059   3.987 -0.8923 -0.2673  1.0740
 7839SOL    HW331123   5.562   4.185   4.005  0.1269  0.4130  1.0407
 7839SOL    MW431124   5.639   4.145   3.992 -0.2549 -0.1856  0.5188
 7840SOL     OW31125   1.133   6.163   5.752 -0.1029 -0.6207 -0.0855
 7840SOL    HW231126   1.087   6.080   5.745 -0.6204 -0.4568  1.0937
 7840SOL    HW331127   1.194   6.151   5.825 -0.3609  0.1062  0.2616
 7840SOL    MW431128   1.135   6.150   5.761 -0.2052 -0.5031  0.1159
 7841SOL     OW31129   0.313   0.965   0.575 -0.2193  0.5026 -0.2669
 7841SOL    HW231130   0.391   1.018   0.560 -1.4272  1.9233 -1.7923
 7841SOL    HW331131   0.317   0.896   0.509  0.4474 -0.3255  0.5979
 7841SOL    MW431132   0.324   0.963   0.565 -0.2907  0.5808 -0.3541
 7842SOL     OW31133   0.261   2.210   2.970 -0.1817 -0.9992  0.6057
 7842SOL    HW231134   0.267   2.115   2.964  0.4414 -1.0990  2.3173
 7842SOL    HW331135   0.190   2.226   3.032 -0.5851 -0.3251 -0.0133
 7842SOL    MW431136   0.253   2.200   2.977 -0.1527 -0.9234  0.7498
 7843SOL     OW31137   4.121   6.214   1.683  0.3262  0.6357 -0.4541
 7843SOL    HW231138   4.080   6.228   1.597 -0.1915  1.0667 -0.1387
 7843SOL    HW331139   4.199   6.269   1.681 -0.2320  1.4575 -0.2673
 7843SOL    MW431140   4.125   6.223   1.671  0.1843  0.8010 -0.3879
 7844SOL     OW31141   5.154   5.070   2.763 -0.2112  0.0919 -0.5006
 7844SOL    HW231142   5.077   5.058   2.708 -1.7359 -0.4802  1.6235
 7844SOL    HW331143   5.182   5.160   2.746 -3.1142  1.3459  0.7036
 7844SOL    MW431144   5.148   5.080   2.753 -0.7954  0.1819 -0.0615
 7845SOL     OW31145   4.664   0.442   2.160  0.1494  0.2728  0.0400
 7845SOL    HW231146   4.730   0.388   2.203  0.6485 -0.2716 -1.3284
 7845SOL    HW331147   4.586   0.387   2.156  0.9911 -0.8729 -2.3732
 7845SOL    MW431148   4.663   0.427   2.165  0.3263  0.0498 -0.4590
 7846SOL     OW31149   4.957   2.551   1.819  0.1919 -0.4125  0.1353
 7846SOL    HW231150   4.998   2.470   1.786 -1.7715 -0.8768 -1.3199
 7846SOL    HW331151   4.899   2.522   1.889 -0.6291 -0.3179 -0.4881
 7846SOL    MW431152   4.955   2.536   1.824 -0.1754 -0.4613 -0.1389
 7847SOL     OW31153   6.373   6.173   4.045 -0.2500  0.3908  0.2193
 7847SOL    HW231154   6.420   6.241   4.093 -1.3199  1.5637 -0.3063
 7847SOL    HW331155   6.440   6.128   3.994  0.7584 -0.1977  1.9647
 7847SOL    MW431156   6.388   6.176   4.045 -0.2581  0.4679  0.3802
 7848SOL     OW31157   1.043   5.205   3.512  0.7291  0.0136  0.4008
 7848SOL    HW231158   1.023   5.295   3.536  0.4728 -0.0223  0.3264
 7848SOL    HW331159   1.039   5.204   3.416  1.0224 -0.0101  0.3880
 7848SOL    MW431160   1.039   5.216   3.503  0.7340  0.0057  0.3893
 7849SOL     OW31161   0.498   5.429   2.744  0.8800 -0.0175  0.4907
 7849SOL    HW231162   0.547   5.510   2.757 -2.2257  2.1506 -0.1744
 7849SOL    HW331163   0.485   5.395   2.833  1.7391  0.5026  0.8282
 7849SOL    MW431164   0.503   5.435   2.758  0.5836  0.3372  0.4475
 7850SOL     OW31165   5.170   1.465   5.766 -0.2857 -0.4213  0.5650
 7850SOL    HW231166   5.152   1.373   5.786  2.2677 -1.0399  0.3117
 7850SOL    HW331167   5.240   1.462   5.700 -0.6008  1.7138  0.0576
 7850SOL    MW431168   5.177   1.452   5.760  0.0096 -0.2212  0.4647
 7851SOL     OW31169   3.575   6.207   1.330  0.1527 -0.2861  0.1022
 7851SOL    HW231170   3.517   6.163   1.392  0.5592 -1.5038 -0.3475
 7851SOL    HW331171   3.547   6.175   1.244  1.9882 -1.5672 -0.0752
 7851SOL    MW431172   3.564   6.197   1.327  0.4485 -0.6158  0.0195
 7852SOL     OW31173   0.028   1.764   1.356 -0.1780 -0.0114  0.5731
 7852SOL    HW231174   0.063   1.848   1.386  0.3619  0.1030 -0.3461
 7852SOL    HW331175   0.106   1.712   1.334 -0.5465 -0.3172 -0.0168
 7852SOL    MW431176   0.043   1.768   1.357 -0.1554 -0.0366  0.3740
 7853SOL     OW31177   1.654   1.348   2.608 -0.0968 -0.4559  0.5352
 7853SOL    HW231178   1.657   1.361   2.703  0.0889 -1.4034  0.6703
 7853SOL    HW331179   1.567   1.379   2.582 -0.1469 -0.1906  1.0108
 7853SOL    MW431180   1.643   1.354   2.617 -0.0789 -0.5459  0.6157
 7854SOL     OW31181   4.314   2.253   1.333  0.0009 -0.6743  0.2424
 7854SOL    HW231182   4.312   2.163   1.367  0.2547 -0.0152  2.1347
 7854SOL    HW331183   4.312   2.308   1.411 -1.8695  1.0294 -0.9010
 7854SOL    MW431184   4.314   2.248   1.348 -0.2124 -0.3625  0.3412
 7855SOL     OW31185   0.612   0.701   4.301 -0.4622  0.3300  0.1457
 7855SOL    HW231186   0.670   0.771   4.332  0.3214  0.6295 -1.8226
 7855SOL    HW331187   0.666   0.651   4.239 -1.8339 -0.3523 -0.5550
 7855SOL    MW431188   0.627   0.703   4.297 -0.5398  0.2795 -0.2064
 7856SOL     OW31189   0.347   4.841   1.376  0.0629 -0.6568  0.2760
 7856SOL    HW231190   0.422   4.843   1.435 -0.5506 -1.5506  1.1090
 7856SOL    HW331191   0.277   4.882   1.425 -0.2693 -0.7535 -0.1114
 7856SOL    MW431192   0.348   4.847   1.390 -0.0618 -0.7875  0.3348
 7857SOL     OW31193   4.208   3.677   5.404  0.2996 -0.0296 -0.1371
 7857SOL    HW231194   4.218   3.771   5.394  2.9461 -0.2766 -0.6916
 7857SOL    HW331195   4.173   3.647   5.321 -0.3002  0.4267 -0.0533
 7857SOL    MW431196   4.205   3.685   5.392  0.5696 -0.0020 -0.1992
 7858SOL     OW31197   3.295   6.181   0.799  0.6393  0.4508  0.2556
 7858SOL    HW231198   3.350   6.131   0.859  0.6885 -0.9916 -0.9389
 7858SOL    HW331199   3.212   6.134   0.798  0.3164  1.0192 -0.0632
 7858SOL    MW431200   3.291   6.168   0.807  0.6032  0.3355  0.0559
 7859SOL     OW31201   2.683   3.461   2.340  0.2552  0.1735 -0.6601
 7859SOL    HW231202   2.673   3.425   2.429  0.0139  0.0451 -0.7384
 7859SOL    HW331203   2.615   3.529   2.334 -0.7700 -0.8813 -1.2887
 7859SOL    MW431204   2.672   3.466   2.351  0.0881  0.0174 -0.7534
 7860SOL     OW31205   4.815   2.295   5.474 -0.5371 -0.0821  0.2728
 7860SOL    HW231206   4.760   2.352   5.421  1.1534 -0.7929 -2.4353
 7860SOL    HW331207   4.875   2.354   5.518 -1.8675  0.5097  1.3750
 7860SOL    MW431208   4.815   2.310   5.473 -0.4896 -0.0978  0.0609
 7861SOL     OW31209   5.736   6.301   3.408 -0.1715 -0.0091 -0.0126
 7861SOL    HW231210   5.800   6.232   3.428  0.0213  0.2378  0.2327
 7861SOL    HW331211   5.669   6.257   3.357 -1.6865 -1.1266  2.7360
 7861SOL    MW431212   5.736   6.286   3.404 -0.3459 -0.1240  0.3824
 7862SOL     OW31213   1.968   0.348   3.436 -0.1954  0.6005  0.4622
 7862SOL    HW231214   2.008   0.353   3.349  0.3769  1.0060  0.7339
 7862SOL    HW331215   1.980   0.257   3.463 -0.4427  0.4564  0.0861
 7862SOL    MW431216   1.975   0.337   3.428 -0.1525  0.6350  0.4485
 7863SOL     OW31217   0.649   3.216   2.294 -0.1746 -0.0854 -0.3467
 7863SOL    HW231218   0.706   3.178   2.226 -0.6888 -0.4477 -0.5785
 7863SOL    HW331219   0.701   3.212   2.374 -0.2861 -1.4748 -0.3193
 7863SOL    MW431220   0.664   3.211   2.295 -0.2571 -0.3165 -0.3737
 7864SOL     OW31221   0.772   4.545   4.158  0.1930 -0.2427  0.1014
 7864SOL    HW231222   0.810   4.514   4.241  1.0372 -0.4995 -0.3629
 7864SOL    HW331223   0.820   4.625   4.138 -1.2704  0.8415  0.7655
 7864SOL    MW431224   0.784   4.551   4.166  0.1113 -0.1335  0.1278
 7865SOL     OW31225   1.515   3.144   2.127 -0.4728 -0.5195  0.6510
 7865SOL    HW231226   1.517   3.231   2.088  0.5334 -1.1023 -0.6689
 7865SOL    HW331227   1.436   3.103   2.093 -0.3917 -0.4894  0.4266
 7865SOL    MW431228   1.505   3.150   2.118 -0.3294 -0.5924  0.4472
 7866SOL     OW31229   3.642   3.283   2.819 -0.1713  0.8663  0.1858
 7866SOL    HW231230   3.700   3.209   2.837 -0.0894  0.6236 -0.9880
 7866SOL    HW331231   3.679   3.355   2.869  0.3041  0.3453  0.5953
 7866SOL    MW431232   3.654   3.283   2.828 -0.0978  0.7655  0.0850
 7867SOL     OW31233   5.849   0.027   3.740  0.2262  0.0502 -0.4214
 7867SOL    HW231234   5.883  -0.053   3.699 -0.7094 -0.0853 -0.9520
 7867SOL    HW331235   5.927   0.082   3.752  0.7525 -0.5724 -0.8696
 7867SOL    MW431236   5.864   0.024   3.736  0.1722 -0.0498 -0.5505
 7868SOL     OW31237   5.327   5.053   6.404 -0.3515  0.0594 -0.0109
 7868SOL    HW231238   5.263   5.057   6.334  0.9109  1.1148 -1.1487
 7868SOL    HW331239   5.399   5.000   6.368 -0.6675 -1.3958  1.3592
 7868SOL    MW431240   5.328   5.046   6.390 -0.2266  0.0066  0.0197
 7869SOL     OW31241   4.482   4.485   0.424 -0.5928  0.4621 -0.4853
 7869SOL    HW231242   4.541   4.517   0.492 -0.6236  0.8156 -0.6262
 7869SOL    HW331243   4.538   4.432   0.367 -0.9107 -1.4926  0.8827
 7869SOL    MW431244   4.497   4.482   0.426 -0.6388  0.2508 -0.3234
 7870SOL     OW31245   3.740   2.635   0.612  0.5764 -0.1137  0.4179
 7870SOL    HW231246   3.713   2.555   0.658  0.3845 -0.0540  0.4105
 7870SOL    HW331247   3.734   2.612   0.519  0.8686 -0.2034  0.4223
 7870SOL    MW431248   3.735   2.621   0.606  0.5897 -0.1177  0.4175
 7871SOL     OW31249   5.517   1.029   1.165 -0.0757 -0.3927 -0.6900
 7871SOL    HW231250   5.567   1.056   1.242 -0.1772  0.2444 -0.8484
 7871SOL    HW331251   5.437   0.991   1.201 -0.3106  0.2821 -0.4891
 7871SOL    MW431252   5.513   1.027   1.180 -0.1201 -0.2196 -0.6844
 7872SOL     OW31253   4.993   4.315   1.690 -0.4927 -0.0851 -0.4601
 7872SOL    HW231254   4.916   4.372   1.693  1.4679  2.8327 -0.4066
 7872SOL    HW331255   5.066   4.373   1.712  1.6908 -2.8026  0.0536
 7872SOL    MW431256   4.992   4.330   1.693  0.0541 -0.0586 -0.3853
 7873SOL     OW31257   4.825   5.187   0.394  0.2884  0.0669  0.4847
 7873SOL    HW231258   4.818   5.225   0.307  0.4616  0.7366  0.7609
 7873SOL    HW331259   4.909   5.140   0.393  0.2246 -0.0450  0.2494
 7873SOL    MW431260   4.835   5.186   0.383  0.3028  0.1405  0.4901
 7874SOL     OW31261   3.364   2.849   6.133 -0.8296  0.7438 -0.3771
 7874SOL    HW231262   3.270   2.848   6.149 -0.7772  1.3196 -0.0001
 7874SOL    HW331263   3.374   2.905   6.056 -0.9502 -0.8474 -1.6207
 7874SOL    MW431264   3.353   2.856   6.125 -0.8386  0.6098 -0.4914
 7875SOL     OW31265   2.985   4.670   2.634 -0.1486  0.1695 -0.5291
 7875SOL    HW231266   2.970   4.757   2.670  0.1241  0.2873 -0.6953
 7875SOL    HW331267   2.899   4.640   2.607 -0.3470  0.1003  0.1748
 7875SOL    MW431268   2.972   4.678   2.635 -0.1388  0.1759 -0.4581
 7876SOL     OW31269   1.512   6.328   4.324  0.3500  0.3487  0.1786
 7876SOL    HW231270   1.424   6.323   4.288  0.6072 -0.7661 -0.3325
 7876SOL    HW331271   1.503   6.293   4.413  0.3725 -0.3113 -0.0729
 7876SOL    MW431272   1.499   6.323   4.331  0.3869  0.1146  0.0780
 7877SOL     OW31273   1.519   1.788   2.518  0.4882  0.6085 -0.0620
 7877SOL    HW231274   1.507   1.754   2.607 -0.9055 -0.4654 -0.6369
 7877SOL    HW331275   1.473   1.872   2.518 -1.3789 -0.3778 -0.3427
 7877SOL    MW431276   1.512   1.795   2.530  0.0579  0.3367 -0.1749
 7878SOL     OW31277   4.433   0.810   0.973 -0.0925  0.5176 -0.2856
 7878SOL    HW231278   4.423   0.904   0.985 -2.1917  0.3190 -0.1204
 7878SOL    HW331279   4.415   0.773   1.060 -2.3886 -0.1717 -0.9792
 7878SOL    MW431280   4.429   0.818   0.986 -0.6724  0.4004 -0.3553
 7879SOL     OW31281   3.251   3.329   3.561 -0.2052  0.4296  0.2546
 7879SOL    HW231282   3.182   3.268   3.536 -1.2129  1.6696 -0.1292
 7879SOL    HW331283   3.226   3.361   3.647  0.5365 -0.0007  0.6379
 7879SOL    MW431284   3.239   3.325   3.569 -0.2403  0.5365  0.2546
 7880SOL     OW31285   0.365   4.091   1.538  0.7104  0.0137  0.5167
 7880SOL    HW231286   0.380   4.133   1.623 -0.4188  1.9652 -0.1732
 7880SOL    HW331287   0.274   4.113   1.516  0.7537 -1.0448 -0.8802
 7880SOL    MW431288   0.355   4.100   1.546  0.5671  0.1315  0.2413
 7881SOL     OW31289   5.291   2.359   3.719  0.3945  0.0580  0.0394
 7881SOL    HW231290   5.357   2.299   3.686 -1.3360 -2.2964  0.5887
 7881SOL    HW331291   5.328   2.395   3.799  1.1635 -0.9239  0.1461
 7881SOL    MW431292   5.304   2.356   3.725  0.2676 -0.3822  0.1259
 7882SOL     OW31293   4.359   4.062   2.225  0.7183 -0.3015 -0.1262
 7882SOL    HW231294   4.331   4.071   2.134  2.5827  0.1009 -0.7209
 7882SOL    HW331295   4.446   4.103   2.227  0.4218  0.3582  2.0060
 7882SOL    MW431296   4.367   4.069   2.214  0.9252 -0.1614  0.0766
 7883SOL     OW31297   5.322   3.782   5.058  0.0063  0.0562 -0.1638
 7883SOL    HW231298   5.394   3.809   5.002 -0.7264  0.2899 -1.0110
 7883SOL    HW331299   5.259   3.742   4.999 -1.1668  1.0728  0.3470
 7883SOL    MW431300   5.323   3.780   5.043 -0.2451  0.2212 -0.2082
 7884SOL     OW31301   5.505   0.863   1.847  0.0647 -0.4253  0.2337
 7884SOL    HW231302   5.520   0.930   1.781  0.1195 -1.5961 -0.9928
 7884SOL    HW331303   5.575   0.799   1.833  0.5833 -0.2764  2.0050
 7884SOL    MW431304   5.516   0.863   1.836  0.1404 -0.5601  0.3056
 7885SOL     OW31305   3.384   1.747   4.506 -0.4634 -0.0024 -0.2424
 7885SOL    HW231306   3.427   1.733   4.590  0.7109  1.2409 -0.5848
 7885SOL    HW331307   3.320   1.676   4.498 -0.5730 -0.1549  1.6685
 7885SOL    MW431308   3.381   1.736   4.516 -0.3229  0.1415 -0.0355
 7886SOL     OW31309   2.829   0.131   1.562  0.4491  0.6448  0.8665
 7886SOL    HW231310   2.858   0.055   1.511 -1.4144  0.7167 -0.3890
 7886SOL    HW331311   2.883   0.203   1.530  0.1277  0.4456 -0.1483
 7886SOL    MW431312   2.840   0.130   1.551  0.1608  0.6280  0.5670
 7887SOL     OW31313   5.651   0.637   1.668  0.1482 -0.0385 -0.2030
 7887SOL    HW231314   5.598   0.686   1.605  0.1607  0.6019  0.2716
 7887SOL    HW331315   5.593   0.620   1.741  0.9493  2.0363  1.0205
 7887SOL    MW431316   5.636   0.641   1.669  0.2556  0.3197  0.0210
 7888SOL     OW31317   3.039   4.074   0.876  0.4977 -0.5615 -0.4183
 7888SOL    HW231318   2.960   4.036   0.837  0.4664  0.2569 -1.1835
 7888SOL    HW331319   3.009   4.153   0.920  0.6249 -1.1837  0.8465
 7888SOL    MW431320   3.025   4.079   0.877  0.5104 -0.5356 -0.3524
 7889SOL     OW31321   1.026   3.897   5.705 -0.5668  0.0605 -0.3357
 7889SOL    HW231322   0.949   3.952   5.720 -1.0259 -0.8893  1.0013
 7889SOL    HW331323   0.993   3.824   5.654 -0.3775  0.0582 -0.4547
 7889SOL    MW431324   1.012   3.895   5.701 -0.6024 -0.0651 -0.1750
 7890SOL     OW31325   2.980   4.963   3.734  0.4986 -0.4649 -0.0827
 7890SOL    HW231326   2.938   5.025   3.675  1.6091  0.2739 -0.1196
 7890SOL    HW331327   2.926   4.966   3.813 -0.9670 -1.4255 -0.9876
 7890SOL    MW431328   2.967   4.971   3.737  0.4517 -0.4941 -0.2070
 7891SOL     OW31329   0.232   4.920   2.944  0.0049 -0.1765 -0.2089
 7891SOL    HW231330   0.268   5.008   2.955 -0.5575  0.3297 -1.9537
 7891SOL    HW331331   0.159   4.932   2.883 -1.4040 -1.5693  1.1171
 7891SOL    MW431332   0.227   4.933   2.937 -0.2552 -0.2935 -0.2641
 7892SOL     OW31333   2.623   3.485   1.224 -0.6073  0.1149 -0.4972
 7892SOL    HW231334   2.625   3.482   1.128 -0.8663 -2.1700 -0.4902
 7892SOL    HW331335   2.687   3.552   1.247 -0.1538  0.3363 -2.2528
 7892SOL    MW431336   2.632   3.493   1.214 -0.5816 -0.1574 -0.7279
 7893SOL     OW31337   0.484   0.048   3.113 -0.0636  0.0836 -0.0220
 7893SOL    HW231338   0.462   0.066   3.204 -0.2724  1.3536 -0.3024
 7893SOL    HW331339   0.451   0.124   3.065 -0.8425 -1.0202 -1.2907
 7893SOL    MW431340   0.477   0.060   3.118 -0.1939  0.1056 -0.2264
 7894SOL     OW31341   0.474   3.373   3.528  0.3363 -0.3310  0.5233
 7894SOL    HW231342   0.542   3.349   3.464 -0.1533 -1.7603  0.5087
 7894SOL    HW331343   0.419   3.436   3.482 -0.0914 -1.4452 -0.5464
 7894SOL    MW431344   0.476   3.378   3.514  0.2152 -0.6666  0.3803
 7895SOL     OW31345   1.380   4.253   2.495 -0.7645  0.4818 -0.0973
 7895SOL    HW231346   1.377   4.162   2.464 -2.1536  0.2557  0.6509
 7895SOL    HW331347   1.351   4.304   2.420 -0.1767  0.2980 -0.4568
 7895SOL    MW431348   1.376   4.248   2.481 -0.8703  0.4277 -0.0461
 7896SOL     OW31349   2.139   4.841   3.644  0.1629  0.3312 -0.2436
 7896SOL    HW231350   2.055   4.882   3.621  0.0837  1.2385  1.5070
 7896SOL    HW331351   2.155   4.778   3.574 -1.4151  0.9525 -1.2138
 7896SOL    MW431352   2.130   4.838   3.631 -0.0558  0.5329 -0.1406
 7897SOL     OW31353   5.523   0.615   5.067 -0.6169  0.2397 -0.1164
 7897SOL    HW231354   5.588   0.547   5.050  0.1765  1.2217 -1.1813
 7897SOL    HW331355   5.524   0.626   5.162  0.6110  0.0487 -0.0844
 7897SOL    MW431356   5.532   0.608   5.077 -0.3502  0.3440 -0.2527
 7898SOL     OW31357   0.016   3.549   5.940 -0.0440 -0.8842  0.5474
 7898SOL    HW231358   0.032   3.568   6.033  0.3078  0.0492  0.3094
 7898SOL    HW331359  -0.028   3.628   5.907  0.2575 -1.0192 -0.1907
 7898SOL    MW431360   0.012   3.562   5.948  0.0422 -0.7789  0.4186
 7899SOL     OW31361   0.990   0.619   1.590  0.4804  0.2388  0.0858
 7899SOL    HW231362   0.919   0.671   1.554  0.4601  0.2440  0.1333
 7899SOL    HW331363   0.947   0.541   1.625  0.2032  1.2893  2.2144
 7899SOL    MW431364   0.975   0.615   1.590  0.4411  0.3781  0.3729
 7900SOL     OW31365   4.647   5.613   5.433  0.0935  0.2398  0.5897
 7900SOL    HW231366   4.697   5.692   5.415  0.0387 -0.2128 -1.7591
 7900SOL    HW331367   4.559   5.632   5.400 -0.1414 -0.5167  0.7573
 7900SOL    MW431368   4.642   5.626   5.426  0.0553  0.0802  0.3019
 7901SOL     OW31369   1.355   2.231   2.116  1.1830  0.0066 -0.2041
 7901SOL    HW231370   1.339   2.241   2.210  0.0702 -0.4979 -0.3194
 7901SOL    HW331371   1.383   2.140   2.107 -0.1610 -0.4037 -0.5112
 7901SOL    MW431372   1.357   2.220   2.127  0.8589 -0.1141 -0.2598
 7902SOL     OW31373   1.109   3.785   4.764 -0.1002 -0.2681  0.4617
 7902SOL    HW231374   1.070   3.707   4.726  1.8347 -0.6870 -0.7968
 7902SOL    HW331375   1.124   3.762   4.856 -1.1311 -0.7162  0.5309
 7902SOL    MW431376   1.106   3.772   4.771  0.0191 -0.3825  0.3048
 7903SOL     OW31377   1.347   5.123   5.397  1.1110 -0.0444 -0.0181
 7903SOL    HW231378   1.315   5.067   5.326 -0.8527  0.9797 -0.0162
 7903SOL    HW331379   1.386   5.199   5.352  0.3118  0.3693 -0.0382
 7903SOL    MW431380   1.348   5.126   5.381  0.7465  0.1453 -0.0205
 7904SOL     OW31381   3.600   4.321   4.814  1.1086  0.2041  0.3294
 7904SOL    HW231382   3.578   4.273   4.734  1.1816 -0.2224  0.5620
 7904SOL    HW331383   3.654   4.394   4.784 -0.5664  1.2460 -0.2514
 7904SOL    MW431384   3.604   4.324   4.800  0.8972  0.2853  0.2834
 7905SOL     OW31385   3.150   1.275   3.353  0.7076  0.0629 -0.5730
 7905SOL    HW231386   3.086   1.328   3.399 -0.0921 -1.2665 -0.1008
 7905SOL    HW331387   3.134   1.186   3.384  2.8793 -0.2937 -0.3323
 7905SOL    MW431388   3.140   1.270   3.363  0.8886 -0.1595 -0.4789
 7906SOL     OW31389   0.881   4.012   4.281 -0.0244 -0.4153 -0.5508
 7906SOL    HW231390   0.882   3.976   4.193 -1.9193 -2.5920  0.2190
 7906SOL    HW331391   0.969   4.047   4.294  0.7361 -1.3457 -2.7821
 7906SOL    MW431392   0.893   4.012   4.271 -0.1741 -0.8253 -0.7436
 7907SOL     OW31393   4.057   0.687   6.324 -0.3950 -0.2559 -0.1186
 7907SOL    HW231394   4.006   0.764   6.297 -0.6980 -0.6214 -0.6035
 7907SOL    HW331395   4.146   0.721   6.335 -0.3209 -0.0243 -1.3055
 7907SOL    MW431396   4.062   0.702   6.322 -0.4252 -0.2735 -0.3391
 7908SOL     OW31397   5.038   1.044   6.377 -0.1747 -0.0828 -0.2421
 7908SOL    HW231398   5.014   1.039   6.470  0.9639  1.1382  0.1521
 7908SOL    HW331399   5.079   0.960   6.358  0.3301 -0.0384  0.5938
 7908SOL    MW431400   5.040   1.033   6.387  0.0422  0.0841 -0.0798
 7909SOL     OW31401   4.548   1.263   4.232 -0.2398 -0.3665 -0.1100
 7909SOL    HW231402   4.587   1.284   4.147  1.6990 -0.3568  0.7231
 7909SOL    HW331403   4.622   1.265   4.293 -1.7480  0.7322  1.7849
 7909SOL    MW431404   4.563   1.266   4.229 -0.1830 -0.2203  0.2499
 7910SOL     OW31405   4.105   2.949   1.625 -0.3927  0.6913  0.3095
 7910SOL    HW231406   4.076   2.891   1.554  0.4205 -0.5362  0.9429
 7910SOL    HW331407   4.181   2.995   1.589  0.9145 -0.9794  0.7969
 7910SOL    MW431408   4.111   2.947   1.611 -0.1129  0.3089  0.4573
 7911SOL     OW31409   6.043   6.321   0.784  0.1904 -0.4670 -0.1568
 7911SOL    HW231410   6.037   6.311   0.879 -1.0156 -2.1479 -0.3468
 7911SOL    HW331411   6.122   6.273   0.759  0.2234 -0.4680 -0.0480
 7911SOL    MW431412   6.053   6.313   0.793  0.0356 -0.6889 -0.1675
 7912SOL     OW31413   4.275   2.516   2.467  0.5021 -0.0671  0.1476
 7912SOL    HW231414   4.199   2.573   2.481  0.5074 -0.4688  2.2510
 7912SOL    HW331415   4.238   2.431   2.446  0.4066  0.0747 -0.2532
 7912SOL    MW431416   4.260   2.512   2.466  0.4902 -0.1014  0.3722
 7913SOL     OW31417   1.880   6.390   4.247  0.1579  0.0181  0.0423
 7913SOL    HW231418   1.952   6.426   4.197  0.2249  0.0131  0.1354
 7913SOL    HW331419   1.852   6.461   4.305 -1.1157  0.6472 -1.2786
 7913SOL    MW431420   1.886   6.404   4.248 -0.0013  0.1004 -0.1197
 7914SOL     OW31421   1.109   2.808   0.516  0.7545 -0.1265  0.5441
 7914SOL    HW231422   1.176   2.809   0.448 -0.3965  0.3487 -0.6129
 7914SOL    HW331423   1.106   2.716   0.544  1.9972 -0.1268  0.7658
 7914SOL    MW431424   1.118   2.796   0.511  0.7666 -0.0638  0.4207
 7915SOL     OW31425   3.688   3.230   1.372 -0.1682 -0.3176  0.2804
 7915SOL    HW231426   3.758   3.244   1.437 -0.8386 -1.7546  1.3784
 7915SOL    HW331427   3.695   3.305   1.313  2.4292 -0.5075  0.2185
 7915SOL    MW431428   3.698   3.242   1.373  0.0861 -0.5323  0.4171
 7916SOL     OW31429   3.072   4.259   1.918 -0.1097  0.3575 -0.0710
 7916SOL    HW231430   3.002   4.195   1.912  0.3678 -0.0289 -2.0996
 7916SOL    HW331431   3.148   4.216   1.879  0.8010  1.4074  0.4749
 7916SOL    MW431432   3.073   4.245   1.912  0.0734  0.4450 -0.2666
 7917SOL     OW31433   2.542   1.673   5.932  0.3390 -0.6269  0.1378
 7917SOL    HW231434   2.546   1.660   6.026  2.8725 -1.5241 -0.0217
 7917SOL    HW331435   2.509   1.763   5.921 -0.5484 -0.7156  1.8204
 7917SOL    MW431436   2.538   1.683   5.943  0.5562 -0.7570  0.3387
 7918SOL     OW31437   5.597   4.445   4.734  0.1967  0.0886 -0.3657
 7918SOL    HW231438   5.552   4.437   4.818  0.8716 -0.9361 -0.0762
 7918SOL    HW331439   5.584   4.536   4.708  0.2113  0.5034  0.9953
 7918SOL    MW431440   5.590   4.456   4.742  0.2877  0.0081 -0.1479
 7919SOL     OW31441   0.027   6.371   1.674 -0.6405  0.2344 -0.2965
 7919SOL    HW231442  -0.017   6.439   1.725 -0.4371 -0.0407  0.2524
 7919SOL    HW331443   0.040   6.299   1.736 -1.3242 -0.5094 -1.0048
 7919SOL    MW431444   0.023   6.370   1.689 -0.7039  0.1000 -0.3175
 7920SOL     OW31445   3.313   5.320   5.140 -0.1395 -0.0185  0.5281
 7920SOL    HW231446   3.382   5.386   5.137 -0.9434  0.8988  1.5018
 7920SOL    HW331447   3.233   5.370   5.151 -0.8192 -1.1419  0.8027
 7920SOL    MW431448   3.312   5.335   5.141 -0.3352 -0.0457  0.6928
 7921SOL     OW31449   0.145   3.240   0.745  0.7981  0.7217 -0.2639
 7921SOL    HW231450   0.226   3.196   0.771 -0.1633 -0.5774  0.6620
 7921SOL    HW331451   0.161   3.269   0.655  1.8154 -0.7074 -0.5732
 7921SOL    MW431452   0.158   3.238   0.736  0.8055  0.3617 -0.1825
 7922SOL     OW31453   5.967   3.826   4.981 -0.2113  0.1803  0.2407
 7922SOL    HW231454   5.890   3.790   4.936  0.8865 -0.1502 -1.4252
 7922SOL    HW331455   5.930   3.886   5.046 -1.8779  0.3554 -0.8095
 7922SOL    MW431456   5.952   3.829   4.984 -0.2863  0.1598 -0.1177
 7923SOL     OW31457   0.646   3.103   5.200  0.5631  0.3047 -0.8043
 7923SOL    HW231458   0.647   3.017   5.158 -0.4326  0.0175 -0.2897
 7923SOL    HW331459   0.562   3.106   5.247  0.7051  1.4444 -0.5770
 7923SOL    MW431460   0.635   3.092   5.201  0.4505  0.4172 -0.7064
 7924SOL     OW31461   5.288   2.927   0.219  0.6658 -0.1937  0.9448
 7924SOL    HW231462   5.333   2.846   0.198 -0.7329 -0.8552  0.3365
 7924SOL    HW331463   5.296   2.935   0.314 -0.2191 -1.7224  1.1821
 7924SOL    MW431464   5.295   2.918   0.229  0.3645 -0.4827  0.8959
 7925SOL     OW31465   0.868   6.260   5.324 -0.9604  0.6463  0.1672
 7925SOL    HW231466   0.954   6.241   5.362 -1.5503 -0.3358  1.0821
 7925SOL    HW331467   0.882   6.253   5.229  0.0635  0.9631  0.2785
 7925SOL    MW431468   0.881   6.257   5.317 -0.9031  0.5585  0.3026
 7926SOL     OW31469   2.639   4.906   1.067 -0.3601 -0.5352  0.0543
 7926SOL    HW231470   2.614   4.923   1.158  0.7815 -1.2982  0.5321
 7926SOL    HW331471   2.734   4.899   1.069 -0.3673 -1.2264 -1.0844
 7926SOL    MW431472   2.648   4.907   1.079 -0.2104 -0.7271 -0.0329
 7927SOL     OW31473   0.675   1.337   2.223  0.5932  0.7924 -0.4476
 7927SOL    HW231474   0.665   1.258   2.169 -0.6969  2.2560 -2.5337
 7927SOL    HW331475   0.761   1.372   2.199  0.5598  0.7592 -0.6213
 7927SOL    MW431476   0.685   1.331   2.213  0.4185  0.9812 -0.7458
 7928SOL     OW31477   5.205   1.758   4.856  0.2600  0.1276 -0.6093
 7928SOL    HW231478   5.202   1.695   4.928  0.1275 -0.5594 -1.2076
 7928SOL    HW331479   5.119   1.751   4.815 -0.4640  2.0528  0.4409
 7928SOL    MW431480   5.193   1.749   4.860  0.1470  0.2910 -0.5497
 7929SOL     OW31481   2.295   5.293   4.201  0.3553  0.1873 -0.6568
 7929SOL    HW231482   2.292   5.233   4.127 -0.8044  0.0385 -0.5182
 7929SOL    HW331483   2.284   5.380   4.161 -1.3272  0.0358 -0.6204
 7929SOL    MW431484   2.293   5.297   4.186 -0.0197  0.1477 -0.6337
 7930SOL     OW31485   2.642   4.631   0.780 -0.2200 -0.4517  0.4359
 7930SOL    HW231486   2.589   4.658   0.705 -0.2357  0.4419  0.7518
 7930SOL    HW331487   2.719   4.687   0.776 -0.2296 -0.3829  1.0943
 7930SOL    MW431488   2.645   4.642   0.769 -0.2234 -0.3247  0.5644
 7931SOL     OW31489   0.769   5.368   2.057  0.4600  0.0601 -0.0882
 7931SOL    HW231490   0.819   5.449   2.064 -1.5303  1.3436  0.2264
 7931SOL    HW331491   0.711   5.381   1.982  0.3789 -1.2324 -0.2713
 7931SOL    MW431492   0.768   5.380   2.048  0.1867  0.0589 -0.0709
 7932SOL     OW31493   5.779   0.792   0.657 -0.0397 -0.2500  0.0923
 7932SOL    HW231494   5.744   0.859   0.598 -0.9149  0.7032  1.6539
 7932SOL    HW331495   5.799   0.718   0.599 -3.7048 -0.5203 -1.0923
 7932SOL    MW431496   5.777   0.791   0.641 -0.6387 -0.1599  0.1420
 7933SOL     OW31497   3.619   2.401   3.448  0.3303 -0.5706 -0.0602
 7933SOL    HW231498   3.582   2.394   3.360  1.0664  0.5223 -0.4719
 7933SOL    HW331499   3.562   2.463   3.493  0.3147 -0.6632  0.0497
 7933SOL    MW431500   3.607   2.408   3.442  0.4254 -0.4387 -0.1000
 7934SOL     OW31501   0.538   6.057   4.876  0.1096 -0.1773 -1.1402
 7934SOL    HW231502   0.632   6.057   4.888  0.1542 -1.7818 -1.2430
 7934SOL    HW331503   0.502   6.077   4.963  0.5112  1.9265 -1.4010
 7934SOL    MW431504   0.545   6.060   4.889  0.1684 -0.1115 -1.1882
 7935SOL     OW31505   2.340   2.036   2.572  0.6642 -0.4530  0.6865
 7935SOL    HW231506   2.398   1.973   2.529  0.7035 -0.5767  0.9145
 7935SOL    HW331507   2.399   2.104   2.604  0.8011 -1.0047  1.6695
 7935SOL    MW431508   2.355   2.037   2.571  0.6875 -0.5421  0.8463
 7936SOL     OW31509   5.586   1.765   2.302 -0.5534 -0.9699  0.3909
 7936SOL    HW231510   5.630   1.680   2.303 -1.9528 -1.7604 -0.8053
 7936SOL    HW331511   5.614   1.806   2.221 -0.1737 -0.4304  0.7853
 7936SOL    MW431512   5.595   1.759   2.292 -0.6879 -1.0030  0.2851
 7937SOL     OW31513   4.973   2.217   0.098  0.0481  0.0934  0.3626
 7937SOL    HW231514   4.903   2.162   0.061  0.4613 -1.5271  1.8525
 7937SOL    HW331515   5.042   2.215   0.031  0.0987 -1.3579  0.4246
 7937SOL    MW431516   4.973   2.209   0.084  0.1093 -0.3119  0.5674
 7938SOL     OW31517   6.121   6.363   4.888 -0.3411  0.3664  0.7946
 7938SOL    HW231518   6.084   6.305   4.954 -1.8307  0.1742 -0.1550
 7938SOL    HW331519   6.170   6.305   4.830 -1.0202  0.1755  0.3984
 7938SOL    MW431520   6.123   6.348   4.889 -0.6272  0.3158  0.6170
 7939SOL     OW31521   0.885   0.637   5.724 -0.6317 -0.6180  0.2286
 7939SOL    HW231522   0.917   0.721   5.692 -0.9964 -0.4152  0.3878
 7939SOL    HW331523   0.838   0.599   5.649  0.0214 -0.9410 -0.0219
 7939SOL    MW431524   0.883   0.643   5.710 -0.5937 -0.6339  0.2165
 7940SOL     OW31525   3.569   5.257   4.888 -0.6363 -0.2036  0.2163
 7940SOL    HW231526   3.660   5.247   4.915 -0.3587  0.2430 -0.5093
 7940SOL    HW331527   3.524   5.181   4.924  0.1338 -0.7204  0.1129
 7940SOL    MW431528   3.575   5.246   4.896 -0.4980 -0.2128  0.1069
 7941SOL     OW31529   2.946   4.935   2.707 -0.2317 -0.2171 -0.1445
 7941SOL    HW231530   2.928   4.931   2.801  0.8657 -0.9171  0.0645
 7941SOL    HW331531   2.865   4.967   2.668 -0.8870 -0.4343  0.9826
 7941SOL    MW431532   2.933   4.939   2.715 -0.1734 -0.3381  0.0318
 7942SOL     OW31533   5.325   4.406   5.852 -0.4640  0.5957 -0.2576
 7942SOL    HW231534   5.241   4.392   5.808 -1.2562  0.4627  1.2506
 7942SOL    HW331535   5.366   4.477   5.802 -0.7972 -0.3115 -1.9102
 7942SOL    MW431536   5.319   4.413   5.840 -0.6125  0.4585 -0.2766
 7943SOL     OW31537   3.332   4.113   1.775  0.2322  0.4301  0.2101
 7943SOL    HW231538   3.424   4.142   1.777  0.4583 -0.1085 -1.0951
 7943SOL    HW331539   3.332   4.032   1.827  0.3817  0.7102  0.6544
 7943SOL    MW431540   3.344   4.106   1.782  0.2818  0.3960  0.0965
 7944SOL     OW31541   2.027   5.014   1.515  0.0045 -0.8308  0.4586
 7944SOL    HW231542   1.955   5.050   1.567  0.5044  2.3904 -0.8020
 7944SOL    HW331543   2.102   5.017   1.574  0.0268  0.3399  0.4032
 7944SOL    MW431544   2.028   5.019   1.530  0.0734 -0.2514  0.2850
 7945SOL     OW31545   6.246   0.581   0.228  0.2179 -0.0924 -0.4910
 7945SOL    HW231546   6.341   0.581   0.234  0.2547  0.7349 -0.9308
 7945SOL    HW331547   6.220   0.491   0.251  1.0378 -0.0835  0.5162
 7945SOL    MW431548   6.255   0.569   0.232  0.3309  0.0179 -0.4161
 7946SOL     OW31549   4.899   4.593   2.223  0.3096 -0.1113 -0.1929
 7946SOL    HW231550   4.855   4.512   2.248  0.4654 -0.1744 -0.1212
 7946SOL    HW331551   4.883   4.601   2.129  1.4275 -0.9330 -0.4787
 7946SOL    MW431552   4.891   4.583   2.214  0.4776 -0.2280 -0.2212
 7947SOL     OW31553   4.506   5.109   3.926  0.3224 -0.0032 -0.7779
 7947SOL    HW231554   4.416   5.114   3.892 -0.8907 -0.9091  2.0533
 7947SOL    HW331555   4.515   5.021   3.960  0.7379  1.2454  2.7605
 7947SOL    MW431556   4.495   5.098   3.926  0.2172  0.0420  0.0625
 7948SOL     OW31557   3.279   1.530   3.115  0.1628 -0.0209  0.6417
 7948SOL    HW231558   3.232   1.558   3.194  0.3729 -1.3650  1.2712
 7948SOL    HW331559   3.293   1.436   3.128  2.4270  0.2022  0.1593
 7948SOL    MW431560   3.274   1.521   3.127  0.4892 -0.1688  0.6611
 7949SOL     OW31561   6.352   4.955   3.766 -0.2979 -0.2106  0.2656
 7949SOL    HW231562   6.349   5.032   3.708 -0.3576 -0.7957 -0.5267
 7949SOL    HW331563   6.304   4.983   3.844  1.1585  1.1445  0.7289
 7949SOL    MW431564   6.345   4.969   3.768 -0.1136 -0.1090  0.2222
 7950SOL     OW31565   0.392   6.037   2.380 -0.4710 -0.0008  0.0895
 7950SOL    HW231566   0.328   6.084   2.433  0.5554  0.9026  0.5603
 7950SOL    HW331567   0.403   5.953   2.425 -0.8727  0.0896  0.3574
 7950SOL    MW431568   0.385   6.032   2.393 -0.3886  0.1303  0.1870
 7951SOL     OW31569   2.340   5.357   0.157 -0.2863 -0.0862  0.1902
 7951SOL    HW231570   2.356   5.298   0.084  0.1423  1.8599 -1.3944
 7951SOL    HW331571   2.248   5.382   0.147 -0.4488 -0.4246  0.8116
 7951SOL    MW431572   2.330   5.353   0.146 -0.2512  0.1259  0.0631
 7952SOL     OW31573   0.483   5.724   3.015  0.0331  0.0011  0.0085
 7952SOL    HW231574   0.427   5.649   2.995 -0.5131 -0.2021  2.1217
 7952SOL    HW331575   0.554   5.719   2.950 -0.2165 -2.0848 -0.1691
 7952SOL    MW431576   0.485   5.713   3.004 -0.0719 -0.3009  0.2639
 7953SOL     OW31577   0.786   2.338   5.004 -0.2238 -0.0246  0.2584
 7953SOL    HW231578   0.851   2.303   5.064 -1.0583  1.2775  1.9885
 7953SOL    HW331579   0.836   2.394   4.944  0.4528 -0.3935  0.4702
 7953SOL    MW431580   0.801   2.341   5.004 -0.2447  0.0985  0.5146
 7954SOL     OW31581   1.702   6.401   1.028 -0.2880 -0.4019 -0.2507
 7954SOL    HW231582   1.760   6.431   1.098 -0.2586 -2.5442  0.7046
 7954SOL    HW331583   1.762   6.377   0.957 -0.1345 -0.7877  0.0082
 7954SOL    MW431584   1.718   6.402   1.028 -0.2639 -0.7355 -0.0905
 7955SOL     OW31585   0.669   0.905   0.708 -0.1359 -0.0459  0.7176
 7955SOL    HW231586   0.637   0.952   0.784  0.2180  0.4623  0.5565
 7955SOL    HW331587   0.764   0.910   0.715 -0.1015 -0.2005  0.3705
 7955SOL    MW431588   0.677   0.912   0.719 -0.0847  0.0008  0.6505
 7956SOL     OW31589   4.811   2.407   3.315 -0.0237 -0.1312  0.1628
 7956SOL    HW231590   4.894   2.444   3.346 -0.4165  0.2164  0.8414
 7956SOL    HW331591   4.832   2.318   3.288  0.2002 -0.7955  2.3289
 7956SOL    MW431592   4.824   2.400   3.316 -0.0460 -0.1730  0.5381
 7957SOL     OW31593   2.931   1.235   1.036 -0.2096 -0.0504 -0.2283
 7957SOL    HW231594   2.988   1.160   1.051 -0.4732  0.2285  2.6978
 7957SOL    HW331595   2.872   1.206   0.965  0.6400 -2.0300 -0.1912
 7957SOL    MW431596   2.931   1.221   1.029 -0.1323 -0.2748  0.1627
 7958SOL     OW31597   2.391   4.965   3.737  0.0332 -0.0622  0.1811
 7958SOL    HW231598   2.370   5.020   3.813  0.4872  0.6973 -0.2278
 7958SOL    HW331599   2.315   4.907   3.728  0.3034 -0.6947  1.6640
 7958SOL    MW431600   2.378   4.965   3.746  0.1288 -0.0455  0.3228
 7959SOL     OW31601   2.786   1.209   1.579 -0.0397 -0.0807 -0.0203
 7959SOL    HW231602   2.846   1.249   1.516 -1.8893  2.4939 -0.3060
 7959SOL    HW331603   2.782   1.271   1.652  0.4906 -2.0278  1.7606
 7959SOL    MW431604   2.793   1.222   1.580 -0.2137  0.0021  0.1769
 7960SOL     OW31605   5.936   4.719   1.171 -0.4494  0.0624 -0.2730
 7960SOL    HW231606   5.882   4.734   1.248 -0.6346 -2.2238  0.1088
 7960SOL    HW331607   5.881   4.748   1.098 -0.8953  0.7502  0.3121
 7960SOL    MW431608   5.922   4.725   1.171 -0.5326 -0.1485 -0.1454
 7961SOL     OW31609   3.489   4.326   5.079 -0.2372 -0.5418 -0.2422
 7961SOL    HW231610   3.518   4.301   4.991 -1.5507 -1.6594 -0.3875
 7961SOL    HW331611   3.444   4.409   5.067  1.5549  0.4973 -0.2277
 7961SOL    MW431612   3.487   4.334   5.066 -0.1741 -0.5521 -0.2595
 7962SOL     OW31613   3.802   6.298   4.421 -0.0290 -0.4289 -0.3371
 7962SOL    HW231614   3.715   6.279   4.387  0.9460 -1.0133 -2.6991
 7962SOL    HW331615   3.788   6.367   4.486 -1.9916  1.4416 -2.5823
 7962SOL    MW431616   3.789   6.305   4.425 -0.1593 -0.2592 -0.9449
 7963SOL     OW31617   3.657   5.773   2.561 -0.1554 -0.2064 -0.2387
 7963SOL    HW231618   3.645   5.868   2.553  1.2484 -0.0081 -0.2104
 7963SOL    HW331619   3.644   5.755   2.654  2.1221  0.3955  0.2620
 7963SOL    MW431620   3.654   5.783   2.572  0.3303 -0.1008 -0.1689
 7964SOL     OW31621   0.793   4.096   2.100 -0.6185  0.1345 -0.4659
 7964SOL    HW231622   0.760   4.149   2.173 -0.1870  0.2337 -0.3427
 7964SOL    HW331623   0.779   4.006   2.128 -0.5494  0.1735 -0.3072
 7964SOL    MW431624   0.787   4.092   2.113 -0.5524  0.1528 -0.4287
 7965SOL     OW31625   5.047   3.021   4.287 -0.0484  0.4292 -0.3120
 7965SOL    HW231626   5.121   3.081   4.286 -0.0902  0.4947 -1.4774
 7965SOL    HW331627   4.984   3.060   4.347  0.2567  1.1376 -0.4459
 7965SOL    MW431628   5.048   3.034   4.294 -0.0136  0.5313 -0.4834
 7966SOL     OW31629   3.606   1.395   6.060 -0.1759 -0.0710  0.3389
 7966SOL    HW231630   3.624   1.386   6.154 -0.1344 -0.2355  0.3155
 7966SOL    HW331631   3.571   1.484   6.051 -0.8317 -0.2963  0.6079
 7966SOL    MW431632   3.604   1.406   6.071 -0.2569 -0.1224  0.3713
 7967SOL     OW31633   3.625   3.379   3.813  0.2039  0.9117 -0.0856
 7967SOL    HW231634   3.715   3.409   3.822  0.5943 -0.1721 -0.2639
 7967SOL    HW331635   3.615   3.360   3.720 -0.3458  1.4307 -0.1374
 7967SOL    MW431636   3.635   3.380   3.802  0.1829  0.8371 -0.1160
 7968SOL     OW31637   1.036   2.245   4.713 -0.0531  0.2017  0.2266
 7968SOL    HW231638   1.124   2.273   4.686 -0.7418  1.5439 -0.7564
 7968SOL    HW331639   0.993   2.326   4.740 -0.8337 -0.5109  1.1735
 7968SOL    MW431640   1.042   2.259   4.713 -0.2469  0.2847  0.2218
 7969SOL     OW31641   2.602   2.138   5.192 -0.2615 -0.3048 -0.0362
 7969SOL    HW231642   2.621   2.052   5.153 -3.1971 -0.7849 -0.6245
 7969SOL    HW331643   2.620   2.126   5.285 -0.3798 -1.4761 -0.1461
 7969SOL    MW431644   2.607   2.125   5.199 -0.6644 -0.5227 -0.1283
 7970SOL     OW31645   4.998   0.736   6.090  0.1772 -0.1570  0.6877
 7970SOL    HW231646   5.012   0.828   6.067 -1.0642 -0.1740 -0.1942
 7970SOL    HW331647   4.905   0.722   6.077  0.6426 -2.0488 -1.1633
 7970SOL    MW431648   4.988   0.746   6.085  0.0748 -0.4089  0.3271
 7971SOL     OW31649   1.292   1.236   2.411 -0.2429  0.6986  0.2750
 7971SOL    HW231650   1.356   1.306   2.422  0.0806  0.3503  0.6381
 7971SOL    HW331651   1.236   1.241   2.489 -0.2625  0.5997  0.2679
 7971SOL    MW431652   1.293   1.246   2.423 -0.2028  0.6396  0.3220
 7972SOL     OW31653   4.024   3.277   5.276 -0.3548 -0.1156 -0.3548
 7972SOL    HW231654   3.997   3.339   5.343 -1.2884  0.7029 -1.4595
 7972SOL    HW331655   4.097   3.320   5.232 -0.0214 -0.4651 -0.1475
 7972SOL    MW431656   4.030   3.291   5.279 -0.4340 -0.0537 -0.4732
 7973SOL     OW31657   1.156   1.546   3.605  0.4313 -0.5223 -0.8451
 7973SOL    HW231658   1.181   1.562   3.514 -0.2622 -0.7058 -1.0717
 7973SOL    HW331659   1.224   1.488   3.639  0.9997  0.0000 -1.0788
 7973SOL    MW431660   1.168   1.541   3.598  0.4148 -0.4776 -0.9058
 7974SOL     OW31661   1.569   5.761   5.545 -0.0956 -0.5962  0.7618
 7974SOL    HW231662   1.580   5.682   5.597  0.3361 -1.5772 -0.7533
 7974SOL    HW331663   1.542   5.729   5.458 -0.3501  0.9416  0.2421
 7974SOL    MW431664   1.567   5.746   5.540 -0.0722 -0.5228  0.4933
 7975SOL     OW31665   0.224   4.931   3.825 -0.3027  0.2126  0.5328
 7975SOL    HW231666   0.234   4.896   3.913 -2.5242 -0.1633  0.6913
 7975SOL    HW331667   0.134   4.964   3.822  0.0031  1.0209 -1.3280
 7975SOL    MW431668   0.213   4.931   3.836 -0.5554  0.2697  0.3082
 7976SOL     OW31669   5.811   3.918   4.341 -0.3366  0.1536 -0.0199
 7976SOL    HW231670   5.824   4.010   4.366 -0.5108 -0.1924  1.4291
 7976SOL    HW331671   5.804   3.871   4.424  2.1146 -1.5486 -0.6778
 7976SOL    MW431672   5.812   3.924   4.355 -0.0361 -0.1166  0.0845
 7977SOL     OW31673   5.360   3.428   1.425  0.2594 -0.5822  0.0868
 7977SOL    HW231674   5.428   3.443   1.360 -0.4439  1.3325 -0.2785
 7977SOL    HW331675   5.289   3.387   1.377  0.1092 -0.0542 -0.1446
 7977SOL    MW431676   5.360   3.424   1.410  0.1468 -0.2599  0.0081
 7978SOL     OW31677   1.691   4.765   1.335 -0.2621 -0.4718  0.1769
 7978SOL    HW231678   1.785   4.744   1.330  0.1443  1.0557  0.9066
 7978SOL    HW331679   1.668   4.750   1.426 -0.4543  0.2319  0.2446
 7978SOL    MW431680   1.701   4.760   1.346 -0.2339 -0.1774  0.2821
 7979SOL     OW31681   0.174   3.512   3.595  0.0128 -0.0147 -0.2885
 7979SOL    HW231682   0.228   3.495   3.673 -0.5544 -1.8267 -0.2662
 7979SOL    HW331683   0.142   3.601   3.609  0.5416 -0.0142  1.1755
 7979SOL    MW431684   0.177   3.522   3.607  0.0077 -0.2537 -0.0924
 7980SOL     OW31685   1.146   2.421   1.267  0.3322 -0.1448 -0.3076
 7980SOL    HW231686   1.221   2.445   1.322 -0.0373  2.7114 -0.8768
 7980SOL    HW331687   1.088   2.373   1.326  1.9281 -1.1351  0.5327
 7980SOL    MW431688   1.148   2.418   1.282  0.4940  0.1014 -0.2718
 7981SOL     OW31689   4.752   5.485   5.879 -0.5874 -0.4462 -0.0617
 7981SOL    HW231690   4.823   5.487   5.944 -1.3761 -0.4413  0.8174
 7981SOL    HW331691   4.765   5.564   5.827  0.0710 -0.4627  0.0616
 7981SOL    MW431692   4.763   5.496   5.880 -0.6046 -0.4477  0.0706
 7982SOL     OW31693   6.213   1.682   0.386  0.4227  0.0189  0.4626
 7982SOL    HW231694   6.194   1.701   0.294 -0.6584  1.5122  0.9481
 7982SOL    HW331695   6.244   1.592   0.387  2.3980  0.5788 -1.6158
 7982SOL    MW431696   6.215   1.673   0.374  0.5407  0.2898  0.2524
 7983SOL     OW31697   1.599   6.000   1.851  0.3686 -0.1458  0.0032
 7983SOL    HW231698   1.657   5.957   1.913  1.4114 -0.4289 -1.1292
 7983SOL    HW331699   1.627   5.968   1.765 -2.1862 -1.1909 -0.5400
 7983SOL    MW431700   1.610   5.990   1.848  0.1691 -0.3210 -0.2179
 7984SOL     OW31701   5.944   4.966   4.185  0.3300  0.2094 -0.3335
 7984SOL    HW231702   5.933   5.049   4.138 -2.5345 -0.6843 -1.3996
 7984SOL    HW331703   5.952   4.992   4.277 -1.5510  1.6902 -0.5233
 7984SOL    MW431704   5.944   4.981   4.191 -0.2961  0.2869 -0.4992
 7985SOL     OW31705   3.141   3.216   4.646 -0.0227 -0.8322  0.4106
 7985SOL    HW231706   3.187   3.168   4.715  0.5080 -0.9011  0.0083
 7985SOL    HW331707   3.149   3.308   4.671 -1.1132 -0.9428  1.2290
 7985SOL    MW431708   3.148   3.222   4.658 -0.0965 -0.8559  0.4655
 7986SOL     OW31709   3.259   2.779   4.859 -0.3372 -0.4563  0.0424
 7986SOL    HW231710   3.270   2.746   4.948 -0.2553 -0.6492 -0.0405
 7986SOL    HW331711   3.299   2.866   4.860 -0.0274 -0.5999  0.1002
 7986SOL    MW431712   3.265   2.786   4.871 -0.2855 -0.5007  0.0391
 7987SOL     OW31713   0.321   5.613   4.515 -0.9113 -0.8246 -0.2823
 7987SOL    HW231714   0.361   5.700   4.518 -1.8477 -0.3808  2.5207
 7987SOL    HW331715   0.352   5.575   4.433  2.0047  0.9770 -0.1734
 7987SOL    MW431716   0.331   5.619   4.505 -0.6501 -0.5284  0.1019
 7988SOL     OW31717   2.998   1.767   0.968  0.0950  0.1586 -0.3799
 7988SOL    HW231718   3.028   1.678   0.947  0.5416  0.0270  0.7360
 7988SOL    HW331719   2.958   1.759   1.055  1.2914  1.2724  0.3079
 7988SOL    MW431720   2.997   1.754   0.977  0.3118  0.2882 -0.1419
 7989SOL     OW31721   4.839   0.243   0.251  0.2523 -0.6359  0.2179
 7989SOL    HW231722   4.859   0.317   0.194  0.3885 -1.1914 -0.4775
 7989SOL    HW331723   4.770   0.275   0.309 -1.3040 -0.6082 -1.5415
 7989SOL    MW431724   4.833   0.257   0.251  0.0649 -0.7055 -0.1060
 7990SOL     OW31725   3.235   2.502   0.685  0.5675  0.5593  0.3383
 7990SOL    HW231726   3.303   2.569   0.690  0.4480  0.5866  1.8380
 7990SOL    HW331727   3.185   2.526   0.607  1.7757  0.9934 -0.3483
 7990SOL    MW431728   3.238   2.514   0.675  0.7111  0.6202  0.4456
 7991SOL     OW31729   5.809   5.287   1.092  0.3062  0.1023  0.0008
 7991SOL    HW231730   5.787   5.378   1.071  0.1396 -0.1745 -1.0924
 7991SOL    HW331731   5.897   5.292   1.130 -0.3239  0.8745  1.4130
 7991SOL    MW431732   5.818   5.300   1.094  0.2010  0.1677  0.0429
 7992SOL     OW31733   1.415   5.307   2.325 -0.5265  0.1851 -0.0363
 7992SOL    HW231734   1.461   5.372   2.272  0.0334  0.3312  0.6160
 7992SOL    HW331735   1.362   5.358   2.386  0.1803  0.0478  0.7083
 7992SOL    MW431736   1.414   5.322   2.326 -0.3593  0.1863  0.1480
 7993SOL     OW31737   3.736   2.236   3.109 -0.1180  0.1081  0.1291
 7993SOL    HW231738   3.710   2.237   3.017  1.7674  1.2810 -0.4479
 7993SOL    HW331739   3.736   2.328   3.135  1.2418 -0.0317  0.7113
 7993SOL    MW431740   3.732   2.248   3.100  0.3101  0.2444  0.1298
 7994SOL     OW31741   0.580   1.364   0.527  0.0028  0.5432  0.1591
 7994SOL    HW231742   0.504   1.405   0.567  1.3555  2.1471  1.2413
 7994SOL    HW331743   0.601   1.420   0.452  0.9874  1.0160  0.7653
 7994SOL    MW431744   0.573   1.377   0.523  0.3112  0.8172  0.3818
 7995SOL     OW31745   1.801   4.252   4.232 -0.0185 -0.0166  0.0690
 7995SOL    HW231746   1.794   4.347   4.242 -0.8989 -0.2069  1.5150
 7995SOL    HW331747   1.863   4.225   4.299  0.2220 -0.4728 -0.3281
 7995SOL    MW431748   1.808   4.261   4.242 -0.1030 -0.1019  0.2074
 7996SOL     OW31749   1.517   3.651   5.030  0.1456  0.4899  0.1816
 7996SOL    HW231750   1.535   3.727   4.975 -0.6522 -0.3134 -1.2502
 7996SOL    HW331751   1.448   3.679   5.090  0.4541  1.1341  0.2404
 7996SOL    MW431752   1.510   3.665   5.031  0.0811  0.4689  0.0005
 7997SOL     OW31753   1.056   6.307   4.054 -0.3777 -0.5731  0.4352
 7997SOL    HW231754   0.996   6.296   4.128 -1.7814 -1.0827 -0.7335
 7997SOL    HW331755   1.063   6.220   4.016  3.0689 -1.1044  1.9219
 7997SOL    MW431756   1.049   6.294   4.059 -0.1082 -0.7104  0.4772
 7998SOL     OW31757   6.250   6.186   3.679 -0.6474  0.2014  0.0641
 7998SOL    HW231758   6.156   6.196   3.662 -0.2639  0.2008 -2.5155
 7998SOL    HW331759   6.291   6.192   3.592  1.5034 -2.4347  0.7534
 7998SOL    MW431760   6.243   6.188   3.665 -0.3130 -0.1465 -0.1853
 7999SOL     OW31761   3.109   4.744   0.412  0.6990 -0.8930 -0.9511
 7999SOL    HW231762   3.015   4.728   0.419  1.1267 -3.0951  1.0243
 7999SOL    HW331763   3.150   4.661   0.437  3.1914  0.3577 -0.5059
 7999SOL    MW431764   3.102   4.731   0.416  1.0843 -1.0185 -0.6318
 8000SOL     OW31765   4.491   5.801   4.140  0.1346  0.0278  0.3191
 8000SOL    HW231766   4.446   5.717   4.140  1.0191 -0.5256 -2.3083
 8000SOL    HW331767   4.442   5.855   4.203 -0.3344 -2.4459  2.2213
 8000SOL    MW431768   4.478   5.797   4.148  0.1895 -0.3716  0.2234
 8001SOL     OW31769   1.729   6.318   1.620 -0.2702  0.4256  0.7618
 8001SOL    HW231770   1.824   6.319   1.613 -0.2937 -1.7591 -0.5583
 8001SOL    HW331771   1.711   6.316   1.714  0.8317  3.6223  1.1778
 8001SOL    MW431772   1.739   6.318   1.632 -0.1279  0.5591  0.6425
 8002SOL     OW31773   0.900   2.981   5.364  0.3593  0.4249 -0.2875
 8002SOL    HW231774   0.983   3.026   5.380  0.2412  0.3254  0.6808
 8002SOL    HW331775   0.837   3.052   5.347  0.6500  0.4948 -1.1456
 8002SOL    MW431776   0.903   2.997   5.364  0.3821  0.4210 -0.2730
 8003SOL     OW31777   0.844   3.194   4.494 -0.3636 -0.3509 -0.4086
 8003SOL    HW231778   0.897   3.262   4.451 -0.5288 -0.0949 -0.2124
 8003SOL    HW331779   0.896   3.114   4.485  0.3795  0.0313  0.3931
 8003SOL    MW431780   0.858   3.193   4.487 -0.2874 -0.2667 -0.2770
 8004SOL     OW31781   5.914   0.775   6.031  0.2003 -0.0115  0.1232
 8004SOL    HW231782   5.842   0.764   5.969 -0.8215 -1.3525  1.4915
 8004SOL    HW331783   5.872   0.777   6.117  1.8559 -2.2900  1.0854
 8004SOL    MW431784   5.899   0.774   6.034  0.2839 -0.4890  0.4307
 8005SOL     OW31785   5.621   4.368   1.765  0.2745  0.0350 -0.0927
 8005SOL    HW231786   5.557   4.434   1.790 -0.5405 -1.2171  1.2130
 8005SOL    HW331787   5.573   4.306   1.710  0.3894 -0.8149  0.7400
 8005SOL    MW431788   5.607   4.369   1.761  0.1822 -0.2423  0.1895
 8006SOL     OW31789   0.462   5.972   3.598  0.6854  0.1485 -0.0809
 8006SOL    HW231790   0.380   5.926   3.576  0.2746  1.0614 -0.5188
 8006SOL    HW331791   0.528   5.903   3.600 -0.0078 -0.5401 -0.2171
 8006SOL    MW431792   0.460   5.957   3.595  0.5397  0.1781 -0.1566
 8007SOL     OW31793   1.100   5.054   2.787 -0.1960 -0.3660  0.0743
 8007SOL    HW231794   1.117   5.077   2.695  2.5444 -1.3119  0.2309
 8007SOL    HW331795   1.065   4.965   2.782 -2.1169  0.3559 -0.0972
 8007SOL    MW431796   1.098   5.045   2.774 -0.0879 -0.3955  0.0724
 8008SOL     OW31797   3.681   2.134   5.591 -0.7739 -0.5553  0.0745
 8008SOL    HW231798   3.631   2.159   5.514  1.0072  1.4403 -0.5460
 8008SOL    HW331799   3.676   2.211   5.649  1.8397 -0.0722 -0.2237
 8008SOL    MW431800   3.674   2.147   5.589 -0.1941 -0.2283 -0.0467
 8009SOL     OW31801   3.508   3.119   4.424 -0.4366 -0.5002  0.2334
 8009SOL    HW231802   3.501   3.023   4.426 -1.3581 -0.5073 -1.3756
 8009SOL    HW331803   3.602   3.136   4.420 -0.2903 -1.3901 -0.5750
 8009SOL    MW431804   3.520   3.108   4.424 -0.5389 -0.6185 -0.0856
 8010SOL     OW31805   6.103   5.747   2.598 -0.1968 -0.1557 -0.4802
 8010SOL    HW231806   6.154   5.806   2.543 -0.2593 -1.0332 -1.5046
 8010SOL    HW331807   6.167   5.685   2.632  0.1220  1.2818  1.7516
 8010SOL    MW431808   6.118   5.747   2.595 -0.1630 -0.0818 -0.3209
 8011SOL     OW31809   0.740   4.358   5.306  0.4934  0.4352  0.1566
 8011SOL    HW231810   0.654   4.379   5.343 -0.0285 -0.3035 -0.6122
 8011SOL    HW331811   0.802   4.410   5.359 -0.5082  1.8975 -0.0390
 8011SOL    MW431812   0.737   4.368   5.318  0.2924  0.5307  0.0294
 8012SOL     OW31813   5.663   0.046   0.562  0.0803 -0.2508  0.4746
 8012SOL    HW231814   5.667   0.140   0.542 -1.1319 -0.1802  0.5139
 8012SOL    HW331815   5.711   0.038   0.645 -0.3705  0.4358  0.8104
 8012SOL    MW431816   5.670   0.058   0.570 -0.1391 -0.1509  0.5241
 8013SOL     OW31817   1.398   2.016   2.527  0.4775 -0.0187 -0.4291
 8013SOL    HW231818   1.305   1.992   2.520  0.6509 -0.4415 -1.4019
 8013SOL    HW331819   1.397   2.102   2.570 -0.1721 -1.5444  3.0216
 8013SOL    MW431820   1.385   2.024   2.532  0.4147 -0.2758 -0.1022
 8014SOL     OW31821   1.929   4.050   3.550 -0.1853 -0.3156 -0.3170
 8014SOL    HW231822   1.944   3.956   3.538 -0.9593 -0.8139  1.9215
 8014SOL    HW331823   1.834   4.059   3.543 -0.1464  0.2335 -0.1436
 8014SOL    MW431824   1.918   4.039   3.548 -0.2823 -0.3089  0.0012
 8015SOL     OW31825   1.507   3.596   4.617  0.1192 -0.1715  0.3452
 8015SOL    HW231826   1.471   3.595   4.529 -0.7415  0.1759  0.6802
 8015SOL    HW331827   1.602   3.594   4.605  0.1374  2.6043 -0.6803
 8015SOL    MW431828   1.515   3.595   4.604  0.0081  0.2405  0.2541
 8016SOL     OW31829   2.320   0.392   3.427  0.1927  0.4724  0.7143
 8016SOL    HW231830   2.332   0.349   3.512 -1.4912  1.1723  1.3364
 8016SOL    HW331831   2.269   0.329   3.375  0.0720  0.5991  0.6792
 8016SOL    MW431832   2.315   0.378   3.431 -0.0454  0.5814  0.7917
 8017SOL     OW31833   4.084   3.382   4.168  0.2775  0.3439 -0.1074
 8017SOL    HW231834   4.174   3.403   4.144  0.1622  1.1797  0.1650
 8017SOL    HW331835   4.033   3.456   4.135 -0.3421 -0.2320 -0.4603
 8017SOL    MW431836   4.089   3.395   4.160  0.1805  0.3782 -0.1180
 8018SOL     OW31837   1.507   3.981   1.439  0.2021  0.3121  0.0195
 8018SOL    HW231838   1.447   3.987   1.513 -1.4341  1.5828 -1.3529
 8018SOL    HW331839   1.481   3.900   1.394  1.6773 -0.8564  1.1801
 8018SOL    MW431840   1.496   3.971   1.443  0.1808  0.3256 -0.0085
 8019SOL     OW31841   4.704   4.154   0.620 -0.0799 -0.4610  0.7262
 8019SOL    HW231842   4.769   4.142   0.551  0.7556  3.4179  0.6535
 8019SOL    HW331843   4.699   4.068   0.662  3.2837 -1.5810 -0.7764
 8019SOL    MW431844   4.712   4.141   0.616  0.4741 -0.0970  0.5183
 8020SOL     OW31845   4.383   5.211   4.416  0.0956 -0.6725  0.7540
 8020SOL    HW231846   4.352   5.297   4.390  0.3870 -0.3567  1.4216
 8020SOL    HW331847   4.304   5.160   4.431 -0.0853 -0.9614 -1.0076
 8020SOL    MW431848   4.369   5.215   4.415  0.1102 -0.6690  0.6096
 8021SOL     OW31849   0.646   0.945   5.477  0.0528  0.3610  0.1776
 8021SOL    HW231850   0.588   1.011   5.438  0.7954  0.1745 -1.3370
 8021SOL    HW331851   0.636   0.957   5.571 -2.2035  0.5228 -0.0317
 8021SOL    MW431852   0.637   0.955   5.484 -0.1469  0.3577 -0.0499
 8022SOL     OW31853   1.973   3.776   3.450  0.2430 -0.0886 -0.5419
 8022SOL    HW231854   1.962   3.763   3.544 -0.6140 -1.6005 -0.8142
 8022SOL    HW331855   2.065   3.757   3.434  0.0127 -1.5907 -0.2309
 8022SOL    MW431856   1.984   3.772   3.461  0.0996 -0.4863 -0.5368
 8023SOL     OW31857   5.237   2.690   6.211  0.2741  0.1947  0.2344
 8023SOL    HW231858   5.246   2.609   6.160 -2.1104  0.0353 -0.0458
 8023SOL    HW331859   5.201   2.661   6.295 -2.6501  1.0518 -0.6022
 8023SOL    MW431860   5.234   2.675   6.216 -0.4263  0.2867  0.0870
 8024SOL     OW31861   1.139   2.007   4.591 -0.1491 -0.4206 -0.1219
 8024SOL    HW231862   1.138   2.009   4.686  0.4238  0.4686 -0.1220
 8024SOL    HW331863   1.149   1.915   4.569 -0.5473 -0.6597  0.6723
 8024SOL    MW431864   1.140   1.995   4.600 -0.1260 -0.3348 -0.0172
 8025SOL     OW31865   5.431   3.128   4.529  0.4278  0.1061 -0.0287
 8025SOL    HW231866   5.440   3.217   4.496 -1.0818  0.4335  0.3375
 8025SOL    HW331867   5.460   3.132   4.620  2.0976 -0.2123 -0.5165
 8025SOL    MW431868   5.436   3.140   4.536  0.4489  0.1073 -0.0447
 8026SOL     OW31869   3.769   2.249   4.474 -0.1310  0.1988 -0.3857
 8026SOL    HW231870   3.712   2.224   4.547  2.3248 -1.5991  1.0771
 8026SOL    HW331871   3.774   2.171   4.420  0.4996  0.5309 -0.8158
 8026SOL    MW431872   3.762   2.236   4.477  0.2762  0.0054 -0.2495
 8027SOL     OW31873   1.319   1.854   0.884  0.0252 -0.0604 -0.4566
 8027SOL    HW231874   1.390   1.799   0.917  0.7674  1.0202 -0.2213
 8027SOL    HW331875   1.243   1.830   0.938  0.5823 -0.1659  0.2980
 8027SOL    MW431876   1.318   1.843   0.896  0.1966  0.0683 -0.3260
 8028SOL     OW31877   3.605   1.360   2.236 -0.1727 -0.0738 -0.4181
 8028SOL    HW231878   3.541   1.430   2.224  1.1821  1.5503  1.0675
 8028SOL    HW331879   3.555   1.279   2.229 -1.5350  0.9171 -3.8490
 8028SOL    MW431880   3.590   1.359   2.234 -0.1737  0.2712 -0.6748
 8029SOL     OW31881   5.381   1.032   5.488  0.3639  0.5211  0.0933
 8029SOL    HW231882   5.459   1.039   5.433  0.2811  0.3803 -0.0455
 8029SOL    HW331883   5.395   1.095   5.558  0.5550  0.5718  0.0112
 8029SOL    MW431884   5.393   1.041   5.490  0.3782  0.5092  0.0641
 8030SOL     OW31885   4.101   3.678   2.434 -0.0784 -0.3036 -0.1643
 8030SOL    HW231886   4.123   3.606   2.375  1.8062  0.1037 -0.0193
 8030SOL    HW331887   4.061   3.744   2.377  0.1134 -0.6220 -0.6736
 8030SOL    MW431888   4.098   3.677   2.418  0.1956 -0.2919 -0.2123
 8031SOL     OW31889   5.993   1.255   1.753  0.4482  0.1850 -0.3548
 8031SOL    HW231890   6.085   1.230   1.744  0.8328  0.0046  2.9591
 8031SOL    HW331891   5.995   1.349   1.768  0.1810  0.0662  0.4650
 8031SOL    MW431892   6.005   1.264   1.754  0.4637  0.1455  0.1906
 8032SOL     OW31893   3.360   5.501   3.697 -0.1488 -0.3078  0.2485
 8032SOL    HW231894   3.319   5.425   3.738 -1.1722 -0.3385 -0.7744
 8032SOL    HW331895   3.327   5.576   3.746  1.6837 -0.5140  1.9521
 8032SOL    MW431896   3.350   5.501   3.709 -0.0421 -0.3391  0.3383
 8033SOL     OW31897   0.635   2.912   5.570  0.1022  0.1367 -0.3333
 8033SOL    HW231898   0.598   2.824   5.582 -1.9562  1.0975  0.7034
 8033SOL    HW331899   0.709   2.898   5.510  1.5889 -2.7159  1.8631
 8033SOL    MW431900   0.640   2.898   5.564  0.0268 -0.1129  0.0933
 8034SOL     OW31901   0.237   4.254   4.075  0.3850  0.5862  0.2313
 8034SOL    HW231902   0.329   4.249   4.047  1.0948  2.6595  1.9356
 8034SOL    HW331903   0.196   4.313   4.012  0.2397 -0.1642 -0.3978
 8034SOL    MW431904   0.244   4.261   4.063  0.4595  0.7607  0.3732
 8035SOL     OW31905   2.412   3.693   0.743  0.0438 -0.4855  0.6969
 8035SOL    HW231906   2.320   3.682   0.768 -0.2355  1.0335  0.3993
 8035SOL    HW331907   2.413   3.679   0.649 -0.4023  2.1719  0.2259
 8035SOL    MW431908   2.400   3.690   0.734 -0.0519  0.0655  0.5955
 8036SOL     OW31909   5.788   1.382   5.550  0.0765  0.1799  0.2525
 8036SOL    HW231910   5.729   1.457   5.563  0.8866  0.8290  0.2724
 8036SOL    HW331911   5.780   1.331   5.631 -2.8682 -1.5173 -0.9480
 8036SOL    MW431912   5.779   1.386   5.563 -0.2051  0.0416  0.0968
 8037SOL     OW31913   5.159   4.546   5.351  0.0122 -0.1956  0.0693
 8037SOL    HW231914   5.074   4.503   5.347  0.6340 -1.3927 -0.9617
 8037SOL    HW331915   5.217   4.482   5.392  0.9182 -0.2905 -1.3078
 8037SOL    MW431916   5.156   4.532   5.356  0.2138 -0.3661 -0.2484
 8038SOL     OW31917   1.445   2.629   0.492 -0.1237 -0.5062 -0.1778
 8038SOL    HW231918   1.424   2.582   0.412 -1.3362  0.8260 -0.6951
 8038SOL    HW331919   1.467   2.717   0.462  0.9994 -0.4243  0.8384
 8038SOL    MW431920   1.445   2.635   0.478 -0.1355 -0.3196 -0.1120
 8039SOL     OW31921   2.942   3.220   5.216  0.6254 -0.2792 -0.2411
 8039SOL    HW231922   2.874   3.173   5.263 -0.5768  0.9601 -0.6862
 8039SOL    HW331923   2.958   3.168   5.138  0.1027 -0.5088 -0.1988
 8039SOL    MW431924   2.935   3.207   5.212  0.3978 -0.1460 -0.2942
 8040SOL     OW31925   5.217   6.304   6.126 -0.4738 -0.0983  0.4298
 8040SOL    HW231926   5.177   6.280   6.209 -1.0136  2.4292  0.9941
 8040SOL    HW331927   5.298   6.253   6.123 -0.3099 -0.0795  2.6450
 8040SOL    MW431928   5.223   6.294   6.137 -0.5234  0.2377  0.7965
 8041SOL     OW31929   3.707   4.733   3.649 -0.3505 -0.2813 -0.3948
 8041SOL    HW231930   3.784   4.761   3.698 -0.1777 -1.2405 -0.1024
 8041SOL    HW331931   3.700   4.796   3.577  1.3739 -0.8358 -1.0783
 8041SOL    MW431932   3.716   4.745   3.646 -0.1002 -0.4810 -0.4464
 8042SOL     OW31933   0.740   1.800   1.949 -0.3070 -0.1828  0.4730
 8042SOL    HW231934   0.733   1.708   1.924 -1.6702 -0.1874  0.8086
 8042SOL    HW331935   0.797   1.800   2.026 -0.5297 -0.7829  0.6424
 8042SOL    MW431936   0.747   1.788   1.956 -0.5162 -0.2626  0.5396
 8043SOL     OW31937   2.771   2.216   3.645 -0.3008  0.4184  0.2082
 8043SOL    HW231938   2.784   2.310   3.629 -0.6019  0.2023 -1.4741
 8043SOL    HW331939   2.750   2.211   3.738  0.3027  1.9552  0.4717
 8043SOL    MW431940   2.770   2.228   3.655 -0.2609  0.5927  0.0210
 8044SOL     OW31941   2.774   5.071   1.895  0.2214 -0.1612 -0.2470
 8044SOL    HW231942   2.776   4.979   1.924 -1.8311 -0.2171 -0.1265
 8044SOL    HW331943   2.839   5.075   1.824  0.4634 -1.6765 -0.1490
 8044SOL    MW431944   2.783   5.059   1.889 -0.0175 -0.3685 -0.2182
 8045SOL     OW31945   5.691   1.909   2.958  0.1171 -0.1295 -0.0110
 8045SOL    HW231946   5.602   1.876   2.955 -0.8336  2.0291  1.4919
 8045SOL    HW331947   5.686   1.994   2.914  1.8750 -0.7653 -1.5385
 8045SOL    MW431948   5.679   1.916   2.952  0.2236  0.0714 -0.0143
 8046SOL     OW31949   2.398   5.724   2.712  0.2773 -0.1585 -0.3547
 8046SOL    HW231950   2.329   5.750   2.650  0.5287  0.1950 -0.4877
 8046SOL    HW331951   2.356   5.732   2.798  0.0686 -0.2067 -0.4498
 8046SOL    MW431952   2.383   5.729   2.715  0.2830 -0.1182 -0.3848
 8047SOL     OW31953   1.479   1.640   5.214  0.4823 -0.0521  0.9223
 8047SOL    HW231954   1.551   1.703   5.210  0.7670 -0.4187 -0.2188
 8047SOL    HW331955   1.511   1.564   5.165 -0.4895 -0.4119  0.8143
 8047SOL    MW431956   1.493   1.638   5.207  0.3916 -0.1479  0.7575
 8048SOL     OW31957   5.840   2.121   4.863  0.4177  0.2818  0.4246
 8048SOL    HW231958   5.837   2.037   4.909  1.0697  0.2537  0.4196
 8048SOL    HW331959   5.924   2.120   4.817  0.6748  1.1578  0.8595
 8048SOL    MW431960   5.851   2.110   4.863  0.5376  0.3937  0.4813
 8049SOL     OW31961   5.668   1.815   1.111 -0.4105 -0.3910  0.0913
 8049SOL    HW231962   5.737   1.827   1.046 -0.3902 -1.4628 -0.1056
 8049SOL    HW331963   5.587   1.812   1.060 -0.2320 -3.3588 -0.2001
 8049SOL    MW431964   5.666   1.816   1.096 -0.3843 -0.9240  0.0269
 8050SOL     OW31965   3.793   6.404   4.086  0.7929  0.7391  0.0610
 8050SOL    HW231966   3.707   6.388   4.126  1.4964  0.8285  1.7104
 8050SOL    HW331967   3.829   6.477   4.137  2.1208  0.2420 -0.1287
 8050SOL    MW431968   3.786   6.411   4.098  1.0609  0.6853  0.2536
 8051SOL     OW31969   4.926   0.072   2.013  0.2108 -0.1773 -0.2600
 8051SOL    HW231970   4.975  -0.009   2.024  1.7729  0.5907 -1.1434
 8051SOL    HW331971   4.928   0.090   1.919 -1.3299  0.1829 -0.2547
 8051SOL    MW431972   4.933   0.064   2.002  0.2136 -0.0284 -0.3759
 8052SOL     OW31973   6.200   0.132   3.310 -0.0363  0.4243  0.6174
 8052SOL    HW231974   6.161   0.045   3.310  0.1569  0.3336  0.1736
 8052SOL    HW331975   6.212   0.153   3.217 -2.3541  1.9702  0.5909
 8052SOL    MW431976   6.197   0.123   3.298 -0.3166  0.6163  0.5553
 8053SOL     OW31977   2.916   3.910   1.746 -0.3054 -0.3806 -0.5338
 8053SOL    HW231978   2.871   3.828   1.767  0.4461 -1.0345 -1.4060
 8053SOL    HW331979   2.952   3.897   1.659  0.9522  0.3872 -0.1688
 8053SOL    MW431980   2.915   3.898   1.737 -0.0403 -0.3656 -0.6007
 8054SOL     OW31981   1.871   1.563   4.027 -0.4107  0.4208 -0.2665
 8054SOL    HW231982   1.794   1.545   3.973  0.2197 -0.0769 -1.0195
 8054SOL    HW331983   1.890   1.656   4.011  0.2101  0.0918 -1.4878
 8054SOL    MW431984   1.863   1.573   4.018 -0.2456  0.3117 -0.5270
 8055SOL     OW31985   1.380   1.578   5.500 -0.2139  0.1560  0.4132
 8055SOL    HW231986   1.296   1.620   5.515  1.2266  3.0581  1.1034
 8055SOL    HW331987   1.407   1.609   5.413 -0.3674 -1.7877 -0.3820
 8055SOL    MW431988   1.373   1.587   5.490 -0.0441  0.2824  0.3994
 8056SOL     OW31989   5.612   1.282   4.374 -0.0542 -0.5427  0.5469
 8056SOL    HW231990   5.678   1.351   4.374 -0.0057 -0.5612  2.0418
 8056SOL    HW331991   5.530   1.327   4.354  0.1395 -0.2379  0.4402
 8056SOL    MW431992   5.610   1.297   4.371 -0.0222 -0.5049  0.7300
 8057SOL     OW31993   6.384   0.380   5.328 -0.1681  0.1040  0.6645
 8057SOL    HW231994   6.402   0.418   5.414  0.8806  1.1115  0.0289
 8057SOL    HW331995   6.327   0.444   5.285 -0.2990 -0.1675  0.4278
 8057SOL    MW431996   6.378   0.394   5.333 -0.0470  0.2011  0.5494
 8058SOL     OW31997   4.444   0.832   2.355 -0.4874  0.1909  0.7185
 8058SOL    HW231998   4.487   0.904   2.401 -0.0724  0.1193  0.4414
 8058SOL    HW331999   4.514   0.770   2.337 -0.2626  1.0562 -1.6719
 8058SOL    MW432000   4.459   0.834   2.359 -0.4030  0.2956  0.3665
 8059SOL     OW32001   3.623   3.939   2.859  0.6427  0.3416  0.2112
 8059SOL    HW232002   3.655   3.852   2.880  0.7010  0.1616 -0.5998
 8059SOL    HW332003   3.698   3.997   2.876  0.1630  0.4478  2.1747
 8059SOL    MW432004   3.637   3.935   2.864  0.5871  0.3319  0.3633
 8060SOL     OW32005   3.993   3.250   4.909 -0.5489 -0.0205  0.0324
 8060SOL    HW232006   4.083   3.219   4.913 -0.7634 -0.9416 -1.6824
 8060SOL    HW332007   3.940   3.171   4.901 -1.4569  0.5567  0.1752
 8060SOL    MW432008   3.998   3.236   4.909 -0.6970 -0.0659 -0.1750
 8061SOL     OW32009   5.993   3.392   2.638  0.2034 -0.0049  0.2856
 8061SOL    HW232010   6.054   3.369   2.567  0.2736 -0.2952  0.4361
 8061SOL    HW332011   6.012   3.483   2.658  1.5654 -0.4751  1.2877
 8061SOL    MW432012   6.003   3.401   2.631  0.3924 -0.1053  0.4377
 8062SOL     OW32013   0.986   3.792   6.194  0.2140 -0.0684  0.0776
 8062SOL    HW232014   1.013   3.774   6.104  0.9448 -0.1783  0.3121
 8062SOL    HW332015   0.987   3.706   6.237  0.9134  0.1236  0.4609
 8062SOL    MW432016   0.990   3.778   6.188  0.4027 -0.0575  0.1591
 8063SOL     OW32017   2.518   6.047   4.682  0.5088  0.3878  0.0996
 8063SOL    HW232018   2.517   6.067   4.589  2.4263 -0.1075 -0.0753
 8063SOL    HW332019   2.471   6.119   4.723  1.5592  1.8090 -1.0772
 8063SOL    MW432020   2.512   6.059   4.675  0.9004  0.5100 -0.0787
 8064SOL     OW32021   5.178   3.236   4.608 -0.5672  0.0521  0.2173
 8064SOL    HW232022   5.253   3.185   4.576 -0.0543  1.4295 -0.8751
 8064SOL    HW332023   5.215   3.322   4.628 -1.7347  0.5314  0.3537
 8064SOL    MW432024   5.193   3.240   4.606 -0.6535  0.2971  0.0912
 8065SOL     OW32025   4.258   0.692   5.254 -0.3103 -0.3415  0.0652
 8065SOL    HW232026   4.345   0.728   5.241  0.0981 -0.9796  0.9469
 8065SOL    HW332027   4.199   0.766   5.237  0.4581  0.4500  0.7297
 8065SOL    MW432028   4.261   0.707   5.250 -0.1550 -0.3212  0.2692
 8066SOL     OW32029   2.841   0.646   0.737 -0.1743 -0.1265  0.6857
 8066SOL    HW232030   2.754   0.625   0.703 -0.6932  1.2787  1.0850
 8066SOL    HW332031   2.824   0.703   0.812  1.0435 -1.0639  1.7341
 8066SOL    MW432032   2.827   0.650   0.742 -0.0821 -0.0648  0.8767
 8067SOL     OW32033   5.791   0.955   0.893  0.0623  0.1100 -0.5459
 8067SOL    HW232034   5.796   0.886   0.827 -2.8484 -2.4461  1.5808
 8067SOL    HW332035   5.700   0.985   0.890 -0.2957 -0.3828  2.4352
 8067SOL    MW432036   5.780   0.950   0.884 -0.3690 -0.2923  0.1280
 8068SOL     OW32037   1.358   0.372   2.116 -0.1397 -0.2237 -0.0625
 8068SOL    HW232038   1.263   0.371   2.105 -0.1014  1.0749 -0.7621
 8068SOL    HW332039   1.376   0.455   2.159  0.5594 -1.2068  1.6302
 8068SOL    MW432040   1.348   0.383   2.120 -0.0424 -0.1821  0.0685
 8069SOL     OW32041   4.710   0.517   4.041  0.1354 -0.5534  0.1316
 8069SOL    HW232042   4.702   0.612   4.043 -0.3697 -0.5883 -0.0178
 8069SOL    HW332043   4.631   0.485   4.086  0.1150 -0.9037 -0.1446
 8069SOL    MW432044   4.698   0.525   4.047  0.0660 -0.6042  0.0754
 8070SOL     OW32045   5.941   1.529   0.521 -0.2115  0.0232 -0.4129
 8070SOL    HW232046   5.935   1.528   0.617 -0.5594 -0.3864 -0.4397
 8070SOL    HW332047   6.007   1.462   0.501 -0.6343 -0.3657 -0.4981
 8070SOL    MW432048   5.949   1.520   0.531 -0.3132 -0.0822 -0.4277
 8071SOL     OW32049   6.024   0.741   4.742 -0.3522 -0.0424  0.1159
 8071SOL    HW232050   5.966   0.793   4.798  0.9148  0.7269  0.7617
 8071SOL    HW332051   6.059   0.673   4.800  0.3340  0.2630  0.0762
 8071SOL    MW432052   6.021   0.739   4.757 -0.0945  0.0994  0.1959
 8072SOL     OW32053   1.015   4.914   5.142 -0.3076 -0.6914 -0.5771
 8072SOL    HW232054   1.017   4.821   5.165  0.3336 -0.6232 -0.3222
 8072SOL    HW332055   1.001   4.915   5.048  0.1989 -1.0651 -0.6622
 8072SOL    MW432056   1.014   4.902   5.133 -0.1562 -0.7317 -0.5547
 8073SOL     OW32057   5.984   1.372   5.353 -0.4235  0.1141  0.2547
 8073SOL    HW232058   5.918   1.381   5.422  1.0003 -1.4362  1.9349
 8073SOL    HW332059   6.044   1.305   5.386 -1.7652 -3.8069 -4.1025
 8073SOL    MW432060   5.983   1.364   5.366 -0.4126 -0.6078 -0.0985
 8074SOL     OW32061   0.576   3.206   5.978  0.2649 -0.0001  0.1640
 8074SOL    HW232062   0.488   3.244   5.970  1.2115  2.3531  0.2035
 8074SOL    HW332063   0.608   3.239   6.062  2.0545  1.1622 -0.9181
 8074SOL    MW432064   0.569   3.215   5.988  0.6259  0.4637  0.0264
 8075SOL     OW32065   2.454   5.624   0.217  0.0591 -0.0783 -0.1749
 8075SOL    HW232066   2.398   5.616   0.294 -0.2220  0.4894 -0.3155
 8075SOL    HW332067   2.443   5.541   0.171 -1.6416  0.4698 -0.8368
 8075SOL    MW432068   2.445   5.612   0.221 -0.2024  0.0689 -0.2808
 8076SOL     OW32069   5.130   6.139   2.617 -0.1837 -0.3922  0.9415
 8076SOL    HW232070   5.108   6.086   2.693 -1.5841 -0.3717  0.5832
 8076SOL    HW332071   5.104   6.085   2.542  1.1944 -0.4223  0.4623
 8076SOL    MW432072   5.124   6.125   2.617 -0.1866 -0.3935  0.8310
 8077SOL     OW32073   0.526   4.628   4.259  0.6497  0.3595 -0.1548
 8077SOL    HW232074   0.546   4.718   4.285  1.3168  0.8896 -2.3286
 8077SOL    HW332075   0.610   4.591   4.231  0.0132 -0.1754 -1.4507
 8077SOL    MW432076   0.540   4.635   4.259  0.6537  0.3589 -0.6126
 8078SOL     OW32077   5.549   2.542   6.434  0.0062 -0.2942 -0.0255
 8078SOL    HW232078   5.459   2.509   6.442  0.3166 -0.8991  1.1976
 8078SOL    HW332079   5.600   2.488   6.495  0.7809  1.5921  1.0804
 8078SOL    MW432080   5.544   2.530   6.443  0.1493 -0.1251  0.2818
 8079SOL     OW32081   4.727   0.784   1.163 -0.5227 -0.9890 -0.6199
 8079SOL    HW232082   4.646   0.734   1.165 -0.9363 -0.3381 -0.9586
 8079SOL    HW332083   4.703   0.869   1.127 -0.1101 -0.0294  1.2245
 8079SOL    MW432084   4.713   0.789   1.159 -0.5229 -0.7765 -0.4212
 8080SOL     OW32085   0.893   0.022   3.869  0.1202  0.7173  0.0206
 8080SOL    HW232086   0.941   0.031   3.787 -1.7530  1.0502 -1.0994
 8080SOL    HW332087   0.946  -0.039   3.921  2.8688  2.7413 -0.1961
 8080SOL    MW432088   0.906   0.015   3.865  0.2357  1.0282 -0.1558
 8081SOL     OW32089   4.141   0.454   5.353  0.7641 -0.0861  0.4824
 8081SOL    HW232090   4.176   0.534   5.313  1.6667  0.5794  2.4366
 8081SOL    HW332091   4.119   0.481   5.442 -0.7258 -1.5870  0.5970
 8081SOL    MW432092   4.143   0.468   5.360  0.6866 -0.1963  0.7554
 8082SOL     OW32093   3.329   1.048   0.614 -0.8958 -0.1683  0.2226
 8082SOL    HW232094   3.302   1.074   0.702 -0.8427  1.9051 -0.3214
 8082SOL    HW332095   3.386   0.973   0.628  0.2886  0.9993  2.1111
 8082SOL    MW432096   3.333   1.042   0.628 -0.7325  0.2593  0.4000
 8083SOL     OW32097   1.203   3.377   3.782  0.2569  0.3921 -0.9225
 8083SOL    HW232098   1.272   3.313   3.798 -0.6726 -0.7611 -1.3675
 8083SOL    HW332099   1.149   3.338   3.712 -0.8840  1.2102 -0.5359
 8083SOL    MW432100   1.205   3.363   3.775 -0.0163  0.3479 -0.9302
 8084SOL     OW32101   1.937   5.779   0.455 -0.1548  0.6287  0.0403
 8084SOL    HW232102   1.947   5.757   0.547 -1.9818  1.2981  0.4358
 8084SOL    HW332103   1.974   5.867   0.447 -0.8101  0.9429  0.3553
 8084SOL    MW432104   1.943   5.788   0.466 -0.4823  0.7585  0.1341
 8085SOL     OW32105   1.119   5.935   5.204  0.2237 -0.4416  0.0203
 8085SOL    HW232106   1.085   5.868   5.145 -0.8320 -1.8402  2.0790
 8085SOL    HW332107   1.100   5.901   5.292  1.3973  1.6879  1.1771
 8085SOL    MW432108   1.112   5.922   5.208  0.2392 -0.3451  0.4446
 8086SOL     OW32109   2.957   4.340   5.456  0.6502 -0.0309  0.1102
 8086SOL    HW232110   2.970   4.251   5.490 -0.7645 -0.1528  0.3976
 8086SOL    HW332111   2.938   4.327   5.363  0.3184 -0.0390  0.1791
 8086SOL    MW432112   2.957   4.326   5.448  0.4198 -0.0480  0.1572
 8087SOL     OW32113   1.107   0.661   3.413  0.4725  0.5266  0.0501
 8087SOL    HW232114   1.077   0.571   3.400  0.8410  0.2412  1.0375
 8087SOL    HW332115   1.164   0.656   3.490 -0.3668  1.7931  0.7973
 8087SOL    MW432116   1.111   0.648   3.421  0.4104  0.6561  0.2790
 8088SOL     OW32117   0.958   0.429   3.315 -0.7393 -0.6010  0.0222
 8088SOL    HW232118   1.012   0.373   3.260  0.2138  0.3419 -0.0257
 8088SOL    HW332119   0.945   0.378   3.396  1.2987 -0.3577  0.5492
 8088SOL    MW432120   0.963   0.414   3.319 -0.3446 -0.4445  0.0854
 8089SOL     OW32121   6.208   3.153   1.834  0.4417  0.1764  0.2978
 8089SOL    HW232122   6.230   3.183   1.922 -0.3371  0.4987  0.3949
 8089SOL    HW332123   6.173   3.231   1.791  0.4164 -0.0841 -0.1571
 8089SOL    MW432124   6.206   3.168   1.840  0.3356  0.1846  0.2506
 8090SOL     OW32125   2.561   0.216   3.420 -0.3858  0.2975 -0.2328
 8090SOL    HW232126   2.641   0.216   3.368 -0.0070  0.5942  0.3286
 8090SOL    HW332127   2.502   0.275   3.374  0.2918  1.3270  0.1623
 8090SOL    MW432128   2.564   0.224   3.407 -0.2464  0.4724 -0.1066
 8091SOL     OW32129   4.150   1.911   1.817  0.5435 -0.2210  0.0775
 8091SOL    HW232130   4.136   1.908   1.722 -0.5488  0.1675  0.2103
 8091SOL    HW332131   4.084   1.973   1.848 -0.0940 -1.4663  1.2666
 8091SOL    MW432132   4.139   1.919   1.808  0.3153 -0.3341  0.2519
 8092SOL     OW32133   2.055   0.009   4.690 -0.0926 -0.4513  0.3391
 8092SOL    HW232134   2.101   0.036   4.610 -0.0192  0.6167  0.7180
 8092SOL    HW332135   2.016   0.090   4.723 -0.9060 -1.0505  0.8887
 8092SOL    MW432136   2.056   0.024   4.683 -0.1902 -0.3895  0.4616
 8093SOL     OW32137   3.161   6.261   3.496 -0.0505 -0.7303 -0.3729
 8093SOL    HW232138   3.118   6.345   3.507 -0.1305 -0.5301 -2.0019
 8093SOL    HW332139   3.212   6.250   3.577  1.5940  1.8546 -0.9389
 8093SOL    MW432140   3.162   6.271   3.508  0.1559 -0.3628 -0.6625
 8094SOL     OW32141   4.491   0.645   1.203  0.3984  0.2861 -0.0552
 8094SOL    HW232142   4.431   0.603   1.264  0.1671  0.2798 -0.2870
 8094SOL    HW332143   4.533   0.573   1.157  0.1794  0.3041 -0.2826
 8094SOL    MW432144   4.489   0.630   1.205  0.3390  0.2876 -0.1158
 8095SOL     OW32145   5.468   4.697   5.473  0.1216  0.2975 -0.4314
 8095SOL    HW232146   5.432   4.786   5.467  0.6739  0.4557 -2.1266
 8095SOL    HW332147   5.559   4.709   5.499  0.2958  0.2840 -1.0024
 8095SOL    MW432148   5.475   4.710   5.475  0.2175  0.3166 -0.7304
 8096SOL     OW32149   0.408   1.816   3.741  0.1845  0.3262  0.0323
 8096SOL    HW232150   0.323   1.777   3.720 -0.8581  1.2301  2.2803
 8096SOL    HW332151   0.442   1.761   3.812  0.5906  1.0906  0.4348
 8096SOL    MW432152   0.401   1.804   3.747  0.1005  0.5463  0.3820
 8097SOL     OW32153   3.806   2.904   2.555 -0.0110  0.3775 -0.0154
 8097SOL    HW232154   3.763   2.864   2.631  2.0695  0.4610  1.2901
 8097SOL    HW332155   3.899   2.896   2.573  0.5370  1.8947 -1.8014
 8097SOL    MW432156   3.813   2.898   2.568  0.3358  0.5887 -0.0788
 8098SOL     OW32157   0.861   6.026   2.113 -0.7048 -0.4595 -0.3872
 8098SOL    HW232158   0.892   6.115   2.102 -0.2251 -0.2571  2.0817
 8098SOL    HW332159   0.929   5.971   2.073 -1.2141  0.2155 -2.3163
 8098SOL    MW432160   0.874   6.030   2.106 -0.7087 -0.3438 -0.3160
 8099SOL     OW32161   0.937   0.184   0.459 -0.2511 -0.1970  0.3361
 8099SOL    HW232162   0.858   0.137   0.485 -0.1953 -0.1551  0.5795
 8099SOL    HW332163   0.936   0.264   0.511  0.0249 -0.2613  0.4399
 8099SOL    MW432164   0.927   0.189   0.469 -0.2073 -0.2000  0.3819
 8100SOL     OW32165   0.506   6.345   0.667  0.2526  0.1738 -0.4359
 8100SOL    HW232166   0.419   6.343   0.706  0.9491 -0.6955  1.1772
 8100SOL    HW332167   0.512   6.431   0.624 -1.9857 -0.4074 -2.0956
 8100SOL    MW432168   0.495   6.356   0.666  0.0492 -0.0176 -0.4421
 8101SOL     OW32169   1.836   0.890   5.400  0.8058  0.4287 -0.3963
 8101SOL    HW232170   1.842   0.817   5.339 -0.4015  0.2837 -0.3708
 8101SOL    HW332171   1.748   0.924   5.387  1.0461  1.3218  0.2311
 8101SOL    MW432172   1.825   0.885   5.390  0.6782  0.5274 -0.3101
 8102SOL     OW32173   0.779   3.905   6.320  0.3672  0.2092  0.7750
 8102SOL    HW232174   0.734   3.827   6.352 -1.0333  0.8600  0.4881
 8102SOL    HW332175   0.854   3.872   6.271 -0.0075 -0.9328  0.9515
 8102SOL    MW432176   0.783   3.890   6.318  0.1330  0.1444  0.7604
 8103SOL     OW32177   4.382   5.256   2.982 -0.2982 -0.0636 -0.1639
 8103SOL    HW232178   4.449   5.258   3.051  0.0763 -1.6938 -0.4304
 8103SOL    HW332179   4.433   5.253   2.901 -0.6506 -1.6926 -0.3565
 8103SOL    MW432180   4.398   5.256   2.980 -0.2953 -0.4936 -0.2245
 8104SOL     OW32181   3.329   1.130   5.990 -0.1426 -0.4816  0.1067
 8104SOL    HW232182   3.303   1.079   5.913 -2.1747  0.6382 -0.0015
 8104SOL    HW332183   3.284   1.088   6.063  3.2039 -2.6966  1.1397
 8104SOL    MW432184   3.320   1.117   5.990  0.0308 -0.6261  0.2287
 8105SOL     OW32185   2.385   1.599   1.700  0.0765 -0.0528  0.3146
 8105SOL    HW232186   2.356   1.564   1.784  0.4478 -0.0988  0.4280
 8105SOL    HW332187   2.436   1.528   1.660 -1.8233 -0.8110 -0.9033
 8105SOL    MW432188   2.388   1.585   1.706 -0.1252 -0.1589  0.1689
 8106SOL     OW32189   4.338   2.816   5.899 -0.4123 -0.0948  0.0531
 8106SOL    HW232190   4.363   2.733   5.939 -1.5684 -0.6836 -0.3984
 8106SOL    HW332191   4.331   2.797   5.806  3.2942  1.5126 -0.7477
 8106SOL    MW432192   4.340   2.802   5.892 -0.0758  0.0396 -0.1122
 8107SOL     OW32193   4.640   5.465   4.496  0.1040  0.1366  0.0172
 8107SOL    HW232194   4.655   5.395   4.560  0.2838  0.5684  0.4517
 8107SOL    HW332195   4.664   5.426   4.412 -0.8180 -0.6713  0.1078
 8107SOL    MW432196   4.645   5.451   4.493  0.0061  0.0870  0.0865
 8108SOL     OW32197   1.917   5.826   5.935  0.2984 -0.4370 -0.3658
 8108SOL    HW232198   1.823   5.840   5.938  0.5267  1.1175  0.2180
 8108SOL    HW332199   1.927   5.731   5.940 -1.1564 -0.5437  1.6984
 8108SOL    MW432200   1.906   5.815   5.936  0.1365 -0.2460 -0.0165
 8109SOL     OW32201   0.800   1.322   3.093 -0.5027  0.0311  0.0643
 8109SOL    HW232202   0.817   1.338   3.000 -0.1151  1.0667  0.3029
 8109SOL    HW332203   0.806   1.227   3.103  0.3740 -0.0084 -0.7890
 8109SOL    MW432204   0.803   1.311   3.082 -0.3359  0.1626 -0.0168
 8110SOL     OW32205   5.473   6.414   2.015 -0.9853 -0.4171  0.0411
 8110SOL    HW232206   5.450   6.506   2.023 -2.0508 -0.5991 -0.7444
 8110SOL    HW332207   5.567   6.415   1.995 -0.8857  0.4641  0.5083
 8110SOL    MW432208   5.483   6.426   2.013 -1.1127 -0.3248 -0.0009
 8111SOL     OW32209   6.215   5.192   1.996 -0.1650  0.7346 -0.1606
 8111SOL    HW232210   6.282   5.242   2.042  1.9201 -2.3324  0.5099
 8111SOL    HW332211   6.149   5.172   2.063 -0.0009  0.9553  0.0652
 8111SOL    MW432212   6.215   5.196   2.011  0.1318  0.3591 -0.0424
 8112SOL     OW32213   0.710   4.997   2.198 -0.5074 -0.5080 -0.0178
 8112SOL    HW232214   0.694   4.969   2.108  0.5589  1.2248 -0.7956
 8112SOL    HW332215   0.673   5.085   2.204  0.2352 -0.2348  0.9440
 8112SOL    MW432216   0.703   5.005   2.187 -0.2688 -0.2434  0.0065
 8113SOL     OW32217   4.639   2.667   2.534 -0.2013 -0.1089  0.2291
 8113SOL    HW232218   4.556   2.715   2.540 -0.6693 -0.7917 -0.6573
 8113SOL    HW332219   4.613   2.577   2.517  0.7318 -0.3151 -0.1289
 8113SOL    MW432220   4.625   2.662   2.533 -0.1400 -0.2262  0.0649
 8114SOL     OW32221   2.247   1.781   5.443 -0.0932 -0.5607 -0.1508
 8114SOL    HW232222   2.205   1.860   5.476 -0.5703  0.3374 -2.6937
 8114SOL    HW332223   2.325   1.771   5.497 -1.0229  0.5327  1.4662
 8114SOL    MW432224   2.252   1.790   5.454 -0.2788 -0.2980 -0.2730
 8115SOL     OW32225   0.504   5.131   5.102 -0.1728 -0.4886 -0.5077
 8115SOL    HW232226   0.595   5.101   5.106  0.0125 -0.0181 -1.1057
 8115SOL    HW332227   0.456   5.057   5.065  0.1813 -0.2867 -1.3950
 8115SOL    MW432228   0.510   5.117   5.098 -0.1016 -0.3999 -0.7036
 8116SOL     OW32229   5.470   5.871   4.781  0.4031 -0.3081  0.5157
 8116SOL    HW232230   5.564   5.875   4.797  0.6319 -2.5566  0.0417
 8116SOL    HW332231   5.458   5.915   4.697  1.2446 -1.1323 -0.0589
 8116SOL    MW432232   5.481   5.877   4.772  0.5443 -0.7135  0.3773
 8117SOL     OW32233   5.891   6.216   5.646 -0.1191  0.1958 -0.0085
 8117SOL    HW232234   5.980   6.224   5.612 -0.9655  1.5994 -2.1007
 8117SOL    HW332235   5.861   6.306   5.656 -1.2267 -0.2528  0.8955
 8117SOL    MW432236   5.899   6.229   5.643 -0.3769  0.3218 -0.1653
 8118SOL     OW32237   2.260   1.130   4.768 -0.1682  0.2203  0.1301
 8118SOL    HW232238   2.244   1.217   4.733 -1.6668  0.3435  1.0192
 8118SOL    HW332239   2.196   1.074   4.724  0.1464 -0.2490  0.2564
 8118SOL    MW432240   2.249   1.134   4.758 -0.3244  0.1746  0.2641
 8119SOL     OW32241   6.383   2.130   4.253  0.0872  0.1440 -0.5583
 8119SOL    HW232242   6.469   2.092   4.237  0.5472  0.5572  0.7850
 8119SOL    HW332243   6.332   2.109   4.175  1.0300 -1.1619 -0.8419
 8119SOL    MW432244   6.388   2.122   4.240  0.2723  0.0262 -0.4185
 8120SOL     OW32245   1.592   5.148   4.081 -0.5522  0.3912 -0.3095
 8120SOL    HW232246   1.553   5.064   4.104 -0.3368  0.0166 -1.2285
 8120SOL    HW332247   1.543   5.212   4.132 -0.0206 -0.3768  1.2067
 8120SOL    MW432248   1.580   5.145   4.091 -0.4536  0.2405 -0.2307
 8121SOL     OW32249   5.718   0.534   3.093 -0.1104 -0.1015 -0.4724
 8121SOL    HW232250   5.661   0.456   3.095 -1.0378  0.5606 -0.3766
 8121SOL    HW332251   5.727   0.559   3.184 -2.4949  1.7572 -0.6318
 8121SOL    MW432252   5.711   0.527   3.105 -0.5473  0.2311 -0.4808
 8122SOL     OW32253   1.585   2.598   4.579  0.5199 -0.1592 -0.1429
 8122SOL    HW232254   1.586   2.643   4.494 -1.0617 -1.0099 -0.6468
 8122SOL    HW332255   1.604   2.667   4.643 -2.5598  1.4662 -0.7973
 8122SOL    MW432256   1.588   2.613   4.576 -0.0951 -0.0570 -0.2957
 8123SOL     OW32257   6.280   0.473   4.463  0.6137 -0.1485 -0.1951
 8123SOL    HW232258   6.242   0.488   4.377  1.2346  1.6381 -0.2086
 8123SOL    HW332259   6.214   0.505   4.524  0.7927 -0.0047 -0.0764
 8123SOL    MW432260   6.266   0.479   4.460  0.7193  0.1062 -0.1812
 8124SOL     OW32261   3.991   3.504   3.239 -0.1914  0.6358 -0.1225
 8124SOL    HW232262   3.914   3.471   3.194 -1.3404  2.0808  0.7060
 8124SOL    HW332263   3.989   3.462   3.325 -0.4553  1.1761  0.1438
 8124SOL    MW432264   3.981   3.494   3.244 -0.3778  0.8977  0.0219
 8125SOL     OW32265   5.621   2.493   1.508  0.2833  0.1559 -0.1405
 8125SOL    HW232266   5.621   2.569   1.449  0.2918  0.4945  0.2914
 8125SOL    HW332267   5.602   2.419   1.451  0.4375  0.4616 -0.5955
 8125SOL    MW432268   5.618   2.494   1.493  0.3048  0.2409 -0.1436
 8126SOL     OW32269   1.746   3.550   1.830  0.2714  0.3546  0.6603
 8126SOL    HW232270   1.837   3.565   1.854  0.0606  1.2793  0.9079
 8126SOL    HW332271   1.712   3.636   1.808 -0.0121 -0.2213 -1.3824
 8126SOL    MW432272   1.754   3.563   1.830  0.2062  0.4006  0.4235
 8127SOL     OW32273   5.719   4.032   6.339 -0.5776 -0.1942 -0.2573
 8127SOL    HW232274   5.688   4.117   6.370  4.2197  1.3231  1.2756
 8127SOL    HW332275   5.704   3.973   6.413 -3.1585 -0.5956 -1.0181
 8127SOL    MW432276   5.713   4.035   6.353 -0.2852 -0.0470 -0.1554
 8128SOL     OW32277   4.184   1.534   5.453 -0.0576 -0.2141  0.1374
 8128SOL    HW232278   4.240   1.470   5.497  1.0407  1.4340  1.2722
 8128SOL    HW332279   4.245   1.602   5.424 -1.4812  2.1836  2.3795
 8128SOL    MW432280   4.200   1.535   5.455 -0.1005  0.3197  0.5830
 8129SOL     OW32281   2.432   1.457   2.557 -0.0812 -0.2145 -0.9906
 8129SOL    HW232282   2.389   1.394   2.500  1.0190 -0.3417 -1.7036
 8129SOL    HW332283   2.389   1.446   2.642 -0.1541 -1.6741 -1.1903
 8129SOL    MW432284   2.421   1.447   2.561  0.0543 -0.4238 -1.1110
 8130SOL     OW32285   4.014   5.822   1.739  0.4435  0.0088  0.5229
 8130SOL    HW232286   4.063   5.742   1.717  0.2027  0.3032 -1.2338
 8130SOL    HW332287   3.934   5.816   1.688  0.6563  1.6103 -0.0715
 8130SOL    MW432288   4.010   5.811   1.729  0.4398  0.2590  0.2127
 8131SOL     OW32289   3.246   3.493   0.960 -0.1128  0.0934  0.1306
 8131SOL    HW232290   3.172   3.435   0.945  0.0505  0.0921 -0.7274
 8131SOL    HW332291   3.277   3.471   1.048  0.4118 -1.6531 -0.4585
 8131SOL    MW432292   3.240   3.483   0.970 -0.0220 -0.1372 -0.0603
 8132SOL     OW32293   4.924   2.942   5.655 -0.2536 -0.5672  0.0718
 8132SOL    HW232294   4.886   2.855   5.655  1.9604 -1.6275 -0.7687
 8132SOL    HW332295   4.855   2.999   5.688 -2.6640 -2.2106 -1.8281
 8132SOL    MW432296   4.910   2.938   5.660 -0.2795 -0.9239 -0.2897
 8133SOL     OW32297   1.169   3.649   2.780  0.0554  0.0049  0.0277
 8133SOL    HW232298   1.182   3.694   2.696 -3.0788  2.6895  0.7830
 8133SOL    HW332299   1.227   3.696   2.841  2.0750 -1.7284 -0.4196
 8133SOL    MW432300   1.179   3.661   2.777 -0.0917  0.1304  0.0683
 8134SOL     OW32301   4.188   1.309   0.829 -0.1624 -0.2773  0.0049
 8134SOL    HW232302   4.224   1.331   0.743  1.6691 -1.0920  0.5164
 8134SOL    HW332303   4.120   1.245   0.810 -0.6465  0.4830 -0.9176
 8134SOL    MW432304   4.184   1.303   0.815  0.0154 -0.2845 -0.0493
 8135SOL     OW32305   5.662   2.754   5.121 -0.1500  0.0487  0.5445
 8135SOL    HW232306   5.677   2.844   5.091  0.4895 -0.2184  0.0526
 8135SOL    HW332307   5.682   2.699   5.045  1.3668 -0.6391  1.4029
 8135SOL    MW432308   5.667   2.759   5.107  0.1345 -0.0773  0.5929
 8136SOL     OW32309   3.235   5.008   3.783  0.0747 -0.6166  0.1301
 8136SOL    HW232310   3.246   4.979   3.874  0.2849 -0.7148  0.0749
 8136SOL    HW332311   3.141   4.999   3.767 -0.3185  1.4177  1.0002
 8136SOL    MW432312   3.224   5.003   3.793  0.0505 -0.3611  0.2376
 8137SOL     OW32313   5.754   1.976   3.217 -0.0773 -0.5608  0.0920
 8137SOL    HW232314   5.760   1.880   3.222  0.9855 -0.4819  0.4734
 8137SOL    HW332315   5.723   1.994   3.128 -1.0482 -1.2841  0.2671
 8137SOL    MW432316   5.751   1.966   3.206 -0.0651 -0.6458  0.1654
 8138SOL     OW32317   3.674   2.409   0.739 -0.8550  0.0825  0.4613
 8138SOL    HW232318   3.631   2.426   0.823  1.7128  0.2032  1.8451
 8138SOL    HW332319   3.738   2.339   0.758 -1.0860 -0.8115 -1.7180
 8138SOL    MW432320   3.677   2.402   0.753 -0.5467 -0.0195  0.3564
 8139SOL     OW32321   3.858   6.208   3.905 -0.6065  0.5006 -0.2611
 8139SOL    HW232322   3.856   6.274   3.974  2.2336  0.1311  0.2933
 8139SOL    HW332323   3.869   6.125   3.951 -0.0860  0.1041 -1.0651
 8139SOL    MW432324   3.859   6.206   3.920 -0.1631  0.3995 -0.2940
 8140SOL     OW32325   0.663   2.374   2.023  0.2973  0.4059  0.0047
 8140SOL    HW232326   0.730   2.375   2.091  0.5570  0.9685 -0.2539
 8140SOL    HW332327   0.580   2.374   2.072  0.4767  1.3595  0.3369
 8140SOL    MW432328   0.661   2.375   2.039  0.3553  0.6060  0.0144
 8141SOL     OW32329   1.869   4.759   0.600 -0.0008  0.0892 -0.4635
 8141SOL    HW232330   1.814   4.828   0.565 -1.0987  0.4926  1.8578
 8141SOL    HW332331   1.930   4.804   0.658 -0.0982 -0.7551  0.3259
 8141SOL    MW432332   1.870   4.774   0.603 -0.1585  0.0310 -0.0531
 8142SOL     OW32333   4.857   0.695   4.896 -0.0481  0.0919  0.3833
 8142SOL    HW232334   4.882   0.645   4.818 -0.0341  2.3229 -1.1355
 8142SOL    HW332335   4.932   0.751   4.914 -0.9587  1.3146  0.5103
 8142SOL    MW432336   4.870   0.696   4.888 -0.1664  0.5476  0.1997
 8143SOL     OW32337   2.033   3.515   1.267 -0.1081 -0.4609  0.3888
 8143SOL    HW232338   2.109   3.457   1.263  0.1470 -0.0896 -3.4876
 8143SOL    HW332339   2.062   3.588   1.322  1.9655 -0.8442 -0.1156
 8143SOL    MW432340   2.047   3.517   1.274  0.1991 -0.4625 -0.1892
 8144SOL     OW32341   6.020   4.464   1.253  0.0833 -0.4193  0.5963
 8144SOL    HW232342   6.113   4.447   1.243  0.0085 -1.3624  1.3581
 8144SOL    HW332343   6.009   4.555   1.225  1.0568 -0.5948 -0.4409
 8144SOL    MW432344   6.031   4.474   1.248  0.2019 -0.5669  0.5599
 8145SOL     OW32345   0.904   6.122   6.023 -0.2549  0.2416 -0.3206
 8145SOL    HW232346   0.905   6.215   6.003 -0.2762  0.3520  0.1873
 8145SOL    HW332347   0.938   6.116   6.112 -0.3021 -0.2314 -0.3313
 8145SOL    MW432348   0.908   6.133   6.032 -0.2640  0.1938 -0.2550
 8146SOL     OW32349   1.476   0.718   2.723 -0.3015  0.1097  0.1458
 8146SOL    HW232350   1.462   0.668   2.804 -0.5191  0.6980  0.4742
 8146SOL    HW332351   1.568   0.704   2.702  0.0034  0.7311  1.0224
 8146SOL    MW432352   1.486   0.709   2.731 -0.2900  0.2693  0.3048
 8147SOL     OW32353   2.373   4.652   3.816 -0.3723 -0.1452  0.1957
 8147SOL    HW232354   2.355   4.703   3.896  0.1962  0.1631  0.1346
 8147SOL    HW332355   2.445   4.594   3.841  0.6973  0.8644 -0.4495
 8147SOL    MW432356   2.380   4.651   3.830 -0.1562  0.0286  0.1025
 8148SOL     OW32357   0.119   6.412   2.946 -0.2820  0.1425 -0.3838
 8148SOL    HW232358   0.070   6.413   3.028  0.5748  1.6146  0.1385
 8148SOL    HW332359   0.193   6.471   2.961  1.1976 -1.3352 -1.4257
 8148SOL    MW432360   0.122   6.420   2.959  0.0262  0.1418 -0.4523
 8149SOL     OW32361   1.092   2.758   5.532  0.1622  0.1742 -0.1377
 8149SOL    HW232362   1.033   2.828   5.504 -0.2172  0.4616  1.3100
 8149SOL    HW332363   1.170   2.804   5.563 -0.5254  0.0646  1.8811
 8149SOL    MW432364   1.095   2.773   5.533  0.0214  0.1977  0.3197
 8150SOL     OW32365   1.310   1.416   1.421 -0.5837  0.7278  0.1508
 8150SOL    HW232366   1.384   1.471   1.398 -1.1292  0.8053 -1.5732
 8150SOL    HW332367   1.315   1.406   1.516  2.1388 -0.0012  0.0111
 8150SOL    MW432368   1.320   1.422   1.431 -0.2965  0.6418 -0.0951
 8151SOL     OW32369   4.210   1.261   2.532  0.1773 -0.2746 -0.4419
 8151SOL    HW232370   4.182   1.350   2.557  1.8990  0.2321 -0.1691
 8151SOL    HW332371   4.260   1.230   2.607 -1.6325 -2.1106  0.0763
 8151SOL    MW432372   4.213   1.269   2.545  0.1656 -0.4500 -0.3376
 8152SOL     OW32373   1.377   2.699   4.921 -0.5845 -0.0773  1.0089
 8152SOL    HW232374   1.359   2.717   5.013  0.0606 -0.1032  1.1503
 8152SOL    HW332375   1.300   2.731   4.874 -1.5102 -1.2866  1.6625
 8152SOL    MW432376   1.365   2.705   4.927 -0.6215 -0.2403  1.1138
 8153SOL     OW32377   4.523   6.367   3.762  0.3659 -0.0863  0.2263
 8153SOL    HW232378   4.440   6.320   3.757  0.4563 -0.2183 -0.0527
 8153SOL    HW332379   4.499   6.460   3.761  0.2127 -0.1249  0.3244
 8153SOL    MW432380   4.509   6.373   3.761  0.3576 -0.1088  0.2024
 8154SOL     OW32381   6.096   3.905   0.730 -0.5164 -0.0943  0.6384
 8154SOL    HW232382   6.153   3.876   0.659 -0.3627  0.4359  0.5396
 8154SOL    HW332383   6.149   3.893   0.809 -0.3105  0.2740  0.5596
 8154SOL    MW432384   6.110   3.900   0.731 -0.4689  0.0243  0.6150
 8155SOL     OW32385   1.065   2.769   0.135  0.3542  0.1481 -0.3068
 8155SOL    HW232386   0.972   2.766   0.158  0.4888  1.2179  0.4545
 8155SOL    HW332387   1.092   2.677   0.132 -0.7327 -0.1744 -0.5811
 8155SOL    MW432388   1.056   2.757   0.138  0.2285  0.2467 -0.2426
 8156SOL     OW32389   2.387   4.837   6.290 -0.0170 -0.2657 -0.1978
 8156SOL    HW232390   2.357   4.749   6.315  0.6267 -0.3784  0.2059
 8156SOL    HW332391   2.373   4.841   6.196  1.2196 -1.3256 -0.4653
 8156SOL    MW432392   2.381   4.826   6.281  0.2311 -0.4204 -0.1798
 8157SOL     OW32393   6.126   1.575   2.688  0.1037 -0.2085  0.2616
 8157SOL    HW232394   6.120   1.645   2.623  0.1198  0.2867  0.7853
 8157SOL    HW332395   6.146   1.620   2.770 -1.1867 -0.6837  0.8761
 8157SOL    MW432396   6.128   1.591   2.690 -0.0645 -0.2058  0.4118
 8158SOL     OW32397   2.933   0.932   5.815 -0.1886  0.4757  0.0555
 8158SOL    HW232398   2.892   1.016   5.833 -0.3141  0.7686 -1.5003
 8158SOL    HW332399   2.860   0.870   5.811 -0.1266  0.3354  0.8453
 8158SOL    MW432400   2.918   0.935   5.817 -0.1969  0.4958 -0.0456
 8159SOL     OW32401   5.858   0.650   2.892  0.3113  0.1628 -0.0645
 8159SOL    HW232402   5.809   0.616   2.967  0.3724 -2.7105 -1.2226
 8159SOL    HW332403   5.827   0.740   2.882 -1.7407 -0.2774  1.6940
 8159SOL    MW432404   5.848   0.658   2.901  0.0486 -0.2744  0.0147
 8160SOL     OW32405   0.520   4.432   5.459 -0.9348  0.4377  0.7050
 8160SOL    HW232406   0.435   4.389   5.467 -0.7655  0.2625  1.6596
 8160SOL    HW332407   0.566   4.411   5.540 -0.2767  1.1838  0.5449
 8160SOL    MW432408   0.515   4.424   5.471 -0.8256  0.5130  0.8098
 8161SOL     OW32409   2.445   1.447   2.166 -0.2623  0.2176 -0.6684
 8161SOL    HW232410   2.405   1.487   2.244  1.1749 -0.6485  0.5664
 8161SOL    HW332411   2.523   1.500   2.151  0.1986 -0.4651 -0.6766
 8161SOL    MW432412   2.450   1.459   2.175 -0.0119  0.0133 -0.5065
 8162SOL     OW32413   5.680   0.302   5.559 -0.1032  0.4390  0.3144
 8162SOL    HW232414   5.742   0.348   5.502  1.2479 -0.8691  0.6761
 8162SOL    HW332415   5.618   0.370   5.587  1.0666  1.7536 -0.1817
 8162SOL    MW432416   5.680   0.317   5.555  0.2294  0.4398  0.2967
 8163SOL     OW32417   2.539   0.781   4.631 -0.4954 -0.5486  0.1215
 8163SOL    HW232418   2.609   0.764   4.693  1.5048 -0.5377 -2.0097
 8163SOL    HW332419   2.532   0.876   4.627  0.5497 -0.4945 -0.8541
 8163SOL    MW432420   2.547   0.791   4.639 -0.0936 -0.5400 -0.2884
 8164SOL     OW32421   5.381   3.482   5.215  0.3559 -0.3007  0.2176
 8164SOL    HW232422   5.434   3.497   5.293  2.5961 -2.2023 -0.8292
 8164SOL    HW332423   5.368   3.387   5.212 -0.2023 -0.2138 -1.3827
 8164SOL    MW432424   5.386   3.471   5.225  0.5779 -0.5402 -0.1316
 8165SOL     OW32425   4.916   5.523   3.720 -0.2463  0.5392  0.1869
 8165SOL    HW232426   4.894   5.512   3.812  0.1213 -0.4384  0.1644
 8165SOL    HW332427   4.911   5.618   3.706 -4.0147  0.5153  0.2658
 8165SOL    MW432428   4.912   5.534   3.730 -0.6950  0.4071  0.1943
 8166SOL     OW32429   6.404   2.686   5.896 -0.3474 -0.3024 -0.1294
 8166SOL    HW232430   6.459   2.699   5.973 -1.6070 -0.2413  0.7938
 8166SOL    HW332431   6.421   2.595   5.870  1.7649  0.3271 -1.1907
 8166SOL    MW432432   6.414   2.676   5.903 -0.2349 -0.2113 -0.1476
 8167SOL     OW32433   4.040   2.214   4.484 -0.1300  0.5772 -0.3433
 8167SOL    HW232434   3.950   2.238   4.505  0.5217  0.7879  2.6264
 8167SOL    HW332435   4.063   2.146   4.547  1.8054  0.5919 -0.9443
 8167SOL    MW432436   4.032   2.208   4.495  0.2113  0.6069 -0.0307
 8168SOL     OW32437   3.461   6.019   5.879  0.7870  0.6993 -0.2808
 8168SOL    HW232438   3.550   6.048   5.897  0.1513  2.4064  0.3447
 8168SOL    HW332439   3.444   6.048   5.789  0.5196  1.3555 -0.0283
 8168SOL    MW432440   3.471   6.026   5.870  0.6678  1.0111 -0.1650
 8169SOL     OW32441   4.020   5.082   3.219 -0.1631  0.3390 -0.4433
 8169SOL    HW232442   3.970   5.000   3.216 -1.1306  0.8315  0.9984
 8169SOL    HW332443   3.965   5.145   3.172 -0.7727  0.7811  0.7928
 8169SOL    MW432444   4.006   5.079   3.213 -0.3712  0.4623 -0.0900
 8170SOL     OW32445   5.886   4.334   3.637 -0.3908 -0.0717  0.3723
 8170SOL    HW232446   5.865   4.382   3.557 -1.5119  1.0854  1.3004
 8170SOL    HW332447   5.979   4.351   3.651 -0.9533  2.8845  1.2394
 8170SOL    MW432448   5.895   4.343   3.628 -0.6129  0.4710  0.6092
 8171SOL     OW32449   4.019   3.524   4.762  0.2988 -0.2476 -0.2648
 8171SOL    HW232450   3.936   3.549   4.721 -0.1195 -2.4884 -0.8793
 8171SOL    HW332451   4.000   3.444   4.810  2.1842 -1.0136 -0.6940
 8171SOL    MW432452   4.006   3.517   4.763  0.4923 -0.6443 -0.4025
 8172SOL     OW32453   2.570   6.339   5.135 -0.5679 -0.3254  0.1184
 8172SOL    HW232454   2.593   6.246   5.134 -0.5460 -0.3257 -1.0094
 8172SOL    HW332455   2.507   6.349   5.063  0.8361  0.8503 -1.0146
 8172SOL    MW432456   2.565   6.328   5.125 -0.3798 -0.1704 -0.1799
 8173SOL     OW32457   3.377   0.546   6.093  0.2406 -0.2129 -0.1545
 8173SOL    HW232458   3.462   0.588   6.078 -0.1729  0.2484 -1.2718
 8173SOL    HW332459   3.314   0.602   6.049 -0.1982 -2.6189 -2.9257
 8173SOL    MW432460   3.380   0.559   6.085  0.1281 -0.4695 -0.6676
 8174SOL     OW32461   1.711   2.457   2.411  0.6113 -0.2193  0.4594
 8174SOL    HW232462   1.773   2.501   2.353  0.1590 -0.7316 -0.4476
 8174SOL    HW332463   1.730   2.491   2.498  1.0030  0.9263 -0.0561
 8174SOL    MW432464   1.721   2.467   2.415  0.6033 -0.1357  0.2717
 8175SOL     OW32465   1.267   0.639   3.658  0.2440  0.2812  0.0240
 8175SOL    HW232466   1.339   0.701   3.670 -0.1112  0.9965 -1.3613
 8175SOL    HW332467   1.209   0.654   3.733  1.6037 -0.4469  1.2749
 8175SOL    MW432468   1.269   0.649   3.670  0.3766  0.2795  0.0063
 8176SOL     OW32469   6.234   5.388   0.205 -0.3177 -0.1890  0.6642
 8176SOL    HW232470   6.233   5.400   0.300  1.6122  0.4452  0.6394
 8176SOL    HW332471   6.211   5.474   0.169 -2.0407 -0.6700  0.5190
 8176SOL    MW432472   6.231   5.401   0.213 -0.2904 -0.1688  0.6417
 8177SOL     OW32473   5.390   4.496   4.117  0.1346 -0.3311  0.5696
 8177SOL    HW232474   5.313   4.545   4.090  0.1683  0.8259  2.4052
 8177SOL    HW332475   5.374   4.406   4.087 -0.2788  0.5642 -2.1727
 8177SOL    MW432476   5.378   4.491   4.109  0.0845 -0.0603  0.4500
 8178SOL     OW32477   4.213   6.159   3.109  0.2059 -0.9081 -0.2082
 8178SOL    HW232478   4.302   6.124   3.114 -0.4316 -2.5409  0.4072
 8178SOL    HW332479   4.205   6.215   3.187  0.8648 -0.2828 -0.5796
 8178SOL    MW432480   4.224   6.162   3.120  0.2087 -1.0410 -0.1760
 8179SOL     OW32481   0.840   5.554   5.905 -0.3862 -0.5152  0.3256
 8179SOL    HW232482   0.794   5.472   5.890 -2.2168  0.4326  0.5430
 8179SOL    HW332483   0.898   5.563   5.830  0.1905 -2.2038  0.5260
 8179SOL    MW432484   0.842   5.545   5.894 -0.5517 -0.6129  0.3807
 8180SOL     OW32485   4.000   0.849   4.732  0.3843  0.0813  0.4544
 8180SOL    HW232486   4.089   0.828   4.757  0.9639 -0.1199 -1.5672
 8180SOL    HW332487   4.009   0.912   4.660 -1.0573 -0.2027 -0.0151
 8180SOL    MW432488   4.013   0.854   4.726  0.2705  0.0173  0.1257
 8181SOL     OW32489   5.350   4.262   2.581 -0.1122 -0.1931  0.6541
 8181SOL    HW232490   5.434   4.306   2.565 -0.5002  0.4522  0.3336
 8181SOL    HW332491   5.373   4.170   2.591  0.4679 -0.3034 -1.2026
 8181SOL    MW432492   5.364   4.256   2.580 -0.0869 -0.1225  0.3669
 8182SOL     OW32493   2.973   1.879   0.298 -0.3134  1.5234 -0.9699
 8182SOL    HW232494   3.034   1.822   0.251  0.0763  0.9235  0.2228
 8182SOL    HW332495   2.916   1.915   0.229 -1.7997 -1.7329 -1.6447
 8182SOL    MW432496   2.973   1.876   0.283 -0.4581  1.0146 -0.9016
 8183SOL     OW32497   6.174   1.016   0.317 -0.5150  0.1351 -0.2712
 8183SOL    HW232498   6.250   0.999   0.373  0.3315  0.3036 -1.3177
 8183SOL    HW332499   6.106   1.046   0.377  0.6908  1.3698  0.5545
 8183SOL    MW432500   6.175   1.018   0.332 -0.2443  0.3202 -0.3003
 8184SOL     OW32501   0.724   1.000   4.607 -0.4699  0.3241  0.7134
 8184SOL    HW232502   0.814   1.030   4.616  0.1750 -1.1545 -0.3335
 8184SOL    HW332503   0.713   0.987   4.512 -1.2012 -1.1718  0.9778
 8184SOL    MW432504   0.735   1.002   4.596 -0.4813 -0.0684  0.6102
 8185SOL     OW32505   1.384   0.511   0.611  0.0490  0.1420 -0.2514
 8185SOL    HW232506   1.373   0.436   0.553  1.8608 -0.1674 -0.2483
 8185SOL    HW332507   1.384   0.473   0.699 -2.5647  0.5954  0.0350
 8185SOL    MW432508   1.383   0.496   0.615 -0.0568  0.1610 -0.2132
 8186SOL     OW32509   6.007   2.086   2.702 -0.4021  0.0160 -0.5499
 8186SOL    HW232510   6.064   2.142   2.754 -0.3966 -1.7670  1.5165
 8186SOL    HW332511   6.060   2.060   2.627 -0.3293  2.4824 -1.4350
 8186SOL    MW432512   6.021   2.090   2.699 -0.3918  0.1062 -0.3940
 8187SOL     OW32513   2.760   1.987   4.700 -0.2269 -0.1128 -0.5732
 8187SOL    HW232514   2.832   2.029   4.654 -0.7148  2.0418  0.4823
 8187SOL    HW332515   2.741   1.908   4.649  3.1697 -1.0563 -0.6000
 8187SOL    MW432516   2.767   1.982   4.687  0.1569  0.0470 -0.4375
 8188SOL     OW32517   1.852   3.590   2.563  0.1208 -0.0700  0.3585
 8188SOL    HW232518   1.790   3.585   2.635  0.7874 -0.1271  0.9447
 8188SOL    HW332519   1.911   3.516   2.577  2.0217  1.5714  1.4409
 8188SOL    MW432520   1.852   3.580   2.574  0.4595  0.1390  0.5787
 8189SOL     OW32521   1.833   1.092   3.277 -0.4215  0.2310  0.5030
 8189SOL    HW232522   1.833   1.083   3.372  1.8555 -1.2824  0.4473
 8189SOL    HW332523   1.740   1.097   3.253 -1.0690  0.0159  2.7328
 8189SOL    MW432524   1.821   1.091   3.286 -0.2065  0.0029  0.7898
 8190SOL     OW32525   3.436   3.951   1.437  0.2989  0.1138 -0.2516
 8190SOL    HW232526   3.481   3.872   1.408  1.2899  0.0042  1.4481
 8190SOL    HW332527   3.344   3.924   1.446  0.3588 -0.4148 -1.1209
 8190SOL    MW432528   3.430   3.937   1.434  0.4376  0.0296 -0.1420
 8191SOL     OW32529   2.563   4.925   2.829 -0.2516 -0.0529 -0.1130
 8191SOL    HW232530   2.510   4.904   2.906 -1.7597  2.0671 -0.4814
 8191SOL    HW332531   2.502   4.919   2.755  1.1477 -1.9836 -1.2080
 8191SOL    MW432532   2.548   4.922   2.829 -0.2659 -0.0279 -0.3061
 8192SOL     OW32533   6.230   3.774   2.116  0.3742  0.1499 -0.2212
 8192SOL    HW232534   6.274   3.689   2.109 -1.5901 -1.0660  1.1174
 8192SOL    HW332535   6.261   3.811   2.198  0.3548  0.1925 -0.2328
 8192SOL    MW432536   6.240   3.768   2.126  0.1124 -0.0049 -0.0461
 8193SOL     OW32537   0.482   5.493   1.582 -0.2406  0.5332 -0.3361
 8193SOL    HW232538   0.423   5.428   1.619 -0.8487  0.8884 -0.6743
 8193SOL    HW332539   0.456   5.576   1.624  0.1172  0.6632 -0.3672
 8193SOL    MW432540   0.471   5.496   1.593 -0.2736  0.5972 -0.3848
 8194SOL     OW32541   6.309   1.920   2.748  0.6714  0.1360 -0.0059
 8194SOL    HW232542   6.314   1.831   2.783 -1.0896 -0.4344 -1.1044
 8194SOL    HW332543   6.296   1.976   2.825  1.1137 -0.6305  0.6280
 8194SOL    MW432544   6.308   1.916   2.763  0.4974 -0.0404 -0.0672
 8195SOL     OW32545   5.385   4.233   2.127 -0.5883 -0.5513  0.2694
 8195SOL    HW232546   5.429   4.316   2.115 -0.0314 -0.8204  0.4124
 8195SOL    HW332547   5.317   4.250   2.192 -1.4703  0.1374 -0.7852
 8195SOL    MW432548   5.382   4.246   2.134 -0.6312 -0.4959  0.1491
 8196SOL     OW32549   5.357   3.339   0.625  0.1231  0.3310  0.0981
 8196SOL    HW232550   5.367   3.274   0.555  0.2482  0.1960  0.2373
 8196SOL    HW332551   5.263   3.350   0.635  0.0368 -1.0876  1.2019
 8196SOL    MW432552   5.346   3.332   0.617  0.1282  0.1260  0.2621
 8197SOL     OW32553   1.925   2.972   0.436  0.1653 -0.4513 -0.3982
 8197SOL    HW232554   2.008   2.924   0.440  0.4260 -0.2346 -2.2994
 8197SOL    HW332555   1.908   2.983   0.342 -1.4955  0.4135 -0.0318
 8197SOL    MW432556   1.934   2.967   0.424 -0.0194 -0.3086 -0.6007
 8198SOL     OW32557   2.692   1.067   4.247 -0.0226  0.6178  0.0294
 8198SOL    HW232558   2.664   1.158   4.251  0.6126  0.9452 -1.6892
 8198SOL    HW332559   2.752   1.064   4.172  1.4424 -0.8325  1.1729
 8198SOL    MW432560   2.696   1.078   4.237  0.2545  0.4696 -0.0465
 8199SOL     OW32561   5.283   4.333   5.503  0.1088 -0.4025  0.3155
 8199SOL    HW232562   5.364   4.339   5.554 -0.1811  2.8864  0.6337
 8199SOL    HW332563   5.307   4.284   5.425  2.3835  0.3204  0.4829
 8199SOL    MW432564   5.297   4.328   5.500  0.3707  0.1268  0.3796
 8200SOL     OW32565   3.430   3.230   6.247  0.3043 -0.0369 -0.2668
 8200SOL    HW232566   3.454   3.253   6.157  0.8435  0.6518  0.0418
 8200SOL    HW332567   3.339   3.257   6.255  0.6109  1.0681 -0.2413
 8200SOL    MW432568   3.421   3.237   6.236  0.4159  0.1998 -0.2227
 8201SOL     OW32569   1.981   4.044   1.259  0.1863 -0.6025 -0.6011
 8201SOL    HW232570   2.061   4.095   1.241 -0.2305  0.2275 -0.1641
 8201SOL    HW332571   1.913   4.087   1.207 -0.1274 -0.8480 -0.3945
 8201SOL    MW432572   1.983   4.057   1.250  0.0899 -0.5254 -0.5162
 8202SOL     OW32573   1.454   2.514   2.953  0.0226 -0.0292  0.1551
 8202SOL    HW232574   1.436   2.437   2.900  0.9476  0.8928 -1.5805
 8202SOL    HW332575   1.540   2.497   2.992  0.9724  0.7187 -1.4955
 8202SOL    MW432576   1.463   2.502   2.951  0.2700  0.1911 -0.2916
 8203SOL     OW32577   2.648   3.381   3.125  0.4468 -0.3397 -0.2595
 8203SOL    HW232578   2.553   3.395   3.124  0.2912 -1.2699  0.0952
 8203SOL    HW332579   2.680   3.442   3.192  0.0629 -0.2446 -0.1601
 8203SOL    MW432580   2.640   3.391   3.134  0.3756 -0.4498 -0.1996
 8204SOL     OW32581   0.235   0.626   4.458  0.3012  0.1237 -0.1659
 8204SOL    HW232582   0.301   0.694   4.472  0.5735 -0.0681 -0.5090
 8204SOL    HW332583   0.152   0.674   4.449 -0.1757  0.2373  3.4068
 8204SOL    MW432584   0.233   0.641   4.459  0.2742  0.1134  0.2602
 8205SOL     OW32585   4.847   0.528   5.119  0.0582 -0.5689 -0.0089
 8205SOL    HW232586   4.821   0.438   5.099 -0.4445 -0.2400 -0.8815
 8205SOL    HW332587   4.847   0.572   5.034  1.3398 -0.0028  0.2613
 8205SOL    MW432588   4.844   0.522   5.105  0.1610 -0.4508 -0.0884
 8206SOL     OW32589   4.643   3.867   4.678 -0.3037 -0.2867  0.2342
 8206SOL    HW232590   4.554   3.900   4.666 -0.8717 -1.6789  0.4602
 8206SOL    HW332591   4.632   3.773   4.690  1.2273 -0.5067  0.0483
 8206SOL    MW432592   4.630   3.859   4.678 -0.1767 -0.4994  0.2395
 8207SOL     OW32593   3.128   2.978   0.351 -0.6646  0.0938 -0.0183
 8207SOL    HW232594   3.090   3.048   0.298  0.3527 -0.3382 -1.3738
 8207SOL    HW332595   3.060   2.957   0.415 -1.8031  0.8857 -0.9176
 8207SOL    MW432596   3.114   2.984   0.352 -0.6806  0.1413 -0.3158
 8208SOL     OW32597   6.414   1.928   1.926 -0.0049  0.0679 -0.0225
 8208SOL    HW232598   6.382   1.961   2.010 -0.9539 -0.8395  0.0018
 8208SOL    HW332599   6.413   1.833   1.936 -2.0985 -0.1686 -1.7062
 8208SOL    MW432600   6.410   1.920   1.938 -0.4063 -0.0830 -0.2414
 8209SOL     OW32601   5.142   3.039   5.241 -0.4111  0.2249 -0.0794
 8209SOL    HW232602   5.064   3.013   5.192  1.4443 -1.2036 -2.4993
 8209SOL    HW332603   5.196   2.960   5.243  1.2300  1.3269  1.0550
 8209SOL    MW432604   5.138   3.025   5.235  0.0502  0.1818 -0.2490
 8210SOL     OW32605   4.651   1.895   6.273  0.1835  0.1278 -0.2536
 8210SOL    HW232606   4.711   1.877   6.201  0.4680  0.6656 -0.1538
 8210SOL    HW332607   4.672   1.830   6.340 -2.6160 -3.0116 -2.0641
 8210SOL    MW432608   4.661   1.884   6.272 -0.1483 -0.2155 -0.4793
 8211SOL     OW32609   3.262   0.672   4.909 -0.3075 -0.2165 -0.2735
 8211SOL    HW232610   3.238   0.764   4.892 -1.3394 -0.4934 -0.4067
 8211SOL    HW332611   3.244   0.627   4.827 -0.1261 -0.5955 -0.1071
 8211SOL    MW432612   3.256   0.679   4.896 -0.4197 -0.3030 -0.2691
 8212SOL     OW32613   0.870   3.102   3.635  0.3723  0.1479 -0.1203
 8212SOL    HW232614   0.898   3.191   3.614  0.2226  0.3015  0.3066
 8212SOL    HW332615   0.925   3.046   3.582 -0.0822  0.5217 -1.0078
 8212SOL    MW432616   0.881   3.106   3.625  0.2926  0.2175 -0.1811
 8213SOL     OW32617   5.048   0.575   0.732  0.1598  0.0810 -0.2515
 8213SOL    HW232618   5.103   0.498   0.718  0.0361 -0.2738  1.0716
 8213SOL    HW332619   5.076   0.609   0.818  0.1936  1.4976 -0.7860
 8213SOL    MW432620   5.059   0.570   0.742  0.1479  0.2211 -0.1475
 8214SOL     OW32621   1.932   0.864   5.667 -0.4705 -0.0239  0.0665
 8214SOL    HW232622   1.919   0.895   5.578 -0.2514 -0.4578 -0.1233
 8214SOL    HW332623   1.937   0.943   5.720 -1.2821  0.2124 -0.2079
 8214SOL    MW432624   1.931   0.879   5.662 -0.5487 -0.0500  0.0052
 8215SOL     OW32625   0.098   1.999   1.451 -0.0487  0.1824  0.2231
 8215SOL    HW232626   0.132   1.972   1.537  2.0529 -0.9204 -0.8516
 8215SOL    HW332627   0.174   2.037   1.407 -0.7468 -0.4375 -1.5955
 8215SOL    MW432628   0.113   2.000   1.457  0.1365 -0.0449 -0.1586
 8216SOL     OW32629   6.285   0.821   1.960  0.0568  0.5529 -0.1329
 8216SOL    HW232630   6.215   0.781   2.013 -1.9362  2.0642 -1.4552
 8216SOL    HW332631   6.295   0.909   1.997  0.9987  0.4774 -0.2025
 8216SOL    MW432632   6.277   0.828   1.972 -0.0819  0.7423 -0.3165
 8217SOL     OW32633   0.454   6.286   5.759  0.1547  0.1356 -0.3609
 8217SOL    HW232634   0.455   6.351   5.690  1.3222 -1.4140 -1.8883
 8217SOL    HW332635   0.534   6.235   5.746 -0.4107 -1.2235  1.1220
 8217SOL    MW432636   0.464   6.288   5.748  0.2342 -0.2482 -0.3668
 8218SOL     OW32637   3.223   2.594   4.263  0.6109 -0.1122 -0.0109
 8218SOL    HW232638   3.178   2.559   4.341 -1.0831 -1.0815 -1.3469
 8218SOL    HW332639   3.206   2.688   4.267  0.1654 -0.2071  0.5853
 8218SOL    MW432640   3.215   2.601   4.274  0.3286 -0.2526 -0.1085
 8219SOL     OW32641   2.060   0.016   4.045  0.3155  0.6252 -0.0095
 8219SOL    HW232642   2.112   0.079   4.094  0.1762  0.8781 -0.1886
 8219SOL    HW332643   2.080  -0.069   4.086  2.8248  0.3257 -1.6517
 8219SOL    MW432644   2.069   0.013   4.057  0.6282  0.6191 -0.2498
 8220SOL     OW32645   6.077   0.989   0.716  0.4453  0.2935  0.7180
 8220SOL    HW232646   6.149   0.982   0.654 -2.0351 -0.3877 -2.2984
 8220SOL    HW332647   6.044   0.900   0.725 -0.7732  0.7600  1.0604
 8220SOL    MW432648   6.082   0.977   0.709 -0.0427  0.2652  0.3652
 8221SOL     OW32649   0.028   1.082   3.872 -0.7777 -0.3599 -0.3429
 8221SOL    HW232650   0.001   0.992   3.852  0.5601 -1.0118  0.6135
 8221SOL    HW332651   0.124   1.077   3.881 -0.3159  1.7038 -2.9524
 8221SOL    MW432652   0.037   1.069   3.870 -0.5403 -0.1737 -0.5610
 8222SOL     OW32653   2.955   0.684   5.457 -0.2937 -0.4506  0.3749
 8222SOL    HW232654   3.026   0.725   5.507  0.9653  1.1069 -2.4513
 8222SOL    HW332655   2.958   0.592   5.483  2.5365 -0.3709  0.7098
 8222SOL    MW432656   2.965   0.677   5.467  0.2458 -0.2346  0.0462
 8223SOL     OW32657   6.222   1.090   2.617 -0.3561  0.0639  0.1459
 8223SOL    HW232658   6.182   1.076   2.532 -1.1508 -1.2948  0.7155
 8223SOL    HW332659   6.316   1.086   2.600 -0.5105 -0.4572 -0.6193
 8223SOL    MW432660   6.229   1.088   2.604 -0.4813 -0.1841  0.1201
 8224SOL     OW32661   5.171   2.622   6.482 -0.0596 -0.2705  0.8160
 8224SOL    HW232662   5.206   2.538   6.513  0.5981  0.0932  1.0883
 8224SOL    HW332663   5.236   2.687   6.510  0.4996  0.1095 -1.1991
 8224SOL    MW432664   5.184   2.619   6.490  0.1010 -0.1724  0.5860
 8225SOL     OW32665   3.694   2.205   3.607 -0.0625 -0.1286 -0.3488
 8225SOL    HW232666   3.663   2.281   3.558  0.4410  0.8201  0.7419
 8225SOL    HW332667   3.778   2.233   3.643 -1.2695 -0.0344  2.6717
 8225SOL    MW432668   3.701   2.219   3.605 -0.1553  0.0090  0.1936
 8226SOL     OW32669   5.370   4.323   2.949 -0.4052 -0.1239 -0.5060
 8226SOL    HW232670   5.328   4.399   2.989 -0.3032  0.0792 -0.7832
 8226SOL    HW332671   5.311   4.298   2.878 -0.8627 -0.8151  0.1019
 8226SOL    MW432672   5.357   4.330   2.945 -0.4521 -0.1883 -0.4623
 8227SOL     OW32673   3.227   0.639   0.810  0.3691  0.2869 -0.0183
 8227SOL    HW232674   3.292   0.617   0.744  0.6837  0.0652  0.3561
 8227SOL    HW332675   3.183   0.717   0.776 -1.3686 -1.3598 -1.7961
 8227SOL    MW432676   3.230   0.646   0.797  0.1813  0.0404 -0.2034
 8228SOL     OW32677   5.432   2.051   2.595  0.3524 -0.4049 -0.6604
 8228SOL    HW232678   5.502   1.990   2.576  0.3551  0.4155 -3.8822
 8228SOL    HW332679   5.380   2.054   2.514 -4.1982 -1.8680  1.8687
 8228SOL    MW432680   5.434   2.043   2.582 -0.2476 -0.4897 -0.7518
 8229SOL     OW32681   3.832   5.489   5.506 -0.0915 -0.0145  0.0161
 8229SOL    HW232682   3.865   5.540   5.432 -0.0207 -1.9681 -1.3892
 8229SOL    HW332683   3.781   5.419   5.466  0.5629 -1.5897  1.7738
 8229SOL    MW432684   3.830   5.487   5.491  0.0042 -0.4801  0.0626
 8230SOL     OW32685   1.119   6.340   2.366  0.3112  0.0360 -0.0541
 8230SOL    HW232686   1.067   6.363   2.289  0.0786  2.0103  0.6471
 8230SOL    HW332687   1.183   6.411   2.374  0.7772 -0.5032  1.1755
 8230SOL    MW432688   1.120   6.352   2.357  0.3420  0.2253  0.2007
 8231SOL     OW32689   2.247   5.740   0.822 -0.1525  0.2299 -0.1890
 8231SOL    HW232690   2.267   5.796   0.747 -0.8022 -0.2782 -0.7522
 8231SOL    HW332691   2.272   5.652   0.794  3.0543  0.4316  1.4931
 8231SOL    MW432692   2.253   5.736   0.809  0.1849  0.1895 -0.0414
 8232SOL     OW32693   2.678   5.796   2.052 -0.2661  0.3603 -0.0742
 8232SOL    HW232694   2.591   5.802   2.091 -0.6394 -0.4027 -0.7517
 8232SOL    HW332695   2.729   5.742   2.112 -0.4410  0.3175  0.0348
 8232SOL    MW432696   2.674   5.790   2.065 -0.3384  0.2540 -0.1492
 8233SOL     OW32697   0.271   2.410   0.289  0.3418 -0.1795  0.3412
 8233SOL    HW232698   0.193   2.464   0.275 -1.5217 -2.2760  1.9663
 8233SOL    HW332699   0.312   2.448   0.367  0.3423  0.2692  0.1266
 8233SOL    MW432700   0.266   2.422   0.298  0.0960 -0.3969  0.5273
 8234SOL     OW32701   0.430   3.793   5.221 -0.1717 -0.3832  0.1346
 8234SOL    HW232702   0.497   3.803   5.154 -0.8401 -0.9880 -0.6441
 8234SOL    HW332703   0.443   3.705   5.255  0.4509  0.0778  1.1396
 8234SOL    MW432704   0.441   3.783   5.217 -0.1777 -0.4021  0.1645
 8235SOL     OW32705   3.690   6.069   5.605  0.1771  0.3688 -0.0944
 8235SOL    HW232706   3.722   6.152   5.638  0.8796  0.2466 -0.4564
 8235SOL    HW332707   3.713   6.069   5.512 -1.3223  0.4942 -0.4858
 8235SOL    MW432708   3.697   6.080   5.597  0.0719  0.3692 -0.1938
 8236SOL     OW32709   4.339   2.265   1.983  0.1339 -0.1480  0.5220
 8236SOL    HW232710   4.394   2.343   1.983 -1.0502  0.7428 -0.9895
 8236SOL    HW332711   4.287   2.272   1.903 -0.3905 -2.2285  0.6155
 8236SOL    MW432712   4.340   2.276   1.972 -0.0915 -0.3050  0.3349
 8237SOL     OW32713   3.848   4.727   2.497 -0.6602 -0.7971 -0.2715
 8237SOL    HW232714   3.913   4.662   2.468 -0.0573 -0.0827 -0.5592
 8237SOL    HW332715   3.776   4.674   2.532  0.3509 -1.6026  0.6841
 8237SOL    MW432716   3.847   4.711   2.497 -0.4472 -0.8091 -0.1834
 8238SOL     OW32717   5.634   2.846   5.613  0.1894  0.7328 -0.2395
 8238SOL    HW232718   5.614   2.800   5.531 -0.0411 -0.4164  0.4392
 8238SOL    HW332719   5.679   2.781   5.667  0.3848  1.4895  0.5328
 8238SOL    MW432720   5.637   2.831   5.609  0.1848  0.6810 -0.0480
 8239SOL     OW32721   3.488   3.050   2.361 -0.1884 -0.2525 -0.2041
 8239SOL    HW232722   3.575   3.078   2.335 -1.0304  0.1662 -2.8955
 8239SOL    HW332723   3.475   3.088   2.448  2.3995 -0.6568  0.4200
 8239SOL    MW432724   3.498   3.059   2.369  0.0419 -0.2506 -0.4769
 8240SOL     OW32725   5.049   0.412   4.886  0.0498  0.8373 -0.0220
 8240SOL    HW232726   5.039   0.320   4.909  2.3900  0.3468 -0.6291
 8240SOL    HW332727   5.093   0.451   4.962 -0.8581  1.4565  0.1994
 8240SOL    MW432728   5.054   0.405   4.899  0.2387  0.8543 -0.0729
 8241SOL     OW32729   5.718   6.412   5.047  0.3069  0.4608 -0.0594
 8241SOL    HW232730   5.625   6.429   5.064  1.0401  2.3395  2.6756
 8241SOL    HW332731   5.740   6.470   4.975 -0.2085  1.6088  0.6758
 8241SOL    MW432732   5.708   6.422   5.040  0.3356  0.8601  0.3984
 8242SOL     OW32733   0.977   5.491   1.855  0.0236  0.2888  0.4698
 8242SOL    HW232734   0.898   5.462   1.809 -1.6126 -0.1849  3.3840
 8242SOL    HW332735   0.947   5.559   1.914  1.9957  0.7137  1.0641
 8242SOL    MW432736   0.963   5.496   1.856  0.0679  0.2824  0.9327
 8243SOL     OW32737   2.254   4.867   5.123  0.1148  0.6591  0.0973
 8243SOL    HW232738   2.267   4.777   5.152  0.2397  0.7676  0.3752
 8243SOL    HW332739   2.199   4.859   5.044  0.6594  0.3041 -0.2515
 8243SOL    MW432740   2.248   4.854   5.116  0.2031  0.6266  0.0879
 8244SOL     OW32741   5.014   4.098   0.893 -0.4277 -0.3969  0.4796
 8244SOL    HW232742   5.006   4.178   0.841 -1.0932 -1.2196 -0.7186
 8244SOL    HW332743   4.934   4.094   0.944  0.0483  0.2030  1.2952
 8244SOL    MW432744   5.002   4.108   0.893 -0.4527 -0.4263  0.4291
 8245SOL     OW32745   0.199   0.003   4.599  0.5921 -0.2966 -0.1241
 8245SOL    HW232746   0.138   0.017   4.527  1.0499  0.3024 -0.4154
 8245SOL    HW332747   0.264   0.073   4.588  1.7359 -1.3441 -0.2709
 8245SOL    MW432748   0.200   0.014   4.588  0.8034 -0.3558 -0.1819
 8246SOL     OW32749   0.548   0.177   4.050  0.1660  0.1403 -0.1547
 8246SOL    HW232750   0.547   0.127   4.132 -1.5898 -1.1026 -0.9003
 8246SOL    HW332751   0.559   0.112   3.981  0.4524  1.0618 -1.0118
 8246SOL    MW432752   0.550   0.162   4.052 -0.0279  0.0979 -0.3662
 8247SOL     OW32753   5.631   2.583   6.170  0.1568 -0.1664  0.2371
 8247SOL    HW232754   5.720   2.549   6.165  0.3921  0.4184  0.3346
 8247SOL    HW332755   5.608   2.576   6.263 -0.1681 -0.9740  0.1025
 8247SOL    MW432756   5.640   2.577   6.182  0.1450 -0.1958  0.2322
 8248SOL     OW32757   4.834   0.318   0.696 -0.2428 -0.1189 -0.2002
 8248SOL    HW232758   4.914   0.268   0.710  0.2141  0.6953  0.1373
 8248SOL    HW332759   4.828   0.376   0.772 -1.7493 -0.9528  0.3529
 8248SOL    MW432760   4.844   0.319   0.708 -0.3813 -0.1215 -0.0827
 8249SOL     OW32761   2.012   0.777   4.701  0.0387  0.6040  0.0729
 8249SOL    HW232762   2.095   0.733   4.685 -0.6825 -0.5719 -0.6276
 8249SOL    HW332763   2.028   0.869   4.680  1.4758  0.6206  1.1491
 8249SOL    MW432764   2.025   0.783   4.696  0.1331  0.4510  0.1225
 8250SOL     OW32765   4.194   1.096   3.720  0.1803  0.6900 -0.5299
 8250SOL    HW232766   4.152   1.161   3.663  0.8719  1.2081 -0.4603
 8250SOL    HW332767   4.250   1.045   3.661 -0.6030 -0.0632 -0.6400
 8250SOL    MW432768   4.196   1.098   3.704  0.1682  0.6590 -0.5353
 8251SOL     OW32769   1.488   6.269   2.776 -0.4174 -0.2950  0.1881
 8251SOL    HW232770   1.462   6.292   2.687 -1.0912 -0.2403  0.3931
 8251SOL    HW332771   1.451   6.182   2.790  0.3798 -0.6552  0.1371
 8251SOL    MW432772   1.480   6.261   2.766 -0.4011 -0.3353  0.2084
 8252SOL     OW32773   3.365   0.583   5.475  0.1501 -0.3961  0.0600
 8252SOL    HW232774   3.290   0.543   5.431 -0.7978  0.0079  1.2444
 8252SOL    HW332775   3.349   0.569   5.568  0.9052  0.7924  0.3996
 8252SOL    MW432776   3.353   0.576   5.481  0.1247 -0.1860  0.2611
 8253SOL     OW32777   1.259   3.644   5.628 -0.2949 -0.3002 -0.2207
 8253SOL    HW232778   1.271   3.585   5.553  0.3078  1.8600 -1.9051
 8253SOL    HW332779   1.167   3.671   5.622 -0.7890 -1.5510  0.9991
 8253SOL    MW432780   1.248   3.640   5.617 -0.2806 -0.1802 -0.2820
 8254SOL     OW32781   2.729   5.696   0.277 -0.4265 -1.0643  0.5479
 8254SOL    HW232782   2.634   5.689   0.268 -0.7927  2.0103  1.0522
 8254SOL    HW332783   2.746   5.671   0.368 -1.0127  0.1630  1.0074
 8254SOL    MW432784   2.719   5.692   0.288 -0.5521 -0.4967  0.6750
 8255SOL     OW32785   5.647   3.459   3.147  0.1244 -0.5950  0.1251
 8255SOL    HW232786   5.702   3.424   3.217  0.8543  0.8725  0.3309
 8255SOL    HW332787   5.709   3.496   3.084 -0.5899  0.3337 -0.0583
 8255SOL    MW432788   5.663   3.459   3.148  0.1264 -0.2789  0.1280
 8256SOL     OW32789   0.800   0.785   1.457 -0.0963  0.0033 -0.3030
 8256SOL    HW232790   0.729   0.722   1.449 -0.3735  0.3693 -0.7586
 8256SOL    HW332791   0.832   0.797   1.368 -1.4106  2.0569 -0.5575
 8256SOL    MW432792   0.795   0.778   1.444 -0.3063  0.3226 -0.3967
 8257SOL     OW32793   4.280   6.271   3.692  0.1235 -0.2892  0.5623
 8257SOL    HW232794   4.301   6.327   3.617  1.0184 -0.4642  0.6783
 8257SOL    HW332795   4.185   6.277   3.699 -0.1040 -1.0525 -1.1995
 8257SOL    MW432796   4.270   6.279   3.683  0.2115 -0.4130  0.3451
 8258SOL     OW32797   6.348   0.646   1.450  0.5216  0.1678  0.5923
 8258SOL    HW232798   6.290   0.679   1.518  1.4412  1.0507  0.9738
 8258SOL    HW332799   6.431   0.628   1.495  0.3827 -1.6826  0.1850
 8258SOL    MW432800   6.352   0.648   1.465  0.6246  0.0402  0.5889
 8259SOL     OW32801   3.477   4.880   0.627  0.2679  0.4830 -0.0211
 8259SOL    HW232802   3.418   4.948   0.595  0.2994  0.9079  0.7732
 8259SOL    HW332803   3.564   4.909   0.598  0.3622  1.1553  0.8856
 8259SOL    MW432804   3.481   4.893   0.619  0.2845  0.6277  0.2033
 8260SOL     OW32805   5.124   4.512   1.031 -0.3288  0.5643 -0.0843
 8260SOL    HW232806   5.051   4.565   1.000 -0.5109  2.0054  2.5134
 8260SOL    HW332807   5.202   4.560   1.003 -0.4608  1.2531  0.7305
 8260SOL    MW432808   5.125   4.525   1.023 -0.3703  0.8453  0.3660
 8261SOL     OW32809   6.065   6.277   1.067 -0.0732 -0.5169 -0.1612
 8261SOL    HW232810   6.085   6.334   1.141  1.5419 -1.9091  0.5386
 8261SOL    HW332811   5.973   6.252   1.079 -0.4661  0.9668  0.1424
 8261SOL    MW432812   6.055   6.282   1.078  0.0880 -0.5048 -0.0288
 8262SOL     OW32813   0.489   4.500   2.467  0.4133 -0.0485  0.6129
 8262SOL    HW232814   0.506   4.510   2.560 -0.5207 -1.1228  0.9258
 8262SOL    HW332815   0.395   4.520   2.457  0.8271  1.6202 -0.3723
 8262SOL    MW432816   0.479   4.504   2.478  0.3446  0.0299  0.5242
 8263SOL     OW32817   1.878   1.174   2.815  0.2153 -0.0126  0.3494
 8263SOL    HW232818   1.784   1.188   2.826  0.3920  1.2389  0.4563
 8263SOL    HW332819   1.910   1.157   2.904 -0.3489 -3.8707 -0.0219
 8263SOL    MW432820   1.870   1.174   2.828  0.1642 -0.3565  0.3145
 8264SOL     OW32821   4.640   5.222   5.846  0.2329 -0.4761  0.0864
 8264SOL    HW232822   4.671   5.311   5.860  1.1395 -0.7169 -0.2991
 8264SOL    HW332823   4.656   5.177   5.929  1.6590 -0.7931 -0.3302
 8264SOL    MW432824   4.646   5.227   5.858  0.5407 -0.5497 -0.0195
 8265SOL     OW32825   5.000   1.083   2.310 -0.3167  0.0808  0.1165
 8265SOL    HW232826   4.973   1.163   2.266 -2.8338  0.3019  1.8306
 8265SOL    HW332827   4.984   1.014   2.245 -1.1586  0.6640 -0.3177
 8265SOL    MW432828   4.994   1.084   2.295 -0.7599  0.1869  0.2854
 8266SOL     OW32829   5.871   2.689   2.444  0.2139  0.2437 -0.7987
 8266SOL    HW232830   5.898   2.768   2.492  2.4497  0.1321 -1.7258
 8266SOL    HW332831   5.894   2.709   2.353 -0.6918 -0.8787 -1.2824
 8266SOL    MW432832   5.878   2.702   2.439  0.3894  0.0809 -0.9848
 8267SOL     OW32833   5.876   1.563   1.290  0.3846 -0.1875  0.1299
 8267SOL    HW232834   5.828   1.485   1.263 -1.2805  0.6291  0.5740
 8267SOL    HW332835   5.908   1.543   1.378  0.8489 -0.7404 -0.1645
 8267SOL    MW432836   5.874   1.550   1.298  0.2262 -0.1527  0.1496
 8268SOL     OW32837   0.169   3.602   1.959  0.5175 -0.0617 -0.7494
 8268SOL    HW232838   0.165   3.557   1.875  0.8845  1.0591 -1.3783
 8268SOL    HW332839   0.244   3.660   1.952 -1.0387  2.0656 -0.6928
 8268SOL    MW432840   0.178   3.604   1.947  0.3606  0.3668 -0.8249
 8269SOL     OW32841   0.501   1.005   5.070 -0.0498  0.3598 -0.3156
 8269SOL    HW232842   0.458   1.058   5.003  2.0010  0.2644 -1.8162
 8269SOL    HW332843   0.494   0.915   5.037  3.2992  0.5324 -2.0033
 8269SOL    MW432844   0.494   1.000   5.057  0.6627  0.3700 -0.7363
 8270SOL     OW32845   5.322   1.489   5.535 -0.1251  0.3544 -0.6691
 8270SOL    HW232846   5.311   1.407   5.488 -0.5952 -0.7498  1.2424
 8270SOL    HW332847   5.260   1.550   5.494 -2.6134 -1.3786  0.2590
 8270SOL    MW432848   5.312   1.487   5.524 -0.5154 -0.0200 -0.2945
 8271SOL     OW32849   0.478   0.474   3.038  0.5641 -0.8663 -0.2208
 8271SOL    HW232850   0.511   0.536   3.103 -0.8385 -0.5436  0.2187
 8271SOL    HW332851   0.421   0.415   3.087 -2.5404  0.8738 -1.4253
 8271SOL    MW432852   0.475   0.475   3.053 -0.0306 -0.5941 -0.3217
 8272SOL     OW32853   2.116   4.515   2.998  0.0934 -0.3086  0.3097
 8272SOL    HW232854   2.101   4.599   3.040 -1.3469  0.1726 -1.0303
 8272SOL    HW332855   2.077   4.451   3.058 -0.4529  0.1833  0.4948
 8272SOL    MW432856   2.109   4.517   3.011 -0.1687 -0.1802  0.1573
 8273SOL     OW32857   0.208   2.190   0.414  0.0333  0.0972 -0.0046
 8273SOL    HW232858   0.121   2.156   0.391 -0.5672  0.5429  1.5110
 8273SOL    HW332859   0.208   2.280   0.381  1.1405 -0.8201 -2.8350
 8273SOL    MW432860   0.197   2.197   0.406  0.1002  0.0350 -0.1781
 8274SOL     OW32861   0.417   0.336   0.974  0.7167 -0.8815 -0.0529
 8274SOL    HW232862   0.442   0.397   0.904 -1.1687  0.2808  0.2052
 8274SOL    HW332863   0.494   0.280   0.986  1.7502  0.0798 -1.7725
 8274SOL    MW432864   0.431   0.337   0.966  0.6043 -0.6013 -0.2457
 8275SOL     OW32865   0.153   3.041   2.680 -0.8791  0.6156  0.3378
 8275SOL    HW232866   0.083   3.022   2.617  1.1172 -0.2271 -1.7500
 8275SOL    HW332867   0.189   3.126   2.651  0.1693  0.1367  0.1845
 8275SOL    MW432868   0.148   3.050   2.668 -0.4774  0.4412  0.0421
 8276SOL     OW32869   0.424   3.400   1.379 -0.2739 -0.0212 -0.3067
 8276SOL    HW232870   0.380   3.329   1.425  0.5820 -0.0829  0.4414
 8276SOL    HW332871   0.497   3.425   1.436  0.6317  0.1119 -1.4763
 8276SOL    MW432872   0.428   3.394   1.392 -0.0415 -0.0118 -0.3623
 8277SOL     OW32873   4.308   5.785   2.770  0.4855 -0.0063 -0.0332
 8277SOL    HW232874   4.336   5.702   2.733 -2.0037 -1.5770  1.3239
 8277SOL    HW332875   4.305   5.845   2.696  1.2392 -1.4040 -1.2558
 8277SOL    MW432876   4.311   5.782   2.756  0.2566 -0.3980 -0.0155
 8278SOL     OW32877   0.997   0.301   3.578 -0.3538  0.4214 -0.3051
 8278SOL    HW232878   0.987   0.360   3.652 -0.3743  1.1884 -0.8999
 8278SOL    HW332879   1.088   0.310   3.552 -0.0362 -0.7523  0.3586
 8278SOL    MW432880   1.007   0.310   3.584 -0.3146  0.3677 -0.2960
 8279SOL     OW32881   3.651   1.787   5.576  0.0876  0.0417  0.3593
 8279SOL    HW232882   3.686   1.707   5.536 -0.3140 -0.3395  0.7415
 8279SOL    HW332883   3.692   1.790   5.663 -0.4078 -0.1268  0.6073
 8279SOL    MW432884   3.661   1.777   5.582 -0.0307 -0.0308  0.4424
 8280SOL     OW32885   2.651   5.936   1.438 -0.5133 -0.1371  0.4359
 8280SOL    HW232886   2.710   5.875   1.393 -1.1752  0.0829 -0.7716
 8280SOL    HW332887   2.601   5.881   1.498 -0.0942 -0.5491  0.4162
 8280SOL    MW432888   2.652   5.920   1.440 -0.5454 -0.1624  0.2739
 8281SOL     OW32889   1.569   5.046   2.755 -0.2477  0.4677  0.4810
 8281SOL    HW232890   1.532   5.061   2.842  1.9095  1.7201  1.2785
 8281SOL    HW332891   1.641   4.985   2.770  0.2743  0.8533 -0.3739
 8281SOL    MW432892   1.574   5.040   2.769  0.1058  0.6838  0.4735
 8282SOL     OW32893   5.935   5.266   2.826  0.1503  0.2743 -0.3708
 8282SOL    HW232894   5.929   5.356   2.793 -1.7948  0.5122  0.4559
 8282SOL    HW332895   5.862   5.220   2.783 -0.3171 -0.2856  0.9776
 8282SOL    MW432896   5.924   5.272   2.816 -0.1680  0.2318 -0.0838
 8283SOL     OW32897   5.324   2.708   5.781 -0.6851  0.0093  0.2657
 8283SOL    HW232898   5.301   2.615   5.778 -1.5829  0.2169  0.2505
 8283SOL    HW332899   5.342   2.731   5.690 -1.3087  0.0442  0.1473
 8283SOL    MW432900   5.323   2.698   5.768 -0.8859  0.0413  0.2481
 8284SOL     OW32901   4.156   6.050   3.888 -0.4751  0.3275  0.1340
 8284SOL    HW232902   4.246   6.020   3.901  0.0005  1.5829 -0.1655
 8284SOL    HW332903   4.140   6.036   3.795 -0.0071  1.5747 -0.1590
 8284SOL    MW432904   4.166   6.044   3.878 -0.3506  0.6577  0.0558
 8285SOL     OW32905   3.463   3.377   4.580 -0.2363 -0.3618 -0.4176
 8285SOL    HW232906   3.384   3.372   4.634  0.5211 -2.1949  0.5939
 8285SOL    HW332907   3.475   3.288   4.547  0.7341  0.1734 -1.5974
 8285SOL    MW432908   3.454   3.365   4.582 -0.0084 -0.5331 -0.4398
 8286SOL     OW32909   1.377   2.157   3.471 -0.5594  0.2999 -0.5481
 8286SOL    HW232910   1.438   2.151   3.544 -0.0035  0.1846 -1.0167
 8286SOL    HW332911   1.422   2.211   3.406 -0.6088 -0.4377 -1.2238
 8286SOL    MW432912   1.391   2.163   3.472 -0.4926  0.1874 -0.6991
 8287SOL     OW32913   4.903   4.603   0.391 -0.1001 -0.3565  0.3119
 8287SOL    HW232914   4.937   4.660   0.460  0.5657  2.5223 -2.1572
 8287SOL    HW332915   4.895   4.517   0.432 -2.0450  1.5827  4.5969
 8287SOL    MW432916   4.907   4.599   0.406 -0.2688  0.2792  0.5515
 8288SOL     OW32917   3.194   3.391   3.852  0.3418 -0.1621 -0.0486
 8288SOL    HW232918   3.099   3.401   3.844  0.3353 -0.1945 -0.0121
 8288SOL    HW332919   3.230   3.470   3.812  0.3811 -1.5509 -3.0713
 8288SOL    MW432920   3.186   3.403   3.845  0.3461 -0.3496 -0.4426
 8289SOL     OW32921   0.902   6.028   4.349 -0.7233 -0.5940 -0.3958
 8289SOL    HW232922   0.921   5.979   4.269 -1.3069 -1.9043  0.2401
 8289SOL    HW332923   0.967   5.998   4.413  0.3537  1.1411 -0.5955
 8289SOL    MW432924   0.913   6.018   4.347 -0.6582 -0.5380 -0.3383
 8290SOL     OW32925   0.473   1.212   5.776  0.6563 -0.3064  0.0948
 8290SOL    HW232926   0.515   1.127   5.758 -0.7427 -0.8387 -0.9075
 8290SOL    HW332927   0.496   1.231   5.867  1.9337 -1.1961  0.0016
 8290SOL    MW432928   0.482   1.203   5.785  0.6402 -0.4940 -0.0498
 8291SOL     OW32929   6.195   0.691   6.068  0.4874 -0.1735 -0.5940
 8291SOL    HW232930   6.102   0.703   6.048  0.5981 -0.9790 -1.6730
 8291SOL    HW332931   6.240   0.709   5.986  1.5215  2.4430  0.4360
 8291SOL    MW432932   6.188   0.695   6.055  0.6384  0.0654 -0.6004
 8292SOL     OW32933   3.149   1.715   2.642  0.7961 -0.3396 -0.2769
 8292SOL    HW232934   3.232   1.718   2.689  0.5708 -0.1347  0.1195
 8292SOL    HW332935   3.143   1.626   2.609  0.7706 -0.6108  0.4401
 8292SOL    MW432936   3.159   1.704   2.644  0.7630 -0.3484 -0.1300
 8293SOL     OW32937   3.654   1.380   0.908 -0.1052 -0.3871 -0.0902
 8293SOL    HW232938   3.569   1.367   0.951 -0.1932 -1.2703 -0.5010
 8293SOL    HW332939   3.641   1.345   0.820  1.5340 -3.4624  0.7225
 8293SOL    MW432940   3.641   1.374   0.902  0.0995 -0.9094 -0.0372
 8294SOL     OW32941   2.225   5.172   1.047 -0.8570 -0.1312 -0.0283
 8294SOL    HW232942   2.197   5.171   1.139  0.2632 -1.7529  0.3322
 8294SOL    HW332943   2.153   5.130   1.000 -0.5469 -1.1671  0.4083
 8294SOL    MW432944   2.212   5.167   1.053 -0.6683 -0.4819  0.0769
 8295SOL     OW32945   0.759   2.730   3.444  0.5689  0.2724 -0.0546
 8295SOL    HW232946   0.755   2.639   3.413 -1.1858  0.6690 -1.1260
 8295SOL    HW332947   0.671   2.764   3.429  1.3488  2.3328 -0.1933
 8295SOL    MW432948   0.746   2.722   3.438  0.4403  0.5966 -0.2143
 8296SOL     OW32949   5.565   3.429   2.297  0.0189 -0.2542 -0.4270
 8296SOL    HW232950   5.646   3.381   2.316  0.7678  0.6330 -1.1949
 8296SOL    HW332951   5.594   3.501   2.240 -1.2774  0.2535 -0.4738
 8296SOL    MW432952   5.580   3.432   2.292 -0.0533 -0.0701 -0.5345
 8297SOL     OW32953   2.203   0.153   3.292  0.2332 -0.7097 -0.2627
 8297SOL    HW232954   2.244   0.166   3.206  0.1457  0.0486 -0.1957
 8297SOL    HW332955   2.268   0.104   3.342 -0.0954 -2.0104 -1.0497
 8297SOL    MW432956   2.217   0.148   3.287  0.1783 -0.7813 -0.3577
 8298SOL     OW32957   5.810   6.394   1.834 -0.2395  0.0326 -0.2541
 8298SOL    HW232958   5.791   6.302   1.855  0.5074  0.0572  0.5682
 8298SOL    HW332959   5.764   6.409   1.751 -0.7644 -0.9442 -0.1607
 8298SOL    MW432960   5.801   6.384   1.826 -0.2102 -0.0930 -0.1333
 8299SOL     OW32961   6.050   5.057   1.088 -0.3621 -0.4189  1.0396
 8299SOL    HW232962   6.066   5.149   1.108  0.1659 -0.4303  0.6859
 8299SOL    HW332963   6.031   5.016   1.172 -2.2694  0.3350  1.0322
 8299SOL    MW432964   6.049   5.064   1.101 -0.5441 -0.3210  0.9919
 8300SOL     OW32965   1.016   2.193   5.157  0.2506  0.3137 -0.3038
 8300SOL    HW232966   0.990   2.102   5.150  0.1803  0.2693  0.5221
 8300SOL    HW332967   1.078   2.206   5.084  0.5312 -0.4741 -0.2121
 8300SOL    MW432968   1.021   2.183   5.146  0.2784  0.2039 -0.1827
 8301SOL     OW32969   4.418   1.181   3.354  0.0882  0.0987 -0.6474
 8301SOL    HW232970   4.480   1.158   3.286  0.3199  2.0256 -1.1364
 8301SOL    HW332971   4.468   1.232   3.417 -0.5212 -0.1661  0.0717
 8301SOL    MW432972   4.433   1.185   3.354  0.0384  0.3180 -0.6170
 8302SOL     OW32973   1.323   6.008   4.395  0.0384 -0.3985 -0.1409
 8302SOL    HW232974   1.363   5.966   4.471 -0.4045 -1.9102 -0.7214
 8302SOL    HW332975   1.384   5.989   4.323 -0.5107 -0.6117 -0.5482
 8302SOL    MW432976   1.337   6.000   4.396 -0.0925 -0.6261 -0.2713
 8303SOL     OW32977   4.225   1.082   5.441  0.6607  0.7945  0.1764
 8303SOL    HW232978   4.192   1.039   5.362 -0.5333  0.5970  0.7596
 8303SOL    HW332979   4.176   1.042   5.513 -0.3276  2.9100  0.7849
 8303SOL    MW432980   4.214   1.071   5.440  0.3728  1.0475  0.3336
 8304SOL     OW32981   0.460   3.443   2.235  0.0782 -0.6330  0.1534
 8304SOL    HW232982   0.500   3.359   2.258 -2.9041 -2.1783  0.2325
 8304SOL    HW332983   0.405   3.424   2.159  1.2990  1.9198 -1.5077
 8304SOL    MW432984   0.458   3.429   2.228 -0.1542 -0.5000 -0.0553
 8305SOL     OW32985   1.651   3.443   3.669 -0.3370  0.1023 -0.5150
 8305SOL    HW232986   1.642   3.509   3.600  0.0775 -0.2672 -0.9324
 8305SOL    HW332987   1.644   3.359   3.622 -0.8254 -0.1501  0.0045
 8305SOL    MW432988   1.649   3.440   3.653 -0.3468  0.0202 -0.5015
 8306SOL     OW32989   5.130   6.013   6.075 -0.4332 -0.6108 -0.0407
 8306SOL    HW232990   5.064   6.046   6.014 -0.6890 -2.3945 -0.8030
 8306SOL    HW332991   5.207   6.067   6.058 -1.1071  0.2173 -0.5354
 8306SOL    MW432992   5.131   6.024   6.064 -0.5559 -0.7369 -0.2065
 8307SOL     OW32993   5.084   1.963   1.441  0.1198 -0.0951 -0.2867
 8307SOL    HW232994   5.063   2.056   1.427  0.5400 -0.0268 -0.4839
 8307SOL    HW332995   5.152   1.944   1.376  2.0876  0.2078  1.5518
 8307SOL    MW432996   5.090   1.973   1.431  0.4349 -0.0461 -0.0701
 8308SOL     OW32997   0.025   4.597   5.174 -0.2124 -0.1765 -0.3110
 8308SOL    HW232998   0.018   4.692   5.179  0.8868 -0.1321  0.7685
 8308SOL    HW332999  -0.023   4.565   5.251 -0.4124 -0.4856 -0.5601
 8308SOL    MW433000   0.018   4.605   5.185 -0.0938 -0.2114 -0.2014
 8309SOL     OW33001   5.453   0.989   2.898 -0.3600 -0.3185  0.1115
 8309SOL    HW233002   5.386   0.978   2.830  0.3133 -2.1895 -0.3194
 8309SOL    HW333003   5.414   0.952   2.977 -0.6223  0.5726  0.4065
 8309SOL    MW433004   5.439   0.983   2.900 -0.3058 -0.4478  0.0936
 8310SOL     OW33005   5.598   5.825   6.150 -0.8531  0.3470  0.0024
 8310SOL    HW233006   5.513   5.836   6.193 -1.0694  1.5024 -0.6816
 8310SOL    HW333007   5.656   5.885   6.196 -0.6139  0.1814 -0.0810
 8310SOL    MW433008   5.595   5.834   6.162 -0.8500  0.4776 -0.0989
 8311SOL     OW33009   4.606   2.579   3.184 -0.1562 -0.5828  0.3543
 8311SOL    HW233010   4.560   2.648   3.232  0.0707  0.0028 -0.2519
 8311SOL    HW333011   4.648   2.526   3.252 -1.0255 -0.6245  0.8684
 8311SOL    MW433012   4.606   2.581   3.200 -0.2410 -0.5110  0.3422
 8312SOL     OW33013   5.709   5.544   4.461  0.3728  0.5120  0.6770
 8312SOL    HW233014   5.735   5.508   4.546  0.7686  0.4759  0.5427
 8312SOL    HW333015   5.643   5.483   4.428  2.0019 -0.8640 -0.1620
 8312SOL    MW433016   5.704   5.531   4.468  0.6400  0.3257  0.5486
 8313SOL     OW33017   3.322   3.156   0.495  0.2126 -0.7946  0.3660
 8313SOL    HW233018   3.349   3.094   0.427  1.3458 -0.3409  0.3887
 8313SOL    HW333019   3.357   3.240   0.467 -0.3261 -0.3728  0.9210
 8313SOL    MW433020   3.330   3.159   0.482  0.2910 -0.6791  0.4422
 8314SOL     OW33021   0.489   3.392   1.661  0.0686 -0.4897 -0.0435
 8314SOL    HW233022   0.405   3.431   1.685  0.5624  0.1329  0.7350
 8314SOL    HW333023   0.551   3.465   1.665  0.5692 -0.8304 -1.1050
 8314SOL    MW433024   0.487   3.407   1.664  0.1998 -0.4525 -0.0808
 8315SOL     OW33025   2.515   1.202   6.451 -0.4834  0.3966 -0.7589
 8315SOL    HW233026   2.430   1.241   6.431 -1.3735 -1.0275  0.0604
 8315SOL    HW333027   2.577   1.251   6.396 -1.7137  1.9017 -0.9019
 8315SOL    MW433028   2.512   1.214   6.441 -0.7632  0.4073 -0.6697
 8316SOL     OW33029   3.855   3.926   0.759  0.1605 -0.5200 -0.2135
 8316SOL    HW233030   3.856   3.847   0.705 -1.1542  0.2275 -1.4090
 8316SOL    HW333031   3.766   3.961   0.748  0.3379  0.4795  1.2518
 8316SOL    MW433032   3.843   3.920   0.750  0.0104 -0.2895 -0.1779
 8317SOL     OW33033   6.070   2.845   2.172 -0.4851  0.2679  0.0006
 8317SOL    HW233034   5.982   2.861   2.137 -0.4018  2.1014  0.5409
 8317SOL    HW333035   6.066   2.877   2.262  0.6139 -0.0681  0.1827
 8317SOL    MW433036   6.058   2.851   2.180 -0.3291  0.4655  0.0959
 8318SOL     OW33037   3.893   2.293   4.792  0.7709  0.1823  0.2825
 8318SOL    HW233038   3.800   2.299   4.770  1.1090 -1.3575 -1.8782
 8318SOL    HW333039   3.935   2.361   4.740  1.0207 -0.1925 -0.0151
 8318SOL    MW433040   3.887   2.303   4.782  0.8485 -0.0703 -0.0419
 8319SOL     OW33041   0.236   2.133   5.246  0.4697  0.1719 -0.1218
 8319SOL    HW233042   0.172   2.081   5.296  1.5632 -1.1654 -0.0486
 8319SOL    HW333043   0.261   2.204   5.306  0.3823 -0.3440  0.5444
 8319SOL    MW433044   0.231   2.136   5.261  0.6025 -0.0726 -0.0243
 8320SOL     OW33045   4.893   5.597   0.340 -0.2494 -0.3168 -0.0158
 8320SOL    HW233046   4.867   5.540   0.268  1.8433 -1.2337 -0.1203
 8320SOL    HW333047   4.924   5.677   0.298  0.5942 -0.6951 -0.1294
 8320SOL    MW433048   4.894   5.600   0.325  0.1380 -0.4877 -0.0446
 8321SOL     OW33049   3.894   2.726   2.089  0.8913  0.2866 -0.0314
 8321SOL    HW233050   3.939   2.774   2.019  1.4155 -0.2518 -0.0723
 8321SOL    HW333051   3.902   2.634   2.064 -2.7068  0.2059 -1.5598
 8321SOL    MW433052   3.901   2.720   2.077  0.4857  0.2049 -0.2385
 8322SOL     OW33053   1.981   5.782   0.735  0.0691  0.1410 -0.1958
 8322SOL    HW233054   1.961   5.872   0.763  0.4016  0.1339  0.0668
 8322SOL    HW333055   2.062   5.760   0.780 -0.5552 -0.6671  0.5829
 8322SOL    MW433056   1.989   5.791   0.745  0.0306  0.0335 -0.0584
 8323SOL     OW33057   4.318   4.720   6.484 -0.4349 -0.0170 -0.2463
 8323SOL    HW233058   4.292   4.639   6.527 -0.7662  0.4502  0.4511
 8323SOL    HW333059   4.303   4.788   6.549  2.7612  0.2902  0.3342
 8323SOL    MW433060   4.313   4.719   6.498 -0.0569  0.0852 -0.0777
 8324SOL     OW33061   0.236   3.418   5.223  0.2025 -0.3718  0.1530
 8324SOL    HW233062   0.314   3.420   5.168 -0.1629  0.6687 -0.3641
 8324SOL    HW333063   0.193   3.502   5.205 -1.1963 -1.0635  0.1855
 8324SOL    MW433064   0.241   3.430   5.213 -0.0303 -0.3258  0.0891
 8325SOL     OW33065   2.328   5.096   3.987  0.2156  0.0606  0.3695
 8325SOL    HW233066   2.238   5.116   3.963 -0.0391 -0.5882  0.7708
 8325SOL    HW333067   2.322   5.019   4.043  0.9130  0.7459  1.4298
 8325SOL    MW433068   2.315   5.088   3.991  0.2740  0.0654  0.5623
 8326SOL     OW33069   1.491   6.177   6.265 -0.1321  0.4785 -0.0312
 8326SOL    HW233070   1.465   6.093   6.303  0.5061  0.4091  0.2658
 8326SOL    HW333071   1.529   6.155   6.180 -1.4931  0.6278 -0.7004
 8326SOL    MW433072   1.493   6.163   6.259 -0.2275  0.4891 -0.0803
 8327SOL     OW33073   5.620   4.124   5.539 -0.1749 -0.0323 -0.3908
 8327SOL    HW233074   5.711   4.095   5.542 -0.5378 -1.2006 -0.3830
 8327SOL    HW333075   5.590   4.100   5.451 -0.7947 -0.6388 -0.0162
 8327SOL    MW433076   5.628   4.117   5.528 -0.3046 -0.2665 -0.3403
 8328SOL     OW33077   2.067   2.203   1.925 -0.0785  0.4540 -0.1673
 8328SOL    HW233078   2.140   2.209   1.863 -0.2737  1.5362 -0.3082
 8328SOL    HW333079   1.989   2.218   1.871 -0.1637  2.8592  0.5361
 8328SOL    MW433080   2.066   2.206   1.909 -0.1155  0.9141 -0.0931
 8329SOL     OW33081   2.329   0.602   2.040 -0.1277 -0.1892  0.9638
 8329SOL    HW233082   2.276   0.620   2.118  1.9961  0.5374  2.3150
 8329SOL    HW333083   2.418   0.590   2.073  0.9156  0.4379 -1.3781
 8329SOL    MW433084   2.333   0.603   2.054  0.2902 -0.0106  0.8331
 8330SOL     OW33085   0.664   4.724   0.396  0.4433 -0.3715  0.1468
 8330SOL    HW233086   0.684   4.789   0.329  2.0362 -2.0552 -1.1058
 8330SOL    HW333087   0.584   4.682   0.364 -0.3259  0.5945  0.7254
 8330SOL    MW433088   0.656   4.727   0.383  0.5520 -0.4662  0.0579
 8331SOL     OW33089   3.640   4.279   5.338 -0.0513  0.4043 -0.3144
 8331SOL    HW233090   3.579   4.276   5.264  0.3770  0.4044 -0.6731
 8331SOL    HW333091   3.727   4.267   5.298  0.2426  1.0722  0.1105
 8331SOL    MW433092   3.644   4.277   5.323  0.0440  0.4925 -0.3057
 8332SOL     OW33093   6.416   5.447   5.375 -0.0301 -0.0638  0.4661
 8332SOL    HW233094   6.356   5.376   5.354 -3.3326  2.2404  1.2216
 8332SOL    HW333095   6.416   5.503   5.297 -1.8057  1.7414  1.6622
 8332SOL    MW433096   6.408   5.445   5.362 -0.7001  0.4784  0.7236
 8333SOL     OW33097   5.247   1.552   0.766 -0.4759  0.5191 -0.6968
 8333SOL    HW233098   5.188   1.578   0.836  0.1096 -0.3220  0.1459
 8333SOL    HW333099   5.304   1.486   0.807  1.7391  2.0335 -1.1334
 8333SOL    MW433100   5.247   1.547   0.781 -0.1064  0.6080 -0.6432
 8334SOL     OW33101   6.258   3.471   5.176 -0.2825  0.5135 -0.1119
 8334SOL    HW233102   6.190   3.506   5.118 -0.9620 -0.9967 -0.2710
 8334SOL    HW333103   6.306   3.409   5.121 -0.2152 -0.1020  0.6287
 8334SOL    MW433104   6.255   3.468   5.161 -0.3633  0.2330 -0.0352
 8335SOL     OW33105   3.290   2.899   1.246  0.6684  0.0968  0.5009
 8335SOL    HW233106   3.209   2.900   1.298  0.5236  0.9406  0.2746
 8335SOL    HW333107   3.284   2.818   1.195 -1.0849  1.1529 -1.1033
 8335SOL    MW433108   3.278   2.888   1.246  0.4180  0.3475  0.2594
 8336SOL     OW33109   1.813   6.307   0.461 -0.4587  0.2125  0.9640
 8336SOL    HW233110   1.768   6.223   0.469  0.5316 -0.2966  1.3995
 8336SOL    HW333111   1.905   6.284   0.447 -0.4832  1.2053 -1.2647
 8336SOL    MW433112   1.819   6.293   0.461 -0.3312  0.2763  0.7274
 8337SOL     OW33113   3.289   0.058   2.407  0.1738  0.3643 -0.0256
 8337SOL    HW233114   3.296   0.003   2.485  0.1131  1.3374  0.6929
 8337SOL    HW333115   3.379   0.081   2.385  0.1718  0.3559 -0.0425
 8337SOL    MW433116   3.302   0.054   2.414  0.1655  0.4916  0.0670
 8338SOL     OW33117   3.775   1.626   0.948  0.2843 -0.0555 -0.6715
 8338SOL    HW233118   3.730   1.545   0.925 -2.6958  1.3185 -0.1300
 8338SOL    HW333119   3.843   1.599   1.011 -0.0091 -2.1959 -1.1975
 8338SOL    MW433120   3.778   1.612   0.953 -0.1476 -0.1566 -0.6695
 8339SOL     OW33121   3.041   4.171   3.332  0.4626 -0.3800  0.0983
 8339SOL    HW233122   3.085   4.254   3.310 -0.1831  0.6692  2.4642
 8339SOL    HW333123   2.950   4.184   3.303  0.8313 -1.1451 -1.4949
 8339SOL    MW433124   3.035   4.184   3.325  0.4261 -0.3425  0.2002
 8340SOL     OW33125   3.764   4.320   3.875  0.4493  0.2928 -0.2681
 8340SOL    HW233126   3.841   4.316   3.931 -0.7621 -0.3240  1.4234
 8340SOL    HW333127   3.761   4.234   3.833  0.1235 -0.0453  0.4449
 8340SOL    MW433128   3.774   4.308   3.877  0.2465  0.1668  0.0492
 8341SOL     OW33129   5.519   1.328   5.194  0.0358  0.3014  0.2782
 8341SOL    HW233130   5.464   1.359   5.122 -1.4111  1.4944  1.7991
 8341SOL    HW333131   5.532   1.406   5.249 -0.1422 -0.8485  2.0477
 8341SOL    MW433132   5.513   1.343   5.192 -0.1786  0.3071  0.7123
 8342SOL     OW33133   4.320   5.630   3.083  0.1931  0.3451 -0.4754
 8342SOL    HW233134   4.263   5.554   3.089 -1.3190  1.4739  0.4718
 8342SOL    HW333135   4.293   5.674   3.002  0.7734  0.0996 -0.8051
 8342SOL    MW433136   4.309   5.626   3.073  0.0702  0.4616 -0.3939
 8343SOL     OW33137   0.209   2.448   4.066 -0.2870  0.4717  0.4349
 8343SOL    HW233138   0.208   2.358   4.032  2.0065 -0.4388  2.4409
 8343SOL    HW333139   0.160   2.498   4.002 -0.9289 -2.0607 -1.2268
 8343SOL    MW433140   0.203   2.443   4.053 -0.0691  0.0175  0.4803
 8344SOL     OW33141   4.639   1.780   4.594  0.1448 -0.2110  0.3531
 8344SOL    HW233142   4.682   1.840   4.533 -0.1403 -1.7695 -1.4926
 8344SOL    HW333143   4.545   1.792   4.578  0.0854 -1.5737 -0.5819
 8344SOL    MW433144   4.632   1.789   4.584  0.0993 -0.5964 -0.0138
 8345SOL     OW33145   1.992   0.601   0.862  0.5756 -0.4165  0.4478
 8345SOL    HW233146   1.955   0.639   0.782  1.3781  0.1960  0.3561
 8345SOL    HW333147   1.942   0.521   0.876 -1.1866  0.6673  0.6519
 8345SOL    MW433148   1.980   0.596   0.853  0.4490 -0.1927  0.4626
 8346SOL     OW33149   0.711   2.301   2.885 -0.1851  0.4630  0.3911
 8346SOL    HW233150   0.724   2.361   2.812  0.3780 -0.1458 -0.0199
 8346SOL    HW333151   0.618   2.312   2.909 -0.1731  1.2390  0.1083
 8346SOL    MW433152   0.700   2.310   2.878 -0.1092  0.4851  0.2995
 8347SOL     OW33153   3.071   1.691   3.323  0.3408  0.3042 -0.6717
 8347SOL    HW233154   3.090   1.777   3.287 -1.1461 -0.1919 -2.7789
 8347SOL    HW333155   2.978   1.693   3.344 -0.0664 -1.1958 -2.0998
 8347SOL    MW433156   3.061   1.702   3.321  0.0909  0.0409 -1.1381
 8348SOL     OW33157   0.203   4.585   1.824  0.3283  0.4548 -0.2441
 8348SOL    HW233158   0.261   4.654   1.793  1.1626 -0.5594 -1.0353
 8348SOL    HW333159   0.226   4.574   1.916  0.5703  0.8609 -0.2519
 8348SOL    MW433160   0.214   4.592   1.832  0.4703  0.3746 -0.3495
 8349SOL     OW33161   6.153   1.780   2.255 -0.4210 -0.1213  0.4826
 8349SOL    HW233162   6.078   1.807   2.202  0.7962  1.1439 -0.6480
 8349SOL    HW333163   6.178   1.694   2.220 -1.6322 -0.8051  1.2224
 8349SOL    MW433164   6.146   1.772   2.244 -0.4202 -0.0446  0.4311
 8350SOL     OW33165   0.608   1.889   5.745  0.5658 -0.0867 -0.0733
 8350SOL    HW233166   0.575   1.930   5.665  0.0910 -0.6033 -0.1468
 8350SOL    HW333167   0.677   1.830   5.716  0.3554 -0.3165 -0.1143
 8350SOL    MW433168   0.613   1.887   5.731  0.4754 -0.1852 -0.0884
 8351SOL     OW33169   5.625   1.971   0.273  0.4461 -0.5326 -0.2345
 8351SOL    HW233170   5.573   1.915   0.331  0.3405  0.4694  0.6768
 8351SOL    HW333171   5.680   2.022   0.333  1.3960 -0.4931 -1.1072
 8351SOL    MW433172   5.626   1.970   0.289  0.5575 -0.3952 -0.2294
 8352SOL     OW33173   2.451   5.309   2.840 -0.3926  0.2907 -0.0855
 8352SOL    HW233174   2.468   5.254   2.764  0.0518  1.3035 -0.7334
 8352SOL    HW333175   2.374   5.361   2.816 -0.7892 -0.0080  0.5090
 8352SOL    MW433176   2.443   5.309   2.827 -0.3863  0.3849 -0.0926
 8353SOL     OW33177   3.982   3.166   3.056  0.1382 -0.2245 -0.3802
 8353SOL    HW233178   4.044   3.128   3.118 -0.5740 -1.0651 -0.1514
 8353SOL    HW333179   3.907   3.191   3.110 -0.1799 -0.2662 -0.7984
 8353SOL    MW433180   3.980   3.164   3.071  0.0023 -0.3409 -0.4052
 8354SOL     OW33181   1.710   1.145   1.677  0.1411 -0.3377  0.0727
 8354SOL    HW233182   1.727   1.107   1.591 -0.9985 -1.7712  0.4507
 8354SOL    HW333183   1.677   1.073   1.730 -0.6875  0.8594  1.2658
 8354SOL    MW433184   1.708   1.130   1.672 -0.1186 -0.3689  0.2800
 8355SOL     OW33185   4.633   0.354   4.828 -0.0660  0.6788 -0.1620
 8355SOL    HW233186   4.703   0.405   4.789 -0.6782  1.7003  0.0507
 8355SOL    HW333187   4.555   0.377   4.777 -0.5240  0.6394  0.5130
 8355SOL    MW433188   4.632   0.364   4.816 -0.2072  0.8084 -0.0449
 8356SOL     OW33189   2.369   1.376   0.965  0.4158 -0.4033  0.0653
 8356SOL    HW233190   2.440   1.439   0.973  0.0837  0.0817 -0.6793
 8356SOL    HW333191   2.356   1.343   1.054 -0.8269  2.1561  0.9243
 8356SOL    MW433192   2.377   1.380   0.978  0.2081 -0.0016  0.0804
 8357SOL     OW33193   5.220   5.472   4.223 -0.0218  0.5076  0.5405
 8357SOL    HW233194   5.129   5.496   4.242  0.0517  0.8039  0.5348
 8357SOL    HW333195   5.230   5.384   4.258 -0.4230  0.3259  0.2018
 8357SOL    MW433196   5.210   5.464   4.230 -0.0650  0.5227  0.4951
 8358SOL     OW33197   0.351   3.331   5.880 -0.0068 -0.1566 -0.1018
 8358SOL    HW233198   0.334   3.329   5.786 -0.5103 -0.2922 -0.0118
 8358SOL    HW333199   0.265   3.316   5.920  0.1086  0.4638  0.3849
 8358SOL    MW433200   0.337   3.328   5.873 -0.0580 -0.0926 -0.0257
 8359SOL     OW33201   1.276   6.168   1.153 -0.0093  0.1123 -0.0287
 8359SOL    HW233202   1.290   6.162   1.247  2.2913 -1.1562 -0.3762
 8359SOL    HW333203   1.288   6.261   1.133  0.4639  0.2364  0.7886
 8359SOL    MW433204   1.279   6.179   1.163  0.3567 -0.0387  0.0333
 8360SOL     OW33205   3.743   6.097   1.009  0.3859  0.0935 -0.3738
 8360SOL    HW233206   3.718   6.034   0.941 -0.2252 -0.0870  0.0114
 8360SOL    HW333207   3.760   6.043   1.086  2.1805  0.1887 -0.6615
 8360SOL    MW433208   3.742   6.081   1.010  0.5420  0.0823 -0.3610
 8361SOL     OW33209   4.828   2.791   6.314  0.5898 -0.0292  0.1675
 8361SOL    HW233210   4.749   2.788   6.260  0.8335 -0.1984 -0.1835
 8361SOL    HW333211   4.869   2.874   6.291 -0.6518  1.1934  2.0360
 8361SOL    MW433212   4.823   2.802   6.304  0.4581  0.1098  0.3677
 8362SOL     OW33213   1.732   0.329   0.110 -0.1056 -0.1146  0.0406
 8362SOL    HW233214   1.808   0.333   0.052 -2.4981  3.0241 -3.3028
 8362SOL    HW333215   1.672   0.267   0.067 -1.0294  0.5109  0.4063
 8362SOL    MW433216   1.734   0.321   0.097 -0.5431  0.3820 -0.3523
 8363SOL     OW33217   4.879   5.681   3.137  0.4839  0.2529 -0.5581
 8363SOL    HW233218   4.910   5.675   3.046 -1.5909 -0.7414 -1.2726
 8363SOL    HW333219   4.785   5.664   3.131 -0.2398  2.8687  1.4784
 8363SOL    MW433220   4.870   5.678   3.124  0.1147  0.4668 -0.3837
 8364SOL     OW33221   1.681   1.543   1.941 -0.4872  0.0821  0.3133
 8364SOL    HW233222   1.683   1.553   2.036  1.7694  0.5587  0.2831
 8364SOL    HW333223   1.730   1.463   1.924 -1.7814 -0.5760 -0.4224
 8364SOL    MW433224   1.688   1.534   1.951 -0.3602  0.0581  0.2123
 8365SOL     OW33225   0.969   0.095   4.446  0.5592 -0.5067  0.4473
 8365SOL    HW233226   0.963   0.152   4.523 -0.8349 -1.6853  1.2648
 8365SOL    HW333227   1.037   0.032   4.469  2.2143  0.8397 -0.5212
 8365SOL    MW433228   0.977   0.094   4.459  0.5936 -0.4845  0.4274
 8366SOL     OW33229   0.351   1.365   5.411  0.5894  0.3073 -0.4462
 8366SOL    HW233230   0.405   1.413   5.473 -0.8139  0.0734  1.0218
 8366SOL    HW333231   0.261   1.377   5.442 -0.2713  0.8522 -2.9089
 8366SOL    MW433232   0.346   1.373   5.423  0.2907  0.3483 -0.5775
 8367SOL     OW33233   3.869   4.802   6.430  0.0804 -0.5701  0.7376
 8367SOL    HW233234   3.873   4.708   6.449 -0.2778 -0.4630  1.3461
 8367SOL    HW333235   3.842   4.843   6.512  1.3556  0.1860  0.8064
 8367SOL    MW433236   3.866   4.795   6.443  0.2014 -0.4562  0.8270
 8368SOL     OW33237   4.028   4.543   2.389 -0.1921 -0.6484  0.2493
 8368SOL    HW233238   3.969   4.498   2.329  0.2557 -2.6901  1.2590
 8368SOL    HW333239   4.109   4.552   2.340  0.4549 -3.0860  0.7363
 8368SOL    MW433240   4.031   4.538   2.375 -0.0477 -1.2394  0.4468
 8369SOL     OW33241   5.550   0.667   0.749  0.1547 -0.2665  0.7944
 8369SOL    HW233242   5.626   0.721   0.728 -0.0060 -0.5412 -0.5689
 8369SOL    HW333243   5.475   0.722   0.727 -0.0113 -0.8981 -0.2731
 8369SOL    MW433244   5.550   0.682   0.743  0.1116 -0.3861  0.4737
 8370SOL     OW33245   3.264   0.171   4.418 -0.6902  0.4193 -0.3284
 8370SOL    HW233246   3.173   0.199   4.431 -0.2845  1.9663 -0.6051
 8370SOL    HW333247   3.312   0.209   4.492 -0.1335  0.3233 -0.6320
 8370SOL    MW433248   3.258   0.180   4.430 -0.5633  0.6107 -0.4050
 8371SOL     OW33249   1.971   0.287   5.441 -0.7518 -0.2971 -0.1643
 8371SOL    HW233250   1.986   0.291   5.536  0.3120 -0.7743 -0.3066
 8371SOL    HW333251   1.893   0.341   5.427 -0.9905 -0.3151  0.9971
 8371SOL    MW433252   1.962   0.295   5.452 -0.6429 -0.3624 -0.0298
 8372SOL     OW33253   6.076   1.955   1.833  0.0956  0.0211  0.4697
 8372SOL    HW233254   6.005   1.937   1.772  0.8285 -2.6834  0.3042
 8372SOL    HW333255   6.077   2.051   1.840  0.0911  0.5388 -3.8522
 8372SOL    MW433256   6.066   1.965   1.826  0.1917 -0.2674 -0.1223
 8373SOL     OW33257   4.995   1.623   5.598  0.8329  0.2111 -0.2661
 8373SOL    HW233258   5.035   1.704   5.630  3.9962 -0.5087 -2.0019
 8373SOL    HW333259   5.046   1.553   5.640  0.3762 -0.8243 -1.3766
 8373SOL    MW433260   5.007   1.624   5.608  1.1900 -0.0205 -0.6417
 8374SOL     OW33261   5.721   2.662   0.732  0.4334  0.0486  0.3580
 8374SOL    HW233262   5.757   2.689   0.816  3.2577 -0.6902 -0.5066
 8374SOL    HW333263   5.649   2.723   0.716  1.0709  1.4347  2.3966
 8374SOL    MW433264   5.717   2.674   0.741  0.8901  0.1340  0.5129
 8375SOL     OW33265   2.038   3.884   1.887 -0.0877  0.2725 -0.4808
 8375SOL    HW233266   1.952   3.911   1.919 -0.2926 -1.6981  0.8055
 8375SOL    HW333267   2.022   3.857   1.797 -0.5847  0.9169 -0.5959
 8375SOL    MW433268   2.024   3.884   1.879 -0.1803  0.0975 -0.3263
 8376SOL     OW33269   4.653   0.754   1.826 -0.2819 -0.1105 -0.1289
 8376SOL    HW233270   4.716   0.708   1.881  0.2597  0.4046 -0.2989
 8376SOL    HW333271   4.634   0.694   1.755 -1.6338 -1.1240  1.0459
 8376SOL    MW433272   4.659   0.740   1.824 -0.3888 -0.1763  0.0037
 8377SOL     OW33273   4.218   3.093   3.717  0.6014 -0.4296  0.2273
 8377SOL    HW233274   4.172   3.067   3.637 -2.2292 -0.9329  1.8568
 8377SOL    HW333275   4.221   3.013   3.770  2.5051 -0.1354  0.6319
 8377SOL    MW433276   4.212   3.079   3.713  0.4791 -0.4572  0.4957
 8378SOL     OW33277   5.879   1.276   0.161 -0.1072 -0.0072  0.1240
 8378SOL    HW233278   5.944   1.345   0.149  2.4501 -2.0641  1.2952
 8378SOL    HW333279   5.822   1.309   0.230  0.3453  1.3800 -0.1294
 8378SOL    MW433280   5.880   1.290   0.168  0.2899 -0.0956  0.2451
 8379SOL     OW33281   4.071   5.808   0.591  0.3303 -0.0802 -0.1962
 8379SOL    HW233282   4.058   5.844   0.504 -0.9870  0.6192  0.2731
 8379SOL    HW333283   4.094   5.716   0.575 -0.5431 -0.1314 -1.2596
 8379SOL    MW433284   4.072   5.800   0.577  0.0412  0.0053 -0.2746
 8380SOL     OW33285   0.876   5.156   4.757 -0.3687  0.2697 -0.3699
 8380SOL    HW233286   0.926   5.181   4.679  0.3226  1.5721  0.4688
 8380SOL    HW333287   0.789   5.192   4.741 -0.3534  0.1450 -0.7453
 8380SOL    MW433288   0.871   5.164   4.744 -0.2755  0.4251 -0.3088
 8381SOL     OW33289   4.071   3.965   0.487  0.1103 -0.2882 -0.1344
 8381SOL    HW233290   4.012   4.037   0.466  0.3960  0.1060  0.3859
 8381SOL    HW333291   4.126   3.955   0.409 -0.2302 -0.2482 -0.3807
 8381SOL    MW433292   4.070   3.973   0.474  0.1031 -0.2309 -0.0983
 8382SOL     OW33293   0.500   0.941   2.389 -0.1576  0.9428 -0.2937
 8382SOL    HW233294   0.454   1.019   2.421  0.8139  1.0892  0.7621
 8382SOL    HW333295   0.581   0.975   2.351 -0.3665  0.5618 -1.1176
 8382SOL    MW433296   0.504   0.956   2.388 -0.0570  0.9119 -0.2631
 8383SOL     OW33297   3.534   3.810   0.203 -0.0021 -0.4568  0.8420
 8383SOL    HW233298   3.571   3.722   0.196  1.7995  0.3087  0.1259
 8383SOL    HW333299   3.453   3.805   0.152  0.9649 -1.2577 -0.6917
 8383SOL    MW433300   3.528   3.797   0.195  0.3632 -0.4615  0.5452
 8384SOL     OW33301   1.500   2.187   0.570 -0.4272  0.1816  0.1320
 8384SOL    HW233302   1.482   2.183   0.476 -2.1732 -0.3088  0.4500
 8384SOL    HW333303   1.417   2.161   0.611 -0.1602  1.8786  1.8474
 8384SOL    MW433304   1.487   2.183   0.563 -0.6224  0.3408  0.4003
 8385SOL     OW33305   4.740   1.148   2.835 -0.2480 -0.0470 -0.0807
 8385SOL    HW233306   4.761   1.212   2.768 -0.5625  0.8471  0.6512
 8385SOL    HW333307   4.677   1.192   2.892 -0.4875 -1.0121  0.4339
 8385SOL    MW433308   4.735   1.162   2.834 -0.3211 -0.0564  0.0837
 8386SOL     OW33309   5.525   6.026   3.485 -0.0461  0.5185  0.0689
 8386SOL    HW233310   5.559   6.064   3.566 -0.0939  0.0847  0.2940
 8386SOL    HW333311   5.493   6.101   3.435  2.1783  1.0831 -0.6347
 8386SOL    MW433312   5.525   6.041   3.489  0.2410  0.5358  0.0058
 8387SOL     OW33313   1.238   5.358   4.840  0.1506 -0.4246 -0.9397
 8387SOL    HW233314   1.317   5.304   4.844  0.7283  0.2522 -2.4922
 8387SOL    HW333315   1.269   5.448   4.854 -0.6252 -0.3171  0.2939
 8387SOL    MW433316   1.253   5.363   4.843  0.1245 -0.3212 -0.9818
 8388SOL     OW33317   0.882   3.514   5.992  0.2376 -0.2258 -0.1183
 8388SOL    HW233318   0.830   3.562   6.057  0.1909 -0.6132  0.1308
 8388SOL    HW333319   0.934   3.453   6.044  2.2356  1.3228 -0.1864
 8388SOL    MW433320   0.882   3.513   6.008  0.4951 -0.0726 -0.0944
 8389SOL     OW33321   1.158   5.273   4.573  0.6030 -0.0580  0.4835
 8389SOL    HW233322   1.250   5.248   4.561  0.6512  0.4085 -0.2144
 8389SOL    HW333323   1.151   5.293   4.666  1.4788  0.8615  0.3765
 8389SOL    MW433324   1.170   5.273   4.584  0.7249  0.1249  0.3773
 8390SOL     OW33325   1.134   1.430   2.278  0.4090  0.1004  0.1913
 8390SOL    HW233326   1.170   1.343   2.296  1.2153  0.2825 -0.4816
 8390SOL    HW333327   1.189   1.464   2.208 -0.3705  0.8577 -0.0648
 8390SOL    MW433328   1.146   1.423   2.271  0.4125  0.2244  0.0687
 8391SOL     OW33329   0.118   6.080   3.818 -0.3524 -0.5475  0.1057
 8391SOL    HW233330   0.208   6.057   3.842 -0.3579  0.0281  0.7290
 8391SOL    HW333331   0.128   6.144   3.748 -0.1911  1.2099  1.6735
 8391SOL    MW433332   0.131   6.085   3.812 -0.3318 -0.2397  0.3948
 8392SOL     OW33333   4.906   2.405   0.452  0.7015  0.4700  0.1901
 8392SOL    HW233334   4.838   2.363   0.399 -0.5026 -0.6784  2.4835
 8392SOL    HW333335   4.877   2.495   0.462  0.5861  0.5145 -0.4750
 8392SOL    MW433336   4.894   2.411   0.446  0.5274  0.3244  0.4049
 8393SOL     OW33337   6.207   3.012   0.774 -0.3944 -0.6233 -0.3882
 8393SOL    HW233338   6.237   3.099   0.798  0.4304  0.0121 -3.4047
 8393SOL    HW333339   6.230   2.957   0.849 -0.0136  1.5226  1.1418
 8393SOL    MW433340   6.214   3.016   0.787 -0.2353 -0.2564 -0.5843
 8394SOL     OW33341   1.223   3.771   2.541  0.8767  0.1946  0.6486
 8394SOL    HW233342   1.182   3.717   2.474  0.4265 -0.2649  1.2731
 8394SOL    HW333343   1.309   3.732   2.555  0.9761  0.2987  0.3390
 8394SOL    MW433344   1.229   3.759   2.534  0.8304  0.1477  0.6901
 8395SOL     OW33345   0.708   0.041   4.644  0.6316 -0.3863  0.0017
 8395SOL    HW233346   0.764  -0.036   4.639  0.0748 -0.8624  0.7870
 8395SOL    HW333347   0.621   0.006   4.663  0.3242  0.4160  0.1040
 8395SOL    MW433348   0.704   0.026   4.646  0.5176 -0.3433  0.1188
 8396SOL     OW33349   4.187   2.428   1.555  0.1989 -0.4463 -0.0588
 8396SOL    HW233350   4.230   2.510   1.579 -0.0393 -0.3199 -0.0570
 8396SOL    HW333351   4.103   2.456   1.518  0.8248 -0.5840 -1.6592
 8396SOL    MW433352   4.181   2.443   1.553  0.2501 -0.4478 -0.2698
 8397SOL     OW33353   6.397   4.768   4.718  0.1024  0.5341  0.0481
 8397SOL    HW233354   6.402   4.673   4.731 -1.8582  0.1003 -1.8134
 8397SOL    HW333355   6.305   4.784   4.695  0.3408  2.9325  0.5311
 8397SOL    MW433356   6.385   4.757   4.716 -0.1249  0.7933 -0.1337
 8398SOL     OW33357   1.584   2.778   2.163  0.1681  0.0913 -0.1517
 8398SOL    HW233358   1.634   2.789   2.244  1.5298  0.9606 -1.0754
 8398SOL    HW333359   1.498   2.814   2.182  0.2587 -0.3110  1.0996
 8398SOL    MW433360   1.580   2.784   2.176  0.3597  0.1529 -0.1085
 8399SOL     OW33361   3.424   3.629   4.937 -0.7146  0.5161 -0.1745
 8399SOL    HW233362   3.394   3.582   5.014  2.2255  0.3085  0.9769
 8399SOL    HW333363   3.483   3.568   4.893  1.4696  2.2572  0.1516
 8399SOL    MW433364   3.428   3.615   4.941 -0.0385  0.7184  0.0204
 8400SOL     OW33365   0.638   5.515   3.180  0.5071 -0.1124  0.0386
 8400SOL    HW233366   0.596   5.597   3.155  1.1268 -0.5576 -2.8138
 8400SOL    HW333367   0.730   5.538   3.190  0.7282 -0.4948 -1.0572
 8400SOL    MW433368   0.645   5.529   3.178  0.6180 -0.2216 -0.4823
 8401SOL     OW33369   2.382   0.004   3.448 -0.7884 -0.2362  0.1775
 8401SOL    HW233370   2.466   0.048   3.441 -0.5887 -0.9480 -3.4183
 8401SOL    HW333371   2.399  -0.087   3.425 -2.3859 -0.6376  0.4171
 8401SOL    MW433372   2.395  -0.002   3.444 -0.9728 -0.3830 -0.2653
 8402SOL     OW33373   4.778   3.173   2.322 -0.5608  0.3856 -0.3686
 8402SOL    HW233374   4.830   3.205   2.395 -1.4687  1.5803 -0.2168
 8402SOL    HW333375   4.702   3.231   2.319 -0.5424  0.3687 -2.2690
 8402SOL    MW433376   4.775   3.185   2.331 -0.6782  0.5410 -0.5993
 8403SOL     OW33377   0.535   6.146   1.070  0.3387 -0.0508 -0.1247
 8403SOL    HW233378   0.517   6.198   1.148  0.6056 -0.1616  0.0143
 8403SOL    HW333379   0.453   6.146   1.021  0.5279  1.0465 -0.4557
 8403SOL    MW433380   0.522   6.153   1.074  0.3988  0.0793 -0.1500
 8404SOL     OW33381   3.240   2.239   3.450 -0.3190  0.3430 -0.0970
 8404SOL    HW233382   3.300   2.263   3.380 -0.5573  1.4158  0.0532
 8404SOL    HW333383   3.157   2.280   3.427 -0.5347  0.2973  0.5607
 8404SOL    MW433384   3.237   2.247   3.438 -0.3789  0.4785  0.0096
 8405SOL     OW33385   3.611   3.496   0.258 -0.1707  0.0184 -0.0472
 8405SOL    HW233386   3.579   3.469   0.172  1.2042 -0.8821 -0.3088
 8405SOL    HW333387   3.538   3.479   0.318 -1.5550  1.7030 -1.1715
 8405SOL    MW433388   3.598   3.490   0.255 -0.1719  0.1219 -0.2301
 8406SOL     OW33389   3.299   1.991   3.532 -0.1365  0.1729 -0.0395
 8406SOL    HW233390   3.361   1.959   3.467  0.6053  0.7328  0.3668
 8406SOL    HW333391   3.286   2.083   3.510 -1.3101 -0.0870 -0.4823
 8406SOL    MW433392   3.305   1.999   3.521 -0.1935  0.2125 -0.0443
 8407SOL     OW33393   4.351   5.224   2.432 -0.0300 -0.0202  0.4179
 8407SOL    HW233394   4.411   5.150   2.434 -0.1263 -0.0962  0.5504
 8407SOL    HW333395   4.368   5.268   2.349 -0.8186 -0.8952 -0.2310
 8407SOL    MW433396   4.361   5.220   2.421 -0.1467 -0.1457  0.3498
 8408SOL     OW33397   6.349   0.038   1.323 -0.1888 -0.2124  0.2740
 8408SOL    HW233398   6.420   0.090   1.360  0.4852 -1.5873  0.9917
 8408SOL    HW333399   6.310  -0.006   1.398 -0.5391 -0.9609 -0.3314
 8408SOL    MW433400   6.354   0.039   1.338 -0.1461 -0.4925  0.2888
 8409SOL     OW33401   3.877   5.388   2.429  0.5023 -0.6358 -0.2964
 8409SOL    HW233402   3.884   5.476   2.465 -0.5946  0.2828 -2.1790
 8409SOL    HW333403   3.783   5.369   2.429  0.7291 -1.8931  0.2096
 8409SOL    MW433404   3.865   5.397   2.434  0.3875 -0.6805 -0.4780
 8410SOL     OW33405   0.244   1.821   0.191 -0.1446 -0.1032 -0.0589
 8410SOL    HW233406   0.169   1.818   0.250  0.2859 -0.8611  0.4671
 8410SOL    HW333407   0.267   1.914   0.187 -1.2773  0.1834 -0.4695
 8410SOL    MW433408   0.237   1.833   0.198 -0.2372 -0.1654 -0.0437
 8411SOL     OW33409   3.035   3.716   1.255  0.1314 -0.0393  0.0039
 8411SOL    HW233410   3.123   3.739   1.224  0.8981  0.4489  2.3572
 8411SOL    HW333411   3.021   3.626   1.224  1.0856  0.1822 -1.1231
 8411SOL    MW433412   3.045   3.707   1.247  0.3584  0.0543  0.1657
 8412SOL     OW33413   4.019   4.753   5.505 -0.0130  0.2923  0.2527
 8412SOL    HW233414   4.038   4.671   5.461  2.7609  0.7710  0.4258
 8412SOL    HW333415   4.025   4.732   5.599 -0.8882  0.3940  0.3479
 8412SOL    MW433416   4.022   4.739   5.512  0.2375  0.3689  0.2881
 8413SOL     OW33417   6.012   3.166   5.667  0.3243  0.1548  0.4387
 8413SOL    HW233418   6.012   3.072   5.683 -0.2103  0.3909  2.0129
 8413SOL    HW333419   6.022   3.205   5.754 -1.7914  1.5682  0.1413
 8413SOL    MW433420   6.013   3.159   5.681 -0.0254  0.3724  0.6072
 8414SOL     OW33421   3.743   3.272   1.907 -1.0158  0.2473  0.7448
 8414SOL    HW233422   3.821   3.220   1.889 -0.3769  1.9773 -2.2027
 8414SOL    HW333423   3.683   3.211   1.950  0.8439 -1.9788  0.3943
 8414SOL    MW433424   3.746   3.257   1.910 -0.6862  0.1819  0.3097
 8415SOL     OW33425   2.550   4.992   4.664  0.4426 -0.5409 -0.3033
 8415SOL    HW233426   2.527   4.902   4.685 -0.4010  0.0969  1.6709
 8415SOL    HW333427   2.467   5.032   4.637  0.3023  0.2562  1.2225
 8415SOL    MW433428   2.536   4.985   4.663  0.3128 -0.3516  0.1585
 8416SOL     OW33429   5.935   2.104   3.387  0.0782 -0.5270  0.6675
 8416SOL    HW233430   5.858   2.065   3.346 -1.1542  0.6790  1.7127
 8416SOL    HW333431   5.992   2.030   3.408 -1.0795 -1.5174  0.4214
 8416SOL    MW433432   5.933   2.089   3.385 -0.2372 -0.4986  0.7730
 8417SOL     OW33433   4.745   2.312   4.374  0.3555  0.1862 -0.4153
 8417SOL    HW233434   4.663   2.360   4.384 -0.2671 -1.2824  2.5625
 8417SOL    HW333435   4.729   2.253   4.300 -1.3124 -0.0636  0.1125
 8417SOL    MW433436   4.732   2.310   4.365  0.0533 -0.0405  0.0472
 8418SOL     OW33437   1.464   2.862   1.518  0.1574 -0.2271  0.7955
 8418SOL    HW233438   1.380   2.907   1.506 -0.7983 -2.1413 -0.1222
 8418SOL    HW333439   1.498   2.851   1.429  1.0737 -0.0864  1.1118
 8418SOL    MW433440   1.458   2.867   1.505  0.1522 -0.4611  0.7162
 8419SOL     OW33441   0.853   3.960   1.557  0.5733  0.1129 -0.1404
 8419SOL    HW233442   0.777   3.980   1.503 -0.2598 -0.4749  0.7859
 8419SOL    HW333443   0.852   4.027   1.625  0.9607  0.1757 -0.1950
 8419SOL    MW433444   0.843   3.972   1.559  0.5145  0.0436 -0.0254
 8420SOL     OW33445   4.360   2.142   3.895  0.4210 -0.4610  0.0344
 8420SOL    HW233446   4.313   2.139   3.811  0.8307  1.7028 -0.3246
 8420SOL    HW333447   4.295   2.113   3.959 -0.1451 -1.3851 -0.9282
 8420SOL    MW433448   4.345   2.138   3.892  0.4003 -0.2974 -0.1399
 8421SOL     OW33449   5.662   3.611   2.518 -0.7060  0.2292  0.6895
 8421SOL    HW233450   5.732   3.624   2.453 -0.6367 -1.5562  0.3443
 8421SOL    HW333451   5.613   3.536   2.485 -2.5376  1.1677  1.1667
 8421SOL    MW433452   5.665   3.602   2.505 -0.9385  0.1175  0.7069
 8422SOL     OW33453   1.727   0.453   3.908 -0.2113 -0.5702  0.6097
 8422SOL    HW233454   1.816   0.420   3.912 -0.2465 -0.5284  3.1012
 8422SOL    HW333455   1.735   0.547   3.920 -0.5205 -0.3314 -0.8142
 8422SOL    MW433456   1.740   0.461   3.910 -0.2568 -0.5332  0.7505
 8423SOL     OW33457   2.383   1.023   6.018  0.6596 -0.6481 -0.1082
 8423SOL    HW233458   2.345   0.961   6.080  3.0862 -0.2289  1.9629
 8423SOL    HW333459   2.322   1.024   5.944 -1.9582 -1.7987  1.8888
 8423SOL    MW433460   2.370   1.015   6.016  0.6344 -0.7446  0.4285
 8424SOL     OW33461   6.394   5.278   1.612  0.3564  0.0661 -0.2346
 8424SOL    HW233462   6.369   5.199   1.564  0.3246 -0.9695  1.4018
 8424SOL    HW333463   6.316   5.300   1.664  0.3598  1.2093 -0.6870
 8424SOL    MW433464   6.380   5.270   1.612  0.3527  0.0803 -0.0784
 8425SOL     OW33465   5.946   1.364   4.131  0.0239 -0.1775  0.1164
 8425SOL    HW233466   5.894   1.440   4.102 -1.3498 -0.6865  1.1485
 8425SOL    HW333467   6.013   1.354   4.063 -1.7582 -0.0252 -1.7741
 8425SOL    MW433468   5.948   1.373   4.118 -0.3925 -0.2246  0.0032
 8426SOL     OW33469   1.524   2.193   6.250  0.5560  0.3340  0.2503
 8426SOL    HW233470   1.563   2.144   6.322  0.0070 -1.4698 -0.6110
 8426SOL    HW333471   1.504   2.126   6.184 -3.6196  1.1234  0.4555
 8426SOL    MW433472   1.526   2.178   6.251 -0.0674  0.2002  0.1638
 8427SOL     OW33473   5.222   5.574   5.573 -0.2991 -0.5215 -0.1621
 8427SOL    HW233474   5.273   5.581   5.492 -0.6408  0.2494 -0.3187
 8427SOL    HW333475   5.134   5.603   5.549 -0.0776  1.0533  0.7795
 8427SOL    MW433476   5.217   5.579   5.559 -0.3149 -0.2120 -0.0585
 8428SOL     OW33477   2.195   0.982   5.804 -0.5856  0.1728 -0.1501
 8428SOL    HW233478   2.190   1.032   5.723 -0.9717  0.8852  0.3012
 8428SOL    HW333479   2.111   0.999   5.848  0.9789  2.7918  2.1043
 8428SOL    MW433480   2.183   0.991   5.799 -0.4301  0.6123  0.2069
 8429SOL     OW33481   2.643   6.303   4.530 -0.3843  0.4138 -0.0237
 8429SOL    HW233482   2.672   6.217   4.502 -1.6811  0.6712 -2.4822
 8429SOL    HW333483   2.660   6.360   4.455 -3.6605  1.3016 -0.2644
 8429SOL    MW433484   2.649   6.299   4.516 -0.9876  0.5649 -0.3798
 8430SOL     OW33485   1.266   2.114   0.757  0.2229  0.3557 -0.0888
 8430SOL    HW233486   1.181   2.092   0.720 -0.2510  1.1059  0.5301
 8430SOL    HW333487   1.285   2.043   0.818  0.2825 -0.0625 -0.5779
 8430SOL    MW433488   1.257   2.102   0.760  0.1682  0.3995 -0.0717
 8431SOL     OW33489   0.461   4.077   3.635 -0.4323 -0.6160 -0.1989
 8431SOL    HW233490   0.509   4.156   3.659 -2.6717  0.9754 -0.6259
 8431SOL    HW333491   0.516   4.034   3.569  0.8478  0.5519  0.0797
 8431SOL    MW433492   0.474   4.082   3.629 -0.5589 -0.2520 -0.2185
 8432SOL     OW33493   1.257   5.030   0.425 -0.1176  0.0907 -0.0751
 8432SOL    HW233494   1.292   5.019   0.514 -1.0338  0.1904  0.3062
 8432SOL    HW333495   1.186   4.966   0.420 -1.6549  1.6953  0.1141
 8432SOL    MW433496   1.252   5.020   0.436 -0.4413  0.3156  0.0002
 8433SOL     OW33497   2.189   2.103   2.334 -0.3347  0.0929  0.7412
 8433SOL    HW233498   2.225   2.122   2.421 -1.9579  1.3204  1.1935
 8433SOL    HW333499   2.101   2.140   2.336 -1.7359 -2.8580 -0.2596
 8433SOL    MW433500   2.182   2.110   2.346 -0.7337 -0.1345  0.6688
 8434SOL     OW33501   4.724   5.865   0.838  0.1926 -0.4632  0.2233
 8434SOL    HW233502   4.811   5.900   0.822 -0.1990  0.3119 -0.2866
 8434SOL    HW333503   4.721   5.783   0.790 -0.2887  0.8613 -2.1992
 8434SOL    MW433504   4.735   5.859   0.830  0.0774 -0.1862 -0.1636
 8435SOL     OW33505   1.067   4.213   1.860 -0.3810 -0.1505 -0.3481
 8435SOL    HW233506   1.075   4.117   1.854 -1.2158 -0.2764  0.3481
 8435SOL    HW333507   1.014   4.237   1.783 -1.0117 -0.3718  0.0071
 8435SOL    MW433508   1.061   4.203   1.849 -0.5743 -0.1963 -0.2094
 8436SOL     OW33509   2.959   4.532   3.499  0.0261 -0.0085 -0.1569
 8436SOL    HW233510   2.906   4.579   3.434 -0.3506 -0.1307  0.0621
 8436SOL    HW333511   3.023   4.596   3.528 -0.5494  0.4113  0.2128
 8436SOL    MW433512   2.960   4.547   3.494 -0.0995  0.0308 -0.0792
 8437SOL     OW33513   2.035   0.873   4.324 -0.2681  0.2662  0.6664
 8437SOL    HW233514   1.951   0.845   4.360 -0.0522 -1.2901  0.0197
 8437SOL    HW333515   2.097   0.805   4.350  0.4467  0.5086 -0.3128
 8437SOL    MW433516   2.032   0.861   4.332 -0.1453  0.0928  0.4519
 8438SOL     OW33517   3.607   1.090   3.237  0.5599  0.5510 -0.2410
 8438SOL    HW233518   3.682   1.129   3.191  0.8860 -0.5218 -0.6482
 8438SOL    HW333519   3.613   1.124   3.326  2.6462 -0.9667  0.2578
 8438SOL    MW433520   3.618   1.100   3.243  0.8782  0.2092 -0.2289
 8439SOL     OW33521   4.984   2.484   4.342  0.1734  0.2255  0.0209
 8439SOL    HW233522   4.907   2.433   4.367  0.0254  0.9996  1.3004
 8439SOL    HW333523   4.961   2.524   4.258  0.3935 -1.9355 -1.1307
 8439SOL    MW433524   4.971   2.483   4.335  0.1829  0.0425  0.0378
 8440SOL     OW33525   0.680   2.174   0.277 -0.2174  0.4256  0.1836
 8440SOL    HW233526   0.660   2.118   0.202  3.9506 -0.7896 -0.3129
 8440SOL    HW333527   0.648   2.126   0.353 -0.8072 -0.3489 -0.5387
 8440SOL    MW433528   0.673   2.160   0.277  0.2547  0.1631  0.0228
 8441SOL     OW33529   1.957   0.228   4.846 -0.0562  0.4663 -0.2526
 8441SOL    HW233530   1.973   0.315   4.808  1.3544  0.2337 -0.2436
 8441SOL    HW333531   2.014   0.224   4.923 -1.2506  0.0930  0.6441
 8441SOL    MW433532   1.966   0.239   4.851 -0.0277  0.3863 -0.1331
 8442SOL     OW33533   2.906   3.765   4.478 -0.0996  0.1768 -0.7192
 8442SOL    HW233534   2.812   3.781   4.473  0.0611  0.8806 -1.7350
 8442SOL    HW333535   2.941   3.802   4.397  0.7544 -2.1440 -1.5052
 8442SOL    MW433536   2.898   3.772   4.467  0.0343 -0.0365 -0.9569
 8443SOL     OW33537   4.196   2.170   3.653  0.3357 -0.5994 -0.2001
 8443SOL    HW233538   4.101   2.166   3.660  0.1990  1.2829 -0.3230
 8443SOL    HW333539   4.224   2.080   3.637 -1.4985 -1.0440 -1.1055
 8443SOL    MW433540   4.187   2.158   3.652  0.0757 -0.4097 -0.3358
 8444SOL     OW33541   6.030   5.118   3.707 -0.7025  0.0254 -0.4854
 8444SOL    HW233542   5.960   5.063   3.670 -0.5759  0.9051 -2.1232
 8444SOL    HW333543   6.107   5.097   3.654 -0.5124  1.3257 -0.7549
 8444SOL    MW433544   6.031   5.108   3.695 -0.6607  0.3130 -0.7370
 8445SOL     OW33545   3.571   5.915   3.148  0.2843 -0.3087  0.4191
 8445SOL    HW233546   3.534   5.852   3.210 -0.9336 -1.1654 -1.1004
 8445SOL    HW333547   3.520   5.903   3.068  2.5815 -0.1501 -1.1913
 8445SOL    MW433548   3.560   5.905   3.146  0.4267 -0.4008  0.0061
 8446SOL     OW33549   5.461   4.103   1.198  0.1539 -0.2491  0.0244
 8446SOL    HW233550   5.490   4.152   1.121  0.1362 -0.6388 -0.2336
 8446SOL    HW333551   5.394   4.159   1.238 -1.0217 -0.7419 -1.1607
 8446SOL    MW433552   5.456   4.117   1.193 -0.0035 -0.3655 -0.1660
 8447SOL     OW33553   4.962   0.461   2.869 -0.4622  0.0053 -0.1311
 8447SOL    HW233554   4.957   0.549   2.907 -1.1943 -0.1541  0.1594
 8447SOL    HW333555   4.891   0.413   2.911  0.3108 -0.9033  0.1613
 8447SOL    MW433556   4.952   0.466   2.880 -0.4568 -0.1356 -0.0542
 8448SOL     OW33557   0.527   5.816   4.753 -0.6437 -0.1386  0.3780
 8448SOL    HW233558   0.537   5.900   4.799  1.3808 -0.1242  0.0225
 8448SOL    HW333559   0.498   5.840   4.665  1.4625  0.3887 -0.2324
 8448SOL    MW433560   0.524   5.830   4.748 -0.0987 -0.0672  0.2505
 8449SOL     OW33561   2.207   2.145   3.978  0.0826  0.0612 -0.0110
 8449SOL    HW233562   2.144   2.198   4.028  0.8429  1.6153 -0.6420
 8449SOL    HW333563   2.290   2.192   3.987  0.4794 -0.2591 -1.7839
 8449SOL    MW433564   2.209   2.158   3.986  0.2353  0.2240 -0.3281
 8450SOL     OW33565   3.782   4.489   2.212  0.4004 -0.6618  0.3000
 8450SOL    HW233566   3.741   4.525   2.290  0.6244 -2.9632  1.5809
 8450SOL    HW333567   3.760   4.550   2.142 -0.5434  1.0159  1.9835
 8450SOL    MW433568   3.774   4.502   2.213  0.3054 -0.7441  0.6911
 8451SOL     OW33569   1.649   4.619   3.208  0.1317  0.5683  0.2458
 8451SOL    HW233570   1.580   4.606   3.273 -1.0472 -0.6069 -1.1884
 8451SOL    HW333571   1.656   4.536   3.162  1.2508  1.2310 -0.8559
 8451SOL    MW433572   1.641   4.607   3.210  0.1238  0.5007 -0.0888
 8452SOL     OW33573   0.082   3.503   2.367 -0.1571 -0.1822 -0.0721
 8452SOL    HW233574   0.128   3.422   2.389 -2.1347 -1.6397 -1.0761
 8452SOL    HW333575   0.138   3.572   2.403  1.7576 -1.9427  0.5302
 8452SOL    MW433576   0.096   3.502   2.375 -0.1654 -0.6068 -0.1251
 8453SOL     OW33577   4.298   3.828   3.446  0.0531  0.1555  0.1720
 8453SOL    HW233578   4.209   3.805   3.421  0.7859 -1.4673 -1.1395
 8453SOL    HW333579   4.296   3.923   3.460 -1.9967  0.0549  0.7997
 8453SOL    MW433580   4.286   3.837   3.445 -0.1206 -0.0719  0.0818
 8454SOL     OW33581   4.421   4.956   5.064 -0.8757  0.2683 -0.5796
 8454SOL    HW233582   4.362   5.014   5.017 -1.1648  1.2680  0.9441
 8454SOL    HW333583   4.366   4.909   5.126 -0.3173  0.0647 -0.2203
 8454SOL    MW433584   4.406   4.957   5.066 -0.8402  0.3734 -0.3311
 8455SOL     OW33585   5.122   2.898   3.794 -0.6655 -0.2874  0.0626
 8455SOL    HW233586   5.144   2.814   3.754 -1.5043 -0.5958  0.2312
 8455SOL    HW333587   5.070   2.943   3.728 -1.2806 -0.4246  0.4400
 8455SOL    MW433588   5.118   2.893   3.780 -0.8573 -0.3462  0.1347
 8456SOL     OW33589   4.437   2.869   3.547 -0.0587  0.3881  0.9542
 8456SOL    HW233590   4.440   2.829   3.635 -0.8095  2.0392  1.7694
 8456SOL    HW333591   4.469   2.958   3.560 -0.3027  0.6926 -0.4444
 8456SOL    MW433592   4.442   2.875   3.560 -0.1900  0.6461  0.8772
 8457SOL     OW33593   1.675   1.072   3.754 -0.0926 -0.4033 -0.2498
 8457SOL    HW233594   1.725   1.045   3.677 -2.5233 -0.2072 -1.9993
 8457SOL    HW333595   1.624   0.995   3.778  1.0276 -0.6247  1.5482
 8457SOL    MW433596   1.675   1.059   3.747 -0.2655 -0.4067 -0.2434
 8458SOL     OW33597   5.369   0.567   5.346  0.2482 -0.2358  0.0779
 8458SOL    HW233598   5.372   0.593   5.438 -0.5806 -2.2027  0.7152
 8458SOL    HW333599   5.435   0.499   5.338  1.5261  1.0783 -1.2473
 8458SOL    MW433600   5.378   0.562   5.357  0.3074 -0.3219 -0.0128
 8459SOL     OW33601   0.857   1.426   2.806  1.1243  0.6305  0.5581
 8459SOL    HW233602   0.915   1.353   2.785  0.6017 -0.0633  1.4366
 8459SOL    HW333603   0.770   1.395   2.784  0.7396  0.4495  2.1751
 8459SOL    MW433604   0.854   1.412   2.801  1.0046  0.5151  0.8874
 8460SOL     OW33605   6.135   1.702   2.946 -0.3209 -0.7795 -0.6561
 8460SOL    HW233606   6.064   1.742   2.896 -1.2823  0.1332  1.3273
 8460SOL    HW333607   6.094   1.627   2.991 -0.8056  1.1710  2.4594
 8460SOL    MW433608   6.120   1.697   2.946 -0.5117 -0.4018  0.0166
 8461SOL     OW33609   5.504   4.204   0.942  0.1926  0.6888  0.1547
 8461SOL    HW233610   5.412   4.186   0.964  0.9143 -1.9031  1.4428
 8461SOL    HW333611   5.539   4.119   0.916  2.3647  1.5141  0.1882
 8461SOL    MW433612   5.496   4.191   0.942  0.5744  0.4557  0.3291
 8462SOL     OW33613   1.771   5.607   0.720  0.2352  0.1206  0.2332
 8462SOL    HW233614   1.842   5.670   0.733  0.6611 -0.1644 -0.6500
 8462SOL    HW333615   1.708   5.653   0.665 -0.8944  0.8269  2.0540
 8462SOL    MW433616   1.772   5.621   0.714  0.1424  0.1762  0.3569
 8463SOL     OW33617   0.621   5.371   1.268  0.0756  0.3407 -0.2470
 8463SOL    HW233618   0.686   5.300   1.260 -0.9801 -0.5921 -0.8138
 8463SOL    HW333619   0.540   5.326   1.291 -0.8779  1.2347 -1.7417
 8463SOL    MW433620   0.619   5.356   1.270 -0.1895  0.3356 -0.5190
 8464SOL     OW33621   5.217   1.102   0.863  0.2623 -0.2561 -0.0478
 8464SOL    HW233622   5.271   1.177   0.890 -0.7199  0.9647 -1.3257
 8464SOL    HW333623   5.184   1.127   0.777 -3.0027 -0.5720  0.9990
 8464SOL    MW433624   5.220   1.115   0.855 -0.2981 -0.1367 -0.0783
 8465SOL     OW33625   1.969   3.710   5.679 -0.0757 -0.4698  0.4367
 8465SOL    HW233626   1.943   3.673   5.595 -1.0702  0.6367  0.2270
 8465SOL    HW333627   2.064   3.718   5.673 -0.1948  0.2357 -0.8815
 8465SOL    MW433628   1.978   3.706   5.667 -0.2226 -0.2308  0.2351
 8466SOL     OW33629   0.095   6.042   0.194  0.2342 -0.0694 -0.4185
 8466SOL    HW233630   0.152   5.969   0.218  2.0157  0.6840 -2.0780
 8466SOL    HW333631   0.025   6.001   0.143 -0.5396 -0.9565  1.2787
 8466SOL    MW433632   0.093   6.027   0.191  0.3671 -0.0870 -0.4135
 8467SOL     OW33633   0.547   1.763   2.335 -0.3301 -0.0888  0.2373
 8467SOL    HW233634   0.634   1.799   2.317 -0.9347  1.2529 -0.0699
 8467SOL    HW333635   0.490   1.839   2.340 -1.6989 -1.0060 -0.6956
 8467SOL    MW433636   0.551   1.778   2.333 -0.5904 -0.0328  0.0737
 8468SOL     OW33637   5.765   1.102   3.877 -0.1878  0.4786 -0.1679
 8468SOL    HW233638   5.687   1.140   3.919  0.1429  2.4223 -1.1920
 8468SOL    HW333639   5.796   1.171   3.819  0.0382 -1.7019 -2.7841
 8468SOL    MW433640   5.759   1.116   3.875 -0.1144  0.4473 -0.6482
 8469SOL     OW33641   0.829   4.078   5.665  0.2040 -0.1842 -0.3128
 8469SOL    HW233642   0.887   4.114   5.599 -0.7523 -0.8936 -1.5877
 8469SOL    HW333643   0.746   4.065   5.619 -0.5011 -0.6509  1.0455
 8469SOL    MW433644   0.825   4.081   5.650 -0.0152 -0.3394 -0.3018
 8470SOL     OW33645   3.105   2.120   4.894  0.6633 -0.6789 -0.0330
 8470SOL    HW233646   3.059   2.193   4.934  0.0858 -0.5016 -0.9958
 8470SOL    HW333647   3.036   2.061   4.864  1.1107 -1.3539  0.2258
 8470SOL    MW433648   3.090   2.122   4.896  0.6461 -0.7445 -0.1259
 8471SOL     OW33649   4.876   3.183   5.012 -0.5571 -0.8117  0.0442
 8471SOL    HW233650   4.864   3.103   5.062 -1.9847 -0.1068  0.8907
 8471SOL    HW333651   4.910   3.154   4.927  2.2561 -2.0040  1.4511
 8471SOL    MW433652   4.879   3.169   5.007 -0.3743 -0.8760  0.3415
 8472SOL     OW33653   6.411   4.164   4.102 -0.6139  0.8316 -0.5481
 8472SOL    HW233654   6.407   4.101   4.030  0.5307 -0.7432  0.7091
 8472SOL    HW333655   6.502   4.193   4.103 -1.1420  2.6522 -1.1709
 8472SOL    MW433656   6.423   4.160   4.093 -0.5326  0.8640 -0.4644
 8473SOL     OW33657   1.993   4.533   2.358  1.2217  0.0982 -0.0335
 8473SOL    HW233658   1.898   4.544   2.356  1.1721 -0.3876 -1.8680
 8473SOL    HW333659   2.026   4.620   2.383  0.3128  0.3035  0.5202
 8473SOL    MW433660   1.985   4.546   2.361  1.0952  0.0612 -0.2025
 8474SOL     OW33661   1.917   4.250   6.053  0.5928  0.2235 -0.8063
 8474SOL    HW233662   2.001   4.249   6.099  0.5585  1.2533 -0.7051
 8474SOL    HW333663   1.873   4.171   6.083  0.8011  0.5853  0.5260
 8474SOL    MW433664   1.923   4.239   6.063  0.6158  0.4071 -0.6171
 8475SOL     OW33665   5.315   2.409   2.716 -0.1049  0.1437 -0.2732
 8475SOL    HW233666   5.392   2.460   2.741  0.6299 -0.5962 -0.9616
 8475SOL    HW333667   5.291   2.444   2.630  0.7138 -0.9711 -0.9849
 8475SOL    MW433668   5.322   2.420   2.708  0.1000 -0.1010 -0.4580
 8476SOL     OW33669   2.317   2.491   2.094  0.2713  0.1855  0.2825
 8476SOL    HW233670   2.273   2.473   2.177  2.5878 -1.0327  1.3451
 8476SOL    HW333671   2.247   2.493   2.029 -1.3571 -1.6817  1.8467
 8476SOL    MW433672   2.302   2.489   2.096  0.3621 -0.2216  0.6291
 8477SOL     OW33673   3.782   3.653   4.674  0.1083 -0.4078  0.0173
 8477SOL    HW233674   3.755   3.622   4.588  1.4517  0.9284 -0.9388
 8477SOL    HW333675   3.772   3.748   4.670  0.4352 -0.2974  1.2506
 8477SOL    MW433676   3.777   3.661   4.662  0.3287 -0.2169  0.0538
 8478SOL     OW33677   1.711   4.006   4.637  0.0175 -0.1943  0.1704
 8478SOL    HW233678   1.736   4.070   4.704 -0.9012 -1.7742  2.1027
 8478SOL    HW333679   1.793   3.964   4.613  0.4621  0.8859 -0.2681
 8478SOL    MW433680   1.725   4.009   4.643 -0.0451 -0.2602  0.3675
 8479SOL     OW33681   6.415   5.379   4.454  0.0353  0.2885  0.0292
 8479SOL    HW233682   6.336   5.394   4.505  0.0122  1.9889 -0.4199
 8479SOL    HW333683   6.388   5.392   4.363  0.8411  1.1052 -0.1175
 8479SOL    MW433684   6.401   5.383   4.448  0.1385  0.6206 -0.0494
 8480SOL     OW33685   4.908   0.031   3.610 -0.5049 -0.0825 -0.0511
 8480SOL    HW233686   4.985   0.059   3.560  0.7016 -1.8277  0.7460
 8480SOL    HW333687   4.914   0.079   3.693 -0.6442  0.2586 -0.2347
 8480SOL    MW433688   4.919   0.041   3.614 -0.3641 -0.2677  0.0298
 8481SOL     OW33689   4.312   4.093   1.569  1.3221 -0.7597 -0.0780
 8481SOL    HW233690   4.302   4.053   1.482  1.8577  0.0564 -0.5247
 8481SOL    HW333691   4.297   4.021   1.630 -0.4091 -1.0675 -0.8111
 8481SOL    MW433692   4.309   4.078   1.565  1.1643 -0.6926 -0.2337
 8482SOL     OW33693   0.565   4.354   4.440  0.0125  0.1900 -0.3145
 8482SOL    HW233694   0.482   4.395   4.462  0.9333  0.9964  1.9500
 8482SOL    HW333695   0.630   4.400   4.494  1.4353 -2.6868  0.6091
 8482SOL    MW433696   0.563   4.366   4.450  0.3217 -0.0832  0.1062
 8483SOL     OW33697   0.142   0.594   1.584 -0.1605 -0.4877 -0.8112
 8483SOL    HW233698   0.119   0.640   1.664 -0.4937 -1.2023 -0.4872
 8483SOL    HW333699   0.137   0.501   1.607  0.7136 -0.6931 -1.3899
 8483SOL    MW433700   0.139   0.587   1.597 -0.0891 -0.6091 -0.8448
 8484SOL     OW33701   1.870   6.337   0.799  0.0669  0.3057  0.0148
 8484SOL    HW233702   1.954   6.355   0.757  1.2055 -2.5908  0.8011
 8484SOL    HW333703   1.805   6.368   0.737  1.6636  2.2356 -0.8150
 8484SOL    MW433704   1.873   6.344   0.786  0.4278  0.1782  0.0090
 8485SOL     OW33705   3.527   2.151   5.349  0.0438  0.4822  0.5667
 8485SOL    HW233706   3.455   2.115   5.401 -0.9698  0.6568 -0.6618
 8485SOL    HW333707   3.588   2.078   5.338  0.3593  0.4904  2.1062
 8485SOL    MW433708   3.525   2.137   5.354 -0.0483  0.5063  0.6077
 8486SOL     OW33709   2.173   0.645   4.344  0.2269 -0.7031 -0.2423
 8486SOL    HW233710   2.172   0.555   4.376 -1.9349 -0.7630 -0.3366
 8486SOL    HW333711   2.150   0.638   4.252 -1.2097 -0.0056  0.0324
 8486SOL    MW433712   2.170   0.632   4.336 -0.2479 -0.6189 -0.2185
 8487SOL     OW33713   0.585   2.860   3.080 -0.0333  0.5003 -0.8509
 8487SOL    HW233714   0.633   2.890   3.157  0.6375  1.1120 -1.4896
 8487SOL    HW333715   0.643   2.797   3.038 -0.8853 -0.7368 -0.2433
 8487SOL    MW433716   0.599   2.856   3.085 -0.0572  0.4178 -0.8550
 8488SOL     OW33717   3.890   3.930   1.769  0.2602 -0.3796 -0.2323
 8488SOL    HW233718   3.924   3.904   1.684 -2.2021 -1.2760 -1.0241
 8488SOL    HW333719   3.946   3.885   1.832  0.7371 -1.5099 -1.4155
 8488SOL    MW433720   3.902   3.921   1.766 -0.0018 -0.6470 -0.4929
 8489SOL     OW33721   2.107   4.947   4.147  0.5340 -0.2047 -0.7082
 8489SOL    HW233722   2.110   4.885   4.075  0.3990 -0.2991 -0.6313
 8489SOL    HW333723   2.024   4.992   4.137  0.1623 -0.7556 -0.1608
 8489SOL    MW433724   2.097   4.945   4.136  0.4672 -0.2899 -0.6259
 8490SOL     OW33725   1.202   2.963   1.466 -0.1381 -0.2271  0.2319
 8490SOL    HW233726   1.233   2.977   1.376 -2.4617  0.0692 -0.6016
 8490SOL    HW333727   1.220   3.046   1.511 -1.6987  0.7811 -0.8849
 8490SOL    MW433728   1.208   2.976   1.460 -0.6506 -0.0550 -0.0255
 8491SOL     OW33729   0.693   2.893   4.312 -0.3784  0.1629  0.0456
 8491SOL    HW233730   0.616   2.839   4.330  0.1882 -0.7528 -0.2056
 8491SOL    HW333731   0.702   2.891   4.216  0.5001 -0.5339  0.1285
 8491SOL    MW433732   0.684   2.886   4.301 -0.1877 -0.0499  0.0234
 8492SOL     OW33733   4.583   1.866   5.663 -0.7475 -0.4835 -0.0038
 8492SOL    HW233734   4.522   1.896   5.731 -0.7927  0.0682 -0.2849
 8492SOL    HW333735   4.527   1.817   5.602 -0.5750 -1.6972  0.7693
 8492SOL    MW433736   4.567   1.863   5.664 -0.7307 -0.5709  0.0611
 8493SOL     OW33737   1.421   4.989   2.520  0.5720  0.3335 -0.0729
 8493SOL    HW233738   1.479   4.990   2.596  0.5661  0.5977 -0.0687
 8493SOL    HW333739   1.474   5.028   2.450  0.6231 -0.0296 -0.2378
 8493SOL    MW433740   1.436   4.994   2.521  0.5780  0.3204 -0.0941
 8494SOL     OW33741   1.976   3.816   1.619 -0.4585 -0.4164 -0.1757
 8494SOL    HW233742   2.008   3.808   1.530  0.6768  2.3956 -0.1253
 8494SOL    HW333743   1.883   3.838   1.610  0.1111  1.9469 -0.8226
 8494SOL    MW433744   1.968   3.818   1.606 -0.2336  0.2665 -0.2544
 8495SOL     OW33745   3.965   3.092   1.060 -0.3060 -0.5164  0.1776
 8495SOL    HW233746   4.045   3.042   1.075  1.7786  2.2043 -1.0170
 8495SOL    HW333747   3.899   3.049   1.114  2.1743 -2.2897  2.0142
 8495SOL    MW433748   3.967   3.080   1.069  0.2963 -0.3914  0.2623
 8496SOL     OW33749   1.271   5.092   1.291  0.7169 -0.5625 -0.1962
 8496SOL    HW233750   1.357   5.071   1.328  1.3700  0.5320 -1.0329
 8496SOL    HW333751   1.241   5.010   1.252  1.1720 -1.0673  0.4838
 8496SOL    MW433752   1.278   5.078   1.291  0.8631 -0.4847 -0.2168
 8497SOL     OW33753   2.718   2.316   2.487  0.0040 -0.0907 -0.0252
 8497SOL    HW233754   2.781   2.251   2.457 -0.0561  0.8520 -2.4207
 8497SOL    HW333755   2.767   2.372   2.547  1.4052  0.4735 -1.6445
 8497SOL    MW433756   2.733   2.315   2.491  0.1809  0.1081 -0.5549
 8498SOL     OW33757   4.103   0.535   5.612 -0.2629 -0.0131 -0.1161
 8498SOL    HW233758   4.185   0.556   5.657 -0.2210 -1.0589  0.3192
 8498SOL    HW333759   4.059   0.620   5.602  0.0406  0.3331  1.2884
 8498SOL    MW433760   4.108   0.549   5.617 -0.2173 -0.1054  0.1267
 8499SOL     OW33761   1.587   1.935   3.354  0.3289 -0.2308  0.3706
 8499SOL    HW233762   1.544   1.989   3.419  1.1857 -0.0228  0.7796
 8499SOL    HW333763   1.653   1.885   3.403 -0.1715 -1.3521 -0.0604
 8499SOL    MW433764   1.590   1.935   3.369  0.3759 -0.3513  0.3677
 8500SOL     OW33765   1.713   1.991   2.410 -0.1375  0.4286  0.0155
 8500SOL    HW233766   1.653   1.941   2.466  1.3993 -0.9043  0.5528
 8500SOL    HW333767   1.760   2.048   2.471  0.5580 -0.0178 -0.0934
 8500SOL    MW433768   1.711   1.992   2.426  0.1570  0.1938  0.0720
 8501SOL     OW33769   4.734   4.982   5.388  0.7912 -0.3662  0.3248
 8501SOL    HW233770   4.806   5.022   5.340  0.2894 -1.7662 -1.7781
 8501SOL    HW333771   4.663   5.047   5.383  1.1598  0.0374  0.3054
 8501SOL    MW433772   4.734   4.996   5.381  0.7736 -0.4977  0.0448
 8502SOL     OW33773   1.428   5.444   4.488 -0.2785 -0.0548  0.2058
 8502SOL    HW233774   1.423   5.352   4.515 -0.1606  0.0228  0.4977
 8502SOL    HW333775   1.503   5.479   4.537  1.7131 -0.5979 -2.2256
 8502SOL    MW433776   1.437   5.436   4.498 -0.0001 -0.1162 -0.0765
 8503SOL     OW33777   3.899   0.474   6.411  0.2584 -0.6232  0.1887
 8503SOL    HW233778   3.824   0.475   6.353  0.5667 -1.0847 -0.2264
 8503SOL    HW333779   3.956   0.543   6.378  1.3254 -2.1293 -1.2835
 8503SOL    MW433780   3.897   0.483   6.399  0.4398 -0.8828 -0.0603
 8504SOL     OW33781   2.908   0.591   2.523 -0.2150 -0.2717  0.4734
 8504SOL    HW233782   2.913   0.575   2.429 -1.2055  1.6064  0.0488
 8504SOL    HW333783   2.980   0.653   2.540 -1.4168  1.1647  0.4924
 8504SOL    MW433784   2.918   0.597   2.513 -0.5042  0.1656  0.4199
 8505SOL     OW33785   6.014   2.824   3.011 -0.6566  0.9505 -0.3556
 8505SOL    HW233786   6.104   2.811   2.980 -1.2554 -1.5327 -1.3157
 8505SOL    HW333787   5.961   2.820   2.931 -1.7731  0.3319  0.3957
 8505SOL    MW433788   6.019   2.822   2.996 -0.8829  0.5412 -0.3831
 8506SOL     OW33789   6.069   5.165   0.108 -0.1747 -0.4756 -0.0626
 8506SOL    HW233790   6.135   5.234   0.119 -0.5954  0.3077 -2.0074
 8506SOL    HW333791   6.000   5.188   0.169 -0.4051  0.9979 -0.8281
 8506SOL    MW433792   6.069   5.177   0.118 -0.2606 -0.1778 -0.4202
 8507SOL     OW33793   6.256   6.255   1.498  0.8093 -0.3910  0.2388
 8507SOL    HW233794   6.163   6.270   1.512  0.8017 -1.1753  1.1517
 8507SOL    HW333795   6.296   6.277   1.582  1.2310 -1.7128  0.4030
 8507SOL    MW433796   6.249   6.260   1.511  0.8639 -0.6688  0.3809
 8508SOL     OW33797   1.346   3.580   0.498  0.2707 -0.2790  0.7361
 8508SOL    HW233798   1.289   3.601   0.424 -0.6255  0.9870  1.7454
 8508SOL    HW333799   1.420   3.640   0.488 -0.7240  1.1812  1.8285
 8508SOL    MW433800   1.348   3.591   0.487  0.0212  0.0807  1.0134
 8509SOL     OW33801   6.055   2.945   3.366  0.3167  0.6995 -0.1564
 8509SOL    HW233802   6.008   3.021   3.402 -1.1107 -0.0578 -0.3629
 8509SOL    HW333803   6.140   2.947   3.410 -0.8398  0.5982  2.2754
 8509SOL    MW433804   6.060   2.956   3.376 -0.0242  0.5862  0.1372
 8510SOL     OW33805   1.343   5.709   1.657  0.2906 -0.2751 -0.1548
 8510SOL    HW233806   1.287   5.665   1.592  0.1974 -0.7670  0.2588
 8510SOL    HW333807   1.360   5.795   1.618  0.8867 -0.8457 -1.2067
 8510SOL    MW433808   1.338   5.715   1.643  0.3569 -0.4153 -0.2390
 8511SOL     OW33809   1.311   1.227   3.267  0.0371 -0.0654  0.2373
 8511SOL    HW233810   1.268   1.256   3.187  1.1503 -1.5052 -0.9710
 8511SOL    HW333811   1.344   1.307   3.308  1.0377  0.5918 -1.7325
 8511SOL    MW433812   1.310   1.241   3.262  0.3160 -0.1687 -0.1820
 8512SOL     OW33813   2.010   5.426   3.945 -0.3270 -0.4943 -0.2893
 8512SOL    HW233814   2.040   5.336   3.935  0.1520 -0.7313  2.4707
 8512SOL    HW333815   1.953   5.441   3.870  1.5394 -2.2210 -2.1875
 8512SOL    MW433816   2.006   5.416   3.934 -0.0175 -0.7534 -0.1756
 8513SOL     OW33817   4.239   2.077   5.497 -0.6687  0.2345  0.6404
 8513SOL    HW233818   4.146   2.082   5.522 -0.5482 -0.7261  1.3665
 8513SOL    HW333819   4.279   2.151   5.542 -1.3566  1.7676 -1.1471
 8513SOL    MW433820   4.232   2.087   5.506 -0.7436  0.3100  0.5004
 8514SOL     OW33821   3.771   4.178   4.468 -0.0800 -0.2915 -0.1028
 8514SOL    HW233822   3.692   4.180   4.522  0.9223  0.7241  1.4301
 8514SOL    HW333823   3.751   4.233   4.393 -0.7032  0.3110  0.4897
 8514SOL    MW433824   3.758   4.185   4.465 -0.0300 -0.0780  0.1777
 8515SOL     OW33825   4.376   5.612   0.884 -0.1588  0.2919  0.1003
 8515SOL    HW233826   4.306   5.675   0.868  0.9323  1.3273 -0.7674
 8515SOL    HW333827   4.420   5.645   0.961  0.5940  0.7852 -0.5253
 8515SOL    MW433828   4.372   5.625   0.892  0.0845  0.4936 -0.0968
 8516SOL     OW33829   0.475   4.187   1.961  0.4854  0.2768  0.2535
 8516SOL    HW233830   0.439   4.244   2.028  1.1767  0.5854  0.3719
 8516SOL    HW333831   0.494   4.105   2.006  0.1341  0.1813  0.2339
 8516SOL    MW433832   0.473   4.184   1.975  0.5302  0.3049  0.2666
 8517SOL     OW33833   2.296   2.232   5.245 -0.2815 -0.1999 -0.2806
 8517SOL    HW233834   2.339   2.318   5.250 -0.5408 -0.0932  0.1848
 8517SOL    HW333835   2.206   2.248   5.276  0.1167 -0.9401  1.3691
 8517SOL    MW433836   2.290   2.245   5.250 -0.2632 -0.2835 -0.0015
 8518SOL     OW33837   1.588   4.285   0.681  0.1756  0.2640  0.6616
 8518SOL    HW233838   1.502   4.313   0.711 -0.7331 -1.3689 -0.2738
 8518SOL    HW333839   1.623   4.360   0.633 -1.9894  0.0272 -1.4701
 8518SOL    MW433840   1.581   4.298   0.679 -0.2300  0.0173  0.2569
 8519SOL     OW33841   5.432   4.977   1.146 -0.3253 -0.0111  0.3939
 8519SOL    HW233842   5.415   5.056   1.095 -0.4653 -0.0030  0.4551
 8519SOL    HW333843   5.448   4.909   1.080  1.1893  0.3678  0.3331
 8519SOL    MW433844   5.432   4.978   1.131 -0.1439  0.0400  0.3939
 8520SOL     OW33845   4.285   6.192   0.563 -0.1244  0.3370  0.2385
 8520SOL    HW233846   4.322   6.277   0.587  0.1896 -0.1218  1.4663
 8520SOL    HW333847   4.192   6.209   0.549 -0.0454  0.9023  0.3777
 8520SOL    MW433848   4.278   6.205   0.565 -0.0726  0.3510  0.4189
 8521SOL     OW33849   0.144   3.006   2.033  0.1043  0.4636 -0.4833
 8521SOL    HW233850   0.052   2.982   2.032  0.3811 -0.6284 -0.3067
 8521SOL    HW333851   0.190   2.928   2.064  1.1746  0.6859 -1.4051
 8521SOL    MW433852   0.138   2.993   2.037  0.2821  0.3489 -0.5816
 8522SOL     OW33853   0.168   3.575   2.842  0.0110 -0.3318  0.8177
 8522SOL    HW233854   0.231   3.647   2.847  0.0491 -0.1511 -1.1732
 8522SOL    HW333855   0.160   3.542   2.931  0.6954  1.5417  1.6061
 8522SOL    MW433856   0.175   3.580   2.854  0.1063 -0.0608  0.6590
 8523SOL     OW33857   1.188   4.939   4.497 -0.4999  0.4694  0.3521
 8523SOL    HW233858   1.280   4.923   4.477 -1.0611 -3.1985 -0.0702
 8523SOL    HW333859   1.173   4.894   4.580 -2.3561 -1.0724 -0.7359
 8523SOL    MW433860   1.198   4.931   4.505 -0.8189 -0.2180  0.1528
 8524SOL     OW33861   2.482   5.170   2.602 -0.2222  0.5590 -0.1298
 8524SOL    HW233862   2.546   5.239   2.582 -0.3904  0.3165 -1.6562
 8524SOL    HW333863   2.449   5.143   2.516  0.6219 -2.1647  0.3113
 8524SOL    MW433864   2.486   5.175   2.588 -0.1330  0.1676 -0.2730
 8525SOL     OW33865   3.797   0.983   4.887  0.2979 -0.2040  0.6272
 8525SOL    HW233866   3.871   0.936   4.849  0.3079  0.1410  0.2128
 8525SOL    HW333867   3.835   1.064   4.921 -0.0463  0.4808 -0.5518
 8525SOL    MW433868   3.812   0.987   4.886  0.2538 -0.0681  0.4170
 8526SOL     OW33869   5.198   6.091   0.741 -0.4121 -0.3063  0.5820
 8526SOL    HW233870   5.238   6.093   0.829 -0.4939 -0.6976  0.6267
 8526SOL    HW333871   5.114   6.048   0.754 -1.1955  1.1530  0.6218
 8526SOL    MW433872   5.192   6.086   0.755 -0.5263 -0.1654  0.5931
 8527SOL     OW33873   2.730   1.756   0.297 -0.5621 -0.2159 -0.3252
 8527SOL    HW233874   2.733   1.682   0.358  0.9049  0.7590  0.8749
 8527SOL    HW333875   2.820   1.790   0.298 -1.2802  1.7934 -0.5467
 8527SOL    MW433876   2.742   1.751   0.305 -0.4633  0.1778 -0.1961
 8528SOL     OW33877   1.350   4.563   2.813 -0.3092  0.1837 -0.2710
 8528SOL    HW233878   1.292   4.507   2.761 -1.4563  1.2380 -0.1786
 8528SOL    HW333879   1.354   4.646   2.765  0.6381  0.3441  0.0477
 8528SOL    MW433880   1.343   4.567   2.800 -0.3356  0.3439 -0.2168
 8529SOL     OW33881   2.212   5.579   5.848  0.2640  0.2310  0.2504
 8529SOL    HW233882   2.167   5.495   5.863 -0.4718  0.6243  0.2976
 8529SOL    HW333883   2.225   5.583   5.753 -0.2066  0.3174  0.1887
 8529SOL    MW433884   2.208   5.568   5.838  0.1049  0.2943  0.2485
 8530SOL     OW33885   4.380   0.040   4.108  0.2117  0.0971 -0.6679
 8530SOL    HW233886   4.422   0.115   4.064  0.1453  0.6975  0.2641
 8530SOL    HW333887   4.403   0.051   4.200  1.5174 -1.9172 -0.6885
 8530SOL    MW433888   4.389   0.052   4.114  0.3752 -0.0895 -0.5476
 8531SOL     OW33889   2.417   5.016   2.380 -0.1159  0.0890  0.0355
 8531SOL    HW233890   2.458   4.968   2.308 -1.4595 -0.5245 -0.3521
 8531SOL    HW333891   2.343   5.061   2.339 -0.6532  0.0633  0.9647
 8531SOL    MW433892   2.413   5.016   2.365 -0.3640  0.0047  0.1069
 8532SOL     OW33893   6.357   3.369   4.378 -0.1624 -0.4261  0.1322
 8532SOL    HW233894   6.437   3.416   4.402 -0.4186 -0.3292  0.8080
 8532SOL    HW333895   6.370   3.345   4.286  0.1676  0.5778 -0.0961
 8532SOL    MW433896   6.369   3.372   4.369 -0.1526 -0.2809  0.1912
 8533SOL     OW33897   2.735   1.877   3.114 -0.3416  0.4299 -0.1673
 8533SOL    HW233898   2.710   1.912   3.029 -0.6183  2.0601  0.5534
 8533SOL    HW333899   2.760   1.954   3.166 -0.5113 -0.4848  1.3409
 8533SOL    MW433900   2.735   1.892   3.110 -0.4005  0.5243  0.1268
 8534SOL     OW33901   6.350   5.359   2.573  0.2692  0.1808  0.4212
 8534SOL    HW233902   6.440   5.330   2.589  0.0312 -0.9068 -0.1490
 8534SOL    HW333903   6.296   5.283   2.596 -0.2697 -0.5338 -2.8213
 8534SOL    MW433904   6.355   5.345   2.578  0.1667 -0.0569 -0.0818
 8535SOL     OW33905   1.133   2.664   1.550  0.3574  0.8495 -0.4360
 8535SOL    HW233906   1.141   2.572   1.576  0.2197  0.1094 -2.7987
 8535SOL    HW333907   1.183   2.670   1.469 -0.9730  2.4943 -1.1746
 8535SOL    MW433908   1.141   2.652   1.543  0.1637  0.9689 -0.8452
 8536SOL     OW33909   0.495   4.738   6.190 -0.7202  0.0522 -0.5158
 8536SOL    HW233910   0.401   4.735   6.206 -0.9695 -0.2205 -1.8415
 8536SOL    HW333911   0.510   4.666   6.128  0.5214 -0.5144  0.4127
 8536SOL    MW433912   0.485   4.728   6.184 -0.5893 -0.0585 -0.5682
 8537SOL     OW33913   5.379   1.970   0.131 -0.4168 -0.3392 -0.0919
 8537SOL    HW233914   5.351   2.049   0.085  1.0800  0.2403 -0.0669
 8537SOL    HW333915   5.456   1.997   0.181 -0.1367 -1.7143  0.2668
 8537SOL    MW433916   5.386   1.984   0.132 -0.1824 -0.4442 -0.0413
 8538SOL     OW33917   2.668   5.370   3.760  0.1724  0.2995  0.6640
 8538SOL    HW233918   2.689   5.423   3.682 -0.7683 -0.3455 -0.0603
 8538SOL    HW333919   2.724   5.405   3.829  1.1954  0.7460 -0.3605
 8538SOL    MW433920   2.678   5.382   3.758  0.1832  0.2733  0.4333
 8539SOL     OW33921   0.212   6.129   1.575 -0.4434  0.0507 -0.6173
 8539SOL    HW233922   0.137   6.112   1.518 -0.6755 -0.2378 -0.2324
 8539SOL    HW333923   0.228   6.223   1.567 -1.3253  0.2482 -0.1253
 8539SOL    MW433924   0.204   6.140   1.567 -0.5904  0.0387 -0.5016
 8540SOL     OW33925   5.048   4.123   2.558  0.4427 -0.7751  0.1358
 8540SOL    HW233926   5.126   4.176   2.576 -2.0965  2.7004  2.2369
 8540SOL    HW333927   5.036   4.129   2.463  0.7223  1.9110  0.2063
 8540SOL    MW433928   5.057   4.131   2.548  0.1446  0.0379  0.4223
 8541SOL     OW33929   2.708   4.691   2.822 -0.0991  0.2243 -0.1622
 8541SOL    HW233930   2.693   4.665   2.731  1.3370  1.2835 -0.7348
 8541SOL    HW333931   2.664   4.776   2.830 -1.1897 -0.3774  0.4894
 8541SOL    MW433932   2.700   4.699   2.811 -0.0535  0.2847 -0.1517
 8542SOL     OW33933   6.370   4.773   5.456  0.3914 -0.7151  0.3922
 8542SOL    HW233934   6.340   4.810   5.373 -0.1077  0.3233  1.0038
 8542SOL    HW333935   6.328   4.687   5.461 -2.1107  0.4491  0.9504
 8542SOL    MW433936   6.361   4.767   5.446 -0.0045 -0.4245  0.5466
 8543SOL     OW33937   0.010   6.373   1.069  0.1113 -0.4547 -0.1711
 8543SOL    HW233938   0.090   6.425   1.076  1.3953 -2.5440  1.6782
 8543SOL    HW333939  -0.032   6.381   1.155 -2.0668  1.0755 -1.2787
 8543SOL    MW433940   0.015   6.381   1.081 -0.0066 -0.5285 -0.0733
 8544SOL     OW33941   3.717   5.265   5.401  0.3382 -0.2295 -0.2434
 8544SOL    HW233942   3.771   5.196   5.363  0.3251 -0.4804  0.1903
 8544SOL    HW333943   3.632   5.255   5.359 -0.1441 -1.4883  0.9405
 8544SOL    MW433944   3.713   5.255   5.391  0.2729 -0.4287 -0.0300
 8545SOL     OW33945   5.974   1.471   3.008 -0.4037  0.2117  0.0553
 8545SOL    HW233946   5.997   1.431   2.924 -0.6691 -0.9813  0.5262
 8545SOL    HW333947   5.881   1.451   3.020 -0.6390  1.2875  0.1541
 8545SOL    MW433948   5.964   1.463   2.999 -0.4697  0.1962  0.1305
 8546SOL     OW33949   1.582   2.028   4.822  0.0647  0.3442  0.1671
 8546SOL    HW233950   1.494   2.066   4.820 -0.0831 -0.0079 -0.4773
 8546SOL    HW333951   1.617   2.043   4.734  0.1287 -0.6877 -0.0038
 8546SOL    MW433952   1.575   2.035   4.810  0.0536  0.1616  0.0595
 8547SOL     OW33953   0.240   3.056   0.373 -0.3126 -0.4077  0.5596
 8547SOL    HW233954   0.206   3.036   0.286 -0.2524 -0.1557  0.4766
 8547SOL    HW333955   0.321   3.004   0.379  0.0668  0.1238  0.1803
 8547SOL    MW433956   0.246   3.046   0.363 -0.2546 -0.3043  0.4986
 8548SOL     OW33957   4.341   0.489   5.821 -0.0836 -0.2086  0.1283
 8548SOL    HW233958   4.430   0.520   5.805  0.4590 -1.9481 -0.4725
 8548SOL    HW333959   4.351   0.395   5.833 -1.8493 -0.4171  0.1555
 8548SOL    MW433960   4.354   0.481   5.821 -0.2450 -0.4656  0.0526
 8549SOL     OW33961   4.565   6.010   4.727  0.2614  0.5274 -0.3420
 8549SOL    HW233962   4.554   5.981   4.636 -0.6468 -1.3687  0.3225
 8549SOL    HW333963   4.482   6.052   4.749  0.3362  0.6392 -0.2733
 8549SOL    MW433964   4.553   6.012   4.718  0.1514  0.2920 -0.2453
 8550SOL     OW33965   4.215   4.883   3.421 -0.6526  0.1633  0.2941
 8550SOL    HW233966   4.256   4.940   3.355  0.7741 -0.2401  0.8032
 8550SOL    HW333967   4.144   4.936   3.457 -0.4800  0.9536 -0.4820
 8550SOL    MW433968   4.211   4.898   3.417 -0.4416  0.2144  0.2589
 8551SOL     OW33969   2.498   2.540   0.697  0.7386  0.4117 -0.7261
 8551SOL    HW233970   2.545   2.456   0.704  0.4317  0.1309 -1.8769
 8551SOL    HW333971   2.406   2.515   0.689  0.3655  0.9569  1.3132
 8551SOL    MW433972   2.492   2.525   0.697  0.6489  0.4466 -0.6089
 8552SOL     OW33973   5.527   0.967   2.340 -0.4216 -0.2885  0.0975
 8552SOL    HW233974   5.546   0.966   2.246 -2.3254 -0.0343 -0.3290
 8552SOL    HW333975   5.590   0.905   2.378  0.3850 -0.3865 -1.3241
 8552SOL    MW433976   5.538   0.959   2.333 -0.5664 -0.2679 -0.1463
 8553SOL     OW33977   2.493   5.559   2.517  0.5427  0.2866  0.1643
 8553SOL    HW233978   2.508   5.627   2.451  2.3499  1.3367  1.5502
 8553SOL    HW333979   2.455   5.606   2.591 -0.3417 -0.6624  0.3384
 8553SOL    MW433980   2.490   5.574   2.518  0.6644  0.3000  0.3702
 8554SOL     OW33981   2.233   3.693   0.986  0.7725 -0.8950 -0.4778
 8554SOL    HW233982   2.272   3.658   1.066 -0.1465 -1.1259 -0.1195
 8554SOL    HW333983   2.139   3.679   0.997  0.2243  2.4203  0.0665
 8554SOL    MW433984   2.226   3.686   0.998  0.5789 -0.4880 -0.3587
 8555SOL     OW33985   3.874   2.264   2.697 -0.1059 -0.9061  0.2863
 8555SOL    HW233986   3.921   2.206   2.757  0.2887 -2.2029 -1.2068
 8555SOL    HW333987   3.933   2.274   2.623 -0.2686  1.2786  0.4062
 8555SOL    MW433988   3.888   2.258   2.695 -0.0753 -0.7889  0.1051
 8556SOL     OW33989   2.020   5.966   5.152 -0.1784  0.2245 -0.3831
 8556SOL    HW233990   1.978   5.935   5.072  1.1455 -2.5342 -0.1280
 8556SOL    HW333991   1.989   5.906   5.220  1.7777 -0.0677  0.3409
 8556SOL    MW433992   2.011   5.954   5.150  0.2544 -0.1780 -0.2539
 8557SOL     OW33993   0.304   2.496   1.822  0.6601 -0.0023  0.4513
 8557SOL    HW233994   0.344   2.434   1.760 -0.4555 -0.1807 -0.1222
 8557SOL    HW333995   0.246   2.550   1.767 -0.8814 -0.6072  1.4088
 8557SOL    MW433996   0.302   2.495   1.807  0.3095 -0.1056  0.5020
 8558SOL     OW33997   3.441   0.727   2.516 -0.2669 -0.3122 -0.0457
 8558SOL    HW233998   3.514   0.723   2.453 -1.0183 -0.7029 -0.9229
 8558SOL    HW333999   3.472   0.678   2.592  0.7089  0.2638 -0.0532
 8558SOL    MW434000   3.455   0.720   2.517 -0.2373 -0.2878 -0.1625
 8559SOL     OW34001   2.248   1.578   2.343 -0.0736 -0.4179  0.7764
 8559SOL    HW234002   2.223   1.669   2.331  3.2509  0.4391 -0.6299
 8559SOL    HW334003   2.245   1.564   2.438 -2.0667  0.6087  0.9215
 8559SOL    MW434004   2.244   1.588   2.354  0.1021 -0.1694  0.6100
 8560SOL     OW34005   4.649   1.894   3.552  0.0819  0.6022 -0.4904
 8560SOL    HW234006   4.596   1.971   3.530  0.2563  0.5352 -1.1857
 8560SOL    HW334007   4.730   1.906   3.502  0.5328  0.4692  0.1942
 8560SOL    MW434008   4.653   1.906   3.542  0.1644  0.5758 -0.4918
 8561SOL     OW34009   6.160   1.424   6.283 -0.2220 -0.1727  0.4160
 8561SOL    HW234010   6.097   1.378   6.227 -0.5391 -0.0281  0.6485
 8561SOL    HW334011   6.227   1.456   6.222 -0.6978  0.2063  0.0814
 8561SOL    MW434012   6.160   1.422   6.267 -0.3266 -0.1036  0.4026
 8562SOL     OW34013   0.894   3.069   2.172  0.1837  0.7953  0.3150
 8562SOL    HW234014   0.920   2.987   2.130 -2.1063  0.2575 -0.1619
 8562SOL    HW334015   0.977   3.111   2.195  1.5042 -0.2533 -2.1031
 8562SOL    MW434016   0.908   3.064   2.169  0.0558  0.5860 -0.0669
 8563SOL     OW34017   0.826   4.691   4.798 -0.1012 -0.0291  0.7321
 8563SOL    HW234018   0.773   4.680   4.877  3.1181 -1.1620  2.9269
 8563SOL    HW334019   0.860   4.604   4.778  1.9197  0.7932  0.2461
 8563SOL    MW434020   0.824   4.678   4.806  0.5902 -0.0701  0.9576
 8564SOL     OW34021   5.956   0.367   5.648 -0.4630 -1.1033 -0.0344
 8564SOL    HW234022   6.034   0.406   5.686 -0.3927 -2.2739  1.0922
 8564SOL    HW334023   5.932   0.425   5.576  0.2597  0.3671  0.8775
 8564SOL    MW434024   5.963   0.380   5.643 -0.3583 -1.0637  0.2346
 8565SOL     OW34025   6.413   5.770   1.345 -0.1302  0.0748  0.2632
 8565SOL    HW234026   6.416   5.865   1.352  0.4520  0.1857 -1.2142
 8565SOL    HW334027   6.436   5.751   1.254 -3.4709 -1.3186 -0.4571
 8565SOL    MW434028   6.417   5.780   1.334 -0.4941 -0.0944 -0.0268
 8566SOL     OW34029   0.918   0.469   3.778 -0.6095 -0.4667  0.2640
 8566SOL    HW234030   0.951   0.552   3.813  0.5194 -0.7033 -0.1939
 8566SOL    HW334031   0.922   0.409   3.853 -0.8486 -0.2658  0.4395
 8566SOL    MW434032   0.923   0.472   3.793 -0.4921 -0.4714  0.2268
 8567SOL     OW34033   1.094   4.230   4.681 -0.2347  0.0257 -0.5921
 8567SOL    HW234034   1.154   4.170   4.725 -0.1456  0.5125 -0.0394
 8567SOL    HW334035   1.133   4.244   4.595 -0.4699 -1.0209 -0.8900
 8567SOL    MW434036   1.107   4.224   4.676 -0.2540 -0.0481 -0.5585
 8568SOL     OW34037   2.472   5.546   3.417 -0.4176  0.7043  0.5510
 8568SOL    HW234038   2.539   5.565   3.351 -2.6313 -0.8680 -2.4145
 8568SOL    HW334039   2.389   5.552   3.369 -2.2457 -0.1599  3.3503
 8568SOL    MW434040   2.470   5.550   3.402 -0.9509  0.3829  0.5291
 8569SOL     OW34041   5.617   1.591   5.558 -0.5258  0.1789  0.3566
 8569SOL    HW234042   5.543   1.532   5.567 -0.8955  0.3225 -1.3031
 8569SOL    HW334043   5.609   1.626   5.469 -0.8840  3.4624  1.5454
 8569SOL    MW434044   5.607   1.588   5.547 -0.6218  0.6311  0.2945
 8570SOL     OW34045   4.036   3.756   4.464 -0.1858 -0.3399 -0.0034
 8570SOL    HW234046   3.955   3.805   4.448 -0.0981  0.1782  1.0598
 8570SOL    HW334047   4.049   3.705   4.384 -1.5727 -0.4454 -0.1939
 8570SOL    MW434048   4.027   3.756   4.451 -0.3572 -0.2855  0.1117
 8571SOL     OW34049   0.670   4.634   4.576 -0.0541 -0.5076 -0.3889
 8571SOL    HW234050   0.671   4.714   4.524  0.7440  0.1403  0.5916
 8571SOL    HW334051   0.716   4.657   4.657  1.2555 -2.2802 -0.5782
 8571SOL    MW434052   0.676   4.648   4.580  0.2240 -0.6560 -0.2845
 8572SOL     OW34053   2.253   5.961   3.439 -0.6701  0.4039  0.4382
 8572SOL    HW234054   2.209   6.003   3.513  1.3598  2.7729  0.4405
 8572SOL    HW334055   2.315   5.901   3.478 -0.2248  0.9946  0.6547
 8572SOL    MW434056   2.255   5.959   3.454 -0.3435  0.7944  0.4671
 8573SOL     OW34057   1.249   5.044   3.175 -0.2106 -0.1543 -0.4932
 8573SOL    HW234058   1.324   5.092   3.208 -0.0908 -0.4851 -0.2840
 8573SOL    HW334059   1.255   5.053   3.079  2.0845 -3.0886 -0.7610
 8573SOL    MW434060   1.259   5.052   3.166  0.1080 -0.5851 -0.5009
 8574SOL     OW34061   5.972   2.662   1.736 -0.3615 -0.1496  0.0379
 8574SOL    HW234062   6.057   2.643   1.775 -0.5099  0.2049  0.5538
 8574SOL    HW334063   5.987   2.737   1.679 -0.0936 -0.8213 -0.7893
 8574SOL    MW434064   5.985   2.669   1.734 -0.3458 -0.1914 -0.0032
 8575SOL     OW34065   1.195   6.339   2.871  0.7040  0.4373 -0.2804
 8575SOL    HW234066   1.141   6.338   2.792  0.2688  0.3560  0.0167
 8575SOL    HW334067   1.284   6.327   2.839  0.3958 -1.0753 -0.6417
 8575SOL    MW434068   1.199   6.337   2.856  0.6059  0.2270 -0.2889
 8576SOL     OW34069   0.311   1.869   1.120 -0.6160  0.2146  0.2243
 8576SOL    HW234070   0.313   1.947   1.176  1.1948  1.8208 -1.8963
 8576SOL    HW334071   0.364   1.804   1.167 -2.1563  0.1699  2.0323
 8576SOL    MW434072   0.318   1.871   1.134 -0.5803  0.4206  0.1831
 8577SOL     OW34073   2.391   4.502   5.465  0.0271  0.0023  0.2307
 8577SOL    HW234074   2.347   4.433   5.515 -1.1901 -1.2062 -2.2949
 8577SOL    HW334075   2.351   4.498   5.378  0.9965  2.9297 -0.4751
 8577SOL    MW434076   2.380   4.492   5.460 -0.0056  0.2291 -0.1957
 8578SOL     OW34077   4.910   6.119   3.587  0.5142  0.0735 -0.1936
 8578SOL    HW234078   4.922   6.037   3.635 -1.8646  0.3458  1.0177
 8578SOL    HW334079   4.898   6.185   3.655  0.2137  1.0524 -1.1704
 8578SOL    MW434080   4.910   6.117   3.602  0.1607  0.2386 -0.1626
 8579SOL     OW34081   0.978   2.039   0.780 -0.0705  0.1260  0.4157
 8579SOL    HW234082   0.969   2.065   0.688  0.4096 -1.2304 -0.0333
 8579SOL    HW334083   0.892   2.004   0.803  0.0275 -0.2455  0.2360
 8579SOL    MW434084   0.966   2.038   0.771  0.0058 -0.1020  0.3328
 8580SOL     OW34085   3.399   5.016   6.113  0.0819 -0.2885  0.5553
 8580SOL    HW234086   3.398   5.080   6.041 -0.9875 -1.6070 -0.6572
 8580SOL    HW334087   3.468   5.047   6.171  2.1980 -0.1146 -1.8892
 8580SOL    MW434088   3.408   5.029   6.111  0.2200 -0.4395  0.0728
 8581SOL     OW34089   1.152   5.565   4.359 -0.2109 -0.0325 -0.1890
 8581SOL    HW234090   1.238   5.525   4.366 -0.3746 -0.2375  0.8383
 8581SOL    HW334091   1.128   5.586   4.449 -1.3673 -0.2573 -0.4316
 8581SOL    MW434092   1.160   5.563   4.372 -0.3851 -0.0892 -0.0855
 8582SOL     OW34093   4.361   5.604   3.544 -0.4146  0.5877  0.2339
 8582SOL    HW234094   4.455   5.603   3.528 -0.3053  0.0962  0.8876
 8582SOL    HW334095   4.352   5.631   3.636 -0.8383 -0.8341  0.6288
 8582SOL    MW434096   4.372   5.608   3.554 -0.4561  0.3353  0.3723
 8583SOL     OW34097   0.907   5.921   0.917 -0.5368 -0.3780 -0.3856
 8583SOL    HW234098   0.837   5.956   0.973 -0.4801 -0.1820 -0.4339
 8583SOL    HW334099   0.867   5.848   0.871 -1.1662  0.6462 -1.5267
 8583SOL    MW434100   0.893   5.916   0.918 -0.6123 -0.2170 -0.5425
 8584SOL     OW34101   1.186   4.554   3.229  0.1750  0.2173 -0.3356
 8584SOL    HW234102   1.144   4.485   3.178  0.5673  1.2357 -2.1160
 8584SOL    HW334103   1.113   4.607   3.262 -0.0625 -0.1378 -0.2902
 8584SOL    MW434104   1.171   4.552   3.227  0.1955  0.3048 -0.5645
 8585SOL     OW34105   1.879   4.506   3.394  0.8130 -0.1593  0.7854
 8585SOL    HW234106   1.848   4.464   3.474 -1.0271  0.6068  0.5379
 8585SOL    HW334107   1.828   4.587   3.389  1.4275  0.1668 -0.7802
 8585SOL    MW434108   1.868   4.511   3.404  0.6513 -0.0152  0.5462
 8586SOL     OW34109   3.200   0.765   3.897  0.0443 -0.0791 -0.1427
 8586SOL    HW234110   3.134   0.813   3.947  1.1579  0.6589  0.6901
 8586SOL    HW334111   3.213   0.817   3.818  0.5712  0.5242  0.3221
 8586SOL    MW434112   3.193   0.778   3.893  0.2607  0.0979  0.0285
 8587SOL     OW34113   3.761   3.587   0.762 -0.2726 -0.0811 -0.0907
 8587SOL    HW234114   3.852   3.614   0.753 -0.3979  0.8261  1.0753
 8587SOL    HW334115   3.757   3.500   0.722  1.1255 -0.1843 -0.0474
 8587SOL    MW434116   3.772   3.579   0.756 -0.1047  0.0250  0.0688
 8588SOL     OW34117   1.422   5.166   4.551  0.3215 -0.1194 -0.1042
 8588SOL    HW234118   1.499   5.153   4.495  0.7534  1.2579  0.1414
 8588SOL    HW334119   1.406   5.080   4.590  1.2360 -0.6134 -0.7810
 8588SOL    MW434120   1.430   5.153   4.549  0.4991 -0.0028 -0.1611
 8589SOL     OW34121   0.774   6.121   1.785  0.0919  0.1648  0.1914
 8589SOL    HW234122   0.717   6.152   1.855 -0.8739  3.9630 -2.0566
 8589SOL    HW334123   0.861   6.154   1.809 -0.5038  2.8213 -0.9872
 8589SOL    MW434124   0.778   6.129   1.798 -0.1141  1.0164 -0.2607
 8590SOL     OW34125   2.498   5.835   6.059 -0.0379 -0.3882 -0.0124
 8590SOL    HW234126   2.415   5.870   6.026  0.0906  1.3699  1.3868
 8590SOL    HW334127   2.559   5.843   5.986 -0.3516  1.1786 -0.1279
 8590SOL    MW434128   2.495   5.841   6.045 -0.0623  0.0505  0.1570
 8591SOL     OW34129   5.058   1.878   3.638 -0.3873 -0.3525 -0.1696
 8591SOL    HW234130   5.135   1.821   3.638 -1.3117 -1.6489  0.3934
 8591SOL    HW334131   5.077   1.944   3.706  0.2543 -0.6153 -0.0893
 8591SOL    MW434132   5.070   1.879   3.647 -0.4246 -0.5582 -0.0847
 8592SOL     OW34133   2.402   2.245   5.542  1.0155  0.4740 -0.4377
 8592SOL    HW234134   2.431   2.212   5.627 -2.1402 -0.6110  0.3775
 8592SOL    HW334135   2.340   2.315   5.564 -1.0014 -0.8220 -1.7133
 8592SOL    MW434136   2.397   2.250   5.556  0.3330  0.1598 -0.4984
 8593SOL     OW34137   4.733   2.138   3.185  0.0305 -0.6265 -0.6643
 8593SOL    HW234138   4.811   2.139   3.130  1.1065  0.5471  0.8161
 8593SOL    HW334139   4.676   2.204   3.146  0.6799  0.0273 -0.5182
 8593SOL    MW434140   4.736   2.147   3.172  0.2581 -0.3854 -0.4497
 8594SOL     OW34141   3.376   1.611   0.595  0.0187 -0.3202  0.4011
 8594SOL    HW234142   3.425   1.622   0.677 -0.6244 -0.2575  0.7860
 8594SOL    HW334143   3.358   1.701   0.567  1.0178 -0.3174 -0.3045
 8594SOL    MW434144   3.380   1.625   0.602  0.0657 -0.3115  0.3588
 8595SOL     OW34145   5.663   3.613   2.129  0.2226 -0.1548 -0.0258
 8595SOL    HW234146   5.650   3.656   2.044 -0.3987 -0.0742  0.1036
 8595SOL    HW334147   5.743   3.652   2.164 -1.2614  2.2351  0.8964
 8595SOL    MW434148   5.672   3.624   2.122 -0.0552  0.1712  0.1130
 8596SOL     OW34149   2.212   2.023   1.070 -0.4192 -0.1871  0.3227
 8596SOL    HW234150   2.183   2.060   0.987  1.1415 -0.6959 -0.4913
 8596SOL    HW334151   2.289   2.075   1.093  0.7278 -1.7271  0.0753
 8596SOL    MW434152   2.218   2.035   1.062 -0.0619 -0.4574  0.1827
 8597SOL     OW34153   3.055   6.298   1.932 -0.3778 -0.6262  0.5110
 8597SOL    HW234154   2.979   6.239   1.937  0.0595 -1.3160 -0.5492
 8597SOL    HW334155   3.049   6.336   1.844  0.8028 -1.1188  0.2029
 8597SOL    MW434156   3.044   6.295   1.921 -0.1643 -0.7822  0.3304
 8598SOL     OW34157   0.961   0.751   0.991 -0.6322 -0.0765 -0.2061
 8598SOL    HW234158   1.055   0.741   1.006 -0.9524 -0.5151  1.8792
 8598SOL    HW334159   0.944   0.705   0.909  0.8049 -1.0254 -0.0061
 8598SOL    MW434160   0.971   0.744   0.982 -0.4849 -0.2595  0.0954
 8599SOL     OW34161   1.974   5.714   3.681  0.6164  0.3742 -0.5419
 8599SOL    HW234162   1.919   5.765   3.740  2.4237  0.0872  1.5011
 8599SOL    HW334163   2.051   5.769   3.665  1.0088 -0.3180 -1.1154
 8599SOL    MW434164   1.977   5.728   3.687  0.9066  0.2450 -0.3480
 8600SOL     OW34165   6.281   2.173   0.714  0.1559  0.4857 -0.0161
 8600SOL    HW234166   6.347   2.186   0.782  0.3627  0.8826 -0.2920
 8600SOL    HW334167   6.300   2.240   0.648 -0.1719  0.2394 -0.3665
 8600SOL    MW434168   6.292   2.183   0.714  0.1400  0.5056 -0.0987
 8601SOL     OW34169   1.776   4.763   3.429 -0.0273 -0.2439 -0.2576
 8601SOL    HW234170   1.774   4.781   3.335  0.7537  1.7425  0.0550
 8601SOL    HW334171   1.689   4.789   3.460  0.2556  0.7276 -0.2165
 8601SOL    MW434172   1.764   4.769   3.421  0.1130  0.1464 -0.2110
 8602SOL     OW34173   0.794   2.700   1.571  0.1789 -0.2538 -0.0181
 8602SOL    HW234174   0.837   2.782   1.547 -1.0743  1.2376  2.4540
 8602SOL    HW334175   0.834   2.674   1.653 -1.0507 -0.8007  0.4423
 8602SOL    MW434176   0.805   2.708   1.578 -0.1487 -0.1292  0.3688
 8603SOL     OW34177   2.436   1.656   4.042  0.3233  0.2258 -0.4975
 8603SOL    HW234178   2.385   1.726   4.082 -0.0974 -0.5184  0.2951
 8603SOL    HW334179   2.393   1.638   3.959  0.2401  0.6774 -0.5535
 8603SOL    MW434180   2.424   1.663   4.037  0.2568  0.1872 -0.4003
 8604SOL     OW34181   4.513   1.090   0.300 -0.1243 -0.2198 -0.1526
 8604SOL    HW234182   4.454   1.115   0.229 -0.8069 -1.2549  0.0317
 8604SOL    HW334183   4.506   1.162   0.363  0.0314  0.4204 -0.8400
 8604SOL    MW434184   4.505   1.103   0.299 -0.1938 -0.2719 -0.2190
 8605SOL     OW34185   4.666   2.494   3.804 -0.3335 -0.2762 -0.8009
 8605SOL    HW234186   4.748   2.528   3.770 -0.5979 -0.0250 -1.1950
 8605SOL    HW334187   4.603   2.566   3.791 -0.4468 -0.1838  0.1861
 8605SOL    MW434188   4.668   2.508   3.798 -0.3834 -0.2309 -0.7227
 8606SOL     OW34189   1.888   2.166   0.359  0.4161 -0.1324 -0.0990
 8606SOL    HW234190   1.930   2.086   0.389 -0.9609 -0.8585 -0.0698
 8606SOL    HW334191   1.879   2.155   0.264  1.1471  0.4407 -0.2443
 8606SOL    MW434192   1.892   2.154   0.351  0.3309 -0.1526 -0.1143
 8607SOL     OW34193   3.824   0.017   1.362  0.1804 -0.9417 -0.3130
 8607SOL    HW234194   3.746  -0.015   1.318 -0.2039  0.8249 -1.0217
 8607SOL    HW334195   3.895   0.001   1.300 -0.1143  0.0991 -0.9559
 8607SOL    MW434196   3.823   0.011   1.348  0.0908 -0.5713 -0.4913
 8608SOL     OW34197   5.327   4.119   1.883 -0.5237 -0.2299  0.5592
 8608SOL    HW234198   5.390   4.047   1.880  0.8147  0.9165  0.1697
 8608SOL    HW334199   5.339   4.157   1.970  0.0742  0.6160  0.1208
 8608SOL    MW434200   5.337   4.115   1.894 -0.2682  0.0330  0.4500
 8609SOL     OW34201   1.958   5.876   4.473 -0.3021 -0.4065  0.1526
 8609SOL    HW234202   1.887   5.858   4.534  0.1638  1.7258  1.4414
 8609SOL    HW334203   2.037   5.848   4.518 -0.0611  0.1227  0.0722
 8609SOL    MW434204   1.959   5.870   4.487 -0.2088 -0.0553  0.3120
 8610SOL     OW34205   1.913   4.109   5.306  0.2484 -0.0863 -0.5602
 8610SOL    HW234206   1.848   4.063   5.359 -0.5464  0.7653 -0.7622
 8610SOL    HW334207   1.992   4.055   5.311  0.3073  0.0992  1.7382
 8610SOL    MW434208   1.915   4.096   5.314  0.1513  0.0505 -0.2836
 8611SOL     OW34209   2.765   3.189   5.645  0.0960  0.3754 -0.0080
 8611SOL    HW234210   2.778   3.128   5.572  2.2685 -0.2977  0.8755
 8611SOL    HW334211   2.674   3.176   5.671 -1.3325  1.8461 -3.6086
 8611SOL    MW434212   2.755   3.179   5.638  0.1942  0.4807 -0.3665
 8612SOL     OW34213   3.939   4.196   6.107  0.2621  0.1516  0.1458
 8612SOL    HW234214   3.876   4.210   6.179  0.3795 -0.4657  0.3739
 8612SOL    HW334215   4.014   4.153   6.149  0.1904 -0.5235 -0.3987
 8612SOL    MW434216   3.940   4.192   6.122  0.2681 -0.0190  0.1041
 8613SOL     OW34217   4.305   1.402   3.187 -0.1272 -0.4890 -0.3551
 8613SOL    HW234218   4.220   1.438   3.212 -0.0812 -0.7550  0.1958
 8613SOL    HW334219   4.321   1.332   3.250  0.5076 -0.4349 -0.4511
 8613SOL    MW434220   4.296   1.397   3.198 -0.0374 -0.5169 -0.2951
 8614SOL     OW34221   0.604   4.717   2.281  0.1358  0.0002 -0.3640
 8614SOL    HW234222   0.656   4.663   2.221 -1.7086 -1.3197 -0.8577
 8614SOL    HW334223   0.569   4.655   2.345 -1.6586  0.6277 -0.6696
 8614SOL    MW434224   0.606   4.701   2.281 -0.3443 -0.0912 -0.4694
 8615SOL     OW34225   3.517   4.128   4.273  0.1187  0.3373  0.1904
 8615SOL    HW234226   3.589   4.128   4.211 -0.4743  0.8512 -0.5207
 8615SOL    HW334227   3.481   4.216   4.268 -2.4741 -0.6786 -1.7913
 8615SOL    MW434228   3.522   4.139   4.264 -0.3017  0.2710 -0.1649
 8616SOL     OW34229   5.640   0.255   2.731  0.3438 -0.2028  0.0058
 8616SOL    HW234230   5.622   0.272   2.638  1.7029  0.1997 -0.2110
 8616SOL    HW334231   5.570   0.300   2.778  0.1242  0.3193 -0.8057
 8616SOL    MW434232   5.629   0.263   2.725  0.4941 -0.0808 -0.1298
 8617SOL     OW34233   5.013   0.611   2.189 -0.0455 -0.2926  0.2465
 8617SOL    HW234234   5.027   0.690   2.241  1.3005 -0.8325  0.7372
 8617SOL    HW334235   4.962   0.553   2.246  0.9474 -0.6637  0.7832
 8617SOL    MW434236   5.008   0.614   2.203  0.2631 -0.4128  0.3821
 8618SOL     OW34237   3.282   3.795   6.483  0.4393  0.0081 -0.2084
 8618SOL    HW234238   3.251   3.726   6.424  0.5016  1.2879 -1.8319
 8618SOL    HW334239   3.269   3.876   6.433  2.7064  0.9577  0.6194
 8618SOL    MW434240   3.276   3.797   6.469  0.7466  0.3022 -0.3134
 8619SOL     OW34241   1.425   2.536   4.209 -0.4885  0.0574 -0.1508
 8619SOL    HW234242   1.456   2.611   4.259  0.5360  0.4638 -1.3330
 8619SOL    HW334243   1.451   2.460   4.260  0.8360  0.4515 -0.2160
 8619SOL    MW434244   1.432   2.536   4.222 -0.1786  0.1630 -0.3154
 8620SOL     OW34245   0.055   2.517   0.993 -0.2422  0.1629  0.3352
 8620SOL    HW234246  -0.026   2.535   1.042 -0.1522  1.3142  0.0823
 8620SOL    HW334247   0.031   2.531   0.901  0.0568 -0.2515  0.1876
 8620SOL    MW434248   0.041   2.521   0.987 -0.1909  0.2601  0.2824
 8621SOL     OW34249   1.548   1.125   2.925  0.6400 -0.7113  0.2784
 8621SOL    HW234250   1.534   1.202   2.980 -0.8576 -0.3292 -0.5800
 8621SOL    HW334251   1.511   1.053   2.976 -1.3182 -0.2629 -0.4317
 8621SOL    MW434252   1.541   1.126   2.939  0.1841 -0.6017  0.0714
 8622SOL     OW34253   2.502   0.827   4.185 -0.8006  0.1977 -0.6251
 8622SOL    HW234254   2.569   0.895   4.188 -0.3664 -0.2354 -0.5141
 8622SOL    HW334255   2.507   0.784   4.270 -0.8455 -0.1901 -0.8162
 8622SOL    MW434256   2.511   0.831   4.197 -0.7493  0.0894 -0.6357
 8623SOL     OW34257   0.698   5.202   6.092  0.4132 -0.2849 -0.0406
 8623SOL    HW234258   0.673   5.285   6.134 -0.6289 -0.5355 -0.1201
 8623SOL    HW334259   0.698   5.221   5.999 -1.3206 -0.7002 -0.1739
 8623SOL    MW434260   0.694   5.215   6.086  0.0469 -0.3728 -0.0687
 8624SOL     OW34261   3.730   5.727   5.635  0.1422 -0.4097  0.4117
 8624SOL    HW234262   3.806   5.758   5.683  0.2710 -0.1499  0.0456
 8624SOL    HW334263   3.751   5.636   5.613  1.6902  0.4654 -2.2655
 8624SOL    MW434264   3.743   5.719   5.638  0.3634 -0.2600  0.0102
 8625SOL     OW34265   2.878   5.921   5.971 -0.3903 -0.0943  0.2051
 8625SOL    HW234266   2.962   5.891   5.938 -0.4796 -0.5407  0.3765
 8625SOL    HW334267   2.883   5.909   6.066  0.2969  2.2550  0.5170
 8625SOL    MW434268   2.890   5.916   5.979 -0.3114  0.1568  0.2688
 8626SOL     OW34269   5.919   3.405   2.004 -0.2497 -0.0523 -0.8213
 8626SOL    HW234270   5.977   3.382   2.077 -1.4140 -1.1084 -0.1586
 8626SOL    HW334271   5.910   3.323   1.954 -0.1667  0.4290 -1.6380
 8626SOL    MW434272   5.925   3.391   2.007 -0.3924 -0.1281 -0.8416
 8627SOL     OW34273   5.782   0.542   4.165  0.6784 -0.1816 -0.0001
 8627SOL    HW234274   5.774   0.477   4.095  1.1599 -0.9983  0.6850
 8627SOL    HW334275   5.692   0.568   4.184  0.3302 -1.7124  0.6644
 8627SOL    MW434276   5.769   0.537   4.158  0.6960 -0.4914  0.1780
 8628SOL     OW34277   2.246   5.649   5.588  0.1575 -0.0963 -0.1935
 8628SOL    HW234278   2.263   5.730   5.540  0.6864  0.1168  0.3484
 8628SOL    HW334279   2.151   5.647   5.599  0.2197  0.9571  0.6600
 8628SOL    MW434280   2.236   5.660   5.583  0.2355  0.0708 -0.0094
 8629SOL     OW34281   1.557   4.432   2.072  0.2077  0.3628 -0.2928
 8629SOL    HW234282   1.610   4.386   2.138  0.0297 -0.1044 -0.4679
 8629SOL    HW334283   1.489   4.368   2.048  1.0775 -0.0107 -1.9426
 8629SOL    MW434284   1.555   4.417   2.077  0.2990  0.2519 -0.5335
 8630SOL     OW34285   3.181   5.327   6.058 -0.0450 -0.2435  0.2475
 8630SOL    HW234286   3.251   5.371   6.107  1.8978 -1.2813 -1.4498
 8630SOL    HW334287   3.132   5.279   6.124  1.4986 -0.3238  1.3835
 8630SOL    MW434288   3.184   5.327   6.073  0.4150 -0.3910  0.1734
 8631SOL     OW34289   4.171   5.475   4.800  0.4918 -0.2900 -0.4616
 8631SOL    HW234290   4.145   5.397   4.752 -1.5850 -0.0491  0.1894
 8631SOL    HW334291   4.263   5.460   4.822  0.4371 -2.0511 -1.2579
 8631SOL    MW434292   4.180   5.463   4.797  0.2106 -0.4905 -0.4808
 8632SOL     OW34293   1.111   2.519   4.595 -0.4291 -0.5749 -0.0419
 8632SOL    HW234294   1.059   2.538   4.673  0.0621 -0.3612  0.2405
 8632SOL    HW334295   1.047   2.509   4.525 -0.8276  0.0894  0.2170
 8632SOL    MW434296   1.095   2.521   4.596 -0.4168 -0.4591  0.0295
 8633SOL     OW34297   3.424   0.200   4.643  0.3227  0.2954  0.4602
 8633SOL    HW234298   3.458   0.113   4.664 -0.3759  0.1886  1.1879
 8633SOL    HW334299   3.470   0.259   4.703 -2.5377 -0.1489  3.3224
 8633SOL    MW434300   3.435   0.197   4.653 -0.1469  0.2227  0.9339
 8634SOL     OW34301   2.496   3.074   3.986  0.3884 -0.5861  1.3284
 8634SOL    HW234302   2.531   3.162   3.995  2.2142 -1.1736  0.3639
 8634SOL    HW334303   2.495   3.040   4.076 -0.1670  0.3206  1.6852
 8634SOL    MW434304   2.500   3.081   3.999  0.5560 -0.5440  1.2483
 8635SOL     OW34305   0.720   1.972   1.487  0.3752 -0.1234 -0.3728
 8635SOL    HW234306   0.678   1.948   1.570 -1.0168  0.7058 -0.8102
 8635SOL    HW334307   0.796   1.915   1.482 -0.3887 -1.2990  0.7156
 8635SOL    MW434308   0.724   1.962   1.498  0.0907 -0.1691 -0.2869
 8636SOL     OW34309   5.218   5.437   1.413  0.2669  0.1266 -0.0524
 8636SOL    HW234310   5.187   5.352   1.446 -1.1245  0.5626 -0.1757
 8636SOL    HW334311   5.208   5.430   1.318  1.9238 -0.2336 -0.2156
 8636SOL    MW434312   5.212   5.425   1.405  0.3019  0.1366 -0.0902
 8637SOL     OW34313   5.357   2.378   1.197  0.2463 -0.0354  0.2671
 8637SOL    HW234314   5.442   2.353   1.235 -0.0553 -1.6154 -0.0338
 8637SOL    HW334315   5.325   2.448   1.255  1.5830  0.3551  0.5832
 8637SOL    MW434316   5.364   2.384   1.210  0.3828 -0.1924  0.2691
 8638SOL     OW34317   2.309   1.920   4.939 -0.0555  0.6609  0.1802
 8638SOL    HW234318   2.356   1.847   4.898  1.2831  1.2056  0.6821
 8638SOL    HW334319   2.330   1.914   5.032  0.9859  2.2758  0.1047
 8638SOL    MW434320   2.318   1.910   4.946  0.2585  0.9459  0.2364
 8639SOL     OW34321   1.835   2.069   4.137 -0.8900  0.5995 -0.0680
 8639SOL    HW234322   1.867   2.148   4.093  0.3539 -0.3188 -0.8617
 8639SOL    HW334323   1.860   2.081   4.228  0.8703  0.3620 -0.4913
 8639SOL    MW434324   1.842   2.081   4.143 -0.4936  0.4470 -0.2286
 8640SOL     OW34325   6.008   2.307   1.295  0.4592 -0.3474  0.4555
 8640SOL    HW234326   5.976   2.272   1.378  1.4536 -1.2339  0.4752
 8640SOL    HW334327   6.072   2.374   1.320 -1.3601  1.5187  0.4177
 8640SOL    MW434328   6.012   2.311   1.309  0.3504 -0.2182  0.4531
 8641SOL     OW34329   5.500   2.143   6.192  0.2134 -0.0806  0.5463
 8641SOL    HW234330   5.529   2.054   6.174  1.6304 -0.2345  3.1282
 8641SOL    HW334331   5.579   2.189   6.222 -0.6050  1.9039 -0.1588
 8641SOL    MW434332   5.514   2.138   6.193  0.2924  0.1609  0.7939
 8642SOL     OW34333   1.051   0.913   5.706 -0.0277  0.3923 -0.0402
 8642SOL    HW234334   1.082   0.901   5.616 -1.0569  0.2508 -0.3967
 8642SOL    HW334335   0.985   0.983   5.699 -1.0568 -0.5108  0.3710
 8642SOL    MW434336   1.046   0.921   5.693 -0.2993  0.2545 -0.0330
 8643SOL     OW34337   1.972   2.617   5.726  0.4905  0.0569 -0.4933
 8643SOL    HW234338   2.046   2.570   5.689  0.7570  0.8751 -1.0345
 8643SOL    HW334339   2.010   2.673   5.794 -0.1536 -2.4144  2.0743
 8643SOL    MW434340   1.987   2.618   5.730  0.4407 -0.1612 -0.2259
 8644SOL     OW34341   2.804   1.119   5.997 -0.8456 -0.2833  0.0192
 8644SOL    HW234342   2.786   1.155   6.084  0.7875 -0.0135  0.2795
 8644SOL    HW334343   2.736   1.157   5.941 -2.2813 -0.9294  1.2634
 8644SOL    MW434344   2.793   1.129   6.001 -0.8195 -0.3330  0.2177
 8645SOL     OW34345   4.816   1.456   2.372  0.0469  0.0074  0.1700
 8645SOL    HW234346   4.784   1.414   2.451 -0.8190 -0.6298 -0.5076
 8645SOL    HW334347   4.911   1.462   2.385 -0.1014  0.1341  1.3420
 8645SOL    MW434348   4.824   1.451   2.384 -0.0869 -0.0599  0.2352
 8646SOL     OW34349   5.611   2.259   2.542 -0.0547  0.5657  0.1841
 8646SOL    HW234350   5.541   2.194   2.534 -0.4590  0.7496  1.8588
 8646SOL    HW334351   5.570   2.341   2.516  0.0560  0.3929 -0.5587
 8646SOL    MW434352   5.596   2.261   2.538 -0.0935  0.5671  0.3071
 8647SOL     OW34353   2.062   4.187   0.267 -0.2593 -0.5000 -0.0314
 8647SOL    HW234354   2.069   4.102   0.223  0.5449 -0.4631  0.0166
 8647SOL    HW334355   2.074   4.168   0.360  0.0652 -0.3171 -0.0347
 8647SOL    MW434356   2.065   4.173   0.273 -0.1104 -0.4710 -0.0255
 8648SOL     OW34357   0.342   2.341   2.054  0.0161 -0.4289  0.0111
 8648SOL    HW234358   0.330   2.389   1.972  1.8491 -0.2863 -0.2135
 8648SOL    HW334359   0.351   2.409   2.120 -1.9269 -0.5429  0.4595
 8648SOL    MW434360   0.341   2.356   2.052  0.0016 -0.4251  0.0407
 8649SOL     OW34361   2.418   0.630   3.232  0.1568 -0.0636  0.4588
 8649SOL    HW234362   2.434   0.635   3.327  0.4222 -0.3770  0.4354
 8649SOL    HW334363   2.504   0.608   3.196  0.1101  0.3093  0.1192
 8649SOL    MW434364   2.432   0.628   3.240  0.1857 -0.0557  0.4109
 8650SOL     OW34365   0.646   3.872   2.908 -0.0691 -0.0066  0.5272
 8650SOL    HW234366   0.697   3.842   2.832 -0.4609  1.6967 -0.4511
 8650SOL    HW334367   0.703   3.855   2.983  0.2849 -1.8295 -0.0961
 8650SOL    MW434368   0.660   3.866   2.908 -0.0741 -0.0224  0.3159
 8651SOL     OW34369   5.740   2.042   4.604 -0.0184 -0.4680  0.3083
 8651SOL    HW234370   5.754   2.118   4.548  0.3297 -1.0666 -0.4378
 8651SOL    HW334371   5.783   2.066   4.687  2.3014 -0.7883 -0.7148
 8651SOL    MW434372   5.748   2.055   4.608  0.3336 -0.5892  0.0749
 8652SOL     OW34373   1.816   4.919   2.750  0.1201 -0.5037 -0.5244
 8652SOL    HW234374   1.832   4.848   2.813  0.5259 -0.6270 -0.7667
 8652SOL    HW334375   1.790   4.874   2.670 -0.1642 -0.3544 -0.5161
 8652SOL    MW434376   1.815   4.904   2.748  0.1362 -0.5003 -0.5553
 8653SOL     OW34377   0.169   0.977   4.130 -0.4126 -0.1835  0.2623
 8653SOL    HW234378   0.180   1.057   4.078  0.4660  2.0401  3.5321
 8653SOL    HW334379   0.257   0.938   4.134 -0.6695 -0.8899 -0.6171
 8653SOL    MW434380   0.182   0.983   4.123 -0.3306  0.0167  0.5777
 8654SOL     OW34381   0.166   2.635   1.200  0.2118 -0.1781 -0.2830
 8654SOL    HW234382   0.238   2.685   1.160 -0.3401  0.3890 -0.5830
 8654SOL    HW334383   0.128   2.586   1.128 -0.3352  0.2976 -0.3231
 8654SOL    MW434384   0.171   2.635   1.185  0.0668 -0.0405 -0.3279
 8655SOL     OW34385   2.646   0.322   2.873 -0.1319  0.1700 -0.2006
 8655SOL    HW234386   2.597   0.393   2.831 -0.7707  0.3622  0.8404
 8655SOL    HW334387   2.709   0.295   2.807 -0.8162  0.7605 -1.1253
 8655SOL    MW434388   2.647   0.328   2.859 -0.3065  0.2733 -0.1852
 8656SOL     OW34389   5.144   4.256   4.221 -0.3904  0.2632  0.0735
 8656SOL    HW234390   5.170   4.346   4.236  0.5989  0.0517 -0.2406
 8656SOL    HW334391   5.081   4.260   4.149 -0.0514  0.6689 -0.1995
 8656SOL    MW434392   5.139   4.268   4.213 -0.2151  0.2888 -0.0040
 8657SOL     OW34393   3.295   2.562   0.309 -0.3755  0.0717 -0.1367
 8657SOL    HW234394   3.304   2.496   0.240 -0.1831  0.3318 -0.3643
 8657SOL    HW334395   3.214   2.539   0.354 -0.9472  0.3944 -0.9888
 8657SOL    MW434396   3.286   2.550   0.306 -0.4255  0.1486 -0.2792
 8658SOL     OW34397   5.470   0.507   3.354  0.5013 -0.2757 -1.0622
 8658SOL    HW234398   5.507   0.500   3.442  0.9233 -1.3162 -1.3108
 8658SOL    HW334399   5.381   0.475   3.362 -0.2484  1.7723 -0.5643
 8658SOL    MW434400   5.463   0.502   3.366  0.4580 -0.1428 -1.0293
 8659SOL     OW34401   2.579   3.690   1.998 -0.2897  0.4473  0.8016
 8659SOL    HW234402   2.557   3.612   1.947  0.2960  0.5292  0.4070
 8659SOL    HW334403   2.519   3.757   1.965 -0.0228  0.4579  0.3279
 8659SOL    MW434404   2.568   3.689   1.987 -0.1772  0.4595  0.6871
 8660SOL     OW34405   6.433   2.373   0.588 -0.8621 -0.0007  0.0492
 8660SOL    HW234406   6.436   2.426   0.508 -0.2543  0.7076  0.5226
 8660SOL    HW334407   6.522   2.340   0.598 -0.6355  0.8647  1.0414
 8660SOL    MW434408   6.445   2.376   0.578 -0.7520  0.2069  0.2426
 8661SOL     OW34409   6.046   2.502   2.893  0.2983  0.2523 -0.8835
 8661SOL    HW234410   6.089   2.501   2.979  1.4483  0.5892 -1.4288
 8661SOL    HW334411   5.957   2.473   2.911  0.9829 -1.4293  0.1904
 8661SOL    MW434412   6.040   2.498   2.907  0.5403  0.0749 -0.8137
 8662SOL     OW34413   5.742   4.119   4.850  0.9095 -0.1030 -0.4028
 8662SOL    HW234414   5.667   4.168   4.884  0.8148 -0.1317 -0.5689
 8662SOL    HW334415   5.817   4.153   4.898  0.5620 -1.3394  1.1118
 8662SOL    MW434416   5.742   4.130   4.861  0.8511 -0.2699 -0.2249
 8663SOL     OW34417   3.564   4.852   4.642 -0.0499 -0.1132  0.1883
 8663SOL    HW234418   3.500   4.792   4.680  1.0380 -1.6193 -0.2459
 8663SOL    HW334419   3.512   4.913   4.590 -1.2187 -0.5244  0.8483
 8663SOL    MW434420   3.549   4.852   4.640 -0.0605 -0.3661  0.2181
 8664SOL     OW34421   3.113   1.762   0.087  0.3645  0.1871  0.6751
 8664SOL    HW234422   3.156   1.693   0.137  1.0775  0.4598  0.4428
 8664SOL    HW334423   3.031   1.722   0.058 -0.0552  0.0178  2.0305
 8664SOL    MW434424   3.108   1.748   0.089  0.4032  0.2008  0.8233
 8665SOL     OW34425   0.752   3.675   5.765  0.2896 -0.2863 -0.0418
 8665SOL    HW234426   0.709   3.603   5.811 -0.9594  0.4418 -0.0035
 8665SOL    HW334427   0.761   3.743   5.832  2.8216 -0.8976  0.3190
 8665SOL    MW434428   0.747   3.675   5.780  0.4589 -0.2709  0.0108
 8666SOL     OW34429   3.545   0.211   0.180  0.1558 -0.4464 -0.6771
 8666SOL    HW234430   3.589   0.129   0.155 -0.2272 -0.7980 -0.2271
 8666SOL    HW334431   3.613   0.278   0.173  0.5370 -0.8415 -0.8148
 8666SOL    MW434432   3.560   0.209   0.175  0.1556 -0.5449 -0.6359
 8667SOL     OW34433   6.356   3.565   3.943  0.1424 -0.1059 -0.0825
 8667SOL    HW234434   6.425   3.623   3.911 -1.0501  1.9384  0.8352
 8667SOL    HW334435   6.349   3.585   4.037 -0.5177 -1.5455  0.2081
 8667SOL    MW434436   6.364   3.575   3.951 -0.1020 -0.0261  0.0769
 8668SOL     OW34437   2.128   0.938   0.123  0.2294 -0.0822  0.2762
 8668SOL    HW234438   2.072   0.865   0.147  0.0694 -0.0309  0.0685
 8668SOL    HW334439   2.135   0.933   0.027  0.5393 -0.0600  0.2953
 8668SOL    MW434440   2.121   0.928   0.113  0.2492 -0.0725  0.2513
 8669SOL     OW34441   3.468   2.546   1.454  0.0648  0.7772  0.4324
 8669SOL    HW234442   3.501   2.636   1.444 -0.4803  1.1497  1.7073
 8669SOL    HW334443   3.376   2.557   1.480  0.2310 -0.1015  1.4930
 8669SOL    MW434444   3.460   2.559   1.456  0.0148  0.7104  0.7405
 8670SOL     OW34445   3.950   0.183   4.788  0.8303 -0.4238 -0.5543
 8670SOL    HW234446   3.969   0.197   4.880 -0.6423  0.1556 -0.3244
 8670SOL    HW334447   3.985   0.261   4.744 -0.7412  0.5572 -0.1515
 8670SOL    MW434448   3.957   0.195   4.794  0.4287 -0.2179 -0.4709
 8671SOL     OW34449   2.221   1.400   4.704 -0.3034 -0.0337 -0.1599
 8671SOL    HW234450   2.139   1.414   4.752  0.0385  0.9013  0.1609
 8671SOL    HW334451   2.206   1.443   4.619  0.2819  1.2356  0.3522
 8671SOL    MW434452   2.208   1.408   4.699 -0.1811  0.2571 -0.0500
 8672SOL     OW34453   0.656   1.809   0.598 -0.1629 -0.4886  0.4802
 8672SOL    HW234454   0.746   1.804   0.567 -0.2947  1.0981 -0.2577
 8672SOL    HW334455   0.661   1.857   0.680 -0.2771 -1.0231  0.8082
 8672SOL    MW434456   0.668   1.814   0.604 -0.1954 -0.3498  0.4261
 8673SOL     OW34457   1.300   1.013   3.693  0.4556  0.0147  0.1076
 8673SOL    HW234458   1.274   0.992   3.604  3.4298  2.1675 -1.4570
 8673SOL    HW334459   1.370   0.951   3.713 -0.2074 -0.4743  1.0067
 8673SOL    MW434460   1.306   1.002   3.684  0.7605  0.2342  0.0198
 8674SOL     OW34461   5.986   2.317   6.011  0.2567  0.2866 -0.3186
 8674SOL    HW234462   6.080   2.336   6.017  0.4322 -0.8391  0.8370
 8674SOL    HW334463   5.972   2.296   5.919  1.4966 -1.2110 -0.2087
 8674SOL    MW434464   5.997   2.317   6.000  0.4434 -0.0595 -0.1516
 8675SOL     OW34465   6.070   3.524   1.288  0.2634  0.1622  0.6633
 8675SOL    HW234466   6.114   3.442   1.308 -0.4680 -0.7725 -1.2935
 8675SOL    HW334467   6.127   3.567   1.224 -1.4904 -1.0546 -1.8839
 8675SOL    MW434468   6.083   3.519   1.282 -0.0645 -0.1217  0.0690
 8676SOL     OW34469   0.706   5.870   5.257  0.1291 -0.4955  0.4214
 8676SOL    HW234470   0.680   5.780   5.272 -0.3511 -0.2323  1.2440
 8676SOL    HW334471   0.638   5.907   5.201 -0.8115 -0.0805  1.7791
 8676SOL    MW434472   0.694   5.863   5.252 -0.0584 -0.4060  0.7091
 8677SOL     OW34473   3.128   2.027   6.452  0.3025  0.3604  0.0989
 8677SOL    HW234474   3.184   2.033   6.375 -0.7443  0.5975 -0.6620
 8677SOL    HW334475   3.119   1.933   6.467  1.4385  0.3183  0.6518
 8677SOL    MW434476   3.134   2.015   6.444  0.3142  0.3862  0.0715
 8678SOL     OW34477   2.294   1.050   2.680  0.1400 -0.9043  0.4378
 8678SOL    HW234478   2.264   1.102   2.754 -0.9064  1.7040 -1.6577
 8678SOL    HW334479   2.382   1.083   2.661 -0.5913  0.3170 -1.0038
 8678SOL    MW434480   2.302   1.061   2.687 -0.0945 -0.3991 -0.0289
 8679SOL     OW34481   4.688   2.179   4.997 -0.2196 -0.0261  0.2763
 8679SOL    HW234482   4.704   2.165   5.090  2.2494 -1.1409 -0.2391
 8679SOL    HW334483   4.623   2.113   4.973  1.4140 -1.8559  0.6458
 8679SOL    MW434484   4.682   2.168   5.006  0.3217 -0.4146  0.2571
 8680SOL     OW34485   5.086   2.817   5.841  0.4710 -0.1361 -0.6175
 8680SOL    HW234486   5.055   2.871   5.769 -0.1218  0.5542  0.1413
 8680SOL    HW334487   5.171   2.784   5.812  0.4047  0.4260 -1.4705
 8680SOL    MW434488   5.093   2.820   5.828  0.3840  0.0291 -0.6299
 8681SOL     OW34489   3.062   1.890   1.992  0.0626  0.1490 -0.1469
 8681SOL    HW234490   3.024   1.811   1.954 -1.8186  0.2503  1.3667
 8681SOL    HW334491   3.060   1.875   2.086  0.0260  1.8275  0.1518
 8681SOL    MW434492   3.056   1.878   1.999 -0.1905  0.3838  0.0922
 8682SOL     OW34493   1.240   2.727   2.930  0.3654 -0.0752  0.1410
 8682SOL    HW234494   1.185   2.763   2.999 -0.5058 -1.0114 -0.0360
 8682SOL    HW334495   1.249   2.634   2.953  0.7667 -0.2148 -0.5483
 8682SOL    MW434496   1.234   2.719   2.943  0.3034 -0.2171  0.0267
 8683SOL     OW34497   3.199   0.585   6.317 -0.0634 -0.7417  0.1487
 8683SOL    HW234498   3.125   0.600   6.258  0.0934 -1.2929 -0.1894
 8683SOL    HW334499   3.272   0.562   6.260  0.0755 -1.3256  0.5564
 8683SOL    MW434500   3.199   0.584   6.302 -0.0244 -0.8915  0.1579
 8684SOL     OW34501   2.467   6.250   2.396 -0.4396 -0.5230 -0.5924
 8684SOL    HW234502   2.537   6.227   2.334  1.7368  1.2730  1.0333
 8684SOL    HW334503   2.438   6.337   2.369 -1.2615 -0.7725 -0.5526
 8684SOL    MW434504   2.472   6.259   2.384 -0.2609 -0.3189 -0.3727
 8685SOL     OW34505   5.979   2.336   0.689 -0.9094  0.8059 -0.6251
 8685SOL    HW234506   5.888   2.362   0.680 -0.8354  1.2667 -0.1096
 8685SOL    HW334507   6.028   2.418   0.690 -0.5500  0.5925 -0.2928
 8685SOL    MW434508   5.974   2.350   0.688 -0.8522  0.8386 -0.5132
 8686SOL     OW34509   1.632   4.520   5.804  0.5254  0.4311 -0.1681
 8686SOL    HW234510   1.582   4.600   5.789  1.7708  1.0668 -1.1433
 8686SOL    HW334511   1.582   4.452   5.759  0.4623  1.0390 -1.0584
 8686SOL    MW434512   1.619   4.522   5.796  0.6814  0.5952 -0.4142
 8687SOL     OW34513   2.986   0.028   4.649  0.8023 -0.0011  0.4528
 8687SOL    HW234514   2.983   0.045   4.555  0.9880  0.7092  0.5690
 8687SOL    HW334515   2.895   0.009   4.673  0.8930 -1.1175 -0.0252
 8687SOL    MW434516   2.973   0.028   4.640  0.8388 -0.0546  0.4051
 8688SOL     OW34517   0.433   1.542   2.656  0.2361 -0.0978 -0.1603
 8688SOL    HW234518   0.420   1.470   2.594 -0.0752 -0.6832  0.5843
 8688SOL    HW334519   0.455   1.500   2.738  3.5483  0.7204 -0.4813
 8688SOL    MW434520   0.434   1.527   2.658  0.6320 -0.0671 -0.1044
 8689SOL     OW34521   1.620   2.567   4.018  0.9168  0.1601  0.4632
 8689SOL    HW234522   1.558   2.540   4.085 -1.2706  1.6457 -0.8072
 8689SOL    HW334523   1.649   2.486   3.977 -0.8753 -0.5951  0.5789
 8689SOL    MW434524   1.616   2.553   4.021  0.3918  0.2565  0.3108
 8690SOL     OW34525   5.356   1.369   4.923 -0.1000 -0.0579 -0.0033
 8690SOL    HW234526   5.265   1.360   4.894 -0.0670  0.6776 -0.3541
 8690SOL    HW334527   5.397   1.422   4.856  0.4702  0.0238  0.4053
 8690SOL    MW434528   5.349   1.375   4.911 -0.0204  0.0499  0.0043
 8691SOL     OW34529   3.714   5.030   0.562 -0.0173 -0.2997 -0.6094
 8691SOL    HW234530   3.681   5.107   0.608  2.9071  0.2026  0.8709
 8691SOL    HW334531   3.763   5.065   0.488 -1.0442 -0.9256 -1.6156
 8691SOL    MW434532   3.716   5.045   0.559  0.2330 -0.3160 -0.5469
 8692SOL     OW34533   1.406   2.052   4.300 -0.4791  0.0109  0.0719
 8692SOL    HW234534   1.318   2.021   4.322 -0.2676 -1.0600 -0.5157
 8692SOL    HW334535   1.465   1.986   4.338  0.0380  0.3138 -0.1892
 8692SOL    MW434536   1.403   2.039   4.308 -0.3830 -0.0904 -0.0400
 8693SOL     OW34537   4.559   3.187   5.157  0.2624  0.0664 -0.4006
 8693SOL    HW234538   4.533   3.116   5.098  1.2683 -1.2059  0.6341
 8693SOL    HW334539   4.493   3.186   5.227  0.6358 -0.2902 -0.0481
 8693SOL    MW434540   4.547   3.178   5.159  0.4444 -0.1485 -0.2176
 8694SOL     OW34541   3.949   4.938   2.891  0.1541 -0.2710 -0.3377
 8694SOL    HW234542   3.908   4.949   2.805 -0.7523 -0.4216  0.0629
 8694SOL    HW334543   4.017   5.005   2.894  0.3659 -0.4297 -1.2708
 8694SOL    MW434544   3.952   4.948   2.880  0.0625 -0.3118 -0.4080
 8695SOL     OW34545   5.366   5.172   0.980  0.2665  0.5109  0.1922
 8695SOL    HW234546   5.373   5.120   0.900 -1.0135 -2.1643  1.7126
 8695SOL    HW334547   5.425   5.246   0.965  0.3230 -0.0483 -3.0598
 8695SOL    MW434548   5.375   5.175   0.967  0.1051  0.0841 -0.0363
 8696SOL     OW34549   1.248   5.747   0.910  0.6472 -0.2580 -0.1575
 8696SOL    HW234550   1.298   5.814   0.863  0.3817  0.6559  0.8249
 8696SOL    HW334551   1.208   5.794   0.983  1.8385 -1.7852  1.5748
 8696SOL    MW434552   1.249   5.762   0.914  0.7693 -0.3389  0.2007
 8697SOL     OW34553   0.893   0.274   3.971 -0.3518  0.5066  0.0104
 8697SOL    HW234554   0.880   0.182   3.947  0.8715  0.0505  0.9788
 8697SOL    HW334555   0.937   0.270   4.056 -0.7591  2.0069  0.3130
 8697SOL    MW434556   0.897   0.261   3.979 -0.2441  0.6444  0.1781
 8698SOL     OW34557   4.156   1.029   0.107  0.0287 -0.4218  0.2636
 8698SOL    HW234558   4.068   1.025   0.145  0.2379 -0.0209  0.8120
 8698SOL    HW334559   4.188   0.939   0.112 -0.0424 -0.4238  0.8363
 8698SOL    MW434560   4.148   1.017   0.113  0.0469 -0.3692  0.4116
 8699SOL     OW34561   6.403   6.260   3.438  0.4465 -0.0504  0.5545
 8699SOL    HW234562   6.425   6.168   3.422  0.5270 -0.0574  0.7076
 8699SOL    HW334563   6.380   6.294   3.351  1.6335  0.1085  0.2854
 8699SOL    MW434564   6.403   6.252   3.424  0.6137 -0.0304  0.5392
 8700SOL     OW34565   5.539   4.362   5.628 -0.0470  0.0643  0.0986
 8700SOL    HW234566   5.574   4.274   5.620  1.2956  0.6437 -0.7742
 8700SOL    HW334567   5.577   4.396   5.709  1.8038  0.8118 -1.0189
 8700SOL    MW434568   5.549   4.355   5.638  0.3743  0.2393 -0.1640
 8701SOL     OW34569   3.125   5.337   0.998 -0.3982 -0.3989 -0.0952
 8701SOL    HW234570   3.203   5.294   0.962 -0.3768 -1.0919  0.7402
 8701SOL    HW334571   3.158   5.389   1.072 -0.4770  0.7919 -0.8733
 8701SOL    MW434572   3.140   5.338   1.003 -0.4058 -0.3332 -0.0877
 8702SOL     OW34573   0.623   0.846   3.941  0.1826 -0.2522  0.1110
 8702SOL    HW234574   0.657   0.759   3.919 -0.1868 -0.6140  0.9499
 8702SOL    HW334575   0.686   0.907   3.902 -0.2032 -0.8612 -1.5661
 8702SOL    MW434576   0.636   0.842   3.933  0.0830 -0.3803  0.0004
 8703SOL     OW34577   3.412   6.370   5.092 -0.3670 -0.2784  0.1516
 8703SOL    HW234578   3.430   6.452   5.139  0.9894 -0.5359  0.1224
 8703SOL    HW334579   3.342   6.328   5.143 -0.7427  0.6605  0.4362
 8703SOL    MW434580   3.405   6.376   5.105 -0.2376 -0.1885  0.1853
 8704SOL     OW34581   1.303   0.795   1.419  1.0973 -0.8321 -0.0672
 8704SOL    HW234582   1.247   0.863   1.456  2.2421  2.1915 -3.4239
 8704SOL    HW334583   1.243   0.722   1.401 -0.7809  0.4275  0.7903
 8704SOL    MW434584   1.287   0.794   1.422  1.0006 -0.2670 -0.3969
 8705SOL     OW34585   3.668   2.893   5.889  0.6961 -0.1179  0.1612
 8705SOL    HW234586   3.584   2.939   5.892  1.3852  1.3313 -1.2113
 8705SOL    HW334587   3.646   2.805   5.858 -0.2360  0.5424 -1.1416
 8705SOL    MW434588   3.654   2.887   5.885  0.6640  0.1604 -0.1918
 8706SOL     OW34589   0.961   3.940   2.353  0.0063 -0.6466 -0.0023
 8706SOL    HW234590   1.006   3.891   2.285  0.9747 -1.3017  1.0793
 8706SOL    HW334591   0.881   3.891   2.370 -0.7885  0.1058 -1.3896
 8706SOL    MW434592   0.956   3.927   2.347  0.0292 -0.6337 -0.0426
 8707SOL     OW34593   1.294   1.334   5.587 -0.2650  0.9807  0.3455
 8707SOL    HW234594   1.229   1.296   5.527  0.9849 -0.0494 -0.3930
 8707SOL    HW334595   1.325   1.412   5.542  1.6228 -0.4795 -1.0550
 8707SOL    MW434596   1.289   1.339   5.573  0.1490  0.6521  0.0633
 8708SOL     OW34597   0.202   4.764   6.013 -0.7170 -0.1782  0.0057
 8708SOL    HW234598   0.199   4.677   5.972 -2.1636  0.6169 -1.7547
 8708SOL    HW334599   0.119   4.805   5.987 -0.5636  1.3351  1.7264
 8708SOL    MW434600   0.191   4.758   6.004 -0.8876  0.1264  0.0004
 8709SOL     OW34601   4.660   4.021   0.258 -0.7702 -0.1038 -0.0347
 8709SOL    HW234602   4.752   4.045   0.261 -0.7737 -0.1694  1.6738
 8709SOL    HW334603   4.614   4.097   0.292 -1.1218 -0.9132  1.4115
 8709SOL    MW434604   4.666   4.034   0.263 -0.8171 -0.2193  0.3815
 8710SOL     OW34605   3.387   5.412   5.552 -0.0916 -0.9394 -0.0617
 8710SOL    HW234606   3.424   5.428   5.639  0.6696 -2.9556  0.0433
 8710SOL    HW334607   3.428   5.478   5.496  0.1175 -0.2078  0.9262
 8710SOL    MW434608   3.397   5.423   5.556  0.0364 -1.1089  0.0825
 8711SOL     OW34609   5.230   0.448   2.436 -0.2872  0.0760  0.2121
 8711SOL    HW234610   5.193   0.382   2.494 -1.3301 -0.0392 -0.5527
 8711SOL    HW334611   5.216   0.531   2.482 -1.0065 -0.0253  0.1914
 8711SOL    MW434612   5.223   0.450   2.450 -0.5197  0.0474  0.1085
 8712SOL     OW34613   4.676   4.291   0.879 -0.6679  0.6446  0.3895
 8712SOL    HW234614   4.721   4.225   0.933 -1.0174  0.7765  0.8516
 8712SOL    HW334615   4.700   4.269   0.789  0.0701  0.5266  0.6095
 8712SOL    MW434616   4.685   4.279   0.874 -0.6166  0.6465  0.4795
 8713SOL     OW34617   0.227   3.289   2.508 -0.0105 -0.3905 -0.0248
 8713SOL    HW234618   0.302   3.340   2.539 -0.1611 -0.8443  1.1575
 8713SOL    HW334619   0.258   3.249   2.427  0.4283  0.7937 -0.4647
 8713SOL    MW434620   0.241   3.290   2.502  0.0275 -0.2942  0.0731
 8714SOL     OW34621   2.978   3.415   2.344  0.2450  0.1617  0.0088
 8714SOL    HW234622   3.020   3.443   2.263  0.6017 -0.3618  0.0036
 8714SOL    HW334623   2.887   3.443   2.335 -0.2111 -1.5714 -1.4349
 8714SOL    MW434624   2.971   3.422   2.332  0.2319 -0.1360 -0.1824
 8715SOL     OW34625   5.876   0.957   4.335 -0.0305  0.2581 -0.1034
 8715SOL    HW234626   5.823   0.982   4.259  1.9200 -2.0886 -2.4452
 8715SOL    HW334627   5.917   0.874   4.310  1.9027  0.1129  2.9594
 8715SOL    MW434628   5.875   0.950   4.321  0.4819 -0.0706 -0.0083
 8716SOL     OW34629   6.384   3.808   5.861 -0.2346  0.2026  0.2170
 8716SOL    HW234630   6.321   3.810   5.788 -1.7112 -1.0691  1.3884
 8716SOL    HW334631   6.450   3.873   5.837 -0.7762 -0.0272 -2.1489
 8716SOL    MW434632   6.384   3.817   5.848 -0.5009  0.0045  0.0594
 8717SOL     OW34633   1.508   3.374   6.312 -0.4393 -0.4659 -0.4586
 8717SOL    HW234634   1.492   3.318   6.388  1.6614 -2.3815 -1.3300
 8717SOL    HW334635   1.493   3.318   6.236  1.7880  0.0539 -1.3627
 8717SOL    MW434636   1.504   3.359   6.312  0.1317 -0.6500 -0.6928
 8718SOL     OW34637   0.954   3.428   5.380  0.1328  0.1420  0.6055
 8718SOL    HW234638   0.937   3.521   5.363  1.7274  0.6729  1.6078
 8718SOL    HW334639   0.868   3.387   5.379 -0.7115  1.8000  1.0326
 8718SOL    MW434640   0.940   3.435   5.378  0.2318  0.4308  0.7941
 8719SOL     OW34641   4.395   1.246   4.683 -0.0544  0.0135 -0.0584
 8719SOL    HW234642   4.454   1.178   4.652  0.3668  1.1646 -1.9450
 8719SOL    HW334643   4.435   1.277   4.764  1.3200 -0.0529 -0.6738
 8719SOL    MW434644   4.408   1.242   4.689  0.1825  0.1566 -0.3885
 8720SOL     OW34645   6.179   5.376   6.271 -0.1017 -0.7634 -0.3114
 8720SOL    HW234646   6.216   5.289   6.258  0.7725 -0.4116 -0.2278
 8720SOL    HW334647   6.189   5.419   6.186  0.5456 -0.3534 -0.0346
 8720SOL    MW434648   6.185   5.370   6.258  0.0990 -0.6629 -0.2639
 8721SOL     OW34649   5.071   1.620   2.679  0.4524  0.1026 -0.2045
 8721SOL    HW234650   5.134   1.681   2.718 -0.3446  0.6855  0.2092
 8721SOL    HW334651   5.000   1.676   2.648 -2.1969 -0.7316  3.5831
 8721SOL    MW434652   5.070   1.636   2.680 -0.0023  0.0695  0.3498
 8722SOL     OW34653   2.070   2.311   2.564  0.2980 -0.1149 -0.7528
 8722SOL    HW234654   2.069   2.407   2.571 -0.6424 -0.1223 -0.6313
 8722SOL    HW334655   2.102   2.281   2.649 -0.8397  0.0652 -0.2417
 8722SOL    MW434656   2.074   2.320   2.576  0.0238 -0.0921 -0.6693
 8723SOL     OW34657   0.666   2.341   6.281 -0.0387 -0.5048  0.2481
 8723SOL    HW234658   0.745   2.338   6.335 -1.7463 -2.6019  2.8317
 8723SOL    HW334659   0.617   2.416   6.315  0.4703  0.4337 -0.9696
 8723SOL    MW434660   0.670   2.351   6.293 -0.1968 -0.6576  0.4283
 8724SOL     OW34661   3.225   2.469   3.102  0.0273 -0.4098  0.0046
 8724SOL    HW234662   3.225   2.563   3.124  2.7179 -0.2030 -0.4654
 8724SOL    HW334663   3.133   2.443   3.108 -0.7992  2.2180  0.2912
 8724SOL    MW434664   3.213   2.478   3.105  0.2732 -0.0358 -0.0196
 8725SOL     OW34665   0.353   0.732   5.803 -0.1735  0.0040 -0.2908
 8725SOL    HW234666   0.288   0.727   5.873  0.5603  0.9563  0.4813
 8725SOL    HW334667   0.364   0.641   5.774 -2.2840 -0.1102 -0.8653
 8725SOL    MW434668   0.346   0.719   5.808 -0.3551  0.1146 -0.2647
 8726SOL     OW34669   4.349   2.374   5.013  0.4213  0.0694  0.0111
 8726SOL    HW234670   4.426   2.373   5.070  2.2533 -2.0952 -2.2614
 8726SOL    HW334671   4.309   2.288   5.025 -1.1132  0.8041  0.4138
 8726SOL    MW434672   4.354   2.363   5.022  0.4605 -0.1193 -0.2356
 8727SOL     OW34673   1.767   5.336   5.483  0.1978  0.0592 -0.3323
 8727SOL    HW234674   1.768   5.387   5.402 -0.4655  2.4322  1.0603
 8727SOL    HW334675   1.852   5.293   5.486  0.6206  0.7434 -1.7806
 8727SOL    MW434676   1.778   5.337   5.472  0.1661  0.4626 -0.3397
 8728SOL     OW34677   2.222   0.225   6.473  0.4858 -0.0995  1.2323
 8728SOL    HW234678   2.249   0.160   6.408 -0.7553 -0.2839  0.8679
 8728SOL    HW334679   2.303   0.269   6.498  0.9001  0.8539 -1.3994
 8728SOL    MW434680   2.236   0.222   6.467  0.3767  0.0019  0.8370
 8729SOL     OW34681   5.634   5.832   4.486  0.3586  0.3357 -0.3049
 8729SOL    HW234682   5.626   5.741   4.512 -1.3126  0.0186 -1.6905
 8729SOL    HW334683   5.667   5.877   4.563  0.1382 -1.2627  0.7625
 8729SOL    MW434684   5.637   5.826   4.500  0.1091  0.0830 -0.3469
 8730SOL     OW34685   5.590   3.731   1.429 -0.0061  0.1552 -0.3098
 8730SOL    HW234686   5.550   3.730   1.342  0.1516  1.1370 -0.4132
 8730SOL    HW334687   5.648   3.655   1.430 -0.3304 -0.1064 -0.9079
 8730SOL    MW434688   5.592   3.721   1.418 -0.0281  0.2503 -0.4023
 8731SOL     OW34689   1.139   1.011   1.542  0.0619 -0.1281 -0.8715
 8731SOL    HW234690   1.203   1.035   1.609 -0.7815 -0.4799  0.0890
 8731SOL    HW334691   1.108   1.095   1.508 -1.3533  0.1795  1.0003
 8731SOL    MW434692   1.144   1.025   1.546 -0.2361 -0.1340 -0.4978
 8732SOL     OW34693   5.081   1.636   0.971  0.1061  0.4083  0.4531
 8732SOL    HW234694   4.989   1.662   0.967  0.0726  0.3429  0.7403
 8732SOL    HW334695   5.118   1.689   1.042  0.0573 -0.2580  0.9868
 8732SOL    MW434696   5.074   1.647   0.980  0.0953  0.3117  0.5614
 8733SOL     OW34697   1.799   2.610   0.687  0.7054 -0.0401  0.1614
 8733SOL    HW234698   1.797   2.659   0.605 -0.3158  0.3619  0.4191
 8733SOL    HW334699   1.786   2.519   0.660 -0.3567  0.1646 -0.0811
 8733SOL    MW434700   1.797   2.605   0.672  0.4305  0.0399  0.1634
 8734SOL     OW34701   1.112   1.639   5.547  0.1587  0.3186  0.4667
 8734SOL    HW234702   1.095   1.568   5.609 -1.0105  0.8268  0.7472
 8734SOL    HW334703   1.131   1.715   5.602  1.0703  0.3168  0.1701
 8734SOL    MW434704   1.112   1.640   5.563  0.1247  0.3854  0.4646
 8735SOL     OW34705   5.454   6.080   1.349 -0.0938  0.1855 -0.6741
 8735SOL    HW234706   5.394   6.058   1.419  0.2498  0.1447 -0.3901
 8735SOL    HW334707   5.400   6.123   1.283 -0.1444  1.7298  0.3262
 8735SOL    MW434708   5.439   6.083   1.349 -0.0551  0.3839 -0.5046
 8736SOL     OW34709   4.017   5.211   6.240 -0.3366 -0.3162  0.8130
 8736SOL    HW234710   3.927   5.179   6.228  0.0894 -1.4898  0.6390
 8736SOL    HW334711   4.056   5.206   6.152 -0.7580  2.4311  0.3567
 8736SOL    MW434712   4.010   5.207   6.227 -0.3360 -0.1085  0.7298
 8737SOL     OW34713   2.407   2.329   3.712  0.3105 -0.1049  0.6268
 8737SOL    HW234714   2.422   2.317   3.805  2.1492 -0.6705  0.2971
 8737SOL    HW334715   2.312   2.318   3.701  0.3087 -2.2269  2.1407
 8737SOL    MW434716   2.396   2.326   3.723  0.5528 -0.4595  0.7830
 8738SOL     OW34717   3.167   2.683   5.555  0.1982 -0.1526 -0.1475
 8738SOL    HW234718   3.138   2.772   5.532 -1.7964 -0.5837  0.5423
 8738SOL    HW334719   3.153   2.677   5.649  0.9552 -0.9841 -0.0845
 8738SOL    MW434720   3.161   2.694   5.564  0.0349 -0.3192 -0.0482
 8739SOL     OW34721   0.029   2.002   2.516  0.0317  0.2895 -0.5238
 8739SOL    HW234722   0.016   1.922   2.465  0.9547  0.1336 -0.5373
 8739SOL    HW334723  -0.013   1.984   2.599 -0.8392  0.2615 -0.9619
 8739SOL    MW434724   0.022   1.989   2.520  0.0386  0.2652 -0.5834
 8740SOL     OW34725   3.949   0.208   5.109 -0.3662 -0.2234 -0.1895
 8740SOL    HW234726   4.006   0.144   5.154 -0.9637 -1.5944 -1.2964
 8740SOL    HW334727   3.947   0.283   5.168  1.3150 -0.7522  0.6260
 8740SOL    MW434728   3.956   0.209   5.123 -0.2232 -0.4741 -0.2280
 8741SOL     OW34729   2.256   2.719   5.526 -0.1439 -0.2017  0.4024
 8741SOL    HW234730   2.261   2.794   5.585  0.6918  0.0984 -0.0234
 8741SOL    HW334731   2.311   2.745   5.451  0.4032 -1.3618  0.3908
 8741SOL    MW434732   2.264   2.733   5.524  0.0385 -0.3151  0.3447
 8742SOL     OW34733   3.798   2.365   1.196 -0.1531 -0.0667  0.2292
 8742SOL    HW234734   3.750   2.337   1.274  0.3419 -0.0254  0.5562
 8742SOL    HW334735   3.766   2.453   1.178  0.5022  0.3555  1.0385
 8742SOL    MW434736   3.788   2.373   1.204 -0.0013 -0.0056  0.3791
 8743SOL     OW34737   2.836   2.527   1.063  0.2302  0.2061  0.3376
 8743SOL    HW234738   2.922   2.497   1.032  0.4256  0.4132  0.6677
 8743SOL    HW334739   2.794   2.449   1.098  0.7298  0.3069  1.1795
 8743SOL    MW434740   2.842   2.513   1.063  0.3219  0.2468  0.4923
 8744SOL     OW34741   1.868   5.500   1.806 -0.1664  0.0053 -0.0321
 8744SOL    HW234742   1.814   5.498   1.727  0.7421  0.0228 -0.6736
 8744SOL    HW334743   1.809   5.528   1.875 -0.5086  2.1546 -1.1103
 8744SOL    MW434744   1.853   5.504   1.805 -0.0917  0.2912 -0.2590
 8745SOL     OW34745   6.259   0.988   3.300  0.7091 -0.0933  0.2449
 8745SOL    HW234746   6.203   0.964   3.227  1.0177 -0.4768  0.1329
 8745SOL    HW334747   6.199   0.999   3.374  0.5751 -1.3862  0.3401
 8745SOL    MW434748   6.244   0.986   3.300  0.7321 -0.3145  0.2427
 8746SOL     OW34749   3.271   3.958   0.753 -0.1500 -0.2692  0.3161
 8746SOL    HW234750   3.243   3.870   0.779  1.6537 -1.3028 -0.9750
 8746SOL    HW334751   3.194   4.013   0.767 -1.5013 -2.1551  0.6840
 8746SOL    MW434752   3.257   3.953   0.758 -0.0903 -0.6544  0.1943
 8747SOL     OW34753   2.302   2.828   1.767 -0.5330  0.1019 -0.2310
 8747SOL    HW234754   2.293   2.737   1.737 -1.2018  0.4143 -1.0170
 8747SOL    HW334755   2.389   2.831   1.807  0.5304 -0.3322 -2.3340
 8747SOL    MW434756   2.313   2.816   1.768 -0.4809  0.0859 -0.6122
 8748SOL     OW34757   3.276   2.710   4.586  0.2732  0.0900  0.2584
 8748SOL    HW234758   3.305   2.619   4.585  0.4455  0.1419 -0.9475
 8748SOL    HW334759   3.258   2.729   4.678 -3.9631 -2.4990  0.2554
 8748SOL    MW434760   3.277   2.700   4.598 -0.2630 -0.2447  0.0989
 8749SOL     OW34761   2.749   4.507   6.190  0.2507 -0.6992 -0.2887
 8749SOL    HW234762   2.821   4.452   6.158  0.4287 -0.1450 -0.8735
 8749SOL    HW334763   2.694   4.521   6.113  1.4526  1.8444 -0.7913
 8749SOL    MW434764   2.752   4.502   6.175  0.4328 -0.2905 -0.4322
 8750SOL     OW34765   5.089   3.544   6.046 -0.2282 -0.3074 -0.7537
 8750SOL    HW234766   5.007   3.580   6.079  0.8531  0.9949  0.6345
 8750SOL    HW334767   5.084   3.450   6.063 -1.2182 -0.1678 -0.2590
 8750SOL    MW434768   5.078   3.537   6.052 -0.2162 -0.1171 -0.5052
 8751SOL     OW34769   1.941   3.884   4.518 -0.4585  0.2435 -0.1906
 8751SOL    HW234770   1.897   3.932   4.448 -0.0438  1.3746  0.2970
 8751SOL    HW334771   1.919   3.792   4.501 -0.1619  0.4529 -1.9401
 8751SOL    MW434772   1.932   3.878   4.506 -0.3646  0.4203 -0.3570
 8752SOL     OW34773   0.087   2.239   5.032  0.3619 -0.1726  0.7831
 8752SOL    HW234774   0.134   2.199   5.105  0.3786 -0.1449  0.7873
 8752SOL    HW334775   0.052   2.165   4.982  1.4128 -0.2385  0.1026
 8752SOL    MW434776   0.088   2.224   5.035  0.5027 -0.1776  0.6939
 8753SOL     OW34777   6.378   4.705   0.425 -0.0088 -0.0193  0.0041
 8753SOL    HW234778   6.305   4.681   0.482  0.3758  0.0146  0.5198
 8753SOL    HW334779   6.339   4.713   0.338 -0.3089 -1.7774 -0.0608
 8753SOL    MW434780   6.363   4.703   0.421  0.0024 -0.2468  0.0636
 8754SOL     OW34781   4.805   1.851   6.050 -0.1691 -0.1117 -0.3231
 8754SOL    HW234782   4.742   1.825   5.982 -1.1698  1.5327 -0.0816
 8754SOL    HW334783   4.834   1.768   6.088 -0.8815 -0.9932 -1.6072
 8754SOL    MW434784   4.800   1.836   6.046 -0.3951 -0.0111 -0.4606
 8755SOL     OW34785   4.318   3.465   6.176  0.1604  0.2409  0.6012
 8755SOL    HW234786   4.376   3.401   6.136 -1.6464 -1.1607  0.1025
 8755SOL    HW334787   4.324   3.542   6.120  3.2589  1.0665  1.8568
 8755SOL    MW434788   4.326   3.467   6.164  0.3308  0.1649  0.7010
 8756SOL     OW34789   3.358   1.457   3.988  0.3378 -0.1452  0.1122
 8756SOL    HW234790   3.276   1.491   3.953 -0.1280 -0.8587  0.4960
 8756SOL    HW334791   3.425   1.493   3.930 -0.2720  0.1202 -0.4417
 8756SOL    MW434792   3.356   1.466   3.976  0.1959 -0.2043  0.0897
 8757SOL     OW34793   4.743   1.534   3.187  0.0250  0.6626 -0.7012
 8757SOL    HW234794   4.807   1.550   3.118  0.8673 -1.6889 -0.5864
 8757SOL    HW334795   4.660   1.567   3.153  0.5717  0.2450 -2.5174
 8757SOL    MW434796   4.740   1.540   3.174  0.2082  0.2973 -0.9257
 8758SOL     OW34797   2.945   3.051   5.002  0.2197 -0.7232 -0.3501
 8758SOL    HW234798   2.984   2.984   5.057  1.1728 -0.6261 -0.8814
 8758SOL    HW334799   2.872   3.007   4.958  0.4862 -1.2509 -0.2685
 8758SOL    MW434800   2.940   3.037   5.003  0.3806 -0.7800 -0.4094
 8759SOL     OW34801   0.502   0.097   1.367  0.4463  0.2495  0.2292
 8759SOL    HW234802   0.549   0.162   1.419  0.8904  1.8249 -1.9540
 8759SOL    HW334803   0.560   0.021   1.364  1.1312  0.7440  0.6777
 8759SOL    MW434804   0.515   0.096   1.373  0.5953  0.5226  0.0003
 8760SOL     OW34805   2.433   6.206   3.875  0.6288 -0.1041 -0.2812
 8760SOL    HW234806   2.386   6.142   3.929  0.0700  1.3004  0.9499
 8760SOL    HW334807   2.364   6.263   3.841  1.1857  0.2648 -0.7913
 8760SOL    MW434808   2.417   6.205   3.878  0.6286  0.1299 -0.1861
 8761SOL     OW34809   4.496   6.341   4.567  0.5850 -0.2097 -0.6330
 8761SOL    HW234810   4.577   6.307   4.530  1.8983  1.6813  0.3063
 8761SOL    HW334811   4.476   6.282   4.639  2.4785  0.5312  0.5988
 8761SOL    MW434812   4.504   6.329   4.572  1.0081  0.1376 -0.3465
 8762SOL     OW34813   0.719   4.133   2.974  0.0581 -0.0145 -0.1844
 8762SOL    HW234814   0.702   4.048   2.934 -0.5134  1.2202 -2.7789
 8762SOL    HW334815   0.669   4.131   3.056 -0.3708 -1.9499 -0.4399
 8762SOL    MW434816   0.710   4.122   2.980 -0.0739 -0.1070 -0.5604
 8763SOL     OW34817   5.876   3.718   2.340  0.3357 -0.0611  1.1427
 8763SOL    HW234818   5.967   3.690   2.335  0.0220 -0.9292 -0.0587
 8763SOL    HW334819   5.877   3.809   2.309  0.7045 -0.2587  0.5647
 8763SOL    MW434820   5.888   3.727   2.336  0.3430 -0.2017  0.9079
 8764SOL     OW34821   2.195   2.954   2.086  0.1427  0.2590 -0.1610
 8764SOL    HW234822   2.181   3.042   2.052  1.0368  0.3242 -0.3753
 8764SOL    HW334823   2.137   2.898   2.033  1.2526  0.4048 -1.5875
 8764SOL    MW434824   2.185   2.958   2.074  0.4071  0.2868 -0.3775
 8765SOL     OW34825   4.860   4.657   1.077  0.7546  0.0622 -0.1346
 8765SOL    HW234826   4.842   4.591   1.144  0.2815 -1.5802 -1.7754
 8765SOL    HW334827   4.784   4.652   1.018  0.4177  2.5297 -0.0252
 8765SOL    MW434828   4.847   4.648   1.078  0.6477  0.1711 -0.3366
 8766SOL     OW34829   3.613   2.453   4.140  0.1007  0.2220  0.1103
 8766SOL    HW234830   3.539   2.497   4.099  0.8592  0.6019 -0.8896
 8766SOL    HW334831   3.665   2.524   4.179  2.7874  0.7158 -3.8088
 8766SOL    MW434832   3.610   2.468   4.140  0.5553  0.3373 -0.5387
 8767SOL     OW34833   0.762   4.230   1.240  0.3921 -0.1908 -0.2052
 8767SOL    HW234834   0.816   4.254   1.316 -0.5111  0.9350  0.1083
 8767SOL    HW334835   0.680   4.200   1.279  0.0503  0.0709 -0.7206
 8767SOL    MW434836   0.759   4.229   1.255  0.2278 -0.0077 -0.2319
 8768SOL     OW34837   0.245   3.174   3.544 -0.3692  0.6936 -0.1953
 8768SOL    HW234838   0.335   3.207   3.551 -0.1529 -0.1026  1.0229
 8768SOL    HW334839   0.246   3.117   3.467  0.4177 -0.0536  0.3593
 8768SOL    MW434840   0.257   3.171   3.534 -0.2368  0.4900  0.0386
 8769SOL     OW34841   3.514   5.231   1.515  0.3800  0.2704  0.0009
 8769SOL    HW234842   3.578   5.184   1.461 -0.6139 -0.7144 -0.3503
 8769SOL    HW334843   3.534   5.324   1.501  1.5731 -0.0172 -0.2784
 8769SOL    MW434844   3.525   5.237   1.506  0.4063  0.1025 -0.0823
 8770SOL     OW34845   4.537   4.181   3.117  0.0154 -0.4424  0.1962
 8770SOL    HW234846   4.552   4.089   3.098 -0.9807 -0.6961  0.5910
 8770SOL    HW334847   4.595   4.228   3.057  1.4067 -1.3277  0.7775
 8770SOL    MW434848   4.547   4.175   3.107  0.0675 -0.5927  0.3250
 8771SOL     OW34849   1.663   5.765   1.393 -0.1370 -0.4771  0.5141
 8771SOL    HW234850   1.636   5.832   1.455 -1.0990  1.9138 -2.2830
 8771SOL    HW334851   1.611   5.782   1.315  1.6910 -2.6952 -1.3244
 8771SOL    MW434852   1.653   5.776   1.391 -0.0228 -0.4543 -0.0975
 8772SOL     OW34853   1.727   0.114   3.247  0.2331 -0.2059 -0.0409
 8772SOL    HW234854   1.665   0.042   3.256 -1.3046  0.9559 -0.7917
 8772SOL    HW334855   1.691   0.184   3.303  0.6474  0.6143 -0.7653
 8772SOL    MW434856   1.714   0.114   3.255  0.0849  0.0556 -0.2355
 8773SOL     OW34857   5.336   4.671   0.548 -0.0214  0.2181 -0.3946
 8773SOL    HW234858   5.347   4.653   0.641  0.7415  1.6241 -0.1817
 8773SOL    HW334859   5.319   4.585   0.508  0.1928 -0.4706  0.9542
 8773SOL    MW434860   5.335   4.657   0.555  0.1075  0.3128 -0.1886
 8774SOL     OW34861   6.207   4.949   4.023 -0.2138 -0.2175 -0.6343
 8774SOL    HW234862   6.134   4.942   4.084 -0.3802  0.0132 -0.8059
 8774SOL    HW334863   6.234   4.859   4.007  0.2927 -0.2563  0.3388
 8774SOL    MW434864   6.201   4.936   4.029 -0.1690 -0.1922 -0.5285
 8775SOL     OW34865   3.859   1.427   1.856  0.1918 -0.3560 -0.0167
 8775SOL    HW234866   3.789   1.465   1.910  0.0363  1.0320 -1.1369
 8775SOL    HW334867   3.940   1.454   1.900  0.0540  0.2485 -0.1211
 8775SOL    MW434868   3.860   1.436   1.869  0.1531 -0.0931 -0.1782
 8776SOL     OW34869   1.803   3.351   1.346  0.0226  0.4235  0.3753
 8776SOL    HW234870   1.808   3.338   1.441  0.2703  1.0196  0.4501
 8776SOL    HW334871   1.884   3.399   1.325  1.5266 -2.3076 -0.5845
 8776SOL    MW434872   1.814   3.356   1.355  0.2537  0.1418  0.2585
 8777SOL     OW34873   4.352   1.639   5.808 -0.1104  0.3612 -0.6191
 8777SOL    HW234874   4.407   1.583   5.863 -0.9681 -0.8720 -0.9887
 8777SOL    HW334875   4.384   1.625   5.719 -2.9367 -2.8896 -1.3229
 8777SOL    MW434876   4.363   1.630   5.804 -0.5964 -0.2304 -0.7608
 8778SOL     OW34877   0.601   0.276   5.087 -0.0150  0.4993 -0.4670
 8778SOL    HW234878   0.692   0.306   5.089  0.1446  0.2052 -2.0877
 8778SOL    HW334879   0.593   0.227   5.005 -1.7753  1.0066 -0.6563
 8778SOL    MW434880   0.612   0.274   5.076 -0.2262  0.5274 -0.7058
 8779SOL     OW34881   2.145   5.626   6.182  0.4381  0.0893 -0.4401
 8779SOL    HW234882   2.222   5.575   6.157 -0.2009 -1.5522  0.7863
 8779SOL    HW334883   2.178   5.687   6.248  0.9145  0.2090 -0.7812
 8779SOL    MW434884   2.160   5.627   6.188  0.4166 -0.1115 -0.3233
 8780SOL     OW34885   5.238   6.197   4.744  0.2101 -0.0583  0.1250
 8780SOL    HW234886   5.274   6.147   4.671 -0.0602  2.6611 -2.0367
 8780SOL    HW334887   5.145   6.173   4.745  0.3042 -0.4504 -0.1474
 8780SOL    MW434888   5.230   6.187   4.734  0.1869  0.2487 -0.1961
 8781SOL     OW34889   6.016   4.786   2.967 -0.4872 -0.0827 -0.2316
 8781SOL    HW234890   5.940   4.748   3.012  0.0228  0.2998  1.0002
 8781SOL    HW334891   6.004   4.880   2.975 -0.0464 -0.0187 -0.3170
 8781SOL    MW434892   6.004   4.793   2.974 -0.3617 -0.0238 -0.0803
 8782SOL     OW34893   4.129   5.571   3.998 -0.3358  0.1460  0.8382
 8782SOL    HW234894   4.090   5.596   3.914  0.8973 -0.4332  0.0724
 8782SOL    HW334895   4.056   5.538   4.049 -0.9097 -0.6939 -0.4758
 8782SOL    MW434896   4.114   5.570   3.993 -0.2488 -0.0412  0.5638
 8783SOL     OW34897   5.827   1.496   5.080  0.1291 -0.1845 -0.2021
 8783SOL    HW234898   5.761   1.497   5.010  1.0927  1.4071 -1.1574
 8783SOL    HW334899   5.886   1.425   5.057 -0.7355 -1.0556  0.1888
 8783SOL    MW434900   5.826   1.487   5.068  0.1422 -0.0894 -0.2766
 8784SOL     OW34901   0.056   0.462   5.597 -0.2885 -0.0663 -0.5890
 8784SOL    HW234902   0.150   0.446   5.599 -0.1724  0.5322 -1.1186
 8784SOL    HW334903   0.048   0.557   5.601 -0.9472 -0.1417  1.7656
 8784SOL    MW434904   0.067   0.472   5.598 -0.3601  0.0028 -0.3482
 8785SOL     OW34905   3.005   6.027   2.703 -0.2238  0.4059  0.1692
 8785SOL    HW234906   3.078   5.966   2.696  1.3216  1.8959  2.0807
 8785SOL    HW334907   2.929   5.972   2.723  0.1385 -1.2516 -2.4691
 8785SOL    MW434908   3.004   6.012   2.705  0.0279  0.3838  0.0733
 8786SOL     OW34909   0.908   5.055   3.700 -0.2004  0.1446  0.4275
 8786SOL    HW234910   0.967   5.087   3.633  1.1033 -0.5574  1.2048
 8786SOL    HW334911   0.868   5.134   3.737 -0.2804  0.5818 -0.5493
 8786SOL    MW434912   0.910   5.070   3.696 -0.0390  0.1097  0.4012
 8787SOL     OW34913   1.175   1.109   6.401 -0.0334  0.1645 -0.2082
 8787SOL    HW234914   1.086   1.102   6.437  0.1261 -1.3915 -0.0459
 8787SOL    HW334915   1.167   1.077   6.311  0.4939 -0.6565  0.0328
 8787SOL    MW434916   1.162   1.104   6.394  0.0572 -0.1491 -0.1550
 8788SOL     OW34917   4.027   5.906   0.335 -0.4473  0.5448 -0.1135
 8788SOL    HW234918   4.091   5.925   0.267  0.3302 -1.0687  0.1153
 8788SOL    HW334919   3.999   5.992   0.367 -0.3816  1.3121 -2.0191
 8788SOL    MW434920   4.032   5.920   0.331 -0.3361  0.4331 -0.3347
 8789SOL     OW34921   2.231   1.136   2.294 -0.2743 -0.1594 -0.3568
 8789SOL    HW234922   2.156   1.078   2.281 -1.1519  1.1661 -1.4323
 8789SOL    HW334923   2.216   1.177   2.379 -0.3871 -0.4328 -0.2434
 8789SOL    MW434924   2.219   1.133   2.303 -0.4050 -0.0206 -0.4837
 8790SOL     OW34925   5.370   2.343   0.757  0.0979 -0.3188  0.6052
 8790SOL    HW234926   5.303   2.367   0.693  2.1599  1.2356 -1.1289
 8790SOL    HW334927   5.375   2.419   0.815  0.7263 -0.1738  0.3705
 8790SOL    MW434928   5.362   2.356   0.756  0.4529 -0.0946  0.3454
 8791SOL     OW34929   0.992   1.871   1.797 -0.0232 -0.1908  0.1829
 8791SOL    HW234930   0.914   1.843   1.844  0.7295  0.5719  1.9755
 8791SOL    HW334931   1.000   1.964   1.816  2.2320 -0.5739  1.5297
 8791SOL    MW434932   0.983   1.879   1.805  0.3736 -0.1407  0.5971
 8792SOL     OW34933   0.243   4.085   2.231 -0.1764 -0.8209 -0.7277
 8792SOL    HW234934   0.319   4.033   2.204  1.6428  0.6962  1.1377
 8792SOL    HW334935   0.220   4.051   2.317  2.0603  2.2508  1.2689
 8792SOL    MW434936   0.250   4.073   2.239  0.3587 -0.2155 -0.2182
 8793SOL     OW34937   2.069   0.004   5.385  0.3762  0.5484  0.1291
 8793SOL    HW234938   2.030   0.090   5.370  0.6579  0.7826  0.7055
 8793SOL    HW334939   2.153   0.023   5.427  0.8600  0.0244 -0.5876
 8793SOL    MW434940   2.075   0.018   5.389  0.4772  0.5102  0.1106
 8794SOL     OW34941   3.204   5.459   1.245  0.0742  1.0022  0.2570
 8794SOL    HW234942   3.167   5.528   1.301  1.5998  0.8076  1.5777
 8794SOL    HW334943   3.231   5.391   1.306 -0.2906 -0.2566 -0.9344
 8794SOL    MW434944   3.202   5.459   1.261  0.2273  0.8104  0.2740
 8795SOL     OW34945   2.378   4.905   3.070 -0.2179 -0.1828 -0.4793
 8795SOL    HW234946   2.291   4.916   3.029 -0.0136  0.9776 -0.6453
 8795SOL    HW334947   2.359   4.893   3.163 -0.5344  0.8866 -0.3927
 8795SOL    MW434948   2.364   4.905   3.077 -0.2327  0.1114 -0.4898
 8796SOL     OW34949   5.250   0.407   4.507 -0.2325  0.4256  0.4931
 8796SOL    HW234950   5.161   0.384   4.481  0.3021  0.0958 -1.2393
 8796SOL    HW334951   5.290   0.442   4.427  1.4464 -0.2450  0.9839
 8796SOL    MW434952   5.244   0.408   4.493  0.0596  0.2936  0.3293
 8797SOL     OW34953   2.450   2.577   3.587 -0.6878 -0.3204  0.0949
 8797SOL    HW234954   2.445   2.493   3.632 -0.7461  0.3863  1.4571
 8797SOL    HW334955   2.427   2.642   3.653  0.6747  0.8855 -0.5313
 8797SOL    MW434956   2.446   2.574   3.601 -0.5157 -0.0681  0.1920
 8798SOL     OW34957   2.621   0.739   2.917 -0.2945  0.1127  0.5492
 8798SOL    HW234958   2.565   0.817   2.915 -0.8589 -0.2908  0.1070
 8798SOL    HW334959   2.647   0.727   2.825  1.5801  1.0300  0.9096
 8798SOL    MW434960   2.617   0.748   2.904 -0.1217  0.1805  0.5384
 8799SOL     OW34961   5.809   5.223   5.981 -0.6655 -0.1617  0.3867
 8799SOL    HW234962   5.847   5.233   6.068 -2.6030  1.3988  1.1158
 8799SOL    HW334963   5.720   5.191   5.997 -0.9152 -0.2561 -1.0537
 8799SOL    MW434964   5.802   5.220   5.995 -0.9541  0.0318  0.2928
 8800SOL     OW34965   3.343   2.448   3.970  0.0447  0.0837  0.5170
 8800SOL    HW234966   3.365   2.374   3.913 -0.2644  0.9310 -0.7566
 8800SOL    HW334967   3.248   2.452   3.968  0.0581  0.5196  0.5501
 8800SOL    MW434968   3.334   2.439   3.962  0.0057  0.2530  0.3533
 8801SOL     OW34969   1.261   0.307   5.977  0.1126 -0.1852  0.0393
 8801SOL    HW234970   1.305   0.392   5.986  0.3818 -0.2514 -0.5558
 8801SOL    HW334971   1.168   0.328   5.973  0.1757  0.0842 -0.0407
 8801SOL    MW434972   1.255   0.321   5.977  0.1565 -0.1584 -0.0498
 8802SOL     OW34973   1.856   5.948   3.236  0.0007  0.8402  0.5717
 8802SOL    HW234974   1.911   5.922   3.162 -0.2684  0.5430  0.4743
 8802SOL    HW334975   1.843   6.042   3.223 -0.0517  0.7896  0.2369
 8802SOL    MW434976   1.862   5.957   3.224 -0.0417  0.7943  0.5147
 8803SOL     OW34977   5.591   3.075   2.249  0.2288 -0.3189 -0.1487
 8803SOL    HW234978   5.511   3.075   2.300  0.8016 -1.2783  0.7832
 8803SOL    HW334979   5.577   3.142   2.181 -0.3122  1.4309  1.6064
 8803SOL    MW434980   5.579   3.084   2.247  0.2330 -0.2146  0.2058
 8804SOL     OW34981   2.133   4.502   3.761 -0.5331 -0.0376  0.5686
 8804SOL    HW234982   2.211   4.557   3.762 -1.6199  1.5848  1.0565
 8804SOL    HW334983   2.133   4.463   3.674 -0.6571  2.2529 -0.5568
 8804SOL    MW434984   2.143   4.504   3.749 -0.6928  0.4787  0.4845
 8805SOL     OW34985   2.502   5.058   0.196  0.2743  0.3751 -0.7765
 8805SOL    HW234986   2.562   4.983   0.198  1.3253  1.2002 -0.5093
 8805SOL    HW334987   2.555   5.131   0.227 -0.6492  1.2944 -1.3290
 8805SOL    MW434988   2.517   5.058   0.200  0.2911  0.6052 -0.8142
 8806SOL     OW34989   1.112   0.621   2.771 -0.5025  0.1607  0.1666
 8806SOL    HW234990   1.031   0.607   2.821  0.0989 -2.1038  0.6281
 8806SOL    HW334991   1.120   0.542   2.716  1.0985  0.5925 -0.2766
 8806SOL    MW434992   1.102   0.608   2.770 -0.2119 -0.0811  0.1691
 8807SOL     OW34993   4.328   4.949   0.856  0.0323  0.2402  0.8594
 8807SOL    HW234994   4.241   4.971   0.823  0.4111  1.3860  0.5868
 8807SOL    HW334995   4.381   5.027   0.838  1.6575 -1.1640 -0.8288
 8807SOL    MW434996   4.324   4.963   0.850  0.2967  0.2061  0.6007
 8808SOL     OW34997   1.719   5.636   6.398  0.5269  0.0580  0.2575
 8808SOL    HW234998   1.759   5.626   6.484  2.3923  2.5290 -0.1900
 8808SOL    HW334999   1.754   5.719   6.365  0.5369 -1.1536 -3.2048
 8808SOL    MW435000   1.729   5.646   6.405  0.7743  0.2242 -0.2583
 8809SOL     OW35001   3.591   3.174   4.809 -0.0529 -0.1444 -0.1402
 8809SOL    HW235002   3.562   3.090   4.773 -0.5291 -0.8792  1.8724
 8809SOL    HW335003   3.567   3.171   4.901  2.4832  1.0490  0.6467
 8809SOL    MW435004   3.584   3.163   4.816  0.2189 -0.0839  0.2292
 8810SOL     OW35005   3.516   2.378   4.403  0.3442 -0.0234 -0.5227
 8810SOL    HW235006   3.540   2.404   4.315 -1.2565 -1.8215 -1.5785
 8810SOL    HW335007   3.598   2.350   4.443  1.0064  0.2394 -1.6603
 8810SOL    MW435008   3.530   2.377   4.397  0.2204 -0.2259 -0.8121
 8811SOL     OW35009   0.232   0.606   2.923 -0.3097 -0.0001  0.0437
 8811SOL    HW235010   0.302   0.564   2.973 -1.3989 -0.9191  0.8416
 8811SOL    HW335011   0.193   0.535   2.872 -0.2794  0.6183 -0.8640
 8811SOL    MW435012   0.236   0.591   2.923 -0.4494 -0.0397  0.0292
 8812SOL     OW35013   4.176   2.483   2.050 -0.3349  0.3449 -0.2215
 8812SOL    HW235014   4.230   2.527   2.115  0.0511 -0.6234  0.1303
 8812SOL    HW335015   4.213   2.395   2.044 -1.4181 -0.1036 -0.5163
 8812SOL    MW435016   4.188   2.477   2.058 -0.4269  0.1580 -0.2139
 8813SOL     OW35017   5.349   5.503   3.662 -0.3751 -0.0047 -0.7072
 8813SOL    HW235018   5.282   5.434   3.670  0.1659 -0.4512  0.1653
 8813SOL    HW335019   5.363   5.533   3.752  1.0015 -0.3235 -0.7932
 8813SOL    MW435020   5.342   5.498   3.675 -0.1221 -0.1057 -0.6034
 8814SOL     OW35021   2.352   5.019   1.346  0.0143  0.0042  0.4916
 8814SOL    HW235022   2.353   4.960   1.270  1.4473 -1.0828  1.2956
 8814SOL    HW335023   2.389   5.101   1.313 -0.7366  0.0277 -0.3246
 8814SOL    MW435024   2.357   5.022   1.331  0.1043 -0.1361  0.4900
 8815SOL     OW35025   3.349   4.770   3.334 -0.1863  0.0296 -0.1961
 8815SOL    HW235026   3.373   4.840   3.394  0.9338  0.6939 -1.3691
 8815SOL    HW335027   3.395   4.693   3.367  0.4224  0.3892 -0.2023
 8815SOL    MW435028   3.358   4.769   3.346  0.0418  0.1647 -0.3517
 8816SOL     OW35029   4.970   5.782   2.028  0.4898 -0.0475  0.2501
 8816SOL    HW235030   5.052   5.738   2.050  3.0695  3.9896 -0.0983
 8816SOL    HW335031   4.979   5.869   2.069 -3.7213  0.5818  0.2411
 8816SOL    MW435032   4.982   5.788   2.036  0.2746  0.5682  0.2030
 8817SOL     OW35033   2.572   6.093   6.142  0.0000 -0.0713 -0.1220
 8817SOL    HW235034   2.493   6.126   6.187 -1.2930 -1.5137 -1.2146
 8817SOL    HW335035   2.547   6.005   6.112  1.6994 -0.1646 -1.3861
 8817SOL    MW435036   2.558   6.086   6.144  0.0537 -0.2739 -0.4330
 8818SOL     OW35037   2.840   4.656   3.243  0.2677 -0.0705 -0.0953
 8818SOL    HW235038   2.810   4.738   3.282  2.0969  0.4471  0.3340
 8818SOL    HW335039   2.888   4.683   3.164 -0.8804 -0.9018 -1.1148
 8818SOL    MW435040   2.843   4.671   3.238  0.3576 -0.1119 -0.1731
 8819SOL     OW35041   1.001   4.097   3.000 -0.5063 -0.7644 -0.2454
 8819SOL    HW235042   0.906   4.093   3.003 -0.4442 -2.3733  1.5279
 8819SOL    HW335043   1.029   4.064   3.086  1.6379  0.2600 -0.4838
 8819SOL    MW435044   0.992   4.092   3.012 -0.2152 -0.8416 -0.0429
 8820SOL     OW35045   3.074   4.427   3.796  0.0698  0.2467 -0.1393
 8820SOL    HW235046   3.065   4.359   3.864  1.2066  0.0971 -0.1207
 8820SOL    HW335047   3.108   4.503   3.843 -1.3403  0.9017 -0.1347
 8820SOL    MW435048   3.077   4.428   3.811  0.0338  0.3134 -0.1362
 8821SOL     OW35049   4.109   2.057   2.731 -0.7026 -0.1411  0.0377
 8821SOL    HW235050   4.160   2.050   2.812 -0.4062  0.5262 -0.0848
 8821SOL    HW335051   4.165   2.107   2.672 -0.8534 -0.7438 -0.6404
 8821SOL    MW435052   4.123   2.062   2.734 -0.6834 -0.1326 -0.0679
 8822SOL     OW35053   4.678   6.055   3.387  0.5930  0.3400 -0.2546
 8822SOL    HW235054   4.586   6.064   3.361  0.4129  1.8821  0.8285
 8822SOL    HW335055   4.703   6.141   3.418  2.0665 -0.3684  0.6302
 8822SOL    MW435056   4.669   6.067   3.388  0.7637  0.4500  0.0051
 8823SOL     OW35057   2.453   0.959   2.928  0.3323 -0.1569  0.1147
 8823SOL    HW235058   2.399   0.907   2.986 -0.4274  1.6431  1.1046
 8823SOL    HW335059   2.411   0.953   2.843  0.2512 -1.1095  0.2158
 8823SOL    MW435060   2.441   0.952   2.925  0.2214 -0.0451  0.2587
 8824SOL     OW35061   6.091   0.081   1.245  0.4030  0.1373  0.4864
 8824SOL    HW235062   6.186   0.075   1.251  0.4052  0.2954  0.6068
 8824SOL    HW335063   6.059   0.052   1.330  0.3439  0.1097  0.4554
 8824SOL    MW435064   6.099   0.076   1.257  0.3955  0.1545  0.4982
 8825SOL     OW35065   5.567   3.063   5.194  0.6162  0.3904 -0.2196
 8825SOL    HW235066   5.489   3.103   5.234  0.5541 -0.7109  0.8123
 8825SOL    HW335067   5.606   3.134   5.142  0.0004  1.5215  0.7991
 8825SOL    MW435068   5.562   3.078   5.193  0.5268  0.3943  0.0509
 8826SOL     OW35069   2.380   2.949   1.354 -0.5203 -0.7017 -0.2409
 8826SOL    HW235070   2.409   2.991   1.274 -0.4377 -0.0869  0.1065
 8826SOL    HW335071   2.413   3.005   1.424 -1.4322 -0.6936  0.1993
 8826SOL    MW435072   2.388   2.962   1.353 -0.6297 -0.6196 -0.1370
 8827SOL     OW35073   1.845   1.316   5.314 -0.6859 -0.3103  0.0227
 8827SOL    HW235074   1.901   1.241   5.293 -2.2979 -1.2626 -1.1128
 8827SOL    HW335075   1.757   1.279   5.322 -1.3333  1.2812  0.7591
 8827SOL    MW435076   1.841   1.301   5.312 -0.9840 -0.2260 -0.0299
 8828SOL     OW35077   1.707   5.540   1.561 -0.8139 -0.3133  0.1122
 8828SOL    HW235078   1.687   5.618   1.510  1.7039  1.2138  1.2557
 8828SOL    HW335079   1.718   5.471   1.495  0.8888  1.2501 -1.3589
 8828SOL    MW435080   1.706   5.541   1.546 -0.2571  0.0945  0.0690
 8829SOL     OW35081   2.821   3.277   3.404 -0.2589  0.2178 -0.0047
 8829SOL    HW235082   2.783   3.215   3.342  0.2754  0.8905 -1.0120
 8829SOL    HW335083   2.868   3.340   3.350  0.9902  0.3023  1.1308
 8829SOL    MW435084   2.822   3.277   3.389 -0.0236  0.3177  0.0122
 8830SOL     OW35085   2.059   1.588   5.355  0.1868 -0.3716 -0.3587
 8830SOL    HW235086   2.081   1.515   5.413  0.8294  0.3090  0.2751
 8830SOL    HW335087   2.120   1.658   5.380  1.2744 -0.4221 -2.6574
 8830SOL    MW435088   2.070   1.588   5.366  0.4151 -0.2885 -0.5784
 8831SOL     OW35089   5.695   1.297   4.703 -0.1554  0.2399  0.1318
 8831SOL    HW235090   5.777   1.346   4.697  0.1484 -0.3742 -1.1673
 8831SOL    HW335091   5.705   1.244   4.782  0.7187  0.1511 -0.0206
 8831SOL    MW435092   5.707   1.297   4.713  0.0000  0.1471 -0.0597
 8832SOL     OW35093   4.475   6.217   1.364  0.3373 -0.7195 -0.5527
 8832SOL    HW235094   4.569   6.202   1.357  0.5034  0.8334 -2.7733
 8832SOL    HW335095   4.447   6.237   1.275 -2.3574 -2.2711 -0.1648
 8832SOL    MW435096   4.484   6.218   1.351  0.0037 -0.7193 -0.7945
 8833SOL     OW35097   6.289   5.956   5.428 -0.4328 -0.2840  0.0149
 8833SOL    HW235098   6.249   5.987   5.347 -0.8429 -1.9719 -0.4603
 8833SOL    HW335099   6.242   5.876   5.449 -2.2244  1.4089  3.4135
 8833SOL    MW435100   6.278   5.950   5.420 -0.7233 -0.2833  0.4006
 8834SOL     OW35101   0.215   6.394   5.125 -0.4384 -0.3360  0.2228
 8834SOL    HW235102   0.145   6.334   5.150 -0.5027  0.2204  1.4117
 8834SOL    HW335103   0.296   6.348   5.147 -0.4450 -0.6322 -0.3605
 8834SOL    MW435104   0.217   6.380   5.131 -0.4478 -0.3017  0.3027
 8835SOL     OW35105   3.962   4.962   1.111 -0.3327  0.3562 -0.0597
 8835SOL    HW235106   3.930   4.875   1.090  0.7780 -0.4498  1.3645
 8835SOL    HW335107   3.910   5.021   1.057 -0.2311 -1.2610 -2.0091
 8835SOL    MW435108   3.951   4.958   1.101 -0.1728  0.0365 -0.1290
 8836SOL     OW35109   2.427   6.419   1.238  0.4147  0.4062 -0.1361
 8836SOL    HW235110   2.422   6.336   1.287  2.2558 -0.6379 -1.5929
 8836SOL    HW335111   2.393   6.484   1.299 -2.1719 -1.5283  0.7001
 8836SOL    MW435112   2.422   6.416   1.253  0.3164  0.0132 -0.2180
 8837SOL     OW35113   4.715   5.689   1.682 -0.2404  0.1152  0.1264
 8837SOL    HW235114   4.767   5.657   1.755  0.9910 -2.2172 -1.6333
 8837SOL    HW335115   4.749   5.642   1.606 -2.8922  0.8262 -1.6320
 8837SOL    MW435116   4.726   5.679   1.681 -0.4278 -0.0987 -0.3377
 8838SOL     OW35117   0.407   2.149   4.442 -0.0657 -0.4986 -0.1079
 8838SOL    HW235118   0.501   2.135   4.431  0.0136 -1.4697  1.5245
 8838SOL    HW335119   0.384   2.100   4.521 -2.0576 -0.7369 -0.7776
 8838SOL    MW435120   0.416   2.141   4.451 -0.3180 -0.6581  0.0191
 8839SOL     OW35121   6.067   3.949   4.584  0.7774  0.0939  0.4081
 8839SOL    HW235122   6.143   3.987   4.541  0.6585 -0.3620 -0.2149
 8839SOL    HW335123   6.085   3.960   4.678  2.1500 -1.0189  0.3144
 8839SOL    MW435124   6.080   3.956   4.591  0.9428 -0.1131  0.3136
 8840SOL     OW35125   0.757   0.209   2.931 -0.2268  0.1850 -0.6008
 8840SOL    HW235126   0.744   0.119   2.959 -1.5183  0.8247  1.0415
 8840SOL    HW335127   0.852   0.218   2.919  0.2882 -0.5570  2.3340
 8840SOL    MW435128   0.768   0.198   2.933 -0.3292  0.1715  0.0031
 8841SOL     OW35129   0.630   3.817   3.996  0.4183  0.4266  0.4772
 8841SOL    HW235130   0.714   3.859   4.013  0.4844  0.1078  0.9432
 8841SOL    HW335131   0.565   3.881   4.027  0.4967  0.4855  0.5203
 8841SOL    MW435132   0.632   3.831   4.002  0.4374  0.3923  0.5444
 8842SOL     OW35133   5.873   5.564   2.110  0.2532 -0.0482 -0.6827
 8842SOL    HW235134   5.968   5.575   2.110  0.3520 -0.8601 -0.4282
 8842SOL    HW335135   5.840   5.640   2.157  0.7757  0.2596 -0.8069
 8842SOL    MW435136   5.881   5.575   2.116  0.3351 -0.1148 -0.6655
 8843SOL     OW35137   2.840   1.151   3.468 -0.1210  0.5957  0.6463
 8843SOL    HW235138   2.920   1.102   3.448 -1.6182 -1.8243  0.0964
 8843SOL    HW335139   2.863   1.242   3.453  1.9574 -0.1870 -1.6227
 8843SOL    MW435140   2.853   1.156   3.463 -0.0443  0.1732  0.2744
 8844SOL     OW35141   2.904   6.236   1.203  0.1387  0.1207  0.7696
 8844SOL    HW235142   2.838   6.305   1.195  0.0354  0.1014  1.3951
 8844SOL    HW335143   2.964   6.267   1.270  1.2740  0.5299 -0.3968
 8844SOL    MW435144   2.903   6.249   1.210  0.2748  0.1722  0.6982
 8845SOL     OW35145   3.458   2.351   1.251 -0.4257 -0.4803  0.2018
 8845SOL    HW235146   3.364   2.332   1.258 -0.6771  0.5882 -0.0208
 8845SOL    HW335147   3.471   2.427   1.309 -0.5889  2.1429 -2.9050
 8845SOL    MW435148   3.447   2.359   1.260 -0.4804  0.0068 -0.2374
 8846SOL     OW35149   6.380   4.694   3.595  0.2338  0.4923 -0.5814
 8846SOL    HW235150   6.383   4.778   3.641  0.9630 -0.1537  0.6329
 8846SOL    HW335151   6.287   4.676   3.584 -0.0219  0.3498  1.3590
 8846SOL    MW435152   6.368   4.703   3.600  0.2963  0.3883 -0.1652
 8847SOL     OW35153   2.798   4.469   3.761 -0.3005  0.4693  0.3231
 8847SOL    HW235154   2.893   4.455   3.761 -0.3540  0.1022  0.1078
 8847SOL    HW335155   2.785   4.548   3.709 -0.1906 -0.0467 -0.5137
 8847SOL    MW435156   2.809   4.477   3.754 -0.2931  0.3528  0.1843
 8848SOL     OW35157   1.890   3.863   2.287  0.4470 -0.0720 -0.1011
 8848SOL    HW235158   1.870   3.770   2.297  1.2771 -0.1157  1.5994
 8848SOL    HW335159   1.975   3.873   2.331  0.6750  1.3741 -0.8327
 8848SOL    MW435160   1.899   3.852   2.294  0.5866  0.1130  0.0267
 8849SOL     OW35161   1.805   2.482   1.946 -0.0270 -0.3917 -0.0846
 8849SOL    HW235162   1.711   2.472   1.958  0.1752 -0.9149  1.1903
 8849SOL    HW335163   1.818   2.480   1.851 -1.3969  0.7352 -0.3234
 8849SOL    MW435164   1.795   2.481   1.935 -0.1811 -0.3121  0.0521
 8850SOL     OW35165   0.909   5.869   5.904 -0.5070 -0.4522 -0.3860
 8850SOL    HW235166   0.932   5.955   5.939 -1.2040 -0.4913  0.1868
 8850SOL    HW335167   0.937   5.872   5.812 -1.5232  0.7751 -0.6771
 8850SOL    MW435168   0.916   5.881   5.896 -0.7331 -0.2955 -0.3488
 8851SOL     OW35169   1.129   4.383   1.371 -0.1103  0.3323 -0.6492
 8851SOL    HW235170   1.048   4.434   1.381  0.7046  1.3179  1.8417
 8851SOL    HW335171   1.183   4.434   1.311 -0.3925  0.9435 -0.3888
 8851SOL    MW435172   1.125   4.396   1.365 -0.0400  0.5430 -0.2862
 8852SOL     OW35173   1.141   1.851   5.710 -0.2529  0.6167 -0.2824
 8852SOL    HW235174   1.077   1.920   5.696 -1.3529 -0.1252  0.9374
 8852SOL    HW335175   1.103   1.796   5.778  0.4324 -1.4096 -1.4684
 8852SOL    MW435176   1.128   1.853   5.717 -0.3076  0.2514 -0.2779
 8853SOL     OW35177   3.621   0.652   6.069 -0.5920 -0.3205 -0.1862
 8853SOL    HW235178   3.695   0.624   6.016 -1.9441 -0.4448 -2.1222
 8853SOL    HW335179   3.635   0.745   6.083 -0.4565 -0.1650 -1.2439
 8853SOL    MW435180   3.632   0.660   6.064 -0.7525 -0.3164 -0.5812
 8854SOL     OW35181   3.368   2.472   4.612 -0.0599  0.5493  0.1454
 8854SOL    HW235182   3.407   2.429   4.537  1.1147  1.2558  0.3219
 8854SOL    HW335183   3.443   2.499   4.666 -0.8408  0.8587  1.1076
 8854SOL    MW435184   3.383   2.470   4.609 -0.0080  0.6834  0.2956
 8855SOL     OW35185   1.129   3.345   3.138  0.1811  0.0480 -0.1858
 8855SOL    HW235186   1.212   3.296   3.132 -0.6537 -1.3433 -0.9611
 8855SOL    HW335187   1.075   3.293   3.198 -0.5455  0.3240 -0.5962
 8855SOL    MW435188   1.133   3.331   3.145 -0.0249 -0.0992 -0.3423
 8856SOL     OW35189   0.016   2.576   2.012  0.1453  0.4955  0.4832
 8856SOL    HW235190   0.040   2.499   1.960  1.2777  1.3742 -0.3404
 8856SOL    HW335191  -0.005   2.541   2.098  0.1927 -0.7825 -0.0034
 8856SOL    MW435192   0.017   2.561   2.016  0.3010  0.4428  0.3104
 8857SOL     OW35193   1.074   1.181   5.439 -0.3639  1.0179 -0.1267
 8857SOL    HW235194   1.053   1.094   5.407 -1.9504  1.5974 -0.7690
 8857SOL    HW335195   0.991   1.215   5.472  0.2174  2.2849  0.0875
 8857SOL    MW435196   1.060   1.174   5.439 -0.4965  1.2615 -0.1832
 8858SOL     OW35197   2.594   4.088   2.535 -0.0541 -0.2936  0.3162
 8858SOL    HW235198   2.615   4.181   2.541 -1.4663  0.1766 -1.2912
 8858SOL    HW335199   2.649   4.046   2.602  1.3745  1.5479  0.3614
 8858SOL    MW435200   2.604   4.095   2.545 -0.0519  0.0114  0.1101
 8859SOL     OW35201   0.424   1.920   5.154  0.1371 -0.2110 -0.1726
 8859SOL    HW235202   0.493   1.952   5.096 -0.0901  0.4469 -0.0828
 8859SOL    HW335203   0.399   1.995   5.207  1.6565 -1.2498  2.1512
 8859SOL    MW435204   0.429   1.934   5.153  0.3076 -0.2612  0.1459
 8860SOL     OW35205   0.705   4.547   2.088 -0.5761 -0.3460 -0.2888
 8860SOL    HW235206   0.785   4.500   2.111 -0.3837  0.3769  0.6268
 8860SOL    HW335207   0.730   4.605   2.017  0.1008  0.8704  0.8933
 8860SOL    MW435208   0.719   4.548   2.082 -0.4614 -0.0901 -0.0120
 8861SOL     OW35209   4.196   2.948   1.150  0.2594 -0.4997  0.4105
 8861SOL    HW235210   4.155   2.891   1.216 -0.2979 -0.4757  0.0912
 8861SOL    HW335211   4.198   2.895   1.071  3.5327 -1.5866  1.0890
 8861SOL    MW435212   4.191   2.933   1.148  0.6177 -0.6399  0.4579
 8862SOL     OW35213   3.696   4.028   1.084  0.0024  0.3473 -0.4508
 8862SOL    HW235214   3.734   4.099   1.032  1.1803 -0.4344 -0.7206
 8862SOL    HW335215   3.771   3.971   1.104 -0.6222  0.0337  1.1499
 8862SOL    MW435216   3.711   4.030   1.080  0.0754  0.2028 -0.2752
 8863SOL     OW35217   3.495   2.949   0.963  0.2964 -0.0393  0.1130
 8863SOL    HW235218   3.403   2.973   0.977  0.0837 -0.9884  0.4011
 8863SOL    HW335219   3.525   3.009   0.895 -0.5597  0.2408 -0.0286
 8863SOL    MW435220   3.487   2.960   0.956  0.1554 -0.1276  0.1324
 8864SOL     OW35221   4.471   3.651   6.460 -0.2664 -0.7051 -0.3915
 8864SOL    HW235222   4.542   3.661   6.523  0.5071  0.7687 -1.4442
 8864SOL    HW335223   4.494   3.572   6.411  0.0937 -0.8267 -0.0318
 8864SOL    MW435224   4.483   3.642   6.462 -0.1169 -0.5267 -0.4830
 8865SOL     OW35225   5.085   3.372   0.681 -0.4215 -0.3836 -0.2336
 8865SOL    HW235226   5.029   3.306   0.722 -0.8346 -1.3162 -2.1991
 8865SOL    HW335227   5.032   3.408   0.610  0.8253 -0.0251 -1.0117
 8865SOL    MW435228   5.071   3.368   0.677 -0.3115 -0.4594 -0.5956
 8866SOL     OW35229   5.227   1.290   2.676  0.3034  0.6007 -0.0062
 8866SOL    HW235230   5.233   1.212   2.621  0.1331  0.7204 -0.1967
 8866SOL    HW335231   5.301   1.283   2.736  0.9625  0.8721 -0.7694
 8866SOL    MW435232   5.238   1.279   2.677  0.3679  0.6523 -0.1320
 8867SOL     OW35233   1.980   0.823   2.996  0.3412 -0.8351  0.6170
 8867SOL    HW235234   2.048   0.818   2.929  0.8262  0.7803  0.9466
 8867SOL    HW335235   2.010   0.764   3.065  0.7293 -1.1531  0.1808
 8867SOL    MW435236   1.993   0.815   2.997  0.4564 -0.6639  0.6030
 8868SOL     OW35237   4.168   1.571   2.763  0.8542 -0.1723  0.1959
 8868SOL    HW235238   4.199   1.631   2.695  0.6653  1.2926  1.3598
 8868SOL    HW335239   4.123   1.626   2.826 -0.5831 -1.7331  0.6161
 8868SOL    MW435240   4.166   1.586   2.762  0.6396 -0.1849  0.4049
 8869SOL     OW35241   4.774   5.720   2.690  0.0003 -0.5896 -0.4977
 8869SOL    HW235242   4.750   5.683   2.605 -1.2803  0.4297 -0.6160
 8869SOL    HW335243   4.694   5.713   2.743 -0.6092  2.6072 -0.7810
 8869SOL    MW435244   4.760   5.714   2.686 -0.2490 -0.0333 -0.5507
 8870SOL     OW35245   4.888   4.911   6.345  0.4055  0.1250 -0.1979
 8870SOL    HW235246   4.817   4.930   6.406  1.2964 -1.9947  1.6490
 8870SOL    HW335247   4.967   4.914   6.399  1.4307 -0.2465 -1.6211
 8870SOL    MW435248   4.889   4.914   6.360  0.6583 -0.2037 -0.1420
 8871SOL     OW35249   1.327   3.011   4.134  0.0251 -0.0600 -0.0730
 8871SOL    HW235250   1.245   2.983   4.174 -1.0452  1.3356 -1.2057
 8871SOL    HW335251   1.364   2.932   4.096 -0.7779 -0.7031  0.4502
 8871SOL    MW435252   1.321   2.997   4.135 -0.2220  0.0393 -0.1534
 8872SOL     OW35253   5.392   4.705   2.225 -0.4852  0.6482 -0.4456
 8872SOL    HW235254   5.318   4.648   2.245 -0.3509  0.4710 -0.4510
 8872SOL    HW335255   5.458   4.646   2.188 -0.8993  1.0369 -1.8548
 8872SOL    MW435256   5.391   4.689   2.223 -0.5221  0.6761 -0.6322
 8873SOL     OW35257   1.375   4.277   2.961  0.3023  0.1442  0.5593
 8873SOL    HW235258   1.296   4.298   3.011 -1.5677 -0.3357 -2.0098
 8873SOL    HW335259   1.356   4.305   2.872  3.2946  0.5208 -0.0851
 8873SOL    MW435260   1.362   4.284   2.956  0.4504  0.1306  0.1353
 8874SOL     OW35261   4.596   2.933   4.808 -0.2319  0.7911 -0.2803
 8874SOL    HW235262   4.676   2.883   4.793 -0.3268  1.2764 -3.0096
 8874SOL    HW335263   4.616   3.021   4.775 -1.7009  1.0591 -0.5345
 8874SOL    MW435264   4.609   2.938   4.802 -0.4382  0.8905 -0.6740
 8875SOL     OW35265   3.307   2.551   1.860  0.1614  0.2727  0.6388
 8875SOL    HW235266   3.396   2.565   1.829  0.1246  0.5404  0.6510
 8875SOL    HW335267   3.294   2.457   1.853 -0.6269  0.4821 -2.4098
 8875SOL    MW435268   3.317   2.541   1.855  0.0525  0.3357  0.2382
 8876SOL     OW35269   4.364   4.240   5.296 -0.5041 -0.2891  0.6326
 8876SOL    HW235270   4.362   4.331   5.323  0.0305  0.0708 -0.4773
 8876SOL    HW335271   4.283   4.228   5.245  0.9443  0.5251 -2.0400
 8876SOL    MW435272   4.353   4.250   5.293 -0.2425 -0.1342  0.1335
 8877SOL     OW35273   4.422   1.277   2.706 -0.3789 -1.2557 -0.1740
 8877SOL    HW235274   4.449   1.368   2.692 -0.3127 -1.4703 -1.5322
 8877SOL    HW335275   4.431   1.264   2.800 -3.2538  1.0734  0.5875
 8877SOL    MW435276   4.427   1.288   2.716 -0.7495 -0.9767 -0.2527
 8878SOL     OW35277   6.392   5.036   5.615  0.1115 -0.1681 -0.0871
 8878SOL    HW235278   6.452   4.962   5.628 -1.1317 -1.2824 -0.3871
 8878SOL    HW335279   6.324   5.001   5.557 -0.3434  1.3267 -0.4894
 8878SOL    MW435280   6.391   5.021   5.609 -0.1125 -0.1179 -0.1798
 8879SOL     OW35281   5.946   2.866   1.471 -0.3626 -0.4459  0.2391
 8879SOL    HW235282   5.951   2.872   1.376 -4.8904 -0.8010 -0.2141
 8879SOL    HW335283   5.961   2.956   1.502 -0.9136  0.0894 -1.0051
 8879SOL    MW435284   5.949   2.879   1.463 -1.0327 -0.4221  0.0152
 8880SOL     OW35285   0.008   5.453   1.389 -0.3208 -0.0216 -0.0721
 8880SOL    HW235286   0.018   5.381   1.451 -1.7791 -0.3955 -0.2405
 8880SOL    HW335287  -0.062   5.507   1.425  0.6434  1.2645 -0.0248
 8880SOL    MW435288  -0.000   5.451   1.402 -0.3860  0.0988 -0.0881
 8881SOL     OW35289   5.405   2.540   0.969  0.4907 -0.1301  0.7792
 8881SOL    HW235290   5.374   2.477   1.034  0.1177 -0.5846  0.1768
 8881SOL    HW335291   5.343   2.613   0.975  0.8266  0.1153  1.3629
 8881SOL    MW435292   5.392   2.541   0.979  0.4858 -0.1577  0.7767
 8882SOL     OW35293   6.009   1.286   5.802  0.2936  0.1623 -0.1025
 8882SOL    HW235294   5.915   1.270   5.792 -0.0486  1.7433  0.2869
 8882SOL    HW335295   6.015   1.380   5.816  1.8700 -0.0676  0.9080
 8882SOL    MW435296   5.997   1.296   5.802  0.4565  0.3406  0.0822
 8883SOL     OW35297   0.396   4.892   5.255 -0.1759 -0.2195 -0.2618
 8883SOL    HW235298   0.468   4.898   5.318 -0.4924  0.2200  0.0602
 8883SOL    HW335299   0.386   4.798   5.241  0.1987 -0.3027 -0.0065
 8883SOL    MW435300   0.404   4.880   5.261 -0.1682 -0.1725 -0.1857
 8884SOL     OW35301   5.589   5.669   0.198 -0.5887 -0.6112 -0.5601
 8884SOL    HW235302   5.521   5.684   0.133  0.0291 -1.5867 -1.4644
 8884SOL    HW335303   5.560   5.718   0.275 -2.1433 -0.7374 -1.0288
 8884SOL    MW435304   5.577   5.677   0.199 -0.7123 -0.7566 -0.7413
 8885SOL     OW35305   4.634   0.031   1.957  0.5493  0.0908 -0.1902
 8885SOL    HW235306   4.718   0.054   1.998  0.1937  0.0325  0.5939
 8885SOL    HW335307   4.658  -0.006   1.873  1.3023  0.3380 -0.0940
 8885SOL    MW435308   4.648   0.029   1.952  0.6017  0.1157 -0.0740
 8886NA      NA35309   5.098   3.578   3.444  0.0842 -0.2868 -0.0352
 8887NA      NA35310   5.311   4.101   4.230  0.1625  0.5800  0.3111
 8888NA      NA35311   1.707   0.092   0.475  0.3361 -0.2346 -0.2893
 8889NA      NA35312   2.001   3.156   0.578  0.5111  0.2645  0.0733
 8890NA      NA35313   4.723   3.362   5.043  0.2075 -0.3107 -0.0869
 8891NA      NA35314   1.446   3.793   5.704 -0.6265 -0.2628 -0.1591
 8892NA      NA35315   3.789   2.993   6.332  0.1817 -0.5351 -0.5154
   6.42920   6.42920   6.42920
