A-SYNC WITH FASUDIL
35315
  121NASP     N    1   4.213   5.563   2.412  0.2205  0.4412  0.0728
  121NASP    H1    2   4.273   5.570   2.331 -1.0617 -0.4596 -1.0072
  121NASP    H2    3   4.183   5.466   2.410 -1.2745  0.8437 -3.0169
  121NASP    H3    4   4.270   5.570   2.495  0.9263 -2.3589 -0.0555
  121NASP    CA    5   4.109   5.664   2.410  0.0884  0.9957 -0.0588
  121NASP    HA    6   4.064   5.664   2.509  1.0791 -0.5420  0.4248
  121NASP    CB    7   4.173   5.804   2.391 -0.7300 -0.6883  0.8183
  121NASP   HB1    8   4.231   5.828   2.480  0.4025  1.1142 -0.3369
  121NASP   HB2    9   4.094   5.879   2.390 -2.7557 -2.6024 -2.4821
  121NASP    CG   10   4.270   5.810   2.270 -0.0759  0.0043  0.1102
  121NASP   OD1   11   4.347   5.913   2.260  0.1353 -0.3373 -1.3742
  121NASP   OD2   12   4.287   5.709   2.194 -0.8213 -0.2265  0.4475
  121NASP     C   13   3.996   5.627   2.310 -0.1604 -0.1682  0.0378
  121NASP     O   14   3.997   5.513   2.259 -0.4596  0.1285 -0.3249
  122ASN      N   15   3.901   5.716   2.288 -0.0584  0.0657 -0.2865
  122ASN      H   16   3.907   5.806   2.333 -1.3374  1.1897 -2.2330
  122ASN     CA   17   3.787   5.697   2.193 -0.1409 -1.2812  0.7165
  122ASN     HA   18   3.729   5.609   2.218 -0.0477 -1.5398  0.0308
  122ASN     CB   19   3.692   5.815   2.210 -0.2195  0.1766 -0.2721
  122ASN    HB1   20   3.741   5.909   2.186  0.4000  0.0488  0.4415
  122ASN    HB2   21   3.660   5.817   2.315  3.1162  0.6940  0.8548
  122ASN     CG   22   3.571   5.821   2.121  0.3451 -0.1850  0.1578
  122ASN    OD1   23   3.529   5.725   2.059  0.7815  0.1117  0.0303
  122ASN    ND2   24   3.502   5.931   2.131  0.0726  0.0670  0.3027
  122ASN   HD21   25   3.420   5.942   2.074 -0.5623 -0.6529  1.0461
  122ASN   HD22   26   3.535   6.001   2.196 -0.4781  2.6709 -2.0487
  122ASN      C   27   3.835   5.675   2.050 -0.1521 -0.2663  0.0013
  122ASN      O   28   3.936   5.738   2.013  0.9407 -0.5610 -0.3525
  123GLU      N   29   3.769   5.595   1.968 -0.0795  0.0905 -0.2315
  123GLU      H   30   3.681   5.565   2.006 -0.8843  1.4352 -0.9616
  123GLU     CA   31   3.796   5.586   1.823  0.5372  0.5161 -0.8753
  123GLU     HA   32   3.904   5.587   1.808  0.9356  1.6491  1.6152
  123GLU     CB   33   3.737   5.454   1.765  0.1659  0.4040  0.1679
  123GLU    HB1   34   3.631   5.453   1.789  0.5813 -1.2680  2.2708
  123GLU    HB2   35   3.785   5.375   1.822 -0.4399  0.9018  1.4266
  123GLU     CG   36   3.749   5.445   1.611  0.2886  0.0458 -0.0517
  123GLU    HG1   37   3.842   5.493   1.584  0.9858 -0.9600  0.5017
  123GLU    HG2   38   3.672   5.508   1.567 -0.6394 -0.1631  1.2004
  123GLU     CD   39   3.734   5.298   1.561  0.3438  0.0693  0.3005
  123GLU    OE1   40   3.711   5.206   1.645 -0.1611 -0.2518 -0.3505
  123GLU    OE2   41   3.730   5.283   1.432  0.3985 -0.0033  0.2015
  123GLU      C   42   3.752   5.711   1.749  0.4991 -0.4549  0.0888
  123GLU      O   43   3.826   5.758   1.661 -0.4608 -0.5287  0.3598
  124ALA      N   44   3.644   5.779   1.792  0.0959  0.1996 -0.0511
  124ALA      H   45   3.608   5.762   1.885  1.3154  2.0986  0.8575
  124ALA     CA   46   3.607   5.904   1.730  1.0804  0.1347  0.6129
  124ALA     HA   47   3.638   5.903   1.626  0.9387  0.6418  0.5650
  124ALA     CB   48   3.457   5.906   1.730  0.5898 -0.0369 -0.1368
  124ALA    HB1   49   3.420   5.908   1.832  0.5504  0.7725 -0.1611
  124ALA    HB2   50   3.420   5.821   1.672  2.5894 -0.4014 -0.9456
  124ALA    HB3   51   3.422   6.000   1.687 -0.8266  0.2280  1.4717
  124ALA      C   52   3.669   6.037   1.789 -0.0775 -0.2183  0.3620
  124ALA      O   53   3.735   6.023   1.897  0.5226  0.0961  0.1985
  125TYR      N   54   3.655   6.157   1.721 -0.0270 -0.1675 -0.2097
  125TYR      H   55   3.609   6.152   1.631 -1.9003  2.0397  0.5340
  125TYR     CA   56   3.693   6.286   1.767  0.2547 -0.0391 -0.0175
  125TYR     HA   57   3.787   6.268   1.820 -0.7188 -2.1632  1.1395
  125TYR     CB   58   3.706   6.385   1.656  0.3340  0.2372  0.1577
  125TYR    HB1   59   3.603   6.395   1.622  0.1140 -3.1126 -0.4391
  125TYR    HB2   60   3.758   6.338   1.574  0.3311  0.6187 -0.0676
  125TYR     CG   61   3.764   6.520   1.696 -0.0663 -1.1568  0.2099
  125TYR    CD1   62   3.678   6.631   1.702 -0.6501  0.8496 -0.7060
  125TYR    HD1   63   3.574   6.614   1.680 -0.3831 -3.5801  0.4170
  125TYR    CE1   64   3.727   6.759   1.742  0.9091  0.1257 -0.3426
  125TYR    HE1   65   3.654   6.838   1.749 -0.4744 -1.1523 -0.0423
  125TYR     CZ   66   3.864   6.772   1.773 -0.3353  0.3945 -0.6076
  125TYR     OH   67   3.922   6.891   1.802 -0.3798 -0.1139 -0.5905
  125TYR     HH   68   3.847   6.948   1.824 -0.0838 -0.4230  1.4177
  125TYR    CE2   69   3.956   6.658   1.773 -0.0047  0.5512 -0.6940
  125TYR    HE2   70   4.060   6.668   1.801 -0.2891 -1.8588  1.5826
  125TYR    CD2   71   3.899   6.533   1.740 -0.1285 -0.4559 -0.4679
  125TYR    HD2   72   3.961   6.445   1.737  0.5218 -0.1244  1.6063
  125TYR      C   73   3.606   6.334   1.882 -0.0383 -0.1876 -0.6417
  125TYR      O   74   3.492   6.281   1.903 -0.3638  0.1087 -0.4472
  126GLU      N   75   3.650   6.424   1.972  0.2005  0.0840 -0.3497
  126GLU      H   76   3.741   6.461   1.952  0.4312 -0.8795 -1.1838
  126GLU     CA   77   3.562   6.490   2.077  0.5942 -0.1046 -0.3957
  126GLU     HA   78   3.458   6.489   2.047 -0.2312 -3.6203  1.9731
  126GLU     CB   79   3.562   6.419   2.212 -0.1924  0.5409 -0.1491
  126GLU    HB1   80   3.519   6.482   2.290  0.6524  1.8540 -0.7095
  126GLU    HB2   81   3.668   6.404   2.232 -0.0520 -1.1781 -1.8895
  126GLU     CG   82   3.515   6.274   2.215 -0.2664 -0.5086 -0.2433
  126GLU    HG1   83   3.563   6.216   2.135 -0.4107 -0.5117 -0.3281
  126GLU    HG2   84   3.407   6.274   2.203 -0.3513 -1.2278  0.4223
  126GLU     CD   85   3.556   6.216   2.350 -0.0716 -0.0845  1.0073
  126GLU    OE1   86   3.559   6.093   2.362 -0.2617 -0.2834  1.0227
  126GLU    OE2   87   3.566   6.286   2.453 -0.2313 -0.0776  0.4506
  126GLU      C   88   3.618   6.633   2.098  0.3954 -0.2514  0.7904
  126GLU      O   89   3.739   6.659   2.069  0.1155  0.2481  0.1391
  127MET      N   90   3.532   6.728   2.149 -0.4955 -0.2602 -0.0201
  127MET      H   91   3.439   6.696   2.170 -0.9259  1.5627  0.9976
  127MET     CA   92   3.574   6.870   2.182 -0.4785 -0.2398  1.3227
  127MET     HA   93   3.676   6.864   2.219  0.2583 -0.4029 -0.6122
  127MET     CB   94   3.585   6.948   2.051 -0.2397  0.3898 -0.2819
  127MET    HB1   95   3.482   6.966   2.021 -1.1037 -1.3432  1.4122
  127MET    HB2   96   3.626   6.882   1.975  0.5091 -0.8623  1.1584
  127MET     CG   97   3.651   7.082   2.053 -0.2242  0.5087 -0.1838
  127MET    HG1   98   3.731   7.074   2.127  1.1914 -0.0720 -1.7030
  127MET    HG2   99   3.577   7.157   2.082 -0.9847  0.3931 -1.7527
  127MET     SD  100   3.717   7.113   1.887 -0.4384 -0.0034  0.4739
  127MET     CE  101   3.777   7.283   1.919  0.1670 -0.6637 -0.8764
  127MET    HE1  102   3.708   7.329   1.990 -0.3615 -2.1277 -0.4119
  127MET    HE2  103   3.775   7.333   1.822  3.2558  0.0806 -0.6539
  127MET    HE3  104   3.877   7.292   1.961 -0.3559 -0.7678  0.4294
  127MET      C  105   3.470   6.936   2.272 -0.0175  0.2175 -0.1780
  127MET      O  106   3.349   6.929   2.244  0.1591  0.2155  0.3058
  128PRO      N  107   3.510   6.997   2.379 -0.2572 -0.5541  0.5497
  128PRO     CD  108   3.645   6.984   2.439 -0.2009 -0.1090  0.1351
  128PRO    HD1  109   3.723   7.050   2.401  0.5801 -0.7072  0.6651
  128PRO    HD2  110   3.676   6.880   2.427  1.0326  0.3091 -0.4325
  128PRO     CG  111   3.629   7.008   2.589  0.1498  0.5930 -0.0224
  128PRO    HG1  112   3.726   7.036   2.629  0.4790 -0.3263 -0.1458
  128PRO    HG2  113   3.584   6.920   2.635  1.2573  0.1727  0.3040
  128PRO     CB  114   3.530   7.111   2.583 -1.0216 -0.7951 -0.1073
  128PRO    HB1  115   3.486   7.126   2.682 -0.0451  1.1426  0.0740
  128PRO    HB2  116   3.579   7.201   2.546 -2.6236  0.0019 -0.3729
  128PRO     CA  117   3.429   7.065   2.479  0.8228  0.7025  0.2268
  128PRO     HA  118   3.351   7.000   2.519  0.2252  1.2043 -0.1021
  128PRO      C  119   3.346   7.179   2.417  0.4784  0.2314  0.8232
  128PRO      O  120   3.398   7.252   2.336  0.2537 -0.1748  0.7804
  129SER      N  121   3.221   7.199   2.465 -0.0633  0.5352  0.3822
  129SER      H  122   3.179   7.131   2.527  0.0535 -1.0476 -1.2009
  129SER     CA  123   3.132   7.305   2.416  0.7209 -0.5060  0.2233
  129SER     HA  124   3.142   7.302   2.308  1.9577  2.6123  0.1651
  129SER     CB  125   2.985   7.289   2.448  0.0571  0.4806  0.1579
  129SER    HB1  126   2.923   7.350   2.383 -1.8467 -0.8888  0.5897
  129SER    HB2  127   2.973   7.298   2.556  0.8036 -0.5999  0.3555
  129SER     OG  128   2.944   7.159   2.410  0.2689 -0.1719  0.2088
  129SER    HG1  129   3.014   7.093   2.410 -0.9099 -1.4903  1.6397
  129SER      C  130   3.184   7.453   2.430 -0.8383 -0.6214  0.2893
  129SER      O  131   3.258   7.476   2.527  0.2174  0.5780  0.2718
  130GLU      N  132   3.144   7.556   2.348  0.3876  0.1975 -0.0146
  130GLU      H  133   3.081   7.542   2.271  1.3598 -0.5186 -0.7029
  130GLU     CA  134   3.191   7.693   2.368 -0.2047  0.5313 -0.1312
  130GLU     HA  135   3.292   7.678   2.404 -0.3994 -3.5031 -0.7948
  130GLU     CB  136   3.200   7.775   2.243  0.1828 -0.0670 -1.0153
  130GLU    HB1  137   3.238   7.869   2.281  0.1502  0.2138 -1.6595
  130GLU    HB2  138   3.103   7.795   2.196 -0.4843 -1.0312 -0.0830
  130GLU     CG  139   3.285   7.720   2.132 -0.2372 -0.6172 -0.2975
  130GLU    HG1  140   3.257   7.616   2.115 -2.2751 -0.1917  0.2260
  130GLU    HG2  141   3.389   7.716   2.163  0.5568  0.0677 -2.6794
  130GLU     CD  142   3.275   7.797   2.003  0.3470  0.0880 -0.0728
  130GLU    OE1  143   3.326   7.749   1.898  0.4409 -0.0234 -0.4948
  130GLU    OE2  144   3.225   7.912   2.001 -0.0999 -0.2639  0.2055
  130GLU      C  145   3.126   7.762   2.488 -0.6760  0.3937 -0.0175
  130GLU      O  146   3.086   7.872   2.470 -0.2931 -0.5423  0.2228
  131GLU      N  147   3.113   7.694   2.602  0.1947  0.0482  0.1821
  131GLU      H  148   3.157   7.603   2.600 -1.5124 -0.8362  1.1010
  131GLU     CA  149   3.059   7.755   2.721  0.4892 -0.5476  0.0563
  131GLU     HA  150   2.978   7.820   2.688  0.5107 -0.2829  0.5099
  131GLU     CB  151   2.995   7.655   2.815  0.0650 -0.2829 -0.3998
  131GLU    HB1  152   2.935   7.713   2.885 -0.3817 -1.8739  0.5931
  131GLU    HB2  153   3.071   7.603   2.874  0.9013  0.1424 -1.0865
  131GLU     CG  154   2.905   7.550   2.754  0.4956 -0.2582  0.5441
  131GLU    HG1  155   2.864   7.481   2.827 -0.3603  2.3037  2.6330
  131GLU    HG2  156   2.954   7.488   2.680 -0.3836 -0.1909 -0.1195
  131GLU     CD  157   2.785   7.611   2.681 -0.4904  0.3468 -0.3092
  131GLU    OE1  158   2.759   7.562   2.570  0.3501 -0.2224 -0.1295
  131GLU    OE2  159   2.714   7.702   2.738  0.3238 -0.0825 -0.8758
  131GLU      C  160   3.164   7.842   2.794  0.1014 -0.0998 -0.5826
  131GLU      O  161   3.286   7.809   2.785 -0.2624  0.3763  0.4747
  132GLY      N  162   3.122   7.944   2.868  0.0045  0.0671  0.2942
  132GLY      H  163   3.023   7.962   2.872 -0.2348 -0.7599 -1.1800
  132GLY     CA  164   3.208   8.051   2.919  0.1062 -0.7033 -0.5138
  132GLY    HA1  165   3.142   8.116   2.976  0.8478 -0.8039  0.4909
  132GLY    HA2  166   3.254   8.104   2.836  1.0445 -0.4983  0.1162
  132GLY      C  167   3.302   8.008   3.033  0.4772 -0.2585 -0.1997
  132GLY      O  168   3.264   7.936   3.128  0.0044 -0.5421  0.2083
  133TYR      N  169   3.420   8.067   3.029  0.3752 -0.1665 -0.3582
  133TYR      H  170   3.433   8.142   2.963  1.2063  0.7230  0.7675
  133TYR     CA  171   3.523   8.059   3.135  0.7003 -0.1278  0.3840
  133TYR     HA  172   3.534   7.955   3.165 -0.6946 -0.7128 -0.9761
  133TYR     CB  173   3.647   8.109   3.062 -0.3074  0.2139 -0.1356
  133TYR    HB1  174   3.730   8.116   3.132 -0.0034  2.0782 -0.6158
  133TYR    HB2  175   3.632   8.217   3.050  1.7297  0.4571 -0.7974
  133TYR     CG  176   3.699   8.046   2.936  0.6801 -0.0508  0.1239
  133TYR    CD1  177   3.748   8.128   2.828  0.0329  0.2454 -0.2725
  133TYR    HD1  178   3.753   8.234   2.845 -0.4684  0.2139  0.1067
  133TYR    CE1  179   3.797   8.067   2.715  0.2198  0.3785  0.8291
  133TYR    HE1  180   3.850   8.124   2.640 -2.0483 -1.0925 -2.1360
  133TYR     CZ  181   3.774   7.929   2.691 -0.1329 -0.4059 -0.4760
  133TYR     OH  182   3.820   7.862   2.581 -0.4198 -0.8396  0.1272
  133TYR     HH  183   3.834   7.925   2.510  2.0527 -0.5909  0.7540
  133TYR    CE2  184   3.721   7.848   2.797 -0.3862 -0.4106 -1.0719
  133TYR    HE2  185   3.718   7.740   2.786  0.0912 -0.6205  0.5521
  133TYR    CD2  186   3.685   7.908   2.922 -0.4261  0.0486  0.1400
  133TYR    HD2  187   3.658   7.848   3.007  3.6396  0.8324  2.2602
  133TYR      C  188   3.490   8.145   3.260  0.1623  0.1412  0.2158
  133TYR      O  189   3.407   8.230   3.262  0.1185  1.0596 -0.0270
  134GLN      N  190   3.574   8.132   3.363 -0.0066  0.4309  0.5491
  134GLN      H  191   3.641   8.056   3.352 -2.6089 -2.4162  2.6063
  134GLN     CA  192   3.569   8.208   3.488 -0.0366  0.4503  0.5347
  134GLN     HA  193   3.467   8.194   3.524 -0.0308  0.8036  0.6891
  134GLN     CB  194   3.670   8.153   3.590  0.1796  0.9007 -0.8227
  134GLN    HB1  195   3.773   8.160   3.555  0.5024  0.2428 -0.0382
  134GLN    HB2  196   3.654   8.045   3.587 -0.1654  0.9675 -2.7668
  134GLN     CG  197   3.659   8.194   3.744 -0.6006  0.5314 -0.0536
  134GLN    HG1  198   3.681   8.298   3.766  0.9115  0.6655 -1.9852
  134GLN    HG2  199   3.734   8.133   3.795  0.6661  1.8254 -0.3168
  134GLN     CD  200   3.533   8.148   3.816 -0.5732 -0.1677  0.1933
  134GLN    OE1  201   3.528   8.035   3.864 -0.4583 -0.9174  0.5817
  134GLN    NE2  202   3.435   8.230   3.836  0.0557 -0.1972 -1.0378
  134GLN   HE21  203   3.381   8.200   3.916  2.6776 -2.0929  0.1808
  134GLN   HE22  204   3.459   8.328   3.829  4.3942 -0.8222  1.1962
  134GLN      C  205   3.605   8.355   3.458  0.7304  0.7204  0.0763
  134GLN      O  206   3.678   8.388   3.361  0.1355 -0.6861  0.2850
  135ASP      N  207   3.557   8.444   3.542  0.2758 -0.2299  0.0331
  135ASP      H  208   3.487   8.413   3.609 -1.7242  3.2377 -0.2147
  135ASP     CA  209   3.586   8.585   3.541 -0.1232  0.0290 -0.9222
  135ASP     HA  210   3.579   8.621   3.439  2.0041  0.9077 -0.8207
  135ASP     CB  211   3.481   8.660   3.624  0.3427  0.3156 -0.0834
  135ASP    HB1  212   3.392   8.679   3.564 -0.3829 -2.0800  0.1358
  135ASP    HB2  213   3.513   8.761   3.650  2.7729 -0.4453  0.0830
  135ASP     CG  214   3.429   8.605   3.755  0.1264 -0.4589  0.3232
  135ASP    OD1  215   3.334   8.654   3.823 -1.2669  0.2342 -0.1665
  135ASP    OD2  216   3.477   8.500   3.799  0.0311  0.4264  0.6941
  135ASP      C  217   3.724   8.606   3.596  0.3117 -0.2276  0.2992
  135ASP      O  218   3.768   8.542   3.689  0.2493  0.0844  0.3085
  136TYR      N  219   3.797   8.697   3.535  0.9495  0.7239  0.4551
  136TYR      H  220   3.745   8.739   3.459 -2.0086 -3.5488 -0.2057
  136TYR     CA  221   3.925   8.753   3.571  0.2695 -0.0371 -0.3492
  136TYR     HA  222   4.002   8.681   3.598 -0.3185  0.0954  1.8922
  136TYR     CB  223   3.977   8.848   3.466 -0.0089  0.4138  0.1730
  136TYR    HB1  224   4.033   8.923   3.522 -0.9374  2.3072 -1.3163
  136TYR    HB2  225   3.885   8.889   3.423 -0.6245 -3.3018 -2.4666
  136TYR     CG  226   4.066   8.788   3.359 -0.6589 -0.0516  0.7929
  136TYR    CD1  227   4.196   8.742   3.390  0.6560 -0.4903  0.1088
  136TYR    HD1  228   4.236   8.771   3.486 -0.6287  2.0013 -0.0066
  136TYR    CE1  229   4.263   8.669   3.299 -0.4261  0.0943  0.6460
  136TYR    HE1  230   4.357   8.620   3.322 -0.8864 -2.2001 -1.8284
  136TYR     CZ  231   4.210   8.643   3.173 -0.6219  0.0770  0.0883
  136TYR     OH  232   4.276   8.562   3.089 -0.7097 -0.5506 -0.4996
  136TYR     HH  233   4.344   8.516   3.139 -0.2701  0.7292  0.1383
  136TYR    CE2  234   4.084   8.700   3.139  0.4992  0.3423  0.9982
  136TYR    HE2  235   4.047   8.677   3.041 -1.0597  1.4404  1.2836
  136TYR    CD2  236   4.007   8.769   3.234  0.2414 -0.2649 -0.3936
  136TYR    HD2  237   3.908   8.805   3.211  0.1018 -0.9976 -0.9957
  136TYR      C  238   3.900   8.833   3.698  0.7536  0.4262 -0.4481
  136TYR      O  239   3.789   8.886   3.723 -0.0482  0.2624 -0.1922
  137GLU      N  240   3.995   8.830   3.794  0.6986  0.3090  0.0164
  137GLU      H  241   4.081   8.780   3.782  0.8292  0.3748  0.6326
  137GLU     CA  242   3.966   8.895   3.922  0.4233 -0.9890  0.4523
  137GLU     HA  243   3.869   8.855   3.952 -1.0491  0.4475 -2.0499
  137GLU     CB  244   4.073   8.851   4.020 -0.3327  0.2089  0.0512
  137GLU    HB1  245   4.082   8.932   4.092  2.7555 -0.1131  0.1532
  137GLU    HB2  246   4.165   8.832   3.965  0.8082  0.6634  1.7109
  137GLU     CG  247   4.023   8.728   4.099 -0.4374  0.8119 -0.1640
  137GLU    HG1  248   4.014   8.651   4.021  0.0172  2.4665 -1.9254
  137GLU    HG2  249   3.929   8.746   4.150  0.4441  2.1852  1.0284
  137GLU     CD  250   4.124   8.679   4.194 -0.7292  0.0171  0.1859
  137GLU    OE1  251   4.247   8.698   4.162 -0.0505  0.0701 -0.3786
  137GLU    OE2  252   4.085   8.620   4.298 -0.1766  0.0812  0.3795
  137GLU      C  253   3.953   9.054   3.918 -0.7283  0.3578  0.2871
  137GLU      O  254   4.036   9.113   3.850 -0.0226  0.1046  0.3724
  138PRO      N  255   3.855   9.117   3.980 -0.2712  0.2596 -0.0500
  138PRO     CD  256   3.776   9.058   4.081  0.3648 -0.1634  0.6922
  138PRO    HD1  257   3.840   8.988   4.133 -0.3293 -0.2384  1.4607
  138PRO    HD2  258   3.681   9.017   4.045  0.3962 -0.4345  0.9200
  138PRO     CG  259   3.734   9.175   4.172  0.6699  0.2680  0.0138
  138PRO    HG1  260   3.814   9.198   4.242  0.0334 -1.1312  1.2755
  138PRO    HG2  261   3.637   9.159   4.220  0.1779  0.3591 -0.9226
  138PRO     CB  262   3.729   9.280   4.066  0.0707 -0.4415  0.2327
  138PRO    HB1  263   3.632   9.261   4.020 -2.6701 -0.7752  5.3615
  138PRO    HB2  264   3.721   9.380   4.108  0.9200 -0.6605  0.9495
  138PRO     CA  265   3.842   9.263   3.982 -0.3171  0.7324  0.6785
  138PRO     HA  266   3.838   9.312   3.885  2.6288  2.1516  1.1364
  138PRO      C  267   3.968   9.335   4.042  0.0775  0.4459  0.9728
  138PRO      O  268   4.053   9.284   4.116  0.0270  0.0773  0.7994
  139GLU      N  269   3.978   9.460   4.011 -0.4813 -0.1509  0.4291
  139GLU      H  270   3.899   9.500   3.962  0.3714  1.6059  0.3913
  139GLU     CA  271   4.081   9.551   4.049  0.0666  0.8929  0.1194
  139GLU     HA  272   4.180   9.506   4.040 -0.8310 -1.2166  0.2337
  139GLU     CB  273   4.079   9.676   3.948  0.5889  0.3276 -0.8178
  139GLU    HB1  274   4.133   9.758   3.996 -1.8070  0.6334  1.6126
  139GLU    HB2  275   3.977   9.708   3.928  1.0517  1.2447 -1.8041
  139GLU     CG  276   4.146   9.631   3.817  0.1515  0.1697 -0.3874
  139GLU    HG1  277   4.089   9.554   3.765  0.5698  1.7434 -3.4028
  139GLU    HG2  278   4.240   9.585   3.848 -0.8497  0.1527  2.9032
  139GLU     CD  279   4.165   9.753   3.724 -0.0295 -0.3714  0.2157
  139GLU    OE1  280   4.145   9.868   3.772  0.4607 -0.5802 -0.0606
  139GLU    OE2  281   4.225   9.742   3.612 -0.0501 -0.2535  0.8531
  139GLU      C  282   4.060   9.603   4.189 -0.0781  0.0349 -0.2414
  139GLU      O  283   3.947   9.620   4.231  0.7368 -0.2264  0.2723
  140CALA     N  284   4.166   9.642   4.260  0.2694 -0.5805 -0.3769
  140CALA     H  285   4.258   9.623   4.225  1.6190  0.7269  2.1377
  140CALA    CA  286   4.173   9.751   4.364 -0.2767 -0.3153 -0.2756
  140CALA    HA  287   4.094   9.744   4.438  0.5010  1.3638  0.7870
  140CALA    CB  288   4.302   9.750   4.446  0.6131 -0.2083  0.0206
  140CALA   HB1  289   4.299   9.661   4.508  1.5018  0.5116  1.1372
  140CALA   HB2  290   4.301   9.839   4.508 -1.1016  1.2902 -1.9873
  140CALA   HB3  291   4.395   9.754   4.389  0.9255  0.3158  0.5572
  140CALA     C  292   4.143   9.892   4.305  0.9815 -0.0139  0.3681
  140CALA   OC1  293   4.220   9.932   4.217  0.5868 -0.3258 -0.0301
  140CALA   OC2  294   4.044   9.955   4.350  0.1501  0.2650  0.3829
  141FAS      C  295   3.739   2.406   4.964  0.2364  0.4197  0.1690
  141FAS     C1  296   3.589   2.412   4.969  0.9467  0.1662 -0.1746
  141FAS      N  297   3.533   2.425   5.106  0.0143 -0.0638 -0.2361
  141FAS     C2  298   3.560   2.298   5.191  0.0747  0.1743  0.1441
  141FAS     C3  299   3.694   2.279   5.264 -0.8737  0.3401  0.1025
  141FAS     N1  300   3.814   2.301   5.175 -0.3179 -0.1432 -0.0851
  141FAS     C4  301   3.799   2.278   5.033 -0.3479  0.3541  0.1156
  141FAS      S  302   3.962   2.240   5.238 -0.1691  0.3800  0.1548
  141FAS      O  303   3.966   2.294   5.373 -0.5854 -0.5547  0.3744
  141FAS     O1  304   3.955   2.096   5.209 -0.1787 -0.0172 -0.1422
  141FAS     C5  305   4.085   2.321   5.145 -0.5828 -0.5053 -0.9540
  141FAS     C6  306   4.162   2.239   5.058 -0.2549 -0.5111 -0.9553
  141FAS     C7  307   4.264   2.294   4.976  0.0999  0.8349 -0.8596
  141FAS     C8  308   4.294   2.428   4.976  0.2742  0.1913  0.5054
  141FAS     C9  309   4.215   2.514   5.060  0.3985 -0.9296 -0.5710
  141FAS    C10  310   4.113   2.460   5.149  0.0153  0.0565  0.5098
  141FAS    C11  311   4.027   2.547   5.226 -0.2398 -0.3342 -0.1090
  141FAS    C12  312   4.056   2.690   5.218  1.1551  0.8074 -0.2768
  141FAS     N2  313   4.162   2.737   5.147  0.4323 -0.1328  0.8810
  141FAS    C13  314   4.237   2.651   5.071 -1.0103 -0.0925  0.4574
  141FAS      H  315   3.791   2.492   5.008  0.3551 -0.9740  3.0039
  141FAS     H1  316   3.765   2.401   4.858  0.9640 -1.3793  0.3918
  141FAS     H2  317   3.555   2.320   4.921 -3.1169  1.7368 -0.7553
  141FAS     H3  318   3.554   2.495   4.907  0.1195 -0.3958 -0.4747
  141FAS     H4  319   3.561   2.512   5.153  1.4407 -0.9113  0.5520
  141FAS     H5  320   3.525   2.220   5.124  0.5628  0.4942 -0.4885
  141FAS     H6  321   3.476   2.301   5.261  0.2739  0.5616  0.3728
  141FAS     H7  322   3.696   2.176   5.303 -1.3730  0.3541  0.1688
  141FAS     H8  323   3.694   2.345   5.352  2.3986  0.7712 -0.0906
  141FAS     H9  324   3.739   2.187   5.023 -1.5600  1.1135  0.2666
  141FAS    H10  325   3.895   2.249   4.988 -0.6901  0.1368 -0.4758
  141FAS    H11  326   4.146   2.131   5.057 -2.4591 -0.2441 -0.2877
  141FAS    H12  327   4.318   2.228   4.909  2.1664 -0.0055  1.4823
  141FAS    H13  328   4.383   2.462   4.924 -0.0282 -0.0688 -0.2054
  141FAS    H14  329   3.940   2.510   5.280  0.1522 -0.8997  0.1370
  141FAS    H15  330   3.994   2.765   5.266 -0.4390 -0.6724  0.0981
  141FAS    H16  331   4.318   2.701   5.018 -0.3127  0.2185  1.7698
  141FAS    H17  332   3.430   2.434   5.097  0.1469  0.2762 -1.4863
  142SOL     OW  333   3.667   1.540   0.852 -0.1395  0.4456  0.2587
  142SOL    HW2  334   3.709   1.455   0.845  0.7063  0.9494 -1.1719
  142SOL    HW3  335   3.586   1.531   0.801  0.4103  0.7539 -0.6904
  142SOL    MW4  336   3.662   1.528   0.844  0.0446  0.5527 -0.0553
  143SOL     OW  337   5.243   0.201   5.275 -0.3339  0.4099  0.0404
  143SOL    HW2  338   5.220   0.265   5.207 -0.7336  0.4353  0.1958
  143SOL    HW3  339   5.237   0.249   5.357 -2.9802 -0.3720  0.3953
  143SOL    MW4  340   5.239   0.216   5.277 -0.7358  0.3100  0.1077
  144SOL     OW  341   1.032   3.062   0.371  0.3072  0.0958 -0.1397
  144SOL    HW2  342   0.944   3.083   0.339  0.8757  0.3426 -1.6413
  144SOL    HW3  343   1.069   3.006   0.303  2.0593  1.6951 -0.5848
  144SOL    MW4  344   1.025   3.057   0.358  0.6134  0.3394 -0.3965
  145SOL     OW  345   4.332   1.829   2.817  0.3766 -0.3101 -0.1095
  145SOL    HW2  346   4.399   1.880   2.772 -0.0092  1.1160  0.8766
  145SOL    HW3  347   4.264   1.892   2.839  0.1417 -1.1308  1.6902
  145SOL    MW4  348   4.332   1.844   2.814  0.2947 -0.2303  0.2580
  146SOL     OW  349   2.355   6.244   3.971 -0.2338  0.3800 -0.2459
  146SOL    HW2  350   2.331   6.200   4.053 -0.6582  1.3089  0.1421
  146SOL    HW3  351   2.344   6.337   3.990 -1.0727  0.5836 -1.5822
  146SOL    MW4  352   2.350   6.250   3.984 -0.4005  0.5294 -0.3710
  147SOL     OW  353   6.270  -0.009   2.786 -0.2773  0.9703 -0.1076
  147SOL    HW2  354   6.327  -0.086   2.779 -0.3777  0.6869  1.6900
  147SOL    HW3  355   6.324   0.057   2.828 -0.9513  1.0330  0.6872
  147SOL    MW4  356   6.285  -0.011   2.791 -0.3794  0.9412  0.2345
  148SOL     OW  357   0.749   5.317   2.855 -0.5618  0.5011 -0.2868
  148SOL    HW2  358   0.748   5.225   2.829  0.2380  0.7886 -1.4124
  148SOL    HW3  359   0.842   5.337   2.873 -0.5344  1.4093 -1.3235
  148SOL    MW4  360   0.761   5.308   2.854 -0.4526  0.6588 -0.5721
  149SOL     OW  361   1.738   5.892   0.542  0.1253  0.3607  0.2943
  149SOL    HW2  362   1.704   5.809   0.575 -0.6692  0.2990 -0.6601
  149SOL    HW3  363   1.825   5.899   0.582 -0.0724 -0.5828  0.9377
  149SOL    MW4  364   1.745   5.882   0.552 -0.0056  0.2281  0.2532
  150SOL     OW  365   2.086   6.098   3.870 -0.2071 -0.2784 -0.3832
  150SOL    HW2  366   2.080   6.178   3.817 -0.6866 -0.4719 -0.6242
  150SOL    HW3  367   2.163   6.112   3.926  0.3844 -0.1228 -1.2175
  150SOL    MW4  368   2.095   6.111   3.870 -0.1923 -0.2834 -0.5251
  151SOL     OW  369   6.181   1.750   2.603  0.1239 -0.0617  0.2836
  151SOL    HW2  370   6.148   1.756   2.513 -0.3326 -0.2198  0.4383
  151SOL    HW3  371   6.261   1.699   2.596  1.4937  2.0356 -0.3918
  151SOL    MW4  372   6.187   1.744   2.590  0.2444  0.1942  0.2149
  152SOL     OW  373   2.085   5.427   1.749  0.4366 -0.2776 -0.1881
  152SOL    HW2  374   2.048   5.351   1.796  0.5858  0.4673  1.1863
  152SOL    HW3  375   2.060   5.413   1.658 -0.4595 -1.4444  0.2081
  152SOL    MW4  376   2.077   5.415   1.743  0.3380 -0.3333  0.0455
  153SOL     OW  377   5.692   4.315   1.075  0.8581 -0.1593 -0.0896
  153SOL    HW2  378   5.612   4.348   1.116  0.4799 -1.1657 -0.0007
  153SOL    HW3  379   5.758   4.321   1.144  0.3486 -1.3440  0.5286
  153SOL    MW4  380   5.690   4.320   1.089  0.7410 -0.4484  0.0037
  154SOL     OW  381   4.379   4.525   1.876  0.3170 -0.5722 -0.4817
  154SOL    HW2  382   4.302   4.473   1.899 -0.3000 -0.7540 -2.7525
  154SOL    HW3  383   4.346   4.615   1.869  0.0239 -0.8080 -2.5361
  154SOL    MW4  384   4.365   4.530   1.878  0.1970 -0.6273 -1.0523
  155SOL     OW  385   2.453   6.203   5.647 -0.1366  0.7091 -0.0932
  155SOL    HW2  386   2.382   6.187   5.584 -1.1803  0.5792  1.0892
  155SOL    HW3  387   2.470   6.297   5.640  0.7246  0.4835 -1.5396
  155SOL    MW4  388   2.446   6.214   5.638 -0.1607  0.6622 -0.1280
  156SOL     OW  389   3.278   1.135   0.956 -0.4236 -0.0211  0.1543
  156SOL    HW2  390   3.242   1.088   1.031  0.4651  0.4260  0.8775
  156SOL    HW3  391   3.304   1.220   0.990  0.7734 -0.1176 -0.4539
  156SOL    MW4  392   3.277   1.140   0.970 -0.1484  0.0252  0.1694
  157SOL     OW  393   1.300   4.029   5.118  0.0912 -0.2375 -0.1184
  157SOL    HW2  394   1.367   3.980   5.071  1.1833  2.2344 -1.3155
  157SOL    HW3  395   1.349   4.081   5.182 -0.8433  0.3689  0.1199
  157SOL    MW4  396   1.315   4.030   5.120  0.1120  0.1687 -0.2449
  158SOL     OW  397   4.830   2.679   2.745  0.3866  0.2497  0.0801
  158SOL    HW2  398   4.908   2.641   2.786  1.3030  1.9720  0.0293
  158SOL    HW3  399   4.765   2.680   2.815  0.6112 -0.5886  0.3131
  158SOL    MW4  400   4.832   2.674   2.760  0.5371  0.3664  0.1042
  159SOL     OW  401   4.679   1.286   4.199 -0.0324 -0.8266  0.1487
  159SOL    HW2  402   4.586   1.265   4.210 -0.6899  1.2493 -1.0180
  159SOL    HW3  403   4.716   1.209   4.156 -1.0673 -1.8945  1.0920
  159SOL    MW4  404   4.672   1.273   4.195 -0.2557 -0.6936  0.1192
  160SOL     OW  405   1.775   2.611   4.586 -0.0654 -0.1435  0.1909
  160SOL    HW2  406   1.762   2.516   4.577  0.9228 -0.2815  0.1629
  160SOL    HW3  407   1.800   2.623   4.677 -0.3337  0.1104  0.2315
  160SOL    MW4  408   1.777   2.600   4.597  0.0296 -0.1282  0.1925
  161SOL     OW  409   2.865   3.484   6.138  0.7164  0.4803 -0.2555
  161SOL    HW2  410   2.843   3.454   6.226  2.4122  1.7406  0.6771
  161SOL    HW3  411   2.850   3.579   6.141 -2.0076  0.2218 -2.2804
  161SOL    MW4  412   2.860   3.493   6.150  0.5807  0.6124 -0.3996
  162SOL     OW  413   5.440  -0.048   5.407  0.2611  0.2774 -0.1269
  162SOL    HW2  414   5.386  -0.074   5.331  0.3694 -0.0447 -0.0970
  162SOL    HW3  415   5.454  -0.130   5.454 -0.1263  0.5399  0.4504
  162SOL    MW4  416   5.434  -0.062   5.403  0.2242  0.2695 -0.0468
  163SOL     OW  417   2.749   5.674   0.749 -0.1493  0.8138  0.6973
  163SOL    HW2  418   2.668   5.723   0.758 -0.0121  1.3318 -0.6574
  163SOL    HW3  419   2.807   5.711   0.816 -0.4657  1.6475  0.5237
  163SOL    MW4  420   2.746   5.685   0.759 -0.1729  0.9922  0.4957
  164SOL     OW  421   0.639   1.124   5.270 -0.2119 -0.1562  0.7626
  164SOL    HW2  422   0.592   1.053   5.314 -2.8375  1.3270  0.5553
  164SOL    HW3  423   0.577   1.197   5.269  1.3130  1.2420 -1.5896
  164SOL    MW4  424   0.625   1.124   5.275 -0.3571  0.2240  0.4249
  165SOL     OW  425   2.979   4.276   6.220 -0.3888 -0.2957  0.3308
  165SOL    HW2  426   3.069   4.310   6.228 -0.3939 -0.2813  0.3285
  165SOL    HW3  427   2.937   4.336   6.159 -0.3126 -0.4799  0.0991
  165SOL    MW4  428   2.986   4.289   6.213 -0.3794 -0.3181  0.3000
  166SOL     OW  429   4.941   5.572   5.184 -0.2614  0.3507 -0.4439
  166SOL    HW2  430   4.973   5.483   5.198 -0.0501  0.6013  0.7248
  166SOL    HW3  431   4.865   5.561   5.128  0.3153 -0.4795 -1.0943
  166SOL    MW4  432   4.935   5.559   5.178 -0.1574  0.2742 -0.3755
  167SOL     OW  433   4.305   5.699   4.250  0.0782  0.0077  0.8011
  167SOL    HW2  434   4.249   5.775   4.261  1.0277  0.5139  2.4662
  167SOL    HW3  435   4.393   5.730   4.273  0.9394 -0.9471 -1.0019
  167SOL    MW4  436   4.310   5.713   4.255  0.3171 -0.0515  0.7829
  168SOL     OW  437   5.820   1.580   5.364 -0.2817  0.0450  0.4229
  168SOL    HW2  438   5.747   1.641   5.355 -0.2994 -0.1566 -0.9437
  168SOL    HW3  439   5.883   1.607   5.298  0.4114 -0.4512  0.8648
  168SOL    MW4  440   5.819   1.592   5.354 -0.1926 -0.0471  0.3009
  169SOL     OW  441   3.116   1.840   4.028 -0.2627  0.0902  0.1598
  169SOL    HW2  442   3.050   1.909   4.032  0.2846  0.5700  0.9568
  169SOL    HW3  443   3.196   1.879   4.063  0.6958 -0.2194 -1.5417
  169SOL    MW4  444   3.118   1.854   4.033 -0.0640  0.1127  0.0405
  170SOL     OW  445   2.942   5.653   5.925 -0.4394 -0.0147  0.3747
  170SOL    HW2  446   2.950   5.622   6.015  0.6647  0.4485  0.4518
  170SOL    HW3  447   2.944   5.573   5.872 -1.1217 -0.2901  0.7496
  170SOL    MW4  448   2.944   5.638   5.930 -0.3838  0.0101  0.4344
  171SOL     OW  449   6.278   1.968   2.768 -0.5096 -0.0692 -0.3625
  171SOL    HW2  450   6.251   1.887   2.727 -2.1771  1.7432 -3.1058
  171SOL    HW3  451   6.220   1.978   2.844  0.3880 -1.8421  0.6103
  171SOL    MW4  452   6.267   1.959   2.773 -0.6112 -0.0640 -0.5961
  172SOL     OW  453   2.627   6.246   5.195  0.3520  0.0906  0.4049
  172SOL    HW2  454   2.612   6.178   5.130 -0.2965 -0.1551  0.8086
  172SOL    HW3  455   2.696   6.212   5.251  1.3886  0.5759 -0.5268
  172SOL    MW4  456   2.634   6.233   5.194  0.4032  0.1222  0.3353
  173SOL     OW  457   5.107   1.433   3.049  0.1725  0.3531 -0.3158
  173SOL    HW2  458   5.085   1.401   3.137 -0.3138  1.2076 -0.1175
  173SOL    HW3  459   5.172   1.371   3.017  0.6602  0.2503  0.8125
  173SOL    MW4  460   5.113   1.421   3.057  0.1727  0.4523 -0.1408
  174SOL     OW  461   0.446   0.810   5.835  0.1141 -0.0095  0.4312
  174SOL    HW2  462   0.386   0.813   5.909  0.4238  0.6989  0.6564
  174SOL    HW3  463   0.463   0.717   5.821 -1.0749 -0.2309  0.3300
  174SOL    MW4  464   0.440   0.798   5.843 -0.0019  0.0547  0.4476
  175SOL     OW  465   3.132   1.394   3.795  0.5252 -0.2391 -0.1806
  175SOL    HW2  466   3.058   1.390   3.857  0.5555  0.6218 -0.0783
  175SOL    HW3  467   3.202   1.436   3.844  0.7048  0.0224 -0.6599
  175SOL    MW4  468   3.131   1.399   3.810  0.5529 -0.0910 -0.2304
  176SOL     OW  469   1.366   5.109   5.070  0.0819 -0.5673 -0.0837
  176SOL    HW2  470   1.347   5.057   4.991 -0.4045  0.9498 -1.0007
  176SOL    HW3  471   1.456   5.141   5.056 -0.5961  1.1038 -0.8783
  176SOL    MW4  472   1.376   5.106   5.057 -0.0717 -0.1467 -0.3095
  177SOL     OW  473   5.596   5.580   3.991 -0.1324  0.1095  0.0623
  177SOL    HW2  474   5.620   5.515   3.925  0.3535 -0.4522  0.7745
  177SOL    HW3  475   5.511   5.550   4.024 -0.3269  0.3328 -0.2370
  177SOL    MW4  476   5.588   5.567   3.987 -0.0939  0.0648  0.1168
  178SOL     OW  477   0.805   0.729   2.828  0.5737  0.2486  0.4508
  178SOL    HW2  478   0.831   0.640   2.850  1.2214  0.6652  1.4560
  178SOL    HW3  479   0.874   0.784   2.867  1.1921  1.1089 -1.7146
  178SOL    MW4  480   0.818   0.725   2.836  0.7407  0.4171  0.2977
  179SOL     OW  481   5.837   5.802   0.209 -0.2970  0.0523 -0.4546
  179SOL    HW2  482   5.827   5.747   0.286  3.0091  0.4709  0.4611
  179SOL    HW3  483   5.852   5.740   0.137 -0.3227 -0.3019 -0.1565
  179SOL    MW4  484   5.838   5.787   0.210  0.1358  0.0608 -0.2944
  180SOL     OW  485   3.103   3.803   3.604  0.1385 -0.6289  0.2486
  180SOL    HW2  486   3.051   3.863   3.549 -1.7804 -1.4850  1.0464
  180SOL    HW3  487   3.182   3.787   3.553 -1.6435 -1.5819 -2.4353
  180SOL    MW4  488   3.107   3.809   3.590 -0.3498 -0.8676 -0.0003
  181SOL     OW  489   4.681   2.902   3.487 -0.1585  0.0231 -0.1049
  181SOL    HW2  490   4.751   2.966   3.498 -1.6085  1.5774  0.3692
  181SOL    HW3  491   4.615   2.926   3.553 -0.9270 -1.7128 -0.1772
  181SOL    MW4  492   4.681   2.913   3.497 -0.4512 -0.0008 -0.0519
  182SOL     OW  493   3.388   4.344   2.187 -0.0746  0.1152  0.5756
  182SOL    HW2  494   3.388   4.438   2.167 -0.5816  0.2853  1.3212
  182SOL    HW3  495   3.322   4.307   2.129 -0.0225  0.2499  0.4284
  182SOL    MW4  496   3.379   4.352   2.177 -0.1346  0.1554  0.6546
  183SOL     OW  497   2.437   0.904   4.526  0.2315  0.0260  0.3144
  183SOL    HW2  498   2.519   0.865   4.557 -0.5463 -0.8461  1.3309
  183SOL    HW3  499   2.449   0.912   4.431  2.4033  2.1332  0.6550
  183SOL    MW4  500   2.450   0.900   4.517  0.4154  0.1890  0.4934
  184SOL     OW  501   0.021   4.075   1.402  0.2208 -0.1397 -0.3458
  184SOL    HW2  502  -0.052   4.112   1.451  0.6036  0.4498 -0.2076
  184SOL    HW3  503   0.003   3.981   1.398 -0.4538 -0.0186 -0.1694
  184SOL    MW4  504   0.009   4.068   1.408  0.1823 -0.0460 -0.3043
  185SOL     OW  505   0.894   6.194   2.112 -0.2548  0.0389 -0.1660
  185SOL    HW2  506   0.849   6.279   2.118 -0.7692 -0.3237  1.8930
  185SOL    HW3  507   0.870   6.148   2.192  1.5893 -1.2980 -0.3037
  185SOL    MW4  508   0.885   6.199   2.123 -0.0794 -0.1853  0.0875
  186SOL     OW  509   6.203   4.305   0.984 -0.0530 -0.8732 -0.5397
  186SOL    HW2  510   6.254   4.231   0.953 -0.8337 -2.1206  1.0148
  186SOL    HW3  511   6.131   4.266   1.034 -0.9680  0.9069 -0.3656
  186SOL    MW4  512   6.200   4.290   0.987 -0.2768 -0.8029 -0.3116
  187SOL     OW  513   1.071   2.560   3.406 -0.1746  0.5674  0.1044
  187SOL    HW2  514   1.042   2.480   3.363 -0.2045  0.2746  0.6514
  187SOL    HW3  515   1.000   2.582   3.466 -0.0372  0.8357  0.1715
  187SOL    MW4  516   1.058   2.552   3.408 -0.1604  0.5641  0.1854
  188SOL     OW  517   0.513   4.203   1.119  0.4752  0.2012 -0.1617
  188SOL    HW2  518   0.433   4.151   1.116  0.0324  0.8537  0.3295
  188SOL    HW3  519   0.483   4.293   1.132  1.2752  0.4793 -0.2095
  188SOL    MW4  520   0.499   4.208   1.120  0.5223  0.3240 -0.1032
  189SOL     OW  521   4.986   4.628   6.068 -0.1539 -0.4991  0.5011
  189SOL    HW2  522   5.060   4.640   6.127  0.3181  1.4271 -0.4211
  189SOL    HW3  523   4.909   4.649   6.121  0.1885  0.2980  0.6879
  189SOL    MW4  524   4.985   4.632   6.082 -0.0465 -0.1398  0.4040
  190SOL     OW  525   0.695   1.102   6.277 -0.3303 -0.0016  0.0457
  190SOL    HW2  526   0.790   1.102   6.269 -0.3600  1.1421 -0.3504
  190SOL    HW3  527   0.668   1.019   6.236  0.5288 -0.6878  0.8128
  190SOL    MW4  528   0.704   1.091   6.271 -0.2209  0.0588  0.0947
  191SOL     OW  529   0.210   4.074   5.178  0.4411 -0.0007 -0.0011
  191SOL    HW2  530   0.277   4.099   5.113  2.0526 -0.9294  1.2090
  191SOL    HW3  531   0.140   4.036   5.126 -0.1280  2.8007 -1.5020
  191SOL    MW4  532   0.210   4.072   5.163  0.5786  0.2464 -0.0395
  192SOL     OW  533   2.111   3.859   1.631 -0.1282 -0.0067 -0.1060
  192SOL    HW2  534   2.063   3.907   1.698 -0.7507 -2.2792  1.1699
  192SOL    HW3  535   2.200   3.895   1.635 -0.5937  1.1211  0.6869
  192SOL    MW4  536   2.117   3.870   1.640 -0.2718 -0.1577  0.1669
  193SOL     OW  537   5.050   1.046   5.423 -0.1430  0.5044  0.3783
  193SOL    HW2  538   4.981   1.109   5.445  0.1966  1.1549 -0.3709
  193SOL    HW3  539   5.064   1.058   5.329  0.7961  0.1835  0.4728
  193SOL    MW4  540   5.042   1.056   5.413  0.0257  0.5479  0.2919
  194SOL     OW  541   5.491   1.267   6.002  0.5407  0.0161 -0.3909
  194SOL    HW2  542   5.509   1.184   6.046 -0.4247 -0.4120 -0.7692
  194SOL    HW3  543   5.396   1.268   5.991  0.7136  0.3079 -2.0822
  194SOL    MW4  544   5.481   1.256   6.006  0.4361 -0.0019 -0.6639
  195SOL     OW  545   0.093   0.959   2.526 -0.5924  0.2742 -0.5194
  195SOL    HW2  546   0.131   0.952   2.613  0.0369  1.8389 -0.6288
  195SOL    HW3  547  -0.001   0.969   2.541 -0.6297 -0.6617 -0.0945
  195SOL    MW4  548   0.085   0.960   2.539 -0.5143  0.3572 -0.4777
  196SOL     OW  549   0.749   3.499   5.559 -0.6500 -0.0694 -0.0131
  196SOL    HW2  550   0.674   3.444   5.534 -0.6720 -0.0923  0.1033
  196SOL    HW3  551   0.741   3.577   5.504 -1.3862  0.4331  0.7775
  196SOL    MW4  552   0.738   3.502   5.548 -0.7500 -0.0061  0.1065
  197SOL     OW  553   5.020   4.698   2.810  0.1911 -0.4916  0.9719
  197SOL    HW2  554   4.946   4.646   2.840 -0.9560  0.6005  0.1170
  197SOL    HW3  555   5.069   4.639   2.752 -0.5275 -0.9250  0.7986
  197SOL    MW4  556   5.017   4.683   2.806 -0.0551 -0.4047  0.8362
  198SOL     OW  557   6.143   2.976   1.869  0.0236 -0.2698 -0.2451
  198SOL    HW2  558   6.112   3.048   1.924 -1.7012 -0.3500 -1.0372
  198SOL    HW3  559   6.184   3.019   1.794 -3.1208  0.0790 -1.9403
  198SOL    MW4  560   6.144   2.992   1.866 -0.6189 -0.2344 -0.5733
  199SOL     OW  561   1.663   3.705   5.504 -0.2068  0.4982 -0.6565
  199SOL    HW2  562   1.689   3.615   5.521 -0.6493  0.3407 -0.8067
  199SOL    HW3  563   1.719   3.733   5.431  0.2151  0.4836 -0.3446
  199SOL    MW4  564   1.674   3.697   5.497 -0.2095  0.4755 -0.6352
  200SOL     OW  565   0.163  -0.052   0.217  0.3301  0.2765  0.5028
  200SOL    HW2  566   0.104  -0.006   0.276 -0.1005 -0.1375  0.3988
  200SOL    HW3  567   0.242  -0.068   0.269  0.3112  0.7276  0.6753
  200SOL    MW4  568   0.166  -0.048   0.232  0.2708  0.2814  0.5118
  201SOL     OW  569   3.826   2.857   5.462  0.3920  0.0161 -0.0259
  201SOL    HW2  570   3.740   2.892   5.438 -0.6494 -0.9198  2.0355
  201SOL    HW3  571   3.878   2.935   5.484  0.3707  0.6447 -2.0236
  201SOL    MW4  572   3.821   2.872   5.462  0.2518 -0.0244 -0.0175
  202SOL     OW  573   3.035   1.023   3.558  0.6540 -0.1515 -0.5446
  202SOL    HW2  574   3.106   1.063   3.608  1.2221 -0.2114 -1.2865
  202SOL    HW3  575   2.971   1.094   3.548  0.0324 -0.4357  1.1645
  202SOL    MW4  576   3.036   1.038   3.563  0.6470 -0.1969 -0.4170
  203SOL     OW  577   4.337   0.797   0.341 -0.1792  0.4549 -0.0516
  203SOL    HW2  578   4.285   0.722   0.370 -1.7557  2.1832  1.8569
  203SOL    HW3  579   4.378   0.831   0.420  2.3046  0.3687 -1.2172
  203SOL    MW4  580   4.336   0.792   0.355 -0.0595  0.6716  0.0464
  204SOL     OW  581   1.950   4.753   3.852 -0.0769  0.0100  0.6276
  204SOL    HW2  582   1.875   4.717   3.805 -0.4882 -0.1744  1.4058
  204SOL    HW3  583   2.010   4.680   3.862  0.0523  0.0714  0.3201
  204SOL    MW4  584   1.948   4.739   3.847 -0.1141 -0.0063  0.6897
  205SOL     OW  585   3.758   1.435   0.538 -0.1597 -0.0525  0.2379
  205SOL    HW2  586   3.788   1.401   0.622  0.4279 -1.4243 -0.5042
  205SOL    HW3  587   3.839   1.460   0.492 -0.4002 -0.3256 -0.3405
  205SOL    MW4  588   3.773   1.434   0.543 -0.1139 -0.2695  0.0637
  206SOL     OW  589   1.533   5.986   2.782  0.1589 -0.4648  0.2316
  206SOL    HW2  590   1.506   5.928   2.853 -2.6047  0.6759  0.2489
  206SOL    HW3  591   1.524   5.933   2.703 -0.3958 -0.6506  0.4147
  206SOL    MW4  592   1.528   5.972   2.781 -0.2789 -0.3388  0.2580
  207SOL     OW  593   6.392   6.293   2.123  0.0188 -0.5705 -0.3607
  207SOL    HW2  594   6.463   6.323   2.181  1.0556 -0.8121 -1.4655
  207SOL    HW3  595   6.341   6.233   2.178 -0.1373  0.6292  0.8605
  207SOL    MW4  596   6.395   6.289   2.138  0.1350 -0.4441 -0.3454
  208SOL     OW  597   4.265   0.644   4.757  0.1504  0.2792  0.5520
  208SOL    HW2  598   4.321   0.571   4.734  0.7267  1.1955 -1.1472
  208SOL    HW3  599   4.319   0.700   4.813  1.0423  1.2013 -1.1460
  208SOL    MW4  600   4.279   0.642   4.761  0.3441  0.5217  0.1038
  209SOL     OW  601   5.692   0.651   5.775  0.6991 -0.3038 -0.2108
  209SOL    HW2  602   5.674   0.745   5.772  0.0677 -0.4151 -0.0819
  209SOL    HW3  603   5.606   0.610   5.765  1.2294 -0.9253 -3.0423
  209SOL    MW4  604   5.678   0.658   5.774  0.6857 -0.4005 -0.5674
  210SOL     OW  605   6.179   5.281   2.065 -0.1289 -0.4941 -0.1739
  210SOL    HW2  606   6.165   5.372   2.090 -0.1618 -0.3174 -0.8204
  210SOL    HW3  607   6.190   5.235   2.148 -1.1569 -0.0784  0.2113
  210SOL    MW4  608   6.178   5.287   2.080 -0.2689 -0.4159 -0.2084
  211SOL     OW  609   1.661   5.251   0.463  0.3218 -0.4460  0.3151
  211SOL    HW2  610   1.572   5.219   0.450  0.1886  0.1911 -0.4746
  211SOL    HW3  611   1.664   5.333   0.413  1.9121 -1.4301 -1.3220
  211SOL    MW4  612   1.650   5.258   0.454  0.5141 -0.4918 -0.0051
  212SOL     OW  613   3.059   2.491   4.881 -0.0550  0.0976 -0.0852
  212SOL    HW2  614   3.023   2.502   4.969  2.2473  0.3877  0.8919
  212SOL    HW3  615   3.038   2.400   4.858 -3.9702  1.0324 -0.9130
  212SOL    MW4  616   3.052   2.480   4.889 -0.2678  0.2592 -0.0655
  213SOL     OW  617   4.844   3.610   2.677  0.0050  0.7913  0.5590
  213SOL    HW2  618   4.821   3.523   2.709 -0.2623  0.3034 -0.8706
  213SOL    HW3  619   4.761   3.645   2.643  0.6425  0.3692 -1.5938
  213SOL    MW4  620   4.830   3.603   2.677  0.0538  0.6713  0.0864
  214SOL     OW  621   0.077   2.907   6.044 -0.0085 -0.2219  0.3809
  214SOL    HW2  622   0.104   2.821   6.077  1.0997  0.6903  2.0031
  214SOL    HW3  623   0.064   2.960   6.123 -3.7888  0.2852 -0.3743
  214SOL    MW4  624   0.079   2.903   6.059 -0.3610 -0.0347  0.4953
  215SOL     OW  625   3.087   5.893   2.180  0.4177  0.0101 -0.9543
  215SOL    HW2  626   3.169   5.915   2.223  0.3271  0.3019 -0.9255
  215SOL    HW3  627   3.049   5.823   2.234  1.0932 -0.8030 -1.5067
  215SOL    MW4  628   3.093   5.887   2.193  0.4949 -0.0587 -1.0234
  216SOL     OW  629   0.021   0.736   1.552  0.2065 -0.0380 -0.0157
  216SOL    HW2  630   0.082   0.675   1.593 -0.3539 -0.1359  0.6791
  216SOL    HW3  631  -0.044   0.680   1.509 -0.1174  0.0691  0.3340
  216SOL    MW4  632   0.020   0.721   1.551  0.0898 -0.0368  0.1221
  217SOL     OW  633   0.934   1.741   1.767 -0.2661 -0.5535 -0.1080
  217SOL    HW2  634   0.882   1.787   1.832  2.7074 -0.7407  2.7001
  217SOL    HW3  635   0.963   1.809   1.706  0.7320  0.6556  1.6128
  217SOL    MW4  636   0.931   1.756   1.768  0.2579 -0.4187  0.4895
  218SOL     OW  637   5.115   0.076   0.935  0.6791  0.7099  0.6056
  218SOL    HW2  638   5.114   0.161   0.979 -0.5249  0.2321  1.5613
  218SOL    HW3  639   5.186   0.027   0.977 -0.0020  0.5116  1.5687
  218SOL    MW4  640   5.124   0.081   0.946  0.4304  0.6207  0.8588
  219SOL     OW  641   0.720   2.230   2.111  0.6652  0.0505  0.1112
  219SOL    HW2  642   0.793   2.172   2.133 -0.5075 -1.9513 -1.0292
  219SOL    HW3  643   0.656   2.215   2.180  0.6105  0.5028  0.1625
  219SOL    MW4  644   0.721   2.220   2.123  0.5033 -0.1540 -0.0325
  220SOL     OW  645   6.046   5.522   2.140  0.3873 -0.2836  0.5235
  220SOL    HW2  646   6.049   5.618   2.139 -0.0502 -0.2145  2.3746
  220SOL    HW3  647   5.954   5.501   2.157  0.3126 -1.0703 -0.7524
  220SOL    MW4  648   6.034   5.532   2.142  0.3197 -0.3782  0.5994
  221SOL     OW  649   6.339   6.076   2.707  0.4951  0.2145 -0.6528
  221SOL    HW2  650   6.388   6.050   2.629  1.4405  0.5413 -0.1718
  221SOL    HW3  651   6.365   6.013   2.774  1.0454  1.0003 -0.1135
  221SOL    MW4  652   6.349   6.064   2.706  0.6924  0.3613 -0.5182
  222SOL     OW  653   4.163   1.062   3.965  0.2948 -0.1976 -0.0191
  222SOL    HW2  654   4.171   1.143   3.913 -1.5685  0.4525  0.6153
  222SOL    HW3  655   4.212   1.080   4.045 -0.6309  0.5814  0.3942
  222SOL    MW4  656   4.170   1.075   3.968 -0.0732 -0.0090  0.1191
  223SOL     OW  657   5.703   0.573   3.558  0.3229 -0.5164 -0.9444
  223SOL    HW2  658   5.710   0.658   3.602  0.5745 -0.7254 -0.5697
  223SOL    HW3  659   5.657   0.591   3.476 -0.6120 -0.1984 -0.3627
  223SOL    MW4  660   5.698   0.586   3.553  0.2328 -0.5020 -0.8182
  224SOL     OW  661   3.882   4.205   5.437  0.4701 -0.1989 -0.3102
  224SOL    HW2  662   3.874   4.296   5.464  0.4856 -0.6004  1.1300
  224SOL    HW3  663   3.795   4.181   5.406  0.4155  0.2511 -0.5057
  224SOL    MW4  664   3.869   4.214   5.436  0.4649 -0.1925 -0.1460
  225SOL     OW  665   1.302   1.873   2.838 -0.2962 -0.2547 -0.1152
  225SOL    HW2  666   1.331   1.827   2.759  0.7455  0.5603 -0.2216
  225SOL    HW3  667   1.246   1.943   2.806  1.4322  1.1059 -0.3040
  225SOL    MW4  668   1.299   1.876   2.824  0.0693  0.0323 -0.1541
  226SOL     OW  669   3.852   4.817   6.403  0.1543  0.0766 -0.3653
  226SOL    HW2  670   3.808   4.875   6.341  0.9106  2.0021  0.8108
  226SOL    HW3  671   3.941   4.851   6.408  0.6632 -1.2942  0.2753
  226SOL    MW4  672   3.858   4.829   6.396  0.3213  0.1498 -0.1256
  227SOL     OW  673   2.009   0.681   5.451 -0.3448 -0.4881  0.2895
  227SOL    HW2  674   1.992   0.755   5.393 -0.2176 -1.4168 -0.9724
  227SOL    HW3  675   2.013   0.605   5.393  1.5549 -1.2186  1.2856
  227SOL    MW4  676   2.008   0.680   5.436 -0.0774 -0.7070  0.2545
  228SOL     OW  677   5.279   2.308   0.532  0.0427 -0.3045 -0.1591
  228SOL    HW2  678   5.313   2.304   0.442 -0.2732 -0.8353 -0.2643
  228SOL    HW3  679   5.357   2.310   0.587  0.2408 -0.1137 -0.4438
  228SOL    MW4  680   5.294   2.308   0.527  0.0271 -0.3493 -0.2105
  229SOL     OW  681   2.070   1.494   5.278  0.3851 -0.4782 -0.3976
  229SOL    HW2  682   2.134   1.536   5.221  1.1186  0.6491  1.1601
  229SOL    HW3  683   1.999   1.467   5.220  0.8384  1.1087 -1.7641
  229SOL    MW4  684   2.069   1.496   5.263  0.5417 -0.1201 -0.3723
  230SOL     OW  685   0.005   2.337   5.508 -0.5053 -0.4272 -0.1631
  230SOL    HW2  686  -0.009   2.286   5.428  3.9256 -1.9849 -0.2542
  230SOL    HW3  687   0.001   2.273   5.578  2.3220 -0.5717  0.0087
  230SOL    MW4  688   0.003   2.322   5.507  0.4523 -0.6518 -0.1525
  231SOL     OW  689   4.328   4.100   2.305  0.6168  0.5059 -0.2779
  231SOL    HW2  690   4.259   4.097   2.238  0.6008  0.2948 -0.2528
  231SOL    HW3  691   4.405   4.064   2.261  0.7161  0.7615 -0.3120
  231SOL    MW4  692   4.329   4.095   2.290  0.6278  0.5118 -0.2791
  232SOL     OW  693   3.265   1.922   3.566  0.3963  0.1522  0.2958
  232SOL    HW2  694   3.229   1.975   3.495  0.2090 -0.4238 -0.0441
  232SOL    HW3  695   3.242   1.970   3.645  1.9021  1.5996 -0.0700
  232SOL    MW4  696   3.257   1.935   3.567  0.5703  0.2672  0.2027
  233SOL     OW  697   2.798   2.544   3.937  0.0532  0.4394 -0.1253
  233SOL    HW2  698   2.844   2.628   3.928 -3.8207  2.7368 -0.8657
  233SOL    HW3  699   2.740   2.556   4.012 -0.9635 -1.4365 -0.5532
  233SOL    MW4  700   2.797   2.557   3.946 -0.5920  0.4950 -0.2794
  234SOL     OW  701   4.800   6.066   0.496 -0.0773 -0.1537 -0.1410
  234SOL    HW2  702   4.805   6.162   0.500 -0.2332  0.0210 -2.5734
  234SOL    HW3  703   4.722   6.049   0.443  0.4551 -1.6099 -0.4839
  234SOL    MW4  704   4.790   6.076   0.490 -0.0277 -0.3228 -0.5072
  235SOL     OW  705   2.682   2.707   5.407 -0.1485 -0.0201  0.0118
  235SOL    HW2  706   2.777   2.707   5.395  0.1540 -1.5379  1.9644
  235SOL    HW3  707   2.661   2.795   5.438  0.7898 -0.0144  0.6591
  235SOL    MW4  708   2.692   2.719   5.409  0.0152 -0.2196  0.3549
  236SOL     OW  709   5.397   2.798   1.746 -0.1414 -0.3090 -0.4205
  236SOL    HW2  710   5.430   2.753   1.668  1.9123  1.4521 -0.6409
  236SOL    HW3  711   5.474   2.809   1.802 -1.3466 -0.4654  1.3444
  236SOL    MW4  712   5.412   2.793   1.743 -0.0295 -0.0973 -0.2168
  237SOL     OW  713   3.389   1.257   0.601  0.4690  0.2337 -1.1276
  237SOL    HW2  714   3.438   1.196   0.656 -1.8999 -0.4539  0.3549
  237SOL    HW3  715   3.453   1.288   0.537  2.6984 -0.9016  0.4197
  237SOL    MW4  716   3.404   1.253   0.599  0.4506 -0.0068 -0.7279
  238SOL     OW  717   4.793   4.052   3.234  0.3665 -0.1228  0.2282
  238SOL    HW2  718   4.861   3.987   3.215  0.6287  0.4529 -0.8881
  238SOL    HW3  719   4.787   4.104   3.154 -0.2399  0.8771  0.9088
  238SOL    MW4  720   4.801   4.050   3.221  0.3211  0.0851  0.1707
  239SOL     OW  721   3.508   6.007   4.164 -0.0715  0.1039  0.0782
  239SOL    HW2  722   3.459   5.970   4.091  2.6145 -0.2782 -1.6788
  239SOL    HW3  723   3.468   6.093   4.179 -2.2419 -0.8179 -0.1198
  239SOL    MW4  724   3.496   6.014   4.157 -0.0035 -0.0681 -0.1797
  240SOL     OW  725   4.744   5.550   4.960  0.2097 -0.6735  0.0677
  240SOL    HW2  726   4.677   5.492   4.996  0.8262 -3.2060 -2.5707
  240SOL    HW3  727   4.700   5.596   4.888  0.3616  0.5059  0.6950
  240SOL    MW4  728   4.729   5.549   4.955  0.3111 -0.8520 -0.1976
  241SOL     OW  729   0.779   2.259   2.523 -0.3936 -0.5283  0.5370
  241SOL    HW2  730   0.741   2.322   2.584 -2.1874 -1.7840  0.8029
  241SOL    HW3  731   0.791   2.307   2.442  0.3293  0.6937  1.3327
  241SOL    MW4  732   0.776   2.273   2.521 -0.5349 -0.5327  0.6770
  242SOL     OW  733   1.087   1.977   4.784  0.3356 -0.6505 -0.8145
  242SOL    HW2  734   1.050   1.890   4.770  1.3979 -1.1912 -0.3274
  242SOL    HW3  735   1.079   1.991   4.879 -0.2072 -0.0362 -0.9437
  242SOL    MW4  736   1.081   1.968   4.795  0.4042 -0.6408 -0.7673
  243SOL     OW  737   5.930   3.540   4.474  0.0159  0.1796  0.1571
  243SOL    HW2  738   5.857   3.482   4.450 -0.8314  0.3961  1.9906
  243SOL    HW3  739   5.888   3.625   4.488  0.5649  0.2670  1.4106
  243SOL    MW4  740   5.915   3.543   4.473 -0.0234  0.2197  0.5644
  244SOL     OW  741   0.063   3.785   4.806 -0.1703 -0.0016  0.3728
  244SOL    HW2  742   0.129   3.849   4.779 -0.2201  0.4191  1.1975
  244SOL    HW3  743   0.112   3.704   4.819  0.0830  0.1513  0.3877
  244SOL    MW4  744   0.078   3.783   4.805 -0.1434  0.0741  0.4836
  245SOL     OW  745   2.777   6.103   1.528  0.3982 -0.0060 -0.1812
  245SOL    HW2  746   2.686   6.075   1.533 -1.1842  4.0719 -1.6267
  245SOL    HW3  747   2.803   6.117   1.620 -1.8266  2.2293  0.2249
  245SOL    MW4  748   2.769   6.101   1.541 -0.1041  0.8269 -0.3183
  246SOL     OW  749   3.220   2.028   6.029 -0.0009 -0.1068 -0.5674
  246SOL    HW2  750   3.198   2.106   6.080  1.8870 -0.7656  1.3862
  246SOL    HW3  751   3.288   2.057   5.968  0.5098 -0.1488 -0.0239
  246SOL    MW4  752   3.226   2.042   6.028  0.3156 -0.1993 -0.2380
  247SOL     OW  753   3.838   0.526   6.277 -0.3132 -0.0541 -0.2205
  247SOL    HW2  754   3.757   0.571   6.300  0.6285  0.1371  3.3557
  247SOL    HW3  755   3.826   0.437   6.309  0.4051 -0.3833 -0.8477
  247SOL    MW4  756   3.826   0.521   6.284 -0.0942 -0.0723  0.1686
  248SOL     OW  757   2.220   0.833   3.691  0.2880  0.7554  0.7584
  248SOL    HW2  758   2.275   0.844   3.613  1.9783  1.0320  1.9576
  248SOL    HW3  759   2.182   0.919   3.707 -1.0207  0.4401 -0.3938
  248SOL    MW4  760   2.222   0.846   3.683  0.3384  0.7503  0.7646
  249SOL     OW  761   6.141   0.544   3.791 -0.4323  0.0473 -0.2077
  249SOL    HW2  762   6.095   0.505   3.717 -0.7075  1.5013 -0.8187
  249SOL    HW3  763   6.199   0.609   3.753  2.3254 -1.7979  0.5190
  249SOL    MW4  764   6.142   0.547   3.777 -0.1047 -0.0043 -0.1924
  250SOL     OW  765   5.926   0.306   6.382  0.2389  0.2644  0.0252
  250SOL    HW2  766   5.905   0.334   6.293 -1.9249  1.0061  0.7124
  250SOL    HW3  767   5.918   0.211   6.380 -2.2878  0.4113 -0.0664
  250SOL    MW4  768   5.923   0.297   6.370 -0.3800  0.3817  0.1038
  251SOL     OW  769   1.025   0.429   2.233  0.7665  0.0405 -0.4650
  251SOL    HW2  770   1.055   0.496   2.172 -0.9312  2.4149  1.1318
  251SOL    HW3  771   1.098   0.418   2.295  0.5642  1.4442  0.0419
  251SOL    MW4  772   1.039   0.436   2.233  0.5158  0.5390 -0.1874
  252SOL     OW  773   2.438   1.043   2.846 -0.2450  0.1194 -0.4952
  252SOL    HW2  774   2.528   1.011   2.836  0.0790  0.4534  1.1653
  252SOL    HW3  775   2.433   1.117   2.786 -0.1908 -1.3383 -2.4119
  252SOL    MW4  776   2.449   1.048   2.836 -0.1951 -0.0288 -0.5290
  253SOL     OW  777   3.207   2.876   5.012  0.5409  0.0353 -0.1893
  253SOL    HW2  778   3.125   2.860   4.964  0.4605  1.5022 -0.5796
  253SOL    HW3  779   3.182   2.870   5.104  0.2624 -0.7374 -0.3008
  253SOL    MW4  780   3.193   2.873   5.018  0.4936  0.1269 -0.2555
  254SOL     OW  781   3.968   1.916   3.367  0.0963  0.2652 -0.0241
  254SOL    HW2  782   3.961   1.821   3.380  2.0168  0.0600 -0.1951
  254SOL    HW3  783   3.893   1.952   3.415  0.7968 -1.1780  2.3447
  254SOL    MW4  784   3.957   1.908   3.375  0.4421  0.0477  0.2659
  255SOL     OW  785   3.567   5.376   2.039  0.1387 -0.7358 -0.2462
  255SOL    HW2  786   3.642   5.344   2.088 -1.4630 -2.4518  1.2709
  255SOL    HW3  787   3.534   5.300   1.993 -0.4279  0.0847 -1.2434
  255SOL    MW4  788   3.572   5.362   2.040 -0.1474 -0.8540 -0.1776
  256SOL     OW  789   1.948   6.028   0.943  0.2408 -0.8879  0.2917
  256SOL    HW2  790   1.903   6.113   0.944  0.2447 -0.8780 -0.0635
  256SOL    HW3  791   1.961   6.009   0.850 -1.8788 -2.3850  0.2171
  256SOL    MW4  792   1.943   6.036   0.931 -0.0383 -1.0841  0.2350
  257SOL     OW  793   3.628   6.042   3.095 -0.3388 -0.3219 -0.1062
  257SOL    HW2  794   3.645   6.120   3.043 -0.8935  0.1791  0.4515
  257SOL    HW3  795   3.619   6.074   3.184  0.3518 -1.1413  0.2673
  257SOL    MW4  796   3.629   6.056   3.100 -0.3208 -0.3639  0.0167
  258SOL     OW  797   2.884   4.086   4.237  0.0717 -0.0231  0.5684
  258SOL    HW2  798   2.831   4.117   4.311  0.7060  2.5512  0.0314
  258SOL    HW3  799   2.854   4.139   4.163  1.8488 -0.1032 -0.2363
  258SOL    MW4  800   2.873   4.097   4.237  0.3899  0.3060  0.3914
  259SOL     OW  801   4.018   1.209   6.188  0.5178  0.6228  0.6161
  259SOL    HW2  802   3.963   1.212   6.109  0.3641  0.7542  0.7291
  259SOL    HW3  803   3.965   1.250   6.256  1.0215  1.3684  0.5652
  259SOL    MW4  804   4.004   1.215   6.186  0.5640  0.7385  0.6243
  260SOL     OW  805   0.605   0.356   0.657 -0.0294  0.3683  0.0997
  260SOL    HW2  806   0.547   0.383   0.586 -0.4115 -0.0610  0.2463
  260SOL    HW3  807   0.547   0.321   0.724  0.4539 -1.3213 -0.3011
  260SOL    MW4  808   0.590   0.355   0.656 -0.0161  0.0888  0.0661
  261SOL     OW  809   0.738   1.487   6.313  0.0899 -0.2188  0.1628
  261SOL    HW2  810   0.653   1.445   6.306  0.3989 -0.7186 -0.6963
  261SOL    HW3  811   0.767   1.499   6.223  0.7635  0.2919  0.4366
  261SOL    MW4  812   0.731   1.483   6.300  0.2195 -0.2173  0.0856
  262SOL     OW  813   4.755   4.033   1.866 -0.5020  0.0761  1.0634
  262SOL    HW2  814   4.815   4.057   1.795  0.1488 -3.7935  0.0644
  262SOL    HW3  815   4.811   4.022   1.942 -0.5969  0.3637  1.1777
  262SOL    MW4  816   4.770   4.035   1.867 -0.4286 -0.3965  0.9467
  263SOL     OW  817   4.225   1.906   0.582  0.3593 -0.4133 -0.1919
  263SOL    HW2  818   4.165   1.837   0.612 -0.5236  0.6456  0.5715
  263SOL    HW3  819   4.184   1.939   0.502 -2.4803  3.0695  2.3747
  263SOL    MW4  820   4.211   1.901   0.576 -0.1319  0.1859  0.2475
  264SOL     OW  821   5.723   4.377   3.728 -0.3011  0.8097 -0.1587
  264SOL    HW2  822   5.725   4.384   3.824  0.0752 -0.5113 -0.0495
  264SOL    HW3  823   5.815   4.385   3.702 -0.0879 -1.1130 -0.1797
  264SOL    MW4  824   5.736   4.379   3.737 -0.2234  0.3817 -0.1471
  265SOL     OW  825   3.005   5.486   3.541 -0.1757  0.3006 -0.4113
  265SOL    HW2  826   3.060   5.474   3.619 -0.9457 -1.9326 -0.1169
  265SOL    HW3  827   2.999   5.580   3.530  3.5507  0.6986 -0.3925
  265SOL    MW4  828   3.012   5.497   3.550  0.2144  0.0585 -0.3700
  266SOL     OW  829   5.379   2.780   0.863 -0.6110  0.1845  0.3514
  266SOL    HW2  830   5.470   2.756   0.877 -1.3101 -1.9343  1.6887
  266SOL    HW3  831   5.361   2.846   0.930  0.1467  1.3056 -0.5127
  266SOL    MW4  832   5.389   2.786   0.874 -0.6033  0.0529  0.4138
  267SOL     OW  833   2.180   1.953   1.601  0.0826 -0.1194 -0.1951
  267SOL    HW2  834   2.154   1.901   1.525 -0.2910  0.6570 -0.5977
  267SOL    HW3  835   2.258   1.907   1.635  0.5379 -0.1998 -1.3198
  267SOL    MW4  836   2.187   1.940   1.596  0.0933 -0.0275 -0.3966
  268SOL     OW  837   5.895   2.410   1.145  0.1149  0.0744 -0.4061
  268SOL    HW2  838   5.937   2.486   1.185  1.4565  0.3008 -2.0931
  268SOL    HW3  839   5.967   2.358   1.111 -0.8443 -1.3375 -0.3677
  268SOL    MW4  840   5.910   2.413   1.146  0.1653 -0.0820 -0.6236
  269SOL     OW  841   4.654   0.792   4.076 -0.7080  0.6647 -0.0276
  269SOL    HW2  842   4.641   0.705   4.039  0.1355  0.9684 -1.0892
  269SOL    HW3  843   4.696   0.776   4.161  0.2577  0.0579 -0.6009
  269SOL    MW4  844   4.657   0.779   4.083 -0.4693  0.6247 -0.2433
  270SOL     OW  845   2.411   1.072   0.442 -0.3112  0.6229  0.2624
  270SOL    HW2  846   2.439   1.034   0.358  0.7316 -0.2459  0.9836
  270SOL    HW3  847   2.344   1.012   0.474  0.1524  0.2849  0.6125
  270SOL    MW4  848   2.406   1.059   0.435 -0.1124  0.4637  0.4038
  271SOL     OW  849   1.504   4.763   1.930  0.3258  0.0683 -0.3320
  271SOL    HW2  850   1.434   4.722   1.981  1.4154 -1.8040 -0.2378
  271SOL    HW3  851   1.463   4.840   1.891 -1.5721 -0.5434  0.3189
  271SOL    MW4  852   1.489   4.768   1.932  0.2192 -0.2594 -0.2337
  272SOL     OW  853   2.365   1.571   3.718 -0.0909  0.4037 -0.1440
  272SOL    HW2  854   2.356   1.509   3.646  0.1660  1.5999 -1.2438
  272SOL    HW3  855   2.389   1.654   3.676  0.8003  0.9662  1.3680
  272SOL    MW4  856   2.367   1.574   3.703  0.0606  0.6357 -0.0896
  273SOL     OW  857   3.395   3.671   3.552  0.0789 -0.2941  0.6410
  273SOL    HW2  858   3.386   3.591   3.603  0.7664  0.0141  1.2657
  273SOL    HW3  859   3.487   3.672   3.524 -0.1685 -0.2207 -0.2174
  273SOL    MW4  860   3.406   3.661   3.555  0.1369 -0.2437  0.6101
  274SOL     OW  861   2.774   0.520   5.349  0.3636 -0.0318 -0.8823
  274SOL    HW2  862   2.842   0.453   5.359  1.1805  0.9599  0.5652
  274SOL    HW3  863   2.822   0.602   5.337 -0.5654  0.7247  0.3771
  274SOL    MW4  864   2.789   0.522   5.348  0.3488  0.1988 -0.5251
  275SOL     OW  865   2.343   1.866   3.953 -0.4075 -0.2479  0.4059
  275SOL    HW2  866   2.369   1.951   3.989 -1.1389 -0.3384  1.1852
  275SOL    HW3  867   2.349   1.876   3.858  0.4405  0.3695  0.5159
  275SOL    MW4  868   2.347   1.879   3.945 -0.3921 -0.1784  0.5232
  276SOL     OW  869   2.147   3.869   4.482 -0.3504 -0.6095  0.2532
  276SOL    HW2  870   2.237   3.857   4.513 -0.7113  1.6668  2.6163
  276SOL    HW3  871   2.150   3.949   4.429 -1.0126 -0.1588  0.8573
  276SOL    MW4  872   2.159   3.878   4.479 -0.4854 -0.2497  0.6447
  277SOL     OW  873   0.080   5.358   0.033  0.5228 -0.0361 -1.0665
  277SOL    HW2  874   0.131   5.292   0.079  0.2719 -0.3969 -1.2936
  277SOL    HW3  875   0.082   5.331  -0.058 -0.0856 -0.0662 -1.0752
  277SOL    MW4  876   0.087   5.346   0.027  0.4095 -0.0877 -1.0976
  278SOL     OW  877   3.113   1.868   2.242  0.1759  0.0454  0.5324
  278SOL    HW2  878   3.048   1.925   2.284  0.0664 -0.2582  0.7711
  278SOL    HW3  879   3.089   1.870   2.149  0.0815  0.2679  0.5592
  278SOL    MW4  880   3.101   1.876   2.235  0.1490  0.0347  0.5674
  279SOL     OW  881   1.064   5.578   1.482  0.1675  0.2752  0.3800
  279SOL    HW2  882   0.968   5.581   1.484  0.1606  1.9615 -0.6410
  279SOL    HW3  883   1.090   5.666   1.456  2.0196 -0.1033  0.8413
  279SOL    MW4  884   1.055   5.590   1.479  0.4109  0.4477  0.3062
  280SOL     OW  885   5.844   4.061   3.190 -0.2359  0.3536 -0.1426
  280SOL    HW2  886   5.867   4.154   3.187 -1.6683  0.6962 -2.6334
  280SOL    HW3  887   5.753   4.059   3.218  0.0672 -0.4216  0.8842
  280SOL    MW4  888   5.835   4.073   3.193 -0.3849  0.2965 -0.3358
  281SOL     OW  889   6.258   0.301   3.839 -0.1046  0.0414  0.4001
  281SOL    HW2  890   6.222   0.390   3.844 -1.2870 -0.3473 -0.4997
  281SOL    HW3  891   6.340   0.310   3.792 -0.8852  0.5245 -0.9406
  281SOL    MW4  892   6.264   0.314   3.833 -0.3636  0.0539  0.1045
  282SOL     OW  893   1.431   4.710   3.101  0.3774  0.1446  0.6613
  282SOL    HW2  894   1.421   4.615   3.106 -1.6305  0.2793  0.2635
  282SOL    HW3  895   1.438   4.738   3.192 -0.3281 -0.2859  0.8540
  282SOL    MW4  896   1.430   4.701   3.114  0.0194  0.1056  0.6342
  283SOL     OW  897   1.908   2.012   3.283 -0.2615 -0.1126 -0.4271
  283SOL    HW2  898   1.845   2.043   3.218  1.1012  2.5180 -0.6283
  283SOL    HW3  899   1.920   1.920   3.263 -2.0041 -0.0394 -2.0756
  283SOL    MW4  900   1.901   2.004   3.272 -0.3117  0.2441 -0.6711
  284SOL     OW  901   0.668   4.791   6.196  0.0531 -0.1922 -0.1386
  284SOL    HW2  902   0.634   4.861   6.253  3.0275  0.6392  0.7723
  284SOL    HW3  903   0.625   4.712   6.228 -0.5785  0.6784  1.2911
  284SOL    MW4  904   0.658   4.790   6.208  0.3622  0.0324  0.1702
  285SOL     OW  905   6.007   3.723   3.628 -0.4321  0.2410 -0.2340
  285SOL    HW2  906   5.969   3.781   3.562 -0.3017  0.4381 -0.1368
  285SOL    HW3  907   5.940   3.656   3.643 -0.5398  0.3070 -0.4242
  285SOL    MW4  908   5.993   3.722   3.622 -0.4291  0.2757 -0.2462
  286SOL     OW  909   2.922   5.716   4.564 -0.3185 -0.1015 -0.0227
  286SOL    HW2  910   2.896   5.807   4.548  0.4904 -0.0889 -1.3298
  286SOL    HW3  911   3.008   5.723   4.605  0.0060 -0.2877 -0.6673
  286SOL    MW4  912   2.930   5.729   4.568 -0.1690 -0.1244 -0.2802
  287SOL     OW  913   0.765   0.619   4.226  0.3372 -0.2450 -0.1829
  287SOL    HW2  914   0.670   0.628   4.226  0.3798  0.2718  0.4618
  287SOL    HW3  915   0.796   0.692   4.280  1.1743  0.4077 -1.4923
  287SOL    MW4  916   0.756   0.630   4.233  0.4533 -0.0907 -0.2706
  288SOL     OW  917   5.911   1.008   4.292 -0.0523 -0.0927  0.0461
  288SOL    HW2  918   5.970   0.979   4.223 -0.0007  0.8951 -0.3349
  288SOL    HW3  919   5.934   0.954   4.368  1.5703  0.4881 -0.0017
  288SOL    MW4  920   5.922   0.997   4.293  0.1686  0.1143 -0.0105
  289SOL     OW  921   2.478   2.153   3.533 -0.0524  0.1058 -0.1259
  289SOL    HW2  922   2.460   2.065   3.566 -1.6392  0.1740 -0.7212
  289SOL    HW3  923   2.392   2.192   3.520  0.6190  2.1611  1.1264
  289SOL    MW4  924   2.464   2.147   3.536 -0.1732  0.3859 -0.0392
  290SOL     OW  925   4.420   3.962   2.817 -0.0804  0.0053  0.6130
  290SOL    HW2  926   4.459   4.036   2.769  0.1500 -0.2479  0.4058
  290SOL    HW3  927   4.396   3.999   2.902 -3.3830  1.3106 -0.6937
  290SOL    MW4  928   4.422   3.977   2.822 -0.4858  0.1441  0.4132
  291SOL     OW  929   5.320   3.039   4.314  0.0046  0.0167 -0.3011
  291SOL    HW2  930   5.385   2.980   4.351  0.1263 -0.3887 -1.1289
  291SOL    HW3  931   5.281   2.989   4.241 -0.7708  0.4918 -0.2269
  291SOL    MW4  932   5.323   3.024   4.309 -0.0816  0.0259 -0.4005
  292SOL     OW  933   0.225   6.107   1.700  0.0142  0.3945  0.0964
  292SOL    HW2  934   0.189   6.179   1.647 -0.1774  0.1744 -0.0712
  292SOL    HW3  935   0.207   6.133   1.790 -0.0882  0.5412  0.0349
  292SOL    MW4  936   0.218   6.120   1.705 -0.0246  0.3848  0.0661
  293SOL     OW  937   6.283   5.410   1.464 -0.0307  0.0780 -0.3137
  293SOL    HW2  938   6.306   5.409   1.557 -2.2091 -0.4559  0.2712
  293SOL    HW3  939   6.251   5.321   1.447  2.5288 -0.5735 -2.2156
  293SOL    MW4  940   6.282   5.398   1.474  0.0196 -0.0784 -0.4874
  294SOL     OW  941   3.451   4.293   3.575 -0.2358 -0.0998 -0.2330
  294SOL    HW2  942   3.430   4.199   3.566  0.0890 -0.0730 -1.4998
  294SOL    HW3  943   3.546   4.296   3.572 -0.2659  0.3448 -1.3260
  294SOL    MW4  944   3.461   4.281   3.573 -0.1969 -0.0376 -0.5444
  295SOL     OW  945   6.064   4.348   1.604 -0.1556  0.1172 -0.2852
  295SOL    HW2  946   6.094   4.315   1.520  3.9504  1.3225  0.5144
  295SOL    HW3  947   6.096   4.438   1.608  1.0098 -0.2953  3.0026
  295SOL    MW4  948   6.072   4.356   1.593  0.5399  0.2218  0.2541
  296SOL     OW  949   0.138   6.185   0.596  0.0147 -0.3898 -0.4006
  296SOL    HW2  950   0.199   6.121   0.559  0.3124 -0.1440 -0.3425
  296SOL    HW3  951   0.132   6.163   0.689 -0.0495 -0.4654 -0.4227
  296SOL    MW4  952   0.146   6.174   0.603  0.0455 -0.3674 -0.3958
  297SOL     OW  953   4.842   3.563   1.388  0.3955  0.0540 -0.3147
  297SOL    HW2  954   4.909   3.563   1.456  0.5402 -0.1759 -0.4568
  297SOL    HW3  955   4.884   3.521   1.313 -0.8367 -2.8787  0.5152
  297SOL    MW4  956   4.856   3.558   1.387  0.2520 -0.3633 -0.2239
  298SOL     OW  957   4.504   5.975   1.779 -0.0148 -0.3999  0.3139
  298SOL    HW2  958   4.443   5.907   1.807  0.3733 -0.3491  1.3341
  298SOL    HW3  959   4.588   5.930   1.771  0.1843 -0.1086  0.7120
  298SOL    MW4  960   4.507   5.960   1.782  0.0627 -0.3547  0.5010
  299SOL     OW  961   5.646   3.487   5.574 -0.4712  0.6394 -0.4423
  299SOL    HW2  962   5.708   3.455   5.508 -0.8255 -0.1063 -0.4258
  299SOL    HW3  963   5.689   3.470   5.658 -1.2812 -1.2525 -0.3605
  299SOL    MW4  964   5.660   3.480   5.576 -0.6248  0.2914 -0.4293
  300SOL     OW  965   6.080   5.218   4.075  0.2624  0.2492 -0.1346
  300SOL    HW2  966   6.012   5.274   4.113  0.5726  0.5505 -0.0166
  300SOL    HW3  967   6.136   5.196   4.150 -0.1202 -0.6071 -0.0872
  300SOL    MW4  968   6.078   5.222   4.090  0.2528  0.1759 -0.1127
  301SOL     OW  969   1.888   3.431   4.080  0.3860 -0.0239  0.9852
  301SOL    HW2  970   1.977   3.422   4.114  0.6923 -1.1753 -0.0477
  301SOL    HW3  971   1.851   3.343   4.086 -0.2710  0.1978  0.3298
  301SOL    MW4  972   1.895   3.418   4.085  0.3397 -0.1465  0.7624
  302SOL     OW  973   4.727   3.449   3.232 -0.3766  0.5382  0.2377
  302SOL    HW2  974   4.767   3.527   3.270 -0.5744  0.7438  0.0278
  302SOL    HW3  975   4.786   3.425   3.160 -1.0700  1.3626 -0.6480
  302SOL    MW4  976   4.740   3.456   3.227 -0.4942  0.6741  0.0932
  303SOL     OW  977   1.917   0.227   5.930  0.5640  0.2581  0.2880
  303SOL    HW2  978   1.862   0.166   5.979  0.4017 -0.3518 -0.6234
  303SOL    HW3  979   1.855   0.278   5.878  0.7622  0.6343  0.4132
  303SOL    MW4  980   1.901   0.226   5.930  0.5687  0.2272  0.1843
  304SOL     OW  981   4.337   3.375   6.230  0.0712  0.0275  0.4816
  304SOL    HW2  982   4.336   3.370   6.134 -0.3680 -0.5258  0.5095
  304SOL    HW3  983   4.373   3.290   6.257 -0.9945 -0.3295  0.8290
  304SOL    MW4  984   4.341   3.363   6.221 -0.1274 -0.0926  0.5311
  305SOL     OW  985   0.212   2.276   2.002  0.3873  0.4666 -0.5679
  305SOL    HW2  986   0.144   2.263   1.936  0.2476  1.8846 -0.7327
  305SOL    HW3  987   0.277   2.332   1.959 -0.6149  3.0304  1.0242
  305SOL    MW4  988   0.211   2.282   1.987  0.2367  0.9920 -0.3796
  306SOL     OW  989   0.580   2.377   5.973 -0.3788 -0.0216 -0.0203
  306SOL    HW2  990   0.591   2.356   5.881 -0.2644  1.1558 -0.2915
  306SOL    HW3  991   0.491   2.350   5.994 -0.1413 -1.0162 -0.2646
  306SOL    MW4  992   0.570   2.371   5.964 -0.3324  0.0025 -0.0883
  307SOL     OW  993   0.618   4.971   5.644 -0.1286 -0.1987  0.2392
  307SOL    HW2  994   0.624   4.977   5.739  0.1208 -1.7453  0.3476
  307SOL    HW3  995   0.708   4.979   5.614 -0.1864  0.0893  0.1353
  307SOL    MW4  996   0.631   4.973   5.653 -0.1034 -0.3648  0.2398
  308SOL     OW  997   5.766   3.764   5.446 -0.3655  0.1582 -0.2051
  308SOL    HW2  998   5.783   3.857   5.456  2.7887 -0.3869  0.5264
  308SOL    HW3  999   5.810   3.723   5.521 -2.4970 -1.8900  0.0462
  308SOL    MW4 1000   5.774   3.771   5.457 -0.2306 -0.1840 -0.0754
  309SOL     OW 1001   5.993   4.236   0.021 -0.2385  0.0645  0.3444
  309SOL    HW2 1002   6.040   4.223  -0.061 -1.4937 -0.4319 -0.3265
  309SOL    HW3 1003   5.991   4.331   0.033 -1.3439  0.2391 -1.0105
  309SOL    MW4 1004   5.999   4.247   0.012 -0.5500  0.0221  0.0771
  310SOL     OW 1005   4.794   4.196   4.387  0.2281 -0.9766 -0.4764
  310SOL    HW2 1006   4.863   4.192   4.321  0.1774  0.0916 -0.6152
  310SOL    HW3 1007   4.712   4.195   4.338  0.0841 -2.9506 -0.2816
  310SOL    MW4 1008   4.793   4.195   4.372  0.2024 -1.0961 -0.4690
  311SOL     OW 1009   4.110   0.116   1.182 -0.3433  0.1982 -0.0781
  311SOL    HW2 1010   4.162   0.196   1.175 -0.8545  0.7873  2.0125
  311SOL    HW3 1011   4.173   0.046   1.193  0.0785  0.4257 -0.9551
  311SOL    MW4 1012   4.125   0.117   1.182 -0.3551  0.3059  0.0820
  312SOL     OW 1013   5.230   1.444   4.705  0.1189 -0.2208 -0.2953
  312SOL    HW2 1014   5.168   1.504   4.747  0.5812  0.2715 -0.3063
  312SOL    HW3 1015   5.242   1.478   4.617 -0.8243 -1.2377 -0.8450
  312SOL    MW4 1016   5.223   1.456   4.699  0.0555 -0.2900 -0.3692
  313SOL     OW 1017   1.886   4.818   4.447 -0.2255 -0.2725  0.6623
  313SOL    HW2 1018   1.905   4.757   4.518 -0.3213 -0.6827  0.3375
  313SOL    HW3 1019   1.801   4.791   4.414  0.5770 -1.1919 -0.7479
  313SOL    MW4 1020   1.878   4.807   4.452 -0.1323 -0.4479  0.4334
  314SOL     OW 1021   3.112   4.399   3.524  0.0006 -0.1017 -0.1529
  314SOL    HW2 1022   3.207   4.388   3.516 -0.0469 -0.9914  0.3221
  314SOL    HW3 1023   3.089   4.350   3.604 -1.1003 -1.4881 -1.2472
  314SOL    MW4 1024   3.121   4.391   3.534 -0.1509 -0.4020 -0.2346
  315SOL     OW 1025   2.378   5.281   1.814  0.3885  0.1555 -0.0378
  315SOL    HW2 1026   2.455   5.324   1.777 -0.0362  2.2576  1.3684
  315SOL    HW3 1027   2.412   5.199   1.850  2.0307  1.1284  0.7338
  315SOL    MW4 1028   2.393   5.276   1.814  0.5492  0.5612  0.2496
  316SOL     OW 1029   0.082   3.148   5.593  0.4412  0.5255 -0.2053
  316SOL    HW2 1030   0.020   3.159   5.665 -0.5521  0.0795 -0.9650
  316SOL    HW3 1031   0.040   3.190   5.518  1.0540  0.2109 -0.7356
  316SOL    MW4 1032   0.068   3.155   5.593  0.3910  0.4251 -0.3755
  317SOL     OW 1033   3.592   4.046   3.817 -0.2494  0.3275 -0.6504
  317SOL    HW2 1034   3.558   4.005   3.897  0.4610 -1.1666 -1.0943
  317SOL    HW3 1035   3.516   4.050   3.759 -0.2178 -0.8646 -0.7947
  317SOL    MW4 1036   3.577   4.042   3.820 -0.1515 -0.0269 -0.7280
  318SOL     OW 1037   2.408   4.803   5.997  0.2015  0.3848  0.0737
  318SOL    HW2 1038   2.342   4.734   6.005  0.6626 -0.1737 -0.8219
  318SOL    HW3 1039   2.463   4.792   6.075  1.3612 -1.4670 -0.9380
  318SOL    MW4 1040   2.407   4.792   6.009  0.4154  0.0668 -0.1780
  319SOL     OW 1041   3.375   4.696   1.863  0.6670 -0.6845  0.2265
  319SOL    HW2 1042   3.288   4.715   1.828  1.2648 -0.8737 -1.4478
  319SOL    HW3 1043   3.389   4.603   1.844  1.3816 -0.5670  0.1521
  319SOL    MW4 1044   3.365   4.686   1.856  0.8402 -0.6939 -0.0042
  320SOL     OW 1045   5.848   3.958   1.529  0.2795  0.3570  0.1549
  320SOL    HW2 1046   5.838   3.987   1.620  0.2032 -0.1353  0.3023
  320SOL    HW3 1047   5.798   4.023   1.478 -0.5930  0.0226  0.5647
  320SOL    MW4 1048   5.840   3.971   1.534  0.1543  0.2480  0.2284
  321SOL     OW 1049   1.549   1.214   0.084 -0.3373  0.1769  0.1287
  321SOL    HW2 1050   1.584   1.135   0.041  0.1606  1.0904 -1.2271
  321SOL    HW3 1051   1.485   1.181   0.146  0.9313 -1.3960  0.6797
  321SOL    MW4 1052   1.545   1.199   0.087 -0.1042  0.0899  0.0225
  322SOL     OW 1053   2.125   2.825   4.967  0.5617 -0.1906  0.2125
  322SOL    HW2 1054   2.176   2.760   5.016  1.0197  0.2079  0.2781
  322SOL    HW3 1055   2.134   2.905   5.018  2.4874  0.6955 -1.3662
  322SOL    MW4 1056   2.133   2.827   4.980  0.8762 -0.0211  0.0128
  323SOL     OW 1057   6.304   5.455   3.440 -0.3233  0.5496  0.4327
  323SOL    HW2 1058   6.253   5.530   3.471  1.1332  1.3930  0.8748
  323SOL    HW3 1059   6.240   5.384   3.434 -1.5177  1.5173  1.1247
  323SOL    MW4 1060   6.289   5.456   3.444 -0.2887  0.7886  0.5823
  324SOL     OW 1061   6.160   5.392   4.639 -0.5358 -0.1939  0.4092
  324SOL    HW2 1062   6.130   5.321   4.581 -2.1886 -1.4215  2.6037
  324SOL    HW3 1063   6.216   5.348   4.702  0.1745  0.8773  0.5372
  324SOL    MW4 1064   6.163   5.377   4.639 -0.6601 -0.2145  0.7157
  325SOL     OW 1065   4.198   1.836   1.000 -0.3171 -0.5557 -0.5869
  325SOL    HW2 1066   4.104   1.841   0.982 -1.3165  0.1217  3.7721
  325SOL    HW3 1067   4.224   1.927   1.014  0.6091 -0.8829 -0.1440
  325SOL    MW4 1068   4.189   1.849   0.999 -0.3267 -0.5095  0.0467
  326SOL     OW 1069   0.421   6.246   1.361  0.4288  0.2774  0.1108
  326SOL    HW2 1070   0.337   6.216   1.326  1.0127  0.1282 -1.2221
  326SOL    HW3 1071   0.410   6.340   1.374 -0.4524  0.0045  1.4773
  326SOL    MW4 1072   0.408   6.254   1.358  0.3896  0.2217  0.1152
  327SOL     OW 1073   0.971   1.687   2.565  0.2041  0.1872 -0.0848
  327SOL    HW2 1074   0.936   1.749   2.501 -0.8838  1.8736  2.0152
  327SOL    HW3 1075   0.917   1.609   2.555 -2.6799  1.8481  1.3748
  327SOL    MW4 1076   0.960   1.685   2.555 -0.3199  0.6288  0.3849
  328SOL     OW 1077   3.596   1.384   3.403 -0.0163  0.0985  0.0668
  328SOL    HW2 1078   3.552   1.354   3.323  3.0055 -0.6486 -1.4930
  328SOL    HW3 1079   3.530   1.376   3.471 -2.3084 -0.6891 -2.0701
  328SOL    MW4 1080   3.581   1.379   3.401  0.0800 -0.1040 -0.4210
  329SOL     OW 1081   6.427   0.066   6.262 -0.1169 -0.6149 -0.0823
  329SOL    HW2 1082   6.354   0.099   6.314 -1.4193 -3.1399 -0.1561
  329SOL    HW3 1083   6.504   0.112   6.296 -1.6723  2.1696 -0.0278
  329SOL    MW4 1084   6.427   0.076   6.273 -0.4940 -0.5807 -0.0848
  330SOL     OW 1085   4.410   4.119   1.316  0.1415  0.0378  0.4778
  330SOL    HW2 1086   4.398   4.059   1.390 -0.3849 -0.5838 -0.1004
  330SOL    HW3 1087   4.381   4.069   1.240 -0.4303  1.0821 -0.0000
  330SOL    MW4 1088   4.405   4.104   1.316 -0.0034  0.0936  0.3385
  331SOL     OW 1089   1.855   2.311   3.056  0.3326  0.4516  0.1813
  331SOL    HW2 1090   1.812   2.357   2.984 -1.4890 -2.0018 -0.4767
  331SOL    HW3 1091   1.845   2.369   3.132 -2.8327  0.7991 -0.3385
  331SOL    MW4 1092   1.848   2.324   3.057 -0.3254  0.1737  0.0259
  332SOL     OW 1093   0.217   3.569   4.861 -0.3194  0.6254 -0.2570
  332SOL    HW2 1094   0.309   3.545   4.851 -1.2051 -3.0236 -1.0695
  332SOL    HW3 1095   0.200   3.562   4.955 -0.0148  0.2210 -0.2327
  332SOL    MW4 1096   0.227   3.565   4.872 -0.3961  0.0906 -0.3610
  333SOL     OW 1097   4.217   2.638   4.419  0.1689 -0.0419 -0.2553
  333SOL    HW2 1098   4.146   2.575   4.423 -1.4072  1.6185 -1.0642
  333SOL    HW3 1099   4.267   2.622   4.499 -0.9538 -1.4048  0.2103
  333SOL    MW4 1100   4.215   2.627   4.430 -0.1872 -0.0027 -0.3006
  334SOL     OW 1101   3.404   0.639   6.016 -0.7280  0.0384  0.2090
  334SOL    HW2 1102   3.330   0.686   6.054 -0.7470 -0.9289  1.4240
  334SOL    HW3 1103   3.421   0.567   6.076  1.5332  0.5247  0.2580
  334SOL    MW4 1104   3.397   0.636   6.029 -0.4322 -0.0250  0.3758
  335SOL     OW 1105   2.285   4.748   0.080  0.3716 -0.5156 -0.6872
  335SOL    HW2 1106   2.246   4.809   0.143  0.6119 -0.3086 -0.7380
  335SOL    HW3 1107   2.320   4.805   0.012  0.4784 -0.7212 -0.8005
  335SOL    MW4 1108   2.284   4.764   0.080  0.4174 -0.5154 -0.7089
  336SOL     OW 1109   1.706   0.690   1.521 -0.0986 -0.1628  0.1910
  336SOL    HW2 1110   1.750   0.690   1.606  0.2662  1.4720  0.0166
  336SOL    HW3 1111   1.695   0.597   1.500  2.3980 -0.6262  0.6788
  336SOL    MW4 1112   1.710   0.677   1.529  0.2789 -0.0082  0.2323
  337SOL     OW 1113   1.143   1.941   3.184 -0.2283 -0.2645  0.5931
  337SOL    HW2 1114   1.235   1.928   3.160 -0.1067 -0.4212  1.1236
  337SOL    HW3 1115   1.097   1.868   3.143 -0.2885  0.4121 -0.5966
  337SOL    MW4 1116   1.149   1.930   3.176 -0.2202 -0.1959  0.5062
  338SOL     OW 1117   5.836   1.878   3.186 -0.5209 -0.6975 -0.0155
  338SOL    HW2 1118   5.907   1.903   3.245 -0.1078 -0.2379 -0.6861
  338SOL    HW3 1119   5.762   1.859   3.243  0.3501 -1.9288  0.7579
  338SOL    MW4 1120   5.836   1.879   3.201 -0.3515 -0.7993 -0.0020
  339SOL     OW 1121   5.776   0.978   4.822  0.4270  0.0100 -0.2986
  339SOL    HW2 1122   5.772   0.900   4.877 -1.3752 -1.9439 -2.9930
  339SOL    HW3 1123   5.838   0.956   4.752 -0.2649  0.8895 -1.2201
  339SOL    MW4 1124   5.784   0.965   4.820  0.0979 -0.1318 -0.7757
  340SOL     OW 1125   0.306   1.195   0.006  0.2403  0.0237  0.1077
  340SOL    HW2 1126   0.224   1.167  -0.035 -0.7394  3.3487 -0.4696
  340SOL    HW3 1127   0.295   1.172   0.099 -0.0095 -2.2648 -0.4405
  340SOL    MW4 1128   0.294   1.188   0.013  0.0781  0.1605 -0.0408
  341SOL     OW 1129   5.508   5.931   5.778 -0.0733  0.3088 -0.7978
  341SOL    HW2 1130   5.490   5.980   5.698  0.4165 -1.1071 -1.8038
  341SOL    HW3 1131   5.537   5.845   5.748  3.5860  0.8126  0.8112
  341SOL    MW4 1132   5.509   5.926   5.764  0.4741  0.1885 -0.7182
  342SOL     OW 1133   4.919   0.177   0.135  0.3068  0.0311 -0.1263
  342SOL    HW2 1134   4.953   0.253   0.182  0.4406  0.7936 -1.3911
  342SOL    HW3 1135   4.934   0.198   0.042  1.1622 -1.9193 -0.4870
  342SOL    MW4 1136   4.926   0.190   0.129  0.4373 -0.1256 -0.3407
  343SOL     OW 1137   0.270   4.552   4.420  0.0678 -0.1963  0.4463
  343SOL    HW2 1138   0.212   4.480   4.395  0.3501 -0.2324 -0.1358
  343SOL    HW3 1139   0.300   4.588   4.336  2.7802 -1.7235  0.6179
  343SOL    MW4 1140   0.267   4.547   4.406  0.4629 -0.4025  0.3921
  344SOL     OW 1141   3.474   4.879   2.657 -0.3382  0.0634 -0.0310
  344SOL    HW2 1142   3.418   4.872   2.580 -1.1315  0.1088  0.5234
  344SOL    HW3 1143   3.460   4.797   2.705 -0.1952  0.2216  0.2885
  344SOL    MW4 1144   3.465   4.867   2.653 -0.4240  0.0903  0.0843
  345SOL     OW 1145   0.596   3.442   4.316 -0.7400 -0.0555 -0.4072
  345SOL    HW2 1146   0.502   3.426   4.324 -0.6013 -0.0332  2.1637
  345SOL    HW3 1147   0.636   3.375   4.372  0.7926 -0.0486 -1.4513
  345SOL    MW4 1148   0.589   3.431   4.324 -0.5195 -0.0517 -0.2057
  346SOL     OW 1149   4.605   0.234   3.560  0.1147  0.8033 -0.3284
  346SOL    HW2 1150   4.656   0.262   3.636 -1.1119  0.9160  0.4671
  346SOL    HW3 1151   4.672   0.213   3.494  1.2614 -0.5136  1.1737
  346SOL    MW4 1152   4.621   0.235   3.561  0.1041  0.6444 -0.0252
  347SOL     OW 1153   1.504   2.261   5.290 -0.2637 -0.3124  0.3730
  347SOL    HW2 1154   1.567   2.247   5.360  0.0887 -2.2805 -0.2508
  347SOL    HW3 1155   1.487   2.355   5.291  1.2296 -0.0027  1.7876
  347SOL    MW4 1156   1.510   2.271   5.299 -0.0202 -0.5312  0.4773
  348SOL     OW 1157   0.313   3.499   0.669  0.3689 -0.5877  0.0104
  348SOL    HW2 1158   0.403   3.518   0.643  0.2262 -1.6931 -1.4326
  348SOL    HW3 1159   0.275   3.584   0.691  1.3388  0.0740 -0.8062
  348SOL    MW4 1160   0.319   3.513   0.668  0.4781 -0.6462 -0.2878
  349SOL     OW 1161   2.496   4.040   1.187  0.1486  0.4415  0.3541
  349SOL    HW2 1162   2.529   4.130   1.193 -0.0309  0.7315 -1.9188
  349SOL    HW3 1163   2.442   4.040   1.108 -1.5225 -1.1917  1.4162
  349SOL    MW4 1164   2.493   4.052   1.177 -0.0955  0.2643  0.1944
  350SOL     OW 1165   4.492   6.294   5.487 -0.5157 -0.0288  0.0595
  350SOL    HW2 1166   4.451   6.362   5.541 -0.7092  0.0974 -0.2420
  350SOL    HW3 1167   4.482   6.326   5.397 -0.6354 -0.4736 -0.0872
  350SOL    MW4 1168   4.486   6.307   5.482 -0.5570 -0.0708  0.0003
  351SOL     OW 1169   4.910   3.725   0.696  0.1199  0.1759 -0.1548
  351SOL    HW2 1170   4.965   3.721   0.774  0.1302  0.0938 -0.1667
  351SOL    HW3 1171   4.919   3.639   0.655 -3.2073 -1.3494  1.9512
  351SOL    MW4 1172   4.919   3.713   0.701 -0.3177 -0.0362  0.1215
  352SOL     OW 1173   4.623   2.215   0.333 -0.2041  0.1610 -0.4906
  352SOL    HW2 1174   4.599   2.278   0.266  0.7165  1.0031 -0.0442
  352SOL    HW3 1175   4.698   2.168   0.296  0.6375  0.9793  0.1272
  352SOL    MW4 1176   4.630   2.217   0.319  0.0284  0.3801 -0.3502
  353SOL     OW 1177   2.379   4.550   0.546 -0.5849 -0.1800  0.4156
  353SOL    HW2 1178   2.404   4.582   0.633  0.4839  1.2505 -0.3771
  353SOL    HW3 1179   2.460   4.512   0.512 -1.0048 -0.7415  0.0406
  353SOL    MW4 1180   2.393   4.549   0.553 -0.4993 -0.0653  0.2615
  354SOL     OW 1181   5.663   6.050   4.152  0.5391 -0.2171 -0.5389
  354SOL    HW2 1182   5.608   5.991   4.102  0.2194 -0.8515  0.5389
  354SOL    HW3 1183   5.609   6.128   4.167 -0.6522 -1.3705  1.6961
  354SOL    MW4 1184   5.649   6.052   4.148  0.3398 -0.4529 -0.1018
  355SOL     OW 1185   3.653   4.145   6.195  0.0499 -0.2253 -0.0939
  355SOL    HW2 1186   3.674   4.224   6.145 -1.5115 -0.4351 -1.1398
  355SOL    HW3 1187   3.587   4.100   6.142  0.1916 -1.7447  0.9609
  355SOL    MW4 1188   3.647   4.149   6.181 -0.1374 -0.4534 -0.0928
  356SOL     OW 1189   0.201   4.060   1.628  0.0712 -0.5351  0.6172
  356SOL    HW2 1190   0.132   4.056   1.562  0.6134 -1.8206  0.0980
  356SOL    HW3 1191   0.205   3.971   1.664 -0.0659  0.0815  2.2475
  356SOL    MW4 1192   0.192   4.048   1.624  0.1247 -0.6234  0.7638
  357SOL     OW 1193   1.121   4.874   5.094  0.3548 -0.2666 -0.2684
  357SOL    HW2 1194   1.192   4.846   5.151  0.1178 -1.7383 -0.6496
  357SOL    HW3 1195   1.057   4.803   5.099 -0.4818  0.4101 -0.9814
  357SOL    MW4 1196   1.122   4.861   5.102  0.2132 -0.3715 -0.4127
  358SOL     OW 1197   3.460   1.399   5.548 -0.3078  0.4156  0.4456
  358SOL    HW2 1198   3.516   1.329   5.580  0.4783 -0.2182 -2.1127
  358SOL    HW3 1199   3.519   1.474   5.539 -0.2258  0.2322 -0.6376
  358SOL    MW4 1200   3.475   1.400   5.551 -0.1932  0.3078 -0.0348
  359SOL     OW 1201   3.406   3.159   1.365  0.3948 -0.9066 -0.6431
  359SOL    HW2 1202   3.344   3.183   1.433  0.6368 -1.1420 -0.3347
  359SOL    HW3 1203   3.352   3.144   1.287  0.1403 -0.4276 -0.5609
  359SOL    MW4 1204   3.391   3.160   1.363  0.3932 -0.8745 -0.5915
  360SOL     OW 1205   4.012   0.020   5.753  0.6426 -0.0549 -0.3415
  360SOL    HW2 1206   3.955   0.065   5.815  0.8138  0.2037 -0.3723
  360SOL    HW3 1207   3.981  -0.071   5.753 -0.5173  0.3253 -1.2333
  360SOL    MW4 1208   4.001   0.014   5.761  0.5121  0.0294 -0.4632
  361SOL     OW 1209   6.150   6.300   3.378 -0.2644 -0.3798 -0.6134
  361SOL    HW2 1210   6.081   6.240   3.350  0.3329 -1.0346 -0.7074
  361SOL    HW3 1211   6.207   6.247   3.433 -1.2909  0.8186  1.7304
  361SOL    MW4 1212   6.149   6.285   3.381 -0.3211 -0.3081 -0.3166
  362SOL     OW 1213   2.079   6.047   2.552  0.4828  0.6270  0.1332
  362SOL    HW2 1214   2.139   6.119   2.534  1.6291 -0.0670  1.0662
  362SOL    HW3 1215   2.125   5.969   2.520 -0.7143  0.2792 -0.8147
  362SOL    MW4 1216   2.093   6.046   2.545  0.4761  0.4896  0.1312
  363SOL     OW 1217   2.074   0.022   0.091  0.4811  0.0165 -0.1472
  363SOL    HW2 1218   2.158   0.056   0.059  0.4450 -0.1194 -0.3854
  363SOL    HW3 1219   2.049  -0.044   0.027 -0.9415  1.6289 -1.3548
  363SOL    MW4 1220   2.082   0.018   0.079  0.2887  0.2113 -0.3380
  364SOL     OW 1221   4.585   5.591   1.380  0.0185  0.1547 -0.5054
  364SOL    HW2 1222   4.539   5.605   1.298  1.5467  0.3889 -1.3525
  364SOL    HW3 1223   4.538   5.646   1.443 -1.7773 -0.7739 -0.9420
  364SOL    MW4 1224   4.572   5.600   1.378 -0.0168  0.0631 -0.6748
  365SOL     OW 1225   5.541   2.009   6.382 -0.4720 -0.0082  0.5391
  365SOL    HW2 1226   5.601   1.992   6.309 -1.0219  2.0516 -0.4553
  365SOL    HW3 1227   5.598   2.019   6.458  0.0555 -3.6068  0.8276
  365SOL    MW4 1228   5.556   2.008   6.382 -0.4749 -0.2112  0.4460
  366SOL     OW 1229   1.934   6.019   2.797  0.2395  0.2109  0.0668
  366SOL    HW2 1230   1.967   6.052   2.713 -1.4991  1.8592 -0.0439
  366SOL    HW3 1231   1.926   6.098   2.851 -1.0448 -0.4674  0.9078
  366SOL    MW4 1232   1.938   6.034   2.793 -0.1594  0.3389  0.1632
  367SOL     OW 1233   0.373   2.246   5.232 -0.3374 -0.7392  0.1664
  367SOL    HW2 1234   0.317   2.175   5.262 -0.3907 -0.6957  0.1701
  367SOL    HW3 1235   0.459   2.225   5.267 -0.3159 -0.8902  0.0259
  367SOL    MW4 1236   0.377   2.234   5.240 -0.3416 -0.7534  0.1484
  368SOL     OW 1237   1.875   0.519   6.205 -0.0606 -0.0339 -0.0553
  368SOL    HW2 1238   1.887   0.611   6.229  0.0214 -0.3443  1.1634
  368SOL    HW3 1239   1.932   0.506   6.129 -2.0346  1.5529 -1.9338
  368SOL    MW4 1240   1.884   0.529   6.198 -0.3102  0.1345 -0.1424
  369SOL     OW 1241   3.729   4.212   4.002  0.0298  0.4800  0.0972
  369SOL    HW2 1242   3.665   4.173   3.942 -1.3728  1.3762  0.9696
  369SOL    HW3 1243   3.760   4.290   3.956 -1.0493  1.1696  0.5222
  369SOL    MW4 1244   3.725   4.217   3.988 -0.2976  0.6892  0.2683
  370SOL     OW 1245   1.652   0.441   2.869 -0.4134 -0.3873 -0.1462
  370SOL    HW2 1246   1.578   0.433   2.808 -0.8819  0.2019  0.3280
  370SOL    HW3 1247   1.620   0.500   2.937 -0.1469 -1.5722  1.0384
  370SOL    MW4 1248   1.638   0.448   2.870 -0.4401 -0.4659  0.0726
  371SOL     OW 1249   4.556   5.616   4.748  0.1472 -0.1436  0.3850
  371SOL    HW2 1250   4.513   5.646   4.829  1.2805  0.9941  0.5944
  371SOL    HW3 1251   4.548   5.520   4.751 -0.0040 -0.1079  1.7428
  371SOL    MW4 1252   4.549   5.607   4.759  0.2768  0.0112  0.5918
  372SOL     OW 1253   0.951   3.812   5.669 -0.3220  0.0971 -0.7194
  372SOL    HW2 1254   1.044   3.825   5.649 -0.1119 -1.2227 -0.7021
  372SOL    HW3 1255   0.905   3.872   5.611  0.5524  1.1941 -0.3219
  372SOL    MW4 1256   0.958   3.821   5.659 -0.1789  0.0677 -0.6647
  373SOL     OW 1257   4.953   0.312   0.681  0.0854  0.2050 -0.7700
  373SOL    HW2 1258   5.039   0.270   0.681 -0.9890 -2.2482  1.1874
  373SOL    HW3 1259   4.957   0.376   0.751  1.2490  2.5176 -2.7971
  373SOL    MW4 1260   4.965   0.314   0.690  0.0972  0.1864 -0.7792
  374SOL     OW 1261   0.111   0.570   2.641  0.4238 -0.1108  0.5098
  374SOL    HW2 1262   0.194   0.593   2.681  0.6862  1.0673 -0.6328
  374SOL    HW3 1263   0.128   0.572   2.547 -1.2259  1.7586  0.1591
  374SOL    MW4 1264   0.124   0.574   2.634  0.2408  0.2913  0.3128
  375SOL     OW 1265   4.221   6.272   5.143  0.6019  0.0239  0.1089
  375SOL    HW2 1266   4.188   6.182   5.139 -1.0265  0.6230 -0.9365
  375SOL    HW3 1267   4.170   6.319   5.077  2.7256  1.3198 -0.7196
  375SOL    MW4 1268   4.210   6.266   5.134  0.6673  0.2739 -0.1383
  376SOL     OW 1269   0.162   0.974   2.081  0.5560  0.2210 -0.3695
  376SOL    HW2 1270   0.238   1.004   2.030  1.4865 -1.2387  0.1104
  376SOL    HW3 1271   0.127   0.900   2.031  0.6243 -0.3350  0.4003
  376SOL    MW4 1272   0.167   0.968   2.068  0.6878 -0.0450 -0.2046
  377SOL     OW 1273   5.421   1.299   1.208  0.1441 -0.0628 -0.5624
  377SOL    HW2 1274   5.403   1.335   1.122  1.7772  0.7100 -0.6083
  377SOL    HW3 1275   5.334   1.280   1.244 -0.6050  0.5488 -1.9561
  377SOL    MW4 1276   5.407   1.301   1.202  0.2608  0.1199 -0.7523
  378SOL     OW 1277   3.492   5.708   4.057 -0.6750 -0.5656  0.2564
  378SOL    HW2 1278   3.465   5.747   3.974 -1.1194 -0.2675  0.5315
  378SOL    HW3 1279   3.474   5.615   4.047 -0.3057 -0.5920 -0.1412
  378SOL    MW4 1280   3.486   5.701   4.045 -0.6849 -0.5297  0.2402
  379SOL     OW 1281   2.471   2.393   4.523  0.0237 -0.0982  0.1550
  379SOL    HW2 1282   2.536   2.351   4.467  0.9591 -0.8845  1.7627
  379SOL    HW3 1283   2.507   2.481   4.539 -0.5553  0.3592 -0.9347
  379SOL    MW4 1284   2.485   2.399   4.518  0.0707 -0.1416  0.2233
  380SOL     OW 1285   0.564   4.487   6.268 -0.3048  0.2371 -0.5202
  380SOL    HW2 1286   0.530   4.435   6.341 -0.4102  0.5974 -0.3097
  380SOL    HW3 1287   0.489   4.496   6.208  0.1214 -1.1415 -1.3050
  380SOL    MW4 1288   0.549   4.481   6.270 -0.2625  0.1027 -0.5960
  381SOL     OW 1289   0.444   2.075   3.578 -0.0060 -0.1253  0.0286
  381SOL    HW2 1290   0.399   2.153   3.546  0.5876  0.7879  1.3386
  381SOL    HW3 1291   0.433   2.010   3.507 -0.0730  1.2957 -1.3157
  381SOL    MW4 1292   0.437   2.076   3.564  0.0634  0.1826  0.0241
  382SOL     OW 1293   2.198   3.487   4.655 -0.2149 -0.2707  0.1447
  382SOL    HW2 1294   2.200   3.393   4.676  1.1468 -0.2522  0.2143
  382SOL    HW3 1295   2.127   3.522   4.709 -1.1734 -1.3636 -0.3650
  382SOL    MW4 1296   2.189   3.479   4.665 -0.1617 -0.4125  0.0866
  383SOL     OW 1297   2.179   5.761   2.779  0.0212 -0.1133 -0.7428
  383SOL    HW2 1298   2.084   5.772   2.771 -0.5589 -1.2129  2.8439
  383SOL    HW3 1299   2.212   5.850   2.793 -1.2811 -0.0739  3.0860
  383SOL    MW4 1300   2.171   5.774   2.780 -0.2272 -0.2532  0.2356
  384SOL     OW 1301   2.798   4.261   4.645  0.2680 -0.0151  0.2080
  384SOL    HW2 1302   2.865   4.196   4.625  0.2310 -0.0059  0.0594
  384SOL    HW3 1303   2.847   4.335   4.683  0.1632 -0.7400  1.8474
  384SOL    MW4 1304   2.813   4.263   4.648  0.2493 -0.1095  0.4047
  385SOL     OW 1305   2.437   2.869   2.065  0.0462  0.3808  0.6354
  385SOL    HW2 1306   2.458   2.778   2.044  0.7908  0.6556  0.1375
  385SOL    HW3 1307   2.346   2.867   2.096 -0.4031 -0.3254 -0.6899
  385SOL    MW4 1308   2.428   2.856   2.067  0.0852  0.3239  0.3949
  386SOL     OW 1309   1.358   0.671   0.924 -0.2238 -0.2980  0.2433
  386SOL    HW2 1310   1.408   0.752   0.916 -0.6815 -0.0927 -0.7418
  386SOL    HW3 1311   1.298   0.687   0.997 -0.7183  0.4913 -0.3169
  386SOL    MW4 1312   1.357   0.684   0.933 -0.3494 -0.1668  0.0394
  387SOL     OW 1313   4.489   3.821   0.171  0.0492  0.4390  0.0134
  387SOL    HW2 1314   4.556   3.882   0.141 -0.8265  0.6651 -1.6047
  387SOL    HW3 1315   4.489   3.751   0.106 -0.3133 -0.2934  0.7785
  387SOL    MW4 1316   4.498   3.820   0.159 -0.1142  0.3722 -0.0991
  388SOL     OW 1317   6.103   3.766   4.861  0.3342  0.1635  0.4423
  388SOL    HW2 1318   6.100   3.738   4.953  2.2399 -0.1896  0.4373
  388SOL    HW3 1319   6.093   3.685   4.811 -1.7686  0.4784  0.2868
  388SOL    MW4 1320   6.102   3.751   4.866  0.3082  0.1584  0.4211
  389SOL     OW 1321   3.640   4.585   6.098  0.6133  0.5857 -0.5028
  389SOL    HW2 1322   3.634   4.518   6.030  0.4110 -0.2081  0.2940
  389SOL    HW3 1323   3.723   4.569   6.141 -0.9948 -1.5208  2.0997
  389SOL    MW4 1324   3.650   4.574   6.095  0.3745  0.2030 -0.0543
  390SOL     OW 1325   3.747   2.357   6.238 -0.5237 -0.0845 -0.1087
  390SOL    HW2 1326   3.798   2.330   6.161  1.7589  3.8985 -0.2250
  390SOL    HW3 1327   3.662   2.383   6.202  0.0133  0.3795 -1.0697
  390SOL    MW4 1328   3.742   2.357   6.223 -0.1517  0.5022 -0.2508
  391SOL     OW 1329   0.913   1.678   6.108 -0.2528 -0.2095  0.0743
  391SOL    HW2 1330   0.903   1.757   6.161 -1.9731  0.7811 -1.5756
  391SOL    HW3 1331   1.003   1.650   6.123  0.5672  2.3118  0.4123
  391SOL    MW4 1332   0.923   1.685   6.117 -0.3716  0.2539 -0.0988
  392SOL     OW 1333   0.899   3.196   1.183 -0.2973 -0.1833 -0.2183
  392SOL    HW2 1334   0.942   3.235   1.260 -2.1318 -1.1017  1.3658
  392SOL    HW3 1335   0.971   3.174   1.124  1.0176  2.9412  0.0208
  392SOL    MW4 1336   0.914   3.199   1.186 -0.3658  0.1078  0.0223
  393SOL     OW 1337   4.340   2.954   1.169  0.2027 -0.1120  0.1551
  393SOL    HW2 1338   4.353   2.927   1.078  0.3014 -1.5824  0.5781
  393SOL    HW3 1339   4.250   2.928   1.189 -0.2693  1.4155  0.0986
  393SOL    MW4 1340   4.330   2.947   1.159  0.1534 -0.1045  0.2035
  394SOL     OW 1341   3.215   4.253   5.732  0.0177  0.5170  0.1711
  394SOL    HW2 1342   3.200   4.283   5.642  0.0482 -0.0700 -0.0363
  394SOL    HW3 1343   3.269   4.175   5.722 -0.5660  0.0421  0.6622
  394SOL    MW4 1344   3.221   4.247   5.719 -0.0553  0.3769  0.2085
  395SOL     OW 1345   5.961   2.052   1.702 -0.4106  0.3765  0.2546
  395SOL    HW2 1346   5.958   1.994   1.626  0.7570 -0.7957  1.0520
  395SOL    HW3 1347   6.022   2.122   1.676 -0.0178 -0.0165  0.0946
  395SOL    MW4 1348   5.969   2.053   1.689 -0.2047  0.1700  0.3387
  396SOL     OW 1349   2.286   1.872   3.003 -0.0190  0.1190  0.6790
  396SOL    HW2 1350   2.368   1.826   3.017 -1.1334 -2.0397  0.5351
  396SOL    HW3 1351   2.280   1.934   3.076  0.1865 -2.0451  2.6442
  396SOL    MW4 1352   2.296   1.874   3.014 -0.1390 -0.4513  0.9193
  397SOL     OW 1353   4.009   5.302   4.839  0.7979 -0.2825 -0.3756
  397SOL    HW2 1354   4.092   5.348   4.855  1.3247  0.3964 -4.1160
  397SOL    HW3 1355   3.944   5.372   4.834  0.5676 -0.5160 -0.6104
  397SOL    MW4 1356   4.011   5.318   4.841  0.8370 -0.2237 -0.9001
  398SOL     OW 1357   4.984   4.709   1.707  0.6077  0.3474 -0.7563
  398SOL    HW2 1358   5.044   4.719   1.781  0.5345 -0.8784 -0.5132
  398SOL    HW3 1359   4.898   4.731   1.742  0.6573  0.3506 -0.6369
  398SOL    MW4 1360   4.981   4.714   1.721  0.6046  0.1861 -0.7085
  399SOL     OW 1361   1.628   1.886   1.354 -0.2591  1.0271 -0.2373
  399SOL    HW2 1362   1.593   1.972   1.331 -0.1317  1.8136  2.2228
  399SOL    HW3 1363   1.699   1.905   1.415  0.5999 -0.7877 -0.6252
  399SOL    MW4 1364   1.632   1.900   1.359 -0.1289  0.8914  0.0361
  400SOL     OW 1365   4.782   0.889   0.033 -0.2962  0.6791  0.2705
  400SOL    HW2 1366   4.808   0.940   0.110 -1.9130  0.6242  0.8924
  400SOL    HW3 1367   4.690   0.870   0.047 -0.6011  0.5624 -1.6459
  400SOL    MW4 1368   4.774   0.893   0.045 -0.5498  0.6565  0.0997
  401SOL     OW 1369   3.894   6.332   4.786 -0.1772 -0.4536 -0.8045
  401SOL    HW2 1370   3.968   6.283   4.751  0.2868 -0.9673  0.8239
  401SOL    HW3 1371   3.831   6.335   4.714  1.4855  0.1941 -2.3102
  401SOL    MW4 1372   3.895   6.326   4.772  0.1034 -0.4359 -0.7884
  402SOL     OW 1373   5.884   0.097   1.343  0.6578  0.3794 -0.3153
  402SOL    HW2 1374   5.814   0.161   1.336  1.8413  1.7174 -0.4116
  402SOL    HW3 1375   5.937   0.127   1.417  1.6390 -0.0580 -0.8195
  402SOL    MW4 1376   5.882   0.109   1.352  0.9434  0.4982 -0.3945
  403SOL     OW 1377   1.497   5.763   4.440 -0.0206  0.1243  0.7135
  403SOL    HW2 1378   1.419   5.712   4.461  0.5864 -1.0371  0.2182
  403SOL    HW3 1379   1.487   5.844   4.490 -0.5738 -0.8629  2.2716
  403SOL    MW4 1380   1.486   5.767   4.450 -0.0135 -0.1592  0.8537
  404SOL     OW 1381   6.243   0.294   1.635  0.0226 -0.0558 -0.4215
  404SOL    HW2 1382   6.168   0.349   1.613 -0.6474 -0.8422 -0.1262
  404SOL    HW3 1383   6.213   0.205   1.618 -0.7558 -0.8607  3.9913
  404SOL    MW4 1384   6.229   0.290   1.629 -0.1685 -0.2657  0.1997
  405SOL     OW 1385   4.397   2.893   0.899  0.3165  0.1440 -0.6368
  405SOL    HW2 1386   4.435   2.806   0.904 -0.7439 -0.2537  1.4302
  405SOL    HW3 1387   4.343   2.891   0.820  0.4278 -0.9945 -0.6994
  405SOL    MW4 1388   4.395   2.881   0.889  0.1913 -0.0587 -0.3724
  406SOL     OW 1389   4.269   5.407   4.834  0.3630  0.0384  0.0301
  406SOL    HW2 1390   4.359   5.394   4.806  0.5178 -2.3871  1.3963
  406SOL    HW3 1391   4.268   5.496   4.870  1.7682  0.6924 -1.3874
  406SOL    MW4 1392   4.281   5.417   4.835  0.5688 -0.1954  0.0233
  407SOL     OW 1393   1.633   2.264   0.820  0.0864  0.3170 -0.0352
  407SOL    HW2 1394   1.721   2.250   0.784 -0.5755 -0.4475 -1.4075
  407SOL    HW3 1395   1.648   2.321   0.896  1.7219  0.5195 -0.4584
  407SOL    MW4 1396   1.647   2.270   0.825  0.2149  0.2429 -0.2721
  408SOL     OW 1397   2.190   4.259   1.143  0.2884 -0.0370  0.0798
  408SOL    HW2 1398   2.188   4.330   1.079  1.6058 -0.3373 -0.3112
  408SOL    HW3 1399   2.265   4.279   1.198  0.0087 -0.5541  0.6567
  408SOL    MW4 1400   2.200   4.271   1.142  0.4253 -0.1449  0.1043
  409SOL     OW 1401   0.441   3.078   5.218  0.0786 -0.0237 -0.2804
  409SOL    HW2 1402   0.469   3.152   5.163  1.1951  0.0519  0.3585
  409SOL    HW3 1403   0.351   3.062   5.192 -0.9259  2.8876  0.9766
  409SOL    MW4 1404   0.433   3.086   5.207  0.0934  0.3704 -0.0302
  410SOL     OW 1405   3.164   2.260   2.116  0.3545  0.3544 -0.6119
  410SOL    HW2 1406   3.195   2.344   2.082  2.4867 -0.1668 -0.0777
  410SOL    HW3 1407   3.181   2.264   2.210 -0.4301 -0.3211 -0.4250
  410SOL    MW4 1408   3.170   2.272   2.124  0.5323  0.1965 -0.5168
  411SOL     OW 1409   1.308   3.521   6.132  0.5752  0.0777  0.4752
  411SOL    HW2 1410   1.289   3.608   6.098 -1.1982  0.0495  1.3072
  411SOL    HW3 1411   1.305   3.530   6.227 -2.3409 -1.3227  0.6504
  411SOL    MW4 1412   1.305   3.534   6.140 -0.0435 -0.1108  0.6081
  412SOL     OW 1413   2.884   6.242   5.689 -0.4843 -0.3483 -0.1337
  412SOL    HW2 1414   2.974   6.212   5.699  0.5913  2.0180 -1.7607
  412SOL    HW3 1415   2.869   6.244   5.595 -2.0756 -0.2164  0.0901
  412SOL    MW4 1416   2.894   6.238   5.678 -0.5523 -0.0187 -0.3188
  413SOL     OW 1417   3.026   0.618   3.191 -0.1792  0.2917  0.2770
  413SOL    HW2 1418   2.991   0.703   3.217 -0.1000 -0.4430  3.2183
  413SOL    HW3 1419   2.994   0.604   3.102 -1.5416  2.6727  0.3214
  413SOL    MW4 1420   3.017   0.627   3.183 -0.3485  0.5089  0.6709
  414SOL     OW 1421   2.031   6.257   0.696  0.2075 -0.0330 -0.3439
  414SOL    HW2 1422   2.090   6.290   0.765 -0.7752  2.2290 -0.4770
  414SOL    HW3 1423   2.077   6.277   0.614 -0.9854  2.5472 -0.4866
  414SOL    MW4 1424   2.045   6.264   0.694 -0.0795  0.6058 -0.3803
  415SOL     OW 1425   6.109   3.736   3.036 -0.6938  0.1173 -0.0305
  415SOL    HW2 1426   6.029   3.778   3.003 -0.1968  1.3227  0.2540
  415SOL    HW3 1427   6.149   3.802   3.092 -0.1429 -0.9467  0.8459
  415SOL    MW4 1428   6.104   3.751   3.039 -0.5555  0.1360  0.1226
  416SOL     OW 1429   5.666   6.088   2.761 -0.0569  0.4318  0.3641
  416SOL    HW2 1430   5.648   5.998   2.735 -0.6820  0.3050  1.1708
  416SOL    HW3 1431   5.590   6.113   2.814  0.9856  0.7537  1.7969
  416SOL    MW4 1432   5.654   6.079   2.765 -0.0018  0.4575  0.6596
  417SOL     OW 1433   4.176   5.536   3.410  0.2172  1.0528 -0.3075
  417SOL    HW2 1434   4.181   5.474   3.482 -1.1182  1.5872  0.2731
  417SOL    HW3 1435   4.264   5.537   3.373  0.4751 -0.5686  0.1740
  417SOL    MW4 1436   4.188   5.528   3.414  0.0750  0.9094 -0.1674
  418SOL     OW 1437   6.156   0.224   2.204  0.0311 -0.2411 -0.0229
  418SOL    HW2 1438   6.083   0.215   2.264 -0.0795 -3.0530 -0.4469
  418SOL    HW3 1439   6.233   0.232   2.260 -0.3976  0.9635  0.4260
  418SOL    MW4 1440   6.156   0.224   2.219 -0.0400 -0.4532 -0.0196
  419SOL     OW 1441   2.364   1.905   5.196  0.3471 -0.1193  0.7397
  419SOL    HW2 1442   2.343   1.855   5.118 -0.9740 -0.0003  0.9900
  419SOL    HW3 1443   2.378   1.994   5.164 -1.5182  0.2231  0.7416
  419SOL    MW4 1444   2.363   1.910   5.182 -0.0733 -0.0584  0.7729
  420SOL     OW 1445   0.350   1.815   3.453 -0.1300  0.1599  0.9387
  420SOL    HW2 1446   0.307   1.753   3.511 -1.6926  2.0739  1.9802
  420SOL    HW3 1447   0.279   1.855   3.404  0.9691  0.1267 -0.7565
  420SOL    MW4 1448   0.335   1.812   3.454 -0.1912  0.4081  0.8525
  421SOL     OW 1449   6.394   3.880   0.695 -0.6530  0.0651  0.3147
  421SOL    HW2 1450   6.478   3.835   0.705 -0.4235  0.2922 -0.5265
  421SOL    HW3 1451   6.392   3.942   0.769  0.0075  0.1956  0.2297
  421SOL    MW4 1452   6.405   3.883   0.706 -0.5356  0.1123  0.1925
  422SOL     OW 1453   0.118   3.604   2.724  0.0635  0.4847  0.2789
  422SOL    HW2 1454   0.108   3.609   2.629 -1.3643  0.4646  0.4078
  422SOL    HW3 1455   0.035   3.637   2.759 -0.2201 -1.2953  1.4734
  422SOL    MW4 1456   0.106   3.609   2.716 -0.1623  0.2472  0.4535
  423SOL     OW 1457   3.010   3.171   2.057 -0.3624 -0.0718  0.0641
  423SOL    HW2 1458   2.988   3.263   2.039  1.1162  0.0323 -1.4895
  423SOL    HW3 1459   2.953   3.147   2.129 -1.9548  1.5923 -0.5411
  423SOL    MW4 1460   3.000   3.180   2.064 -0.3774  0.1615 -0.2207
  424SOL     OW 1461   5.093   2.560   0.714  0.2057 -0.4775 -0.0012
  424SOL    HW2 1462   5.150   2.550   0.791  1.8381 -0.0747 -1.1080
  424SOL    HW3 1463   5.071   2.470   0.689 -4.1375 -0.7246  3.4822
  424SOL    MW4 1464   5.098   2.547   0.721 -0.1520 -0.4570  0.3124
  425SOL     OW 1465   4.498   1.995   2.613  0.1116 -0.6446 -0.4290
  425SOL    HW2 1466   4.526   2.021   2.700  0.3201  0.6368 -0.8505
  425SOL    HW3 1467   4.440   2.066   2.584  1.9598  0.2713 -2.2532
  425SOL    MW4 1468   4.494   2.008   2.620  0.3829 -0.3547 -0.7253
  426SOL     OW 1469   2.618   0.467   2.229 -0.3063 -0.0818  0.1465
  426SOL    HW2 1470   2.612   0.517   2.311 -1.1532  0.3600 -0.1756
  426SOL    HW3 1471   2.690   0.508   2.182 -0.2718  0.1149  0.3655
  426SOL    MW4 1472   2.627   0.479   2.234 -0.4135  0.0024  0.1329
  427SOL     OW 1473   1.523   5.754   4.818 -0.1160  0.1288 -0.4925
  427SOL    HW2 1474   1.442   5.707   4.838 -0.0440  0.4668  0.6290
  427SOL    HW3 1475   1.507   5.844   4.848  0.1816  0.5441 -1.5271
  427SOL    MW4 1476   1.510   5.760   4.824 -0.0672  0.2282 -0.4810
  428SOL     OW 1477   4.056   5.095   5.735  0.2971 -0.5312 -0.3432
  428SOL    HW2 1478   4.149   5.085   5.714  0.1189 -1.8018 -0.6574
  428SOL    HW3 1479   4.018   5.010   5.712 -0.7484 -0.3998  0.7961
  428SOL    MW4 1480   4.064   5.082   5.729  0.1357 -0.6815 -0.2343
  429SOL     OW 1481   4.019   4.886   0.482 -0.3210 -0.1709  0.0875
  429SOL    HW2 1482   4.067   4.804   0.471 -0.8096 -0.3786 -0.5140
  429SOL    HW3 1483   4.036   4.935   0.402 -1.5028 -0.4512 -0.3422
  429SOL    MW4 1484   4.028   4.881   0.470 -0.5414 -0.2353 -0.0485
  430SOL     OW 1485   0.111   0.377   1.340 -0.5086 -0.0472 -0.3966
  430SOL    HW2 1486   0.033   0.431   1.346 -0.6253 -0.2404 -0.1230
  430SOL    HW3 1487   0.122   0.341   1.428  0.1445  0.3321 -0.3166
  430SOL    MW4 1488   0.102   0.379   1.352 -0.4379 -0.0226 -0.3499
  431SOL     OW 1489   3.573   4.109   1.573 -0.6230  0.1634 -0.0449
  431SOL    HW2 1490   3.508   4.127   1.642  0.0767  1.0616  0.3957
  431SOL    HW3 1491   3.649   4.161   1.598  0.0175 -0.3233 -0.9484
  431SOL    MW4 1492   3.574   4.118   1.586 -0.4462  0.2177 -0.1059
  432SOL     OW 1493   3.966   0.457   2.519 -0.1922  0.3944 -0.2511
  432SOL    HW2 1494   3.924   0.402   2.585 -0.4432  1.0965  0.1777
  432SOL    HW3 1495   4.038   0.403   2.485 -0.6143 -0.3057 -0.0471
  432SOL    MW4 1496   3.970   0.443   2.523 -0.2810  0.3946 -0.1676
  433SOL     OW 1497   4.382   4.332   6.355  0.1157 -0.2483 -0.0297
  433SOL    HW2 1498   4.401   4.360   6.266  2.3970  0.1855  0.5243
  433SOL    HW3 1499   4.463   4.347   6.403 -0.8461 -1.0531  1.9960
  433SOL    MW4 1500   4.395   4.338   6.350  0.2898 -0.2973  0.3107
  434SOL     OW 1501   3.051   4.898   3.267  0.1493 -0.0074 -0.0291
  434SOL    HW2 1502   3.055   4.977   3.214 -0.0223  0.9430  1.3424
  434SOL    HW3 1503   3.139   4.889   3.303 -0.1436  0.2371  0.7634
  434SOL    MW4 1504   3.063   4.907   3.265  0.0880  0.1503  0.2564
  435SOL     OW 1505   4.481   3.268   0.147  0.1076  0.1728  0.0069
  435SOL    HW2 1506   4.540   3.306   0.082  0.5305  0.9190  0.8010
  435SOL    HW3 1507   4.410   3.331   0.155 -0.5529 -0.4857 -0.5818
  435SOL    MW4 1508   4.480   3.282   0.140  0.0762  0.1844  0.0340
  436SOL     OW 1509   2.141   2.675   3.975 -0.3600  0.1575  0.5425
  436SOL    HW2 1510   2.147   2.731   3.898  1.5159  0.5208  0.8983
  436SOL    HW3 1511   2.056   2.694   4.013 -0.5989  1.2378 -0.4960
  436SOL    MW4 1512   2.131   2.685   3.970 -0.1440  0.3480  0.4524
  437SOL     OW 1513   0.528   3.366   3.770  0.0787 -0.5556  0.3205
  437SOL    HW2 1514   0.497   3.411   3.848  1.9952  0.5221  0.5319
  437SOL    HW3 1515   0.493   3.417   3.697  0.1023 -0.2582  0.5165
  437SOL    MW4 1516   0.520   3.379   3.770  0.3347 -0.3741  0.3742
  438SOL     OW 1517   2.873   2.328   6.178  0.2307 -0.3075 -0.7005
  438SOL    HW2 1518   2.825   2.404   6.144  0.0448 -0.0442  0.1281
  438SOL    HW3 1519   2.873   2.265   6.105  0.7489  0.6386 -1.5473
  438SOL    MW4 1520   2.867   2.330   6.164  0.2746 -0.1479 -0.7029
  439SOL     OW 1521   3.037   1.185   0.809  0.0534  0.4266  0.1755
  439SOL    HW2 1522   3.119   1.185   0.858  0.2996 -0.3055 -0.2180
  439SOL    HW3 1523   3.062   1.212   0.721  0.0470 -0.7424 -0.1986
  439SOL    MW4 1524   3.051   1.189   0.804  0.0850  0.1758  0.0742
  440SOL     OW 1525   2.080   4.989   0.067 -0.3292 -0.1227  0.3710
  440SOL    HW2 1526   2.032   5.070   0.080  0.8440  0.4750  1.1489
  440SOL    HW3 1527   2.103   4.988  -0.026 -0.8720  0.1320  0.2358
  440SOL    MW4 1528   2.077   4.999   0.057 -0.2460 -0.0102  0.4558
  441SOL     OW 1529   2.914   0.689   0.862  0.8477 -0.8910  0.4725
  441SOL    HW2 1530   2.867   0.692   0.946  1.0639 -2.2461  0.6706
  441SOL    HW3 1531   2.891   0.771   0.819 -0.2774 -0.7211  1.3314
  441SOL    MW4 1532   2.905   0.700   0.868  0.7278 -1.0473  0.6120
  442SOL     OW 1533   3.938   4.498   2.892  0.0631 -0.2542 -0.0608
  442SOL    HW2 1534   3.947   4.577   2.944 -0.1091 -0.7561  0.7604
  442SOL    HW3 1535   3.976   4.520   2.807 -0.2380  0.7858  0.0618
  442SOL    MW4 1536   3.944   4.511   2.888  0.0006 -0.1832  0.0637
  443SOL     OW 1537   0.546   5.541   5.484  0.2559  0.0974 -0.2458
  443SOL    HW2 1538   0.569   5.634   5.493  0.4217  0.1243 -0.8904
  443SOL    HW3 1539   0.590   5.498   5.557  0.7177  0.4395 -0.3171
  443SOL    MW4 1540   0.555   5.548   5.495  0.3387  0.1461 -0.3403
  444SOL     OW 1541   1.771   3.861   0.815  0.0466  0.0659  0.4162
  444SOL    HW2 1542   1.768   3.943   0.863 -0.7206 -0.9882  2.2680
  444SOL    HW3 1543   1.681   3.829   0.815 -0.5111  0.9899 -3.6740
  444SOL    MW4 1544   1.759   3.868   0.821 -0.1282  0.0488  0.1209
  445SOL     OW 1545   0.574   6.242   1.136  0.2746 -0.2474  0.3254
  445SOL    HW2 1546   0.628   6.163   1.132  1.1547  0.1433  2.7288
  445SOL    HW3 1547   0.514   6.225   1.210 -1.5038  0.1998 -0.9481
  445SOL    MW4 1548   0.573   6.229   1.146  0.1561 -0.1368  0.4745
  446SOL     OW 1549   1.124   0.845   6.155 -0.1210 -0.4460  0.4405
  446SOL    HW2 1550   1.149   0.850   6.063 -0.5989 -0.7897  0.2884
  446SOL    HW3 1551   1.077   0.762   6.162  2.8132 -2.1226  1.6865
  446SOL    MW4 1552   1.121   0.835   6.144  0.2031 -0.7125  0.5848
  447SOL     OW 1553   0.383   3.824   0.982  0.1198 -0.0667 -0.3717
  447SOL    HW2 1554   0.475   3.833   0.958  0.3913 -2.2024 -0.2349
  447SOL    HW3 1555   0.383   3.770   1.060 -1.1437  2.0473  1.2046
  447SOL    MW4 1556   0.395   3.818   0.989 -0.0111 -0.0696 -0.1457
  448SOL     OW 1557   1.056   1.422   4.822 -0.4950 -0.2019 -0.7398
  448SOL    HW2 1558   1.055   1.496   4.882 -0.6561 -1.6802  1.1911
  448SOL    HW3 1559   1.105   1.453   4.746 -0.2962  1.7609  0.1280
  448SOL    MW4 1560   1.063   1.436   4.820 -0.4900 -0.1380 -0.3705
  449SOL     OW 1561   3.358   4.624   3.617  0.0186 -0.1273 -0.5326
  449SOL    HW2 1562   3.435   4.613   3.673  0.1402 -0.3324 -0.7387
  449SOL    HW3 1563   3.284   4.625   3.678  0.3280  2.7678 -0.0235
  449SOL    MW4 1564   3.358   4.623   3.632  0.0755  0.2276 -0.4926
  450SOL     OW 1565   1.885   0.238   5.208 -0.0063  0.4132  0.0743
  450SOL    HW2 1566   1.870   0.154   5.166  2.2624  0.4633 -0.9496
  450SOL    HW3 1567   1.959   0.223   5.266 -0.4332  1.3966  0.8985
  450SOL    MW4 1568   1.893   0.225   5.210  0.2367  0.5496  0.0480
  451SOL     OW 1569   5.232   2.036   4.929  0.2107  0.2371  0.5661
  451SOL    HW2 1570   5.209   1.971   4.863  1.2704 -0.7178  1.1004
  451SOL    HW3 1571   5.179   2.013   5.005 -2.4302  2.4667 -0.4556
  451SOL    MW4 1572   5.222   2.024   4.930  0.0021  0.4053  0.5018
  452SOL     OW 1573   5.214   3.019   4.676 -0.4665 -0.2762  0.2759
  452SOL    HW2 1574   5.167   3.103   4.682  0.5907  0.2938  0.8745
  452SOL    HW3 1575   5.306   3.044   4.673 -0.0256 -1.4767  2.1483
  452SOL    MW4 1576   5.220   3.034   4.676 -0.2688 -0.3594  0.6019
  453SOL     OW 1577   0.043   1.413   5.531 -0.5777  0.0771 -0.2053
  453SOL    HW2 1578   0.006   1.500   5.522 -0.0395  0.4263  0.8488
  453SOL    HW3 1579   0.063   1.404   5.624  0.7007 -0.6249 -0.5230
  453SOL    MW4 1580   0.041   1.423   5.542 -0.3380  0.0306 -0.1081
  454SOL     OW 1581   1.247   3.071   2.623 -0.3701 -0.5808 -0.0820
  454SOL    HW2 1582   1.209   3.134   2.563 -1.5992 -0.2321  1.0040
  454SOL    HW3 1583   1.242   2.987   2.577 -3.2706 -0.7144  0.2425
  454SOL    MW4 1584   1.241   3.068   2.609 -0.9150 -0.5524  0.1041
  455SOL     OW 1585   5.491   3.400   0.054 -0.2966 -0.2480  0.0049
  455SOL    HW2 1586   5.509   3.386   0.147 -0.1480 -1.0924 -0.1442
  455SOL    HW3 1587   5.546   3.336   0.009 -0.4898  0.0427 -0.6584
  455SOL    MW4 1588   5.501   3.390   0.060 -0.3025 -0.3211 -0.1023
  456SOL     OW 1589   5.018   4.041   4.974 -0.6740 -0.4670  0.0097
  456SOL    HW2 1590   5.016   4.137   4.970  1.6227 -0.3620  0.0338
  456SOL    HW3 1591   5.014   4.013   4.883 -1.4314 -0.3684  0.0068
  456SOL    MW4 1592   5.017   4.050   4.962 -0.4709 -0.4401  0.0125
  457SOL     OW 1593   3.916   2.381   0.535  0.0753 -0.4790  0.2496
  457SOL    HW2 1594   3.994   2.382   0.591 -0.5986 -1.5972  1.2467
  457SOL    HW3 1595   3.948   2.407   0.449  1.2815  0.5184  0.9648
  457SOL    MW4 1596   3.930   2.385   0.531  0.1455 -0.4949  0.4755
  458SOL     OW 1597   1.811   0.011   0.720  0.2872 -0.6522  0.5670
  458SOL    HW2 1598   1.847   0.091   0.757  1.0064 -0.8734  0.3582
  458SOL    HW3 1599   1.882  -0.052   0.725 -0.4731 -1.4909  1.3728
  458SOL    MW4 1600   1.825   0.013   0.726  0.2818 -0.7920  0.6458
  459SOL     OW 1601   4.022   5.263   3.017  0.0010 -0.5117 -0.0059
  459SOL    HW2 1602   4.116   5.281   3.019 -0.2194  0.7541  2.1222
  459SOL    HW3 1603   3.986   5.328   2.957  0.2335  0.5976  1.0266
  459SOL    MW4 1604   4.030   5.274   3.009  0.0026 -0.1984  0.4111
  460SOL     OW 1605   2.204   0.331   5.914  0.1274 -0.4686  0.6063
  460SOL    HW2 1606   2.292   0.367   5.925  0.4066 -0.7046 -0.6545
  460SOL    HW3 1607   2.209   0.243   5.951  0.0228  0.0140  1.8001
  460SOL    MW4 1608   2.216   0.324   5.920  0.1504 -0.4360  0.5975
  461SOL     OW 1609   5.958   3.876   6.090 -0.6603 -0.1772 -0.1389
  461SOL    HW2 1610   6.035   3.899   6.142 -0.3569 -0.5293 -0.4238
  461SOL    HW3 1611   5.994   3.836   6.011 -1.1543 -1.0740  0.0782
  461SOL    MW4 1612   5.973   3.874   6.086 -0.6855 -0.3419 -0.1479
  462SOL     OW 1613   5.646   1.565   1.075 -0.1004  0.4631  0.7197
  462SOL    HW2 1614   5.640   1.572   1.170  2.8403  0.4515  0.9923
  462SOL    HW3 1615   5.627   1.654   1.043  0.8516  0.9773  1.5076
  462SOL    MW4 1616   5.643   1.578   1.083  0.4132  0.5294  0.8596
  463SOL     OW 1617   3.203   5.335   5.604 -0.3081 -0.5042 -0.1676
  463SOL    HW2 1618   3.153   5.351   5.685 -0.0315 -1.3917  0.1934
  463SOL    HW3 1619   3.192   5.241   5.588 -0.2669 -0.3548 -1.1052
  463SOL    MW4 1620   3.195   5.325   5.613 -0.2662 -0.6016 -0.2437
  464SOL     OW 1621   5.968   2.561   3.372 -0.1161  0.1588  0.1548
  464SOL    HW2 1622   5.958   2.510   3.452  0.8680 -0.8507 -0.3355
  464SOL    HW3 1623   5.897   2.530   3.315  0.1198 -0.2481  0.0782
  464SOL    MW4 1624   5.957   2.550   3.375  0.0448 -0.0280  0.0800
  465SOL     OW 1625   3.471   4.183   4.105 -0.3334  0.1869 -0.2212
  465SOL    HW2 1626   3.446   4.200   4.014  0.0168  1.1904 -0.1412
  465SOL    HW3 1627   3.566   4.197   4.107 -0.4220  0.7603  0.4128
  465SOL    MW4 1628   3.480   4.188   4.093 -0.2989  0.3950 -0.1270
  466SOL     OW 1629   1.676   3.664   1.464 -0.1258  0.3384  0.5531
  466SOL    HW2 1630   1.722   3.608   1.402  0.0516 -0.8381  1.7205
  466SOL    HW3 1631   1.725   3.747   1.463 -1.4174  1.2120 -2.5141
  466SOL    MW4 1632   1.688   3.668   1.456 -0.2728  0.2985  0.3024
  467SOL     OW 1633   5.082   0.519   5.736 -0.1139  0.3349 -0.1080
  467SOL    HW2 1634   5.061   0.605   5.701  1.7756  1.4832  1.3863
  467SOL    HW3 1635   5.176   0.508   5.719 -0.3848 -1.6110 -0.5878
  467SOL    MW4 1636   5.092   0.529   5.729  0.0997  0.2297  0.0258
  468SOL     OW 1637   1.920   1.828   5.211  0.2640  0.4241 -0.3897
  468SOL    HW2 1638   1.870   1.758   5.253 -0.0218  0.5342 -0.5453
  468SOL    HW3 1639   1.882   1.837   5.124  1.1033 -0.0600 -0.8144
  468SOL    MW4 1640   1.908   1.820   5.205  0.3371  0.3748 -0.4662
  469SOL     OW 1641   1.266   5.796   2.428 -0.4101 -0.0230 -0.0936
  469SOL    HW2 1642   1.343   5.851   2.443  1.0611 -1.7077 -0.9952
  469SOL    HW3 1643   1.282   5.718   2.482 -2.8526  0.6938  1.8373
  469SOL    MW4 1644   1.279   5.793   2.437 -0.5383 -0.1507  0.0422
  470SOL     OW 1645   2.392   5.301   4.783 -0.0326  0.6058 -0.0695
  470SOL    HW2 1646   2.348   5.332   4.704  1.3740 -0.9291 -1.5220
  470SOL    HW3 1647   2.465   5.249   4.752  0.8096  0.2466  2.2674
  470SOL    MW4 1648   2.396   5.298   4.769  0.2641  0.3559  0.0472
  471SOL     OW 1649   5.759   4.498   1.555  0.2236 -0.1373  0.0936
  471SOL    HW2 1650   5.710   4.416   1.559 -0.7497  0.4534  1.1857
  471SOL    HW3 1651   5.691   4.566   1.556  0.9488  0.6956 -2.1363
  471SOL    MW4 1652   5.743   4.496   1.556  0.1909  0.0506 -0.0565
  472SOL     OW 1653   0.310   4.026   5.881  0.0327  0.1357 -0.3445
  472SOL    HW2 1654   0.220   4.041   5.913  0.4622  1.5999  0.2540
  472SOL    HW3 1655   0.298   3.973   5.802 -1.3332 -0.0928 -0.0224
  472SOL    MW4 1656   0.296   4.021   5.875 -0.0908  0.2988 -0.2231
  473SOL     OW 1657   2.179   1.465   4.214  0.5851  0.0852 -0.1936
  473SOL    HW2 1658   2.101   1.495   4.262  0.9757  0.7384  0.0420
  473SOL    HW3 1659   2.145   1.430   4.132  0.1550  1.6899 -0.7316
  473SOL    MW4 1660   2.164   1.464   4.210  0.5799  0.3831 -0.2335
  474SOL     OW 1661   6.097   2.236   3.103 -0.4107  0.5687  0.1192
  474SOL    HW2 1662   6.044   2.270   3.031 -0.4603 -1.6096 -0.9587
  474SOL    HW3 1663   6.119   2.147   3.076 -0.8378 -0.5135  3.0432
  474SOL    MW4 1664   6.093   2.229   3.090 -0.4736  0.1385  0.3628
  475SOL     OW 1665   6.258   4.114   4.489  0.0972 -0.5433  0.0048
  475SOL    HW2 1666   6.217   4.038   4.531 -0.2257 -0.4785 -0.1924
  475SOL    HW3 1667   6.237   4.104   4.396 -1.0682  0.4872  0.1410
  475SOL    MW4 1668   6.250   4.103   4.482 -0.0992 -0.3988 -0.0032
  476SOL     OW 1669   2.832   0.482   3.321  0.2062 -1.0873 -0.0293
  476SOL    HW2 1670   2.896   0.534   3.271  0.4952 -0.6900  0.7247
  476SOL    HW3 1671   2.868   0.394   3.322  0.1165 -1.1330 -0.6522
  476SOL    MW4 1672   2.845   0.477   3.315  0.2325 -1.0409 -0.0120
  477SOL     OW 1673   4.189   3.104   0.175 -0.1060 -0.7755 -0.6636
  477SOL    HW2 1674   4.164   3.143   0.091  0.9057 -1.2005 -1.1733
  477SOL    HW3 1675   4.149   3.161   0.241  0.8282  0.7830 -1.3945
  477SOL    MW4 1676   4.180   3.117   0.173  0.1507 -0.6260 -0.8272
  478SOL     OW 1677   2.290   2.297   0.618  0.4195 -0.0658 -0.1505
  478SOL    HW2 1678   2.331   2.232   0.561  0.4076  1.1022 -1.5677
  478SOL    HW3 1679   2.358   2.364   0.629 -0.1044  0.4558 -0.0709
  478SOL    MW4 1680   2.304   2.298   0.612  0.3488  0.1571 -0.3270
  479SOL     OW 1681   6.125   5.377   2.626  0.0073  0.0872 -0.1494
  479SOL    HW2 1682   6.114   5.321   2.703  1.0842 -2.6678 -1.8562
  479SOL    HW3 1683   6.138   5.316   2.554  2.2094  2.5811 -2.0452
  479SOL    MW4 1684   6.125   5.362   2.627  0.4399  0.0527 -0.6248
  480SOL     OW 1685   4.065   0.736   1.616 -0.7542 -0.1861  0.2496
  480SOL    HW2 1686   4.112   0.679   1.555 -0.8431  1.3383 -1.3132
  480SOL    HW3 1687   3.983   0.758   1.572  0.0638  2.6141 -0.0895
  480SOL    MW4 1688   4.061   0.732   1.602 -0.6580  0.3845 -0.0014
  481SOL     OW 1689   1.854   2.377   2.363  0.7703 -0.8164 -0.0512
  481SOL    HW2 1690   1.766   2.342   2.347  0.6939 -1.0552  0.8514
  481SOL    HW3 1691   1.847   2.423   2.447  2.1637 -3.2311  1.5180
  481SOL    MW4 1692   1.841   2.379   2.372  0.9441 -1.1665  0.2749
  482SOL     OW 1693   3.103   5.678   0.314 -0.3265  0.3379  0.8276
  482SOL    HW2 1694   3.168   5.714   0.253 -0.0249  2.9566  2.5552
  482SOL    HW3 1695   3.021   5.683   0.266  0.0309  1.5432  0.2863
  482SOL    MW4 1696   3.101   5.683   0.300 -0.2396  0.8424  0.9842
  483SOL     OW 1697   4.738   5.966   0.088  0.3259 -0.1875  0.1702
  483SOL    HW2 1698   4.705   5.878   0.104  1.0118 -0.7933 -1.4994
  483SOL    HW3 1699   4.728   5.978  -0.006  0.9433  1.2352  0.2650
  483SOL    MW4 1700   4.732   5.956   0.078  0.4978 -0.0797 -0.0376
  484SOL     OW 1701   4.533   1.682   5.630 -0.3488 -0.0303  0.1032
  484SOL    HW2 1702   4.566   1.652   5.545  1.6018 -0.4629  0.9729
  484SOL    HW3 1703   4.500   1.770   5.612  0.4378  0.0665 -1.0302
  484SOL    MW4 1704   4.533   1.690   5.616  0.0123 -0.0746  0.0684
  485SOL     OW 1705   4.249   2.175   3.728  0.3127 -0.0544  0.1440
  485SOL    HW2 1706   4.288   2.145   3.810  1.6725 -0.5533 -0.6608
  485SOL    HW3 1707   4.223   2.095   3.683 -0.2475  0.2110 -0.0104
  485SOL    MW4 1708   4.250   2.161   3.733  0.4182 -0.0852  0.0174
  486SOL     OW 1709   4.412   0.137   2.189 -0.1618 -0.1261  0.4873
  486SOL    HW2 1710   4.414   0.221   2.236 -0.2418 -0.0416  0.3404
  486SOL    HW3 1711   4.480   0.145   2.123 -0.1226 -0.2046  0.5182
  486SOL    MW4 1712   4.421   0.149   2.187 -0.1672 -0.1253  0.4720
  487SOL     OW 1713   3.244   6.090   0.494  0.1785 -0.0987 -0.1393
  487SOL    HW2 1714   3.266   6.129   0.578  0.1483  0.6324 -0.4594
  487SOL    HW3 1715   3.218   6.001   0.514 -1.0435  0.4394  0.7692
  487SOL    MW4 1716   3.244   6.084   0.508  0.0133  0.0687 -0.0617
  488SOL     OW 1717   5.920   1.541   2.566 -0.3756  0.0826  0.2470
  488SOL    HW2 1718   5.921   1.622   2.516  0.6949  0.2171  0.4761
  488SOL    HW3 1719   5.926   1.472   2.500  0.1641  0.2324  0.1362
  488SOL    MW4 1720   5.921   1.543   2.551 -0.1631  0.1201  0.2626
  489SOL     OW 1721   6.118   3.427   0.436 -0.2778  0.0949  0.9862
  489SOL    HW2 1722   6.075   3.383   0.509 -0.6028 -1.9636 -0.3669
  489SOL    HW3 1723   6.191   3.369   0.414 -0.4978  0.3986 -0.6329
  489SOL    MW4 1724   6.122   3.413   0.443 -0.3497 -0.1367  0.5941
  490SOL     OW 1725   2.465   2.765   3.894 -0.8318  0.3637 -0.4862
  490SOL    HW2 1726   2.547   2.781   3.941 -1.6997  0.8434  0.9181
  490SOL    HW3 1727   2.486   2.695   3.832  0.4517 -0.0117  0.3428
  490SOL    MW4 1728   2.478   2.758   3.892 -0.7770  0.3774 -0.1915
  491SOL     OW 1729   6.051   6.139   3.669 -0.0381  0.3013 -0.0222
  491SOL    HW2 1730   6.000   6.157   3.590  0.3849 -0.1288 -0.3942
  491SOL    HW3 1731   6.091   6.054   3.653  1.3776  0.9495 -0.0313
  491SOL    MW4 1732   6.049   6.130   3.657  0.2045  0.3301 -0.0725
  492SOL     OW 1733   2.721   2.320   0.675  0.5664  0.0278  0.2740
  492SOL    HW2 1734   2.703   2.237   0.719  1.2278 -0.8177 -0.9596
  492SOL    HW3 1735   2.648   2.377   0.699 -1.0753 -1.6224 -0.5604
  492SOL    MW4 1736   2.709   2.316   0.684  0.4370 -0.3015  0.0012
  493SOL     OW 1737   3.282   2.492   2.025  0.3548  0.4452 -0.5348
  493SOL    HW2 1738   3.258   2.574   2.068 -0.3884  1.1060 -2.1014
  493SOL    HW3 1739   3.257   2.505   1.933  0.0608 -1.6043 -0.8044
  493SOL    MW4 1740   3.276   2.504   2.018  0.2180  0.2620 -0.7771
  494SOL     OW 1741   6.199   0.619   0.701  0.0470 -0.1405  0.2500
  494SOL    HW2 1742   6.291   0.610   0.675 -0.5145 -1.5265 -1.4316
  494SOL    HW3 1743   6.155   0.648   0.622 -1.3587 -2.0115  0.2969
  494SOL    MW4 1744   6.205   0.622   0.687 -0.2126 -0.5702  0.0343
  495SOL     OW 1745   0.450   1.381   0.557  0.7296  0.4625 -0.0810
  495SOL    HW2 1746   0.506   1.445   0.601 -0.3540  2.1920 -1.1170
  495SOL    HW3 1747   0.362   1.401   0.588  0.1334  0.7443 -1.8705
  495SOL    MW4 1748   0.446   1.392   0.567  0.5080  0.7279 -0.4538
  496SOL     OW 1749   0.639   3.870   1.183  0.4248  0.5548 -0.1712
  496SOL    HW2 1750   0.657   3.854   1.090 -0.8287 -0.2151 -0.3194
  496SOL    HW3 1751   0.564   3.813   1.202  0.3932  1.0261  1.2068
  496SOL    MW4 1752   0.631   3.860   1.173  0.2552  0.5154 -0.0089
  497SOL     OW 1753   1.887   3.326   2.418 -0.2030  0.4363 -0.0788
  497SOL    HW2 1754   1.956   3.375   2.463  0.8650 -1.5630  0.5535
  497SOL    HW3 1755   1.811   3.332   2.477 -0.4850  2.2635 -0.5697
  497SOL    MW4 1756   1.886   3.333   2.432 -0.0993  0.4136 -0.0601
  498SOL     OW 1757   4.050   1.627   3.113 -0.1553 -0.0697  0.0907
  498SOL    HW2 1758   4.005   1.587   3.188  1.6777  0.2719  1.4365
  498SOL    HW3 1759   4.053   1.557   3.048 -1.4117 -0.5161  0.4773
  498SOL    MW4 1760   4.044   1.612   3.115 -0.0793 -0.0836  0.3193
  499SOL     OW 1761   2.761   5.749   3.334  0.5192  0.0591 -0.0777
  499SOL    HW2 1762   2.817   5.714   3.404 -0.2824 -1.1192 -0.0140
  499SOL    HW3 1763   2.795   5.838   3.319  2.2130 -0.5000  0.1745
  499SOL    MW4 1764   2.773   5.756   3.341  0.6369 -0.1701 -0.0360
  500SOL     OW 1765   2.478   5.249   5.798 -0.6009 -0.0982  0.4947
  500SOL    HW2 1766   2.559   5.203   5.774 -0.0115 -0.2001  2.4773
  500SOL    HW3 1767   2.437   5.270   5.714  0.7425 -1.3438 -0.5407
  500SOL    MW4 1768   2.483   5.245   5.784 -0.3459 -0.2760  0.6197
  501SOL     OW 1769   3.632   2.842   4.808 -0.3948  0.1383  0.2854
  501SOL    HW2 1770   3.549   2.871   4.772 -0.8465  0.0378  1.2067
  501SOL    HW3 1771   3.643   2.752   4.775 -1.3676 -0.3733  1.2874
  501SOL    MW4 1772   3.623   2.834   4.799 -0.5828  0.0576  0.5392
  502SOL     OW 1773   0.319   4.441   4.669  0.0456  0.1516 -0.6114
  502SOL    HW2 1774   0.245   4.399   4.714  1.4809 -2.4222 -0.4745
  502SOL    HW3 1775   0.286   4.460   4.581 -0.8244 -0.8621 -0.5238
  502SOL    MW4 1776   0.305   4.438   4.663  0.1202 -0.3217 -0.5818
  503SOL     OW 1777   5.328   5.390   3.450  0.8126  0.2825  0.4753
  503SOL    HW2 1778   5.330   5.343   3.366  1.0197  1.3569 -0.1399
  503SOL    HW3 1779   5.296   5.325   3.513  0.4583 -0.4862 -0.4674
  503SOL    MW4 1780   5.324   5.375   3.447  0.7932  0.3228  0.2697
  504SOL     OW 1781   5.148   3.769   3.919 -0.1595  0.2682  0.0320
  504SOL    HW2 1782   5.067   3.813   3.892 -1.5282 -0.1602  3.0487
  504SOL    HW3 1783   5.151   3.689   3.866 -0.9338  0.9750 -1.1178
  504SOL    MW4 1784   5.138   3.764   3.908 -0.4422  0.3049  0.2783
  505SOL     OW 1785   1.963   1.509   3.187 -0.2139 -0.8091  0.1964
  505SOL    HW2 1786   2.000   1.568   3.122 -2.2690  1.1737  0.7126
  505SOL    HW3 1787   1.928   1.436   3.137 -0.3909 -0.0708 -0.7717
  505SOL    MW4 1788   1.963   1.507   3.172 -0.5084 -0.4501  0.1368
  506SOL     OW 1789   0.718   3.122   2.091 -0.0891 -0.1001 -0.2893
  506SOL    HW2 1790   0.711   3.027   2.080 -1.6745  0.0587 -0.8427
  506SOL    HW3 1791   0.677   3.140   2.175 -1.8889  0.3091 -1.2122
  506SOL    MW4 1792   0.712   3.112   2.100 -0.5357 -0.0252 -0.4841
  507SOL     OW 1793   3.829   3.205   5.353 -0.6704 -0.1422  0.1331
  507SOL    HW2 1794   3.784   3.196   5.269  2.1571  0.4277 -1.5812
  507SOL    HW3 1795   3.896   3.272   5.338  0.3590 -0.4857  2.6438
  507SOL    MW4 1796   3.832   3.212   5.340 -0.1616 -0.1123  0.2382
  508SOL     OW 1797   3.536   3.806   3.160 -0.7820  0.0789  0.2179
  508SOL    HW2 1798   3.550   3.754   3.081 -0.2331 -0.0854  0.4215
  508SOL    HW3 1799   3.604   3.872   3.159  0.1187 -0.7800  1.2520
  508SOL    MW4 1800   3.547   3.808   3.149 -0.5908 -0.0561  0.3812
  509SOL     OW 1801   3.580   6.356   5.097 -0.2198 -0.1681 -0.0047
  509SOL    HW2 1802   3.619   6.274   5.129 -0.2000 -0.2912 -0.3405
  509SOL    HW3 1803   3.496   6.329   5.059 -0.3939  0.0238  0.2356
  509SOL    MW4 1804   3.574   6.342   5.096 -0.2402 -0.1590 -0.0173
  510SOL     OW 1805   1.541   4.977   2.834  0.3346  0.5660 -0.4318
  510SOL    HW2 1806   1.531   4.884   2.853  1.4331  0.8186  1.8116
  510SOL    HW3 1807   1.533   4.984   2.739 -3.6302 -1.2656 -0.4275
  510SOL    MW4 1808   1.538   4.966   2.824 -0.0436  0.3577 -0.1352
  511SOL     OW 1809   0.757   1.688   5.654  0.0660 -0.0956 -0.1291
  511SOL    HW2 1810   0.757   1.593   5.664  0.2835  0.0382  1.4774
  511SOL    HW3 1811   0.802   1.720   5.732 -2.3031  1.4428  0.7021
  511SOL    MW4 1812   0.763   1.680   5.666 -0.2179  0.1250  0.1925
  512SOL     OW 1813   3.804   0.459   3.762  0.2291 -0.2475  0.0709
  512SOL    HW2 1814   3.732   0.502   3.716  0.5148 -0.2855 -0.4244
  512SOL    HW3 1815   3.881   0.510   3.739  0.3784 -0.2748  0.5091
  512SOL    MW4 1816   3.804   0.471   3.753  0.2864 -0.2561  0.0633
  513SOL     OW 1817   4.344   4.288   5.049  0.3368  0.3426 -0.0387
  513SOL    HW2 1818   4.314   4.226   4.983 -0.6961  0.6578  0.1107
  513SOL    HW3 1819   4.438   4.271   5.059  0.5785  0.4957 -1.7989
  513SOL    MW4 1820   4.352   4.278   5.042  0.2324  0.4044 -0.2512
  514SOL     OW 1821   2.562   5.580   3.988  0.1152  0.3066 -0.0491
  514SOL    HW2 1822   2.486   5.528   4.013  1.0119 -0.2998  1.6148
  514SOL    HW3 1823   2.575   5.640   4.061 -0.3593  2.3190 -1.5387
  514SOL    MW4 1824   2.554   5.581   4.001  0.1709  0.4921 -0.0261
  515SOL     OW 1825   5.176   4.498   2.645  0.3515  0.3225 -0.0416
  515SOL    HW2 1826   5.182   4.420   2.589 -0.8527  0.5660 -0.5390
  515SOL    HW3 1827   5.264   4.507   2.682  1.1344  0.0251 -1.7165
  515SOL    MW4 1828   5.189   4.489   2.642  0.2959  0.3154 -0.3282
  516SOL     OW 1829   2.238   3.207   3.535 -0.1683 -0.0333  0.3397
  516SOL    HW2 1830   2.326   3.172   3.520 -1.1592 -2.7052  0.1439
  516SOL    HW3 1831   2.230   3.211   3.630 -0.0629 -0.4232  0.3654
  516SOL    MW4 1832   2.248   3.203   3.546 -0.2852 -0.4373  0.3172
  517SOL     OW 1833   5.410   0.785   3.590 -0.4472 -0.1041  0.1527
  517SOL    HW2 1834   5.442   0.875   3.588 -1.3387  0.2498  1.0103
  517SOL    HW3 1835   5.322   0.790   3.553 -0.1464 -0.7887 -0.6710
  517SOL    MW4 1836   5.402   0.798   3.585 -0.5251 -0.1477  0.1571
  518SOL     OW 1837   3.487   4.238   0.483  0.2802  0.2600 -0.2016
  518SOL    HW2 1838   3.565   4.288   0.505  0.2540  0.7280 -1.0975
  518SOL    HW3 1839   3.448   4.215   0.567  1.0223  0.5873  0.2445
  518SOL    MW4 1840   3.492   4.242   0.497  0.3746  0.3649 -0.2610
  519SOL     OW 1841   5.881   2.779   0.616  0.0313  0.0762  0.0480
  519SOL    HW2 1842   5.816   2.720   0.579  0.8816  0.0279 -1.4706
  519SOL    HW3 1843   5.930   2.725   0.678  0.1625 -0.5761 -0.5974
  519SOL    MW4 1844   5.879   2.764   0.619  0.1608 -0.0162 -0.2375
  520SOL     OW 1845   5.656   5.367   4.985  0.0149 -0.0778 -1.2411
  520SOL    HW2 1846   5.699   5.441   4.943  0.4896  0.6228  0.4153
  520SOL    HW3 1847   5.640   5.305   4.914 -2.4501  2.5035 -3.1153
  520SOL    MW4 1848   5.660   5.369   4.970 -0.2477  0.3552 -1.2699
  521SOL     OW 1849   4.886   3.351   4.627  0.2794 -0.4524 -0.1589
  521SOL    HW2 1850   4.821   3.294   4.587 -0.5426 -0.6509  1.3943
  521SOL    HW3 1851   4.895   3.424   4.566 -0.6030 -0.9463 -0.8996
  521SOL    MW4 1852   4.879   3.353   4.614  0.0546 -0.5437 -0.0517
  522SOL     OW 1853   5.503   2.743   0.251 -0.2024  0.7569  0.0016
  522SOL    HW2 1854   5.429   2.731   0.192 -0.5525  0.6035  0.4591
  522SOL    HW3 1855   5.554   2.814   0.213 -1.1720  1.6068  0.2380
  522SOL    MW4 1856   5.500   2.751   0.238 -0.3765  0.8488  0.0932
  523SOL     OW 1857   4.109   4.078   0.913  0.0615 -0.2732  0.1614
  523SOL    HW2 1858   4.166   4.028   0.972  0.2957  1.0283  1.0749
  523SOL    HW3 1859   4.097   4.020   0.838 -0.8067 -2.3017  1.7523
  523SOL    MW4 1860   4.115   4.064   0.911 -0.0222 -0.3691  0.4918
  524SOL     OW 1861   1.782   4.892   2.515  0.5027  0.0701 -0.1333
  524SOL    HW2 1862   1.796   4.862   2.425 -0.5935 -0.2882 -0.1969
  524SOL    HW3 1863   1.853   4.955   2.530 -0.4259  1.6525 -1.9543
  524SOL    MW4 1864   1.793   4.897   2.505  0.2356  0.2316 -0.3819
  525SOL     OW 1865   4.166   6.101   1.206 -0.0688 -0.3334  0.0130
  525SOL    HW2 1866   4.072   6.098   1.188 -0.3762  2.3415  0.7724
  525SOL    HW3 1867   4.176   6.053   1.288 -0.7089 -0.9100 -0.2392
  525SOL    MW4 1868   4.155   6.094   1.215 -0.1938 -0.0566  0.0799
  526SOL     OW 1869   1.246   0.504   4.300  0.0131 -0.1979  0.4825
  526SOL    HW2 1870   1.323   0.491   4.245  0.4567 -0.1122  1.0664
  526SOL    HW3 1871   1.186   0.554   4.246  1.1628  1.4724  0.6630
  526SOL    MW4 1872   1.248   0.509   4.286  0.2233  0.0338  0.5834
  527SOL     OW 1873   1.801   4.845   0.556  0.0626 -0.3806 -0.2873
  527SOL    HW2 1874   1.777   4.858   0.464 -1.3652 -1.5499 -0.1321
  527SOL    HW3 1875   1.868   4.778   0.555 -1.1583 -1.6496 -0.4269
  527SOL    MW4 1876   1.806   4.838   0.544 -0.2869 -0.7023 -0.2853
  528SOL     OW 1877   5.233   0.680   0.490 -0.1555  0.4209 -0.3569
  528SOL    HW2 1878   5.318   0.693   0.531 -0.9328  0.8112  1.2087
  528SOL    HW3 1879   5.228   0.586   0.474  0.4237  0.3438 -0.1105
  528SOL    MW4 1880   5.244   0.669   0.493 -0.1817  0.4622 -0.1178
  529SOL     OW 1881   3.724   0.843   5.026  0.0373 -0.1010 -0.1411
  529SOL    HW2 1882   3.676   0.863   4.945 -0.6019 -0.8587  0.0308
  529SOL    HW3 1883   3.811   0.816   4.996 -0.0896 -0.0596 -0.5601
  529SOL    MW4 1884   3.729   0.842   5.011 -0.0638 -0.1955 -0.1737
  530SOL     OW 1885   3.472   0.959   4.166  0.0214 -0.0675 -0.0614
  530SOL    HW2 1886   3.414   1.020   4.212  1.2298  2.2013 -1.3384
  530SOL    HW3 1887   3.449   0.969   4.074  0.9039 -0.8402 -0.3758
  530SOL    MW4 1888   3.461   0.968   4.160  0.2972  0.1299 -0.2714
  531SOL     OW 1889   4.002   3.343   5.686 -0.1282 -0.2750 -0.2481
  531SOL    HW2 1890   4.005   3.415   5.749 -1.1363 -0.5795  0.1567
  531SOL    HW3 1891   4.007   3.386   5.600  0.8766  0.1642  0.0157
  531SOL    MW4 1892   4.003   3.358   5.683 -0.1287 -0.2572 -0.1599
  532SOL     OW 1893   2.670   0.826   4.599 -0.0066  0.9936 -0.1039
  532SOL    HW2 1894   2.644   0.862   4.684 -2.9559  1.0744 -0.9114
  532SOL    HW3 1895   2.720   0.896   4.557  2.2074  0.6588  1.7842
  532SOL    MW4 1896   2.673   0.840   4.604 -0.1036  0.9601  0.0387
  533SOL     OW 1897   1.936   4.782   1.472  0.1649 -0.2095 -0.1120
  533SOL    HW2 1898   1.877   4.855   1.453 -0.9721 -1.6732 -2.6037
  533SOL    HW3 1899   1.880   4.715   1.511  1.1279  0.0154  1.7841
  533SOL    MW4 1900   1.921   4.783   1.475  0.1420 -0.3729 -0.1906
  534SOL     OW 1901   3.740   2.355   1.263  0.4926 -0.5472 -0.1031
  534SOL    HW2 1902   3.690   2.343   1.343 -0.5841  1.1198 -0.4714
  534SOL    HW3 1903   3.809   2.417   1.287 -0.1380  0.3591 -0.5404
  534SOL    MW4 1904   3.743   2.362   1.276  0.2673 -0.2077 -0.2094
  535SOL     OW 1905   3.166   6.043   3.914 -0.2793  0.1644  0.1257
  535SOL    HW2 1906   3.167   5.948   3.911  0.1649  0.0966  1.4941
  535SOL    HW3 1907   3.162   6.071   3.823  1.3227 -1.1519 -0.3874
  535SOL    MW4 1908   3.166   6.034   3.902 -0.0093 -0.0182  0.2385
  536SOL     OW 1909   1.539   6.206   5.510  0.0610  0.4022 -0.2225
  536SOL    HW2 1910   1.627   6.242   5.504 -0.2078  1.2247  0.6043
  536SOL    HW3 1911   1.539   6.157   5.592 -0.4413  0.9592  0.1184
  536SOL    MW4 1912   1.551   6.204   5.520 -0.0408  0.5842 -0.0684
  537SOL     OW 1913   6.110   1.877   5.233  0.2648 -0.6077  0.2719
  537SOL    HW2 1914   6.166   1.855   5.159  0.1892  0.8930 -0.2657
  537SOL    HW3 1915   6.140   1.820   5.304  1.5281 -0.8134 -0.3996
  537SOL    MW4 1916   6.121   1.866   5.233  0.4215 -0.4368  0.1123
  538SOL     OW 1917   2.204   4.435   2.103  0.4008  0.2045 -0.3199
  538SOL    HW2 1918   2.230   4.413   2.192  1.8694  0.9886 -0.5288
  538SOL    HW3 1919   2.196   4.531   2.103 -2.3019  0.0613 -0.3605
  538SOL    MW4 1920   2.207   4.445   2.115  0.2380  0.2891 -0.3528
  539SOL     OW 1921   3.875   5.897   0.630 -0.2890  0.2855  0.3585
  539SOL    HW2 1922   3.822   5.914   0.708  0.2080  0.7668  0.5924
  539SOL    HW3 1923   3.818   5.844   0.574  0.3537 -2.7251  2.3132
  539SOL    MW4 1924   3.860   5.892   0.633 -0.1386 -0.0482  0.6473
  540SOL     OW 1925   2.559   5.440   0.263 -0.2432 -0.2758  0.8013
  540SOL    HW2 1926   2.489   5.377   0.281 -0.4891 -0.2085  0.1381
  540SOL    HW3 1927   2.604   5.451   0.346 -0.9144 -0.4541  1.1975
  540SOL    MW4 1928   2.556   5.433   0.276 -0.3642 -0.2905  0.7660
  541SOL     OW 1929   1.156   1.996   1.715  0.5910  0.2249 -0.7302
  541SOL    HW2 1930   1.145   2.006   1.810 -0.2871 -1.3085 -0.6384
  541SOL    HW3 1931   1.100   2.065   1.678  0.4387  0.4299 -0.1405
  541SOL    MW4 1932   1.147   2.007   1.723  0.4551  0.0497 -0.6403
  542SOL     OW 1933   0.936   6.031   5.015  0.8802 -0.0934  0.0093
  542SOL    HW2 1934   0.858   5.981   5.037  0.6414  0.3857  0.2630
  542SOL    HW3 1935   0.928   6.051   4.922  0.5108  0.2781  0.1178
  542SOL    MW4 1936   0.925   6.027   5.006  0.8000  0.0188  0.0571
  543SOL     OW 1937   6.002   5.629   2.804 -0.1423 -0.0758  0.1650
  543SOL    HW2 1938   5.941   5.556   2.805  0.7937 -0.9096  2.3399
  543SOL    HW3 1939   6.057   5.614   2.726 -0.0402 -1.6403  0.5087
  543SOL    MW4 1940   6.002   5.618   2.794 -0.0054 -0.3922  0.4973
  544SOL     OW 1941   5.118   0.768   0.244 -0.1572 -0.0843  0.1180
  544SOL    HW2 1942   5.163   0.726   0.318  1.2032 -0.6890 -1.0022
  544SOL    HW3 1943   5.112   0.699   0.178  0.3129  0.9362 -1.0250
  544SOL    MW4 1944   5.123   0.753   0.245  0.0843 -0.0294 -0.1806
  545SOL     OW 1945   4.030   5.221   0.581  0.1865 -0.5088 -0.0258
  545SOL    HW2 1946   4.062   5.132   0.595  0.7878 -0.1843  0.8038
  545SOL    HW3 1947   4.020   5.229   0.486 -1.0110 -1.8273 -0.0432
  545SOL    MW4 1948   4.033   5.210   0.570  0.1078 -0.6399  0.0814
  546SOL     OW 1949   2.137   3.864   3.081 -0.4765 -0.2542 -0.2625
  546SOL    HW2 1950   2.064   3.850   3.141 -0.9024 -1.3726 -0.9981
  546SOL    HW3 1951   2.107   3.828   2.998  0.4061  0.5163 -0.9357
  546SOL    MW4 1952   2.124   3.857   3.078 -0.4162 -0.3001 -0.4484
  547SOL     OW 1953   5.320   5.625   0.714  0.1386 -0.7096 -0.1846
  547SOL    HW2 1954   5.258   5.600   0.783  0.0600  0.7871  0.3177
  547SOL    HW3 1955   5.266   5.667   0.648  0.5510  0.1868  0.0420
  547SOL    MW4 1956   5.305   5.627   0.715  0.1826 -0.3938 -0.0884
  548SOL     OW 1957   3.831   4.277   0.417  0.2644 -0.2097 -0.5731
  548SOL    HW2 1958   3.809   4.263   0.509 -2.2515 -0.6617 -1.1528
  548SOL    HW3 1959   3.783   4.356   0.392  1.1314  0.0655 -1.4261
  548SOL    MW4 1960   3.822   4.285   0.426  0.0469 -0.2330 -0.7622
  549SOL     OW 1961   6.308   2.421   3.020 -0.0315 -0.6014 -0.0166
  549SOL    HW2 1962   6.258   2.356   3.069  0.6336 -0.7892  0.4243
  549SOL    HW3 1963   6.344   2.372   2.946 -1.4697 -0.2034 -1.0187
  549SOL    MW4 1964   6.306   2.406   3.017 -0.1335 -0.5737 -0.0907
  550SOL     OW 1965   3.598   1.096   0.738  0.4225 -0.2519 -0.3935
  550SOL    HW2 1966   3.564   1.018   0.695  0.1013  0.0200 -0.6435
  550SOL    HW3 1967   3.690   1.099   0.711  0.1641  0.0560 -1.3004
  550SOL    MW4 1968   3.606   1.086   0.729  0.3460 -0.1754 -0.5461
  551SOL     OW 1969   4.142   0.451   6.161 -0.3716  0.1157  0.0412
  551SOL    HW2 1970   4.225   0.498   6.152 -1.3741  1.5650 -2.5320
  551SOL    HW3 1971   4.075   0.520   6.157 -1.7679 -1.1946  0.1200
  551SOL    MW4 1972   4.144   0.466   6.159 -0.6881  0.1340 -0.2879
  552SOL     OW 1973   2.545   4.490   2.982  0.1596  0.0087  0.2485
  552SOL    HW2 1974   2.480   4.434   3.026  0.1379 -0.3980 -0.2949
  552SOL    HW3 1975   2.504   4.576   2.978 -0.1674 -0.1423  0.3076
  552SOL    MW4 1976   2.531   4.494   2.988  0.1136 -0.0649  0.1846
  553SOL     OW 1977   1.485   1.143   5.730  0.5141 -0.5334  0.6112
  553SOL    HW2 1978   1.465   1.169   5.640  0.6707  0.6668  0.9123
  553SOL    HW3 1979   1.580   1.155   5.738  0.7476 -2.0531  0.5088
  553SOL    MW4 1980   1.495   1.148   5.719  0.5656 -0.5756  0.6374
  554SOL     OW 1981   0.428   6.325   0.276 -0.1532  0.4297  0.2534
  554SOL    HW2 1982   0.468   6.270   0.344  3.6351  1.8762 -0.5843
  554SOL    HW3 1983   0.430   6.270   0.198 -1.9452 -0.2523  0.6457
  554SOL    MW4 1984   0.434   6.310   0.275  0.1102  0.5305  0.1946
  555SOL     OW 1985   5.318   1.562   3.165 -0.0448  0.3438 -0.1172
  555SOL    HW2 1986   5.234   1.538   3.125  0.5042  0.2545 -1.2375
  555SOL    HW3 1987   5.379   1.566   3.092  0.9031  0.5601  0.6731
  555SOL    MW4 1988   5.315   1.559   3.150  0.1527  0.3606 -0.1608
  556SOL     OW 1989   4.003   2.496   1.248 -0.5373  0.3446 -0.4050
  556SOL    HW2 1990   4.031   2.588   1.255  1.4197 -0.2037 -0.5830
  556SOL    HW3 1991   4.066   2.448   1.302 -1.6370 -0.8975 -0.1855
  556SOL    MW4 1992   4.015   2.502   1.256 -0.4242  0.1084 -0.3995
  557SOL     OW 1993   1.740   3.126   4.668  0.4818  0.0347  0.4223
  557SOL    HW2 1994   1.802   3.097   4.736 -0.1909  0.4227  1.2252
  557SOL    HW3 1995   1.765   3.216   4.649  0.9036 -0.1931 -0.1294
  557SOL    MW4 1996   1.751   3.134   4.675  0.4487  0.0559  0.4554
  558SOL     OW 1997   4.203   4.041   4.276  0.6710 -0.8580  0.0965
  558SOL    HW2 1998   4.296   4.028   4.290  0.6373 -1.3249 -0.0916
  558SOL    HW3 1999   4.163   3.956   4.298  0.5988 -1.6212 -2.5938
  558SOL    MW4 2000   4.210   4.028   4.281  0.6571 -1.0203 -0.2833
  559SOL     OW 2001   2.981   5.102   5.256 -0.0432  0.1492  0.4894
  559SOL    HW2 2002   2.964   5.191   5.287  1.4652  1.1664 -1.3940
  559SOL    HW3 2003   3.065   5.078   5.295  0.0725 -0.0162  0.1464
  559SOL    MW4 2004   2.990   5.111   5.265  0.1711  0.2616  0.1956
  560SOL     OW 2005   0.606   4.011   4.787  0.2539 -0.3889 -0.6007
  560SOL    HW2 2006   0.559   3.933   4.817  0.8909 -0.7040 -0.3999
  560SOL    HW3 2007   0.572   4.028   4.700  0.6341 -1.3382 -0.9487
  560SOL    MW4 2008   0.596   4.003   4.780  0.3881 -0.5558 -0.6201
  561SOL     OW 2009   2.321   3.459   0.091  0.4583  0.5591 -0.4471
  561SOL    HW2 2010   2.227   3.465   0.106  0.7056 -0.1389  1.7707
  561SOL    HW3 2011   2.330   3.430   0.000 -1.5248 -1.0700 -0.1820
  561SOL    MW4 2012   2.310   3.456   0.081  0.2293  0.2520 -0.1195
  562SOL     OW 2013   0.059   1.011   1.573 -0.1209  0.3037 -0.3657
  562SOL    HW2 2014   0.030   0.919   1.571 -3.2556  1.1835 -2.2304
  562SOL    HW3 2015   0.115   1.016   1.650 -2.4114 -2.5053  1.7554
  562SOL    MW4 2016   0.062   0.999   1.583 -0.8367  0.0491 -0.3319
  563SOL     OW 2017   5.953   1.752   4.495 -0.1789 -0.2609 -0.1032
  563SOL    HW2 2018   6.041   1.788   4.493 -1.0869  2.1478 -0.5880
  563SOL    HW3 2019   5.907   1.796   4.423 -1.8490 -1.2551  0.2848
  563SOL    MW4 2020   5.958   1.762   4.485 -0.5191 -0.0743 -0.1159
  564SOL     OW 2021   5.637   3.661   2.035 -0.5175 -0.3487 -0.5097
  564SOL    HW2 2022   5.575   3.725   1.999  1.1350  1.8944  0.3456
  564SOL    HW3 2023   5.596   3.632   2.116 -0.6597  0.8507 -0.1245
  564SOL    MW4 2024   5.623   3.666   2.041 -0.3182  0.1055 -0.3460
  565SOL     OW 2025   4.571   2.925   1.529 -0.1808  0.0681  0.0735
  565SOL    HW2 2026   4.541   2.892   1.444 -0.4955  1.2024 -0.2690
  565SOL    HW3 2027   4.619   2.851   1.568 -1.1257 -0.8848 -0.5259
  565SOL    MW4 2028   4.573   2.911   1.523 -0.3470  0.0921 -0.0507
  566SOL     OW 2029   4.392   2.400   3.697  0.0721  0.2967 -0.0890
  566SOL    HW2 2030   4.338   2.323   3.715 -0.8534  1.0315  0.3442
  566SOL    HW3 2031   4.332   2.474   3.702  0.9053  1.0397 -0.7157
  566SOL    MW4 2032   4.377   2.400   3.700  0.0600  0.4917 -0.1146
  567SOL     OW 2033   1.092  -0.013   5.080 -0.1832 -0.5749  0.0841
  567SOL    HW2 2034   1.091   0.056   5.013  0.0649  0.1259  0.7835
  567SOL    HW3 2035   1.021  -0.072   5.055  1.4287 -1.7217 -2.2213
  567SOL    MW4 2036   1.083  -0.011   5.068  0.0622 -0.6338 -0.1278
  568SOL     OW 2037   4.589   3.331   5.019  0.2939 -0.6285  0.1803
  568SOL    HW2 2038   4.590   3.255   5.078 -0.7204 -1.0517 -0.3254
  568SOL    HW3 2039   4.575   3.294   4.932  1.3845  0.0285 -0.2942
  568SOL    MW4 2040   4.587   3.316   5.016  0.3040 -0.5976  0.0510
  569SOL     OW 2041   2.782   0.981   4.205  0.1119  0.4426 -0.0865
  569SOL    HW2 2042   2.687   0.974   4.202  0.1073  0.6629 -0.5840
  569SOL    HW3 2043   2.802   0.999   4.297 -0.3004  0.0711  0.0783
  569SOL    MW4 2044   2.772   0.982   4.216  0.0569  0.4226 -0.1304
  570SOL     OW 2045   2.533   1.348   5.493 -0.3876  0.0110  0.7110
  570SOL    HW2 2046   2.552   1.279   5.556  0.5512  0.1427  0.5909
  570SOL    HW3 2047   2.438   1.360   5.498 -0.8117 -2.3057 -0.3151
  570SOL    MW4 2048   2.523   1.341   5.502 -0.3197 -0.2773  0.5597
  571SOL     OW 2049   3.559   3.053   2.312  0.1339  0.1670 -0.0663
  571SOL    HW2 2050   3.528   3.093   2.394  1.4633 -0.9812  1.0368
  571SOL    HW3 2051   3.619   2.985   2.340  1.1175  0.1715 -2.0437
  571SOL    MW4 2052   3.563   3.050   2.326  0.4391  0.0161 -0.1817
  572SOL     OW 2053   4.152   4.992   6.246 -0.3679 -0.7756  0.1151
  572SOL    HW2 2054   4.077   4.981   6.186  0.2850 -1.1016 -0.6634
  572SOL    HW3 2055   4.145   5.082   6.276 -0.2699 -0.3516 -1.0824
  572SOL    MW4 2056   4.141   5.002   6.242 -0.2689 -0.7626 -0.1456
  573SOL     OW 2057   2.423   0.676   5.276  0.0241  0.3846 -0.3486
  573SOL    HW2 2058   2.391   0.761   5.309  1.1583  0.2775  1.1211
  573SOL    HW3 2059   2.483   0.699   5.205 -1.3175  0.6850 -1.4432
  573SOL    MW4 2060   2.426   0.690   5.271 -0.0033  0.4101 -0.2991
  574SOL     OW 2061   1.389   2.525   0.413  0.1328 -0.3273  0.3520
  574SOL    HW2 2062   1.418   2.499   0.500 -0.4684 -0.7407  0.4356
  574SOL    HW3 2063   1.453   2.590   0.385 -1.4186  2.2488  2.4062
  574SOL    MW4 2064   1.402   2.530   0.421 -0.1512 -0.0419  0.6341
  575SOL     OW 2065   1.841   3.400   4.623  0.3504 -0.6105 -0.1019
  575SOL    HW2 2066   1.912   3.341   4.600  1.3341  1.0177 -1.4731
  575SOL    HW3 2067   1.881   3.463   4.684 -0.7658 -1.4923  1.6227
  575SOL    MW4 2068   1.856   3.400   4.628  0.3329 -0.5120 -0.0553
  576SOL     OW 2069   0.936   0.511   1.549 -0.3362 -0.5302 -0.4478
  576SOL    HW2 2070   0.994   0.505   1.473 -1.4746 -1.4375 -1.2736
  576SOL    HW3 2071   0.960   0.436   1.604  0.5657  0.1908  0.1748
  576SOL    MW4 2072   0.947   0.500   1.546 -0.3674 -0.5548 -0.4746
  577SOL     OW 2073   3.973   1.821   4.674 -0.3660 -0.4279  0.2066
  577SOL    HW2 2074   3.938   1.746   4.626 -2.5723  0.9608 -0.5252
  577SOL    HW3 2075   4.064   1.828   4.646 -1.4597  0.1945 -3.7626
  577SOL    MW4 2076   3.980   1.812   4.664 -0.8014 -0.1625 -0.4137
  578SOL     OW 2077   6.284   2.626   5.313 -0.0740 -0.0269  0.6457
  578SOL    HW2 2078   6.371   2.665   5.322 -0.0467  0.4797 -1.4133
  578SOL    HW3 2079   6.273   2.573   5.392  1.8521  0.3829  1.2267
  578SOL    MW4 2080   6.294   2.624   5.325  0.1838  0.0940  0.4507
  579SOL     OW 2081   4.743   4.258   6.296  0.7237 -0.5535 -0.1596
  579SOL    HW2 2082   4.727   4.310   6.218  1.9912 -2.7210 -1.9703
  579SOL    HW3 2083   4.699   4.175   6.280 -0.6425 -0.4213  2.3302
  579SOL    MW4 2084   4.735   4.254   6.284  0.7107 -0.8221 -0.0700
  580SOL     OW 2085   2.646   2.010   0.048  0.2187  0.1355 -0.3160
  580SOL    HW2 2086   2.639   1.935   0.107  0.2988 -1.3044 -2.0625
  580SOL    HW3 2087   2.740   2.022   0.035  0.1775 -0.5261 -1.3079
  580SOL    MW4 2088   2.657   2.002   0.054  0.2238 -0.1418 -0.6773
  581SOL     OW 2089   4.713   0.732   2.280 -0.4088 -0.3704  0.2531
  581SOL    HW2 2090   4.627   0.759   2.311  0.1167  0.2337  1.2082
  581SOL    HW3 2091   4.761   0.814   2.265  0.6956 -0.6887  1.7615
  581SOL    MW4 2092   4.708   0.746   2.282 -0.1938 -0.3327  0.5781
  582SOL     OW 2093   5.981   5.015   4.942 -0.0030 -1.1197 -1.1259
  582SOL    HW2 2094   5.963   5.046   4.853  0.9106 -1.1848 -1.3463
  582SOL    HW3 2095   5.929   5.072   4.998  1.9569  1.2008 -1.4896
  582SOL    MW4 2096   5.972   5.027   4.938  0.3761 -0.8221 -1.2030
  583SOL     OW 2097   2.843   1.437   1.769  0.1960 -0.1887  0.3646
  583SOL    HW2 2098   2.865   1.492   1.845 -0.9293 -0.5686  0.9848
  583SOL    HW3 2099   2.803   1.359   1.807 -1.4359  0.1095 -0.6721
  583SOL    MW4 2100   2.841   1.434   1.784 -0.1678 -0.1995  0.3097
  584SOL     OW 2101   5.527   3.906   2.328 -0.4378  0.0990  0.6156
  584SOL    HW2 2102   5.493   3.870   2.246 -1.1806  0.9557  0.5282
  584SOL    HW3 2103   5.562   3.830   2.375 -0.1371 -0.4250 -0.4236
  584SOL    MW4 2104   5.527   3.891   2.323 -0.4961  0.1429  0.4670
  585SOL     OW 2105   4.851   6.091   4.135 -0.3637 -0.1651  0.2724
  585SOL    HW2 2106   4.885   6.111   4.222 -1.7591  4.7177  0.0074
  585SOL    HW3 2107   4.756   6.086   4.147 -0.4787 -1.0192 -0.7888
  585SOL    MW4 2108   4.843   6.093   4.148 -0.5630  0.3664  0.0974
  586SOL     OW 2109   5.449   0.557   2.243 -0.0496  0.0257  0.0272
  586SOL    HW2 2110   5.399   0.618   2.298  0.2631  0.2039  0.1103
  586SOL    HW3 2111   5.540   0.583   2.253 -0.0951  0.9606 -1.6966
  586SOL    MW4 2112   5.454   0.568   2.252 -0.0143  0.1726 -0.1892
  587SOL     OW 2113   1.403   3.376   4.204  0.2814  0.4584 -0.1316
  587SOL    HW2 2114   1.432   3.286   4.191 -2.2455 -0.7637  1.6711
  587SOL    HW3 2115   1.475   3.418   4.250  1.1020 -0.9812 -0.0429
  587SOL    MW4 2116   1.416   3.370   4.208  0.0563  0.1072  0.1180
  588SOL     OW 2117   5.971   6.287   5.441 -0.4342 -0.4368  0.1482
  588SOL    HW2 2118   6.060   6.261   5.468 -0.1607  0.7878  0.4611
  588SOL    HW3 2119   5.983   6.323   5.353 -0.4977  0.3990  0.4764
  588SOL    MW4 2120   5.984   6.288   5.433 -0.4065 -0.1650  0.2328
  589SOL     OW 2121   3.831   5.275   4.111 -0.2007 -0.4991 -0.0319
  589SOL    HW2 2122   3.881   5.297   4.032 -0.9517  3.4638  0.4102
  589SOL    HW3 2123   3.875   5.323   4.181 -1.9021 -0.6795  1.2166
  589SOL    MW4 2124   3.844   5.284   4.110 -0.5243 -0.0000  0.1911
  590SOL     OW 2125   0.284   1.799   1.577 -0.0918 -0.3565  0.5002
  590SOL    HW2 2126   0.279   1.704   1.593 -1.2677 -0.3085  0.4380
  590SOL    HW3 2127   0.216   1.816   1.512  0.6193  0.4235 -0.0638
  590SOL    MW4 2128   0.275   1.789   1.570 -0.1531 -0.2473  0.4176
  591SOL     OW 2129   5.146   2.930   0.667 -0.1261 -0.0816  0.6383
  591SOL    HW2 2130   5.196   2.929   0.585  1.3087  1.5195  1.4413
  591SOL    HW3 2131   5.200   2.882   0.729 -1.9034 -2.6307  0.3551
  591SOL    MW4 2132   5.160   2.924   0.664 -0.1713 -0.2067  0.7069
  592SOL     OW 2133   6.213   2.480   1.856  0.1826 -0.0768 -0.0540
  592SOL    HW2 2134   6.179   2.541   1.790 -1.5323  0.6092  1.3600
  592SOL    HW3 2135   6.258   2.536   1.919  0.0865 -0.4875  0.3837
  592SOL    MW4 2136   6.214   2.496   1.856 -0.0563 -0.0405  0.1904
  593SOL     OW 2137   5.085   0.579   2.513  0.3940  0.0681 -0.1192
  593SOL    HW2 2138   5.084   0.483   2.512 -0.7094  0.0599 -0.0865
  593SOL    HW3 2139   5.057   0.604   2.425  1.8212  0.3844 -0.5001
  593SOL    MW4 2140   5.081   0.569   2.501  0.4367  0.1087 -0.1652
  594SOL     OW 2141   3.327   3.612   0.156 -0.0948 -0.6843 -0.4731
  594SOL    HW2 2142   3.420   3.617   0.180 -0.4069 -1.0620  0.9130
  594SOL    HW3 2143   3.281   3.648   0.232 -1.0861 -0.3343 -1.2219
  594SOL    MW4 2144   3.333   3.617   0.169 -0.2668 -0.6880 -0.3890
  595SOL     OW 2145   3.682   2.865   3.182 -0.1588  0.5596  0.0316
  595SOL    HW2 2146   3.738   2.863   3.105 -0.8625 -3.2694 -0.5836
  595SOL    HW3 2147   3.723   2.804   3.243 -1.3918  0.9574  1.3122
  595SOL    MW4 2148   3.695   2.857   3.180 -0.4143  0.1069  0.1194
  596SOL     OW 2149   5.792   5.613   1.372 -0.9956  0.8009  0.2626
  596SOL    HW2 2150   5.724   5.579   1.429 -0.2852  0.0599  0.6856
  596SOL    HW3 2151   5.871   5.616   1.427 -0.6763  1.6447 -0.2138
  596SOL    MW4 2152   5.794   5.609   1.387 -0.8597  0.8145  0.2556
  597SOL     OW 2153   6.279   1.142   4.198 -0.5616  0.1430  0.0107
  597SOL    HW2 2154   6.231   1.214   4.157  0.1205  1.2680  1.1364
  597SOL    HW3 2155   6.282   1.164   4.291 -0.1696 -1.2510  0.3613
  597SOL    MW4 2156   6.273   1.154   4.205 -0.4199  0.1075  0.2055
  598SOL     OW 2157   3.346   5.586   1.921  0.0558  0.6251 -0.1771
  598SOL    HW2 2158   3.409   5.634   1.975 -0.2538 -1.4132  2.1633
  598SOL    HW3 2159   3.262   5.628   1.939 -0.0477 -0.0479  1.0113
  598SOL    MW4 2160   3.344   5.598   1.931  0.0013  0.2674  0.2885
  599SOL     OW 2161   1.322   0.816   6.348 -0.1696 -0.0169  0.3653
  599SOL    HW2 2162   1.406   0.831   6.304 -0.0639  0.3595  0.6957
  599SOL    HW3 2163   1.258   0.812   6.277  0.1331 -0.3599  0.1073
  599SOL    MW4 2164   1.325   0.817   6.333 -0.1157 -0.0125  0.3748
  600SOL     OW 2165   2.503   0.943   5.829  0.6539 -0.1711 -0.5502
  600SOL    HW2 2166   2.409   0.950   5.840  0.7728 -0.0121  0.4679
  600SOL    HW3 2167   2.523   0.851   5.846  1.0777  0.4322  2.8852
  600SOL    MW4 2168   2.493   0.932   5.833  0.7255 -0.0705  0.0374
  601SOL     OW 2169   5.106   3.707   0.889 -0.1111 -0.0085  0.4870
  601SOL    HW2 2170   5.093   3.711   0.984  2.3277 -0.3682  0.8891
  601SOL    HW3 2171   5.142   3.793   0.867  0.1726 -0.2447  0.0292
  601SOL    MW4 2172   5.109   3.719   0.899  0.2481 -0.0871  0.4796
  602SOL     OW 2173   4.231   0.329   1.543 -0.5019  0.4597  0.5997
  602SOL    HW2 2174   4.262   0.291   1.625  0.3863 -0.2052 -0.0289
  602SOL    HW3 2175   4.161   0.271   1.513  1.2826 -1.1639 -0.6931
  602SOL    MW4 2176   4.226   0.317   1.550 -0.1493  0.1578  0.3462
  603SOL     OW 2177   5.808   5.810   6.123  0.7210 -0.9328 -0.0627
  603SOL    HW2 2178   5.727   5.862   6.128  0.9199 -0.5538 -0.7231
  603SOL    HW3 2179   5.875   5.866   6.162  0.9985 -0.5418 -1.0570
  603SOL    MW4 2180   5.806   5.824   6.129  0.7838 -0.8312 -0.2810
  604SOL     OW 2181   1.667   0.976   2.817  0.2371 -0.5695  0.0363
  604SOL    HW2 2182   1.692   0.924   2.893 -0.3430  0.9894  1.3577
  604SOL    HW3 2183   1.615   1.048   2.853  2.0407  1.6740 -1.5198
  604SOL    MW4 2184   1.663   0.979   2.832  0.3985 -0.0678  0.0053
  605SOL     OW 2185   2.400   5.537   1.352 -0.5587  0.2040 -0.3506
  605SOL    HW2 2186   2.368   5.447   1.355 -1.4213  0.4953 -0.3699
  605SOL    HW3 2187   2.421   5.552   1.260  2.9071 -1.0574  0.1243
  605SOL    MW4 2188   2.398   5.527   1.340 -0.2152  0.0760 -0.2905
  606SOL     OW 2189   4.828   1.095   1.199  0.6804 -0.2497  0.3563
  606SOL    HW2 2190   4.868   1.180   1.179 -0.3556  0.6796  1.9844
  606SOL    HW3 2191   4.741   1.117   1.233  0.0776 -2.0302  0.0643
  606SOL    MW4 2192   4.822   1.109   1.201  0.4642 -0.3620  0.5326
  607SOL     OW 2193   2.042   3.408   1.145  0.3360  0.0625  0.2163
  607SOL    HW2 2194   2.002   3.323   1.161  0.2362 -0.2455 -1.4495
  607SOL    HW3 2195   1.977   3.472   1.172 -1.2732 -0.4217 -2.1580
  607SOL    MW4 2196   2.028   3.405   1.150  0.1105 -0.0420 -0.3168
  608SOL     OW 2197   4.726   3.783   5.842 -0.2005  0.1371  0.0345
  608SOL    HW2 2198   4.658   3.823   5.788  0.1146 -0.2528 -0.6530
  608SOL    HW3 2199   4.805   3.789   5.790  0.2422  0.3137  0.7106
  608SOL    MW4 2200   4.727   3.789   5.828 -0.1005  0.1090  0.0330
  609SOL     OW 2201   3.531   2.496   6.131  0.4031  0.2409 -0.2115
  609SOL    HW2 2202   3.555   2.507   6.039  0.8789  1.4501  0.0371
  609SOL    HW3 2203   3.435   2.503   6.132  0.4977  1.9021 -0.4284
  609SOL    MW4 2204   3.521   2.498   6.119  0.4784  0.6196 -0.2073
  610SOL     OW 2205   0.737   2.784   3.768  0.3267 -0.2975 -0.6925
  610SOL    HW2 2206   0.759   2.787   3.861 -1.0289  0.9985 -0.3599
  610SOL    HW3 2207   0.764   2.870   3.734 -1.0420  0.0409 -0.9940
  610SOL    MW4 2208   0.743   2.796   3.776 -0.0328 -0.0818 -0.6884
  611SOL     OW 2209   2.114   2.799   5.972  0.0768 -0.2139 -0.1587
  611SOL    HW2 2210   2.165   2.725   5.939  0.0179 -0.1919 -0.2980
  611SOL    HW3 2211   2.113   2.787   6.067 -0.0243 -0.4513 -0.1898
  611SOL    MW4 2212   2.121   2.788   5.980  0.0557 -0.2423 -0.1812
  612SOL     OW 2213   0.696   5.314   6.205 -0.0844  0.1667 -0.5956
  612SOL    HW2 2214   0.688   5.349   6.116  1.2005  0.0609 -0.7761
  612SOL    HW3 2215   0.717   5.221   6.192 -0.9935 -0.1117 -0.1568
  612SOL    MW4 2216   0.698   5.306   6.191 -0.0349  0.1160 -0.5615
  613SOL     OW 2217   3.494   1.865   0.193  0.2347  0.0160  0.2370
  613SOL    HW2 2218   3.578   1.850   0.151  0.2889  1.8255 -0.3622
  613SOL    HW3 2219   3.458   1.777   0.207  1.6338 -0.7295 -0.6811
  613SOL    MW4 2220   3.500   1.851   0.189  0.4265  0.1564  0.0368
  614SOL     OW 2221   3.855   1.848   4.030  0.1731  0.5492  0.0269
  614SOL    HW2 2222   3.899   1.908   3.970 -2.3128  1.2499 -1.2718
  614SOL    HW3 2223   3.763   1.876   4.027 -0.6491 -1.7879  1.3056
  614SOL    MW4 2224   3.848   1.860   4.021 -0.2633  0.3333  0.0243
  615SOL     OW 2225   1.945   3.297   5.015 -0.1401  0.0525  0.0444
  615SOL    HW2 2226   2.031   3.335   5.034  0.0493  0.7402 -1.9453
  615SOL    HW3 2227   1.883   3.368   5.031 -0.3989 -0.5048  1.6819
  615SOL    MW4 2228   1.948   3.311   5.020 -0.1493  0.0697 -0.0021
  616SOL     OW 2229   4.918   4.066   1.644 -0.2389  0.0692  0.4748
  616SOL    HW2 2230   4.916   4.143   1.587 -2.4735  0.3251  0.8142
  616SOL    HW3 2231   4.975   4.004   1.599  0.7907  1.5166 -0.3080
  616SOL    MW4 2232   4.925   4.068   1.631 -0.3979  0.2939  0.4163
  617SOL     OW 2233   2.593   0.676   5.869  0.1283  0.5105  0.1343
  617SOL    HW2 2234   2.614   0.629   5.788  0.5444  0.4133  0.2967
  617SOL    HW3 2235   2.542   0.613   5.920  0.0741  0.4859  0.0506
  617SOL    MW4 2236   2.589   0.661   5.865  0.1761  0.4944  0.1447
  618SOL     OW 2237   1.151   4.860   0.056  0.2758  0.5330  0.4520
  618SOL    HW2 2238   1.223   4.858  -0.007 -0.0239  1.0535  0.0771
  618SOL    HW3 2239   1.178   4.925   0.121 -0.3724  1.6839 -0.3676
  618SOL    MW4 2240   1.164   4.868   0.056  0.1507  0.7535  0.2944
  619SOL     OW 2241   6.412   3.575   4.338 -0.0154  0.0591  0.2004
  619SOL    HW2 2242   6.417   3.541   4.427  0.4948  0.3494  0.2858
  619SOL    HW3 2243   6.318   3.585   4.321 -0.2202 -1.6396  0.0709
  619SOL    MW4 2244   6.400   3.572   4.347  0.0249 -0.1268  0.1946
  620SOL     OW 2245   1.497   2.816   5.361 -0.4251  0.0099 -0.6015
  620SOL    HW2 2246   1.430   2.814   5.428 -1.0437 -0.2046 -1.2185
  620SOL    HW3 2247   1.578   2.793   5.407 -1.1385 -2.0503 -0.2868
  620SOL    MW4 2248   1.499   2.813   5.376 -0.6008 -0.2902 -0.6414
  621SOL     OW 2249   0.706   2.219   4.877  0.4344 -0.0307  0.1106
  621SOL    HW2 2250   0.764   2.198   4.950 -0.0532 -1.1335  0.2106
  621SOL    HW3 2251   0.763   2.214   4.800  0.5274 -0.9940  0.2204
  621SOL    MW4 2252   0.721   2.215   4.876  0.3823 -0.3033  0.1382
  622SOL     OW 2253   1.729   0.467   3.273  0.3293  0.3699 -0.3755
  622SOL    HW2 2254   1.750   0.495   3.362 -0.3138  0.6127 -0.2939
  622SOL    HW3 2255   1.716   0.373   3.279  0.0453  0.4216 -0.1626
  622SOL    MW4 2256   1.730   0.459   3.286  0.2070  0.4087 -0.3366
  623SOL     OW 2257   5.377   1.844   2.481 -0.4000  0.0752  0.7657
  623SOL    HW2 2258   5.353   1.930   2.515  1.2340  0.0105  2.2386
  623SOL    HW3 2259   5.424   1.802   2.553 -0.6541 -1.8363 -0.1245
  623SOL    MW4 2260   5.380   1.850   2.495 -0.2180 -0.1855  0.8426
  624SOL     OW 2261   5.200   2.573   3.313  0.3869  0.0975  0.1647
  624SOL    HW2 2262   5.276   2.592   3.259 -0.1310 -0.3978 -0.7762
  624SOL    HW3 2263   5.208   2.480   3.334  0.8767  0.4097  1.4353
  624SOL    MW4 2264   5.211   2.563   3.309  0.3832  0.0733  0.2082
  625SOL     OW 2265   3.376   3.159   5.781  0.3509 -0.1113  0.3419
  625SOL    HW2 2266   3.409   3.249   5.776  1.0180 -0.3527  0.4495
  625SOL    HW3 2267   3.325   3.157   5.862 -1.1853  0.6702 -0.5461
  625SOL    MW4 2268   3.373   3.171   5.791  0.2362 -0.0401  0.2389
  626SOL     OW 2269   5.437   6.297   1.261 -0.4403  0.7825 -0.3645
  626SOL    HW2 2270   5.420   6.350   1.183 -1.8911  2.1632  0.8127
  626SOL    HW3 2271   5.429   6.359   1.333  1.0312 -0.4201  0.8965
  626SOL    MW4 2272   5.434   6.312   1.260 -0.4376  0.8060 -0.0428
  627SOL     OW 2273   4.383   5.299   1.101  0.5276 -0.5271  0.1278
  627SOL    HW2 2274   4.469   5.338   1.117  0.4657  0.1659 -1.0831
  627SOL    HW3 2275   4.348   5.281   1.188  0.5968  2.1171  0.7866
  627SOL    MW4 2276   4.390   5.302   1.114  0.5286 -0.0868  0.0550
  628SOL     OW 2277   0.157   3.769   1.597 -0.0718  0.1803  0.5844
  628SOL    HW2 2278   0.159   3.687   1.645 -0.2712  0.7487  1.5959
  628SOL    HW3 2279   0.244   3.776   1.557  0.6543  0.4210  2.1346
  628SOL    MW4 2280   0.169   3.759   1.598 -0.0023  0.2871  0.9224
  629SOL     OW 2281   0.363   4.280   1.635  0.2775 -0.4657 -0.1322
  629SOL    HW2 2282   0.322   4.194   1.642 -0.1370 -0.1439  1.8453
  629SOL    HW3 2283   0.332   4.314   1.551  0.8720 -2.4192 -1.2049
  629SOL    MW4 2284   0.353   4.273   1.625  0.3012 -0.6810 -0.0128
  630SOL     OW 2285   3.413   2.266   1.246 -0.5603 -0.4880  0.1765
  630SOL    HW2 2286   3.454   2.254   1.332  1.4367 -0.2482 -0.6750
  630SOL    HW3 2287   3.386   2.178   1.221  0.5022 -0.8677  0.2979
  630SOL    MW4 2288   3.415   2.253   1.254 -0.1567 -0.5065  0.0802
  631SOL     OW 2289   6.376   4.624   3.713 -0.3514 -0.5482 -0.6193
  631SOL    HW2 2290   6.422   4.630   3.797 -0.7036 -0.0736 -0.4530
  631SOL    HW3 2291   6.435   4.666   3.651 -2.0199  3.5400  0.2289
  631SOL    MW4 2292   6.390   4.631   3.716 -0.6180  0.0538 -0.4855
  632SOL     OW 2293   2.626   6.042   5.817  0.0824 -0.1400 -0.7653
  632SOL    HW2 2294   2.565   6.076   5.752  0.1204 -0.4217 -0.9456
  632SOL    HW3 2295   2.680   5.979   5.770 -1.0589 -1.7071 -0.0684
  632SOL    MW4 2296   2.625   6.038   5.802 -0.0632 -0.3839 -0.6971
  633SOL     OW 2297   1.623   5.915   0.922  0.4025 -0.1718 -0.0896
  633SOL    HW2 2298   1.613   5.897   0.828  1.0416  2.2873 -0.7213
  633SOL    HW3 2299   1.702   5.868   0.947 -0.1975 -1.4804 -0.5699
  633SOL    MW4 2300   1.632   5.907   0.913  0.4076 -0.0200 -0.2363
  634SOL     OW 2301   5.210   2.458   1.581 -0.3861  0.0091  0.2965
  634SOL    HW2 2302   5.166   2.373   1.584  1.7186 -1.1579 -0.1674
  634SOL    HW3 2303   5.206   2.484   1.489 -1.6632  0.8192  0.5485
  634SOL    MW4 2304   5.204   2.451   1.569 -0.2769 -0.0380  0.2685
  635SOL     OW 2305   6.117   4.500   3.437  0.0451  0.1668  0.3875
  635SOL    HW2 2306   6.205   4.463   3.449 -0.2977 -0.3662  1.3181
  635SOL    HW3 2307   6.134   4.589   3.406  0.8963 -0.2024 -0.2802
  635SOL    MW4 2308   6.131   4.507   3.434  0.1122  0.0477  0.4222
  636SOL     OW 2309   2.786   1.051   5.863 -0.4488 -0.6536 -0.0358
  636SOL    HW2 2310   2.758   1.136   5.831 -1.5409 -0.5853  1.0310
  636SOL    HW3 2311   2.713   0.992   5.842  0.3116 -1.3541 -0.8079
  636SOL    MW4 2312   2.773   1.054   5.856 -0.4926 -0.7370  0.0031
  637SOL     OW 2313   0.798   2.752   4.405 -0.0223 -0.2041 -0.1732
  637SOL    HW2 2314   0.782   2.712   4.491 -0.0881 -1.9985 -0.9785
  637SOL    HW3 2315   0.877   2.709   4.373  0.1316  0.6088 -0.9323
  637SOL    MW4 2316   0.806   2.741   4.412 -0.0106 -0.3336 -0.3796
  638SOL     OW 2317   5.012   5.175   0.456 -0.7647  0.1781 -0.3498
  638SOL    HW2 2318   4.973   5.206   0.537  1.2167  1.0419  0.3484
  638SOL    HW3 2319   4.940   5.173   0.393 -2.6478 -1.7595  1.6867
  638SOL    MW4 2320   4.998   5.179   0.458 -0.7518  0.0364  0.0110
  639SOL     OW 2321   4.009   5.808   1.043 -0.1444  0.3300 -0.5176
  639SOL    HW2 2322   4.012   5.725   0.995 -0.9472 -0.5105  0.7924
  639SOL    HW3 2323   4.026   5.875   0.978 -1.1234 -0.7598 -1.9523
  639SOL    MW4 2324   4.011   5.806   1.028 -0.3795  0.0753 -0.5341
  640SOL     OW 2325   0.887   1.262   3.552  0.1884 -0.2182  0.4421
  640SOL    HW2 2326   0.935   1.328   3.603 -1.0912  1.6358 -0.6203
  640SOL    HW3 2327   0.899   1.288   3.461 -0.2945 -1.5174 -0.0123
  640SOL    MW4 2328   0.895   1.274   3.547 -0.0441 -0.1450  0.2420
  641SOL     OW 2329   2.203   2.101   2.001 -0.5187 -0.5089 -0.0381
  641SOL    HW2 2330   2.275   2.040   2.014  0.0822  0.5809  2.2177
  641SOL    HW3 2331   2.243   2.178   1.962 -0.8253 -0.5752 -0.5001
  641SOL    MW4 2332   2.218   2.103   1.997 -0.4799 -0.3739  0.1986
  642SOL     OW 2333   3.273   5.717   5.272 -0.4883  0.3712  0.4402
  642SOL    HW2 2334   3.351   5.685   5.227  0.0507  0.1149  1.5128
  642SOL    HW3 2335   3.220   5.638   5.289 -1.7602  0.7033 -1.6283
  642SOL    MW4 2336   3.276   5.702   5.269 -0.5850  0.3812  0.3088
  643SOL     OW 2337   4.891   3.133   1.367  0.0982  0.4736  0.0519
  643SOL    HW2 2338   4.806   3.155   1.329 -1.2240 -1.6415  1.6164
  643SOL    HW3 2339   4.875   3.125   1.461  1.9264 -0.4501  0.3348
  643SOL    MW4 2340   4.878   3.135   1.374  0.1650  0.0726  0.2957
  644SOL     OW 2341   1.022   3.740   1.522 -0.0044 -0.2786  0.2710
  644SOL    HW2 2342   1.059   3.818   1.480  0.1384 -0.8393 -0.6558
  644SOL    HW3 2343   1.060   3.741   1.610  1.8957 -0.5798 -0.4822
  644SOL    MW4 2344   1.032   3.751   1.528  0.2651 -0.3923  0.0493
  645SOL     OW 2345   0.458   3.877   2.054  0.0670  0.2170  0.1483
  645SOL    HW2 2346   0.451   3.944   1.987  1.5952  0.7976  0.5203
  645SOL    HW3 2347   0.504   3.805   2.012  0.9569  0.5509  0.4976
  645SOL    MW4 2348   0.463   3.876   2.040  0.3860  0.3376  0.2435
  646SOL     OW 2349   5.425   1.284   0.562  0.1088  0.4115  0.4336
  646SOL    HW2 2350   5.489   1.277   0.633  0.4944 -1.0181 -0.0172
  646SOL    HW3 2351   5.349   1.236   0.593  0.0884  0.2207  0.0914
  646SOL    MW4 2352   5.424   1.277   0.575  0.1570  0.1977  0.3290
  647SOL     OW 2353   4.965   3.036   2.898  0.1797  0.5006  0.2478
  647SOL    HW2 2354   5.056   3.034   2.929  0.2520 -0.4999  0.0266
  647SOL    HW3 2355   4.970   2.998   2.810 -0.3358  1.2344 -0.0980
  647SOL    MW4 2356   4.978   3.030   2.890  0.1212  0.4654  0.1730
  648SOL     OW 2357   5.145   5.494   0.942  0.0956 -0.1250  0.1921
  648SOL    HW2 2358   5.221   5.453   0.983 -0.8864 -1.4884  0.6753
  648SOL    HW3 2359   5.089   5.520   1.015 -1.0579 -1.3923 -0.2210
  648SOL    MW4 2360   5.148   5.492   0.957 -0.1862 -0.4721  0.2013
  649SOL     OW 2361   0.688   2.335   3.598 -0.0743  0.1626 -0.0419
  649SOL    HW2 2362   0.745   2.272   3.553 -0.0625  0.6988 -0.7972
  649SOL    HW3 2363   0.646   2.284   3.667 -0.0805 -0.6799 -0.6538
  649SOL    MW4 2364   0.690   2.320   3.601 -0.0736  0.1222 -0.2223
  650SOL     OW 2365   2.691   0.451   2.629 -0.0688 -0.2796 -0.6897
  650SOL    HW2 2366   2.678   0.530   2.577  0.3175  0.3239  0.0954
  650SOL    HW3 2367   2.682   0.481   2.720  1.2083 -0.9074 -0.3314
  650SOL    MW4 2368   2.688   0.465   2.634  0.1507 -0.2828 -0.5389
  651SOL     OW 2369   6.433   3.320   2.769  0.3918  0.1817 -0.0159
  651SOL    HW2 2370   6.354   3.374   2.760 -0.2010 -0.3142  1.7765
  651SOL    HW3 2371   6.402   3.241   2.813  1.2403 -1.6918 -2.5363
  651SOL    MW4 2372   6.418   3.317   2.774  0.4256 -0.1309 -0.1119
  652SOL     OW 2373   4.929   1.560   1.770 -0.5114 -0.3675  0.0982
  652SOL    HW2 2374   4.995   1.493   1.754  0.4156  0.0030  2.0792
  652SOL    HW3 2375   4.978   1.636   1.799 -1.7154  0.4564  0.0654
  652SOL    MW4 2376   4.944   1.561   1.772 -0.5480 -0.2099  0.3553
  653SOL     OW 2377   1.494   2.408   6.034 -0.0790 -0.9947 -0.3245
  653SOL    HW2 2378   1.441   2.458   5.973 -0.8016 -0.8771  0.3856
  653SOL    HW3 2379   1.553   2.473   6.073  0.1424 -1.0093 -0.6279
  653SOL    MW4 2380   1.495   2.423   6.031 -0.1451 -0.9811 -0.2709
  654SOL     OW 2381   2.049   4.991   4.870  0.0007  0.1942 -0.3266
  654SOL    HW2 2382   2.144   4.982   4.866 -0.0362  0.2140 -2.4478
  654SOL    HW3 2383   2.034   5.080   4.903  0.6380 -0.4837  1.9669
  654SOL    MW4 2384   2.059   5.002   4.874  0.0799  0.1074 -0.3039
  655SOL     OW 2385   2.330   4.943   0.436 -0.2683 -0.0170 -0.3817
  655SOL    HW2 2386   2.313   5.014   0.497  0.9850 -0.1542  0.1657
  655SOL    HW3 2387   2.250   4.891   0.437  0.2068 -0.8564  2.3030
  655SOL    MW4 2388   2.318   4.946   0.444 -0.0403 -0.1459  0.0447
  656SOL     OW 2389   6.383   5.344   4.819  0.3101  0.6966  0.3500
  656SOL    HW2 2390   6.392   5.305   4.906  1.5348 -0.1802 -0.1323
  656SOL    HW3 2391   6.473   5.348   4.786 -0.3041 -1.0150 -1.7192
  656SOL    MW4 2392   6.396   5.339   4.826  0.3906  0.3551  0.0133
  657SOL     OW 2393   3.930   3.747   1.034 -0.5200  0.5381 -0.5080
  657SOL    HW2 2394   3.976   3.751   1.118 -0.3155  1.1065 -0.6397
  657SOL    HW3 2395   3.902   3.837   1.019  1.9464  1.1053 -2.4345
  657SOL    MW4 2396   3.933   3.760   1.043 -0.1676  0.6879 -0.7795
  658SOL     OW 2397   1.235   2.324   2.988 -0.1431 -0.1028  0.4865
  658SOL    HW2 2398   1.291   2.339   3.065 -1.8388  1.5764  1.4864
  658SOL    HW3 2399   1.173   2.257   3.016 -1.9223  1.7620  1.3725
  658SOL    MW4 2400   1.234   2.317   3.002 -0.6016  0.3648  0.7353
  659SOL     OW 2401   4.110   3.860   3.650 -0.1916  0.0873  0.1843
  659SOL    HW2 2402   4.124   3.774   3.610 -1.2997 -0.2082  0.3813
  659SOL    HW3 2403   4.142   3.850   3.740 -0.3722 -0.1413  0.2241
  659SOL    MW4 2404   4.116   3.847   3.657 -0.3616  0.0182  0.2155
  660SOL     OW 2405   0.329   5.400   6.009 -0.3984  0.5927 -0.1653
  660SOL    HW2 2406   0.293   5.443   5.931  0.4666  0.9428 -0.3782
  660SOL    HW3 2407   0.370   5.320   5.975 -1.1479  0.0796  0.1060
  660SOL    MW4 2408   0.329   5.395   5.994 -0.3832  0.5712 -0.1576
  661SOL     OW 2409   0.190   1.708   2.423  0.0117  0.1251  0.0226
  661SOL    HW2 2410   0.255   1.659   2.373 -0.0919  0.9123 -0.9205
  661SOL    HW3 2411   0.240   1.753   2.491  0.7986  2.2229 -1.8272
  661SOL    MW4 2412   0.205   1.708   2.426  0.1019  0.5057 -0.3459
  662SOL     OW 2413   0.154   2.943   0.411  0.0689 -0.1585  0.5773
  662SOL    HW2 2414   0.218   2.925   0.342 -1.5305 -0.7726 -0.8223
  662SOL    HW3 2415   0.205   2.940   0.492  2.0302  0.6398 -0.5531
  662SOL    MW4 2416   0.169   2.940   0.412  0.1167 -0.1342  0.2435
  663SOL     OW 2417   6.106   1.387   2.380  0.1924  0.5230 -0.1501
  663SOL    HW2 2418   6.106   1.380   2.284 -1.5994 -2.2147 -0.0470
  663SOL    HW3 2419   6.187   1.345   2.407 -0.0545 -0.1258 -0.4105
  663SOL    MW4 2420   6.116   1.381   2.371 -0.0766  0.0762 -0.1709
  664SOL     OW 2421   4.629  -0.002   0.799 -0.0830 -0.2816  0.0343
  664SOL    HW2 2422   4.560  -0.030   0.859  0.2724  0.9516  1.0672
  664SOL    HW3 2423   4.705   0.012   0.855  0.0749  1.5818 -0.5617
  664SOL    MW4 2424   4.630  -0.004   0.814 -0.0153  0.1270  0.0919
  665SOL     OW 2425   4.141   3.102   1.465 -0.4054  0.5858 -0.0460
  665SOL    HW2 2426   4.167   3.098   1.373 -0.6500 -2.1913 -0.0598
  665SOL    HW3 2427   4.067   3.163   1.466 -0.2768  0.8161 -1.6483
  665SOL    MW4 2428   4.135   3.110   1.453 -0.4207  0.2498 -0.2593
  666SOL     OW 2429   2.121   1.238   1.965  0.0946 -0.0131  0.3014
  666SOL    HW2 2430   2.103   1.166   2.025 -0.6960  0.3506  0.5204
  666SOL    HW3 2431   2.100   1.204   1.878  2.9958 -1.1557 -0.0624
  666SOL    MW4 2432   2.116   1.224   1.962  0.3730 -0.1159  0.2823
  667SOL     OW 2433   4.041   4.962   3.201  0.1254  1.0432 -0.1557
  667SOL    HW2 2434   4.108   4.902   3.235  2.2777  1.4444 -3.2344
  667SOL    HW3 2435   4.054   5.043   3.251  3.0019  1.5536 -1.5074
  667SOL    MW4 2436   4.052   4.965   3.212  0.7889  1.1635 -0.7402
  668SOL     OW 2437   1.247   4.294   0.916 -0.0400  0.2440  0.3058
  668SOL    HW2 2438   1.308   4.221   0.925 -0.3033 -0.1035 -0.5833
  668SOL    HW3 2439   1.195   4.272   0.838  0.2885  1.6758 -0.3459
  668SOL    MW4 2440   1.248   4.281   0.907 -0.0314  0.3871  0.1025
  669SOL     OW 2441   5.376   1.687   0.190 -0.2161 -0.7285  0.1506
  669SOL    HW2 2442   5.297   1.635   0.198 -1.1389  0.4557 -0.8001
  669SOL    HW3 2443   5.355   1.770   0.232  0.5839 -0.4724  0.0653
  669SOL    MW4 2444   5.363   1.691   0.196 -0.2323 -0.5385  0.0139
  670SOL     OW 2445   3.172   4.674   5.638  0.1182  0.1582  0.1051
  670SOL    HW2 2446   3.207   4.623   5.565  1.9988 -0.2371  1.1982
  670SOL    HW3 2447   3.139   4.754   5.598  1.1025 -0.0411 -1.1871
  670SOL    MW4 2448   3.172   4.678   5.623  0.4962  0.0797  0.0788
  671SOL     OW 2449   1.120   0.839   0.773  0.3627 -0.0016  0.3596
  671SOL    HW2 2450   1.170   0.781   0.831 -0.1743  1.9191  2.9184
  671SOL    HW3 2451   1.125   0.924   0.816 -1.4939  1.1709 -1.6130
  671SOL    MW4 2452   1.127   0.842   0.787  0.0469  0.4065  0.4369
  672SOL     OW 2453   5.111   6.127   4.915  0.6489 -0.1746 -0.6310
  672SOL    HW2 2454   5.091   6.190   4.846  0.6439  0.8086  0.2343
  672SOL    HW3 2455   5.195   6.090   4.891  0.9121  0.5762 -0.8792
  672SOL    MW4 2456   5.119   6.130   4.903  0.6830  0.0542 -0.5496
  673SOL     OW 2457   4.890   3.304   2.980  0.0731  0.2114  0.2570
  673SOL    HW2 2458   4.835   3.325   2.906 -1.5753 -1.1144  1.0411
  673SOL    HW3 2459   4.910   3.211   2.970 -0.9228 -0.2150  1.9035
  673SOL    MW4 2460   4.886   3.295   2.969 -0.2758 -0.0198  0.5777
  674SOL     OW 2461   5.339   3.793   1.441  0.2476  0.2137 -0.0655
  674SOL    HW2 2462   5.376   3.740   1.511 -1.9679  0.3074  1.2493
  674SOL    HW3 2463   5.247   3.804   1.464 -0.4642  0.6891 -2.7342
  674SOL    MW4 2464   5.332   3.787   1.453 -0.1387  0.2888 -0.2442
  675SOL     OW 2465   1.869   1.762   4.906  0.9711  0.5532  0.0655
  675SOL    HW2 2466   1.821   1.794   4.829  1.7291 -1.2280 -1.2230
  675SOL    HW3 2467   1.960   1.780   4.886  1.1233  0.8122  0.9516
  675SOL    MW4 2468   1.874   1.769   4.893  1.0912  0.3524  0.0124
  676SOL     OW 2469   2.001   3.567   2.557  0.0886 -0.1926  0.0474
  676SOL    HW2 2470   2.093   3.549   2.537  0.5645 -1.3963  2.9363
  676SOL    HW3 2471   2.003   3.627   2.631 -1.4804 -0.2461  0.1765
  676SOL    MW4 2472   2.013   3.573   2.564 -0.0556 -0.3585  0.4456
  677SOL     OW 2473   4.350   1.473   0.188 -0.4656  0.8365 -0.3716
  677SOL    HW2 2474   4.330   1.520   0.107  0.7005  0.9499 -0.6028
  677SOL    HW3 2475   4.422   1.414   0.165 -0.6400  0.3065  0.3926
  677SOL    MW4 2476   4.357   1.471   0.175 -0.3348  0.7816 -0.3013
  678SOL     OW 2477   0.364   0.664   2.766  0.2853  0.4008  0.0555
  678SOL    HW2 2478   0.404   0.641   2.850  0.9830 -0.1144 -0.4192
  678SOL    HW3 2479   0.419   0.623   2.700 -0.3972  0.6020 -0.6556
  678SOL    MW4 2480   0.376   0.656   2.769  0.2873  0.3594 -0.1009
  679SOL     OW 2481   2.960   4.556   2.117  0.0894  0.8207 -0.6285
  679SOL    HW2 2482   2.999   4.618   2.178  1.8527 -1.4705  0.7611
  679SOL    HW3 2483   2.867   4.577   2.116  0.5416  3.1458  0.0962
  679SOL    MW4 2484   2.953   4.567   2.125  0.3817  0.8252 -0.3495
  680SOL     OW 2485   5.511   5.329   6.268  0.4781  0.1341  0.9493
  680SOL    HW2 2486   5.478   5.354   6.354  0.8816 -2.0769  1.8048
  680SOL    HW3 2487   5.545   5.410   6.231  1.6461  0.8837  3.4665
  680SOL    MW4 2488   5.511   5.343   6.274  0.6854 -0.0587  1.3943
  681SOL     OW 2489   4.734   5.128   1.487 -0.4769 -0.1665  0.9306
  681SOL    HW2 2490   4.775   5.104   1.570  0.9599 -0.3393  0.1954
  681SOL    HW3 2491   4.725   5.045   1.440 -1.1362 -0.0508  0.8462
  681SOL    MW4 2492   4.738   5.114   1.491 -0.3743 -0.1740  0.8225
  682SOL     OW 2493   3.984   3.900   1.443  0.4594  0.2974 -0.4054
  682SOL    HW2 2494   3.904   3.847   1.444  1.1195 -0.7266 -0.2367
  682SOL    HW3 2495   4.020   3.891   1.532 -0.0164  2.0078  0.0037
  682SOL    MW4 2496   3.978   3.892   1.455  0.4837  0.3879 -0.3292
  683SOL     OW 2497   5.125   4.679   3.201  0.2756 -0.2713 -0.6858
  683SOL    HW2 2498   5.176   4.661   3.280  1.7007  2.5559 -0.8548
  683SOL    HW3 2499   5.148   4.607   3.142  2.6205 -0.1214 -0.0555
  683SOL    MW4 2500   5.135   4.667   3.204  0.7730  0.1215 -0.6249
  684SOL     OW 2501   1.173   3.057   2.212  0.1155 -0.3641 -0.1911
  684SOL    HW2 2502   1.131   3.100   2.137  0.5391 -0.4844 -0.4987
  684SOL    HW3 2503   1.111   3.070   2.284 -0.0232  0.2647 -0.4159
  684SOL    MW4 2504   1.159   3.064   2.211  0.1531 -0.2970 -0.2613
  685SOL     OW 2505   0.414   6.083   2.972 -0.3796  0.2369  0.2144
  685SOL    HW2 2506   0.483   6.145   2.994  0.0727  0.0247 -0.5977
  685SOL    HW3 2507   0.424   6.066   2.879 -0.0479 -1.6058  0.5477
  685SOL    MW4 2508   0.424   6.089   2.963 -0.2762 -0.0343  0.1513
  686SOL     OW 2509   1.166   3.954   3.624 -0.1786  0.6501 -0.0597
  686SOL    HW2 2510   1.119   3.908   3.555 -0.0408  0.5255 -0.0719
  686SOL    HW3 2511   1.155   4.046   3.604  0.1866  0.6062 -0.4666
  686SOL    MW4 2512   1.159   3.960   3.613 -0.1122  0.6279 -0.1150
  687SOL     OW 2513   2.402   5.696   5.632 -0.2131  0.2363 -0.3931
  687SOL    HW2 2514   2.367   5.776   5.592  0.4652  0.1801 -1.1198
  687SOL    HW3 2515   2.478   5.725   5.683 -0.4222  0.1541 -0.0284
  687SOL    MW4 2516   2.407   5.710   5.633 -0.1512  0.2180 -0.4408
  688SOL     OW 2517   2.841   4.543   4.965 -0.2390 -0.2646  0.4042
  688SOL    HW2 2518   2.843   4.634   4.936  0.9056 -0.0540  1.0751
  688SOL    HW3 2519   2.777   4.501   4.908 -1.2647  1.0981  0.5125
  688SOL    MW4 2520   2.833   4.550   4.954 -0.2233 -0.0570  0.5070
  689SOL     OW 2521   1.252   2.523   5.585 -0.2762  0.0706  0.0536
  689SOL    HW2 2522   1.186   2.465   5.548 -0.3763 -1.0404  1.8494
  689SOL    HW3 2523   1.273   2.484   5.670  4.3489 -0.9719 -1.2774
  689SOL    MW4 2524   1.246   2.510   5.591  0.3208 -0.2135  0.1149
  690SOL     OW 2525   4.469   1.917   3.166 -0.0450  0.1778 -0.0652
  690SOL    HW2 2526   4.523   1.944   3.092  0.9868 -0.6345  0.3730
  690SOL    HW3 2527   4.409   1.852   3.129  0.1432  0.1263 -0.2855
  690SOL    MW4 2528   4.468   1.912   3.151  0.1160  0.0638 -0.0364
  691SOL     OW 2529   2.541   2.320   2.109  0.0755 -0.0737  0.7782
  691SOL    HW2 2530   2.536   2.242   2.165 -0.2569  0.8652  2.1026
  691SOL    HW3 2531   2.551   2.285   2.020  2.1119 -1.5819  1.5410
  691SOL    MW4 2532   2.541   2.305   2.104  0.3003 -0.1488  1.0536
  692SOL     OW 2533   4.930   5.333   2.185  0.8073  0.2097 -0.4409
  692SOL    HW2 2534   4.961   5.243   2.187 -2.8328 -1.2145  1.2513
  692SOL    HW3 2535   4.897   5.345   2.095  1.0794 -0.2126 -0.6012
  692SOL    MW4 2536   4.930   5.323   2.173  0.3630 -0.0339 -0.2388
  693SOL     OW 2537   3.472   5.897   1.266 -0.5425 -0.3172  0.2638
  693SOL    HW2 2538   3.417   5.892   1.188 -1.1217  2.1310  0.4116
  693SOL    HW3 2539   3.561   5.879   1.235 -0.5806  1.7923 -1.2662
  693SOL    MW4 2540   3.476   5.894   1.251 -0.6240  0.2842  0.0815
  694SOL     OW 2541   0.883   6.022   2.673 -0.1140  0.5397 -0.1777
  694SOL    HW2 2542   0.887   6.114   2.698 -0.7790  0.7760 -0.8775
  694SOL    HW3 2543   0.960   6.008   2.618  0.2789  0.5312  0.3707
  694SOL    MW4 2544   0.894   6.032   2.669 -0.1499  0.5698 -0.1977
  695SOL     OW 2545   1.172   0.328   6.256  0.1601 -0.5124  0.4712
  695SOL    HW2 2546   1.215   0.248   6.286  1.8218 -0.1297 -0.7320
  695SOL    HW3 2547   1.239   0.373   6.203 -1.7216  0.1174 -1.5241
  695SOL    MW4 2548   1.187   0.324   6.253  0.1310 -0.3788  0.0492
  696SOL     OW 2549   0.875   0.649   6.162 -0.4251 -0.0964  0.2701
  696SOL    HW2 2550   0.846   0.600   6.086 -0.5682 -0.5566  0.6178
  696SOL    HW3 2551   0.811   0.719   6.172  0.4183  0.8995 -0.9283
  696SOL    MW4 2552   0.863   0.652   6.154 -0.3327 -0.0257  0.1578
  697SOL     OW 2553   0.923   0.294   1.992 -0.1747  0.2436  0.0718
  697SOL    HW2 2554   0.969   0.332   2.067 -1.2896 -0.7008  1.2567
  697SOL    HW3 2555   0.836   0.335   1.994  0.3639  1.6614 -1.8765
  697SOL    MW4 2556   0.918   0.305   2.002 -0.2507  0.3060 -0.0289
  698SOL     OW 2557   1.690   0.266   5.782  0.0758  0.1583  0.1744
  698SOL    HW2 2558   1.664   0.258   5.691 -0.9199  0.9174  0.3745
  698SOL    HW3 2559   1.614   0.233   5.832 -0.6815  2.6220  0.7773
  698SOL    MW4 2560   1.676   0.260   5.777 -0.1555  0.5835  0.2804
  699SOL     OW 2561   2.902   3.049   2.306 -1.0286 -0.1285  0.2926
  699SOL    HW2 2562   2.886   3.037   2.399  1.2239 -1.0026  0.6202
  699SOL    HW3 2563   2.828   3.007   2.263 -1.7798 -0.2623  1.6654
  699SOL    MW4 2564   2.890   3.042   2.312 -0.8306 -0.2615  0.5169
  700SOL     OW 2565   1.933   2.123   2.449 -0.0118  0.4514 -0.1021
  700SOL    HW2 2566   1.997   2.104   2.380 -0.1223  0.1337 -0.1217
  700SOL    HW3 2567   1.898   2.209   2.426 -0.6421 -0.0036 -0.9143
  700SOL    MW4 2568   1.937   2.131   2.437 -0.1095  0.3495 -0.2119
  701SOL     OW 2569   2.076   5.400   1.211  0.3561 -0.3639 -0.1765
  701SOL    HW2 2570   2.097   5.474   1.154  1.0296 -0.6597 -0.3276
  701SOL    HW3 2571   2.011   5.349   1.162 -0.0807  0.0997 -0.0878
  701SOL    MW4 2572   2.070   5.403   1.197  0.3873 -0.3417 -0.1847
  702SOL     OW 2573   0.057   1.995   5.031  0.1930 -0.1100 -0.2601
  702SOL    HW2 2574   0.015   2.080   5.014 -1.7804 -1.5126 -3.1533
  702SOL    HW3 2575  -0.014   1.932   5.028  1.8939 -2.1340 -0.2528
  702SOL    MW4 2576   0.042   1.998   5.029  0.1570 -0.5621 -0.6409
  703SOL     OW 2577   4.074   2.137   2.324  0.5102  0.4850  0.1935
  703SOL    HW2 2578   4.073   2.050   2.284  0.4125  0.2587  0.6727
  703SOL    HW3 2579   4.061   2.120   2.418 -1.4354  1.1161  0.0918
  703SOL    MW4 2580   4.072   2.123   2.331  0.2406  0.5384  0.2433
  704SOL     OW 2581   0.314   5.244   1.409  0.4507 -0.5779  0.0207
  704SOL    HW2 2582   0.392   5.299   1.410  0.3909 -0.4519 -0.9605
  704SOL    HW3 2583   0.241   5.304   1.427  0.5428 -0.6434  0.6362
  704SOL    MW4 2584   0.315   5.259   1.411  0.4550 -0.5699 -0.0276
  705SOL     OW 2585   4.547   1.042   3.672  0.3891 -0.3397 -0.1449
  705SOL    HW2 2586   4.637   1.030   3.641  1.1823  0.1560  1.8216
  705SOL    HW3 2587   4.552   1.031   3.767 -1.0970  2.4176  0.3604
  705SOL    MW4 2588   4.559   1.039   3.681  0.2977  0.0895  0.1812
  706SOL     OW 2589   4.862   1.948   0.482  0.5584 -0.3216  0.5645
  706SOL    HW2 2590   4.828   1.998   0.408  0.7937  1.4703  1.6119
  706SOL    HW3 2591   4.820   1.987   0.558  1.7005 -0.9101  1.5202
  706SOL    MW4 2592   4.852   1.960   0.482  0.7401 -0.1628  0.8288
  707SOL     OW 2593   0.796   1.097   5.019  0.1822 -0.6131  0.0128
  707SOL    HW2 2594   0.886   1.121   5.037 -0.1555  0.3122  0.5543
  707SOL    HW3 2595   0.758   1.079   5.105  0.0745 -1.8779 -0.2772
  707SOL    MW4 2596   0.803   1.098   5.033  0.1234 -0.6579  0.0460
  708SOL     OW 2597   0.362   6.343   0.660 -0.1757 -0.4395  0.0848
  708SOL    HW2 2598   0.418   6.279   0.704  1.4197  0.5810 -0.3823
  708SOL    HW3 2599   0.287   6.292   0.629  1.0197 -2.0872 -0.2284
  708SOL    MW4 2600   0.360   6.328   0.662  0.1925 -0.5222 -0.0182
  709SOL     OW 2601   2.232   3.985   2.651 -0.2417 -0.3347 -0.1209
  709SOL    HW2 2602   2.142   3.955   2.664 -0.4174 -0.7854 -2.1344
  709SOL    HW3 2603   2.231   4.075   2.684 -0.8452 -0.9940  1.8448
  709SOL    MW4 2604   2.220   3.993   2.657 -0.3445 -0.4811 -0.1272
  710SOL     OW 2605   3.173   3.240   2.573  0.3661  0.1807  0.3662
  710SOL    HW2 2606   3.122   3.274   2.499  0.4660  0.9217  0.6322
  710SOL    HW3 2607   3.165   3.145   2.565  1.2437  0.1972 -1.2181
  710SOL    MW4 2608   3.165   3.232   2.562  0.4951  0.2807  0.1922
  711SOL     OW 2609   0.689   5.020   3.645  0.4338 -0.6340  0.2790
  711SOL    HW2 2610   0.654   4.957   3.708  0.6163 -1.0705 -0.0501
  711SOL    HW3 2611   0.617   5.079   3.627  0.0172 -1.2160  0.0025
  711SOL    MW4 2612   0.675   5.019   3.651  0.4029 -0.7683  0.1991
  712SOL     OW 2613   3.984   3.783   0.417 -0.2414  0.0104  0.7528
  712SOL    HW2 2614   3.998   3.810   0.507 -0.6474  0.7348  0.6101
  712SOL    HW3 2615   3.916   3.716   0.422 -1.8407  1.5656  0.8261
  712SOL    MW4 2616   3.977   3.778   0.429 -0.5060  0.3112  0.7436
  713SOL     OW 2617   3.453   5.418   3.064  0.6427 -0.2577  0.0319
  713SOL    HW2 2618   3.392   5.368   3.119 -0.3250  0.1095 -0.6723
  713SOL    HW3 2619   3.438   5.509   3.088  1.1152 -0.1846  0.0505
  713SOL    MW4 2620   3.443   5.423   3.074  0.5774 -0.1996 -0.0585
  714SOL     OW 2621   5.353   4.372   5.648 -0.1148 -0.1049  0.5385
  714SOL    HW2 2622   5.363   4.305   5.716 -1.2519 -1.0603 -0.2252
  714SOL    HW3 2623   5.259   4.387   5.642  0.1529  3.0871  2.1271
  714SOL    MW4 2624   5.342   4.365   5.657 -0.2295  0.1902  0.6474
  715SOL     OW 2625   0.284   1.151   2.457 -0.2856 -0.1047  0.7392
  715SOL    HW2 2626   0.354   1.090   2.433 -0.0886  0.5500 -0.4016
  715SOL    HW3 2627   0.216   1.095   2.495 -0.3892 -1.1415 -0.9006
  715SOL    MW4 2628   0.284   1.136   2.459 -0.2733 -0.1551  0.3723
  716SOL     OW 2629   3.306   5.424   4.962 -0.4233  0.1415 -0.1627
  716SOL    HW2 2630   3.211   5.413   4.956 -0.3524  0.0262 -1.6830
  716SOL    HW3 2631   3.326   5.412   5.054 -1.9414  0.6551  0.2744
  716SOL    MW4 2632   3.296   5.421   4.973 -0.6142  0.1940 -0.3056
  717SOL     OW 2633   0.443   1.316   5.347  0.1455  0.4599  0.2907
  717SOL    HW2 2634   0.359   1.272   5.358  0.5411 -0.4451 -0.2350
  717SOL    HW3 2635   0.433   1.369   5.268  0.0807  0.3098  0.1977
  717SOL    MW4 2636   0.431   1.317   5.338  0.1891  0.3207  0.2091
  718SOL     OW 2637   0.176   4.990   2.551  0.5661  0.5545 -0.1697
  718SOL    HW2 2638   0.240   5.022   2.488  0.9252 -0.7440 -0.4983
  718SOL    HW3 2639   0.093   4.992   2.504  0.3864  1.9573  0.1594
  718SOL    MW4 2640   0.174   4.995   2.537  0.5898  0.5682 -0.1697
  719SOL     OW 2641   2.583   3.686   1.953 -0.0378  0.2045  0.5032
  719SOL    HW2 2642   2.606   3.701   1.862 -2.0183  0.5835  0.0023
  719SOL    HW3 2643   2.551   3.596   1.956 -2.8741  1.0934  0.0752
  719SOL    MW4 2644   2.582   3.676   1.941 -0.6733  0.3718  0.3806
  720SOL     OW 2645   5.300   3.222   1.140 -0.5431 -0.1443  0.2895
  720SOL    HW2 2646   5.344   3.299   1.104  0.6308 -0.5942  0.6918
  720SOL    HW3 2647   5.238   3.195   1.072 -2.2594  2.1421  0.8399
  720SOL    MW4 2648   5.298   3.228   1.126 -0.6147  0.0980  0.4152
  721SOL     OW 2649   5.116  -0.015   4.428  0.6084 -0.1175  0.4037
  721SOL    HW2 2650   5.208   0.011   4.439  0.7258  0.4827 -1.6222
  721SOL    HW3 2651   5.111  -0.047   4.338 -1.2286  0.0810  0.4051
  721SOL    MW4 2652   5.127  -0.016   4.417  0.3815 -0.0121  0.1366
  722SOL     OW 2653   1.603   5.630   2.087  0.6599  0.0282 -0.2836
  722SOL    HW2 2654   1.528   5.575   2.107  2.3265 -2.1338  0.4432
  722SOL    HW3 2655   1.570   5.719   2.094 -1.2666 -0.7727  2.4285
  722SOL    MW4 2656   1.589   5.634   2.090  0.6256 -0.3627  0.1701
  723SOL     OW 2657   3.125   0.086   5.419 -0.2853  0.5266  0.6094
  723SOL    HW2 2658   3.132   0.002   5.373  1.4632 -0.6503  2.8178
  723SOL    HW3 2659   3.190   0.142   5.378  1.6455 -0.6862  1.8638
  723SOL    MW4 2660   3.134   0.082   5.408  0.2002  0.2113  1.0662
  724SOL     OW 2661   6.185   5.644   1.162 -0.4096 -0.5249 -0.0774
  724SOL    HW2 2662   6.192   5.694   1.080  1.4654  1.2521  1.0536
  724SOL    HW3 2663   6.249   5.574   1.152 -0.6176 -0.6804 -0.3506
  724SOL    MW4 2664   6.195   5.642   1.150 -0.1897 -0.3110  0.0358
  725SOL     OW 2665   2.557   1.741   5.326  0.6591  0.3821  0.8072
  725SOL    HW2 2666   2.506   1.716   5.404 -0.0078  1.2582  0.6681
  725SOL    HW3 2667   2.497   1.794   5.274  1.4242  0.6431  0.1708
  725SOL    MW4 2668   2.542   1.744   5.330  0.6720  0.5321  0.7049
  726SOL     OW 2669   0.740   3.634   4.657 -0.5835 -0.6720  0.6346
  726SOL    HW2 2670   0.746   3.627   4.562  0.2861 -0.2885  0.6550
  726SOL    HW3 2671   0.786   3.557   4.690 -2.2229 -1.6669  0.7609
  726SOL    MW4 2672   0.747   3.623   4.649 -0.6851 -0.7527  0.6540
  727SOL     OW 2673   3.667   4.993   5.802  0.0294 -0.0487 -0.1589
  727SOL    HW2 2674   3.686   5.009   5.709  0.6803  0.0321 -0.0216
  727SOL    HW3 2675   3.667   4.898   5.810 -1.3473 -0.0914 -0.4915
  727SOL    MW4 2676   3.670   4.983   5.791 -0.0663 -0.0437 -0.1847
  728SOL     OW 2677   5.484   2.344   2.778  0.3186 -0.0473 -0.1233
  728SOL    HW2 2678   5.534   2.388   2.709 -0.4873 -0.4131 -0.9769
  728SOL    HW3 2679   5.520   2.255   2.780  0.1995 -0.0979 -0.2241
  728SOL    MW4 2680   5.495   2.338   2.769  0.1966 -0.1022 -0.2492
  729SOL     OW 2681   4.155   4.052   2.716 -0.0088  0.1487 -0.1693
  729SOL    HW2 2682   4.216   4.113   2.757  0.8836 -0.5154 -0.4739
  729SOL    HW3 2683   4.183   3.966   2.745  0.0588 -0.2756 -1.4059
  729SOL    MW4 2684   4.166   4.049   2.725  0.1179  0.0051 -0.3727
  730SOL     OW 2685   5.000   3.935   6.141 -0.5954  0.2117  0.1119
  730SOL    HW2 2686   4.985   3.841   6.135 -1.3959  0.3144  0.3375
  730SOL    HW3 2687   4.921   3.974   6.102  0.2645  0.7875 -1.1019
  730SOL    MW4 2688   4.987   3.928   6.135 -0.5875  0.3012 -0.0185
  731SOL     OW 2689   4.119   6.328   2.271 -0.2541 -0.1960 -0.0643
  731SOL    HW2 2690   4.211   6.319   2.297 -0.5046 -1.4670  0.4485
  731SOL    HW3 2691   4.106   6.258   2.207 -0.6842  0.4524 -0.7045
  731SOL    MW4 2692   4.130   6.318   2.266 -0.3439 -0.2782 -0.0811
  732SOL     OW 2693   0.191   5.592   5.864  0.0782 -0.0384  0.3463
  732SOL    HW2 2694   0.211   5.648   5.789 -1.3793  1.3282  0.9242
  732SOL    HW3 2695   0.137   5.522   5.829  1.4414 -0.8114 -0.2823
  732SOL    MW4 2696   0.186   5.590   5.850  0.0658  0.0399  0.3396
  733SOL     OW 2697   3.294   5.268   3.237  0.2250  0.1239 -0.4384
  733SOL    HW2 2698   3.208   5.228   3.222 -0.3200  0.6549  1.0579
  733SOL    HW3 2699   3.275   5.347   3.288  1.5802  0.4801 -0.4399
  733SOL    MW4 2700   3.280   5.273   3.242  0.3319  0.2410 -0.2412
  734SOL     OW 2701   3.134   1.576   1.368 -0.2455 -0.2640 -0.1374
  734SOL    HW2 2702   3.111   1.515   1.298  0.8745 -0.1999 -0.5748
  734SOL    HW3 2703   3.055   1.629   1.379  0.4709  1.7785 -3.4786
  734SOL    MW4 2704   3.120   1.575   1.360 -0.0032  0.0139 -0.6360
  735SOL     OW 2705   2.803   3.652   2.104 -0.2496 -0.0345  0.2400
  735SOL    HW2 2706   2.734   3.657   2.038 -0.2008  0.2844  0.2117
  735SOL    HW3 2707   2.759   3.623   2.184 -0.3643 -0.1098  0.1494
  735SOL    MW4 2708   2.788   3.649   2.106 -0.2583 -0.0024  0.2243
  736SOL     OW 2709   1.286   5.092   1.012  0.1063 -0.3961 -0.8277
  736SOL    HW2 2710   1.232   5.111   1.090 -1.6209 -1.6342 -1.6676
  736SOL    HW3 2711   1.306   4.999   1.019  1.5752 -0.1051 -0.9195
  736SOL    MW4 2712   1.281   5.082   1.024  0.0722 -0.5211 -0.9506
  737SOL     OW 2713   5.224   4.505   0.463  0.4728 -0.2561  0.2477
  737SOL    HW2 2714   5.161   4.434   0.457  0.1786  0.0248 -0.0128
  737SOL    HW3 2715   5.171   4.585   0.460  0.9054  0.0072 -1.0465
  737SOL    MW4 2716   5.209   4.506   0.462  0.4911 -0.1843  0.0426
  738SOL     OW 2717   0.920   2.787   2.648  0.4777 -0.3980  0.3007
  738SOL    HW2 2718   0.829   2.758   2.658  0.1122  0.2621 -0.9080
  738SOL    HW3 2719   0.941   2.829   2.731 -1.4642  2.3914 -0.4799
  738SOL    MW4 2720   0.911   2.789   2.660  0.1733  0.0571  0.0382
  739SOL     OW 2721   3.194   1.553   4.570  0.5720  0.1967 -0.1497
  739SOL    HW2 2722   3.118   1.534   4.626  1.5774  0.9589  1.5505
  739SOL    HW3 2723   3.270   1.530   4.625  1.6352  2.2578 -0.6740
  739SOL    MW4 2724   3.194   1.547   4.585  0.8449  0.5692  0.0054
  740SOL     OW 2725   5.184   3.452   6.399 -0.3659 -0.1238 -0.1898
  740SOL    HW2 2726   5.273   3.425   6.423  0.0347  0.3948 -1.0267
  740SOL    HW3 2727   5.197   3.523   6.336 -1.3570 -0.8600 -1.2766
  740SOL    MW4 2728   5.197   3.458   6.394 -0.4438 -0.1525 -0.4436
  741SOL     OW 2729   6.403   1.913   2.185  0.1881  0.6142 -0.3903
  741SOL    HW2 2730   6.386   1.820   2.193 -0.0323  0.6067 -0.9291
  741SOL    HW3 2731   6.458   1.934   2.261 -2.2992  0.6756  1.5042
  741SOL    MW4 2732   6.408   1.904   2.196 -0.1692  0.6213 -0.2114
  742SOL     OW 2733   5.955   2.611   5.663 -0.3764 -0.5183 -0.1861
  742SOL    HW2 2734   5.963   2.676   5.733  1.2223  0.0791 -0.8662
  742SOL    HW3 2735   5.907   2.538   5.703  0.2684 -0.0887  1.4620
  742SOL    MW4 2736   5.950   2.610   5.677 -0.0804 -0.3828 -0.0584
  743SOL     OW 2737   2.380   2.074   0.454 -0.3082  0.1418 -0.6054
  743SOL    HW2 2738   2.286   2.067   0.435 -0.6106  1.2817  0.3606
  743SOL    HW3 2739   2.414   2.133   0.386 -0.8403  1.9168  0.6081
  743SOL    MW4 2740   2.372   2.081   0.442 -0.4183  0.5264 -0.3178
  744SOL     OW 2741   0.035   0.934   4.760 -0.2712  0.6516  0.1380
  744SOL    HW2 2742  -0.004   0.869   4.819  1.7103 -0.4200  0.3489
  744SOL    HW3 2743   0.074   0.998   4.819 -1.0413  1.3219 -0.0657
  744SOL    MW4 2744   0.035   0.934   4.776 -0.1114  0.5987  0.1389
  745SOL     OW 2745   3.805   2.850   6.189  0.0792 -0.1535 -0.1192
  745SOL    HW2 2746   3.811   2.945   6.176  1.1792 -0.2556 -0.4051
  745SOL    HW3 2747   3.738   2.840   6.257 -0.4029  0.7916 -0.4289
  745SOL    MW4 2748   3.797   2.861   6.196  0.1607 -0.0423 -0.1978
  746SOL     OW 2749   6.390   0.941   0.488 -0.7183 -0.1866  0.1645
  746SOL    HW2 2750   6.358   0.931   0.398 -1.1438 -0.3243  0.3264
  746SOL    HW3 2751   6.313   0.924   0.543 -0.3077 -0.7826  0.5745
  746SOL    MW4 2752   6.375   0.938   0.483 -0.7202 -0.2834  0.2399
  747SOL     OW 2753   2.929   1.927   0.931  0.2223 -0.5956 -0.3185
  747SOL    HW2 2754   2.950   1.846   0.977  0.9459 -1.6054 -2.3089
  747SOL    HW3 2755   2.958   1.997   0.989  1.7463 -1.8225  0.4548
  747SOL    MW4 2756   2.935   1.926   0.944  0.5189 -0.8907 -0.4791
  748SOL     OW 2757   6.293   0.085   5.467 -0.2319  0.6496 -0.2931
  748SOL    HW2 2758   6.250   0.033   5.400  4.5253  0.5141 -3.8177
  748SOL    HW3 2759   6.349   0.023   5.514  1.1964  1.6107 -0.6340
  748SOL    MW4 2760   6.295   0.070   5.465  0.5842  0.7585 -0.8031
  749SOL     OW 2761   1.584   2.633   3.655 -0.6625 -0.0914  0.0843
  749SOL    HW2 2762   1.651   2.567   3.671  0.4229  1.0517  0.4574
  749SOL    HW3 2763   1.518   2.618   3.722 -0.2154 -0.5215  0.4318
  749SOL    MW4 2764   1.584   2.622   3.666 -0.4603  0.0027  0.1793
  750SOL     OW 2765   2.876   1.338   4.962 -0.1172  0.0296 -0.3860
  750SOL    HW2 2766   2.871   1.311   5.053 -1.2370  0.7980 -0.2011
  750SOL    HW3 2767   2.813   1.283   4.916  0.5018 -0.4150 -0.7344
  750SOL    MW4 2768   2.867   1.327   4.968 -0.1833  0.0723 -0.4076
  751SOL     OW 2769   5.615   1.677   3.936 -0.3190  0.5978 -0.8137
  751SOL    HW2 2770   5.686   1.624   3.973  1.0364  3.1231  0.5116
  751SOL    HW3 2771   5.536   1.647   3.982  0.0550 -1.3736 -1.3555
  751SOL    MW4 2772   5.614   1.666   3.947 -0.0908  0.6709 -0.7103
  752SOL     OW 2773   4.522   0.175   4.791 -0.2722 -0.4863  0.0531
  752SOL    HW2 2774   4.616   0.179   4.808 -0.6310  0.1123  2.2503
  752SOL    HW3 2775   4.515   0.147   4.700  2.0261  0.5657 -0.5175
  752SOL    MW4 2776   4.533   0.172   4.781 -0.0163 -0.2685  0.2677
  753SOL     OW 2777   5.586   3.223   6.074  0.0301 -0.1164 -0.6165
  753SOL    HW2 2778   5.523   3.261   6.012  1.8618  1.9580 -1.3402
  753SOL    HW3 2779   5.637   3.161   6.022 -0.5694 -0.8810 -0.3205
  753SOL    MW4 2780   5.584   3.220   6.059  0.1926  0.0564 -0.6729
  754SOL     OW 2781   1.978   4.909   1.702  0.0890  0.1932 -0.1123
  754SOL    HW2 2782   2.038   4.955   1.644  1.3316 -1.8362 -0.5445
  754SOL    HW3 2783   1.945   4.836   1.650  0.4406 -1.0840  1.3660
  754SOL    MW4 2784   1.982   4.905   1.688  0.2994 -0.2431  0.0257
  755SOL     OW 2785   2.322   1.588   1.571 -0.0269  0.3046 -0.7154
  755SOL    HW2 2786   2.348   1.509   1.618 -0.9478  2.3111  3.7536
  755SOL    HW3 2787   2.403   1.637   1.558  0.2078 -0.1378 -0.9201
  755SOL    MW4 2788   2.336   1.584   1.576 -0.1174  0.5109 -0.1528
  756SOL     OW 2789   4.382   3.841   0.530 -0.2390 -0.5146 -0.0330
  756SOL    HW2 2790   4.402   3.916   0.474 -1.0708 -0.2288  0.0490
  756SOL    HW3 2791   4.360   3.770   0.470 -0.0313 -0.5294 -0.0928
  756SOL    MW4 2792   4.382   3.841   0.515 -0.3213 -0.4788 -0.0301
  757SOL     OW 2793   0.798   1.830   2.020  0.4510 -0.9077 -0.9107
  757SOL    HW2 2794   0.726   1.785   1.977 -0.4465 -1.1234  0.7373
  757SOL    HW3 2795   0.808   1.912   1.971  0.1698 -1.5894 -2.1392
  757SOL    MW4 2796   0.790   1.835   2.008  0.2955 -1.0261 -0.8553
  758SOL     OW 2797   1.300   0.395   1.890  0.0622 -0.4356 -0.3959
  758SOL    HW2 2798   1.301   0.301   1.871  0.0947 -0.2657 -1.3006
  758SOL    HW3 2799   1.273   0.435   1.808  2.9738  0.5530 -1.0211
  758SOL    MW4 2800   1.297   0.388   1.877  0.4507 -0.2828 -0.5978
  759SOL     OW 2801   6.065   0.673   0.458  0.5368  1.0467  0.8129
  759SOL    HW2 2802   6.052   0.695   0.366  1.0655 -0.4195  0.3527
  759SOL    HW3 2803   6.002   0.604   0.476  0.5181  1.2362  1.5191
  759SOL    MW4 2804   6.055   0.667   0.449  0.6041  0.8783  0.8454
  760SOL     OW 2805   5.944   2.269   6.221 -1.3381  0.2113  0.0297
  760SOL    HW2 2806   5.985   2.355   6.220 -1.3541  0.2150 -0.6719
  760SOL    HW3 2807   5.851   2.286   6.234 -1.3317  0.2998 -0.0396
  760SOL    MW4 2808   5.937   2.282   6.222 -1.3394  0.2235 -0.0720
  761SOL     OW 2809   6.378   3.153   4.645  0.2623 -0.4193  1.1490
  761SOL    HW2 2810   6.293   3.109   4.637  0.3691 -0.6399  1.2138
  761SOL    HW3 2811   6.360   3.230   4.700 -0.1405  0.2095  0.1527
  761SOL    MW4 2812   6.364   3.157   4.652  0.2232 -0.3654  1.0261
  762SOL     OW 2813   0.079   0.963   3.884  0.5149 -0.0857 -0.1272
  762SOL    HW2 2814   0.101   1.041   3.834  0.2038  0.0964  0.0178
  762SOL    HW3 2815   0.000   0.928   3.843 -0.2410  0.5417  0.7349
  762SOL    MW4 2816   0.072   0.969   3.872  0.3741  0.0211  0.0056
  763SOL     OW 2817   0.997   0.916   2.187 -0.0771  0.3250  0.3051
  763SOL    HW2 2818   0.945   0.994   2.207  0.4191  0.7138  0.1026
  763SOL    HW3 2819   0.961   0.848   2.244 -0.7941  0.5905  0.1775
  763SOL    MW4 2820   0.985   0.917   2.197 -0.1062  0.4113  0.2616
  764SOL     OW 2821   2.863   0.711   4.189 -0.0369 -0.1288  0.5849
  764SOL    HW2 2822   2.843   0.804   4.179 -0.4724 -0.2104  0.6651
  764SOL    HW3 2823   2.946   0.710   4.237 -0.3555  0.2127  1.1554
  764SOL    MW4 2824   2.871   0.723   4.194 -0.1364 -0.0945  0.6707
  765SOL     OW 2825   2.890   6.179   4.046 -0.1258 -0.1972  0.3080
  765SOL    HW2 2826   2.979   6.206   4.069 -0.3312 -0.3737  1.3638
  765SOL    HW3 2827   2.892   6.170   3.951  0.6282  1.0712  0.1745
  765SOL    MW4 2828   2.902   6.182   4.037 -0.0534 -0.0532  0.4297
  766SOL     OW 2829   4.692   1.618   5.412  0.1638 -0.0219 -0.6472
  766SOL    HW2 2830   4.619   1.643   5.356  0.3026  0.5553 -0.5798
  766SOL    HW3 2831   4.690   1.523   5.414 -0.2296 -0.0256 -1.1206
  766SOL    MW4 2832   4.682   1.609   5.405  0.1302  0.0538 -0.7008
  767SOL     OW 2833   5.826   5.826   2.910  0.4555  0.1773  0.0125
  767SOL    HW2 2834   5.817   5.905   2.856 -0.5138  0.8799  1.1688
  767SOL    HW3 2835   5.896   5.776   2.867 -0.4296  0.5918 -2.0240
  767SOL    MW4 2836   5.834   5.829   2.897  0.2109  0.3247 -0.1037
  768SOL     OW 2837   1.945   4.292   2.784  0.2663 -0.1721  0.4675
  768SOL    HW2 2838   1.872   4.306   2.845 -0.3845  1.2643 -0.5600
  768SOL    HW3 2839   1.912   4.326   2.700  1.6044 -0.8616 -0.3635
  768SOL    MW4 2840   1.931   4.299   2.781  0.3570 -0.0736  0.2223
  769SOL     OW 2841   4.888   5.695   6.322 -0.4524 -0.1258 -0.0176
  769SOL    HW2 2842   4.947   5.687   6.396  0.0595 -0.6700 -0.4775
  769SOL    HW3 2843   4.888   5.788   6.301 -0.3362 -0.0199  0.4535
  769SOL    MW4 2844   4.896   5.706   6.329 -0.3695 -0.1836 -0.0161
  770SOL     OW 2845   4.198   4.821   2.328 -0.6065 -0.2474 -0.4561
  770SOL    HW2 2846   4.222   4.900   2.377 -1.7798  0.8097 -1.5076
  770SOL    HW3 2847   4.113   4.796   2.363 -0.4803 -0.7408 -0.4938
  770SOL    MW4 2848   4.190   4.828   2.339 -0.7447 -0.1730 -0.5998
  771SOL     OW 2849   0.951   1.824   5.162  0.2222 -0.2123  0.1342
  771SOL    HW2 2850   0.991   1.811   5.248  0.1173  0.3726  0.2780
  771SOL    HW3 2851   0.859   1.846   5.181  0.5500  1.4534 -0.0307
  771SOL    MW4 2852   0.944   1.825   5.176  0.2516  0.0846  0.1314
  772SOL     OW 2853   0.381   2.458   3.833 -0.0663 -0.1297  0.4255
  772SOL    HW2 2854   0.451   2.393   3.836  0.2053  0.1528  0.2970
  772SOL    HW3 2855   0.331   2.443   3.913 -0.3282 -0.8472  0.1398
  772SOL    MW4 2856   0.384   2.447   3.844 -0.0650 -0.1871  0.3708
  773SOL     OW 2857   3.856   5.502   0.694  0.2268  0.6492  0.5631
  773SOL    HW2 2858   3.909   5.528   0.769  0.9895 -1.2351  0.7130
  773SOL    HW3 2859   3.833   5.411   0.710  0.9472 -0.0208 -1.7749
  773SOL    MW4 2860   3.860   5.494   0.706  0.4225  0.3122  0.2744
  774SOL     OW 2861   5.507   4.228   2.650  0.4817 -0.3136  0.4871
  774SOL    HW2 2862   5.539   4.318   2.645  1.1256 -0.5547  0.1287
  774SOL    HW3 2863   5.416   4.233   2.621  0.9980 -0.0137 -1.2297
  774SOL    MW4 2864   5.499   4.240   2.645  0.6348 -0.3058  0.2133
  775SOL     OW 2865   3.434   3.713   0.490 -0.0121  0.4629  0.4744
  775SOL    HW2 2866   3.357   3.726   0.435 -0.9138  0.3392  1.6644
  775SOL    HW3 2867   3.507   3.746   0.438 -0.5811 -1.0683 -1.4483
  775SOL    MW4 2868   3.433   3.719   0.476 -0.2061  0.2446  0.3777
  776SOL     OW 2869   5.064   2.566   2.865  0.4729 -0.1731 -0.0524
  776SOL    HW2 2870   5.135   2.628   2.882  1.0899 -0.9473  0.2482
  776SOL    HW3 2871   5.104   2.497   2.812 -0.3648 -0.0035 -0.9416
  776SOL    MW4 2872   5.079   2.565   2.860  0.4438 -0.2528 -0.1300
  777SOL     OW 2873   4.809   2.601   3.157 -0.5696  0.4440  0.4454
  777SOL    HW2 2874   4.858   2.680   3.135  0.0832  0.0400  0.4190
  777SOL    HW3 2875   4.875   2.532   3.159 -1.2670 -0.2753 -0.4923
  777SOL    MW4 2876   4.824   2.602   3.154 -0.5755  0.2958  0.3182
  778SOL     OW 2877   1.135   2.673   4.582 -0.1825  0.1334  0.0846
  778SOL    HW2 2878   1.114   2.622   4.660  0.0514 -1.5509 -0.9150
  778SOL    HW3 2879   1.105   2.762   4.603 -1.6405 -0.6322  1.4428
  778SOL    MW4 2880   1.128   2.678   4.595 -0.3440 -0.1899  0.1319
  779SOL     OW 2881   0.632   0.497   1.715 -0.3157  0.1902 -0.3255
  779SOL    HW2 2882   0.649   0.448   1.635 -2.6920  1.5777 -1.7801
  779SOL    HW3 2883   0.705   0.558   1.722  1.4886 -1.9147  0.2883
  779SOL    MW4 2884   0.644   0.498   1.706 -0.3912  0.0956 -0.4365
  780SOL     OW 2885   4.230   1.163   0.879  0.5672  0.6915 -0.5758
  780SOL    HW2 2886   4.151   1.115   0.903  1.9392 -1.1586  0.6678
  780SOL    HW3 2887   4.243   1.144   0.786 -0.0013  0.3217 -0.5827
  780SOL    MW4 2888   4.222   1.154   0.870  0.6732  0.3986 -0.4127
  781SOL     OW 2889   3.095   0.553   1.058 -0.0411 -0.1158 -0.1863
  781SOL    HW2 2890   3.191   0.559   1.051 -0.0250 -0.5504 -0.3977
  781SOL    HW3 2891   3.063   0.631   1.014  0.2005 -0.3616 -0.8190
  781SOL    MW4 2892   3.104   0.564   1.051 -0.0071 -0.2055 -0.2977
  782SOL     OW 2893   6.298   1.788   5.041 -0.1435  0.3276  0.1850
  782SOL    HW2 2894   6.281   1.780   4.947  0.7763  2.9099 -0.2891
  782SOL    HW3 2895   6.353   1.712   5.061  0.8861  0.4905 -1.7193
  782SOL    MW4 2896   6.303   1.777   5.031  0.1137  0.6898 -0.1288
  783SOL     OW 2897   4.314   1.398   5.408  0.2070 -0.4203  0.1215
  783SOL    HW2 2898   4.300   1.422   5.317 -0.5890 -0.5056  0.2149
  783SOL    HW3 2899   4.372   1.322   5.405  0.5755 -0.1291 -0.2863
  783SOL    MW4 2900   4.320   1.391   5.396  0.1506 -0.3931  0.0800
  784SOL     OW 2901   2.426   3.694   4.254 -0.4416 -0.5286  0.2253
  784SOL    HW2 2902   2.464   3.759   4.312 -1.1760 -1.0975  1.3758
  784SOL    HW3 2903   2.340   3.675   4.291 -0.4590 -1.7634 -0.3746
  784SOL    MW4 2904   2.420   3.700   4.266 -0.5408 -0.7666  0.2979
  785SOL     OW 2905   0.554   1.869   5.561  0.5627  0.4848 -0.5569
  785SOL    HW2 2906   0.628   1.915   5.522  1.1440  0.4163  0.4276
  785SOL    HW3 2907   0.592   1.790   5.599  0.2336  1.0988  1.1335
  785SOL    MW4 2908   0.569   1.865   5.561  0.5960  0.5568 -0.2040
  786SOL     OW 2909   1.834   1.466   5.591 -0.4969 -0.0266  0.5757
  786SOL    HW2 2910   1.901   1.493   5.654 -0.9597  1.0556  0.6241
  786SOL    HW3 2911   1.870   1.387   5.550  0.8873  0.6212  0.4802
  786SOL    MW4 2912   1.847   1.459   5.594 -0.3753  0.2017  0.5695
  787SOL     OW 2913   4.258   0.574   0.692 -0.1639  0.0367 -0.2841
  787SOL    HW2 2914   4.270   0.596   0.784 -0.0524  0.1193 -0.3192
  787SOL    HW3 2915   4.173   0.612   0.670 -1.7916 -2.7079  0.6538
  787SOL    MW4 2916   4.248   0.582   0.701 -0.3639 -0.3145 -0.1650
  788SOL     OW 2917   5.592   6.278   1.916  0.0377 -0.5805 -0.1504
  788SOL    HW2 2918   5.639   6.196   1.930  0.6051 -0.2943 -0.3656
  788SOL    HW3 2919   5.515   6.271   1.972  1.0316 -0.4619  1.2876
  788SOL    MW4 2920   5.588   6.266   1.925  0.2437 -0.5271  0.0110
  789SOL     OW 2921   0.167   1.950   3.034 -0.3453  0.0959  0.1133
  789SOL    HW2 2922   0.243   1.893   3.021 -0.2556  0.4357 -0.9836
  789SOL    HW3 2923   0.198   2.020   3.090 -0.2414 -0.5113  0.8251
  789SOL    MW4 2924   0.181   1.951   3.040 -0.3197  0.0606  0.0625
  790SOL     OW 2925   5.455   0.784   6.065 -0.0879 -0.0011  0.2576
  790SOL    HW2 2926   5.405   0.766   6.144  1.4650 -1.7080  0.9361
  790SOL    HW3 2927   5.490   0.872   6.077  1.1267 -0.6675  2.1045
  790SOL    MW4 2928   5.453   0.793   6.077  0.2773 -0.3142  0.5908
  791SOL     OW 2929   5.630   3.314   2.529 -0.2426 -0.1087 -0.0890
  791SOL    HW2 2930   5.653   3.355   2.612  0.6518  0.2289 -0.4943
  791SOL    HW3 2931   5.590   3.231   2.553  1.1075 -0.5582  0.6490
  791SOL    MW4 2932   5.628   3.309   2.543  0.0535 -0.1235 -0.0451
  792SOL     OW 2933   4.040   4.904   0.766 -0.3435  0.1160 -0.1586
  792SOL    HW2 2934   4.078   4.821   0.794 -0.7501 -0.0100  0.0203
  792SOL    HW3 2935   4.020   4.891   0.673  1.1917  0.6027 -0.5949
  792SOL    MW4 2936   4.042   4.892   0.757 -0.1946  0.1636 -0.1926
  793SOL     OW 2937   3.985   1.011   0.954 -0.0089 -0.2072  0.3017
  793SOL    HW2 2938   3.915   1.066   0.987  0.3883  0.1280  0.5915
  793SOL    HW3 2939   4.027   0.975   1.032  0.6633  0.2511  0.1603
  793SOL    MW4 2940   3.981   1.013   0.968  0.1322 -0.1025  0.3212
  794SOL     OW 2941   4.346  -0.031   0.106 -0.7321 -0.3933 -0.2013
  794SOL    HW2 2942   4.332  -0.096   0.037 -0.6238  1.2117 -1.7898
  794SOL    HW3 2943   4.425   0.016   0.079 -0.4205 -0.0229  1.2755
  794SOL    MW4 2944   4.355  -0.033   0.094 -0.6767 -0.1327 -0.2160
  795SOL     OW 2945   2.234   5.662   6.115 -0.5290 -0.6350  0.3758
  795SOL    HW2 2946   2.295   5.729   6.084  0.1138 -0.2245  2.3416
  795SOL    HW3 2947   2.246   5.589   6.055 -0.7254  0.7144 -1.4006
  795SOL    MW4 2948   2.244   5.662   6.103 -0.4701 -0.4028  0.4008
  796SOL     OW 2949   2.766   4.840   5.571 -0.4164  0.4919  0.1250
  796SOL    HW2 2950   2.791   4.750   5.591 -0.1488 -0.0684 -2.4506
  796SOL    HW3 2951   2.683   4.852   5.617 -1.2026 -1.5920 -0.6230
  796SOL    MW4 2952   2.758   4.830   5.580 -0.4848  0.1430 -0.3135
  797SOL     OW 2953   5.077   4.746   0.351  0.6905 -0.2521 -0.3257
  797SOL    HW2 2954   5.019   4.722   0.279  2.3745 -2.1419 -1.1549
  797SOL    HW3 2955   5.129   4.818   0.315 -0.6705  1.0615  0.2251
  797SOL    MW4 2956   5.076   4.753   0.336  0.7331 -0.3281 -0.3624
  798SOL     OW 2957   5.402   3.233   2.186 -0.0873 -0.1760 -0.4836
  798SOL    HW2 2958   5.358   3.199   2.108 -2.3152 -0.6944  0.8965
  798SOL    HW3 2959   5.330   3.263   2.243  1.5758  3.3652  0.0021
  798SOL    MW4 2960   5.387   3.233   2.184 -0.1618  0.2229 -0.2374
  799SOL     OW 2961   5.646   0.288   1.685  0.6671 -0.1692 -0.2754
  799SOL    HW2 2962   5.705   0.336   1.742  0.6624  0.8929 -1.1316
  799SOL    HW3 2963   5.682   0.199   1.682  1.1919  0.0069  0.6159
  799SOL    MW4 2964   5.658   0.282   1.692  0.7357 -0.0058 -0.2708
  800SOL     OW 2965   3.806   4.759   1.096  0.2128  0.6413 -1.2074
  800SOL    HW2 2966   3.843   4.764   1.184 -0.9263  0.5516 -0.7063
  800SOL    HW3 2967   3.724   4.710   1.107  0.0962  0.5619 -2.3290
  800SOL    MW4 2968   3.800   4.753   1.109  0.0471  0.6190 -1.2893
  801SOL     OW 2969   6.010   4.153   0.300  0.3307 -0.6264  0.2689
  801SOL    HW2 2970   5.927   4.151   0.349  0.3147  1.7564  0.4534
  801SOL    HW3 2971   5.983   4.168   0.210  0.5301 -0.3651  0.2530
  801SOL    MW4 2972   5.995   4.155   0.295  0.3549 -0.2775  0.2911
  802SOL     OW 2973   4.037   1.270   3.461 -1.1240 -0.7993 -0.1645
  802SOL    HW2 2974   4.119   1.288   3.416 -1.2355  1.3854  0.3620
  802SOL    HW3 2975   3.977   1.243   3.391  0.0264 -2.5571 -0.5308
  802SOL    MW4 2976   4.040   1.269   3.446 -0.9869 -0.7430 -0.1434
  803SOL     OW 2977   5.001   1.493   3.547  0.4390 -0.4028 -0.4248
  803SOL    HW2 2978   5.080   1.538   3.576 -1.5311  2.1294  1.5026
  803SOL    HW3 2979   4.981   1.431   3.617  0.7655 -1.1429 -0.9749
  803SOL    MW4 2980   5.008   1.491   3.560  0.2221 -0.1663 -0.2431
  804SOL     OW 2981   4.682   4.263   4.799  0.0978  0.2542  0.4901
  804SOL    HW2 2982   4.689   4.191   4.736 -1.9737 -0.3540  0.8732
  804SOL    HW3 2983   4.674   4.341   4.745  0.1101 -0.0647  0.0231
  804SOL    MW4 2984   4.682   4.264   4.784 -0.1739  0.1319  0.4790
  805SOL     OW 2985   3.704   3.882   0.642  0.7562 -0.4768 -0.4304
  805SOL    HW2 2986   3.757   3.816   0.686  2.5176 -0.4411 -2.3480
  805SOL    HW3 2987   3.637   3.905   0.706  0.3848 -3.6822  0.5127
  805SOL    MW4 2988   3.702   3.877   0.657  0.9396 -0.8950 -0.5590
  806SOL     OW 2989   1.790   5.106   2.209  0.4325 -0.1320 -0.0103
  806SOL    HW2 2990   1.804   5.134   2.299  0.6239 -0.2992  0.0127
  806SOL    HW3 2991   1.710   5.054   2.212 -0.1557  0.7361 -0.1219
  806SOL    MW4 2992   1.782   5.103   2.221  0.3802 -0.0395 -0.0220
  807SOL     OW 2993   1.539   6.352   0.736 -0.4746 -0.2271  0.4283
  807SOL    HW2 2994   1.547   6.362   0.831  0.7279  0.7596  0.2524
  807SOL    HW3 2995   1.619   6.390   0.702 -1.4539  0.5737 -1.0628
  807SOL    MW4 2996   1.551   6.358   0.744 -0.4451  0.0088  0.2083
  808SOL     OW 2997   3.134   2.865   5.290  0.2924  0.5298  0.2982
  808SOL    HW2 2998   3.181   2.850   5.372  0.0141  1.5746  0.6667
  808SOL    HW3 2999   3.103   2.955   5.296 -1.9889 -0.1912  0.1708
  808SOL    MW4 3000   3.136   2.875   5.301 -0.0453  0.5725  0.3300
  809SOL     OW 3001   1.905   2.211   3.500 -0.1925 -0.2886 -0.0657
  809SOL    HW2 3002   1.913   2.170   3.586 -0.4293 -0.2251 -0.0126
  809SOL    HW3 3003   1.869   2.143   3.444 -0.0204 -0.3353 -0.1182
  809SOL    MW4 3004   1.901   2.197   3.504 -0.2010 -0.2864 -0.0656
  810SOL     OW 3005   5.367   2.312   4.304 -0.0032  1.1283 -0.4897
  810SOL    HW2 3006   5.451   2.350   4.332 -0.7675  2.3836  0.1888
  810SOL    HW3 3007   5.390   2.253   4.233  1.4929  1.2520 -0.1439
  810SOL    MW4 3008   5.381   2.309   4.298  0.0933  1.3102 -0.3545
  811SOL     OW 3009   6.151   0.945   5.503  0.0135  0.4008  0.3649
  811SOL    HW2 3010   6.113   0.931   5.417 -0.4330  2.3602  0.1807
  811SOL    HW3 3011   6.203   1.025   5.493  1.0589 -0.0925  1.5797
  811SOL    MW4 3012   6.153   0.954   5.490  0.0925  0.5943  0.5009
  812SOL     OW 3013   1.907   3.654   4.381  0.6587 -0.4717 -0.1115
  812SOL    HW2 3014   1.880   3.716   4.313 -0.2880  0.1443  0.7895
  812SOL    HW3 3015   1.988   3.616   4.348 -1.1162 -2.1837 -2.8169
  812SOL    MW4 3016   1.914   3.657   4.368  0.2996 -0.6163 -0.3495
  813SOL     OW 3017   3.039   5.469   0.511 -0.3670 -0.7985 -0.0201
  813SOL    HW2 3018   3.068   5.498   0.425  1.1888  0.9003  1.0054
  813SOL    HW3 3019   2.950   5.504   0.519 -0.4139 -0.7186 -0.8228
  813SOL    MW4 3020   3.031   5.477   0.501 -0.1679 -0.5638  0.0093
  814SOL     OW 3021   4.968   3.555   4.427  0.0347  0.1805 -0.2417
  814SOL    HW2 3022   4.965   3.510   4.343  2.3284  0.3112 -0.4550
  814SOL    HW3 3023   4.916   3.635   4.413 -0.3348 -0.2182 -1.2439
  814SOL    MW4 3024   4.960   3.560   4.414  0.2886  0.1452 -0.4021
  815SOL     OW 3025   0.647   1.839   6.383 -0.3989 -0.1342  0.3199
  815SOL    HW2 3026   0.659   1.747   6.358 -0.0180 -0.2299  0.8536
  815SOL    HW3 3027   0.728   1.882   6.354 -0.5182  0.0105  0.1976
  815SOL    MW4 3028   0.659   1.833   6.376 -0.3644 -0.1278  0.3742
  816SOL     OW 3029   1.346   3.740   4.824 -0.0601 -0.1960  0.0482
  816SOL    HW2 3030   1.426   3.687   4.817  0.6165  0.6991  0.7679
  816SOL    HW3 3031   1.350   3.799   4.748  0.0547 -0.0276  0.1852
  816SOL    MW4 3032   1.357   3.741   4.813  0.0443 -0.0557  0.1612
  817SOL     OW 3033   1.516   4.563   0.060 -0.0134  0.3145 -0.7428
  817SOL    HW2 3034   1.430   4.530   0.036  0.2314 -1.5245  0.7387
  817SOL    HW3 3035   1.577   4.519   0.001  0.2407 -1.5037  0.7709
  817SOL    MW4 3036   1.513   4.553   0.049  0.0524 -0.1680 -0.3476
  818SOL     OW 3037   0.475   1.943   1.765  0.3640 -0.0130 -0.3136
  818SOL    HW2 3038   0.444   1.889   1.692  3.8212 -1.1689 -1.1398
  818SOL    HW3 3039   0.401   1.948   1.825 -1.4549 -2.1403 -2.2195
  818SOL    MW4 3040   0.461   1.936   1.764  0.5801 -0.4461 -0.6741
  819SOL     OW 3041   2.339   2.597   4.167 -0.3318 -0.1665  0.2492
  819SOL    HW2 3042   2.283   2.627   4.095 -0.2151  1.3316  0.7483
  819SOL    HW3 3043   2.294   2.625   4.246  1.1196  1.1431  0.6606
  819SOL    MW4 3044   2.325   2.604   4.168 -0.1249  0.2040  0.3693
  820SOL     OW 3045   5.463   1.391   3.808 -0.0839 -0.2089 -0.1002
  820SOL    HW2 3046   5.538   1.440   3.775  1.5940 -1.0162  2.1651
  820SOL    HW3 3047   5.473   1.304   3.770 -0.8529  0.1286 -1.0997
  820SOL    MW4 3048   5.475   1.386   3.799  0.0360 -0.2709  0.0668
  821SOL     OW 3049   6.121   1.978   2.993  0.2381  0.2449 -0.1894
  821SOL    HW2 3050   6.179   1.930   3.052  0.1019  1.0111  0.5968
  821SOL    HW3 3051   6.068   1.911   2.951  0.5899 -0.3461  0.3005
  821SOL    MW4 3052   6.121   1.963   2.995  0.2666  0.2680 -0.0211
  822SOL     OW 3053   5.303   2.295   0.844 -0.1613  1.2484 -0.0587
  822SOL    HW2 3054   5.311   2.282   0.938 -1.4626 -1.2842 -0.2134
  822SOL    HW3 3055   5.211   2.276   0.825  0.4794 -0.1317 -2.0656
  822SOL    MW4 3056   5.292   2.291   0.853 -0.2485  0.7321 -0.3439
  823SOL     OW 3057   4.668   2.447   5.717  0.3307 -0.1960  0.1677
  823SOL    HW2 3058   4.672   2.542   5.701 -0.3993 -0.0275  0.9194
  823SOL    HW3 3059   4.637   2.439   5.807  0.5871 -1.1565  0.1800
  823SOL    MW4 3060   4.664   2.459   5.727  0.2682 -0.3005  0.2685
  824SOL     OW 3061   4.034   1.399   4.089  1.2279  0.8107  0.2710
  824SOL    HW2 3062   4.115   1.437   4.123  1.1155 -1.3673  3.3912
  824SOL    HW3 3063   3.987   1.368   4.167 -2.0252  0.7976 -1.5174
  824SOL    MW4 3064   4.039   1.400   4.104  0.7839  0.5216  0.4467
  825SOL     OW 3065   6.177   5.147   1.389 -0.0540  0.2106  0.2337
  825SOL    HW2 3066   6.124   5.209   1.340 -0.1781 -0.1575 -0.1043
  825SOL    HW3 3067   6.130   5.064   1.382  0.3696 -0.0365  0.2496
  825SOL    MW4 3068   6.164   5.144   1.382 -0.0145  0.1294  0.1912
  826SOL     OW 3069   2.545   5.664   1.942  0.3622  0.4799  0.0820
  826SOL    HW2 3070   2.545   5.590   2.003 -0.5512 -1.3313 -1.9679
  826SOL    HW3 3071   2.470   5.648   1.885  0.6642  2.5524 -1.0086
  826SOL    MW4 3072   2.535   5.652   1.943  0.2816  0.5144 -0.3324
  827SOL     OW 3073   2.882   2.829   2.900 -0.2282  0.3515 -0.0009
  827SOL    HW2 3074   2.971   2.800   2.880 -0.4241  0.2637 -0.7805
  827SOL    HW3 3075   2.862   2.790   2.985  0.2470 -0.1503 -0.1168
  827SOL    MW4 3076   2.891   2.820   2.909 -0.1914  0.2737 -0.1190
  828SOL     OW 3077   6.211   0.885   1.856  0.3170 -0.4690  0.1871
  828SOL    HW2 3078   6.262   0.961   1.829  1.3997 -0.8682  1.0581
  828SOL    HW3 3079   6.192   0.899   1.949 -1.2174 -0.3190 -0.1090
  828SOL    MW4 3080   6.215   0.897   1.864  0.2574 -0.5019  0.2629
  829SOL     OW 3081   0.564   6.115   5.433 -0.2963 -0.1487 -0.2335
  829SOL    HW2 3082   0.659   6.113   5.423 -0.3082  0.1387 -0.4045
  829SOL    HW3 3083   0.536   6.192   5.384 -0.4616  0.6959  1.1543
  829SOL    MW4 3084   0.573   6.125   5.425 -0.3197  0.0006 -0.0730
  830SOL     OW 3085   1.202   1.071   4.637 -0.2414 -0.0043  0.6178
  830SOL    HW2 3086   1.123   1.123   4.620 -0.7903 -0.7500  0.8504
  830SOL    HW3 3087   1.207   1.066   4.732 -0.4982 -0.8376  0.5890
  830SOL    MW4 3088   1.192   1.077   4.647 -0.3477 -0.2127  0.6447
  831SOL     OW 3089   5.883   0.676   1.562 -0.5836 -0.2711 -0.5129
  831SOL    HW2 3090   5.887   0.734   1.639  1.4364  0.5249 -1.1611
  831SOL    HW3 3091   5.789   0.666   1.545 -1.1177 -0.6872  2.1869
  831SOL    MW4 3092   5.871   0.683   1.570 -0.3875 -0.2210 -0.2423
  832SOL     OW 3093   3.644  -0.041   3.543  0.1201 -0.6403 -0.5206
  832SOL    HW2 3094   3.655   0.053   3.528  0.3957 -0.6413 -0.3391
  832SOL    HW3 3095   3.565  -0.048   3.596  0.0303 -0.5202 -0.6363
  832SOL    MW4 3096   3.635  -0.029   3.548  0.1446 -0.6246 -0.5119
  833SOL     OW 3097   5.900   3.487   2.637  0.2183 -0.2154  0.2076
  833SOL    HW2 3098   5.954   3.410   2.618 -0.7819 -1.0914  0.8421
  833SOL    HW3 3099   5.960   3.548   2.680  0.7133 -1.1855  0.9409
  833SOL    MW4 3100   5.915   3.485   2.640  0.1517 -0.4589  0.3881
  834SOL     OW 3101   5.620   1.631   4.734 -0.7893  0.0440 -0.5383
  834SOL    HW2 3102   5.634   1.604   4.644 -0.3536 -0.6716 -0.2625
  834SOL    HW3 3103   5.538   1.682   4.731 -0.2218  0.9401 -1.4973
  834SOL    MW4 3104   5.611   1.634   4.722 -0.6570  0.0679 -0.6284
  835SOL     OW 3105   5.775   1.874   2.663  0.1475  0.0103  0.9705
  835SOL    HW2 3106   5.725   1.797   2.634  1.1348 -0.9146  1.6588
  835SOL    HW3 3107   5.851   1.838   2.709  0.5913  1.4056  1.3878
  835SOL    MW4 3108   5.778   1.859   2.666  0.3363  0.0724  1.1164
  836SOL     OW 3109   2.109   4.017   3.365  0.4738 -0.4989  0.3788
  836SOL    HW2 3110   2.146   4.083   3.306  2.0086  0.0791  1.9300
  836SOL    HW3 3111   2.176   3.949   3.370 -0.0791 -1.0334  0.6725
  836SOL    MW4 3112   2.123   4.017   3.358  0.6034 -0.4932  0.6222
  837SOL     OW 3113   4.050   0.582   2.239  0.0659 -0.0852  0.8545
  837SOL    HW2 3114   3.981   0.637   2.277  0.6409  0.1601  1.5443
  837SOL    HW3 3115   4.003   0.504   2.207 -0.9352  1.2148 -1.0971
  837SOL    MW4 3116   4.034   0.579   2.240  0.0097  0.1187  0.6880
  838SOL     OW 3117   2.923   4.648   6.281 -0.3556 -0.4585 -0.6573
  838SOL    HW2 3118   2.841   4.601   6.263 -0.2953 -0.4835 -0.8672
  838SOL    HW3 3119   2.906   4.737   6.251 -0.2750 -0.4859 -0.7832
  838SOL    MW4 3120   2.910   4.654   6.275 -0.3370 -0.4654 -0.7016
  839SOL     OW 3121   1.669   2.165   2.852  0.0352  0.3646  0.1413
  839SOL    HW2 3122   1.678   2.260   2.852  0.0071  0.4024 -1.5563
  839SOL    HW3 3123   1.732   2.135   2.787 -0.9631 -0.6421 -0.4030
  839SOL    MW4 3124   1.678   2.174   2.843 -0.1002  0.2368 -0.1545
  840SOL     OW 3125   5.368   5.031   0.916  0.2866 -0.1424 -0.2456
  840SOL    HW2 3126   5.301   5.061   0.854 -0.9569 -1.3061  0.4854
  840SOL    HW3 3127   5.355   5.086   0.994 -0.3366 -0.8708  0.1738
  840SOL    MW4 3128   5.358   5.043   0.918  0.0403 -0.3920 -0.0938
  841SOL     OW 3129   0.119   1.557   6.428  0.2044 -0.0272 -0.1793
  841SOL    HW2 3130   0.214   1.551   6.443  0.9255  2.4202 -2.8070
  841SOL    HW3 3131   0.099   1.649   6.441 -1.9584 -0.5657  0.6828
  841SOL    MW4 3132   0.129   1.568   6.432  0.0142  0.2246 -0.4122
  842SOL     OW 3133   3.797   3.610   4.332 -0.9492 -0.5805 -0.0344
  842SOL    HW2 3134   3.815   3.686   4.389  1.2540 -1.7674  0.9995
  842SOL    HW3 3135   3.883   3.569   4.321 -1.5326 -1.1970 -3.1676
  842SOL    MW4 3136   3.811   3.615   4.338 -0.7354 -0.8184 -0.3114
  843SOL     OW 3137   3.684   5.593   2.946  0.3114  0.3539 -0.4081
  843SOL    HW2 3138   3.739   5.521   2.916 -1.5341 -1.6314  0.6227
  843SOL    HW3 3139   3.595   5.564   2.927 -0.6031  1.5448  1.7090
  843SOL    MW4 3140   3.679   5.580   2.940 -0.0527  0.2491  0.0072
  844SOL     OW 3141   5.384   4.056   1.339 -0.4884  0.0082  0.0842
  844SOL    HW2 3142   5.354   4.115   1.408  0.0802  0.8296 -0.3520
  844SOL    HW3 3143   5.362   3.968   1.370 -0.9070  0.4210  0.9645
  844SOL    MW4 3144   5.377   4.052   1.352 -0.4686  0.1710  0.1428
  845SOL     OW 3145   2.292   5.368   4.524  0.3229  0.5434 -0.1922
  845SOL    HW2 3146   2.201   5.396   4.532  0.4339  0.7654  0.3238
  845SOL    HW3 3147   2.326   5.418   4.449 -0.4416 -0.7928 -1.4899
  845SOL    MW4 3148   2.285   5.379   4.515  0.2366  0.3964 -0.2953
  846SOL     OW 3149   6.021   5.985   5.898  0.1493 -0.3210  0.3970
  846SOL    HW2 3150   5.963   5.975   5.822  1.3779  0.8010 -0.7574
  846SOL    HW3 3151   5.975   6.046   5.956  0.2421  0.7810 -0.6354
  846SOL    MW4 3152   6.008   5.992   5.895  0.3236 -0.0275  0.1085
  847SOL     OW 3153   4.663   4.248   1.315  0.1485  0.2710  0.2301
  847SOL    HW2 3154   4.687   4.280   1.402 -1.2580 -0.4890  0.9256
  847SOL    HW3 3155   4.575   4.212   1.325  0.1005 -0.1900 -1.4253
  847SOL    MW4 3156   4.655   4.247   1.328 -0.0434  0.1099  0.1035
  848SOL     OW 3157   6.415   5.973   5.531 -0.0977 -0.1339  0.2368
  848SOL    HW2 3158   6.494   6.020   5.505 -1.2206  0.1494 -3.1282
  848SOL    HW3 3159   6.434   5.881   5.513 -1.0073  0.1001 -2.2429
  848SOL    MW4 3160   6.428   5.967   5.525 -0.3658 -0.0657 -0.5344
  849SOL     OW 3161   2.135   6.304   1.229  0.2596  0.7814  0.2082
  849SOL    HW2 3162   2.042   6.315   1.247 -0.2823 -0.9934 -1.2283
  849SOL    HW3 3163   2.165   6.391   1.204 -0.9450  1.4403  0.9686
  849SOL    MW4 3164   2.127   6.317   1.228  0.0292  0.6342  0.1190
  850SOL     OW 3165   0.400   1.226   1.510  0.2951  0.5781 -0.6532
  850SOL    HW2 3166   0.392   1.142   1.556  0.9894  0.5355 -0.5984
  850SOL    HW3 3167   0.443   1.284   1.573 -0.7663  1.1652 -0.4643
  850SOL    MW4 3168   0.405   1.222   1.525  0.2467  0.6499 -0.6210
  851SOL     OW 3169   4.113   3.835   5.844 -0.0223 -0.3937 -0.0964
  851SOL    HW2 3170   4.064   3.876   5.773  0.9071 -0.3303 -0.7148
  851SOL    HW3 3171   4.046   3.804   5.904 -0.8498 -0.7925 -1.1906
  851SOL    MW4 3172   4.098   3.836   5.842 -0.0088 -0.4380 -0.3224
  852SOL     OW 3173   2.624   3.481   3.259 -0.5274  0.1101 -0.2026
  852SOL    HW2 3174   2.658   3.436   3.183 -2.3116 -1.3617 -0.2156
  852SOL    HW3 3175   2.661   3.569   3.255  1.2122 -0.6472 -1.4770
  852SOL    MW4 3176   2.633   3.487   3.249 -0.5333 -0.1840 -0.3725
  853SOL     OW 3177   4.291   5.280   5.169  0.0072  0.7228 -0.6224
  853SOL    HW2 3178   4.217   5.232   5.130 -1.1015  2.7169 -1.0725
  853SOL    HW3 3179   4.252   5.357   5.209  1.2739 -0.5249  3.4209
  853SOL    MW4 3180   4.276   5.283   5.169  0.0280  0.8213 -0.1483
  854SOL     OW 3181   6.079   2.226   1.007 -0.0394  0.1518 -0.3031
  854SOL    HW2 3182   6.124   2.262   0.931  0.0746  2.2817  0.6946
  854SOL    HW3 3183   6.144   2.169   1.049 -0.0420 -0.8857 -1.6314
  854SOL    MW4 3184   6.093   2.223   1.003 -0.0247  0.2959 -0.3467
  855SOL     OW 3185   4.216   1.529   0.559  0.3899  0.2260  0.1894
  855SOL    HW2 3186   4.270   1.462   0.602  0.0062 -1.6579 -2.0622
  855SOL    HW3 3187   4.277   1.576   0.502  0.2769  0.4739  0.2705
  855SOL    MW4 3188   4.231   1.526   0.557  0.3244  0.0102 -0.0970
  856SOL     OW 3189   3.704   2.287   0.297  0.2222 -0.3940 -0.2920
  856SOL    HW2 3190   3.741   2.283   0.209 -1.6857  0.3801 -1.1735
  856SOL    HW3 3191   3.722   2.376   0.326  1.8254 -0.9686  0.5927
  856SOL    MW4 3192   3.712   2.298   0.289  0.1820 -0.3677 -0.2916
  857SOL     OW 3193   3.389   4.172   1.152  0.3619  0.4316 -0.6871
  857SOL    HW2 3194   3.409   4.217   1.234 -0.1439  0.4616 -0.5754
  857SOL    HW3 3195   3.474   4.144   1.119  0.4544 -1.1381  0.7364
  857SOL    MW4 3196   3.403   4.174   1.159  0.3073  0.2284 -0.4845
  858SOL     OW 3197   0.089   4.238   1.041  0.2786  0.2494 -0.1376
  858SOL    HW2 3198   0.167   4.252   0.987  0.1281  0.6688 -0.2457
  858SOL    HW3 3199   0.113   4.167   1.100  0.8940  0.6633  0.1185
  858SOL    MW4 3200   0.102   4.230   1.042  0.3400  0.3593 -0.1181
  859SOL     OW 3201   4.416   2.202   2.229 -0.3938  0.4911 -0.2771
  859SOL    HW2 3202   4.392   2.186   2.320  0.2525  0.0365 -0.1770
  859SOL    HW3 3203   4.388   2.123   2.183  0.1694  0.2926 -0.2920
  859SOL    MW4 3204   4.409   2.190   2.235 -0.2342  0.4049 -0.2659
  860SOL     OW 3205   0.783   4.797   0.370 -0.8032 -0.0212 -0.0617
  860SOL    HW2 3206   0.807   4.889   0.374 -0.8854  0.0215 -0.4896
  860SOL    HW3 3207   0.785   4.767   0.461 -0.2573  0.2666  0.0224
  860SOL    MW4 3208   0.786   4.805   0.382 -0.7421  0.0224 -0.1070
  861SOL     OW 3209   4.453  -0.047   5.207  0.3038 -0.3344 -0.0568
  861SOL    HW2 3210   4.488  -0.043   5.118 -1.0712 -2.0631 -0.7338
  861SOL    HW3 3211   4.365  -0.082   5.197 -0.3531  0.5927  1.8997
  861SOL    MW4 3212   4.446  -0.051   5.194  0.0357 -0.4402  0.1120
  862SOL     OW 3213   1.235   1.267   5.205  0.0800  0.4949 -0.3549
  862SOL    HW2 3214   1.197   1.353   5.221 -0.9539  0.0256 -0.2460
  862SOL    HW3 3215   1.325   1.286   5.176  0.6626  1.5485  1.8793
  862SOL    MW4 3216   1.242   1.281   5.203  0.0204  0.5720 -0.0458
  863SOL     OW 3217   0.198   4.290   3.716 -0.0462 -0.1059 -0.0205
  863SOL    HW2 3218   0.284   4.280   3.757 -0.3519  0.0065  0.6644
  863SOL    HW3 3219   0.217   4.312   3.625  0.6465 -1.6471 -0.2772
  863SOL    MW4 3220   0.212   4.291   3.710  0.0049 -0.2944  0.0360
  864SOL     OW 3221   0.200   5.125   1.954  0.2209  0.5760  0.2579
  864SOL    HW2 3222   0.218   5.105   1.862 -2.5190 -1.4004  0.0181
  864SOL    HW3 3223   0.219   5.043   2.000  0.1601  1.0896  1.2073
  864SOL    MW4 3224   0.205   5.111   1.948 -0.1487  0.3830  0.3515
  865SOL     OW 3225   1.168   1.505   4.555 -0.2218 -0.2920  0.7233
  865SOL    HW2 3226   1.093   1.476   4.503  0.3113  0.7083 -0.6545
  865SOL    HW3 3227   1.234   1.437   4.542  0.1100  0.2342 -0.3860
  865SOL    MW4 3228   1.166   1.492   4.547 -0.1077 -0.0906  0.3951
  866SOL     OW 3229   4.057   3.394   5.416  0.6819 -0.3116 -0.2652
  866SOL    HW2 3230   4.148   3.365   5.408  1.0549  0.7359  0.0239
  866SOL    HW3 3231   4.035   3.426   5.329  0.5760 -0.5858 -0.3409
  866SOL    MW4 3232   4.066   3.394   5.404  0.7171 -0.2096 -0.2370
  867SOL     OW 3233   2.972   1.480   0.481 -0.6742  0.1104 -0.0816
  867SOL    HW2 3234   2.970   1.451   0.390 -0.2648  0.5082 -0.2201
  867SOL    HW3 3235   3.049   1.536   0.487 -0.4237 -0.2901  0.6253
  867SOL    MW4 3236   2.982   1.483   0.470 -0.5872  0.1100 -0.0066
  868SOL     OW 3237   4.932   2.163   2.729 -0.4858 -0.0410  0.7510
  868SOL    HW2 3238   4.884   2.227   2.781 -0.9220  0.0533  0.2468
  868SOL    HW3 3239   4.882   2.157   2.647  0.7266  0.5495 -0.0573
  868SOL    MW4 3240   4.919   2.170   2.725 -0.3834  0.0493  0.5779
  869SOL     OW 3241   4.354   1.372   3.348  0.3612  0.1426  0.5637
  869SOL    HW2 3242   4.380   1.340   3.434  1.4792  0.2618  0.2848
  869SOL    HW3 3243   4.435   1.408   3.310 -0.1727  0.3422 -0.4217
  869SOL    MW4 3244   4.368   1.373   3.354  0.4383  0.1847  0.3969
  870SOL     OW 3245   4.086   2.451   0.276  0.7508  0.0510  0.0140
  870SOL    HW2 3246   4.165   2.504   0.264 -0.1576  1.4725 -0.0524
  870SOL    HW3 3247   4.037   2.465   0.195 -0.1223  0.2005  0.5579
  870SOL    MW4 3248   4.090   2.460   0.263  0.5158  0.2583  0.0770
  871SOL     OW 3249   1.440   4.754   3.367  0.2718  0.5657  0.3268
  871SOL    HW2 3250   1.515   4.707   3.405  0.0487 -0.0025  0.0829
  871SOL    HW3 3251   1.370   4.743   3.432  0.2014  0.5008  0.2412
  871SOL    MW4 3252   1.440   4.746   3.381  0.2331  0.4822  0.2833
  872SOL     OW 3253   3.612   3.590   2.976 -0.2511 -0.0849  0.2744
  872SOL    HW2 3254   3.683   3.559   3.031  0.1689 -0.3254 -0.3883
  872SOL    HW3 3255   3.543   3.524   2.986  0.7199 -1.4366 -1.3098
  872SOL    MW4 3256   3.612   3.577   2.984 -0.0676 -0.2950 -0.0221
  873SOL     OW 3257   0.138   4.004   6.327  0.2047 -0.1708 -0.2771
  873SOL    HW2 3258   0.108   3.925   6.373  0.9738 -0.5408 -0.4015
  873SOL    HW3 3259   0.224   3.981   6.293 -0.4273  0.0219 -2.1032
  873SOL    MW4 3260   0.146   3.991   6.329  0.2228 -0.1942 -0.5345
  874SOL     OW 3261   6.117   4.632   1.550 -0.3449  0.2475  0.2046
  874SOL    HW2 3262   6.206   4.634   1.513 -0.7633 -0.7044 -0.9248
  874SOL    HW3 3263   6.061   4.660   1.477 -1.0735 -0.3203  0.5364
  874SOL    MW4 3264   6.121   4.636   1.535 -0.4962  0.0470  0.0993
  875SOL     OW 3265   3.051   1.725   1.744 -0.1556 -0.2924  0.0355
  875SOL    HW2 3266   3.083   1.792   1.684  1.4988  0.8729  2.0798
  875SOL    HW3 3267   3.124   1.663   1.753 -0.2583 -0.2998  1.0128
  875SOL    MW4 3268   3.065   1.725   1.737  0.0491 -0.1396  0.4342
  876SOL     OW 3269   3.476   2.650   3.088  0.0195  0.4127  0.2271
  876SOL    HW2 3270   3.520   2.572   3.055 -2.0343 -0.7414  0.0380
  876SOL    HW3 3271   3.547   2.712   3.106  1.7733 -1.7450  1.1506
  876SOL    MW4 3272   3.491   2.648   3.086 -0.0201 -0.0243  0.3240
  877SOL     OW 3273   6.275   3.540   1.820  0.1012 -0.2211 -0.2694
  877SOL    HW2 3274   6.356   3.531   1.769  1.5598 -1.5950  2.1402
  877SOL    HW3 3275   6.282   3.625   1.861 -0.6349  0.4784 -1.5152
  877SOL    MW4 3276   6.287   3.550   1.818  0.1965 -0.3101 -0.1158
  878SOL     OW 3277   5.728   0.776   5.473  0.2738 -0.4020  0.5875
  878SOL    HW2 3278   5.730   0.680   5.478 -1.5039 -0.4397  1.4662
  878SOL    HW3 3279   5.688   0.803   5.555  0.4153  1.0841  0.1875
  878SOL    MW4 3280   5.723   0.767   5.484  0.0579 -0.2109  0.6507
  879SOL     OW 3281   1.535   2.730   4.502  0.2225 -0.1581 -0.3067
  879SOL    HW2 3282   1.608   2.682   4.543  2.1003  1.5682 -1.4571
  879SOL    HW3 3283   1.516   2.801   4.563  0.7259  0.4212 -0.8101
  879SOL    MW4 3284   1.542   2.733   4.515  0.5367  0.1461 -0.5249
  880SOL     OW 3285   1.242   0.222   4.095 -0.2496 -0.2490  0.1257
  880SOL    HW2 3286   1.257   0.193   4.005  0.0924  1.7572 -0.5104
  880SOL    HW3 3287   1.167   0.281   4.089 -0.5428 -0.4772  1.2537
  880SOL    MW4 3288   1.234   0.226   4.083 -0.2432 -0.0144  0.1906
  881SOL     OW 3289   0.424   0.075   4.677  0.3623  0.0643  0.4972
  881SOL    HW2 3290   0.351   0.013   4.672  0.0238  0.4062  1.0460
  881SOL    HW3 3291   0.459   0.079   4.588  0.0910 -0.5550  0.3568
  881SOL    MW4 3292   0.419   0.068   4.665  0.2819  0.0277  0.5511
  882SOL     OW 3293   4.694   4.401   1.554 -0.9063  0.2153 -0.1808
  882SOL    HW2 3294   4.601   4.413   1.535 -0.7993  1.4260 -0.0125
  882SOL    HW3 3295   4.701   4.415   1.649 -0.6652 -0.7137 -0.0471
  882SOL    MW4 3296   4.683   4.405   1.564 -0.8604  0.2525 -0.1410
  883SOL     OW 3297   0.304   4.796   6.401 -0.4307  0.4241 -0.3404
  883SOL    HW2 3298   0.332   4.814   6.311 -0.1318  1.9433  0.0314
  883SOL    HW3 3299   0.236   4.861   6.418  1.1971  1.8141  1.3307
  883SOL    MW4 3300   0.299   4.807   6.391 -0.1765  0.8079 -0.0708
  884SOL     OW 3301   4.591   4.672   4.984 -0.5757 -0.0094  0.2417
  884SOL    HW2 3302   4.516   4.657   4.926 -0.9949  0.3648  0.6880
  884SOL    HW3 3303   4.594   4.766   4.996 -0.6359 -0.1041  1.0216
  884SOL    MW4 3304   4.581   4.682   4.978 -0.6390  0.0275  0.4035
  885SOL     OW 3305   0.328   0.551   0.920  0.2702  0.4223  0.6135
  885SOL    HW2 3306   0.248   0.532   0.969  0.0993  1.5621  0.8211
  885SOL    HW3 3307   0.314   0.640   0.887  0.9141  0.1490 -0.4433
  885SOL    MW4 3308   0.316   0.561   0.922  0.3326  0.5367  0.5015
  886SOL     OW 3309   5.637   0.584   0.300  0.3004  0.1153 -0.2262
  886SOL    HW2 3310   5.618   0.645   0.229 -0.7447  0.6805  0.5137
  886SOL    HW3 3311   5.703   0.525   0.264 -0.6166  0.0281 -1.8631
  886SOL    MW4 3312   5.643   0.584   0.286  0.0415  0.1784 -0.3446
  887SOL     OW 3313   2.788   1.575   3.136  0.2642  0.0887  0.3969
  887SOL    HW2 3314   2.870   1.612   3.168  1.2233 -1.4915 -0.0808
  887SOL    HW3 3315   2.763   1.511   3.203  0.2019 -0.4607 -0.1391
  887SOL    MW4 3316   2.795   1.571   3.149  0.3825 -0.1923  0.2631
  888SOL     OW 3317   2.520   3.338   0.592 -0.7209  0.2226 -0.6210
  888SOL    HW2 3318   2.456   3.371   0.529 -1.5202 -1.1913 -0.6098
  888SOL    HW3 3319   2.567   3.415   0.622 -1.6481  1.1601 -1.4965
  888SOL    MW4 3320   2.517   3.352   0.588 -0.9487  0.1597 -0.7350
  889SOL     OW 3321   5.741   0.613   1.913  0.5074  0.3545  0.3200
  889SOL    HW2 3322   5.653   0.619   1.875  0.1616  0.5111  1.1314
  889SOL    HW3 3323   5.727   0.620   2.007  1.1161 -2.1687  0.6909
  889SOL    MW4 3324   5.727   0.615   1.920  0.5421  0.0422  0.4760
  890SOL     OW 3325   0.932   0.738   1.958  0.4271  0.2037 -0.3537
  890SOL    HW2 3326   1.001   0.690   2.004  0.3562  0.4584  0.0243
  890SOL    HW3 3327   0.894   0.795   2.025  0.5644  0.8476 -0.8165
  890SOL    MW4 3328   0.936   0.739   1.973  0.4359  0.3222 -0.3649
  891SOL     OW 3329   3.778   6.278   0.765  0.4013  0.3620 -0.4221
  891SOL    HW2 3330   3.723   6.211   0.725  0.3211  0.7562 -0.9896
  891SOL    HW3 3331   3.717   6.349   0.787  0.5054  0.3078  0.0470
  891SOL    MW4 3332   3.763   6.279   0.763  0.4045  0.4069 -0.4351
  892SOL     OW 3333   0.895   0.636   0.030  0.0924  0.4572 -0.0020
  892SOL    HW2 3334   0.869   0.642  -0.062 -1.8092 -0.5577  0.4333
  892SOL    HW3 3335   0.962   0.567   0.030 -2.6108 -2.3948 -0.2014
  892SOL    MW4 3336   0.901   0.628   0.018 -0.5151 -0.0530  0.0291
  893SOL     OW 3337   0.231   3.769   3.972 -0.1004  0.2725 -0.3147
  893SOL    HW2 3338   0.279   3.789   3.892 -0.7635  5.1396  0.2317
  893SOL    HW3 3339   0.298   3.742   4.034  0.6342 -1.8275 -1.9006
  893SOL    MW4 3340   0.246   3.768   3.969 -0.0910  0.6376 -0.4519
  894SOL     OW 3341   5.926   1.072   2.230  0.6447 -0.1822  0.5842
  894SOL    HW2 3342   6.006   1.080   2.179  0.5820 -0.0904  0.4975
  894SOL    HW3 3343   5.918   0.979   2.249  0.5536 -0.2492  0.2360
  894SOL    MW4 3344   5.935   1.061   2.225  0.6244 -0.1789  0.5268
  895SOL     OW 3345   0.300   4.646   3.722 -0.5459  0.1249 -0.1096
  895SOL    HW2 3346   0.318   4.662   3.815 -0.8958  1.6938 -0.2997
  895SOL    HW3 3347   0.293   4.733   3.683 -0.1493 -0.5108 -1.6717
  895SOL    MW4 3348   0.302   4.659   3.729 -0.5397  0.2480 -0.3408
  896SOL     OW 3349   5.716   1.221   3.121 -0.2329 -0.7145  0.3962
  896SOL    HW2 3350   5.801   1.178   3.127 -0.4296 -1.0143  1.2157
  896SOL    HW3 3351   5.698   1.251   3.210 -0.6828 -0.0612  0.0939
  896SOL    MW4 3352   5.725   1.219   3.134 -0.3182 -0.6679  0.4645
  897SOL     OW 3353   2.578   3.808   4.811 -0.1310 -0.1405 -0.3817
  897SOL    HW2 3354   2.633   3.750   4.866  0.6882 -1.3303 -2.3420
  897SOL    HW3 3355   2.639   3.872   4.776 -0.6710  0.6740  0.1309
  897SOL    MW4 3356   2.594   3.808   4.814 -0.0941 -0.1900 -0.5727
  898SOL     OW 3357   5.738   0.748   6.069  0.4639  0.6687 -0.2395
  898SOL    HW2 3358   5.730   0.787   6.156  0.4034 -1.0343  0.5560
  898SOL    HW3 3359   5.648   0.729   6.044  0.5155  0.7493 -0.4891
  898SOL    MW4 3360   5.725   0.751   6.077  0.4627  0.4546 -0.1675
  899SOL     OW 3361   1.618   4.413   1.902  0.6738  0.0237  0.1062
  899SOL    HW2 3362   1.688   4.357   1.868  0.5979  0.1349 -0.2334
  899SOL    HW3 3363   1.588   4.462   1.826 -1.3211 -1.6467 -0.2695
  899SOL    MW4 3364   1.624   4.412   1.887  0.4006 -0.1820  0.0119
  900SOL     OW 3365   4.559   0.198   0.501  0.4365  0.5114  0.1615
  900SOL    HW2 3366   4.567   0.104   0.483  1.2971  0.4766  0.6790
  900SOL    HW3 3367   4.466   0.211   0.515  0.1995 -0.1187 -0.6849
  900SOL    MW4 3368   4.548   0.187   0.500  0.5188  0.4237  0.1181
  901SOL     OW 3369   2.698   5.987   2.756 -0.2008 -0.1957  0.0857
  901SOL    HW2 3370   2.623   6.031   2.715  1.0243  1.3991 -0.5308
  901SOL    HW3 3371   2.738   6.054   2.811  0.5365 -1.1556  0.7560
  901SOL    MW4 3372   2.693   6.001   2.758  0.0581 -0.1119  0.0928
  902SOL     OW 3373   5.661   0.516   4.714 -0.2694 -0.2766  0.1727
  902SOL    HW2 3374   5.742   0.566   4.706 -1.1339  0.8752 -3.1070
  902SOL    HW3 3375   5.685   0.426   4.693  0.3553 -0.2182  0.6182
  902SOL    MW4 3376   5.675   0.511   4.710 -0.3010 -0.1170 -0.2013
  903SOL     OW 3377   1.712   2.870   0.328  0.1359 -0.3641  0.1289
  903SOL    HW2 3378   1.628   2.869   0.282 -0.0300  2.2221  0.2296
  903SOL    HW3 3379   1.711   2.792   0.382 -2.0852 -0.5459 -0.0824
  903SOL    MW4 3380   1.701   2.860   0.329 -0.1791 -0.0468  0.1143
  904SOL     OW 3381   3.063   4.156   0.853  0.1218  0.8280 -0.3676
  904SOL    HW2 3382   3.070   4.246   0.884  0.0495  0.0166  2.2136
  904SOL    HW3 3383   3.128   4.108   0.904 -0.2124 -0.6858 -1.3050
  904SOL    MW4 3384   3.073   4.162   0.864  0.0682  0.5212 -0.1507
  905SOL     OW 3385   2.923   0.014   1.887 -0.3996  0.2636 -0.4963
  905SOL    HW2 3386   2.924  -0.080   1.907 -1.5218  0.2298 -0.5197
  905SOL    HW3 3387   2.947   0.019   1.795 -0.3608 -0.0062 -0.5035
  905SOL    MW4 3388   2.927   0.002   1.878 -0.5425  0.2236 -0.5004
  906SOL     OW 3389   0.113   2.027   2.780 -0.1993 -0.0479  0.0372
  906SOL    HW2 3390   0.127   1.995   2.869 -0.6462 -1.7184 -0.4575
  906SOL    HW3 3391   0.022   2.005   2.761 -0.7667  2.2158 -0.1087
  906SOL    MW4 3392   0.103   2.020   2.789 -0.3331  0.0304 -0.0473
  907SOL     OW 3393   5.492   4.465   0.604 -0.0531  0.5316 -0.1697
  907SOL    HW2 3394   5.410   4.482   0.558 -0.5864  1.5847  1.0639
  907SOL    HW3 3395   5.510   4.372   0.590 -0.6727  0.6210 -1.6721
  907SOL    MW4 3396   5.484   4.455   0.596 -0.2052  0.6824 -0.2051
  908SOL     OW 3397   4.689   3.822   0.961 -0.9399 -0.0416  0.2398
  908SOL    HW2 3398   4.674   3.912   0.989 -1.2430  0.4611 -1.4481
  908SOL    HW3 3399   4.735   3.829   0.877  1.1659 -1.4998  1.1696
  908SOL    MW4 3400   4.693   3.834   0.954 -0.7020 -0.1677  0.1398
  909SOL     OW 3401   5.081   2.435   4.566  0.2826  0.5468  0.3423
  909SOL    HW2 3402   5.015   2.437   4.496  0.8389  0.7678 -0.1865
  909SOL    HW3 3403   5.094   2.526   4.590 -0.7272  0.3996  1.5406
  909SOL    MW4 3404   5.074   2.447   4.560  0.2228  0.5565  0.4307
  910SOL     OW 3405   3.177   4.036   3.759 -0.0305  0.1017 -0.4155
  910SOL    HW2 3406   3.144   4.126   3.751  0.5654  0.2246 -1.8862
  910SOL    HW3 3407   3.123   3.986   3.697  0.1460 -0.4035 -0.1594
  910SOL    MW4 3408   3.165   4.042   3.749  0.0714  0.0512 -0.5757
  911SOL     OW 3409   4.591   2.422   0.147  0.1130 -0.0354 -0.4121
  911SOL    HW2 3410   4.649   2.462   0.082 -0.2295  0.1905 -0.5811
  911SOL    HW3 3411   4.563   2.495   0.202 -0.0435 -0.1391 -0.3544
  911SOL    MW4 3412   4.595   2.437   0.145  0.0472 -0.0193 -0.4268
  912SOL     OW 3413   5.481   3.104   5.474  0.6652 -0.7652  0.0453
  912SOL    HW2 3414   5.565   3.081   5.513  0.2281 -1.2408  0.7406
  912SOL    HW3 3415   5.423   3.031   5.498  0.2915 -0.8994 -1.2110
  912SOL    MW4 3416   5.484   3.091   5.482  0.5582 -0.8457 -0.0287
  913SOL     OW 3417   1.598   5.480   1.700 -0.3938 -0.1872 -0.6055
  913SOL    HW2 3418   1.566   5.551   1.756  0.9424  1.1560 -1.4688
  913SOL    HW3 3419   1.576   5.508   1.611  2.2898  0.3888 -1.1615
  913SOL    MW4 3420   1.591   5.493   1.696  0.1366  0.0660 -0.7928
  914SOL     OW 3421   6.089   0.437   0.860  0.4887  0.3224  0.7403
  914SOL    HW2 3422   6.119   0.504   0.799  0.5904 -0.5130 -0.1509
  914SOL    HW3 3423   6.123   0.355   0.825 -0.8800 -0.3857  0.9821
  914SOL    MW4 3424   6.097   0.435   0.847  0.3215  0.1188  0.6546
  915SOL     OW 3425   1.075   2.043   4.181  0.2466  0.0539  0.2355
  915SOL    HW2 3426   1.061   1.958   4.139 -1.9406  0.4541  0.0708
  915SOL    HW3 3427   1.094   2.021   4.273  1.1686 -0.6431 -0.0979
  915SOL    MW4 3428   1.076   2.029   4.188  0.0797  0.0147  0.1698
  916SOL     OW 3429   4.813   3.401   3.720  0.1859  0.1076 -0.3500
  916SOL    HW2 3430   4.747   3.337   3.694  0.1555 -0.8038  1.7938
  916SOL    HW3 3431   4.897   3.359   3.698  0.1163  0.7056 -1.8480
  916SOL    MW4 3432   4.816   3.387   3.713  0.1727  0.0662 -0.2648
  917SOL     OW 3433   5.589   2.477   2.560  0.2725 -0.1165  0.0473
  917SOL    HW2 3434   5.556   2.410   2.499 -0.0883  1.6114 -1.7632
  917SOL    HW3 3435   5.524   2.548   2.555  1.2150  0.8592  1.0372
  917SOL    MW4 3436   5.576   2.478   2.551  0.3493  0.2402 -0.0610
  918SOL     OW 3437   3.897   5.302   0.309 -0.0659 -0.0925 -0.5311
  918SOL    HW2 3438   3.958   5.373   0.289 -0.6124  0.7074  0.5823
  918SOL    HW3 3439   3.934   5.226   0.263  0.9754  0.7021 -1.0576
  918SOL    MW4 3440   3.910   5.301   0.300 -0.0006  0.1179 -0.4537
  919SOL     OW 3441   5.631   1.819   3.356  0.0577  0.0919 -0.0306
  919SOL    HW2 3442   5.552   1.867   3.328  0.4827  0.6495 -0.3054
  919SOL    HW3 3443   5.604   1.771   3.434 -1.1535 -1.4567 -1.3430
  919SOL    MW4 3444   5.617   1.819   3.362 -0.0461 -0.0389 -0.2400
  920SOL     OW 3445   1.067   5.846   0.683 -0.3901 -0.4458  0.5040
  920SOL    HW2 3446   1.147   5.898   0.693  0.0410 -0.8349 -0.7118
  920SOL    HW3 3447   1.032   5.870   0.597  0.0292 -2.3662 -0.2741
  920SOL    MW4 3448   1.073   5.856   0.673 -0.2779 -0.7505  0.2409
  921SOL     OW 3449   0.624   2.614   5.627 -0.3528 -0.1217  0.4652
  921SOL    HW2 3450   0.715   2.643   5.622 -0.7778  1.0947 -0.7562
  921SOL    HW3 3451   0.576   2.693   5.654 -1.1109 -0.6406  0.6521
  921SOL    MW4 3452   0.630   2.629   5.630 -0.5089 -0.0297  0.3287
  922SOL     OW 3453   4.084   1.881   2.217 -0.3757  0.0326  0.2084
  922SOL    HW2 3454   4.133   1.833   2.284 -0.3957  1.3752  1.2278
  922SOL    HW3 3455   4.040   1.813   2.166 -0.9499 -1.0028  2.0038
  922SOL    MW4 3456   4.085   1.866   2.219 -0.4541  0.0732  0.5798
  923SOL     OW 3457   1.955   4.542   2.335 -0.1800  0.1398 -0.3998
  923SOL    HW2 3458   1.898   4.614   2.310 -2.2411 -1.1432  0.3329
  923SOL    HW3 3459   1.955   4.484   2.259  0.9120  0.5387 -0.7269
  923SOL    MW4 3460   1.947   4.544   2.322 -0.3079  0.0232 -0.3463
  924SOL     OW 3461   1.765   4.747   5.601 -0.1491  0.0382 -0.4100
  924SOL    HW2 3462   1.738   4.662   5.567  0.8866 -1.3220  1.9314
  924SOL    HW3 3463   1.857   4.755   5.576  1.1391 -1.7392  3.0934
  924SOL    MW4 3464   1.774   4.737   5.594  0.1575 -0.3758  0.3612
  925SOL     OW 3465   4.056   6.002   6.218  0.3181 -0.2282  0.3817
  925SOL    HW2 3466   4.019   6.003   6.306 -0.3570 -4.2604  0.3558
  925SOL    HW3 3467   4.142   5.962   6.229  0.3985 -0.3919 -0.7092
  925SOL    MW4 3468   4.062   5.997   6.231  0.2396 -0.7818  0.2343
  926SOL     OW 3469   5.066   4.427   5.699 -0.1668  0.1814 -0.2064
  926SOL    HW2 3470   4.983   4.470   5.722 -0.9676 -1.8494  0.9746
  926SOL    HW3 3471   5.088   4.375   5.776  0.8874 -1.2943 -1.4390
  926SOL    MW4 3472   5.058   4.426   5.712 -0.1334 -0.2812 -0.2132
  927SOL     OW 3473   2.561   2.300   4.804 -0.5164 -0.4875  0.2565
  927SOL    HW2 3474   2.546   2.348   4.723  1.0405  3.8818  2.2183
  927SOL    HW3 3475   2.630   2.237   4.783  1.4488  2.0171 -1.4930
  927SOL    MW4 3476   2.568   2.298   4.791 -0.0517  0.4194  0.2845
  928SOL     OW 3477   0.161   5.001   5.943  0.3012 -0.0333 -0.3533
  928SOL    HW2 3478   0.152   4.946   5.865  0.2398  0.6101 -0.8065
  928SOL    HW3 3479   0.085   5.059   5.940  0.7863  0.6167 -0.3173
  928SOL    MW4 3480   0.150   5.001   5.932  0.3571  0.1373 -0.4084
  929SOL     OW 3481   2.646   0.009   2.279  0.3081 -0.0941  0.1686
  929SOL    HW2 3482   2.731   0.052   2.286 -0.2685  1.4918 -1.8216
  929SOL    HW3 3483   2.595   0.045   2.351  0.5171  0.9215 -0.1830
  929SOL    MW4 3484   2.651   0.019   2.290  0.2596  0.2491 -0.1403
  930SOL     OW 3485   1.915   5.241   0.093 -0.2741  0.3695  0.3255
  930SOL    HW2 3486   1.906   5.334   0.073  1.4192  0.3117 -0.9115
  930SOL    HW3 3487   1.828   5.205   0.076 -0.7920  1.6043  0.2016
  930SOL    MW4 3488   1.902   5.249   0.088 -0.1190  0.5248  0.1460
  931SOL     OW 3489   0.700   5.438   2.615  0.4533 -0.0120 -0.3526
  931SOL    HW2 3490   0.702   5.416   2.708 -3.1770 -0.0105 -0.1153
  931SOL    HW3 3491   0.733   5.360   2.571 -0.0345 -0.9501  0.8851
  931SOL    MW4 3492   0.704   5.425   2.621 -0.0900 -0.1356 -0.1580
  932SOL     OW 3493   3.016   4.144   1.700  0.0784 -0.2889 -0.2319
  932SOL    HW2 3494   2.933   4.181   1.732  0.5657  1.2755 -0.6737
  932SOL    HW3 3495   3.075   4.150   1.775  0.3859  0.6308 -0.5321
  932SOL    MW4 3496   3.013   4.150   1.714  0.1832  0.0388 -0.3298
  933SOL     OW 3497   5.596   2.835   1.938  0.2719  0.6027  1.0405
  933SOL    HW2 3498   5.669   2.778   1.961  0.2000  0.1357  0.1623
  933SOL    HW3 3499   5.621   2.921   1.970  0.6228  0.1883  1.9088
  933SOL    MW4 3500   5.609   2.838   1.945  0.3087  0.4864  1.0392
  934SOL     OW 3501   6.117   6.249   4.592 -0.4122  0.8073  0.6071
  934SOL    HW2 3502   6.038   6.200   4.613  0.5469 -1.9400 -1.5273
  934SOL    HW3 3503   6.088   6.318   4.531 -1.0707 -1.2979 -1.6235
  934SOL    MW4 3504   6.103   6.252   4.586 -0.3725  0.1671  0.0312
  935SOL     OW 3505   0.565   4.822   0.044 -0.5168 -0.1285 -0.4304
  935SOL    HW2 3506   0.575   4.898   0.101 -1.0808  1.3689 -2.2151
  935SOL    HW3 3507   0.471   4.808   0.038 -0.3983 -1.9271  0.9868
  935SOL    MW4 3508   0.554   4.830   0.051 -0.5756 -0.1682 -0.4789
  936SOL     OW 3509   2.480   3.330   6.047 -0.5391  0.1198 -0.6257
  936SOL    HW2 3510   2.558   3.332   5.991  0.6927 -1.4090  0.9284
  936SOL    HW3 3511   2.444   3.243   6.035 -0.1202 -0.3182  1.0910
  936SOL    MW4 3512   2.486   3.319   6.038 -0.3213 -0.1397 -0.1942
  937SOL     OW 3513   5.026   0.298   5.935 -0.0007 -0.0716 -0.0829
  937SOL    HW2 3514   5.039   0.381   5.891 -0.5235 -0.9361 -1.9804
  937SOL    HW3 3515   5.075   0.306   6.017  0.8056  1.6969 -0.6929
  937SOL    MW4 3516   5.034   0.310   5.940  0.0367  0.0477 -0.4137
  938SOL     OW 3517   2.903   4.338   0.065  0.0943  0.0018  0.4484
  938SOL    HW2 3518   2.957   4.332  -0.013 -0.9333  1.4138 -0.4244
  938SOL    HW3 3519   2.846   4.413   0.049 -0.7704 -0.2314  2.1715
  938SOL    MW4 3520   2.903   4.347   0.053 -0.1553  0.1573  0.5606
  939SOL     OW 3521   0.920   0.449   5.010  0.1942  0.1043 -0.0387
  939SOL    HW2 3522   0.875   0.366   4.995  0.4155  0.0244 -0.2669
  939SOL    HW3 3523   0.972   0.464   4.931  1.7381 -0.5509  0.8032
  939SOL    MW4 3524   0.921   0.440   4.998  0.4271  0.0073  0.0423
  940SOL     OW 3525   3.228   3.262   3.410 -0.0609 -0.3239 -0.3945
  940SOL    HW2 3526   3.171   3.188   3.387 -0.7934  0.3285 -0.7493
  940SOL    HW3 3527   3.313   3.239   3.373  0.8106 -2.7043  2.6846
  940SOL    MW4 3528   3.231   3.250   3.402 -0.0426 -0.5519 -0.0350
  941SOL     OW 3529   1.343   5.738   0.947 -0.0869 -0.8576  0.0399
  941SOL    HW2 3530   1.362   5.821   0.903 -0.0360 -1.1338 -0.4704
  941SOL    HW3 3531   1.418   5.724   1.005 -0.5103 -0.1226  0.7738
  941SOL    MW4 3532   1.355   5.747   0.949 -0.1360 -0.7971  0.0694
  942SOL     OW 3533   0.182   0.516   5.093  0.4539 -0.2657  0.1382
  942SOL    HW2 3534   0.201   0.548   5.181  0.0030 -0.1959  0.2126
  942SOL    HW3 3535   0.222   0.580   5.035  0.3987 -0.0872  0.2938
  942SOL    MW4 3536   0.189   0.529   5.097  0.3871 -0.2329  0.1686
  943SOL     OW 3537   5.165   2.237   2.990 -0.1642  0.1350 -0.3091
  943SOL    HW2 3538   5.089   2.284   3.025 -1.3400 -1.3343 -0.7688
  943SOL    HW3 3539   5.239   2.268   3.043 -1.0306  1.7468  0.0292
  943SOL    MW4 3540   5.165   2.247   3.002 -0.4337  0.1538 -0.3251
  944SOL     OW 3541   4.704   1.348   0.651 -0.2887 -0.1714 -0.0482
  944SOL    HW2 3542   4.668   1.285   0.589 -1.0393  0.2750 -0.0903
  944SOL    HW3 3543   4.763   1.402   0.600 -1.0096  0.2831 -0.4274
  944SOL    MW4 3544   4.707   1.347   0.636 -0.4828 -0.0526 -0.1038
  945SOL     OW 3545   4.904   1.664   0.930  0.0498 -0.2037  0.4656
  945SOL    HW2 3546   4.923   1.758   0.940 -1.2767  0.3856 -1.8333
  945SOL    HW3 3547   4.828   1.649   0.986  0.6554 -0.0891  1.3461
  945SOL    MW4 3548   4.896   1.675   0.939 -0.0453 -0.1109  0.2785
  946SOL     OW 3549   6.090   1.568   2.972  0.2791  0.1368 -0.4870
  946SOL    HW2 3550   6.022   1.571   3.039  0.7296 -0.4336  0.0011
  946SOL    HW3 3551   6.068   1.492   2.919  0.4806  0.0102 -0.3894
  946SOL    MW4 3552   6.078   1.558   2.974  0.3652  0.0448 -0.4097
  947SOL     OW 3553   2.722   5.792   0.501 -0.1641  0.1118 -0.3043
  947SOL    HW2 3554   2.673   5.872   0.523  0.3470  0.4172 -0.2374
  947SOL    HW3 3555   2.751   5.758   0.586  0.4405  0.3969 -0.3909
  947SOL    MW4 3556   2.720   5.798   0.515 -0.0169  0.1897 -0.3069
  948SOL     OW 3557   0.441   5.988   0.815 -0.8204  0.1459  0.0587
  948SOL    HW2 3558   0.393   6.014   0.737  0.2724  0.1332 -0.6303
  948SOL    HW3 3559   0.388   5.918   0.853 -1.6151  0.4879 -0.3767
  948SOL    MW4 3560   0.428   5.983   0.810 -0.7810  0.1893 -0.0896
  949SOL     OW 3561   1.080   3.557   6.413  0.2666 -0.0463  0.2560
  949SOL    HW2 3562   1.174   3.541   6.415 -0.0248 -2.3864 -0.8980
  949SOL    HW3 3563   1.062   3.580   6.321 -0.4664 -1.1159  0.1188
  949SOL    MW4 3564   1.090   3.558   6.401  0.1314 -0.4962  0.0857
  950SOL     OW 3565   2.093   4.007   1.085  0.5428 -0.2859  0.5931
  950SOL    HW2 3566   2.091   3.977   0.994 -1.6629  1.9260 -0.1897
  950SOL    HW3 3567   2.144   4.088   1.083  1.9713 -1.1015  1.7148
  950SOL    MW4 3568   2.099   4.013   1.073  0.4403 -0.1016  0.6378
  951SOL     OW 3569   3.224   0.492   1.415  0.2140 -0.1913  0.9355
  951SOL    HW2 3570   3.252   0.577   1.381  1.1535 -0.7271  0.3293
  951SOL    HW3 3571   3.305   0.442   1.425 -0.4762 -1.8757 -1.0875
  951SOL    MW4 3572   3.238   0.497   1.412  0.2469 -0.4842  0.5886
  952SOL     OW 3573   6.383   1.814   4.601  0.2388  0.1418  0.1394
  952SOL    HW2 3574   6.313   1.778   4.655  0.2673 -1.1300 -0.6346
  952SOL    HW3 3575   6.338   1.856   4.527  0.1380  2.8874  1.6325
  952SOL    MW4 3576   6.368   1.815   4.598  0.2292  0.3363  0.2343
  953SOL     OW 3577   3.569   3.894   1.767 -0.0861 -0.0658 -0.1986
  953SOL    HW2 3578   3.474   3.894   1.774 -0.2180  0.1550 -1.6323
  953SOL    HW3 3579   3.588   3.958   1.698  1.2114  1.0299  1.1105
  953SOL    MW4 3580   3.559   3.903   1.759  0.0677  0.1079 -0.2150
  954SOL     OW 3581   5.711   6.206   0.914  0.0151  0.5499  0.5530
  954SOL    HW2 3582   5.669   6.141   0.970  1.0922  0.0742  0.8265
  954SOL    HW3 3583   5.780   6.243   0.969  0.9305  0.2470 -0.3744
  954SOL    MW4 3584   5.714   6.202   0.929  0.2780  0.4471  0.4667
  955SOL     OW 3585   2.675   5.086   0.170  0.3598  0.2198 -0.0291
  955SOL    HW2 3586   2.684   4.994   0.147 -0.1049  0.1171  0.1818
  955SOL    HW3 3587   2.676   5.088   0.265 -0.4750  0.3316 -0.0100
  955SOL    MW4 3588   2.676   5.074   0.179  0.1884  0.2210  0.0012
  956SOL     OW 3589   0.949   6.197   5.639 -0.1903  0.2265 -0.3138
  956SOL    HW2 3590   0.871   6.238   5.677  0.8918  1.6587  0.4546
  956SOL    HW3 3591   0.920   6.167   5.553 -1.4306  1.3245 -0.3165
  956SOL    MW4 3592   0.935   6.198   5.633 -0.2111  0.5603 -0.2128
  957SOL     OW 3593   1.077   6.182   2.856 -0.2083  0.4011 -0.6354
  957SOL    HW2 3594   1.090   6.095   2.818  1.0064 -0.7139  2.0452
  957SOL    HW3 3595   1.154   6.232   2.828  1.4936 -0.8900  1.4223
  957SOL    MW4 3596   1.089   6.177   2.848  0.1765  0.0837 -0.0103
  958SOL     OW 3597   1.698   2.442   2.846  0.0439  0.2616  0.2991
  958SOL    HW2 3598   1.721   2.480   2.761 -0.0997  0.3758  0.3123
  958SOL    HW3 3599   1.657   2.513   2.894  0.2452  0.2331  0.5141
  958SOL    MW4 3600   1.696   2.456   2.841  0.0515  0.2729  0.3292
  959SOL     OW 3601   4.580   6.102   4.193  0.1983 -0.4426  0.0499
  959SOL    HW2 3602   4.539   6.172   4.243 -0.6443 -0.3534 -0.7330
  959SOL    HW3 3603   4.571   6.024   4.249 -0.3442 -0.2593  0.2293
  959SOL    MW4 3604   4.573   6.101   4.207  0.0156 -0.4066 -0.0297
  960SOL     OW 3605   5.629   0.201   4.374  0.7410  0.1685 -0.1649
  960SOL    HW2 3606   5.553   0.152   4.406  0.6980  0.6922  0.5716
  960SOL    HW3 3607   5.656   0.154   4.295  0.2962 -0.6463  0.1464
  960SOL    MW4 3608   5.622   0.188   4.368  0.6766  0.1301 -0.0266
  961SOL     OW 3609   6.329   0.404   3.413 -0.2747 -0.4095  0.3773
  961SOL    HW2 3610   6.417   0.394   3.447 -0.5771  1.8620  2.0248
  961SOL    HW3 3611   6.288   0.318   3.428  1.3977 -1.2708  0.2407
  961SOL    MW4 3612   6.335   0.391   3.419 -0.0940 -0.2234  0.5767
  962SOL     OW 3613   4.315   5.969   5.483 -0.2425 -0.8326  0.1731
  962SOL    HW2 3614   4.259   5.925   5.546  0.4735 -0.8458  0.8121
  962SOL    HW3 3615   4.260   6.039   5.447 -0.5327 -0.5686  1.1076
  962SOL    MW4 3616   4.301   5.973   5.487 -0.1863 -0.7995  0.3807
  963SOL     OW 3617   2.491   5.420   0.953  0.7191 -0.1590  0.1282
  963SOL    HW2 3618   2.414   5.449   0.905 -0.0695 -0.8790  0.9223
  963SOL    HW3 3619   2.465   5.337   0.993  1.8067 -0.2672  0.6653
  963SOL    MW4 3620   2.477   5.413   0.952  0.7585 -0.2683  0.3039
  964SOL     OW 3621   4.839   4.765   0.496 -0.7026 -0.2033 -0.5867
  964SOL    HW2 3622   4.820   4.856   0.517 -0.0704  0.3735 -2.3527
  964SOL    HW3 3623   4.933   4.764   0.477 -1.0349 -0.7927 -2.4291
  964SOL    MW4 3624   4.849   4.777   0.496 -0.6631 -0.2050 -1.0628
  965SOL     OW 3625   5.044   5.940   3.102 -0.4791 -0.3280  0.4841
  965SOL    HW2 3626   5.101   5.876   3.145  0.7655  0.3864 -0.0447
  965SOL    HW3 3627   5.050   6.018   3.156 -1.1564 -0.3192  0.5520
  965SOL    MW4 3628   5.052   5.942   3.115 -0.4043 -0.2326  0.4233
  966SOL     OW 3629   6.379   2.057   0.456 -0.1016 -0.1116  0.4527
  966SOL    HW2 3630   6.361   2.021   0.369  1.2578  2.2052 -0.8955
  966SOL    HW3 3631   6.292   2.080   0.490 -0.7240 -1.7696  0.0852
  966SOL    MW4 3632   6.365   2.055   0.449 -0.0044 -0.0247  0.2263
  967SOL     OW 3633   4.578   4.066   6.130  0.2575  0.0875 -0.2408
  967SOL    HW2 3634   4.499   4.096   6.174  1.4218  1.2813  1.1882
  967SOL    HW3 3635   4.587   3.975   6.157 -0.6401 -0.0646 -0.4387
  967SOL    MW4 3636   4.569   4.058   6.140  0.2927  0.2250 -0.0784
  968SOL     OW 3637   3.360   4.135   4.557 -0.3174 -0.5760  0.3717
  968SOL    HW2 3638   3.454   4.150   4.544 -0.6004 -1.0069 -3.2921
  968SOL    HW3 3639   3.344   4.049   4.518 -2.2887 -0.3223  0.5262
  968SOL    MW4 3640   3.370   4.126   4.550 -0.6148 -0.5994 -0.0913
  969SOL     OW 3641   5.817   5.007   1.393 -0.1285  0.3144 -0.3112
  969SOL    HW2 3642   5.850   4.927   1.435 -0.1298  0.7406  0.5260
  969SOL    HW3 3643   5.795   4.980   1.304 -2.5519 -1.2461  0.6657
  969SOL    MW4 3644   5.819   4.993   1.387 -0.4484  0.1647 -0.0718
  970SOL     OW 3645   3.799   2.103   5.600 -0.5412 -0.5662 -0.6527
  970SOL    HW2 3646   3.825   2.084   5.690 -0.8672 -1.9314 -0.8244
  970SOL    HW3 3647   3.877   2.140   5.559 -1.0507  2.4418  0.8055
  970SOL    MW4 3648   3.813   2.105   5.606 -0.6514 -0.3494 -0.4830
  971SOL     OW 3649   0.817   2.104   3.463  0.1622 -0.2115  0.6445
  971SOL    HW2 3650   0.818   2.063   3.549  1.2795  0.1210  0.8097
  971SOL    HW3 3651   0.778   2.039   3.405  0.5630 -0.9310  1.1695
  971SOL    MW4 3652   0.812   2.090   3.467  0.3625 -0.2626  0.7356
  972SOL     OW 3653   5.100   2.053   0.801 -0.6689 -0.1124 -0.5707
  972SOL    HW2 3654   5.177   2.025   0.751 -1.5815 -1.9959 -0.9785
  972SOL    HW3 3655   5.058   2.119   0.745 -0.9117 -1.1827 -1.6721
  972SOL    MW4 3656   5.105   2.058   0.787 -0.8213 -0.5021 -0.7698
  973SOL     OW 3657   0.781   0.266   3.955 -0.2641 -0.9092 -0.2168
  973SOL    HW2 3658   0.837   0.190   3.941  0.0754 -0.7838  0.4445
  973SOL    HW3 3659   0.828   0.320   4.017 -1.9699 -1.7661  1.9893
  973SOL    MW4 3660   0.794   0.263   3.961 -0.4444 -1.0057  0.1615
  974SOL     OW 3661   1.167   5.806   1.322 -0.1784  0.0818 -0.1556
  974SOL    HW2 3662   1.248   5.756   1.327 -2.4482 -3.9116  0.5835
  974SOL    HW3 3663   1.132   5.789   1.235 -1.5042 -0.5286  0.4693
  974SOL    MW4 3664   1.173   5.797   1.312 -0.6528 -0.5256  0.0244
  975SOL     OW 3665   5.399   5.760   1.834  0.0135  0.2555  0.0073
  975SOL    HW2 3666   5.438   5.674   1.848  0.2931  0.4503  0.4658
  975SOL    HW3 3667   5.347   5.751   1.754  0.1858 -0.2864 -0.0449
  975SOL    MW4 3668   5.397   5.748   1.826  0.0731  0.2097  0.0609
  976SOL     OW 3669   2.374   3.192   4.688  0.0062 -0.4712  0.5331
  976SOL    HW2 3670   2.355   3.125   4.623 -0.0746 -1.5765  1.6634
  976SOL    HW3 3671   2.466   3.179   4.710  0.4131  0.7967 -0.3563
  976SOL    MW4 3672   2.384   3.182   4.683  0.0492 -0.4497  0.5649
  977SOL     OW 3673   6.042   0.583   5.468  0.1394 -0.4764  0.5178
  977SOL    HW2 3674   5.953   0.550   5.458  0.0721 -0.0001 -0.7751
  977SOL    HW3 3675   6.099   0.509   5.445  0.0060 -0.0930 -1.2426
  977SOL    MW4 3676   6.038   0.569   5.464  0.1129 -0.3630  0.1149
  978SOL     OW 3677   3.388   5.785   1.013 -0.0141  0.2001 -1.0473
  978SOL    HW2 3678   3.296   5.767   1.029  0.1477 -0.6747 -0.9941
  978SOL    HW3 3679   3.433   5.706   1.046  0.8365  1.0688 -0.0560
  978SOL    MW4 3680   3.382   5.772   1.019  0.1195  0.1993 -0.9095
  979SOL     OW 3681   2.539   3.140   2.832  0.0251 -0.2400  0.4088
  979SOL    HW2 3682   2.507   3.202   2.766  3.0742  0.4822 -0.5279
  979SOL    HW3 3683   2.607   3.188   2.879 -0.1501 -1.6887  2.2301
  979SOL    MW4 3684   2.544   3.155   2.830  0.4043 -0.3358  0.5255
  980SOL     OW 3685   2.594   4.755   6.246 -0.3694  0.0195 -0.1438
  980SOL    HW2 3686   2.537   4.680   6.263 -0.8636  0.3703 -0.2272
  980SOL    HW3 3687   2.625   4.781   6.332 -1.0428  0.3675  0.0060
  980SOL    MW4 3688   2.590   4.748   6.260 -0.5235  0.1117 -0.1350
  981SOL     OW 3689   0.858   4.746   3.536  0.1020 -0.3884  0.7518
  981SOL    HW2 3690   0.813   4.778   3.614 -1.3877 -0.2332 -0.1411
  981SOL    HW3 3691   0.901   4.823   3.500 -3.0260  0.6796 -1.0895
  981SOL    MW4 3692   0.858   4.761   3.542 -0.5072 -0.2270  0.3911
  982SOL     OW 3693   4.501   5.389   1.588 -0.0958  0.6787 -0.0863
  982SOL    HW2 3694   4.407   5.402   1.577 -0.0200  0.0417 -1.6334
  982SOL    HW3 3695   4.540   5.427   1.509  0.8950  0.2792  0.1994
  982SOL    MW4 3696   4.494   5.396   1.576  0.0449  0.5419 -0.2527
  983SOL     OW 3697   1.196   6.175   4.471  0.8214  0.4410  0.2296
  983SOL    HW2 3698   1.106   6.197   4.494  0.9691 -0.1809  1.5243
  983SOL    HW3 3699   1.193   6.155   4.377 -0.4862 -0.0141  0.3493
  983SOL    MW4 3700   1.184   6.175   4.462  0.6683  0.2989  0.4162
  984SOL     OW 3701   0.272   6.213   5.759  0.0151  0.3029  0.2374
  984SOL    HW2 3702   0.359   6.193   5.791  1.6296  3.1371 -1.8420
  984SOL    HW3 3703   0.235   6.271   5.826  1.0616  1.6061 -0.2596
  984SOL    MW4 3704   0.278   6.218   5.772  0.3662  0.8488 -0.1026
  985SOL     OW 3705   2.077   5.684   6.379  0.2436  0.1809  0.1242
  985SOL    HW2 3706   2.157   5.702   6.331  0.0137 -1.0257 -0.7653
  985SOL    HW3 3707   2.052   5.595   6.352  0.1255 -0.5870  2.5134
  985SOL    MW4 3708   2.084   5.675   6.370  0.1977 -0.0796  0.3221
  986SOL     OW 3709   1.631   5.590   5.033 -0.0638 -0.4953 -0.0520
  986SOL    HW2 3710   1.580   5.632   4.964 -0.8254 -0.0582  0.7638
  986SOL    HW3 3711   1.717   5.631   5.027 -0.2302 -0.2028 -0.5062
  986SOL    MW4 3712   1.636   5.601   5.023 -0.1862 -0.3991 -0.0043
  987SOL     OW 3713   6.083   5.596   4.444  0.1490  0.3940 -0.4128
  987SOL    HW2 3714   6.008   5.638   4.487 -1.0896 -1.6348 -0.4349
  987SOL    HW3 3715   6.112   5.530   4.508  0.3441 -0.4780 -1.3776
  987SOL    MW4 3716   6.077   5.593   4.458  0.0113  0.0113 -0.5430
  988SOL     OW 3717   5.197   4.577   3.730  0.3191 -0.3117  0.3575
  988SOL    HW2 3718   5.280   4.553   3.772  0.6355  1.1336  0.6042
  988SOL    HW3 3719   5.208   4.669   3.707 -0.5526 -0.5834 -1.2611
  988SOL    MW4 3720   5.210   4.586   3.733  0.2458 -0.1568  0.1765
  989SOL     OW 3721   2.868   1.219   3.440  0.6463 -0.5755  0.0041
  989SOL    HW2 3722   2.874   1.309   3.473 -0.0000 -0.6665  0.3892
  989SOL    HW3 3723   2.862   1.229   3.345  2.7833 -0.3210 -0.1569
  989SOL    MW4 3724   2.868   1.232   3.432  0.8430 -0.5539  0.0337
  990SOL     OW 3725   1.217   4.289   2.621  0.3940 -0.0649  0.1369
  990SOL    HW2 3726   1.173   4.316   2.541  1.5994 -0.7738 -0.7970
  990SOL    HW3 3727   1.149   4.294   2.689 -0.8007 -0.0144 -1.0283
  990SOL    MW4 3728   1.202   4.293   2.620  0.3954 -0.1518 -0.1401
  991SOL     OW 3729   4.552   5.172   4.543 -0.5510  0.2366  0.0779
  991SOL    HW2 3730   4.521   5.259   4.520  1.3319  1.6452  2.3882
  991SOL    HW3 3731   4.598   5.141   4.466 -1.2772  1.2511 -0.7896
  991SOL    MW4 3732   4.554   5.179   4.530 -0.3984  0.5563  0.2683
  992SOL     OW 3733   5.769   3.698   0.817  0.2765 -0.2409  0.4410
  992SOL    HW2 3734   5.774   3.618   0.869 -0.7519 -1.4765 -1.2720
  992SOL    HW3 3735   5.836   3.756   0.855  1.3571 -2.0638  1.4383
  992SOL    MW4 3736   5.779   3.695   0.829  0.2834 -0.6444  0.3466
  993SOL     OW 3737   2.754   3.431   1.458 -0.1274 -0.3234 -0.8036
  993SOL    HW2 3738   2.740   3.347   1.415  0.1325 -2.2932  2.5421
  993SOL    HW3 3739   2.830   3.469   1.414  0.1339 -2.1382 -2.0047
  993SOL    MW4 3740   2.762   3.425   1.447 -0.0587 -0.8227 -0.5207
  994SOL     OW 3741   5.533   2.125   1.656  0.5399  0.5491  0.4142
  994SOL    HW2 3742   5.550   2.116   1.749  0.7167  1.4151  0.4777
  994SOL    HW3 3743   5.515   2.218   1.644 -0.0821  0.3497 -0.3203
  994SOL    MW4 3744   5.532   2.136   1.667  0.4811  0.6370  0.3257
  995SOL     OW 3745   1.022   5.978   3.066  0.8201  0.0235 -0.3822
  995SOL    HW2 3746   1.082   5.964   3.139  1.5312  1.1512 -0.7141
  995SOL    HW3 3747   1.054   6.059   3.025  1.1833 -1.2102 -2.6802
  995SOL    MW4 3748   1.034   5.987   3.070  0.9618  0.0095 -0.7292
  996SOL     OW 3749   1.420   4.491   2.065 -0.0628  0.5632 -0.0502
  996SOL    HW2 3750   1.472   4.458   1.993 -2.4231 -0.5881 -1.3296
  996SOL    HW3 3751   1.400   4.414   2.118 -0.9983  0.8472  0.0316
  996SOL    MW4 3752   1.424   4.477   2.063 -0.4976  0.4488 -0.2082
  997SOL     OW 3753   5.743   3.395   3.985 -0.0509  0.0824  0.1447
  997SOL    HW2 3754   5.791   3.343   4.050  0.2518 -0.9568 -0.8873
  997SOL    HW3 3755   5.651   3.387   4.012  0.2630  2.0506  2.1076
  997SOL    MW4 3756   5.737   3.387   3.997  0.0304  0.2050  0.2675
  998SOL     OW 3757   4.542   1.783   0.642 -0.0721 -0.3948  0.6423
  998SOL    HW2 3758   4.452   1.810   0.625  0.0000  0.8227  2.0500
  998SOL    HW3 3759   4.539   1.744   0.729  0.6680 -0.8796  0.4585
  998SOL    MW4 3760   4.530   1.781   0.651  0.0351 -0.2981  0.8038
  999SOL     OW 3761   0.444   4.662   5.900 -0.1021 -0.0782 -0.3704
  999SOL    HW2 3762   0.538   4.660   5.879  0.6143 -1.0431  2.3458
  999SOL    HW3 3763   0.438   4.719   5.976 -1.5825 -0.6592 -0.0122
  999SOL    MW4 3764   0.456   4.669   5.908 -0.2029 -0.2821  0.0352
 1000SOL     OW 3765   2.156   2.638   1.337 -0.1387 -0.0724  0.3579
 1000SOL    HW2 3766   2.134   2.730   1.325 -1.8628 -0.6294 -1.2042
 1000SOL    HW3 3767   2.175   2.607   1.248  0.3865 -1.2506  0.8603
 1000SOL    MW4 3768   2.156   2.646   1.323 -0.2969 -0.3013  0.2181
 1001SOL     OW 3769   2.870   4.556   3.736  0.3326  0.2036  0.1517
 1001SOL    HW2 3770   2.862   4.494   3.664 -0.5028  1.4122 -0.8272
 1001SOL    HW3 3771   2.813   4.629   3.712  0.6046  0.9688  1.6911
 1001SOL    MW4 3772   2.861   4.557   3.723  0.2582  0.4640  0.2256
 1002SOL     OW 3773   3.369   4.568   5.451 -0.0376  0.0029  0.0104
 1002SOL    HW2 3774   3.366   4.663   5.467 -0.4128  0.1508 -0.8850
 1002SOL    HW3 3775   3.318   4.555   5.372 -2.0450 -1.2471  1.4125
 1002SOL    MW4 3776   3.362   4.579   5.443 -0.3519 -0.1425  0.0773
 1003SOL     OW 3777   6.087   1.321   0.924  0.6097  0.2202  0.1866
 1003SOL    HW2 3778   6.083   1.290   0.834 -2.4661  0.3670  0.1797
 1003SOL    HW3 3779   6.148   1.395   0.921 -0.6361  1.2380 -2.1465
 1003SOL    MW4 3780   6.095   1.327   0.912  0.0395  0.3739 -0.1221
 1004SOL     OW 3781   4.539   5.393   3.151  0.0721  0.2330 -0.0468
 1004SOL    HW2 3782   4.595   5.463   3.116  0.2727 -0.1927 -0.5814
 1004SOL    HW3 3783   4.591   5.353   3.220  1.1740 -1.3113 -1.6960
 1004SOL    MW4 3784   4.553   5.397   3.155  0.2440 -0.0269 -0.3349
 1005SOL     OW 3785   6.215   1.348   1.535 -1.1003  1.0842 -0.2284
 1005SOL    HW2 3786   6.242   1.313   1.450 -0.7632 -1.4502  0.8406
 1005SOL    HW3 3787   6.119   1.348   1.531 -1.0901  1.9145 -0.9149
 1005SOL    MW4 3788   6.206   1.343   1.523 -1.0545  0.8593 -0.1779
 1006SOL     OW 3789   2.621   1.634   2.256 -0.6140  0.1277  0.7164
 1006SOL    HW2 3790   2.708   1.607   2.286 -0.5597 -0.1700  0.3040
 1006SOL    HW3 3791   2.629   1.728   2.242 -0.0846 -0.0428 -0.2032
 1006SOL    MW4 3792   2.633   1.643   2.258 -0.5370  0.0659  0.5406
 1007SOL     OW 3793   6.386   0.513   2.009  0.2256 -0.3211 -0.3325
 1007SOL    HW2 3794   6.446   0.439   2.010 -0.3332 -0.8178  1.3240
 1007SOL    HW3 3795   6.308   0.481   1.963 -0.2120 -0.9788  0.8148
 1007SOL    MW4 3796   6.383   0.499   2.003  0.0941 -0.4734  0.0374
 1008SOL     OW 3797   4.405   4.412   0.845 -0.0505  0.3143  0.2387
 1008SOL    HW2 3798   4.354   4.387   0.922 -0.4078  0.8755  0.1962
 1008SOL    HW3 3799   4.419   4.506   0.855 -1.6394  0.7604 -1.2434
 1008SOL    MW4 3800   4.400   4.421   0.856 -0.3073  0.4472  0.0376
 1009SOL     OW 3801   4.887   5.708   4.341 -0.0488 -0.5551 -0.4053
 1009SOL    HW2 3802   4.912   5.653   4.414 -0.7405  0.2186  0.4362
 1009SOL    HW3 3803   4.816   5.661   4.298  0.9353 -1.4247 -1.1276
 1009SOL    MW4 3804   4.881   5.695   4.345 -0.0102 -0.5678 -0.3895
 1010SOL     OW 3805   4.800   0.151   3.356  0.4375 -0.0020 -0.0465
 1010SOL    HW2 3806   4.892   0.173   3.365  0.7047 -1.0143 -0.2364
 1010SOL    HW3 3807   4.797   0.085   3.287 -0.5392  0.7344 -0.7420
 1010SOL    MW4 3808   4.811   0.145   3.348  0.3439 -0.0384 -0.1633
 1011SOL     OW 3809   1.100   4.279   6.312 -0.2053  0.4188  0.2747
 1011SOL    HW2 3810   1.025   4.328   6.279  0.5907  2.0501  0.7635
 1011SOL    HW3 3811   1.151   4.344   6.361  0.9322 -0.9071  0.9149
 1011SOL    MW4 3812   1.097   4.294   6.314  0.0498  0.4591  0.4237
 1012SOL     OW 3813   3.596   3.845   4.558  0.3927  0.5252  0.7543
 1012SOL    HW2 3814   3.558   3.872   4.475  2.5902  0.2864 -0.4208
 1012SOL    HW3 3815   3.690   3.840   4.540  0.7060 -1.8189  2.6118
 1012SOL    MW4 3816   3.604   3.848   4.544  0.7240  0.1844  0.8444
 1013SOL     OW 3817   1.108   3.311   3.806 -0.1801  0.0680  0.2435
 1013SOL    HW2 3818   1.124   3.241   3.869  1.4252 -0.0574 -0.2543
 1013SOL    HW3 3819   1.193   3.351   3.793 -0.7469  0.9906 -0.8018
 1013SOL    MW4 3820   1.121   3.307   3.813 -0.0431  0.1732  0.0399
 1014SOL     OW 3821   5.310   2.122   4.095 -0.1372  0.3130 -0.0236
 1014SOL    HW2 3822   5.270   2.063   4.159 -0.2588  2.2279  1.7919
 1014SOL    HW3 3823   5.374   2.068   4.048 -1.6652 -1.7122  0.1034
 1014SOL    MW4 3824   5.313   2.107   4.097 -0.3549  0.2984  0.2327
 1015SOL     OW 3825   5.195   0.532   3.955  0.0110  0.0848 -0.1901
 1015SOL    HW2 3826   5.290   0.540   3.944  0.3554 -1.2435  1.4101
 1015SOL    HW3 3827   5.159   0.605   3.905  1.7344 -0.5959 -2.5928
 1015SOL    MW4 3828   5.203   0.543   3.947  0.2838 -0.1803 -0.2960
 1016SOL     OW 3829   2.442   3.244   1.738  0.5104 -1.0456  0.4542
 1016SOL    HW2 3830   2.438   3.262   1.644 -2.3197 -0.4085  0.5895
 1016SOL    HW3 3831   2.385   3.168   1.750  1.8232 -1.8963  1.5382
 1016SOL    MW4 3832   2.434   3.236   1.727  0.3102 -1.0738  0.6150
 1017SOL     OW 3833   4.402   4.691   0.965  0.0444 -0.2299  0.2730
 1017SOL    HW2 3834   4.476   4.723   0.915  0.3466 -1.2497  0.0529
 1017SOL    HW3 3835   4.432   4.691   1.056 -0.3552  1.1989  0.4229
 1017SOL    MW4 3836   4.415   4.695   0.970  0.0315 -0.1759  0.2637
 1018SOL     OW 3837   5.129   4.406   0.779 -0.1673 -1.0485  0.1634
 1018SOL    HW2 3838   5.162   4.473   0.720  0.0595 -0.2838  1.1288
 1018SOL    HW3 3839   5.199   4.394   0.844 -0.1635 -2.2934 -0.0433
 1018SOL    MW4 3840   5.142   4.413   0.780 -0.1369 -1.1118  0.2635
 1019SOL     OW 3841   2.781   5.224   2.670 -0.1174  0.3194 -0.6304
 1019SOL    HW2 3842   2.783   5.240   2.764  0.0817  0.1004 -0.5952
 1019SOL    HW3 3843   2.849   5.157   2.656  0.2853  0.8027 -1.0110
 1019SOL    MW4 3844   2.790   5.217   2.681 -0.0380  0.3543 -0.6760
 1020SOL     OW 3845   0.448   3.118   6.122 -0.4635  0.3630  0.1304
 1020SOL    HW2 3846   0.528   3.171   6.122  0.3197 -0.7851 -0.3287
 1020SOL    HW3 3847   0.380   3.178   6.091 -0.0750  1.7298  1.7369
 1020SOL    MW4 3848   0.449   3.133   6.118 -0.3089  0.3918  0.2818
 1021SOL     OW 3849   1.932   3.073   4.867  0.2504 -0.4508 -0.3393
 1021SOL    HW2 3850   1.938   3.159   4.908 -1.0272  0.0166 -1.0612
 1021SOL    HW3 3851   1.912   3.012   4.938 -1.9677  0.3478 -0.2120
 1021SOL    MW4 3852   1.931   3.076   4.881 -0.2108 -0.2838 -0.4178
 1022SOL     OW 3853   2.766   0.862   5.195  0.3505 -0.3506 -0.3434
 1022SOL    HW2 3854   2.805   0.950   5.190  0.3452 -0.3854 -1.2194
 1022SOL    HW3 3855   2.756   0.845   5.288 -2.0253  1.6435 -0.1313
 1022SOL    MW4 3856   2.770   0.872   5.206  0.0363 -0.0921 -0.4310
 1023SOL     OW 3857   4.769   6.133   0.834  0.2220  0.0344  0.8529
 1023SOL    HW2 3858   4.696   6.137   0.772 -0.4936 -1.9232  1.4838
 1023SOL    HW3 3859   4.783   6.223   0.860 -1.4028  0.5667  0.0327
 1023SOL    MW4 3860   4.761   6.145   0.830 -0.0868 -0.1537  0.8279
 1024SOL     OW 3861   0.932   0.374   0.248  0.1233 -0.4355  0.1043
 1024SOL    HW2 3862   0.976   0.406   0.327 -0.6645  1.2050 -0.0726
 1024SOL    HW3 3863   0.996   0.389   0.178 -0.2178  0.7939  0.0322
 1024SOL    MW4 3864   0.946   0.380   0.249 -0.0257 -0.0569  0.0715
 1025SOL     OW 3865   1.255   2.350   0.806  0.3527 -0.5235 -0.3118
 1025SOL    HW2 3866   1.232   2.388   0.721 -2.0044 -0.4503  0.2785
 1025SOL    HW3 3867   1.215   2.263   0.804  1.3795 -1.0217  0.2609
 1025SOL    MW4 3868   1.247   2.343   0.794  0.1772 -0.5796 -0.1584
 1026SOL     OW 3869   3.256   0.224   2.718 -0.1999  0.0425 -0.1530
 1026SOL    HW2 3870   3.296   0.137   2.717  1.2687  0.6569  0.9372
 1026SOL    HW3 3871   3.210   0.228   2.801 -0.1545  0.3457 -0.1430
 1026SOL    MW4 3872   3.255   0.213   2.729 -0.0001  0.1635 -0.0078
 1027SOL     OW 3873   1.574   3.322   5.774  0.5669  0.3537 -0.1756
 1027SOL    HW2 3874   1.503   3.307   5.711  1.7262 -0.3162 -1.3756
 1027SOL    HW3 3875   1.648   3.349   5.720  1.7179 -0.6284  0.8705
 1027SOL    MW4 3876   1.574   3.324   5.759  0.8717  0.1357 -0.1959
 1028SOL     OW 3877   2.051   1.045   2.921 -0.3471 -0.3154  0.4026
 1028SOL    HW2 3878   2.008   1.115   2.971  0.3401  0.3917  0.0180
 1028SOL    HW3 3879   2.075   0.980   2.987  2.9447  1.7741  1.5377
 1028SOL    MW4 3880   2.048   1.046   2.936  0.1779  0.0536  0.5016
 1029SOL     OW 3881   5.912   2.534   3.935 -0.1587  0.4174  0.9858
 1029SOL    HW2 3882   5.981   2.573   3.990 -0.7783  0.7792  1.5296
 1029SOL    HW3 3883   5.833   2.583   3.958 -0.4503  0.5408 -0.2071
 1029SOL    MW4 3884   5.911   2.546   3.946 -0.2789  0.4814  0.9002
 1030SOL     OW 3885   3.923   0.723   5.576  0.5455  0.4091  0.4305
 1030SOL    HW2 3886   4.001   0.670   5.594 -0.2097 -0.5743  0.9041
 1030SOL    HW3 3887   3.955   0.813   5.574  1.7844 -0.0235  0.0545
 1030SOL    MW4 3888   3.938   0.728   5.578  0.6093  0.2223  0.4434
 1031SOL     OW 3889   3.756   5.231   0.698  0.0234 -0.2555 -0.0659
 1031SOL    HW2 3890   3.697   5.268   0.632 -0.0285  1.4935  0.9054
 1031SOL    HW3 3891   3.836   5.210   0.648 -1.0874 -1.9242 -1.2366
 1031SOL    MW4 3892   3.759   5.233   0.683 -0.1300 -0.2449 -0.0922
 1032SOL     OW 3893   2.970   0.120   3.048  0.5729 -0.2240  0.5280
 1032SOL    HW2 3894   2.926   0.149   3.127  0.3915 -0.3209  0.4615
 1032SOL    HW3 3895   3.039   0.186   3.033 -0.7410  0.9960 -0.4254
 1032SOL    MW4 3896   2.973   0.132   3.056  0.3756 -0.0758  0.3934
 1033SOL     OW 3897   5.213   3.567   3.720  0.3774  0.0115  0.5257
 1033SOL    HW2 3898   5.182   3.508   3.790 -0.2665  1.1064  1.1872
 1033SOL    HW3 3899   5.301   3.592   3.749  0.2055  0.2749  0.8242
 1033SOL    MW4 3900   5.220   3.562   3.733  0.2698  0.1907  0.6524
 1034SOL     OW 3901   2.144   0.199   1.199 -0.1002 -0.1883 -0.1759
 1034SOL    HW2 3902   2.104   0.160   1.277  0.7000 -2.2988 -0.7610
 1034SOL    HW3 3903   2.086   0.173   1.127  0.4964 -0.3944 -0.5895
 1034SOL    MW4 3904   2.131   0.190   1.200  0.0841 -0.4939 -0.3076
 1035SOL     OW 3905   3.655   1.361   4.693 -0.2089 -0.0887  0.4873
 1035SOL    HW2 3906   3.593   1.434   4.687  0.8909  0.8225 -0.2390
 1035SOL    HW3 3907   3.676   1.339   4.603  0.8399 -0.0879  0.7131
 1035SOL    MW4 3908   3.650   1.368   4.681  0.0746  0.0316  0.4213
 1036SOL     OW 3909   0.823   2.383   3.012 -0.7543 -0.2413 -0.1162
 1036SOL    HW2 3910   0.915   2.393   2.986 -0.7207 -1.8423 -0.7795
 1036SOL    HW3 3911   0.807   2.453   3.075  1.1867 -0.4661  0.6879
 1036SOL    MW4 3912   0.833   2.394   3.017 -0.4937 -0.4822 -0.0977
 1037SOL     OW 3913   2.495   3.588   5.071  0.7783  0.4085 -0.0263
 1037SOL    HW2 3914   2.490   3.631   4.985  0.0131  0.8615  0.2290
 1037SOL    HW3 3915   2.488   3.495   5.052 -1.6061  0.5780 -0.3543
 1037SOL    MW4 3916   2.493   3.581   5.057  0.3628  0.4906 -0.0359
 1038SOL     OW 3917   3.378   0.187   3.132  0.3641  0.0371  0.4109
 1038SOL    HW2 3918   3.420   0.261   3.175  3.0062 -0.3787 -1.1977
 1038SOL    HW3 3919   3.293   0.220   3.104  0.5448  1.7300  1.7240
 1038SOL    MW4 3920   3.372   0.201   3.134  0.7366  0.2056  0.3719
 1039SOL     OW 3921   1.602   6.204   2.157  0.7009  0.1770 -0.3759
 1039SOL    HW2 3922   1.652   6.286   2.153  2.1920 -0.6942 -0.5671
 1039SOL    HW3 3923   1.512   6.230   2.139  1.0315  1.8593  0.1734
 1039SOL    MW4 3924   1.597   6.218   2.154  0.9412  0.2840 -0.3287
 1040SOL     OW 3925   1.585   3.040   2.014 -0.2273 -0.1670 -0.5626
 1040SOL    HW2 3926   1.543   3.072   2.093  1.4414  0.4248  0.1328
 1040SOL    HW3 3927   1.655   3.103   1.997 -0.0171 -0.7549 -2.0223
 1040SOL    MW4 3928   1.589   3.053   2.022  0.0206 -0.1665 -0.6635
 1041SOL     OW 3929   3.978   1.398   1.718  0.5019  0.0254 -0.3823
 1041SOL    HW2 3930   3.966   1.329   1.653  0.0630 -0.4326  0.1658
 1041SOL    HW3 3931   3.953   1.479   1.673 -2.6163 -0.5935  0.0039
 1041SOL    MW4 3932   3.973   1.400   1.704  0.0326 -0.1167 -0.2590
 1042SOL     OW 3933   0.465   1.517   5.557 -0.0583  0.0544 -0.2129
 1042SOL    HW2 3934   0.554   1.507   5.590 -0.1368 -1.2040 -0.3323
 1042SOL    HW3 3935   0.461   1.458   5.482 -0.9259  0.2688 -0.3384
 1042SOL    MW4 3936   0.476   1.508   5.552 -0.1832 -0.0834 -0.2452
 1043SOL     OW 3937   0.190   2.879   5.538 -0.0031  0.5422  0.7995
 1043SOL    HW2 3938   0.284   2.879   5.552  0.0783  1.3206  0.3018
 1043SOL    HW3 3939   0.166   2.971   5.533 -1.1015  0.4266  2.9014
 1043SOL    MW4 3940   0.199   2.891   5.539 -0.1373  0.6297  1.0112
 1044SOL     OW 3941   1.361   4.009   1.264  0.5359 -0.0587 -0.4453
 1044SOL    HW2 3942   1.442   3.959   1.252  0.0711 -1.5225  1.7944
 1044SOL    HW3 3943   1.303   3.978   1.195  1.3013 -0.3102 -0.9885
 1044SOL    MW4 3944   1.364   3.998   1.254  0.5755 -0.2850 -0.2214
 1045SOL     OW 3945   5.030   0.968   4.073 -0.3577  0.1280 -0.1206
 1045SOL    HW2 3946   5.095   1.005   4.132  0.2964  1.0017 -1.3548
 1045SOL    HW3 3947   4.997   0.891   4.119  2.5298 -1.1636 -0.0031
 1045SOL    MW4 3948   5.034   0.962   4.087  0.1096  0.0729 -0.2680
 1046SOL     OW 3949   2.163   5.110   3.520  0.3437 -0.5212  0.2431
 1046SOL    HW2 3950   2.182   5.193   3.476 -1.6661  0.0111  0.3181
 1046SOL    HW3 3951   2.245   5.061   3.513  1.1875  0.9598 -0.9199
 1046SOL    MW4 3952   2.176   5.114   3.513  0.1899 -0.2556  0.0995
 1047SOL     OW 3953   5.395   0.229   4.123 -0.2064 -0.0737  0.2601
 1047SOL    HW2 3954   5.305   0.210   4.096 -0.1214 -0.6486  0.3479
 1047SOL    HW3 3955   5.388   0.303   4.183 -0.3277  1.7432 -1.8856
 1047SOL    MW4 3956   5.383   0.236   4.127 -0.2112  0.0902 -0.0114
 1048SOL     OW 3957   5.886   0.608   4.416  0.0116 -0.2856 -0.3389
 1048SOL    HW2 3958   5.795   0.583   4.401 -0.4115  0.6718  0.5224
 1048SOL    HW3 3959   5.934   0.526   4.417 -0.7934 -0.7811 -1.1142
 1048SOL    MW4 3960   5.880   0.594   4.414 -0.1504 -0.2246 -0.3275
 1049SOL     OW 3961   4.674   4.962   5.155  0.2245  0.2079 -0.8142
 1049SOL    HW2 3962   4.765   4.932   5.158 -0.0684 -0.6124  0.2644
 1049SOL    HW3 3963   4.679   5.055   5.176  0.6349 -0.2796  1.4756
 1049SOL    MW4 3964   4.687   4.970   5.158  0.2400  0.0354 -0.3698
 1050SOL     OW 3965   3.185   3.739   0.364  0.1827 -0.5023 -0.2682
 1050SOL    HW2 3966   3.117   3.695   0.415 -0.5871  0.9217  0.0018
 1050SOL    HW3 3967   3.178   3.831   0.391 -0.5493  0.4042 -3.2258
 1050SOL    MW4 3968   3.175   3.745   0.374 -0.0155 -0.1948 -0.6228
 1051SOL     OW 3969   3.906   3.119   5.854  0.1598 -0.0481 -0.0201
 1051SOL    HW2 3970   3.947   3.165   5.781 -1.5893 -1.3584 -1.9362
 1051SOL    HW3 3971   3.952   3.035   5.857 -0.3346 -0.3265 -0.1877
 1051SOL    MW4 3972   3.918   3.114   5.845 -0.1362 -0.2577 -0.2950
 1052SOL     OW 3973   4.646   4.501   1.818 -1.3168  0.3146  0.0679
 1052SOL    HW2 3974   4.554   4.486   1.839 -1.4542  0.8125 -0.1517
 1052SOL    HW3 3975   4.663   4.590   1.850 -0.8823  0.1799  0.2124
 1052SOL    MW4 3976   4.636   4.511   1.825 -1.2776  0.3625  0.0580
 1053SOL     OW 3977   5.483   1.693   1.421 -0.2059 -0.1794  0.0229
 1053SOL    HW2 3978   5.485   1.742   1.339 -0.6294 -0.2157 -0.0095
 1053SOL    HW3 3979   5.470   1.760   1.489  0.5871 -0.0972  0.1095
 1053SOL    MW4 3980   5.482   1.709   1.419 -0.1572 -0.1734  0.0300
 1054SOL     OW 3981   1.269   3.093   1.611 -0.0968 -0.1550  0.1621
 1054SOL    HW2 3982   1.183   3.097   1.653  1.3735 -1.2091  3.5776
 1054SOL    HW3 3983   1.323   3.043   1.671  2.9605  0.4340 -1.8794
 1054SOL    MW4 3984   1.264   3.087   1.624  0.5006 -0.2163  0.3434
 1055SOL     OW 3985   6.372   2.129   3.268 -0.2599 -0.3699 -0.1079
 1055SOL    HW2 3986   6.317   2.198   3.305  0.2551 -0.5644  1.0569
 1055SOL    HW3 3987   6.449   2.175   3.234  0.7329 -0.4564  1.8968
 1055SOL    MW4 3988   6.375   2.144   3.268 -0.0610 -0.4069  0.3103
 1056SOL     OW 3989   2.452   2.749   0.873 -0.0877  0.3215  0.0152
 1056SOL    HW2 3990   2.545   2.764   0.855  0.0891  1.4425  1.6025
 1056SOL    HW3 3991   2.407   2.818   0.825 -0.0402  0.2000 -0.2041
 1056SOL    MW4 3992   2.458   2.760   0.864 -0.0581  0.4534  0.1957
 1057SOL     OW 3993   5.989   4.971   2.142 -0.5040 -0.1003 -0.2189
 1057SOL    HW2 3994   6.049   4.902   2.114 -0.5440 -0.4467  0.5268
 1057SOL    HW3 3995   5.978   5.027   2.065  0.8804  0.0434 -0.3312
 1057SOL    MW4 3996   5.995   4.969   2.128 -0.3267 -0.1271 -0.1353
 1058SOL     OW 3997   2.221   3.505   2.776 -0.4004  0.2571  0.1081
 1058SOL    HW2 3998   2.267   3.484   2.857 -1.3173  1.8548  1.0899
 1058SOL    HW3 3999   2.134   3.465   2.787 -1.1074  1.8765  0.6862
 1058SOL    MW4 4000   2.215   3.497   2.788 -0.6146  0.6815  0.3139
 1059SOL     OW 4001   2.186   2.741   2.429 -0.1841 -0.0589  0.1534
 1059SOL    HW2 4002   2.219   2.657   2.398  0.3632  0.7125 -1.4616
 1059SOL    HW3 4003   2.253   2.772   2.489  0.9298  0.3819 -1.2543
 1059SOL    MW4 4004   2.199   2.734   2.433  0.0351  0.1010 -0.2454
 1060SOL     OW 4005   3.337   2.079   1.456 -0.1242  0.3854 -1.2342
 1060SOL    HW2 4006   3.307   1.989   1.460 -0.7847  0.5475 -2.1778
 1060SOL    HW3 4007   3.264   2.127   1.416  0.1176  1.3782 -0.5092
 1060SOL    MW4 4008   3.324   2.074   1.451 -0.1794  0.5377 -1.2630
 1061SOL     OW 4009   0.493   4.434   4.879 -0.3855  0.4950 -0.1317
 1061SOL    HW2 4010   0.452   4.462   4.797 -0.8688 -1.6738 -0.6790
 1061SOL    HW3 4011   0.428   4.456   4.946 -0.3547  1.4871 -0.4018
 1061SOL    MW4 4012   0.479   4.441   4.877 -0.4452  0.3397 -0.2395
 1062SOL     OW 4013   5.838   0.375   2.217 -0.2606  0.3976  0.4649
 1062SOL    HW2 4014   5.841   0.316   2.142  1.6449  0.5068  0.4160
 1062SOL    HW3 4015   5.778   0.445   2.190 -1.9387 -1.0561  0.2314
 1062SOL    MW4 4016   5.831   0.376   2.204 -0.2306  0.2202  0.4276
 1063SOL     OW 4017   5.029   1.788   6.394 -0.0103  0.1574  0.5830
 1063SOL    HW2 4018   5.062   1.727   6.460  0.5007 -0.9553 -0.6658
 1063SOL    HW3 4019   4.938   1.805   6.420 -1.0280 -3.1623 -0.3988
 1063SOL    MW4 4020   5.021   1.782   6.406 -0.0772 -0.4274  0.2887
 1064SOL     OW 4021   4.473   0.655   4.973 -0.0515  0.2368 -0.3686
 1064SOL    HW2 4022   4.558   0.653   4.930  0.7903  2.5065  1.0446
 1064SOL    HW3 4023   4.474   0.578   5.030  0.6673 -0.2589 -1.0287
 1064SOL    MW4 4024   4.484   0.644   4.975  0.1544  0.4709 -0.2692
 1065SOL     OW 4025   3.596   5.002   0.808  0.1649  0.2546  0.1836
 1065SOL    HW2 4026   3.618   5.068   0.742 -1.1137  0.7212  0.1902
 1065SOL    HW3 4027   3.673   4.946   0.812  0.1214 -0.0678 -2.0449
 1065SOL    MW4 4028   3.609   5.003   0.800 -0.0095  0.2736 -0.1095
 1066SOL     OW 4029   0.486   2.393   2.521  0.5914  0.0096  0.4464
 1066SOL    HW2 4030   0.397   2.424   2.508  0.7907 -0.3077 -2.0572
 1066SOL    HW3 4031   0.486   2.356   2.610 -2.3172 -1.7888 -0.1998
 1066SOL    MW4 4032   0.474   2.392   2.531  0.2339 -0.2695  0.0308
 1067SOL     OW 4033   4.738   2.261   4.149 -0.5660 -0.5071  0.2792
 1067SOL    HW2 4034   4.750   2.295   4.060 -0.2329 -2.0345 -0.2938
 1067SOL    HW3 4035   4.802   2.309   4.201 -0.1723 -0.1741 -0.4852
 1067SOL    MW4 4036   4.748   2.272   4.144 -0.4701 -0.6647  0.1027
 1068SOL     OW 4037   3.960   5.221   1.321 -0.5386 -0.3774  0.1699
 1068SOL    HW2 4038   3.885   5.240   1.377  1.2293  1.9082  1.9900
 1068SOL    HW3 4039   3.929   5.242   1.233 -2.2808 -0.3535  0.7383
 1068SOL    MW4 4040   3.946   5.227   1.317 -0.5352 -0.0727  0.4850
 1069SOL     OW 4041   3.771   2.065   0.646  0.2885 -0.1928  0.5555
 1069SOL    HW2 4042   3.687   2.040   0.609 -0.3401 -0.0789  1.8694
 1069SOL    HW3 4043   3.761   2.158   0.669  1.2695  0.2343 -0.5887
 1069SOL    MW4 4044   3.759   2.074   0.644  0.3350 -0.1214  0.5779
 1070SOL     OW 4045   3.105   3.808   5.268  0.0491  0.4105 -0.1595
 1070SOL    HW2 4046   3.154   3.810   5.186  0.1965  0.5138 -0.0691
 1070SOL    HW3 4047   3.060   3.892   5.272 -0.3469  0.2091 -0.3707
 1070SOL    MW4 4048   3.106   3.819   5.258  0.0163  0.3975 -0.1754
 1071SOL     OW 4049   0.894   1.826   4.309  0.3772  0.0932 -0.6857
 1071SOL    HW2 4050   0.874   1.862   4.222  1.6399  1.0371 -0.6122
 1071SOL    HW3 4051   0.989   1.816   4.309  0.2043 -2.0500 -0.2017
 1071SOL    MW4 4052   0.904   1.829   4.297  0.5210 -0.0650 -0.6122
 1072SOL     OW 4053   4.033   4.935   3.620  0.1559 -0.4977 -0.3192
 1072SOL    HW2 4054   3.989   4.851   3.624  0.1211 -0.4327  0.9839
 1072SOL    HW3 4055   4.037   4.965   3.711  0.7685  0.5927 -0.6838
 1072SOL    MW4 4056   4.028   4.928   3.632  0.2321 -0.3453 -0.1954
 1073SOL     OW 4057   3.328   4.384   5.936 -0.0131  0.4053  0.5461
 1073SOL    HW2 4058   3.255   4.396   5.997  0.8711 -1.0637  2.0041
 1073SOL    HW3 4059   3.287   4.356   5.854 -1.2084  2.0176  0.5474
 1073SOL    MW4 4060   3.313   4.382   5.933 -0.0541  0.4242  0.7386
 1074SOL     OW 4061   1.470   5.401   3.775 -0.2428 -0.1219 -0.0423
 1074SOL    HW2 4062   1.434   5.410   3.687 -1.0212  0.4771  0.3336
 1074SOL    HW3 4063   1.505   5.312   3.777  1.6214  0.5058 -1.6241
 1074SOL    MW4 4064   1.470   5.390   3.763 -0.0995  0.0399 -0.2014
 1075SOL     OW 4065   5.184   2.799   2.243 -0.7305  0.1562  0.5842
 1075SOL    HW2 4066   5.243   2.874   2.241 -0.7597  0.1660 -0.2516
 1075SOL    HW3 4067   5.225   2.734   2.186 -0.9850 -0.2475  0.8571
 1075SOL    MW4 4068   5.197   2.800   2.235 -0.7680  0.1042  0.5099
 1076SOL     OW 4069   1.348   3.981   4.661  0.4396  0.1827 -0.0282
 1076SOL    HW2 4070   1.403   4.044   4.614 -1.9119  0.8881 -2.0546
 1076SOL    HW3 4071   1.296   4.035   4.721 -1.0489  0.1834 -1.2426
 1076SOL    MW4 4072   1.348   3.997   4.663 -0.0671  0.2759 -0.4558
 1077SOL     OW 4073   5.402   4.949   3.835 -0.5666 -0.0958 -0.1963
 1077SOL    HW2 4074   5.418   5.003   3.758 -0.1158  0.4943  0.3003
 1077SOL    HW3 4075   5.482   4.898   3.846 -0.6067 -0.1373 -0.0919
 1077SOL    MW4 4076   5.415   4.950   3.826 -0.5124 -0.0234 -0.1170
 1078SOL     OW 4077   5.982   2.684   6.157  0.4804  0.3363  0.0916
 1078SOL    HW2 4078   5.906   2.674   6.100 -0.2602  1.7157  0.8033
 1078SOL    HW3 4079   6.046   2.621   6.122 -1.5461 -2.0954  0.4925
 1078SOL    MW4 4080   5.980   2.674   6.145  0.1153  0.1975  0.2384
 1079SOL     OW 4081   1.942   1.286   3.036  0.2789  0.2317 -0.3187
 1079SOL    HW2 4082   1.854   1.274   3.072  1.1071  1.4643  2.3594
 1079SOL    HW3 4083   1.928   1.338   2.957 -1.3871  0.7136  0.2456
 1079SOL    MW4 4084   1.929   1.291   3.030  0.1683  0.4579  0.1091
 1080SOL     OW 4085   5.575   4.187   3.592  0.1646  0.3465  0.3759
 1080SOL    HW2 4086   5.621   4.247   3.650  0.4107  1.5719 -1.0124
 1080SOL    HW3 4087   5.618   4.103   3.606 -0.5259  0.3147  2.7412
 1080SOL    MW4 4088   5.587   4.184   3.601  0.1060  0.5040  0.5048
 1081SOL     OW 4089   5.582   2.195   5.742  0.5500  0.0919 -0.2569
 1081SOL    HW2 4090   5.629   2.115   5.718 -0.5699 -0.9416  0.8406
 1081SOL    HW3 4091   5.490   2.173   5.731  0.2036  1.0901  0.4629
 1081SOL    MW4 4092   5.576   2.182   5.738  0.3566  0.0872 -0.0172
 1082SOL     OW 4093   1.286   3.209   0.027  0.4044 -0.8409 -0.2691
 1082SOL    HW2 4094   1.268   3.204  -0.067  0.7792 -1.5698 -0.3080
 1082SOL    HW3 4095   1.218   3.268   0.061  0.8115  0.1536 -1.1257
 1082SOL    MW4 4096   1.275   3.216   0.019  0.5076 -0.8059 -0.3873
 1083SOL     OW 4097   6.070   0.470   0.226  0.2160  0.0280  0.0875
 1083SOL    HW2 4098   5.977   0.454   0.238 -0.2826  1.1654 -1.7416
 1083SOL    HW3 4099   6.074   0.556   0.182  1.8679 -1.3942 -2.8986
 1083SOL    MW4 4100   6.058   0.479   0.222  0.3682 -0.0096 -0.5478
 1084SOL     OW 4101   4.848   6.333   4.358 -0.4264 -0.3121 -0.2723
 1084SOL    HW2 4102   4.913   6.363   4.422 -0.8713  0.1517 -0.0314
 1084SOL    HW3 4103   4.774   6.303   4.410 -0.1944 -1.3817 -0.5279
 1084SOL    MW4 4104   4.847   6.333   4.373 -0.4545 -0.3920 -0.2742
 1085SOL     OW 4105   1.884   2.666   2.359  0.2345  0.1457 -0.2786
 1085SOL    HW2 4106   1.976   2.657   2.386  0.0495  1.4217  0.9456
 1085SOL    HW3 4107   1.861   2.581   2.322  1.9873 -0.1098 -0.8757
 1085SOL    MW4 4108   1.893   2.654   2.358  0.4414  0.2804 -0.1958
 1086SOL     OW 4109   5.340   3.562   1.995 -0.0490 -0.5897 -0.8955
 1086SOL    HW2 4110   5.392   3.523   1.924  0.8242 -0.8389 -0.1493
 1086SOL    HW3 4111   5.338   3.494   2.063  0.1643  0.0745 -0.2030
 1086SOL    MW4 4112   5.347   3.548   1.995  0.0944 -0.5350 -0.7057
 1087SOL     OW 4113   2.865  -0.031   2.656 -0.0358 -0.3707 -0.1446
 1087SOL    HW2 4114   2.932  -0.032   2.588 -0.2653 -2.7116 -0.4258
 1087SOL    HW3 4115   2.911  -0.055   2.737 -0.4086 -1.5792 -0.2630
 1087SOL    MW4 4116   2.880  -0.034   2.658 -0.1153 -0.8390 -0.1973
 1088SOL     OW 4117   4.472   0.459   0.057  0.0580 -0.1291 -0.2060
 1088SOL    HW2 4118   4.383   0.425   0.063  0.7858 -2.2717 -0.4078
 1088SOL    HW3 4119   4.499   0.472   0.147  0.3771 -2.0469  0.0338
 1088SOL    MW4 4120   4.464   0.456   0.069  0.1961 -0.6648 -0.2010
 1089SOL     OW 4121   3.201   3.641   3.106  0.3832 -0.0143  0.2220
 1089SOL    HW2 4122   3.234   3.707   3.167 -1.5361  0.1109  1.2213
 1089SOL    HW3 4123   3.150   3.581   3.162 -2.0786  0.5136 -1.3064
 1089SOL    MW4 4124   3.199   3.642   3.122 -0.1948  0.0719  0.1522
 1090SOL     OW 4125   4.523   1.649   4.983  0.0697  0.3906 -0.4382
 1090SOL    HW2 4126   4.448   1.616   5.031  0.5613 -0.1324 -0.0207
 1090SOL    HW3 4127   4.539   1.737   5.019  2.2861 -1.0763  2.5959
 1090SOL    MW4 4128   4.515   1.656   4.994  0.4270  0.1280  0.0172
 1091SOL     OW 4129   0.130   3.549   3.446 -0.6571  0.0769 -0.4297
 1091SOL    HW2 4130   0.070   3.586   3.510 -0.4322  0.4070 -0.4042
 1091SOL    HW3 4131   0.077   3.490   3.393 -0.8714 -0.1013 -0.0202
 1091SOL    MW4 4132   0.115   3.546   3.448 -0.6557  0.0970 -0.3723
 1092SOL     OW 4133   1.837   5.435   4.765  0.5029 -0.4436 -0.3650
 1092SOL    HW2 4134   1.910   5.457   4.707  1.3777 -1.0017  0.5010
 1092SOL    HW3 4135   1.831   5.510   4.825  0.1004 -0.2188 -0.6812
 1092SOL    MW4 4136   1.846   5.448   4.765  0.5652 -0.4876 -0.2925
 1093SOL     OW 4137   5.708   5.084   1.819 -0.2359  0.5730 -0.4010
 1093SOL    HW2 4138   5.668   5.156   1.770  0.7281  0.4569 -1.3893
 1093SOL    HW3 4139   5.776   5.126   1.872 -0.2803  0.5043 -0.2888
 1093SOL    MW4 4140   5.712   5.099   1.820 -0.1146  0.5487 -0.5166
 1094SOL     OW 4141   4.771   2.462   4.517  0.8315  0.2898 -0.1892
 1094SOL    HW2 4142   4.735   2.388   4.565  0.1545  0.2878 -0.6825
 1094SOL    HW3 4143   4.761   2.537   4.576  0.9310  0.1068  0.0601
 1094SOL    MW4 4144   4.765   2.462   4.531  0.7553  0.2654 -0.2214
 1095SOL     OW 4145   4.131   3.697   5.400  0.3120 -0.2190 -0.2887
 1095SOL    HW2 4146   4.048   3.651   5.412  0.3584 -0.3822 -0.5905
 1095SOL    HW3 4147   4.175   3.689   5.485  0.1715 -0.4392 -0.2345
 1095SOL    MW4 4148   4.126   3.690   5.413  0.2995 -0.2696 -0.3214
 1096SOL     OW 4149   0.359   4.991   1.504 -0.2007 -0.0369  0.2920
 1096SOL    HW2 4150   0.301   4.932   1.456 -0.2999  0.1741  0.1523
 1096SOL    HW3 4151   0.337   5.079   1.473  0.0299  0.0664  0.4098
 1096SOL    MW4 4152   0.349   4.995   1.494 -0.1834  0.0046  0.2892
 1097SOL     OW 4153   0.970   3.615   6.145 -0.1257  0.0337  0.1681
 1097SOL    HW2 4154   0.889   3.665   6.157  0.4028  0.6936  1.1138
 1097SOL    HW3 4155   1.017   3.664   6.077 -0.1285  0.1442  0.2457
 1097SOL    MW4 4156   0.965   3.628   6.137 -0.0563  0.1354  0.3031
 1098SOL     OW 4157   1.533   0.228   6.395  0.0499 -0.5751  0.4594
 1098SOL    HW2 4158   1.504   0.185   6.314  0.1307 -1.9096  1.1137
 1098SOL    HW3 4159   1.614   0.182   6.418  0.9174  0.8830  0.4443
 1098SOL    MW4 4160   1.540   0.216   6.387  0.1750 -0.5588  0.5437
 1099SOL     OW 4161   1.413   0.399   0.652 -0.5202 -0.2785 -0.4056
 1099SOL    HW2 4162   1.324   0.389   0.687 -0.1384 -1.0260  0.3911
 1099SOL    HW3 4163   1.450   0.472   0.702 -0.1516 -1.0113  0.4222
 1099SOL    MW4 4164   1.406   0.407   0.664 -0.4212 -0.4738 -0.1913
 1100SOL     OW 4165   2.979   5.658   2.340  0.4228 -0.2219  0.2461
 1100SOL    HW2 4166   3.033   5.591   2.382 -0.4110 -0.9559  0.1533
 1100SOL    HW3 4167   2.889   5.637   2.366 -0.0177 -0.1209 -1.1105
 1100SOL    MW4 4168   2.974   5.647   2.349  0.2547 -0.3054  0.0549
 1101SOL     OW 4169   6.371   0.345   2.639  0.1505 -0.0170  0.3556
 1101SOL    HW2 4170   6.419   0.427   2.649  0.0930  0.0350  0.2056
 1101SOL    HW3 4171   6.409   0.287   2.705 -0.1264  0.2800  0.7851
 1101SOL    MW4 4172   6.382   0.349   2.649  0.1064  0.0291  0.3925
 1102SOL     OW 4173   1.596   6.298   6.351 -0.0142 -0.3247 -0.7408
 1102SOL    HW2 4174   1.660   6.348   6.402 -1.2442 -0.2851  0.8138
 1102SOL    HW3 4175   1.636   6.213   6.337  0.9732  0.1817 -1.0622
 1102SOL    MW4 4176   1.610   6.294   6.356 -0.0462 -0.2527 -0.5781
 1103SOL     OW 4177   4.661   2.495   5.383 -0.3616 -0.8364 -0.0805
 1103SOL    HW2 4178   4.651   2.589   5.395 -1.1450 -0.9653  0.4125
 1103SOL    HW3 4179   4.656   2.481   5.289  0.1082 -0.3478 -0.1757
 1103SOL    MW4 4180   4.659   2.505   5.372 -0.4030 -0.7890 -0.0280
 1104SOL     OW 4181   5.981   5.271   4.452  0.7195 -0.0474  0.0179
 1104SOL    HW2 4182   5.922   5.331   4.498  0.9659  1.8853 -2.0049
 1104SOL    HW3 4183   5.976   5.299   4.360  4.1565 -0.3080 -0.3792
 1104SOL    MW4 4184   5.972   5.283   4.446  1.2054  0.1732 -0.3014
 1105SOL     OW 4185   4.902   5.333   6.356 -0.3851 -0.2831 -1.0487
 1105SOL    HW2 4186   4.956   5.362   6.283  0.8809 -0.8427 -0.3515
 1105SOL    HW3 4187   4.929   5.387   6.430 -1.2249 -0.1435 -0.8272
 1105SOL    MW4 4188   4.912   5.344   6.356 -0.3288 -0.3385 -0.9275
 1106SOL     OW 4189   2.119   2.713   2.834  0.0447 -0.0491  0.6608
 1106SOL    HW2 4190   2.084   2.685   2.919  1.4886  0.3357  1.4182
 1106SOL    HW3 4191   2.173   2.641   2.805 -0.4336 -0.1722  0.0551
 1106SOL    MW4 4192   2.121   2.700   2.842  0.1721 -0.0145  0.6809
 1107SOL     OW 4193   0.456   2.873   5.568 -0.1489 -0.1498  0.0607
 1107SOL    HW2 4194   0.446   2.968   5.573 -2.1387 -0.2793 -0.6199
 1107SOL    HW3 4195   0.485   2.856   5.478 -1.9964 -0.2897 -0.5494
 1107SOL    MW4 4196   0.458   2.883   5.557 -0.6552 -0.1853 -0.1096
 1108SOL     OW 4197   2.950   4.346   2.277 -1.0206 -0.6433 -0.8316
 1108SOL    HW2 4198   2.968   4.414   2.212  2.7648 -0.8729 -0.2469
 1108SOL    HW3 4199   2.870   4.375   2.320 -0.5337  2.5455 -1.7760
 1108SOL    MW4 4200   2.942   4.359   2.274 -0.4569 -0.2528 -0.8791
 1109SOL     OW 4201   5.994   1.197   1.936 -0.5795 -0.0673 -0.5985
 1109SOL    HW2 4202   6.068   1.136   1.937 -1.0354 -0.6913 -2.1413
 1109SOL    HW3 4203   5.977   1.212   1.843 -1.8619  0.7299 -0.2603
 1109SOL    MW4 4204   6.002   1.191   1.924 -0.8088 -0.0444 -0.7575
 1110SOL     OW 4205   4.629   6.133   2.689  0.4094  0.0448 -0.6541
 1110SOL    HW2 4206   4.567   6.205   2.706  0.8997  0.5003 -0.7942
 1110SOL    HW3 4207   4.713   6.167   2.718  0.3901 -1.0596  0.7934
 1110SOL    MW4 4208   4.632   6.147   2.695  0.4715 -0.0408 -0.4816
 1111SOL     OW 4209   2.681   5.089   5.182  0.0177 -0.1507 -0.4300
 1111SOL    HW2 4210   2.770   5.125   5.184 -0.0307  0.0553  2.8114
 1111SOL    HW3 4211   2.634   5.137   5.250 -2.8531  0.2206 -2.5114
 1111SOL    MW4 4212   2.686   5.100   5.191 -0.3675 -0.0745 -0.2770
 1112SOL     OW 4213   0.599   6.136   4.783  0.1317  0.1077 -0.1820
 1112SOL    HW2 4214   0.632   6.047   4.794  0.6616  0.2352 -0.6970
 1112SOL    HW3 4215   0.504   6.126   4.780  0.2058 -0.4936 -0.6945
 1112SOL    MW4 4216   0.591   6.123   4.784  0.2114  0.0452 -0.3175
 1113SOL     OW 4217   2.772   2.783   3.548  0.1043  0.5696 -0.5819
 1113SOL    HW2 4218   2.767   2.857   3.609 -0.6426 -0.3555  0.5264
 1113SOL    HW3 4219   2.855   2.796   3.502 -0.2745  2.3893 -0.8294
 1113SOL    MW4 4220   2.783   2.795   3.550 -0.0442  0.6876 -0.4683
 1114SOL     OW 4221   4.344   0.255   1.807  0.3143 -0.0953 -0.3990
 1114SOL    HW2 4222   4.276   0.235   1.871  0.4975 -0.7655 -0.4045
 1114SOL    HW3 4223   4.402   0.317   1.851  0.2264 -0.2584 -0.0522
 1114SOL    MW4 4224   4.343   0.260   1.821  0.3268 -0.2053 -0.3540
 1115SOL     OW 4225   3.844   5.987   4.719 -0.2721  0.0619 -0.1018
 1115SOL    HW2 4226   3.923   6.040   4.711  0.3198 -1.0404 -2.6518
 1115SOL    HW3 4227   3.804   5.991   4.632 -1.2111 -2.0944  0.1699
 1115SOL    MW4 4228   3.849   5.995   4.706 -0.3179 -0.3680 -0.4024
 1116SOL     OW 4229   4.524   0.501   3.574 -0.1324 -0.0742 -0.3648
 1116SOL    HW2 4230   4.550   0.506   3.666 -0.3060 -2.1755 -0.1717
 1116SOL    HW3 4231   4.553   0.415   3.544  0.2729  0.7116 -2.4131
 1116SOL    MW4 4232   4.531   0.491   3.582 -0.1018 -0.2477 -0.6096
 1117SOL     OW 4233   5.009   1.127   1.554  0.2617  0.0049 -0.2467
 1117SOL    HW2 4234   5.084   1.174   1.592  0.3936  1.1502 -1.7878
 1117SOL    HW3 4235   4.935   1.186   1.568  0.0937 -0.0934 -0.7009
 1117SOL    MW4 4236   5.009   1.141   1.561  0.2570  0.1430 -0.5099
 1118SOL     OW 4237   4.972   1.709   3.850 -0.2972 -0.0241 -0.1167
 1118SOL    HW2 4238   4.910   1.680   3.783 -0.9145  2.5483 -0.7886
 1118SOL    HW3 4239   5.040   1.754   3.800  0.8521 -0.7028  0.8091
 1118SOL    MW4 4240   4.973   1.711   3.834 -0.2270  0.2257 -0.0832
 1119SOL     OW 4241   6.182   3.052   3.296  0.3622 -0.3422  0.1787
 1119SOL    HW2 4242   6.143   3.063   3.209  1.5907  1.5404 -0.1957
 1119SOL    HW3 4243   6.120   2.998   3.343 -1.1124 -0.0983 -1.3816
 1119SOL    MW4 4244   6.169   3.047   3.290  0.3297 -0.0617 -0.0766
 1120SOL     OW 4245   5.899   2.169   4.564  0.4037  0.1154  0.1014
 1120SOL    HW2 4246   5.853   2.088   4.586  0.6265  0.2713  1.2136
 1120SOL    HW3 4247   5.833   2.237   4.575 -0.3175 -0.0317 -2.6318
 1120SOL    MW4 4248   5.884   2.167   4.568  0.3379  0.1165 -0.1125
 1121SOL     OW 4249   4.906   4.796   5.876 -0.2852  0.1576  0.4009
 1121SOL    HW2 4250   4.938   4.736   5.943 -0.0342 -0.4345 -0.2443
 1121SOL    HW3 4251   4.842   4.851   5.922 -1.3876 -1.3534  0.7385
 1121SOL    MW4 4252   4.902   4.795   5.891 -0.3976 -0.1199  0.3603
 1122SOL     OW 4253   0.883   2.337   5.601 -0.0342  0.0400  0.0393
 1122SOL    HW2 4254   0.791   2.335   5.626 -0.4056 -0.4693 -1.2673
 1122SOL    HW3 4255   0.931   2.334   5.684 -1.1539  2.7487  0.8934
 1122SOL    MW4 4256   0.877   2.336   5.615 -0.2309  0.3302 -0.0204
 1123SOL     OW 4257   1.244   0.987   0.125  0.0514 -0.1603 -0.4590
 1123SOL    HW2 4258   1.271   0.921   0.061  2.1724 -0.8693  1.0717
 1123SOL    HW3 4259   1.155   0.961   0.150  0.0780 -1.2155 -1.3870
 1123SOL    MW4 4260   1.236   0.975   0.120  0.3348 -0.3930 -0.3795
 1124SOL     OW 4261   1.014   0.016   5.718  0.3044 -0.5382  0.4237
 1124SOL    HW2 4262   0.936   0.071   5.709  0.5343 -0.3183 -0.3124
 1124SOL    HW3 4263   1.005  -0.048   5.647  0.3717 -1.0338  0.8643
 1124SOL    MW4 4264   1.002   0.015   5.707  0.3436 -0.5746  0.3847
 1125SOL     OW 4265   3.470   0.678   4.157  0.1324  0.8631 -0.0265
 1125SOL    HW2 4266   3.382   0.645   4.141 -0.1189  1.0947  0.8357
 1125SOL    HW3 4267   3.458   0.771   4.177  0.3321  0.5120  1.9838
 1125SOL    MW4 4268   3.457   0.686   4.158  0.1256  0.8473  0.3525
 1126SOL     OW 4269   3.403   5.463   2.239 -0.3850  0.3708 -0.3890
 1126SOL    HW2 4270   3.448   5.433   2.160 -0.5420 -0.4060 -0.1910
 1126SOL    HW3 4271   3.323   5.410   2.242 -0.2464  0.2077  0.4424
 1126SOL    MW4 4272   3.398   5.452   2.229 -0.3875  0.2468 -0.2532
 1127SOL     OW 4273   1.514   4.977   1.738  0.5305 -0.5614 -0.2406
 1127SOL    HW2 4274   1.472   5.063   1.735  0.0996 -0.7173  0.7755
 1127SOL    HW3 4275   1.591   4.990   1.794  0.5325 -0.7976 -0.1862
 1127SOL    MW4 4276   1.519   4.990   1.745  0.4739 -0.6131 -0.0993
 1128SOL     OW 4277   5.203   0.034   0.134  0.4664  0.4254  0.0244
 1128SOL    HW2 4278   5.110   0.053   0.121  0.1951  0.7111  2.0513
 1128SOL    HW3 4279   5.246   0.118   0.118  0.3343  0.4149 -0.4135
 1128SOL    MW4 4280   5.196   0.048   0.130  0.4132  0.4617  0.2340
 1129SOL     OW 4281   2.225   6.247   3.030  0.6442 -0.2622 -0.2700
 1129SOL    HW2 4282   2.242   6.291   2.947  0.0995  2.3128  0.8662
 1129SOL    HW3 4283   2.131   6.230   3.030  0.0872  2.3468  0.8742
 1129SOL    MW4 4284   2.215   6.250   3.019  0.4988  0.4218  0.0309
 1130SOL     OW 4285   2.445   6.153   0.409  0.6884  0.2374 -0.3688
 1130SOL    HW2 4286   2.405   6.083   0.358 -0.6198 -0.0826  1.0156
 1130SOL    HW3 4287   2.453   6.226   0.348  0.2454 -0.4949 -1.3206
 1130SOL    MW4 4288   2.441   6.154   0.395  0.4573  0.0985 -0.3117
 1131SOL     OW 4289   5.601   2.908   3.022  0.5956  0.3373 -0.0267
 1131SOL    HW2 4290   5.693   2.902   3.048  0.2680  1.4746  1.5583
 1131SOL    HW3 4291   5.553   2.921   3.105 -1.0377 -0.5899 -0.7715
 1131SOL    MW4 4292   5.607   2.909   3.037  0.3369  0.3650  0.0841
 1132SOL     OW 4293   2.899   0.193   4.733  1.1555  0.5853  0.1198
 1132SOL    HW2 4294   2.875   0.225   4.646  0.1883  1.0089  0.5286
 1132SOL    HW3 4295   2.981   0.145   4.720  0.6114 -0.0324 -1.1604
 1132SOL    MW4 4296   2.907   0.191   4.720  0.9561  0.5597  0.0049
 1133SOL     OW 4297   6.247   6.221   5.543  0.1456  0.0805 -0.2576
 1133SOL    HW2 4298   6.307   6.148   5.558  2.2594  1.8689  0.5026
 1133SOL    HW3 4299   6.207   6.237   5.628 -0.4583 -0.2844 -0.4668
 1133SOL    MW4 4300   6.250   6.213   5.556  0.3448  0.2683 -0.1849
 1134SOL     OW 4301   1.023   0.512   4.500  0.1780  0.6650  0.8132
 1134SOL    HW2 4302   1.104   0.510   4.448 -1.8012  0.1368 -2.5476
 1134SOL    HW3 4303   1.000   0.605   4.504  0.3662  0.7131  0.8154
 1134SOL    MW4 4304   1.031   0.524   4.493 -0.0583  0.6017  0.3701
 1135SOL     OW 4305   1.464   2.076   3.888 -0.5907 -0.0076  0.5945
 1135SOL    HW2 4306   1.474   2.153   3.832 -0.7310  0.0003  0.5824
 1135SOL    HW3 4307   1.550   2.068   3.931  0.2151 -1.2212 -1.1360
 1135SOL    MW4 4308   1.477   2.085   3.886 -0.5029 -0.1667  0.3646
 1136SOL     OW 4309   3.267   5.177   1.380  0.5032  0.2775  0.1509
 1136SOL    HW2 4310   3.283   5.226   1.299  0.3322  0.0861 -0.0005
 1136SOL    HW3 4311   3.339   5.202   1.438  0.1050  1.1587  0.2848
 1136SOL    MW4 4312   3.278   5.187   1.377  0.4281  0.3685  0.1486
 1137SOL     OW 4313   1.292   2.241   1.456 -0.3504  0.3008 -0.6493
 1137SOL    HW2 4314   1.347   2.262   1.532 -1.0651 -0.6811  0.1764
 1137SOL    HW3 4315   1.206   2.223   1.494  0.0946 -3.9593 -1.1339
 1137SOL    MW4 4316   1.288   2.241   1.471 -0.3860 -0.3908 -0.6043
 1138SOL     OW 4317   5.578   0.187   5.401  0.4204 -0.1988  0.1718
 1138SOL    HW2 4318   5.533   0.270   5.392  2.3633  0.8018 -1.0215
 1138SOL    HW3 4319   5.509   0.121   5.404 -1.1049  1.3140 -0.5989
 1138SOL    MW4 4320   5.563   0.189   5.401  0.4755  0.1328 -0.0873
 1139SOL     OW 4321   1.510   4.091   2.337  0.0286 -0.3463  0.3400
 1139SOL    HW2 4322   1.592   4.043   2.329  1.4552  1.9276  0.3491
 1139SOL    HW3 4323   1.479   4.072   2.425  2.0389  0.8836  1.3784
 1139SOL    MW4 4324   1.516   4.082   2.347  0.4821  0.1160  0.4782
 1140SOL     OW 4325   5.692   3.416   1.908 -0.0417 -0.7874 -0.3160
 1140SOL    HW2 4326   5.654   3.493   1.949  1.0642 -0.1069 -0.5288
 1140SOL    HW3 4327   5.784   3.419   1.932  0.2996 -1.2629 -1.5044
 1140SOL    MW4 4328   5.699   3.427   1.917  0.1493 -0.7603 -0.5009
 1141SOL     OW 4329   2.146   4.958   3.293  0.1656 -0.1369  0.1878
 1141SOL    HW2 4330   2.169   5.003   3.211 -0.5741  0.1844  0.1535
 1141SOL    HW3 4331   2.140   5.028   3.358 -2.0796  0.0014 -0.0887
 1141SOL    MW4 4332   2.148   4.973   3.291 -0.2282 -0.0763  0.1468
 1142SOL     OW 4333   2.759   6.193   2.943 -0.7211  0.1893  0.4223
 1142SOL    HW2 4334   2.722   6.268   2.988 -1.0557 -0.0668  0.5795
 1142SOL    HW3 4335   2.854   6.204   2.951 -0.7424  1.1493 -0.4917
 1142SOL    MW4 4336   2.767   6.204   2.950 -0.7680  0.2822  0.3224
 1143SOL     OW 4337   5.929   2.344   2.910  0.1565 -0.1705 -0.1991
 1143SOL    HW2 4338   5.878   2.263   2.911  1.4179 -0.9852 -0.4287
 1143SOL    HW3 4339   5.945   2.361   2.817  1.1879 -0.5052 -0.0968
 1143SOL    MW4 4340   5.924   2.336   2.898  0.4590 -0.3221 -0.2159
 1144SOL     OW 4341   3.187   0.566   4.111 -0.2378 -0.2574 -0.1303
 1144SOL    HW2 4342   3.183   0.489   4.054  0.4878  0.2533 -0.9068
 1144SOL    HW3 4343   3.169   0.640   4.052  1.0621  0.3351  0.1803
 1144SOL    MW4 4344   3.184   0.566   4.096  0.0295 -0.1119 -0.1917
 1145SOL     OW 4345   0.266   2.595   2.766 -0.6262 -0.2693  0.3118
 1145SOL    HW2 4346   0.335   2.637   2.818 -0.1017  0.7810 -1.1677
 1145SOL    HW3 4347   0.302   2.510   2.742  0.2931  0.3819 -0.6813
 1145SOL    MW4 4348   0.280   2.590   2.770 -0.4357 -0.0448 -0.0144
 1146SOL     OW 4349   1.603   3.495   3.531  0.1437 -0.0794 -0.2519
 1146SOL    HW2 4350   1.525   3.466   3.483  0.1789 -0.2842 -0.1863
 1146SOL    HW3 4351   1.569   3.522   3.617  0.3253 -1.5269  0.2930
 1146SOL    MW4 4352   1.588   3.495   3.536  0.1723 -0.2974 -0.1714
 1147SOL     OW 4353   2.634   4.580   4.435  0.0683 -0.2553 -0.7513
 1147SOL    HW2 4354   2.695   4.515   4.401 -0.5877 -0.9015 -0.7057
 1147SOL    HW3 4355   2.561   4.529   4.470 -1.6244  0.5286 -2.8827
 1147SOL    MW4 4356   2.632   4.565   4.435 -0.2416 -0.2372 -1.0265
 1148SOL     OW 4357   3.817   6.076   3.712  0.6048 -0.0231 -0.2162
 1148SOL    HW2 4358   3.847   6.167   3.713 -0.7070  0.4396 -0.8858
 1148SOL    HW3 4359   3.806   6.055   3.620 -1.7955  0.1063 -0.0394
 1148SOL    MW4 4360   3.819   6.086   3.700  0.1150  0.0550 -0.2812
 1149SOL     OW 4361   1.621   2.853   5.656  0.2824  0.2073  0.2141
 1149SOL    HW2 4362   1.713   2.837   5.637 -0.0197  1.8634 -3.4120
 1149SOL    HW3 4363   1.621   2.924   5.720  1.5086  0.4986 -0.0978
 1149SOL    MW4 4364   1.633   2.860   5.662  0.4043  0.4642 -0.3055
 1150SOL     OW 4365   1.169   2.618   0.795 -0.1449  0.1201 -0.3323
 1150SOL    HW2 4366   1.184   2.538   0.845  0.8363  0.6931  0.3251
 1150SOL    HW3 4367   1.193   2.689   0.856 -0.9958  0.9087 -0.8991
 1150SOL    MW4 4368   1.174   2.617   0.810 -0.1277  0.2998 -0.3203
 1151SOL     OW 4369   2.190   0.098   0.366 -0.1393  0.2384 -0.0766
 1151SOL    HW2 4370   2.146   0.064   0.288 -0.1197 -1.0031  0.4427
 1151SOL    HW3 4371   2.119   0.135   0.419 -0.1535  1.0797 -0.6598
 1151SOL    MW4 4372   2.175   0.099   0.362 -0.1386  0.1856 -0.0851
 1152SOL     OW 4373   1.361   3.404   3.769 -0.1510 -1.1130  0.0560
 1152SOL    HW2 4374   1.429   3.347   3.732  0.0672 -0.6775 -0.2218
 1152SOL    HW3 4375   1.403   3.443   3.846  0.1070 -0.4136 -0.4350
 1152SOL    MW4 4376   1.376   3.401   3.775 -0.0881 -0.9633 -0.0454
 1153SOL     OW 4377   3.688   2.628   5.226  1.0727 -0.2790  0.6128
 1153SOL    HW2 4378   3.746   2.697   5.194 -0.0903 -0.0460 -1.1036
 1153SOL    HW3 4379   3.670   2.653   5.317  0.7437  1.6529  0.0609
 1153SOL    MW4 4380   3.694   2.640   5.234  0.8759  0.0067  0.3135
 1154SOL     OW 4381   4.333   0.911   6.130  0.3654 -0.4533 -0.4141
 1154SOL    HW2 4382   4.259   0.957   6.091 -0.0961 -1.8129 -1.2363
 1154SOL    HW3 4383   4.404   0.976   6.133 -0.7083  0.7322 -0.0545
 1154SOL    MW4 4384   4.333   0.925   6.125  0.1628 -0.4763 -0.4752
 1155SOL     OW 4385   2.752   5.565   3.091 -0.3876 -0.3253  0.4572
 1155SOL    HW2 4386   2.810   5.564   3.168  0.1146 -1.6320  0.0907
 1155SOL    HW3 4387   2.681   5.623   3.116 -0.6133 -1.2803  2.2239
 1155SOL    MW4 4388   2.750   5.572   3.105 -0.3511 -0.6237  0.6420
 1156SOL     OW 4389   2.294   3.907   5.953 -0.4354  0.1698 -0.2559
 1156SOL    HW2 4390   2.368   3.846   5.946 -1.4329 -0.9655 -1.3600
 1156SOL    HW3 4391   2.237   3.868   6.019  0.6370  1.8670  1.7944
 1156SOL    MW4 4392   2.296   3.893   5.960 -0.4255  0.2440 -0.1310
 1157SOL     OW 4393   5.117   4.770   4.617  0.1775 -0.4333  0.1709
 1157SOL    HW2 4394   5.155   4.796   4.701  0.0225 -1.6806  0.6523
 1157SOL    HW3 4395   5.187   4.782   4.553 -0.3901  2.8031  0.0050
 1157SOL    MW4 4396   5.131   4.775   4.619  0.0821 -0.1708  0.2125
 1158SOL     OW 4397   0.282   6.188   1.001  0.0695  0.3775 -0.4512
 1158SOL    HW2 4398   0.277   6.282   0.984 -0.5157  0.3964 -0.2091
 1158SOL    HW3 4399   0.375   6.168   0.999  0.1765  0.8975 -0.8623
 1158SOL    MW4 4400   0.294   6.198   0.999  0.0064  0.4486 -0.4735
 1159SOL     OW 4401   2.877   0.095   1.582 -0.5059  0.0211 -0.7037
 1159SOL    HW2 4402   2.834   0.038   1.519  1.1380  1.3252 -3.2018
 1159SOL    HW3 4403   2.842   0.182   1.562  0.0976  0.4758  0.1699
 1159SOL    MW4 4404   2.867   0.099   1.571 -0.2094  0.2532 -0.9180
 1160SOL     OW 4405   3.889   6.182   0.997  0.2727 -0.0265 -0.3659
 1160SOL    HW2 4406   3.866   6.227   0.916 -1.1690  0.5754  0.3352
 1160SOL    HW3 4407   3.833   6.105   0.998  0.2459 -0.0019  0.0823
 1160SOL    MW4 4408   3.879   6.178   0.986  0.0789  0.0562 -0.2143
 1161SOL     OW 4409   1.720   2.173   5.676 -0.1383  0.0830  0.5020
 1161SOL    HW2 4410   1.730   2.262   5.642 -0.0626 -0.9137 -2.4108
 1161SOL    HW3 4411   1.810   2.144   5.696 -0.1784  0.6711  1.6026
 1161SOL    MW4 4412   1.733   2.181   5.674 -0.1336  0.0291  0.2629
 1162SOL     OW 4413   5.369   0.370   3.004  0.2199 -0.0121  0.4282
 1162SOL    HW2 4414   5.441   0.346   2.945 -0.2022  0.7842 -0.4316
 1162SOL    HW3 4415   5.318   0.289   3.013  1.0468 -0.4988  0.7990
 1162SOL    MW4 4416   5.372   0.356   2.997  0.2733  0.0288  0.3637
 1163SOL     OW 4417   3.716   0.847   0.087  0.0479 -0.3289 -0.3669
 1163SOL    HW2 4418   3.662   0.903   0.031 -0.6065 -0.9319 -0.3492
 1163SOL    HW3 4419   3.677   0.760   0.079  0.0113 -0.4500  0.9385
 1163SOL    MW4 4420   3.704   0.843   0.078 -0.0433 -0.4244 -0.1923
 1164SOL     OW 4421   5.549   1.180   4.203  0.6982  0.0726 -0.1880
 1164SOL    HW2 4422   5.616   1.165   4.135 -0.5519 -2.4073 -0.9811
 1164SOL    HW3 4423   5.545   1.098   4.251 -0.1889  0.9770  1.3482
 1164SOL    MW4 4424   5.558   1.167   4.200  0.4162 -0.1353 -0.0899
 1165SOL     OW 4425   5.406   2.893   3.937  0.5679  0.5075 -0.0661
 1165SOL    HW2 4426   5.409   2.803   3.970  0.7396  0.4908 -0.1247
 1165SOL    HW3 4427   5.455   2.890   3.855 -0.1212  0.4769 -0.4907
 1165SOL    MW4 4428   5.413   2.881   3.930  0.4996  0.5013 -0.1298
 1166SOL     OW 4429   5.937   4.889   3.452  0.8618 -0.4488 -0.0040
 1166SOL    HW2 4430   6.024   4.922   3.474  1.3365 -0.4579 -1.7146
 1166SOL    HW3 4431   5.949   4.841   3.370 -1.1083  1.4652 -1.5770
 1166SOL    MW4 4432   5.950   4.887   3.444  0.6645 -0.1975 -0.4372
 1167SOL     OW 4433   5.964   5.817   2.137  0.0245 -0.3801  0.3186
 1167SOL    HW2 4434   5.893   5.841   2.197 -1.0507 -2.4816  0.0013
 1167SOL    HW3 4435   6.028   5.887   2.146 -2.3231  1.9383  0.1900
 1167SOL    MW4 4436   5.963   5.829   2.146 -0.4271 -0.3515  0.2598
 1168SOL     OW 4437   2.723   6.365   1.408 -0.0054 -1.0715  0.5418
 1168SOL    HW2 4438   2.754   6.280   1.439 -0.9861 -2.1351 -1.1891
 1168SOL    HW3 4439   2.633   6.370   1.440  0.3630 -0.2114  1.4746
 1168SOL    MW4 4440   2.715   6.354   1.416 -0.0862 -1.0984  0.4365
 1169SOL     OW 4441   1.019   3.644   1.098  0.1539 -0.2789 -0.2319
 1169SOL    HW2 4442   0.982   3.726   1.065 -0.1138 -0.2548  0.1095
 1169SOL    HW3 4443   1.092   3.671   1.154 -0.5836 -0.1976  0.7292
 1169SOL    MW4 4444   1.024   3.658   1.101  0.0213 -0.2650 -0.0600
 1170SOL     OW 4445   2.167   2.548   1.956  0.0706  0.0121 -0.3825
 1170SOL    HW2 4446   2.121   2.509   2.031  1.2467 -0.7817 -0.0321
 1170SOL    HW3 4447   2.109   2.617   1.925 -0.5665  0.1973  1.1105
 1170SOL    MW4 4448   2.154   2.552   1.962  0.1418 -0.0682 -0.1393
 1171SOL     OW 4449   3.789   4.937   1.647 -0.1912  0.4224 -0.2824
 1171SOL    HW2 4450   3.795   5.032   1.646  0.0071  0.4929  1.9772
 1171SOL    HW3 4451   3.697   4.919   1.626 -0.6009  1.2101  0.7356
 1171SOL    MW4 4452   3.778   4.947   1.644 -0.2191  0.5356  0.1501
 1172SOL     OW 4453   1.448   5.264   4.093 -0.2861 -0.3755 -0.5006
 1172SOL    HW2 4454   1.540   5.240   4.091 -0.2940 -0.3567 -1.1225
 1172SOL    HW3 4455   1.443   5.330   4.163  0.4725  0.7984 -1.5027
 1172SOL    MW4 4456   1.460   5.270   4.102 -0.1871 -0.2181 -0.7148
 1173SOL     OW 4457   2.307   4.310   3.900  0.6582 -0.0027 -0.4619
 1173SOL    HW2 4458   2.335   4.221   3.882  0.7372 -0.2031  0.5666
 1173SOL    HW3 4459   2.366   4.365   3.849  0.6149 -0.5365 -1.0943
 1173SOL    MW4 4460   2.318   4.306   3.891  0.6629 -0.0996 -0.4097
 1174SOL     OW 4461   0.388   0.111   4.987  0.8986  0.3231  0.2288
 1174SOL    HW2 4462   0.425   0.103   4.899  0.1765  1.3250 -0.1882
 1174SOL    HW3 4463   0.293   0.104   4.973  0.7043  1.7462  0.7612
 1174SOL    MW4 4464   0.380   0.109   4.973  0.7777  0.6431  0.2440
 1175SOL     OW 4465   2.372   5.719   2.279  0.0586 -0.2038 -0.2273
 1175SOL    HW2 4466   2.329   5.635   2.291 -0.3178 -0.1473 -1.1428
 1175SOL    HW3 4467   2.465   5.700   2.287 -0.0825 -0.3593  1.5887
 1175SOL    MW4 4468   2.379   5.706   2.282 -0.0097 -0.2168 -0.1085
 1176SOL     OW 4469   1.774   1.727   1.191 -0.3591  0.8452 -0.1527
 1176SOL    HW2 4470   1.800   1.644   1.231  0.9846  1.2569 -0.1388
 1176SOL    HW3 4471   1.711   1.765   1.252 -0.8332 -0.0610 -0.0633
 1176SOL    MW4 4472   1.769   1.721   1.204 -0.2444  0.7800 -0.1391
 1177SOL     OW 4473   3.132   3.301   3.690  0.0769 -0.4714 -0.7130
 1177SOL    HW2 4474   3.214   3.350   3.689  0.3406 -0.8963 -2.0672
 1177SOL    HW3 4475   3.126   3.262   3.603 -2.1965  0.5782 -1.1203
 1177SOL    MW4 4476   3.142   3.302   3.679 -0.1883 -0.3890 -0.9454
 1178SOL     OW 4477   0.428   0.677   1.630  0.2115 -0.3994  0.1893
 1178SOL    HW2 4478   0.474   0.604   1.671  0.4328  0.7542  2.1479
 1178SOL    HW3 4479   0.352   0.691   1.686  0.7158  1.4856  0.4775
 1178SOL    MW4 4480   0.424   0.669   1.643  0.3072  0.0015  0.4857
 1179SOL     OW 4481   3.343   3.772   1.499 -0.1623  0.0114 -0.6470
 1179SOL    HW2 4482   3.271   3.789   1.438  0.5657 -1.5464 -2.0300
 1179SOL    HW3 4483   3.355   3.677   1.495  1.4010  0.1508  0.2211
 1179SOL    MW4 4484   3.335   3.761   1.490  0.1400 -0.1757 -0.7149
 1180SOL     OW 4485   5.168   1.029   0.222  0.1308 -0.5613 -0.3957
 1180SOL    HW2 4486   5.200   1.042   0.132 -0.2587 -0.9988 -0.6055
 1180SOL    HW3 4487   5.140   0.937   0.223 -1.7044 -0.0427 -0.4096
 1180SOL    MW4 4488   5.169   1.018   0.210 -0.1627 -0.5506 -0.4252
 1181SOL     OW 4489   0.965   0.617   3.382  0.2083 -0.3557 -0.2371
 1181SOL    HW2 4490   0.895   0.578   3.330 -0.9989 -0.6265  1.5244
 1181SOL    HW3 4491   0.978   0.704   3.342 -1.8522  0.1162 -0.0128
 1181SOL    MW4 4492   0.957   0.624   3.370 -0.2228 -0.3292  0.0249
 1182SOL     OW 4493   5.804   0.150   0.904 -0.3082 -0.0847 -0.1698
 1182SOL    HW2 4494   5.848   0.227   0.870 -0.7693  1.1137  1.7663
 1182SOL    HW3 4495   5.858   0.122   0.978 -2.6641  1.5377  2.3910
 1182SOL    MW4 4496   5.817   0.156   0.910 -0.6799  0.2875  0.4235
 1183SOL     OW 4497   4.118   1.507   2.233 -0.3489 -0.9391  0.5390
 1183SOL    HW2 4498   4.130   1.420   2.271  2.1619 -0.3111  1.3333
 1183SOL    HW3 4499   4.196   1.522   2.180 -0.3866  1.0845  0.9658
 1183SOL    MW4 4500   4.130   1.498   2.231 -0.0226 -0.5893  0.7001
 1184SOL     OW 4501   1.560   0.013   5.292 -0.4253  0.0083  0.4019
 1184SOL    HW2 4502   1.635   0.018   5.351 -1.5290 -0.7675  1.9451
 1184SOL    HW3 4503   1.514  -0.068   5.317  0.9122 -2.4152 -3.8730
 1184SOL    MW4 4504   1.564   0.003   5.303 -0.3944 -0.4138  0.0415
 1185SOL     OW 4505   0.197   6.312   2.297 -0.1234  0.4736  0.3507
 1185SOL    HW2 4506   0.218   6.219   2.310 -1.0743  0.2628  0.5130
 1185SOL    HW3 4507   0.260   6.359   2.351  0.0487 -0.1026  0.6690
 1185SOL    MW4 4508   0.208   6.306   2.306 -0.2262  0.3698  0.4141
 1186SOL     OW 4509   3.502   6.075   5.387  0.1353 -0.2138 -0.3377
 1186SOL    HW2 4510   3.458   6.159   5.398 -0.6848 -0.7541  0.7377
 1186SOL    HW3 4511   3.501   6.036   5.475  0.6665 -1.2541 -0.7806
 1186SOL    MW4 4512   3.496   6.081   5.400  0.0972 -0.4223 -0.2543
 1187SOL     OW 4513   0.658   0.519   4.638 -0.2323  0.6145  0.4972
 1187SOL    HW2 4514   0.733   0.562   4.679 -1.0108  2.4819  0.0415
 1187SOL    HW3 4515   0.598   0.500   4.711  1.0716 -1.9010  1.0287
 1187SOL    MW4 4516   0.660   0.522   4.653 -0.1630  0.5290  0.5072
 1188SOL     OW 4517   4.557   5.944   5.342  0.5920 -0.5427 -0.2633
 1188SOL    HW2 4518   4.474   5.975   5.376 -0.5124 -2.4294 -1.0588
 1188SOL    HW3 4519   4.601   6.023   5.309 -0.6439  0.5511  0.6257
 1188SOL    MW4 4520   4.552   5.958   5.342  0.2832 -0.6473 -0.2509
 1189SOL     OW 4521   1.973   5.558   3.270 -0.1379 -0.1324 -0.0738
 1189SOL    HW2 4522   1.891   5.607   3.264 -1.3585 -2.0015  0.4242
 1189SOL    HW3 4523   2.032   5.601   3.208 -1.4129  1.3931 -0.2881
 1189SOL    MW4 4524   1.970   5.570   3.261 -0.4672 -0.1778 -0.0363
 1190SOL     OW 4525   4.062   6.016   1.869  0.4524 -1.2978 -0.4874
 1190SOL    HW2 4526   4.100   6.097   1.903 -1.2337 -0.0800 -1.3436
 1190SOL    HW3 4527   4.003   5.987   1.938 -0.9598 -0.2761 -1.1995
 1190SOL    MW4 4528   4.060   6.023   1.882  0.0436 -1.0024 -0.6943
 1191SOL     OW 4529   4.751   2.492   1.548  0.7443 -0.0967  0.7107
 1191SOL    HW2 4530   4.746   2.469   1.456  1.6097  2.9669 -0.2370
 1191SOL    HW3 4531   4.659   2.501   1.575  0.4845  0.2841 -0.2509
 1191SOL    MW4 4532   4.738   2.490   1.540  0.8242  0.3578  0.4588
 1192SOL     OW 4533   4.206   1.287   3.814 -0.3470  0.1313 -0.0690
 1192SOL    HW2 4534   4.138   1.341   3.772  0.7021  1.3092 -0.2909
 1192SOL    HW3 4535   4.269   1.271   3.744 -0.0530 -0.3880  0.3164
 1192SOL    MW4 4536   4.205   1.292   3.799 -0.1698  0.2182 -0.0474
 1193SOL     OW 4537   0.977   1.480   4.346  0.3324 -0.4053 -0.2188
 1193SOL    HW2 4538   0.980   1.387   4.325  1.7920 -0.4483  0.1043
 1193SOL    HW3 4539   0.958   1.523   4.263  0.7236 -0.9196 -0.5792
 1193SOL    MW4 4540   0.975   1.473   4.332  0.5766 -0.4788 -0.2237
 1194SOL     OW 4541   1.515   1.090   1.092  0.0254 -0.1367  0.4608
 1194SOL    HW2 4542   1.610   1.085   1.099  0.1921  1.6520  0.1568
 1194SOL    HW3 4543   1.482   1.039   1.166  1.1474 -2.2005 -0.3749
 1194SOL    MW4 4544   1.523   1.083   1.103  0.1954 -0.1730  0.3104
 1195SOL     OW 4545   4.898   3.830   3.756  0.3817 -0.1942  0.1228
 1195SOL    HW2 4546   4.805   3.850   3.749 -0.3046 -3.1421 -0.3688
 1195SOL    HW3 4547   4.930   3.831   3.666  0.7527  0.4511  0.2578
 1195SOL    MW4 4548   4.890   3.833   3.743  0.3401 -0.4980  0.0757
 1196SOL     OW 4549   6.379   3.289   0.414  0.3682  0.0136  0.3392
 1196SOL    HW2 4550   6.440   3.249   0.476  0.7779  0.1754  0.0481
 1196SOL    HW3 4551   6.375   3.227   0.341  0.2209  0.0285  0.3334
 1196SOL    MW4 4552   6.387   3.276   0.412  0.4028  0.0369  0.3001
 1197SOL     OW 4553   2.209   2.473   3.308 -0.3586 -0.0823 -0.7279
 1197SOL    HW2 4554   2.293   2.457   3.264 -0.2365 -2.0151  0.1223
 1197SOL    HW3 4555   2.146   2.481   3.236  0.3746  0.3003 -1.3433
 1197SOL    MW4 4556   2.212   2.472   3.293 -0.2457 -0.2868 -0.6969
 1198SOL     OW 4557   2.882   6.103   2.563 -0.8868  0.6780 -0.1144
 1198SOL    HW2 4558   2.827   6.069   2.634 -0.7349 -0.6029 -0.5828
 1198SOL    HW3 4559   2.859   6.049   2.487 -1.1873  2.1540 -1.1092
 1198SOL    MW4 4560   2.872   6.091   2.563 -0.9064  0.7037 -0.3075
 1199SOL     OW 4561   2.133   0.175   4.385  0.2319 -0.2351  0.5917
 1199SOL    HW2 4562   2.216   0.149   4.344  0.2962  1.0844 -0.1850
 1199SOL    HW3 4563   2.067   0.122   4.341  0.5294 -0.3660  0.2950
 1199SOL    MW4 4564   2.135   0.165   4.374  0.2796 -0.0783  0.4500
 1200SOL     OW 4565   4.946   2.737   1.835 -0.5331  0.2248 -0.2248
 1200SOL    HW2 4566   5.010   2.789   1.884 -1.8365  0.2032  1.6294
 1200SOL    HW3 4567   4.987   2.650   1.828 -0.7092 -0.0780  1.8316
 1200SOL    MW4 4568   4.960   2.732   1.841 -0.7283  0.1820  0.2911
 1201SOL     OW 4569   5.182   5.249   0.048 -0.2231  0.4914 -0.2809
 1201SOL    HW2 4570   5.095   5.289   0.047  0.0229  1.0253 -0.8611
 1201SOL    HW3 4571   5.241   5.319   0.077 -0.1666 -0.2829  1.6522
 1201SOL    MW4 4572   5.179   5.263   0.051 -0.1832  0.4597 -0.1024
 1202SOL     OW 4573   0.099   2.372   6.163 -0.1803  0.3504 -0.2230
 1202SOL    HW2 4574   0.088   2.336   6.251 -2.4980  1.7422  0.1561
 1202SOL    HW3 4575   0.021   2.343   6.116  0.3976  0.6904 -1.4229
 1202SOL    MW4 4576   0.087   2.364   6.169 -0.4098  0.5789 -0.3313
 1203SOL     OW 4577   4.252   5.279   1.333  0.0649 -0.1220 -0.1073
 1203SOL    HW2 4578   4.168   5.232   1.336  0.5065 -0.8934  2.1647
 1203SOL    HW3 4579   4.228   5.371   1.345 -0.4795 -0.3504  0.6849
 1203SOL    MW4 4580   4.238   5.285   1.335  0.0513 -0.2539  0.2970
 1204SOL     OW 4581   3.184   4.112   1.458  0.3227  0.2551 -0.3580
 1204SOL    HW2 4582   3.145   4.150   1.536  0.0599  0.7709 -0.7325
 1204SOL    HW3 4583   3.246   4.178   1.427 -1.0767  0.9889 -1.7501
 1204SOL    MW4 4584   3.187   4.125   1.464  0.1034  0.4200 -0.5911
 1205SOL     OW 4585   6.279   2.445   5.086 -0.0872  0.3689 -0.0316
 1205SOL    HW2 4586   6.320   2.506   5.147  3.4622 -1.9847  0.2475
 1205SOL    HW3 4587   6.318   2.360   5.107 -1.6598 -1.2851 -3.0562
 1205SOL    MW4 4588   6.289   2.441   5.097  0.1736 -0.1598 -0.3939
 1206SOL     OW 4589   1.862   4.671   4.708 -0.1427 -0.4774  0.1217
 1206SOL    HW2 4590   1.784   4.726   4.703  0.7242  0.9818  1.5235
 1206SOL    HW3 4591   1.840   4.603   4.771  0.3492  1.2076  2.2570
 1206SOL    MW4 4592   1.849   4.669   4.716  0.0366 -0.0626  0.5884
 1207SOL     OW 4593   5.946   3.838   0.337  0.4296 -0.0084 -0.6038
 1207SOL    HW2 4594   6.015   3.845   0.403 -0.3984  0.3936  0.2452
 1207SOL    HW3 4595   5.896   3.919   0.345  0.0055 -0.1815 -1.3742
 1207SOL    MW4 4596   5.949   3.850   0.347  0.2644  0.0218 -0.5935
 1208SOL     OW 4597   2.738   1.213   2.322 -0.0364 -0.3120 -0.0773
 1208SOL    HW2 4598   2.645   1.213   2.299  0.0530 -2.0859 -0.5984
 1208SOL    HW3 4599   2.741   1.177   2.411  0.0931  0.6992  0.3416
 1208SOL    MW4 4600   2.726   1.208   2.331 -0.0075 -0.4127 -0.0908
 1209SOL     OW 4601   2.338   5.932   0.297 -0.5824 -0.1078  0.5147
 1209SOL    HW2 4602   2.339   5.843   0.261 -0.8515  0.2409 -0.3807
 1209SOL    HW3 4603   2.299   5.985   0.228 -1.4707  0.5260  1.4818
 1209SOL    MW4 4604   2.333   5.927   0.283 -0.7351  0.0218  0.5242
 1210SOL     OW 4605   5.913   0.923   5.093  0.3588  0.3355 -0.1938
 1210SOL    HW2 4606   5.952   0.866   5.159  0.0912  0.0009 -0.3247
 1210SOL    HW3 4607   5.840   0.965   5.138  1.0218  1.1783  0.1364
 1210SOL    MW4 4608   5.909   0.921   5.108  0.4109  0.4026 -0.1675
 1211SOL     OW 4609   4.611   3.653   4.487  0.1019  0.3039 -0.1662
 1211SOL    HW2 4610   4.519   3.663   4.512  0.5338 -1.7692  2.7092
 1211SOL    HW3 4611   4.661   3.684   4.563  1.7548  0.1059 -1.1109
 1211SOL    MW4 4612   4.606   3.658   4.500  0.3770  0.0042  0.0885
 1212SOL     OW 4613   3.832   0.860   6.017  0.5601  0.1858  0.5126
 1212SOL    HW2 4614   3.880   0.884   6.097 -0.8834 -0.7459  1.7227
 1212SOL    HW3 4615   3.740   0.863   6.043  0.0794 -0.5128 -1.0244
 1212SOL    MW4 4616   3.826   0.863   6.031  0.3062 -0.0293  0.4695
 1213SOL     OW 4617   0.616   2.385   4.140  0.2588  0.6184  0.5047
 1213SOL    HW2 4618   0.656   2.391   4.053  0.6659 -2.2315  0.3972
 1213SOL    HW3 4619   0.687   2.357   4.196 -1.0847 -2.9185  0.6428
 1213SOL    MW4 4620   0.631   2.382   4.136  0.1352 -0.2243  0.5087
 1214SOL     OW 4621   2.688   4.128   4.432  0.4936 -0.1221  0.2134
 1214SOL    HW2 4622   2.624   4.178   4.382  0.9901  0.1071 -0.2047
 1214SOL    HW3 4623   2.711   4.184   4.506  1.8476  0.7762 -0.8193
 1214SOL    MW4 4624   2.683   4.142   4.435  0.7377  0.0266  0.0220
 1215SOL     OW 4625   1.628   6.244   4.674 -0.4484 -0.1048 -0.7015
 1215SOL    HW2 4626   1.629   6.156   4.636 -0.1929 -0.1579 -0.5739
 1215SOL    HW3 4627   1.558   6.289   4.628  0.1760 -0.0097 -1.5813
 1215SOL    MW4 4628   1.619   6.238   4.663 -0.3323 -0.0993 -0.8008
 1216SOL     OW 4629   5.752   4.967   6.361  0.4090  0.4335  0.9779
 1216SOL    HW2 4630   5.689   4.966   6.433  1.0483  1.6343  1.5962
 1216SOL    HW3 4631   5.823   4.910   6.390 -0.1042 -0.4616  0.5283
 1216SOL    MW4 4632   5.753   4.960   6.374  0.4256  0.4738  1.0002
 1217SOL     OW 4633   1.318   2.302   0.239  0.7147 -0.2381 -0.0837
 1217SOL    HW2 4634   1.297   2.378   0.294  2.2730  0.1957 -0.0357
 1217SOL    HW3 4635   1.287   2.227   0.289  1.1136  0.2356  0.9003
 1217SOL    MW4 4636   1.312   2.302   0.253  0.9729 -0.1184  0.0524
 1218SOL     OW 4637   0.409   3.603   1.766  0.1461 -0.0361  0.6450
 1218SOL    HW2 4638   0.487   3.642   1.805  0.6662 -0.8778  0.4748
 1218SOL    HW3 4639   0.424   3.509   1.771 -1.2449 -0.2435  1.3894
 1218SOL    MW4 4640   0.422   3.596   1.772  0.0312 -0.1745  0.7207
 1219SOL     OW 4641   3.558   6.124   6.312 -0.6835  0.1359 -0.3609
 1219SOL    HW2 4642   3.557   6.168   6.228 -2.0957  0.8327 -0.0082
 1219SOL    HW3 4643   3.647   6.138   6.346  0.6244 -1.9400 -2.5894
 1219SOL    MW4 4644   3.570   6.131   6.305 -0.6972 -0.0461 -0.6084
 1220SOL     OW 4645   2.981   0.761   6.428  0.3576  0.0145  0.1071
 1220SOL    HW2 4646   2.952   0.853   6.431 -0.0904 -0.1426  1.3791
 1220SOL    HW3 4647   3.058   0.759   6.485  0.3938 -0.3957  0.0444
 1220SOL    MW4 4648   2.988   0.773   6.436  0.3033 -0.0604  0.2667
 1221SOL     OW 4649   1.052   1.831   1.512  0.5963  0.0827  0.7539
 1221SOL    HW2 4650   0.969   1.878   1.502  0.4783 -0.1216  0.7670
 1221SOL    HW3 4651   1.099   1.880   1.580 -0.2021 -0.7516  1.9438
 1221SOL    MW4 4652   1.047   1.844   1.520  0.4754 -0.0543  0.9126
 1222SOL     OW 4653   2.152   1.765   4.852  0.6291 -0.0689  0.2134
 1222SOL    HW2 4654   2.158   1.710   4.774  0.5741 -1.5926  1.2496
 1222SOL    HW3 4655   2.232   1.818   4.850  1.1177 -0.8072 -0.3668
 1222SOL    MW4 4656   2.163   1.765   4.842  0.6863 -0.3673  0.2736
 1223SOL     OW 4657   6.188   0.089   6.392  0.0445 -0.1259  0.0166
 1223SOL    HW2 4658   6.174   0.030   6.466 -1.2918  1.1392  0.8087
 1223SOL    HW3 4659   6.176   0.033   6.315  0.3748 -1.2217  0.7273
 1223SOL    MW4 4660   6.185   0.073   6.392 -0.0883 -0.1036  0.2149
 1224SOL     OW 4661   1.243   4.475   4.097  0.6145  0.0277  0.0604
 1224SOL    HW2 4662   1.336   4.497   4.104  0.7804 -0.0514 -1.5597
 1224SOL    HW3 4663   1.234   4.392   4.144  1.3810 -0.0009  0.1657
 1224SOL    MW4 4664   1.254   4.467   4.104  0.7375  0.0135 -0.1394
 1225SOL     OW 4665   4.633   5.619   6.035 -0.1936 -0.3300 -0.2331
 1225SOL    HW2 4666   4.644   5.568   6.115  0.5713 -1.0231 -0.7641
 1225SOL    HW3 4667   4.559   5.579   5.991  1.1181 -1.7717 -1.2093
 1225SOL    MW4 4668   4.625   5.607   6.040  0.0804 -0.6117 -0.4320
 1226SOL     OW 4669   6.263   6.100   5.939 -1.0063 -0.6440 -0.4188
 1226SOL    HW2 4670   6.325   6.030   5.957 -1.0242 -0.9603 -1.5236
 1226SOL    HW3 4671   6.179   6.055   5.929 -0.7107 -0.7464 -3.0440
 1226SOL    MW4 4672   6.260   6.085   5.940 -0.9697 -0.6992 -0.9110
 1227SOL     OW 4673   1.039   0.178   4.599 -0.1505  0.7058 -0.3149
 1227SOL    HW2 4674   1.065   0.181   4.692  0.1526  0.8208 -0.4026
 1227SOL    HW3 4675   1.112   0.217   4.553 -1.2529  2.7894 -0.4127
 1227SOL    MW4 4676   1.052   0.184   4.605 -0.2560  0.9958 -0.3394
 1228SOL     OW 4677   5.445   4.516   3.862  0.2659  0.0248  0.1451
 1228SOL    HW2 4678   5.492   4.561   3.791 -2.3423  0.4660 -1.4461
 1228SOL    HW3 4679   5.414   4.435   3.821 -0.8894  0.0700  0.9003
 1228SOL    MW4 4680   5.447   4.511   3.847 -0.2307  0.0890  0.0348
 1229SOL     OW 4681   2.506   4.337   2.566 -0.0416 -0.2090  0.2361
 1229SOL    HW2 4682   2.498   4.270   2.498 -1.0945  0.2698 -0.1326
 1229SOL    HW3 4683   2.463   4.298   2.643  2.3600 -1.3256  1.1364
 1229SOL    MW4 4684   2.499   4.323   2.567  0.1363 -0.2932  0.3062
 1230SOL     OW 4685   4.762   1.119   4.840 -0.2316  0.2354  0.2519
 1230SOL    HW2 4686   4.816   1.183   4.885 -1.7094  1.5751  0.2334
 1230SOL    HW3 4687   4.683   1.112   4.894 -0.5767 -0.7230 -0.3459
 1230SOL    MW4 4688   4.758   1.126   4.853 -0.4721  0.2857  0.1706
 1231SOL     OW 4689   4.795   1.570   2.018  0.0859 -0.4081 -0.2837
 1231SOL    HW2 4690   4.838   1.542   1.938  0.1551  0.3321 -0.5115
 1231SOL    HW3 4691   4.811   1.499   2.080  0.0079 -0.9952 -0.9275
 1231SOL    MW4 4692   4.803   1.557   2.016  0.0848 -0.3879 -0.3987
 1232SOL     OW 4693   2.584   4.157   4.780 -0.0071  0.2154 -0.2180
 1232SOL    HW2 4694   2.525   4.154   4.704  1.2532 -0.0146 -1.2372
 1232SOL    HW3 4695   2.661   4.204   4.747  1.4796 -1.8163  0.2348
 1232SOL    MW4 4696   2.586   4.163   4.765  0.3553 -0.0830 -0.2927
 1233SOL     OW 4697   5.889   3.875   3.423 -0.2220 -0.0555 -0.0759
 1233SOL    HW2 4698   5.821   3.810   3.408  0.3767 -0.3983 -1.4826
 1233SOL    HW3 4699   5.907   3.912   3.336  2.2430 -0.8515  0.0048
 1233SOL    MW4 4700   5.883   3.872   3.410  0.1822 -0.2058 -0.2508
 1234SOL     OW 4701   2.943   1.991   1.454 -0.0293  0.2637  0.0315
 1234SOL    HW2 4702   2.945   2.077   1.496  0.1999 -0.1026  0.7796
 1234SOL    HW3 4703   3.020   1.991   1.397  0.3689  0.2989  0.5595
 1234SOL    MW4 4704   2.953   2.003   1.452  0.0535  0.2200  0.1998
 1235SOL     OW 4705   4.608   4.382   0.104 -0.0523  0.0399  0.2108
 1235SOL    HW2 4706   4.608   4.333   0.186 -1.1960 -2.2832 -1.0653
 1235SOL    HW3 4707   4.654   4.325   0.042  1.3902  2.0425 -0.6411
 1235SOL    MW4 4708   4.614   4.368   0.107 -0.0129 -0.0024 -0.0700
 1236SOL     OW 4709   1.974   0.400   4.470  0.0710  0.6235 -0.2165
 1236SOL    HW2 4710   1.895   0.359   4.505  0.7102  0.9534  1.7450
 1236SOL    HW3 4711   2.031   0.326   4.447 -0.4822  0.3968 -0.8893
 1236SOL    MW4 4712   1.971   0.385   4.471  0.0823  0.6372 -0.0465
 1237SOL     OW 4713   6.384   0.764   4.382  0.1517  0.3412  0.4728
 1237SOL    HW2 4714   6.348   0.677   4.394 -0.9435  0.6838 -0.2003
 1237SOL    HW3 4715   6.445   0.754   4.308  0.7059 -0.0233  0.9661
 1237SOL    MW4 4716   6.388   0.751   4.373  0.0803  0.3383  0.4491
 1238SOL     OW 4717   2.691   3.187   1.797  0.1308  0.2216  0.0128
 1238SOL    HW2 4718   2.598   3.191   1.776 -0.1112 -0.5159  0.9157
 1238SOL    HW3 4719   2.694   3.169   1.891  1.1849 -0.1181 -0.0754
 1238SOL    MW4 4720   2.679   3.185   1.807  0.2380  0.0795  0.1203
 1239SOL     OW 4721   0.811   4.778   1.524 -0.0594  0.0346 -0.1748
 1239SOL    HW2 4722   0.817   4.855   1.468 -0.1319  1.0331  1.1470
 1239SOL    HW3 4723   0.784   4.708   1.466  1.0658  0.7544 -1.6335
 1239SOL    MW4 4724   0.809   4.779   1.509  0.0795  0.2613 -0.1929
 1240SOL     OW 4725   1.797   2.593   1.594 -0.6304  0.0005  0.6982
 1240SOL    HW2 4726   1.871   2.547   1.554 -0.4923  0.2359  0.6810
 1240SOL    HW3 4727   1.721   2.563   1.543 -0.6865 -0.9702  1.3256
 1240SOL    MW4 4728   1.797   2.583   1.582 -0.6196 -0.0965  0.7787
 1241SOL     OW 4729   0.771   3.040   6.243 -0.0693  0.6122 -0.4285
 1241SOL    HW2 4730   0.746   3.128   6.214  1.5110  0.4636 -2.5455
 1241SOL    HW3 4731   0.861   3.050   6.275 -1.1158  0.3833  2.9538
 1241SOL    MW4 4732   0.780   3.053   6.243  0.0011  0.5624 -0.2616
 1242SOL     OW 4733   1.756   0.758   4.346 -0.1147 -0.5325 -0.4563
 1242SOL    HW2 4734   1.851   0.744   4.344 -0.3706 -2.5991 -0.6496
 1242SOL    HW3 4735   1.726   0.727   4.260 -1.0454 -0.6024 -0.1115
 1242SOL    MW4 4736   1.764   0.752   4.334 -0.2713 -0.8144 -0.4363
 1243SOL     OW 4737   3.637   5.809   4.949  0.2988 -0.3794 -0.3533
 1243SOL    HW2 4738   3.594   5.890   4.923  1.7663  0.7650  0.6254
 1243SOL    HW3 4739   3.705   5.795   4.884  1.2665  0.2324  0.4905
 1243SOL    MW4 4740   3.640   5.818   4.937  0.6201 -0.1477 -0.1128
 1244SOL     OW 4741   0.126   4.270   5.685  0.4289  0.4167  0.1705
 1244SOL    HW2 4742   0.076   4.351   5.697  2.5719  1.9736 -0.7526
 1244SOL    HW3 4743   0.188   4.270   5.757  0.2149 -0.6324  0.3703
 1244SOL    MW4 4744   0.127   4.281   5.696  0.6834  0.4837  0.0751
 1245SOL     OW 4745   2.586   5.437   1.704  0.1653  0.5929  0.5918
 1245SOL    HW2 4746   2.586   5.502   1.634 -0.9854 -0.2333 -0.2176
 1245SOL    HW3 4747   2.674   5.441   1.741  0.4971  1.7131 -0.2717
 1245SOL    MW4 4748   2.597   5.446   1.699  0.0572  0.6317  0.3711
 1246SOL     OW 4749   3.832   0.182   3.803 -0.6885  0.2116  0.2746
 1246SOL    HW2 4750   3.818   0.272   3.774  0.4163  0.1791 -0.4288
 1246SOL    HW3 4751   3.857   0.190   3.895 -1.3422  0.5491  0.4352
 1246SOL    MW4 4752   3.833   0.195   3.811 -0.6289  0.2519  0.2030
 1247SOL     OW 4753   1.040   2.944   3.353  0.3740  0.4876 -0.0340
 1247SOL    HW2 4754   1.035   3.002   3.428 -4.2547  1.0091 -0.4765
 1247SOL    HW3 4755   1.010   2.997   3.279  1.0016 -1.0891 -1.5029
 1247SOL    MW4 4756   1.036   2.959   3.353 -0.1539  0.3484 -0.2862
 1248SOL     OW 4757   4.173   0.546   0.393 -0.1875 -0.3862  0.3525
 1248SOL    HW2 4758   4.085   0.546   0.356 -0.2003  0.8848  0.3672
 1248SOL    HW3 4759   4.214   0.468   0.356 -1.1107 -0.6495 -0.1431
 1248SOL    MW4 4760   4.167   0.535   0.384 -0.3110 -0.2532  0.2891
 1249SOL     OW 4761   5.798   6.099   3.921 -0.2343  0.0291  0.0237
 1249SOL    HW2 4762   5.754   6.084   4.004 -0.8639 -1.5440 -0.5537
 1249SOL    HW3 4763   5.876   6.043   3.924  1.4362  2.2386  0.7382
 1249SOL    MW4 4764   5.803   6.089   3.932 -0.0970  0.1130  0.0418
 1250SOL     OW 4765   6.292   5.373   3.974  0.7999 -0.0721 -0.6344
 1250SOL    HW2 4766   6.219   5.317   4.000 -0.5159  1.9161  0.2296
 1250SOL    HW3 4767   6.320   5.415   4.055  1.5636  0.7153 -1.2812
 1250SOL    MW4 4768   6.286   5.371   3.988  0.7271  0.2941 -0.6057
 1251SOL     OW 4769   2.886   4.815   4.442 -0.3265 -0.2044 -0.2311
 1251SOL    HW2 4770   2.902   4.831   4.349 -0.4645  1.5655  0.0163
 1251SOL    HW3 4771   2.796   4.782   4.445 -0.5226  0.2737 -0.6875
 1251SOL    MW4 4772   2.876   4.813   4.430 -0.3706  0.0922 -0.2586
 1252SOL     OW 4773   2.962   4.079   2.648  0.4351  0.1629 -0.3921
 1252SOL    HW2 4774   2.950   4.172   2.666  1.6015  0.1186  0.7370
 1252SOL    HW3 4775   2.873   4.044   2.641 -0.0450  1.5979 -2.2870
 1252SOL    MW4 4776   2.949   4.087   2.649  0.5256  0.3464 -0.4931
 1253SOL     OW 4777   2.346   3.640   5.382  0.4618 -0.5062  0.0078
 1253SOL    HW2 4778   2.365   3.628   5.475  1.9192  0.9335 -0.0757
 1253SOL    HW3 4779   2.426   3.678   5.345 -1.6119  3.4653 -0.8907
 1253SOL    MW4 4780   2.359   3.643   5.389  0.3805  0.2077 -0.1217
 1254SOL     OW 4781   5.493   2.838   2.220  0.0436  0.5406  0.5706
 1254SOL    HW2 4782   5.524   2.749   2.200  1.3059  0.4663  2.5809
 1254SOL    HW3 4783   5.515   2.889   2.142  0.6476 -0.5946 -0.0374
 1254SOL    MW4 4784   5.500   2.833   2.207  0.2898  0.3810  0.7556
 1255SOL     OW 4785   1.355   0.760   3.622  0.1964  0.1846  0.6370
 1255SOL    HW2 4786   1.278   0.703   3.629 -0.1608  0.4685 -0.8153
 1255SOL    HW3 4787   1.333   0.824   3.555  0.7660  1.8101  1.9130
 1255SOL    MW4 4788   1.342   0.761   3.614  0.2244  0.4365  0.6138
 1256SOL     OW 4789   3.500   3.216   2.787  0.1023 -0.3239 -0.0795
 1256SOL    HW2 4790   3.496   3.168   2.704  0.1787 -2.8772  1.2866
 1256SOL    HW3 4791   3.540   3.154   2.848  0.5200  1.6607  1.7621
 1256SOL    MW4 4792   3.504   3.201   2.784  0.1675 -0.3989  0.3437
 1257SOL     OW 4793   4.938   6.311   5.218 -0.0322  0.1320  0.1574
 1257SOL    HW2 4794   4.957   6.341   5.307 -1.0278 -2.6534  1.4405
 1257SOL    HW3 4795   4.849   6.275   5.224 -0.0205 -0.3653 -1.8989
 1257SOL    MW4 4796   4.928   6.310   5.231 -0.1620 -0.3011  0.0553
 1258SOL     OW 4797   1.773   2.774   1.013  0.0988 -0.2893  0.3511
 1258SOL    HW2 4798   1.847   2.713   1.017  0.0833 -0.4447 -1.1691
 1258SOL    HW3 4799   1.809   2.853   0.973 -0.5987 -0.4384 -0.5881
 1258SOL    MW4 4800   1.788   2.776   1.008  0.0047 -0.3295  0.0266
 1259SOL     OW 4801   2.446   6.258   4.611 -0.1471  0.4031 -0.3758
 1259SOL    HW2 4802   2.413   6.274   4.700 -1.5415  0.9265 -0.9511
 1259SOL    HW3 4803   2.511   6.326   4.597  0.6643 -0.1558  0.5079
 1259SOL    MW4 4804   2.450   6.269   4.621 -0.2240  0.3985 -0.3351
 1260SOL     OW 4805   3.520   1.043   2.560  0.2575  0.2531  0.0132
 1260SOL    HW2 4806   3.531   1.136   2.541  2.6142  0.0587  0.0922
 1260SOL    HW3 4807   3.426   1.029   2.559 -0.1948  2.7862  0.7357
 1260SOL    MW4 4808   3.509   1.053   2.557  0.5088  0.5617  0.1190
 1261SOL     OW 4809   0.872   5.184   1.105 -0.0670  0.0631 -0.9788
 1261SOL    HW2 4810   0.842   5.263   1.149  1.7100 -0.6595  1.8033
 1261SOL    HW3 4811   0.872   5.206   1.012  0.1322  3.2519 -0.3337
 1261SOL    MW4 4812   0.868   5.197   1.099  0.1937  0.3885 -0.5266
 1262SOL     OW 4813   1.424   0.769   5.702 -0.1913  0.2583 -0.5614
 1262SOL    HW2 4814   1.430   0.681   5.739 -1.3769 -0.1856 -1.3813
 1262SOL    HW3 4815   1.336   0.799   5.725  0.5869  1.7187  0.7058
 1262SOL    MW4 4816   1.414   0.761   5.710 -0.2450  0.3924 -0.5024
 1263SOL     OW 4817   0.235   3.885   5.368 -0.0909  0.4151 -0.5234
 1263SOL    HW2 4818   0.243   3.947   5.296 -1.4185  0.6881 -0.4712
 1263SOL    HW3 4819   0.140   3.877   5.383  0.1417  0.2656  1.0961
 1263SOL    MW4 4820   0.223   3.892   5.361 -0.2354  0.4314 -0.3028
 1264SOL     OW 4821   5.981   4.615   4.816  0.0956 -0.0771  0.4949
 1264SOL    HW2 4822   6.014   4.688   4.764 -0.7703 -0.8251 -1.1799
 1264SOL    HW3 4823   5.944   4.655   4.894 -2.1556  1.5490 -1.2655
 1264SOL    MW4 4824   5.980   4.630   4.819 -0.3156  0.0388  0.0416
 1265SOL     OW 4825   4.666   1.171   5.184 -0.0028 -0.6804  0.0616
 1265SOL    HW2 4826   4.752   1.196   5.149  0.3638 -0.7669  0.8893
 1265SOL    HW3 4827   4.658   1.221   5.265 -1.0937 -0.0540 -0.4154
 1265SOL    MW4 4828   4.676   1.181   5.190 -0.0984 -0.6092  0.1078
 1266SOL     OW 4829   0.465   0.945   1.558  0.3672  0.0875 -0.2074
 1266SOL    HW2 4830   0.405   0.948   1.483  0.0074  2.2340  0.0861
 1266SOL    HW3 4831   0.462   0.854   1.587 -3.5906  0.2277  0.4094
 1266SOL    MW4 4832   0.457   0.934   1.552 -0.2024  0.3892 -0.0873
 1267SOL     OW 4833   5.113   4.651   3.982 -0.2777  0.2196 -0.3001
 1267SOL    HW2 4834   5.134   4.597   3.906  0.6806  0.9343 -0.5646
 1267SOL    HW3 4835   5.035   4.700   3.955  0.6448  1.2237 -1.2460
 1267SOL    MW4 4836   5.105   4.651   3.968 -0.0295  0.4464 -0.4598
 1268SOL     OW 4837   0.822   2.038   3.757 -0.5327 -0.3213  0.3363
 1268SOL    HW2 4838   0.774   1.957   3.773 -1.7520  0.6138  1.6714
 1268SOL    HW3 4839   0.913   2.017   3.780 -0.8647 -1.2744  0.8010
 1268SOL    MW4 4840   0.828   2.025   3.762 -0.7374 -0.3237  0.5738
 1269SOL     OW 4841   5.110   0.906   2.070  0.1125 -0.3924  0.1311
 1269SOL    HW2 4842   5.188   0.904   2.015  0.0509  1.4312 -0.0902
 1269SOL    HW3 4843   5.144   0.919   2.159  0.0858  1.7586 -0.1126
 1269SOL    MW4 4844   5.124   0.908   2.075  0.1009  0.1320  0.0697
 1270SOL     OW 4845   4.032   0.495   3.010  0.3368  0.7536 -0.3341
 1270SOL    HW2 4846   4.013   0.403   3.029  2.9826  0.2056  0.0185
 1270SOL    HW3 4847   4.065   0.495   2.921  1.5428  1.1577  0.1017
 1270SOL    MW4 4848   4.034   0.483   3.001  0.8450  0.7346 -0.2301
 1271SOL     OW 4849   6.217   1.269   3.781  0.4310 -0.0622  0.6686
 1271SOL    HW2 4850   6.224   1.350   3.732  1.2136 -0.3992  0.2142
 1271SOL    HW3 4851   6.125   1.266   3.809  0.5926  1.3828  1.4210
 1271SOL    MW4 4852   6.206   1.279   3.778  0.5556  0.0840  0.7079
 1272SOL     OW 4853   3.459   1.823   0.689 -0.0553  0.5456 -0.0568
 1272SOL    HW2 4854   3.532   1.823   0.752 -0.9362 -2.7015  1.1666
 1272SOL    HW3 4855   3.473   1.744   0.637 -1.9508  0.6032 -0.7234
 1272SOL    MW4 4856   3.471   1.812   0.690 -0.4216  0.1248  0.0166
 1273SOL     OW 4857   3.219   2.964   2.545  0.1606 -0.0291  0.2473
 1273SOL    HW2 4858   3.183   2.885   2.585  0.8374 -0.3517  0.2136
 1273SOL    HW3 4859   3.314   2.956   2.554  0.2250  1.0662  0.8134
 1273SOL    MW4 4860   3.227   2.953   2.552  0.2584  0.0729  0.3175
 1274SOL     OW 4861   0.742   1.495   6.023  0.6531  0.2779 -0.1279
 1274SOL    HW2 4862   0.813   1.558   6.033 -0.0780  1.3307 -1.1679
 1274SOL    HW3 4863   0.662   1.548   6.030 -0.1027 -1.0141  2.0236
 1274SOL    MW4 4864   0.741   1.510   6.025  0.4569  0.2463  0.0188
 1275SOL     OW 4865   3.795   3.108   3.798  0.4156  0.6678  0.0778
 1275SOL    HW2 4866   3.701   3.109   3.782  0.5229 -0.2580 -0.6562
 1275SOL    HW3 4867   3.830   3.178   3.743  0.0652  1.5971  1.0173
 1275SOL    MW4 4868   3.787   3.117   3.789  0.3835  0.6683  0.1049
 1276SOL     OW 4869   3.629   2.913   1.153 -0.0071 -0.3124 -0.1064
 1276SOL    HW2 4870   3.607   2.822   1.132 -0.4996  0.0030 -0.9925
 1276SOL    HW3 4871   3.600   2.924   1.243 -0.9758 -0.7105 -0.3623
 1276SOL    MW4 4872   3.623   2.902   1.162 -0.1999 -0.3233 -0.2571
 1277SOL     OW 4873   1.024   3.495   2.615 -0.4088 -0.2850  0.0218
 1277SOL    HW2 4874   0.969   3.478   2.691 -0.0460 -1.0619  0.1262
 1277SOL    HW3 4875   0.962   3.518   2.545 -0.7467  0.3360  0.5262
 1277SOL    MW4 4876   1.008   3.496   2.616 -0.4055 -0.3056  0.1021
 1278SOL     OW 4877   3.489   4.277   0.806 -0.1648  0.4072  0.3142
 1278SOL    HW2 4878   3.474   4.359   0.852 -2.2456 -0.4621  1.2932
 1278SOL    HW3 4879   3.402   4.240   0.793  0.6731 -1.3061 -0.7298
 1278SOL    MW4 4880   3.476   4.283   0.811 -0.3288  0.0664  0.3056
 1279SOL     OW 4881   5.471   1.554   2.914 -0.0862 -0.6207  0.5953
 1279SOL    HW2 4882   5.535   1.483   2.913 -0.4026 -0.9516  1.9446
 1279SOL    HW3 4883   5.397   1.519   2.864  0.7300 -0.2445 -0.9540
 1279SOL    MW4 4884   5.470   1.540   2.907 -0.0203 -0.6147  0.5689
 1280SOL     OW 4885   3.291   3.848   1.761  0.2421  0.3220  0.2549
 1280SOL    HW2 4886   3.302   3.830   1.667  0.5704  1.3017  0.0979
 1280SOL    HW3 4887   3.197   3.851   1.774  0.1954  0.6485 -0.1408
 1280SOL    MW4 4888   3.280   3.846   1.750  0.2793  0.4943  0.1819
 1281SOL     OW 4889   0.912   0.590   5.532 -0.1956 -0.4866 -0.0206
 1281SOL    HW2 4890   0.970   0.626   5.465  0.1290  0.8867  0.9656
 1281SOL    HW3 4891   0.970   0.539   5.589  0.1633  1.1062  1.1222
 1281SOL    MW4 4892   0.927   0.588   5.531 -0.1054 -0.0953  0.2603
 1282SOL     OW 4893   1.233   5.000   0.540 -0.8232  0.0051  0.3590
 1282SOL    HW2 4894   1.223   5.071   0.603  1.9613  1.3743 -0.5601
 1282SOL    HW3 4895   1.291   4.938   0.584 -0.4262  0.0279 -0.1261
 1282SOL    MW4 4896   1.239   5.001   0.554 -0.4034  0.1887  0.1737
 1283SOL     OW 4897   1.603   4.683   1.060 -0.2371 -0.3217 -0.3767
 1283SOL    HW2 4898   1.642   4.763   1.096 -0.0889 -1.2694  1.7202
 1283SOL    HW3 4899   1.591   4.702   0.967 -1.6180  2.6902  0.2986
 1283SOL    MW4 4900   1.607   4.696   1.052 -0.3997 -0.0493 -0.0109
 1284SOL     OW 4901   4.334   2.499   0.559 -0.0881  0.1478  0.1005
 1284SOL    HW2 4902   4.284   2.439   0.614  0.7015 -2.1172 -1.4968
 1284SOL    HW3 4903   4.419   2.505   0.601 -0.7920  1.9807  1.4272
 1284SOL    MW4 4904   4.338   2.492   0.571 -0.0768  0.0908  0.0648
 1285SOL     OW 4905   4.187   0.968   1.427 -0.2142  0.4241  0.2985
 1285SOL    HW2 4906   4.149   0.896   1.476  0.1358  0.9074  1.3105
 1285SOL    HW3 4907   4.281   0.949   1.426 -0.1399  0.7704  0.4257
 1285SOL    MW4 4908   4.195   0.956   1.433 -0.1582  0.5336  0.4488
 1286SOL     OW 4909   4.940   4.277   4.824  0.7529 -0.5753  0.4805
 1286SOL    HW2 4910   4.949   4.370   4.847 -0.7561 -0.1484 -0.4897
 1286SOL    HW3 4911   4.847   4.266   4.807  1.2038 -1.7163 -1.6233
 1286SOL    MW4 4912   4.929   4.288   4.825  0.6133 -0.6695  0.0749
 1287SOL     OW 4913   4.538   5.859   2.682  0.1524  0.4920  0.2321
 1287SOL    HW2 4914   4.443   5.872   2.690  0.1533  2.2006 -1.6306
 1287SOL    HW3 4915   4.575   5.947   2.689  1.7046 -0.2210  1.6106
 1287SOL    MW4 4916   4.530   5.873   2.684  0.3573  0.6234  0.1682
 1288SOL     OW 4917   5.653   0.934   5.719  0.4018  0.1202 -0.3337
 1288SOL    HW2 4918   5.601   1.007   5.752 -0.7922 -1.9487  2.9955
 1288SOL    HW3 4919   5.744   0.961   5.730 -0.0166  1.3249  0.2748
 1288SOL    MW4 4920   5.658   0.947   5.725  0.1891  0.0061  0.1859
 1289SOL     OW 4921   1.703   3.550   1.712 -0.0746 -0.1626 -0.5728
 1289SOL    HW2 4922   1.646   3.473   1.715  2.1368 -2.0968 -2.7128
 1289SOL    HW3 4923   1.708   3.572   1.619  1.5102  0.7932 -0.2988
 1289SOL    MW4 4924   1.696   3.543   1.700  0.4263 -0.2917 -0.8190
 1290SOL     OW 4925   2.030   1.366   4.632  0.8198  0.1716 -0.9210
 1290SOL    HW2 4926   2.048   1.333   4.720 -2.9071  0.1951  0.0370
 1290SOL    HW3 4927   1.938   1.344   4.617  1.0231  1.1363 -4.4215
 1290SOL    MW4 4928   2.020   1.359   4.641  0.3549  0.3019 -1.2565
 1291SOL     OW 4929   4.750   1.284   0.928 -0.5221 -0.6448 -0.0924
 1291SOL    HW2 4930   4.665   1.259   0.964 -0.3746 -0.9458  0.0481
 1291SOL    HW3 4931   4.733   1.302   0.835 -0.5178 -1.8520 -0.3392
 1291SOL    MW4 4932   4.736   1.283   0.920 -0.5021 -0.8438 -0.1064
 1292SOL     OW 4933   5.812   4.719   1.112 -0.0384  0.5104 -0.1729
 1292SOL    HW2 4934   5.777   4.808   1.119  0.2010  0.6069 -0.1643
 1292SOL    HW3 4935   5.827   4.708   1.018  1.9506  1.2900  0.0022
 1292SOL    MW4 4936   5.810   4.729   1.100  0.2556  0.6260 -0.1486
 1293SOL     OW 4937   3.820   1.187   3.634  0.3604  0.1579  0.0037
 1293SOL    HW2 4938   3.903   1.216   3.598  0.5333 -1.5971 -1.1120
 1293SOL    HW3 4939   3.781   1.266   3.672  2.4737  1.0257  0.4868
 1293SOL    MW4 4940   3.826   1.201   3.634  0.6620  0.0409 -0.0798
 1294SOL     OW 4941   1.012   0.107   2.325  0.5916  0.8392  0.0809
 1294SOL    HW2 4942   1.067   0.098   2.248  0.7835 -0.2916  0.3328
 1294SOL    HW3 4943   1.057   0.171   2.380  0.6178  1.4081 -0.5923
 1294SOL    MW4 4944   1.025   0.114   2.322  0.6203  0.7651  0.0253
 1295SOL     OW 4945   4.464   1.850   1.329  0.3739  0.2838  0.3225
 1295SOL    HW2 4946   4.371   1.848   1.306  0.0610 -0.6854  1.5717
 1295SOL    HW3 4947   4.507   1.802   1.258 -0.4181 -1.5981  1.0600
 1295SOL    MW4 4948   4.457   1.843   1.316  0.2281 -0.0924  0.5846
 1296SOL     OW 4949   5.516   6.144   0.104  0.1390  0.0865 -0.6180
 1296SOL    HW2 4950   5.560   6.162   0.187 -1.0112  1.3472 -0.2442
 1296SOL    HW3 4951   5.482   6.229   0.075 -0.3144 -0.4976 -1.8980
 1296SOL    MW4 4952   5.517   6.157   0.111 -0.0726  0.1758 -0.7375
 1297SOL     OW 4953   0.434   2.893   3.345 -0.5819  0.5469 -0.1655
 1297SOL    HW2 4954   0.440   2.886   3.250  0.0843  0.0354 -0.1015
 1297SOL    HW3 4955   0.506   2.951   3.369 -0.0160 -0.2404  0.1038
 1297SOL    MW4 4956   0.444   2.900   3.336 -0.4193  0.3755 -0.1215
 1298SOL     OW 4957   0.039   2.695   2.847 -0.1677  0.5332 -0.5324
 1298SOL    HW2 4958   0.117   2.646   2.822 -0.2378  0.2179 -0.1354
 1298SOL    HW3 4959   0.067   2.787   2.846  0.9042  0.3127  1.9220
 1298SOL    MW4 4960   0.053   2.701   2.844 -0.0355  0.4625 -0.1562
 1299SOL     OW 4961   5.106   6.001   1.406 -0.0784  0.0033  0.4657
 1299SOL    HW2 4962   5.058   6.072   1.448  2.4217  0.9933  1.8451
 1299SOL    HW3 4963   5.184   6.043   1.368  1.1358 -1.8690  0.7346
 1299SOL    MW4 4964   5.110   6.016   1.406  0.4117 -0.1131  0.6832
 1300SOL     OW 4965   1.516   0.201   0.899 -0.6401 -0.1060 -0.0003
 1300SOL    HW2 4966   1.435   0.240   0.933 -0.6389 -0.6824  0.6976
 1300SOL    HW3 4967   1.530   0.123   0.954  0.7214  0.3216  0.3053
 1300SOL    MW4 4968   1.507   0.195   0.911 -0.4603 -0.1256  0.1321
 1301SOL     OW 4969   0.930   0.769   1.306  0.1379  0.8841  0.2241
 1301SOL    HW2 4970   0.905   0.712   1.233 -0.3867  0.9627  0.3356
 1301SOL    HW3 4971   0.847   0.792   1.347  0.4571  0.3495  1.2160
 1301SOL    MW4 4972   0.916   0.764   1.302  0.1108  0.8239  0.3697
 1302SOL     OW 4973   1.481   1.274   0.510 -0.4221  0.0207 -0.1954
 1302SOL    HW2 4974   1.432   1.214   0.453  2.0534 -1.2268 -1.1551
 1302SOL    HW3 4975   1.508   1.221   0.585 -1.5809  1.0322  0.9829
 1302SOL    MW4 4976   1.478   1.259   0.512 -0.2484 -0.0104 -0.1666
 1303SOL     OW 4977   3.248   1.207   1.666  0.5215  0.2174 -0.3534
 1303SOL    HW2 4978   3.192   1.274   1.626 -2.7653 -0.4450  2.6819
 1303SOL    HW3 4979   3.261   1.236   1.756  3.3429 -0.8466 -0.2939
 1303SOL    MW4 4980   3.242   1.219   1.672  0.4601 -0.0104  0.0549
 1304SOL     OW 4981   0.953   3.975   6.392  0.7757 -0.7071  0.6776
 1304SOL    HW2 4982   0.928   4.060   6.429 -0.1251 -0.1370 -1.1260
 1304SOL    HW3 4983   0.909   3.911   6.448  2.4361 -0.0956  2.7981
 1304SOL    MW4 4984   0.944   3.978   6.404  0.8759 -0.5512  0.7194
 1305SOL     OW 4985   6.079   0.892   4.863 -0.4728  0.2713 -0.0447
 1305SOL    HW2 4986   6.033   0.916   4.943  0.6270  0.0380  0.6749
 1305SOL    HW3 4987   6.080   0.972   4.811  0.6457  1.0405  1.0992
 1305SOL    MW4 4988   6.073   0.906   4.867 -0.1801  0.3420  0.2011
 1306SOL     OW 4989   3.589   3.515   0.610 -0.6345 -0.2349 -0.0028
 1306SOL    HW2 4990   3.548   3.582   0.555 -0.9242 -1.7089 -1.6421
 1306SOL    HW3 4991   3.586   3.435   0.558  1.2189 -1.1816  1.2309
 1306SOL    MW4 4992   3.583   3.513   0.596 -0.4282 -0.5543 -0.0563
 1307SOL     OW 4993   4.559   5.043   2.222  0.1479 -0.0899  0.1802
 1307SOL    HW2 4994   4.551   5.083   2.308 -0.5351  0.0492  0.0566
 1307SOL    HW3 4995   4.470   5.013   2.201 -0.0982  1.4979 -1.2547
 1307SOL    MW4 4996   4.546   5.044   2.230  0.0253  0.1379 -0.0254
 1308SOL     OW 4997   5.053   2.000   6.046  0.1040 -0.2723  0.7065
 1308SOL    HW2 4998   5.062   2.046   6.130  0.4525  1.3997 -0.1909
 1308SOL    HW3 4999   4.963   1.969   6.045  0.3281 -1.0363  2.0317
 1308SOL    MW4 5000   5.042   2.002   6.057  0.1795 -0.1525  0.7629
 1309SOL     OW 5001   3.745   6.334   4.531  0.4712 -0.3184  0.1940
 1309SOL    HW2 5002   3.695   6.258   4.500  0.8346 -0.0585 -1.0884
 1309SOL    HW3 5003   3.682   6.405   4.534  1.0905  0.6571 -3.8307
 1309SOL    MW4 5004   3.730   6.333   4.527  0.6009 -0.1554 -0.5062
 1310SOL     OW 5005   2.398   4.330   3.553 -0.7171 -0.1392 -0.5715
 1310SOL    HW2 5006   2.477   4.384   3.552 -0.7101 -0.0435  1.5248
 1310SOL    HW3 5007   2.426   4.248   3.593 -1.8172  0.1729  0.8863
 1310SOL    MW4 5008   2.412   4.326   3.558 -0.8613 -0.0854 -0.1026
 1311SOL     OW 5009   0.703   5.565   0.656 -0.0299 -0.0535 -0.3915
 1311SOL    HW2 5010   0.682   5.655   0.684  0.7958 -0.0306  0.1787
 1311SOL    HW3 5011   0.623   5.516   0.675  0.0647  0.2328  0.8385
 1311SOL    MW4 5012   0.689   5.570   0.662  0.0915 -0.0127 -0.1540
 1312SOL     OW 5013   1.095   5.055   2.852  0.7021 -0.4041 -0.0702
 1312SOL    HW2 5014   1.126   5.033   2.764  0.3216  2.2646 -0.9720
 1312SOL    HW3 5015   1.173   5.083   2.900  0.6493 -0.0556 -0.1841
 1312SOL    MW4 5016   1.109   5.056   2.847  0.6449 -0.0060 -0.2042
 1313SOL     OW 5017   1.316   6.343   3.054  0.0677 -0.3590  0.5074
 1313SOL    HW2 5018   1.368   6.271   3.090 -0.7086  0.1708  2.8857
 1313SOL    HW3 5019   1.250   6.360   3.121 -1.3607  0.9081 -1.1354
 1313SOL    MW4 5020   1.314   6.336   3.068 -0.2232 -0.1219  0.6044
 1314SOL     OW 5021   2.583   0.399   1.001 -0.4044  0.0338 -0.1652
 1314SOL    HW2 5022   2.542   0.328   0.952 -2.0514 -1.4660  3.0824
 1314SOL    HW3 5023   2.672   0.370   1.016  0.0487  0.4009 -1.8887
 1314SOL    MW4 5024   2.589   0.386   0.997 -0.5619 -0.1156  0.0359
 1315SOL     OW 5025   5.214   0.824   4.473 -0.5458  0.6842  0.3941
 1315SOL    HW2 5026   5.196   0.731   4.463 -1.6527  0.9541 -0.4584
 1315SOL    HW3 5027   5.303   0.829   4.506 -0.7044 -0.6899  1.0957
 1315SOL    MW4 5028   5.223   0.813   4.476 -0.7127  0.5385  0.3742
 1316SOL     OW 5029   2.587   0.698   1.435  0.5407 -0.0355  0.2156
 1316SOL    HW2 5030   2.645   0.630   1.404  0.9656  0.6957 -0.6360
 1316SOL    HW3 5031   2.642   0.755   1.488  0.5010  0.3941 -0.1978
 1316SOL    MW4 5032   2.602   0.697   1.438  0.5915  0.1176  0.0487
 1317SOL     OW 5033   3.385   1.474   5.854 -0.3562 -1.0019 -0.4521
 1317SOL    HW2 5034   3.371   1.564   5.822 -0.1034 -0.9935 -0.5348
 1317SOL    HW3 5035   3.342   1.474   5.940 -1.5111 -1.1809 -1.0075
 1317SOL    MW4 5036   3.377   1.486   5.861 -0.4752 -1.0244 -0.5363
 1318SOL     OW 5037   5.020   3.932   3.117  0.2811 -0.3287  1.0087
 1318SOL    HW2 5038   5.030   3.840   3.140 -0.3431 -0.7123 -0.2094
 1318SOL    HW3 5039   4.979   3.932   3.031  1.1455  1.0811  0.5600
 1318SOL    MW4 5040   5.016   3.920   3.109  0.3128 -0.1933  0.7888
 1319SOL     OW 5041   5.020   1.143   2.763  0.1561 -0.1014 -0.3327
 1319SOL    HW2 5042   4.991   1.128   2.673 -1.5652  0.9173  0.0062
 1319SOL    HW3 5043   4.942   1.173   2.808  0.9012 -0.9188  1.6134
 1319SOL    MW4 5044   5.006   1.145   2.757  0.0273 -0.0749 -0.0312
 1320SOL     OW 5045   4.508   5.096   5.976 -0.6520 -0.9918  0.0271
 1320SOL    HW2 5046   4.602   5.095   5.956 -0.6412 -1.3394  0.0793
 1320SOL    HW3 5047   4.492   5.010   6.015 -0.6239 -0.2512  1.7243
 1320SOL    MW4 5048   4.519   5.084   5.978 -0.6468 -0.9400  0.2579
 1321SOL     OW 5049   0.849   3.529   1.738  0.3478  0.4469  0.3268
 1321SOL    HW2 5050   0.835   3.538   1.644  0.5447  0.3170  0.2852
 1321SOL    HW3 5051   0.794   3.454   1.763  1.1568 -0.2298  0.1179
 1321SOL    MW4 5052   0.840   3.520   1.729  0.4805  0.3405  0.2937
 1322SOL     OW 5053   4.484   1.182   0.974  0.1527  0.2857  0.1566
 1322SOL    HW2 5054   4.423   1.211   0.906  1.6839  0.3382 -1.2819
 1322SOL    HW3 5055   4.431   1.175   1.053 -1.7072  0.2859 -1.0215
 1322SOL    MW4 5056   4.469   1.185   0.975  0.1094  0.2927 -0.1887
 1323SOL     OW 5057   3.689   1.644   2.001 -0.0207 -0.0605 -0.1972
 1323SOL    HW2 5058   3.728   1.640   1.914  0.0303  0.8041 -0.2171
 1323SOL    HW3 5059   3.652   1.556   2.014 -0.4914 -0.0404 -1.2999
 1323SOL    MW4 5060   3.689   1.632   1.992 -0.0761  0.0562 -0.3453
 1324SOL     OW 5061   2.000   4.189   3.834  0.1543 -0.4407  0.1209
 1324SOL    HW2 5062   1.951   4.110   3.812 -2.9590  1.8270 -1.9050
 1324SOL    HW3 5063   2.037   4.218   3.750  0.3845  0.7847  0.6226
 1324SOL    MW4 5064   1.998   4.183   3.820 -0.2261  0.0202 -0.0802
 1325SOL     OW 5065   4.354   3.703   4.602  0.0072  0.0058  0.5028
 1325SOL    HW2 5066   4.335   3.658   4.684  0.2867  0.1354  0.6404
 1325SOL    HW3 5067   4.364   3.795   4.627  1.3652 -0.1269  0.5333
 1325SOL    MW4 5068   4.353   3.709   4.616  0.2232  0.0054  0.5250
 1326SOL     OW 5069   3.811   4.172   5.726 -0.1486  0.1319 -0.2757
 1326SOL    HW2 5070   3.787   4.260   5.695 -0.1131 -0.0253 -0.7558
 1326SOL    HW3 5071   3.843   4.127   5.647 -1.5792 -0.8041 -0.3505
 1326SOL    MW4 5072   3.812   4.178   5.711 -0.3327 -0.0123 -0.3489
 1327SOL     OW 5073   1.620   1.789   5.715 -0.3068  0.3688  0.4919
 1327SOL    HW2 5074   1.540   1.836   5.692  0.8021  1.1051 -2.2040
 1327SOL    HW3 5075   1.612   1.704   5.672  0.1940  0.3161  0.4924
 1327SOL    MW4 5076   1.609   1.784   5.707 -0.0944  0.4590  0.1362
 1328SOL     OW 5077   3.364   1.148   4.815 -0.2929  0.3179  0.2808
 1328SOL    HW2 5078   3.451   1.127   4.849 -0.2673 -1.2002 -0.6090
 1328SOL    HW3 5079   3.304   1.106   4.877 -0.2542 -2.0628 -1.1510
 1328SOL    MW4 5080   3.368   1.140   4.828 -0.2844 -0.1965 -0.0255
 1329SOL     OW 5081   0.872   6.261   3.255 -0.8845  0.4383  0.6194
 1329SOL    HW2 5082   0.887   6.285   3.163 -0.0467  0.7288  0.8246
 1329SOL    HW3 5083   0.847   6.343   3.297 -0.7707  0.4038  0.7524
 1329SOL    MW4 5084   0.871   6.275   3.248 -0.7589  0.4721  0.6640
 1330SOL     OW 5085   3.180   4.238   1.915  0.2959 -0.3240  0.1178
 1330SOL    HW2 5086   3.115   4.308   1.909  1.4934  0.9629  1.3306
 1330SOL    HW3 5087   3.162   4.196   1.999 -0.2351 -1.3095 -0.4756
 1330SOL    MW4 5088   3.169   4.242   1.926  0.3839 -0.2842  0.1995
 1331SOL     OW 5089   1.786   1.337   4.126  0.3682 -0.0115  0.4915
 1331SOL    HW2 5090   1.741   1.422   4.127  0.2610 -0.0415 -0.6747
 1331SOL    HW3 5091   1.803   1.318   4.218 -2.1813 -0.0778  1.0376
 1331SOL    MW4 5092   1.782   1.346   4.138  0.0177 -0.0242  0.4097
 1332SOL     OW 5093   5.961   2.899   4.004  0.3359  0.8791  0.7850
 1332SOL    HW2 5094   5.899   2.826   4.009  2.4654 -1.0250  0.8986
 1332SOL    HW3 5095   5.966   2.920   3.911 -0.8139  1.3914  0.8247
 1332SOL    MW4 5096   5.953   2.893   3.992  0.4652  0.6954  0.8052
 1333SOL     OW 5097   3.866   3.112   6.138  0.0528 -0.4739  0.1447
 1333SOL    HW2 5098   3.951   3.133   6.177 -0.5160  2.1655  0.1466
 1333SOL    HW3 5099   3.880   3.125   6.044 -0.5125  0.6869  0.2118
 1333SOL    MW4 5100   3.879   3.117   6.131 -0.0968  0.0275  0.1538
 1334SOL     OW 5101   5.301   3.924   3.572 -0.6114  0.1819 -0.3128
 1334SOL    HW2 5102   5.255   4.002   3.543 -3.6810 -0.7660  1.4277
 1334SOL    HW3 5103   5.239   3.853   3.556  2.1819 -2.0469 -2.1539
 1334SOL    MW4 5104   5.286   3.925   3.566 -0.6479 -0.2373 -0.3260
 1335SOL     OW 5105   2.356   0.527   1.950 -0.0717  0.0624 -0.4118
 1335SOL    HW2 5106   2.360   0.454   2.011 -0.9774 -0.6431 -1.1692
 1335SOL    HW3 5107   2.262   0.543   1.937  0.1053  1.3485 -0.2846
 1335SOL    MW4 5108   2.344   0.520   1.956 -0.1678  0.1390 -0.4950
 1336SOL     OW 5109   4.856   2.219   3.125 -0.1859  0.3664 -0.2397
 1336SOL    HW2 5110   4.877   2.166   3.048 -0.6926  1.8718 -1.4443
 1336SOL    HW3 5111   4.924   2.286   3.129  1.9353 -1.6745  2.7244
 1336SOL    MW4 5112   4.868   2.221   3.116  0.0271  0.2958 -0.0075
 1337SOL     OW 5113   4.272   6.193   6.378 -0.3177 -0.2018  0.1850
 1337SOL    HW2 5114   4.343   6.160   6.324 -0.4719  1.5227 -1.1745
 1337SOL    HW3 5115   4.260   6.127   6.446  0.9249 -1.7068 -0.9903
 1337SOL    MW4 5116   4.280   6.180   6.380 -0.1741 -0.1729 -0.1494
 1338SOL     OW 5117   6.280   0.488   4.435 -0.2210  0.2286  0.0419
 1338SOL    HW2 5118   6.200   0.458   4.390 -0.6346  1.4212 -0.0373
 1338SOL    HW3 5119   6.258   0.483   4.528  0.6710 -2.3434  0.2135
 1338SOL    MW4 5120   6.267   0.483   4.441 -0.1579  0.0466  0.0541
 1339SOL     OW 5121   4.573   6.040   0.328 -0.3386  0.6595  0.9484
 1339SOL    HW2 5122   4.629   6.039   0.250  1.4811 -0.7042  2.1837
 1339SOL    HW3 5123   4.490   6.075   0.297  0.6329  1.1272 -1.3729
 1339SOL    MW4 5124   4.570   6.045   0.314  0.0296  0.5413  0.8051
 1340SOL     OW 5125   2.137   2.869   5.714  0.4722  0.0856  0.0485
 1340SOL    HW2 5126   2.059   2.819   5.687 -0.1254  0.9384  0.1670
 1340SOL    HW3 5127   2.135   2.867   5.810  0.5001  0.2470  0.0531
 1340SOL    MW4 5128   2.126   2.862   5.723  0.3970  0.2194  0.0647
 1341SOL     OW 5129   0.054   0.565   0.650 -0.3724  0.0811  0.7462
 1341SOL    HW2 5130   0.015   0.556   0.563  0.4819 -1.5329  0.4846
 1341SOL    HW3 5131   0.040   0.480   0.691 -2.2936  1.3416  2.9015
 1341SOL    MW4 5132   0.047   0.552   0.644 -0.5132  0.0344  0.9960
 1342SOL     OW 5133   2.203   6.109   3.425 -0.1704 -0.7750  0.4154
 1342SOL    HW2 5134   2.234   6.111   3.515 -0.6152  0.2358  0.5615
 1342SOL    HW3 5135   2.111   6.135   3.431  0.2074  0.9297 -0.4852
 1342SOL    MW4 5136   2.195   6.113   3.438 -0.1792 -0.4167  0.3159
 1343SOL     OW 5137   5.268   2.790   2.799  0.3928  0.2846  0.1402
 1343SOL    HW2 5138   5.364   2.786   2.802  0.4547  0.2119 -1.1141
 1343SOL    HW3 5139   5.249   2.819   2.710 -0.7177  2.4940  1.0336
 1343SOL    MW4 5140   5.278   2.793   2.788  0.2544  0.5665  0.0926
 1344SOL     OW 5141   5.934   6.209   4.231 -0.2837  0.0202 -0.0934
 1344SOL    HW2 5142   5.940   6.118   4.201  1.0967  0.3908 -1.0250
 1344SOL    HW3 5143   6.007   6.253   4.188  1.1702  0.8708  2.9880
 1344SOL    MW4 5144   5.944   6.203   4.221  0.0902  0.1813  0.1903
 1345SOL     OW 5145   6.304   3.837   1.136  0.2245 -1.1459 -0.0667
 1345SOL    HW2 5146   6.266   3.857   1.222  0.2049 -0.0556 -0.3094
 1345SOL    HW3 5147   6.378   3.780   1.155 -0.0200 -1.2377  0.6384
 1345SOL    MW4 5148   6.309   3.832   1.150  0.1897 -1.0142 -0.0057
 1346SOL     OW 5149   4.294   3.639   4.871 -0.0647  0.5479 -0.5547
 1346SOL    HW2 5150   4.335   3.596   4.947 -1.4295 -1.8925 -1.1015
 1346SOL    HW3 5151   4.205   3.659   4.900 -0.4903 -0.0985 -1.3995
 1346SOL    MW4 5152   4.288   3.636   4.885 -0.3009  0.1406 -0.7383
 1347SOL     OW 5153   0.124   1.741   3.825  0.3218 -0.3496 -0.0985
 1347SOL    HW2 5154   0.184   1.813   3.804  1.0772 -0.8016  0.4636
 1347SOL    HW3 5155   0.173   1.662   3.803 -0.8974 -0.6957 -1.7310
 1347SOL    MW4 5156   0.139   1.740   3.820  0.2606 -0.4549 -0.2398
 1348SOL     OW 5157   5.721   2.311   0.295 -0.6772  0.1709 -0.5962
 1348SOL    HW2 5158   5.738   2.404   0.282 -0.9029  0.1594 -0.9948
 1348SOL    HW3 5159   5.630   2.306   0.326 -0.2607  0.1693  0.6921
 1348SOL    MW4 5160   5.711   2.322   0.297 -0.6520  0.1692 -0.4788
 1349SOL     OW 5161   5.313   2.808   6.138 -0.5288  0.0357  0.4207
 1349SOL    HW2 5162   5.325   2.901   6.155 -1.0215 -0.0973  1.5703
 1349SOL    HW3 5163   5.241   2.805   6.075 -0.6747  0.4294  0.5645
 1349SOL    MW4 5164   5.305   2.820   6.132 -0.6131  0.0701  0.5914
 1350SOL     OW 5165   1.537   2.061   5.092 -0.4305  0.3274  0.3027
 1350SOL    HW2 5166   1.535   2.118   5.169 -0.2724 -0.2676  0.7596
 1350SOL    HW3 5167   1.610   2.093   5.040 -1.8016  2.0445 -0.6422
 1350SOL    MW4 5168   1.546   2.073   5.096 -0.5905  0.4755  0.2383
 1351SOL     OW 5169   3.077  -0.020   4.664 -0.7884  0.0215  0.5100
 1351SOL    HW2 5170   3.043  -0.048   4.749 -1.6114 -1.0486 -0.1525
 1351SOL    HW3 5171   3.039  -0.082   4.601 -0.4029  0.9493 -0.6703
 1351SOL    MW4 5172   3.068  -0.032   4.667 -0.8462  0.0027  0.2669
 1352SOL     OW 5173   3.180   0.611   2.727  0.1841 -0.5745 -0.1146
 1352SOL    HW2 5174   3.118   0.540   2.709 -0.9127  0.0002  1.2308
 1352SOL    HW3 5175   3.127   0.681   2.764  1.3152  0.8146 -1.0189
 1352SOL    MW4 5176   3.165   0.611   2.730  0.1886 -0.3154 -0.0564
 1353SOL     OW 5177   3.383   5.334   0.321 -0.4401 -0.8062 -0.0845
 1353SOL    HW2 5178   3.394   5.315   0.228 -2.4265 -0.4353 -0.4269
 1353SOL    HW3 5179   3.296   5.301   0.343  0.3302 -1.6935  1.8770
 1353SOL    MW4 5180   3.373   5.327   0.312 -0.6005 -0.8744  0.1291
 1354SOL     OW 5181   2.828   4.546   3.164  0.0236 -0.5776 -0.9601
 1354SOL    HW2 5182   2.901   4.533   3.224 -0.0413 -0.9331 -0.9558
 1354SOL    HW3 5183   2.802   4.637   3.177 -1.0470 -1.0836  0.7587
 1354SOL    MW4 5184   2.834   4.557   3.173 -0.1262 -0.6913 -0.7328
 1355SOL     OW 5185   4.072   1.214   2.118 -0.0311  0.2155  0.4516
 1355SOL    HW2 5186   4.100   1.123   2.128 -1.1706 -0.2797 -0.5563
 1355SOL    HW3 5187   3.996   1.210   2.059 -1.7498  1.5433  2.4159
 1355SOL    MW4 5188   4.066   1.202   2.111 -0.4082  0.3253  0.5778
 1356SOL     OW 5189   1.252   0.555   3.866  0.0645 -0.1357  0.0786
 1356SOL    HW2 5190   1.327   0.557   3.926  0.5235  0.1249 -0.4852
 1356SOL    HW3 5191   1.258   0.470   3.823 -1.8339 -1.5070  2.2973
 1356SOL    MW4 5192   1.263   0.544   3.868 -0.1254 -0.2822  0.2969
 1357SOL     OW 5193   1.292   2.395   3.508 -0.2685 -0.2306  0.4028
 1357SOL    HW2 5194   1.230   2.462   3.480 -0.3066 -0.1723  0.6313
 1357SOL    HW3 5195   1.241   2.336   3.563  0.0194  0.1554  1.0923
 1357SOL    MW4 5196   1.277   2.396   3.512 -0.2355 -0.1720  0.5239
 1358SOL     OW 5197   0.784   0.779   4.006  0.0818  0.1482 -0.0727
 1358SOL    HW2 5198   0.798   0.720   4.080 -0.6019  0.7753  0.5757
 1358SOL    HW3 5199   0.757   0.722   3.934  1.5920 -0.5704 -0.1027
 1358SOL    MW4 5200   0.782   0.764   4.007  0.1909  0.1361  0.0089
 1359SOL     OW 5201   3.581   3.409   1.759  0.3168  0.2199  0.6208
 1359SOL    HW2 5202   3.566   3.377   1.848 -0.2599  0.0671  0.4796
 1359SOL    HW3 5203   3.493   3.418   1.722  0.5260  0.7986  0.2437
 1359SOL    MW4 5204   3.567   3.406   1.766  0.2683  0.2761  0.5524
 1360SOL     OW 5205   2.884   5.380   5.251 -0.4649  0.4399  0.1129
 1360SOL    HW2 5206   2.896   5.434   5.173 -0.1657  0.6459  0.2968
 1360SOL    HW3 5207   2.824   5.431   5.306 -0.3232  0.5038  0.2094
 1360SOL    MW4 5208   2.878   5.394   5.248 -0.4067  0.4755  0.1499
 1361SOL     OW 5209   6.364   5.143   5.883  0.1929 -0.1268 -0.3131
 1361SOL    HW2 5210   6.302   5.134   5.955  2.4365 -1.4246  1.5925
 1361SOL    HW3 5211   6.336   5.076   5.820  0.4261 -1.7297  1.1925
 1361SOL    MW4 5212   6.352   5.133   5.884  0.5197 -0.5095  0.1370
 1362SOL     OW 5213   3.673   5.022   3.484 -0.3945  0.4412  0.4978
 1362SOL    HW2 5214   3.633   4.983   3.561  0.1261  0.4665  0.7845
 1362SOL    HW3 5215   3.726   4.952   3.445 -2.2533 -0.2059 -1.0201
 1362SOL    MW4 5216   3.675   5.008   3.489 -0.5710  0.3591  0.3353
 1363SOL     OW 5217   5.944   1.281   1.428 -0.3463 -0.0403 -0.1231
 1363SOL    HW2 5218   5.920   1.201   1.381  1.0682  0.3014 -1.4991
 1363SOL    HW3 5219   5.915   1.352   1.371 -1.1948  0.4560  0.8876
 1363SOL    MW4 5220   5.937   1.280   1.414 -0.2716  0.0703 -0.1713
 1364SOL     OW 5221   0.853   6.254   5.174 -0.7073  0.0782 -0.3377
 1364SOL    HW2 5222   0.877   6.176   5.125  0.5406 -0.4494  1.0414
 1364SOL    HW3 5223   0.770   6.282   5.135 -1.0598 -1.7709 -1.0327
 1364SOL    MW4 5224   0.845   6.248   5.163 -0.5892 -0.2354 -0.2474
 1365SOL     OW 5225   5.554   2.830   2.736  0.0797 -0.1242  0.3831
 1365SOL    HW2 5226   5.641   2.818   2.699 -0.1282 -0.1548 -0.1016
 1365SOL    HW3 5227   5.570   2.846   2.829  0.6760  0.9285  0.1149
 1365SOL    MW4 5228   5.567   2.831   2.744  0.1310  0.0106  0.2838
 1366SOL     OW 5229   0.378   2.901   5.845 -0.6068 -0.6112 -0.1666
 1366SOL    HW2 5230   0.403   2.893   5.753 -0.6676  0.5988 -0.3026
 1366SOL    HW3 5231   0.352   2.993   5.855  1.7298 -0.0379  1.6122
 1366SOL    MW4 5232   0.378   2.912   5.834 -0.3065 -0.3759  0.0501
 1367SOL     OW 5233   0.036   2.388   1.785 -0.8556  0.9818  0.2954
 1367SOL    HW2 5234  -0.052   2.406   1.819 -0.9615  0.7616  0.1482
 1367SOL    HW3 5235   0.063   2.470   1.745 -0.6459  1.3045  1.0777
 1367SOL    MW4 5236   0.028   2.401   1.784 -0.8419  0.9953  0.3792
 1368SOL     OW 5237   1.496   2.760   4.911  0.1192 -0.2163  0.8259
 1368SOL    HW2 5238   1.476   2.834   4.968 -0.0470  0.7649 -0.4634
 1368SOL    HW3 5239   1.571   2.717   4.953  0.9388  1.3319  1.0311
 1368SOL    MW4 5240   1.503   2.764   4.924  0.2054  0.1174  0.6829
 1369SOL     OW 5241   5.925   6.340   2.206  0.8617 -0.0209  0.1323
 1369SOL    HW2 5242   6.008   6.383   2.225 -0.0743  1.1798  1.9283
 1369SOL    HW3 5243   5.937   6.300   2.120  3.1025  0.5409  0.1178
 1369SOL    MW4 5244   5.937   6.341   2.197  1.0338  0.2117  0.3674
 1370SOL     OW 5245   4.532   6.144   0.676  0.5679  0.1715  0.1109
 1370SOL    HW2 5246   4.464   6.163   0.740  0.0834 -0.8849 -0.0748
 1370SOL    HW3 5247   4.512   6.200   0.601  0.3614  0.4398  0.3685
 1370SOL    MW4 5248   4.521   6.154   0.674  0.4767  0.0675  0.1204
 1371SOL     OW 5249   0.291   2.042   4.263  0.0944 -0.1622 -0.0200
 1371SOL    HW2 5250   0.359   2.047   4.196  0.8791 -0.6771  0.7216
 1371SOL    HW3 5251   0.327   2.089   4.338 -1.1621  1.2539 -0.2416
 1371SOL    MW4 5252   0.304   2.049   4.264  0.0322 -0.0433  0.0486
 1372SOL     OW 5253   4.085   1.195   2.980 -0.0217 -0.1510 -0.3819
 1372SOL    HW2 5254   4.098   1.281   2.941  2.3665 -0.0194  0.5073
 1372SOL    HW3 5255   4.119   1.204   3.069 -0.9936 -1.6700  0.1808
 1372SOL    MW4 5256   4.092   1.207   2.986  0.1651 -0.3340 -0.1903
 1373SOL     OW 5257   4.895   5.331   5.846 -0.1273  0.2922  0.1273
 1373SOL    HW2 5258   4.807   5.322   5.809  0.1392 -0.0018 -0.4293
 1373SOL    HW3 5259   4.925   5.417   5.817  0.3719 -0.2389 -0.9660
 1373SOL    MW4 5260   4.887   5.341   5.838 -0.0263  0.1833 -0.0903
 1374SOL     OW 5261   1.690   4.318   0.488  0.3567  0.1035 -0.5785
 1374SOL    HW2 5262   1.656   4.371   0.560  0.4296  1.2699 -1.3850
 1374SOL    HW3 5263   1.652   4.231   0.503 -0.4708  0.5898  0.2755
 1374SOL    MW4 5264   1.680   4.314   0.500  0.2572  0.3215 -0.5723
 1375SOL     OW 5265   0.678   2.937   5.867 -0.2921  0.0670  0.7114
 1375SOL    HW2 5266   0.597   2.980   5.892 -1.9041 -2.4107  0.1933
 1375SOL    HW3 5267   0.712   2.899   5.948 -0.8820 -0.7334  0.6006
 1375SOL    MW4 5268   0.672   2.937   5.881 -0.5826 -0.3655  0.6284
 1376SOL     OW 5269   5.624   4.947   4.911  0.1220 -0.2220 -0.0236
 1376SOL    HW2 5270   5.573   4.970   4.989  0.3714  0.2359  0.0056
 1376SOL    HW3 5271   5.706   4.912   4.946  0.2669  0.0615 -0.0845
 1376SOL    MW4 5272   5.628   4.945   4.926  0.1740 -0.1242 -0.0277
 1377SOL     OW 5273   4.792   0.647   5.851 -0.1719 -0.1841 -0.4331
 1377SOL    HW2 5274   4.814   0.596   5.930  0.4531 -0.8953 -1.0425
 1377SOL    HW3 5275   4.738   0.719   5.883  0.3397 -0.2707  0.6938
 1377SOL    MW4 5276   4.788   0.649   5.866 -0.0220 -0.2894 -0.3648
 1378SOL     OW 5277   6.422   3.199   4.118  0.9332  0.3045  0.0336
 1378SOL    HW2 5278   6.438   3.193   4.024  0.4408  1.1091 -0.1152
 1378SOL    HW3 5279   6.493   3.149   4.159 -0.0290 -1.8924 -0.8395
 1378SOL    MW4 5280   6.433   3.192   4.111  0.7413  0.1208 -0.1012
 1379SOL     OW 5281   2.510   4.908   5.707 -0.3438  0.0293 -0.2936
 1379SOL    HW2 5282   2.437   4.928   5.648 -0.0618 -0.3697 -0.7810
 1379SOL    HW3 5283   2.467   4.885   5.790 -0.8469 -1.4102 -0.9188
 1379SOL    MW4 5284   2.494   4.907   5.710 -0.3730 -0.2133 -0.4404
 1380SOL     OW 5285   2.810   5.129   3.308 -0.8695 -0.6332 -0.8542
 1380SOL    HW2 5286   2.760   5.058   3.347 -1.2323  1.0380  1.9444
 1380SOL    HW3 5287   2.758   5.207   3.324 -0.2494  0.4311 -3.4086
 1380SOL    MW4 5288   2.796   5.130   3.315 -0.8356 -0.2723 -0.8220
 1381SOL     OW 5289   1.831   5.028   5.940 -0.6267 -0.4954 -0.6750
 1381SOL    HW2 5290   1.870   4.962   5.997  1.7103 -0.4326 -2.0773
 1381SOL    HW3 5291   1.905   5.068   5.895 -2.0800  2.0258 -1.0391
 1381SOL    MW4 5292   1.846   5.025   5.942 -0.5101 -0.1545 -0.9080
 1382SOL     OW 5293   2.878   1.470   2.298  0.2018  0.3822 -0.7323
 1382SOL    HW2 5294   2.953   1.455   2.355 -0.4868 -0.3574  0.0016
 1382SOL    HW3 5295   2.832   1.386   2.296 -0.7610  0.9003 -0.9304
 1382SOL    MW4 5296   2.882   1.457   2.305 -0.0161  0.3529 -0.6616
 1383SOL     OW 5297   5.590   5.730   3.640  0.1187 -0.2479  0.6984
 1383SOL    HW2 5298   5.502   5.761   3.660  0.9328  2.0775  1.0091
 1383SOL    HW3 5299   5.643   5.810   3.634  2.4239 -1.5995  1.5152
 1383SOL    MW4 5300   5.586   5.745   3.642  0.5303 -0.1194  0.8471
 1384SOL     OW 5301   0.476   0.120   1.679 -0.0992  0.0836  0.1338
 1384SOL    HW2 5302   0.476   0.026   1.694  1.0642 -0.1152 -0.9674
 1384SOL    HW3 5303   0.488   0.158   1.766 -2.3004 -0.6793  0.8587
 1384SOL    MW4 5304   0.477   0.113   1.692 -0.2361 -0.0432  0.0842
 1385SOL     OW 5305   3.007   0.371   4.255 -0.6370 -0.3024  0.4165
 1385SOL    HW2 5306   3.073   0.413   4.201 -1.1698 -1.7112 -1.4426
 1385SOL    HW3 5307   3.040   0.379   4.344  1.5957 -0.1946 -0.3637
 1385SOL    MW4 5308   3.020   0.378   4.259 -0.4127 -0.4740  0.0683
 1386SOL     OW 5309   1.327   3.367   1.560 -0.3861 -0.5821 -0.6389
 1386SOL    HW2 5310   1.273   3.291   1.541 -0.8314 -0.2842 -0.5986
 1386SOL    HW3 5311   1.267   3.428   1.604 -0.0137 -0.2479 -0.5874
 1386SOL    MW4 5312   1.312   3.365   1.563 -0.3957 -0.4987 -0.6268
 1387SOL     OW 5313   0.468   6.332   1.992 -0.0867  0.4525  0.2454
 1387SOL    HW2 5314   0.379   6.302   1.976  0.3850 -1.1734  0.4655
 1387SOL    HW3 5315   0.520   6.292   1.922  0.8688 -0.8880  1.6412
 1387SOL    MW4 5316   0.463   6.323   1.981  0.1016  0.0611  0.4586
 1388SOL     OW 5317   2.858   3.235   3.892 -0.4644 -0.1868  0.3947
 1388SOL    HW2 5318   2.775   3.198   3.860  0.4025 -0.2990 -1.8872
 1388SOL    HW3 5319   2.865   3.319   3.849  0.5449 -0.1036  0.6942
 1388SOL    MW4 5320   2.848   3.241   3.882 -0.2168 -0.1906  0.1332
 1389SOL     OW 5321   3.719   6.171   5.268 -0.0151 -0.4867 -0.7191
 1389SOL    HW2 5322   3.634   6.132   5.292  0.1849 -0.3601  0.2138
 1389SOL    HW3 5323   3.749   6.214   5.348  0.8987 -0.4700 -1.0662
 1389SOL    MW4 5324   3.712   6.171   5.282  0.1319 -0.4678 -0.6418
 1390SOL     OW 5325   4.922   0.728   3.876 -0.5060  0.4275  0.3743
 1390SOL    HW2 5326   4.982   0.785   3.924 -0.4624  0.1364  0.6742
 1390SOL    HW3 5327   4.891   0.666   3.942 -0.7183  0.2390  0.0994
 1390SOL    MW4 5328   4.926   0.727   3.891 -0.5283  0.3642  0.3776
 1391SOL     OW 5329   0.935   2.994   3.087 -0.0196  0.7617  0.2384
 1391SOL    HW2 5330   0.960   3.086   3.078 -2.5076  1.4056 -1.3224
 1391SOL    HW3 5331   0.840   2.997   3.101 -0.1974 -1.5610 -0.1180
 1391SOL    MW4 5332   0.926   3.007   3.088 -0.3713  0.5402 -0.0145
 1392SOL     OW 5333   5.706   1.228   2.153  0.3909 -0.3543 -0.2511
 1392SOL    HW2 5334   5.780   1.171   2.176  1.6800  2.4093  3.5777
 1392SOL    HW3 5335   5.747   1.313   2.133 -1.6344  0.6394 -0.4024
 1392SOL    MW4 5336   5.721   1.232   2.153  0.2938  0.1415  0.2341
 1393SOL     OW 5337   1.558   4.349   3.997 -0.3049 -0.1544 -0.0075
 1393SOL    HW2 5338   1.591   4.268   4.036  0.9756  0.6287  0.6071
 1393SOL    HW3 5339   1.500   4.320   3.927  2.8424 -1.7205 -2.2050
 1393SOL    MW4 5340   1.555   4.335   3.993  0.2793 -0.2577 -0.2163
 1394SOL     OW 5341   4.801   0.549   2.884  0.3433 -0.1567 -0.1586
 1394SOL    HW2 5342   4.708   0.553   2.863 -0.2109 -0.4225  2.0565
 1394SOL    HW3 5343   4.809   0.589   2.970  2.2731 -0.2826 -0.2207
 1394SOL    MW4 5344   4.790   0.554   2.892  0.5248 -0.2084  0.1254
 1395SOL     OW 5345   2.175   1.607   4.637  0.6360  0.0981  0.2863
 1395SOL    HW2 5346   2.134   1.520   4.631  0.9875 -0.0473 -0.0386
 1395SOL    HW3 5347   2.114   1.665   4.590  0.5772 -0.0364  0.1945
 1395SOL    MW4 5348   2.162   1.603   4.630  0.6746  0.0612  0.2313
 1396SOL     OW 5349   4.450   4.784   0.531 -0.7603  0.5796 -0.2311
 1396SOL    HW2 5350   4.361   4.759   0.505 -0.4852  0.1216 -0.7637
 1396SOL    HW3 5351   4.504   4.707   0.509 -0.1129  1.1249 -0.5956
 1396SOL    MW4 5352   4.446   4.770   0.525 -0.6386  0.5911 -0.3494
 1397SOL     OW 5353   5.315   5.843   0.251  0.4570  0.0038 -0.6536
 1397SOL    HW2 5354   5.289   5.934   0.259 -1.8498 -0.5368 -1.2101
 1397SOL    HW3 5355   5.406   5.846   0.222  1.2707  2.0619  1.7534
 1397SOL    MW4 5356   5.323   5.855   0.248  0.2600  0.2040 -0.4094
 1398SOL     OW 5357   4.136   6.154   3.020  0.2641  0.1382 -0.0733
 1398SOL    HW2 5358   4.197   6.226   3.038  0.1201  0.4254 -0.7233
 1398SOL    HW3 5359   4.069   6.193   2.965 -0.0795 -0.3794 -0.0218
 1398SOL    MW4 5360   4.135   6.169   3.015  0.1997  0.1078 -0.1523
 1399SOL     OW 5361   2.412   3.229   1.471 -0.1930 -0.2365 -0.2244
 1399SOL    HW2 5362   2.361   3.301   1.434 -0.9136  0.0217  1.1900
 1399SOL    HW3 5363   2.361   3.150   1.449 -0.4085 -0.1232 -0.1378
 1399SOL    MW4 5364   2.398   3.228   1.463 -0.3165 -0.1875 -0.0263
 1400SOL     OW 5365   1.062   5.055   1.870 -0.5596  0.3999 -0.5460
 1400SOL    HW2 5366   1.058   5.042   1.775 -3.0254  0.9195 -0.5760
 1400SOL    HW3 5367   0.993   4.999   1.905 -1.0857  1.7575  0.7167
 1400SOL    MW4 5368   1.052   5.046   1.862 -0.9543  0.6475 -0.3834
 1401SOL     OW 5369   2.581   6.040   4.670  0.4774 -0.2230  0.1695
 1401SOL    HW2 5370   2.521   6.112   4.652  0.4716 -0.2063  0.2574
 1401SOL    HW3 5371   2.525   5.962   4.670  0.4494 -0.2033  0.2863
 1401SOL    MW4 5372   2.566   6.039   4.668  0.4730 -0.2182  0.1965
 1402SOL     OW 5373   5.155   1.231   1.278  0.3112  0.0846  0.1199
 1402SOL    HW2 5374   5.071   1.272   1.260  0.6365  1.2119  1.0194
 1402SOL    HW3 5375   5.154   1.149   1.228 -2.2331 -1.0912  1.8963
 1402SOL    MW4 5376   5.144   1.226   1.269  0.0184  0.0782  0.4729
 1403SOL     OW 5377   3.612   5.164   4.990 -0.0717  0.0354  0.0537
 1403SOL    HW2 5378   3.684   5.108   4.961 -1.0239 -0.4571 -1.4686
 1403SOL    HW3 5379   3.613   5.238   4.930 -1.4750 -0.5196 -0.7220
 1403SOL    MW4 5380   3.621   5.166   4.978 -0.3825 -0.1028 -0.2495
 1404SOL     OW 5381   5.343   4.309   3.694  0.5803 -0.4240  0.4975
 1404SOL    HW2 5382   5.287   4.271   3.626 -0.7203 -0.4807  1.5385
 1404SOL    HW3 5383   5.425   4.260   3.688  1.1933  0.7743 -2.1639
 1404SOL    MW4 5384   5.346   4.298   3.684  0.4896 -0.2734  0.2837
 1405SOL     OW 5385   4.337   4.065   5.600 -0.1057  0.3324 -0.3310
 1405SOL    HW2 5386   4.260   4.007   5.599 -1.9216  2.5950 -1.0449
 1405SOL    HW3 5387   4.368   4.064   5.510 -0.6026  0.9875 -0.5205
 1405SOL    MW4 5388   4.331   4.057   5.588 -0.4108  0.7173 -0.4502
 1406SOL     OW 5389   0.362   4.843   2.924  0.1630 -0.1778  0.4367
 1406SOL    HW2 5390   0.324   4.929   2.942  1.3646  0.7572 -1.1941
 1406SOL    HW3 5391   0.457   4.858   2.927  0.4773 -0.6127 -2.9204
 1406SOL    MW4 5392   0.370   4.856   2.927  0.3630 -0.1118 -0.2214
 1407SOL     OW 5393   5.481   3.814   0.914 -0.2276 -0.1327 -0.0718
 1407SOL    HW2 5394   5.413   3.879   0.897 -1.9709 -2.3492 -2.4792
 1407SOL    HW3 5395   5.545   3.828   0.844  0.3746  0.1665  0.5288
 1407SOL    MW4 5396   5.481   3.824   0.902 -0.3781 -0.3856 -0.3101
 1408SOL     OW 5397   6.399   3.425   1.109 -0.3836 -0.1360 -0.0994
 1408SOL    HW2 5398   6.443   3.340   1.104 -1.3629 -0.6660  0.1554
 1408SOL    HW3 5399   6.470   3.487   1.127  0.3161 -0.9177 -0.1002
 1408SOL    MW4 5400   6.414   3.422   1.111 -0.4205 -0.3091 -0.0659
 1409SOL     OW 5401   5.058   2.209   2.098 -0.4065  0.0763  0.1755
 1409SOL    HW2 5402   5.115   2.230   2.025 -0.7537  0.9118  0.1343
 1409SOL    HW3 5403   5.049   2.291   2.147 -2.4700  0.3083 -0.4617
 1409SOL    MW4 5404   5.064   2.223   2.095 -0.7246  0.2171  0.0860
 1410SOL     OW 5405   2.306   3.831   3.414 -0.2277 -0.1715 -0.3018
 1410SOL    HW2 5406   2.401   3.823   3.417  0.0639  2.1184 -1.0301
 1410SOL    HW3 5407   2.273   3.742   3.422  1.9669 -1.0065  0.0077
 1410SOL    MW4 5408   2.314   3.818   3.416  0.1003  0.0205 -0.3571
 1411SOL     OW 5409   4.006   1.913   3.099 -0.3839  0.0389  0.6620
 1411SOL    HW2 5410   4.030   1.820   3.095 -1.9346 -0.3559 -0.3688
 1411SOL    HW3 5411   3.978   1.926   3.189  1.1782 -0.1120  1.2027
 1411SOL    MW4 5412   4.006   1.902   3.110 -0.3824 -0.0331  0.5974
 1412SOL     OW 5413   2.789   3.911   5.195 -0.6652  0.4710  0.1274
 1412SOL    HW2 5414   2.748   3.970   5.133 -0.3111  0.2331 -0.3450
 1412SOL    HW3 5415   2.717   3.860   5.232 -0.9572  1.1271  0.4667
 1412SOL    MW4 5416   2.774   3.912   5.191 -0.6570  0.5261  0.1098
 1413SOL     OW 5417   0.813   1.066   2.420 -0.2849 -0.6878 -0.5006
 1413SOL    HW2 5418   0.760   1.004   2.471 -0.0976  0.4163  1.1025
 1413SOL    HW3 5419   0.768   1.149   2.429 -0.4901 -0.5281 -2.5747
 1413SOL    MW4 5420   0.800   1.069   2.428 -0.2873 -0.5210 -0.5627
 1414SOL     OW 5421   5.484   3.329   0.667 -0.9585 -0.4739  0.0686
 1414SOL    HW2 5422   5.552   3.371   0.613 -0.8749 -1.4146 -0.5936
 1414SOL    HW3 5423   5.420   3.297   0.604 -0.2606 -2.6653  0.3889
 1414SOL    MW4 5424   5.485   3.330   0.652 -0.8554 -0.8871  0.0235
 1415SOL     OW 5425   1.819   1.564   2.582 -0.6525  0.3594  0.3021
 1415SOL    HW2 5426   1.885   1.628   2.556 -0.5944 -0.1171 -0.7346
 1415SOL    HW3 5427   1.828   1.493   2.520 -1.6720 -0.0326  0.5862
 1415SOL    MW4 5428   1.829   1.563   2.571 -0.7794  0.2448  0.2028
 1416SOL     OW 5429   2.996   2.479   2.436 -0.0341  0.1299  0.0887
 1416SOL    HW2 5430   3.089   2.499   2.423  0.3044 -1.8779 -1.0722
 1416SOL    HW3 5431   2.983   2.484   2.531  1.7067 -1.2530  0.4466
 1416SOL    MW4 5432   3.007   2.483   2.447  0.2402 -0.3174 -0.0172
 1417SOL     OW 5433   0.764   0.861   3.327 -0.1958 -0.5532 -0.1058
 1417SOL    HW2 5434   0.738   0.952   3.315 -2.8637 -1.2262  0.0038
 1417SOL    HW3 5435   0.722   0.834   3.409  1.4770 -1.6116  0.4622
 1417SOL    MW4 5436   0.755   0.870   3.336 -0.3271 -0.7816 -0.0164
 1418SOL     OW 5437   0.967   5.254   2.231  0.1695 -0.6440 -0.3778
 1418SOL    HW2 5438   0.949   5.162   2.250  1.4841 -0.7388  0.5688
 1418SOL    HW3 5439   1.059   5.266   2.256  0.7346  0.3543 -2.6673
 1418SOL    MW4 5440   0.977   5.244   2.237  0.4175 -0.5248 -0.5550
 1419SOL     OW 5441   3.034   2.536   1.392 -0.1465  0.1667 -0.4913
 1419SOL    HW2 5442   2.978   2.581   1.456 -1.0996  1.2563 -2.0120
 1419SOL    HW3 5443   2.972   2.503   1.326  0.5709 -2.9361  0.2365
 1419SOL    MW4 5444   3.018   2.538   1.392 -0.1776 -0.0990 -0.5959
 1420SOL     OW 5445   1.303   0.589   3.115  0.3028  0.3751  0.0962
 1420SOL    HW2 5446   1.261   0.675   3.109  0.2451  0.3278 -0.2344
 1420SOL    HW3 5447   1.286   0.560   3.204 -0.7585  0.1621 -0.1690
 1420SOL    MW4 5448   1.295   0.597   3.126  0.1552  0.3407  0.0176
 1421SOL     OW 5449   4.501   4.689   1.230  0.4335 -0.3935  0.4942
 1421SOL    HW2 5450   4.490   4.780   1.204 -1.3248 -0.7072 -0.0174
 1421SOL    HW3 5451   4.513   4.692   1.325 -1.6616  0.2749  0.7806
 1421SOL    MW4 5452   4.501   4.701   1.239 -0.0749 -0.3467  0.4645
 1422SOL     OW 5453   1.957   5.086   2.593 -0.0205 -0.1213  0.1406
 1422SOL    HW2 5454   1.994   5.167   2.560 -1.9808  0.6923 -0.2044
 1422SOL    HW3 5455   2.024   5.050   2.651  1.3528  1.1253 -0.6378
 1422SOL    MW4 5456   1.970   5.092   2.597 -0.0980  0.1505 -0.0076
 1423SOL     OW 5457   6.111   4.855   0.845  0.0429 -0.5650 -0.4025
 1423SOL    HW2 5458   6.030   4.805   0.840 -0.5993  0.5541 -1.7396
 1423SOL    HW3 5459   6.169   4.801   0.898 -1.8151 -1.0419  1.2524
 1423SOL    MW4 5460   6.108   4.841   0.851 -0.2870 -0.4803 -0.3606
 1424SOL     OW 5461   3.204   5.928   6.308  0.1215 -0.0059 -0.1515
 1424SOL    HW2 5462   3.250   6.001   6.350 -1.6706  1.4783 -0.6552
 1424SOL    HW3 5463   3.265   5.896   6.241  1.0124  0.8811  0.2139
 1424SOL    MW4 5464   3.218   5.933   6.305  0.0026  0.3069 -0.1698
 1425SOL     OW 5465   0.653   5.057   1.778  0.3786  0.1098 -0.8410
 1425SOL    HW2 5466   0.665   4.962   1.781  0.9222  0.1119 -2.3275
 1425SOL    HW3 5467   0.655   5.084   1.870 -0.0149 -1.3343 -0.3808
 1425SOL    MW4 5468   0.654   5.048   1.790  0.3984 -0.0804 -0.9764
 1426SOL     OW 5469   5.374   6.252   2.077  0.2678 -0.2229 -0.4855
 1426SOL    HW2 5470   5.418   6.250   2.163 -1.4996  0.7434  0.5013
 1426SOL    HW3 5471   5.302   6.189   2.086  0.9979 -1.2978 -1.8505
 1426SOL    MW4 5472   5.370   6.243   2.090  0.1309 -0.2372 -0.5354
 1427SOL     OW 5473   3.070   5.641   3.165 -0.4959 -0.5436 -0.1664
 1427SOL    HW2 5474   3.045   5.727   3.199  1.3237 -0.4345  1.0489
 1427SOL    HW3 5475   3.108   5.660   3.079 -0.3592 -0.1617 -0.0250
 1427SOL    MW4 5476   3.072   5.655   3.158 -0.2378 -0.4788  0.0126
 1428SOL     OW 5477   1.428   2.763   2.520 -0.5406 -0.1719 -0.3028
 1428SOL    HW2 5478   1.473   2.833   2.472  0.3052 -0.4438  0.0787
 1428SOL    HW3 5479   1.335   2.780   2.504 -0.4025  1.4793  0.3774
 1428SOL    MW4 5480   1.422   2.775   2.512 -0.4108  0.0101 -0.1628
 1429SOL     OW 5481   5.724   2.931   5.728  0.2905 -0.0513  0.1811
 1429SOL    HW2 5482   5.717   2.858   5.667 -0.8811  0.0167  0.2237
 1429SOL    HW3 5483   5.796   2.984   5.693 -0.2268 -0.1124 -1.0311
 1429SOL    MW4 5484   5.733   2.928   5.715  0.0676 -0.0504  0.0268
 1430SOL     OW 5485   3.426   5.804   0.271  0.3576 -0.3039 -0.0224
 1430SOL    HW2 5486   3.516   5.821   0.245  0.9869 -0.1090  2.1000
 1430SOL    HW3 5487   3.425   5.817   0.366 -2.1616  0.8810 -0.1077
 1430SOL    MW4 5488   3.438   5.808   0.280  0.1082 -0.1219  0.2464
 1431SOL     OW 5489   2.660   2.574   0.027  0.1861 -0.3879 -0.5744
 1431SOL    HW2 5490   2.721   2.501   0.021 -0.2564 -0.6599 -2.1774
 1431SOL    HW3 5491   2.715   2.652   0.027  0.5845 -0.6702 -0.5812
 1431SOL    MW4 5492   2.675   2.575   0.026  0.1803 -0.4610 -0.7868
 1432SOL     OW 5493   5.967   5.110   3.147  0.2484 -0.1093  0.1418
 1432SOL    HW2 5494   6.036   5.045   3.166 -0.2890 -1.0233 -0.8980
 1432SOL    HW3 5495   6.010   5.194   3.160  1.4411 -0.6620 -0.0173
 1432SOL    MW4 5496   5.982   5.112   3.151  0.3348 -0.3028 -0.0164
 1433SOL     OW 5497   1.875   5.775   3.552  0.2866 -0.6052 -0.0954
 1433SOL    HW2 5498   1.885   5.846   3.489  0.2004  0.8971  1.5102
 1433SOL    HW3 5499   1.963   5.762   3.589  0.1153 -0.6627  0.3050
 1433SOL    MW4 5500   1.888   5.783   3.549  0.2526 -0.4146  0.1693
 1434SOL     OW 5501   1.836   4.332   4.395  0.5347 -0.3357  0.4592
 1434SOL    HW2 5502   1.774   4.375   4.453  2.0328  0.8382  1.2526
 1434SOL    HW3 5503   1.836   4.386   4.316  0.6951 -0.2225  0.5368
 1434SOL    MW4 5504   1.827   4.345   4.392  0.7535 -0.1659  0.5741
 1435SOL     OW 5505   2.410   4.687   3.313 -0.2522  0.3281 -0.2013
 1435SOL    HW2 5506   2.495   4.643   3.325 -0.4469  0.4167  1.8005
 1435SOL    HW3 5507   2.347   4.616   3.315 -0.3823  0.4623  0.4997
 1435SOL    MW4 5508   2.413   4.672   3.315 -0.2950  0.3575  0.1553
 1436SOL     OW 5509   5.193   1.769   5.983 -0.2918 -0.1585 -0.2039
 1436SOL    HW2 5510   5.284   1.790   6.001 -0.3147  0.5785 -0.8939
 1436SOL    HW3 5511   5.143   1.840   6.022 -0.5457 -0.3381 -0.1945
 1436SOL    MW4 5512   5.198   1.781   5.990 -0.3283 -0.0849 -0.2937
 1437SOL     OW 5513   2.074   6.254   5.968 -0.1278 -0.1142  0.3485
 1437SOL    HW2 5514   2.013   6.201   5.917 -1.4933  1.1806  0.5623
 1437SOL    HW3 5515   2.091   6.331   5.913  1.5983 -0.5810  0.1583
 1437SOL    MW4 5516   2.068   6.257   5.954 -0.0802 -0.0050  0.3516
 1438SOL     OW 5517   6.091   5.063   3.824  0.3777 -0.3609 -0.5161
 1438SOL    HW2 5518   6.031   5.000   3.864  1.0820 -2.4575 -2.5280
 1438SOL    HW3 5519   6.102   5.131   3.891 -3.3004 -0.4094  0.3577
 1438SOL    MW4 5520   6.085   5.063   3.838 -0.0147 -0.6439 -0.6662
 1439SOL     OW 5521   2.869   3.765   6.098  0.2956  0.3849 -0.0998
 1439SOL    HW2 5522   2.922   3.791   6.023  1.4589  0.1739  0.6234
 1439SOL    HW3 5523   2.868   3.842   6.155  0.4925  0.1375  0.2471
 1439SOL    MW4 5524   2.876   3.778   6.096  0.4750  0.3244  0.0414
 1440SOL     OW 5525   0.935   1.582   4.062 -0.1628 -0.1714  0.3202
 1440SOL    HW2 5526   0.852   1.593   4.014 -0.0777  0.3973  0.2987
 1440SOL    HW3 5527   0.982   1.664   4.047 -0.4168  0.2950  1.9314
 1440SOL    MW4 5528   0.930   1.594   4.054 -0.1851 -0.0348  0.5299
 1441SOL     OW 5529   3.193   5.453   3.742  0.5755 -0.7019 -0.1970
 1441SOL    HW2 5530   3.246   5.374   3.751  1.3556 -0.1716 -0.0307
 1441SOL    HW3 5531   3.256   5.525   3.740  0.0466 -0.2066 -2.3939
 1441SOL    MW4 5532   3.208   5.452   3.743  0.6086 -0.5666 -0.4649
 1442SOL     OW 5533   1.225   1.635   2.508  0.0469  0.3673  0.4306
 1442SOL    HW2 5534   1.265   1.722   2.501 -0.1475  0.6254  2.1548
 1442SOL    HW3 5535   1.132   1.652   2.522 -0.0575 -0.1297  0.3646
 1442SOL    MW4 5536   1.218   1.649   2.509  0.0075  0.3358  0.6494
 1443SOL     OW 5537   0.523   2.610   4.475  0.1572 -0.5435 -0.3751
 1443SOL    HW2 5538   0.551   2.634   4.387 -0.1333 -2.5484 -1.0643
 1443SOL    HW3 5539   0.428   2.623   4.475  0.1258 -0.7771 -0.4301
 1443SOL    MW4 5540   0.514   2.615   4.463  0.1147 -0.8388 -0.4733
 1444SOL     OW 5541   5.790   3.199   0.844 -0.0737 -0.4301  0.1472
 1444SOL    HW2 5542   5.769   3.149   0.765 -1.1861  1.0863 -0.5565
 1444SOL    HW3 5543   5.742   3.153   0.914 -1.3886 -0.1573 -0.5508
 1444SOL    MW4 5544   5.781   3.186   0.843 -0.3940 -0.1940 -0.0377
 1445SOL     OW 5545   1.536   2.793   6.031  0.2167 -0.4289 -0.4319
 1445SOL    HW2 5546   1.487   2.816   5.951  0.8442  0.2459 -0.6332
 1445SOL    HW3 5547   1.626   2.815   6.011  0.4633 -0.7530  0.2886
 1445SOL    MW4 5548   1.541   2.799   6.018  0.3321 -0.3826 -0.3634
 1446SOL     OW 5549   5.646   6.269   5.200 -0.1586  0.9500  0.2507
 1446SOL    HW2 5550   5.694   6.196   5.239 -0.8794  0.3119 -0.0320
 1446SOL    HW3 5551   5.595   6.305   5.273  2.1681  2.8906  1.0428
 1446SOL    MW4 5552   5.646   6.264   5.215  0.0533  1.1219  0.3179
 1447SOL     OW 5553   4.094   5.296   2.451  0.4343 -0.4205 -0.2037
 1447SOL    HW2 5554   4.125   5.257   2.370  3.2850  2.2910 -0.6212
 1447SOL    HW3 5555   4.123   5.236   2.520  0.8342 -1.1691 -1.0157
 1447SOL    MW4 5556   4.102   5.283   2.450  0.8631 -0.1615 -0.3659
 1448SOL     OW 5557   4.036   2.416   2.239 -0.0442 -0.3106 -0.1944
 1448SOL    HW2 5558   4.091   2.467   2.299  1.0303  1.1015 -2.2571
 1448SOL    HW3 5559   4.044   2.326   2.269  1.4974  0.1831  0.9978
 1448SOL    MW4 5560   4.044   2.411   2.251  0.3010 -0.0592 -0.3093
 1449SOL     OW 5561   3.162   2.709   2.149 -0.1310  0.4002 -0.3129
 1449SOL    HW2 5562   3.160   2.664   2.233 -0.1932 -2.2663 -1.6397
 1449SOL    HW3 5563   3.221   2.783   2.163  0.2041 -0.2166  1.9427
 1449SOL    MW4 5564   3.169   2.713   2.162 -0.0950 -0.0330 -0.1904
 1450SOL     OW 5565   4.823   1.153   4.004 -0.5801  0.3841  0.2180
 1450SOL    HW2 5566   4.855   1.235   4.043 -1.0668  0.4542  0.4821
 1450SOL    HW3 5567   4.898   1.094   4.008 -0.0895  0.9498 -0.3820
 1450SOL    MW4 5568   4.837   1.156   4.010 -0.5796  0.4680  0.1737
 1451SOL     OW 5569   5.306   5.589   5.536 -0.2763 -0.0872  0.1928
 1451SOL    HW2 5570   5.386   5.600   5.588 -0.3555  0.2289  0.2485
 1451SOL    HW3 5571   5.245   5.655   5.571 -0.5455 -0.2941  0.1206
 1451SOL    MW4 5572   5.308   5.599   5.548 -0.3223 -0.0728  0.1907
 1452SOL     OW 5573   4.995   3.572   3.080  0.1962 -0.1116 -0.0216
 1452SOL    HW2 5574   4.950   3.488   3.066 -2.3373  1.4621 -2.4428
 1452SOL    HW3 5575   4.988   3.588   3.174 -1.1307 -1.6407  0.1874
 1452SOL    MW4 5576   4.988   3.563   3.090 -0.3132 -0.1057 -0.3135
 1453SOL     OW 5577   1.899   5.949   4.035 -0.4417 -0.6254 -0.1136
 1453SOL    HW2 5578   1.979   5.970   3.986 -0.2294 -1.5139 -0.1655
 1453SOL    HW3 5579   1.914   5.862   4.070 -0.2673  0.2846  2.2368
 1453SOL    MW4 5580   1.911   5.941   4.033 -0.3907 -0.6226  0.1897
 1454SOL     OW 5581   3.400   4.882   0.435  0.0253  0.1838 -0.8957
 1454SOL    HW2 5582   3.413   4.801   0.484  1.5012 -0.0586 -1.6255
 1454SOL    HW3 5583   3.359   4.855   0.353 -0.5510  0.3359 -0.6646
 1454SOL    MW4 5584   3.396   4.868   0.431  0.1440  0.1719 -0.9615
 1455SOL     OW 5585   6.305   3.673   2.847 -0.5122  0.0257  0.4020
 1455SOL    HW2 5586   6.239   3.715   2.901 -1.0864  0.9383 -0.9737
 1455SOL    HW3 5587   6.256   3.613   2.791 -0.1716  0.5790 -0.5075
 1455SOL    MW4 5588   6.290   3.670   2.847 -0.5430  0.2191  0.1005
 1456SOL     OW 5589   3.265   3.775   5.038  0.5250  0.2252 -0.4326
 1456SOL    HW2 5590   3.248   3.686   5.005 -0.3879  0.3175 -0.2464
 1456SOL    HW3 5591   3.215   3.832   4.979 -0.0372  0.4949  0.2926
 1456SOL    MW4 5592   3.256   3.771   5.026  0.3304  0.2730 -0.3123
 1457SOL     OW 5593   4.414   3.989   4.605  0.1897  0.2981 -0.1995
 1457SOL    HW2 5594   4.377   4.070   4.569  1.2185 -0.6583 -3.8319
 1457SOL    HW3 5595   4.508   4.003   4.602  0.3476 -0.5095  0.6061
 1457SOL    MW4 5596   4.421   4.002   4.600  0.3463  0.0653 -0.5725
 1458SOL     OW 5597   4.512   5.408   2.573  0.3508  0.3854 -0.3778
 1458SOL    HW2 5598   4.504   5.497   2.538  0.0207  1.2165  1.6327
 1458SOL    HW3 5599   4.562   5.420   2.655 -1.1079 -1.0283  0.7722
 1458SOL    MW4 5600   4.518   5.421   2.579  0.1148  0.3085  0.0392
 1459SOL     OW 5601   4.538   5.336   4.778  0.0857  0.2904 -0.1712
 1459SOL    HW2 5602   4.569   5.312   4.866  0.0725  1.0219  0.0433
 1459SOL    HW3 5603   4.563   5.262   4.723  2.2646  0.8403 -0.0206
 1459SOL    MW4 5604   4.545   5.323   4.783  0.3715  0.4595 -0.1230
 1460SOL     OW 5605   1.003   1.630   0.008  0.3437 -0.5166  0.4910
 1460SOL    HW2 5606   0.975   1.667   0.092  0.4299 -0.1600  0.3657
 1460SOL    HW3 5607   0.935   1.566  -0.014 -0.5377  0.5399  0.0494
 1460SOL    MW4 5608   0.991   1.626   0.016  0.2388 -0.3302  0.4162
 1461SOL     OW 5609   3.991   1.437   4.726  0.9721  0.5605 -0.2212
 1461SOL    HW2 5610   4.074   1.484   4.718  0.8898  0.4993 -1.6799
 1461SOL    HW3 5611   3.941   1.463   4.649  0.2596 -0.6138 -0.1806
 1461SOL    MW4 5612   3.996   1.446   4.715  0.8672  0.3975 -0.4083
 1462SOL     OW 5613   4.751   2.007   4.552  0.2559  0.5759  0.1732
 1462SOL    HW2 5614   4.763   1.986   4.460  1.8773 -0.3420  0.5542
 1462SOL    HW3 5615   4.831   2.053   4.577 -0.1319  0.7520  1.1460
 1462SOL    MW4 5616   4.763   2.010   4.543  0.4187  0.4780  0.3518
 1463SOL     OW 5617   3.892   1.147   3.972  0.3374 -0.2829 -0.1309
 1463SOL    HW2 5618   3.939   1.222   4.008  2.0555 -1.1281 -0.5064
 1463SOL    HW3 5619   3.960   1.081   3.960 -0.4735 -0.7037 -3.0779
 1463SOL    MW4 5620   3.907   1.149   3.975  0.4571 -0.4500 -0.5692
 1464SOL     OW 5621   6.090   2.177   1.366  0.3818 -0.0937 -0.1214
 1464SOL    HW2 5622   6.119   2.257   1.411  1.0092 -0.3853  0.0068
 1464SOL    HW3 5623   6.152   2.110   1.395 -0.5431 -0.7851  0.2925
 1464SOL    MW4 5624   6.102   2.179   1.376  0.3426 -0.2234 -0.0498
 1465SOL     OW 5625   0.728   3.045   2.784  0.2868 -0.2746 -0.2302
 1465SOL    HW2 5626   0.719   3.125   2.732  1.5558  0.5571  0.7694
 1465SOL    HW3 5627   0.818   3.017   2.769 -0.2633 -1.7888 -0.9041
 1465SOL    MW4 5628   0.739   3.051   2.775  0.3817 -0.3646 -0.1872
 1466SOL     OW 5629   0.112   0.401   6.385  0.0767  0.1783  0.3902
 1466SOL    HW2 5630   0.145   0.312   6.400 -0.6560 -0.3407 -0.8583
 1466SOL    HW3 5631   0.021   0.397   6.415 -0.2700  0.1892 -0.6309
 1466SOL    MW4 5632   0.104   0.389   6.391 -0.0657  0.1113  0.0907
 1467SOL     OW 5633   2.270   5.782   3.425 -0.1574  0.6429  0.7004
 1467SOL    HW2 5634   2.235   5.838   3.357  0.6327 -0.2730 -0.5018
 1467SOL    HW3 5635   2.349   5.827   3.456  0.6653  0.0759 -0.4969
 1467SOL    MW4 5636   2.276   5.795   3.420  0.0554  0.4472  0.3838
 1468SOL     OW 5637   6.148   3.495   0.794  0.6792  0.3542  0.3077
 1468SOL    HW2 5638   6.225   3.438   0.802  0.4195 -0.3099 -1.3517
 1468SOL    HW3 5639   6.145   3.544   0.876  0.8827 -2.0736  1.8550
 1468SOL    MW4 5640   6.158   3.494   0.806  0.6718 -0.0538  0.2929
 1469SOL     OW 5641   4.627   2.700   0.906 -0.1535  0.2123 -0.0759
 1469SOL    HW2 5642   4.710   2.705   0.858  0.5071 -1.8639  0.7340
 1469SOL    HW3 5643   4.654   2.694   0.998 -1.2420  0.2055  0.2501
 1469SOL    MW4 5644   4.642   2.700   0.912 -0.2100 -0.0625  0.0740
 1470SOL     OW 5645   4.208   5.246   3.950 -0.0292 -0.1852 -0.2883
 1470SOL    HW2 5646   4.144   5.271   3.883  2.2558  1.0986 -2.1637
 1470SOL    HW3 5647   4.273   5.317   3.948  1.2452 -1.2161  1.7968
 1470SOL    MW4 5648   4.208   5.259   3.941  0.4404 -0.1518 -0.2606
 1471SOL     OW 5649   4.593   5.850   2.223 -0.3041  0.6194 -0.0228
 1471SOL    HW2 5650   4.514   5.897   2.250 -0.0708  0.1139  1.7280
 1471SOL    HW3 5651   4.665   5.897   2.266  0.2496  0.5207 -0.8246
 1471SOL    MW4 5652   4.592   5.862   2.232 -0.2002  0.5397  0.1024
 1472SOL     OW 5653   0.129   2.841   0.821  0.2327 -0.2603 -0.2360
 1472SOL    HW2 5654   0.186   2.871   0.891 -0.0311 -4.2922  2.0444
 1472SOL    HW3 5655   0.047   2.889   0.834  1.8928  3.1768 -1.5069
 1472SOL    MW4 5656   0.126   2.851   0.832  0.4169 -0.3388 -0.1028
 1473SOL     OW 5657   2.227   0.728   5.599  0.6088  0.3661  0.0882
 1473SOL    HW2 5658   2.282   0.797   5.561  1.1485  0.1800  0.5095
 1473SOL    HW3 5659   2.155   0.717   5.537 -0.4449  2.5263  0.8421
 1473SOL    MW4 5660   2.225   0.736   5.586  0.5410  0.6266  0.2433
 1474SOL     OW 5661   2.075   2.145   3.085  0.8641 -0.2208 -0.5041
 1474SOL    HW2 5662   2.034   2.086   3.148 -0.6004  0.1629 -1.0518
 1474SOL    HW3 5663   2.008   2.211   3.068  1.0514 -0.5483 -2.7722
 1474SOL    MW4 5664   2.061   2.146   3.091  0.6956 -0.2134 -0.8756
 1475SOL     OW 5665   5.866   5.360   4.187  0.3855 -0.2830 -0.4805
 1475SOL    HW2 5666   5.842   5.449   4.164 -0.4361 -0.2385  0.4791
 1475SOL    HW3 5667   5.791   5.307   4.161 -0.4363 -0.2733  1.6403
 1475SOL    MW4 5668   5.853   5.364   4.181  0.1687 -0.2758 -0.0741
 1476SOL     OW 5669   5.645   3.828   0.463  0.1886 -0.4829 -0.1185
 1476SOL    HW2 5670   5.724   3.774   0.456  0.5917  0.2478 -2.0183
 1476SOL    HW3 5671   5.637   3.846   0.556  1.2418 -2.0430  0.3330
 1476SOL    MW4 5672   5.655   3.823   0.474  0.3807 -0.5923 -0.3096
 1477SOL     OW 5673   4.160   0.578   1.386  0.6593 -0.4477  0.0135
 1477SOL    HW2 5674   4.192   0.493   1.417  1.7020 -0.1324 -0.1768
 1477SOL    HW3 5675   4.096   0.556   1.318  2.8573 -1.1097 -1.9779
 1477SOL    MW4 5676   4.156   0.564   1.381  1.0869 -0.4934 -0.2744
 1478SOL     OW 5677   5.244   3.345   5.132  0.3903  0.0208  0.2530
 1478SOL    HW2 5678   5.301   3.366   5.206  0.9744  0.5057 -0.3223
 1478SOL    HW3 5679   5.157   3.377   5.158  0.5400 -0.0298  0.8204
 1478SOL    MW4 5680   5.240   3.352   5.145  0.4871  0.0781  0.2520
 1479SOL     OW 5681   0.952   2.913   1.358 -0.0123 -0.0240  0.1167
 1479SOL    HW2 5682   0.882   2.976   1.343 -0.1988 -0.0169  0.9583
 1479SOL    HW3 5683   1.006   2.917   1.279  0.1799  1.4332  0.3019
 1479SOL    MW4 5684   0.950   2.922   1.345 -0.0116  0.1692  0.2522
 1480SOL     OW 5685   0.381   5.781   0.978  0.1937  0.0491  0.5875
 1480SOL    HW2 5686   0.333   5.837   1.040  0.9471  2.2473 -0.7136
 1480SOL    HW3 5687   0.473   5.796   0.999  0.4272  0.0623 -0.4000
 1480SOL    MW4 5688   0.387   5.791   0.989  0.3239  0.3409  0.2855
 1481SOL     OW 5689   1.112   5.765   4.266 -0.1405 -0.6453 -0.6339
 1481SOL    HW2 5690   1.021   5.759   4.239 -1.0717  2.9174  1.2019
 1481SOL    HW3 5691   1.153   5.822   4.202  0.4415 -1.0070 -0.5972
 1481SOL    MW4 5692   1.106   5.772   4.254 -0.1866 -0.2230 -0.3869
 1482SOL     OW 5693   0.091   3.748   6.409 -0.0045 -0.3433  0.2842
 1482SOL    HW2 5694   0.122   3.691   6.339 -2.2108 -2.1154  0.6507
 1482SOL    HW3 5695   0.022   3.698   6.452  0.1042  1.3844  2.6533
 1482SOL    MW4 5696   0.086   3.734   6.406 -0.2812 -0.3492  0.6452
 1483SOL     OW 5697   3.326   2.066   5.537  0.0025 -0.3588 -0.0459
 1483SOL    HW2 5698   3.393   2.132   5.554 -0.3983 -0.3095  1.5294
 1483SOL    HW3 5699   3.375   1.985   5.523  0.4306 -0.1140  0.0247
 1483SOL    MW4 5700   3.341   2.064   5.538  0.0061 -0.3200  0.1713
 1484SOL     OW 5701   1.956   2.599   0.348  0.4253 -0.4494  0.4737
 1484SOL    HW2 5702   1.979   2.555   0.429  0.9377 -0.5218  0.2933
 1484SOL    HW3 5703   1.932   2.529   0.288 -0.8026 -0.3456  0.8146
 1484SOL    MW4 5704   1.956   2.584   0.351  0.3309 -0.4452  0.4948
 1485SOL     OW 5705   1.385   3.449   3.377  0.2567  0.4703 -0.4372
 1485SOL    HW2 5706   1.369   3.356   3.392  0.5155  0.3948 -0.6372
 1485SOL    HW3 5707   1.318   3.493   3.430  1.7393  0.2341  1.7906
 1485SOL    MW4 5708   1.374   3.443   3.386  0.4865  0.4292 -0.1697
 1486SOL     OW 5709   0.976   1.378   2.238  0.2053  0.0878  0.4926
 1486SOL    HW2 5710   0.999   1.469   2.218  1.0735 -0.1414  0.4066
 1486SOL    HW3 5711   1.041   1.351   2.302 -0.0160 -0.4969  0.4771
 1486SOL    MW4 5712   0.988   1.387   2.244  0.2906 -0.0196  0.4792
 1487SOL     OW 5713   4.767   3.690   2.965 -0.2274 -0.1009  0.5010
 1487SOL    HW2 5714   4.835   3.662   3.026 -0.6831  0.3181  1.2196
 1487SOL    HW3 5715   4.787   3.644   2.883  0.7461 -0.2030  0.7825
 1487SOL    MW4 5716   4.779   3.680   2.962 -0.1591 -0.0590  0.6329
 1488SOL     OW 5717   0.331   1.180   4.251 -0.2862 -0.0838 -0.0415
 1488SOL    HW2 5718   0.398   1.115   4.275  0.4308  0.4831 -0.4892
 1488SOL    HW3 5719   0.251   1.128   4.238  0.5990 -1.0703 -1.8019
 1488SOL    MW4 5720   0.329   1.164   4.253 -0.0748 -0.1392 -0.3328
 1489SOL     OW 5721   2.888   2.129   3.678  0.3635 -0.1907  0.2907
 1489SOL    HW2 5722   2.967   2.093   3.716  0.5645 -0.7984 -0.6729
 1489SOL    HW3 5723   2.819   2.108   3.741  1.2460  2.3009  2.2685
 1489SOL    MW4 5724   2.889   2.121   3.692  0.5065  0.0578  0.4245
 1490SOL     OW 5725   0.617   2.546   0.183 -0.0238  0.1278 -0.0927
 1490SOL    HW2 5726   0.617   2.613   0.252 -1.6555 -0.3370  0.4162
 1490SOL    HW3 5727   0.552   2.482   0.213  0.0303 -0.6422 -1.5487
 1490SOL    MW4 5728   0.608   2.547   0.196 -0.2320 -0.0351 -0.2177
 1491SOL     OW 5729   4.604   0.628   5.401 -0.8113 -0.2634 -0.4098
 1491SOL    HW2 5730   4.654   0.580   5.467 -1.1421  0.7814  0.6265
 1491SOL    HW3 5731   4.618   0.720   5.423 -3.6947  0.0856  0.3382
 1491SOL    MW4 5732   4.613   0.634   5.412 -1.2354 -0.0795 -0.1744
 1492SOL     OW 5733   0.692   4.516   5.063 -0.1375  0.2501  0.5899
 1492SOL    HW2 5734   0.626   4.507   4.995 -0.0725 -2.0801  0.7240
 1492SOL    HW3 5735   0.644   4.506   5.145  0.0817  0.7751  0.7834
 1492SOL    MW4 5736   0.677   4.513   5.065 -0.1000  0.0119  0.6331
 1493SOL     OW 5737   3.833   1.377   5.564 -0.3459 -0.0314  0.0145
 1493SOL    HW2 5738   3.799   1.287   5.564  1.2352 -0.6643 -0.0012
 1493SOL    HW3 5739   3.906   1.375   5.501 -0.3121  1.2843 -0.0157
 1493SOL    MW4 5740   3.838   1.365   5.555 -0.1328  0.0587  0.0084
 1494SOL     OW 5741   2.459   4.913   1.219 -0.1801  0.1340  0.2403
 1494SOL    HW2 5742   2.461   4.830   1.173  0.9744 -0.4668  1.2903
 1494SOL    HW3 5743   2.552   4.935   1.232 -0.3928 -0.1627  2.9242
 1494SOL    MW4 5744   2.472   4.905   1.215 -0.0559  0.0156  0.7330
 1495SOL     OW 5745   3.316  -0.028   1.722  0.1406  0.2076 -0.4674
 1495SOL    HW2 5746   3.280   0.052   1.762  1.1290  0.9562 -1.0310
 1495SOL    HW3 5747   3.369  -0.068   1.791 -0.0637  0.2331 -0.2959
 1495SOL    MW4 5748   3.318  -0.023   1.737  0.2440  0.3097 -0.5191
 1496SOL     OW 5749   3.127   4.787   1.759  0.0222 -0.4838  0.8016
 1496SOL    HW2 5750   3.098   4.815   1.846  1.0515  0.5469  0.8307
 1496SOL    HW3 5751   3.175   4.862   1.725 -1.4184 -0.3767 -1.1785
 1496SOL    MW4 5752   3.129   4.800   1.766 -0.0321 -0.3337  0.5442
 1497SOL     OW 5753   2.268   3.635   1.764  0.3779 -0.3264  0.0385
 1497SOL    HW2 5754   2.183   3.634   1.720 -1.2645  0.4319  2.9265
 1497SOL    HW3 5755   2.318   3.704   1.720 -1.2612  0.5789 -0.4565
 1497SOL    MW4 5756   2.264   3.644   1.752 -0.0550 -0.1069  0.3542
 1498SOL     OW 5757   6.167   4.193   1.896  0.7009  0.3133  0.1004
 1498SOL    HW2 5758   6.079   4.228   1.911  0.3343 -0.3615 -0.4487
 1498SOL    HW3 5759   6.201   4.244   1.822  0.6473  0.3500  0.1012
 1498SOL    MW4 5760   6.160   4.204   1.888  0.6455  0.2291  0.0281
 1499SOL     OW 5761   5.393   1.635   4.124 -0.3788  0.2790 -0.6029
 1499SOL    HW2 5762   5.381   1.540   4.126 -1.1036  0.3677  0.8049
 1499SOL    HW3 5763   5.442   1.654   4.205  0.1317  1.0643 -1.0803
 1499SOL    MW4 5764   5.398   1.625   4.135 -0.4071  0.3943 -0.4801
 1500SOL     OW 5765   4.840   2.052   1.970  0.3357  0.3722 -0.5058
 1500SOL    HW2 5766   4.829   1.978   2.029  0.9578  0.4310 -0.3034
 1500SOL    HW3 5767   4.915   2.100   2.006 -0.1520  1.1893 -0.5391
 1500SOL    MW4 5768   4.849   2.049   1.983  0.3534  0.4878 -0.4835
 1501SOL     OW 5769   1.164   3.926   5.377 -0.0862  0.2585 -0.6936
 1501SOL    HW2 5770   1.115   3.844   5.364  0.8982 -0.4445 -0.1380
 1501SOL    HW3 5771   1.210   3.941   5.295  1.2561 -0.8227 -0.1799
 1501SOL    MW4 5772   1.163   3.917   5.365  0.2208  0.0231 -0.5525
 1502SOL     OW 5773   4.675   3.122   6.259 -0.0832 -0.0354 -0.0372
 1502SOL    HW2 5774   4.595   3.071   6.253 -0.4304  0.6489 -1.8574
 1502SOL    HW3 5775   4.655   3.191   6.323 -0.0971 -1.2580  1.3227
 1502SOL    MW4 5776   4.662   3.125   6.267 -0.1309 -0.1064 -0.0979
 1503SOL     OW 5777   0.698   2.585   3.171  0.1939  0.1685 -0.3520
 1503SOL    HW2 5778   0.665   2.531   3.243 -1.1240 -0.2374 -1.2284
 1503SOL    HW3 5779   0.743   2.658   3.214 -0.4413 -0.1391  0.8746
 1503SOL    MW4 5780   0.700   2.587   3.186 -0.0638  0.0744 -0.3058
 1504SOL     OW 5781   2.799   1.582   5.939 -0.2703  0.2277  0.0475
 1504SOL    HW2 5782   2.738   1.652   5.913  0.2873  0.5672 -0.3743
 1504SOL    HW3 5783   2.874   1.593   5.881  0.8022  0.6836  1.4524
 1504SOL    MW4 5784   2.801   1.593   5.928 -0.0552  0.3327  0.1772
 1505SOL     OW 5785   2.986   5.474   6.197 -0.1895 -0.0920 -0.1263
 1505SOL    HW2 5786   3.001   5.555   6.246  0.1242  0.6423 -1.3695
 1505SOL    HW3 5787   3.012   5.404   6.257  1.6666  0.8378  0.2226
 1505SOL    MW4 5788   2.991   5.475   6.211  0.0968  0.1276 -0.2443
 1506SOL     OW 5789   0.956   5.253   5.590 -0.4821 -0.6117  0.1889
 1506SOL    HW2 5790   0.942   5.159   5.577 -1.4707 -0.6557  1.2822
 1506SOL    HW3 5791   1.045   5.260   5.625 -1.0361 -1.3686  1.8768
 1506SOL    MW4 5792   0.966   5.242   5.593 -0.6856 -0.7174  0.5558
 1507SOL     OW 5793   1.810   5.065   5.078 -0.2850 -0.2518  0.7418
 1507SOL    HW2 5794   1.801   5.039   4.986 -1.5635  0.0846  0.7493
 1507SOL    HW3 5795   1.787   4.987   5.128  2.1515 -0.9826  0.8211
 1507SOL    MW4 5796   1.806   5.052   5.073 -0.1322 -0.3038  0.7533
 1508SOL     OW 5797   1.126   1.021   5.301 -0.1414  0.3363 -0.0943
 1508SOL    HW2 5798   1.208   0.988   5.339 -1.2069 -2.3804  0.1233
 1508SOL    HW3 5799   1.147   1.109   5.271  2.6076  0.0771  0.7593
 1508SOL    MW4 5800   1.140   1.028   5.302  0.0807 -0.0563  0.0470
 1509SOL     OW 5801   6.208   2.899   5.386 -0.1286 -0.2800  0.0630
 1509SOL    HW2 5802   6.202   2.805   5.366 -0.1840 -0.2116 -0.2426
 1509SOL    HW3 5803   6.224   2.902   5.481 -0.8061 -0.5779  0.1906
 1509SOL    MW4 5804   6.210   2.887   5.396 -0.2253 -0.3103  0.0395
 1510SOL     OW 5805   3.682   4.050   3.141  0.2433 -0.9285  0.4937
 1510SOL    HW2 5806   3.632   4.120   3.183 -0.3501 -1.5828  0.8836
 1510SOL    HW3 5807   3.735   4.013   3.211  1.8431  0.1970 -0.0371
 1510SOL    MW4 5808   3.683   4.055   3.156  0.3761 -0.8663  0.4751
 1511SOL     OW 5809   3.732   5.090   1.886  0.1337  0.4133 -0.2356
 1511SOL    HW2 5810   3.733   4.996   1.868 -2.3162  0.4989 -1.2306
 1511SOL    HW3 5811   3.743   5.131   1.801  1.8240  1.0895  0.2692
 1511SOL    MW4 5812   3.733   5.083   1.873  0.0335  0.5138 -0.3003
 1512SOL     OW 5813   0.989   5.970   0.447 -0.2755  0.0951 -0.1027
 1512SOL    HW2 5814   0.909   5.917   0.445  0.4337 -0.9865 -1.2941
 1512SOL    HW3 5815   0.960   6.058   0.422 -0.8141 -0.7310 -2.6160
 1512SOL    MW4 5816   0.974   5.975   0.444 -0.2530 -0.1566 -0.5915
 1513SOL     OW 5817   0.109   0.082   5.031  0.5177 -1.0433 -0.1655
 1513SOL    HW2 5818   0.093   0.144   4.960  1.0727 -1.5118 -0.7047
 1513SOL    HW3 5819   0.144   0.135   5.103 -0.0977 -0.5612 -0.2157
 1513SOL    MW4 5820   0.111   0.097   5.031  0.5097 -1.0415 -0.2433
 1514SOL     OW 5821   3.307   2.914   2.267  0.0503  0.0099  0.0579
 1514SOL    HW2 5822   3.262   2.884   2.346  1.8713 -2.3411  0.2945
 1514SOL    HW3 5823   3.394   2.940   2.297 -0.0115  1.4064 -0.8654
 1514SOL    MW4 5824   3.313   2.913   2.281  0.2824 -0.1161 -0.0327
 1515SOL     OW 5825   3.630   4.446   0.336 -0.7498 -0.6945 -0.1989
 1515SOL    HW2 5826   3.562   4.506   0.366 -0.3647 -0.4675  0.2296
 1515SOL    HW3 5827   3.641   4.468   0.243  0.0586  0.5784  0.1666
 1515SOL    MW4 5828   3.623   4.457   0.327 -0.5923 -0.4966 -0.0941
 1516SOL     OW 5829   2.523   3.324   4.984 -0.5281  0.1560  0.2751
 1516SOL    HW2 5830   2.503   3.356   4.896 -0.0130 -0.2008  0.0279
 1516SOL    HW3 5831   2.599   3.267   4.973  0.9284  1.7846  1.2538
 1516SOL    MW4 5832   2.530   3.321   4.971 -0.2680  0.3238  0.3716
 1517SOL     OW 5833   2.614   2.956   6.215 -0.7469 -0.3784 -0.1874
 1517SOL    HW2 5834   2.617   2.906   6.296  0.5112 -1.5654 -0.9490
 1517SOL    HW3 5835   2.597   3.046   6.244  0.2887 -0.6630  1.4435
 1517SOL    MW4 5836   2.612   2.962   6.230 -0.4443 -0.5726 -0.0727
 1518SOL     OW 5837   4.470   1.731   1.574 -0.5199 -0.1480 -0.1037
 1518SOL    HW2 5838   4.558   1.744   1.609 -0.2816  1.1271 -1.0920
 1518SOL    HW3 5839   4.468   1.783   1.494 -0.8761 -3.2533 -2.3071
 1518SOL    MW4 5840   4.482   1.739   1.568 -0.5355 -0.3894 -0.5248
 1519SOL     OW 5841   2.731   0.179   0.512 -0.2081 -0.0421 -0.0146
 1519SOL    HW2 5842   2.729   0.153   0.420 -1.6505 -0.8349  0.2081
 1519SOL    HW3 5843   2.640   0.167   0.542  0.1559  0.5631  1.4114
 1519SOL    MW4 5844   2.718   0.174   0.504 -0.3503 -0.0669  0.2029
 1520SOL     OW 5845   1.462   5.754   2.939  0.2872  0.6103 -0.2007
 1520SOL    HW2 5846   1.376   5.750   2.898 -0.5746 -2.0938  1.5550
 1520SOL    HW3 5847   1.517   5.696   2.887 -0.8382 -2.9189  2.1392
 1520SOL    MW4 5848   1.458   5.746   2.927  0.0250 -0.2121  0.3397
 1521SOL     OW 5849   1.218   3.761   6.019  0.2220  0.3585 -0.2209
 1521SOL    HW2 5850   1.219   3.841   6.072  1.5611  0.5793 -0.5453
 1521SOL    HW3 5851   1.290   3.772   5.958  2.1658 -2.1757  1.4020
 1521SOL    MW4 5852   1.228   3.773   6.018  0.6551  0.0533 -0.0496
 1522SOL     OW 5853   3.348  -0.010   4.594  0.7732  0.0241  0.2544
 1522SOL    HW2 5854   3.372  -0.090   4.547 -0.1656 -0.0101 -0.1864
 1522SOL    HW3 5855   3.255  -0.020   4.612  0.1782  1.8398 -1.4837
 1522SOL    MW4 5856   3.339  -0.022   4.591  0.5709  0.2592 -0.0331
 1523SOL     OW 5857   0.099   3.408   3.799  0.3999  0.4234 -0.1173
 1523SOL    HW2 5858   0.130   3.328   3.842  0.4528  0.7593  0.4700
 1523SOL    HW3 5859   0.104   3.388   3.705  0.1645 -0.3536  0.0320
 1523SOL    MW4 5860   0.104   3.395   3.792  0.3758  0.3652 -0.0201
 1524SOL     OW 5861   3.033   5.298   1.514 -0.0227  0.3422 -0.1359
 1524SOL    HW2 5862   3.113   5.260   1.477  0.1020  0.0842  0.3854
 1524SOL    HW3 5863   3.059   5.386   1.542  0.4626 -0.2309  1.3099
 1524SOL    MW4 5864   3.047   5.304   1.513  0.0578  0.2325  0.1237
 1525SOL     OW 5865   3.209   3.604   1.241  0.1098  0.4130 -0.4438
 1525SOL    HW2 5866   3.230   3.676   1.181  2.4721  0.4716  0.3753
 1525SOL    HW3 5867   3.292   3.561   1.259 -0.5837 -0.0572  2.2168
 1525SOL    MW4 5868   3.223   3.608   1.236  0.3300  0.3587  0.0153
 1526SOL     OW 5869   4.946   4.079   3.471 -0.0102  0.6548 -0.3892
 1526SOL    HW2 5870   4.903   4.122   3.544 -0.4840 -0.0484 -0.2397
 1526SOL    HW3 5871   4.888   4.094   3.396  0.3047  1.0850 -0.5546
 1526SOL    MW4 5872   4.933   4.086   3.471 -0.0312  0.6188 -0.3913
 1527SOL     OW 5873   5.565   0.756   0.102  0.0506  0.0617 -0.6537
 1527SOL    HW2 5874   5.620   0.793   0.034  0.6631  0.9559  0.2999
 1527SOL    HW3 5875   5.583   0.809   0.180 -0.1431 -1.3153  0.3801
 1527SOL    MW4 5876   5.574   0.768   0.103  0.1058 -0.0020 -0.3915
 1528SOL     OW 5877   5.704   5.065   3.373 -0.1601  0.1300 -0.1857
 1528SOL    HW2 5878   5.714   5.058   3.278  0.3638  1.0882 -0.2087
 1528SOL    HW3 5879   5.779   5.018   3.408  0.0224  0.3648 -0.2576
 1528SOL    MW4 5880   5.715   5.058   3.365 -0.0669  0.2874 -0.1982
 1529SOL     OW 5881   3.847   0.615   3.346 -0.0161 -0.2076  0.1280
 1529SOL    HW2 5882   3.942   0.600   3.337  0.5683  3.4051 -1.7369
 1529SOL    HW3 5883   3.811   0.583   3.263 -0.2485 -0.3209  0.2733
 1529SOL    MW4 5884   3.855   0.608   3.334  0.0303  0.2541 -0.0989
 1530SOL     OW 5885   2.332   0.562   2.464  0.5945 -0.4721  0.0827
 1530SOL    HW2 5886   2.419   0.577   2.501  0.7173 -2.4554  0.7057
 1530SOL    HW3 5887   2.341   0.584   2.371  0.3286  4.4468  0.9272
 1530SOL    MW4 5888   2.345   0.567   2.457  0.5756 -0.0848  0.2763
 1531SOL     OW 5889   4.970   5.568   1.817  0.3062 -0.5061  0.3333
 1531SOL    HW2 5890   4.880   5.595   1.803  0.2380 -1.1005 -0.4188
 1531SOL    HW3 5891   5.000   5.621   1.892 -0.5694 -0.1167  0.4141
 1531SOL    MW4 5892   4.962   5.578   1.825  0.1817 -0.5332  0.2447
 1532SOL     OW 5893   2.505   1.747   0.738 -0.3423  0.0617 -0.2067
 1532SOL    HW2 5894   2.574   1.685   0.714 -1.0075 -0.2762 -1.3196
 1532SOL    HW3 5895   2.526   1.826   0.688  0.6376  0.8695  1.3863
 1532SOL    MW4 5896   2.517   1.750   0.728 -0.3008  0.1237 -0.1434
 1533SOL     OW 5897   2.681   1.895   2.206 -0.0689  0.1602 -0.4565
 1533SOL    HW2 5898   2.662   1.973   2.258  0.2586 -0.3443  0.4371
 1533SOL    HW3 5899   2.675   1.925   2.115  0.2571  1.2731 -0.1270
 1533SOL    MW4 5900   2.678   1.909   2.201  0.0174  0.2405 -0.2952
 1534SOL     OW 5901   2.204   3.057   6.280  0.3305 -0.8112 -0.3107
 1534SOL    HW2 5902   2.253   3.035   6.359 -1.0630 -2.4221  0.1383
 1534SOL    HW3 5903   2.119   3.087   6.312  0.2361 -0.1185 -1.1699
 1534SOL    MW4 5904   2.199   3.058   6.295  0.1342 -0.9323 -0.3648
 1535SOL     OW 5905   4.535   4.306   2.171  0.4781 -0.5055  0.5651
 1535SOL    HW2 5906   4.527   4.402   2.169  1.7907 -0.3856  0.1276
 1535SOL    HW3 5907   4.486   4.279   2.248  0.1615  0.5307  0.7370
 1535SOL    MW4 5908   4.527   4.315   2.181  0.6095 -0.3530  0.5301
 1536SOL     OW 5909   2.611   0.109   1.157  0.7391 -0.0376  0.5050
 1536SOL    HW2 5910   2.665   0.087   1.233  1.9421 -0.7063 -0.5104
 1536SOL    HW3 5911   2.623   0.036   1.096 -0.7983  0.1185 -0.0368
 1536SOL    MW4 5912   2.620   0.096   1.159  0.6949 -0.1053  0.2996
 1537SOL     OW 5913   3.660   6.225   2.879  0.3778 -0.8693 -0.4178
 1537SOL    HW2 5914   3.617   6.191   2.801  1.2399 -1.0392 -0.8290
 1537SOL    HW3 5915   3.619   6.310   2.895 -0.4144 -1.2216 -0.5356
 1537SOL    MW4 5916   3.649   6.232   2.871  0.3870 -0.9382 -0.4876
 1538SOL     OW 5917   5.119   2.264   3.938  0.0527 -0.0128 -0.0750
 1538SOL    HW2 5918   5.049   2.199   3.928  0.2804 -0.4234  0.9230
 1538SOL    HW3 5919   5.188   2.217   3.985  0.1447  1.0114  0.8233
 1538SOL    MW4 5920   5.119   2.249   3.943  0.0949  0.0682  0.1752
 1539SOL     OW 5921   2.329   4.978   4.777 -0.6161  0.1623 -0.4411
 1539SOL    HW2 5922   2.371   5.036   4.714 -0.9823 -0.4783 -1.2983
 1539SOL    HW3 5923   2.325   4.894   4.732 -2.5204  0.1293 -0.2635
 1539SOL    MW4 5924   2.334   4.975   4.763 -0.9156  0.0735 -0.5308
 1540SOL     OW 5925   5.542   2.284   3.775 -0.1793  0.0833 -0.0870
 1540SOL    HW2 5926   5.542   2.195   3.740  0.3850  0.3372 -0.7494
 1540SOL    HW3 5927   5.462   2.323   3.739  0.2501  0.2522 -0.8716
 1540SOL    MW4 5928   5.531   2.278   3.765 -0.0482  0.1391 -0.2779
 1541SOL     OW 5929   1.297   0.114   1.823 -0.4276 -0.3816 -0.1732
 1541SOL    HW2 5930   1.242   0.128   1.746  1.1487  0.0916 -1.2765
 1541SOL    HW3 5931   1.384   0.095   1.787  1.2094  3.1600  1.4118
 1541SOL    MW4 5932   1.301   0.114   1.808 -0.0037  0.1481 -0.1097
 1542SOL     OW 5933   1.155   3.410   1.799 -0.1692  0.2593 -0.4080
 1542SOL    HW2 5934   1.103   3.490   1.796 -1.7873 -0.6765  1.0746
 1542SOL    HW3 5935   1.234   3.434   1.848 -0.1482  1.1878 -0.8767
 1542SOL    MW4 5936   1.158   3.423   1.805 -0.3799  0.2583 -0.2743
 1543SOL     OW 5937   0.694   5.361   2.250  0.1472  0.7199 -0.4239
 1543SOL    HW2 5938   0.613   5.333   2.292  1.1085  0.5309  1.3824
 1543SOL    HW3 5939   0.761   5.301   2.284  0.7331 -0.7249 -3.6931
 1543SOL    MW4 5940   0.692   5.349   2.260  0.3513  0.5044 -0.6169
 1544SOL     OW 5941   3.008   5.199   1.765  0.1718  0.3961 -0.2112
 1544SOL    HW2 5942   3.022   5.228   1.675  2.2747  1.7106  0.4574
 1544SOL    HW3 5943   3.053   5.265   1.818 -1.8392  0.2008  1.8763
 1544SOL    MW4 5944   3.016   5.212   1.760  0.1839  0.5438  0.1524
 1545SOL     OW 5945   1.250   0.082   0.099 -0.4771  0.2754 -0.3570
 1545SOL    HW2 5946   1.311   0.009   0.110 -0.7612 -0.1648 -1.5189
 1545SOL    HW3 5947   1.297   0.159   0.131  0.6384 -0.0750 -1.1233
 1545SOL    MW4 5948   1.264   0.082   0.105 -0.3674  0.1711 -0.6114
 1546SOL     OW 5949   3.593   2.625   1.303 -0.1647  0.0807  0.1442
 1546SOL    HW2 5950   3.562   2.708   1.339 -0.3865  0.4839 -0.9327
 1546SOL    HW3 5951   3.648   2.588   1.372  0.5194  1.4622  0.3804
 1546SOL    MW4 5952   3.596   2.631   1.317 -0.1037  0.3161  0.0333
 1547SOL     OW 5953   0.295   5.130   2.939  0.0938 -0.0529  0.1917
 1547SOL    HW2 5954   0.227   5.153   2.876 -0.8113 -1.7366  0.5041
 1547SOL    HW3 5955   0.358   5.202   2.934 -0.6483  0.5174 -1.6206
 1547SOL    MW4 5956   0.295   5.143   2.930 -0.1235 -0.1998 -0.0062
 1548SOL     OW 5957   6.250   1.230   5.557  0.2210 -0.1091  0.0136
 1548SOL    HW2 5958   6.337   1.264   5.579 -0.1815  0.8654  0.1698
 1548SOL    HW3 5959   6.193   1.307   5.562 -0.7565 -0.8540  0.4876
 1548SOL    MW4 5960   6.254   1.245   5.560  0.0389 -0.0788  0.0967
 1549SOL     OW 5961   6.133   4.098   5.818 -0.7887 -0.2914  0.0092
 1549SOL    HW2 5962   6.127   4.180   5.867  2.4895  0.5992 -0.7927
 1549SOL    HW3 5963   6.227   4.084   5.807 -1.2883 -2.9997 -1.8539
 1549SOL    MW4 5964   6.145   4.107   5.823 -0.4221 -0.5312 -0.3424
 1550SOL     OW 5965   5.164   3.261   2.841 -0.2628  0.2843  0.3305
 1550SOL    HW2 5966   5.081   3.213   2.843  0.1730 -0.4809  0.2044
 1550SOL    HW3 5967   5.138   3.354   2.843 -1.0835  0.0434  1.2203
 1550SOL    MW4 5968   5.150   3.267   2.841 -0.3136  0.1516  0.4313
 1551SOL     OW 5969   1.092   4.763   2.121  0.6527  0.3658  0.0276
 1551SOL    HW2 5970   1.115   4.778   2.030  1.7796 -1.4931 -0.0419
 1551SOL    HW3 5971   1.030   4.691   2.119  2.7295 -1.5639  0.8168
 1551SOL    MW4 5972   1.087   4.756   2.109  1.0754 -0.1341  0.1226
 1552SOL     OW 5973   2.347   2.019   5.534  0.7053  0.2559  0.0071
 1552SOL    HW2 5974   2.344   2.029   5.629  0.0784  1.0465 -0.0810
 1552SOL    HW3 5975   2.271   1.965   5.514  0.2881  0.8710 -0.1171
 1552SOL    MW4 5976   2.336   2.013   5.544  0.5675  0.4414 -0.0209
 1553SOL     OW 5977   4.069   3.993   5.597  0.2742 -0.7732  0.4784
 1553SOL    HW2 5978   4.039   4.080   5.572 -0.3608 -0.9146  0.7273
 1553SOL    HW3 5979   4.003   3.934   5.562 -0.1433 -1.0427  1.6603
 1553SOL    MW4 5980   4.057   3.997   5.589  0.1353 -0.8274  0.6672
 1554SOL     OW 5981   1.331   1.000   1.475  0.1974  0.2486  0.0667
 1554SOL    HW2 5982   1.280   0.928   1.514  2.4490 -0.1118  2.6365
 1554SOL    HW3 5983   1.378   0.958   1.402  0.0629 -0.4374  0.3601
 1554SOL    MW4 5984   1.330   0.985   1.470  0.4767  0.1106  0.4445
 1555SOL     OW 5985   0.950   4.832   2.877 -0.3383  0.1085 -0.2335
 1555SOL    HW2 5986   1.006   4.909   2.873 -0.2238 -0.0282 -1.7580
 1555SOL    HW3 5987   0.914   4.834   2.966  0.1655  1.5475 -0.0264
 1555SOL    MW4 5988   0.953   4.843   2.888 -0.2568  0.2803 -0.4073
 1556SOL     OW 5989   2.151   2.963   4.690 -0.1735 -0.3235  0.1215
 1556SOL    HW2 5990   2.193   2.881   4.714 -0.2873 -0.8471 -1.3634
 1556SOL    HW3 5991   2.093   2.983   4.763  0.8736 -0.8420  1.1100
 1556SOL    MW4 5992   2.149   2.955   4.703 -0.0504 -0.4610  0.0560
 1557SOL     OW 5993   3.386   4.647   2.783 -0.3499  0.0124  0.2916
 1557SOL    HW2 5994   3.351   4.601   2.859  0.9891 -0.2399  0.7888
 1557SOL    HW3 5995   3.386   4.583   2.713  1.2462 -0.7252  0.9093
 1557SOL    MW4 5996   3.381   4.633   2.784  0.0374 -0.1182  0.4387
 1558SOL     OW 5997   2.043   3.217   4.562  0.3675  0.1039  0.4019
 1558SOL    HW2 5998   2.068   3.142   4.617  0.3600 -1.1351 -1.2135
 1558SOL    HW3 5999   1.998   3.178   4.487  0.5288  1.7296 -0.5874
 1558SOL    MW4 6000   2.040   3.202   4.559  0.3878  0.1549  0.0583
 1559SOL     OW 6001   4.742   0.295   3.808  0.4089 -0.7497 -0.0927
 1559SOL    HW2 6002   4.709   0.287   3.897  0.6706  3.2112  0.5255
 1559SOL    HW3 6003   4.793   0.377   3.808  1.5161 -1.2635 -3.5664
 1559SOL    MW4 6004   4.745   0.305   3.820  0.5895 -0.2949 -0.4695
 1560SOL     OW 6005   5.525   2.511   1.435 -0.0189  0.0536 -0.4655
 1560SOL    HW2 6006   5.515   2.462   1.354  1.4222  0.1591 -0.7339
 1560SOL    HW3 6007   5.453   2.574   1.434  0.5797  0.7589 -2.1928
 1560SOL    MW4 6008   5.515   2.513   1.424  0.2502  0.1606 -0.7288
 1561SOL     OW 6009   6.139   6.290   5.783 -0.2382 -0.3184  0.5613
 1561SOL    HW2 6010   6.171   6.377   5.808  0.6415 -0.7348  0.9252
 1561SOL    HW3 6011   6.189   6.229   5.838  0.4986 -1.1695 -0.9711
 1561SOL    MW4 6012   6.150   6.293   5.794 -0.0249 -0.4857  0.4071
 1562SOL     OW 6013   4.925   4.250   5.218  0.4164 -0.0915  0.2654
 1562SOL    HW2 6014   4.894   4.315   5.156  0.5561 -1.2176 -1.0379
 1562SOL    HW3 6015   4.846   4.223   5.266 -0.0094 -0.3706 -0.5657
 1562SOL    MW4 6016   4.910   4.255   5.216  0.3787 -0.2769 -0.0162
 1563SOL     OW 6017   2.689   5.570   4.644  0.3615 -0.0265  0.2247
 1563SOL    HW2 6018   2.659   5.580   4.734 -0.0433 -0.8650  0.1944
 1563SOL    HW3 6019   2.759   5.634   4.634 -0.0094  0.4959  0.9445
 1563SOL    MW4 6020   2.694   5.580   4.654  0.2592 -0.0682  0.3157
 1564SOL     OW 6021   5.386   3.357   5.557 -0.4295  0.4976  0.2479
 1564SOL    HW2 6022   5.467   3.401   5.585 -0.7190  0.1080  1.8125
 1564SOL    HW3 6023   5.413   3.267   5.538 -0.3970  0.5229  0.1727
 1564SOL    MW4 6024   5.401   3.351   5.558 -0.4634  0.4495  0.4444
 1565SOL     OW 6025   5.626   6.157   0.351  0.1479  0.5777 -0.0645
 1565SOL    HW2 6026   5.697   6.209   0.314  0.1329 -0.2992 -1.4170
 1565SOL    HW3 6027   5.567   6.221   0.390  0.8580  1.4419 -0.3783
 1565SOL    MW4 6028   5.628   6.172   0.351  0.2396  0.5760 -0.2843
 1566SOL     OW 6029   5.213   1.065   6.169 -0.0349  0.1191 -0.4045
 1566SOL    HW2 6030   5.159   0.987   6.160 -1.5014  1.2355 -1.7390
 1566SOL    HW3 6031   5.288   1.050   6.112 -0.6217 -0.0569 -1.1294
 1566SOL    MW4 6032   5.216   1.053   6.161 -0.3058  0.2432 -0.6762
 1567SOL     OW 6033   0.913   1.386   0.613  0.0843 -0.2257  0.2951
 1567SOL    HW2 6034   0.990   1.442   0.605 -0.7087  0.9925  0.8531
 1567SOL    HW3 6035   0.940   1.318   0.676  0.2537  1.0443  1.6558
 1567SOL    MW4 6036   0.927   1.385   0.620  0.0020  0.1026  0.5483
 1568SOL     OW 6037   3.329   0.681   1.860  0.2433 -0.1075 -0.2683
 1568SOL    HW2 6038   3.244   0.638   1.844  0.3011 -0.0272 -0.8197
 1568SOL    HW3 6039   3.316   0.732   1.940 -0.2573 -0.0232 -0.3997
 1568SOL    MW4 6040   3.316   0.682   1.868  0.1849 -0.0858 -0.3583
 1569SOL     OW 6041   6.427   5.579   4.490  0.1134 -0.4994  0.8399
 1569SOL    HW2 6042   6.374   5.601   4.567  0.7698 -1.5155  1.6038
 1569SOL    HW3 6043   6.458   5.664   4.458 -0.3697 -0.0440  1.5362
 1569SOL    MW4 6044   6.424   5.593   4.496  0.1363 -0.5734  1.0325
 1570SOL     OW 6045   1.484   3.292   2.453 -0.2165 -0.2700  0.2278
 1570SOL    HW2 6046   1.568   3.280   2.498  1.2538  2.2343 -1.5639
 1570SOL    HW3 6047   1.453   3.378   2.483 -0.6560  0.1182 -1.2281
 1570SOL    MW4 6048   1.491   3.302   2.463 -0.0805  0.1116 -0.2007
 1571SOL     OW 6049   1.984   0.113   3.458  0.0970 -0.5601 -0.8336
 1571SOL    HW2 6050   1.914   0.066   3.413 -1.2131  0.8537 -0.3540
 1571SOL    HW3 6051   1.939   0.162   3.527  1.5745  0.3454 -0.4797
 1571SOL    MW4 6052   1.969   0.113   3.461  0.1191 -0.2541 -0.7236
 1572SOL     OW 6053   2.545   4.827   0.558 -0.6723 -0.1926 -0.1474
 1572SOL    HW2 6054   2.611   4.888   0.526 -1.3705  0.7951  0.2624
 1572SOL    HW3 6055   2.461   4.865   0.531 -1.1685 -0.4324  0.9869
 1572SOL    MW4 6056   2.542   4.840   0.550 -0.8299 -0.0939  0.0563
 1573SOL     OW 6057   5.775   1.420   5.735 -0.1226  0.0441  0.0546
 1573SOL    HW2 6058   5.860   1.437   5.694 -0.0190  1.4852  0.8179
 1573SOL    HW3 6059   5.724   1.500   5.718 -1.0106 -0.4416  0.3825
 1573SOL    MW4 6060   5.779   1.433   5.727 -0.2261  0.1701  0.1986
 1574SOL     OW 6061   1.704   1.928   5.947  0.4931 -0.2374  0.3260
 1574SOL    HW2 6062   1.618   1.952   5.983  0.0550  1.3686 -1.5829
 1574SOL    HW3 6063   1.684   1.891   5.861  1.7298  3.1181 -1.6008
 1574SOL    MW4 6064   1.690   1.926   5.940  0.5985  0.4172 -0.1801
 1575SOL     OW 6065   0.841   1.947   6.234 -0.6364 -0.0034  0.1500
 1575SOL    HW2 6066   0.907   1.998   6.281 -0.2223 -0.6729  0.2985
 1575SOL    HW3 6067   0.782   2.013   6.198  0.3923  0.6385 -0.4228
 1575SOL    MW4 6068   0.842   1.963   6.235 -0.4461 -0.0070  0.0940
 1576SOL     OW 6069   0.385   1.067   4.592 -0.0288  0.1031  0.0286
 1576SOL    HW2 6070   0.434   1.116   4.525  0.0427  0.7603  0.5492
 1576SOL    HW3 6071   0.322   1.015   4.542  0.2369  0.3428 -0.5694
 1576SOL    MW4 6072   0.384   1.067   4.577  0.0157  0.2214  0.0184
 1577SOL     OW 6073   5.848   5.656   5.886 -0.3720 -0.1872 -0.3266
 1577SOL    HW2 6074   5.918   5.595   5.909 -0.0793  0.0703 -0.5166
 1577SOL    HW3 6075   5.851   5.722   5.956 -0.4403 -0.1880 -0.3233
 1577SOL    MW4 6076   5.858   5.657   5.898 -0.3424 -0.1533 -0.3512
 1578SOL     OW 6077   2.222   5.336   2.917  0.2690 -0.7089  0.3500
 1578SOL    HW2 6078   2.169   5.408   2.953  1.0798  0.0731  0.0108
 1578SOL    HW3 6079   2.173   5.308   2.839 -0.0810 -0.5664  0.5145
 1578SOL    MW4 6080   2.208   5.342   2.911  0.3298 -0.5869  0.3270
 1579SOL     OW 6081   3.109   4.892   2.006  0.2396  0.0159 -0.5302
 1579SOL    HW2 6082   3.160   4.972   2.016  0.0765 -0.0588  1.4128
 1579SOL    HW3 6083   3.122   4.846   2.089  0.3174 -1.9738 -1.5875
 1579SOL    MW4 6084   3.117   4.896   2.019  0.2283 -0.2565 -0.4133
 1580SOL     OW 6085   2.337   0.854   0.883  0.1979 -0.0742  0.4533
 1580SOL    HW2 6086   2.349   0.899   0.967  0.0934  1.2125 -0.2039
 1580SOL    HW3 6087   2.263   0.899   0.842  0.0100 -0.9288 -0.1863
 1580SOL    MW4 6088   2.329   0.866   0.889  0.1593 -0.0172  0.2822
 1581SOL     OW 6089   4.322   2.922   2.060  0.1517 -0.3501  0.1867
 1581SOL    HW2 6090   4.248   2.980   2.038  0.8323  0.0201 -1.2338
 1581SOL    HW3 6091   4.282   2.852   2.111 -1.1821 -0.1277 -0.4938
 1581SOL    MW4 6092   4.307   2.921   2.064  0.0655 -0.2719 -0.0905
 1582SOL     OW 6093   2.332   6.118   3.693 -0.0753  0.7110 -0.1250
 1582SOL    HW2 6094   2.358   6.058   3.762 -0.3040  1.0457  0.2544
 1582SOL    HW3 6095   2.319   6.202   3.737  0.9587  1.2276 -0.7543
 1582SOL    MW4 6096   2.334   6.121   3.708  0.0309  0.8233 -0.1580
 1583SOL     OW 6097   3.254   1.375   0.122  0.4543 -0.1238  0.1007
 1583SOL    HW2 6098   3.237   1.282   0.102 -0.3235  0.1530 -0.6095
 1583SOL    HW3 6099   3.171   1.407   0.156  0.1425  0.7441 -1.3703
 1583SOL    MW4 6100   3.241   1.367   0.124  0.3105  0.0273 -0.1871
 1584SOL     OW 6101   3.344   5.473   4.014 -0.0546  0.2539 -0.8826
 1584SOL    HW2 6102   3.366   5.380   4.014 -0.1280  0.2297 -0.2710
 1584SOL    HW3 6103   3.253   5.475   4.044 -0.2404  0.4858 -1.4607
 1584SOL    MW4 6104   3.335   5.461   4.018 -0.0888  0.2813 -0.8782
 1585SOL     OW 6105   1.112   6.188   2.447  0.4422 -0.5583  0.2376
 1585SOL    HW2 6106   1.155   6.162   2.529 -0.5019 -3.5494 -0.1074
 1585SOL    HW3 6107   1.019   6.184   2.466  0.2236  0.1607 -0.6133
 1585SOL    MW4 6108   1.106   6.184   2.460  0.2888 -0.8581  0.0798
 1586SOL     OW 6109   6.328   1.850   3.096  0.1779  0.3586 -0.2449
 1586SOL    HW2 6110   6.420   1.870   3.076  0.6390 -1.0521  0.3223
 1586SOL    HW3 6111   6.333   1.789   3.170 -1.2634  1.1340  0.5437
 1586SOL    MW4 6112   6.341   1.845   3.103  0.0486  0.2748 -0.0660
 1587SOL     OW 6113   4.827   2.416   3.899  0.0008  0.1643 -0.2456
 1587SOL    HW2 6114   4.809   2.510   3.892  0.7244  0.5081  1.8208
 1587SOL    HW3 6115   4.922   2.411   3.908 -0.0846 -0.7043  0.2353
 1587SOL    MW4 6116   4.837   2.428   3.899  0.0850  0.0950  0.0905
 1588SOL     OW 6117   6.406   0.850   3.217 -0.5546 -0.1119 -0.2055
 1588SOL    HW2 6118   6.457   0.885   3.290  0.9334 -1.2151 -0.6625
 1588SOL    HW3 6119   6.442   0.893   3.140  0.1739 -1.3722 -0.6008
 1588SOL    MW4 6120   6.418   0.860   3.216 -0.2622 -0.4238 -0.3179
 1589SOL     OW 6121   3.028   0.449   5.959 -0.5840  0.2218 -0.2240
 1589SOL    HW2 6122   3.079   0.478   5.883 -1.3499  1.8602 -0.1570
 1589SOL    HW3 6123   3.094   0.416   6.021  0.4667  2.2819 -0.1375
 1589SOL    MW4 6124   3.044   0.449   5.957 -0.5464  0.7098 -0.2037
 1590SOL     OW 6125   2.854   5.255   5.530  0.6569  0.2764  0.0886
 1590SOL    HW2 6126   2.880   5.335   5.576  0.5110 -0.1391  0.8942
 1590SOL    HW3 6127   2.801   5.206   5.593 -0.2792  0.0992 -0.8032
 1590SOL    MW4 6128   2.850   5.259   5.544  0.5142  0.1982  0.0772
 1591SOL     OW 6129   0.473   3.105   1.142  0.3137 -0.4254 -0.1596
 1591SOL    HW2 6130   0.532   3.099   1.217  1.6369 -0.3804 -1.1487
 1591SOL    HW3 6131   0.442   3.195   1.143  0.0581 -0.5150  0.5095
 1591SOL    MW4 6132   0.477   3.116   1.152  0.4546 -0.4313 -0.2018
 1592SOL     OW 6133   2.281   4.613   4.356 -0.5265 -0.0886 -0.6436
 1592SOL    HW2 6134   2.260   4.525   4.387  2.1501 -0.6337 -0.0606
 1592SOL    HW3 6135   2.336   4.599   4.279  1.6461  0.9196  0.6166
 1592SOL    MW4 6136   2.286   4.600   4.350  0.1133 -0.0275 -0.4004
 1593SOL     OW 6137   6.339   2.980   0.998  0.3743  0.2067 -0.0595
 1593SOL    HW2 6138   6.288   2.924   0.938  0.8573  0.4728 -0.7347
 1593SOL    HW3 6139   6.280   3.053   1.018  0.1828  0.0819 -0.1575
 1593SOL    MW4 6140   6.324   2.982   0.993  0.4128  0.2254 -0.1615
 1594SOL     OW 6141   3.148   4.258   2.948  0.0412  0.2722  0.5015
 1594SOL    HW2 6142   3.168   4.290   2.861  0.4550  2.3676  1.3155
 1594SOL    HW3 6143   3.234   4.243   2.988 -0.1344  0.2436  0.8714
 1594SOL    MW4 6144   3.162   4.260   2.942  0.0726  0.5449  0.6577
 1595SOL     OW 6145   3.725   4.600   0.626 -0.3207  0.0549 -0.1393
 1595SOL    HW2 6146   3.721   4.624   0.533 -0.7980  0.1752 -0.0872
 1595SOL    HW3 6147   3.733   4.683   0.672 -0.6930  0.0357 -0.0372
 1595SOL    MW4 6148   3.726   4.614   0.620 -0.4328  0.0683 -0.1190
 1596SOL     OW 6149   2.593   5.643   1.077  0.1902  0.2470 -0.0226
 1596SOL    HW2 6150   2.686   5.650   1.056  1.8675 -1.6044  5.2292
 1596SOL    HW3 6151   2.565   5.561   1.037  1.3538 -0.1100 -0.1412
 1596SOL    MW4 6152   2.602   5.633   1.069  0.5650 -0.0443  0.6547
 1597SOL     OW 6153   3.735   5.185   2.788 -0.0512 -0.3325  0.3305
 1597SOL    HW2 6154   3.778   5.170   2.704  0.0962  1.5013  0.0269
 1597SOL    HW3 6155   3.642   5.179   2.769 -0.0898  1.6610 -0.3799
 1597SOL    MW4 6156   3.729   5.183   2.774 -0.0368  0.1724  0.1967
 1598SOL     OW 6157   3.623   6.097   0.628 -0.5108  0.1173  0.4652
 1598SOL    HW2 6158   3.548   6.136   0.673 -1.0989  0.0329 -0.4129
 1598SOL    HW3 6159   3.588   6.016   0.590  0.0951 -0.0484  0.2469
 1598SOL    MW4 6160   3.609   6.091   0.629 -0.5085  0.0843  0.3206
 1599SOL     OW 6161   0.620   4.188   0.823  0.2601 -0.5145 -0.3574
 1599SOL    HW2 6162   0.608   4.159   0.913 -0.5902  1.8568  0.3892
 1599SOL    HW3 6163   0.531   4.200   0.790  0.5584  0.2870 -0.9061
 1599SOL    MW4 6164   0.606   4.186   0.830  0.1872 -0.0959 -0.3312
 1600SOL     OW 6165   0.852   5.349   0.042  0.3144  0.8305 -0.0436
 1600SOL    HW2 6166   0.795   5.425   0.054 -1.5629 -0.7730  1.9470
 1600SOL    HW3 6167   0.845   5.328  -0.052  0.4482  2.7113 -0.5233
 1600SOL    MW4 6168   0.844   5.356   0.031  0.0844  0.8671  0.1557
 1601SOL     OW 6169   6.398   4.325   0.204 -0.1568  0.2732 -0.0263
 1601SOL    HW2 6170   6.320   4.368   0.237  0.0869 -0.0411  0.9987
 1601SOL    HW3 6171   6.471   4.377   0.238  0.1095 -0.2446  0.2064
 1601SOL    MW4 6172   6.397   4.337   0.213 -0.0895  0.1634  0.1396
 1602SOL     OW 6173   5.121   3.982   2.157  0.2586  0.0526 -0.0979
 1602SOL    HW2 6174   5.162   4.014   2.237 -1.0889 -0.6365  0.9035
 1602SOL    HW3 6175   5.027   3.996   2.171 -0.2139 -2.3433 -0.4894
 1602SOL    MW4 6176   5.114   3.988   2.169  0.0185 -0.3544 -0.0174
 1603SOL     OW 6177   3.774   1.634   1.743  0.2061 -0.0316  0.5442
 1603SOL    HW2 6178   3.860   1.665   1.715 -0.1320 -1.5439 -2.6479
 1603SOL    HW3 6179   3.712   1.694   1.701 -0.3230 -0.6543  0.4193
 1603SOL    MW4 6180   3.777   1.646   1.733  0.0916 -0.3133  0.1065
 1604SOL     OW 6181   2.992   4.072   4.559  0.1635  0.5870 -0.1027
 1604SOL    HW2 6182   2.972   4.005   4.493 -0.5191  0.3536  0.3320
 1604SOL    HW3 6183   3.082   4.054   4.586  0.1126  0.0882 -0.2649
 1604SOL    MW4 6184   3.001   4.061   4.554  0.0667  0.4904 -0.0668
 1605SOL     OW 6185   1.291   5.830   1.869  0.2653 -0.1847  0.1380
 1605SOL    HW2 6186   1.321   5.741   1.854 -1.8685 -0.8045 -0.9582
 1605SOL    HW3 6187   1.291   5.841   1.964  0.8135 -1.2465  0.2655
 1605SOL    MW4 6188   1.295   5.820   1.880  0.0561 -0.4066  0.0102
 1606SOL     OW 6189   6.381   2.200   5.734 -0.1932  0.1280 -1.0349
 1606SOL    HW2 6190   6.399   2.108   5.717 -0.7573 -0.1152 -0.3572
 1606SOL    HW3 6191   6.367   2.205   5.828  1.0807  1.1337 -0.8786
 1606SOL    MW4 6192   6.381   2.189   5.744 -0.0996  0.2286 -0.9249
 1607SOL     OW 6193   5.715   0.024   2.681 -0.1121 -0.1322  0.2971
 1607SOL    HW2 6194   5.712   0.064   2.594 -1.2622 -0.6487  0.0774
 1607SOL    HW3 6195   5.754  -0.062   2.667 -1.3269 -0.6644  0.0871
 1607SOL    MW4 6196   5.720   0.018   2.667 -0.4241 -0.2706  0.2404
 1608SOL     OW 6197   3.662   0.213   3.471 -0.8285 -0.3576 -0.3121
 1608SOL    HW2 6198   3.612   0.236   3.549 -0.1155  0.0509  0.0322
 1608SOL    HW3 6199   3.622   0.264   3.400  0.3623  1.5675  0.3300
 1608SOL    MW4 6200   3.650   0.222   3.472 -0.5773 -0.0497 -0.1819
 1609SOL     OW 6201   2.251   2.605   1.063  0.2576 -0.1768  0.1551
 1609SOL    HW2 6202   2.167   2.612   1.019  0.8963  0.2845 -1.0501
 1609SOL    HW3 6203   2.313   2.645   1.002  1.7021 -2.4425  0.0187
 1609SOL    MW4 6204   2.248   2.611   1.050  0.5325 -0.4149 -0.0219
 1610SOL     OW 6205   6.119   3.461   3.080  0.2424  0.2949 -0.2081
 1610SOL    HW2 6206   6.051   3.456   3.146 -0.5302 -1.3735 -1.0829
 1610SOL    HW3 6207   6.124   3.554   3.058 -1.7784  0.4673 -0.1347
 1610SOL    MW4 6208   6.111   3.473   3.086 -0.1262  0.0975 -0.3138
 1611SOL     OW 6209   4.680   6.077   6.061 -0.1612 -0.5088 -0.5907
 1611SOL    HW2 6210   4.774   6.093   6.073 -0.1430 -0.8246 -0.2648
 1611SOL    HW3 6211   4.665   6.091   5.968  0.5526 -2.0776 -0.9880
 1611SOL    MW4 6212   4.691   6.081   6.051 -0.0646 -0.7575 -0.6001
 1612SOL     OW 6213   2.736   4.354   0.699 -0.1400  0.3228  0.6557
 1612SOL    HW2 6214   2.770   4.397   0.777  0.0530  0.4257  0.5149
 1612SOL    HW3 6215   2.656   4.311   0.729 -1.5222  2.5194  0.3494
 1612SOL    MW4 6216   2.730   4.354   0.714 -0.2969  0.6262  0.5967
 1613SOL     OW 6217   0.838   0.880   5.601  0.0517 -0.0635  0.2310
 1613SOL    HW2 6218   0.903   0.820   5.639  0.1021  0.4646  0.9871
 1613SOL    HW3 6219   0.776   0.822   5.556  1.1507 -0.5671 -0.6846
 1613SOL    MW4 6220   0.838   0.864   5.600  0.2033 -0.0603  0.2099
 1614SOL     OW 6221   5.455   5.112   2.051  0.3172  0.1797 -0.0621
 1614SOL    HW2 6222   5.401   5.082   2.125 -0.7560 -0.2820 -1.0051
 1614SOL    HW3 6223   5.450   5.042   1.987  1.0296  0.6846 -0.6951
 1614SOL    MW4 6224   5.447   5.099   2.052  0.2696  0.1854 -0.2701
 1615SOL     OW 6225   0.655   5.278   4.961 -0.1852 -0.4798 -0.2655
 1615SOL    HW2 6226   0.652   5.369   4.991  0.5060 -0.1863 -1.0635
 1615SOL    HW3 6227   0.700   5.281   4.877  0.1563 -1.6010 -0.1464
 1615SOL    MW4 6228   0.661   5.290   4.954 -0.0490 -0.5890 -0.3551
 1616SOL     OW 6229   4.429   0.763   0.601  0.0725 -0.0899 -0.0705
 1616SOL    HW2 6230   4.360   0.700   0.623 -0.8422  0.9047 -0.0020
 1616SOL    HW3 6231   4.510   0.716   0.618 -0.5632 -1.5097 -0.7336
 1616SOL    MW4 6232   4.430   0.748   0.606 -0.1320 -0.1460 -0.1490
 1617SOL     OW 6233   0.641   2.258   1.841 -0.4123  0.4659  0.2960
 1617SOL    HW2 6234   0.659   2.268   1.934  1.9705 -0.5693  0.0260
 1617SOL    HW3 6235   0.689   2.330   1.800  0.0449 -0.1113 -0.2129
 1617SOL    MW4 6236   0.650   2.269   1.848 -0.0376  0.2532  0.1933
 1618SOL     OW 6237   3.013   6.320   2.895  0.3337  0.2509  0.3347
 1618SOL    HW2 6238   2.976   6.392   2.945  0.6945  0.0230  0.9370
 1618SOL    HW3 6239   3.103   6.312   2.926  1.2502  1.4405 -1.7932
 1618SOL    MW4 6240   3.020   6.328   2.905  0.5023  0.3778  0.1334
 1619SOL     OW 6241   5.466   0.820   4.546  0.2325 -0.1899  0.8416
 1619SOL    HW2 6242   5.522   0.869   4.486  2.4730 -1.5599  1.6984
 1619SOL    HW3 6243   5.474   0.867   4.630  0.2916 -0.5098  1.0174
 1619SOL    MW4 6244   5.474   0.833   4.549  0.5359 -0.4128  0.9778
 1620SOL     OW 6245   2.815   1.229   0.970 -0.5635  0.0345 -0.6418
 1620SOL    HW2 6246   2.741   1.253   0.914  0.1588 -1.4048 -2.3290
 1620SOL    HW3 6247   2.889   1.223   0.910  0.2762 -1.5336  0.4588
 1620SOL    MW4 6248   2.815   1.231   0.955 -0.3574 -0.3623 -0.7192
 1621SOL     OW 6249   2.923   1.103   2.140 -0.1907  0.0280 -0.7068
 1621SOL    HW2 6250   2.885   1.138   2.060 -0.2047  2.0115  0.1023
 1621SOL    HW3 6251   2.859   1.124   2.208  0.6549  0.0385  0.1135
 1621SOL    MW4 6252   2.909   1.110   2.139 -0.0810  0.2911 -0.4918
 1622SOL     OW 6253   1.693   1.627   4.074  0.4213  0.1364 -0.1112
 1622SOL    HW2 6254   1.783   1.643   4.045  0.0200 -0.6249 -1.9232
 1622SOL    HW3 6255   1.640   1.689   4.024 -0.1647 -0.2215  0.0572
 1622SOL    MW4 6256   1.698   1.637   4.064  0.2910 -0.0113 -0.3281
 1623SOL     OW 6257   1.849   1.861   5.595  0.3533  0.1746  0.0388
 1623SOL    HW2 6258   1.769   1.829   5.636 -0.5170  2.1596  0.0207
 1623SOL    HW3 6259   1.820   1.923   5.529  1.8879  0.5762 -0.3152
 1623SOL    MW4 6260   1.835   1.865   5.592  0.4409  0.4895 -0.0103
 1624SOL     OW 6261   4.653   2.238   1.065  0.0844 -0.1863 -0.1460
 1624SOL    HW2 6262   4.582   2.186   1.027  0.1795 -0.8798  0.5885
 1624SOL    HW3 6263   4.681   2.296   0.994 -0.8094 -0.3236 -0.6279
 1624SOL    MW4 6264   4.648   2.239   1.051 -0.0210 -0.2959 -0.1127
 1625SOL     OW 6265   4.796   3.036   5.847  0.0050  0.4259  0.8638
 1625SOL    HW2 6266   4.825   3.080   5.927  1.2000 -0.0252  0.7079
 1625SOL    HW3 6267   4.873   2.988   5.818 -0.5813  0.1470 -0.2691
 1625SOL    MW4 6268   4.810   3.035   5.854  0.0853  0.3296  0.6937
 1626SOL     OW 6269   4.435   2.214   6.187 -0.3355 -0.3430 -0.0106
 1626SOL    HW2 6270   4.361   2.208   6.126 -0.3148  0.2684 -0.1018
 1626SOL    HW3 6271   4.512   2.215   6.131 -0.3244  0.4049  0.0047
 1626SOL    MW4 6272   4.435   2.214   6.171 -0.3313 -0.1637 -0.0206
 1627SOL     OW 6273   1.879   1.121   4.795  0.7762  0.5218  0.2404
 1627SOL    HW2 6274   1.830   1.069   4.731 -0.1127  1.0031  0.5000
 1627SOL    HW3 6275   1.838   1.207   4.792 -0.8065  0.0114  2.9933
 1627SOL    MW4 6276   1.867   1.125   4.786  0.4501  0.5180  0.6379
 1628SOL     OW 6277   0.081   4.015   6.043  0.4388  0.3781  0.1187
 1628SOL    HW2 6278   0.015   3.949   6.020  0.5296  0.3386 -0.0326
 1628SOL    HW3 6279   0.067   4.031   6.136  0.4345  0.1240  0.1636
 1628SOL    MW4 6280   0.070   4.008   6.052  0.4502  0.3394  0.1047
 1629SOL     OW 6281   2.830   4.520   0.480  0.1773  0.1662 -0.0404
 1629SOL    HW2 6282   2.878   4.460   0.423  0.6141 -0.0242  0.5187
 1629SOL    HW3 6283   2.801   4.465   0.553 -0.6464  0.3414 -0.2279
 1629SOL    MW4 6284   2.832   4.505   0.482  0.1263  0.1642  0.0087
 1630SOL     OW 6285   5.844   4.578   6.174  0.1501  0.2213  0.9083
 1630SOL    HW2 6286   5.801   4.496   6.197  0.0256  0.5264  1.7779
 1630SOL    HW3 6287   5.793   4.646   6.217 -0.2712  0.8512 -0.5186
 1630SOL    MW4 6288   5.832   4.576   6.182  0.0781  0.3447  0.8348
 1631SOL     OW 6289   6.295   4.655   4.150  0.2116 -0.5695  0.5130
 1631SOL    HW2 6290   6.272   4.741   4.116  1.2088 -1.0602 -1.5280
 1631SOL    HW3 6291   6.316   4.671   4.242  0.1437  1.3131  0.2443
 1631SOL    MW4 6292   6.295   4.668   4.158  0.3342 -0.3859  0.2082
 1632SOL     OW 6293   2.220   1.550   0.978  0.0789  0.1382  0.0834
 1632SOL    HW2 6294   2.126   1.566   0.969  0.1670  0.5343 -0.1284
 1632SOL    HW3 6295   2.229   1.455   0.968  0.0653  0.3906 -3.1167
 1632SOL    MW4 6296   2.209   1.540   0.976  0.0888  0.2238 -0.3668
 1633SOL     OW 6297   2.818   1.123   6.124 -0.2347  0.4664 -0.5275
 1633SOL    HW2 6298   2.810   1.079   6.039 -0.0417 -3.6793  1.3263
 1633SOL    HW3 6299   2.728   1.139   6.152 -0.4063 -0.4412 -0.5260
 1633SOL    MW4 6300   2.805   1.119   6.116 -0.2319 -0.2004 -0.2827
 1634SOL     OW 6301   1.402   5.446   2.116 -0.5333  0.8814 -0.4711
 1634SOL    HW2 6302   1.334   5.432   2.183 -0.0806  1.2579  0.0791
 1634SOL    HW3 6303   1.434   5.358   2.097  0.6996  0.8894  1.2865
 1634SOL    MW4 6304   1.397   5.432   2.123 -0.3109  0.9321 -0.1666
 1635SOL     OW 6305   4.333  -0.013   1.508  0.5563  0.1614 -0.2149
 1635SOL    HW2 6306   4.372  -0.089   1.553  0.8906  0.9801  0.9216
 1635SOL    HW3 6307   4.240  -0.018   1.529 -0.0931 -1.8122 -2.9536
 1635SOL    MW4 6308   4.326  -0.024   1.517  0.5147  0.0090 -0.4263
 1636SOL     OW 6309   0.436   1.949   5.031 -0.1520  0.1292 -0.3573
 1636SOL    HW2 6310   0.412   2.038   5.007  0.6427  0.8728  1.4183
 1636SOL    HW3 6311   0.507   1.927   4.971 -0.9045  0.3558 -1.3561
 1636SOL    MW4 6312   0.443   1.958   5.020 -0.1464  0.2572 -0.2548
 1637SOL     OW 6313   1.552   1.888   4.751 -0.0708  0.0433  0.3333
 1637SOL    HW2 6314   1.463   1.862   4.726  0.2018 -0.1140 -0.5027
 1637SOL    HW3 6315   1.541   1.972   4.795 -0.6293  0.0692  0.1532
 1637SOL    MW4 6316   1.539   1.895   4.753 -0.1085  0.0260  0.1992
 1638SOL     OW 6317   3.932   5.858   5.405 -0.5207  0.3472 -0.0129
 1638SOL    HW2 6318   3.891   5.874   5.321 -0.0259  0.4834 -0.2329
 1638SOL    HW3 6319   3.930   5.763   5.415 -0.0213  0.2811 -0.4725
 1638SOL    MW4 6320   3.926   5.848   5.395 -0.3895  0.3565 -0.1026
 1639SOL     OW 6321   3.575   0.708   5.358 -0.7296  0.3001  0.0792
 1639SOL    HW2 6322   3.668   0.703   5.337 -0.9138  1.1832 -1.0293
 1639SOL    HW3 6323   3.570   0.768   5.432 -0.3695 -0.2858  0.5908
 1639SOL    MW4 6324   3.587   0.715   5.365 -0.7064  0.3393  0.0004
 1640SOL     OW 6325   3.355   0.882   3.160  0.0084  0.7268 -0.7697
 1640SOL    HW2 6326   3.449   0.899   3.158  0.0520  0.7844  0.6304
 1640SOL    HW3 6327   3.331   0.891   3.252 -1.2623  0.0843 -1.0133
 1640SOL    MW4 6328   3.364   0.886   3.172 -0.1535  0.6496 -0.6171
 1641SOL     OW 6329   6.121   3.689   0.996 -0.4858 -0.4055  0.3436
 1641SOL    HW2 6330   6.059   3.760   0.982 -2.6632 -1.5051  3.2441
 1641SOL    HW3 6331   6.194   3.730   1.043 -0.8790  0.2169  0.4245
 1641SOL    MW4 6332   6.123   3.704   1.000 -0.8249 -0.4685  0.7370
 1642SOL     OW 6333   0.143   3.004   4.256  0.0094 -0.0088 -0.2783
 1642SOL    HW2 6334   0.074   2.974   4.315  0.3097  1.2608  0.7709
 1642SOL    HW3 6335   0.176   2.924   4.215  0.6802 -1.1381  2.2645
 1642SOL    MW4 6336   0.138   2.990   4.259  0.1375  0.0097  0.1956
 1643SOL     OW 6337   2.848   3.775   1.407  0.0291 -0.0286  0.0435
 1643SOL    HW2 6338   2.867   3.684   1.385 -0.3237 -0.1984  0.4322
 1643SOL    HW3 6339   2.762   3.792   1.367  0.2490  0.2447 -0.3275
 1643SOL    MW4 6340   2.839   3.765   1.399  0.0115 -0.0149  0.0459
 1644SOL     OW 6341   4.085   3.138   1.135 -0.0696 -0.0391 -0.0165
 1644SOL    HW2 6342   4.099   3.231   1.120  1.1360 -0.0802  0.7151
 1644SOL    HW3 6343   4.001   3.132   1.179  0.0807  0.7468  0.3811
 1644SOL    MW4 6344   4.076   3.149   1.139  0.1093  0.0592  0.1325
 1645SOL     OW 6345   0.937   1.071   2.830  0.1142 -0.0067  0.2196
 1645SOL    HW2 6346   0.966   1.161   2.838  0.6970 -0.3096  2.1263
 1645SOL    HW3 6347   0.979   1.038   2.751 -0.5686  1.5250 -0.8250
 1645SOL    MW4 6348   0.946   1.078   2.821  0.1010  0.1555  0.3334
 1646SOL     OW 6349   4.457   4.704   3.330 -0.0587 -0.4972 -0.6535
 1646SOL    HW2 6350   4.422   4.623   3.368 -2.2584  0.8936  0.4746
 1646SOL    HW3 6351   4.385   4.766   3.334  2.2970  2.4167  1.1207
 1646SOL    MW4 6352   4.443   4.701   3.336 -0.0381  0.0707 -0.2706
 1647SOL     OW 6353   1.961   0.717   2.846  0.1234  0.3712  0.2257
 1647SOL    HW2 6354   1.992   0.782   2.783  0.1422  0.3491  0.2121
 1647SOL    HW3 6355   1.915   0.768   2.913 -0.9217  0.3018 -0.4170
 1647SOL    MW4 6356   1.959   0.732   2.846 -0.0120  0.3591  0.1391
 1648SOL     OW 6357   4.882   0.474   0.905  0.1293 -0.2452 -0.0019
 1648SOL    HW2 6358   4.930   0.556   0.922  1.9210 -1.4198  0.9438
 1648SOL    HW3 6359   4.796   0.489   0.944  0.1767  1.4353 -0.4670
 1648SOL    MW4 6360   4.877   0.487   0.913  0.3719 -0.1785  0.0615
 1649SOL     OW 6361   2.290   0.432   5.204  0.3514 -0.0764 -0.1443
 1649SOL    HW2 6362   2.333   0.518   5.204 -0.0284  0.1329  0.8894
 1649SOL    HW3 6363   2.352   0.374   5.248  0.6363 -0.3555 -0.9021
 1649SOL    MW4 6364   2.304   0.436   5.210  0.3389 -0.0856 -0.1079
 1650SOL     OW 6365   3.870   5.868   2.627  0.2265  0.3993 -0.5165
 1650SOL    HW2 6366   3.786   5.842   2.665 -0.2297 -1.0428 -2.3419
 1650SOL    HW3 6367   3.848   5.935   2.563  0.5643  0.5555 -0.4697
 1650SOL    MW4 6368   3.856   5.873   2.623  0.2109  0.2296 -0.7511
 1651SOL     OW 6369   3.448   4.354   2.694  0.3651 -0.0139 -0.0007
 1651SOL    HW2 6370   3.448   4.309   2.778  0.9149  0.1721  0.0974
 1651SOL    HW3 6371   3.419   4.287   2.631 -0.1802 -0.1136  0.3495
 1651SOL    MW4 6372   3.444   4.339   2.697  0.3657 -0.0025  0.0585
 1652SOL     OW 6373   0.502   3.143   0.695  0.2111 -0.2843  0.2272
 1652SOL    HW2 6374   0.434   3.085   0.659  0.6690 -0.2495 -0.7169
 1652SOL    HW3 6375   0.529   3.198   0.621  1.4216 -0.4417  0.5317
 1652SOL    MW4 6376   0.497   3.143   0.680  0.4312 -0.3005  0.1428
 1653SOL     OW 6377   2.565   0.178   5.878 -0.4009 -0.3427 -0.2019
 1653SOL    HW2 6378   2.539   0.114   5.944  0.1157 -0.3004  0.0511
 1653SOL    HW3 6379   2.652   0.148   5.849  0.0255  0.4672  0.2129
 1653SOL    MW4 6380   2.573   0.165   5.883 -0.2765 -0.2302 -0.1138
 1654SOL     OW 6381   3.219   2.703   3.231 -0.3491 -0.2335  0.5288
 1654SOL    HW2 6382   3.161   2.641   3.187 -1.4750  1.6887 -0.8432
 1654SOL    HW3 6383   3.307   2.679   3.202 -0.7937 -0.9525 -0.2562
 1654SOL    MW4 6384   3.223   2.692   3.221 -0.5563 -0.0748  0.2442
 1655SOL     OW 6385   2.899   4.162   1.228  0.1773  0.1446 -0.2968
 1655SOL    HW2 6386   2.901   4.076   1.185  1.4937  0.0569 -0.1147
 1655SOL    HW3 6387   2.915   4.142   1.320  0.6611  0.5862 -0.2809
 1655SOL    MW4 6388   2.901   4.148   1.234  0.4148  0.1913 -0.2707
 1656SOL     OW 6389   0.632   4.517   4.371 -0.2025  0.2305  0.0770
 1656SOL    HW2 6390   0.572   4.586   4.344 -1.9732 -0.9508  0.7501
 1656SOL    HW3 6391   0.579   4.437   4.368  1.1859 -0.7959  1.2740
 1656SOL    MW4 6392   0.617   4.515   4.367 -0.2529 -0.0608  0.3237
 1657SOL     OW 6393   3.655   4.809   1.911  0.4253  0.3295  0.1646
 1657SOL    HW2 6394   3.705   4.742   1.958  1.5790  1.2475  0.2594
 1657SOL    HW3 6395   3.565   4.776   1.913  0.7132 -0.4559  1.5765
 1657SOL    MW4 6396   3.650   4.796   1.917  0.6155  0.3470  0.3634
 1658SOL     OW 6397   5.560   1.461   0.063 -0.3714 -0.0651 -0.0023
 1658SOL    HW2 6398   5.497   1.478  -0.007  1.3722 -1.9402 -2.1684
 1658SOL    HW3 6399   5.624   1.532   0.057  0.0202 -0.4649 -0.6390
 1658SOL    MW4 6400   5.560   1.472   0.053 -0.0897 -0.3652 -0.3721
 1659SOL     OW 6401   1.528   4.597   1.702 -0.5606 -0.0567 -0.4005
 1659SOL    HW2 6402   1.622   4.611   1.691  0.0672 -2.4099  1.3152
 1659SOL    HW3 6403   1.507   4.640   1.785 -0.4494 -1.6009  0.4529
 1659SOL    MW4 6404   1.537   4.605   1.711 -0.4631 -0.5709 -0.0615
 1660SOL     OW 6405   4.783   3.186   1.714 -0.8610  0.4696 -0.1555
 1660SOL    HW2 6406   4.694   3.217   1.732 -0.7142 -0.2165  1.9903
 1660SOL    HW3 6407   4.784   3.096   1.746  1.1292  1.0924  1.7304
 1660SOL    MW4 6408   4.771   3.178   1.720 -0.5791  0.4612  0.3764
 1661SOL     OW 6409   5.164   5.846   3.456 -0.4033  0.4896  0.2903
 1661SOL    HW2 6410   5.224   5.917   3.433 -0.9465  1.7962  2.5822
 1661SOL    HW3 6411   5.210   5.767   3.429  0.7457  1.6267 -1.2822
 1661SOL    MW4 6412   5.178   5.845   3.449 -0.3234  0.8120  0.3852
 1662SOL     OW 6413   1.823   2.502   5.290 -0.7181  0.1350  0.4233
 1662SOL    HW2 6414   1.843   2.445   5.216 -1.5662  0.3870 -0.0126
 1662SOL    HW3 6415   1.887   2.479   5.357  0.3659  0.2363 -0.5628
 1662SOL    MW4 6416   1.834   2.492   5.289 -0.6870  0.1816  0.2357
 1663SOL     OW 6417   2.410   1.199   5.064 -0.2703 -0.3788 -0.2003
 1663SOL    HW2 6418   2.416   1.257   4.987  0.9204 -1.9068 -1.3283
 1663SOL    HW3 6419   2.323   1.216   5.100 -0.2961  1.4398 -1.0141
 1663SOL    MW4 6420   2.400   1.209   5.058 -0.1166 -0.3404 -0.4565
 1664SOL     OW 6421   0.644   5.463   5.224 -0.2644 -0.2512 -0.1998
 1664SOL    HW2 6422   0.727   5.430   5.259  0.1246 -2.7062 -3.0749
 1664SOL    HW3 6423   0.591   5.481   5.302  2.5385  0.4153  1.7057
 1664SOL    MW4 6424   0.648   5.461   5.239  0.1567 -0.4872 -0.3277
 1665SOL     OW 6425   6.243   4.039   3.372  0.6941  0.2600  0.2545
 1665SOL    HW2 6426   6.281   3.953   3.350  1.3838  1.3586 -3.7918
 1665SOL    HW3 6427   6.318   4.091   3.400  0.4770 -0.0620  1.4987
 1665SOL    MW4 6428   6.258   4.034   3.373  0.7565  0.3625 -0.1152
 1666SOL     OW 6429   5.259   0.373   3.447 -0.3432  0.2347 -0.1315
 1666SOL    HW2 6430   5.257   0.460   3.487  1.2455  0.2558 -0.0526
 1666SOL    HW3 6431   5.343   0.369   3.402 -0.0392 -1.5546  0.5207
 1666SOL    MW4 6432   5.269   0.384   3.446 -0.0935  0.0014 -0.0351
 1667SOL     OW 6433   5.035   3.820   3.523  0.1861  0.3117 -0.0088
 1667SOL    HW2 6434   5.059   3.762   3.451  2.6243  0.5764  0.4887
 1667SOL    HW3 6435   5.028   3.907   3.483 -1.0425  0.0705 -0.3410
 1667SOL    MW4 6436   5.038   3.824   3.508  0.3457  0.3148  0.0130
 1668SOL     OW 6437   0.441   3.212   3.166  0.5008 -0.0281 -0.2399
 1668SOL    HW2 6438   0.522   3.161   3.154  0.2434 -0.2729 -1.0091
 1668SOL    HW3 6439   0.465   3.301   3.139  0.4934 -0.1236 -0.5741
 1668SOL    MW4 6440   0.455   3.217   3.160  0.4658 -0.0730 -0.3855
 1669SOL     OW 6441   3.247   2.595   1.081 -0.0921 -0.4786 -0.1837
 1669SOL    HW2 6442   3.245   2.658   1.009  0.4343  0.2000  0.3870
 1669SOL    HW3 6443   3.325   2.542   1.065  1.7913  1.6107  1.4652
 1669SOL    MW4 6444   3.257   2.596   1.069  0.2258 -0.1134  0.1092
 1670SOL     OW 6445   1.549   1.585   0.343 -0.0003  0.2876  0.2335
 1670SOL    HW2 6446   1.590   1.500   0.328 -0.1875 -0.0199  1.3884
 1670SOL    HW3 6447   1.482   1.568   0.409 -0.2471  1.2764  0.2519
 1670SOL    MW4 6448   1.546   1.571   0.350 -0.0575  0.3775  0.3883
 1671SOL     OW 6449   2.935   1.466   4.660  0.4618  0.3029 -0.1040
 1671SOL    HW2 6450   2.969   1.380   4.683  0.4431 -0.1089 -1.5150
 1671SOL    HW3 6451   2.883   1.451   4.581 -0.3039  1.4652  0.1492
 1671SOL    MW4 6452   2.932   1.453   4.652  0.3583  0.4020 -0.2568
 1672SOL     OW 6453   5.178   0.051   4.918 -1.0659  0.6092  0.1662
 1672SOL    HW2 6454   5.106   0.104   4.952  0.4326  2.9111 -0.0140
 1672SOL    HW3 6455   5.240   0.115   4.884  0.7023 -1.3258 -0.4267
 1672SOL    MW4 6456   5.177   0.067   4.918 -0.6349  0.6576  0.0642
 1673SOL     OW 6457   5.975   0.322   4.400 -0.2887  0.3964 -0.1359
 1673SOL    HW2 6458   5.906   0.324   4.467 -0.8765 -0.6360 -0.6749
 1673SOL    HW3 6459   5.928   0.329   4.317  0.0695 -1.8063 -0.5847
 1673SOL    MW4 6460   5.960   0.323   4.398 -0.3190 -0.0305 -0.2662
 1674SOL     OW 6461   3.198   0.770   0.719  0.5074 -0.0962 -0.0074
 1674SOL    HW2 6462   3.150   0.824   0.782 -0.0527 -0.5558 -0.0334
 1674SOL    HW3 6463   3.152   0.686   0.719  0.2844  0.0015 -1.2802
 1674SOL    MW4 6464   3.185   0.766   0.727  0.4041 -0.1440 -0.1788
 1675SOL     OW 6465   1.559   4.357   0.243 -0.1590  0.1194  0.7980
 1675SOL    HW2 6466   1.566   4.438   0.193 -1.5417 -0.0058  0.3663
 1675SOL    HW3 6467   1.594   4.379   0.329  1.1103  0.6762  0.1560
 1675SOL    MW4 6468   1.564   4.371   0.248 -0.1739  0.1764  0.6563
 1676SOL     OW 6469   1.603   0.500   6.258 -0.5356  0.2753  0.0045
 1676SOL    HW2 6470   1.591   0.447   6.337  0.9112  0.6140  0.4822
 1676SOL    HW3 6471   1.690   0.476   6.226 -1.1040  0.1108 -1.5410
 1676SOL    MW4 6472   1.613   0.490   6.264 -0.4197  0.2983 -0.1364
 1677SOL     OW 6473   6.365   2.869   4.378  0.3708 -0.1200 -0.0071
 1677SOL    HW2 6474   6.344   2.778   4.356  0.3257  0.1049 -0.9592
 1677SOL    HW3 6475   6.325   2.920   4.308  0.5091  0.6278  0.4503
 1677SOL    MW4 6476   6.357   2.864   4.366  0.3831  0.0083 -0.0724
 1678SOL     OW 6477   4.233   2.537   2.416 -0.6528 -0.3816  0.1114
 1678SOL    HW2 6478   4.174   2.560   2.487  1.8537  1.8646  1.6873
 1678SOL    HW3 6479   4.313   2.507   2.460  0.9796  1.0468 -1.6802
 1678SOL    MW4 6480   4.236   2.537   2.431 -0.1068  0.1032  0.0830
 1679SOL     OW 6481   4.360   4.394   3.900 -0.8606  0.0582 -0.5137
 1679SOL    HW2 6482   4.425   4.340   3.946  0.8800 -0.1202 -2.9507
 1679SOL    HW3 6483   4.290   4.408   3.963  1.2148 -0.3907  2.0313
 1679SOL    MW4 6484   4.360   4.389   3.914 -0.3571 -0.0245 -0.4995
 1680SOL     OW 6485   3.959   0.488   4.036 -0.1655  0.3384  0.4766
 1680SOL    HW2 6486   3.885   0.434   4.063 -0.1498  1.2271  2.4031
 1680SOL    HW3 6487   3.920   0.572   4.011 -0.1048 -0.2249 -1.7588
 1680SOL    MW4 6488   3.944   0.492   4.036 -0.1554  0.3813  0.4358
 1681SOL     OW 6489   3.614   3.430   4.427 -0.6964 -0.2114 -0.2634
 1681SOL    HW2 6490   3.667   3.495   4.381 -1.3771  0.0477 -0.7015
 1681SOL    HW3 6491   3.659   3.347   4.410  1.7827  0.3735  2.6276
 1681SOL    MW4 6492   3.627   3.427   4.418 -0.4591 -0.1001  0.0602
 1682SOL     OW 6493   3.192   2.062   6.390 -0.0386 -0.0631 -0.3416
 1682SOL    HW2 6494   3.256   2.008   6.344 -0.5223 -1.1741  0.2611
 1682SOL    HW3 6495   3.235   2.087   6.471  0.2869  0.7008 -0.7434
 1682SOL    MW4 6496   3.206   2.058   6.395 -0.0595 -0.1089 -0.3151
 1683SOL     OW 6497   4.876   2.878   1.234 -0.2427  0.5000  0.3095
 1683SOL    HW2 6498   4.941   2.879   1.164  0.8004  0.5372  1.2486
 1683SOL    HW3 6499   4.886   2.963   1.278 -1.0032  0.5507  0.4123
 1683SOL    MW4 6500   4.886   2.890   1.231 -0.2054  0.5116  0.4470
 1684SOL     OW 6501   1.716   3.065   5.811 -0.6509  0.0486 -0.4095
 1684SOL    HW2 6502   1.776   3.043   5.883  0.9795  1.2360 -1.3227
 1684SOL    HW3 6503   1.664   3.138   5.844  0.0163  0.5165 -0.3496
 1684SOL    MW4 6504   1.717   3.072   5.825 -0.3477  0.2670 -0.5221
 1685SOL     OW 6505   3.959   4.787   1.822 -0.2587  0.0532 -0.1275
 1685SOL    HW2 6506   3.900   4.843   1.771 -2.6097 -0.6648  1.5751
 1685SOL    HW3 6507   3.996   4.726   1.759  0.1462  1.7070 -1.5626
 1685SOL    MW4 6508   3.956   4.787   1.807 -0.5155  0.1766 -0.0922
 1686SOL     OW 6509   3.321   1.208   5.776  0.1214 -0.2716 -0.6068
 1686SOL    HW2 6510   3.236   1.220   5.731  0.0781 -1.6606 -0.9383
 1686SOL    HW3 6511   3.357   1.296   5.782 -0.4722  0.1246 -2.2358
 1686SOL    MW4 6512   3.314   1.221   5.771  0.0374 -0.4026 -0.8655
 1687SOL     OW 6513   4.374   6.354   2.399 -0.2134 -0.1376 -0.4298
 1687SOL    HW2 6514   4.426   6.274   2.392 -1.7138 -1.0629 -1.7026
 1687SOL    HW3 6515   4.404   6.409   2.327  1.6738  1.0462  1.1603
 1687SOL    MW4 6516   4.385   6.350   2.388 -0.1624 -0.1035 -0.3880
 1688SOL     OW 6517   2.543   1.995   2.620  0.1076  0.2963  0.1347
 1688SOL    HW2 6518   2.546   2.053   2.697 -0.0514 -0.5867  0.8198
 1688SOL    HW3 6519   2.454   2.005   2.587  0.7635  2.2737 -1.2187
 1688SOL    MW4 6520   2.531   2.004   2.626  0.1731  0.4407  0.0466
 1689SOL     OW 6521   2.724   2.036   4.351  0.6711  0.6279 -0.1192
 1689SOL    HW2 6522   2.646   1.987   4.377 -0.1206  2.0227  0.2127
 1689SOL    HW3 6523   2.797   1.986   4.387 -0.0966 -0.3663  0.1002
 1689SOL    MW4 6524   2.723   2.023   4.359  0.4654  0.6808 -0.0464
 1690SOL     OW 6525   0.662   3.284   6.163 -0.1841 -0.2545 -0.0304
 1690SOL    HW2 6526   0.716   3.319   6.092 -0.3988 -0.7933 -0.4746
 1690SOL    HW3 6527   0.626   3.361   6.207  1.2008  0.1203  0.4912
 1690SOL    MW4 6528   0.664   3.299   6.159 -0.0297 -0.2761 -0.0202
 1691SOL     OW 6529   3.215   5.495   3.360  0.0498  0.1800  0.3019
 1691SOL    HW2 6530   3.141   5.484   3.420 -0.3169  1.2520  0.0711
 1691SOL    HW3 6531   3.176   5.532   3.281  0.4418 -1.7333 -0.8484
 1691SOL    MW4 6532   3.200   5.498   3.357  0.0532  0.0690  0.1197
 1692SOL     OW 6533   5.418   3.204   2.990  0.1848  1.0241  0.2601
 1692SOL    HW2 6534   5.408   3.274   3.055  0.2636  0.8100  0.5022
 1692SOL    HW3 6535   5.349   3.221   2.926  0.2577  1.3745  0.2735
 1692SOL    MW4 6536   5.408   3.216   2.990  0.2049  1.0421  0.2939
 1693SOL     OW 6537   1.938   6.205   3.390 -0.2437  0.1761 -0.3642
 1693SOL    HW2 6538   1.884   6.211   3.469  0.8341 -1.1141  0.5115
 1693SOL    HW3 6539   1.911   6.281   3.337 -1.2800  0.8377  1.0394
 1693SOL    MW4 6540   1.927   6.216   3.393 -0.2382  0.0932 -0.0635
 1694SOL     OW 6541   5.721   5.982   2.248  0.9318  0.0396  0.7521
 1694SOL    HW2 6542   5.658   5.929   2.296  0.4534 -0.1877 -0.0970
 1694SOL    HW3 6543   5.736   6.058   2.304 -0.4033  0.2905  0.8056
 1694SOL    MW4 6544   5.715   5.985   2.262  0.6925  0.0427  0.6472
 1695SOL     OW 6545   0.872   4.235   1.845 -0.1313 -0.6468  0.1038
 1695SOL    HW2 6546   0.954   4.264   1.805  0.0452 -1.6690 -0.3198
 1695SOL    HW3 6547   0.844   4.161   1.791 -2.2968  0.7890 -0.8478
 1695SOL    MW4 6548   0.879   4.229   1.833 -0.3937 -0.5923 -0.0777
 1696SOL     OW 6549   0.778   2.789   0.984  0.2244  0.5325  0.5047
 1696SOL    HW2 6550   0.833   2.806   1.061  0.5631  0.4983  0.2713
 1696SOL    HW3 6551   0.750   2.875   0.956 -1.2273  0.4670  1.6189
 1696SOL    MW4 6552   0.782   2.802   0.991  0.0776  0.5194  0.6209
 1697SOL     OW 6553   5.996   3.403   1.085 -0.2456 -0.1618  0.4571
 1697SOL    HW2 6554   5.907   3.417   1.055 -0.2057 -1.2661 -0.2383
 1697SOL    HW3 6555   6.019   3.484   1.131 -0.6941  1.1751 -1.5357
 1697SOL    MW4 6556   5.987   3.415   1.087 -0.2996 -0.1311  0.1024
 1698SOL     OW 6557   2.448   4.446   5.201  0.1142  0.4266  0.2564
 1698SOL    HW2 6558   2.414   4.477   5.117 -2.2866  0.1964  1.0554
 1698SOL    HW3 6559   2.479   4.524   5.246 -0.4969  0.8341 -0.0295
 1698SOL    MW4 6560   2.448   4.460   5.195 -0.2832  0.4500  0.3241
 1699SOL     OW 6561   5.209   0.149   2.433  0.2117  0.3203  0.6268
 1699SOL    HW2 6562   5.290   0.191   2.404  0.1941  0.5750  0.9484
 1699SOL    HW3 6563   5.229   0.113   2.519  0.0211  0.2717  0.6523
 1699SOL    MW4 6564   5.222   0.150   2.440  0.1842  0.3475  0.6726
 1700SOL     OW 6565   2.512   1.013   4.249  0.4674 -0.3983 -0.5767
 1700SOL    HW2 6566   2.437   0.973   4.206 -0.1456 -1.3152  1.2360
 1700SOL    HW3 6567   2.482   1.101   4.273  0.1209 -0.6021 -0.2533
 1700SOL    MW4 6568   2.498   1.019   4.246  0.3408 -0.5462 -0.2949
 1701SOL     OW 6569   2.954   4.411   1.890  0.3581  0.6405  0.1333
 1701SOL    HW2 6570   2.989   4.462   1.818 -0.9474  1.7590  0.2635
 1701SOL    HW3 6571   2.947   4.473   1.963 -0.2947  0.0328  0.6007
 1701SOL    MW4 6572   2.958   4.426   1.890  0.0998  0.7079  0.2121
 1702SOL     OW 6573   0.863   4.453   3.353 -0.1192 -0.0905  0.0753
 1702SOL    HW2 6574   0.911   4.494   3.281 -1.0254  1.5726  0.3619
 1702SOL    HW3 6575   0.921   4.462   3.428 -0.3515  0.8195  0.1601
 1702SOL    MW4 6576   0.877   4.460   3.353 -0.2694  0.2490  0.1243
 1703SOL     OW 6577   2.734   0.831   6.199  0.6221 -0.3997 -0.0565
 1703SOL    HW2 6578   2.795   0.876   6.257  1.1256 -0.5374 -0.4728
 1703SOL    HW3 6579   2.788   0.804   6.124  0.0379 -0.4725 -0.4528
 1703SOL    MW4 6580   2.749   0.833   6.197  0.6114 -0.4275 -0.1637
 1704SOL     OW 6581   1.635   1.420   3.662  0.2267  0.1356  0.0550
 1704SOL    HW2 6582   1.632   1.413   3.567  1.2429 -2.0226  0.1217
 1704SOL    HW3 6583   1.719   1.381   3.686 -0.6050 -0.6244  1.9191
 1704SOL    MW4 6584   1.646   1.414   3.653  0.2511 -0.2494  0.3098
 1705SOL     OW 6585   0.093   0.590   1.078  0.2136  0.0246 -0.0028
 1705SOL    HW2 6586   0.029   0.646   1.034 -0.8634 -2.1475 -1.4416
 1705SOL    HW3 6587   0.121   0.640   1.154 -0.2241  2.6939 -1.4725
 1705SOL    MW4 6588   0.088   0.604   1.082  0.0137  0.0902 -0.3866
 1706SOL     OW 6589   0.069   1.584   5.020  0.4596 -0.3171 -0.1675
 1706SOL    HW2 6590   0.122   1.629   5.086  1.2985  0.6590 -1.4542
 1706SOL    HW3 6591   0.128   1.574   4.945 -0.4108 -1.5510 -0.7278
 1706SOL    MW4 6592   0.084   1.588   5.018  0.4554 -0.3511 -0.4112
 1707SOL     OW 6593   0.066   4.277   2.454  0.0525  0.1258  0.3532
 1707SOL    HW2 6594  -0.029   4.286   2.447 -0.3252 -2.2304  1.2093
 1707SOL    HW3 6595   0.081   4.259   2.547  1.2422 -0.2837  0.1043
 1707SOL    MW4 6596   0.055   4.275   2.466  0.1597 -0.2391  0.4333
 1708SOL     OW 6597   0.809   5.782   0.229  0.1683  0.0542 -0.0718
 1708SOL    HW2 6598   0.766   5.780   0.315 -0.1355 -1.1090 -0.2282
 1708SOL    HW3 6599   0.761   5.848   0.179 -0.0846  0.2571  0.4402
 1708SOL    MW4 6600   0.797   5.790   0.234  0.0948 -0.0725 -0.0249
 1709SOL     OW 6601   0.726   5.583   4.645  0.1712  0.5102  0.7937
 1709SOL    HW2 6602   0.767   5.614   4.726  0.3105  0.2714  0.8169
 1709SOL    HW3 6603   0.637   5.617   4.649  0.2778  0.7803  0.8886
 1709SOL    MW4 6604   0.719   5.592   4.656  0.2036  0.5143  0.8093
 1710SOL     OW 6605   2.865   5.556   1.090 -0.3385  0.5530  0.2599
 1710SOL    HW2 6606   2.846   5.477   1.039  0.6222  0.1006  0.5813
 1710SOL    HW3 6607   2.880   5.524   1.179 -0.7748  1.1957  0.5752
 1710SOL    MW4 6608   2.864   5.541   1.095 -0.2693  0.5781  0.3439
 1711SOL     OW 6609   4.189   5.496   2.679 -0.3710 -0.5256 -0.7489
 1711SOL    HW2 6610   4.268   5.498   2.733 -1.8044 -1.1556  1.4876
 1711SOL    HW3 6611   4.132   5.563   2.718 -2.1043 -2.1675 -0.3511
 1711SOL    MW4 6612   4.192   5.505   2.691 -0.7888 -0.8254 -0.4013
 1712SOL     OW 6613   6.340   1.702   0.395  0.3568  0.4132 -0.0370
 1712SOL    HW2 6614   6.273   1.770   0.388 -0.1256 -0.0125  0.3591
 1712SOL    HW3 6615   6.399   1.733   0.464  2.2531  2.1810 -2.2910
 1712SOL    MW4 6616   6.339   1.715   0.403  0.5433  0.5902 -0.2821
 1713SOL     OW 6617   3.733   6.118   0.258  0.4704 -0.0798  0.5567
 1713SOL    HW2 6618   3.810   6.125   0.313  0.5531 -0.6279  0.5175
 1713SOL    HW3 6619   3.660   6.144   0.314  0.3865 -1.8589  1.3506
 1713SOL    MW4 6620   3.733   6.122   0.272  0.4702 -0.3869  0.6563
 1714SOL     OW 6621   2.697   0.995   1.763 -0.6116  0.1329  0.0084
 1714SOL    HW2 6622   2.632   1.036   1.705 -0.5565  1.4851  0.8570
 1714SOL    HW3 6623   2.736   0.926   1.710 -0.8454  1.0622 -1.4322
 1714SOL    MW4 6624   2.693   0.991   1.749 -0.6352  0.4339 -0.0697
 1715SOL     OW 6625   1.215   1.605   1.466  0.2576 -0.1891  0.6682
 1715SOL    HW2 6626   1.309   1.622   1.470  0.0158  2.3422 -1.4401
 1715SOL    HW3 6627   1.175   1.685   1.500 -1.2467 -1.8237  3.0950
 1715SOL    MW4 6628   1.222   1.618   1.471  0.0272 -0.0708  0.7102
 1716SOL     OW 6629   5.650   3.928   0.167 -0.4754 -0.7371  0.0878
 1716SOL    HW2 6630   5.596   3.858   0.130  0.0611 -0.4178 -1.3517
 1716SOL    HW3 6631   5.661   3.903   0.259  0.8868 -3.3143 -0.6886
 1716SOL    MW4 6632   5.644   3.915   0.174 -0.2249 -1.0350 -0.2045
 1717SOL     OW 6633   2.464   1.656   4.634  0.2465 -0.4441 -0.3801
 1717SOL    HW2 6634   2.369   1.649   4.634  0.1212  0.7974 -1.8340
 1717SOL    HW3 6635   2.494   1.587   4.575  0.1915 -0.4052 -0.4539
 1717SOL    MW4 6636   2.456   1.646   4.626  0.2227 -0.2752 -0.5816
 1718SOL     OW 6637   3.753   3.299   5.083  0.5941  0.3004  1.0521
 1718SOL    HW2 6638   3.791   3.228   5.031 -2.3246  0.0172 -0.9212
 1718SOL    HW3 6639   3.710   3.355   5.018 -0.0202  2.0467  2.8864
 1718SOL    MW4 6640   3.753   3.297   5.067  0.1280  0.4934  1.0337
 1719SOL     OW 6641   5.757   3.021   0.623  0.0605  0.2321 -0.9867
 1719SOL    HW2 6642   5.662   3.014   0.615 -0.3855  0.8584  2.1912
 1719SOL    HW3 6643   5.788   2.931   0.628 -1.2336 -0.2442  3.7442
 1719SOL    MW4 6644   5.748   3.008   0.623 -0.1691  0.2519  0.0568
 1720SOL     OW 6645   1.655   4.452   4.561 -0.5332 -0.6520  0.3844
 1720SOL    HW2 6646   1.699   4.453   4.646  0.5930  0.7854 -0.1510
 1720SOL    HW3 6647   1.565   4.476   4.580 -0.6894 -1.9074  1.3255
 1720SOL    MW4 6648   1.649   4.456   4.574 -0.4052 -0.6280  0.4380
 1721SOL     OW 6649   5.854   0.486   2.830  0.2908  0.0325  0.3531
 1721SOL    HW2 6650   5.903   0.404   2.817  0.5809  0.3877 -0.9823
 1721SOL    HW3 6651   5.765   0.458   2.852 -0.2378 -0.7220 -2.3982
 1721SOL    MW4 6652   5.849   0.472   2.831  0.2594 -0.0202 -0.1861
 1722SOL     OW 6653   2.683   6.031   6.114  0.6273 -0.0412  0.4143
 1722SOL    HW2 6654   2.693   5.979   6.034  0.2289  0.2906  0.1469
 1722SOL    HW3 6655   2.767   6.020   6.160  1.9408  1.9152 -1.3385
 1722SOL    MW4 6656   2.696   6.023   6.110  0.7480  0.2607  0.1477
 1723SOL     OW 6657   0.100   1.289   2.791  0.3703 -0.0601 -0.2546
 1723SOL    HW2 6658   0.085   1.351   2.720 -1.0892  0.1139  0.1801
 1723SOL    HW3 6659   0.012   1.258   2.815  0.6950  0.7581  2.2509
 1723SOL    MW4 6660   0.086   1.293   2.785  0.2206  0.0708  0.1333
 1724SOL     OW 6661   0.809   1.831   0.573 -0.4436 -0.2584 -0.0624
 1724SOL    HW2 6662   0.838   1.771   0.642 -2.3775  1.5519  2.5393
 1724SOL    HW3 6663   0.877   1.898   0.569  0.1682 -0.9014 -0.6910
 1724SOL    MW4 6664   0.822   1.832   0.582 -0.6180 -0.1044  0.1979
 1725SOL     OW 6665   5.839   0.401   0.759 -0.2477 -0.7110  0.7074
 1725SOL    HW2 6666   5.924   0.420   0.798  0.0056 -0.9606  0.2790
 1725SOL    HW3 6667   5.776   0.439   0.820  0.1509 -0.9340  1.2620
 1725SOL    MW4 6668   5.842   0.409   0.772 -0.1617 -0.7734  0.7241
 1726SOL     OW 6669   0.122   5.208   2.726  0.2316  0.1115  0.0146
 1726SOL    HW2 6670   0.147   5.136   2.669  1.3634  0.7654 -0.3406
 1726SOL    HW3 6671   0.154   5.286   2.681  2.4312  0.5670  2.1723
 1726SOL    MW4 6672   0.129   5.209   2.713  0.6711  0.2578  0.2524
 1727SOL     OW 6673   3.370   4.662   5.836  0.4739  0.1091  0.1917
 1727SOL    HW2 6674   3.301   4.671   5.770 -1.1182 -1.2704  1.5334
 1727SOL    HW3 6675   3.350   4.578   5.879  1.1277  1.1645  2.7234
 1727SOL    MW4 6676   3.358   4.652   5.833  0.3501  0.0664  0.7028
 1728SOL     OW 6677   0.802   4.607   4.599 -0.0103  0.3985  0.0336
 1728SOL    HW2 6678   0.741   4.550   4.551  0.8794  0.4499 -1.1924
 1728SOL    HW3 6679   0.852   4.547   4.654  0.2642  0.1033 -0.5310
 1728SOL    MW4 6680   0.800   4.592   4.600  0.1433  0.3663 -0.2026
 1729SOL     OW 6681   5.696   3.455   0.979 -0.5053 -0.8207 -0.1499
 1729SOL    HW2 6682   5.715   3.378   0.925 -0.3330 -1.9858  1.4852
 1729SOL    HW3 6683   5.601   3.466   0.974 -0.7078 -2.0202  0.6909
 1729SOL    MW4 6684   5.686   3.446   0.971 -0.5093 -1.1327  0.1768
 1730SOL     OW 6685   5.816   4.054   5.088  0.0887 -0.3367  0.2824
 1730SOL    HW2 6686   5.734   4.024   5.127  0.7020 -1.0861  1.0340
 1730SOL    HW3 6687   5.837   3.988   5.022  0.0969 -0.1527  0.0980
 1730SOL    MW4 6688   5.808   4.041   5.085  0.1707 -0.4113  0.3572
 1731SOL     OW 6689   5.826   4.608   4.312 -0.2063 -0.0310 -0.5365
 1731SOL    HW2 6690   5.890   4.550   4.353 -0.0720  0.7466  0.3965
 1731SOL    HW3 6691   5.741   4.566   4.328 -0.1309  0.1307  0.3362
 1731SOL    MW4 6692   5.823   4.595   4.319 -0.1786  0.0929 -0.2983
 1732SOL     OW 6693   3.838   4.065   4.252  0.5371 -0.1428 -0.1854
 1732SOL    HW2 6694   3.807   4.069   4.161  1.2160 -0.8648 -0.4662
 1732SOL    HW3 6695   3.887   4.146   4.265 -1.1257  0.8444  0.1510
 1732SOL    MW4 6696   3.840   4.076   4.242  0.4073 -0.1078 -0.1780
 1733SOL     OW 6697   3.237   0.854   0.466 -0.3164 -0.3876  0.6946
 1733SOL    HW2 6698   3.214   0.850   0.559 -1.0662  0.4404  0.5568
 1733SOL    HW3 6699   3.203   0.773   0.429 -2.0048  0.2527  0.7380
 1733SOL    MW4 6700   3.229   0.843   0.474 -0.6381 -0.1939  0.6821
 1734SOL     OW 6701   0.377   0.986   3.315  0.6019  0.0836  0.1279
 1734SOL    HW2 6702   0.393   1.079   3.298  1.1231 -0.0421 -0.0739
 1734SOL    HW3 6703   0.407   0.973   3.405  0.5602  0.0999  0.1445
 1734SOL    MW4 6704   0.383   0.997   3.325  0.6652  0.0692  0.1035
 1735SOL     OW 6705   5.100   3.058   0.350  0.1389  0.2342  0.4585
 1735SOL    HW2 6706   5.085   3.135   0.405 -1.8459  1.4746 -1.6360
 1735SOL    HW3 6707   5.021   3.051   0.297  1.1126 -2.0841 -0.8336
 1735SOL    MW4 6708   5.088   3.067   0.350  0.0055  0.0919  0.0117
 1736SOL     OW 6709   6.154   5.557   0.784  0.5968  0.0378 -0.6295
 1736SOL    HW2 6710   6.140   5.576   0.691  0.0974  0.3733 -0.4864
 1736SOL    HW3 6711   6.162   5.462   0.788 -0.4456 -0.0710 -0.8804
 1736SOL    MW4 6712   6.153   5.547   0.772  0.3934  0.0677 -0.6437
 1737SOL     OW 6713   2.789   0.772   0.226 -0.1643 -0.1999 -0.5150
 1737SOL    HW2 6714   2.862   0.762   0.165 -0.4725 -1.2713 -0.7429
 1737SOL    HW3 6715   2.829   0.785   0.311  0.3113 -1.3941 -0.5406
 1737SOL    MW4 6716   2.804   0.772   0.229 -0.1422 -0.4988 -0.5484
 1738SOL     OW 6717   2.931   0.305   0.853  0.2775  0.4143  0.2186
 1738SOL    HW2 6718   3.027   0.305   0.844  0.2339 -2.0808 -1.5337
 1738SOL    HW3 6719   2.902   0.379   0.800  1.2031 -0.0262 -0.9606
 1738SOL    MW4 6720   2.940   0.314   0.845  0.3939  0.0269 -0.1682
 1739SOL     OW 6721   0.205   6.247   3.494  0.0267 -0.5730  0.0492
 1739SOL    HW2 6722   0.194   6.220   3.585 -0.5501 -1.2043 -0.1996
 1739SOL    HW3 6723   0.244   6.335   3.500 -0.5295 -0.3705  0.9052
 1739SOL    MW4 6724   0.209   6.255   3.507 -0.1228 -0.6296  0.1293
 1740SOL     OW 6725   4.755   3.894   5.425  0.3551 -0.1991 -0.2123
 1740SOL    HW2 6726   4.753   3.990   5.418  0.1891 -0.2200 -0.4645
 1740SOL    HW3 6727   4.799   3.866   5.344 -1.1088 -0.4257 -0.9661
 1740SOL    MW4 6728   4.761   3.903   5.413  0.1401 -0.2318 -0.3450
 1741SOL     OW 6729   1.354   5.578   2.641  0.0260  0.1377 -0.2430
 1741SOL    HW2 6730   1.443   5.590   2.674  0.0406  0.3020 -0.3380
 1741SOL    HW3 6731   1.338   5.484   2.646  1.3516 -0.3367 -3.1539
 1741SOL    MW4 6732   1.363   5.567   2.646  0.2028  0.0968 -0.6396
 1742SOL     OW 6733   4.479   3.980   4.291 -0.1717  0.1515  0.0395
 1742SOL    HW2 6734   4.474   3.908   4.354  1.9047  0.1226  0.2375
 1742SOL    HW3 6735   4.498   3.937   4.208 -3.1421  0.1661 -0.7580
 1742SOL    MW4 6736   4.481   3.964   4.289 -0.2897  0.1496 -0.0396
 1743SOL     OW 6737   3.919   2.748   0.199  0.0286 -0.3060 -0.1165
 1743SOL    HW2 6738   3.865   2.674   0.226 -0.8423  0.3194 -0.1283
 1743SOL    HW3 6739   3.946   2.726   0.110 -0.5711 -0.4203 -0.2750
 1743SOL    MW4 6740   3.916   2.735   0.191 -0.1654 -0.2386 -0.1390
 1744SOL     OW 6741   3.441   5.123   6.212  0.3143  0.3737 -0.1300
 1744SOL    HW2 6742   3.413   5.169   6.133 -0.4359 -0.8020 -0.5802
 1744SOL    HW3 6743   3.398   5.169   6.283 -0.6571  0.2082 -0.5951
 1744SOL    MW4 6744   3.432   5.135   6.211  0.0871  0.1967 -0.2508
 1745SOL     OW 6745   6.327   5.928   2.309 -0.3326  0.0175 -0.1253
 1745SOL    HW2 6746   6.297   6.019   2.307  0.1386  0.2094  0.9090
 1745SOL    HW3 6747   6.336   5.904   2.217 -0.9314  0.8563 -0.4193
 1745SOL    MW4 6748   6.324   5.937   2.296 -0.3494  0.1535 -0.0277
 1746SOL     OW 6749   4.096   5.125   5.048 -0.0768  0.0169  0.1040
 1746SOL    HW2 6750   4.162   5.070   5.006  0.9620  1.4878 -0.2562
 1746SOL    HW3 6751   4.056   5.173   4.976 -1.2231 -0.4915  0.3802
 1746SOL    MW4 6752   4.100   5.124   5.033 -0.0909  0.1439  0.0929
 1747SOL     OW 6753   2.743   3.184   4.433  0.3052  0.6007 -0.2794
 1747SOL    HW2 6754   2.825   3.233   4.443  0.6037  0.2957 -1.1087
 1747SOL    HW3 6755   2.674   3.249   4.449  0.6289  0.1667  3.7720
 1747SOL    MW4 6756   2.745   3.199   4.436  0.3872  0.5032  0.1457
 1748SOL     OW 6757   1.289   2.789   5.533 -0.0588 -0.1704  0.6623
 1748SOL    HW2 6758   1.210   2.838   5.558 -0.9154 -1.8795  1.5171
 1748SOL    HW3 6759   1.269   2.698   5.557  0.9154 -1.2240 -2.0984
 1748SOL    MW4 6760   1.276   2.783   5.540 -0.0433 -0.5349  0.4109
 1749SOL     OW 6761   1.543   6.350   2.693  0.5733 -0.2208  0.0730
 1749SOL    HW2 6762   1.562   6.285   2.625 -3.2337 -1.3080 -0.1583
 1749SOL    HW3 6763   1.560   6.304   2.775 -0.4285 -0.9780 -0.1193
 1749SOL    MW4 6764   1.548   6.335   2.695 -0.0612 -0.4642  0.0171
 1750SOL     OW 6765   2.317   5.977   4.879 -0.0420 -0.2465  0.0577
 1750SOL    HW2 6766   2.301   5.937   4.965 -0.3332 -2.5012 -0.9827
 1750SOL    HW3 6767   2.356   5.907   4.827  0.2487  1.1172 -1.6320
 1750SOL    MW4 6768   2.320   5.963   4.883 -0.0420 -0.3641 -0.3025
 1751SOL     OW 6769   0.130   1.994   2.413 -0.2598 -0.6824  0.2115
 1751SOL    HW2 6770   0.163   1.905   2.402  2.1582 -0.0491  1.6874
 1751SOL    HW3 6771   0.186   2.048   2.358 -1.1980  0.0515 -0.0589
 1751SOL    MW4 6772   0.142   1.989   2.404 -0.0645 -0.5021  0.3705
 1752SOL     OW 6773   5.962   5.981   1.081 -0.2319  0.1778 -0.3445
 1752SOL    HW2 6774   5.897   5.928   1.126 -0.0656 -0.4514 -0.8291
 1752SOL    HW3 6775   6.035   5.921   1.065  0.8825  1.1077  1.0397
 1752SOL    MW4 6776   5.963   5.966   1.085 -0.0629  0.2175 -0.2258
 1753SOL     OW 6777   0.921   4.369   5.024  0.4052 -0.2447  0.0806
 1753SOL    HW2 6778   0.828   4.384   5.039  0.6563  0.0831  1.4490
 1753SOL    HW3 6779   0.931   4.372   4.929 -0.9956 -0.4361 -0.0964
 1753SOL    MW4 6780   0.910   4.371   5.014  0.2535 -0.2267  0.2378
 1754SOL     OW 6781   4.235   3.967   0.196 -0.5538  0.0936 -0.4532
 1754SOL    HW2 6782   4.327   3.944   0.186 -0.5358 -0.9254  1.5390
 1754SOL    HW3 6783   4.188   3.883   0.189 -0.8271 -0.2302  3.1543
 1754SOL    MW4 6784   4.241   3.953   0.194 -0.5875 -0.0836  0.2856
 1755SOL     OW 6785   6.336   3.510   5.066 -0.0044 -0.3950  0.1897
 1755SOL    HW2 6786   6.341   3.469   4.980 -0.7726 -0.0777 -0.0114
 1755SOL    HW3 6787   6.427   3.513   5.097  0.3462  0.0189 -0.8560
 1755SOL    MW4 6788   6.349   3.505   5.059 -0.0595 -0.2985  0.0252
 1756SOL     OW 6789   4.675   3.203   4.518 -0.2463  0.2253 -0.4519
 1756SOL    HW2 6790   4.626   3.124   4.495 -0.3966  0.4522 -0.9243
 1756SOL    HW3 6791   4.667   3.260   4.441  0.8158  0.2410 -0.5715
 1756SOL    MW4 6792   4.668   3.200   4.505 -0.1260  0.2573 -0.5300
 1757SOL     OW 6793   2.958   3.523   1.286 -0.0758  0.2939 -0.5965
 1757SOL    HW2 6794   2.920   3.473   1.214 -0.9949 -0.3557  0.3004
 1757SOL    HW3 6795   3.036   3.564   1.249  0.6289 -1.6697 -1.4256
 1757SOL    MW4 6796   2.963   3.522   1.272 -0.1041 -0.0509 -0.5876
 1758SOL     OW 6797   3.839   0.817   1.472 -0.0205 -0.2217 -0.5046
 1758SOL    HW2 6798   3.772   0.882   1.489 -2.5524 -2.5715 -0.7460
 1758SOL    HW3 6799   3.839   0.807   1.376  1.4942  0.4927 -0.6076
 1758SOL    MW4 6800   3.830   0.824   1.461 -0.1547 -0.4374 -0.5500
 1759SOL     OW 6801   5.589   4.625   0.115  0.1976  0.4865  0.1999
 1759SOL    HW2 6802   5.590   4.720   0.122  0.0203  0.5472 -0.5793
 1759SOL    HW3 6803   5.498   4.600   0.130  0.4064  0.3576  1.3433
 1759SOL    MW4 6804   5.577   4.634   0.118  0.2018  0.4775  0.2479
 1760SOL     OW 6805   4.704   2.045   0.703  0.0406  0.5534  0.2128
 1760SOL    HW2 6806   4.758   2.000   0.767  3.4238 -1.3901 -3.5659
 1760SOL    HW3 6807   4.642   1.979   0.673  0.4624  0.4997 -0.5635
 1760SOL    MW4 6808   4.703   2.031   0.707  0.5426  0.2899 -0.3881
 1761SOL     OW 6809   0.553   2.653   2.088 -0.1877  0.7085 -0.0524
 1761SOL    HW2 6810   0.571   2.625   2.178  0.8609 -0.8109 -0.6894
 1761SOL    HW3 6811   0.493   2.727   2.098 -0.2762  0.4453  1.8825
 1761SOL    MW4 6812   0.548   2.659   2.101 -0.0610  0.4733  0.1189
 1762SOL     OW 6813   0.682   4.464   0.438  0.3417 -0.0226 -0.2776
 1762SOL    HW2 6814   0.769   4.495   0.412  0.5380 -0.0908  0.2963
 1762SOL    HW3 6815   0.627   4.481   0.361  0.8340  0.1280 -0.6019
 1762SOL    MW4 6816   0.686   4.470   0.424  0.4325 -0.0117 -0.2447
 1763SOL     OW 6817   4.248   3.556   0.933  0.1854 -0.7040  0.0374
 1763SOL    HW2 6818   4.192   3.623   0.894 -1.5285 -1.1538  1.5883
 1763SOL    HW3 6819   4.190   3.507   0.991  1.6815 -2.7231 -0.0521
 1763SOL    MW4 6820   4.233   3.558   0.935  0.1567 -1.0297  0.2302
 1764SOL     OW 6821   1.757   3.430   5.613 -0.9441  0.2365  0.1884
 1764SOL    HW2 6822   1.765   3.361   5.546 -1.4901 -0.0783  0.4417
 1764SOL    HW3 6823   1.841   3.475   5.610 -0.7012 -0.2250 -0.2214
 1764SOL    MW4 6824   1.769   3.427   5.604 -0.9841  0.1341  0.1678
 1765SOL     OW 6825   2.085   0.130   1.477 -0.1339  0.1596 -0.3165
 1765SOL    HW2 6826   2.030   0.060   1.514 -0.0936  0.0270 -0.5089
 1765SOL    HW3 6827   2.086   0.197   1.545  0.9299 -0.5876  0.4460
 1765SOL    MW4 6828   2.078   0.129   1.491  0.0118  0.0435 -0.2413
 1766SOL     OW 6829   4.614   1.163   2.209 -0.5999  0.2253 -0.1568
 1766SOL    HW2 6830   4.523   1.149   2.237 -0.0578 -1.1801  1.0082
 1766SOL    HW3 6831   4.608   1.170   2.114 -2.0534  1.3342 -0.0161
 1766SOL    MW4 6832   4.601   1.162   2.200 -0.7202  0.1862  0.0154
 1767SOL     OW 6833   1.574   1.406   2.744  0.1829  0.1322 -0.2999
 1767SOL    HW2 6834   1.595   1.500   2.750 -1.1485  0.5204 -1.2477
 1767SOL    HW3 6835   1.631   1.374   2.675 -1.7761  1.0740 -2.5107
 1767SOL    MW4 6836   1.584   1.414   2.736 -0.2513  0.3076 -0.7166
 1768SOL     OW 6837   0.023   4.703   0.146 -0.1031 -0.4616 -0.0521
 1768SOL    HW2 6838  -0.007   4.683   0.057 -0.9840  3.2799 -0.7483
 1768SOL    HW3 6839  -0.057   4.725   0.194  0.6678  1.4303  0.4673
 1768SOL    MW4 6840   0.008   4.703   0.141 -0.1176  0.2816 -0.0754
 1769SOL     OW 6841   5.429   2.280   2.166  0.3356  0.2464 -0.3352
 1769SOL    HW2 6842   5.463   2.245   2.248 -0.3782  2.6176  1.0933
 1769SOL    HW3 6843   5.360   2.219   2.140 -0.8071  0.4690  1.9594
 1769SOL    MW4 6844   5.424   2.268   2.173  0.0907  0.5886  0.1560
 1770SOL     OW 6845   3.301   3.052   1.818  0.3980  0.0798  0.2968
 1770SOL    HW2 6846   3.323   3.086   1.905 -0.1069 -1.0619  0.8851
 1770SOL    HW3 6847   3.366   2.985   1.801 -0.0520 -0.3404  0.2048
 1770SOL    MW4 6848   3.312   3.048   1.828  0.2720 -0.1263  0.3622
 1771SOL     OW 6849   0.467   4.467   2.922 -0.7172  0.4129 -0.1206
 1771SOL    HW2 6850   0.542   4.508   2.965 -0.5018 -0.4957  0.3798
 1771SOL    HW3 6851   0.475   4.492   2.830  0.2596  0.2187 -0.0916
 1771SOL    MW4 6852   0.478   4.476   2.916 -0.5599  0.2674 -0.0508
 1772SOL     OW 6853   6.341   2.933   2.327 -0.0514 -0.4219  0.1407
 1772SOL    HW2 6854   6.298   3.018   2.327  0.4287 -0.1522 -0.8809
 1772SOL    HW3 6855   6.340   2.905   2.418 -1.7981 -0.1424  0.2384
 1772SOL    MW4 6856   6.335   2.940   2.339 -0.2185 -0.3494  0.0188
 1773SOL     OW 6857   0.844   1.519   2.966 -0.3496  0.4544 -0.0794
 1773SOL    HW2 6858   0.834   1.601   2.918 -0.1843 -0.0705 -1.0255
 1773SOL    HW3 6859   0.759   1.507   3.009 -0.1869  1.4011  0.5428
 1773SOL    MW4 6860   0.831   1.528   2.966 -0.3063  0.5101 -0.1221
 1774SOL     OW 6861   2.378   0.351   2.152  0.3242  0.3760 -0.6877
 1774SOL    HW2 6862   2.459   0.389   2.187  0.0207 -0.0800  0.5648
 1774SOL    HW3 6863   2.406   0.273   2.104  0.7368  0.9291 -1.3609
 1774SOL    MW4 6864   2.392   0.346   2.151  0.3386  0.3888 -0.6113
 1775SOL     OW 6865   2.960   6.017   0.080 -0.1659  0.5102  0.6615
 1775SOL    HW2 6866   3.046   6.015   0.122  0.0474  0.0444  0.2120
 1775SOL    HW3 6867   2.951   6.107   0.047  0.5455  0.3147 -0.0941
 1775SOL    MW4 6868   2.970   6.029   0.081 -0.0439  0.4229  0.5025
 1776SOL     OW 6869   3.109   0.859   5.823  0.2690 -0.3988 -0.1339
 1776SOL    HW2 6870   3.020   0.836   5.847 -0.5208  2.2647 -0.2121
 1776SOL    HW3 6871   3.158   0.855   5.905  0.3867 -2.8750 -0.2570
 1776SOL    MW4 6872   3.104   0.855   5.837  0.1804 -0.3741 -0.1605
 1777SOL     OW 6873   3.908   2.121   1.266 -0.0072 -0.1236 -0.9886
 1777SOL    HW2 6874   3.864   2.207   1.267 -0.1916 -0.1809  1.0446
 1777SOL    HW3 6875   3.837   2.059   1.253 -0.6497 -0.2076  2.1839
 1777SOL    MW4 6876   3.893   2.124   1.264 -0.1163 -0.1423 -0.3017
 1778SOL     OW 6877   5.353   6.034   1.268  0.1107 -0.0752  0.5855
 1778SOL    HW2 6878   5.414   5.983   1.322  0.7955  0.6471  0.5030
 1778SOL    HW3 6879   5.383   6.124   1.276 -0.6366  0.2213  0.1155
 1778SOL    MW4 6880   5.365   6.039   1.276  0.1025  0.0592  0.5126
 1779SOL     OW 6881   2.771   3.403   6.386 -0.1674  0.0355 -0.3412
 1779SOL    HW2 6882   2.736   3.490   6.405  1.3735  0.7927 -0.8560
 1779SOL    HW3 6883   2.856   3.401   6.430 -0.3168 -1.3481 -0.0648
 1779SOL    MW4 6884   2.778   3.414   6.395  0.0162 -0.0471 -0.3727
 1780SOL     OW 6885   1.236   3.417   2.206 -0.0485 -0.3340 -0.2871
 1780SOL    HW2 6886   1.237   3.362   2.285  0.2025  1.3573  0.9337
 1780SOL    HW3 6887   1.321   3.400   2.164 -0.2668 -1.3996 -0.3208
 1780SOL    MW4 6888   1.248   3.407   2.211 -0.0442 -0.2514 -0.1305
 1781SOL     OW 6889   4.593   5.908   3.841 -0.2748  0.0074  0.1591
 1781SOL    HW2 6890   4.559   5.994   3.867 -0.2726 -0.1701  0.7699
 1781SOL    HW3 6891   4.674   5.927   3.794  0.4283  0.2879  1.4328
 1781SOL    MW4 6892   4.599   5.922   3.839 -0.1818  0.0210  0.4077
 1782SOL     OW 6893   1.133   1.341   1.391 -0.6341 -0.1343 -0.3193
 1782SOL    HW2 6894   1.190   1.310   1.461  1.0626 -0.9866 -1.9696
 1782SOL    HW3 6895   1.149   1.435   1.388 -0.4164 -0.1496  0.1862
 1782SOL    MW4 6896   1.143   1.349   1.400 -0.3815 -0.2488 -0.4704
 1783SOL     OW 6897   4.015   0.613   3.700  0.3670  0.2694  0.0086
 1783SOL    HW2 6898   4.085   0.569   3.747  1.1346  1.4554  0.0209
 1783SOL    HW3 6899   4.008   0.699   3.742 -0.8508  0.3023 -0.2286
 1783SOL    MW4 6900   4.023   0.618   3.711  0.3076  0.4302 -0.0211
 1784SOL     OW 6901   2.806   2.471   3.145 -0.0702  0.0247  0.4996
 1784SOL    HW2 6902   2.735   2.464   3.208 -0.4934 -0.8064 -0.0551
 1784SOL    HW3 6903   2.859   2.393   3.159  0.0344  0.0154  0.0746
 1784SOL    MW4 6904   2.804   2.460   3.155 -0.1122 -0.0862  0.3703
 1785SOL     OW 6905   1.062   2.412   4.496  0.3268  0.1548  0.3588
 1785SOL    HW2 6906   1.061   2.507   4.485  2.5096  0.0371 -1.7828
 1785SOL    HW3 6907   1.151   2.392   4.523 -0.3793 -1.2478  1.8216
 1785SOL    MW4 6908   1.074   2.422   4.498  0.5216 -0.0458  0.2692
 1786SOL     OW 6909   1.309   1.590   4.905 -0.2206 -0.2778  0.3771
 1786SOL    HW2 6910   1.230   1.609   4.956 -0.4896  3.5818 -1.1387
 1786SOL    HW3 6911   1.381   1.621   4.959  0.1644 -1.9403  0.8975
 1786SOL    MW4 6912   1.308   1.596   4.919 -0.2053  0.0121  0.2458
 1787SOL     OW 6913   5.644  -0.030   3.103 -0.0277 -0.0777 -0.1329
 1787SOL    HW2 6914   5.591  -0.015   3.025 -2.0379  3.5112  1.6723
 1787SOL    HW3 6915   5.726   0.017   3.086  0.0542 -0.3610 -0.5317
 1787SOL    MW4 6916   5.648  -0.022   3.091 -0.2821  0.3585  0.0526
 1788SOL     OW 6917   2.769   4.842   4.881 -0.2901  0.3811 -0.1296
 1788SOL    HW2 6918   2.740   4.798   4.801 -1.1884  0.2510  0.2522
 1788SOL    HW3 6919   2.688   4.869   4.924  0.0361 -1.3938  1.7832
 1788SOL    MW4 6920   2.754   4.840   4.876 -0.3656  0.1298  0.1731
 1789SOL     OW 6921   4.630   2.673   2.940 -0.2945 -0.0283  0.0211
 1789SOL    HW2 6922   4.671   2.651   3.024 -1.3724 -0.6075  0.4017
 1789SOL    HW3 6923   4.627   2.769   2.940 -1.0176 -0.0361  1.0157
 1789SOL    MW4 6924   4.635   2.683   2.951 -0.5321 -0.1057  0.2025
 1790SOL     OW 6925   4.667   3.508   5.833 -0.2311 -0.0959 -0.1747
 1790SOL    HW2 6926   4.696   3.473   5.918  0.1057 -0.5132 -0.4604
 1790SOL    HW3 6927   4.696   3.599   5.834 -1.3165  0.2721  0.6733
 1790SOL    MW4 6928   4.674   3.516   5.845 -0.3298 -0.1024 -0.1005
 1791SOL     OW 6929   6.285   1.924   1.876 -0.2868  0.0735  0.3623
 1791SOL    HW2 6930   6.324   1.925   1.963 -0.7749 -1.4015  0.6179
 1791SOL    HW3 6931   6.350   1.967   1.820  1.0189 -0.9327  1.0593
 1791SOL    MW4 6932   6.299   1.930   1.880 -0.1789 -0.2539  0.4880
 1792SOL     OW 6933   0.437   0.605   3.032 -0.8511  0.0489  0.8029
 1792SOL    HW2 6934   0.500   0.676   3.046 -0.8372  0.4809 -1.1621
 1792SOL    HW3 6935   0.491   0.530   3.006 -1.0498  0.1768 -0.0229
 1792SOL    MW4 6936   0.453   0.605   3.030 -0.8755  0.1228  0.4347
 1793SOL     OW 6937   5.741   3.443   1.590 -0.8136  0.6230  0.1312
 1793SOL    HW2 6938   5.710   3.362   1.629 -1.6214  0.8644  0.0087
 1793SOL    HW3 6939   5.724   3.510   1.657 -0.5176  0.7561  0.0764
 1793SOL    MW4 6940   5.735   3.441   1.604 -0.8811  0.6724  0.1078
 1794SOL     OW 6941   0.090   3.462   4.113  0.5867  0.1817 -0.0132
 1794SOL    HW2 6942   0.068   3.368   4.116  0.2635  0.1663 -1.6424
 1794SOL    HW3 6943   0.068   3.494   4.200  0.1331 -1.1420  0.3959
 1794SOL    MW4 6944   0.084   3.454   4.125  0.4842  0.0050 -0.1742
 1795SOL     OW 6945   5.299   1.494   4.458  0.3013 -0.0887  0.1008
 1795SOL    HW2 6946   5.336   1.407   4.443 -0.4742 -0.5102  0.5824
 1795SOL    HW3 6947   5.227   1.501   4.395  0.6468  0.3892 -0.2478
 1795SOL    MW4 6948   5.294   1.483   4.448  0.2445 -0.0813  0.1183
 1796SOL     OW 6949   1.360   4.283   1.243 -0.7080 -0.1078 -0.6713
 1796SOL    HW2 6950   1.426   4.317   1.183  1.6821 -1.5239  1.0154
 1796SOL    HW3 6951   1.364   4.188   1.233  0.7743 -0.5221  2.5713
 1796SOL    MW4 6952   1.369   4.275   1.234 -0.1971 -0.3493 -0.0209
 1797SOL     OW 6953   4.357   0.792   3.696  0.2582  0.4100 -0.1804
 1797SOL    HW2 6954   4.362   0.750   3.610  0.4675 -0.5882  0.3098
 1797SOL    HW3 6955   4.414   0.868   3.689  1.6355 -0.6094 -0.4057
 1797SOL    MW4 6956   4.365   0.797   3.684  0.4675  0.1438 -0.1454
 1798SOL     OW 6957   4.290   6.213   0.823  0.5619 -0.0969  0.3858
 1798SOL    HW2 6958   4.275   6.250   0.910 -1.2932 -3.1421  1.5439
 1798SOL    HW3 6959   4.203   6.211   0.782  0.9999 -0.9279 -0.5389
 1798SOL    MW4 6960   4.277   6.217   0.829  0.3749 -0.6083  0.4166
 1799SOL     OW 6961   5.773   2.188   5.410  0.2135 -0.8817 -0.1783
 1799SOL    HW2 6962   5.830   2.124   5.367  0.9006 -0.3867 -0.0361
 1799SOL    HW3 6963   5.715   2.218   5.340  0.8906 -0.5596 -0.6236
 1799SOL    MW4 6964   5.773   2.184   5.395  0.3935 -0.7739 -0.2183
 1800SOL     OW 6965   5.135   4.937   3.082 -0.1154 -0.3339 -0.0005
 1800SOL    HW2 6966   5.135   4.849   3.119 -0.5854 -0.1640  0.4200
 1800SOL    HW3 6967   5.103   4.926   2.993  1.9810 -0.8876 -0.7351
 1800SOL    MW4 6968   5.131   4.924   3.075  0.0992 -0.3846 -0.0419
 1801SOL     OW 6969   4.809   2.412   0.897  0.1133  0.2856  0.6325
 1801SOL    HW2 6970   4.799   2.499   0.860 -1.2096 -0.3995 -0.7508
 1801SOL    HW3 6971   4.872   2.368   0.839 -1.0752 -0.4248 -0.1604
 1801SOL    MW4 6972   4.816   2.417   0.884 -0.2181  0.1015  0.3454
 1802SOL     OW 6973   1.335   1.275   4.238  0.3280  0.1482  0.0797
 1802SOL    HW2 6974   1.349   1.334   4.164 -0.6654  0.6170  0.2544
 1802SOL    HW3 6975   1.287   1.201   4.201  0.1726  0.2007  0.1750
 1802SOL    MW4 6976   1.331   1.273   4.224  0.1764  0.2170  0.1153
 1803SOL     OW 6977   3.288   2.064   0.208  0.2254 -1.0784 -1.1081
 1803SOL    HW2 6978   3.366   2.013   0.186 -0.2451 -2.0073 -0.6382
 1803SOL    HW3 6979   3.323   2.143   0.249  0.9098 -2.1179  0.4121
 1803SOL    MW4 6980   3.303   2.068   0.211  0.2536 -1.3381 -0.8456
 1804SOL     OW 6981   5.751   3.732   1.678  0.4817  0.2433 -0.5349
 1804SOL    HW2 6982   5.795   3.785   1.612  0.8332  2.3252  1.2373
 1804SOL    HW3 6983   5.814   3.727   1.750 -1.2399  1.2467  1.1138
 1804SOL    MW4 6984   5.765   3.738   1.679  0.3009  0.6504 -0.0836
 1805SOL     OW 6985   0.088   4.338   4.837  0.2622 -0.3777  0.2960
 1805SOL    HW2 6986   0.016   4.276   4.822 -0.2541  0.1748  0.4773
 1805SOL    HW3 6987   0.045   4.421   4.858  0.9274  0.4009 -1.2900
 1805SOL    MW4 6988   0.073   4.340   4.838  0.2818 -0.2021  0.1107
 1806SOL     OW 6989   2.285   4.202   5.523  0.2111  0.4569  0.1641
 1806SOL    HW2 6990   2.247   4.262   5.459 -0.8525  0.1351  0.4805
 1806SOL    HW3 6991   2.211   4.152   5.557  0.8608  0.0746  1.0768
 1806SOL    MW4 6992   2.270   4.203   5.519  0.1565  0.3640  0.3263
 1807SOL     OW 6993   3.407   2.190   1.976 -0.5022 -0.0873 -0.0214
 1807SOL    HW2 6994   3.374   2.137   1.904  0.0177 -0.0010 -0.3252
 1807SOL    HW3 6995   3.329   2.211   2.028 -1.0196  0.6208 -1.0661
 1807SOL    MW4 6996   3.392   2.186   1.974 -0.5018  0.0175 -0.1993
 1808SOL     OW 6997   3.731   5.462   0.119  0.0682  0.6967 -0.9954
 1808SOL    HW2 6998   3.793   5.460   0.045  1.7476  0.6935  0.3539
 1808SOL    HW3 6999   3.770   5.404   0.184 -3.4421 -2.7286 -1.5766
 1808SOL    MW4 7000   3.744   5.454   0.118 -0.1734  0.2444 -0.8941
 1809SOL     OW 7001   3.885   1.328   4.324 -0.5176 -0.2314 -0.2843
 1809SOL    HW2 7002   3.802   1.356   4.362 -0.0319  0.8833 -0.0119
 1809SOL    HW3 7003   3.952   1.365   4.382  0.1752 -1.3242 -0.3594
 1809SOL    MW4 7004   3.882   1.337   4.337 -0.3621 -0.2285 -0.2582
 1810SOL     OW 7005   3.086   5.454   0.865  0.3900 -0.1221 -0.2477
 1810SOL    HW2 7006   3.123   5.524   0.810  0.4166  0.0959  0.0428
 1810SOL    HW3 7007   3.115   5.373   0.824  0.5311  0.0419 -0.4726
 1810SOL    MW4 7008   3.095   5.453   0.853  0.4121 -0.0717 -0.2391
 1811SOL     OW 7009   3.800   4.358   3.784  0.0942  0.5191 -0.1120
 1811SOL    HW2 7010   3.802   4.453   3.772 -0.8913  0.6731  0.8270
 1811SOL    HW3 7011   3.786   4.324   3.696  0.8995  1.2165 -0.5256
 1811SOL    MW4 7012   3.798   4.366   3.771  0.0705  0.6314 -0.0427
 1812SOL     OW 7013   1.100   2.862   3.961  0.5928  0.6792  0.0872
 1812SOL    HW2 7014   1.125   2.878   4.052  0.7524  0.2371  0.1269
 1812SOL    HW3 7015   1.025   2.803   3.966  2.9398 -2.6616 -0.0483
 1812SOL    MW4 7016   1.094   2.856   3.974  0.9235  0.1801  0.0746
 1813SOL     OW 7017   3.380   6.256   0.691  0.1736  0.6258 -0.5030
 1813SOL    HW2 7018   3.429   6.328   0.731  1.1873 -1.0176  1.4140
 1813SOL    HW3 7019   3.312   6.235   0.756 -0.6927  0.4190 -1.4476
 1813SOL    MW4 7020   3.377   6.263   0.705  0.1930  0.3817 -0.3747
 1814SOL     OW 7021   6.095   3.419   6.088 -0.0248 -0.2884  0.5994
 1814SOL    HW2 7022   6.149   3.487   6.128 -1.5744  2.0482 -1.0122
 1814SOL    HW3 7023   6.015   3.417   6.141 -0.2621 -0.3420  0.2441
 1814SOL    MW4 7024   6.092   3.428   6.100 -0.2605  0.0128  0.3399
 1815SOL     OW 7025   6.041  -0.051   6.176 -0.4944 -0.4239 -0.0540
 1815SOL    HW2 7026   5.979  -0.015   6.240 -1.1536 -0.6339 -0.5637
 1815SOL    HW3 7027   6.067  -0.135   6.213  1.7675  0.9120  1.6014
 1815SOL    MW4 7028   6.036  -0.057   6.189 -0.2829 -0.2753  0.0972
 1816SOL     OW 7029   0.435   0.410   0.451  0.1187  0.1827  0.4962
 1816SOL    HW2 7030   0.506   0.397   0.388 -2.4216 -2.3161 -2.1413
 1816SOL    HW3 7031   0.406   0.500   0.436 -1.4127 -0.7705 -3.2628
 1816SOL    MW4 7032   0.441   0.420   0.441 -0.4185 -0.2728 -0.3477
 1817SOL     OW 7033   6.066   3.239   0.071 -0.2637  0.6656 -0.0241
 1817SOL    HW2 7034   5.991   3.248   0.129 -0.1048  1.5746  0.0596
 1817SOL    HW3 7035   6.032   3.193  -0.006 -0.6487  0.1186  0.4713
 1817SOL    MW4 7036   6.052   3.234   0.068 -0.2935  0.7134  0.0523
 1818SOL     OW 7037   0.568   0.477   1.068  0.2691  0.3284 -0.4440
 1818SOL    HW2 7038   0.642   0.503   1.013 -0.5681  3.2960 -0.3222
 1818SOL    HW3 7039   0.494   0.529   1.036 -0.5592  1.2015  2.5443
 1818SOL    MW4 7040   0.568   0.487   1.057  0.0494  0.8351 -0.0336
 1819SOL     OW 7041   0.270   1.503   5.990  0.2491 -0.0240  0.3171
 1819SOL    HW2 7042   0.218   1.556   6.051 -0.5159 -2.0239  1.5190
 1819SOL    HW3 7043   0.206   1.463   5.932  0.6117 -0.9164  0.5076
 1819SOL    MW4 7044   0.255   1.504   5.991  0.1960 -0.4056  0.5008
 1820SOL     OW 7045   0.580   3.285   5.824  0.5268 -0.3770 -0.8931
 1820SOL    HW2 7046   0.496   3.239   5.827  0.0811  0.4422 -0.5037
 1820SOL    HW3 7047   0.631   3.238   5.758  0.8410 -2.7015  0.8396
 1820SOL    MW4 7048   0.576   3.273   5.816  0.5095 -0.5756 -0.6131
 1821SOL     OW 7049   3.339   2.917   4.759 -0.5079  0.3274 -0.0838
 1821SOL    HW2 7050   3.291   2.959   4.687 -0.4019  0.6225  0.0156
 1821SOL    HW3 7051   3.274   2.910   4.829 -1.7829 -3.3285 -1.3516
 1821SOL    MW4 7052   3.324   2.922   4.759 -0.6622 -0.1160 -0.2380
 1822SOL     OW 7053   2.908   3.569   4.543  0.1689  0.0575  0.0600
 1822SOL    HW2 7054   2.927   3.533   4.456 -0.7365  0.3558 -0.2813
 1822SOL    HW3 7055   2.813   3.561   4.551  0.2165  0.2730  0.9215
 1822SOL    MW4 7056   2.898   3.563   4.532  0.0557  0.1253  0.1287
 1823SOL     OW 7057   5.754   2.759   2.328 -0.1363  0.4744 -0.0014
 1823SOL    HW2 7058   5.789   2.817   2.260 -1.3620  0.6846 -0.4734
 1823SOL    HW3 7059   5.662   2.785   2.337 -0.4197 -0.6609  0.5644
 1823SOL    MW4 7060   5.746   2.770   2.320 -0.3354  0.3523  0.0109
 1824SOL     OW 7061   3.969   0.783   4.935  0.1333  0.0556 -0.8656
 1824SOL    HW2 7062   4.055   0.778   4.976 -1.0909 -3.4165  1.7375
 1824SOL    HW3 7063   3.969   0.712   4.870 -0.7175  0.1137 -0.9439
 1824SOL    MW4 7064   3.980   0.773   4.932 -0.1405 -0.3949 -0.5325
 1825SOL     OW 7065   4.061   4.160   5.238 -0.3253 -0.3189 -0.3558
 1825SOL    HW2 7066   4.033   4.190   5.152  0.9485  0.4808 -0.5238
 1825SOL    HW3 7067   3.987   4.181   5.296 -1.1677 -0.8146 -1.2191
 1825SOL    MW4 7068   4.047   4.167   5.234 -0.2684 -0.2788 -0.4919
 1826SOL     OW 7069   2.286   2.558   5.896 -0.2870  0.3375 -0.2128
 1826SOL    HW2 7070   2.342   2.536   5.970 -0.7836 -1.3820 -0.2995
 1826SOL    HW3 7071   2.341   2.546   5.819 -0.4042 -0.0645 -0.2334
 1826SOL    MW4 7072   2.301   2.554   5.896 -0.3680  0.0576 -0.2269
 1827SOL     OW 7073   2.363   0.515   5.524  0.3981 -0.4689 -0.4478
 1827SOL    HW2 7074   2.314   0.589   5.559 -0.9411 -1.4084 -0.2670
 1827SOL    HW3 7075   2.379   0.537   5.433  1.1346  0.5934 -0.0840
 1827SOL    MW4 7076   2.359   0.527   5.517  0.3186 -0.4527 -0.3760
 1828SOL     OW 7077   3.513   4.868   1.636 -0.0107 -0.0365  0.3416
 1828SOL    HW2 7078   3.465   4.921   1.700  0.4623  0.4259  0.3176
 1828SOL    HW3 7079   3.470   4.886   1.553  0.0485  0.1898  0.3588
 1828SOL    MW4 7080   3.501   4.877   1.634  0.0595  0.0544  0.3407
 1829SOL     OW 7081   0.114   1.143   0.616  0.1667 -0.6596 -0.9578
 1829SOL    HW2 7082   0.196   1.124   0.569  0.6174 -1.5584  0.1423
 1829SOL    HW3 7083   0.050   1.083   0.576  1.0488 -3.0212  0.9210
 1829SOL    MW4 7084   0.116   1.132   0.604  0.3426 -1.0898 -0.5648
 1830SOL     OW 7085   5.934   6.111   2.622 -0.1604  0.6620 -0.2227
 1830SOL    HW2 7086   5.999   6.112   2.693  0.9633  0.6548 -1.2310
 1830SOL    HW3 7087   5.849   6.107   2.668  0.5645 -2.4431  1.1489
 1830SOL    MW4 7088   5.931   6.111   2.638  0.0835  0.2513 -0.1748
 1831SOL     OW 7089   6.076   5.558   1.854  0.4583 -0.0441  0.4049
 1831SOL    HW2 7090   6.134   5.627   1.822 -1.9972  1.2315 -1.6621
 1831SOL    HW3 7091   6.099   5.548   1.947  3.3102  0.9544 -0.0922
 1831SOL    MW4 7092   6.087   5.566   1.862  0.5106  0.2559  0.0666
 1832SOL     OW 7093   4.101   2.428   6.372  0.4905 -0.4119  0.0921
 1832SOL    HW2 7094   4.193   2.401   6.381  0.2049 -1.1604  0.8369
 1832SOL    HW3 7095   4.052   2.346   6.372 -0.2478  0.0257  0.4771
 1832SOL    MW4 7096   4.107   2.413   6.373  0.3554 -0.4529  0.2411
 1833SOL     OW 7097   0.442   1.663   0.865  0.2616 -0.3584  0.1466
 1833SOL    HW2 7098   0.511   1.646   0.801  0.6567  0.6832  0.2785
 1833SOL    HW3 7099   0.466   1.612   0.941  0.1323 -1.0961 -0.2936
 1833SOL    MW4 7100   0.454   1.654   0.866  0.2966 -0.3183  0.1059
 1834SOL     OW 7101   3.497   0.452   5.428  0.1668 -0.1257  0.3449
 1834SOL    HW2 7102   3.577   0.426   5.473  1.1506  2.4264  0.2580
 1834SOL    HW3 7103   3.518   0.537   5.390 -2.5368  0.5246  0.1085
 1834SOL    MW4 7104   3.511   0.460   5.429 -0.0601  0.2968  0.3022
 1835SOL     OW 7105   5.365   5.695   1.310 -0.0456  0.0199  0.2942
 1835SOL    HW2 7106   5.444   5.694   1.256  0.5822  0.0021  1.1929
 1835SOL    HW3 7107   5.301   5.743   1.257  0.6305  0.2369 -0.3503
 1835SOL    MW4 7108   5.367   5.701   1.296  0.1264  0.0462  0.3277
 1836SOL     OW 7109   5.582   1.042   6.168 -0.2922 -0.3019  0.1779
 1836SOL    HW2 7110   5.576   1.096   6.246  1.2269 -1.2435  1.0152
 1836SOL    HW3 7111   5.673   1.052   6.140 -0.4147 -1.1633 -0.5735
 1836SOL    MW4 7112   5.594   1.051   6.175 -0.1079 -0.5398  0.1893
 1837SOL     OW 7113   0.480   4.775   4.283 -0.2686  0.1891 -0.3434
 1837SOL    HW2 7114   0.445   4.837   4.346 -1.5430 -0.8889  0.0672
 1837SOL    HW3 7115   0.564   4.812   4.256  0.4917  0.5240  2.2485
 1837SOL    MW4 7116   0.487   4.788   4.288 -0.3364  0.0911  0.0528
 1838SOL     OW 7117   3.966   4.813   2.549  0.6228  0.0384  0.0907
 1838SOL    HW2 7118   3.874   4.836   2.535  0.9098  0.5571 -1.1290
 1838SOL    HW3 7119   3.995   4.870   2.620  0.0219 -0.0982  0.4551
 1838SOL    MW4 7120   3.957   4.823   2.556  0.5814  0.0888 -0.0221
 1839SOL     OW 7121   4.021   2.025   0.015  0.1338 -0.2515 -0.8018
 1839SOL    HW2 7122   4.031   2.034  -0.080  1.1222  0.5178 -0.6355
 1839SOL    HW3 7123   4.104   2.056   0.051 -0.9241  1.3540  0.3933
 1839SOL    MW4 7124   4.033   2.030   0.007  0.1247  0.0618 -0.6222
 1840SOL     OW 7125   5.135   6.100   5.212  0.0667 -0.2869 -0.0903
 1840SOL    HW2 7126   5.140   6.090   5.117  2.6746  1.1931 -0.1855
 1840SOL    HW3 7127   5.083   6.180   5.225  0.8031  0.2415 -0.3443
 1840SOL    MW4 7128   5.129   6.109   5.201  0.5079 -0.0219 -0.1364
 1841SOL     OW 7129   4.480   5.645   1.139 -0.3670 -0.5538  1.1101
 1841SOL    HW2 7130   4.416   5.717   1.138 -1.0284 -1.1313  1.4020
 1841SOL    HW3 7131   4.560   5.685   1.104 -0.8418  0.2147  0.8553
 1841SOL    MW4 7132   4.482   5.660   1.134 -0.5169 -0.5286  1.1150
 1842SOL     OW 7133   1.357   3.358   0.669 -0.1388 -0.1844 -0.2131
 1842SOL    HW2 7134   1.403   3.312   0.740  1.4487  0.3921 -0.8223
 1842SOL    HW3 7135   1.328   3.289   0.610  1.2953 -0.4869 -0.5817
 1842SOL    MW4 7136   1.359   3.343   0.671  0.2598 -0.1482 -0.3421
 1843SOL     OW 7137   3.395   4.801   3.982  0.2497  0.0657  0.1070
 1843SOL    HW2 7138   3.329   4.735   4.002 -0.0763  0.9082  1.9544
 1843SOL    HW3 7139   3.444   4.812   4.064  0.2867  2.1109 -0.1491
 1843SOL    MW4 7140   3.393   4.794   3.995  0.2116  0.4467  0.3169
 1844SOL     OW 7141   6.018   2.525   4.505 -0.1679 -0.1105  0.4191
 1844SOL    HW2 7142   5.934   2.486   4.526  0.3036 -1.3633  0.0294
 1844SOL    HW3 7143   6.078   2.492   4.572 -0.1441  1.5011  1.2526
 1844SOL    MW4 7144   6.015   2.516   4.517 -0.1026 -0.0631  0.4776
 1845SOL     OW 7145   1.050   2.930   5.555  0.1859 -0.3291  0.3576
 1845SOL    HW2 7146   1.069   3.009   5.607 -1.5249 -0.5514  1.3907
 1845SOL    HW3 7147   0.970   2.895   5.593  0.3207 -1.9872 -0.7902
 1845SOL    MW4 7148   1.042   2.936   5.567 -0.0220 -0.5772  0.3425
 1846SOL     OW 7149   6.019   3.490   1.748  0.3394 -0.0123  0.0183
 1846SOL    HW2 7150   6.114   3.503   1.750  0.4130 -0.5383  1.8558
 1846SOL    HW3 7151   5.986   3.541   1.822 -0.9262  0.7865 -1.0626
 1846SOL    MW4 7152   6.027   3.498   1.758  0.1821  0.0237  0.1181
 1847SOL     OW 7153   5.713   4.315   5.458  0.1224 -0.1961  0.5389
 1847SOL    HW2 7154   5.699   4.369   5.380  1.0436 -0.6621  0.0362
 1847SOL    HW3 7155   5.746   4.376   5.524 -0.8665  0.2394  0.6415
 1847SOL    MW4 7156   5.716   4.330   5.457  0.1135 -0.2001  0.4861
 1848SOL     OW 7157   5.304   1.744   2.029 -0.1658 -0.1349 -0.2846
 1848SOL    HW2 7158   5.329   1.807   2.097  0.7118 -0.5659 -0.1899
 1848SOL    HW3 7159   5.382   1.689   2.018 -0.3985 -0.2504 -1.4392
 1848SOL    MW4 7160   5.317   1.745   2.037 -0.0807 -0.2070 -0.4245
 1849SOL     OW 7161   6.041   5.621   1.507 -0.3429  0.0738 -0.1107
 1849SOL    HW2 7162   6.103   5.683   1.546 -1.5609 -0.2479  2.6261
 1849SOL    HW3 7163   6.095   5.554   1.466  1.0704  0.9196  0.3162
 1849SOL    MW4 7164   6.056   5.620   1.507 -0.3172  0.1430  0.3067
 1850SOL     OW 7165   2.763   3.691   4.979  0.1383 -0.3896  0.7227
 1850SOL    HW2 7166   2.794   3.766   5.030  1.4894 -1.2622  1.2476
 1850SOL    HW3 7167   2.779   3.615   5.036 -0.4504 -1.1663 -0.1118
 1850SOL    MW4 7168   2.769   3.691   4.993  0.2389 -0.6072  0.6819
 1851SOL     OW 7169   6.131   0.247   4.809 -0.0345  0.1857 -1.0136
 1851SOL    HW2 7170   6.042   0.216   4.791  0.1538  0.3746 -2.3241
 1851SOL    HW3 7171   6.188   0.188   4.759  0.6189 -0.1209  0.0451
 1851SOL    MW4 7172   6.127   0.235   4.800  0.0766  0.1702 -1.0468
 1852SOL     OW 7173   2.574   5.137   4.648 -0.3649  0.1962 -0.9765
 1852SOL    HW2 7174   2.646   5.121   4.709 -0.2229  0.2763 -1.1230
 1852SOL    HW3 7175   2.612   5.191   4.580 -0.6901  0.6592 -0.7967
 1852SOL    MW4 7176   2.589   5.142   4.647 -0.3891  0.2678 -0.9721
 1853SOL     OW 7177   5.909   4.300   1.938  0.0963  0.1429 -0.5737
 1853SOL    HW2 7178   5.871   4.388   1.932 -0.4942  0.0016  0.7204
 1853SOL    HW3 7179   5.853   4.246   1.883 -1.2936  0.0512  0.8463
 1853SOL    MW4 7180   5.897   4.305   1.930 -0.1650  0.1121 -0.2156
 1854SOL     OW 7181   0.685   1.774   1.410 -0.0153  0.1419  0.2356
 1854SOL    HW2 7182   0.694   1.695   1.464  0.6453  0.5674  0.7722
 1854SOL    HW3 7183   0.722   1.844   1.464 -2.1839  1.1655  0.5133
 1854SOL    MW4 7184   0.691   1.773   1.424 -0.2142  0.3331  0.3431
 1855SOL     OW 7185   5.919   4.334   4.878 -0.1865  0.0231 -0.0775
 1855SOL    HW2 7186   5.962   4.271   4.820 -0.1639  0.7398 -0.8696
 1855SOL    HW3 7187   5.926   4.418   4.831 -0.4348  0.5661  0.8328
 1855SOL    MW4 7188   5.925   4.337   4.864 -0.2163  0.1893 -0.0619
 1856SOL     OW 7189   4.937   4.361   3.152  0.1023  0.1063 -0.0766
 1856SOL    HW2 7190   5.031   4.372   3.143 -0.0957 -0.1297 -3.7117
 1856SOL    HW3 7191   4.899   4.437   3.107 -1.4632 -0.2292  0.5927
 1856SOL    MW4 7192   4.944   4.373   3.145 -0.1304  0.0309 -0.4679
 1857SOL     OW 7193   2.598   1.002   5.583  0.7464  0.3271 -0.3269
 1857SOL    HW2 7194   2.524   1.009   5.523 -0.2144  0.2936  0.8214
 1857SOL    HW3 7195   2.558   0.988   5.669  2.1113 -0.7988  0.1590
 1857SOL    MW4 7196   2.583   1.001   5.586  0.7997  0.1741 -0.1113
 1858SOL     OW 7197   1.952   6.347   1.583  0.1227 -0.0369  0.5521
 1858SOL    HW2 7198   1.858   6.353   1.571 -0.0167 -1.1082  0.9469
 1858SOL    HW3 7199   1.969   6.386   1.669  0.0547  0.2277  0.4460
 1858SOL    MW4 7200   1.942   6.353   1.592  0.0953 -0.1433  0.5902
 1859SOL     OW 7201   5.238   3.947   6.289  1.1594 -0.2733  0.1517
 1859SOL    HW2 7202   5.225   3.933   6.383  1.3222 -0.7912  0.1007
 1859SOL    HW3 7203   5.151   3.934   6.250  0.9816  0.4801  0.2896
 1859SOL    MW4 7204   5.225   3.943   6.296  1.1574 -0.2422  0.1632
 1860SOL     OW 7205   0.975   1.100   6.211 -0.1137  0.0665 -0.2579
 1860SOL    HW2 7206   1.025   1.019   6.199  0.4319  0.0903  1.5849
 1860SOL    HW3 7207   1.041   1.165   6.234 -0.7756  0.5868  0.1777
 1860SOL    MW4 7208   0.990   1.098   6.212 -0.1290  0.1382  0.0427
 1861SOL     OW 7209   4.934   1.413   0.199  0.4777  0.4620  0.2526
 1861SOL    HW2 7210   4.866   1.479   0.183  0.6077  0.6177  0.3290
 1861SOL    HW3 7211   4.951   1.375   0.114 -2.2754 -2.1617  0.7104
 1861SOL    MW4 7212   4.927   1.417   0.186  0.1316  0.1364  0.3231
 1862SOL     OW 7213   2.273   0.092   1.882 -0.4202 -0.5275  0.6032
 1862SOL    HW2 7214   2.252   0.002   1.857 -2.2033 -0.2744  1.0450
 1862SOL    HW3 7215   2.361   0.086   1.921  0.5581 -1.6212 -1.6167
 1862SOL    MW4 7216   2.282   0.079   1.884 -0.5264 -0.6384  0.3686
 1863SOL     OW 7217   3.082   4.662   3.073  0.0912 -0.4780  0.4619
 1863SOL    HW2 7218   2.991   4.655   3.044  0.6384 -1.5589 -1.1053
 1863SOL    HW3 7219   3.077   4.664   3.168 -1.5076 -1.8745  0.4486
 1863SOL    MW4 7220   3.069   4.661   3.082 -0.0475 -0.8049  0.2534
 1864SOL     OW 7221   6.227   4.354   2.454 -0.5013 -0.0591  0.7018
 1864SOL    HW2 7222   6.169   4.337   2.528 -1.3593 -0.3911 -0.0303
 1864SOL    HW3 7223   6.170   4.392   2.387 -0.2051 -1.7176 -0.5526
 1864SOL    MW4 7224   6.212   4.357   2.455 -0.5754 -0.3217  0.4397
 1865SOL     OW 7225   1.132   3.702   4.101  0.4272  0.0599  0.9327
 1865SOL    HW2 7226   1.056   3.748   4.135 -0.8370  0.5144 -2.1770
 1865SOL    HW3 7227   1.128   3.615   4.141 -2.1868 -0.1740  0.3190
 1865SOL    MW4 7228   1.122   3.697   4.111 -0.0845  0.0890  0.4415
 1866SOL     OW 7229   5.789   3.352   4.779  0.0437 -0.1693  0.5098
 1866SOL    HW2 7230   5.773   3.360   4.873  1.4619  1.9026  0.6285
 1866SOL    HW3 7231   5.716   3.398   4.738  0.7970  1.2776  0.7306
 1866SOL    MW4 7232   5.777   3.359   4.786  0.3302  0.2949  0.5546
 1867SOL     OW 7233   0.257   3.886   2.271 -0.0876 -0.6245  1.2147
 1867SOL    HW2 7234   0.322   3.865   2.204  0.0190 -1.4468  1.5624
 1867SOL    HW3 7235   0.269   3.980   2.287  1.4164 -0.8712  1.6951
 1867SOL    MW4 7236   0.267   3.896   2.264  0.1249 -0.7655  1.3240
 1868SOL     OW 7237   1.918   3.738   0.602  0.1307  0.3109 -0.0329
 1868SOL    HW2 7238   1.848   3.705   0.546  1.3867  0.7578 -1.9566
 1868SOL    HW3 7239   1.873   3.773   0.679 -1.7550  0.5267 -1.1835
 1868SOL    MW4 7240   1.903   3.738   0.605  0.0476  0.3983 -0.4385
 1869SOL     OW 7241   5.102   4.576   5.417 -0.3901 -0.1384  0.6659
 1869SOL    HW2 7242   5.191   4.543   5.404 -0.1636  0.1397  1.4239
 1869SOL    HW3 7243   5.078   4.545   5.504 -1.1284 -0.4063  0.3725
 1869SOL    MW4 7244   5.110   4.568   5.427 -0.4576 -0.1370  0.7272
 1870SOL     OW 7245   5.625   4.715   6.276 -0.1067 -0.1253 -0.1295
 1870SOL    HW2 7246   5.666   4.795   6.308  1.9888 -1.0690 -0.2893
 1870SOL    HW3 7247   5.603   4.666   6.355  1.3632 -0.6666 -0.0181
 1870SOL    MW4 7248   5.628   4.719   6.290  0.3637 -0.3212 -0.1358
 1871SOL     OW 7249   5.505   6.311   2.321  0.3629  0.0467  0.0595
 1871SOL    HW2 7250   5.456   6.273   2.394 -0.4301  0.1887 -0.3838
 1871SOL    HW3 7251   5.597   6.304   2.347  0.1359 -0.6341  0.7160
 1871SOL    MW4 7252   5.511   6.305   2.334  0.2283 -0.0244  0.0876
 1872SOL     OW 7253   2.839   5.688   0.242 -0.4877  0.0547 -0.2135
 1872SOL    HW2 7254   2.801   5.607   0.209  0.4298 -0.9700  1.1596
 1872SOL    HW3 7255   2.794   5.705   0.325 -0.7690  1.0321 -0.5490
 1872SOL    MW4 7256   2.828   5.680   0.249 -0.4038  0.0485 -0.0766
 1873SOL     OW 7257   0.375   2.560   1.628 -0.0656 -0.1982 -0.0647
 1873SOL    HW2 7258   0.382   2.499   1.701  0.0486  0.5501  0.5621
 1873SOL    HW3 7259   0.286   2.596   1.636  0.6706  1.4720  1.0084
 1873SOL    MW4 7260   0.364   2.557   1.639  0.0466  0.1209  0.1595
 1874SOL     OW 7261   4.549   1.189   0.460 -0.2072 -0.1841 -0.1864
 1874SOL    HW2 7262   4.565   1.147   0.376  0.3603  0.0567 -0.2038
 1874SOL    HW3 7263   4.499   1.124   0.510  1.7128 -1.4428  0.2308
 1874SOL    MW4 7264   4.544   1.175   0.456  0.1210 -0.3184 -0.1336
 1875SOL     OW 7265   6.390   1.035   5.325  0.5727 -0.0079  0.4726
 1875SOL    HW2 7266   6.474   1.081   5.323  1.9800 -2.3765  0.8309
 1875SOL    HW3 7267   6.379   1.002   5.235 -0.7255  1.4763  0.0563
 1875SOL    MW4 7268   6.400   1.037   5.313  0.5871 -0.1246  0.4650
 1876SOL     OW 7269   2.283   5.577   0.863 -0.4428  0.0927  0.2277
 1876SOL    HW2 7270   2.234   5.525   0.799 -0.0328 -1.1194  0.8508
 1876SOL    HW3 7271   2.219   5.599   0.930 -0.8450  1.2609 -0.5183
 1876SOL    MW4 7272   2.268   5.573   0.863 -0.4417  0.0869  0.2115
 1877SOL     OW 7273   3.553   2.274   3.142  0.1942  0.1447 -0.1216
 1877SOL    HW2 7274   3.473   2.224   3.161 -0.1410  1.4663  2.3316
 1877SOL    HW3 7275   3.624   2.212   3.158 -0.1999  0.3580  3.2593
 1877SOL    MW4 7276   3.552   2.259   3.146  0.0980  0.3472  0.6482
 1878SOL     OW 7277   0.329   3.681   4.404 -0.2362 -0.5857  0.0810
 1878SOL    HW2 7278   0.288   3.638   4.478  0.5146 -0.7350  0.4126
 1878SOL    HW3 7279   0.262   3.741   4.371 -0.6689 -0.7263  0.6999
 1878SOL    MW4 7280   0.315   3.683   4.409 -0.1943 -0.6239  0.2064
 1879SOL     OW 7281   1.482   0.832   3.270 -0.0049  0.6866 -0.2407
 1879SOL    HW2 7282   1.519   0.766   3.212  2.5328  1.3201  0.5471
 1879SOL    HW3 7283   1.391   0.841   3.241 -0.1188 -2.2486 -1.1363
 1879SOL    MW4 7284   1.475   0.824   3.259  0.3149  0.3829 -0.2549
 1880SOL     OW 7285   5.538   4.896   0.091 -0.2772  0.1476  0.5967
 1880SOL    HW2 7286   5.505   4.952   0.162 -1.6301 -0.7843  0.7483
 1880SOL    HW3 7287   5.470   4.900   0.024  1.2546  1.4869 -0.9595
 1880SOL    MW4 7288   5.524   4.904   0.092 -0.2536  0.2014  0.4114
 1881SOL     OW 7289   4.178   2.152   0.396 -0.0534 -0.2331  0.5863
 1881SOL    HW2 7290   4.088   2.132   0.374  0.1451  0.8794 -1.4886
 1881SOL    HW3 7291   4.177   2.244   0.422  0.6476  0.1401 -0.6572
 1881SOL    MW4 7292   4.166   2.161   0.397  0.0653 -0.0371  0.1485
 1882SOL     OW 7293   2.878   1.368   3.924 -0.2681  0.0104 -0.5590
 1882SOL    HW2 7294   2.836   1.452   3.906 -1.4833  0.3785  3.1574
 1882SOL    HW3 7295   2.806   1.311   3.952  0.7500 -1.8452 -1.5123
 1882SOL    MW4 7296   2.863   1.372   3.926 -0.2941 -0.1859 -0.1944
 1883SOL     OW 7297   1.810   2.787   5.335  0.1617 -0.3589 -0.2064
 1883SOL    HW2 7298   1.904   2.804   5.329 -0.1469  1.3342 -0.7624
 1883SOL    HW3 7299   1.801   2.693   5.320  1.6232 -0.2620 -2.0172
 1883SOL    MW4 7300   1.821   2.777   5.332  0.3138 -0.1227 -0.5186
 1884SOL     OW 7301   6.115   1.101   1.094 -0.1137 -0.0623 -0.0836
 1884SOL    HW2 7302   6.123   1.182   1.045 -0.2590  0.5451  0.8693
 1884SOL    HW3 7303   6.090   1.035   1.029 -2.1657  1.0931 -0.5279
 1884SOL    MW4 7304   6.113   1.103   1.079 -0.4036  0.1703 -0.0165
 1885SOL     OW 7305   5.443   5.079   0.298 -0.6240  0.2373  0.1762
 1885SOL    HW2 7306   5.349   5.065   0.293 -0.7078  0.8765 -0.1198
 1885SOL    HW3 7307   5.471   5.027   0.373 -0.9268 -1.4561 -0.8116
 1885SOL    MW4 7308   5.434   5.070   0.307 -0.6750  0.0982  0.0068
 1886SOL     OW 7309   5.358   3.198   1.702 -0.1934  0.2578 -0.9354
 1886SOL    HW2 7310   5.373   3.118   1.652 -0.0944 -0.1347 -0.2930
 1886SOL    HW3 7311   5.265   3.218   1.687  0.0885  0.7533 -2.1295
 1886SOL    MW4 7312   5.348   3.190   1.693 -0.1432  0.2714 -1.0082
 1887SOL     OW 7313   2.530   1.780   1.193 -0.3753 -0.7886 -0.0707
 1887SOL    HW2 7314   2.574   1.705   1.154  2.8643  0.4486  0.8412
 1887SOL    HW3 7315   2.531   1.847   1.124  0.3754 -0.3552  0.3456
 1887SOL    MW4 7316   2.536   1.779   1.179  0.1511 -0.5682  0.1046
 1888SOL     OW 7317   0.192   2.703   2.519  0.1986  0.1858  0.0496
 1888SOL    HW2 7318   0.097   2.703   2.531  0.1783  0.3377 -0.1115
 1888SOL    HW3 7319   0.226   2.678   2.605  0.0811  2.0059  0.6771
 1888SOL    MW4 7320   0.184   2.700   2.532  0.1804  0.4460  0.1112
 1889SOL     OW 7321   1.530   4.155   3.626 -0.1959  0.0255  0.3968
 1889SOL    HW2 7322   1.481   4.210   3.687  0.2407  1.1381 -0.2340
 1889SOL    HW3 7323   1.568   4.216   3.563  2.1024 -0.7707  0.9184
 1889SOL    MW4 7324   1.529   4.170   3.626  0.1649  0.0673  0.3824
 1890SOL     OW 7325   6.125   2.012   2.339  0.0541 -0.6218  0.2708
 1890SOL    HW2 7326   6.213   2.032   2.372 -0.3352  2.7241 -0.4217
 1890SOL    HW3 7327   6.138   1.992   2.246 -0.0207  2.1404 -0.4240
 1890SOL    MW4 7328   6.138   2.012   2.331 -0.0072  0.1841  0.0878
 1891SOL     OW 7329   5.120   2.953   3.934  0.1147  0.1894  0.0759
 1891SOL    HW2 7330   5.107   3.033   3.985  0.3361  1.0221 -1.1178
 1891SOL    HW3 7331   5.213   2.932   3.945  0.3531  0.8402 -0.6308
 1891SOL    MW4 7332   5.130   2.961   3.942  0.1754  0.3851 -0.1749
 1892SOL     OW 7333   3.312   5.211   3.711  0.6670 -0.2722 -0.5508
 1892SOL    HW2 7334   3.399   5.200   3.749  0.2287 -1.6524  0.1121
 1892SOL    HW3 7335   3.326   5.210   3.616  1.4077 -0.0846 -0.4466
 1892SOL    MW4 7336   3.325   5.209   3.704  0.7069 -0.4295 -0.4496
 1893SOL     OW 7337   0.818   5.745   2.812 -0.1616 -0.1646  0.3513
 1893SOL    HW2 7338   0.885   5.706   2.868  0.8033  0.0386 -0.6202
 1893SOL    HW3 7339   0.856   5.829   2.785 -0.8739  0.0194 -0.0970
 1893SOL    MW4 7340   0.832   5.751   2.816 -0.1283 -0.1135  0.1640
 1894SOL     OW 7341   2.663   5.573   1.464  0.1139  0.1406 -0.4864
 1894SOL    HW2 7342   2.673   5.667   1.448  2.4797 -0.0760 -0.5989
 1894SOL    HW3 7343   2.600   5.544   1.398 -2.0929  1.9049  0.6892
 1894SOL    MW4 7344   2.656   5.581   1.453  0.1349  0.3448 -0.3461
 1895SOL     OW 7345   5.245   4.513   3.434  0.0593  0.1609 -0.2082
 1895SOL    HW2 7346   5.231   4.543   3.524  0.1195  2.0829 -0.7922
 1895SOL    HW3 7347   5.332   4.473   3.435 -0.2242 -0.4739  0.7214
 1895SOL    MW4 7348   5.255   4.512   3.446  0.0299  0.3307 -0.1626
 1896SOL     OW 7349   2.526   5.855   4.443 -0.7186 -0.2203 -0.0308
 1896SOL    HW2 7350   2.568   5.822   4.364  0.1262 -1.1073  0.7717
 1896SOL    HW3 7351   2.462   5.919   4.411  0.0359 -0.1069 -1.3842
 1896SOL    MW4 7352   2.523   5.859   4.428 -0.5076 -0.3224 -0.1035
 1897SOL     OW 7353   0.041   3.732   3.068  0.0246  0.3989 -0.0275
 1897SOL    HW2 7354   0.105   3.704   3.134 -0.7754  1.0318  1.0619
 1897SOL    HW3 7355   0.030   3.656   3.011  0.4443 -0.3081  0.8029
 1897SOL    MW4 7356   0.048   3.719   3.070 -0.0256  0.3892  0.2258
 1898SOL     OW 7357   1.412   4.830   0.660 -0.1548  0.2016  0.0960
 1898SOL    HW2 7358   1.373   4.760   0.607  1.2326 -0.8502  0.3934
 1898SOL    HW3 7359   1.373   4.819   0.746 -2.4148  1.9137 -0.6052
 1898SOL    MW4 7360   1.401   4.819   0.664 -0.2699  0.2887  0.0428
 1899SOL     OW 7361   4.367   0.270   5.808 -0.0668 -0.5369 -0.5331
 1899SOL    HW2 7362   4.428   0.272   5.882 -0.0613 -0.5002 -0.5383
 1899SOL    HW3 7363   4.285   0.305   5.843 -0.2289 -1.0475 -0.3967
 1899SOL    MW4 7364   4.364   0.275   5.822 -0.0874 -0.5994 -0.5158
 1900SOL     OW 7365   4.323   2.683   5.515  0.0848  0.1856 -0.3490
 1900SOL    HW2 7366   4.369   2.600   5.526  1.1964  0.6346 -1.3668
 1900SOL    HW3 7367   4.382   2.749   5.553 -0.3964  0.6116 -0.3225
 1900SOL    MW4 7368   4.337   2.681   5.521  0.1680  0.3010 -0.4798
 1901SOL     OW 7369   5.115   5.284   2.999 -0.5679  0.2453 -0.0236
 1901SOL    HW2 7370   5.176   5.264   2.928  0.6051 -0.1321  1.0551
 1901SOL    HW3 7371   5.048   5.216   2.993 -0.0818 -0.2127 -0.3220
 1901SOL    MW4 7372   5.114   5.273   2.989 -0.3490  0.1351  0.0794
 1902SOL     OW 7373   5.399   0.442   4.659 -0.0834  0.1023  0.1309
 1902SOL    HW2 7374   5.473   0.478   4.707 -0.8863  2.2570 -0.1190
 1902SOL    HW3 7375   5.322   0.470   4.708 -0.8516  0.9954 -1.4950
 1902SOL    MW4 7376   5.398   0.451   4.672 -0.2907  0.5044 -0.1166
 1903SOL     OW 7377   2.106   0.482   0.153  0.0590  0.2457 -0.1089
 1903SOL    HW2 7378   2.180   0.507   0.098 -0.9914  3.3197 -0.3058
 1903SOL    HW3 7379   2.059   0.417   0.101  0.2594  1.4870 -1.9585
 1903SOL    MW4 7380   2.110   0.477   0.139 -0.0532  0.8151 -0.3789
 1904SOL     OW 7381   1.943   0.822   4.958  0.6093  1.0005 -0.1221
 1904SOL    HW2 7382   2.023   0.819   5.012  0.0614  0.6350  0.6887
 1904SOL    HW3 7383   1.884   0.880   5.006 -0.6389 -0.9013  0.7635
 1904SOL    MW4 7384   1.946   0.829   4.971  0.3723  0.7014  0.1017
 1905SOL     OW 7385   0.614   4.036   3.423  0.3081  0.1884  0.6323
 1905SOL    HW2 7386   0.628   4.020   3.517  0.3062 -0.9897  0.4550
 1905SOL    HW3 7387   0.692   4.083   3.395  2.0204 -2.4901  0.5477
 1905SOL    MW4 7388   0.626   4.040   3.432  0.5338 -0.3205  0.5978
 1906SOL     OW 7389   0.166   4.879   3.286  0.2706 -0.1618 -0.6287
 1906SOL    HW2 7390   0.179   4.971   3.264 -0.0556  0.1444  0.4159
 1906SOL    HW3 7391   0.255   4.843   3.289  0.3497 -0.1997 -2.2326
 1906SOL    MW4 7392   0.179   4.886   3.283  0.2380 -0.1264 -0.7025
 1907SOL     OW 7393   3.106   6.330   1.577  0.1138  0.1709  0.3022
 1907SOL    HW2 7394   3.044   6.402   1.575 -0.0371  0.0359  0.1417
 1907SOL    HW3 7395   3.177   6.361   1.634  0.3262  0.6609 -0.2249
 1907SOL    MW4 7396   3.107   6.343   1.585  0.1219  0.2177  0.2115
 1908SOL     OW 7397   3.571   1.564   5.239 -0.0045 -0.4921  0.3060
 1908SOL    HW2 7398   3.582   1.570   5.334  1.8000  1.0260  0.0647
 1908SOL    HW3 7399   3.563   1.470   5.222  0.1725 -0.8348  1.9149
 1908SOL    MW4 7400   3.572   1.552   5.250  0.2570 -0.3370  0.4864
 1909SOL     OW 7401   1.619   5.684   2.695  0.3432 -0.3884  0.8129
 1909SOL    HW2 7402   1.707   5.712   2.719  1.1395 -2.0847  0.0935
 1909SOL    HW3 7403   1.617   5.690   2.599 -0.9540  1.2804  0.9091
 1909SOL    MW4 7404   1.631   5.688   2.685  0.2771 -0.3920  0.7307
 1910SOL     OW 7405   2.003   4.658   0.615  0.1688  0.2813  0.1217
 1910SOL    HW2 7406   2.082   4.699   0.653 -0.3119  0.8245  0.5591
 1910SOL    HW3 7407   2.035   4.578   0.573  1.1023  0.9704 -0.5330
 1910SOL    MW4 7408   2.018   4.653   0.615  0.2286  0.4439  0.0930
 1911SOL     OW 7409   4.771   0.846   1.044  0.4557  0.4169  0.3666
 1911SOL    HW2 7410   4.729   0.824   1.128 -1.5839 -0.4999 -0.8111
 1911SOL    HW3 7411   4.807   0.933   1.057 -0.2776  0.5089  2.0395
 1911SOL    MW4 7412   4.770   0.855   1.057  0.0898  0.3080  0.4319
 1912SOL     OW 7413   4.990   4.139   4.208 -0.1328 -0.5950  0.0576
 1912SOL    HW2 7414   4.986   4.118   4.115 -0.2503 -1.6126  0.2848
 1912SOL    HW3 7415   5.073   4.187   4.217 -0.2999 -0.1544 -0.6238
 1912SOL    MW4 7416   5.001   4.143   4.197 -0.1703 -0.6711 -0.0023
 1913SOL     OW 7417   1.928   2.935   2.027  0.0091 -0.1156 -0.4325
 1913SOL    HW2 7418   1.930   2.868   1.958 -1.5019 -2.5305  1.7032
 1913SOL    HW3 7419   2.012   2.925   2.072  0.2801  0.2814 -0.8390
 1913SOL    MW4 7420   1.940   2.925   2.024 -0.1545 -0.3818 -0.2044
 1914SOL     OW 7421   1.753   4.361   1.534 -0.2167  0.0168 -0.0396
 1914SOL    HW2 7422   1.774   4.317   1.616  1.8117  0.3086 -0.3458
 1914SOL    HW3 7423   1.833   4.354   1.482 -0.9815  1.0780 -1.4274
 1914SOL    MW4 7424   1.767   4.354   1.538 -0.0500  0.1953 -0.2631
 1915SOL     OW 7425   5.775   1.947   4.673 -0.0556  0.9312  0.0626
 1915SOL    HW2 7426   5.683   1.943   4.700 -0.4822  1.1622 -1.2990
 1915SOL    HW3 7427   5.792   1.862   4.633  1.1221 -0.1370  2.6195
 1915SOL    MW4 7428   5.765   1.935   4.671  0.0435  0.8207  0.2203
 1916SOL     OW 7429   4.605   2.873   2.640  0.1571 -0.1701  0.7372
 1916SOL    HW2 7430   4.633   2.878   2.731 -4.0876  0.6998  2.2214
 1916SOL    HW3 7431   4.602   2.964   2.611  0.3197 -0.3499  0.1431
 1916SOL    MW4 7432   4.608   2.886   2.648 -0.3815 -0.0790  0.8546
 1917SOL     OW 7433   0.401   6.064   0.535 -0.0282  0.0663 -0.0788
 1917SOL    HW2 7434   0.481   6.115   0.527  0.0855  0.0652  0.9048
 1917SOL    HW3 7435   0.426   5.975   0.511  0.7014 -0.2903  1.7953
 1917SOL    MW4 7436   0.415   6.059   0.531  0.0830  0.0191  0.2982
 1918SOL     OW 7437   6.130   4.796   4.442  0.0294  0.0289 -0.4444
 1918SOL    HW2 7438   6.123   4.818   4.535 -1.7369  0.1038 -0.5607
 1918SOL    HW3 7439   6.214   4.751   4.434  1.5802  2.5406  0.6550
 1918SOL    MW4 7440   6.140   4.793   4.453  0.0009  0.3701 -0.3147
 1919SOL     OW 7441   2.328   3.956   4.860  0.1026 -0.4681  0.4813
 1919SOL    HW2 7442   2.285   3.911   4.933  1.9902  0.6878  2.4130
 1919SOL    HW3 7443   2.417   3.920   4.859  0.1087 -0.4856 -1.3190
 1919SOL    MW4 7444   2.334   3.945   4.869  0.3524 -0.3179  0.4986
 1920SOL     OW 7445   4.856   4.740   3.288  0.3758 -0.1306 -0.5326
 1920SOL    HW2 7446   4.940   4.702   3.263 -0.1507 -0.9575 -1.1364
 1920SOL    HW3 7447   4.842   4.710   3.378  1.4177  1.2973  0.1391
 1920SOL    MW4 7448   4.865   4.731   3.297  0.4438 -0.0513 -0.5236
 1921SOL     OW 7449   2.082   4.874   0.320 -0.0850  0.0784  0.7436
 1921SOL    HW2 7450   2.048   4.938   0.383  4.2968  2.8872  0.6650
 1921SOL    HW3 7451   2.074   4.917   0.235  0.9585 -0.4284  0.3746
 1921SOL    MW4 7452   2.076   4.888   0.317  0.6308  0.3821  0.6845
 1922SOL     OW 7453   1.010   2.927   5.173 -0.4584 -0.1192 -0.2209
 1922SOL    HW2 7454   1.039   2.844   5.211  1.0434 -0.3887 -1.8092
 1922SOL    HW3 7455   1.064   2.994   5.216 -0.3678 -0.1661 -0.2622
 1922SOL    MW4 7456   1.021   2.925   5.184 -0.2483 -0.1609 -0.4359
 1923SOL     OW 7457   3.173   2.787   6.365  0.2044  0.3533 -0.5368
 1923SOL    HW2 7458   3.191   2.813   6.456  0.0173 -2.5169  0.4384
 1923SOL    HW3 7459   3.219   2.852   6.312 -0.6684  2.8590  1.5239
 1923SOL    MW4 7460   3.181   2.799   6.370  0.0646  0.3052 -0.1363
 1924SOL     OW 7461   2.294   5.605   1.794  0.0085 -0.0119  0.1560
 1924SOL    HW2 7462   2.228   5.673   1.807  0.8478  1.1514 -1.3399
 1924SOL    HW3 7463   2.246   5.523   1.802 -1.0935  0.7415  1.6842
 1924SOL    MW4 7464   2.279   5.603   1.797 -0.0262  0.2410  0.1603
 1925SOL     OW 7465   0.265   0.656   3.447  0.6965 -0.3351  0.0677
 1925SOL    HW2 7466   0.234   0.737   3.486  1.1395 -0.5275  0.8491
 1925SOL    HW3 7467   0.205   0.639   3.375  0.6219  0.7046 -0.1255
 1925SOL    MW4 7468   0.253   0.665   3.443  0.7451 -0.2233  0.1453
 1926SOL     OW 7469   1.140   3.624   2.894 -0.3612 -0.4178  0.4677
 1926SOL    HW2 7470   1.069   3.658   2.948  0.8601 -1.1129  2.6411
 1926SOL    HW3 7471   1.214   3.615   2.954  0.2621 -4.0717 -0.5916
 1926SOL    MW4 7472   1.141   3.628   2.909 -0.1179 -0.9916  0.6147
 1927SOL     OW 7473   0.515   4.851   1.285 -0.0743  1.2426 -0.0471
 1927SOL    HW2 7474   0.526   4.757   1.300 -1.1175  0.8281 -1.5390
 1927SOL    HW3 7475   0.498   4.888   1.371  1.9646  0.3447  0.8023
 1927SOL    MW4 7476   0.514   4.843   1.298  0.0571  1.0694 -0.1319
 1928SOL     OW 7477   4.993   4.840   4.179 -0.0235  0.0107 -0.9794
 1928SOL    HW2 7478   5.047   4.868   4.252  0.6881 -1.1013 -1.0526
 1928SOL    HW3 7479   4.907   4.823   4.217  0.0634  0.4167 -0.5961
 1928SOL    MW4 7480   4.989   4.841   4.193  0.0818 -0.0825 -0.9385
 1929SOL     OW 7481   4.469   2.772   1.317 -0.0350 -0.3859 -0.6570
 1929SOL    HW2 7482   4.415   2.839   1.275 -0.4259 -0.7361 -0.7197
 1929SOL    HW3 7483   4.411   2.733   1.383  0.5432  0.1058  0.1568
 1929SOL    MW4 7484   4.454   2.776   1.321 -0.0103 -0.3672 -0.5579
 1930SOL     OW 7485   5.457   3.601   5.844 -0.3935  0.6553  0.0935
 1930SOL    HW2 7486   5.406   3.668   5.889 -0.3143 -0.2297  1.5764
 1930SOL    HW3 7487   5.545   3.639   5.837 -0.4463  0.8731  0.5675
 1930SOL    MW4 7488   5.462   3.615   5.849 -0.3900  0.5673  0.3517
 1931SOL     OW 7489   1.271   5.841   5.914  0.4545  0.6906 -0.5390
 1931SOL    HW2 7490   1.242   5.911   5.856  0.2287  1.2645  0.2538
 1931SOL    HW3 7491   1.311   5.886   5.988  0.8156 -0.0339 -0.2829
 1931SOL    MW4 7492   1.273   5.856   5.916  0.4723  0.6708 -0.4006
 1932SOL     OW 7493   1.755   6.013   5.235 -0.4637  0.2563  0.8882
 1932SOL    HW2 7494   1.758   5.932   5.287 -0.4328 -1.1259 -1.1508
 1932SOL    HW3 7495   1.661   6.031   5.225 -0.6357 -1.4120 -1.2949
 1932SOL    MW4 7496   1.743   6.005   5.241 -0.4823 -0.1462  0.3311
 1933SOL     OW 7497   1.176   2.787   2.165 -0.1117 -0.7570  0.1075
 1933SOL    HW2 7498   1.147   2.760   2.077  1.3833 -0.1995 -0.5932
 1933SOL    HW3 7499   1.165   2.882   2.165  1.0889 -0.6062  0.0432
 1933SOL    MW4 7500   1.170   2.796   2.153  0.2439 -0.6635  0.0065
 1934SOL     OW 7501   1.761   1.150   1.665  0.2254 -0.8802  0.1205
 1934SOL    HW2 7502   1.829   1.210   1.636 -0.5308 -0.4101 -0.7506
 1934SOL    HW3 7503   1.706   1.201   1.725 -0.5139 -0.6192 -0.7481
 1934SOL    MW4 7504   1.762   1.165   1.669  0.0281 -0.7837 -0.1090
 1935SOL     OW 7505   3.539   2.917   1.411  0.0995 -0.1179 -0.0494
 1935SOL    HW2 7506   3.473   2.987   1.408 -1.0395 -1.1467  0.4101
 1935SOL    HW3 7507   3.615   2.959   1.451 -0.7176  0.7585  0.6497
 1935SOL    MW4 7508   3.540   2.932   1.416 -0.1586 -0.1380  0.1035
 1936SOL     OW 7509   0.797   2.024   1.150  0.3078  0.3649  0.6289
 1936SOL    HW2 7510   0.880   2.070   1.163  1.2642 -1.1938  0.2809
 1936SOL    HW3 7511   0.811   1.938   1.189  0.0879 -1.1524 -2.3058
 1936SOL    MW4 7512   0.810   2.019   1.157  0.4050 -0.0409  0.1958
 1937SOL     OW 7513   5.519   5.824   2.358  0.3803 -0.3716 -0.0057
 1937SOL    HW2 7514   5.531   5.746   2.303  0.4780 -0.6614  0.4229
 1937SOL    HW3 7515   5.429   5.852   2.339 -0.6433 -2.1400  1.7697
 1937SOL    MW4 7516   5.508   5.817   2.348  0.2581 -0.6431  0.2851
 1938SOL     OW 7517   1.225   1.180   2.976  0.1518  0.0662  0.1068
 1938SOL    HW2 7518   1.191   1.230   3.050  0.4673  0.2280  0.1435
 1938SOL    HW3 7519   1.192   1.227   2.899  0.3981  0.2999  0.1419
 1938SOL    MW4 7520   1.216   1.193   2.975  0.2259  0.1184  0.1163
 1939SOL     OW 7521   5.008   5.554   5.705  0.0282 -0.3662 -0.3784
 1939SOL    HW2 7522   5.083   5.584   5.757 -0.0669 -1.0246  0.1512
 1939SOL    HW3 7523   4.932   5.595   5.745  0.0830  0.1578 -0.8037
 1939SOL    MW4 7524   5.008   5.563   5.717  0.0229 -0.3839 -0.3646
 1940SOL     OW 7525   5.873   3.122   4.642 -0.1089 -0.5314 -0.1413
 1940SOL    HW2 7526   5.960   3.091   4.670  0.6463  1.3929 -0.1797
 1940SOL    HW3 7527   5.849   3.187   4.708 -0.8169  0.0564 -0.9552
 1940SOL    MW4 7528   5.881   3.126   4.654 -0.1026 -0.2000 -0.2537
 1941SOL     OW 7529   4.915   3.780   5.214  0.1020  0.3507  0.0513
 1941SOL    HW2 7530   5.002   3.814   5.237 -0.4071  1.9474 -0.2815
 1941SOL    HW3 7531   4.923   3.686   5.224  2.1852  0.3619 -0.9741
 1941SOL    MW4 7532   4.928   3.772   5.218  0.3097  0.5629 -0.1279
 1942SOL     OW 7533   0.240   2.376   4.073 -0.3748 -0.5087 -0.1382
 1942SOL    HW2 7534   0.151   2.402   4.051 -0.7723 -1.2230  0.5384
 1942SOL    HW3 7535   0.245   2.387   4.168  1.1616  2.1498 -0.4366
 1942SOL    MW4 7536   0.229   2.381   4.083 -0.2245 -0.2522 -0.0883
 1943SOL     OW 7537   3.196   3.187   0.679  0.0429  0.3049  0.1096
 1943SOL    HW2 7538   3.139   3.137   0.620  0.9340  0.8996 -1.3026
 1943SOL    HW3 7539   3.182   3.146   0.764 -0.8176 -1.0087 -0.6087
 1943SOL    MW4 7540   3.187   3.175   0.682  0.0469  0.2100 -0.1715
 1944SOL     OW 7541   4.415   3.615   3.863 -0.6613 -0.0319  0.2100
 1944SOL    HW2 7542   4.375   3.584   3.944  0.7370  0.0076  0.9470
 1944SOL    HW3 7543   4.508   3.624   3.884 -0.2195 -0.2919 -1.4878
 1944SOL    MW4 7544   4.422   3.612   3.877 -0.4185 -0.0610  0.0833
 1945SOL     OW 7545   2.463   0.436   5.946  0.1138  0.0121  0.6297
 1945SOL    HW2 7546   2.437   0.434   6.038  1.0847  0.6518  0.9310
 1945SOL    HW3 7547   2.511   0.354   5.932 -0.9865 -0.6104  0.3823
 1945SOL    MW4 7548   2.466   0.425   5.956  0.0967  0.0144  0.6368
 1946SOL     OW 7549   5.642   4.842   4.028  0.1525  0.0904  0.4125
 1946SOL    HW2 7550   5.563   4.787   4.027 -0.5428  1.0714  0.2103
 1946SOL    HW3 7551   5.714   4.780   4.016 -0.7293 -0.6039 -1.9582
 1946SOL    MW4 7552   5.641   4.826   4.026 -0.0556  0.1282  0.0730
 1947SOL     OW 7553   1.455   0.050   6.193 -0.1947  0.0033 -0.0934
 1947SOL    HW2 7554   1.363   0.030   6.181 -0.4710  1.8280 -1.5237
 1947SOL    HW3 7555   1.492  -0.028   6.234 -2.0486 -1.3889 -0.9363
 1947SOL    MW4 7556   1.448   0.037   6.197 -0.4757  0.0603 -0.3933
 1948SOL     OW 7557   1.273   1.513   2.760 -0.3116  1.1175  0.1464
 1948SOL    HW2 7558   1.266   1.548   2.671 -0.8527  2.1656  0.5908
 1948SOL    HW3 7559   1.365   1.489   2.769 -0.4768 -0.0953 -1.0905
 1948SOL    MW4 7560   1.284   1.514   2.749 -0.4048  1.0958  0.0418
 1949SOL     OW 7561   4.293   3.293   4.843  0.2057  0.6098 -0.2024
 1949SOL    HW2 7562   4.373   3.296   4.789 -0.3016  2.1494 -0.9084
 1949SOL    HW3 7563   4.312   3.352   4.916  1.0219 -1.7233  1.6020
 1949SOL    MW4 7564   4.306   3.301   4.846  0.2465  0.5051 -0.0575
 1950SOL     OW 7565   4.845   2.271   5.593  0.3018  0.1136 -0.7360
 1950SOL    HW2 7566   4.892   2.288   5.512  0.6220  1.6482 -0.2506
 1950SOL    HW3 7567   4.794   2.350   5.609  1.1369  0.3436  1.1359
 1950SOL    MW4 7568   4.845   2.283   5.585  0.4542  0.3464 -0.4249
 1951SOL     OW 7569   2.816   4.804   3.162 -0.0133 -0.0727  0.2001
 1951SOL    HW2 7570   2.907   4.832   3.177 -0.5915  1.8584  0.3595
 1951SOL    HW3 7571   2.784   4.864   3.095 -1.0892 -0.9587 -0.0963
 1951SOL    MW4 7572   2.824   4.816   3.155 -0.2315  0.0652  0.1820
 1952SOL     OW 7573   3.114   1.781   6.059 -0.0167 -0.1854 -0.2672
 1952SOL    HW2 7574   3.144   1.872   6.054  1.9370 -0.7321  0.5591
 1952SOL    HW3 7575   3.057   1.779   6.135 -0.0531  0.3443 -0.2738
 1952SOL    MW4 7576   3.111   1.793   6.068  0.2363 -0.1876 -0.1590
 1953SOL     OW 7577   0.237   1.518   1.569  0.1508 -0.3639 -0.0653
 1953SOL    HW2 7578   0.149   1.482   1.580 -0.3430  0.4086 -1.2686
 1953SOL    HW3 7579   0.238   1.552   1.479  1.4210  0.3371  0.1867
 1953SOL    MW4 7580   0.226   1.518   1.558  0.2532 -0.1695 -0.1908
 1954SOL     OW 7581   5.179   2.062   6.294 -0.1818 -0.3049 -0.1401
 1954SOL    HW2 7582   5.161   1.978   6.338 -0.6595  0.0869  0.4252
 1954SOL    HW3 7583   5.273   2.060   6.278  0.0787 -0.3099  1.2466
 1954SOL    MW4 7584   5.189   2.050   6.298 -0.2105 -0.2539  0.1175
 1955SOL     OW 7585   3.747   5.747   3.513  0.7597 -0.6227 -0.0361
 1955SOL    HW2 7586   3.806   5.818   3.486 -1.7717  0.7323 -2.4307
 1955SOL    HW3 7587   3.743   5.754   3.609  0.9426  2.2114 -0.1687
 1955SOL    MW4 7588   3.754   5.757   3.522  0.4498 -0.0700 -0.3696
 1956SOL     OW 7589   2.554   4.512   4.855 -0.2678 -0.2181  0.3597
 1956SOL    HW2 7590   2.495   4.572   4.900  0.0184  1.5996 -1.5608
 1956SOL    HW3 7591   2.499   4.469   4.790 -0.0674 -0.7141  0.5098
 1956SOL    MW4 7592   2.539   4.514   4.853 -0.2036 -0.0437  0.1261
 1957SOL     OW 7593   5.597   5.777   3.058  0.1309 -0.3150 -0.1066
 1957SOL    HW2 7594   5.622   5.731   3.138 -0.4084 -1.5018 -0.5946
 1957SOL    HW3 7595   5.672   5.767   2.999 -0.4761 -1.7455 -0.6825
 1957SOL    MW4 7596   5.610   5.770   3.061 -0.0203 -0.6603 -0.2470
 1958SOL     OW 7597   1.289   1.229   0.752  0.2825 -0.6587 -0.1220
 1958SOL    HW2 7598   1.269   1.182   0.833 -0.9566  0.6922  0.3984
 1958SOL    HW3 7599   1.377   1.201   0.729  0.3942 -1.5820  1.3290
 1958SOL    MW4 7600   1.298   1.219   0.760  0.1337 -0.6022  0.1381
 1959SOL     OW 7601   1.060   5.119   5.254  0.2928 -0.0490 -0.3371
 1959SOL    HW2 7602   1.154   5.131   5.270  0.3915  1.3708 -1.6930
 1959SOL    HW3 7603   1.055   5.040   5.200  1.0299  1.2747 -2.4884
 1959SOL    MW4 7604   1.072   5.110   5.249  0.4031  0.3130 -0.7999
 1960SOL     OW 7605   4.710   6.332   1.317  0.5367  0.8780 -0.1418
 1960SOL    HW2 7606   4.791   6.345   1.268  0.8108  1.0309  0.3425
 1960SOL    HW3 7607   4.647   6.390   1.275  0.8536  1.2435 -0.1256
 1960SOL    MW4 7608   4.712   6.341   1.305  0.6147  0.9464 -0.0758
 1961SOL     OW 7609   5.723   2.949   4.194 -0.0958  0.0767  0.7754
 1961SOL    HW2 7610   5.782   2.897   4.249  0.0779  0.8778  1.3715
 1961SOL    HW3 7611   5.718   2.901   4.111  1.3134 -0.0737  0.7556
 1961SOL    MW4 7612   5.730   2.936   4.190  0.1130  0.1625  0.8514
 1962SOL     OW 7613   4.467   1.726   6.208 -0.0922  0.8096 -0.5116
 1962SOL    HW2 7614   4.409   1.663   6.252  0.6556 -0.2849 -1.0458
 1962SOL    HW3 7615   4.481   1.795   6.274  0.1503 -0.2513  0.5845
 1962SOL    MW4 7616   4.461   1.727   6.223  0.0384  0.5252 -0.4374
 1963SOL     OW 7617   1.702   6.060   1.317 -0.3832  0.3943 -0.2127
 1963SOL    HW2 7618   1.758   5.984   1.304 -0.2685  0.4840 -0.2461
 1963SOL    HW3 7619   1.672   6.053   1.407 -0.9095 -0.0514 -0.4145
 1963SOL    MW4 7620   1.705   6.049   1.327 -0.4375  0.3473 -0.2437
 1964SOL     OW 7621   0.446   2.637   5.181  0.0930 -0.5431  0.0100
 1964SOL    HW2 7622   0.432   2.678   5.096  0.6197 -0.1235  0.1254
 1964SOL    HW3 7623   0.361   2.597   5.201 -0.6169  0.9316  0.1375
 1964SOL    MW4 7624   0.433   2.637   5.172  0.0688 -0.2932  0.0420
 1965SOL     OW 7625   3.397   5.661   3.711 -0.4027 -0.1260  0.2941
 1965SOL    HW2 7626   3.482   5.629   3.740 -1.0217 -1.4462  0.6953
 1965SOL    HW3 7627   3.418   5.739   3.659  1.0559 -0.5431  0.2073
 1965SOL    MW4 7628   3.411   5.667   3.708 -0.2919 -0.3552  0.3356
 1966SOL     OW 7629   6.171   1.872   6.015 -0.4308  0.1720 -0.0167
 1966SOL    HW2 7630   6.135   1.797   6.061  1.8555  0.1520  1.9550
 1966SOL    HW3 7631   6.155   1.947   6.073  0.4244  0.5782 -0.2812
 1966SOL    MW4 7632   6.165   1.872   6.029 -0.0163  0.2230  0.2086
 1967SOL     OW 7633   1.955   2.307   5.134 -0.2112 -0.1427  0.2196
 1967SOL    HW2 7634   1.925   2.235   5.190  0.6060  0.3555  1.3614
 1967SOL    HW3 7635   2.047   2.319   5.159 -0.6923  2.2323  1.1336
 1967SOL    MW4 7636   1.963   2.299   5.145 -0.1669  0.2364  0.4908
 1968SOL     OW 7637   5.941   3.224   1.799  0.3632  0.1385 -0.3678
 1968SOL    HW2 7638   5.851   3.216   1.767 -0.0672  2.1457  0.2369
 1968SOL    HW3 7639   5.968   3.312   1.774  2.0472 -0.2948 -0.1936
 1968SOL    MW4 7640   5.932   3.234   1.791  0.5286  0.3462 -0.2650
 1969SOL     OW 7641   2.503   5.445   5.552  0.4235  0.0465  0.3312
 1969SOL    HW2 7642   2.452   5.520   5.582  1.7662  0.2430  2.3868
 1969SOL    HW3 7643   2.581   5.484   5.512  1.1239 -0.2130  1.4026
 1969SOL    MW4 7644   2.507   5.460   5.551  0.6931  0.0382  0.7438
 1970SOL     OW 7645   2.591   2.873   3.160 -0.4899 -0.3986  0.0759
 1970SOL    HW2 7646   2.593   2.858   3.065  0.8369 -1.3247  0.2320
 1970SOL    HW3 7647   2.535   2.951   3.170  0.0015  0.2077 -1.5220
 1970SOL    MW4 7648   2.584   2.881   3.149 -0.2500 -0.4408 -0.1143
 1971SOL     OW 7649   0.618   2.197   5.326 -0.4796  0.1194 -0.1866
 1971SOL    HW2 7650   0.674   2.173   5.399 -0.3963 -0.8248 -0.5560
 1971SOL    HW3 7651   0.617   2.293   5.328  0.9744  0.1486 -0.0543
 1971SOL    MW4 7652   0.625   2.207   5.336 -0.2768 -0.0013 -0.2179
 1972SOL     OW 7653   2.607   5.156   6.277  0.6313  0.1842 -0.0617
 1972SOL    HW2 7654   2.675   5.178   6.341 -0.0193 -0.2425  0.7946
 1972SOL    HW3 7655   2.656   5.137   6.197  1.4079  1.4640  0.0808
 1972SOL    MW4 7656   2.623   5.156   6.275  0.6479  0.2968  0.0701
 1973SOL     OW 7657   6.378   4.915   3.943  0.0275 -0.3448  0.5109
 1973SOL    HW2 7658   6.435   4.990   3.923 -0.1581 -0.4056 -0.2802
 1973SOL    HW3 7659   6.425   4.839   3.910 -0.5431 -0.3845 -0.2399
 1973SOL    MW4 7660   6.392   4.915   3.936 -0.0723 -0.3580  0.3075
 1974SOL     OW 7661   3.278   2.958   6.162 -0.1084  0.1639  0.1067
 1974SOL    HW2 7662   3.238   3.038   6.129 -1.2173  0.3930  1.8901
 1974SOL    HW3 7663   3.364   2.984   6.194 -0.0231  0.4138 -0.3274
 1974SOL    MW4 7664   3.284   2.972   6.162 -0.2434  0.2271  0.2847
 1975SOL     OW 7665   3.835   4.364   4.714  0.5164  0.1312 -0.2055
 1975SOL    HW2 7666   3.806   4.330   4.798 -1.5815 -0.0703 -0.9611
 1975SOL    HW3 7667   3.759   4.411   4.679  2.0544  2.2144 -0.9756
 1975SOL    MW4 7668   3.822   4.366   4.721  0.4426  0.3794 -0.4068
 1976SOL     OW 7669   1.367   3.610   0.788 -0.2122 -0.0971 -0.0617
 1976SOL    HW2 7670   1.360   3.526   0.744 -1.0566 -0.2573  0.3701
 1976SOL    HW3 7671   1.290   3.616   0.844  0.6882  0.2135  1.2126
 1976SOL    MW4 7672   1.356   3.600   0.790 -0.2048 -0.0773  0.1634
 1977SOL     OW 7673   4.801   1.916   4.254  0.5898 -0.3565  0.4021
 1977SOL    HW2 7674   4.735   1.952   4.194  1.9609 -0.0891 -0.9961
 1977SOL    HW3 7675   4.809   1.824   4.229  0.0889 -0.6449  1.2258
 1977SOL    MW4 7676   4.793   1.908   4.243  0.7046 -0.3592  0.3263
 1978SOL     OW 7677   0.650   5.927   3.687 -0.3505 -0.5022  0.4746
 1978SOL    HW2 7678   0.561   5.915   3.652 -0.1575 -2.4423  0.5070
 1978SOL    HW3 7679   0.692   5.988   3.627 -1.8519  0.8584  0.7527
 1978SOL    MW4 7680   0.644   5.933   3.675 -0.5232 -0.5786  0.5156
 1979SOL     OW 7681   3.293   1.574   6.101  0.4704  0.6254  0.6092
 1979SOL    HW2 7682   3.236   1.648   6.078 -0.3906 -0.8064 -2.2836
 1979SOL    HW3 7683   3.233   1.503   6.121  1.1440 -0.6596 -1.6202
 1979SOL    MW4 7684   3.277   1.575   6.101  0.4457  0.2669 -0.0666
 1980SOL     OW 7685   2.979   4.732   0.116 -0.4335  0.6262  0.8059
 1980SOL    HW2 7686   2.972   4.689   0.031  0.6605  0.3446  0.8553
 1980SOL    HW3 7687   3.049   4.686   0.162 -0.4570  1.3030  1.5517
 1980SOL    MW4 7688   2.987   4.721   0.111 -0.2923  0.6783  0.9108
 1981SOL     OW 7689   3.856   3.546   2.582 -0.0401  0.6757  0.7417
 1981SOL    HW2 7690   3.926   3.603   2.550  1.2446 -1.0668  0.3227
 1981SOL    HW3 7691   3.803   3.525   2.505 -1.2636  2.2275  1.1072
 1981SOL    MW4 7692   3.858   3.551   2.568 -0.0320  0.6506  0.7347
 1982SOL     OW 7693   6.418   2.484   4.000 -0.5368  0.3990 -0.0183
 1982SOL    HW2 7694   6.368   2.404   3.986 -0.6631  0.6260 -0.9475
 1982SOL    HW3 7695   6.423   2.524   3.914  1.1479  0.4464  0.0750
 1982SOL    MW4 7696   6.412   2.479   3.987 -0.3312  0.4352 -0.1286
 1983SOL     OW 7697   2.792   0.354   1.579 -0.4282  0.6374 -0.5160
 1983SOL    HW2 7698   2.746   0.355   1.663  0.1257 -0.6022 -0.1762
 1983SOL    HW3 7699   2.883   0.369   1.602 -0.4738  1.8532 -1.0693
 1983SOL    MW4 7700   2.798   0.356   1.593 -0.3612  0.6343 -0.5442
 1984SOL     OW 7701   4.270   3.967   1.911 -0.3555  0.6174  0.2656
 1984SOL    HW2 7702   4.203   3.999   1.972  0.2678  1.0342  0.7521
 1984SOL    HW3 7703   4.331   4.040   1.904 -0.0539  0.3098 -0.3265
 1984SOL    MW4 7704   4.269   3.981   1.918 -0.2335  0.6318  0.2517
 1985SOL     OW 7705   5.151   0.352   1.078  1.0560 -0.4697  0.8479
 1985SOL    HW2 7706   5.180   0.289   1.144  1.1259  1.6874  2.9959
 1985SOL    HW3 7707   5.216   0.422   1.081 -0.1311  0.7213  0.0485
 1985SOL    MW4 7708   5.164   0.353   1.087  0.9086 -0.0280  1.0259
 1986SOL     OW 7709   0.627   1.786   3.581 -0.4700 -0.4414 -0.1892
 1986SOL    HW2 7710   0.632   1.814   3.673 -0.1290  2.6105 -1.0340
 1986SOL    HW3 7711   0.533   1.786   3.561 -0.5523  5.5058 -1.4506
 1986SOL    MW4 7712   0.615   1.790   3.591 -0.4358  0.7459 -0.4671
 1987SOL     OW 7713   2.834   0.326   4.484 -0.1442 -0.4145 -0.2097
 1987SOL    HW2 7714   2.777   0.330   4.408  0.0507  0.1250 -0.3291
 1987SOL    HW3 7715   2.833   0.415   4.520  0.1423 -0.5498  0.1378
 1987SOL    MW4 7716   2.827   0.338   4.479 -0.0807 -0.3612 -0.1796
 1988SOL     OW 7717   6.431   1.323   0.160 -0.5853  0.0065  0.1858
 1988SOL    HW2 7718   6.364   1.282   0.105  1.1709 -1.2104 -1.1546
 1988SOL    HW3 7719   6.477   1.383   0.101 -0.4736  0.8418  1.0970
 1988SOL    MW4 7720   6.428   1.326   0.145 -0.3388 -0.0438  0.1292
 1989SOL     OW 7721   2.068   1.015   2.135  0.8496  0.3872  0.2280
 1989SOL    HW2 7722   2.127   0.958   2.185  0.6223  1.4374  1.7831
 1989SOL    HW3 7723   2.025   0.957   2.072 -0.0306 -1.3601  2.3026
 1989SOL    MW4 7724   2.070   1.000   2.133  0.7035  0.2952  0.7069
 1990SOL     OW 7725   4.208   5.949   1.454  0.1104 -0.2046 -0.3959
 1990SOL    HW2 7726   4.265   5.878   1.484  0.3250  0.1196 -0.0228
 1990SOL    HW3 7727   4.132   5.946   1.513  0.2691  0.0760 -0.1728
 1990SOL    MW4 7728   4.205   5.940   1.466  0.1597 -0.1248 -0.3172
 1991SOL     OW 7729   4.909   4.447   2.459 -0.1395 -0.2393  0.5207
 1991SOL    HW2 7730   4.879   4.401   2.381 -0.4773 -1.1980  1.1949
 1991SOL    HW3 7731   4.870   4.534   2.452 -1.0774 -0.6762  0.1689
 1991SOL    MW4 7732   4.900   4.453   2.448 -0.3078 -0.4235  0.5633
 1992SOL     OW 7733   5.639   0.834   3.753 -0.0349 -0.2871  0.3817
 1992SOL    HW2 7734   5.570   0.769   3.738  0.3587 -0.3727 -1.2736
 1992SOL    HW3 7735   5.646   0.840   3.848 -2.6208  0.0310  0.6482
 1992SOL    MW4 7736   5.631   0.826   3.763 -0.3241 -0.2564  0.1985
 1993SOL     OW 7737   6.417   1.411   3.425  0.0776 -0.2560 -0.0233
 1993SOL    HW2 7738   6.431   1.439   3.515  0.0245 -0.8116  0.1603
 1993SOL    HW3 7739   6.410   1.492   3.375  1.2847  0.0533  0.2853
 1993SOL    MW4 7740   6.418   1.425   3.430  0.2299 -0.2885  0.0416
 1994SOL     OW 7741   1.176   6.142   4.199 -0.0850 -0.7180  0.8579
 1994SOL    HW2 7742   1.215   6.057   4.175  0.3828 -0.2767 -0.0221
 1994SOL    HW3 7743   1.088   6.139   4.163 -0.2969 -1.0763  1.3961
 1994SOL    MW4 7744   1.170   6.130   4.191 -0.0513 -0.7070  0.8128
 1995SOL     OW 7745   4.360   6.177   6.086 -0.1880 -0.5233  0.0920
 1995SOL    HW2 7746   4.431   6.147   6.143 -0.3546 -0.4470  0.3367
 1995SOL    HW3 7747   4.285   6.190   6.144  0.0204  0.8906  0.0878
 1995SOL    MW4 7748   4.360   6.175   6.101 -0.1825 -0.3267  0.1237
 1996SOL     OW 7749   1.849   5.636   0.773 -0.1175  0.6711  0.0804
 1996SOL    HW2 7750   1.882   5.680   0.852 -0.3070 -0.2539  0.6857
 1996SOL    HW3 7751   1.754   5.651   0.776 -0.5444 -1.8597  1.6563
 1996SOL    MW4 7752   1.840   5.644   0.784 -0.1988  0.2152  0.3682
 1997SOL     OW 7753   0.676   5.124   0.632  0.2158 -0.1009  0.1631
 1997SOL    HW2 7754   0.707   5.117   0.542 -0.3220  1.9470 -0.2334
 1997SOL    HW3 7755   0.624   5.046   0.646  2.3623 -1.7366 -0.4081
 1997SOL    MW4 7756   0.673   5.113   0.622  0.4281 -0.0465  0.0354
 1998SOL     OW 7757   4.669   1.650   1.141  0.1819  0.0385  0.0228
 1998SOL    HW2 7758   4.738   1.674   1.202  0.0202 -1.0602  0.6605
 1998SOL    HW3 7759   4.620   1.581   1.186 -3.0915  2.6499  0.7999
 1998SOL    MW4 7760   4.672   1.644   1.155 -0.2713  0.2381  0.2095
 1999SOL     OW 7761   2.404   0.501   4.563 -0.2317 -0.2683  0.2245
 1999SOL    HW2 7762   2.351   0.423   4.578 -0.7746 -0.2059 -1.2547
 1999SOL    HW3 7763   2.341   0.574   4.566 -0.2245 -0.1687 -1.2552
 1999SOL    MW4 7764   2.388   0.500   4.565 -0.3024 -0.2469 -0.1659
 2000SOL     OW 7765   3.349   1.398   1.041  0.7055 -0.0143 -0.6147
 2000SOL    HW2 7766   3.267   1.377   1.086 -0.3850  1.3503 -1.8612
 2000SOL    HW3 7767   3.418   1.369   1.102 -0.6924 -0.1912  0.9562
 2000SOL    MW4 7768   3.348   1.392   1.055  0.3772  0.1424 -0.5719
 2001SOL     OW 7769   5.766   2.621   1.478  0.0008  0.4262 -0.0796
 2001SOL    HW2 7770   5.799   2.667   1.401 -1.1481  1.2298 -0.1149
 2001SOL    HW3 7771   5.690   2.572   1.446  0.3542 -0.3726  0.2615
 2001SOL    MW4 7772   5.760   2.621   1.464 -0.1041  0.4268 -0.0392
 2002SOL     OW 7773   2.849   3.088   3.038 -0.1968 -0.3915  0.7991
 2002SOL    HW2 7774   2.888   3.157   2.984  0.3629 -0.4900  1.0614
 2002SOL    HW3 7775   2.878   3.006   2.997  0.8670 -0.4749  1.6565
 2002SOL    MW4 7776   2.858   3.086   3.026  0.0174 -0.4155  0.9468
 2003SOL     OW 7777   5.611   1.180   2.556 -0.1819 -0.1576  0.0393
 2003SOL    HW2 7778   5.576   1.110   2.501 -0.1022  0.7966 -1.2583
 2003SOL    HW3 7779   5.706   1.167   2.554 -0.2772 -1.5226  1.9056
 2003SOL    MW4 7780   5.619   1.169   2.549 -0.1839 -0.2118  0.1143
 2004SOL     OW 7781   0.711   3.701   4.370 -0.8443  0.3394 -0.1276
 2004SOL    HW2 7782   0.741   3.725   4.282  0.2287 -0.8910 -0.1201
 2004SOL    HW3 7783   0.652   3.627   4.356 -0.0642 -0.3601  0.2377
 2004SOL    MW4 7784   0.707   3.694   4.356 -0.5998  0.0847 -0.0784
 2005SOL     OW 7785   4.783   4.207   0.606 -0.2753 -0.0921  0.4878
 2005SOL    HW2 7786   4.705   4.202   0.660 -0.2092 -2.7548  0.4380
 2005SOL    HW3 7787   4.764   4.154   0.529  1.3644 -0.3239  0.1919
 2005SOL    MW4 7788   4.770   4.199   0.603 -0.0502 -0.4740  0.4422
 2006SOL     OW 7789   4.316   3.399   2.564 -0.5290 -0.2950 -0.5407
 2006SOL    HW2 7790   4.337   3.492   2.558  0.4441 -0.3975  0.8041
 2006SOL    HW3 7791   4.221   3.394   2.550 -0.2610  0.5847 -3.2001
 2006SOL    MW4 7792   4.306   3.410   2.561 -0.3653 -0.1924 -0.7142
 2007SOL     OW 7793   1.559   5.707   1.135 -0.1549 -0.3117 -0.2595
 2007SOL    HW2 7794   1.640   5.657   1.130 -0.3052 -0.5307 -0.5688
 2007SOL    HW3 7795   1.550   5.731   1.227 -1.0108 -2.4161  0.2679
 2007SOL    MW4 7796   1.568   5.703   1.147 -0.2876 -0.6182 -0.2307
 2008SOL     OW 7797   3.844   6.088   5.576 -0.0075  0.7467  0.1038
 2008SOL    HW2 7798   3.879   6.008   5.536  2.4588  1.1975  1.1819
 2008SOL    HW3 7799   3.758   6.062   5.611 -0.0416 -0.9299 -1.1170
 2008SOL    MW4 7800   3.837   6.074   5.576  0.3134  0.5850  0.0849
 2009SOL     OW 7801   4.369   3.147   0.446 -0.2918  0.0266  0.3578
 2009SOL    HW2 7802   4.370   3.201   0.368 -1.2491  1.4712  1.2936
 2009SOL    HW3 7803   4.457   3.154   0.482 -0.0456 -0.1001 -0.2101
 2009SOL    MW4 7804   4.381   3.155   0.441 -0.3856  0.2005  0.4063
 2010SOL     OW 7805   2.111   5.656   1.072 -0.3867  0.2517 -0.0267
 2010SOL    HW2 7806   2.156   5.723   1.122  1.4018  0.2900 -1.6010
 2010SOL    HW3 7807   2.020   5.686   1.068  0.2297  2.2449 -0.1063
 2010SOL    MW4 7808   2.105   5.669   1.078 -0.0694  0.5197 -0.2449
 2011SOL     OW 7809   4.358   1.022   5.178  0.7655  0.2081 -0.0359
 2011SOL    HW2 7810   4.420   1.038   5.106  2.6668  1.5977  1.7871
 2011SOL    HW3 7811   4.290   1.088   5.165  0.3119 -0.4754 -1.3224
 2011SOL    MW4 7812   4.357   1.033   5.167  0.9565  0.3013  0.0349
 2012SOL     OW 7813   1.794   2.515   2.601  0.4607  0.2140 -0.7560
 2012SOL    HW2 7814   1.810   2.608   2.616 -0.9003  0.8395 -2.8564
 2012SOL    HW3 7815   1.701   2.510   2.581  0.6195 -1.5460 -1.1918
 2012SOL    MW4 7816   1.784   2.527   2.601  0.3020  0.0643 -1.0906
 2013SOL     OW 7817   5.663   1.411   1.593  0.0910  0.3372 -0.0912
 2013SOL    HW2 7818   5.691   1.489   1.641 -0.7178  1.7130 -1.7246
 2013SOL    HW3 7819   5.723   1.342   1.621  0.7078  1.4788  1.5576
 2013SOL    MW4 7820   5.675   1.412   1.603  0.0656  0.6694 -0.0891
 2014SOL     OW 7821   1.325   2.601   4.367 -0.4351  0.0936 -0.3270
 2014SOL    HW2 7822   1.251   2.620   4.425  0.4109  0.7915  0.5558
 2014SOL    HW3 7823   1.401   2.634   4.414  0.6245 -1.8133 -0.6091
 2014SOL    MW4 7824   1.325   2.608   4.381 -0.1837 -0.0659 -0.2477
 2015SOL     OW 7825   4.672   3.277   1.242  0.0092  0.5015  0.1463
 2015SOL    HW2 7826   4.593   3.225   1.226  0.8823 -0.8384  0.0002
 2015SOL    HW3 7827   4.655   3.360   1.197 -1.7410  0.6768  1.0211
 2015SOL    MW4 7828   4.659   3.281   1.234 -0.1065  0.3479  0.2424
 2016SOL     OW 7829   1.449   6.051   4.888 -0.3379  0.4077 -0.0191
 2016SOL    HW2 7830   1.502   6.130   4.877 -0.3026  0.2120 -1.5102
 2016SOL    HW3 7831   1.426   6.049   4.981 -1.8812  3.1669 -0.2442
 2016SOL    MW4 7832   1.453   6.061   4.899 -0.5368  0.7459 -0.2456
 2017SOL     OW 7833   4.749   1.842   6.424  0.3636  0.1790 -0.0328
 2017SOL    HW2 7834   4.735   1.762   6.475 -0.8372 -1.2214 -2.3859
 2017SOL    HW3 7835   4.661   1.880   6.416  0.7470  1.0931  0.0486
 2017SOL    MW4 7836   4.735   1.836   6.430  0.2557  0.1148 -0.3325
 2018SOL     OW 7837   2.219   5.873   5.471  0.1728 -0.1081  0.3733
 2018SOL    HW2 7838   2.246   5.965   5.467  0.7050 -0.2553  0.5475
 2018SOL    HW3 7839   2.123   5.876   5.469  0.1475  0.3227 -2.8020
 2018SOL    MW4 7840   2.210   5.885   5.470  0.2397 -0.0707 -0.0227
 2019SOL     OW 7841   2.585   6.143   3.278 -0.3115 -0.1650 -0.6580
 2019SOL    HW2 7842   2.585   6.057   3.235  2.1457 -0.2039 -0.7473
 2019SOL    HW3 7843   2.553   6.125   3.366  1.8775 -1.6347 -0.0555
 2019SOL    MW4 7844   2.581   6.129   3.284  0.3015 -0.3641 -0.5903
 2020SOL     OW 7845   5.160   2.122   1.193  0.6941 -0.0927  0.4077
 2020SOL    HW2 7846   5.068   2.112   1.168  0.6714 -0.4215  0.6164
 2020SOL    HW3 7847   5.179   2.214   1.175  0.1945  0.0909  0.7825
 2020SOL    MW4 7848   5.150   2.133   1.187  0.6252 -0.1118  0.4847
 2021SOL     OW 7849   6.405   3.801   0.361 -0.7561 -0.2855  0.1834
 2021SOL    HW2 7850   6.365   3.797   0.448 -2.8578 -0.5789 -0.7380
 2021SOL    HW3 7851   6.366   3.879   0.321  0.8443  0.3505 -0.2428
 2021SOL    MW4 7852   6.395   3.811   0.367 -0.8223 -0.2403  0.0056
 2022SOL     OW 7853   6.417   3.964   4.120 -0.5821  0.0589 -0.1940
 2022SOL    HW2 7854   6.491   4.009   4.079 -1.1013 -1.1546 -2.6621
 2022SOL    HW3 7855   6.361   4.035   4.152  1.4991  1.0025  1.6037
 2022SOL    MW4 7856   6.419   3.979   4.119 -0.3760  0.0233 -0.2825
 2023SOL     OW 7857   3.983   0.854   0.138 -0.2626  0.0344 -0.4499
 2023SOL    HW2 7858   3.889   0.851   0.120 -0.8358  0.3193  2.0446
 2023SOL    HW3 7859   4.017   0.773   0.101 -1.9192 -1.1209  0.4171
 2023SOL    MW4 7860   3.975   0.843   0.131 -0.5568 -0.0804 -0.0064
 2024SOL     OW 7861   3.770   0.139   5.063  0.4881 -0.1701 -0.2279
 2024SOL    HW2 7862   3.701   0.072   5.057 -0.2617  0.5191  0.3924
 2024SOL    HW3 7863   3.849   0.096   5.030 -0.1924 -1.0488 -0.7527
 2024SOL    MW4 7864   3.771   0.125   5.058  0.2994 -0.1951 -0.2153
 2025SOL     OW 7865   1.711   0.043   6.051 -0.5034 -0.7435 -0.3190
 2025SOL    HW2 7866   1.641   0.052   6.116  0.2442 -0.0097  0.4040
 2025SOL    HW3 7867   1.705  -0.048   6.022 -2.0577 -0.5817 -0.6260
 2025SOL    MW4 7868   1.701   0.033   6.055 -0.6098 -0.6253 -0.2641
 2026SOL     OW 7869   0.360   0.327   3.253 -0.3366  0.3400  0.4289
 2026SOL    HW2 7870   0.359   0.389   3.180 -0.8918  1.5877  1.4374
 2026SOL    HW3 7871   0.305   0.369   3.319 -0.8937 -1.3505  1.0812
 2026SOL    MW4 7872   0.352   0.341   3.252 -0.4834  0.2816  0.6480
 2027SOL     OW 7873   4.873   0.291   2.194  0.7424  0.0874 -0.4913
 2027SOL    HW2 7874   4.901   0.279   2.285 -0.4290  3.1858  0.4351
 2027SOL    HW3 7875   4.853   0.203   2.163  0.3224 -1.0177  2.5587
 2027SOL    MW4 7876   4.874   0.278   2.202  0.5325  0.3504  0.0334
 2028SOL     OW 7877   0.773   4.230   5.836  0.1302 -0.5712  0.3970
 2028SOL    HW2 7878   0.693   4.257   5.792  0.3793 -0.0935  0.2348
 2028SOL    HW3 7879   0.839   4.227   5.767  0.0463 -1.8887  0.3537
 2028SOL    MW4 7880   0.771   4.233   5.821  0.1520 -0.6820  0.3699
 2029SOL     OW 7881   6.150   4.064   0.699  0.2404  0.3018  0.0451
 2029SOL    HW2 7882   6.193   4.116   0.631 -0.4215 -0.4046 -0.9452
 2029SOL    HW3 7883   6.221   4.040   0.758  0.9954  0.2085 -0.8660
 2029SOL    MW4 7884   6.165   4.068   0.698  0.2527  0.1963 -0.2058
 2030SOL     OW 7885   0.683   4.779   2.191  0.1376 -0.0610  0.2291
 2030SOL    HW2 7886   0.674   4.683   2.186 -2.8683 -0.0393  2.5199
 2030SOL    HW3 7887   0.748   4.793   2.260 -1.7325 -0.5982  2.2256
 2030SOL    MW4 7888   0.690   4.768   2.199 -0.5057 -0.1290  0.7947
 2031SOL     OW 7889   4.223   0.169   3.165  0.0931 -0.1582 -0.5058
 2031SOL    HW2 7890   4.230   0.134   3.077 -1.7688  1.7655 -1.5146
 2031SOL    HW3 7891   4.128   0.180   3.179  0.0794 -2.7266  2.7487
 2031SOL    MW4 7892   4.211   0.166   3.155 -0.1544 -0.2433 -0.2095
 2032SOL     OW 7893   5.750   0.284   4.616  0.4612  0.4251  0.2969
 2032SOL    HW2 7894   5.784   0.211   4.667  2.8059  0.2050 -1.3986
 2032SOL    HW3 7895   5.703   0.243   4.543  2.8704  0.4600 -1.3744
 2032SOL    MW4 7896   5.748   0.269   4.613  1.0884  0.4007 -0.1473
 2033SOL     OW 7897   6.397   0.091   5.986 -0.4689 -0.3115  0.1103
 2033SOL    HW2 7898   6.392   0.104   6.080  0.2527  1.8619 -0.1127
 2033SOL    HW3 7899   6.307   0.101   5.955 -0.5065  0.3406  0.4229
 2033SOL    MW4 7900   6.385   0.094   5.994 -0.3787  0.0613  0.1221
 2034SOL     OW 7901   2.494   4.084   5.403 -0.2955 -0.1532 -0.4481
 2034SOL    HW2 7902   2.427   4.143   5.438  0.5660  0.2765  0.5521
 2034SOL    HW3 7903   2.551   4.140   5.350  1.6230  0.4027  2.0135
 2034SOL    MW4 7904   2.493   4.099   5.401  0.0712 -0.0232  0.0087
 2035SOL     OW 7905   3.437  -0.051   3.285  0.3345 -0.0801 -0.1735
 2035SOL    HW2 7906   3.430   0.033   3.239 -0.7928  0.8406  1.5621
 2035SOL    HW3 7907   3.530  -0.059   3.306  0.2300  1.6452  1.1562
 2035SOL    MW4 7908   3.448  -0.041   3.282  0.1720  0.2690  0.2309
 2036SOL     OW 7909   0.912   2.194   5.068  0.9015  0.0287  0.0811
 2036SOL    HW2 7910   0.891   2.271   5.121  3.3144 -1.1115  2.9434
 2036SOL    HW3 7911   0.847   2.128   5.094  0.9113  0.0594  0.1848
 2036SOL    MW4 7912   0.901   2.196   5.078  1.2211 -0.1177  0.4724
 2037SOL     OW 7913   1.666   2.544   4.999  0.0740 -0.8740 -0.7852
 2037SOL    HW2 7914   1.628   2.468   4.955 -0.8441 -1.5958  1.1166
 2037SOL    HW3 7915   1.636   2.536   5.090  0.0652  1.6993 -0.4827
 2037SOL    MW4 7916   1.657   2.533   5.006 -0.0483 -0.6297 -0.4944
 2038SOL     OW 7917   4.211   0.735   4.193 -0.0077 -0.0603  0.5755
 2038SOL    HW2 7918   4.187   0.747   4.101 -2.2019  1.4535  1.2562
 2038SOL    HW3 7919   4.133   0.695   4.232  0.8422 -0.5349  1.8128
 2038SOL    MW4 7920   4.197   0.732   4.186 -0.1851  0.0768  0.8286
 2039SOL     OW 7921   4.390   4.082   0.398  0.3570 -0.1930  0.3579
 2039SOL    HW2 7922   4.318   4.062   0.339  0.6310  0.0893 -0.0798
 2039SOL    HW3 7923   4.353   4.144   0.461 -0.3599 -1.6527  1.4245
 2039SOL    MW4 7924   4.376   4.088   0.399  0.2985 -0.3483  0.4409
 2040SOL     OW 7925   4.822   3.898   2.445 -0.0354 -0.2522  0.4317
 2040SOL    HW2 7926   4.821   3.933   2.356  0.6375  1.2696  0.9967
 2040SOL    HW3 7927   4.796   3.971   2.500  1.6293 -0.5381  1.6702
 2040SOL    MW4 7928   4.819   3.912   2.440  0.2730 -0.0892  0.6697
 2041SOL     OW 7929   3.265   2.581   2.401 -0.0356 -0.3049  0.7785
 2041SOL    HW2 7930   3.280   2.612   2.491  1.5002  0.7460  0.1979
 2041SOL    HW3 7931   3.345   2.533   2.379 -1.1486 -2.1645  0.5841
 2041SOL    MW4 7932   3.278   2.578   2.410  0.0202 -0.4116  0.6762
 2042SOL     OW 7933   0.311   0.556   1.373 -0.1446  0.5833 -0.2906
 2042SOL    HW2 7934   0.321   0.571   1.467  0.8618  0.8086 -0.4200
 2042SOL    HW3 7935   0.257   0.477   1.367  0.9459 -0.2567  0.4998
 2042SOL    MW4 7936   0.305   0.547   1.385  0.1321  0.5022 -0.2034
 2043SOL     OW 7937   1.251   5.877   2.149 -0.4628 -0.0875 -0.3320
 2043SOL    HW2 7938   1.227   5.837   2.232 -1.6271  0.3071 -0.4608
 2043SOL    HW3 7939   1.229   5.970   2.160  1.4343  0.4069 -0.3178
 2043SOL    MW4 7940   1.245   5.884   2.161 -0.3661  0.0298 -0.3471
 2044SOL     OW 7941   1.156   0.119   1.576 -0.3632 -0.0822 -0.4527
 2044SOL    HW2 7942   1.107   0.200   1.587  1.0452  0.7998 -0.5328
 2044SOL    HW3 7943   1.210   0.134   1.499 -1.2756 -1.7280 -1.4807
 2044SOL    MW4 7944   1.156   0.131   1.567 -0.2978 -0.1830 -0.5989
 2045SOL     OW 7945   5.613   6.027   6.229 -0.3133 -0.2051  0.4145
 2045SOL    HW2 7946   5.668   6.041   6.306 -0.6004  0.7397  0.4585
 2045SOL    HW3 7947   5.628   6.104   6.174  0.7056 -1.3557 -0.9994
 2045SOL    MW4 7948   5.622   6.039   6.232 -0.2167 -0.2322  0.2337
 2046SOL     OW 7949   1.357   0.509   6.080 -0.4335 -0.0448 -0.4860
 2046SOL    HW2 7950   1.398   0.503   5.994 -2.0164  0.2472 -1.2972
 2046SOL    HW3 7951   1.429   0.525   6.140  1.0238 -2.6053 -1.4033
 2046SOL    MW4 7952   1.372   0.510   6.077 -0.4500 -0.3441 -0.7141
 2047SOL     OW 7953   5.118   1.522   1.067 -0.0822  0.4376 -0.5567
 2047SOL    HW2 7954   5.061   1.586   1.024  0.3365  2.2488  1.4129
 2047SOL    HW3 7955   5.060   1.449   1.088 -0.6396  0.2296 -2.6058
 2047SOL    MW4 7956   5.102   1.521   1.064 -0.1005  0.6491 -0.5672
 2048SOL     OW 7957   3.843   4.532   4.409 -1.0375  0.2855  0.1405
 2048SOL    HW2 7958   3.782   4.545   4.481 -1.0480 -0.1863  0.2217
 2048SOL    HW3 7959   3.831   4.609   4.353  0.3049  1.6139  1.5826
 2048SOL    MW4 7960   3.833   4.544   4.411 -0.8618  0.3985  0.3415
 2049SOL     OW 7961   5.908   5.828   2.497 -0.1836 -0.2850  0.6780
 2049SOL    HW2 7962   5.953   5.909   2.519 -0.6557  0.0532  0.4072
 2049SOL    HW3 7963   5.979   5.766   2.480  0.2500  0.6713 -1.3481
 2049SOL    MW4 7964   5.924   5.830   2.497 -0.1887 -0.1142  0.3750
 2050SOL     OW 7965   1.031   4.395   2.398 -0.1320  0.5664 -0.5269
 2050SOL    HW2 7966   1.087   4.452   2.345  0.1651 -0.5616 -1.4721
 2050SOL    HW3 7967   1.037   4.310   2.355  0.5475 -0.5319  1.6472
 2050SOL    MW4 7968   1.039   4.392   2.385 -0.0032  0.2727 -0.3647
 2051SOL     OW 7969   0.483   5.200   5.665 -0.1599  0.6517  0.0827
 2051SOL    HW2 7970   0.525   5.125   5.622 -0.1383  0.2931  0.7236
 2051SOL    HW3 7971   0.396   5.204   5.624 -0.1457  0.3046  0.0081
 2051SOL    MW4 7972   0.477   5.190   5.654 -0.1552  0.5586  0.1574
 2052SOL     OW 7973   3.016   2.437   0.965 -0.1589 -0.4254  0.0319
 2052SOL    HW2 7974   3.022   2.415   0.873  0.3375 -0.8090  0.1531
 2052SOL    HW3 7975   3.106   2.452   0.993 -0.1324 -1.9074  0.8265
 2052SOL    MW4 7976   3.028   2.436   0.957 -0.0899 -0.6715  0.1527
 2053SOL     OW 7977   1.103   3.532   1.382 -0.6741 -0.1980 -0.4573
 2053SOL    HW2 7978   1.072   3.603   1.438 -1.8542 -1.8696  1.1409
 2053SOL    HW3 7979   1.189   3.562   1.351 -0.4230  1.2617  1.4297
 2053SOL    MW4 7980   1.111   3.546   1.386 -0.7967 -0.2259  0.0025
 2054SOL     OW 7981   2.275   5.008   3.048 -0.7033 -0.7266 -0.0556
 2054SOL    HW2 7982   2.228   5.030   2.967  0.7638  0.2466 -0.6789
 2054SOL    HW3 7983   2.304   4.918   3.035  0.4389 -0.2280 -1.0896
 2054SOL    MW4 7984   2.272   4.999   3.036 -0.3590 -0.5324 -0.2743
 2055SOL     OW 7985   0.468   1.748   1.207  0.1167 -0.6224  0.1158
 2055SOL    HW2 7986   0.541   1.757   1.268  1.7602  1.9797 -1.9918
 2055SOL    HW3 7987   0.486   1.813   1.139 -3.1181 -1.3365 -1.6167
 2055SOL    MW4 7988   0.480   1.758   1.206 -0.0932 -0.3733 -0.3909
 2056SOL     OW 7989   4.497   1.963   6.362  0.8542  0.1785  0.2933
 2056SOL    HW2 7990   4.450   1.983   6.443  0.7400 -0.0171  0.2759
 2056SOL    HW3 7991   4.471   2.032   6.301 -0.9747 -0.9961 -0.3521
 2056SOL    MW4 7992   4.487   1.975   6.365  0.5978 -0.0023  0.2059
 2057SOL     OW 7993   5.639   5.465   3.703  0.2174  0.2300  0.5352
 2057SOL    HW2 7994   5.697   5.423   3.638 -0.2744  0.0043  0.2284
 2057SOL    HW3 7995   5.622   5.552   3.667  2.4210  1.2988  1.8926
 2057SOL    MW4 7996   5.645   5.471   3.689  0.4433  0.3413  0.6738
 2058SOL     OW 7997   6.268   1.929   0.217 -0.1819  0.2429 -0.7293
 2058SOL    HW2 7998   6.260   2.016   0.177 -1.6069  0.7193  0.4952
 2058SOL    HW3 7999   6.183   1.914   0.258 -0.3534 -2.2190 -1.8147
 2058SOL    MW4 8000   6.256   1.939   0.217 -0.3925 -0.0191 -0.7109
 2059SOL     OW 8001   1.043   3.049   2.805  0.3358 -0.1675  0.2724
 2059SOL    HW2 8002   1.107   3.059   2.735 -0.7025  1.4146 -0.5238
 2059SOL    HW3 8003   1.081   2.985   2.865  0.7991 -2.4222 -2.2681
 2059SOL    MW4 8004   1.056   3.042   2.804  0.2599 -0.2562 -0.1678
 2060SOL     OW 8005   3.852   0.150   5.938 -0.0908 -0.1734 -0.2293
 2060SOL    HW2 8006   3.845   0.245   5.952  1.7324  0.0819 -0.8323
 2060SOL    HW3 8007   3.862   0.113   6.026  1.0267  0.3990 -0.0980
 2060SOL    MW4 8008   3.852   0.158   5.952  0.2972 -0.0642 -0.2915
 2061SOL     OW 8009   2.704   1.580   3.847 -0.3629 -0.3904  0.0840
 2061SOL    HW2 8010   2.714   1.649   3.781  1.9180  0.7907  1.5266
 2061SOL    HW3 8011   2.621   1.600   3.890 -0.5006  0.5240 -0.5659
 2061SOL    MW4 8012   2.694   1.592   3.844 -0.0801 -0.1139  0.1886
 2062SOL     OW 8013   5.581   5.831   4.843 -0.5314 -0.0434 -0.1654
 2062SOL    HW2 8014   5.578   5.744   4.805  0.7899 -0.1250 -0.1178
 2062SOL    HW3 8015   5.609   5.888   4.772 -3.4332  0.7480 -0.8021
 2062SOL    MW4 8016   5.584   5.827   4.829 -0.7399  0.0503 -0.2432
 2063SOL     OW 8017   0.113   0.606   3.718  0.3630 -0.3715 -0.4941
 2063SOL    HW2 8018   0.174   0.652   3.661  0.0961  0.2913 -0.2479
 2063SOL    HW3 8019   0.048   0.671   3.742 -0.2022 -0.9611 -0.4006
 2063SOL    MW4 8020   0.113   0.621   3.713  0.2532 -0.3618 -0.4493
 2064SOL     OW 8021   3.504   3.068   0.969  0.1261 -0.0022  0.0265
 2064SOL    HW2 8022   3.560   3.004   1.014  2.8220 -0.2941 -3.2895
 2064SOL    HW3 8023   3.523   3.054   0.876 -2.2615  2.9613 -1.0625
 2064SOL    MW4 8024   3.514   3.057   0.962  0.1668  0.3503 -0.5547
 2065SOL     OW 8025   3.866   1.387   1.429 -0.4248 -0.1166  0.3611
 2065SOL    HW2 8026   3.815   1.382   1.510  0.3901  0.5095  0.9359
 2065SOL    HW3 8027   3.863   1.479   1.405  0.3368 -0.0896  0.3457
 2065SOL    MW4 8028   3.859   1.398   1.437 -0.2168 -0.0304  0.4349
 2066SOL     OW 8029   6.228   6.313   3.781 -0.1946 -0.0041  0.0317
 2066SOL    HW2 8030   6.197   6.398   3.752 -1.9478 -0.3406  0.8014
 2066SOL    HW3 8031   6.178   6.250   3.730 -3.7791 -0.6370  3.7661
 2066SOL    MW4 8032   6.218   6.316   3.771 -0.8988 -0.1320  0.6260
 2067SOL     OW 8033   0.340   1.160   1.115 -0.3879  0.2259  0.7776
 2067SOL    HW2 8034   0.342   1.158   1.019  1.0313 -2.1173  0.7997
 2067SOL    HW3 8035   0.403   1.228   1.139 -0.1546  0.2663  0.0635
 2067SOL    MW4 8036   0.349   1.169   1.105 -0.1699 -0.0779  0.6863
 2068SOL     OW 8037   6.219   1.440   2.079 -0.0716 -0.2285  0.3203
 2068SOL    HW2 8038   6.182   1.385   2.010 -1.4220 -0.0409  0.8546
 2068SOL    HW3 8039   6.301   1.397   2.103  0.9340  0.2061 -2.0143
 2068SOL    MW4 8040   6.225   1.427   2.073 -0.1171 -0.1464  0.0828
 2069SOL     OW 8041   5.857   0.361   5.137  0.6286  0.7935 -0.1439
 2069SOL    HW2 8042   5.870   0.450   5.105 -2.3954  2.3113  2.2318
 2069SOL    HW3 8043   5.916   0.353   5.212  0.6245  0.9660 -0.1223
 2069SOL    MW4 8044   5.866   0.371   5.143  0.2291  1.0165  0.1724
 2070SOL     OW 8045   5.926   0.256   3.270  0.3095 -0.0629  0.0425
 2070SOL    HW2 8046   6.019   0.233   3.262  0.0093 -1.0044 -0.9239
 2070SOL    HW3 8047   5.923   0.349   3.248  0.9855 -0.0963 -0.2232
 2070SOL    MW4 8048   5.938   0.265   3.266  0.3591 -0.1915 -0.1200
 2071SOL     OW 8049   4.853  -0.030   0.941  0.1376 -0.3066 -0.2160
 2071SOL    HW2 8050   4.944  -0.005   0.926 -0.2805  0.5032 -1.6748
 2071SOL    HW3 8051   4.830   0.008   1.026  1.6242 -1.9557  0.9858
 2071SOL    MW4 8052   4.862  -0.022   0.950  0.2786 -0.4173 -0.2499
 2072SOL     OW 8053   3.438  -0.021   3.734  0.6416  0.2670  0.0972
 2072SOL    HW2 8054   3.461   0.060   3.780 -0.6396 -0.3786  2.0407
 2072SOL    HW3 8055   3.496  -0.087   3.772  0.1112 -0.1286  0.2407
 2072SOL    MW4 8056   3.449  -0.019   3.745  0.4026  0.1297  0.3725
 2073SOL     OW 8057   1.571   3.566   5.265 -0.2544 -0.0395 -0.3241
 2073SOL    HW2 8058   1.477   3.547   5.270 -0.6437  1.8672  0.5523
 2073SOL    HW3 8059   1.585   3.633   5.332  2.1343 -1.7036  0.9494
 2073SOL    MW4 8060   1.560   3.573   5.275  0.0094 -0.0075 -0.0405
 2074SOL     OW 8061   2.028   2.977   2.469 -0.1066 -0.2270  0.1873
 2074SOL    HW2 8062   2.062   2.888   2.460 -0.8054 -0.4737 -0.0712
 2074SOL    HW3 8063   1.953   2.980   2.409  0.9809  1.0785 -1.1901
 2074SOL    MW4 8064   2.022   2.966   2.460 -0.0553 -0.0873 -0.0285
 2075SOL     OW 8065   3.255   2.392   5.046  0.2894  0.1650  0.1137
 2075SOL    HW2 8066   3.200   2.436   4.981 -0.7904  1.1159  1.5700
 2075SOL    HW3 8067   3.262   2.302   5.016  1.5899  1.0136 -2.3737
 2075SOL    MW4 8068   3.249   2.386   5.034  0.3185  0.4024 -0.0224
 2076SOL     OW 8069   0.772   0.701   5.083 -0.4527  0.5087 -0.3608
 2076SOL    HW2 8070   0.857   0.738   5.106 -0.0375  0.3356 -1.5178
 2076SOL    HW3 8071   0.788   0.607   5.072 -0.6101  0.5812 -1.3154
 2076SOL    MW4 8072   0.785   0.693   5.084 -0.4187  0.4954 -0.6394
 2077SOL     OW 8073   3.732   0.423   5.608 -0.3684 -0.2636  0.3427
 2077SOL    HW2 8074   3.752   0.503   5.656  0.6983 -1.2152  1.5668
 2077SOL    HW3 8075   3.812   0.404   5.559 -0.2506 -1.1141  0.8535
 2077SOL    MW4 8076   3.745   0.431   5.608 -0.2121 -0.5013  0.5716
 2078SOL     OW 8077   5.425   4.743   2.654 -0.0747  0.2387 -0.3387
 2078SOL    HW2 8078   5.365   4.719   2.583  0.9508  0.3571 -1.2718
 2078SOL    HW3 8079   5.511   4.749   2.612  0.7275 -0.6399  1.0980
 2078SOL    MW4 8080   5.428   4.741   2.639  0.1664  0.1384 -0.2723
 2079SOL     OW 8081   4.428   3.235   1.473  0.4903 -0.3233  0.3693
 2079SOL    HW2 8082   4.506   3.289   1.459  0.4414 -0.8255 -2.2188
 2079SOL    HW3 8083   4.464   3.150   1.501  0.7597 -0.0191  0.9652
 2079SOL    MW4 8084   4.443   3.231   1.475  0.5194 -0.3494  0.1064
 2080SOL     OW 8085   2.720   0.051   4.937 -0.6945  0.5315  0.0840
 2080SOL    HW2 8086   2.631   0.043   4.900 -0.3997 -0.9622 -0.3421
 2080SOL    HW3 8087   2.752   0.134   4.901 -1.9122  1.1089  0.2521
 2080SOL    MW4 8088   2.712   0.061   4.927 -0.8162  0.4106  0.0499
 2081SOL     OW 8089   5.239   3.507   3.459  0.0113 -0.5724 -0.5121
 2081SOL    HW2 8090   5.322   3.461   3.465 -0.5218 -1.4705  0.4238
 2081SOL    HW3 8091   5.221   3.535   3.549 -0.9589 -0.9138 -0.5834
 2081SOL    MW4 8092   5.247   3.504   3.472 -0.1871 -0.7359 -0.3980
 2082SOL     OW 8093   0.117   5.192   3.629  0.5301  0.2243  0.0351
 2082SOL    HW2 8094   0.122   5.287   3.621  1.1947  0.2723  0.8478
 2082SOL    HW3 8095   0.101   5.177   3.722 -2.0709 -0.4016 -0.4466
 2082SOL    MW4 8096   0.116   5.202   3.640  0.2746  0.1481  0.0788
 2083SOL     OW 8097   1.173   2.916   0.864 -0.2138  0.1308 -0.1215
 2083SOL    HW2 8098   1.118   2.907   0.786 -0.4504  0.0547  0.0557
 2083SOL    HW3 8099   1.261   2.930   0.829 -0.2757 -0.1699 -0.4049
 2083SOL    MW4 8100   1.177   2.917   0.849 -0.2532  0.0811 -0.1355
 2084SOL     OW 8101   1.338   4.147   0.539  0.0247  0.2819 -0.1307
 2084SOL    HW2 8102   1.327   4.161   0.445  2.1461 -1.1512 -0.6401
 2084SOL    HW3 8103   1.430   4.126   0.551 -0.1668  0.4604  2.3026
 2084SOL    MW4 8104   1.349   4.146   0.528  0.2793  0.1164  0.1231
 2085SOL     OW 8105   4.311   1.551   6.360 -0.5804  0.3177  0.0498
 2085SOL    HW2 8106   4.279   1.486   6.297 -0.5538 -0.0097  0.3688
 2085SOL    HW3 8107   4.240   1.614   6.369  0.0646  1.3457 -1.6275
 2085SOL    MW4 8108   4.297   1.550   6.353 -0.4918  0.4101 -0.1294
 2086SOL     OW 8109   3.182   5.137   0.918  0.1879 -0.5057 -0.1214
 2086SOL    HW2 8110   3.181   5.059   0.862 -1.1047 -1.0567  0.6241
 2086SOL    HW3 8111   3.106   5.126   0.975  2.1831 -0.6635  2.7127
 2086SOL    MW4 8112   3.172   5.125   0.918  0.2806 -0.5992  0.3509
 2087SOL     OW 8113   4.086   4.978   2.747 -0.2135 -0.0357  0.1777
 2087SOL    HW2 8114   4.124   4.942   2.827 -3.1759 -0.3232  1.6109
 2087SOL    HW3 8115   4.089   5.073   2.760 -0.9323 -0.0872  0.8093
 2087SOL    MW4 8116   4.092   4.986   2.759 -0.6992 -0.0804  0.4501
 2088SOL     OW 8117   3.998   2.656   4.822  0.3818 -0.2199  0.1759
 2088SOL    HW2 8118   4.087   2.691   4.826  0.5817 -0.7285  0.3304
 2088SOL    HW3 8119   3.964   2.686   4.738 -0.0302  1.6530  0.9719
 2088SOL    MW4 8120   4.005   2.664   4.812  0.3538 -0.0399  0.3013
 2089SOL     OW 8121   0.831   5.647   4.914  0.2373  0.4407  0.3451
 2089SOL    HW2 8122   0.793   5.718   4.967 -0.0278 -0.4860  1.4214
 2089SOL    HW3 8123   0.911   5.623   4.961 -0.1961 -0.6402  0.5417
 2089SOL    MW4 8124   0.836   5.653   4.927  0.1451  0.1759  0.5130
 2090SOL     OW 8125   0.314   0.029   0.962 -1.0829 -0.1199  0.0277
 2090SOL    HW2 8126   0.332   0.113   0.921  5.0756 -1.0968 -0.3328
 2090SOL    HW3 8127   0.306   0.048   1.055  1.2801  0.9483  0.0812
 2090SOL    MW4 8128   0.315   0.042   0.969  0.0414 -0.1079 -0.0128
 2091SOL     OW 8129   5.459   3.040   5.793  0.7557 -0.0709  0.4082
 2091SOL    HW2 8130   5.551   3.029   5.769  0.8526 -0.6235  0.9784
 2091SOL    HW3 8131   5.447   3.134   5.802  0.1773  0.4012 -3.7385
 2091SOL    MW4 8132   5.469   3.051   5.791  0.6922 -0.0815 -0.0637
 2092SOL     OW 8133   5.481   0.608   3.920 -1.0058  0.2317 -0.0214
 2092SOL    HW2 8134   5.457   0.569   3.836 -1.2086  0.3982 -0.0402
 2092SOL    HW3 8135   5.540   0.544   3.960 -1.0836  0.0526 -0.1938
 2092SOL    MW4 8136   5.486   0.594   3.914 -1.0428  0.2300 -0.0467
 2093SOL     OW 8137   1.634   2.777   2.058  0.1978 -0.2519  0.6484
 2093SOL    HW2 8138   1.717   2.772   2.105  0.4992 -1.9857 -0.0241
 2093SOL    HW3 8139   1.624   2.870   2.037 -0.4007  0.8652  4.8500
 2093SOL    MW4 8140   1.644   2.789   2.062  0.1586 -0.3333  1.1140
 2094SOL     OW 8141   1.373   3.725   1.841  0.0176 -0.2795 -0.0292
 2094SOL    HW2 8142   1.287   3.756   1.870 -0.4705 -2.1143  0.6564
 2094SOL    HW3 8143   1.364   3.717   1.746 -0.1228  0.7982 -0.1154
 2094SOL    MW4 8144   1.360   3.728   1.832 -0.0653 -0.3794  0.0499
 2095SOL     OW 8145   5.636   1.291   3.419 -0.1456 -0.4116  0.3354
 2095SOL    HW2 8146   5.546   1.323   3.417  0.2491  0.7939  0.9091
 2095SOL    HW3 8147   5.684   1.355   3.472  1.1655 -0.7154 -0.4133
 2095SOL    MW4 8148   5.631   1.304   3.426  0.0795 -0.2926  0.3123
 2096SOL     OW 8149   2.845   4.922   6.285  0.3420  0.0502 -0.4010
 2096SOL    HW2 8150   2.763   4.956   6.248  0.3666 -0.3057 -0.8056
 2096SOL    HW3 8151   2.903   4.998   6.291  0.0632  0.2588 -0.3496
 2096SOL    MW4 8152   2.842   4.936   6.281  0.3085  0.0308 -0.4476
 2097SOL     OW 8153   0.975   1.171   1.844 -0.1332  0.4117 -0.0106
 2097SOL    HW2 8154   0.998   1.263   1.827 -0.5915  0.9817  2.1240
 2097SOL    HW3 8155   0.893   1.158   1.796 -1.1480  1.7782  1.2305
 2097SOL    MW4 8156   0.967   1.182   1.835 -0.3276  0.6672  0.4348
 2098SOL     OW 8157   4.638   0.284   2.366  0.0367 -0.2279  0.3312
 2098SOL    HW2 8158   4.709   0.292   2.303 -0.5405 -1.8665 -0.5816
 2098SOL    HW3 8159   4.675   0.316   2.448  1.6014 -0.3911 -0.2801
 2098SOL    MW4 8160   4.652   0.289   2.369  0.1670 -0.4656  0.1301
 2099SOL     OW 8161   1.768   5.951   2.337 -0.0319  0.0765 -0.2822
 2099SOL    HW2 8162   1.825   6.025   2.317 -0.0432 -0.1117 -1.0295
 2099SOL    HW3 8163   1.825   5.874   2.328 -0.5858 -0.1795 -1.8738
 2099SOL    MW4 8164   1.783   5.951   2.333 -0.1065  0.0179 -0.5908
 2100SOL     OW 8165   6.102   5.878   4.404 -0.5567  0.0231 -0.3606
 2100SOL    HW2 8166   6.098   5.783   4.395 -0.6808  0.1801 -2.4273
 2100SOL    HW3 8167   6.019   5.909   4.366 -1.3851  0.9125  1.9540
 2100SOL    MW4 8168   6.090   5.870   4.398 -0.6824  0.1612 -0.3279
 2101SOL     OW 8169   1.994   5.309   2.407  0.0121 -0.5087 -0.2779
 2101SOL    HW2 8170   2.033   5.387   2.444 -0.0421 -0.0470 -1.1626
 2101SOL    HW3 8171   1.903   5.334   2.389  0.0081 -0.7583 -0.6110
 2101SOL    MW4 8172   1.987   5.322   2.409  0.0044 -0.4807 -0.4386
 2102SOL     OW 8173   0.687   3.166   1.795 -0.3304  0.5312  0.3435
 2102SOL    HW2 8174   0.622   3.226   1.759 -1.2412 -0.8898 -0.4669
 2102SOL    HW3 8175   0.711   3.204   1.880  0.7761  3.1926 -1.0381
 2102SOL    MW4 8176   0.682   3.179   1.801 -0.3046  0.6949  0.0543
 2103SOL     OW 8177   3.918   3.799   4.770  0.2384  0.0080  0.1259
 2103SOL    HW2 8178   3.960   3.757   4.845  1.9733  1.0992 -0.1940
 2103SOL    HW3 8179   3.938   3.741   4.696 -0.6238 -0.5422  0.3015
 2103SOL    MW4 8180   3.926   3.786   4.770  0.3535  0.0794  0.1068
 2104SOL     OW 8181   5.830   0.504   6.140 -0.3396  0.0665  0.6377
 2104SOL    HW2 8182   5.879   0.493   6.059 -1.7430 -2.3436  0.0235
 2104SOL    HW3 8183   5.784   0.587   6.129  2.1348  1.5316  0.5214
 2104SOL    MW4 8184   5.830   0.513   6.128 -0.1983 -0.0582  0.5413
 2105SOL     OW 8185   4.550   3.128   2.033 -0.5612 -0.1500 -0.1328
 2105SOL    HW2 8186   4.634   3.090   2.006  0.2553  2.0489 -0.9349
 2105SOL    HW3 8187   4.486   3.088   1.974  0.3042 -0.0933 -1.1518
 2105SOL    MW4 8188   4.553   3.118   2.022 -0.3393  0.1476 -0.3731
 2106SOL     OW 8189   6.348   3.292   1.961 -0.1173  0.2711  0.0755
 2106SOL    HW2 8190   6.272   3.246   1.995  0.1951 -1.0445 -0.9246
 2106SOL    HW3 8191   6.312   3.367   1.913 -0.8165 -0.4920 -0.6204
 2106SOL    MW4 8192   6.334   3.296   1.959 -0.1684 -0.0032 -0.1483
 2107SOL     OW 8193   2.505   5.192   2.321 -0.1762  0.8591 -0.3049
 2107SOL    HW2 8194   2.557   5.145   2.255 -0.2303 -2.4948  1.8257
 2107SOL    HW3 8195   2.569   5.249   2.364  0.7317  0.1824 -0.7021
 2107SOL    MW4 8196   2.521   5.193   2.318 -0.0635  0.3273 -0.0762
 2108SOL     OW 8197   4.987   5.069   2.192 -0.0472 -0.0692 -0.3761
 2108SOL    HW2 8198   4.932   5.043   2.266 -0.4208 -0.2769 -0.7286
 2108SOL    HW3 8199   5.076   5.043   2.218 -0.0487  0.6539  0.3734
 2108SOL    MW4 8200   4.992   5.062   2.205 -0.0967 -0.0012 -0.3237
 2109SOL     OW 8201   5.617   0.898   0.360 -0.2607 -0.2625 -0.0401
 2109SOL    HW2 8202   5.704   0.939   0.366 -0.4355  0.4887 -1.9547
 2109SOL    HW3 8203   5.557   0.971   0.347 -1.0428 -0.8770  0.0534
 2109SOL    MW4 8204   5.621   0.913   0.359 -0.3869 -0.2445 -0.2804
 2110SOL     OW 8205   2.854   4.886   2.581 -0.1747 -0.3375 -0.5296
 2110SOL    HW2 8206   2.786   4.872   2.646 -0.0282 -0.2641 -0.3578
 2110SOL    HW3 8207   2.812   4.937   2.511 -0.1383  0.2379 -0.1396
 2110SOL    MW4 8208   2.840   4.891   2.580 -0.1506 -0.2519 -0.4555
 2111SOL     OW 8209   2.643   0.534   5.622 -0.0222 -0.4225  0.5332
 2111SOL    HW2 8210   2.694   0.492   5.553 -0.7423  0.3516 -0.4910
 2111SOL    HW3 8211   2.553   0.509   5.604 -0.1951 -0.4434  1.3719
 2111SOL    MW4 8212   2.638   0.525   5.611 -0.1400 -0.3231  0.5087
 2112SOL     OW 8213   3.226   0.944   2.926  0.0992 -0.3224 -0.0136
 2112SOL    HW2 8214   3.254   0.888   2.999 -0.0625  0.8687  1.0067
 2112SOL    HW3 8215   3.290   1.015   2.925  0.6919 -0.8449 -1.7195
 2112SOL    MW4 8216   3.238   0.946   2.936  0.1561 -0.2342 -0.1040
 2113SOL     OW 8217   4.282   5.886   5.889  0.3293 -0.2864  0.5003
 2113SOL    HW2 8218   4.247   5.975   5.884  0.5714 -0.2587 -1.4549
 2113SOL    HW3 8219   4.354   5.892   5.952 -1.6223  0.1455  2.8561
 2113SOL    MW4 8220   4.287   5.898   5.897  0.1038 -0.2258  0.5531
 2114SOL     OW 8221   1.931   1.771   4.013 -0.2095 -0.0996 -0.1899
 2114SOL    HW2 8222   2.016   1.737   4.041 -0.5224 -0.3677  0.4617
 2114SOL    HW3 8223   1.932   1.761   3.918  0.4062 -0.2907 -0.1714
 2114SOL    MW4 8224   1.942   1.765   4.004 -0.1696 -0.1602 -0.1015
 2115SOL     OW 8225   5.071   3.470   0.228 -0.2726  0.0597 -0.4586
 2115SOL    HW2 8226   5.093   3.561   0.249 -0.0805 -0.1240  0.1658
 2115SOL    HW3 8227   5.105   3.457   0.139 -0.8546  0.7748 -0.7968
 2115SOL    MW4 8228   5.078   3.480   0.219 -0.3240  0.1298 -0.4209
 2116SOL     OW 8229   5.237   1.203   2.951 -0.1864 -0.3228 -0.3113
 2116SOL    HW2 8230   5.312   1.204   2.891 -0.0709 -0.8776 -0.1782
 2116SOL    HW3 8231   5.161   1.189   2.894 -0.2478  0.6527 -0.4969
 2116SOL    MW4 8232   5.237   1.201   2.936 -0.1793 -0.2673 -0.3182
 2117SOL     OW 8233   4.833   5.101   3.465 -0.3335  0.0808 -0.5586
 2117SOL    HW2 8234   4.831   5.011   3.432  0.2300  0.1645 -0.8326
 2117SOL    HW3 8235   4.922   5.112   3.500 -0.2492  0.6809 -0.9504
 2117SOL    MW4 8236   4.845   5.091   3.465 -0.2480  0.1710 -0.6465
 2118SOL     OW 8237   5.633   5.336   3.064  0.2510  0.6404  0.0725
 2118SOL    HW2 8238   5.616   5.248   3.029 -1.1722  0.8707  0.1522
 2118SOL    HW3 8239   5.580   5.341   3.143  0.4430  1.5281  0.1535
 2118SOL    MW4 8240   5.624   5.325   3.070  0.0885  0.7879  0.0937
 2119SOL     OW 8241   5.950   1.300   3.833 -0.0658 -0.5539  0.1422
 2119SOL    HW2 8242   5.944   1.214   3.875 -0.7887 -0.6241 -0.0976
 2119SOL    HW3 8243   5.965   1.361   3.906  0.2650 -0.8514  0.3306
 2119SOL    MW4 8244   5.951   1.297   3.848 -0.1175 -0.6024  0.1354
 2120SOL     OW 8245   1.321   5.493   0.072  0.0763 -0.3071  0.4979
 2120SOL    HW2 8246   1.361   5.406   0.078  1.0272 -0.1667 -2.2307
 2120SOL    HW3 8247   1.280   5.494  -0.015 -0.2184  1.8663  0.6064
 2120SOL    MW4 8248   1.321   5.482   0.061  0.1629 -0.0018  0.1522
 2121SOL     OW 8249   1.431   5.136   0.377  0.2343  0.2385  0.5739
 2121SOL    HW2 8250   1.367   5.068   0.401 -1.2354  1.8489  1.4278
 2121SOL    HW3 8251   1.399   5.171   0.294  1.8950 -1.1330 -0.7243
 2121SOL    MW4 8252   1.418   5.131   0.370  0.2595  0.2700  0.5153
 2122SOL     OW 8253   4.620   6.295   1.666  0.4157 -0.5252  0.1328
 2122SOL    HW2 8254   4.666   6.225   1.712  1.2952 -2.0638 -2.8467
 2122SOL    HW3 8255   4.690   6.348   1.627 -0.2526 -0.7361 -1.4336
 2122SOL    MW4 8256   4.635   6.293   1.667  0.4436 -0.7560 -0.4670
 2123SOL     OW 8257   4.330   1.476   5.116  0.1850  0.5455 -0.0648
 2123SOL    HW2 8258   4.248   1.524   5.125 -0.0335  0.4140 -1.2616
 2123SOL    HW3 8259   4.323   1.429   5.033  0.9069 -0.5834  0.4768
 2123SOL    MW4 8260   4.318   1.476   5.106  0.2514  0.3792 -0.1512
 2124SOL     OW 8261   6.413   5.500   1.147  0.1233 -0.3263  0.1842
 2124SOL    HW2 8262   6.475   5.454   1.091 -0.3012 -0.3864 -0.2459
 2124SOL    HW3 8263   6.462   5.519   1.227 -0.1102 -2.8568  1.0114
 2124SOL    MW4 8264   6.427   5.496   1.150  0.0365 -0.6681  0.2366
 2125SOL     OW 8265   3.743   5.604   5.830  0.8156  0.0935 -0.2307
 2125SOL    HW2 8266   3.784   5.529   5.873  0.0576 -0.2483 -0.0788
 2125SOL    HW3 8267   3.711   5.569   5.746  2.0443  0.6900 -0.9707
 2125SOL    MW4 8268   3.744   5.589   5.824  0.8777  0.1271 -0.3083
 2126SOL     OW 8269   0.731   2.398   0.923 -0.0147 -0.1148 -0.2969
 2126SOL    HW2 8270   0.762   2.478   0.881  0.4256 -0.3843 -0.4891
 2126SOL    HW3 8271   0.743   2.412   1.016 -0.6041  0.3215 -0.2779
 2126SOL    MW4 8272   0.737   2.410   0.930 -0.0343 -0.0928 -0.3197
 2127SOL     OW 8273   4.429   3.557   1.892 -0.2336 -0.2539 -0.2175
 2127SOL    HW2 8274   4.375   3.606   1.953 -0.0486 -0.1262 -0.1554
 2127SOL    HW3 8275   4.486   3.623   1.852 -0.5948 -0.2777 -0.7875
 2127SOL    MW4 8276   4.429   3.572   1.895 -0.2568 -0.2402 -0.2845
 2128SOL     OW 8277   3.271   3.645   2.102  0.6202 -0.4829 -0.2880
 2128SOL    HW2 8278   3.299   3.565   2.146 -1.9672 -1.4275 -0.2063
 2128SOL    HW3 8279   3.297   3.633   2.010 -1.0147 -2.1309 -0.5846
 2128SOL    MW4 8280   3.278   3.633   2.095  0.0631 -0.8250 -0.3163
 2129SOL     OW 8281   5.441   1.135   0.315  0.3168 -0.0746 -0.0735
 2129SOL    HW2 8282   5.354   1.133   0.274  0.5876  1.6543 -0.8138
 2129SOL    HW3 8283   5.424   1.169   0.403  0.0625 -1.3328  0.3869
 2129SOL    MW4 8284   5.427   1.140   0.321  0.3190 -0.0125 -0.1104
 2130SOL     OW 8285   2.019   2.429   2.143 -0.1335  0.0792 -0.1951
 2130SOL    HW2 8286   1.982   2.405   2.227  1.7565 -0.8727  0.4110
 2130SOL    HW3 8287   1.970   2.378   2.079 -0.1566 -0.8347  0.5412
 2130SOL    MW4 8288   2.008   2.419   2.145  0.1128 -0.1670 -0.0180
 2131SOL     OW 8289   6.209   5.058   0.108 -0.3274 -0.8679  0.5817
 2131SOL    HW2 8290   6.246   5.137   0.146  0.6511 -0.7153 -0.6158
 2131SOL    HW3 8291   6.264   4.987   0.143  0.6926 -0.7101 -0.6324
 2131SOL    MW4 8292   6.221   5.059   0.118 -0.0637 -0.8269  0.2635
 2132SOL     OW 8293   5.133   3.269   4.668 -0.0564 -0.4082  0.4993
 2132SOL    HW2 8294   5.039   3.287   4.669 -0.2199 -1.0045 -1.2050
 2132SOL    HW3 8295   5.172   3.346   4.626  0.0717 -0.6769  0.1151
 2132SOL    MW4 8296   5.126   3.282   4.663 -0.0610 -0.5223  0.2238
 2133SOL     OW 8297   2.690   2.052   0.807 -0.4610  0.3321  1.1398
 2133SOL    HW2 8298   2.771   2.027   0.852  0.3142 -1.0964 -0.9114
 2133SOL    HW3 8299   2.621   2.009   0.857  0.0925  0.9419  2.4794
 2133SOL    MW4 8300   2.692   2.043   0.819 -0.2857  0.2241  1.0459
 2134SOL     OW 8301   5.320   5.688   6.118  1.1271 -0.2708  0.3717
 2134SOL    HW2 8302   5.367   5.705   6.199  1.6109  0.1912  0.0083
 2134SOL    HW3 8303   5.230   5.668   6.145  1.5458 -1.2659  1.0856
 2134SOL    MW4 8304   5.314   5.688   6.132  1.2461 -0.3411  0.4179
 2135SOL     OW 8305   6.399   5.880   6.012 -0.3155 -0.3141 -0.0155
 2135SOL    HW2 8306   6.322   5.865   5.956 -1.1154 -1.0102  1.2282
 2135SOL    HW3 8307   6.472   5.889   5.950 -0.9530 -2.3288 -1.1496
 2135SOL    MW4 8308   6.398   5.880   5.996 -0.5052 -0.6718 -0.0010
 2136SOL     OW 8309   1.462   2.051   0.827  0.5076 -0.3139  0.5027
 2136SOL    HW2 8310   1.513   2.132   0.827  2.0002 -1.2128  0.0864
 2136SOL    HW3 8311   1.456   2.027   0.734  2.5856 -2.1458  0.7701
 2136SOL    MW4 8312   1.468   2.059   0.815  0.9787 -0.6742  0.4830
 2137SOL     OW 8313   5.461   2.068   5.997 -0.1414  0.0394 -0.0665
 2137SOL    HW2 8314   5.416   2.081   5.913  1.7291 -0.0824 -1.1322
 2137SOL    HW3 8315   5.464   1.973   6.008 -1.5945  0.0739  0.8567
 2137SOL    MW4 8316   5.455   2.057   5.987 -0.0863  0.0279 -0.0853
 2138SOL     OW 8317   5.142   4.736   0.706 -0.2555  0.1822 -0.8130
 2138SOL    HW2 8318   5.076   4.800   0.732  0.1666 -0.3153  1.7434
 2138SOL    HW3 8319   5.192   4.779   0.637 -0.9070  2.0119 -0.2069
 2138SOL    MW4 8320   5.140   4.750   0.700 -0.2858  0.3580 -0.3957
 2139SOL     OW 8321   3.633   0.710   0.995  0.0667  0.0877 -0.0466
 2139SOL    HW2 8322   3.604   0.801   0.991  1.5988  0.6297  0.4572
 2139SOL    HW3 8323   3.560   0.663   1.037 -1.0699  0.9090 -1.0497
 2139SOL    MW4 8324   3.619   0.716   1.000  0.1189  0.2675 -0.1125
 2140SOL     OW 8325   0.452   5.849   3.514 -0.1879  0.0951  0.3498
 2140SOL    HW2 8326   0.447   5.894   3.430  2.4579 -0.3503 -0.1465
 2140SOL    HW3 8327   0.486   5.762   3.492  2.3168  0.5722  1.9813
 2140SOL    MW4 8328   0.456   5.843   3.500  0.4916  0.0993  0.4996
 2141SOL     OW 8329   5.178   2.823   0.195 -0.1317 -0.0991  0.8102
 2141SOL    HW2 8330   5.086   2.803   0.178 -0.4418  0.8812  1.2828
 2141SOL    HW3 8331   5.176   2.890   0.264  0.9443 -0.3426  1.0944
 2141SOL    MW4 8332   5.166   2.829   0.202 -0.0306 -0.0019  0.9101
 2142SOL     OW 8333   3.832   1.588   0.143  0.3365 -0.3155  0.1434
 2142SOL    HW2 8334   3.888   1.571   0.219 -2.5479 -2.4566  2.0325
 2142SOL    HW3 8335   3.813   1.682   0.148  0.5640 -0.3223  1.8543
 2142SOL    MW4 8336   3.837   1.598   0.154 -0.0141 -0.5989  0.6184
 2143SOL     OW 8337   5.017   3.316   0.460 -0.6124 -0.0679 -0.0010
 2143SOL    HW2 8338   5.018   3.371   0.382 -0.5129 -3.4908 -2.6641
 2143SOL    HW3 8339   5.082   3.354   0.518  0.5470  1.6895 -2.3057
 2143SOL    MW4 8340   5.025   3.328   0.457 -0.4463 -0.2876 -0.6564
 2144SOL     OW 8341   0.031   5.936   2.988 -0.0471 -0.0791 -0.1974
 2144SOL    HW2 8342   0.115   5.922   3.032  0.6694  0.2994 -1.3862
 2144SOL    HW3 8343   0.004   5.849   2.959  0.4472 -0.0757 -0.6862
 2144SOL    MW4 8344   0.038   5.923   2.990  0.1126 -0.0287 -0.4187
 2145SOL     OW 8345   4.844   4.507   2.883  0.1933 -0.0396  0.1358
 2145SOL    HW2 8346   4.877   4.429   2.839  1.2510 -0.3570  1.4074
 2145SOL    HW3 8347   4.756   4.483   2.912  0.3106 -0.5688  0.0599
 2145SOL    MW4 8348   4.837   4.493   2.881  0.3483 -0.1513  0.2935
 2146SOL     OW 8349   5.694   5.247   5.503 -0.0695 -0.8794 -0.5936
 2146SOL    HW2 8350   5.624   5.219   5.563 -0.0365  1.4197  0.6409
 2146SOL    HW3 8351   5.773   5.249   5.557  0.2434 -0.1382 -1.0568
 2146SOL    MW4 8352   5.695   5.244   5.518 -0.0239 -0.4783 -0.4919
 2147SOL     OW 8353   4.073   0.942   3.433 -0.2491  0.4195  0.1554
 2147SOL    HW2 8354   4.075   1.037   3.440  1.4806  0.3757  0.7732
 2147SOL    HW3 8355   4.068   0.925   3.339  0.2419  1.1156  0.0003
 2147SOL    MW4 8356   4.072   0.952   3.421  0.0439  0.5056  0.2165
 2148SOL     OW 8357   0.203   0.021   4.396  0.1843  0.5775 -0.1310
 2148SOL    HW2 8358   0.205   0.109   4.359  0.3260 -0.0796 -1.7692
 2148SOL    HW3 8359   0.213  -0.037   4.320  1.8464 -0.8125  1.0586
 2148SOL    MW4 8360   0.205   0.025   4.381  0.4223  0.3074 -0.1902
 2149SOL     OW 8361   4.907   4.786   3.808  0.1385 -0.5526 -0.9488
 2149SOL    HW2 8362   4.865   4.862   3.850  0.0599 -1.6602  1.1156
 2149SOL    HW3 8363   4.844   4.756   3.743 -0.8656 -0.2464 -0.1412
 2149SOL    MW4 8364   4.893   4.792   3.805 -0.0043 -0.6583 -0.5699
 2150SOL     OW 8365   0.181   1.261   5.320 -0.2256 -0.0393 -0.3790
 2150SOL    HW2 8366   0.119   1.313   5.371 -1.6485 -1.2300 -0.8342
 2150SOL    HW3 8367   0.177   1.299   5.232  0.8256  0.8151 -0.0813
 2150SOL    MW4 8368   0.172   1.273   5.315 -0.2746 -0.0837 -0.3998
 2151SOL     OW 8369   4.893   6.332   6.344 -0.5540 -0.3832 -0.1910
 2151SOL    HW2 8370   4.888   6.327   6.249 -0.5317 -0.3055 -0.1966
 2151SOL    HW3 8371   4.979   6.297   6.366 -0.7970 -0.9715 -0.1552
 2151SOL    MW4 8372   4.904   6.327   6.335 -0.5831 -0.4506 -0.1870
 2152SOL     OW 8373   4.899   2.461   4.272 -0.0590  0.1149  0.4162
 2152SOL    HW2 8374   4.845   2.498   4.202  0.1530 -1.5162 -0.6722
 2152SOL    HW3 8375   4.843   2.464   4.350 -0.5881  1.2325  0.0146
 2152SOL    MW4 8376   4.884   2.466   4.273 -0.1008  0.0472  0.2196
 2153SOL     OW 8377   3.399   1.918   4.400  0.6032  0.1215 -0.7993
 2153SOL    HW2 8378   3.492   1.941   4.394  1.1976 -1.8260  0.2935
 2153SOL    HW3 8379   3.374   1.942   4.489  0.9383 -2.1532 -0.0208
 2153SOL    MW4 8380   3.408   1.924   4.411  0.7259 -0.4356 -0.5524
 2154SOL     OW 8381   0.701   4.918   5.907  0.0437 -0.6305  0.8112
 2154SOL    HW2 8382   0.765   4.988   5.917 -1.1537  0.9200 -1.4462
 2154SOL    HW3 8383   0.667   4.904   5.995 -0.3885  2.3639  1.2297
 2154SOL    MW4 8384   0.705   4.925   5.920 -0.1713 -0.0308  0.5686
 2155SOL     OW 8385   1.951   0.866   1.862 -0.3284  0.1146 -0.3212
 2155SOL    HW2 8386   2.029   0.832   1.818  0.7770  0.5086  1.2253
 2155SOL    HW3 8387   1.926   0.944   1.813 -1.1677 -1.2667 -2.1961
 2155SOL    MW4 8388   1.958   0.872   1.850 -0.2933 -0.0157 -0.3645
 2156SOL     OW 8389   6.198  -0.004   0.585 -0.4300  0.5182 -0.2596
 2156SOL    HW2 8390   6.158   0.041   0.510  0.0263  1.0851 -0.1727
 2156SOL    HW3 8391   6.200  -0.096   0.559 -2.6383  0.2976  0.1077
 2156SOL    MW4 8392   6.193  -0.010   0.572 -0.6611  0.5639 -0.1996
 2157SOL     OW 8393   1.968   3.300   2.130  0.2386  0.0352 -0.2029
 2157SOL    HW2 8394   1.911   3.344   2.067  0.3030 -1.4651 -1.3640
 2157SOL    HW3 8395   1.914   3.292   2.209  0.1404  1.9087 -0.0279
 2157SOL    MW4 8396   1.953   3.305   2.132  0.2341  0.0844 -0.3330
 2158SOL     OW 8397   5.473   2.721   5.009 -0.3545  0.5023  0.2030
 2158SOL    HW2 8398   5.495   2.808   5.041 -1.0806  0.6820  0.2443
 2158SOL    HW3 8399   5.381   2.729   4.981 -0.6691 -0.4439  0.9215
 2158SOL    MW4 8400   5.464   2.734   5.009 -0.4918  0.4012  0.3032
 2159SOL     OW 8401   5.459   6.337   0.470  0.3965 -0.2606 -0.0307
 2159SOL    HW2 8402   5.448   6.315   0.562 -0.0687 -0.7768 -0.2000
 2159SOL    HW3 8403   5.375   6.314   0.430  0.9809 -1.1453 -0.7871
 2159SOL    MW4 8404   5.446   6.331   0.477  0.4123 -0.4454 -0.1528
 2160SOL     OW 8405   3.359   5.446   5.230 -0.0420 -0.3456 -0.5840
 2160SOL    HW2 8406   3.270   5.416   5.246 -0.1296  0.1404 -0.1374
 2160SOL    HW3 8407   3.414   5.385   5.279 -0.1808 -0.1731 -0.2094
 2160SOL    MW4 8408   3.355   5.434   5.238 -0.0719 -0.2587 -0.4757
 2161SOL     OW 8409   2.214   4.764   2.139  0.0180  0.5827  0.1193
 2161SOL    HW2 8410   2.212   4.821   2.062  0.6683  1.8405  1.0002
 2161SOL    HW3 8411   2.173   4.816   2.208  0.1097 -0.2401  0.8043
 2161SOL    MW4 8412   2.208   4.778   2.138  0.1159  0.6401  0.3259
 2162SOL     OW 8413   0.192   6.356   5.986 -0.2431  1.1858  0.1625
 2162SOL    HW2 8414   0.269   6.404   6.015 -0.1517  1.7667 -0.9838
 2162SOL    HW3 8415   0.123   6.422   5.983 -0.6682  0.7748  0.6895
 2162SOL    MW4 8416   0.193   6.371   5.989 -0.2871  1.2082  0.0808
 2163SOL     OW 8417   1.731   0.432   0.116 -0.1634 -0.5736 -0.4254
 2163SOL    HW2 8418   1.775   0.383   0.047 -4.6903 -2.8955 -2.1110
 2163SOL    HW3 8419   1.735   0.375   0.193  0.5539 -0.3020 -0.2533
 2163SOL    MW4 8420   1.737   0.418   0.117 -0.6660 -0.8441 -0.6251
 2164SOL     OW 8421   6.410   4.423   5.118  0.1529  0.0101 -0.2785
 2164SOL    HW2 8422   6.333   4.371   5.094  0.8131 -0.4004 -1.6215
 2164SOL    HW3 8423   6.464   4.362   5.169 -1.4062  0.9836  2.7965
 2164SOL    MW4 8424   6.407   4.408   5.121  0.0343  0.0844 -0.0500
 2165SOL     OW 8425   2.241   1.664   1.951  0.7897 -0.8273 -0.3476
 2165SOL    HW2 8426   2.251   1.752   1.987 -0.5260  0.8426 -3.6544
 2165SOL    HW3 8427   2.329   1.642   1.919  0.8958 -0.1685 -0.5389
 2165SOL    MW4 8428   2.254   1.673   1.951  0.6301 -0.5201 -0.8091
 2166SOL     OW 8429   2.798   1.523   2.866  0.6009  0.5072 -0.0688
 2166SOL    HW2 8430   2.756   1.438   2.851  1.3789 -0.1672  1.3433
 2166SOL    HW3 8431   2.794   1.534   2.961 -0.2234  2.4611 -0.2952
 2166SOL    MW4 8432   2.792   1.513   2.877  0.5948  0.6760  0.0876
 2167SOL     OW 8433   5.438   5.319   3.839 -0.2199  0.3746 -0.0749
 2167SOL    HW2 8434   5.387   5.372   3.900  0.1171  0.5723  0.0341
 2167SOL    HW3 8435   5.487   5.382   3.787 -0.1592  0.1889 -0.2450
 2167SOL    MW4 8436   5.438   5.334   3.840 -0.1675  0.3762 -0.0830
 2168SOL     OW 8437   2.864   2.251   2.068 -0.2468 -0.0775 -0.4357
 2168SOL    HW2 8438   2.941   2.207   2.103 -0.8350 -0.3776  0.5140
 2168SOL    HW3 8439   2.852   2.328   2.125 -1.3567 -0.7031  0.2149
 2168SOL    MW4 8440   2.872   2.256   2.080 -0.4709 -0.1996 -0.2246
 2169SOL     OW 8441   1.564   1.035   4.295  0.4243 -0.3494  0.0893
 2169SOL    HW2 8442   1.624   1.030   4.370 -0.2936  2.1629  0.9126
 2169SOL    HW3 8443   1.537   1.126   4.291 -0.1887 -0.5517 -2.8062
 2169SOL    MW4 8444   1.569   1.046   4.304  0.2487 -0.0446 -0.1841
 2170SOL     OW 8445   2.537   5.108   0.996  0.0850  0.0368  0.0145
 2170SOL    HW2 8446   2.492   5.035   1.040 -1.1817  0.0539 -1.1628
 2170SOL    HW3 8447   2.617   5.069   0.961 -0.0109 -0.5065  0.3890
 2170SOL    MW4 8448   2.542   5.093   0.997 -0.0947 -0.0326 -0.0915
 2171SOL     OW 8449   5.233   1.464   2.463  0.3371  0.2225 -0.9187
 2171SOL    HW2 8450   5.195   1.550   2.443 -1.6295 -0.1634  0.7594
 2171SOL    HW3 8451   5.200   1.406   2.394 -1.8776  0.0165  0.1991
 2171SOL    MW4 8452   5.224   1.468   2.451 -0.2146  0.1444 -0.5498
 2172SOL     OW 8453   3.139   3.136   5.603 -0.1879  0.4987  0.0491
 2172SOL    HW2 8454   3.221   3.162   5.647 -0.6352  0.4856  0.9205
 2172SOL    HW3 8455   3.110   3.216   5.559  1.2470  0.0255 -1.8519
 2172SOL    MW4 8456   3.146   3.150   5.603 -0.0576  0.4346 -0.0868
 2173SOL     OW 8457   2.011   2.038   1.837  0.6085 -0.2795 -0.9523
 2173SOL    HW2 8458   2.080   2.060   1.899  0.1366 -0.5706 -0.3235
 2173SOL    HW3 8459   2.056   2.034   1.752  1.2062  0.3603 -0.6738
 2173SOL    MW4 8460   2.026   2.040   1.834  0.6251 -0.2335 -0.8326
 2174SOL     OW 8461   1.591   5.258   3.110  0.2176 -0.8006  0.3164
 2174SOL    HW2 8462   1.575   5.331   3.171 -1.9612 -1.9758  1.2656
 2174SOL    HW3 8463   1.664   5.209   3.150 -0.7236 -1.1588  1.6676
 2174SOL    MW4 8464   1.599   5.261   3.123 -0.1941 -1.0029  0.6199
 2175SOL     OW 8465   5.208   6.317   0.359  0.3080 -0.1569  0.1316
 2175SOL    HW2 8466   5.214   6.382   0.289  1.5600  0.7345  1.0256
 2175SOL    HW3 8467   5.181   6.237   0.315 -0.6277  0.7950 -1.1007
 2175SOL    MW4 8468   5.205   6.315   0.344  0.3497  0.0863  0.0869
 2176SOL     OW 8469   2.138   1.250   4.386  0.3010  0.3618 -0.5385
 2176SOL    HW2 8470   2.065   1.279   4.440 -0.2096 -0.4496 -0.7852
 2176SOL    HW3 8471   2.151   1.321   4.324 -1.8052 -0.4383 -2.0001
 2176SOL    MW4 8472   2.130   1.263   4.385 -0.0443  0.1492 -0.7639
 2177SOL     OW 8473   4.785   6.037   3.004 -0.3034  0.0935  0.1884
 2177SOL    HW2 8474   4.856   6.029   3.069  2.2099  0.9137 -2.2541
 2177SOL    HW3 8475   4.803   6.119   2.959 -0.1405 -1.7002 -3.4157
 2177SOL    MW4 8476   4.797   6.047   3.007  0.0497 -0.0349 -0.6093
 2178SOL     OW 8477   0.519   6.176   5.848 -0.1977 -0.2239  0.1847
 2178SOL    HW2 8478   0.554   6.088   5.833 -0.7716 -0.2229 -1.3005
 2178SOL    HW3 8479   0.518   6.186   5.943 -0.2517 -1.8778  0.3764
 2178SOL    MW4 8480   0.524   6.166   5.859 -0.2806 -0.4420  0.0141
 2179SOL     OW 8481   2.999   4.608   3.376 -0.1405  0.3286 -0.2607
 2179SOL    HW2 8482   3.026   4.529   3.422 -2.6076 -1.1181 -1.1289
 2179SOL    HW3 8483   2.993   4.675   3.445  2.9947  0.1420  0.3230
 2179SOL    MW4 8484   3.002   4.607   3.391 -0.0524  0.1131 -0.2983
 2180SOL     OW 8485   1.973   2.584   0.993 -0.5763 -0.3028  0.4980
 2180SOL    HW2 8486   2.004   2.584   0.903 -1.6290  2.5115  0.0351
 2180SOL    HW3 8487   1.964   2.491   1.016  0.0927 -1.0815 -2.1205
 2180SOL    MW4 8488   1.976   2.571   0.984 -0.6269 -0.0342  0.0914
 2181SOL     OW 8489   4.630   0.884   5.453 -0.0564  0.0827 -0.2243
 2181SOL    HW2 8490   4.614   0.927   5.368 -2.2089  0.5532  0.3504
 2181SOL    HW3 8491   4.714   0.840   5.442 -1.1078 -1.4637 -3.2726
 2181SOL    MW4 8492   4.639   0.884   5.440 -0.4791 -0.0593 -0.5507
 2182SOL     OW 8493   1.490   2.941   4.678 -0.3248  0.2934 -0.2294
 2182SOL    HW2 8494   1.489   2.881   4.752 -0.3770 -2.2648 -2.1851
 2182SOL    HW3 8495   1.569   2.994   4.691 -0.8229  0.5702  2.0707
 2182SOL    MW4 8496   1.500   2.940   4.690 -0.3974 -0.0076 -0.1839
 2183SOL     OW 8497   5.806   5.172   2.760 -0.7210  0.6181  0.8948
 2183SOL    HW2 8498   5.731   5.142   2.812 -0.4360  0.6064  1.3029
 2183SOL    HW3 8499   5.879   5.116   2.788 -0.6558  0.3175  0.1692
 2183SOL    MW4 8500   5.806   5.161   2.770 -0.6748  0.5769  0.8529
 2184SOL     OW 8501   3.887   2.897   1.264 -0.4703 -0.6447  0.1319
 2184SOL    HW2 8502   3.844   2.906   1.349 -1.2737  0.1680 -0.3441
 2184SOL    HW3 8503   3.815   2.895   1.201  0.0528 -2.3560 -0.4695
 2184SOL    MW4 8504   3.872   2.898   1.267 -0.5073 -0.7633 -0.0103
 2185SOL     OW 8505   6.345   4.954   1.614 -0.4377 -0.8581  0.0175
 2185SOL    HW2 8506   6.281   5.006   1.565 -0.4273 -0.5510  0.3301
 2185SOL    HW3 8507   6.309   4.950   1.702 -0.4504 -1.4018 -0.0092
 2185SOL    MW4 8508   6.332   4.960   1.619 -0.4380 -0.8893  0.0552
 2186SOL     OW 8509   0.460   6.037   3.275  0.1519  0.5075  0.8950
 2186SOL    HW2 8510   0.369   6.064   3.270 -0.1544 -0.6946 -0.8104
 2186SOL    HW3 8511   0.482   6.009   3.187  0.9799 -2.8924  2.0071
 2186SOL    MW4 8512   0.451   6.037   3.263  0.2208 -0.0997  0.8167
 2187SOL     OW 8513   0.987   0.060   0.375  0.5377 -0.5618  0.0244
 2187SOL    HW2 8514   1.038   0.141   0.368  1.1009 -0.9526 -0.4498
 2187SOL    HW3 8515   0.896   0.089   0.364  0.2790  0.5741  3.7480
 2187SOL    MW4 8516   0.982   0.075   0.373  0.5779 -0.4635  0.4531
 2188SOL     OW 8517   2.058   3.787   2.809  0.1393  0.3317 -0.0867
 2188SOL    HW2 8518   1.965   3.802   2.794  0.2766  2.0480  0.5528
 2188SOL    HW3 8519   2.062   3.703   2.854 -1.1714  0.5422  0.4741
 2188SOL    MW4 8520   2.046   3.778   2.813 -0.0155  0.5859  0.0717
 2189SOL     OW 8521   5.973   0.602   5.059  0.1993  0.1510 -0.2119
 2189SOL    HW2 8522   6.047   0.613   5.118  1.0768  2.3273 -1.5689
 2189SOL    HW3 8523   5.903   0.655   5.097  0.4339  0.7215 -0.5502
 2189SOL    MW4 8524   5.973   0.610   5.071  0.3460  0.5134 -0.4356
 2190SOL     OW 8525   2.529   0.468   0.383  0.3657 -0.8390  0.5278
 2190SOL    HW2 8526   2.504   0.378   0.362 -2.6365 -0.0774  0.3935
 2190SOL    HW3 8527   2.447   0.510   0.408  1.7077  1.8432  0.7431
 2190SOL    MW4 8528   2.515   0.462   0.384  0.1466 -0.3846  0.5385
 2191SOL     OW 8529   2.036   5.854   6.064  0.5750  0.3026 -0.2330
 2191SOL    HW2 8530   2.096   5.786   6.092 -0.5077  0.0474  1.7169
 2191SOL    HW3 8531   2.075   5.935   6.096 -0.7489 -0.0067  2.4441
 2191SOL    MW4 8532   2.049   5.856   6.072  0.2575  0.2281  0.3775
 2192SOL     OW 8533   4.615   5.034   3.141  0.2807 -0.5247  0.1420
 2192SOL    HW2 8534   4.577   5.042   3.229  0.8083  2.5437  0.2126
 2192SOL    HW3 8535   4.654   4.947   3.140  1.5578 -0.1753  3.5517
 2192SOL    MW4 8536   4.616   5.024   3.153  0.5188 -0.0738  0.6012
 2193SOL     OW 8537   5.783   6.311   3.763 -0.0498  0.5463 -0.1209
 2193SOL    HW2 8538   5.692   6.301   3.789  0.0828 -0.7197 -0.0618
 2193SOL    HW3 8539   5.825   6.230   3.793  1.0984  1.1299 -0.1113
 2193SOL    MW4 8540   5.777   6.299   3.770  0.1192  0.4562 -0.1118
 2194SOL     OW 8541   4.666   5.515   6.288  0.2765 -0.6612 -0.3392
 2194SOL    HW2 8542   4.726   5.585   6.313  0.4846 -0.9256 -0.0820
 2194SOL    HW3 8543   4.707   5.435   6.322 -0.2824 -0.8318 -0.0602
 2194SOL    MW4 8544   4.680   5.513   6.296  0.2302 -0.7186 -0.2685
 2195SOL     OW 8545   5.107   1.627   0.176  0.1823  0.1286 -0.8175
 2195SOL    HW2 8546   5.063   1.542   0.171 -0.7699  0.5353  0.2663
 2195SOL    HW3 8547   5.078   1.664   0.258  1.1341  1.2288 -0.9523
 2195SOL    MW4 8548   5.098   1.620   0.186  0.1822  0.3274 -0.6923
 2196SOL     OW 8549   1.554   4.467   5.696 -0.1877 -0.0634  0.1048
 2196SOL    HW2 8550   1.495   4.416   5.752 -0.0664 -0.2458  0.0681
 2196SOL    HW3 8551   1.601   4.525   5.757  0.8889 -1.1676  0.3812
 2196SOL    MW4 8552   1.553   4.468   5.712 -0.0297 -0.2332  0.1364
 2197SOL     OW 8553   2.510   2.233   3.815 -0.1030  0.9818  0.2085
 2197SOL    HW2 8554   2.495   2.227   3.721  0.2692 -1.1205  0.2440
 2197SOL    HW3 8555   2.423   2.241   3.853 -0.3395  0.5078 -0.2341
 2197SOL    MW4 8556   2.497   2.234   3.808 -0.0851  0.6419  0.1548
 2198SOL     OW 8557   3.760   4.794   0.395 -0.5249  0.0880  0.1894
 2198SOL    HW2 8558   3.736   4.881   0.364 -1.7849 -0.2768  0.0748
 2198SOL    HW3 8559   3.850   4.803   0.427  0.7221  0.6072 -3.1026
 2198SOL    MW4 8560   3.769   4.806   0.396 -0.5266  0.1083 -0.2601
 2199SOL     OW 8561   1.375   5.678   3.212  0.5137  0.0395 -0.4095
 2199SOL    HW2 8562   1.399   5.699   3.122  0.7637  0.1787 -0.3088
 2199SOL    HW3 8563   1.330   5.756   3.244 -1.1643 -0.6484 -0.9889
 2199SOL    MW4 8564   1.372   5.691   3.204  0.3253 -0.0329 -0.4726
 2200SOL     OW 8565   4.724   1.617   0.186  0.2219  0.0760 -0.4325
 2200SOL    HW2 8566   4.686   1.531   0.168  1.9782 -0.8268 -0.0054
 2200SOL    HW3 8567   4.712   1.629   0.281  0.7003 -0.0600 -0.3546
 2200SOL    MW4 8568   4.717   1.607   0.196  0.5167 -0.0611 -0.3659
 2201SOL     OW 8569   3.743   3.396   2.034 -0.2420  0.6430 -0.9818
 2201SOL    HW2 8570   3.816   3.451   2.063 -0.5836  0.3124  0.5694
 2201SOL    HW3 8571   3.667   3.454   2.039 -0.9414 -0.3355  2.4829
 2201SOL    MW4 8572   3.743   3.411   2.038 -0.3793  0.4703 -0.3200
 2202SOL     OW 8573   6.042   2.405   5.240 -0.2974  0.3230  0.1540
 2202SOL    HW2 8574   6.091   2.330   5.275 -0.7453  1.2014  2.9921
 2202SOL    HW3 8575   6.090   2.432   5.162  0.4813 -2.2244 -0.3413
 2202SOL    MW4 8576   6.055   2.398   5.235 -0.2538  0.1028  0.4631
 2203SOL     OW 8577   4.686   2.680   1.183  0.3131 -0.0656 -0.2816
 2203SOL    HW2 8578   4.748   2.749   1.204  0.2095 -0.7226  2.5756
 2203SOL    HW3 8579   4.602   2.714   1.213  0.0905 -1.0270  0.1986
 2203SOL    MW4 8580   4.683   2.694   1.189  0.2700 -0.2791  0.1588
 2204SOL     OW 8581   3.151   6.088   2.582 -0.5707 -0.1542 -0.9460
 2204SOL    HW2 8582   3.056   6.095   2.595 -0.5675 -1.4315 -0.0343
 2204SOL    HW3 8583   3.187   6.079   2.670  0.3158 -0.4370 -1.3259
 2204SOL    MW4 8584   3.143   6.088   2.595 -0.4533 -0.3600 -0.8759
 2205SOL     OW 8585   0.624   5.532   1.663  0.1795 -0.3461 -0.2259
 2205SOL    HW2 8586   0.695   5.594   1.652 -0.1047  0.1878  0.8622
 2205SOL    HW3 8587   0.651   5.455   1.612  0.8444  0.3963 -1.0154
 2205SOL    MW4 8588   0.637   5.530   1.655  0.2297 -0.1777 -0.1865
 2206SOL     OW 8589   5.662   4.939   4.292  0.3509  0.2531 -0.3714
 2206SOL    HW2 8590   5.668   4.880   4.217  0.2320 -0.7763  0.4090
 2206SOL    HW3 8591   5.752   4.963   4.312  0.3118  1.8891 -1.8443
 2206SOL    MW4 8592   5.674   4.935   4.285  0.3300  0.3331 -0.4627
 2207SOL     OW 8593   3.369   4.864   6.182 -0.1188 -0.4438  0.5696
 2207SOL    HW2 8594   3.404   4.951   6.203 -0.1030 -0.0247 -1.0317
 2207SOL    HW3 8595   3.282   4.881   6.146  1.0967 -0.6927 -2.8646
 2207SOL    MW4 8596   3.362   4.878   6.180  0.0437 -0.4214 -0.0948
 2208SOL     OW 8597   5.556   5.363   1.351  0.2716 -0.4663  0.2771
 2208SOL    HW2 8598   5.487   5.297   1.356  1.6627 -2.0431 -0.4500
 2208SOL    HW3 8599   5.624   5.331   1.409  0.4067  1.1112  1.0554
 2208SOL    MW4 8600   5.556   5.350   1.359  0.4730 -0.4662  0.2839
 2209SOL     OW 8601   1.598   5.150   6.033  0.1261  0.3321  0.2317
 2209SOL    HW2 8602   1.681   5.103   6.027  0.2745  0.5680  0.4258
 2209SOL    HW3 8603   1.616   5.222   6.094 -0.0041  0.8315 -0.3139
 2209SOL    MW4 8604   1.611   5.153   6.040  0.1285  0.4291  0.1853
 2210SOL     OW 8605   6.123   1.926   1.070  0.5028  0.0680  0.5851
 2210SOL    HW2 8606   6.111   1.888   1.157  1.5160 -0.6601  0.4299
 2210SOL    HW3 8607   6.035   1.954   1.043 -0.1642 -1.4823  1.0322
 2210SOL    MW4 8608   6.110   1.924   1.078  0.5485 -0.2326  0.6236
 2211SOL     OW 8609   1.517   5.464   3.307  0.1825  0.1560  0.4530
 2211SOL    HW2 8610   1.477   5.540   3.266  0.4230 -0.3619 -0.7846
 2211SOL    HW3 8611   1.453   5.436   3.373 -0.8205  0.2496 -0.4493
 2211SOL    MW4 8612   1.503   5.470   3.311  0.0819  0.1000  0.1706
 2212SOL     OW 8613   3.787   4.244   1.670 -0.3744  0.0770  0.2674
 2212SOL    HW2 8614   3.865   4.270   1.621 -1.5747  0.9926 -1.2107
 2212SOL    HW3 8615   3.807   4.155   1.699 -0.0029 -0.9657 -2.8284
 2212SOL    MW4 8616   3.800   4.236   1.668 -0.4837  0.0602 -0.3361
 2213SOL     OW 8617   0.805   1.161   0.487 -0.1150 -0.3240  0.5209
 2213SOL    HW2 8618   0.875   1.102   0.460 -1.6547 -1.5773 -0.9102
 2213SOL    HW3 8619   0.851   1.235   0.527  1.9205 -2.0015  1.4771
 2213SOL    MW4 8620   0.820   1.163   0.489 -0.0496 -0.7107  0.4583
 2214SOL     OW 8621   2.861   4.001   1.002  0.2527 -0.4030  0.0811
 2214SOL    HW2 8622   2.948   4.029   0.972 -0.6819  1.6561 -0.8988
 2214SOL    HW3 8623   2.845   3.920   0.955  1.7047 -0.9056  0.4042
 2214SOL    MW4 8624   2.870   3.994   0.992  0.3210 -0.1976 -0.0055
 2215SOL     OW 8625   3.207   0.394   4.469  0.3905  0.1491 -0.4538
 2215SOL    HW2 8626   3.273   0.455   4.437  1.1529 -0.7167 -0.5729
 2215SOL    HW3 8627   3.180   0.429   4.553  0.3653  0.9806 -0.8006
 2215SOL    MW4 8628   3.212   0.407   4.476  0.4877  0.1446 -0.5153
 2216SOL     OW 8629   5.761   3.373   5.078 -0.5483 -0.1371  0.1519
 2216SOL    HW2 8630   5.701   3.322   5.132  0.0633 -0.7461  0.2551
 2216SOL    HW3 8631   5.774   3.454   5.127 -1.3279  0.0309  0.1012
 2216SOL    MW4 8632   5.754   3.377   5.091 -0.5705 -0.1953  0.1589
 2217SOL     OW 8633   2.622   2.631   4.609  0.2078 -0.4656 -0.1369
 2217SOL    HW2 8634   2.578   2.693   4.667 -0.2997  0.1570 -1.1582
 2217SOL    HW3 8635   2.699   2.601   4.658 -1.1279 -1.2920  1.5299
 2217SOL    MW4 8636   2.626   2.635   4.623 -0.0354 -0.4925 -0.0518
 2218SOL     OW 8637   5.881   5.560   0.014 -0.3265  0.5023 -0.1285
 2218SOL    HW2 8638   5.815   5.564  -0.055  0.3697 -0.6483 -0.9052
 2218SOL    HW3 8639   5.866   5.476   0.058  0.4914  0.3032 -0.2043
 2218SOL    MW4 8640   5.870   5.549   0.011 -0.1267  0.3242 -0.2409
 2219SOL     OW 8641   5.891   4.194   0.660 -0.0684  0.0760  0.3309
 2219SOL    HW2 8642   5.973   4.165   0.700 -0.3240 -0.0420  0.7810
 2219SOL    HW3 8643   5.848   4.244   0.730 -1.2152 -1.3988  0.7279
 2219SOL    MW4 8644   5.896   4.197   0.675 -0.2535 -0.1342  0.4426
 2220SOL     OW 8645   5.010   4.426   1.705 -0.0529  0.3336  0.0740
 2220SOL    HW2 8646   4.981   4.511   1.673 -1.3992 -0.0111  0.2875
 2220SOL    HW3 8647   5.006   4.369   1.629  1.0853  0.5014 -0.1249
 2220SOL    MW4 8648   5.005   4.429   1.691 -0.0804  0.3103  0.0760
 2221SOL     OW 8649   2.471   4.055   2.503 -0.0299  0.7485 -0.1634
 2221SOL    HW2 8650   2.537   3.999   2.543 -0.5640  0.6853  0.6600
 2221SOL    HW3 8651   2.390   4.033   2.550 -0.2344  2.2854  0.2378
 2221SOL    MW4 8652   2.469   4.044   2.514 -0.1273  0.9429 -0.0018
 2222SOL     OW 8653   5.093   0.799   4.851  0.4474 -0.5390  0.0261
 2222SOL    HW2 8654   5.135   0.882   4.873 -0.4598 -0.2204  0.6214
 2222SOL    HW3 8655   5.028   0.822   4.784  0.1378 -0.7434  0.2522
 2222SOL    MW4 8656   5.090   0.813   4.845  0.2868 -0.5239  0.1345
 2223SOL     OW 8657   2.501   2.842   5.093  0.3274  0.3017 -0.0167
 2223SOL    HW2 8658   2.524   2.766   5.147  0.3033  1.0620  1.0886
 2223SOL    HW3 8659   2.465   2.905   5.155  1.9478  1.8992 -0.6369
 2223SOL    MW4 8660   2.499   2.840   5.108  0.5380  0.6128  0.0473
 2224SOL     OW 8661   1.354   2.142   4.133 -0.0593 -0.4097 -0.1599
 2224SOL    HW2 8662   1.379   2.110   4.047  1.5695 -0.3246  0.2595
 2224SOL    HW3 8663   1.269   2.101   4.150 -0.1011 -0.9360 -1.5127
 2224SOL    MW4 8664   1.346   2.133   4.124  0.1501 -0.4679 -0.2831
 2225SOL     OW 8665   4.994   3.945   1.025  0.2283  0.3600 -0.0919
 2225SOL    HW2 8666   4.968   4.038   1.023 -0.7758  0.2945  3.3078
 2225SOL    HW3 8667   4.918   3.900   1.061  1.2718 -1.5727 -0.1811
 2225SOL    MW4 8668   4.980   3.952   1.030  0.2335  0.0963  0.3449
 2226SOL     OW 8669   5.482   0.300   5.026  0.2402  0.4436 -0.4905
 2226SOL    HW2 8670   5.515   0.390   5.026 -1.7052  1.2141 -0.3879
 2226SOL    HW3 8671   5.505   0.266   5.112  1.2944  0.7200 -0.6513
 2226SOL    MW4 8672   5.489   0.308   5.037  0.1226  0.5817 -0.4982
 2227SOL     OW 8673   1.994   4.150   5.962  0.2727 -0.0820 -0.6026
 2227SOL    HW2 8674   1.973   4.140   5.870 -1.0891  0.2882 -0.3531
 2227SOL    HW3 8675   2.083   4.186   5.963  0.4864 -0.5459 -1.7440
 2227SOL    MW4 8676   2.003   4.153   5.950  0.1212 -0.0944 -0.7203
 2228SOL     OW 8677   2.026   6.199   2.021 -0.0395  0.3538 -0.2747
 2228SOL    HW2 8678   2.023   6.225   2.113 -0.2111  1.6983 -0.6359
 2228SOL    HW3 8679   1.942   6.156   2.006 -0.4325  1.0254 -0.0451
 2228SOL    MW4 8680   2.014   6.197   2.031 -0.1139  0.6198 -0.2921
 2229SOL     OW 8681   5.922   3.663   2.264  0.1640  0.0218 -0.0633
 2229SOL    HW2 8682   5.918   3.749   2.223 -0.4167 -0.1200 -0.3246
 2229SOL    HW3 8683   5.844   3.660   2.320  0.8617  0.1514  0.9385
 2229SOL    MW4 8684   5.911   3.674   2.266  0.1794  0.0202  0.0344
 2230SOL     OW 8685   4.064   0.852   1.171 -0.7314  0.2006  0.1985
 2230SOL    HW2 8686   4.156   0.829   1.160 -0.8148 -0.2318  0.3502
 2230SOL    HW3 8687   4.060   0.896   1.255 -0.9230 -1.3412  1.0265
 2230SOL    MW4 8688   4.076   0.854   1.180 -0.7677 -0.0599  0.3278
 2231SOL     OW 8689   1.963   5.810   5.576 -0.2591  0.0888  0.0010
 2231SOL    HW2 8690   2.021   5.833   5.648 -0.0005  0.9982 -0.4744
 2231SOL    HW3 8691   1.877   5.801   5.616  0.0271 -0.2554  0.5526
 2231SOL    MW4 8692   1.960   5.812   5.590 -0.1872  0.1634  0.0110
 2232SOL     OW 8693   5.358   4.736   5.105 -0.0465 -0.0825  0.2892
 2232SOL    HW2 8694   5.355   4.675   5.179 -0.9699  1.0333  1.2221
 2232SOL    HW3 8695   5.402   4.813   5.139 -0.3356  0.3909 -0.3796
 2232SOL    MW4 8696   5.363   4.738   5.119 -0.2064  0.1271  0.3240
 2233SOL     OW 8697   0.623   4.207   1.658  0.0936 -0.0999 -0.3319
 2233SOL    HW2 8698   0.631   4.135   1.596  0.8885 -0.6476  0.3800
 2233SOL    HW3 8699   0.534   4.240   1.645  0.8722  1.1387 -3.1648
 2233SOL    MW4 8700   0.612   4.201   1.648  0.3012 -0.0087 -0.6118
 2234SOL     OW 8701   1.987   0.879   5.899  0.5212  0.0240  0.5861
 2234SOL    HW2 8702   1.947   0.944   5.957  1.3822  1.2441 -0.1445
 2234SOL    HW3 8703   1.925   0.806   5.899 -0.6044  0.9448  1.2305
 2234SOL    MW4 8704   1.973   0.878   5.907  0.4863  0.3064  0.5748
 2235SOL     OW 8705   1.569   3.716   2.131  0.0779  0.0553  0.0325
 2235SOL    HW2 8706   1.475   3.732   2.145 -0.4065 -1.5834 -1.1024
 2235SOL    HW3 8707   1.583   3.735   2.038  1.0138  0.8035  0.3084
 2235SOL    MW4 8708   1.558   3.721   2.121  0.1375 -0.0622 -0.0808
 2236SOL     OW 8709   3.922   4.360   2.455 -0.6805 -0.2173  0.2670
 2236SOL    HW2 8710   3.859   4.382   2.524 -2.3596  0.4705 -1.4036
 2236SOL    HW3 8711   3.937   4.266   2.466 -1.5989 -0.2946  1.0192
 2236SOL    MW4 8712   3.916   4.350   2.466 -1.0232 -0.1368  0.1458
 2237SOL     OW 8713   1.252   6.051   1.230 -1.1651 -0.2435  0.4204
 2237SOL    HW2 8714   1.336   6.053   1.184 -1.0774  0.9139  0.5886
 2237SOL    HW3 8715   1.234   5.958   1.243  0.3473 -0.5177  0.8352
 2237SOL    MW4 8716   1.261   6.039   1.226 -0.9540 -0.1270  0.4973
 2238SOL     OW 8717   4.238   2.065   1.648  0.3867  0.1150 -0.8995
 2238SOL    HW2 8718   4.182   2.046   1.573  1.3315 -0.0107 -1.5962
 2238SOL    HW3 8719   4.294   2.137   1.618  1.0306 -0.1879 -0.4409
 2238SOL    MW4 8720   4.238   2.072   1.634  0.5963  0.0585 -0.9309
 2239SOL     OW 8721   5.585   2.384   4.016 -0.0300 -0.1296  0.1829
 2239SOL    HW2 8722   5.538   2.463   4.040  1.0472  1.0492 -1.3890
 2239SOL    HW3 8723   5.570   2.374   3.922  4.1279  1.3546 -0.8847
 2239SOL    MW4 8724   5.577   2.393   4.007  0.6607  0.2218 -0.1654
 2240SOL     OW 8725   2.954   4.237   3.279 -0.0938 -0.1008 -0.2884
 2240SOL    HW2 8726   2.930   4.296   3.351 -1.5729 -2.2011  1.0337
 2240SOL    HW3 8727   3.044   4.212   3.298  0.1368  0.7640 -0.1986
 2240SOL    MW4 8728   2.963   4.242   3.291 -0.2585 -0.2638 -0.1021
 2241SOL     OW 8729   1.877   0.434   3.875  0.3871  0.5000 -0.0125
 2241SOL    HW2 8730   1.909   0.523   3.862  1.1424  0.1175 -0.9356
 2241SOL    HW3 8731   1.938   0.395   3.938  1.6784 -0.1649 -1.6153
 2241SOL    MW4 8732   1.889   0.440   3.882  0.6571  0.3618 -0.3457
 2242SOL     OW 8733   0.534   5.435   1.367 -0.6494 -0.0245 -0.1455
 2242SOL    HW2 8734   0.547   5.511   1.424  4.3117  0.6738 -1.6800
 2242SOL    HW3 8735   0.491   5.471   1.289  0.6454  1.1185 -0.3970
 2242SOL    MW4 8736   0.530   5.450   1.364  0.1760  0.2184 -0.3812
 2243SOL     OW 8737   5.657   4.451   5.227  0.0536 -0.0887  0.6687
 2243SOL    HW2 8738   5.606   4.429   5.149 -0.6392 -1.2356  1.4035
 2243SOL    HW3 8739   5.665   4.546   5.225  0.6047 -0.1483 -1.1204
 2243SOL    MW4 8740   5.651   4.461   5.217  0.0349 -0.2479  0.5296
 2244SOL     OW 8741   3.854   3.955   6.234 -0.4657  0.4758  0.0327
 2244SOL    HW2 8742   3.834   3.931   6.325 -0.3120  0.6970  0.1250
 2244SOL    HW3 8743   3.781   4.010   6.207 -0.8957 -0.2013 -0.2286
 2244SOL    MW4 8744   3.842   3.959   6.242 -0.5021  0.4157  0.0104
 2245SOL     OW 8745   3.625   1.718   1.109  0.2784  0.1497  0.2727
 2245SOL    HW2 8746   3.616   1.716   1.014 -0.5473 -0.1791  0.3559
 2245SOL    HW3 8747   3.606   1.809   1.133 -0.8447 -0.0684  0.2458
 2245SOL    MW4 8748   3.621   1.730   1.100  0.0213  0.0775  0.2801
 2246SOL     OW 8749   4.936   2.815   6.410 -0.2535 -0.3023  0.1952
 2246SOL    HW2 8750   4.858   2.767   6.436 -0.4946 -0.4831 -0.8021
 2246SOL    HW3 8751   4.925   2.830   6.316  1.3015 -1.0594 -0.1497
 2246SOL    MW4 8752   4.924   2.811   6.401 -0.0801 -0.4260  0.0181
 2247SOL     OW 8753   2.150   2.196   5.420 -0.0767  0.0364  0.0445
 2247SOL    HW2 8754   2.108   2.257   5.480  2.3124  2.8949 -0.9729
 2247SOL    HW3 8755   2.228   2.166   5.466 -0.3163 -0.9153 -0.1453
 2247SOL    MW4 8756   2.155   2.200   5.434  0.2069  0.2880 -0.1148
 2248SOL     OW 8757   2.335   2.988   0.074 -0.3945  0.4256 -0.0087
 2248SOL    HW2 8758   2.424   2.954   0.066 -0.3483  0.5368  0.0189
 2248SOL    HW3 8759   2.286   2.919   0.118 -0.2794  0.4348  0.1357
 2248SOL    MW4 8760   2.340   2.975   0.079 -0.3732  0.4415  0.0140
 2249SOL     OW 8761   5.689   3.806   3.842 -0.6312 -0.1281 -0.0947
 2249SOL    HW2 8762   5.680   3.898   3.868 -1.4549 -0.0676 -0.5650
 2249SOL    HW3 8763   5.702   3.759   3.925 -2.6458  0.1354  0.4103
 2249SOL    MW4 8764   5.690   3.812   3.857 -1.0057 -0.0853 -0.0901
 2250SOL     OW 8765   3.156   3.447   4.115 -0.6344  0.0234 -0.2754
 2250SOL    HW2 8766   3.213   3.371   4.116  2.2830  2.0290  1.1164
 2250SOL    HW3 8767   3.096   3.434   4.188  1.9360  0.3874  2.0437
 2250SOL    MW4 8768   3.155   3.436   4.125  0.0896  0.3361  0.2142
 2251SOL     OW 8769   5.351   1.486   6.256  0.0363 -0.1921 -0.6493
 2251SOL    HW2 8770   5.320   1.576   6.242  0.6006  0.2936  0.9958
 2251SOL    HW3 8771   5.440   1.486   6.222  0.7087  0.4342  1.0096
 2251SOL    MW4 8772   5.359   1.498   6.250  0.1995 -0.0454 -0.2134
 2252SOL     OW 8773   2.647   3.900   3.694  0.0140  0.0214  0.5041
 2252SOL    HW2 8774   2.652   3.804   3.693 -0.5051 -0.0200  1.0907
 2252SOL    HW3 8775   2.637   3.924   3.602  1.1157 -0.4214  0.2526
 2252SOL    MW4 8776   2.646   3.890   3.682  0.0909 -0.0425  0.5483
 2253SOL     OW 8777   1.488   4.131   5.304  0.4865  0.6432 -0.5283
 2253SOL    HW2 8778   1.582   4.116   5.295  0.3610  0.2529 -1.3207
 2253SOL    HW3 8779   1.468   4.107   5.394  0.8710 -0.8889 -0.8178
 2253SOL    MW4 8780   1.497   4.125   5.314  0.5207  0.3895 -0.6710
 2254SOL     OW 8781   3.010   1.530   6.275  0.2316  0.3749  0.6695
 2254SOL    HW2 8782   3.044   1.445   6.247  2.4491  2.4180 -3.7625
 2254SOL    HW3 8783   3.085   1.573   6.316 -0.5064  0.7247  1.6986
 2254SOL    MW4 8784   3.024   1.524   6.277  0.4268  0.6906  0.2205
 2255SOL     OW 8785   2.569   6.254   6.243  0.1693 -0.5301 -0.4597
 2255SOL    HW2 8786   2.493   6.220   6.291  0.1037 -1.1211 -0.9798
 2255SOL    HW3 8787   2.600   6.180   6.192  1.3532 -0.4049  0.0600
 2255SOL    MW4 8788   2.563   6.240   6.243  0.3168 -0.5915 -0.4598
 2256SOL     OW 8789   0.885   0.245   6.277 -0.0285 -0.0872 -0.2742
 2256SOL    HW2 8790   0.973   0.283   6.281 -0.6318  1.4319 -0.6091
 2256SOL    HW3 8791   0.879   0.190   6.355  0.7092  0.9548  0.5548
 2256SOL    MW4 8792   0.896   0.243   6.288 -0.0107  0.2507 -0.2090
 2257SOL     OW 8793   0.564   0.838   3.123  0.5197 -0.8752 -0.3230
 2257SOL    HW2 8794   0.497   0.885   3.174 -1.4249 -2.6134 -1.1390
 2257SOL    HW3 8795   0.629   0.810   3.188 -1.1081 -1.7198  1.0155
 2257SOL    MW4 8796   0.564   0.841   3.138  0.0484 -1.2159 -0.2541
 2258SOL     OW 8797   5.406   3.684   0.398 -0.5744  0.2599 -0.1588
 2258SOL    HW2 8798   5.490   3.721   0.370 -0.3766 -2.1450 -3.2563
 2258SOL    HW3 8799   5.414   3.678   0.494  2.3097  1.1034 -0.2350
 2258SOL    MW4 8800   5.418   3.688   0.407 -0.1678  0.0539 -0.5775
 2259SOL     OW 8801   6.261   1.323   5.280  0.5730  0.0362  0.4506
 2259SOL    HW2 8802   6.177   1.289   5.247 -0.6576  1.9128  1.4700
 2259SOL    HW3 8803   6.285   1.262   5.350 -0.5868  0.1313  0.9609
 2259SOL    MW4 8804   6.253   1.311   5.285  0.2576  0.2963  0.6525
 2260SOL     OW 8805   1.695   4.582   2.740  0.3651 -0.2056 -0.2105
 2260SOL    HW2 8806   1.625   4.634   2.702  0.8322 -0.5927 -1.6536
 2260SOL    HW3 8807   1.693   4.499   2.692  1.4500 -0.4356  0.1102
 2260SOL    MW4 8808   1.685   4.578   2.729  0.5699 -0.2870 -0.3586
 2261SOL     OW 8809   2.232   0.889   5.046  0.6021 -0.2830 -0.1042
 2261SOL    HW2 8810   2.319   0.901   5.084  0.2431 -0.7687  0.8933
 2261SOL    HW3 8811   2.239   0.928   4.959  2.4403 -2.1840 -0.8958
 2261SOL    MW4 8812   2.245   0.896   5.040  0.7972 -0.5979 -0.0770
 2262SOL     OW 8813   0.763   0.243   4.967  0.4679 -0.0912  0.4836
 2262SOL    HW2 8814   0.690   0.214   5.020  0.2312 -0.4008 -0.0062
 2262SOL    HW3 8815   0.741   0.216   4.878 -0.1830  2.3172 -0.1649
 2262SOL    MW4 8816   0.751   0.236   4.962  0.3508  0.1858  0.3334
 2263SOL     OW 8817   2.909   0.852   1.924 -0.3117 -0.0470 -0.2839
 2263SOL    HW2 8818   2.954   0.937   1.922 -1.0867  0.4630  1.4089
 2263SOL    HW3 8819   2.951   0.804   1.995  0.5799 -1.3932 -1.6787
 2263SOL    MW4 8820   2.920   0.857   1.933 -0.2963 -0.1573 -0.2446
 2264SOL     OW 8821   0.860   0.603   1.099  0.6777  0.5574  0.8308
 2264SOL    HW2 8822   0.809   0.677   1.066 -1.5155 -1.3641 -0.3304
 2264SOL    HW3 8823   0.891   0.558   1.020  0.3183 -0.8480  1.4675
 2264SOL    MW4 8824   0.858   0.607   1.084  0.3409  0.1185  0.7616
 2265SOL     OW 8825   0.129   5.140   4.192 -0.1895 -0.0982 -0.4188
 2265SOL    HW2 8826   0.165   5.063   4.237 -0.4508 -0.6886 -1.1980
 2265SOL    HW3 8827   0.035   5.137   4.210 -0.0138  0.9496  0.8737
 2265SOL    MW4 8828   0.122   5.130   4.201 -0.2008 -0.0378 -0.3511
 2266SOL     OW 8829   3.408   2.305   0.316  0.2027 -0.0421  0.0007
 2266SOL    HW2 8830   3.502   2.291   0.314  0.1243 -0.9807  1.2400
 2266SOL    HW3 8831   3.396   2.384   0.368  0.3622  1.1783 -1.7409
 2266SOL    MW4 8832   3.419   2.313   0.323  0.2134 -0.0049 -0.0655
 2267SOL     OW 8833   3.770   3.917   0.068  0.7775  0.3204 -0.3145
 2267SOL    HW2 8834   3.796   3.993   0.119  0.3684  0.3085 -0.0800
 2267SOL    HW3 8835   3.679   3.935   0.043  0.5813 -0.2226 -0.0067
 2267SOL    MW4 8836   3.761   3.930   0.071  0.6976  0.2472 -0.2430
 2268SOL     OW 8837   0.905   3.396   4.660 -0.7553  0.5024 -0.0408
 2268SOL    HW2 8838   0.970   3.458   4.629 -0.8535  1.1371  0.9711
 2268SOL    HW3 8839   0.935   3.370   4.747 -0.7296 -0.8660 -0.4329
 2268SOL    MW4 8840   0.917   3.401   4.667 -0.7649  0.4056  0.0410
 2269SOL     OW 8841   4.899   4.500   1.979  0.2102  0.1093  0.0105
 2269SOL    HW2 8842   4.977   4.458   1.941  0.5512  1.8038 -1.3115
 2269SOL    HW3 8843   4.829   4.479   1.917  0.3281  1.1980 -0.5191
 2269SOL    MW4 8844   4.900   4.492   1.966  0.2707  0.4765 -0.2338
 2270SOL     OW 8845   3.530   4.583   3.878  0.0714 -0.1588  0.4298
 2270SOL    HW2 8846   3.482   4.661   3.907  0.5041  0.4787 -0.5014
 2270SOL    HW3 8847   3.589   4.563   3.950  0.9345  1.2176  0.1423
 2270SOL    MW4 8848   3.531   4.591   3.891  0.2424  0.1069  0.2690
 2271SOL     OW 8849   5.336   1.570   5.477  0.3326 -0.0273  0.2079
 2271SOL    HW2 8850   5.322   1.602   5.388 -0.8739  0.8793  0.7146
 2271SOL    HW3 8851   5.255   1.590   5.523  0.6418 -1.2118  1.3157
 2271SOL    MW4 8852   5.324   1.577   5.471  0.2142 -0.0640  0.4209
 2272SOL     OW 8853   2.739   5.409   0.842  0.2226  0.3362 -0.2350
 2272SOL    HW2 8854   2.650   5.409   0.877  1.3741  3.4891  3.4911
 2272SOL    HW3 8855   2.747   5.494   0.798  0.9405 -0.6522 -2.0960
 2272SOL    MW4 8856   2.728   5.421   0.841  0.4693  0.6217  0.0111
 2273SOL     OW 8857   4.292   1.553   1.015 -0.0943  0.7946 -0.2088
 2273SOL    HW2 8858   4.253   1.640   1.018 -1.2519  0.3055  2.5785
 2273SOL    HW3 8859   4.225   1.497   0.975 -1.2119  0.4979  1.8990
 2273SOL    MW4 8860   4.278   1.557   1.010 -0.3945  0.6909  0.4371
 2274SOL     OW 8861   4.894   1.927   1.427 -0.2892 -0.1765  0.3734
 2274SOL    HW2 8862   4.890   1.847   1.375 -1.4320  0.0997  0.0218
 2274SOL    HW3 8863   4.858   1.902   1.512 -0.0520 -0.1896  0.4717
 2274SOL    MW4 8864   4.889   1.913   1.431 -0.4087 -0.1418  0.3400
 2275SOL     OW 8865   2.649   3.000   4.227  0.0001  0.2919  0.7485
 2275SOL    HW2 8866   2.677   2.914   4.258 -0.2443  0.3526  1.1461
 2275SOL    HW3 8867   2.663   3.059   4.302  0.5020  0.6712  0.3647
 2275SOL    MW4 8868   2.655   2.997   4.241  0.0341  0.3500  0.7503
 2276SOL     OW 8869   4.684   6.175   5.214 -0.4306 -0.0748 -0.1431
 2276SOL    HW2 8870   4.699   6.117   5.139  1.0627  0.0051  0.0654
 2276SOL    HW3 8871   4.652   6.256   5.175 -1.8395 -0.7739 -0.4974
 2276SOL    MW4 8872   4.682   6.178   5.199 -0.4195 -0.1565 -0.1623
 2277SOL     OW 8873   4.239   2.145   0.737  0.0986  0.1263 -0.0756
 2277SOL    HW2 8874   4.320   2.178   0.775  0.1850 -1.1246  0.8629
 2277SOL    HW3 8875   4.264   2.064   0.692 -0.2809  0.7823 -1.5566
 2277SOL    MW4 8876   4.253   2.139   0.736  0.0599  0.0478 -0.1472
 2278SOL     OW 8877   0.056   4.514   5.841  0.7151  0.6417  0.4429
 2278SOL    HW2 8878   0.061   4.438   5.899  2.7085  0.4709  0.1031
 2278SOL    HW3 8879  -0.034   4.546   5.852  0.3840 -0.6634  1.9624
 2278SOL    MW4 8880   0.045   4.508   5.850  0.9344  0.4470  0.5986
 2279SOL     OW 8881   1.248   0.577   1.608 -0.1523  0.2436 -0.3485
 2279SOL    HW2 8882   1.325   0.607   1.657 -0.6226 -1.9230  1.9164
 2279SOL    HW3 8883   1.199   0.657   1.589  0.7584  1.3072  1.5185
 2279SOL    MW4 8884   1.252   0.591   1.612 -0.0942  0.0981  0.1967
 2280SOL     OW 8885   5.911   1.018   6.416 -0.2941 -0.4160  0.0945
 2280SOL    HW2 8886   5.900   1.092   6.476 -0.2859 -0.3353 -0.0046
 2280SOL    HW3 8887   5.976   1.048   6.352  0.6583 -0.9444  0.7765
 2280SOL    MW4 8888   5.918   1.031   6.416 -0.1674 -0.4751  0.1714
 2281SOL     OW 8889   4.983   6.198   3.239  0.1445 -0.1798 -0.7768
 2281SOL    HW2 8890   5.041   6.256   3.287  0.2242 -0.3705 -0.6417
 2281SOL    HW3 8891   4.917   6.256   3.200  1.5533  0.2964 -2.6077
 2281SOL    MW4 8892   4.982   6.213   3.240  0.3409 -0.1422 -1.0005
 2282SOL     OW 8893   3.205   0.119   3.668 -0.2745 -0.3201  0.3113
 2282SOL    HW2 8894   3.173   0.106   3.758  1.0308 -0.2511  0.8017
 2282SOL    HW3 8895   3.281   0.062   3.661 -0.9518 -1.1032 -1.1032
 2282SOL    MW4 8896   3.210   0.110   3.679 -0.1917 -0.4143  0.1894
 2283SOL     OW 8897   3.182   4.685   1.275  0.0818  0.1568  0.3502
 2283SOL    HW2 8898   3.182   4.777   1.303 -0.6042  0.5783 -0.9820
 2283SOL    HW3 8899   3.223   4.686   1.189 -1.0879 -0.5995 -0.2341
 2283SOL    MW4 8900   3.187   4.698   1.268 -0.1631  0.1127  0.0974
 2284SOL     OW 8901   0.396   5.165   2.438  0.3561  0.0602  0.1173
 2284SOL    HW2 8902   0.451   5.114   2.498  0.8246 -0.2003 -0.5166
 2284SOL    HW3 8903   0.422   5.135   2.351 -0.2833  0.4637 -0.2199
 2284SOL    MW4 8904   0.407   5.154   2.435  0.3335  0.0790 -0.0108
 2285SOL     OW 8905   4.978   4.588   0.918 -0.2110  0.5311  0.0620
 2285SOL    HW2 8906   5.030   4.527   0.866  0.4568  1.2136 -0.0870
 2285SOL    HW3 8907   4.990   4.672   0.874 -2.0914  0.5785 -0.4553
 2285SOL    MW4 8908   4.986   4.591   0.905 -0.3710  0.6274 -0.0259
 2286SOL     OW 8909   4.339   4.687   4.868  0.3490  0.3035 -0.1038
 2286SOL    HW2 8910   4.348   4.689   4.773  0.5051  1.9423 -0.0820
 2286SOL    HW3 8911   4.263   4.631   4.884 -0.9934  1.6498 -1.3394
 2286SOL    MW4 8912   4.330   4.680   4.858  0.1925  0.6974 -0.2640
 2287SOL     OW 8913   4.127   0.367   5.902 -0.0500 -0.4492  0.3405
 2287SOL    HW2 8914   4.046   0.318   5.890  1.4729 -2.9426 -0.5768
 2287SOL    HW3 8915   4.126   0.395   5.993 -3.1252  2.0006 -0.3002
 2287SOL    MW4 8916   4.116   0.364   5.912 -0.2548 -0.4550  0.1350
 2288SOL     OW 8917   6.001   2.607   0.813 -0.3290  0.2195  0.4312
 2288SOL    HW2 8918   6.082   2.574   0.850 -0.2003  1.1450  1.0039
 2288SOL    HW3 8919   5.976   2.542   0.747 -0.0757 -0.9831  1.4877
 2288SOL    MW4 8920   6.008   2.594   0.809 -0.2786  0.1829  0.6462
 2289SOL     OW 8921   2.306   1.153   5.732  0.4279 -0.2893  0.5626
 2289SOL    HW2 8922   2.373   1.221   5.721 -0.0938  0.0256 -0.8737
 2289SOL    HW3 8923   2.248   1.188   5.799  0.1895  0.6766 -0.1345
 2289SOL    MW4 8924   2.308   1.167   5.740  0.3276 -0.1203  0.2811
 2290SOL     OW 8925   1.720   1.466   0.891 -0.0943  0.1054 -0.0512
 2290SOL    HW2 8926   1.763   1.390   0.851  0.8920  0.9778 -0.6889
 2290SOL    HW3 8927   1.791   1.516   0.930 -0.7124  0.7953  0.2062
 2290SOL    MW4 8928   1.735   1.462   0.891 -0.0457  0.3115 -0.1013
 2291SOL     OW 8929   2.850   4.689   1.370  0.3175 -0.1070 -0.0902
 2291SOL    HW2 8930   2.757   4.682   1.391  0.2999  0.7853  0.1659
 2291SOL    HW3 8931   2.890   4.612   1.412 -0.0177  0.5528  1.5299
 2291SOL    MW4 8932   2.843   4.678   1.379  0.2710  0.0978  0.1574
 2292SOL     OW 8933   3.735   3.388   2.377  0.1525  0.0457 -0.2890
 2292SOL    HW2 8934   3.666   3.324   2.390 -0.3579  0.4936 -0.7534
 2292SOL    HW3 8935   3.781   3.359   2.298  1.0691 -0.7378  0.4914
 2292SOL    MW4 8936   3.732   3.376   2.368  0.2061  0.0014 -0.2473
 2293SOL     OW 8937   1.752   1.817   4.569 -0.1365  0.3401 -0.0393
 2293SOL    HW2 8938   1.720   1.810   4.479  0.2086 -1.0428 -0.0759
 2293SOL    HW3 8939   1.673   1.805   4.623  0.0274 -1.6060 -0.1510
 2293SOL    MW4 8940   1.737   1.814   4.564 -0.0694 -0.0991 -0.0588
 2294SOL     OW 8941   4.255   5.085   5.455  0.5556  0.0413 -0.5923
 2294SOL    HW2 8942   4.300   5.027   5.393  0.8356 -0.9695  0.5164
 2294SOL    HW3 8943   4.304   5.075   5.536 -0.7970  0.0507  0.2494
 2294SOL    MW4 8944   4.267   5.076   5.457  0.4141 -0.0908 -0.3350
 2295SOL     OW 8945   4.257   2.767   4.779 -0.4919  0.4673 -0.8474
 2295SOL    HW2 8946   4.317   2.824   4.828 -1.7936  1.5546 -0.4696
 2295SOL    HW3 8947   4.313   2.696   4.747  0.4997 -0.1648  1.9636
 2295SOL    MW4 8948   4.273   2.765   4.782 -0.5328  0.5274 -0.4267
 2296SOL     OW 8949   1.400   2.060   6.297  0.1072  0.3600  0.0292
 2296SOL    HW2 8950   1.420   2.031   6.208 -0.1038  1.0007 -0.2325
 2296SOL    HW3 8951   1.352   2.142   6.286  0.3392  0.6053  0.7402
 2296SOL    MW4 8952   1.396   2.067   6.284  0.1100  0.4769  0.0885
 2297SOL     OW 8953   4.712   5.586   2.201 -0.1317  0.0863 -0.0586
 2297SOL    HW2 8954   4.793   5.617   2.242 -0.4594 -1.1477  1.6580
 2297SOL    HW3 8955   4.654   5.662   2.204 -0.0406  0.1310  1.5814
 2297SOL    MW4 8956   4.715   5.600   2.207 -0.1629 -0.0706  0.3843
 2298SOL     OW 8957   4.870   3.093   0.175 -0.4213 -0.6069 -0.0540
 2298SOL    HW2 8958   4.870   3.006   0.135 -1.1048  0.1253 -1.7342
 2298SOL    HW3 8959   4.786   3.098   0.222 -1.3073 -0.1730 -1.6114
 2298SOL    MW4 8960   4.859   3.083   0.176 -0.6284 -0.4531 -0.4812
 2299SOL     OW 8961   5.745   3.101   1.997  0.6965  0.1729 -0.4361
 2299SOL    HW2 8962   5.701   3.167   2.050  2.0468  0.0338  0.9127
 2299SOL    HW3 8963   5.815   3.149   1.953  0.2641  0.0669 -1.2642
 2299SOL    MW4 8964   5.749   3.116   1.998  0.8176  0.1406 -0.3674
 2300SOL     OW 8965   4.290   3.021   5.429  0.2315  0.4144 -0.2142
 2300SOL    HW2 8966   4.270   3.000   5.338  0.6156  0.7240 -0.3717
 2300SOL    HW3 8967   4.205   3.038   5.469  0.0766  0.4741 -0.5659
 2300SOL    MW4 8968   4.276   3.021   5.423  0.2618  0.4632 -0.2814
 2301SOL     OW 8969   3.757   4.343   1.238 -0.5472  0.0324 -0.0291
 2301SOL    HW2 8970   3.727   4.280   1.173 -1.3583 -0.6021  0.9336
 2301SOL    HW3 8971   3.820   4.295   1.291  0.9150  0.8485 -0.9491
 2301SOL    MW4 8972   3.762   4.329   1.237 -0.4613  0.0564 -0.0234
 2302SOL     OW 8973   4.391   3.468   5.749  0.0458  0.8163  0.0829
 2302SOL    HW2 8974   4.426   3.414   5.677  0.9841  0.1559  1.0181
 2302SOL    HW3 8975   4.467   3.496   5.798 -0.6392  0.4254  1.4113
 2302SOL    MW4 8976   4.406   3.464   5.746  0.0792  0.6776  0.3816
 2303SOL     OW 8977   4.208   5.262   6.306 -0.3858 -0.0343 -0.2502
 2303SOL    HW2 8978   4.132   5.318   6.319  0.6093  1.2447  0.2497
 2303SOL    HW3 8979   4.245   5.291   6.223 -1.3764 -1.8404 -1.4150
 2303SOL    MW4 8980   4.203   5.273   6.297 -0.3852 -0.1038 -0.3379
 2304SOL     OW 8981   4.401   2.578   4.628 -0.2437  0.3859 -0.3063
 2304SOL    HW2 8982   4.408   2.484   4.616  1.6078  0.7572 -2.7841
 2304SOL    HW3 8983   4.489   2.612   4.611 -0.6890  2.5207  1.2149
 2304SOL    MW4 8984   4.413   2.570   4.624 -0.0581  0.7166 -0.4325
 2305SOL     OW 8985   4.132   2.383   0.707 -0.0999  0.3130 -0.4814
 2305SOL    HW2 8986   4.160   2.426   0.788 -2.1145  0.9497 -0.0659
 2305SOL    HW3 8987   4.165   2.293   0.716  1.0728  0.7866  0.2923
 2305SOL    MW4 8988   4.140   2.377   0.719 -0.2110  0.4595 -0.3245
 2306SOL     OW 8989   3.712   0.164   5.675 -0.0837 -0.0153 -0.1416
 2306SOL    HW2 8990   3.713   0.259   5.661  1.7390  0.0981  0.4842
 2306SOL    HW3 8991   3.735   0.154   5.767 -2.1813 -1.0436  0.3310
 2306SOL    MW4 8992   3.715   0.175   5.685 -0.1200 -0.1360  0.0033
 2307SOL     OW 8993   1.120   6.284   5.919  0.2366 -0.0299  0.4159
 2307SOL    HW2 8994   1.091   6.353   5.860 -0.3576 -0.4839  0.1621
 2307SOL    HW3 8995   1.215   6.295   5.924  0.1331  0.8453  0.4471
 2307SOL    MW4 8996   1.129   6.294   5.912  0.1445  0.0257  0.3865
 2308SOL     OW 8997   1.439   5.617   5.869 -0.0437 -0.2065  0.4064
 2308SOL    HW2 8998   1.389   5.694   5.896  0.2649 -0.0184  0.4477
 2308SOL    HW3 8999   1.382   5.543   5.890 -0.9284  0.0696 -0.9267
 2308SOL    MW4 9000   1.425   5.617   5.875 -0.1197 -0.1453  0.2360
 2309SOL     OW 9001   4.810   6.113   1.797  0.0227  0.1130  0.0276
 2309SOL    HW2 9002   4.815   6.081   1.887 -0.7127  0.3164  0.1507
 2309SOL    HW3 9003   4.901   6.127   1.771  0.3245 -1.3146  0.2464
 2309SOL    MW4 9004   4.823   6.111   1.806 -0.0345 -0.0485  0.0727
 2310SOL     OW 9005   5.585   0.366   2.610  0.0571  0.1949  1.0934
 2310SOL    HW2 9006   5.519   0.342   2.545 -1.1733 -0.5536  2.5454
 2310SOL    HW3 9007   5.578   0.461   2.617 -1.7122  0.0366  2.0257
 2310SOL    MW4 9008   5.575   0.375   2.602 -0.3387  0.0753  1.4080
 2311SOL     OW 9009   5.624   3.050   4.724  0.1032 -0.1477 -0.3831
 2311SOL    HW2 9010   5.591   3.137   4.701  1.2962  0.4827  0.1934
 2311SOL    HW3 9011   5.716   3.051   4.697  0.5926 -0.6204  1.1632
 2311SOL    MW4 9012   5.632   3.062   4.717  0.3252 -0.1269 -0.1030
 2312SOL     OW 9013   0.507   4.267   5.193  0.0134  0.1118  0.9479
 2312SOL    HW2 9014   0.544   4.190   5.237 -0.2861 -1.0173 -0.7136
 2312SOL    HW3 9015   0.528   4.339   5.252 -0.5040 -1.3299  3.0393
 2312SOL    MW4 9016   0.514   4.266   5.207 -0.0944 -0.2274  1.0046
 2313SOL     OW 9017   0.153   3.203   1.036 -0.3353 -0.2846 -0.5492
 2313SOL    HW2 9018   0.137   3.109   1.033  1.8895 -0.8517  1.7785
 2313SOL    HW3 9019   0.209   3.221   0.960  1.1357 -1.3485  0.2301
 2313SOL    MW4 9020   0.158   3.193   1.026  0.1523 -0.4998 -0.1393
 2314SOL     OW 9021   0.834   1.995   0.305  0.7780  0.0595  0.5582
 2314SOL    HW2 9022   0.878   2.071   0.266 -0.1191  0.5483  0.4655
 2314SOL    HW3 9023   0.792   2.030   0.384  0.3793 -0.3466  0.5270
 2314SOL    MW4 9024   0.835   2.010   0.310  0.6070  0.0704  0.5418
 2315SOL     OW 9025   2.405   4.339   1.318 -0.6293  0.3396  0.5230
 2315SOL    HW2 9026   2.357   4.312   1.397 -1.5821  0.3131 -0.0472
 2315SOL    HW3 9027   2.494   4.309   1.333 -1.1024 -0.8991  0.9916
 2315SOL    MW4 9028   2.410   4.332   1.331 -0.8175  0.1727  0.5096
 2316SOL     OW 9029   1.488   1.358   0.995  0.8458  0.3256 -0.2208
 2316SOL    HW2 9030   1.512   1.274   1.034 -2.0429 -0.2994  0.5123
 2316SOL    HW3 9031   1.567   1.387   0.950  1.9464 -2.8625 -0.6563
 2316SOL    MW4 9032   1.501   1.350   0.994  0.6099 -0.1775 -0.1815
 2317SOL     OW 9033   1.939   3.023   0.267  0.8043  0.2299 -0.5394
 2317SOL    HW2 9034   1.853   2.992   0.294  0.7612  0.4102 -0.4670
 2317SOL    HW3 9035   1.998   2.949   0.283  0.2024 -0.9871 -3.3869
 2317SOL    MW4 9036   1.936   3.010   0.272  0.7192  0.0931 -0.9055
 2318SOL     OW 9037   3.890   1.071   0.653  0.1233  0.0902 -0.5251
 2318SOL    HW2 9038   3.938   1.080   0.571  1.3257  2.3307  0.3443
 2318SOL    HW3 9039   3.946   1.017   0.708  0.5495  0.7261 -0.3248
 2318SOL    MW4 9040   3.904   1.065   0.649  0.3382  0.4697 -0.3839
 2319SOL     OW 9041   0.601   0.313   3.568 -0.3870 -0.1128 -0.5165
 2319SOL    HW2 9042   0.591   0.406   3.547 -1.1235 -0.0668 -0.0036
 2319SOL    HW3 9043   0.624   0.272   3.484  1.4753  0.7330 -0.4668
 2319SOL    MW4 9044   0.603   0.320   3.554 -0.2384  0.0048 -0.4423
 2320SOL     OW 9045   5.272   5.201   5.143 -0.0697 -0.0232 -0.2767
 2320SOL    HW2 9046   5.332   5.269   5.175 -2.2976  1.8251  0.2900
 2320SOL    HW3 9047   5.277   5.132   5.210  1.7506 -0.1719 -0.5160
 2320SOL    MW4 9048   5.281   5.201   5.156 -0.1235  0.2011 -0.2335
 2321SOL     OW 9049   5.048   5.047   2.584  0.8481 -0.0516  0.4128
 2321SOL    HW2 9050   5.074   5.138   2.570 -0.0046  0.0634 -0.5223
 2321SOL    HW3 9051   5.041   5.039   2.679  0.3837  1.0297  0.4832
 2321SOL    MW4 9052   5.050   5.058   2.595  0.6743  0.1062  0.2987
 2322SOL     OW 9053   0.348   4.009   0.605 -0.1419  1.0196  0.1160
 2322SOL    HW2 9054   0.338   4.080   0.542 -0.2183 -0.4574 -1.6466
 2322SOL    HW3 9055   0.433   3.971   0.585 -0.4586  0.1017  0.4487
 2322SOL    MW4 9056   0.358   4.013   0.594 -0.1938  0.7036 -0.0726
 2323SOL     OW 9057   4.047   4.555   2.640  0.0080  0.3493 -0.0059
 2323SOL    HW2 9058   4.037   4.649   2.620 -0.5592  0.1179 -0.8687
 2323SOL    HW3 9059   4.026   4.511   2.558  1.2117 -0.5098  0.1311
 2323SOL    MW4 9060   4.043   4.562   2.627  0.0920  0.2055 -0.1017
 2324SOL     OW 9061   5.542   2.191   4.534  0.0634  0.2285  0.0367
 2324SOL    HW2 9062   5.513   2.135   4.606 -1.1188  0.5570 -0.1646
 2324SOL    HW3 9063   5.474   2.259   4.528  0.3557  0.4333 -1.1260
 2324SOL    MW4 9064   5.529   2.193   4.543 -0.0540  0.2989 -0.1433
 2325SOL     OW 9065   4.684   2.227   6.051  0.1045  0.0186 -0.0506
 2325SOL    HW2 9066   4.748   2.246   6.120  0.2760 -0.0609 -0.1875
 2325SOL    HW3 9067   4.661   2.312   6.015  1.5747 -0.0649 -1.2996
 2325SOL    MW4 9068   4.689   2.240   6.056  0.3211 -0.0029 -0.2335
 2326SOL     OW 9069   3.213   5.703   2.534 -0.0448  0.0697 -0.6320
 2326SOL    HW2 9070   3.147   5.769   2.513 -0.9006 -0.7540 -0.6164
 2326SOL    HW3 9071   3.277   5.710   2.463  1.1645  2.4870  0.5876
 2326SOL    MW4 9072   3.213   5.713   2.522  0.0019  0.2800 -0.4690
 2327SOL     OW 9073   5.098   5.452   0.466  0.1343  0.4120  0.1095
 2327SOL    HW2 9074   5.047   5.522   0.425  0.2053  0.5810  0.3048
 2327SOL    HW3 9075   5.049   5.372   0.447  0.2160  0.4731 -0.3850
 2327SOL    MW4 9076   5.085   5.451   0.458  0.1545  0.4424  0.0700
 2328SOL     OW 9077   3.913   5.886   4.184 -0.0320  0.4564  0.2283
 2328SOL    HW2 9078   3.848   5.906   4.252 -0.3814  0.3985 -0.0836
 2328SOL    HW3 9079   3.872   5.915   4.102  0.7400  1.3330  0.1321
 2328SOL    MW4 9080   3.899   5.893   4.182  0.0238  0.5644  0.1744
 2329SOL     OW 9081   2.657   0.430   2.930  0.2461 -0.0801 -0.0072
 2329SOL    HW2 9082   2.563   0.425   2.950 -0.1632 -1.1747 -1.9458
 2329SOL    HW3 9083   2.687   0.339   2.931  1.1044  0.1884 -0.2127
 2329SOL    MW4 9084   2.649   0.417   2.932  0.3053 -0.1891 -0.2901
 2330SOL     OW 9085   0.998   4.805   4.178  0.0377  0.0618  0.1864
 2330SOL    HW2 9086   0.967   4.725   4.221 -0.9957  1.2982  1.8406
 2330SOL    HW3 9087   1.093   4.800   4.185 -0.0648 -0.2308  1.8675
 2330SOL    MW4 9088   1.006   4.794   4.185 -0.1121  0.1864  0.6265
 2331SOL     OW 9089   1.171   0.726   5.468 -0.2690 -0.6162  0.2625
 2331SOL    HW2 9090   1.131   0.766   5.546 -0.2058 -0.2701  0.1204
 2331SOL    HW3 9091   1.246   0.783   5.448 -2.0111  1.1448 -1.8542
 2331SOL    MW4 9092   1.176   0.739   5.476 -0.4905 -0.3382 -0.0355
 2332SOL     OW 9093   6.304   4.565   2.119  0.0803  0.4232 -0.2964
 2332SOL    HW2 9094   6.274   4.652   2.096  1.2114  0.5763 -1.2836
 2332SOL    HW3 9095   6.224   4.517   2.141 -0.5434  1.7056  0.3106
 2332SOL    MW4 9096   6.290   4.570   2.119  0.1473  0.6126 -0.3465
 2333SOL     OW 9097   2.433   1.440   4.911 -0.1302  0.5815 -0.0792
 2333SOL    HW2 9098   2.447   1.427   4.817 -0.5178  0.8560 -0.1789
 2333SOL    HW3 9099   2.519   1.464   4.945 -0.0447  0.7508 -0.4161
 2333SOL    MW4 9100   2.446   1.442   4.903 -0.1700  0.6400 -0.1368
 2334SOL     OW 9101   2.418   4.519   6.238 -0.2476 -1.0619 -0.2121
 2334SOL    HW2 9102   2.479   4.467   6.186  0.1390 -0.7764 -0.0477
 2334SOL    HW3 9103   2.334   4.506   6.195 -0.1140 -1.6325 -0.3129
 2334SOL    MW4 9104   2.415   4.511   6.226 -0.1790 -1.0995 -0.2037
 2335SOL     OW 9105   4.853   5.323   1.325  0.0968  0.2034  0.0880
 2335SOL    HW2 9106   4.849   5.401   1.380  1.0380 -0.4511  1.1204
 2335SOL    HW3 9107   4.814   5.254   1.379 -2.4964  0.2767 -1.5022
 2335SOL    MW4 9108   4.847   5.324   1.340 -0.1212  0.1267  0.0144
 2336SOL     OW 9109   3.688   4.891   2.467 -0.8353  0.0952 -0.2253
 2336SOL    HW2 9110   3.721   4.980   2.452  0.3472 -0.5488 -1.7721
 2336SOL    HW3 9111   3.629   4.899   2.542  1.6471  1.6549  1.7325
 2336SOL    MW4 9112   3.685   4.904   2.475 -0.3518  0.2160 -0.1711
 2337SOL     OW 9113   5.942   5.837   0.650  0.2991 -0.4266  0.0421
 2337SOL    HW2 9114   5.888   5.821   0.727  0.6555  0.8817  0.5985
 2337SOL    HW3 9115   5.883   5.880   0.588 -0.0357 -1.6477 -0.5031
 2337SOL    MW4 9116   5.927   5.841   0.652  0.3020 -0.4151  0.0436
 2338SOL     OW 9117   3.938   0.474   1.240  0.1069 -0.2293 -0.3378
 2338SOL    HW2 9118   3.898   0.551   1.199 -1.0749 -0.8884 -0.4435
 2338SOL    HW3 9119   3.868   0.410   1.246  0.4479 -0.4789  1.9324
 2338SOL    MW4 9120   3.924   0.476   1.235 -0.0040 -0.3492 -0.0522
 2339SOL     OW 9121   4.357   0.042   5.639  0.0912 -0.3010  0.2194
 2339SOL    HW2 9122   4.266   0.063   5.617  0.2482 -0.2268 -0.3993
 2339SOL    HW3 9123   4.380   0.101   5.710 -0.6934 -1.0853  1.1441
 2339SOL    MW4 9124   4.348   0.053   5.645  0.0084 -0.3947  0.2598
 2340SOL     OW 9125   3.117   5.840   0.538  0.1793  0.8133  0.0043
 2340SOL    HW2 9126   3.123   5.797   0.453 -1.4469 -0.0311  0.2921
 2340SOL    HW3 9127   3.152   5.776   0.600  0.2360  0.9518  0.1159
 2340SOL    MW4 9128   3.123   5.826   0.535 -0.0278  0.7202  0.0570
 2341SOL     OW 9129   1.498   5.141   1.391  0.1342 -0.3055  0.0561
 2341SOL    HW2 9130   1.568   5.094   1.435 -1.6055 -1.8284  1.3488
 2341SOL    HW3 9131   1.441   5.171   1.462  0.8856  3.5054 -0.7069
 2341SOL    MW4 9132   1.500   5.139   1.406  0.0038 -0.0036  0.1260
 2342SOL     OW 9133   0.092   1.618   6.146 -0.1436 -0.1519 -0.3466
 2342SOL    HW2 9134   0.048   1.702   6.136  0.4276  0.1555 -0.3177
 2342SOL    HW3 9135   0.094   1.602   6.240 -0.2031 -0.1692 -0.3486
 2342SOL    MW4 9136   0.086   1.627   6.157 -0.0761 -0.1136 -0.3431
 2343SOL     OW 9137   0.287   2.097   2.223 -0.3487  0.5061  0.0725
 2343SOL    HW2 9138   0.248   2.155   2.158 -1.4113  0.3823  0.5804
 2343SOL    HW3 9139   0.368   2.141   2.249 -1.5076  2.2093  1.0414
 2343SOL    MW4 9140   0.292   2.110   2.218 -0.6418  0.7145  0.2673
 2344SOL     OW 9141   2.941   0.244   3.305  0.1796 -0.5038  0.3656
 2344SOL    HW2 9142   2.898   0.205   3.381 -0.0962 -0.9606 -0.0182
 2344SOL    HW3 9143   3.023   0.279   3.339  0.0414 -0.6641  0.8789
 2344SOL    MW4 9144   2.946   0.244   3.320  0.1250 -0.5852  0.3827
 2345SOL     OW 9145   1.127   2.318   2.043 -0.1257  0.3042 -0.0663
 2345SOL    HW2 9146   1.130   2.223   2.054  0.7492  0.2256 -0.7448
 2345SOL    HW3 9147   1.118   2.353   2.131  0.1239 -0.4042  0.2494
 2345SOL    MW4 9148   1.126   2.310   2.056  0.0227  0.2004 -0.1142
 2346SOL     OW 9149   0.302   0.724   4.924  0.6579 -0.4662 -0.0614
 2346SOL    HW2 9150   0.312   0.772   4.842  1.5537 -1.3518 -0.4869
 2346SOL    HW3 9151   0.297   0.792   4.991 -1.5973  0.3432 -0.9402
 2346SOL    MW4 9152   0.303   0.739   4.922  0.4786 -0.4763 -0.2335
 2347SOL     OW 9153   1.041   1.498   1.835  0.4054 -0.3329 -0.2976
 2347SOL    HW2 9154   1.014   1.590   1.834  0.5482 -0.2114 -3.6047
 2347SOL    HW3 9155   1.133   1.500   1.861  1.3527  0.9122 -3.3126
 2347SOL    MW4 9156   1.049   1.511   1.838  0.5492 -0.1526 -1.1317
 2348SOL     OW 9157   1.742   1.362   4.703 -0.1573  0.0866  0.0407
 2348SOL    HW2 9158   1.782   1.422   4.766 -0.8232 -2.0290  2.6973
 2348SOL    HW3 9159   1.651   1.356   4.730 -0.8727  0.2503 -2.1476
 2348SOL    MW4 9160   1.736   1.369   4.715 -0.3395 -0.1709  0.1025
 2349SOL     OW 9161   2.367   3.636   5.664  0.1088 -0.1458 -0.1027
 2349SOL    HW2 9162   2.322   3.561   5.701 -0.4594 -0.7554 -1.9203
 2349SOL    HW3 9163   2.448   3.643   5.715 -0.9675 -0.4096  1.7407
 2349SOL    MW4 9164   2.372   3.627   5.676 -0.1081 -0.2610 -0.0993
 2350SOL     OW 9165   1.683   4.229   5.884  0.0606  0.6066 -0.3505
 2350SOL    HW2 9166   1.633   4.161   5.839 -0.8761  1.2613 -0.3051
 2350SOL    HW3 9167   1.639   4.240   5.969  1.5382 -0.2983  0.5829
 2350SOL    MW4 9168   1.671   4.221   5.889  0.1320  0.5736 -0.2214
 2351SOL     OW 9169   1.184   3.986   1.056 -0.6343  0.1599  0.0135
 2351SOL    HW2 9170   1.090   3.973   1.060 -1.1449  2.6475 -1.4905
 2351SOL    HW3 9171   1.205   3.987   0.962  0.5502  1.3380  0.2501
 2351SOL    MW4 9172   1.175   3.984   1.044 -0.5454  0.6435 -0.1537
 2352SOL     OW 9173   2.865   4.043   1.476 -0.1111 -0.3062 -0.2104
 2352SOL    HW2 9174   2.921   4.034   1.553 -1.2706  0.2478  0.7338
 2352SOL    HW3 9175   2.829   3.956   1.462 -1.5072  0.0063  1.1774
 2352SOL    MW4 9176   2.868   4.030   1.484 -0.4483 -0.1918  0.0973
 2353SOL     OW 9177   2.604   1.515   3.358  0.1825 -0.5684 -0.0843
 2353SOL    HW2 9178   2.668   1.519   3.430 -0.3627 -1.1493  0.4387
 2353SOL    HW3 9179   2.521   1.541   3.398 -0.1773 -1.1520 -0.4402
 2353SOL    MW4 9180   2.602   1.519   3.373  0.0631 -0.7220 -0.0622
 2354SOL     OW 9181   5.406   0.563   0.764  0.3497 -0.2983  0.0750
 2354SOL    HW2 9182   5.463   0.602   0.697 -1.1104  1.4267 -0.2294
 2354SOL    HW3 9183   5.414   0.469   0.750  0.1120  0.0024 -2.5393
 2354SOL    MW4 9184   5.415   0.556   0.753  0.1257 -0.0310 -0.3101
 2355SOL     OW 9185   5.018   4.283   6.263 -0.9220 -0.7378  0.3934
 2355SOL    HW2 9186   5.012   4.296   6.169 -1.3216 -0.9504  0.3858
 2355SOL    HW3 9187   4.928   4.265   6.291 -0.6537 -1.7982  0.6381
 2355SOL    MW4 9188   5.005   4.282   6.255 -0.9394 -0.9058  0.4247
 2356SOL     OW 9189   3.653   0.535   0.206 -0.5040  0.0224  0.0863
 2356SOL    HW2 9190   3.728   0.541   0.265 -0.3552 -2.3666  0.2552
 2356SOL    HW3 9191   3.577   0.551   0.262 -0.2532 -0.2751  0.5180
 2356SOL    MW4 9192   3.653   0.538   0.221 -0.4513 -0.3320  0.1656
 2357SOL     OW 9193   4.039   6.239   0.662 -0.1940  0.4214 -0.3359
 2357SOL    HW2 9194   3.952   6.241   0.702  0.0703 -0.6639  0.3434
 2357SOL    HW3 9195   4.031   6.181   0.587  0.1281 -0.3433  0.2123
 2357SOL    MW4 9196   4.027   6.232   0.658 -0.1166  0.1773 -0.1740
 2358SOL     OW 9197   0.937   4.434   4.761 -0.0152  0.3983  0.0112
 2358SOL    HW2 9198   1.022   4.408   4.725  0.9632  2.1161  0.9317
 2358SOL    HW3 9199   0.955   4.516   4.806 -1.9671  0.2330  1.1789
 2358SOL    MW4 9200   0.950   4.441   4.762 -0.1436  0.6031  0.2867
 2359SOL     OW 9201   1.043   2.124   3.006 -0.3941  0.1850  0.5633
 2359SOL    HW2 9202   1.080   2.055   3.061  0.7190  0.4352  0.1550
 2359SOL    HW3 9203   0.949   2.105   3.004  0.0009 -2.0304 -0.4684
 2359SOL    MW4 9204   1.036   2.112   3.013 -0.1951 -0.0743  0.3733
 2360SOL     OW 9205   2.159   3.882   2.344 -0.2071 -0.4218  0.1044
 2360SOL    HW2 9206   2.163   3.952   2.409 -0.6253 -0.3278  0.0332
 2360SOL    HW3 9207   2.248   3.849   2.339  0.8332  2.2654 -2.2076
 2360SOL    MW4 9208   2.171   3.887   2.352 -0.1250 -0.0548 -0.2100
 2361SOL     OW 9209   2.130   6.088   6.178 -0.3596 -0.1389  0.3601
 2361SOL    HW2 9210   2.116   6.147   6.104  1.1030  1.4599  1.2917
 2361SOL    HW3 9211   2.086   6.130   6.252  0.4473 -0.3384  0.9749
 2361SOL    MW4 9212   2.122   6.101   6.178 -0.0602  0.0457  0.5641
 2362SOL     OW 9213   2.460   3.504   4.764  0.4395 -0.6645  0.2734
 2362SOL    HW2 9214   2.528   3.536   4.705  0.6460 -0.7315  0.4718
 2362SOL    HW3 9215   2.379   3.511   4.714  0.2185  1.7179  0.8304
 2362SOL    MW4 9216   2.458   3.509   4.750  0.4376 -0.3590  0.3731
 2363SOL     OW 9217   0.710   5.868   5.059  0.4633  0.0010 -0.5140
 2363SOL    HW2 9218   0.741   5.835   5.143  1.9248  0.3190 -0.9017
 2363SOL    HW3 9219   0.624   5.907   5.079 -1.0440 -3.2612  0.0883
 2363SOL    MW4 9220   0.702   5.869   5.073  0.4573 -0.3875 -0.4857
 2364SOL     OW 9221   4.050   0.090   2.829  0.2214 -0.0885 -0.2681
 2364SOL    HW2 9222   4.011   0.003   2.837 -0.4567  0.3723  2.0656
 2364SOL    HW3 9223   3.982   0.142   2.787 -0.5819 -0.0163  1.0453
 2364SOL    MW4 9224   4.036   0.085   2.824  0.0259 -0.0182  0.2130
 2365SOL     OW 9225   2.106   0.372   3.637  0.5480  0.0816 -0.5670
 2365SOL    HW2 9226   2.012   0.358   3.632  0.8695 -2.1378 -2.8085
 2365SOL    HW3 9227   2.137   0.308   3.701  0.4405  1.8489  1.3267
 2365SOL    MW4 9228   2.098   0.362   3.645  0.5762  0.0219 -0.6129
 2366SOL     OW 9229   6.216   4.038   3.094 -0.5635 -0.2845 -0.1823
 2366SOL    HW2 9230   6.221   4.047   3.189  0.8191 -0.6761 -0.1951
 2366SOL    HW3 9231   6.302   4.004   3.069 -0.6861  0.4405 -1.6494
 2366SOL    MW4 9232   6.228   4.035   3.103 -0.3973 -0.2405 -0.3776
 2367SOL     OW 9233   4.684   3.132   2.633  0.1159 -0.7307 -0.0970
 2367SOL    HW2 9234   4.756   3.070   2.621  0.0478 -0.5312 -1.7672
 2367SOL    HW3 9235   4.670   3.169   2.546 -1.3960 -0.0857  0.3935
 2367SOL    MW4 9236   4.692   3.129   2.620 -0.0926 -0.6193 -0.2527
 2368SOL     OW 9237   5.195   0.038   6.212 -0.2071  0.0411 -0.5707
 2368SOL    HW2 9238   5.210  -0.042   6.263 -0.5776  0.3985  0.1160
 2368SOL    HW3 9239   5.187   0.008   6.121  0.6379 -0.5879 -0.4464
 2368SOL    MW4 9240   5.196   0.023   6.207 -0.1445  0.0052 -0.4637
 2369SOL     OW 9241   6.421   5.428   2.350 -0.1261 -0.5470  0.5281
 2369SOL    HW2 9242   6.369   5.348   2.359 -1.2349  0.0430 -0.3630
 2369SOL    HW3 9243   6.477   5.412   2.274 -0.7181 -0.2978  0.0304
 2369SOL    MW4 9244   6.422   5.415   2.341 -0.3505 -0.4363  0.3449
 2370SOL     OW 9245   1.824   4.993   3.466  0.0774 -0.0207 -0.1528
 2370SOL    HW2 9246   1.855   5.033   3.547 -0.1413 -0.2527  0.0489
 2370SOL    HW3 9247   1.872   4.910   3.460  0.9036  0.4835 -0.8269
 2370SOL    MW4 9248   1.835   4.987   3.476  0.1576  0.0152 -0.2151
 2371SOL     OW 9249   4.514   2.523   1.941 -0.1242 -0.5207 -0.5495
 2371SOL    HW2 9250   4.550   2.503   2.027 -0.8710  3.3647  0.8776
 2371SOL    HW3 9251   4.420   2.527   1.954 -0.1606  1.4795 -1.1191
 2371SOL    MW4 9252   4.507   2.521   1.954 -0.2275  0.2558 -0.4364
 2372SOL     OW 9253   0.439   3.264   2.817  0.0861 -0.3124  0.6334
 2372SOL    HW2 9254   0.489   3.230   2.890  0.4884 -1.5908 -0.1949
 2372SOL    HW3 9255   0.429   3.357   2.835  2.2654 -0.1317  1.1033
 2372SOL    MW4 9256   0.444   3.272   2.829  0.4267 -0.4573  0.5861
 2373SOL     OW 9257   2.708   5.121   5.726 -0.2246  0.0104  0.0186
 2373SOL    HW2 9258   2.772   5.101   5.794  1.0524 -0.1988 -1.1766
 2373SOL    HW3 9259   2.649   5.045   5.725  1.7336 -1.6250 -1.2820
 2373SOL    MW4 9260   2.709   5.108   5.735  0.2023 -0.2330 -0.3107
 2374SOL     OW 9261   5.375   3.403   4.893  0.4328  0.2041 -0.0508
 2374SOL    HW2 9262   5.322   3.481   4.877  2.3675  1.4973 -0.5971
 2374SOL    HW3 9263   5.356   3.378   4.983  0.2103  1.7130  0.3527
 2374SOL    MW4 9264   5.366   3.410   4.902  0.6587  0.5738 -0.0696
 2375SOL     OW 9265   2.222   2.235   1.493 -0.0441  0.0597  0.1395
 2375SOL    HW2 9266   2.189   2.152   1.528  1.0328  0.3136  1.9165
 2375SOL    HW3 9267   2.281   2.267   1.561  2.6232  0.3938 -2.1600
 2375SOL    MW4 9268   2.225   2.228   1.507  0.4499  0.1373  0.0706
 2376SOL     OW 9269   1.269   4.269   1.727 -0.1154 -0.5276  0.1449
 2376SOL    HW2 9270   1.328   4.271   1.652 -0.5854 -0.9770 -0.2470
 2376SOL    HW3 9271   1.197   4.326   1.702  1.4980  2.5354  1.8340
 2376SOL    MW4 9272   1.268   4.276   1.714  0.0355 -0.1828  0.3161
 2377SOL     OW 9273   3.051   5.103   2.613 -0.1623  0.3053  0.2672
 2377SOL    HW2 9274   3.005   5.019   2.611  0.1011  0.1692 -0.1460
 2377SOL    HW3 9275   3.079   5.113   2.704 -1.5248  0.6726  0.6707
 2377SOL    MW4 9276   3.048   5.094   2.625 -0.3073  0.3358  0.2659
 2378SOL     OW 9277   4.649   4.774   2.187 -0.2595  0.8888 -0.6186
 2378SOL    HW2 9278   4.563   4.731   2.179 -0.9160  1.7447  1.2560
 2378SOL    HW3 9279   4.628   4.867   2.197  0.7939  0.9645  1.1129
 2378SOL    MW4 9280   4.635   4.780   2.187 -0.2072  1.0117 -0.1428
 2379SOL     OW 9281   3.143   5.242   4.682 -0.6932 -0.1167  0.3247
 2379SOL    HW2 9282   3.130   5.183   4.756  1.1799 -0.4672  0.4328
 2379SOL    HW3 9283   3.118   5.191   4.606 -1.7030 -0.0849  0.6167
 2379SOL    MW4 9284   3.138   5.228   4.682 -0.5793 -0.1588  0.3775
 2380SOL     OW 9285   6.137   1.330   3.320 -0.6541  0.4604 -0.2521
 2380SOL    HW2 9286   6.207   1.358   3.379 -0.3203 -2.5075  0.9263
 2380SOL    HW3 9287   6.070   1.397   3.329  0.3669  1.3010  1.7079
 2380SOL    MW4 9288   6.137   1.343   3.329 -0.4753  0.1797  0.1620
 2381SOL     OW 9289   5.924   0.505   5.842  0.6606  0.1232  0.7089
 2381SOL    HW2 9290   5.996   0.564   5.821  1.4848 -1.1522 -0.1634
 2381SOL    HW3 9291   5.849   0.541   5.796  1.0273  0.7656  0.6038
 2381SOL    MW4 9292   5.924   0.518   5.833  0.8177  0.0397  0.5800
 2382SOL     OW 9293   6.279   1.362   3.077 -0.5801 -0.2508 -0.0750
 2382SOL    HW2 9294   6.234   1.354   3.162 -0.3266  1.3828  0.2456
 2382SOL    HW3 9295   6.243   1.442   3.039  0.1666 -0.3382 -0.9890
 2382SOL    MW4 9296   6.268   1.371   3.083 -0.4481 -0.0468 -0.1533
 2383SOL     OW 9297   2.418   3.847   1.599 -0.2510 -0.0327 -0.0288
 2383SOL    HW2 9298   2.385   3.897   1.525 -0.5903 -1.8093 -1.1449
 2383SOL    HW3 9299   2.499   3.807   1.567 -0.7579 -1.3718  0.3000
 2383SOL    MW4 9300   2.424   3.848   1.585 -0.3626 -0.4438 -0.1327
 2384SOL     OW 9301   5.812   6.264   4.640  0.4342  0.1410  0.1612
 2384SOL    HW2 9302   5.785   6.199   4.706  0.0648  0.1502  0.0232
 2384SOL    HW3 9303   5.744   6.258   4.573 -0.5176  1.8170  0.9196
 2384SOL    MW4 9304   5.799   6.254   4.640  0.2598  0.3633  0.2430
 2385SOL     OW 9305   2.665   0.260   5.482  0.4820 -0.3080  0.2138
 2385SOL    HW2 9306   2.637   0.227   5.568 -0.0597  0.9942  0.5640
 2385SOL    HW3 9307   2.718   0.189   5.445  1.0865 -0.7306  1.8008
 2385SOL    MW4 9308   2.668   0.246   5.488  0.4903 -0.1919  0.4694
 2386SOL     OW 9309   2.137   1.955   6.186 -0.3998  0.2846 -0.1037
 2386SOL    HW2 9310   2.187   2.035   6.172 -2.5300  1.5168 -1.0195
 2386SOL    HW3 9311   2.046   1.979   6.168 -1.1247 -2.3367 -0.3940
 2386SOL    MW4 9312   2.132   1.969   6.182 -0.7765  0.1013 -0.2628
 2387SOL     OW 9313   5.405   4.091   3.967  0.5398  0.4153 -0.1130
 2387SOL    HW2 9314   5.405   4.012   3.914 -1.9484 -0.2346  0.6888
 2387SOL    HW3 9315   5.430   4.061   4.055  0.3311  0.6352  0.0249
 2387SOL    MW4 9316   5.408   4.077   3.972  0.1840  0.3586  0.0110
 2388SOL     OW 9317   3.216   3.191   2.983 -0.3005 -0.5458 -0.1301
 2388SOL    HW2 9318   3.195   3.100   3.004  2.0626 -0.7820  1.5632
 2388SOL    HW3 9319   3.297   3.187   2.933 -0.4614  0.6348 -0.5420
 2388SOL    MW4 9320   3.224   3.179   2.979 -0.0100 -0.4212  0.0389
 2389SOL     OW 9321   3.598   1.889   4.129  0.0880  0.9338  0.5590
 2389SOL    HW2 9322   3.595   1.800   4.163  0.1029  1.2575  1.4208
 2389SOL    HW3 9323   3.600   1.945   4.206 -2.4292  1.8053  0.0848
 2389SOL    MW4 9324   3.598   1.884   4.143 -0.2422  1.0915  0.6101
 2390SOL     OW 9325   2.486   4.196   2.241  0.0354  0.7213 -0.1834
 2390SOL    HW2 9326   2.574   4.217   2.212 -0.0541  0.2002 -0.8597
 2390SOL    HW3 9327   2.499   4.129   2.309  0.1952  1.2919  0.3629
 2390SOL    MW4 9328   2.499   4.190   2.246  0.0447  0.7278 -0.2006
 2391SOL     OW 9329   1.384   1.512   0.561 -0.1703 -0.5278  0.1767
 2391SOL    HW2 9330   1.411   1.422   0.545  0.9873 -0.1945  0.1375
 2391SOL    HW3 9331   1.293   1.516   0.533  0.5081 -1.0245 -2.2874
 2391SOL    MW4 9332   1.376   1.501   0.555  0.0720 -0.5493 -0.1535
 2392SOL     OW 9333   0.364   1.945   1.012  0.3303  0.0460 -0.0003
 2392SOL    HW2 9334   0.397   1.893   0.938 -1.4517 -0.8518 -0.2410
 2392SOL    HW3 9335   0.292   1.893   1.047  1.5069  0.1639  2.8095
 2392SOL    MW4 9336   0.359   1.931   1.007  0.2504 -0.0569  0.3386
 2393SOL     OW 9337   4.760   1.841   2.107  0.0275  0.3913  0.0060
 2393SOL    HW2 9338   4.782   1.750   2.088 -1.2297 -0.3761  1.9381
 2393SOL    HW3 9339   4.667   1.839   2.131  0.1465  2.0781  0.7418
 2393SOL    MW4 9340   4.751   1.829   2.107 -0.1227  0.5126  0.3580
 2394SOL     OW 9341   0.405   6.063   0.119 -0.6340 -0.2579 -0.2828
 2394SOL    HW2 9342   0.338   5.995   0.125 -0.0049 -0.9737 -1.0746
 2394SOL    HW3 9343   0.375   6.120   0.048 -0.0815 -0.9789 -1.1205
 2394SOL    MW4 9344   0.392   6.062   0.110 -0.4781 -0.4474 -0.4978
 2395SOL     OW 9345   2.262   5.092   4.438 -0.1307 -0.0469  0.3192
 2395SOL    HW2 9346   2.170   5.069   4.447 -0.5341  1.0211 -0.9163
 2395SOL    HW3 9347   2.267   5.185   4.458  0.9765 -0.4187  2.0289
 2395SOL    MW4 9348   2.251   5.101   4.442 -0.0379  0.0450  0.3818
 2396SOL     OW 9349   3.244   1.371   5.350  0.2074  0.0291  0.2065
 2396SOL    HW2 9350   3.298   1.363   5.428  0.5104 -0.8864 -0.0836
 2396SOL    HW3 9351   3.265   1.293   5.298 -0.0326  0.5866 -0.7562
 2396SOL    MW4 9352   3.254   1.360   5.353  0.2157 -0.0181  0.0412
 2397SOL     OW 9353   1.277   0.198   1.344  0.0107  0.0206 -0.8548
 2397SOL    HW2 9354   1.304   0.284   1.375  0.6192 -0.9459  1.4517
 2397SOL    HW3 9355   1.340   0.177   1.275 -0.4219  1.5507 -1.7859
 2397SOL    MW4 9356   1.289   0.206   1.339  0.0339  0.0949 -0.6734
 2398SOL     OW 9357   4.952   3.454   4.148  0.4394 -0.4037 -0.1535
 2398SOL    HW2 9358   4.886   3.390   4.120  1.0736 -1.0989 -0.1125
 2398SOL    HW3 9359   4.948   3.523   4.082 -1.5612  0.4814  0.8024
 2398SOL    MW4 9360   4.943   3.455   4.136  0.2591 -0.3786 -0.0220
 2399SOL     OW 9361   5.418   4.680   4.105  0.1416 -0.2853  0.7699
 2399SOL    HW2 9362   5.379   4.617   4.044 -0.9736  0.8572  0.2585
 2399SOL    HW3 9363   5.349   4.744   4.121  1.3694  1.0425  0.9639
 2399SOL    MW4 9364   5.404   4.680   4.099  0.1564  0.0406  0.7281
 2400SOL     OW 9365   3.141   4.503   1.662  0.6896  0.4335  0.0678
 2400SOL    HW2 9366   3.118   4.486   1.571  3.0430  0.9840 -0.7031
 2400SOL    HW3 9367   3.151   4.598   1.667  0.1928  0.4494  1.0289
 2400SOL    MW4 9368   3.139   4.514   1.651  0.9346  0.5082  0.0929
 2401SOL     OW 9369   1.584   1.520   5.191 -0.0211  0.1565 -0.4825
 2401SOL    HW2 9370   1.586   1.443   5.134 -0.7374  0.2604 -0.6544
 2401SOL    HW3 9371   1.623   1.590   5.139  1.6364 -0.3094  0.0447
 2401SOL    MW4 9372   1.590   1.519   5.177  0.1030  0.1088 -0.4357
 2402SOL     OW 9373   3.088   0.062   3.910  0.1898  0.1264 -0.5950
 2402SOL    HW2 9374   2.993   0.048   3.914  0.2675 -0.2654  0.0507
 2402SOL    HW3 9375   3.098   0.155   3.931 -0.0772  0.2625 -1.0625
 2402SOL    MW4 9376   3.077   0.073   3.914  0.1648  0.0927 -0.5715
 2403SOL     OW 9377   0.332   3.124   6.371 -0.0707  0.8154 -0.3074
 2403SOL    HW2 9378   0.373   3.113   6.285 -0.3624 -1.5810 -0.1899
 2403SOL    HW3 9379   0.246   3.082   6.362 -0.1999  0.7376  1.0891
 2403SOL    MW4 9380   0.326   3.117   6.359 -0.1262  0.4890 -0.1076
 2404SOL     OW 9381   2.076   1.475   5.746  0.0222  0.2655  0.2563
 2404SOL    HW2 9382   2.123   1.457   5.665  0.5713 -0.0137  0.6389
 2404SOL    HW3 9383   2.065   1.390   5.788  3.6082  0.7767  2.6164
 2404SOL    MW4 9384   2.081   1.461   5.741  0.5678  0.2961  0.6182
 2405SOL     OW 9385   5.234   4.802   4.874  0.1616 -0.2397  0.0620
 2405SOL    HW2 9386   5.277   4.776   4.956  1.2469  0.7390 -0.1688
 2405SOL    HW3 9387   5.306   4.832   4.818 -0.6651 -0.0800 -0.9355
 2405SOL    MW4 9388   5.249   4.803   4.878  0.1957 -0.0895 -0.1000
 2406SOL     OW 9389   1.465   1.380   4.771 -0.4880  0.1493  0.7682
 2406SOL    HW2 9390   1.420   1.346   4.693 -0.4728  0.3962  0.6489
 2406SOL    HW3 9391   1.408   1.451   4.801 -1.1729 -0.7882  1.7529
 2406SOL    MW4 9392   1.451   1.385   4.764 -0.5764  0.0582  0.8823
 2407SOL     OW 9393   3.956   4.143   1.301  0.4591 -0.1229 -0.0111
 2407SOL    HW2 9394   4.041   4.186   1.312  1.2705 -1.5376 -0.5058
 2407SOL    HW3 9395   3.959   4.069   1.362  0.2816 -1.1708 -1.2486
 2407SOL    MW4 9396   3.967   4.139   1.311  0.5427 -0.4478 -0.2397
 2408SOL     OW 9397   3.800   2.902   0.872  0.3787 -0.1456  0.3407
 2408SOL    HW2 9398   3.730   2.848   0.907  0.4599 -0.4174  0.0839
 2408SOL    HW3 9399   3.818   2.966   0.941  0.9164 -1.0159  1.0312
 2408SOL    MW4 9400   3.793   2.903   0.886  0.4604 -0.2963  0.3979
 2409SOL     OW 9401   3.773   0.287   1.409 -0.2798 -0.0116  0.0478
 2409SOL    HW2 9402   3.763   0.293   1.504 -3.0684  0.4347 -0.1916
 2409SOL    HW3 9403   3.744   0.198   1.387  0.7016 -0.2413 -0.3870
 2409SOL    MW4 9404   3.768   0.276   1.419 -0.5183  0.0169 -0.0412
 2410SOL     OW 9405   2.541   5.061   3.100  0.1015 -0.2249 -0.3401
 2410SOL    HW2 9406   2.569   5.137   3.050 -0.7874 -0.0264 -0.5599
 2410SOL    HW3 9407   2.447   5.054   3.083 -0.3064  0.0584  1.5672
 2410SOL    MW4 9408   2.532   5.070   3.091 -0.0696 -0.1614 -0.1174
 2411SOL     OW 9409   5.221   1.162   5.642 -0.3892 -0.5956 -0.5041
 2411SOL    HW2 9410   5.163   1.116   5.580  0.5228 -2.3592 -0.1205
 2411SOL    HW3 9411   5.285   1.206   5.586 -1.5294  0.6456 -0.8965
 2411SOL    MW4 9412   5.222   1.162   5.626 -0.4193 -0.6645 -0.5052
 2412SOL     OW 9413   1.935   0.881   4.594 -0.2071  0.2511  0.1858
 2412SOL    HW2 9414   2.020   0.887   4.637  0.0884 -1.5486 -0.0785
 2412SOL    HW3 9415   1.954   0.897   4.501 -0.1339 -0.3156  0.1041
 2412SOL    MW4 9416   1.948   0.884   4.587 -0.1585 -0.0611  0.1401
 2413SOL     OW 9417   3.978   4.845   5.640  0.1803  0.1897  0.4120
 2413SOL    HW2 9418   3.890   4.811   5.621 -0.2818  0.7575  1.4543
 2413SOL    HW3 9419   4.033   4.767   5.647 -0.4584 -0.2358  0.7970
 2413SOL    MW4 9420   3.973   4.830   5.638  0.0351  0.2085  0.6003
 2414SOL     OW 9421   0.880   1.751   2.817  0.0371  0.3792 -0.3195
 2414SOL    HW2 9422   0.856   1.843   2.819 -1.8147 -0.0222 -1.5129
 2414SOL    HW3 9423   0.910   1.736   2.727 -0.9682 -0.4578 -0.5273
 2414SOL    MW4 9424   0.881   1.761   2.805 -0.3398  0.2158 -0.5044
 2415SOL     OW 9425   5.726   0.196   3.430 -0.2231  0.2045  0.5203
 2415SOL    HW2 9426   5.665   0.196   3.356 -0.8844  0.1847  1.0602
 2415SOL    HW3 9427   5.812   0.209   3.390 -0.8350  3.2329 -0.0313
 2415SOL    MW4 9428   5.730   0.198   3.415 -0.3911  0.6015  0.5188
 2416SOL     OW 9429   2.833   4.694   1.791  0.9580  0.3424  0.2860
 2416SOL    HW2 9430   2.918   4.712   1.753 -0.4573  1.6785 -2.5063
 2416SOL    HW3 9431   2.818   4.601   1.774  1.3077  0.4195 -0.4790
 2416SOL    MW4 9432   2.842   4.684   1.784  0.8174  0.5288 -0.1834
 2417SOL     OW 9433   3.198   1.624   3.522  0.0579  0.1103 -0.4535
 2417SOL    HW2 9434   3.242   1.708   3.511  1.2051 -0.1799  1.4399
 2417SOL    HW3 9435   3.150   1.632   3.604 -0.3364 -0.8828 -0.5669
 2417SOL    MW4 9436   3.197   1.636   3.531  0.1572 -0.0590 -0.2187
 2418SOL     OW 9437   0.084   3.035   6.303 -0.3809 -0.3305  0.0261
 2418SOL    HW2 9438   0.126   2.960   6.344  0.4271  0.0895 -0.0053
 2418SOL    HW3 9439   0.005   3.050   6.355 -0.0117 -0.5668  0.6651
 2418SOL    MW4 9440   0.079   3.027   6.315 -0.2256 -0.3062  0.1063
 2419SOL     OW 9441   1.132   3.699   0.481  0.1029  0.2374  0.0822
 2419SOL    HW2 9442   1.073   3.717   0.555  1.4371 -2.1142  1.8842
 2419SOL    HW3 9443   1.095   3.621   0.440  0.2746  0.5824 -0.7465
 2419SOL    MW4 9444   1.119   3.691   0.485  0.3016 -0.0274  0.2106
 2420SOL     OW 9445   4.980   2.447   1.133  0.4422  0.4200 -0.7509
 2420SOL    HW2 9446   4.905   2.416   1.185  1.7973 -1.7560  0.0350
 2420SOL    HW3 9447   4.944   2.459   1.045 -0.9054 -0.3578 -0.3443
 2420SOL    MW4 9448   4.965   2.444   1.129  0.4432  0.0303 -0.5936
 2421SOL     OW 9449   4.791   2.959   4.099  0.0584  0.3958 -0.1407
 2421SOL    HW2 9450   4.747   2.981   4.017 -0.3996  0.3025  0.0750
 2421SOL    HW3 9451   4.819   2.868   4.087  0.9750  0.7252 -0.6105
 2421SOL    MW4 9452   4.788   2.950   4.087  0.1189  0.4270 -0.1742
 2422SOL     OW 9453   3.189   0.283   0.829  0.5143 -0.3396  0.4330
 2422SOL    HW2 9454   3.171   0.192   0.804 -3.6236  0.2918  0.3887
 2422SOL    HW3 9455   3.178   0.332   0.747  0.8926  0.3788  0.8058
 2422SOL    MW4 9456   3.185   0.277   0.815  0.0182 -0.1615  0.4763
 2423SOL     OW 9457   1.446   2.299   2.720  0.7194 -0.6204  0.1690
 2423SOL    HW2 9458   1.511   2.270   2.785  0.2130  1.1223  1.5331
 2423SOL    HW3 9459   1.376   2.338   2.772  0.2532  0.7761 -1.4258
 2423SOL    MW4 9460   1.446   2.300   2.736  0.5911 -0.2062  0.1386
 2424SOL     OW 9461   6.296   4.027   0.253  0.5891  0.2096 -0.0768
 2424SOL    HW2 9462   6.333   4.103   0.207 -2.0395  2.8196  1.7916
 2424SOL    HW3 9463   6.203   4.048   0.262  0.1562 -2.3149  2.3337
 2424SOL    MW4 9464   6.289   4.040   0.248  0.1852  0.2209  0.4878
 2425SOL     OW 9465   5.765   3.660   6.058  0.5090 -0.2010 -0.1319
 2425SOL    HW2 9466   5.728   3.712   5.987 -1.3558 -0.8108  0.3190
 2425SOL    HW3 9467   5.794   3.724   6.122  3.3739  0.4177 -1.8589
 2425SOL    MW4 9468   5.764   3.675   6.057  0.6410 -0.1998 -0.3003
 2426SOL     OW 9469   5.472   0.369   3.274  0.1815  1.0507  0.6390
 2426SOL    HW2 9470   5.454   0.375   3.181 -0.7174 -0.5512  0.6708
 2426SOL    HW3 9471   5.506   0.455   3.298  2.5971  0.8288 -1.5920
 2426SOL    MW4 9472   5.474   0.381   3.265  0.3816  0.8101  0.3489
 2427SOL     OW 9473   4.285   0.312   4.400  0.0892 -0.2767  0.0242
 2427SOL    HW2 9474   4.274   0.266   4.317 -1.6658 -0.3954  0.2812
 2427SOL    HW3 9475   4.322   0.397   4.375  0.6675 -0.7445 -0.7521
 2427SOL    MW4 9476   4.288   0.317   4.385 -0.0661 -0.3541 -0.0443
 2428SOL     OW 9477   0.965   1.435   5.242 -0.0350 -0.2703  0.0957
 2428SOL    HW2 9478   1.011   1.494   5.302  0.1311 -0.0557 -0.2381
 2428SOL    HW3 9479   0.917   1.375   5.299 -1.7203  1.3535  0.4687
 2428SOL    MW4 9480   0.965   1.435   5.257 -0.2354 -0.0277  0.1008
 2429SOL     OW 9481   0.059   1.224   1.073  0.5260  0.4031  0.3144
 2429SOL    HW2 9482   0.122   1.158   1.101 -1.5826 -1.6093  0.7137
 2429SOL    HW3 9483   0.005   1.240   1.150  0.7723  2.3700  0.1100
 2429SOL    MW4 9484   0.060   1.217   1.086  0.2803  0.3971  0.3401
 2430SOL     OW 9485   4.618   4.994   4.890 -0.0793 -0.8205 -0.0968
 2430SOL    HW2 9486   4.638   4.983   4.982  0.9043  0.3219 -0.1513
 2430SOL    HW3 9487   4.702   5.011   4.848 -0.6486 -0.1479 -1.0162
 2430SOL    MW4 9488   4.632   4.995   4.896 -0.0246 -0.5811 -0.2253
 2431SOL     OW 9489   5.219   5.579   0.228  0.3567 -0.0656  0.1179
 2431SOL    HW2 9490   5.255   5.668   0.224  2.4879 -0.9019 -1.5949
 2431SOL    HW3 9491   5.259   5.540   0.306 -0.7807  0.5185  1.0158
 2431SOL    MW4 9492   5.229   5.585   0.238  0.4878 -0.0989  0.0104
 2432SOL     OW 9493   4.150   1.085   0.133 -0.0008  0.0507  0.0143
 2432SOL    HW2 9494   4.089   1.031   0.182  0.3090  1.1031  1.6178
 2432SOL    HW3 9495   4.231   1.082   0.183 -0.0021  2.0452  0.2310
 2432SOL    MW4 9496   4.152   1.077   0.146  0.0399  0.4527  0.2544
 2433SOL     OW 9497   5.178   2.536   4.193 -0.1361 -0.0288 -0.2213
 2433SOL    HW2 9498   5.098   2.505   4.235 -0.0735 -0.0937 -0.1489
 2433SOL    HW3 9499   5.247   2.480   4.228  0.5113  2.2074  2.4156
 2433SOL    MW4 9500   5.177   2.525   4.203 -0.0424  0.2577  0.1362
 2434SOL     OW 9501   6.055   0.079   0.356 -0.5884  0.8114  0.2596
 2434SOL    HW2 9502   5.973   0.118   0.386 -0.6998  0.9266 -0.1906
 2434SOL    HW3 9503   6.120   0.148   0.366 -1.0111  1.5578 -1.6918
 2434SOL    MW4 9504   6.052   0.093   0.361 -0.6588  0.9250 -0.0573
 2435SOL     OW 9505   5.050   3.173   1.677 -0.4341  0.4226  0.0186
 2435SOL    HW2 9506   4.957   3.152   1.688 -0.0011 -1.3341  0.5124
 2435SOL    HW3 9507   5.094   3.088   1.672  1.2953  1.2049  0.9994
 2435SOL    MW4 9508   5.043   3.159   1.678 -0.1488  0.2941  0.2131
 2436SOL     OW 9509   3.996   3.725   2.369  0.6958 -0.2815 -0.3724
 2436SOL    HW2 9510   4.083   3.760   2.386  1.0472 -0.8713 -0.9014
 2436SOL    HW3 9511   4.006   3.672   2.290  0.0221 -0.9598 -0.0194
 2436SOL    MW4 9512   4.009   3.723   2.360  0.6533 -0.4488 -0.3957
 2437SOL     OW 9513   5.795   1.623   0.058 -0.1284  0.2264 -0.4317
 2437SOL    HW2 9514   5.815   1.617   0.151 -1.5647  0.2804 -0.0937
 2437SOL    HW3 9515   5.847   1.696   0.026  1.1703 -0.4447  0.0906
 2437SOL    MW4 9516   5.804   1.632   0.066 -0.1465  0.1450 -0.3182
 2438SOL     OW 9517   2.364   1.126   3.342  0.0581 -0.1490 -0.0777
 2438SOL    HW2 9518   2.458   1.116   3.361  0.2209  0.5122 -0.5003
 2438SOL    HW3 9519   2.361   1.184   3.266 -0.6682 -0.9796 -0.7050
 2438SOL    MW4 9520   2.376   1.133   3.335 -0.0163 -0.1713 -0.2162
 2439SOL     OW 9521   4.427   0.342   1.332 -0.2782 -0.3048 -0.1852
 2439SOL    HW2 9522   4.393   0.335   1.243  0.9891 -0.8656 -0.6488
 2439SOL    HW3 9523   4.350   0.332   1.388 -0.9842 -0.6905 -1.1985
 2439SOL    MW4 9524   4.412   0.340   1.328 -0.2041 -0.4297 -0.3800
 2440SOL     OW 9525   2.161   2.783   6.245  0.2797 -0.5989  0.0945
 2440SOL    HW2 9526   2.187   2.875   6.249  1.5156 -0.9503  0.6314
 2440SOL    HW3 9527   2.198   2.744   6.324 -3.2605 -0.8441  1.8614
 2440SOL    MW4 9528   2.169   2.790   6.256 -0.0243 -0.6776  0.3985
 2441SOL     OW 9529   4.348   4.321   0.576  0.4518  0.2799  0.2972
 2441SOL    HW2 9530   4.287   4.380   0.620  0.0365  0.1309 -0.0605
 2441SOL    HW3 9531   4.394   4.276   0.646 -0.5231 -0.2878  0.5940
 2441SOL    MW4 9532   4.346   4.323   0.591  0.2684  0.1854  0.2892
 2442SOL     OW 9533   0.390   1.598   0.006 -0.4789  0.1790 -0.2551
 2442SOL    HW2 9534   0.430   1.560   0.084 -1.7834 -0.6904  0.0252
 2442SOL    HW3 9535   0.428   1.550  -0.067 -1.4689 -1.1261  0.0473
 2442SOL    MW4 9536   0.400   1.587   0.007 -0.7816 -0.1079 -0.1782
 2443SOL     OW 9537   1.667   5.351   6.195  0.1535  0.0625 -0.3774
 2443SOL    HW2 9538   1.583   5.395   6.180  0.5895  1.5644  1.2133
 2443SOL    HW3 9539   1.730   5.405   6.148  0.3704 -0.5144 -0.7614
 2443SOL    MW4 9540   1.664   5.364   6.187  0.2397  0.1845 -0.2182
 2444SOL     OW 9541   5.292   3.976   2.749 -0.2858 -0.5166  0.5736
 2444SOL    HW2 9542   5.224   3.909   2.745 -0.2196 -0.7189  2.1070
 2444SOL    HW3 9543   5.332   3.964   2.836 -0.3352  1.5699  0.9307
 2444SOL    MW4 9544   5.288   3.966   2.760 -0.2836 -0.2680  0.8231
 2445SOL     OW 9545   6.094   2.492   5.993  0.1814 -0.4649  0.4666
 2445SOL    HW2 9546   6.026   2.452   5.939 -0.3198 -0.4324  1.0622
 2445SOL    HW3 9547   6.156   2.530   5.930  0.1185 -1.2627 -0.0921
 2445SOL    MW4 9548   6.093   2.491   5.978  0.1070 -0.5659  0.4715
 2446SOL     OW 9549   2.310   1.840   0.203  0.1049  0.3087  0.3572
 2446SOL    HW2 9550   2.271   1.798   0.127  0.8670 -1.1003  0.7099
 2446SOL    HW3 9551   2.273   1.793   0.278  1.5148 -0.2540  0.7327
 2446SOL    MW4 9552   2.300   1.828   0.203  0.3915  0.0485  0.4533
 2447SOL     OW 9553   0.729   1.397   5.613 -0.3674  0.6024  0.1036
 2447SOL    HW2 9554   0.775   1.356   5.540  0.3099  0.5591  0.5486
 2447SOL    HW3 9555   0.716   1.326   5.675 -1.5200  0.4935 -0.2414
 2447SOL    MW4 9556   0.733   1.382   5.611 -0.4301  0.5824  0.1168
 2448SOL     OW 9557   2.155   2.820   0.275 -0.4061  0.1805 -0.5285
 2448SOL    HW2 9558   2.109   2.740   0.247 -0.8765  0.2312  0.0835
 2448SOL    HW3 9559   2.201   2.794   0.355 -0.7756  0.5858 -0.1789
 2448SOL    MW4 9560   2.155   2.806   0.282 -0.5169  0.2407 -0.4016
 2449SOL     OW 9561   0.177   3.173   3.914  0.2566 -0.3599  0.1327
 2449SOL    HW2 9562   0.119   3.126   3.855  1.1189 -1.5665  0.2025
 2449SOL    HW3 9563   0.265   3.140   3.893  0.6101 -0.7121  1.9339
 2449SOL    MW4 9564   0.181   3.162   3.903  0.4170 -0.5655  0.3795
 2450SOL     OW 9565   5.107   2.775   5.956  0.4061 -0.0679 -0.6119
 2450SOL    HW2 9566   5.155   2.724   5.891  0.6084  0.3965 -0.8275
 2450SOL    HW3 9567   5.017   2.745   5.948  0.8643 -1.9993  0.7790
 2450SOL    MW4 9568   5.102   2.764   5.946  0.4932 -0.2614 -0.4568
 2451SOL     OW 9569   5.797   4.875   5.857 -0.5454 -0.2579  0.2552
 2451SOL    HW2 9570   5.711   4.916   5.856  0.2168  1.3964 -0.3354
 2451SOL    HW3 9571   5.833   4.892   5.770  1.2952  1.1230  1.2153
 2451SOL    MW4 9572   5.791   4.882   5.845 -0.2020  0.1425  0.3039
 2452SOL     OW 9573   3.819   0.032   4.099 -0.0087 -0.0526  0.5414
 2452SOL    HW2 9574   3.878   0.054   4.171  0.6416 -2.4856  0.8439
 2452SOL    HW3 9575   3.878   0.014   4.025 -0.4074 -1.4462  0.5403
 2452SOL    MW4 9576   3.835   0.033   4.099  0.0245 -0.5575  0.5812
 2453SOL     OW 9577   3.823   1.540   3.345 -0.1185  0.4906  0.1131
 2453SOL    HW2 9578   3.881   1.559   3.419 -0.7867  2.7632  0.1428
 2453SOL    HW3 9579   3.755   1.484   3.381  1.0752 -0.7410  0.5064
 2453SOL    MW4 9580   3.822   1.535   3.360 -0.0491  0.6279  0.1689
 2454SOL     OW 9581   6.044   1.226   4.488 -0.1112  0.0682  0.1414
 2454SOL    HW2 9582   5.995   1.187   4.416 -0.3610 -0.2328  0.4679
 2454SOL    HW3 9583   6.050   1.319   4.466 -0.8094  0.1042  0.0842
 2454SOL    MW4 9584   6.038   1.233   4.476 -0.2363  0.0332  0.1770
 2455SOL     OW 9585   4.182   2.910   6.293 -0.2669 -0.5565  0.3089
 2455SOL    HW2 9586   4.133   2.829   6.307 -2.1603  0.2401 -1.1385
 2455SOL    HW3 9587   4.119   2.980   6.313  0.7197  0.5332 -0.2664
 2455SOL    MW4 9588   4.167   2.909   6.297 -0.3865 -0.3076  0.0421
 2456SOL     OW 9589   5.597   5.286   0.532  0.0148 -0.0108 -0.6566
 2456SOL    HW2 9590   5.585   5.191   0.526  0.9622 -0.1616 -0.4077
 2456SOL    HW3 9591   5.510   5.320   0.553 -0.3673 -0.8045 -0.8918
 2456SOL    MW4 9592   5.584   5.278   0.534  0.0894 -0.1354 -0.6548
 2457SOL     OW 9593   5.141   0.996   3.109 -0.3115 -0.6955  0.4546
 2457SOL    HW2 9594   5.159   1.071   3.051  0.9068 -1.4125 -0.1486
 2457SOL    HW3 9595   5.049   1.005   3.133 -0.3207  0.7053 -0.0267
 2457SOL    MW4 9596   5.131   1.007   3.104 -0.1519 -0.6053  0.3115
 2458SOL     OW 9597   6.412   4.770   0.914  0.4200 -0.5826  0.2568
 2458SOL    HW2 9598   6.428   4.833   0.983  0.0820 -0.6803  0.4254
 2458SOL    HW3 9599   6.413   4.821   0.833 -1.6004 -0.0512  0.5210
 2458SOL    MW4 9600   6.414   4.785   0.912  0.1088 -0.5254  0.3139
 2459SOL     OW 9601   4.688   1.125   2.738 -0.3178  0.5895  0.2655
 2459SOL    HW2 9602   4.717   1.034   2.739  0.8024  0.9393  0.8255
 2459SOL    HW3 9603   4.611   1.125   2.681  0.5000 -0.4516 -0.8754
 2459SOL    MW4 9604   4.682   1.113   2.731 -0.0621  0.4983  0.1889
 2460SOL     OW 9605   1.322   1.893   1.010  0.2104  0.2205 -0.3190
 2460SOL    HW2 9606   1.349   1.963   0.951  0.5365  0.2901 -0.0924
 2460SOL    HW3 9607   1.400   1.838   1.021  0.1449  0.1879  0.0141
 2460SOL    MW4 9608   1.336   1.895   1.004  0.2448  0.2254 -0.2452
 2461SOL     OW 9609   0.306   1.452   3.434 -0.2499  0.1421  0.1596
 2461SOL    HW2 9610   0.360   1.510   3.382 -0.5518  0.0402 -0.2709
 2461SOL    HW3 9611   0.217   1.464   3.400 -0.7625  1.3936  1.8102
 2461SOL    MW4 9612   0.301   1.461   3.423 -0.3574  0.2938  0.3206
 2462SOL     OW 9613   1.891   3.486   1.899 -0.2537 -0.1324 -0.1268
 2462SOL    HW2 9614   1.823   3.495   1.833 -1.9424 -0.1833  1.5301
 2462SOL    HW3 9615   1.886   3.566   1.950 -0.6509 -1.0798  1.3918
 2462SOL    MW4 9616   1.881   3.498   1.897 -0.5289 -0.2641  0.2922
 2463SOL     OW 9617   2.358   0.521   1.497 -0.3426 -0.2327 -0.3646
 2463SOL    HW2 9618   2.423   0.586   1.472  0.8399 -0.9712  0.6229
 2463SOL    HW3 9619   2.369   0.450   1.434  1.1039 -1.1345  0.8352
 2463SOL    MW4 9620   2.368   0.520   1.485  0.0043 -0.4491 -0.0760
 2464SOL     OW 9621   4.299   6.352   1.251 -0.5147 -0.2936 -0.1294
 2464SOL    HW2 9622   4.247   6.273   1.233 -2.1376  0.3787  1.2558
 2464SOL    HW3 9623   4.313   6.350   1.346  1.3474 -0.0210 -0.3652
 2464SOL    MW4 9624   4.294   6.341   1.262 -0.4831 -0.1689  0.0222
 2465SOL     OW 9625   5.735   0.676   5.184  0.1626 -0.4548  0.3453
 2465SOL    HW2 9626   5.677   0.727   5.241 -1.1922 -3.0747  1.4602
 2465SOL    HW3 9627   5.681   0.653   5.109  0.2885 -1.4287  0.5393
 2465SOL    MW4 9628   5.720   0.680   5.182  0.0004 -0.9290  0.5180
 2466SOL     OW 9629   6.368   0.218   2.396 -0.0155 -0.3552 -0.2465
 2466SOL    HW2 9630   6.374   0.269   2.477  0.3843  0.2761 -0.6627
 2466SOL    HW3 9631   6.341   0.131   2.424  0.0669 -0.1276  0.5613
 2466SOL    MW4 9632   6.365   0.213   2.411  0.0481 -0.2419 -0.1949
 2467SOL     OW 9633   5.880   0.813   1.801 -0.3110  0.3623  0.0817
 2467SOL    HW2 9634   5.831   0.748   1.852  0.4414 -1.5875 -1.5313
 2467SOL    HW3 9635   5.967   0.813   1.840  0.0228 -0.5034 -0.6318
 2467SOL    MW4 9636   5.885   0.804   1.813 -0.1677 -0.0092 -0.2253
 2468SOL     OW 9637   3.103  -0.036   2.522 -0.3396  0.5036 -0.2513
 2468SOL    HW2 9638   3.119  -0.128   2.504 -0.1607  0.3541  0.6505
 2468SOL    HW3 9639   3.050  -0.006   2.448 -1.5238 -0.6374  0.0922
 2468SOL    MW4 9640   3.098  -0.044   2.510 -0.4722  0.3333 -0.0870
 2469SOL     OW 9641   5.549   4.559   1.914 -0.3777  0.7235 -0.2834
 2469SOL    HW2 9642   5.466   4.584   1.954 -0.6294  1.7007 -1.3604
 2469SOL    HW3 9643   5.575   4.635   1.862  1.2786  0.4960  0.1582
 2469SOL    MW4 9644   5.542   4.572   1.912 -0.1924  0.8225 -0.3672
 2470SOL     OW 9645   6.303   0.924   0.229 -0.0127  0.3539  0.3463
 2470SOL    HW2 9646   6.274   1.007   0.191 -0.1863  0.2508  0.2514
 2470SOL    HW3 9647   6.372   0.893   0.171 -1.6546 -0.8201 -1.0874
 2470SOL    MW4 9648   6.308   0.931   0.217 -0.2522  0.1854  0.1446
 2471SOL     OW 9649   3.038   5.183   3.465  0.3823 -0.6520 -0.0967
 2471SOL    HW2 9650   3.023   5.275   3.486  0.5644  0.0561 -2.7078
 2471SOL    HW3 9651   2.958   5.155   3.421 -0.2463 -2.2164  1.9097
 2471SOL    MW4 9652   3.026   5.191   3.462  0.3234 -0.7650 -0.1765
 2472SOL     OW 9653   0.249   1.851   0.029 -0.1400 -0.1448 -0.3428
 2472SOL    HW2 9654   0.220   1.811   0.110  2.2427  1.9653  1.7089
 2472SOL    HW3 9655   0.328   1.803   0.005  1.0145  1.2851  0.4655
 2472SOL    MW4 9656   0.255   1.840   0.036  0.3267  0.3223  0.0346
 2473SOL     OW 9657   0.196   6.256   5.316  0.4298  0.2388 -0.2012
 2473SOL    HW2 9658   0.180   6.331   5.374  0.4016  0.7480 -0.8439
 2473SOL    HW3 9659   0.206   6.181   5.374  0.9088  0.8230  0.4873
 2473SOL    MW4 9660   0.196   6.256   5.331  0.4893  0.3831 -0.1952
 2474SOL     OW 9661   2.799   2.126   2.613 -0.5731  0.0149 -0.2956
 2474SOL    HW2 9662   2.727   2.065   2.626 -0.9057  0.2782 -0.8922
 2474SOL    HW3 9663   2.850   2.090   2.541  0.4212 -0.6463  0.6986
 2474SOL    MW4 9664   2.796   2.114   2.606 -0.4858 -0.0376 -0.2431
 2475SOL     OW 9665   3.438   1.033   1.924 -0.1059 -0.0180 -0.2494
 2475SOL    HW2 9666   3.385   1.112   1.913 -0.2743 -0.2719 -1.3160
 2475SOL    HW3 9667   3.484   1.047   2.007 -0.6499  0.8961 -0.0857
 2475SOL    MW4 9668   3.437   1.046   1.934 -0.1999  0.0691 -0.3685
 2476SOL     OW 9669   0.419   4.752   3.303 -0.4470 -0.1503 -0.1277
 2476SOL    HW2 9670   0.444   4.670   3.346 -1.4140  0.2321  1.2615
 2476SOL    HW3 9671   0.379   4.725   3.221  2.3120 -0.8646 -1.3394
 2476SOL    MW4 9672   0.417   4.738   3.298 -0.2106 -0.1941 -0.1043
 2477SOL     OW 9673   4.124   0.577   5.700  0.0473  0.1621  0.3455
 2477SOL    HW2 9674   4.120   0.498   5.753 -1.2775  1.4014  2.2579
 2477SOL    HW3 9675   4.194   0.561   5.637  0.0319 -2.3634  0.8739
 2477SOL    MW4 9676   4.133   0.565   5.699 -0.1295 -0.0076  0.6676
 2478SOL     OW 9677   0.799   2.528   1.772 -0.4788  0.0523 -0.1225
 2478SOL    HW2 9678   0.731   2.594   1.771 -0.7426 -0.2090  0.3313
 2478SOL    HW3 9679   0.857   2.552   1.700 -1.4311 -0.1293 -0.9581
 2478SOL    MW4 9680   0.798   2.540   1.763 -0.6392 -0.0061 -0.1729
 2479SOL     OW 9681   3.319   0.193   4.116 -0.0216 -0.1952  0.0956
 2479SOL    HW2 9682   3.271   0.245   4.052  0.8844  0.8002  0.1940
 2479SOL    HW3 9683   3.261   0.188   4.191 -1.0325 -1.2390 -0.7126
 2479SOL    MW4 9684   3.305   0.199   4.117 -0.0354 -0.2016  0.0020
 2480SOL     OW 9685   4.083   3.172   6.304  0.0977  0.8520 -0.1912
 2480SOL    HW2 9686   4.016   3.230   6.339 -0.8269  0.1125 -0.6897
 2480SOL    HW3 9687   4.127   3.225   6.237 -0.9786  0.8749 -0.8994
 2480SOL    MW4 9688   4.080   3.187   6.299 -0.1663  0.7575 -0.3504
 2481SOL     OW 9689   1.596   3.883   1.242 -0.8598 -0.2867 -0.7425
 2481SOL    HW2 9690   1.617   3.799   1.201  2.2970  1.5345 -3.2860
 2481SOL    HW3 9691   1.655   3.888   1.317  0.7937  0.5847 -2.0327
 2481SOL    MW4 9692   1.606   3.873   1.247 -0.2252  0.0686 -1.2483
 2482SOL     OW 9693   4.580   2.158   1.389 -0.3338  0.1854 -0.4180
 2482SOL    HW2 9694   4.577   2.066   1.363 -0.2790  0.1339 -0.2456
 2482SOL    HW3 9695   4.671   2.173   1.414 -0.2371  0.4119 -0.8906
 2482SOL    MW4 9696   4.591   2.148   1.389 -0.3138  0.2085 -0.4576
 2483SOL     OW 9697   0.502   0.937   2.420  0.7733 -0.2227 -0.8436
 2483SOL    HW2 9698   0.558   0.893   2.484 -0.4176 -0.4239  0.1024
 2483SOL    HW3 9699   0.429   0.877   2.405 -0.4509  1.0266 -0.1683
 2483SOL    MW4 9700   0.499   0.923   2.426  0.4547 -0.0844 -0.6297
 2484SOL     OW 9701   3.279   3.551   5.640  0.6100 -0.1907  0.3945
 2484SOL    HW2 9702   3.300   3.617   5.573  0.7875 -2.9296 -2.4441
 2484SOL    HW3 9703   3.363   3.508   5.658 -0.1749 -2.7352 -1.4660
 2484SOL    MW4 9704   3.293   3.554   5.633  0.5298 -0.8878 -0.2255
 2485SOL     OW 9705   5.049   3.571   1.601 -0.5103 -0.9111 -0.1658
 2485SOL    HW2 9706   5.078   3.613   1.682 -0.3040  0.5693 -0.9735
 2485SOL    HW3 9707   5.128   3.533   1.563 -0.5586 -1.3645  0.1790
 2485SOL    MW4 9708   5.063   3.572   1.607 -0.4895 -0.7756 -0.2269
 2486SOL     OW 9709   0.879   5.324   5.333  0.5976 -0.1914 -0.1604
 2486SOL    HW2 9710   0.906   5.309   5.424 -0.2113  1.0835  0.3219
 2486SOL    HW3 9711   0.929   5.260   5.282 -1.0593 -2.9760  1.4586
 2486SOL    MW4 9712   0.889   5.313   5.338  0.2723 -0.3906  0.1168
 2487SOL     OW 9713   6.251   3.411   5.857 -0.0328 -0.5082 -0.2558
 2487SOL    HW2 9714   6.214   3.346   5.797  0.9678 -1.7844  0.4698
 2487SOL    HW3 9715   6.184   3.423   5.924 -0.2346 -0.7500 -0.4135
 2487SOL    MW4 9716   6.237   3.404   5.858  0.0726 -0.7085 -0.1809
 2488SOL     OW 9717   5.453   3.764   2.653 -0.0606  0.7466  0.1738
 2488SOL    HW2 9718   5.542   3.797   2.660  0.0819  0.6907 -1.2219
 2488SOL    HW3 9719   5.398   3.833   2.691  0.4464  1.4381 -0.3396
 2488SOL    MW4 9720   5.458   3.777   2.659  0.0251  0.8305 -0.0781
 2489SOL     OW 9721   0.280   4.896   2.116 -0.8065 -0.1623 -1.0631
 2489SOL    HW2 9722   0.354   4.955   2.130 -1.2408  0.6625 -2.0599
 2489SOL    HW3 9723   0.267   4.853   2.200  1.4958 -1.1603 -1.1594
 2489SOL    MW4 9724   0.288   4.898   2.129 -0.5600 -0.1852 -1.2073
 2490SOL     OW 9725   0.955   0.992   3.898 -0.0113 -0.3460 -0.4263
 2490SOL    HW2 9726   0.903   1.071   3.907 -0.4347 -0.2711 -2.8734
 2490SOL    HW3 9727   0.903   0.923   3.938 -1.3857 -0.0181 -1.5876
 2490SOL    MW4 9728   0.941   0.993   3.904 -0.2485 -0.2929 -0.9024
 2491SOL     OW 9729   5.290   1.692   0.942 -0.4703  0.1788 -0.0206
 2491SOL    HW2 9730   5.325   1.636   0.873  0.4464  0.7973 -0.0701
 2491SOL    HW3 9731   5.235   1.633   0.995  2.2961 -1.3997  1.3424
 2491SOL    MW4 9732   5.287   1.677   0.940  0.0157  0.0521  0.1527
 2492SOL     OW 9733   0.186   0.122   0.613 -0.4411  0.4671  0.2626
 2492SOL    HW2 9734   0.244   0.069   0.669 -0.7695 -0.7650 -0.5293
 2492SOL    HW3 9735   0.142   0.181   0.674 -2.1574 -2.0541  1.6558
 2492SOL    MW4 9736   0.188   0.123   0.628 -0.7109 -0.0281  0.3419
 2493SOL     OW 9737   4.704   3.551   5.142 -1.0340  0.3022  0.2252
 2493SOL    HW2 9738   4.681   3.468   5.101 -0.5656 -0.0447  0.6418
 2493SOL    HW3 9739   4.695   3.534   5.236  3.8204 -0.8763  0.7237
 2493SOL    MW4 9740   4.700   3.538   5.149 -0.3318  0.1010  0.3459
 2494SOL     OW 9741   4.589   0.614   6.297  0.2982  0.0789  0.5054
 2494SOL    HW2 9742   4.546   0.699   6.309  1.6083  0.5700  2.0522
 2494SOL    HW3 9743   4.530   0.551   6.339 -1.0257  0.0694 -1.2595
 2494SOL    MW4 9744   4.576   0.617   6.305  0.2964  0.1425  0.4766
 2495SOL     OW 9745   1.275   4.153   6.045  0.5668 -0.6272  0.2115
 2495SOL    HW2 9746   1.357   4.109   6.066  0.5651  0.6489  3.3200
 2495SOL    HW3 9747   1.281   4.238   6.089 -1.8763  0.0648 -0.6355
 2495SOL    MW4 9748   1.287   4.158   6.053  0.2443 -0.3676  0.5099
 2496SOL     OW 9749   2.244   6.305   0.900  0.0421 -0.4467 -0.6206
 2496SOL    HW2 9750   2.292   6.357   0.964  0.5650 -0.8056 -0.7213
 2496SOL    HW3 9751   2.219   6.225   0.947 -1.8240  0.3810 -0.0883
 2496SOL    MW4 9752   2.247   6.301   0.915 -0.1352 -0.3848 -0.5637
 2497SOL     OW 9753   2.625   3.047   4.681  0.0072 -0.6904 -0.5200
 2497SOL    HW2 9754   2.657   3.057   4.591 -1.2559  0.1543 -0.8962
 2497SOL    HW3 9755   2.700   3.069   4.736  0.5095 -0.2483 -1.3698
 2497SOL    MW4 9756   2.639   3.051   4.676 -0.0932 -0.5206 -0.6818
 2498SOL     OW 9757   0.456   3.890   4.542 -0.2500  0.5724 -0.4162
 2498SOL    HW2 9758   0.384   3.903   4.604 -0.3773  0.5705 -0.5652
 2498SOL    HW3 9759   0.433   3.811   4.493  0.2928  0.0433  0.1585
 2498SOL    MW4 9760   0.444   3.881   4.544 -0.1952  0.5023 -0.3601
 2499SOL     OW 9761   4.415   1.368   0.677 -0.5974 -0.1365  0.4547
 2499SOL    HW2 9762   4.429   1.296   0.615 -0.0107  1.5165 -1.4442
 2499SOL    HW3 9763   4.502   1.402   0.695 -0.9295  0.6350  0.6444
 2499SOL    MW4 9764   4.428   1.363   0.671 -0.5638  0.1834  0.2292
 2500SOL     OW 9765   3.640   4.182   1.035  0.5119  0.1223  0.3619
 2500SOL    HW2 9766   3.715   4.123   1.027  1.9105  1.9365 -0.7471
 2500SOL    HW3 9767   3.591   4.169   0.954 -0.0253 -0.5658  0.7842
 2500SOL    MW4 9768   3.643   4.172   1.023  0.6256  0.2709  0.2713
 2501SOL     OW 9769   5.059   3.843   4.732 -0.0985 -0.5212  0.5362
 2501SOL    HW2 9770   5.125   3.905   4.699 -0.0363 -1.4396 -1.2259
 2501SOL    HW3 9771   5.110   3.775   4.776  0.1070 -0.9163 -0.2909
 2501SOL    MW4 9772   5.075   3.843   4.733 -0.0631 -0.6945  0.1946
 2502SOL     OW 9773   2.250   3.452   2.465  0.5773  0.6157 -0.1247
 2502SOL    HW2 9774   2.230   3.444   2.372 -1.2186 -1.0609  0.3198
 2502SOL    HW3 9775   2.345   3.465   2.468  0.9225 -0.8514 -2.1485
 2502SOL    MW4 9776   2.260   3.452   2.453  0.3859  0.2009 -0.3331
 2503SOL     OW 9777   3.360   4.889   3.332 -0.3353  0.2214 -0.4447
 2503SOL    HW2 9778   3.366   4.956   3.400 -0.2671  0.1698 -0.3988
 2503SOL    HW3 9779   3.360   4.938   3.249  3.6263  0.2221 -0.6648
 2503SOL    MW4 9780   3.361   4.905   3.330  0.1964  0.2147 -0.4677
 2504SOL     OW 9781   3.277   5.774   4.216 -0.2311 -0.3496 -0.1320
 2504SOL    HW2 9782   3.299   5.704   4.278  0.1005 -1.4386 -1.4328
 2504SOL    HW3 9783   3.337   5.760   4.143  0.1089  1.5504 -0.2730
 2504SOL    MW4 9784   3.288   5.763   4.215 -0.1425 -0.2426 -0.3222
 2505SOL     OW 9785   0.517   5.077   6.240  0.1214  0.7415  0.6102
 2505SOL    HW2 9786   0.514   5.137   6.166 -1.3824  0.1965  0.1831
 2505SOL    HW3 9787   0.499   5.133   6.317  1.3855  1.2561  0.5449
 2505SOL    MW4 9788   0.514   5.093   6.241  0.0898  0.7375  0.5452
 2506SOL     OW 9789   0.316   4.481   5.122  0.4078  0.8639  0.0297
 2506SOL    HW2 9790   0.339   4.391   5.146 -1.7206  0.4717  0.8142
 2506SOL    HW3 9791   0.324   4.530   5.203  0.8328  1.2368 -0.2334
 2506SOL    MW4 9792   0.320   4.476   5.136  0.1831  0.8614  0.0985
 2507SOL     OW 9793   4.980   0.816   5.715  0.0916  0.0968 -0.3692
 2507SOL    HW2 9794   4.917   0.752   5.746  0.1628  1.1335  2.1209
 2507SOL    HW3 9795   5.016   0.856   5.794  2.3402  1.0314 -1.7429
 2507SOL    MW4 9796   4.977   0.813   5.730  0.3977  0.3569 -0.2219
 2508SOL     OW 9797   3.277   0.947   1.515  0.0381 -0.3642 -0.3022
 2508SOL    HW2 9798   3.299   1.026   1.565  0.5571 -0.0699 -0.9707
 2508SOL    HW3 9799   3.209   0.903   1.567 -1.1450  1.1443 -0.5029
 2508SOL    MW4 9800   3.271   0.952   1.528 -0.0495 -0.1264 -0.4169
 2509SOL     OW 9801   5.584   5.738   0.645 -0.4139 -0.0928  1.0414
 2509SOL    HW2 9802   5.627   5.711   0.727 -1.6921 -2.6005  0.9735
 2509SOL    HW3 9803   5.496   5.765   0.672 -0.5238 -0.0039  0.6011
 2509SOL    MW4 9804   5.578   5.738   0.660 -0.5971 -0.4119  0.9743
 2510SOL     OW 9805   1.455   5.904   1.637 -0.2025 -0.7642 -0.2704
 2510SOL    HW2 9806   1.408   5.979   1.601  1.4717  0.4149 -0.1257
 2510SOL    HW3 9807   1.402   5.877   1.713  0.0714  1.4757  0.7980
 2510SOL    MW4 9808   1.441   5.910   1.642  0.0545 -0.3131 -0.1103
 2511SOL     OW 9809   3.704   2.316   0.729 -0.3574  0.3512  0.1557
 2511SOL    HW2 9810   3.621   2.364   0.729  0.9409  2.7504 -0.1272
 2511SOL    HW3 9811   3.764   2.373   0.680  1.6111 -1.0327  0.8659
 2511SOL    MW4 9812   3.701   2.330   0.722  0.0736  0.4852  0.2121
 2512SOL     OW 9813   4.848   1.828   5.493 -0.6170 -0.1393 -1.1355
 2512SOL    HW2 9814   4.830   1.872   5.576 -0.2269 -0.0825 -1.0785
 2512SOL    HW3 9815   4.774   1.768   5.481 -1.0393  0.3616 -1.1033
 2512SOL    MW4 9816   4.836   1.826   5.502 -0.6213 -0.0657 -1.1237
 2513SOL     OW 9817   1.688   1.269   3.125 -0.4501  0.4468 -0.8712
 2513SOL    HW2 9818   1.672   1.206   3.195 -1.0539 -0.7249 -2.0342
 2513SOL    HW3 9819   1.628   1.243   3.055 -0.1604  1.8506 -1.6746
 2513SOL    MW4 9820   1.678   1.257   3.125 -0.4915  0.4774 -1.1306
 2514SOL     OW 9821   4.634   5.703   0.101 -0.3240  0.1714 -0.1032
 2514SOL    HW2 9822   4.562   5.641   0.089  0.7757 -1.5175  1.5639
 2514SOL    HW3 9823   4.672   5.680   0.186  1.2077  2.0438 -0.2189
 2514SOL    MW4 9824   4.629   5.692   0.110  0.0232  0.1956  0.1015
 2515SOL     OW 9825   2.264   0.457   0.869 -0.0582  0.0852  0.6170
 2515SOL    HW2 9826   2.313   0.375   0.869 -2.9355 -1.8243 -1.6635
 2515SOL    HW3 9827   2.324   0.521   0.830  1.5858 -1.4318  0.5644
 2515SOL    MW4 9828   2.278   0.454   0.864 -0.2209 -0.3669  0.3092
 2516SOL     OW 9829   1.746   5.370   2.351 -0.0756  0.1147 -0.0837
 2516SOL    HW2 9830   1.779   5.387   2.263  0.6428 -0.0110  0.1517
 2516SOL    HW3 9831   1.753   5.454   2.397  1.8952 -0.3521  0.5776
 2516SOL    MW4 9832   1.751   5.383   2.345  0.2792  0.0365  0.0346
 2517SOL     OW 9833   4.485   5.668   2.464 -0.1449  0.9890  0.1690
 2517SOL    HW2 9834   4.514   5.707   2.382 -0.7102 -1.2873 -1.2132
 2517SOL    HW3 9835   4.520   5.726   2.532  3.3648  1.1033 -1.4998
 2517SOL    MW4 9836   4.493   5.681   2.462  0.2435  0.7037 -0.2336
 2518SOL     OW 9837   3.588   1.016   0.322 -0.4613  0.0070  0.4764
 2518SOL    HW2 9838   3.572   1.105   0.352  2.0056  0.8813 -0.5471
 2518SOL    HW3 9839   3.503   0.986   0.290 -1.2185  2.2349  0.2196
 2518SOL    MW4 9840   3.575   1.024   0.322 -0.2357  0.4163  0.3075
 2519SOL     OW 9841   1.226   1.028   4.163 -0.5674  0.7387  0.4093
 2519SOL    HW2 9842   1.140   1.062   4.190 -1.4741 -0.0559 -1.3463
 2519SOL    HW3 9843   1.207   0.971   4.089  1.2674 -1.0073  1.1887
 2519SOL    MW4 9844   1.212   1.025   4.157 -0.4449  0.4035  0.2805
 2520SOL     OW 9845   5.445   2.628   4.041  0.1601 -0.5001  0.3597
 2520SOL    HW2 9846   5.374   2.564   4.034 -0.0276 -0.4005  1.2874
 2520SOL    HW3 9847   5.478   2.619   4.130  0.4544  0.3571  0.3506
 2520SOL    MW4 9848   5.440   2.619   4.052  0.1742 -0.3739  0.4809
 2521SOL     OW 9849   5.694   6.348   3.480  0.5232 -0.0966 -0.4246
 2521SOL    HW2 9850   5.722   6.439   3.468 -0.1735 -0.2053 -3.8084
 2521SOL    HW3 9851   5.749   6.316   3.551  2.9092  2.1331 -1.0879
 2521SOL    MW4 9852   5.705   6.356   3.488  0.7461  0.1832 -0.9586
 2522SOL     OW 9853   4.887   5.057   4.004  0.6256 -0.1824 -0.6319
 2522SOL    HW2 9854   4.966   5.093   3.963  1.5935 -0.3651  0.9801
 2522SOL    HW3 9855   4.920   4.996   4.069 -0.7423  1.2205  1.5079
 2522SOL    MW4 9856   4.902   5.054   4.007  0.5728 -0.0214 -0.1369
 2523SOL     OW 9857   3.388   0.510   5.089  0.7517 -0.0479 -0.1879
 2523SOL    HW2 9858   3.475   0.548   5.075  0.0682  1.4313 -0.6057
 2523SOL    HW3 9859   3.397   0.460   5.170  1.4120  2.0250  1.0987
 2523SOL    MW4 9860   3.401   0.508   5.098  0.7487  0.4208 -0.0733
 2524SOL     OW 9861   1.568   5.516   0.478  0.0192  0.1164  0.5770
 2524SOL    HW2 9862   1.560   5.447   0.544  0.4203  1.3375  1.9430
 2524SOL    HW3 9863   1.478   5.529   0.447  0.0691 -1.7056 -0.4710
 2524SOL    MW4 9864   1.555   5.509   0.483  0.0787  0.0371  0.6189
 2525SOL     OW 9865   5.916   2.949   2.208  0.2104 -0.1681  0.2889
 2525SOL    HW2 9866   5.896   2.991   2.124  1.2995 -0.4222 -0.1155
 2525SOL    HW3 9867   5.977   2.878   2.186  1.0088  0.1503  1.3663
 2525SOL    MW4 9868   5.922   2.945   2.194  0.4594 -0.1596  0.3777
 2526SOL     OW 9869   4.149   0.053   4.681  0.0371 -0.0694 -0.1130
 2526SOL    HW2 9870   4.162   0.146   4.695 -0.4890 -0.1435  0.9665
 2526SOL    HW3 9871   4.210   0.011   4.742  1.3688 -0.4732 -1.6299
 2526SOL    MW4 9872   4.159   0.059   4.690  0.1434 -0.1325 -0.1707
 2527SOL     OW 9873   3.270   3.856   4.483 -0.6952  0.3482  0.0548
 2527SOL    HW2 9874   3.326   3.801   4.537 -0.8634 -0.1496 -0.2768
 2527SOL    HW3 9875   3.263   3.810   4.400  0.1434  1.4588 -0.6500
 2527SOL    MW4 9876   3.276   3.843   4.479 -0.6067  0.4290 -0.0819
 2528SOL     OW 9877   4.725   1.440   3.969  0.3959 -0.0824  0.4554
 2528SOL    HW2 9878   4.740   1.532   3.990  2.3807 -0.1482 -0.4428
 2528SOL    HW3 9879   4.687   1.403   4.049 -2.1057  1.8330  0.2689
 2528SOL    MW4 9880   4.722   1.447   3.982  0.3277  0.1616  0.3122
 2529SOL     OW 9881   3.468   0.379   1.487 -0.9159 -0.2200 -0.4575
 2529SOL    HW2 9882   3.513   0.295   1.474 -2.1935 -0.7350 -1.9615
 2529SOL    HW3 9883   3.530   0.444   1.454 -0.1280 -0.6198  0.2034
 2529SOL    MW4 9884   3.482   0.377   1.481 -0.9805 -0.3407 -0.5688
 2530SOL     OW 9885   4.128   2.631   3.170  0.2006 -0.1358 -0.2782
 2530SOL    HW2 9886   4.220   2.607   3.181  0.1956  0.3034  0.8790
 2530SOL    HW3 9887   4.080   2.559   3.210  0.0893  0.2363  0.2710
 2530SOL    MW4 9888   4.134   2.618   3.177  0.1852 -0.0288 -0.0531
 2531SOL     OW 9889   4.318   1.720   3.068 -0.2409 -0.5558 -0.7241
 2531SOL    HW2 9890   4.302   1.764   2.984  0.8978 -2.1082 -1.8282
 2531SOL    HW3 9891   4.231   1.697   3.101 -0.8928  2.4610 -0.0557
 2531SOL    MW4 9892   4.305   1.722   3.061 -0.1767 -0.3626 -0.7816
 2532SOL     OW 9893   3.175   2.101   3.382 -0.0610  0.0807  0.0307
 2532SOL    HW2 9894   3.240   2.109   3.313  0.4058 -1.0382  0.3057
 2532SOL    HW3 9895   3.180   2.183   3.431  1.6034 -0.2319  0.4260
 2532SOL    MW4 9896   3.184   2.113   3.379  0.2202 -0.1082  0.1192
 2533SOL     OW 9897   0.774   4.500   2.413 -0.6199 -0.2359  0.0251
 2533SOL    HW2 9898   0.854   4.464   2.451 -0.5326  0.9971  1.0988
 2533SOL    HW3 9899   0.717   4.425   2.401  1.0245 -1.2971 -1.6910
 2533SOL    MW4 9900   0.777   4.485   2.417 -0.3914 -0.2132 -0.0597
 2534SOL     OW 9901   2.578   1.483   1.154 -0.0922 -0.0585 -0.0011
 2534SOL    HW2 9902   2.606   1.433   1.230 -0.3412  0.7454  0.6333
 2534SOL    HW3 9903   2.482   1.488   1.162 -0.0527  0.7361  0.1016
 2534SOL    MW4 9904   2.569   1.477   1.165 -0.1199  0.1524  0.0961
 2535SOL     OW 9905   2.457   1.280   2.695  0.7115 -0.3678  0.8224
 2535SOL    HW2 9906   2.551   1.287   2.707  0.4499 -0.1441  3.0718
 2535SOL    HW3 9907   2.422   1.363   2.728 -0.3902 -1.1952  1.8083
 2535SOL    MW4 9908   2.465   1.292   2.701  0.5316 -0.4474  1.2493
 2536SOL     OW 9909   3.845   0.929   4.538 -0.2000  0.0130 -0.5904
 2536SOL    HW2 9910   3.863   0.835   4.530  0.8734  0.1907 -0.3335
 2536SOL    HW3 9911   3.893   0.969   4.466  0.2473  0.4773 -0.0385
 2536SOL    MW4 9912   3.853   0.922   4.527  0.0006  0.0977 -0.4837
 2537SOL     OW 9913   1.948   3.731   2.060  0.9668  0.0064  0.1140
 2537SOL    HW2 9914   1.933   3.719   2.153  0.4266  0.8845  0.1533
 2537SOL    HW3 9915   1.964   3.825   2.050 -0.5847  0.1939 -0.8808
 2537SOL    MW4 9916   1.948   3.742   2.071  0.6909  0.1470 -0.0120
 2538SOL     OW 9917   1.094   0.222   5.865  0.3789 -0.2135  0.2764
 2538SOL    HW2 9918   1.020   0.188   5.916  0.8083 -0.7239  0.5791
 2538SOL    HW3 9919   1.099   0.164   5.789 -0.8833  1.1500 -0.9009
 2538SOL    MW4 9920   1.085   0.210   5.862  0.2691 -0.1010  0.1610
 2539SOL     OW 9921   6.237   3.915   5.214  0.4156 -0.2132 -0.0814
 2539SOL    HW2 9922   6.285   3.964   5.282 -1.3385  1.0737  0.3032
 2539SOL    HW3 9923   6.286   3.934   5.134 -0.4822  2.7768 -0.0555
 2539SOL    MW4 9924   6.250   3.924   5.212  0.0657  0.3511 -0.0273
 2540SOL     OW 9925   4.418   1.028   0.197  0.1951  0.7492  0.2514
 2540SOL    HW2 9926   4.473   0.996   0.125 -1.3386  0.2820 -0.7695
 2540SOL    HW3 9927   4.387   0.949   0.241 -0.6043  0.9583  0.0724
 2540SOL    MW4 9928   4.421   1.013   0.193 -0.1128  0.7151  0.0931
 2541SOL     OW 9929   1.037   0.973   2.572  0.4193  0.7851 -0.2163
 2541SOL    HW2 9930   0.971   0.970   2.503 -0.1604 -2.9222  0.2703
 2541SOL    HW3 9931   1.107   0.916   2.540  1.1063  0.7031  1.3516
 2541SOL    MW4 9932   1.037   0.965   2.558  0.4335  0.2852  0.0547
 2542SOL     OW 9933   4.781   0.874   2.762 -0.2255 -0.5802  0.1559
 2542SOL    HW2 9934   4.782   0.812   2.688 -1.6287 -0.8746  0.3528
 2542SOL    HW3 9935   4.868   0.866   2.800  0.1592 -1.2443 -0.8082
 2542SOL    MW4 9936   4.792   0.865   2.757 -0.3599 -0.7067  0.0547
 2543SOL     OW 9937   5.708   4.281   2.166  0.1922  0.0057 -0.7258
 2543SOL    HW2 9938   5.753   4.279   2.250 -0.3260 -2.6894 -0.4393
 2543SOL    HW3 9939   5.778   4.271   2.101  0.3846 -0.1039 -0.5024
 2543SOL    MW4 9940   5.723   4.280   2.168  0.1492 -0.3644 -0.6585
 2544SOL     OW 9941   2.861   6.147   1.797  0.0319 -0.1149 -0.5674
 2544SOL    HW2 9942   2.838   6.126   1.887 -0.0959 -2.0404 -1.0167
 2544SOL    HW3 9943   2.930   6.085   1.774  0.8420  1.0614 -1.4676
 2544SOL    MW4 9944   2.867   6.136   1.806  0.1219 -0.2138 -0.7454
 2545SOL     OW 9945   2.890   0.867   3.215  0.6231 -0.2807  0.4086
 2545SOL    HW2 9946   2.952   0.939   3.228  0.2297 -0.1934  2.0247
 2545SOL    HW3 9947   2.808   0.911   3.192  0.2286 -0.1318  1.9809
 2545SOL    MW4 9948   2.887   0.883   3.214  0.5191 -0.2495  0.8293
 2546SOL     OW 9949   4.532   5.479   5.412 -0.4330  0.2286 -0.0434
 2546SOL    HW2 9950   4.570   5.532   5.482  0.7782 -0.6706  0.0099
 2546SOL    HW3 9951   4.605   5.425   5.380 -1.7270 -1.8172  0.2706
 2546SOL    MW4 9952   4.547   5.479   5.417 -0.4439 -0.1599  0.0050
 2547SOL     OW 9953   5.107   1.726   4.093 -0.6401 -0.1650 -0.6515
 2547SOL    HW2 9954   5.073   1.706   4.006 -0.4694  0.3089 -0.8300
 2547SOL    HW3 9955   5.198   1.696   4.091  0.0597  1.8269 -1.3908
 2547SOL    MW4 9956   5.115   1.720   4.081 -0.5252  0.1603 -0.7726
 2548SOL     OW 9957   1.828   0.658   5.871 -0.2709 -0.0375 -0.6713
 2548SOL    HW2 9958   1.817   0.636   5.779  1.2945  0.1485 -0.9318
 2548SOL    HW3 9959   1.889   0.592   5.905 -1.6308 -0.7414  0.5211
 2548SOL    MW4 9960   1.834   0.647   5.864 -0.2438 -0.1058 -0.5483
 2549SOL     OW 9961   5.158   5.488   2.130  0.2546  0.3653  0.3322
 2549SOL    HW2 9962   5.089   5.437   2.171 -1.0034  1.5484 -0.2360
 2549SOL    HW3 9963   5.112   5.556   2.081  1.6975 -0.2260 -2.0288
 2549SOL    MW4 9964   5.143   5.490   2.129  0.2790  0.4434 -0.0542
 2550SOL     OW 9965   5.360   4.917   6.317 -0.9113 -0.2495  0.2550
 2550SOL    HW2 9966   5.267   4.939   6.323 -1.1200 -0.0800 -2.4211
 2550SOL    HW3 9967   5.395   4.980   6.254  0.7784 -1.0543  0.3480
 2550SOL    MW4 9968   5.352   4.928   6.309 -0.7159 -0.3334 -0.0858
 2551SOL     OW 9969   2.158   5.408   3.846  0.3004  0.7427 -0.0222
 2551SOL    HW2 9970   2.156   5.411   3.750 -0.0243  0.3389 -0.0299
 2551SOL    HW3 9971   2.115   5.490   3.872  1.0571  1.2130 -0.2132
 2551SOL    MW4 9972   2.152   5.419   3.837  0.3574  0.7515 -0.0484
 2552SOL     OW 9973   3.456   5.878   3.514 -0.0836  0.2665 -0.1245
 2552SOL    HW2 9974   3.470   5.795   3.468 -1.3613  0.2424 -0.4901
 2552SOL    HW3 9975   3.366   5.902   3.495  0.0405  1.3826  0.5797
 2552SOL    MW4 9976   3.446   5.870   3.506 -0.2358  0.4106 -0.0799
 2553SOL     OW 9977   3.125   5.919   3.206 -0.0779 -0.3932  0.2063
 2553SOL    HW2 9978   3.045   5.936   3.157 -1.1455 -1.1544  1.5872
 2553SOL    HW3 9979   3.195   5.957   3.153 -1.6069  2.8764  0.2598
 2553SOL    MW4 9980   3.124   5.927   3.193 -0.4205 -0.0622  0.3956
 2554SOL     OW 9981   0.719   3.305   2.364 -0.1948  0.4690  0.2608
 2554SOL    HW2 9982   0.678   3.275   2.446 -0.2461 -0.7871 -0.2057
 2554SOL    HW3 9983   0.648   3.349   2.317  0.1370  2.4115  1.4171
 2554SOL    MW4 9984   0.704   3.307   2.369 -0.1578  0.5596  0.3518
 2555SOL     OW 9985   5.906   3.682   1.921 -0.0628  0.4101 -0.4782
 2555SOL    HW2 9986   5.822   3.693   1.967  0.8598 -0.5915  1.5829
 2555SOL    HW3 9987   5.959   3.757   1.951  0.3597  0.0672 -0.3628
 2555SOL    MW4 9988   5.902   3.694   1.931  0.1147  0.2327 -0.1911
 2556SOL     OW 9989   0.265   4.051   4.010  0.1306 -0.2806  0.1848
 2556SOL    HW2 9990   0.275   3.958   3.992  0.1304 -0.1622 -0.4429
 2556SOL    HW3 9991   0.345   4.091   3.977  0.3551 -0.1080  0.8992
 2556SOL    MW4 9992   0.277   4.044   4.004  0.1602 -0.2422  0.1962
 2557SOL     OW 9993   3.398   4.325   3.849  0.1112  0.0721 -0.2262
 2557SOL    HW2 9994   3.416   4.328   3.755  0.3597  0.4800 -0.1687
 2557SOL    HW3 9995   3.448   4.398   3.885  0.7029 -0.6023  0.3401
 2557SOL    MW4 9996   3.407   4.335   3.841  0.2220  0.0369 -0.1439
 2558SOL     OW 9997   6.265   1.139   0.029 -0.0970  0.5615  1.2398
 2558SOL    HW2 9998   6.332   1.076   0.004  0.5418  1.0310  1.7488
 2558SOL    HW3 9999   6.208   1.145  -0.048  0.2829 -0.0388  0.9041
 2558SOL    MW410000   6.266   1.132   0.016  0.0374  0.5442  1.2627
 2559SOL     OW10001   5.069   1.680   5.541 -0.3433 -0.0756 -0.1922
 2559SOL    HW210002   4.987   1.728   5.531 -0.0913  0.1526 -1.3066
 2559SOL    HW310003   5.044   1.598   5.584 -0.8973  0.6849  1.0139
 2559SOL    MW410004   5.055   1.675   5.545 -0.3831  0.0549 -0.1801
 2560SOL     OW10005   6.237   5.553   4.945 -0.5539  0.4028  0.1099
 2560SOL    HW210006   6.282   5.498   4.880 -0.0864  0.9282 -0.0185
 2560SOL    HW310007   6.217   5.634   4.898 -1.5823  0.2066  0.1891
 2560SOL    MW410008   6.240   5.556   4.930 -0.6279  0.4462  0.1034
 2561SOL     OW10009   3.709   3.666   1.693  0.3643 -0.9958  0.3186
 2561SOL    HW210010   3.656   3.588   1.709 -0.6413 -1.3935 -3.7704
 2561SOL    HW310011   3.664   3.736   1.739 -1.7031 -1.9881 -0.0849
 2561SOL    MW410012   3.696   3.665   1.701 -0.0412 -1.1792 -0.2741
 2562SOL     OW10013   2.147   3.210   2.578  0.2397 -0.4575 -0.3692
 2562SOL    HW210014   2.181   3.276   2.518 -0.4037  0.2666  0.0436
 2562SOL    HW310015   2.125   3.135   2.521  0.6367 -0.1853 -0.8896
 2562SOL    MW410016   2.148   3.209   2.562  0.2072 -0.3260 -0.3834
 2563SOL     OW10017   0.290   3.885   5.640  0.3938  0.3029  0.7036
 2563SOL    HW210018   0.376   3.843   5.646 -0.1459 -0.8077  0.9969
 2563SOL    HW310019   0.269   3.882   5.546 -2.0004 -5.2546  1.0454
 2563SOL    MW410020   0.299   3.879   5.628  0.0067 -0.5769  0.7874
 2564SOL     OW10021   4.499   5.836   4.576  0.1840 -0.1918  0.2446
 2564SOL    HW210022   4.527   5.755   4.619 -0.6215 -0.5199  0.1847
 2564SOL    HW310023   4.405   5.841   4.595  0.0196  0.1780 -0.6322
 2564SOL    MW410024   4.490   5.826   4.584  0.0560 -0.1863  0.1210
 2565SOL     OW10025   1.591   1.101   3.333  0.1824 -0.2756  0.6040
 2565SOL    HW210026   1.546   1.018   3.315 -0.0551  0.0126 -0.1982
 2565SOL    HW310027   1.550   1.135   3.412  0.2546 -0.9066  0.9120
 2565SOL    MW410028   1.580   1.095   3.341  0.1606 -0.3208  0.5388
 2566SOL     OW10029   2.986   5.385   4.082 -0.1226 -0.2626 -0.2976
 2566SOL    HW210030   3.025   5.308   4.039  0.1291 -0.4761  0.3070
 2566SOL    HW310031   2.897   5.389   4.046 -1.0104 -2.3001  1.4270
 2566SOL    MW410032   2.979   5.375   4.071 -0.2065 -0.5596  0.0097
 2567SOL     OW10033   6.169   3.941   6.247  0.1768  0.4377  0.2376
 2567SOL    HW210034   6.172   4.033   6.225 -0.8703  0.1629 -1.1596
 2567SOL    HW310035   6.134   3.939   6.337 -1.0865  1.3520 -0.2022
 2567SOL    MW410036   6.165   3.953   6.256 -0.1280  0.5221 -0.0048
 2568SOL     OW10037   1.829   4.246   1.759 -0.1632  0.1822 -0.2548
 2568SOL    HW210038   1.866   4.159   1.775  0.5021  0.2635 -1.2830
 2568SOL    HW310039   1.902   4.306   1.774 -1.0647  0.7770  2.3216
 2568SOL    MW410040   1.844   4.243   1.763 -0.1943  0.2714 -0.0505
 2569SOL     OW10041   3.129   2.033   1.254  0.2154 -1.0071  0.5153
 2569SOL    HW210042   3.209   2.040   1.202  0.0068  1.5145  0.4107
 2569SOL    HW310043   3.062   2.074   1.200 -0.5606 -0.6373  1.7242
 2569SOL    MW410044   3.131   2.039   1.240  0.0855 -0.6256  0.6610
 2570SOL     OW10045   1.398   6.000   4.596 -0.1025  0.0264 -0.0752
 2570SOL    HW210046   1.339   6.064   4.557  1.1595  0.8987 -0.6064
 2570SOL    HW310047   1.419   6.036   4.683 -1.0952 -0.7747  0.5238
 2570SOL    MW410048   1.393   6.013   4.603 -0.0670  0.0358 -0.0663
 2571SOL     OW10049   2.678   2.864   2.205 -0.2748  0.3065 -0.0365
 2571SOL    HW210050   2.589   2.851   2.172  0.4439  0.1908 -2.1056
 2571SOL    HW310051   2.733   2.823   2.139  1.2548 -2.0339  2.5235
 2571SOL    MW410052   2.673   2.857   2.192  0.0219 -0.0176  0.0283
 2572SOL     OW10053   1.398   2.716   1.008  0.8044 -0.7414 -0.4572
 2572SOL    HW210054   1.397   2.812   1.011 -0.4701 -0.5188 -3.8454
 2572SOL    HW310055   1.467   2.691   1.069 -1.2982  2.0541  3.5705
 2572SOL    MW410056   1.407   2.726   1.017  0.3589 -0.3432 -0.3728
 2573SOL     OW10057   4.166   1.887   3.944  0.3065  0.0213  0.4953
 2573SOL    HW210058   4.096   1.904   3.881  0.0997 -1.6380  0.2193
 2573SOL    HW310059   4.211   1.971   3.954 -1.0373  0.8494 -0.1608
 2573SOL    MW410060   4.163   1.900   3.937  0.1019 -0.0884  0.3723
 2574SOL     OW10061   1.125   0.353   3.512 -0.1098 -0.8466  0.2520
 2574SOL    HW210062   1.047   0.378   3.561  0.3582  0.3188  0.4219
 2574SOL    HW310063   1.111   0.260   3.492 -2.0319 -0.4333 -0.6325
 2574SOL    MW410064   1.113   0.344   3.515 -0.3016 -0.6383  0.1577
 2575SOL     OW10065   5.045   0.392   4.163 -0.5674 -0.0214  0.2160
 2575SOL    HW210066   5.104   0.456   4.123  0.4771 -0.8134  0.4418
 2575SOL    HW310067   5.070   0.308   4.123 -3.1036 -0.1112 -1.4375
 2575SOL    MW410068   5.056   0.389   4.152 -0.7642 -0.1378  0.0277
 2576SOL     OW10069   5.250   5.551   4.578 -0.0685  0.7170  0.0251
 2576SOL    HW210070   5.266   5.545   4.672 -1.3787  1.4321  0.3223
 2576SOL    HW310071   5.249   5.460   4.547  0.5147  0.4876  0.6633
 2576SOL    MW410072   5.252   5.538   4.586 -0.1644  0.7811  0.1485
 2577SOL     OW10073   0.599   2.758   1.735 -0.2702  0.4335  0.3472
 2577SOL    HW210074   0.533   2.826   1.747 -1.5696 -0.7379  0.1942
 2577SOL    HW310075   0.561   2.700   1.668  1.6101  0.5433 -0.9151
 2577SOL    MW410076   0.585   2.759   1.727 -0.1936  0.2934  0.1604
 2578SOL     OW10077   1.980   5.309   3.182  0.7309 -0.3906 -0.6593
 2578SOL    HW210078   1.943   5.316   3.094 -2.6473 -2.8225  0.3365
 2578SOL    HW310079   1.971   5.396   3.220 -1.8474 -0.2667 -1.3816
 2578SOL    MW410080   1.974   5.321   3.175 -0.0550 -0.6951 -0.6232
 2579SOL     OW10081   6.322   1.176   4.475  0.1149 -0.6268 -0.1205
 2579SOL    HW210082   6.375   1.097   4.483  0.7769  0.0172  4.3719
 2579SOL    HW310083   6.236   1.151   4.509 -0.8672 -0.2307 -2.1373
 2579SOL    MW410084   6.318   1.162   4.480  0.0727 -0.4896  0.2061
 2580SOL     OW10085   4.016   1.710   1.662 -0.6501 -0.1810 -0.1179
 2580SOL    HW210086   4.034   1.787   1.715 -1.7928 -0.4220  0.6591
 2580SOL    HW310087   4.101   1.670   1.648 -0.1038  0.9476 -0.1235
 2580SOL    MW410088   4.029   1.715   1.667 -0.7288 -0.0639 -0.0161
 2581SOL     OW10089   1.890   3.262   0.628 -0.6358 -0.6233 -0.0002
 2581SOL    HW210090   1.952   3.194   0.603 -1.1839 -1.2467  0.2996
 2581SOL    HW310091   1.925   3.342   0.589  1.2950 -0.6121  1.6184
 2581SOL    MW410092   1.903   3.264   0.619 -0.4534 -0.7040  0.2529
 2582SOL     OW10093   2.729   0.458   4.240 -0.3871  0.1881 -0.5135
 2582SOL    HW210094   2.763   0.547   4.236 -1.0367  0.5971  1.7439
 2582SOL    HW310095   2.806   0.402   4.227  0.1527  1.0734 -1.2071
 2582SOL    MW410096   2.744   0.462   4.238 -0.4016  0.3588 -0.3072
 2583SOL     OW10097   6.248   1.992   1.506 -0.0579  0.0132 -0.0043
 2583SOL    HW210098   6.202   1.931   1.565  2.3185  0.1212  2.1342
 2583SOL    HW310099   6.248   2.075   1.553  1.7938  0.1475 -0.1928
 2583SOL    MW410100   6.242   1.995   1.520  0.4999  0.0451  0.2530
 2584SOL     OW10101   1.424   3.143   2.223  0.6046 -0.9436  0.0832
 2584SOL    HW210102   1.427   3.180   2.311 -1.3101  0.4171 -0.3674
 2584SOL    HW310103   1.335   3.111   2.213  0.3520  0.1981 -1.8258
 2584SOL    MW410104   1.413   3.144   2.233  0.3186 -0.6134 -0.2281
 2585SOL     OW10105   1.271   4.535   5.564  0.5164 -0.1244 -0.0868
 2585SOL    HW210106   1.367   4.528   5.566  0.5179 -0.1176 -0.1228
 2585SOL    HW310107   1.244   4.530   5.656  0.6017  0.5729 -0.0187
 2585SOL    MW410108   1.280   4.533   5.576  0.5278 -0.0315 -0.0826
 2586SOL     OW10109   3.691   5.481   5.602 -0.2481 -0.1591 -0.2292
 2586SOL    HW210110   3.746   5.403   5.588 -1.1199 -0.6640 -0.9188
 2586SOL    HW310111   3.614   5.466   5.547 -0.1734  1.4623 -0.8346
 2586SOL    MW410112   3.688   5.468   5.593 -0.3532 -0.0118 -0.4000
 2587SOL     OW10113   1.430   2.912   0.733  0.2900  0.3201  0.5834
 2587SOL    HW210114   1.475   2.831   0.757  1.9689  1.0888  0.1359
 2587SOL    HW310115   1.400   2.897   0.644  1.3996  0.4977  0.1638
 2587SOL    MW410116   1.432   2.899   0.725  0.6579  0.4449  0.4690
 2588SOL     OW10117   4.663   5.371   1.119 -0.3226  0.0928  0.1433
 2588SOL    HW210118   4.711   5.446   1.085  0.2457 -1.0696 -1.7539
 2588SOL    HW310119   4.721   5.334   1.186  0.2809  0.2270 -0.2935
 2588SOL    MW410120   4.677   5.376   1.124 -0.1680 -0.0429 -0.1647
 2589SOL     OW10121   4.063   4.296   4.596 -0.5861 -0.2051 -0.0749
 2589SOL    HW210122   3.979   4.337   4.614 -0.0790  0.4374  0.9234
 2589SOL    HW310123   4.061   4.213   4.644  0.2523  0.9073  1.9909
 2589SOL    MW410124   4.052   4.290   4.604 -0.4086  0.0264  0.3294
 2590SOL     OW10125   6.333   5.572   3.787 -0.1013 -0.0927  0.0369
 2590SOL    HW210126   6.334   5.510   3.861  0.3578  0.1081  0.1995
 2590SOL    HW310127   6.348   5.657   3.827 -0.1472  0.0535 -0.2575
 2590SOL    MW410128   6.335   5.575   3.802 -0.0468 -0.0470  0.0195
 2591SOL     OW10129   2.287   3.008   1.380 -0.2198 -0.1256 -0.0338
 2591SOL    HW210130   2.230   2.995   1.304  0.4351 -0.9840 -0.3859
 2591SOL    HW310131   2.233   2.984   1.455 -0.2998 -1.0243 -0.3721
 2591SOL    MW410132   2.272   3.003   1.380 -0.1439 -0.3574 -0.1249
 2592SOL     OW10133   6.372   3.172   1.370 -0.2278  0.2424 -0.8357
 2592SOL    HW210134   6.316   3.095   1.359 -2.3776  1.7826 -1.3728
 2592SOL    HW310135   6.320   3.233   1.422  0.1233  2.4910 -2.9281
 2592SOL    MW410136   6.358   3.170   1.375 -0.4651  0.7423 -1.1826
 2593SOL     OW10137   0.486   5.960   1.718  0.4432 -0.6588 -0.0384
 2593SOL    HW210138   0.410   6.019   1.720  0.6868 -0.0167 -3.3450
 2593SOL    HW310139   0.545   5.993   1.786 -0.3932  1.5396 -0.3149
 2593SOL    MW410140   0.484   5.972   1.727  0.3650 -0.2841 -0.5111
 2594SOL     OW10141   4.241   1.445   1.818  0.1446 -0.9344  0.0346
 2594SOL    HW210142   4.236   1.525   1.870  2.2269 -2.1165  2.2055
 2594SOL    HW310143   4.151   1.411   1.818 -0.2608  0.0693  1.2592
 2594SOL    MW410144   4.228   1.451   1.825  0.3658 -0.9579  0.4826
 2595SOL     OW10145   2.952   2.382   4.463 -0.5119 -0.3215 -0.0577
 2595SOL    HW210146   2.865   2.359   4.432 -0.9672 -0.7534  1.4493
 2595SOL    HW310147   2.994   2.425   4.388 -0.8560 -2.9340 -1.8826
 2595SOL    MW410148   2.946   2.385   4.449 -0.6174 -0.7232 -0.0997
 2596SOL     OW10149   3.189   0.821   6.115 -0.3080  0.2543 -0.0081
 2596SOL    HW210150   3.197   0.914   6.092 -0.3820 -0.1662 -1.9430
 2596SOL    HW310151   3.099   0.813   6.148 -0.5935  0.7521 -0.6135
 2596SOL    MW410152   3.178   0.832   6.116 -0.3554  0.2645 -0.3433
 2597SOL     OW10153   5.528   2.076   1.930 -0.0764 -0.6049 -0.0782
 2597SOL    HW210154   5.520   2.021   2.008  1.5772 -0.0243  0.5466
 2597SOL    HW310155   5.547   2.163   1.964 -2.4903  0.4015 -1.0566
 2597SOL    MW410156   5.529   2.080   1.945 -0.1767 -0.3955 -0.1249
 2598SOL     OW10157   2.805   2.870   1.155 -0.1195  0.5003 -0.3593
 2598SOL    HW210158   2.840   2.828   1.234 -2.8806 -1.3183  0.0330
 2598SOL    HW310159   2.847   2.823   1.083 -0.6045 -0.6233  0.0705
 2598SOL    MW410160   2.815   2.858   1.156 -0.5478  0.1121 -0.2509
 2599SOL     OW10161   6.248   1.093   1.662 -0.2351 -0.3316 -0.2804
 2599SOL    HW210162   6.340   1.087   1.636 -0.1008  1.4848 -0.3562
 2599SOL    HW310163   6.225   1.185   1.647 -1.8406 -0.5787  0.4822
 2599SOL    MW410164   6.257   1.104   1.657 -0.4292 -0.1246 -0.1898
 2600SOL     OW10165   4.599   3.755   4.962  0.0015  0.1301  0.2961
 2600SOL    HW210166   4.532   3.807   5.005  0.8490  0.8952  0.7263
 2600SOL    HW310167   4.635   3.699   5.031  0.3505  0.3032  0.2603
 2600SOL    MW410168   4.595   3.755   4.977  0.1593  0.2539  0.3481
 2601SOL     OW10169   2.348   5.731   1.540  0.5448  0.4857 -0.7403
 2601SOL    HW210170   2.322   5.682   1.618 -0.8190  2.3077  0.0123
 2601SOL    HW310171   2.364   5.664   1.474  0.4177 -1.0384  0.7078
 2601SOL    MW410172   2.347   5.716   1.542  0.3481  0.5250 -0.4499
 2602SOL     OW10173   5.943   0.657   6.339  0.3520 -0.3041  0.0292
 2602SOL    HW210174   5.871   0.717   6.355  1.1456  0.4276  0.9934
 2602SOL    HW310175   5.909   0.595   6.275 -0.9776  0.2819  0.1384
 2602SOL    MW410176   5.929   0.656   6.333  0.2813 -0.1302  0.1708
 2603SOL     OW10177   1.925   3.166   1.198  0.1799  0.4632 -0.1632
 2603SOL    HW210178   1.957   3.148   1.287 -1.1761  0.0496  0.2550
 2603SOL    HW310179   1.963   3.097   1.145  1.4253  1.0064 -0.0252
 2603SOL    MW410180   1.935   3.155   1.203  0.1653  0.4803 -0.0898
 2604SOL     OW10181   4.527   3.105   5.939 -0.0071  0.1313  0.1386
 2604SOL    HW210182   4.591   3.052   5.891 -1.0786  0.3056 -1.5762
 2604SOL    HW310183   4.515   3.059   6.022  1.2475 -0.6955 -0.1091
 2604SOL    MW410184   4.534   3.092   5.943  0.0171  0.0452 -0.1204
 2605SOL     OW10185   5.746   5.526   2.171 -0.2346 -0.1610 -0.2229
 2605SOL    HW210186   5.661   5.567   2.156  0.4368  1.3919  0.0552
 2605SOL    HW310187   5.748   5.509   2.265  0.3821  1.3214  0.0607
 2605SOL    MW410188   5.735   5.529   2.182 -0.0646  0.2395 -0.1488
 2606SOL     OW10189   5.038   4.980   4.949  0.1948 -0.2841 -0.2815
 2606SOL    HW210190   5.109   4.920   4.928 -0.2397 -1.1714  0.6626
 2606SOL    HW310191   5.031   4.976   5.045 -0.9119  0.0143 -0.3341
 2606SOL    MW410192   5.046   4.971   4.959 -0.0085 -0.3618 -0.1639
 2607SOL     OW10193   5.558   0.576   4.971 -0.1053  0.5585  0.3445
 2607SOL    HW210194   5.598   0.565   4.884  0.9511  1.1287  0.7417
 2607SOL    HW310195   5.502   0.653   4.961  1.9984  2.2520  0.7945
 2607SOL    MW410196   5.556   0.585   4.958  0.3116  0.8572  0.4563
 2608SOL     OW10197   5.484   3.976   6.158 -0.4213 -0.1164  0.3237
 2608SOL    HW210198   5.505   4.068   6.148  0.8142 -0.4790 -0.7608
 2608SOL    HW310199   5.410   3.974   6.219  0.1590  1.5071  1.1320
 2608SOL    MW410200   5.477   3.988   6.165 -0.1817  0.0500  0.2873
 2609SOL     OW10201   2.795   0.047   3.906 -0.1468 -0.1428 -0.0026
 2609SOL    HW210202   2.795   0.065   4.000 -0.5134  0.3764 -0.0967
 2609SOL    HW310203   2.751   0.123   3.868  0.7796  0.0630 -0.6699
 2609SOL    MW410204   2.789   0.060   3.914 -0.0730 -0.0471 -0.1031
 2610SOL     OW10205   6.171   2.693   0.547  0.8945 -0.6770 -0.2448
 2610SOL    HW210206   6.076   2.683   0.544  0.8245  0.0325 -0.5367
 2610SOL    HW310207   6.204   2.603   0.553  0.1876 -0.8909  0.6456
 2610SOL    MW410208   6.163   2.680   0.547  0.7920 -0.6116 -0.1658
 2611SOL     OW10209   5.417   1.795   3.563  0.5838 -0.3649  0.4460
 2611SOL    HW210210   5.382   1.782   3.475  1.7270 -1.2996  0.0934
 2611SOL    HW310211   5.344   1.832   3.613  0.0730  0.7104 -1.0131
 2611SOL    MW410212   5.403   1.798   3.558  0.6672 -0.3463  0.2070
 2612SOL     OW10213   0.721   1.455   2.209 -0.0391 -0.4768  0.3689
 2612SOL    HW210214   0.733   1.470   2.115  1.8254  1.3738  0.8234
 2612SOL    HW310215   0.803   1.414   2.237 -0.6435 -1.1566  1.1748
 2612SOL    MW410216   0.734   1.452   2.200  0.1272 -0.3223  0.5352
 2613SOL     OW10217   1.613   5.112   0.979 -0.0506  0.0970  0.0870
 2613SOL    HW210218   1.525   5.143   0.960  0.3570  1.0587 -0.2934
 2613SOL    HW310219   1.638   5.062   0.902  0.3718  1.2605 -0.5461
 2613SOL    MW410220   1.605   5.110   0.966  0.0589  0.3774 -0.0467
 2614SOL     OW10221   0.293   4.973   3.884 -0.3198  0.9242  1.1026
 2614SOL    HW210222   0.289   4.978   3.788 -2.1994 -0.1786  1.0710
 2614SOL    HW310223   0.320   5.060   3.911  0.7096  1.1368 -0.4307
 2614SOL    MW410224   0.296   4.985   3.875 -0.4320  0.8067  0.8961
 2615SOL     OW10225   0.322   2.277   6.049  0.2982  0.3888 -0.0298
 2615SOL    HW210226   0.323   2.266   6.144 -4.0107 -0.8010  0.0822
 2615SOL    HW310227   0.261   2.349   6.033  0.9359  0.5780 -1.9353
 2615SOL    MW410228   0.314   2.285   6.059 -0.1862  0.2568 -0.2664
 2616SOL     OW10229   2.934   2.517   5.118 -0.0130 -0.1124  0.2378
 2616SOL    HW210230   2.868   2.561   5.064 -0.2607 -0.5656  0.1688
 2616SOL    HW310231   2.891   2.438   5.149 -0.0774  0.4477  1.6229
 2616SOL    MW410232   2.920   2.513   5.115 -0.0542 -0.0983  0.4114
 2617SOL     OW10233   5.063   3.358   3.289  0.3973  0.3201 -0.5360
 2617SOL    HW210234   4.979   3.323   3.319  1.2538 -1.3465  0.0665
 2617SOL    HW310235   5.112   3.373   3.370 -0.1496  3.7704 -0.6793
 2617SOL    MW410236   5.059   3.355   3.304  0.4382  0.5555 -0.4754
 2618SOL     OW10237   4.696   0.900   5.143  1.1447  0.3318  0.3904
 2618SOL    HW210238   4.694   0.994   5.158 -0.2931 -0.0739  3.2709
 2618SOL    HW310239   4.607   0.877   5.119  1.8544 -0.1427 -2.1454
 2618SOL    MW410240   4.684   0.910   5.142  1.0486  0.2157  0.4358
 2619SOL     OW10241   3.904   0.148   0.932 -0.3127  0.2189 -0.3535
 2619SOL    HW210242   3.969   0.169   1.000 -0.8887  1.6459 -0.1958
 2619SOL    HW310243   3.820   0.156   0.977 -0.6303 -1.3691 -0.6163
 2619SOL    MW410244   3.902   0.152   0.947 -0.4306  0.1976 -0.3674
 2620SOL     OW10245   1.279   0.941   0.552 -0.1410 -0.4064  0.2240
 2620SOL    HW210246   1.263   0.869   0.490  1.2405 -0.7304  0.2141
 2620SOL    HW310247   1.240   0.910   0.635 -0.1887 -0.8537  0.0370
 2620SOL    MW410248   1.272   0.927   0.555  0.0350 -0.5082  0.1980
 2621SOL     OW10249   4.314   4.946   2.084  0.1607 -0.6612  0.3560
 2621SOL    HW210250   4.233   4.996   2.073 -0.0422 -1.1787 -0.7048
 2621SOL    HW310251   4.291   4.873   2.141 -0.6359 -1.8562 -1.4181
 2621SOL    MW410252   4.300   4.943   2.090  0.0288 -0.8871 -0.0180
 2622SOL     OW10253   1.985   4.642   1.968  1.0812 -0.2644  0.3436
 2622SOL    HW210254   2.047   4.670   2.036  0.8323 -1.0945  0.9314
 2622SOL    HW310255   1.922   4.714   1.962  2.6887  1.1135 -1.0693
 2622SOL    MW410256   1.985   4.655   1.976  1.2604 -0.1922  0.2348
 2623SOL     OW10257   4.179   1.032   0.440  0.3358  0.0534  0.3905
 2623SOL    HW210258   4.151   0.944   0.414  0.2907  0.1823 -0.0192
 2623SOL    HW310259   4.104   1.088   0.420  0.4501  0.2190  0.4159
 2623SOL    MW410260   4.166   1.028   0.434  0.3449  0.0922  0.3398
 2624SOL     OW10261   4.967   2.561   3.596  0.3308  0.0791  0.3868
 2624SOL    HW210262   4.898   2.592   3.537  1.5628  1.4468 -0.4034
 2624SOL    HW310263   4.988   2.638   3.650  0.2028 -0.7588  1.6823
 2624SOL    MW410264   4.960   2.576   3.595  0.4765  0.1490  0.4535
 2625SOL     OW10265   5.859   0.147   3.785  0.7267  0.0263  0.6394
 2625SOL    HW210266   5.819   0.060   3.791  1.3530 -0.3711 -0.6617
 2625SOL    HW310267   5.785   0.206   3.768  0.2511 -0.1734  1.8910
 2625SOL    MW410268   5.844   0.143   3.784  0.7466 -0.0525  0.6329
 2626SOL     OW10269   1.186   2.055   4.457 -0.4587 -0.1373  0.1116
 2626SOL    HW210270   1.213   1.992   4.523  0.0061 -1.8211 -1.5792
 2626SOL    HW310271   1.185   2.140   4.502  2.0879 -0.8496  1.6874
 2626SOL    MW410272   1.189   2.058   4.471 -0.0614 -0.4534  0.0964
 2627SOL     OW10273   2.577   3.997   3.149 -0.6622 -0.2012  0.3980
 2627SOL    HW210274   2.590   3.924   3.087 -0.8643 -1.9883  2.3355
 2627SOL    HW310275   2.646   4.060   3.126  0.1212 -1.4132 -0.7775
 2627SOL    MW410276   2.588   3.995   3.138 -0.5855 -0.5969  0.4985
 2628SOL     OW10277   3.678   4.775   5.147 -0.1718  0.5576 -0.5587
 2628SOL    HW210278   3.592   4.773   5.104 -1.8028  2.1260  2.3687
 2628SOL    HW310279   3.674   4.706   5.213  0.2715  1.5033  0.4900
 2628SOL    MW410280   3.666   4.765   5.150 -0.3285  0.8893 -0.0341
 2629SOL     OW10281   1.726   4.589   3.754 -0.4928 -0.6493  0.5876
 2629SOL    HW210282   1.717   4.574   3.659 -3.5134 -0.1422  0.6863
 2629SOL    HW310283   1.765   4.508   3.787  0.3299 -0.9588 -1.0301
 2629SOL    MW410284   1.730   4.576   3.745 -0.7828 -0.6232  0.3871
 2630SOL     OW10285   2.628   0.557   3.965 -0.6269  0.0588  0.3716
 2630SOL    HW210286   2.548   0.593   3.926 -1.3013 -0.5326  1.1707
 2630SOL    HW310287   2.610   0.555   4.059  1.4485  2.6425  0.9334
 2630SOL    MW410288   2.615   0.562   3.972 -0.4421  0.3217  0.5512
 2631SOL     OW10289   6.033   6.088   1.421  0.4077 -0.4023  0.6392
 2631SOL    HW210290   6.074   6.008   1.388  2.5635  1.1039 -0.5786
 2631SOL    HW310291   6.021   6.072   1.515  2.2093 -1.6154  0.7192
 2631SOL    MW410292   6.037   6.075   1.429  0.9298 -0.3636  0.4891
 2632SOL     OW10293   5.755   0.481   1.247 -0.5736 -0.0475  0.4203
 2632SOL    HW210294   5.845   0.448   1.240 -0.4128  0.6280 -1.2903
 2632SOL    HW310295   5.743   0.498   1.340 -0.0295 -3.0124  1.1291
 2632SOL    MW410296   5.766   0.479   1.258 -0.4806 -0.3495  0.2882
 2633SOL     OW10297   1.076   2.136   1.103 -0.0093 -0.4651 -0.1302
 2633SOL    HW210298   1.094   2.140   1.009  0.3476  1.3222 -0.0196
 2633SOL    HW310299   1.120   2.056   1.132  2.8138  0.6686 -0.9379
 2633SOL    MW410300   1.085   2.126   1.094  0.4103 -0.0797 -0.2221
 2634SOL     OW10301   0.618   2.352   5.695 -0.2587  0.5900 -0.2911
 2634SOL    HW210302   0.548   2.286   5.694  0.7195 -0.4904  0.3062
 2634SOL    HW310303   0.573   2.434   5.673 -1.7830 -0.0074  0.4268
 2634SOL    MW410304   0.603   2.354   5.692 -0.3307  0.3686 -0.1176
 2635SOL     OW10305   4.754   0.398   0.514  0.3550 -0.6781  0.2841
 2635SOL    HW210306   4.698   0.322   0.529  1.5176 -1.2728  1.8744
 2635SOL    HW310307   4.837   0.375   0.556  1.0131  1.1282  0.0410
 2635SOL    MW410308   4.757   0.385   0.521  0.5952 -0.5182  0.4618
 2636SOL     OW10309   5.718   4.796   0.416  0.0038  0.8787 -0.1525
 2636SOL    HW210310   5.795   4.802   0.360  0.0779  0.8088 -0.0572
 2636SOL    HW310311   5.729   4.714   0.464  0.9873  1.9229  1.5144
 2636SOL    MW410312   5.729   4.786   0.415  0.1434  1.0072  0.0800
 2637SOL     OW10313   5.911   4.852   1.624 -0.0413 -0.8505  0.1175
 2637SOL    HW210314   5.833   4.836   1.677  1.4677 -1.0099  2.4219
 2637SOL    HW310315   5.949   4.765   1.611  0.0913 -0.7093 -0.4620
 2637SOL    MW410316   5.905   4.839   1.629  0.1753 -0.8529  0.3451
 2638SOL     OW10317   2.146   1.412   0.308  0.6967  0.3253 -0.3579
 2638SOL    HW210318   2.231   1.399   0.265  0.0217  1.4098 -2.1073
 2638SOL    HW310319   2.103   1.327   0.304  1.2015  0.0804 -0.5972
 2638SOL    MW410320   2.152   1.399   0.302  0.6742  0.4361 -0.6203
 2639SOL     OW10321   4.353   2.726   2.632  0.1425  0.4651 -0.3178
 2639SOL    HW210322   4.319   2.789   2.568 -0.2158 -0.9866 -1.5972
 2639SOL    HW310323   4.436   2.764   2.661  0.0711  1.3885 -1.2538
 2639SOL    MW410324   4.359   2.739   2.627  0.0858  0.3954 -0.6101
 2640SOL     OW10325   4.667   6.226   4.564  0.0917  0.0930  0.0001
 2640SOL    HW210326   4.575   6.253   4.560  0.3492  1.1386  0.7844
 2640SOL    HW310327   4.664   6.135   4.593 -0.7645 -0.5299 -1.8979
 2640SOL    MW410328   4.654   6.218   4.567  0.0127  0.1488 -0.1468
 2641SOL     OW10329   3.099   4.516   6.058  0.4682  0.0483 -0.5689
 2641SOL    HW210330   3.063   4.558   6.135  2.7178 -1.2402  1.3165
 2641SOL    HW310331   3.076   4.574   5.985 -1.4528  1.4590  1.0544
 2641SOL    MW410332   3.091   4.529   6.058  0.5116  0.0644 -0.1060
 2642SOL     OW10333   1.622   4.451   3.185 -0.3775  0.1178 -0.2117
 2642SOL    HW210334   1.691   4.513   3.210 -0.4173 -0.8056  2.4780
 2642SOL    HW310335   1.661   4.399   3.115  1.2686  0.3045  0.5233
 2642SOL    MW410336   1.636   4.453   3.179 -0.1656  0.0206  0.2402
 2643SOL     OW10337   6.370   5.678   2.455  0.5319 -0.3931 -0.5336
 2643SOL    HW210338   6.368   5.598   2.403  0.4620  0.2816 -1.6074
 2643SOL    HW310339   6.400   5.745   2.394 -1.6165  0.8571 -0.2966
 2643SOL    MW410340   6.374   5.676   2.440  0.2392 -0.1391 -0.6440
 2644SOL     OW10341   2.201   0.224   3.360 -0.1537 -0.1077  0.0503
 2644SOL    HW210342   2.119   0.188   3.393  0.2179 -0.6239  0.4179
 2644SOL    HW310343   2.261   0.150   3.358  0.8070  0.5844  1.4070
 2644SOL    MW410344   2.198   0.210   3.364  0.0221 -0.0845  0.2778
 2645SOL     OW10345   4.443   5.715   4.979 -0.7455  0.2986  0.0957
 2645SOL    HW210346   4.444   5.810   4.990  0.3505  0.1521  1.5249
 2645SOL    HW310347   4.453   5.680   5.068  1.8808 -1.0876 -0.6236
 2645SOL    MW410348   4.445   5.723   4.992 -0.2544  0.0964  0.1894
 2646SOL     OW10349   1.129   2.315   2.585 -0.3577  0.3512 -0.5046
 2646SOL    HW210350   1.133   2.287   2.494 -0.3994 -0.4641 -0.2654
 2646SOL    HW310351   1.051   2.370   2.590 -0.7020 -0.1023 -0.8363
 2646SOL    MW410352   1.119   2.318   2.574 -0.4086  0.1838 -0.5168
 2647SOL     OW10353   4.438   2.797   3.781 -0.0492 -0.1410  0.0426
 2647SOL    HW210354   4.420   2.881   3.739  1.1576  0.4049  0.5748
 2647SOL    HW310355   4.438   2.817   3.875  0.3274 -0.7129  0.1720
 2647SOL    MW410356   4.435   2.811   3.788  0.1597 -0.1445  0.1299
 2648SOL     OW10357   0.080   1.576   4.525 -0.1459 -0.1919  0.1638
 2648SOL    HW210358   0.075   1.666   4.556 -0.5226 -0.7863  1.9672
 2648SOL    HW310359   0.166   1.569   4.483 -0.3871  1.1565 -0.5998
 2648SOL    MW410360   0.090   1.587   4.524 -0.2274 -0.0924  0.3010
 2649SOL     OW10361   2.149   0.974   0.670 -0.8173  0.2546 -0.5167
 2649SOL    HW210362   2.160   0.943   0.580 -0.3299  0.0348 -0.3899
 2649SOL    HW310363   2.201   1.054   0.673  0.0201 -0.2791 -0.1667
 2649SOL    MW410364   2.158   0.980   0.658 -0.6425  0.1552 -0.4538
 2650SOL     OW10365   2.093   5.302   6.282 -0.4428  0.5611  0.2099
 2650SOL    HW210366   2.043   5.304   6.364 -0.5386 -0.5566  0.2015
 2650SOL    HW310367   2.184   5.305   6.310 -0.4934  2.1930  0.2463
 2650SOL    MW410368   2.098   5.302   6.297 -0.4621  0.6289  0.2136
 2651SOL     OW10369   1.323   5.123   6.119  0.5840  0.6343  1.0273
 2651SOL    HW210370   1.301   5.115   6.026 -0.2275  0.4042  1.2347
 2651SOL    HW310371   1.419   5.128   6.120  0.5793  1.2130  0.1364
 2651SOL    MW410372   1.333   5.123   6.107  0.4763  0.6803  0.9371
 2652SOL     OW10373   6.319   1.489   0.844  1.2272  0.4114 -0.1823
 2652SOL    HW210374   6.361   1.492   0.758  1.8886 -2.0649 -0.0269
 2652SOL    HW310375   6.319   1.580   0.874 -0.7962  1.7314 -3.5613
 2652SOL    MW410376   6.324   1.502   0.837  1.0475  0.2588 -0.6076
 2653SOL     OW10377   4.135   0.723   2.023  0.2169  0.2096 -0.0279
 2653SOL    HW210378   4.176   0.658   1.966 -1.8787 -0.0949 -1.3231
 2653SOL    HW310379   4.088   0.671   2.089 -0.7907  0.4048 -0.5725
 2653SOL    MW410380   4.134   0.707   2.024 -0.1925  0.1952 -0.2707
 2654SOL     OW10381   1.423   0.790   2.732 -0.6085 -0.6647 -0.3539
 2654SOL    HW210382   1.483   0.863   2.743  0.7340 -1.4731 -1.8412
 2654SOL    HW310383   1.393   0.770   2.820  0.9822  0.0660  0.3908
 2654SOL    MW410384   1.427   0.797   2.745 -0.2215 -0.6750 -0.4519
 2655SOL     OW10385   1.521   6.155   5.139 -0.1252  0.4047  0.0123
 2655SOL    HW210386   1.444   6.212   5.135  0.0192  0.7951  1.8880
 2655SOL    HW310387   1.587   6.200   5.085 -1.6085 -0.7250 -2.9409
 2655SOL    MW410388   1.520   6.169   5.131 -0.3019  0.3072 -0.1299
 2656SOL     OW10389   0.532   1.465   4.499 -0.0575 -0.5067 -0.7128
 2656SOL    HW210390   0.516   1.496   4.588  0.4611 -2.0040 -0.0634
 2656SOL    HW310391   0.613   1.510   4.473  1.3751 -2.1178  0.6808
 2656SOL    MW410392   0.541   1.475   4.508  0.2000 -0.9168 -0.4433
 2657SOL     OW10393   4.471   3.507   0.540 -1.0923  0.3439  0.0112
 2657SOL    HW210394   4.414   3.466   0.605  0.8915 -2.3178  0.2309
 2657SOL    HW310395   4.500   3.588   0.582 -3.3685  0.9887  0.5048
 2657SOL    MW410396   4.467   3.512   0.554 -1.1309  0.0778  0.1053
 2658SOL     OW10397   1.915   1.097   0.078 -0.8509  0.0608 -0.2463
 2658SOL    HW210398   1.955   1.090   0.164 -1.3812  0.2645  0.0173
 2658SOL    HW310399   1.974   1.048   0.020 -1.4256 -1.6128  0.5263
 2658SOL    MW410400   1.928   1.090   0.082 -0.9967 -0.1331 -0.1096
 2659SOL     OW10401   0.130   5.814   0.686  0.1468 -0.4006  0.3745
 2659SOL    HW210402   0.132   5.901   0.727  0.5626 -0.5892  0.7556
 2659SOL    HW310403   0.103   5.755   0.756 -1.8273 -0.3681 -0.2940
 2659SOL    MW410404   0.127   5.818   0.700 -0.0588 -0.4212  0.3366
 2660SOL     OW10405   5.910   1.439   2.089  0.7282 -0.0070  0.4525
 2660SOL    HW210406   5.980   1.505   2.089  0.3961  0.3672 -0.9927
 2660SOL    HW310407   5.942   1.371   2.030  1.0188 -1.1488  1.8399
 2660SOL    MW410408   5.924   1.439   2.082  0.7227 -0.1083  0.4449
 2661SOL     OW10409   1.385   5.225   0.091  0.0688 -0.1541  0.1256
 2661SOL    HW210410   1.327   5.209   0.017  0.1385  1.1328 -0.2296
 2661SOL    HW310411   1.473   5.219   0.055  0.0974  1.3544 -0.1284
 2661SOL    MW410412   1.389   5.222   0.077  0.0818  0.2147  0.0452
 2662SOL     OW10413   2.582   2.873   2.859  0.2386  0.3417 -0.3671
 2662SOL    HW210414   2.570   2.967   2.852  1.0007  0.5010  0.3415
 2662SOL    HW310415   2.672   2.858   2.829 -0.4352 -0.3872 -2.1702
 2662SOL    MW410416   2.592   2.883   2.854  0.2503  0.2666 -0.5115
 2663SOL     OW10417   3.096   3.045   0.913 -0.6224  0.4317 -0.5137
 2663SOL    HW210418   3.001   3.049   0.904 -0.5762  1.4250 -0.7172
 2663SOL    HW310419   3.111   3.040   1.007 -0.8942 -0.7688 -0.5253
 2663SOL    MW410420   3.086   3.045   0.924 -0.6522  0.4044 -0.5421
 2664SOL     OW10421   1.007   0.782   5.195  0.1895 -0.0397  0.3698
 2664SOL    HW210422   1.050   0.712   5.244 -0.0721 -0.2742  0.2686
 2664SOL    HW310423   1.035   0.863   5.238  1.2854 -0.1417 -0.1182
 2664SOL    MW410424   1.016   0.783   5.207  0.2996 -0.0841  0.2920
 2665SOL     OW10425   0.760   1.056   4.562 -0.0507  0.4184  0.2443
 2665SOL    HW210426   0.732   1.084   4.649 -0.2726 -2.0290  1.0305
 2665SOL    HW310427   0.720   0.970   4.550  1.6409 -0.2129 -1.4325
 2665SOL    MW410428   0.751   1.048   4.572  0.1432  0.0122  0.1268
 2666SOL     OW10429   0.384   2.613   0.675 -0.1536  0.2705 -0.1360
 2666SOL    HW210430   0.400   2.586   0.765 -0.1682 -0.5452 -0.3694
 2666SOL    HW310431   0.309   2.560   0.647  0.3892 -0.1208 -0.8989
 2666SOL    MW410432   0.376   2.603   0.683 -0.0839  0.1112 -0.2675
 2667SOL     OW10433   0.993   0.472   5.796 -0.3315  0.9233  0.3572
 2667SOL    HW210434   1.036   0.391   5.821  1.5829  1.6026 -0.5964
 2667SOL    HW310435   0.914   0.475   5.851 -0.0062 -1.1239  1.0191
 2667SOL    MW410436   0.988   0.462   5.806 -0.0360  0.7428  0.3187
 2668SOL     OW10437   5.228   3.434   0.608 -0.6342  0.6045  0.2054
 2668SOL    HW210438   5.286   3.508   0.622 -0.2339  0.2554  0.4382
 2668SOL    HW310439   5.179   3.426   0.690  0.7559 -0.6132  0.9684
 2668SOL    MW410440   5.229   3.442   0.621 -0.3979  0.3978  0.3368
 2669SOL     OW10441   4.927   1.320   6.362  0.6548  0.4701 -0.1155
 2669SOL    HW210442   4.917   1.393   6.302  1.9091  1.7378  1.1466
 2669SOL    HW310443   5.021   1.311   6.375  0.4804 -0.7565  0.4906
 2669SOL    MW410444   4.938   1.328   6.356  0.7973  0.4755  0.1310
 2670SOL     OW10445   6.356   3.323   0.838 -0.1581  0.2606 -0.2511
 2670SOL    HW210446   6.387   3.378   0.910 -1.3094  0.6482 -0.0363
 2670SOL    HW310447   6.306   3.254   0.881 -0.4934  0.2558 -0.6467
 2670SOL    MW410448   6.354   3.321   0.854 -0.3542  0.3111 -0.2749
 2671SOL     OW10449   3.983   5.965   1.599  0.2778  0.2924 -0.1993
 2671SOL    HW210450   3.992   6.016   1.679 -2.1700  1.0185 -0.3057
 2671SOL    HW310451   3.942   5.883   1.627 -0.0117  0.2894 -0.6215
 2671SOL    MW410452   3.979   5.961   1.613 -0.0834  0.3878 -0.2690
 2672SOL     OW10453   3.563   4.756   4.869  0.1919 -0.1451 -0.6339
 2672SOL    HW210454   3.654   4.758   4.899  0.1764  1.3625 -0.6035
 2672SOL    HW310455   3.564   4.804   4.786 -0.5489 -0.2561 -0.7170
 2672SOL    MW410456   3.575   4.762   4.862  0.0921  0.0392 -0.6409
 2673SOL     OW10457   3.817   3.870   5.570  0.0530  0.0469  0.4361
 2673SOL    HW210458   3.813   3.777   5.589 -0.4971  0.4337  2.5425
 2673SOL    HW310459   3.764   3.882   5.491 -0.4257 -1.3404  0.5305
 2673SOL    MW410460   3.809   3.860   5.562 -0.0828 -0.0851  0.7264
 2674SOL     OW10461   4.053   6.313   4.464 -0.0610  0.6442 -0.5202
 2674SOL    HW210462   3.964   6.296   4.494  0.3663  0.8685  0.9880
 2674SOL    HW310463   4.084   6.384   4.520  0.5401  1.6670 -2.0947
 2674SOL    MW410464   4.046   6.320   4.475  0.0746  0.8087 -0.5290
 2675SOL     OW10465   1.744   0.082   0.079  0.2224  0.4287  0.1797
 2675SOL    HW210466   1.838   0.071   0.073  0.1470 -2.1254  2.0463
 2675SOL    HW310467   1.731   0.135   0.158  0.1067  3.2174 -1.6048
 2675SOL    MW410468   1.755   0.087   0.089  0.1972  0.4596  0.1905
 2676SOL     OW10469   3.574   1.279   0.381 -0.0932 -0.2923  0.4722
 2676SOL    HW210470   3.650   1.318   0.425  1.6915 -2.2839 -0.6605
 2676SOL    HW310471   3.577   1.313   0.292  0.6361 -1.8546 -0.1182
 2676SOL    MW410472   3.584   1.289   0.375  0.2385 -0.7612  0.2449
 2677SOL     OW10473   0.133   3.650   1.183  0.0032  0.3791  0.0084
 2677SOL    HW210474   0.188   3.670   1.107 -0.3864  0.9580 -0.1364
 2677SOL    HW310475   0.193   3.620   1.250  0.1381 -2.5322 -1.2808
 2677SOL    MW410476   0.148   3.649   1.182 -0.0304  0.0714 -0.1808
 2678SOL     OW10477   3.884   4.303   3.297 -0.7417  0.5298  0.0227
 2678SOL    HW210478   3.929   4.386   3.311 -0.0137  0.1437  0.0303
 2678SOL    HW310479   3.803   4.326   3.253  0.6953  1.0284 -2.5847
 2678SOL    MW410480   3.880   4.317   3.293 -0.4561  0.5446 -0.3203
 2679SOL     OW10481   1.813   2.916   2.269  0.4720 -0.5152 -0.1579
 2679SOL    HW210482   1.845   2.917   2.179  0.0426 -0.7821 -0.3169
 2679SOL    HW310483   1.835   2.829   2.302 -3.0147 -2.0599 -1.3705
 2679SOL    MW410484   1.820   2.905   2.262 -0.0447 -0.7542 -0.3389
 2680SOL     OW10485   3.860   3.852   4.444 -0.3223  0.2127  0.0776
 2680SOL    HW210486   3.831   3.923   4.386 -0.9194 -0.2344 -0.1797
 2680SOL    HW310487   3.950   3.834   4.416 -0.5947  0.0248 -0.6851
 2680SOL    MW410488   3.868   3.859   4.433 -0.4370  0.1289 -0.0570
 2681SOL     OW10489   4.935   5.719   5.449 -0.0623 -0.6034 -0.2356
 2681SOL    HW210490   4.899   5.777   5.382 -0.3062 -0.0003  0.3949
 2681SOL    HW310491   4.928   5.631   5.413  0.3914 -0.2328 -1.2520
 2681SOL    MW410492   4.929   5.715   5.436 -0.0346 -0.4750 -0.2865
 2682SOL     OW10493   4.767   2.413   0.520  0.1983 -0.2577  1.1009
 2682SOL    HW210494   4.764   2.494   0.470  0.3702 -0.3753  0.8968
 2682SOL    HW310495   4.708   2.354   0.474  2.4157 -1.2785 -0.6185
 2682SOL    MW410496   4.759   2.416   0.507  0.5135 -0.4079  0.8471
 2683SOL     OW10497   6.065   3.955   1.351 -0.4067 -0.3675  0.4026
 2683SOL    HW210498   6.014   3.927   1.427 -1.5717  0.1246 -0.1858
 2683SOL    HW310499   6.108   4.035   1.380 -0.5143 -0.4036  0.6674
 2683SOL    MW410500   6.064   3.962   1.365 -0.5746 -0.3073  0.3599
 2684SOL     OW10501   0.559   4.342   5.661  0.3954  0.2358  0.3055
 2684SOL    HW210502   0.495   4.351   5.731 -0.3846  1.5490 -0.5237
 2684SOL    HW310503   0.522   4.274   5.604 -0.4830  1.2197 -0.3471
 2684SOL    MW410504   0.546   4.334   5.662  0.1766  0.5388  0.1100
 2685SOL     OW10505   0.673   3.915   2.862 -0.2466 -0.0235  0.3988
 2685SOL    HW210506   0.669   4.003   2.826 -2.3640  0.3092  1.3304
 2685SOL    HW310507   0.595   3.871   2.829 -0.5178 -0.7514  1.8933
 2685SOL    MW410508   0.663   3.921   2.853 -0.5618 -0.0757  0.7189
 2686SOL     OW10509   1.554   1.328   1.424 -0.2695 -0.1837 -0.0201
 2686SOL    HW210510   1.606   1.363   1.497 -1.0289 -1.0092  0.9627
 2686SOL    HW310511   1.534   1.404   1.370  0.6373  0.3928  0.4219
 2686SOL    MW410512   1.558   1.342   1.427 -0.2500 -0.2165  0.1679
 2687SOL     OW10513   5.413   4.726   5.818  0.3589 -0.2656 -0.3118
 2687SOL    HW210514   5.443   4.691   5.734  0.2618  0.2703 -0.5762
 2687SOL    HW310515   5.324   4.757   5.801 -0.6910 -2.5216  0.6485
 2687SOL    MW410516   5.405   4.726   5.805  0.2076 -0.4926 -0.2200
 2688SOL     OW10517   0.172   0.170   2.243  0.1519  0.4689 -0.2906
 2688SOL    HW210518   0.109   0.196   2.311  0.8883 -0.7718  0.9209
 2688SOL    HW310519   0.172   0.074   2.246 -2.1493  0.1221 -4.2684
 2688SOL    MW410520   0.163   0.161   2.253 -0.0546  0.2595 -0.6556
 2689SOL     OW10521   2.720   4.971   6.018 -0.1277 -0.3098  0.1859
 2689SOL    HW210522   2.807   5.003   5.993 -0.0987 -0.5728 -0.0569
 2689SOL    HW310523   2.720   4.879   5.993 -1.1349  0.1260 -1.5712
 2689SOL    MW410524   2.732   4.963   6.011 -0.2567 -0.2870 -0.0780
 2690SOL     OW10525   2.698   0.270   3.774  0.0657 -0.2098  0.0021
 2690SOL    HW210526   2.725   0.355   3.739  0.1719 -0.4296 -0.4568
 2690SOL    HW310527   2.609   0.284   3.805  0.7168  0.5432  1.6097
 2690SOL    MW410528   2.690   0.283   3.773  0.1656 -0.1394  0.1537
 2691SOL     OW10529   4.591   3.226   3.633 -0.3633  0.5019  0.0881
 2691SOL    HW210530   4.538   3.304   3.622  0.2459  0.8257 -0.6478
 2691SOL    HW310531   4.625   3.207   3.546  1.6665  1.0033  0.7177
 2691SOL    MW410532   4.589   3.234   3.620 -0.0151  0.6108  0.0741
 2692SOL     OW10533   1.598   0.354   4.788  0.2690 -0.8704  0.2369
 2692SOL    HW210534   1.617   0.293   4.718  2.4274 -1.2610  1.0722
 2692SOL    HW310535   1.668   0.340   4.852  1.3727  2.9345  0.1389
 2692SOL    MW410536   1.610   0.344   4.787  0.6994 -0.4199  0.3342
 2693SOL     OW10537   2.283   6.331   0.563 -0.1596  0.5829  0.1620
 2693SOL    HW210538   2.317   6.264   0.503 -0.2995  0.0925  0.6201
 2693SOL    HW310539   2.242   6.395   0.505  2.0284  1.5156 -0.4513
 2693SOL    MW410540   2.282   6.330   0.547  0.1107  0.6413  0.1415
 2694SOL     OW10541   2.323   4.224   2.775  0.1594  0.0822  0.0062
 2694SOL    HW210542   2.296   4.314   2.794 -1.1905 -0.2027 -0.4308
 2694SOL    HW310543   2.332   4.183   2.862 -1.3885  0.0572  0.1854
 2694SOL    MW410544   2.321   4.230   2.789 -0.2230  0.0413 -0.0278
 2695SOL     OW10545   0.643   0.798   2.604  0.8396  0.2358  0.0780
 2695SOL    HW210546   0.619   0.710   2.575  1.6347  0.0917 -0.1542
 2695SOL    HW310547   0.701   0.784   2.679 -0.7360  0.6004  1.4266
 2695SOL    MW410548   0.647   0.784   2.610  0.7366  0.2649  0.2253
 2696SOL     OW10549   3.050   0.851   1.651 -0.2996  0.2891  0.3819
 2696SOL    HW210550   3.029   0.911   1.722 -0.2425  0.0997  0.5597
 2696SOL    HW310551   3.059   0.766   1.693  0.1732  0.2517  0.2139
 2696SOL    MW410552   3.048   0.848   1.666 -0.2297  0.2592  0.3832
 2697SOL     OW10553   4.248   0.856   6.388  0.4953  0.3852  0.2014
 2697SOL    HW210554   4.211   0.931   6.435 -3.1503 -0.5103 -0.9344
 2697SOL    HW310555   4.249   0.884   6.297 -0.5968 -0.7776 -0.1918
 2697SOL    MW410556   4.244   0.870   6.382 -0.1297  0.1137 -0.0003
 2698SOL     OW10557   6.333   6.127   3.485  0.1482 -0.2421  0.2072
 2698SOL    HW210558   6.385   6.171   3.552 -1.7112 -0.1811  1.6718
 2698SOL    HW310559   6.329   6.036   3.513 -1.2982 -0.0680  0.6750
 2698SOL    MW410560   6.339   6.121   3.497 -0.2880 -0.2111  0.4622
 2699SOL     OW10561   5.005   3.167   5.467 -0.5219  0.1804  0.0932
 2699SOL    HW210562   5.079   3.195   5.521 -0.2530  1.0488 -0.6969
 2699SOL    HW310563   5.042   3.107   5.403 -1.2246 -2.8272  2.2769
 2699SOL    MW410564   5.019   3.163   5.466 -0.5792 -0.1018  0.2771
 2700SOL     OW10565   0.942   4.654   5.108 -0.2880 -0.6402  0.2789
 2700SOL    HW210566   0.850   4.633   5.092  0.0048 -2.0483  0.3709
 2700SOL    HW310567   0.988   4.571   5.100  0.8723 -0.1065  1.0893
 2700SOL    MW410568   0.936   4.640   5.105 -0.0963 -0.7556  0.3980
 2701SOL     OW10569   5.037   3.580   2.205 -0.1567  0.0429 -0.2829
 2701SOL    HW210570   5.070   3.506   2.155 -0.8758 -0.9772  0.6879
 2701SOL    HW310571   5.010   3.542   2.289  1.6462  1.7837  1.1952
 2701SOL    MW410572   5.037   3.565   2.210 -0.0137  0.1380  0.0402
 2702SOL     OW10573   1.423   4.920   1.238 -0.2320 -0.1430  0.0506
 2702SOL    HW210574   1.426   5.002   1.287 -0.2615 -1.0415  1.6234
 2702SOL    HW310575   1.504   4.875   1.262 -1.3658 -1.6520  1.2057
 2702SOL    MW410576   1.434   4.925   1.248 -0.3855 -0.4607  0.4105
 2703SOL     OW10577   5.327   6.088   6.223  0.1339 -0.2455  0.6969
 2703SOL    HW210578   5.418   6.066   6.240 -0.0696  0.8554  3.7341
 2703SOL    HW310579   5.321   6.094   6.127  2.6464 -2.5481  0.2773
 2703SOL    MW410580   5.338   6.085   6.212  0.4386 -0.4040  1.0423
 2704SOL     OW10581   1.276   4.026   3.890 -0.3185 -0.2670 -0.2945
 2704SOL    HW210582   1.223   4.000   3.814 -0.9390 -0.1816  0.1049
 2704SOL    HW310583   1.213   4.041   3.960  0.1401  0.8969 -0.1054
 2704SOL    MW410584   1.261   4.024   3.889 -0.3398 -0.1022 -0.2168
 2705SOL     OW10585   3.007   0.165   5.900  0.4831  0.8016  0.8234
 2705SOL    HW210586   3.085   0.135   5.855 -0.9149 -0.2811 -1.0192
 2705SOL    HW310587   3.014   0.261   5.900 -0.0614  0.9848 -3.0345
 2705SOL    MW410588   3.018   0.174   5.894  0.2268  0.6829  0.0713
 2706SOL     OW10589   1.601   0.731   2.512 -0.5268 -0.0888  0.6094
 2706SOL    HW210590   1.561   0.652   2.476  0.1871 -0.5953  0.9048
 2706SOL    HW310591   1.548   0.751   2.590 -0.6037 -0.3776  0.6340
 2706SOL    MW410592   1.589   0.723   2.518 -0.4428 -0.1938  0.6517
 2707SOL     OW10593   2.683   5.790   1.299 -0.1736  0.0392 -0.9457
 2707SOL    HW210594   2.640   5.870   1.268  2.1415  1.2054 -1.3755
 2707SOL    HW310595   2.674   5.728   1.226  0.7705  1.0353 -1.9534
 2707SOL    MW410596   2.676   5.792   1.285  0.2564  0.3245 -1.1354
 2708SOL     OW10597   5.080   0.902   2.575 -0.1882 -0.0258  0.0716
 2708SOL    HW210598   5.105   0.925   2.664 -1.8874 -0.0389  0.5897
 2708SOL    HW310599   5.009   0.838   2.585 -0.6892  0.2801 -1.2620
 2708SOL    MW410600   5.074   0.897   2.588 -0.4785  0.0129 -0.0360
 2709SOL     OW10601   1.403   5.422   1.115 -0.0079  0.3362  0.7842
 2709SOL    HW210602   1.334   5.423   1.182 -0.1499 -0.9008  0.6782
 2709SOL    HW310603   1.466   5.487   1.145  0.2069 -0.5637  2.4164
 2709SOL    MW410604   1.402   5.431   1.128  0.0017  0.0543  0.9856
 2710SOL     OW10605   1.185   4.790   1.853 -0.7170  0.2522  0.1041
 2710SOL    HW210606   1.192   4.883   1.831  0.5462 -0.2537 -1.9289
 2710SOL    HW310607   1.114   4.758   1.798 -0.0173 -0.3039 -0.4967
 2710SOL    MW410608   1.177   4.798   1.843 -0.4580  0.1120 -0.2434
 2711SOL     OW10609   1.301   3.439   2.710  0.2271  0.8259 -0.0475
 2711SOL    HW210610   1.234   3.494   2.749 -0.4083  0.2951 -0.3733
 2711SOL    HW310611   1.302   3.462   2.617 -1.1528 -0.7659 -0.5145
 2711SOL    MW410612   1.292   3.449   2.703 -0.0388  0.5458 -0.1521
 2712SOL     OW10613   6.013   2.976   6.335 -0.0899  0.5785 -0.1840
 2712SOL    HW210614   5.928   2.974   6.292 -0.2526  0.8884  0.1220
 2712SOL    HW310615   5.993   2.967   6.428  0.2956 -0.7381 -0.2014
 2712SOL    MW410616   5.999   2.975   6.341 -0.0605  0.4457 -0.1459
 2713SOL     OW10617   3.798   1.053   5.198  0.5940  0.2088 -0.2952
 2713SOL    HW210618   3.847   1.114   5.143  0.3432  0.4023 -0.3046
 2713SOL    HW310619   3.777   0.980   5.140 -1.1413  1.1661 -0.9459
 2713SOL    MW410620   3.802   1.051   5.183  0.3320  0.3607 -0.3823
 2714SOL     OW10621   2.941   4.966   2.892 -0.1311  0.0052  0.1076
 2714SOL    HW210622   3.033   4.937   2.888  0.4298  1.5964  0.9353
 2714SOL    HW310623   2.892   4.889   2.863  1.3015 -1.6976  1.8747
 2714SOL    MW410624   2.947   4.952   2.887  0.1319 -0.0095  0.4500
 2715SOL     OW10625   4.215   3.308   2.001 -0.4422  0.0041 -0.0925
 2715SOL    HW210626   4.185   3.338   1.916 -0.2423  0.7777  0.1010
 2715SOL    HW310627   4.168   3.226   2.016  0.3274 -0.6928 -1.4032
 2715SOL    MW410628   4.205   3.301   1.992 -0.3143  0.0142 -0.2399
 2716SOL     OW10629   5.979   3.625   1.255 -0.3054  0.3046  0.0949
 2716SOL    HW210630   6.029   3.694   1.212  0.7203  0.1614  1.0190
 2716SOL    HW310631   6.007   3.629   1.347  1.3909 -2.7297 -0.1793
 2716SOL    MW410632   5.989   3.635   1.262  0.0537 -0.1146  0.1807
 2717SOL     OW10633   6.259   2.607   4.328 -0.5102  0.1731  0.3578
 2717SOL    HW210634   6.178   2.591   4.376 -1.0885  0.8986 -0.3379
 2717SOL    HW310635   6.234   2.600   4.236  0.3460 -0.1647  0.1380
 2717SOL    MW410636   6.245   2.604   4.322 -0.4735  0.2243  0.2370
 2718SOL     OW10637   3.151   0.522   4.708 -0.5902 -0.9896 -0.4689
 2718SOL    HW210638   3.067   0.554   4.676 -0.6193 -1.4797 -0.9100
 2718SOL    HW310639   3.198   0.600   4.737 -0.4575 -0.4728 -1.9691
 2718SOL    MW410640   3.146   0.536   4.707 -0.5765 -0.9860 -0.7250
 2719SOL     OW10641   6.345   2.713   6.298  0.0213 -0.1588 -0.2557
 2719SOL    HW210642   6.408   2.676   6.236  1.6410  0.9006  0.6701
 2719SOL    HW310643   6.339   2.648   6.368 -0.2945 -0.4815 -0.5804
 2719SOL    MW410644   6.353   2.700   6.299  0.1933 -0.0616 -0.1764
 2720SOL     OW10645   0.007   1.665   5.837  0.0580 -0.3442  0.3375
 2720SOL    HW210646  -0.073   1.616   5.821  0.7374 -1.3645 -0.0847
 2720SOL    HW310647   0.047   1.621   5.912 -0.2130  0.7306  1.1328
 2720SOL    MW410648   0.002   1.653   5.845  0.1119 -0.3370  0.3867
 2721SOL     OW10649   6.039   5.544   3.778  0.1820 -0.1759  0.1017
 2721SOL    HW210650   6.035   5.449   3.778  0.9512 -0.2652 -1.7191
 2721SOL    HW310651   6.131   5.564   3.796  0.0625  0.2109  0.2837
 2721SOL    MW410652   6.051   5.534   3.780  0.2677 -0.1367 -0.1145
 2722SOL     OW10653   4.474   3.173   0.838  0.1516 -0.3177  0.5379
 2722SOL    HW210654   4.455   3.084   0.869  1.0912 -0.1692  1.5831
 2722SOL    HW310655   4.551   3.163   0.782 -0.5646 -0.3431 -0.4709
 2722SOL    MW410656   4.481   3.160   0.835  0.1811 -0.3015  0.5427
 2723SOL     OW10657   4.082   6.123   5.360 -0.5227 -0.2561  0.2591
 2723SOL    HW210658   4.037   6.207   5.360 -0.4780 -0.2154  1.7475
 2723SOL    HW310659   4.025   6.065   5.410  1.1088 -0.1509  2.3830
 2723SOL    MW410660   4.069   6.126   5.366 -0.3015 -0.2368  0.7357
 2724SOL     OW10661   4.988   2.220   0.096  0.8606 -0.0441  0.1683
 2724SOL    HW210662   4.998   2.312   0.119  0.8921 -0.4825  2.0207
 2724SOL    HW310663   5.076   2.183   0.104  0.8029 -0.2956 -0.3179
 2724SOL    MW410664   5.001   2.227   0.100  0.8571 -0.1351  0.3485
 2725SOL     OW10665   1.633   1.669   2.792 -0.3121 -0.0002  0.1122
 2725SOL    HW210666   1.577   1.712   2.727 -1.6272  0.2635  1.3608
 2725SOL    HW310667   1.712   1.723   2.796 -0.5887  0.4768 -0.6094
 2725SOL    MW410668   1.636   1.682   2.784 -0.5221  0.0975  0.1817
 2726SOL     OW10669   1.394   0.558   4.675  0.2335  0.4516  0.7874
 2726SOL    HW210670   1.473   0.555   4.621 -0.6632 -0.8588 -0.5355
 2726SOL    HW310671   1.374   0.651   4.683  0.5850  0.7029 -0.8924
 2726SOL    MW410672   1.402   0.570   4.669  0.1616  0.3119  0.3912
 2727SOL     OW10673   2.761   2.309   5.226 -0.2327  0.4030 -0.1415
 2727SOL    HW210674   2.732   2.339   5.312  0.1817 -0.5079  0.3265
 2727SOL    HW310675   2.821   2.237   5.244  0.1789  0.4675 -1.1857
 2727SOL    MW410676   2.765   2.303   5.239 -0.1237  0.2913 -0.2176
 2728SOL     OW10677   1.462   0.885   1.252 -0.5338  0.2333 -0.2760
 2728SOL    HW210678   1.534   0.830   1.283  0.6379  0.4263 -2.4920
 2728SOL    HW310679   1.395   0.823   1.224  0.5392 -0.1418 -2.1873
 2728SOL    MW410680   1.462   0.870   1.253 -0.2377  0.2093 -0.8206
 2729SOL     OW10681   4.830   4.322   2.226 -0.2846 -0.5556 -0.0909
 2729SOL    HW210682   4.737   4.309   2.212 -0.4339 -0.1459  0.4801
 2729SOL    HW310683   4.858   4.379   2.154 -0.4280 -0.8441 -0.3769
 2729SOL    MW410684   4.822   4.328   2.214 -0.3232 -0.5396 -0.0533
 2730SOL     OW10685   1.999   6.223   0.374  0.2762 -0.0935 -0.2938
 2730SOL    HW210686   2.020   6.133   0.400  2.7605  0.6777  0.6827
 2730SOL    HW310687   1.908   6.235   0.403  0.3557 -1.8300  0.8949
 2730SOL    MW410688   1.989   6.213   0.382  0.6144 -0.2209 -0.0081
 2731SOL     OW10689   2.605   6.028   0.582 -0.1183 -0.2491 -0.5392
 2731SOL    HW210690   2.554   6.059   0.657 -0.5163 -0.6592 -0.6383
 2731SOL    HW310691   2.553   6.054   0.505  0.3517  0.2884 -0.6818
 2731SOL    MW410692   2.592   6.036   0.581 -0.1088 -0.2323 -0.5711
 2732SOL     OW10693   1.728   1.133   1.276  0.2048 -0.2858 -0.1782
 2732SOL    HW210694   1.653   1.183   1.309  2.3555  2.3106  1.1017
 2732SOL    HW310695   1.757   1.081   1.351  2.1710  2.0027  0.8035
 2732SOL    MW410696   1.722   1.133   1.290  0.7480  0.3587  0.1202
 2733SOL     OW10697   1.663   3.468   4.280  0.1202 -0.1998 -0.0473
 2733SOL    HW210698   1.695   3.489   4.368  0.3636 -0.4597 -0.0743
 2733SOL    HW310699   1.738   3.485   4.222  0.0037 -0.1636 -0.1899
 2733SOL    MW410700   1.677   3.473   4.284  0.1369 -0.2293 -0.0697
 2734SOL     OW10701   5.362   2.703   4.469 -0.2271 -0.1804 -0.4550
 2734SOL    HW210702   5.286   2.729   4.417 -1.6586  0.2491  1.6925
 2734SOL    HW310703   5.417   2.781   4.472 -0.4292 -0.0196 -0.8299
 2734SOL    MW410704   5.359   2.717   4.463 -0.4426 -0.1025 -0.2211
 2735SOL     OW10705   5.094   2.513   5.523 -0.1940 -0.5919  0.9185
 2735SOL    HW210706   5.054   2.490   5.439  2.1484  1.0706 -0.8031
 2735SOL    HW310707   5.030   2.486   5.589 -2.1021 -2.0572 -1.3665
 2735SOL    MW410708   5.080   2.506   5.520 -0.1367 -0.5659  0.3899
 2736SOL     OW10709   1.588   1.328   1.799  0.0077  0.2748  0.5103
 2736SOL    HW210710   1.492   1.331   1.799  0.0235  0.8127  0.8062
 2736SOL    HW310711   1.613   1.388   1.728  0.1277  0.1840  0.4762
 2736SOL    MW410712   1.578   1.337   1.789  0.0256  0.3338  0.5448
 2737SOL     OW10713   1.712   0.271   1.748  0.1688 -0.3652  0.1042
 2737SOL    HW210714   1.728   0.306   1.661  0.2892  0.3648  0.4103
 2737SOL    HW310715   1.638   0.323   1.781 -1.0755 -1.8349 -0.2373
 2737SOL    MW410716   1.704   0.282   1.741  0.0205 -0.4628  0.0995
 2738SOL     OW10717   6.386   1.325   6.186  0.2333 -0.9652  0.2772
 2738SOL    HW210718   6.444   1.398   6.164 -0.2218 -0.3102  1.1985
 2738SOL    HW310719   6.437   1.247   6.163  1.6868 -0.4341  1.5167
 2738SOL    MW410720   6.401   1.324   6.180  0.3651 -0.8087  0.5623
 2739SOL     OW10721   4.140   3.784   1.239  0.4052  0.1736 -0.3669
 2739SOL    HW210722   4.179   3.720   1.298 -1.1190 -0.1929  0.2869
 2739SOL    HW310723   4.088   3.841   1.296 -0.3640  0.3678 -1.2313
 2739SOL    MW410724   4.138   3.783   1.255  0.1026  0.1508 -0.3947
 2740SOL     OW10725   1.293   2.886   1.408  0.3725 -0.2725 -0.5239
 2740SOL    HW210726   1.389   2.888   1.417  0.3375 -0.7527 -0.0377
 2740SOL    HW310727   1.262   2.944   1.477  0.2133 -2.0824  1.0005
 2740SOL    MW410728   1.302   2.894   1.418  0.3469 -0.5747 -0.2586
 2741SOL     OW10729   3.430   3.444   1.211  0.2599  0.0782  0.2138
 2741SOL    HW210730   3.504   3.489   1.171  0.3059 -0.2286 -0.0592
 2741SOL    HW310731   3.388   3.398   1.138 -0.1734  0.2137  0.3734
 2741SOL    MW410732   3.434   3.444   1.196  0.2088  0.0556  0.1988
 2742SOL     OW10733   4.883   0.925   3.112  0.5701 -0.3491  0.6317
 2742SOL    HW210734   4.925   0.893   3.033  0.6143 -1.2117  0.9876
 2742SOL    HW310735   4.823   0.855   3.138 -0.7528  0.6590  0.3952
 2742SOL    MW410736   4.880   0.912   3.105  0.4014 -0.3299  0.6474
 2743SOL     OW10737   1.987   0.688   3.349  0.0609 -0.3556 -0.3502
 2743SOL    HW210738   1.980   0.619   3.284 -0.3549 -1.3327  0.7034
 2743SOL    HW310739   2.062   0.664   3.403 -1.0203 -0.8604  0.9861
 2743SOL    MW410740   1.996   0.676   3.348 -0.1366 -0.5511 -0.0349
 2744SOL     OW10741   4.154   2.423   1.494 -0.0218  0.5941 -0.0672
 2744SOL    HW210742   4.209   2.498   1.519 -0.0931 -0.3021  3.2645
 2744SOL    HW310743   4.214   2.363   1.450  0.7165  1.3359 -0.1003
 2744SOL    MW410744   4.169   2.425   1.491  0.0662  0.5737  0.3680
 2745SOL     OW10745   5.768   6.264   2.416  0.1306 -0.1534 -0.2967
 2745SOL    HW210746   5.824   6.290   2.343  1.1426 -0.0841  0.4872
 2745SOL    HW310747   5.828   6.226   2.480 -0.7103  0.0093  0.6099
 2745SOL    MW410748   5.783   6.262   2.414  0.1532 -0.1228 -0.0737
 2746SOL     OW10749   1.773   1.042   6.027 -0.1112  0.0329  0.6817
 2746SOL    HW210750   1.762   1.083   6.112  0.5168  1.4329  0.1165
 2746SOL    HW310751   1.700   0.981   6.020  0.8914 -1.5562  3.0050
 2746SOL    MW410752   1.762   1.039   6.037  0.1040  0.0079  0.9137
 2747SOL     OW10753   0.237   5.936   2.040 -0.2872  0.0879  0.9600
 2747SOL    HW210754   0.167   5.872   2.032 -0.9854  0.8942  0.3939
 2747SOL    HW310755   0.316   5.884   2.056 -0.9180 -0.8677  1.0569
 2747SOL    MW410756   0.238   5.921   2.041 -0.4625  0.0682  0.8981
 2748SOL     OW10757   0.887   0.792   0.612  0.6980  0.9011  0.2771
 2748SOL    HW210758   0.827   0.723   0.640  0.4700  1.3996  1.0423
 2748SOL    HW310759   0.963   0.782   0.668  0.5177  1.4894  0.6329
 2748SOL    MW410760   0.889   0.781   0.623  0.6442  1.0445  0.4250
 2749SOL     OW10761   1.661   5.571   0.231  0.4493 -0.0496  0.5395
 2749SOL    HW210762   1.617   5.559   0.315 -0.7575  1.2424  0.1202
 2749SOL    HW310763   1.754   5.576   0.253  0.1119  0.8082  1.8499
 2749SOL    MW410764   1.667   5.570   0.245  0.2456  0.2340  0.6571
 2750SOL     OW10765   2.325   4.068   3.020 -0.2405  0.0698  0.2612
 2750SOL    HW210766   2.412   4.038   3.048  0.2098  0.1635 -0.9896
 2750SOL    HW310767   2.266   3.996   3.043  0.0245  0.3209  1.8290
 2750SOL    MW410768   2.329   4.054   3.027 -0.1461  0.1153  0.3030
 2751SOL     OW10769   4.622   1.391   2.406 -0.3387 -0.7471  0.9768
 2751SOL    HW210770   4.714   1.411   2.424 -0.2493 -0.8083  0.6057
 2751SOL    HW310771   4.623   1.300   2.376 -0.5963 -0.9367  1.5420
 2751SOL    MW410772   4.634   1.382   2.404 -0.3609 -0.7802  1.0024
 2752SOL     OW10773   3.642   1.106   1.733 -0.3528  0.0681 -0.0007
 2752SOL    HW210774   3.560   1.088   1.778 -0.5634  0.5572 -0.1841
 2752SOL    HW310775   3.625   1.085   1.641 -0.5436  1.0000 -0.1845
 2752SOL    MW410776   3.629   1.101   1.727 -0.4057  0.2556 -0.0491
 2753SOL     OW10777   5.300   2.671   2.008 -0.0482  0.4142  0.6206
 2753SOL    HW210778   5.317   2.712   1.923  1.0572  1.4006  1.2911
 2753SOL    HW310779   5.386   2.640   2.037 -0.4857 -0.2754  1.2138
 2753SOL    MW410780   5.314   2.672   2.000  0.0399  0.4533  0.7874
 2754SOL     OW10781   2.379   0.009   5.418 -0.2919 -0.1623  0.2534
 2754SOL    HW210782   2.448   0.029   5.355  1.9441 -1.7870  2.0279
 2754SOL    HW310783   2.421   0.020   5.503 -2.3148 -0.9521  1.4109
 2754SOL    MW410784   2.394   0.013   5.421 -0.2638 -0.4808  0.6402
 2755SOL     OW10785   1.957   4.836   6.095 -0.0627 -0.7464 -0.8391
 2755SOL    HW210786   2.007   4.901   6.144  0.7865 -0.4100 -2.1106
 2755SOL    HW310787   1.918   4.780   6.162  0.2246  0.3021  0.2388
 2755SOL    MW410788   1.958   4.838   6.110  0.0873 -0.5637 -0.8646
 2756SOL     OW10789   5.159   5.688   5.056 -0.5932  0.5654 -0.2770
 2756SOL    HW210790   5.085   5.654   5.107  1.1717 -1.1200  1.3267
 2756SOL    HW310791   5.232   5.688   5.117  1.0502  1.0176 -2.1406
 2756SOL    MW410792   5.159   5.684   5.071 -0.1435  0.4027 -0.3113
 2757SOL     OW10793   1.391   5.024   5.690  0.1730 -0.2840 -0.3761
 2757SOL    HW210794   1.344   4.956   5.642  0.5008  0.4558 -1.7761
 2757SOL    HW310795   1.472   4.981   5.719 -1.2038 -1.5271  1.9441
 2757SOL    MW410796   1.396   5.009   5.688  0.0346 -0.3504 -0.2547
 2758SOL     OW10797   6.213   2.834   0.802  0.1588  0.3961 -0.1265
 2758SOL    HW210798   6.185   2.910   0.751 -0.2387 -0.7276 -1.6650
 2758SOL    HW310799   6.220   2.764   0.737 -0.5163 -1.1443  1.4092
 2758SOL    MW410800   6.211   2.835   0.786  0.0173  0.0446 -0.1269
 2759SOL     OW10801   4.535   1.069   1.694 -0.2689  0.2890 -0.2922
 2759SOL    HW210802   4.492   1.037   1.773  0.3638  0.0738 -0.0258
 2759SOL    HW310803   4.479   1.139   1.662 -0.4241  0.5064  0.4574
 2759SOL    MW410804   4.522   1.074   1.700 -0.2059  0.2893 -0.1582
 2760SOL     OW10805   5.460   6.150   2.930  0.0986 -0.4237 -0.0765
 2760SOL    HW210806   5.484   6.240   2.951  0.3005 -0.4201 -0.3061
 2760SOL    HW310807   5.475   6.101   3.010  1.9804 -0.6293 -0.5095
 2760SOL    MW410808   5.465   6.156   2.943  0.3735 -0.4503 -0.1639
 2761SOL     OW10809   1.670   0.149   2.919 -0.3452 -0.0899  0.2814
 2761SOL    HW210810   1.675   0.244   2.909  0.8256 -0.1376  0.2188
 2761SOL    HW310811   1.760   0.123   2.938 -0.6007 -1.2293 -0.0194
 2761SOL    MW410812   1.683   0.158   2.920 -0.2244 -0.2465  0.2334
 2762SOL     OW10813   0.550   2.195   2.320  0.0405  0.4500 -0.0286
 2762SOL    HW210814   0.535   2.263   2.386  2.8301  0.9043  0.2674
 2762SOL    HW310815   0.604   2.130   2.365 -0.0578 -0.4559 -1.1917
 2762SOL    MW410816   0.555   2.196   2.335  0.3956  0.3904 -0.1430
 2763SOL     OW10817   3.905   2.108   0.351 -0.7023 -0.0407  0.0155
 2763SOL    HW210818   3.831   2.158   0.318  0.3950  1.9554  0.4459
 2763SOL    HW310819   3.911   2.131   0.443  2.4130  2.6006 -0.6602
 2763SOL    MW410820   3.896   2.117   0.359 -0.1465  0.5711 -0.0168
 2764SOL     OW10821   1.101   3.136   3.592  0.6447  0.6237  0.4740
 2764SOL    HW210822   1.178   3.153   3.537 -0.3208 -1.0684 -1.5518
 2764SOL    HW310823   1.100   3.208   3.654  4.2420  0.3337  1.0683
 2764SOL    MW410824   1.111   3.148   3.593  0.9919  0.3622  0.2852
 2765SOL     OW10825   5.184   3.327   3.940 -0.2814 -0.1739 -0.0412
 2765SOL    HW210826   5.125   3.296   4.009 -1.4879  3.8558  0.9611
 2765SOL    HW310827   5.268   3.340   3.984 -0.2901 -0.1962 -0.0178
 2765SOL    MW410828   5.187   3.324   3.955 -0.4417  0.3548  0.0942
 2766SOL     OW10829   4.706   3.665   2.186  0.2926  0.1357  0.0416
 2766SOL    HW210830   4.703   3.718   2.106 -2.2347  0.9354  0.5679
 2766SOL    HW310831   4.684   3.576   2.157 -1.3659  0.5651 -0.1056
 2766SOL    MW410832   4.702   3.660   2.172 -0.2597  0.2979  0.0916
 2767SOL     OW10833   1.495   1.798   0.608 -0.8262 -0.2033  0.2572
 2767SOL    HW210834   1.576   1.750   0.626 -0.7158 -0.3329 -0.5230
 2767SOL    HW310835   1.429   1.729   0.598 -0.5361 -0.2780 -1.5389
 2767SOL    MW410836   1.497   1.782   0.609 -0.7734 -0.2303 -0.0827
 2768SOL     OW10837   0.580   2.853   5.309 -0.3085  0.4911 -0.7818
 2768SOL    HW210838   0.557   2.778   5.253  1.1128 -0.7180  0.1480
 2768SOL    HW310839   0.537   2.928   5.268 -1.6829 -0.8047 -1.8365
 2768SOL    MW410840   0.571   2.853   5.296 -0.3023  0.1606 -0.7983
 2769SOL     OW10841   2.638   0.546   4.686  0.1474  0.5909  0.7650
 2769SOL    HW210842   2.555   0.531   4.641  1.7009 -1.3683 -1.6865
 2769SOL    HW310843   2.665   0.633   4.658 -0.9502  1.1623  1.4258
 2769SOL    MW410844   2.631   0.555   4.677  0.2075  0.4078  0.5287
 2770SOL     OW10845   1.268   5.906   4.069 -0.4671  0.5393  0.0467
 2770SOL    HW210846   1.262   5.839   4.001 -0.2136 -0.2181  0.7515
 2770SOL    HW310847   1.352   5.890   4.111 -0.6322  0.9829  0.5542
 2770SOL    MW410848   1.278   5.895   4.065 -0.4554  0.4979  0.2066
 2771SOL     OW10849   2.301   2.285   3.001 -0.2272  0.0317  0.2713
 2771SOL    HW210850   2.226   2.235   3.034  0.0328 -0.7498 -0.2886
 2771SOL    HW310851   2.355   2.220   2.957  0.5299  0.6796  0.2245
 2771SOL    MW410852   2.298   2.270   3.000 -0.0930  0.0141  0.1913
 2772SOL     OW10853   2.937   3.082   0.161 -0.3159 -0.2422  0.2643
 2772SOL    HW210854   2.954   3.116   0.073 -2.6600  0.1423 -0.1144
 2772SOL    HW310855   2.860   3.131   0.191 -0.0681 -0.9591  2.2065
 2772SOL    MW410856   2.929   3.093   0.153 -0.5925 -0.2860  0.4706
 2773SOL     OW10857   1.301   3.166   5.893  1.1174  0.0366 -0.0889
 2773SOL    HW210858   1.289   3.173   5.987 -1.5887 -0.8846 -0.2900
 2773SOL    HW310859   1.313   3.256   5.863  0.0655  0.5288  0.9308
 2773SOL    MW410860   1.301   3.179   5.901  0.6216 -0.0200  0.0191
 2774SOL     OW10861   3.750   2.529   1.514  0.4429 -0.0347 -0.0509
 2774SOL    HW210862   3.690   2.526   1.589  0.8695 -0.8453  0.2717
 2774SOL    HW310863   3.806   2.605   1.531 -1.1715  1.4186 -0.9122
 2774SOL    MW410864   3.749   2.539   1.526  0.2862  0.0501 -0.1220
 2775SOL     OW10865   0.509   2.005   0.718  0.2715 -0.1910 -0.0918
 2775SOL    HW210866   0.581   1.966   0.768 -1.3786 -0.5212  2.1540
 2775SOL    HW310867   0.500   2.094   0.753 -0.7884 -0.3621  0.1050
 2775SOL    MW410868   0.518   2.012   0.729 -0.0861 -0.2572  0.2305
 2776SOL     OW10869   1.464   4.266   1.513 -0.0046 -0.1417 -0.4680
 2776SOL    HW210870   1.439   4.262   1.420 -1.7886 -1.1424 -0.0065
 2776SOL    HW310871   1.558   4.280   1.512  0.0050 -0.0246 -2.4334
 2776SOL    MW410872   1.473   4.267   1.501 -0.2387 -0.2583 -0.6664
 2777SOL     OW10873   0.190   1.108   4.950 -0.1938 -0.8653  0.2606
 2777SOL    HW210874   0.152   1.171   5.012  0.1635 -1.9574  1.6415
 2777SOL    HW310875   0.281   1.136   4.940 -0.0524 -1.1241  0.8187
 2777SOL    MW410876   0.197   1.120   4.957 -0.1280 -1.0435  0.5165
 2778SOL     OW10877   5.547   3.512   2.269  0.1875  0.5822 -0.4708
 2778SOL    HW210878   5.593   3.429   2.253  0.6607  0.2043  2.3527
 2778SOL    HW310879   5.487   3.492   2.341 -0.1232  2.5383 -0.1433
 2778SOL    MW410880   5.545   3.498   2.276  0.2089  0.7904 -0.0551
 2779SOL     OW10881   6.268   6.136   3.988  0.6158  0.5492  0.3962
 2779SOL    HW210882   6.249   6.212   3.932  0.7523 -1.1129 -2.0800
 2779SOL    HW310883   6.183   6.098   4.007  0.6256  0.5894  0.5195
 2779SOL    MW410884   6.254   6.141   3.983  0.6351  0.3352  0.0858
 2780SOL     OW10885   5.397   4.562   5.322  0.4282  0.2667 -0.2632
 2780SOL    HW210886   5.450   4.568   5.402 -1.6738 -3.2332  1.6775
 2780SOL    HW310887   5.414   4.474   5.288 -2.5355 -0.2720 -0.6265
 2780SOL    MW410888   5.406   4.551   5.328 -0.2402 -0.2661 -0.0551
 2781SOL     OW10889   0.435   4.958   4.720  0.2486  0.0366 -0.0631
 2781SOL    HW210890   0.368   4.942   4.787 -0.4236 -0.9522 -0.9331
 2781SOL    HW310891   0.406   4.906   4.645  1.0006  1.0939 -1.1166
 2781SOL    MW410892   0.422   4.949   4.719  0.2591  0.0456 -0.3169
 2782SOL     OW10893   4.577   1.169   1.327  0.1848  0.0609  0.3106
 2782SOL    HW210894   4.496   1.125   1.352 -0.1918  1.0320  0.8808
 2782SOL    HW310895   4.550   1.257   1.301  0.8204 -0.2661 -1.6238
 2782SOL    MW410896   4.563   1.175   1.327  0.2189  0.1459  0.1307
 2783SOL     OW10897   1.936   1.643   0.985 -0.5754 -0.8710 -0.1185
 2783SOL    HW210898   1.897   1.659   1.071  0.4003 -0.2435  0.2232
 2783SOL    HW310899   1.886   1.698   0.925 -1.5140 -1.6042 -0.0349
 2783SOL    MW410900   1.924   1.652   0.988 -0.5705 -0.8850 -0.0624
 2784SOL     OW10901   0.880   5.993   5.803 -0.0790  0.9475 -0.4303
 2784SOL    HW210902   0.927   5.912   5.823 -1.7343 -0.0124 -0.2554
 2784SOL    HW310903   0.928   6.031   5.729  2.7174  1.5845  1.5516
 2784SOL    MW410904   0.893   5.987   5.796  0.0716  0.9049 -0.1458
 2785SOL     OW10905   4.089   2.849   0.932  0.4184  0.2302 -0.0252
 2785SOL    HW210906   4.096   2.944   0.924 -0.2837  0.2818 -0.1199
 2785SOL    HW310907   4.001   2.829   0.899  0.9070 -0.5558 -0.8864
 2785SOL    MW410908   4.078   2.859   0.927  0.3902  0.1333 -0.1513
 2786SOL     OW10909   1.886   4.751   4.147 -0.0841 -0.3935 -0.2327
 2786SOL    HW210910   1.812   4.806   4.174 -0.1948 -1.1054  1.0160
 2786SOL    HW310911   1.903   4.776   4.056 -0.5817  1.1898  0.0781
 2786SOL    MW410912   1.879   4.762   4.139 -0.1644 -0.2785 -0.0270
 2787SOL     OW10913   3.122   2.761   4.635  0.3095  0.2164 -0.3466
 2787SOL    HW210914   3.042   2.708   4.638 -1.1046  2.1829 -0.8152
 2787SOL    HW310915   3.121   2.800   4.547  0.6431  1.8766  0.3377
 2787SOL    MW410916   3.111   2.760   4.624  0.1669  0.6949 -0.3181
 2788SOL     OW10917   5.127   2.643   0.449  0.0057  0.4740  0.3394
 2788SOL    HW210918   5.120   2.618   0.541 -0.0491 -3.4901 -0.5568
 2788SOL    HW310919   5.219   2.665   0.437 -0.0173  1.1940  1.3472
 2788SOL    MW410920   5.138   2.642   0.460 -0.0046  0.0460  0.3542
 2789SOL     OW10921   4.458   3.606   0.010  0.2342 -0.1941 -0.5663
 2789SOL    HW210922   4.412   3.660  -0.054  0.7281  0.8929 -0.0229
 2789SOL    HW310923   4.388   3.560   0.057 -0.1003 -2.3841 -2.9898
 2789SOL    MW410924   4.442   3.607   0.008  0.2552 -0.3397 -0.8144
 2790SOL     OW10925   3.337   0.302   1.088  0.6194 -0.4707  0.2247
 2790SOL    HW210926   3.258   0.294   1.142  2.0121 -1.3803  2.2481
 2790SOL    HW310927   3.307   0.281   0.999 -1.3056 -1.3843  1.0218
 2790SOL    MW410928   3.323   0.298   1.083  0.5492 -0.7113  0.5969
 2791SOL     OW10929   5.863   4.390   1.320 -0.1175 -0.3635 -0.3674
 2791SOL    HW210930   5.916   4.452   1.270  0.8380 -1.2844 -0.5122
 2791SOL    HW310931   5.850   4.433   1.405 -0.7935  0.7096 -0.9913
 2791SOL    MW410932   5.868   4.404   1.325 -0.0806 -0.3434 -0.4688
 2792SOL     OW10933   3.130   4.036   0.399  0.5596  0.7916 -0.2978
 2792SOL    HW210934   3.041   4.052   0.370  0.5431  0.1960 -0.6000
 2792SOL    HW310935   3.181   4.030   0.318  0.6313 -0.1947 -0.1948
 2792SOL    MW410936   3.125   4.037   0.384  0.5668  0.5829 -0.3241
 2793SOL     OW10937   4.178   1.817   1.314 -0.2897  0.0111 -0.0485
 2793SOL    HW210938   4.136   1.875   1.378 -0.6098 -1.8031  1.4711
 2793SOL    HW310939   4.162   1.859   1.230  0.8860  2.9444  1.0688
 2793SOL    MW410940   4.170   1.830   1.312 -0.1768  0.1587  0.2994
 2794SOL     OW10941   0.292   1.057   0.264 -0.2975  0.0155  0.1833
 2794SOL    HW210942   0.361   0.997   0.235 -0.4388 -0.5081  0.8763
 2794SOL    HW310943   0.313   1.074   0.356 -0.5880  0.5703  0.1481
 2794SOL    MW410944   0.304   1.051   0.273 -0.3545  0.0196  0.2701
 2795SOL     OW10945   4.237   5.083   0.866  0.0002  0.3789  0.2841
 2795SOL    HW210946   4.235   5.047   0.955  0.1202 -0.3672 -0.0101
 2795SOL    HW310947   4.178   5.026   0.816  0.0729  0.6855 -0.1531
 2795SOL    MW410948   4.229   5.071   0.871  0.0256  0.3209  0.1876
 2796SOL     OW10949   3.385   4.514   4.853 -0.1320 -0.3402 -0.0126
 2796SOL    HW210950   3.455   4.566   4.893  0.1833 -1.3928  0.8312
 2796SOL    HW310951   3.419   4.425   4.851 -1.8392 -1.0726  1.3758
 2796SOL    MW410952   3.399   4.509   4.858 -0.3157 -0.5757  0.2819
 2797SOL     OW10953   0.643   6.042   2.524 -0.1145 -0.4665  0.2007
 2797SOL    HW210954   0.607   5.954   2.513  0.7082 -0.7510 -0.3092
 2797SOL    HW310955   0.721   6.030   2.578 -0.9168  0.1849  1.5588
 2797SOL    MW410956   0.648   6.029   2.529 -0.1118 -0.4181  0.3126
 2798SOL     OW10957   3.739   3.205   4.394 -0.0795 -0.4444 -0.3744
 2798SOL    HW210958   3.818   3.175   4.348  0.3007  1.6521 -1.1526
 2798SOL    HW310959   3.722   3.135   4.459  2.3067 -1.0329 -0.2885
 2798SOL    MW410960   3.747   3.192   4.397  0.2855 -0.2454 -0.4657
 2799SOL     OW10961   4.556   0.603   3.869  0.2095  0.1334  0.0086
 2799SOL    HW210962   4.502   0.665   3.821 -0.7195 -0.2065  0.5868
 2799SOL    HW310963   4.494   0.548   3.916  1.0649 -0.2052  0.7800
 2799SOL    MW410964   4.541   0.604   3.869  0.1998  0.0439  0.1867
 2800SOL     OW10965   1.002   4.499   3.590  0.2681  0.2737 -0.1869
 2800SOL    HW210966   0.954   4.582   3.586 -1.8196 -0.7586  1.3665
 2800SOL    HW310967   1.093   4.523   3.576 -0.2892  2.8069  0.0407
 2800SOL    MW410968   1.007   4.513   3.588 -0.0809  0.4717  0.0481
 2801SOL     OW10969   2.156   1.717   0.392  0.3060 -0.0097  0.1593
 2801SOL    HW210970   2.172   1.627   0.364 -2.9645 -0.4971 -0.5417
 2801SOL    HW310971   2.175   1.717   0.486  2.0411 -0.9343 -0.1607
 2801SOL    MW410972   2.160   1.705   0.401  0.1034 -0.1960  0.0246
 2802SOL     OW10973   4.370   3.951   1.521 -0.0868 -0.5082  0.5735
 2802SOL    HW210974   4.340   4.018   1.583  0.3369  0.6732 -0.4544
 2802SOL    HW310975   4.464   3.943   1.539  0.4099  1.0757 -0.9553
 2802SOL    MW410976   4.379   3.959   1.532  0.0346 -0.1434  0.2362
 2803SOL     OW10977   0.635   5.949   6.210  0.5556  0.0129  0.2211
 2803SOL    HW210978   0.562   5.926   6.152  1.1183 -1.1824 -0.0645
 2803SOL    HW310979   0.690   6.007   6.158  1.2848 -1.4014 -0.6592
 2803SOL    MW410980   0.633   5.953   6.195  0.7260 -0.3314  0.0673
 2804SOL     OW10981   2.840   1.016   4.500 -0.1563 -0.5911  0.4544
 2804SOL    HW210982   2.822   1.110   4.497  1.1373 -0.3574 -0.4430
 2804SOL    HW310983   2.909   1.007   4.565 -0.1801 -0.9205  0.4346
 2804SOL    MW410984   2.846   1.028   4.508  0.0112 -0.6037  0.3334
 2805SOL     OW10985   3.251   5.041   1.720 -0.2797 -0.0454  0.1080
 2805SOL    HW210986   3.305   5.103   1.672 -2.3347  0.4366 -1.7513
 2805SOL    HW310987   3.163   5.079   1.717 -1.2731 -2.1722  0.4722
 2805SOL    MW410988   3.246   5.054   1.713 -0.6819 -0.2624 -0.0892
 2806SOL     OW10989   1.731   2.846   3.863  0.3329 -0.5841 -0.0152
 2806SOL    HW210990   1.685   2.777   3.815  2.8810 -2.2584 -0.2263
 2806SOL    HW310991   1.810   2.863   3.811  0.7088  1.1316  1.0491
 2806SOL    MW410992   1.735   2.839   3.850  0.7187 -0.5786  0.0973
 2807SOL     OW10993   1.798   4.377   2.539 -0.2452 -0.0031  0.1187
 2807SOL    HW210994   1.830   4.431   2.466  0.1862  1.1794  1.1295
 2807SOL    HW310995   1.703   4.371   2.524 -0.5901  2.4148  0.7592
 2807SOL    MW410996   1.789   4.384   2.527 -0.2338  0.4719  0.3366
 2808SOL     OW10997   2.209   5.296   2.624 -0.0421  0.4919 -0.5903
 2808SOL    HW210998   2.214   5.379   2.578  2.1160 -0.1908 -1.7462
 2808SOL    HW310999   2.299   5.264   2.625 -0.6037 -1.2337  0.9727
 2808SOL    MW411000   2.221   5.303   2.618  0.1685  0.1741 -0.5366
 2809SOL     OW11001   4.566   2.509   0.715 -0.2508 -0.1635  0.4632
 2809SOL    HW211002   4.582   2.566   0.790  1.5197  2.5817 -1.7959
 2809SOL    HW311003   4.648   2.461   0.704 -0.0756  0.2950 -0.3291
 2809SOL    MW411004   4.579   2.510   0.723  0.0059  0.2592  0.0606
 2810SOL     OW11005   5.827   1.195   0.176  0.4129 -0.0558  0.0968
 2810SOL    HW211006   5.893   1.263   0.162 -0.0927  0.4381  0.0412
 2810SOL    HW311007   5.767   1.235   0.240  0.8899 -1.0011  1.1723
 2810SOL    MW411008   5.828   1.209   0.183  0.4091 -0.1153  0.2313
 2811SOL     OW11009   5.188   0.457   1.705 -0.4587 -0.2086  0.2255
 2811SOL    HW211010   5.128   0.507   1.650 -0.1932 -2.1584 -1.9450
 2811SOL    HW311011   5.158   0.474   1.794 -2.7171  0.7544 -0.6566
 2811SOL    MW411012   5.176   0.466   1.710 -0.7217 -0.3388 -0.1773
 2812SOL     OW11013   1.776   3.177   4.147  0.0752 -0.4761 -0.4209
 2812SOL    HW211014   1.702   3.191   4.207  1.4333 -1.0560  1.4573
 2812SOL    HW311015   1.736   3.139   4.069 -1.5186 -1.7278  0.9241
 2812SOL    MW411016   1.761   3.174   4.145  0.0441 -0.7178  0.0044
 2813SOL     OW11017   3.525   3.406   5.693  0.7702  0.4894 -0.1327
 2813SOL    HW211018   3.582   3.419   5.618  1.9643 -2.2592  0.1814
 2813SOL    HW311019   3.570   3.449   5.765  0.6646  1.3383 -0.5643
 2813SOL    MW411020   3.538   3.413   5.693  0.9138  0.2388 -0.1482
 2814SOL     OW11021   4.379   4.965   3.029  0.4489  0.6279  0.4076
 2814SOL    HW211022   4.457   5.000   3.072 -1.1456  1.6748  2.6723
 2814SOL    HW311023   4.315   5.036   3.034 -0.8095 -0.3497 -0.9881
 2814SOL    MW411024   4.381   4.979   3.036  0.0725  0.6370  0.5223
 2815SOL     OW11025   1.843   1.329   5.163 -0.0233  0.2188  0.0744
 2815SOL    HW211026   1.869   1.311   5.253 -0.5166  1.6834  0.5359
 2815SOL    HW311027   1.834   1.242   5.123  0.5490 -0.4446  1.3210
 2815SOL    MW411028   1.845   1.315   5.170 -0.0129  0.3245  0.2998
 2816SOL     OW11029   6.240   2.188   0.109  0.1977  0.1213 -0.0797
 2816SOL    HW211030   6.269   2.244   0.180  1.1112  0.1841 -0.4891
 2816SOL    HW311031   6.152   2.219   0.087 -0.1868 -0.0522  1.1683
 2816SOL    MW411032   6.232   2.199   0.115  0.2675  0.1067  0.0309
 2817SOL     OW11033   0.433  -0.034   2.409  0.3555 -0.1409 -0.3240
 2817SOL    HW211034   0.443  -0.055   2.502 -2.3131 -1.2444 -0.2115
 2817SOL    HW311035   0.442   0.062   2.405 -1.0183  0.1012  1.3294
 2817SOL    MW411036   0.436  -0.024   2.421 -0.1778 -0.2545 -0.0910
 2818SOL     OW11037   5.866   3.654   0.555  0.1396  0.3849  0.2150
 2818SOL    HW211038   5.826   3.671   0.640 -0.8596  2.6142 -0.6049
 2818SOL    HW311039   5.950   3.699   0.558  0.3745 -0.0587  0.2413
 2818SOL    MW411040   5.872   3.662   0.566  0.0387  0.6205  0.1103
 2819SOL     OW11041   4.166   3.913   3.135 -0.0503 -0.2747 -0.3226
 2819SOL    HW211042   4.230   3.964   3.085 -2.3990 -0.1750 -3.6040
 2819SOL    HW311043   4.165   3.953   3.222  2.1564  1.5815 -1.0540
 2819SOL    MW411044   4.174   3.925   3.140 -0.0690 -0.0167 -0.8520
 2820SOL     OW11045   0.646   3.804   0.878 -0.2564 -0.5295  0.0713
 2820SOL    HW211046   0.616   3.827   0.790 -2.1337 -1.7738  0.3411
 2820SOL    HW311047   0.704   3.729   0.865  0.9057  0.3885 -0.2293
 2820SOL    MW411048   0.650   3.797   0.865 -0.3508 -0.5725  0.0672
 2821SOL     OW11049   0.617   1.439   3.091  0.0536  0.5074  0.5028
 2821SOL    HW211050   0.550   1.484   3.144 -1.2234  0.3915 -0.9411
 2821SOL    HW311051   0.589   1.348   3.090  0.7717  0.2851  0.6618
 2821SOL    MW411052   0.604   1.433   3.098 -0.0202  0.4628  0.3332
 2822SOL     OW11053   2.524   1.703   2.566 -0.1917  0.2508 -0.3388
 2822SOL    HW211054   2.552   1.790   2.595  0.5453  0.2207 -0.9417
 2822SOL    HW311055   2.597   1.646   2.589 -0.1808 -0.0076 -1.0060
 2822SOL    MW411056   2.537   1.707   2.573 -0.0930  0.2128 -0.5064
 2823SOL     OW11057   4.498   5.022   3.392 -0.4987 -0.4630 -0.0770
 2823SOL    HW211058   4.517   4.982   3.477  1.2207  0.1370 -0.1251
 2823SOL    HW311059   4.424   5.081   3.409 -2.7256 -3.1129  0.1081
 2823SOL    MW411060   4.491   5.025   3.406 -0.5657 -0.7335 -0.0589
 2824SOL     OW11061   5.867   4.572   1.838  0.3117  0.0239  0.1185
 2824SOL    HW211062   5.807   4.645   1.855  0.6348  0.0928  1.0226
 2824SOL    HW311063   5.838   4.537   1.754 -0.4732  0.5758  0.1401
 2824SOL    MW411064   5.855   4.577   1.829  0.2508  0.1058  0.2406
 2825SOL     OW11065   5.274   2.298   4.857 -0.1155  0.3745 -0.0848
 2825SOL    HW211066   5.274   2.317   4.763 -2.5642 -0.3485 -0.2898
 2825SOL    HW311067   5.262   2.203   4.863 -1.3432  0.5660  0.9405
 2825SOL    MW411068   5.273   2.288   4.846 -0.6005  0.3044  0.0235
 2826SOL     OW11069   0.832   2.758   3.371 -0.2798 -0.8362 -0.4248
 2826SOL    HW211070   0.910   2.811   3.351 -1.4256  1.5157  0.9171
 2826SOL    HW311071   0.849   2.722   3.458 -1.1016  0.6696  0.4060
 2826SOL    MW411072   0.845   2.761   3.379 -0.5394 -0.3272 -0.1381
 2827SOL     OW11073   1.504   4.597   2.497 -0.0544  0.3352 -0.0929
 2827SOL    HW211074   1.506   4.502   2.505 -1.4490  0.2928 -0.0829
 2827SOL    HW311075   1.543   4.615   2.411  0.2903 -0.2265 -0.0580
 2827SOL    MW411076   1.509   4.587   2.487 -0.1929  0.2555 -0.0870
 2828SOL     OW11077   6.129   0.111   3.681 -0.6730 -0.3134 -0.0425
 2828SOL    HW211078   6.038   0.096   3.707 -0.8253 -0.0701 -0.4213
 2828SOL    HW311079   6.160   0.179   3.740 -1.7152  1.8853 -1.8715
 2828SOL    MW411080   6.121   0.118   3.692 -0.8306  0.0088 -0.3338
 2829SOL     OW11081   4.717   0.499   1.198 -0.4802  0.0150  0.3519
 2829SOL    HW211082   4.651   0.498   1.128  1.2605  0.5608 -1.3770
 2829SOL    HW311083   4.677   0.553   1.267 -1.3368  1.4529 -1.1922
 2829SOL    MW411084   4.703   0.506   1.198 -0.3636  0.2767 -0.0800
 2830SOL     OW11085   4.048   1.668   3.486 -0.5204  0.0417  0.1843
 2830SOL    HW211086   4.056   1.629   3.573  0.3350  1.3704  0.7404
 2830SOL    HW311087   4.121   1.633   3.436 -0.0886  0.4540  0.5080
 2830SOL    MW411088   4.059   1.659   3.491 -0.3506  0.2714  0.3004
 2831SOL     OW11089   4.701   1.556   3.025 -0.2098 -0.0692  0.0174
 2831SOL    HW211090   4.666   1.509   3.101  0.6518 -1.5684 -0.4779
 2831SOL    HW311091   4.740   1.635   3.062  0.2015 -0.7745  1.1475
 2831SOL    MW411092   4.702   1.560   3.040 -0.0419 -0.3600  0.1012
 2832SOL     OW11093   3.317   3.662   4.689  0.4853  0.5925  0.2930
 2832SOL    HW211094   3.401   3.618   4.678  0.3411  0.3311  0.2382
 2832SOL    HW311095   3.274   3.616   4.761 -0.5974 -0.8115 -1.1509
 2832SOL    MW411096   3.322   3.650   4.697  0.3234  0.3727  0.0952
 2833SOL     OW11097   5.591   2.616   3.447 -0.1405 -0.3373 -0.4527
 2833SOL    HW211098   5.550   2.562   3.514 -0.5052  1.3836  0.7808
 2833SOL    HW311099   5.652   2.557   3.402  0.7947 -1.3563  1.9990
 2833SOL    MW411100   5.594   2.601   3.450 -0.0652 -0.2447  0.0335
 2834SOL     OW11101   3.349   4.896   1.407 -0.4523  0.3080  0.1636
 2834SOL    HW211102   3.431   4.937   1.378 -0.5006 -0.5632 -1.3166
 2834SOL    HW311103   3.281   4.960   1.383 -0.8617 -1.5632 -4.8984
 2834SOL    MW411104   3.351   4.910   1.400 -0.5127 -0.0538 -0.6996
 2835SOL     OW11105   5.212   0.546   4.449  0.3350 -0.4002 -0.1259
 2835SOL    HW211106   5.279   0.532   4.516  0.6303 -1.4807 -0.6307
 2835SOL    HW311107   5.129   0.532   4.496  0.4696  0.3943  0.3697
 2835SOL    MW411108   5.210   0.542   4.464  0.3917 -0.4379 -0.1271
 2836SOL     OW11109   1.892   6.375   4.589  0.5164 -0.5443 -0.2093
 2836SOL    HW211110   1.966   6.361   4.648  0.2876 -1.2342 -0.0765
 2836SOL    HW311111   1.816   6.346   4.640  0.1037  0.5372 -0.1950
 2836SOL    MW411112   1.892   6.369   4.603  0.4317 -0.4926 -0.1899
 2837SOL     OW11113   1.881   1.534   1.351  0.1104 -0.2423 -0.4840
 2837SOL    HW211114   1.898   1.457   1.404 -0.6586  0.6973  1.2379
 2837SOL    HW311115   1.948   1.597   1.377 -0.9423  0.6187  0.2512
 2837SOL    MW411116   1.892   1.532   1.361 -0.1300 -0.0047 -0.1598
 2838SOL     OW11117   5.870   0.369   1.833  0.4995 -0.0987 -0.5008
 2838SOL    HW211118   5.952   0.337   1.870  1.0761 -0.3460 -1.9135
 2838SOL    HW311119   5.837   0.432   1.897  0.2596 -2.1456  1.5062
 2838SOL    MW411120   5.876   0.373   1.846  0.5439 -0.4014 -0.4224
 2839SOL     OW11121   3.366   5.302   2.518 -0.1113  0.1912  0.0096
 2839SOL    HW211122   3.273   5.322   2.526 -0.5083 -2.0750  2.2831
 2839SOL    HW311123   3.374   5.263   2.431 -0.8635  2.1617 -0.9938
 2839SOL    MW411124   3.355   5.299   2.508 -0.2629  0.1522  0.1772
 2840SOL     OW11125   1.205   0.242   0.419 -0.5497 -0.2876  0.1099
 2840SOL    HW211126   1.262   0.206   0.488  0.8764  0.4991 -0.6199
 2840SOL    HW311127   1.265   0.278   0.355 -1.8836  2.1790  0.1295
 2840SOL    MW411128   1.220   0.242   0.420 -0.5375  0.1417  0.0162
 2841SOL     OW11129   3.729   3.242   0.583  0.5713  0.1157 -0.0979
 2841SOL    HW211130   3.772   3.157   0.571 -0.6848 -0.7459  1.1247
 2841SOL    HW311131   3.698   3.265   0.495  1.6079 -0.2949 -0.5897
 2841SOL    MW411132   3.730   3.234   0.570  0.5424 -0.0521 -0.0015
 2842SOL     OW11133   1.818   0.649   4.725 -0.0308  0.1946 -0.0351
 2842SOL    HW211134   1.782   0.585   4.663 -0.7630 -0.7675  1.3515
 2842SOL    HW311135   1.858   0.716   4.669  0.1808 -1.1292 -1.5370
 2842SOL    MW411136   1.819   0.650   4.709 -0.0995 -0.1070 -0.0503
 2843SOL     OW11137   0.686   5.571   0.073  0.2485  0.0457  0.2949
 2843SOL    HW211138   0.605   5.549   0.118 -0.5114 -0.7756 -1.3840
 2843SOL    HW311139   0.723   5.644   0.124 -1.3326  0.1893  1.3048
 2843SOL    MW411140   0.681   5.578   0.086 -0.0603 -0.0437  0.2066
 2844SOL     OW11141   4.868   1.963   2.904  0.3324  0.3754 -0.2177
 2844SOL    HW211142   4.883   1.881   2.857  1.1689 -0.5697  1.6052
 2844SOL    HW311143   4.904   2.031   2.846  1.8106 -0.7910 -0.7131
 2844SOL    MW411144   4.875   1.961   2.890  0.6378  0.0968 -0.0426
 2845SOL     OW11145   1.049   4.259   0.689  0.1134 -0.1220  0.0287
 2845SOL    HW211146   0.991   4.334   0.704 -2.1080 -1.6467 -0.4650
 2845SOL    HW311147   1.046   4.245   0.594  1.3657 -0.2191 -0.0173
 2845SOL    MW411148   1.041   4.267   0.678 -0.0145 -0.3360 -0.0425
 2846SOL     OW11149   2.546   0.238   2.439  0.0605 -0.4503  0.0091
 2846SOL    HW211150   2.585   0.267   2.522  1.5989 -1.1684 -0.4161
 2846SOL    HW311151   2.607   0.271   2.373 -1.0776 -0.0083 -0.8472
 2846SOL    MW411152   2.560   0.246   2.441  0.1133 -0.4867 -0.1600
 2847SOL     OW11153   2.476   1.631   4.006  0.2617 -0.6057  0.0874
 2847SOL    HW211154   2.526   1.666   4.080  2.7284 -0.3001 -1.6070
 2847SOL    HW311155   2.436   1.707   3.965  0.4439 -0.5305  0.0461
 2847SOL    MW411156   2.477   1.645   4.010  0.6112 -0.5555 -0.1416
 2848SOL     OW11157   2.414   1.232   1.063  0.0655 -0.2268 -0.1672
 2848SOL    HW211158   2.398   1.282   1.143  0.4469  0.1715 -0.3360
 2848SOL    HW311159   2.476   1.286   1.013  0.5300 -0.8902 -0.3231
 2848SOL    MW411160   2.420   1.246   1.067  0.1771 -0.2618 -0.2101
 2849SOL     OW11161   4.814   2.019   0.215 -0.4974  0.6609 -0.3189
 2849SOL    HW211162   4.887   2.052   0.163  0.8066 -2.4640 -0.6864
 2849SOL    HW311163   4.773   1.953   0.160 -1.4802 -0.0350  1.1634
 2849SOL    MW411164   4.818   2.015   0.201 -0.4550  0.1568 -0.1718
 2850SOL     OW11165   4.968   2.495   5.782 -0.1948 -0.4291  0.0722
 2850SOL    HW211166   4.964   2.401   5.802  2.4736 -0.7976 -0.7475
 2850SOL    HW311167   4.905   2.534   5.843 -1.4330 -2.7145  0.4095
 2850SOL    MW411168   4.959   2.487   5.793 -0.0061 -0.7792  0.0085
 2851SOL     OW11169   3.441   3.703   6.041 -0.3492  0.5074  0.1713
 2851SOL    HW211170   3.426   3.670   6.130  2.0002  1.1170  0.8917
 2851SOL    HW311171   3.361   3.682   5.993 -1.8103  0.4015  2.4934
 2851SOL    MW411172   3.429   3.696   6.047 -0.2320  0.5739  0.5727
 2852SOL     OW11173   3.051   4.290   4.282  0.1081  0.0770  0.2269
 2852SOL    HW211174   2.990   4.218   4.262 -0.6791  0.6445  0.5396
 2852SOL    HW311175   3.079   4.274   4.372 -0.5411  0.4881  0.5079
 2852SOL    MW411176   3.046   4.278   4.291 -0.0814  0.2062  0.3052
 2853SOL     OW11177   4.147   1.185   5.177  0.3817  0.0939  0.5705
 2853SOL    HW211178   4.120   1.237   5.254  2.5584 -0.3692  1.7157
 2853SOL    HW311179   4.074   1.194   5.116 -1.1883  0.9701  2.4543
 2853SOL    MW411180   4.133   1.193   5.179  0.4618  0.1484  0.9702
 2854SOL     OW11181   3.276   2.047   1.761  0.0324 -0.3241  0.0090
 2854SOL    HW211182   3.196   2.097   1.774 -1.8848 -2.3687 -2.6553
 2854SOL    HW311183   3.292   2.051   1.666  3.4685  0.4539  0.4961
 2854SOL    MW411184   3.267   2.054   1.750  0.2328 -0.4913 -0.2783
 2855SOL     OW11185   5.866   4.249   2.376  0.0933  0.5147  0.1393
 2855SOL    HW211186   5.903   4.315   2.436 -1.5601  0.7090  0.9959
 2855SOL    HW311187   5.800   4.204   2.429 -0.4060 -0.2800 -1.1358
 2855SOL    MW411188   5.862   4.252   2.391 -0.1907  0.4355  0.0841
 2856SOL     OW11189   2.639   4.189   0.067  0.1306  0.2038 -0.4374
 2856SOL    HW211190   2.725   4.230   0.073  0.0624  0.1474  1.4946
 2856SOL    HW311191   2.655   4.096   0.082 -0.2541  0.1886 -0.1012
 2856SOL    MW411192   2.652   4.182   0.069  0.0709  0.1943 -0.1381
 2857SOL     OW11193   5.147   5.789   0.003  0.0591 -0.0656  0.3895
 2857SOL    HW211194   5.241   5.777  -0.014 -0.0651  0.2046 -0.5397
 2857SOL    HW311195   5.144   5.827   0.091  0.9608  1.6990 -0.2692
 2857SOL    MW411196   5.159   5.793   0.012  0.1617  0.2028  0.1800
 2858SOL     OW11197   5.648   5.677   3.323  0.1097 -0.4052 -0.0168
 2858SOL    HW211198   5.686   5.763   3.338 -1.0862  0.3298 -0.9947
 2858SOL    HW311199   5.559   5.684   3.357  0.0847 -1.3522  0.1470
 2858SOL    MW411200   5.641   5.689   3.330 -0.0514 -0.4331 -0.1242
 2859SOL     OW11201   2.069   5.140   3.941 -0.0285 -0.1536 -0.3833
 2859SOL    HW211202   2.139   5.200   3.918  0.1256 -0.3807 -0.5102
 2859SOL    HW311203   2.022   5.125   3.859  0.3423 -0.7317 -0.4949
 2859SOL    MW411204   2.072   5.146   3.927  0.0408 -0.2599 -0.4148
 2860SOL     OW11205   4.652   1.638   2.586  0.3486  0.0689 -0.5172
 2860SOL    HW211206   4.624   1.552   2.617  0.5379  0.1377 -0.1421
 2860SOL    HW311207   4.709   1.620   2.512  1.5335 -0.2076  0.4296
 2860SOL    MW411208   4.656   1.624   2.580  0.5299  0.0415 -0.3428
 2861SOL     OW11209   0.894   5.734   3.899 -0.0227  0.9006  0.0290
 2861SOL    HW211210   0.876   5.709   3.808  1.4469  2.5169 -0.7512
 2861SOL    HW311211   0.989   5.731   3.907 -0.1754 -1.3774  2.2244
 2861SOL    MW411212   0.904   5.730   3.888  0.1510  0.8133  0.2157
 2862SOL     OW11213   2.483   2.794   2.551 -0.3095 -0.2224  0.0439
 2862SOL    HW211214   2.501   2.785   2.645 -3.3199  0.9939  0.8472
 2862SOL    HW311215   2.482   2.888   2.536  0.4531 -0.4079 -1.3330
 2862SOL    MW411216   2.485   2.805   2.561 -0.6060 -0.0864 -0.0318
 2863SOL     OW11217   4.581   4.394   2.869  0.7260 -0.4041 -0.4203
 2863SOL    HW211218   4.509   4.428   2.922  0.5877  0.4501 -1.1377
 2863SOL    HW311219   4.587   4.454   2.795  1.9924 -0.6366 -0.5230
 2863SOL    MW411220   4.572   4.406   2.866  0.8748 -0.3221 -0.5285
 2864SOL     OW11221   2.867   5.532   1.758  0.1983  0.0980 -0.3506
 2864SOL    HW211222   2.948   5.523   1.708 -0.1840 -0.7217 -0.8253
 2864SOL    HW311223   2.882   5.480   1.837  0.8765  1.5469  0.5230
 2864SOL    MW411224   2.880   5.524   1.762  0.2373  0.1810 -0.2980
 2865SOL     OW11225   0.949   2.207   4.640  0.3116  0.2161 -0.1022
 2865SOL    HW211226   1.020   2.157   4.680 -1.0666 -0.0864  2.1941
 2865SOL    HW311227   0.993   2.284   4.602  2.2161 -1.6519 -1.9177
 2865SOL    MW411228   0.964   2.211   4.641  0.3810 -0.0703 -0.0387
 2866SOL     OW11229   4.953   3.938   0.010  0.1874 -0.1897  0.2091
 2866SOL    HW211230   4.949   3.954  -0.084  0.3743 -1.7076 -0.0758
 2866SOL    HW311231   4.979   4.022   0.048 -3.2721  1.4580 -0.7399
 2866SOL    MW411232   4.956   3.951   0.003 -0.2444 -0.1726  0.0463
 2867SOL     OW11233   4.429   4.415   1.490  0.2153 -0.7309  0.2518
 2867SOL    HW211234   4.434   4.395   1.397 -0.1748 -2.1210  0.5036
 2867SOL    HW311235   4.384   4.499   1.494  2.2262  0.4829 -0.8943
 2867SOL    MW411236   4.424   4.424   1.478  0.4291 -0.7542  0.1338
 2868SOL     OW11237   6.133   2.763   2.205  0.0928 -0.0484  0.1557
 2868SOL    HW211238   6.146   2.670   2.223 -2.2544 -0.1768  1.6727
 2868SOL    HW311239   6.206   2.807   2.248 -0.2308 -1.0404  1.7810
 2868SOL    MW411240   6.144   2.757   2.213 -0.2595 -0.1962  0.5703
 2869SOL     OW11241   2.939   1.759   2.788 -0.6547  1.1901 -0.0784
 2869SOL    HW211242   2.886   1.683   2.813 -0.2080  0.6131 -0.8550
 2869SOL    HW311243   2.935   1.817   2.864  1.9751 -1.1788  2.0728
 2869SOL    MW411244   2.931   1.756   2.801 -0.2488  0.8014  0.1029
 2870SOL     OW11245   4.617   5.015   6.368  0.3778  0.4267  0.3877
 2870SOL    HW211246   4.653   4.961   6.439 -2.5140  2.5851  3.8618
 2870SOL    HW311247   4.558   4.956   6.321  1.2097 -0.7085  0.7279
 2870SOL    MW411248   4.614   5.000   6.372  0.1060  0.5617  0.8909
 2871SOL     OW11249   6.181   0.008   2.050  0.1262 -0.1125 -0.1919
 2871SOL    HW211250   6.169   0.077   2.115 -1.0620 -1.1818  0.7588
 2871SOL    HW311251   6.259  -0.039   2.080  1.2140  1.0417 -1.0928
 2871SOL    MW411252   6.190   0.011   2.062  0.1130 -0.1013 -0.1854
 2872SOL     OW11253   1.003   5.924   1.898  0.6510  0.2960  0.1276
 2872SOL    HW211254   1.032   6.015   1.890 -0.3742  0.6347  0.1626
 2872SOL    HW311255   1.081   5.872   1.876  1.0924  1.1770 -0.4544
 2872SOL    MW411256   1.017   5.929   1.894  0.5740  0.4570  0.0555
 2873SOL     OW11257   1.894   3.118   6.033  0.2856 -0.0794 -0.1513
 2873SOL    HW211258   1.925   3.180   5.967  0.3741 -0.3841 -0.3949
 2873SOL    HW311259   1.973   3.083   6.073  0.3174 -1.5710 -1.4268
 2873SOL    MW411260   1.909   3.122   6.030  0.3015 -0.3164 -0.3517
 2874SOL     OW11261   2.365   0.185   1.464 -0.5399  0.0597  0.0693
 2874SOL    HW211262   2.270   0.175   1.465 -0.5457  0.1405  0.3299
 2874SOL    HW311263   2.382   0.239   1.387 -0.8631  1.5995  1.0358
 2874SOL    MW411264   2.354   0.191   1.454 -0.5833  0.2735  0.2312
 2875SOL     OW11265   5.719   1.002   5.282  0.1638 -0.0161  0.1085
 2875SOL    HW211266   5.640   0.973   5.237  0.3526 -0.1583 -0.1385
 2875SOL    HW311267   5.730   0.941   5.355 -0.4891  0.5927  0.7274
 2875SOL    MW411268   5.710   0.990   5.285  0.1025  0.0455  0.1576
 2876SOL     OW11269   0.056   6.214   3.746  0.2377  0.5066  0.2450
 2876SOL    HW211270   0.048   6.131   3.792 -0.1720 -0.0705 -0.8324
 2876SOL    HW311271  -0.023   6.263   3.770  0.0885  0.2589  0.2583
 2876SOL    MW411272   0.044   6.210   3.755  0.1639  0.3978  0.1046
 2877SOL     OW11273   2.962   2.158   2.826  0.1934  0.2310 -0.0612
 2877SOL    HW211274   2.960   2.084   2.886 -2.3382  2.4860  3.0440
 2877SOL    HW311275   2.888   2.144   2.768  0.3139 -0.1433 -0.1245
 2877SOL    MW411276   2.952   2.147   2.826 -0.1247  0.4791  0.3401
 2878SOL     OW11277   1.722   3.276   6.260 -0.1051 -0.4557  0.4350
 2878SOL    HW211278   1.665   3.323   6.199  1.2542  1.6962  0.7288
 2878SOL    HW311279   1.775   3.220   6.204  0.3700  0.6789 -0.2771
 2878SOL    MW411280   1.721   3.274   6.245  0.1369 -0.0221  0.3798
 2879SOL     OW11281   2.761   2.584   6.078  0.3758 -0.4536  1.1791
 2879SOL    HW211282   2.830   2.649   6.091  1.8931 -2.1853  2.3329
 2879SOL    HW311283   2.763   2.564   5.984 -1.5367  2.5403  0.3666
 2879SOL    MW411284   2.770   2.590   6.067  0.3237 -0.2870  1.2242
 2880SOL     OW11285   3.393   5.786   6.143  0.4689  0.8220 -0.4949
 2880SOL    HW211286   3.470   5.814   6.192  1.2747  0.1978 -1.3654
 2880SOL    HW311287   3.369   5.702   6.181 -0.7920  1.7204  0.8391
 2880SOL    MW411288   3.400   5.779   6.154  0.4088  0.8581 -0.4338
 2881SOL     OW11289   1.360   3.827   4.057 -0.5265 -0.5374 -0.0775
 2881SOL    HW211290   1.352   3.902   3.998 -0.3276 -0.9580 -0.6498
 2881SOL    HW311291   1.270   3.795   4.068 -0.4586 -1.0215 -0.9007
 2881SOL    MW411292   1.347   3.833   4.051 -0.4913 -0.6567 -0.2616
 2882SOL     OW11293   4.462   5.384   4.390 -0.2595 -0.1139  0.1148
 2882SOL    HW211294   4.374   5.421   4.385 -0.2267 -0.1168 -0.4765
 2882SOL    HW311295   4.520   5.455   4.361 -0.1563 -0.4625 -0.5327
 2882SOL    MW411296   4.458   5.398   4.386 -0.2416 -0.1603 -0.0486
 2883SOL     OW11297   1.203   4.253   4.243 -0.3154 -0.1111  0.0078
 2883SOL    HW211298   1.166   4.256   4.331  1.3553 -0.6890  0.7777
 2883SOL    HW311299   1.143   4.198   4.193 -1.0796 -0.0957  0.8820
 2883SOL    MW411300   1.190   4.246   4.248 -0.1958 -0.1853  0.2248
 2884SOL     OW11301   4.439   4.597   2.148 -0.2848  0.3901 -0.2129
 2884SOL    HW211302   4.416   4.567   2.060 -1.7678  0.1660  0.2234
 2884SOL    HW311303   4.365   4.570   2.202  1.8170 -2.0489  1.6935
 2884SOL    MW411304   4.427   4.589   2.143 -0.2031  0.0388  0.0962
 2885SOL     OW11305   3.199   2.077   0.853 -0.4392 -0.7558  0.3134
 2885SOL    HW211306   3.117   2.030   0.841 -1.0987  0.1366  1.1441
 2885SOL    HW311307   3.220   2.112   0.766 -0.8195 -1.1842  0.0493
 2885SOL    MW411308   3.191   2.076   0.840 -0.5764 -0.6946  0.3882
 2886SOL     OW11309   0.892   4.897   6.405 -0.1951  0.7583 -0.3780
 2886SOL    HW211310   0.841   4.831   6.451  0.5169  1.0901  0.9485
 2886SOL    HW311311   0.983   4.874   6.423  0.0983  1.1594 -1.2783
 2886SOL    MW411312   0.897   4.885   6.413 -0.0624  0.8550 -0.3218
 2887SOL     OW11313   2.491   0.752   3.774 -0.0944  0.2485 -0.0748
 2887SOL    HW211314   2.412   0.803   3.759 -1.0771 -1.0918  0.3148
 2887SOL    HW311315   2.477   0.670   3.726 -0.4784 -1.4100  2.6310
 2887SOL    MW411316   2.479   0.748   3.766 -0.2747 -0.1471  0.3336
 2888SOL     OW11317   0.677   1.124   3.325 -0.2222 -0.2687 -0.1403
 2888SOL    HW211318   0.644   1.150   3.239 -1.0633 -1.1676 -0.1000
 2888SOL    HW311319   0.630   1.180   3.386  1.0785  1.0605 -0.2850
 2888SOL    MW411320   0.667   1.135   3.321 -0.1616 -0.2119 -0.1541
 2889SOL     OW11321   4.032   3.883   5.225 -0.1864  0.0713  0.0759
 2889SOL    HW211322   4.069   3.844   5.304 -0.2120 -0.0249  0.0404
 2889SOL    HW311323   4.048   3.976   5.235  0.9899 -0.0692 -0.4236
 2889SOL    MW411324   4.039   3.890   5.237 -0.0346  0.0401  0.0053
 2890SOL     OW11325   5.254   4.194   1.531  0.2674 -0.1771 -0.2039
 2890SOL    HW211326   5.267   4.112   1.579  0.9670 -1.0515 -1.7846
 2890SOL    HW311327   5.165   4.189   1.498  0.7126 -0.9409 -1.3636
 2890SOL    MW411328   5.244   4.182   1.533  0.4184 -0.3933 -0.5654
 2891SOL     OW11329   0.380   1.514   3.923 -0.9673 -0.3212 -0.0772
 2891SOL    HW211330   0.356   1.426   3.951  0.6886 -0.4924  0.9230
 2891SOL    HW311331   0.373   1.567   4.003 -1.2290  0.2991 -0.5071
 2891SOL    MW411332   0.376   1.510   3.938 -0.7834 -0.2619 -0.0020
 2892SOL     OW11333   4.126   3.875   1.691 -0.3030  0.4170 -0.7922
 2892SOL    HW211334   4.173   3.913   1.765 -0.9388 -0.5378  0.1172
 2892SOL    HW311335   4.169   3.791   1.676 -0.2624  0.5472 -1.4317
 2892SOL    MW411336   4.138   3.869   1.699 -0.3815  0.3082 -0.7566
 2893SOL     OW11337   0.726   3.736   5.415 -0.0258  0.5367  0.1930
 2893SOL    HW211338   0.684   3.722   5.330 -2.9374 -0.7860  1.7411
 2893SOL    HW311339   0.745   3.830   5.416  0.9626  0.4487 -2.2307
 2893SOL    MW411340   0.723   3.747   5.404 -0.2795  0.3506  0.0775
 2894SOL     OW11341   5.100   5.071   3.545 -0.1598 -0.3697 -0.5823
 2894SOL    HW211342   5.132   5.004   3.605  1.1712  1.0110  0.3151
 2894SOL    HW311343   5.158   5.146   3.560 -1.0465  0.6832 -2.1842
 2894SOL    MW411344   5.112   5.072   3.555 -0.1012 -0.0486 -0.6752
 2895SOL     OW11345   1.157   5.832   3.648  0.3523 -0.0435  0.1715
 2895SOL    HW211346   1.105   5.817   3.569  0.3633 -1.7969  0.4679
 2895SOL    HW311347   1.248   5.822   3.620  0.3696 -0.3455  0.3269
 2895SOL    MW411348   1.162   5.829   3.634  0.3561 -0.3146  0.2311
 2896SOL     OW11349   4.806   5.638   3.540  0.3705  0.5137  0.1712
 2896SOL    HW211350   4.808   5.583   3.618  2.0203 -0.7130 -0.6675
 2896SOL    HW311351   4.825   5.726   3.572 -1.2295  0.4495  1.4055
 2896SOL    MW411352   4.809   5.642   3.554  0.3771  0.3434  0.2234
 2897SOL     OW11353   1.860   3.953   0.356 -0.5092 -0.2278 -0.4385
 2897SOL    HW211354   1.855   3.928   0.448  1.3498 -1.6434 -0.6542
 2897SOL    HW311355   1.773   3.988   0.336 -0.9480  0.1836  1.8447
 2897SOL    MW411356   1.848   3.954   0.366 -0.3218 -0.3603 -0.1658
 2898SOL     OW11357   1.494   2.923   3.610 -0.2239 -0.0601 -0.0929
 2898SOL    HW211358   1.519   2.830   3.615 -0.1354 -0.1088 -1.2279
 2898SOL    HW311359   1.405   2.925   3.645 -1.7773 -1.2595 -3.5164
 2898SOL    MW411360   1.485   2.911   3.616 -0.4171 -0.2248 -0.6943
 2899SOL     OW11361   3.231   3.237   1.580  0.2470 -0.1878 -0.3060
 2899SOL    HW211362   3.153   3.192   1.546 -0.6724 -0.4731  2.0138
 2899SOL    HW311363   3.265   3.178   1.647  0.9077  1.1333  0.5562
 2899SOL    MW411364   3.225   3.223   1.584  0.2129 -0.0512  0.1138
 2900SOL     OW11365   0.564   2.678   4.194 -0.1026  0.4617  0.0064
 2900SOL    HW211366   0.648   2.718   4.217 -0.2543  0.4533  0.5795
 2900SOL    HW311367   0.585   2.586   4.179 -0.1488  0.2831  0.9945
 2900SOL    MW411368   0.578   2.671   4.195 -0.1287  0.4370  0.2124
 2901SOL     OW11369   0.753   5.287   3.814 -0.1987 -0.2294  0.1921
 2901SOL    HW211370   0.764   5.359   3.875 -0.9908  0.2621 -0.2335
 2901SOL    HW311371   0.683   5.233   3.853 -0.9125  0.2436 -0.4127
 2901SOL    MW411372   0.745   5.289   3.827 -0.3974 -0.1021  0.0562
 2902SOL     OW11373   2.290   3.167   2.304 -0.6340  0.0161  0.3507
 2902SOL    HW211374   2.256   3.251   2.271 -0.4878 -0.2839 -0.5925
 2902SOL    HW311375   2.381   3.186   2.327 -0.3109 -0.0854 -0.7526
 2902SOL    MW411376   2.298   3.181   2.302 -0.5721 -0.0369  0.0807
 2903SOL     OW11377   2.169   4.101   4.341  0.3481 -0.4287 -0.2698
 2903SOL    HW211378   2.151   4.181   4.390 -2.4290 -1.4922  0.6461
 2903SOL    HW311379   2.117   4.110   4.261  0.1407 -1.2311 -0.2376
 2903SOL    MW411380   2.160   4.112   4.337 -0.0457 -0.6749 -0.1447
 2904SOL     OW11381   6.330   5.491   6.127 -0.3808 -0.1126 -0.0460
 2904SOL    HW211382   6.302   5.505   6.217 -0.4081 -0.8537  0.0661
 2904SOL    HW311383   6.406   5.549   6.117 -0.6734  0.3382  0.2955
 2904SOL    MW411384   6.337   5.501   6.138 -0.4230 -0.1509  0.0139
 2905SOL     OW11385   4.653   3.403   6.382  0.4489  0.3469 -0.4096
 2905SOL    HW211386   4.612   3.488   6.397 -0.5304 -0.4695  1.8846
 2905SOL    HW311387   4.743   3.414   6.411  0.5294  0.7843 -0.8115
 2905SOL    MW411388   4.660   3.416   6.388  0.3303  0.2969 -0.1599
 2906SOL     OW11389   2.749   4.048   5.529  0.1303 -0.1041  0.0033
 2906SOL    HW211390   2.666   4.028   5.485 -0.7343  0.3476  1.3746
 2906SOL    HW311391   2.763   4.141   5.511 -0.7100  0.3218  1.3959
 2906SOL    MW411392   2.739   4.057   5.521 -0.0946  0.0117  0.3679
 2907SOL     OW11393   4.869   1.944   0.911  0.7081 -0.3703 -0.0717
 2907SOL    HW211394   4.854   1.995   0.990 -1.2260 -1.7163  0.4966
 2907SOL    HW311395   4.952   1.977   0.877 -1.0358  4.1819 -0.6261
 2907SOL    MW411396   4.878   1.955   0.917  0.2228  0.0527 -0.0698
 2908SOL     OW11397   5.039   0.472   2.049 -0.0160  0.4208  0.1297
 2908SOL    HW211398   4.971   0.410   2.078 -0.5125  1.2773  0.8511
 2908SOL    HW311399   4.992   0.535   1.995  0.3838  0.4822 -0.1458
 2908SOL    MW411400   5.024   0.472   2.046 -0.0287  0.5419  0.1886
 2909SOL     OW11401   1.581   5.462   1.432  0.0351 -0.1567  0.6976
 2909SOL    HW211402   1.585   5.417   1.347  1.9637  1.4515 -0.1446
 2909SOL    HW311403   1.666   5.504   1.440 -0.9195  1.5748  2.4214
 2909SOL    MW411404   1.593   5.461   1.422  0.1636  0.2839  0.8139
 2910SOL     OW11405   1.371   4.270   3.826  0.0371 -0.1417 -0.1874
 2910SOL    HW211406   1.333   4.186   3.849 -0.8921 -0.4386 -2.4717
 2910SOL    HW311407   1.296   4.325   3.804  0.7201 -0.0936 -2.7940
 2910SOL    MW411408   1.356   4.266   3.826  0.0046 -0.1745 -0.8327
 2911SOL     OW11409   0.254   4.896   3.600 -0.1413  0.3672  0.0340
 2911SOL    HW211410   0.289   4.968   3.548 -0.2883  0.4427  0.0380
 2911SOL    HW311411   0.169   4.876   3.560  0.2526 -0.3463 -0.4714
 2911SOL    MW411412   0.247   4.903   3.588 -0.1087  0.2830 -0.0322
 2912SOL     OW11413   5.036   2.438   3.124  0.0387 -0.0004  0.3004
 2912SOL    HW211414   5.048   2.488   3.043 -2.8208  0.2019 -0.0880
 2912SOL    HW311415   5.090   2.484   3.188  2.5165 -0.2544 -1.4411
 2912SOL    MW411416   5.045   2.451   3.121 -0.0117 -0.0072  0.0194
 2913SOL     OW11417   4.810   5.327   4.248  0.0871  0.3104 -0.8947
 2913SOL    HW211418   4.785   5.235   4.257  1.5249  0.0619  0.9521
 2913SOL    HW311419   4.902   5.324   4.223  0.8513  1.2061  1.5790
 2913SOL    MW411420   4.818   5.314   4.246  0.3776  0.3958 -0.3247
 2914SOL     OW11421   2.740   2.651   4.955 -0.0613 -0.3759 -0.0212
 2914SOL    HW211422   2.728   2.690   4.868 -0.3335 -2.0809 -0.7766
 2914SOL    HW311423   2.666   2.592   4.967 -0.7726  0.8003  1.9816
 2914SOL    MW411424   2.729   2.649   4.945 -0.1911 -0.4456  0.1434
 2915SOL     OW11425   5.083   1.797   0.418  0.0518 -0.3658  0.4231
 2915SOL    HW211426   5.103   1.784   0.511  1.9549  0.4839  0.1770
 2915SOL    HW311427   5.004   1.850   0.418  0.6487  0.5756  1.6032
 2915SOL    MW411428   5.075   1.802   0.431  0.3817 -0.1295  0.5463
 2916SOL     OW11429   3.395   1.810   5.463  0.3313 -0.1486  0.0084
 2916SOL    HW211430   3.356   1.774   5.542 -0.5994  0.6047 -0.0885
 2916SOL    HW311431   3.340   1.779   5.392  1.8575 -1.8243 -0.5142
 2916SOL    MW411432   3.383   1.801   5.464  0.4099 -0.2703 -0.0734
 2917SOL     OW11433   5.457   1.937   2.178  0.2384  0.3527  0.2003
 2917SOL    HW211434   5.471   1.887   2.258  0.5605 -0.1590 -0.1635
 2917SOL    HW311435   5.389   2.000   2.200 -1.1676 -1.1238  0.3254
 2917SOL    MW411436   5.450   1.939   2.191  0.0954  0.0904  0.1688
 2918SOL     OW11437   0.800   4.180   3.283  0.0013  0.2182  0.1543
 2918SOL    HW211438   0.775   4.205   3.194 -2.7270 -0.2543  0.7211
 2918SOL    HW311439   0.835   4.260   3.322  2.2685  0.1926 -1.6020
 2918SOL    MW411440   0.802   4.194   3.276 -0.0596  0.1524 -0.0026
 2919SOL     OW11441   4.346   5.038   5.712 -0.5431  0.4610 -0.1350
 2919SOL    HW211442   4.422   4.982   5.694 -1.1258 -0.1681 -0.6753
 2919SOL    HW311443   4.379   5.102   5.775  0.4135  0.1405 -0.2817
 2919SOL    MW411444   4.360   5.039   5.718 -0.4938  0.3357 -0.2256
 2920SOL     OW11445   2.702   3.238   0.227 -0.5130  0.2351 -0.2614
 2920SOL    HW211446   2.624   3.214   0.177 -0.7035 -2.0491  0.9692
 2920SOL    HW311447   2.691   3.193   0.311  1.5932  0.7943  0.3747
 2920SOL    MW411448   2.690   3.229   0.231 -0.2603  0.0075 -0.0151
 2921SOL     OW11449   5.678   5.537   2.632 -0.2824  0.1009 -0.0057
 2921SOL    HW211450   5.709   5.516   2.720  1.0530  2.3389  0.1557
 2921SOL    HW311451   5.666   5.632   2.633  0.4346  0.2937 -2.4167
 2921SOL    MW411452   5.681   5.547   2.644 -0.0116  0.4216 -0.3025
 2922SOL     OW11453   4.348   4.409   5.316  0.4965 -0.1535  0.2660
 2922SOL    HW211454   4.365   4.384   5.226 -0.1461 -0.4972  0.2306
 2922SOL    HW311455   4.422   4.465   5.340  1.6146 -1.4922  0.1082
 2922SOL    MW411456   4.360   4.413   5.308  0.5592 -0.3755  0.2405
 2923SOL     OW11457   1.970   4.106   4.123 -0.1849 -0.3563  0.3564
 2923SOL    HW211458   1.881   4.139   4.127  0.5872  1.7764  0.8153
 2923SOL    HW311459   1.998   4.122   4.032 -0.1265 -0.6423  0.3224
 2923SOL    MW411460   1.962   4.112   4.111 -0.0753 -0.1126  0.4125
 2924SOL     OW11461   2.419   5.062   0.747 -0.4587 -0.7096  0.1380
 2924SOL    HW211462   2.395   4.972   0.769 -0.9862 -0.9031 -1.1263
 2924SOL    HW311463   2.462   5.096   0.825 -1.0737 -1.7632  0.9497
 2924SOL    MW411464   2.422   5.055   0.760 -0.6095 -0.8742  0.0783
 2925SOL     OW11465   3.015   5.513   4.984  0.1614  0.4287 -0.0867
 2925SOL    HW211466   2.959   5.477   4.915  0.7340  0.2889 -0.4808
 2925SOL    HW311467   3.000   5.607   4.981  0.8839  0.5271 -1.0333
 2925SOL    MW411468   3.005   5.521   4.975  0.3323  0.4232 -0.2636
 2926SOL     OW11469   2.184   1.955   1.103  0.5758  0.3678 -0.2716
 2926SOL    HW211470   2.112   1.981   1.160 -0.4945 -0.8384 -1.0196
 2926SOL    HW311471   2.214   1.872   1.138  1.8363  0.9956  0.2050
 2926SOL    MW411472   2.178   1.948   1.115  0.6009  0.2915 -0.3074
 2927SOL     OW11473   4.504   0.157   4.484  0.0765 -0.0912 -0.8172
 2927SOL    HW211474   4.580   0.213   4.494  1.0138 -1.3776 -0.5302
 2927SOL    HW311475   4.436   0.215   4.449  0.4138  1.6577  1.1955
 2927SOL    MW411476   4.505   0.172   4.481  0.2447 -0.0302 -0.5138
 2928SOL     OW11477   5.053   4.169   0.160  0.1924 -0.3705  0.2106
 2928SOL    HW211478   4.993   4.243   0.167 -2.2890 -2.2995  1.1454
 2928SOL    HW311479   5.117   4.182   0.229 -0.3657  0.7554  0.5307
 2928SOL    MW411480   5.054   4.180   0.170 -0.2086 -0.4765  0.3762
 2929SOL     OW11481   6.080   1.745   1.298  0.0179 -0.1397 -0.3618
 2929SOL    HW211482   6.040   1.819   1.344 -0.5404 -0.4494 -0.3282
 2929SOL    HW311483   6.158   1.724   1.349 -0.6755 -0.5824  0.5774
 2929SOL    MW411484   6.085   1.752   1.311 -0.1473 -0.2390 -0.2335
 2930SOL     OW11485   1.677   0.198   3.284 -0.6098 -0.5621  0.0227
 2930SOL    HW211486   1.692   0.157   3.199  0.3993 -3.1423  1.2931
 2930SOL    HW311487   1.582   0.194   3.297 -0.5657 -3.0145  0.1891
 2930SOL    MW411488   1.667   0.192   3.275 -0.4709 -1.2261  0.2122
 2931SOL     OW11489   5.864   5.228   5.082 -0.1964 -0.0410  0.3222
 2931SOL    HW211490   5.790   5.277   5.047 -0.6505 -0.8566  0.1014
 2931SOL    HW311491   5.941   5.261   5.035 -0.5305  0.2635 -0.0075
 2931SOL    MW411492   5.865   5.239   5.072 -0.3004 -0.1085  0.2496
 2932SOL     OW11493   3.694   5.850   0.207  0.0842 -0.3293  0.0628
 2932SOL    HW211494   3.748   5.817   0.279  0.1152 -0.0528  0.1705
 2932SOL    HW311495   3.700   5.946   0.216  0.6530 -0.2807 -0.7296
 2932SOL    MW411496   3.702   5.859   0.218  0.1633 -0.2864 -0.0276
 2933SOL     OW11497   5.425   4.247   5.158  0.5718  0.2245 -0.3316
 2933SOL    HW211498   5.335   4.223   5.182  0.4254 -1.8492 -2.5106
 2933SOL    HW311499   5.419   4.269   5.065  1.7551  3.8134  0.2938
 2933SOL    MW411500   5.412   4.247   5.149  0.7086  0.4244 -0.5366
 2934SOL     OW11501   4.652   5.390   5.725 -0.0437 -0.5317  0.4885
 2934SOL    HW211502   4.572   5.408   5.774  0.9843 -0.3645  2.1745
 2934SOL    HW311503   4.676   5.474   5.686  0.0370 -0.2702  1.1003
 2934SOL    MW411504   4.645   5.403   5.726  0.1026 -0.4751  0.7916
 2935SOL     OW11505   4.205   2.699   2.888 -0.0340 -0.6177  0.0337
 2935SOL    HW211506   4.285   2.652   2.864 -0.9820 -1.4048 -1.7885
 2935SOL    HW311507   4.168   2.648   2.960 -0.0378 -1.6094 -0.6381
 2935SOL    MW411508   4.211   2.686   2.894 -0.1596 -0.8524 -0.2954
 2936SOL     OW11509   2.262   4.361   4.187 -0.0339  0.3013  0.0943
 2936SOL    HW211510   2.171   4.391   4.191 -0.1691 -0.2270  2.0423
 2936SOL    HW311511   2.273   4.330   4.097 -2.3191 -1.1330  0.2178
 2936SOL    MW411512   2.251   4.361   4.176 -0.3532  0.0424  0.3676
 2937SOL     OW11513   0.495   0.126   2.860  0.2209 -0.4815  0.4047
 2937SOL    HW211514   0.569   0.076   2.895 -0.7892 -1.7746  0.7491
 2937SOL    HW311515   0.450   0.065   2.801 -0.8781  0.1024  0.6107
 2937SOL    MW411516   0.499   0.111   2.857 -0.0574 -0.5751  0.4773
 2938SOL     OW11517   4.014   0.015   5.014 -0.2318 -0.1059 -0.1422
 2938SOL    HW211518   3.969  -0.030   4.942  0.0580 -0.4291 -0.1262
 2938SOL    HW311519   4.091   0.055   4.973  1.2118 -2.1781  0.3235
 2938SOL    MW411520   4.019   0.014   4.999 -0.0031 -0.4219 -0.0786
 2939SOL     OW11521   4.059   0.601   0.037  0.0847 -0.4869 -0.3533
 2939SOL    HW211522   3.982   0.594  -0.021 -0.3380  1.0858 -0.0232
 2939SOL    HW311523   4.122   0.653  -0.013 -0.7140  1.8713  0.9537
 2939SOL    MW411524   4.057   0.607   0.023 -0.0764  0.0317 -0.1373
 2940SOL     OW11525   3.287   3.374   0.079  0.1262  0.1008  0.2656
 2940SOL    HW211526   3.314   3.449   0.132  0.9559 -0.9472  1.4023
 2940SOL    HW311527   3.326   3.299   0.123  2.0232 -0.7503 -2.5668
 2940SOL    MW411528   3.296   3.374   0.092  0.4859 -0.1497  0.0419
 2941SOL     OW11529   4.934   5.395   5.488 -0.3347 -0.1490  0.1066
 2941SOL    HW211530   4.978   5.425   5.567 -1.6882 -1.4081  1.4009
 2941SOL    HW311531   4.854   5.354   5.519 -0.0160 -2.3931 -1.7794
 2941SOL    MW411532   4.929   5.394   5.502 -0.4712 -0.6112  0.0285
 2942SOL     OW11533   3.926   3.781   4.014  0.4499  0.3130 -0.2340
 2942SOL    HW211534   3.982   3.704   4.001 -0.3674 -0.5810  1.3263
 2942SOL    HW311535   3.856   3.770   3.949  0.5559 -0.0323 -0.2931
 2942SOL    MW411536   3.924   3.769   4.003  0.3561  0.1495 -0.0359
 2943SOL     OW11537   3.029   5.899   2.870  0.2352 -0.2426  0.0776
 2943SOL    HW211538   2.950   5.889   2.923 -0.2739  0.7054 -0.4665
 2943SOL    HW311539   2.998   5.891   2.780  0.5517  1.2824 -0.1892
 2943SOL    MW411540   3.015   5.896   2.865  0.2098  0.0837 -0.0294
 2944SOL     OW11541   3.749   0.850   4.252 -0.1418  0.6471 -0.2072
 2944SOL    HW211542   3.791   0.814   4.173 -0.0677 -0.4525  0.3156
 2944SOL    HW311543   3.658   0.864   4.226 -1.8743 -5.4108  1.0086
 2944SOL    MW411544   3.743   0.847   4.238 -0.3606 -0.2972  0.0222
 2945SOL     OW11545   6.177   3.126   4.987  0.4940 -0.3981 -0.3130
 2945SOL    HW211546   6.225   3.056   5.031 -0.3889 -1.1480 -0.5195
 2945SOL    HW311547   6.099   3.140   5.041  0.5026  0.2187 -0.4473
 2945SOL    MW411548   6.173   3.119   5.000  0.3786 -0.4156 -0.3580
 2946SOL     OW11549   6.277   6.189   0.922 -0.0672 -0.1172 -0.0537
 2946SOL    HW211550   6.205   6.163   0.864 -0.6994  2.0379 -0.3568
 2946SOL    HW311551   6.253   6.278   0.950  2.5727  0.7760 -0.3496
 2946SOL    MW411552   6.264   6.198   0.918  0.1977  0.2850 -0.1327
 2947SOL     OW11553   5.022   0.658   2.239 -0.1448 -0.5043 -0.5224
 2947SOL    HW211554   5.055   0.588   2.183  0.3038 -0.7220  0.0005
 2947SOL    HW311555   4.959   0.705   2.185 -0.0584 -0.9910 -1.0519
 2947SOL    MW411556   5.018   0.655   2.225 -0.0742 -0.5973 -0.5233
 2948SOL     OW11557   5.640   6.245   6.081  0.7176  0.5489  0.0642
 2948SOL    HW211558   5.713   6.218   6.025  0.4322  2.8274 -1.5520
 2948SOL    HW311559   5.564   6.247   6.023 -0.1955  0.2260  1.2215
 2948SOL    MW411560   5.640   6.242   6.066  0.5594  0.8069  0.0036
 2949SOL     OW11561   4.621   0.122   2.009  0.1261 -0.2405  1.1031
 2949SOL    HW211562   4.703   0.073   2.016 -0.4799 -1.0674  3.0794
 2949SOL    HW311563   4.564   0.066   1.957 -0.1333 -1.0742  2.2519
 2949SOL    MW411564   4.625   0.108   2.003  0.0119 -0.4596  1.5154
 2950SOL     OW11565   5.321   0.101   3.548 -0.1242 -0.1589  0.0411
 2950SOL    HW211566   5.396   0.095   3.490 -0.3376  3.8737 -0.9668
 2950SOL    HW311567   5.284   0.188   3.531 -1.8448  0.2194  4.2885
 2950SOL    MW411568   5.326   0.112   3.538 -0.3794  0.4231  0.4685
 2951SOL     OW11569   2.417   5.034   0.181 -0.2293 -0.1313  0.1754
 2951SOL    HW211570   2.506   5.061   0.159 -0.8290  1.1590 -0.8696
 2951SOL    HW311571   2.420   5.013   0.274  1.0720  0.2693  0.2434
 2951SOL    MW411572   2.429   5.035   0.190 -0.1368  0.0918  0.0465
 2952SOL     OW11573   2.666   2.259   4.081 -0.6544  0.3251  0.8273
 2952SOL    HW211574   2.638   2.321   4.014 -0.8052 -0.5638  0.0425
 2952SOL    HW311575   2.762   2.264   4.080 -0.5759 -0.8670 -0.6449
 2952SOL    MW411576   2.675   2.268   4.072 -0.6639  0.0505  0.5295
 2953SOL     OW11577   5.793   2.796   1.275 -0.8779  1.4071  0.2357
 2953SOL    HW211578   5.783   2.891   1.268  0.8949  1.5512 -0.8059
 2953SOL    HW311579   5.874   2.777   1.229 -2.0507 -0.8386 -1.0402
 2953SOL    MW411580   5.803   2.806   1.268 -0.7987  1.1298 -0.0701
 2954SOL     OW11581   0.140   1.449   3.005 -0.7479 -0.5859 -0.0754
 2954SOL    HW211582   0.136   1.398   2.924 -0.3496  0.1686 -0.5861
 2954SOL    HW311583   0.055   1.437   3.046 -1.3789 -0.0757 -1.1809
 2954SOL    MW411584   0.128   1.441   3.000 -0.7786 -0.4190 -0.2886
 2955SOL     OW11585   1.938   2.622   3.476 -1.1501  0.2345 -0.3514
 2955SOL    HW211586   1.918   2.713   3.455 -0.8200  0.2862 -0.4442
 2955SOL    HW311587   2.015   2.627   3.532 -1.0193 -0.0001 -0.5111
 2955SOL    MW411588   1.945   2.635   3.481 -1.0893  0.2104 -0.3847
 2956SOL     OW11589   3.589   4.116   4.397 -0.2863  0.0788  0.6663
 2956SOL    HW211590   3.668   4.117   4.343 -0.0560  1.7257  0.9788
 2956SOL    HW311591   3.517   4.108   4.335  0.0523  0.2347  0.2544
 2956SOL    MW411592   3.590   4.115   4.382 -0.2113  0.3167  0.6532
 2957SOL     OW11593   5.582   5.598   4.722  0.0907  0.2665  0.6222
 2957SOL    HW211594   5.655   5.559   4.770  0.5783  0.2431 -0.1195
 2957SOL    HW311595   5.505   5.547   4.748  0.5321 -0.4539  0.5293
 2957SOL    MW411596   5.581   5.586   4.732  0.2132  0.1684  0.5121
 2958SOL     OW11597   6.094   3.713   4.116  0.3118  0.2369  0.7862
 2958SOL    HW211598   6.106   3.741   4.206  0.4528  1.9542  0.2692
 2958SOL    HW311599   6.181   3.723   4.076 -0.0498  0.8202  0.1241
 2958SOL    MW411600   6.107   3.718   4.123  0.2827  0.5404  0.6306
 2959SOL     OW11601   4.726   2.651   3.833  0.0505 -0.1205 -0.1778
 2959SOL    HW211602   4.766   2.645   3.746  0.1132 -0.5235 -0.1238
 2959SOL    HW311603   4.652   2.711   3.821  1.4088  1.6979  0.0097
 2959SOL    MW411604   4.721   2.658   3.820  0.2380  0.0663 -0.1459
 2960SOL     OW11605   1.855   4.353   5.694  0.0657  0.4257  1.1852
 2960SOL    HW211606   1.821   4.395   5.615  0.7101 -0.6610  0.2935
 2960SOL    HW311607   1.777   4.337   5.747 -0.6361 -0.4400 -0.0397
 2960SOL    MW411608   1.840   4.356   5.690  0.0581  0.1681  0.9059
 2961SOL     OW11609   3.208   4.467   6.327 -0.0186 -0.7256 -0.2616
 2961SOL    HW211610   3.189   4.504   6.413  3.3669 -1.9224  1.1941
 2961SOL    HW311611   3.211   4.543   6.268 -0.1888  0.4241  1.1544
 2961SOL    MW411612   3.206   4.482   6.330  0.4056 -0.7318  0.1173
 2962SOL     OW11613   1.887   2.782   2.684 -0.3265 -0.5309 -0.4946
 2962SOL    HW211614   1.913   2.840   2.612 -0.6039 -0.6808 -0.7165
 2962SOL    HW311615   1.969   2.763   2.729 -0.4456  1.3205  0.5659
 2962SOL    MW411616   1.902   2.787   2.680 -0.3788 -0.3064 -0.3840
 2963SOL     OW11617   3.914   0.366   4.921 -0.4654  0.5676  0.5519
 2963SOL    HW211618   3.907   0.300   4.990 -1.1716 -0.0379 -0.0865
 2963SOL    HW311619   3.827   0.368   4.881  0.0577  0.5898 -0.6086
 2963SOL    MW411620   3.901   0.358   4.925 -0.4896  0.4906  0.3146
 2964SOL     OW11621   3.839   0.264   6.367 -0.3459  0.3678 -0.2808
 2964SOL    HW211622   3.903   0.203   6.329 -1.6859 -1.9052  0.8981
 2964SOL    HW311623   3.853   0.257   6.462 -1.4222  0.8949 -0.0713
 2964SOL    MW411624   3.849   0.255   6.375 -0.6647  0.1375 -0.0976
 2965SOL     OW11625   2.228   3.444   1.372 -0.0611  0.1759 -0.0411
 2965SOL    HW211626   2.198   3.416   1.286 -0.8047 -0.3595  0.3843
 2965SOL    HW311627   2.156   3.423   1.431 -0.8600  3.2740  0.2893
 2965SOL    MW411628   2.215   3.438   1.369 -0.2646  0.5140  0.0586
 2966SOL     OW11629   0.266   5.345   0.736 -0.1960 -0.0560  0.3164
 2966SOL    HW211630   0.359   5.367   0.730 -0.2974 -0.0563 -2.1550
 2966SOL    HW311631   0.263   5.251   0.717 -0.8364  0.3522 -1.8316
 2966SOL    MW411632   0.278   5.335   0.733 -0.2939 -0.0022 -0.2931
 2967SOL     OW11633   5.724   4.088   1.803  0.5125 -0.1778  0.3318
 2967SOL    HW211634   5.678   4.161   1.762 -1.3374 -0.9306  0.9554
 2967SOL    HW311635   5.654   4.029   1.832  1.9122 -1.6994  0.7638
 2967SOL    MW411636   5.709   4.090   1.801  0.4531 -0.4779  0.4711
 2968SOL     OW11637   2.975   5.783   3.549  0.6170 -0.0876 -0.3486
 2968SOL    HW211638   3.051   5.841   3.549  0.2217  0.5098  1.4428
 2968SOL    HW311639   2.923   5.812   3.624 -1.1739 -0.7670 -1.2666
 2968SOL    MW411640   2.978   5.794   3.559  0.3286 -0.0984 -0.2333
 2969SOL     OW11641   1.986   4.665   5.255  0.1067 -0.1837 -0.8339
 2969SOL    HW211642   1.989   4.708   5.340  1.8849 -1.7589 -0.0224
 2969SOL    HW311643   2.049   4.712   5.201  1.5313 -1.2385 -0.1621
 2969SOL    MW411644   1.994   4.677   5.259  0.5293 -0.5307 -0.6382
 2970SOL     OW11645   5.710   5.993   5.235  0.0931 -0.4840 -0.2043
 2970SOL    HW211646   5.702   5.997   5.140  0.2948 -0.9405 -0.2462
 2970SOL    HW311647   5.667   5.911   5.259  0.1084 -0.4057  0.0875
 2970SOL    MW411648   5.703   5.983   5.226  0.1217 -0.5339 -0.1713
 2971SOL     OW11649   6.319   1.281   4.820 -0.1767 -0.2708 -0.2791
 2971SOL    HW211650   6.365   1.279   4.904  0.3870  2.6734 -0.4267
 2971SOL    HW311651   6.381   1.241   4.759  1.0800  1.0809  0.0433
 2971SOL    MW411652   6.334   1.275   4.823  0.0635  0.2960 -0.2560
 2972SOL     OW11653   4.931   1.722   4.527  0.3581 -0.7353  0.2805
 2972SOL    HW211654   4.932   1.765   4.612  1.3987 -1.2758  0.5611
 2972SOL    HW311655   4.863   1.655   4.535 -1.1195  0.6517 -0.0902
 2972SOL    MW411656   4.922   1.718   4.539  0.3004 -0.6236  0.2686
 2973SOL     OW11657   0.735   1.681   4.517 -0.2346  0.6277  0.1918
 2973SOL    HW211658   0.764   1.724   4.436 -0.4648  1.1079  0.3614
 2973SOL    HW311659   0.781   1.597   4.517 -1.8167 -0.3160 -1.4942
 2973SOL    MW411660   0.745   1.676   4.506 -0.4737  0.5666 -0.0083
 2974SOL     OW11661   2.039   1.774   5.795 -0.3214  0.1441  0.1204
 2974SOL    HW211662   1.984   1.810   5.725  0.2752  0.5094 -0.1763
 2974SOL    HW311663   2.050   1.682   5.772 -0.1359  0.2595 -0.2755
 2974SOL    MW411664   2.033   1.767   5.783 -0.2182  0.2076  0.0290
 2975SOL     OW11665   2.407   3.571   0.876  0.5107  0.6358 -0.2946
 2975SOL    HW211666   2.321   3.532   0.862  0.9168 -0.1565 -0.6403
 2975SOL    HW311667   2.400   3.659   0.839 -0.1388  0.5722 -0.3402
 2975SOL    MW411668   2.394   3.578   0.870  0.4786  0.5228 -0.3462
 2976SOL     OW11669   4.830   5.092   6.214 -0.2594  0.0051 -0.3793
 2976SOL    HW211670   4.766   5.042   6.265  0.3886 -2.0606 -1.4787
 2976SOL    HW311671   4.833   5.178   6.256 -2.7333 -0.2855  0.5103
 2976SOL    MW411672   4.822   5.097   6.226 -0.5003 -0.3058 -0.4070
 2977SOL     OW11673   5.894   1.210   5.411  0.6367 -0.2366 -0.0576
 2977SOL    HW211674   5.933   1.169   5.334  0.7684 -0.6243  0.2145
 2977SOL    HW311675   5.807   1.238   5.382  0.6937 -0.3595 -0.3514
 2977SOL    MW411676   5.888   1.209   5.397  0.6616 -0.3040 -0.0605
 2978SOL     OW11677   1.424   1.274   3.793 -0.0003  0.7727  0.2951
 2978SOL    HW211678   1.497   1.327   3.759  0.3062 -1.0375 -2.1825
 2978SOL    HW311679   1.466   1.211   3.851  0.0767  1.1654  0.6715
 2978SOL    MW411680   1.439   1.273   3.796  0.0503  0.5856  0.0179
 2979SOL     OW11681   2.927   2.696   0.951  0.0105  0.3274  0.0741
 2979SOL    HW211682   2.941   2.604   0.969 -0.6021  0.0068 -0.9584
 2979SOL    HW311683   3.007   2.724   0.906 -0.5501 -0.2203 -1.3398
 2979SOL    MW411684   2.939   2.688   0.947 -0.1443  0.2128 -0.2487
 2980SOL     OW11685   1.501   6.073   1.121  0.2260 -0.9286  0.4749
 2980SOL    HW211686   1.538   6.023   1.048  2.3812 -1.2618  1.7141
 2980SOL    HW311687   1.570   6.075   1.187 -0.9249  1.0583  1.7419
 2980SOL    MW411688   1.515   6.067   1.120  0.3585 -0.7104  0.8056
 2981SOL     OW11689   3.286   1.198   5.143 -0.4265 -0.9424  0.0414
 2981SOL    HW211690   3.375   1.232   5.129 -0.0541 -1.9249 -0.0631
 2981SOL    HW311691   3.286   1.113   5.099 -0.7294 -1.9574  1.9172
 2981SOL    MW411692   3.298   1.191   5.135 -0.4173 -1.2059  0.2751
 2982SOL     OW11693   2.626   5.399   2.490  0.3865 -0.3119  0.1033
 2982SOL    HW211694   2.651   5.485   2.455 -0.7851  0.7590  1.7349
 2982SOL    HW311695   2.696   5.378   2.552  0.5254 -0.4012 -0.0828
 2982SOL    MW411696   2.639   5.408   2.493  0.2502 -0.1824  0.2940
 2983SOL     OW11697   2.342   2.035   3.233 -0.2232 -0.2226 -0.9333
 2983SOL    HW211698   2.426   2.075   3.255 -0.0656 -0.7529 -0.5525
 2983SOL    HW311699   2.278   2.079   3.290 -0.2072  0.1861 -1.2297
 2983SOL    MW411700   2.344   2.046   3.243 -0.2003 -0.2386 -0.9222
 2984SOL     OW11701   3.153   1.820   5.102 -0.5694 -0.0558 -0.4616
 2984SOL    HW211702   3.068   1.778   5.119 -0.4395 -1.0419 -2.0775
 2984SOL    HW311703   3.215   1.768   5.153 -0.7183 -0.3558 -0.5832
 2984SOL    MW411704   3.150   1.807   5.111 -0.5719 -0.2255 -0.6908
 2985SOL     OW11705   6.237   2.627   3.298 -0.5407  0.3973  0.3888
 2985SOL    HW211706   6.276   2.639   3.212 -1.7947 -1.1454 -0.4489
 2985SOL    HW311707   6.143   2.638   3.284 -0.6779  1.5422  1.8700
 2985SOL    MW411708   6.230   2.630   3.285 -0.7242  0.3448  0.4737
 2986SOL     OW11709   2.303   6.198   2.426  0.4285  0.0393 -0.2657
 2986SOL    HW211710   2.303   6.189   2.331 -1.1767  0.5419 -0.3542
 2986SOL    HW311711   2.291   6.292   2.441 -0.8983 -0.2016  0.3842
 2986SOL    MW411712   2.301   6.209   2.415  0.0417  0.0739 -0.1917
 2987SOL     OW11713   6.270   1.126   2.879  0.4751  0.1876 -0.0904
 2987SOL    HW211714   6.237   1.205   2.922  0.7916  0.6124 -0.6200
 2987SOL    HW311715   6.338   1.093   2.938  0.1052  0.1071  0.3003
 2987SOL    MW411716   6.275   1.132   2.893  0.4680  0.2330 -0.1088
 2988SOL     OW11717   1.167   5.054   0.245 -0.6553  0.6282  0.1069
 2988SOL    HW211718   1.174   5.068   0.340  1.3001  2.7920 -0.2766
 2988SOL    HW311719   1.146   5.140   0.209  1.0514  0.4007 -1.5956
 2988SOL    MW411720   1.165   5.067   0.253 -0.1721  0.8837 -0.1684
 2989SOL     OW11721   2.618   4.483   3.351  0.0857 -0.4953  0.5371
 2989SOL    HW211722   2.563   4.420   3.304  0.0729 -0.2933  0.2786
 2989SOL    HW311723   2.686   4.507   3.288 -1.0775  1.3195 -0.1327
 2989SOL    MW411724   2.619   4.478   3.337 -0.0694 -0.2292  0.4146
 2990SOL     OW11725   5.587   4.284   1.660 -0.2687  0.0068  0.0472
 2990SOL    HW211726   5.526   4.347   1.699 -2.0605 -1.6133 -0.0279
 2990SOL    HW311727   5.532   4.213   1.627  1.5566 -0.8651 -1.3343
 2990SOL    MW411728   5.572   4.283   1.661 -0.2643 -0.3220 -0.1450
 2991SOL     OW11729   1.463   1.846   5.409  0.7317  0.0019 -0.3916
 2991SOL    HW211730   1.515   1.926   5.397  0.1947  0.1470 -1.9224
 2991SOL    HW311731   1.515   1.777   5.367  2.6279 -1.1496  3.3913
 2991SOL    MW411732   1.477   1.848   5.402  0.9110 -0.1309 -0.0945
 2992SOL     OW11733   0.852   5.860   2.183  0.6346 -0.5014  0.0555
 2992SOL    HW211734   0.844   5.764   2.191  0.7462 -0.4552  0.7775
 2992SOL    HW311735   0.926   5.873   2.124  2.3789 -0.8722  2.0214
 2992SOL    MW411736   0.861   5.849   2.177  0.8795 -0.5443  0.4102
 2993SOL     OW11737   6.345   5.066   1.936 -0.2412  0.2962  0.1420
 2993SOL    HW211738   6.439   5.086   1.941 -0.2347  0.4016 -0.3509
 2993SOL    HW311739   6.303   5.137   1.983 -0.0218 -0.2783  1.2584
 2993SOL    MW411740   6.352   5.078   1.943 -0.2114  0.2343  0.2242
 2994SOL     OW11741   1.760   0.241   4.133 -0.4121  0.8265 -0.1473
 2994SOL    HW211742   1.831   0.300   4.107  0.7694 -0.0042  1.0728
 2994SOL    HW311743   1.804   0.169   4.178 -2.0143  0.1203  0.3510
 2994SOL    MW411744   1.775   0.240   4.136 -0.4676  0.6237  0.0794
 2995SOL     OW11745   3.849   3.682   3.535  0.0985  0.2868  0.5042
 2995SOL    HW211746   3.788   3.686   3.461  0.9936  1.6585 -0.1996
 2995SOL    HW311747   3.836   3.766   3.580 -0.6805 -0.6623  2.1441
 2995SOL    MW411748   3.839   3.694   3.531  0.1138  0.3425  0.6277
 2996SOL     OW11749   4.214   1.607   2.689  0.1342 -0.1802 -0.1516
 2996SOL    HW211750   4.246   1.687   2.730 -0.5004  0.5814 -1.0822
 2996SOL    HW311751   4.197   1.632   2.598 -1.6451 -0.9192 -0.0678
 2996SOL    MW411752   4.216   1.621   2.683 -0.1843 -0.1772 -0.2634
 2997SOL     OW11753   3.500   3.943   6.371  0.0865 -0.2793  0.4182
 2997SOL    HW211754   3.420   3.895   6.391  0.1171  0.0217  1.3052
 2997SOL    HW311755   3.469   4.028   6.340  0.0329  0.8953  3.4321
 2997SOL    MW411756   3.486   3.948   6.369  0.0835 -0.0846  0.9329
 2998SOL     OW11757   2.686   0.673   2.460 -0.0549  0.2766  0.0619
 2998SOL    HW211758   2.645   0.758   2.477 -1.7018 -0.4746 -0.0371
 2998SOL    HW311759   2.776   0.695   2.437 -0.0750  1.9030  1.3280
 2998SOL    MW411760   2.693   0.687   2.459 -0.2748  0.3920  0.2159
 2999SOL     OW11761   4.556   4.232   4.247 -0.0216  0.2585  0.0454
 2999SOL    HW211762   4.500   4.304   4.277 -0.8297 -0.5690  0.6043
 2999SOL    HW311763   4.503   4.153   4.262  1.1845 -0.5316  0.3103
 2999SOL    MW411764   4.542   4.231   4.253  0.0309  0.0451  0.1541
 3000SOL     OW11765   1.859   6.307   1.278  0.4986  0.3159 -0.5745
 3000SOL    HW211766   1.795   6.379   1.277 -0.2655 -0.3229  0.2940
 3000SOL    HW311767   1.808   6.230   1.303  0.8138 -1.0448 -3.6025
 3000SOL    MW411768   1.844   6.307   1.281  0.4394  0.0521 -0.8594
 3001SOL     OW11769   2.323   2.317   1.863 -0.5689 -0.2396  0.5074
 3001SOL    HW211770   2.365   2.345   1.782  1.0886 -0.8041  1.1185
 3001SOL    HW311771   2.264   2.389   1.886 -1.0779 -0.0852 -1.1730
 3001SOL    MW411772   2.321   2.330   1.856 -0.4174 -0.2937  0.3663
 3002SOL     OW11773   1.229   4.047   6.413  0.0933 -0.0961  0.2661
 3002SOL    HW211774   1.169   4.114   6.380 -0.9516 -1.1440 -0.0447
 3002SOL    HW311775   1.178   3.966   6.411 -0.1562 -0.3036  4.5116
 3002SOL    MW411776   1.214   4.045   6.408 -0.0775 -0.2617  0.7853
 3003SOL     OW11777   3.887   4.548   5.851 -0.2638  0.0651  0.0561
 3003SOL    HW211778   3.954   4.593   5.903  1.5270  0.7115 -2.6080
 3003SOL    HW311779   3.919   4.458   5.844  0.1173  0.2607 -0.8344
 3003SOL    MW411780   3.900   4.542   5.857  0.0227  0.1762 -0.4129
 3004SOL     OW11781   1.839   4.350   1.053  0.0304  0.4612 -0.4571
 3004SOL    HW211782   1.903   4.361   1.124 -0.6342  2.1750 -0.0823
 3004SOL    HW311783   1.879   4.392   0.977  0.3121 -0.5027 -0.8600
 3004SOL    MW411784   1.853   4.357   1.053 -0.0201  0.5602 -0.4608
 3005SOL     OW11785   5.244   6.022   1.718 -0.3000 -0.5891  0.3981
 3005SOL    HW211786   5.239   5.946   1.659 -2.3358 -0.2890  0.1036
 3005SOL    HW311787   5.317   6.073   1.685 -0.6980 -0.9971 -1.2030
 3005SOL    MW411788   5.253   6.019   1.706 -0.6211 -0.6033  0.1480
 3006SOL     OW11789   4.448   3.478   3.626 -0.2609  0.5957 -0.1774
 3006SOL    HW211790   4.363   3.434   3.628 -0.4081  0.8154 -1.0962
 3006SOL    HW311791   4.453   3.524   3.710 -1.0767  0.6235 -0.1327
 3006SOL    MW411792   4.437   3.478   3.637 -0.3879  0.6284 -0.2927
 3007SOL     OW11793   2.143   2.399   6.259  0.2769  0.1445  0.8141
 3007SOL    HW211794   2.067   2.413   6.202  0.8857 -0.1761 -0.1124
 3007SOL    HW311795   2.118   2.326   6.316 -0.2375  0.2687  0.7468
 3007SOL    MW411796   2.130   2.391   6.259  0.2894  0.1186  0.6830
 3008SOL     OW11797   2.748   2.216   0.422  0.6593 -0.4096  0.8978
 3008SOL    HW211798   2.733   2.259   0.506 -0.2958  0.9738  0.0625
 3008SOL    HW311799   2.817   2.269   0.381  0.9024 -0.8985  0.6699
 3008SOL    MW411800   2.755   2.229   0.428  0.5653 -0.2916  0.7575
 3009SOL     OW11801   0.976   1.319   1.163  0.1866 -0.0694 -0.2593
 3009SOL    HW211802   0.920   1.241   1.168 -1.6707  1.2106 -0.2939
 3009SOL    HW311803   1.026   1.318   1.245 -0.0986 -1.0645 -0.0777
 3009SOL    MW411804   0.975   1.308   1.174 -0.0961 -0.0318 -0.2399
 3010SOL     OW11805   3.077   4.698   0.614 -0.1659  0.3491  0.1481
 3010SOL    HW211806   3.096   4.767   0.677  0.0853 -0.2003  0.6888
 3010SOL    HW311807   2.983   4.680   0.624 -0.4397  1.2426 -0.6567
 3010SOL    MW411808   3.067   4.704   0.623 -0.1689  0.3945  0.1133
 3011SOL     OW11809   3.636   2.525   0.037 -0.3138 -0.4684  0.0176
 3011SOL    HW211810   3.688   2.467  -0.017 -1.5261 -0.1122 -1.6199
 3011SOL    HW311811   3.650   2.612   0.001 -0.8045 -0.1535  0.5517
 3011SOL    MW411812   3.644   2.529   0.025 -0.5385 -0.3799 -0.1280
 3012SOL     OW11813   5.134   3.423   0.867 -0.0349  0.1196  0.3722
 3012SOL    HW211814   5.070   3.374   0.918  1.5560 -1.1609  1.2213
 3012SOL    HW311815   5.122   3.514   0.893 -0.6538 -0.2640  1.4650
 3012SOL    MW411816   5.124   3.428   0.877  0.0933 -0.1000  0.6284
 3013SOL     OW11817   4.495   5.838   0.658 -0.1990 -0.0972 -0.1019
 3013SOL    HW211818   4.498   5.933   0.649  2.5425  0.1596  2.1244
 3013SOL    HW311819   4.419   5.821   0.714 -1.5427  0.6051 -1.6720
 3013SOL    MW411820   4.486   5.848   0.665 -0.0146  0.0293 -0.0153
 3014SOL     OW11821   4.865   2.711   0.764 -0.0904 -0.1524 -0.3855
 3014SOL    HW211822   4.942   2.678   0.717  0.9877 -0.2316  1.3359
 3014SOL    HW311823   4.839   2.790   0.715  2.3685  1.0673  0.0935
 3014SOL    MW411824   4.872   2.717   0.751  0.3763 -0.0019 -0.0952
 3015SOL     OW11825   0.746   1.078   4.213  0.1522  1.1715  0.1659
 3015SOL    HW211826   0.676   1.118   4.265 -0.5408  0.9308 -0.5626
 3015SOL    HW311827   0.721   1.094   4.122  0.7864  0.6462 -0.1101
 3015SOL    MW411828   0.733   1.085   4.208  0.1445  1.0704  0.0334
 3016SOL     OW11829   1.304   0.065   3.851  0.3979 -0.0534 -0.4592
 3016SOL    HW211830   1.329  -0.009   3.907  0.7013 -0.8112 -1.5618
 3016SOL    HW311831   1.237   0.029   3.793  1.1447  0.2946 -1.5654
 3016SOL    MW411832   1.299   0.050   3.851  0.5365 -0.1075 -0.7506
 3017SOL     OW11833   3.216  -0.006   1.222  0.5056 -0.2102  0.2710
 3017SOL    HW211834   3.154   0.067   1.231 -0.2604 -0.7835 -0.1943
 3017SOL    HW311835   3.262  -0.010   1.306  1.5849  1.7040 -0.1588
 3017SOL    MW411836   3.214   0.003   1.234  0.5469 -0.0333  0.1529
 3018SOL     OW11837   5.905   1.433   6.023 -0.6145 -0.5302  0.1112
 3018SOL    HW211838   5.991   1.403   5.996  0.0473  2.2013 -1.2230
 3018SOL    HW311839   5.853   1.434   5.942 -1.4357 -0.6844  0.6200
 3018SOL    MW411840   5.910   1.429   6.009 -0.6355 -0.1902  0.0023
 3019SOL     OW11841   4.578   5.117   2.510 -0.1168 -0.3315 -0.4956
 3019SOL    HW211842   4.568   5.212   2.497  0.8221 -0.1296  0.1740
 3019SOL    HW311843   4.491   5.087   2.536 -0.1656  0.5346  0.4014
 3019SOL    MW411844   4.565   5.126   2.511  0.0006 -0.1906 -0.2889
 3020SOL     OW11845   5.042   3.192   6.327 -0.0097 -0.1125 -0.3401
 3020SOL    HW211846   5.100   3.268   6.332  1.0151 -0.9585  1.1656
 3020SOL    HW311847   4.970   3.212   6.386 -1.0095  0.6770 -1.7567
 3020SOL    MW411848   5.040   3.204   6.335 -0.0064 -0.1199 -0.3283
 3021SOL     OW11849   1.465   3.918   3.506  0.3221 -0.4297 -0.2297
 3021SOL    HW211850   1.492   4.002   3.543 -0.3784  0.1334 -0.9491
 3021SOL    HW311851   1.396   3.888   3.565  0.1397 -0.1889 -0.3154
 3021SOL    MW411852   1.459   3.925   3.519  0.2056 -0.3236 -0.3359
 3022SOL     OW11853   5.756   0.498   5.455 -0.5979  0.2042 -0.3311
 3022SOL    HW211854   5.758   0.523   5.362 -1.6316  1.6283 -0.0028
 3022SOL    HW311855   5.666   0.470   5.470 -0.1286 -1.1893 -0.0218
 3022SOL    MW411856   5.745   0.498   5.444 -0.6724  0.2082 -0.2469
 3023SOL     OW11857   6.181   2.636   4.054 -0.0269  0.0883  0.1165
 3023SOL    HW211858   6.260   2.586   4.033  1.1309  1.3447  1.2930
 3023SOL    HW311859   6.192   2.720   4.008 -0.9879  0.0516 -0.2126
 3023SOL    MW411860   6.193   2.641   4.045 -0.0010  0.2493  0.2283
 3024SOL     OW11861   5.505   1.677   4.371  0.1872 -0.2057  0.2337
 3024SOL    HW211862   5.517   1.770   4.392  0.0491 -0.4573  1.5538
 3024SOL    HW311863   5.451   1.643   4.443  1.1385 -1.5291  0.3757
 3024SOL    MW411864   5.499   1.685   4.384  0.2945 -0.4135  0.4266
 3025SOL     OW11865   2.775   2.958   1.670 -0.3948  0.2897 -0.3262
 3025SOL    HW211866   2.868   2.959   1.694  0.0748  2.2053 -2.0477
 3025SOL    HW311867   2.742   3.043   1.699 -1.5286 -0.1955 -0.1501
 3025SOL    MW411868   2.783   2.969   1.677 -0.4825  0.4784 -0.5301
 3026SOL     OW11869   4.517   2.027   0.924 -0.2848 -0.0667 -0.1295
 3026SOL    HW211870   4.518   1.932   0.920 -1.0030 -0.1537  1.2171
 3026SOL    HW311871   4.571   2.055   0.850 -0.2148 -1.5036 -0.6483
 3026SOL    MW411872   4.524   2.018   0.913 -0.3703 -0.2678 -0.0203
 3027SOL     OW11873   0.333   1.318   2.239  0.1992  0.0626  0.1183
 3027SOL    HW211874   0.295   1.305   2.326 -1.7783  0.1349 -0.6692
 3027SOL    HW311875   0.398   1.249   2.230 -0.1509 -0.4471  1.3331
 3027SOL    MW411876   0.336   1.308   2.249 -0.1079  0.0049  0.1747
 3028SOL     OW11877   0.966   5.590   5.329  0.9647 -0.1708 -0.0638
 3028SOL    HW211878   1.022   5.606   5.405  2.6644 -0.2801 -1.2207
 3028SOL    HW311879   0.963   5.495   5.322 -0.8614 -0.2243  1.0019
 3028SOL    MW411880   0.973   5.580   5.338  0.9480 -0.1923 -0.0758
 3029SOL     OW11881   4.241   4.354   3.651  0.2302  0.1500 -0.0783
 3029SOL    HW211882   4.264   4.335   3.742 -0.0280 -2.6468 -0.4946
 3029SOL    HW311883   4.177   4.424   3.656  0.3358  0.1649  1.8755
 3029SOL    MW411884   4.236   4.360   3.663  0.2101 -0.2170  0.1245
 3030SOL     OW11885   2.478   2.510   0.689  0.2630 -0.0425  0.6211
 3030SOL    HW211886   2.444   2.584   0.739 -0.8351  0.4190 -0.7644
 3030SOL    HW311887   2.515   2.549   0.610 -1.2489 -1.0047 -0.6206
 3030SOL    MW411888   2.478   2.525   0.685 -0.0814 -0.1086  0.2745
 3031SOL     OW11889   0.419   5.871   5.225 -0.3622  0.4634  0.5126
 3031SOL    HW211890   0.340   5.851   5.174  0.9760  1.5288 -2.2043
 3031SOL    HW311891   0.444   5.959   5.196  2.5550 -0.3509  0.2150
 3031SOL    MW411892   0.412   5.880   5.214  0.1992  0.4966  0.1149
 3032SOL     OW11893   5.473   3.432   1.748 -0.3884  0.0413 -0.6191
 3032SOL    HW211894   5.553   3.411   1.795 -0.3824  1.5905  0.1299
 3032SOL    HW311895   5.434   3.347   1.727  1.4830 -0.7319 -1.1068
 3032SOL    MW411896   5.478   3.418   1.752 -0.1407  0.1437 -0.5847
 3033SOL     OW11897   1.823   2.825   6.008  0.9091 -0.1126 -0.0961
 3033SOL    HW211898   1.902   2.853   5.964  0.9570 -1.4132 -0.8978
 3033SOL    HW311899   1.814   2.884   6.083  1.0045  1.9555 -1.6245
 3033SOL    MW411900   1.832   2.836   6.012  0.9280 -0.0113 -0.4036
 3034SOL     OW11901   0.526   4.750   0.935 -0.3119  0.6166 -0.2000
 3034SOL    HW211902   0.558   4.839   0.955 -0.7694  0.6126  0.6087
 3034SOL    HW311903   0.601   4.706   0.896  0.1461  1.1360  0.0752
 3034SOL    MW411904   0.540   4.756   0.932 -0.3118  0.6846 -0.0570
 3035SOL     OW11905   3.055   3.339   0.346 -0.7295  0.1759  0.2921
 3035SOL    HW211906   3.023   3.420   0.385 -0.2113 -0.9049  3.2564
 3035SOL    HW311907   3.025   3.342   0.255 -2.1622  2.8714  0.7577
 3035SOL    MW411908   3.047   3.350   0.339 -0.8502  0.3889  0.7446
 3036SOL     OW11909   0.651   4.762   3.790  0.0962  0.1315  1.1086
 3036SOL    HW211910   0.646   4.684   3.736 -1.1782 -0.0077  1.4082
 3036SOL    HW311911   0.730   4.750   3.843  1.1861  0.1365 -0.4793
 3036SOL    MW411912   0.661   4.750   3.790  0.0718  0.1138  0.9386
 3037SOL     OW11913   2.459   6.372   1.517 -0.4309  0.0543 -0.4229
 3037SOL    HW211914   2.429   6.459   1.488  0.2925  0.2485 -0.6092
 3037SOL    HW311915   2.398   6.311   1.475 -1.5478  0.5071  0.4936
 3037SOL    MW411916   2.447   6.376   1.507 -0.4828  0.1396 -0.3266
 3038SOL     OW11917   0.696   0.858   2.069 -1.0665  0.2472 -0.2854
 3038SOL    HW211918   0.683   0.856   1.974  1.1249  0.7698 -0.6626
 3038SOL    HW311919   0.696   0.951   2.091 -1.0239  0.1481  0.1353
 3038SOL    MW411920   0.694   0.870   2.060 -0.7718  0.3031 -0.2796
 3039SOL     OW11921   2.815   5.615   4.310  0.1396 -0.5793  0.0457
 3039SOL    HW211922   2.841   5.646   4.397 -0.1806  2.5277 -0.8630
 3039SOL    HW311923   2.895   5.618   4.258 -0.1097 -0.3073 -0.3270
 3039SOL    MW411924   2.829   5.619   4.314  0.0645 -0.1335 -0.1234
 3040SOL     OW11925   4.354   3.260   2.259 -0.2570  0.0845  0.2129
 3040SOL    HW211926   4.410   3.183   2.265 -1.4050 -0.8552 -0.5634
 3040SOL    HW311927   4.342   3.274   2.165 -0.5299  0.8747  0.3534
 3040SOL    MW411928   4.360   3.252   2.247 -0.4445  0.0648  0.1290
 3041SOL     OW11929   1.406  -0.006   5.614 -0.0067 -0.1303 -0.8092
 3041SOL    HW211930   1.423   0.084   5.585  0.6021  0.0076 -0.0578
 3041SOL    HW311931   1.479  -0.056   5.578  0.1834 -0.1443 -0.4101
 3041SOL    MW411932   1.418  -0.001   5.605  0.0987 -0.1139 -0.6574
 3042SOL     OW11933   5.345   6.162   2.522 -0.0818 -0.2057  0.1318
 3042SOL    HW211934   5.309   6.104   2.455 -3.4936  1.3199  0.4320
 3042SOL    HW311935   5.365   6.105   2.596 -2.2037 -1.2416 -0.0030
 3042SOL    MW411936   5.343   6.147   2.523 -0.8119 -0.1411  0.1536
 3043SOL     OW11937   3.141   2.244   6.182  0.0632  0.5828 -0.4372
 3043SOL    HW211938   3.169   2.190   6.257  0.4116 -1.4574 -1.9563
 3043SOL    HW311939   3.070   2.297   6.217 -0.5543 -1.1281  1.1081
 3043SOL    MW411940   3.136   2.244   6.197  0.0277  0.0879 -0.4337
 3044SOL     OW11941   0.615   5.357   1.039  0.2340 -0.4995  0.3829
 3044SOL    HW211942   0.540   5.417   1.046  0.2735 -0.4295  0.2067
 3044SOL    HW311943   0.579   5.271   1.058 -0.2596 -0.7240 -1.4279
 3044SOL    MW411944   0.600   5.354   1.043  0.1741 -0.5199  0.1207
 3045SOL     OW11945   1.467   4.429   5.073  0.2523 -0.3958  0.0341
 3045SOL    HW211946   1.469   4.430   5.169  0.3327  0.3156  0.0252
 3045SOL    HW311947   1.495   4.517   5.047 -2.0279  0.1884 -0.6258
 3045SOL    MW411948   1.471   4.440   5.082 -0.0379 -0.2249 -0.0541
 3046SOL     OW11949   5.905   3.404   2.117  0.0772  0.8876 -0.4122
 3046SOL    HW211950   5.849   3.361   2.181 -0.2390  0.0846 -1.2106
 3046SOL    HW311951   5.904   3.497   2.142 -0.6605  0.7002  0.2743
 3046SOL    MW411952   5.897   3.411   2.128 -0.0618  0.7569 -0.4269
 3047SOL     OW11953   2.227   3.311   3.116  0.0390  0.0802  0.1613
 3047SOL    HW211954   2.259   3.224   3.140 -2.1222 -0.7516  0.2885
 3047SOL    HW311955   2.300   3.352   3.071  0.8266 -2.1884 -0.7671
 3047SOL    MW411956   2.241   3.305   3.113 -0.1422 -0.3289  0.0556
 3048SOL     OW11957   3.097   1.226   4.765 -1.3923  0.4089  0.5964
 3048SOL    HW211958   3.186   1.219   4.730 -1.7855  1.3483 -0.6609
 3048SOL    HW311959   3.106   1.279   4.843 -0.7970  0.1621  0.7028
 3048SOL    MW411960   3.110   1.232   4.771 -1.3657  0.5003  0.4445
 3049SOL     OW11961   2.912   1.989   0.498 -0.1681  0.3126  0.4247
 3049SOL    HW211962   2.912   1.905   0.545  0.4859 -0.8028 -1.4116
 3049SOL    HW311963   2.821   2.002   0.472 -0.1295 -0.3240 -0.0576
 3049SOL    MW411964   2.900   1.979   0.501 -0.0767  0.0814  0.1188
 3050SOL     OW11965   5.485   2.994   0.576 -0.1494 -0.1169  0.1903
 3050SOL    HW211966   5.431   3.049   0.519 -0.0561 -0.6903 -0.4763
 3050SOL    HW311967   5.458   3.016   0.665 -1.6694 -0.5646 -0.1293
 3050SOL    MW411968   5.474   3.004   0.580 -0.3376 -0.2516  0.0601
 3051SOL     OW11969   3.344   5.719   2.291 -0.5528  0.6766 -0.7357
 3051SOL    HW211970   3.393   5.792   2.254  1.7663  0.4044  1.4982
 3051SOL    HW311971   3.387   5.641   2.256  1.1635  0.4270  1.6485
 3051SOL    MW411972   3.356   5.718   2.282 -0.0203  0.6077 -0.1264
 3052SOL     OW11973   3.799   2.052   4.727 -0.4180  0.1617  0.4183
 3052SOL    HW211974   3.793   1.989   4.656 -0.2378 -1.4148  1.7563
 3052SOL    HW311975   3.893   2.063   4.742 -0.3339  2.5477 -1.2836
 3052SOL    MW411976   3.811   2.045   4.720 -0.3831  0.2685  0.3703
 3053SOL     OW11977   5.202   1.282   6.398 -0.8317 -0.4068 -0.0742
 3053SOL    HW211978   5.242   1.360   6.360  1.8779 -0.8494  1.5889
 3053SOL    HW311979   5.205   1.217   6.328  3.5345 -1.0500  0.4053
 3053SOL    MW411980   5.208   1.284   6.384  0.1019 -0.5501  0.2085
 3054SOL     OW11981   5.433   0.190   1.907  0.3485 -0.3585 -0.3590
 3054SOL    HW211982   5.431   0.193   1.812  0.7407 -1.3657 -0.4120
 3054SOL    HW311983   5.398   0.274   1.935 -0.4720 -0.3489 -1.3844
 3054SOL    MW411984   5.428   0.201   1.899  0.2920 -0.4901 -0.5013
 3055SOL     OW11985   1.585   4.040   0.280 -0.2689  1.0003 -0.5923
 3055SOL    HW211986   1.562   4.130   0.257 -0.8554  1.5416  1.8609
 3055SOL    HW311987   1.513   3.988   0.245 -0.6362  1.6388 -0.8167
 3055SOL    MW411988   1.572   4.045   0.272 -0.3948  1.1559 -0.2983
 3056SOL     OW11989   3.979   6.358   0.191  0.1087 -0.1770  0.3123
 3056SOL    HW211990   4.011   6.423   0.129 -0.1567 -0.1344  0.2191
 3056SOL    HW311991   3.925   6.299   0.138  0.2430 -0.4002  0.4198
 3056SOL    MW411992   3.976   6.359   0.176  0.0914 -0.2008  0.3142
 3057SOL     OW11993   3.640   3.871   5.366 -0.3428  0.1363  0.0358
 3057SOL    HW211994   3.684   3.809   5.309 -1.2080 -0.7094  0.2597
 3057SOL    HW311995   3.577   3.916   5.309 -0.4193  0.0930  0.0858
 3057SOL    MW411996   3.637   3.869   5.351 -0.4670  0.0190  0.0720
 3058SOL     OW11997   3.686   4.374   1.913 -0.4130 -0.3072  0.0565
 3058SOL    HW211998   3.722   4.336   1.833  1.0487  0.3160  0.4030
 3058SOL    HW311999   3.637   4.301   1.953 -2.2012 -0.3103 -1.9554
 3058SOL    MW412000   3.684   4.359   1.908 -0.4561 -0.2254 -0.1632
 3059SOL     OW12001   0.603   1.717   1.861  0.4968 -0.4309  0.9717
 3059SOL    HW212002   0.526   1.661   1.863  1.0231 -1.1636  1.0618
 3059SOL    HW312003   0.569   1.804   1.839 -0.0940 -1.2384 -1.7379
 3059SOL    MW412004   0.589   1.721   1.858  0.4883 -0.6341  0.6261
 3060SOL     OW12005   5.945   5.274   3.730 -0.1087  0.1237 -0.1423
 3060SOL    HW212006   5.858   5.272   3.771 -0.1254  0.0251 -0.1812
 3060SOL    HW312007   5.990   5.197   3.765  0.1980  0.5371  0.3795
 3060SOL    MW412008   5.939   5.263   3.740 -0.0704  0.1652 -0.0786
 3061SOL     OW12009   0.268   4.617   2.294 -0.3576 -0.3317  0.2270
 3061SOL    HW212010   0.297   4.541   2.344 -2.2911 -0.5413  1.1089
 3061SOL    HW312011   0.234   4.581   2.212  0.1874 -0.2496 -0.0410
 3061SOL    MW412012   0.268   4.602   2.290 -0.5408 -0.3485  0.3080
 3062SOL     OW12013   3.335   6.281   4.962 -0.8048 -0.3457  0.5582
 3062SOL    HW212014   3.260   6.271   5.022 -1.5119 -0.0203 -0.2496
 3062SOL    HW312015   3.306   6.346   4.899  0.4520  0.3205  0.6497
 3062SOL    MW412016   3.321   6.288   4.962 -0.7323 -0.2149  0.4637
 3063SOL     OW12017   4.887   2.072   1.153 -0.3016  0.0959 -0.7555
 3063SOL    HW212018   4.864   2.040   1.240 -0.5636  0.0054 -0.8568
 3063SOL    HW312019   4.831   2.148   1.138 -1.2880 -0.7369 -1.4162
 3063SOL    MW412020   4.877   2.078   1.162 -0.4663 -0.0259 -0.8560
 3064SOL     OW12021   1.736   1.046   5.020  0.2849  0.0103  0.2533
 3064SOL    HW212022   1.665   0.993   4.986 -0.7690  1.3587  0.2801
 3064SOL    HW312023   1.785   1.073   4.943 -0.1735  0.3820  0.0923
 3064SOL    MW412024   1.733   1.043   5.006  0.0854  0.2372  0.2356
 3065SOL     OW12025   2.846   1.489   3.563 -0.2294  0.0211  0.2094
 3065SOL    HW212026   2.932   1.517   3.595 -0.5659  1.3700 -0.0060
 3065SOL    HW312027   2.800   1.457   3.640  0.1800  0.0469  0.4663
 3065SOL    MW412028   2.851   1.489   3.577 -0.2198  0.2025  0.2149
 3066SOL     OW12029   0.048   2.077   4.164 -0.5979 -0.6485  0.5178
 3066SOL    HW212030   0.132   2.041   4.194  0.4247 -0.7652 -2.1872
 3066SOL    HW312031  -0.012   2.002   4.165  0.3428 -1.4780 -0.9105
 3066SOL    MW412032   0.052   2.062   4.168 -0.3389 -0.7733 -0.0276
 3067SOL     OW12033   2.150   5.606   3.044 -0.4640  0.0235 -0.0758
 3067SOL    HW212034   2.227   5.630   3.095  1.6577 -1.2591 -2.4567
 3067SOL    HW312035   2.150   5.667   2.970 -2.5504  0.8417  0.5251
 3067SOL    MW412036   2.160   5.617   3.041 -0.4594 -0.0378 -0.3107
 3068SOL     OW12037   3.125   4.683   4.487  0.2316  0.2352 -0.2096
 3068SOL    HW212038   3.156   4.691   4.577 -1.2549 -0.5573  0.4000
 3068SOL    HW312039   3.051   4.743   4.481 -1.1059 -1.3408 -0.1926
 3068SOL    MW412040   3.119   4.692   4.498 -0.1410 -0.0773 -0.1269
 3069SOL     OW12041   5.640   0.066   6.172  0.9544 -0.5291  0.6126
 3069SOL    HW212042   5.629  -0.021   6.134  2.8166 -0.4374 -0.2400
 3069SOL    HW312043   5.627   0.126   6.098 -0.6247 -0.0119  1.2513
 3069SOL    MW412044   5.637   0.062   6.157  0.9917 -0.4487  0.5844
 3070SOL     OW12045   4.148   1.456   2.908  0.4629 -0.0509  0.5975
 3070SOL    HW212046   4.145   1.497   2.822 -0.2119  1.5394  1.3489
 3070SOL    HW312047   4.239   1.428   2.918  0.1803 -1.9596 -1.3516
 3070SOL    MW412048   4.159   1.457   2.898  0.3366 -0.0929  0.4395
 3071SOL     OW12049   2.695   1.075   0.441 -0.1347 -0.3644  0.9852
 3071SOL    HW212050   2.599   1.077   0.452 -0.3847 -1.2275 -0.6851
 3071SOL    HW312051   2.720   1.167   0.435 -1.5288 -0.0042 -2.8980
 3071SOL    MW412052   2.685   1.088   0.441 -0.3516 -0.4307  0.2525
 3072SOL     OW12053   2.906   2.569   4.660 -0.6209  0.0289 -0.7975
 3072SOL    HW212054   2.931   2.537   4.747 -1.4210 -0.0106 -0.5714
 3072SOL    HW312055   2.932   2.499   4.601 -1.5006 -0.6613 -0.4031
 3072SOL    MW412056   2.913   2.555   4.664 -0.8425 -0.0674 -0.7156
 3073SOL     OW12057   1.446   0.084   1.159  0.1347  0.4456 -0.1799
 3073SOL    HW212058   1.490   0.011   1.118 -1.3075 -0.8141  0.4070
 3073SOL    HW312059   1.362   0.090   1.113  0.3650  1.9860 -0.4592
 3073SOL    MW412060   1.440   0.075   1.148 -0.0252  0.4826 -0.1393
 3074SOL     OW12061   6.350   1.476   3.971  1.0321  0.0288  0.3514
 3074SOL    HW212062   6.414   1.514   4.031  0.6747 -0.5784  1.1279
 3074SOL    HW312063   6.280   1.444   4.027  0.2683  0.2514 -0.4566
 3074SOL    MW412064   6.350   1.477   3.986  0.8842 -0.0219  0.3473
 3075SOL     OW12065   3.629   1.337   4.431  0.1877  0.4575 -0.8042
 3075SOL    HW212066   3.616   1.242   4.421 -1.4838  0.5422  0.1357
 3075SOL    HW312067   3.547   1.376   4.402 -0.5003  1.3600  2.0356
 3075SOL    MW412068   3.617   1.329   4.426 -0.1236  0.5877 -0.3055
 3076SOL     OW12069   5.798   0.410   0.174 -0.1878  0.3622 -0.1307
 3076SOL    HW212070   5.852   0.383   0.100 -0.3194  0.7499 -0.3702
 3076SOL    HW312071   5.791   0.331   0.229  1.8022  0.6801  0.6474
 3076SOL    MW412072   5.804   0.396   0.171  0.0574  0.4553 -0.0596
 3077SOL     OW12073   2.882   4.011   6.266 -0.1055  0.8504 -0.6269
 3077SOL    HW212074   2.792   4.041   6.279 -0.3294  0.4542 -1.1957
 3077SOL    HW312075   2.929   4.089   6.238 -0.6874  0.7167 -2.1180
 3077SOL    MW412076   2.876   4.025   6.264 -0.2118  0.7805 -0.8987
 3078SOL     OW12077   4.480   0.325   5.560 -0.5082  0.5846  0.4112
 3078SOL    HW212078   4.433   0.317   5.642 -0.6093 -0.1440  0.2891
 3078SOL    HW312079   4.427   0.276   5.496 -0.1418  0.6594  0.0411
 3078SOL    MW412080   4.467   0.317   5.562 -0.4732  0.4983  0.3463
 3079SOL     OW12081   0.270   4.687   0.827 -0.2732  0.5117  0.3160
 3079SOL    HW212082   0.363   4.707   0.826 -0.3230  1.0921 -2.7208
 3079SOL    HW312083   0.227   4.768   0.801 -1.7043  0.3769  2.0764
 3079SOL    MW412084   0.276   4.700   0.823 -0.4686  0.5705  0.1476
 3080SOL     OW12085   5.028   1.276   4.280  0.1329 -0.5942 -0.5152
 3080SOL    HW212086   4.969   1.244   4.348  1.3157 -2.9998 -0.5053
 3080SOL    HW312087   5.036   1.370   4.298 -0.4557 -0.9340  2.0106
 3080SOL    MW412088   5.022   1.284   4.292  0.2113 -0.9564 -0.1806
 3081SOL     OW12089   3.871   4.504   5.565 -0.0990 -0.1462  0.5260
 3081SOL    HW212090   3.896   4.532   5.653  0.4739  0.9823  0.0345
 3081SOL    HW312091   3.953   4.500   5.517 -0.4870  0.1243 -0.1824
 3081SOL    MW412092   3.885   4.507   5.570 -0.0746  0.0384  0.3677
 3082SOL     OW12093   3.220   1.690   0.027 -0.0158  0.6078  0.2916
 3082SOL    HW212094   3.145   1.722   0.077 -1.0956  0.8231 -1.3888
 3082SOL    HW312095   3.271   1.768   0.007 -0.7000  0.8243 -0.6824
 3082SOL    MW412096   3.217   1.704   0.031 -0.2486  0.6648 -0.0586
 3083SOL     OW12097   5.877   4.636   2.338 -0.2775  0.0784 -0.4972
 3083SOL    HW212098   5.827   4.674   2.266 -0.7048 -1.0899 -0.8356
 3083SOL    HW312099   5.917   4.711   2.381 -1.4180  0.9535 -0.8972
 3083SOL    MW412100   5.875   4.651   2.334 -0.4843  0.0397 -0.5946
 3084SOL     OW12101   3.077   3.849   0.692 -0.3375 -0.1318  0.4130
 3084SOL    HW212102   3.144   3.781   0.701  0.4327  0.7329  1.6007
 3084SOL    HW312103   3.006   3.821   0.751 -0.4420 -0.3846  0.1670
 3084SOL    MW412104   3.076   3.836   0.701 -0.2497 -0.0511  0.5372
 3085SOL     OW12105   1.953   1.947   1.261  0.3851 -0.1932  0.6702
 3085SOL    HW212106   1.970   1.898   1.341  1.3902 -1.2259 -0.1403
 3085SOL    HW312107   1.904   1.886   1.206  2.4592 -0.6915 -0.7266
 3085SOL    MW412108   1.949   1.932   1.264  0.7913 -0.3952  0.3790
 3086SOL     OW12109   4.636   0.294   4.078  0.1420  0.1028 -0.3088
 3086SOL    HW212110   4.637   0.263   4.169  1.3114  2.4721  0.5798
 3086SOL    HW312111   4.556   0.346   4.071  0.3209  0.3637 -0.4561
 3086SOL    MW412112   4.626   0.297   4.089  0.3199  0.4498 -0.2110
 3087SOL     OW12113   1.238   4.480   3.046 -0.4922 -0.4164  0.3207
 3087SOL    HW212114   1.201   4.392   3.039  1.0203 -1.0385 -0.2251
 3087SOL    HW312115   1.264   4.488   3.138  1.9297 -1.6694 -0.1777
 3087SOL    MW412116   1.236   4.470   3.057  0.0269 -0.6638  0.1830
 3088SOL     OW12117   0.106   3.982   3.188  0.0433 -0.0968  0.0394
 3088SOL    HW212118   0.114   4.074   3.164 -0.7676 -0.4360 -1.7166
 3088SOL    HW312119   0.080   3.938   3.106 -2.6589 -1.4320  1.4943
 3088SOL    MW412120   0.104   3.988   3.174 -0.4202 -0.3177 -0.0003
 3089SOL     OW12121   0.799   5.361   5.940  0.1319 -0.2015  0.5432
 3089SOL    HW212122   0.814   5.267   5.947  0.6049 -0.0201  2.5922
 3089SOL    HW312123   0.761   5.373   5.853 -0.5224 -2.3651  0.4762
 3089SOL    MW412124   0.796   5.350   5.930  0.1080 -0.4630  0.8047
 3090SOL     OW12125   5.170   4.872   5.844 -0.4116  0.0381 -0.5870
 3090SOL    HW212126   5.080   4.845   5.864 -0.3282  0.0025 -0.2474
 3090SOL    HW312127   5.161   4.948   5.787 -0.6574  0.0568 -0.5228
 3090SOL    MW412128   5.157   4.878   5.839 -0.4330  0.0359 -0.5337
 3091SOL     OW12129   1.276   1.474   6.427 -0.3400  0.2684  0.1432
 3091SOL    HW212130   1.300   1.553   6.476 -0.7287  1.3054 -1.2928
 3091SOL    HW312131   1.189   1.492   6.393  0.0639 -0.2812 -1.2248
 3091SOL    MW412132   1.268   1.487   6.429 -0.3380  0.3327 -0.2267
 3092SOL     OW12133   0.535   0.464   5.175 -0.0028 -0.2890  0.4359
 3092SOL    HW212134   0.610   0.474   5.234  0.1254  0.1110  0.2071
 3092SOL    HW312135   0.468   0.522   5.211  0.4891  0.9008 -0.4752
 3092SOL    MW412136   0.536   0.473   5.187  0.0790 -0.0792  0.2855
 3093SOL     OW12137   4.130   5.331   0.970 -0.1106 -0.0979 -0.3559
 3093SOL    HW212138   4.120   5.241   0.939 -0.7211 -0.0865 -0.1945
 3093SOL    HW312139   4.209   5.329   1.024 -0.4707 -0.6816  0.1576
 3093SOL    MW412140   4.139   5.319   0.973 -0.2386 -0.1734 -0.2668
 3094SOL     OW12141   2.833   0.457   4.859 -0.0998 -0.5833 -0.0849
 3094SOL    HW212142   2.775   0.495   4.793 -0.0012 -0.1710  0.0667
 3094SOL    HW312143   2.844   0.366   4.832 -0.0415 -0.4083 -0.6503
 3094SOL    MW412144   2.827   0.450   4.847 -0.0791 -0.5058 -0.1395
 3095SOL     OW12145   0.015   3.888   2.556  0.0040  0.0947  0.3700
 3095SOL    HW212146  -0.007   3.906   2.648  0.4354 -0.1722  0.5326
 3095SOL    HW312147  -0.042   3.946   2.506 -0.8044 -0.3284  0.7810
 3095SOL    MW412148   0.005   3.898   2.562 -0.0457  0.0036  0.4457
 3096SOL     OW12149   0.294   4.796   4.549  0.2191 -0.4467  0.2070
 3096SOL    HW212150   0.298   4.708   4.511 -3.4552  0.0799 -1.8197
 3096SOL    HW312151   0.223   4.791   4.613 -0.2676  1.0899 -0.1738
 3096SOL    MW412152   0.285   4.784   4.553 -0.3299 -0.1745 -0.1106
 3097SOL     OW12153   6.264   3.197   6.120  0.7200 -0.4175 -0.3196
 3097SOL    HW212154   6.202   3.270   6.123  0.3493 -0.6252 -1.9788
 3097SOL    HW312155   6.209   3.119   6.111  1.1127 -0.9417  1.4448
 3097SOL    MW412156   6.248   3.197   6.120  0.7229 -0.5141 -0.3057
 3098SOL     OW12157   0.688   0.056   3.095  0.0703  0.8486 -0.3292
 3098SOL    HW212158   0.645  -0.028   3.107  0.2464  0.8179  0.1091
 3098SOL    HW312159   0.776   0.034   3.064 -0.1372  0.9038 -0.9893
 3098SOL    MW412160   0.694   0.042   3.092  0.0662  0.8518 -0.3584
 3099SOL     OW12161   2.209   2.659   4.422 -0.4270  0.5544 -0.0722
 3099SOL    HW212162   2.127   2.707   4.414 -1.0561 -0.3511  0.6432
 3099SOL    HW312163   2.236   2.671   4.514  0.0889  0.6151 -0.2271
 3099SOL    MW412164   2.202   2.667   4.433 -0.4419  0.4429  0.0017
 3100SOL     OW12165   1.793   4.092   5.577  0.0369  0.5157 -0.2488
 3100SOL    HW212166   1.792   4.090   5.481  2.0714 -1.0565 -0.3086
 3100SOL    HW312167   1.784   4.185   5.599 -1.4995  0.8168 -1.9023
 3100SOL    MW412168   1.792   4.104   5.567  0.1026  0.3480 -0.4748
 3101SOL     OW12169   2.605   6.189   2.211  0.0262 -0.5823 -0.3026
 3101SOL    HW212170   2.616   6.277   2.247  0.9803  0.3526 -2.6520
 3101SOL    HW312171   2.512   6.184   2.187 -0.3177 -0.7265  1.0118
 3101SOL    MW412172   2.594   6.200   2.213  0.1067 -0.4780 -0.4392
 3102SOL     OW12173   0.319   0.386   6.014  0.6877 -0.2506  0.1749
 3102SOL    HW212174   0.249   0.447   6.037 -0.2821 -0.7779 -1.2708
 3102SOL    HW312175   0.397   0.423   6.055  0.5575  3.0527 -2.1360
 3102SOL    MW412176   0.320   0.399   6.023  0.5425  0.1157 -0.3208
 3103SOL     OW12177   4.091   3.175   3.193  0.0820 -0.5299  0.0185
 3103SOL    HW212178   4.076   3.237   3.264 -1.0194 -0.4953 -0.2239
 3103SOL    HW312179   4.095   3.090   3.235  0.2772 -0.4229  0.2145
 3103SOL    MW412180   4.089   3.172   3.208 -0.0375 -0.5112  0.0124
 3104SOL     OW12181   4.251   0.856   2.695  0.3210  0.7129 -0.4959
 3104SOL    HW212182   4.292   0.811   2.769  0.9502  2.3332  0.1895
 3104SOL    HW312183   4.184   0.795   2.663 -0.2896  0.1599  1.7077
 3104SOL    MW412184   4.247   0.842   2.700  0.3235  0.8538 -0.1147
 3105SOL     OW12185   6.047   0.292   5.327  0.5161  0.6006 -0.0767
 3105SOL    HW212186   6.057   0.273   5.420  1.3264 -0.2326 -0.3127
 3105SOL    HW312187   5.987   0.224   5.295 -0.2889  1.2808 -0.0512
 3105SOL    MW412188   6.040   0.280   5.335  0.5168  0.5804 -0.1045
 3106SOL     OW12189   0.053   0.190   5.726 -0.1768  0.3789 -0.0709
 3106SOL    HW212190   0.040   0.180   5.820 -0.8500  0.5755 -0.1412
 3106SOL    HW312191   0.114   0.264   5.718 -0.8746  0.9958  0.1807
 3106SOL    MW412192   0.060   0.199   5.737 -0.3577  0.4862 -0.0470
 3107SOL     OW12193   4.918   4.042   3.959  0.2379  0.0365  0.2206
 3107SOL    HW212194   4.931   3.954   3.996  3.1182  0.2043 -0.1805
 3107SOL    HW312195   4.902   4.027   3.866  1.4696 -0.0804  0.0093
 3107SOL    MW412196   4.918   4.028   3.952  0.7804  0.0432  0.1398
 3108SOL     OW12197   5.023   6.242   3.676  0.6649 -0.1424 -0.4837
 3108SOL    HW212198   5.073   6.257   3.595  0.7605  0.4215 -0.3241
 3108SOL    HW312199   4.975   6.323   3.689 -0.4312 -0.7422 -0.7194
 3108SOL    MW412200   5.023   6.255   3.667  0.5329 -0.1471 -0.4937
 3109SOL     OW12201   1.870   5.765   2.754 -0.3273 -0.0071  0.2263
 3109SOL    HW212202   1.837   5.726   2.835  1.3878 -0.5903  0.6897
 3109SOL    HW312203   1.863   5.859   2.769 -0.9938 -0.1084  0.6189
 3109SOL    MW412204   1.865   5.772   2.767 -0.1889 -0.0974  0.3393
 3110SOL     OW12205   4.358   3.729   4.189  0.6459 -0.4077 -0.1301
 3110SOL    HW212206   4.297   3.785   4.142 -0.2796 -1.7424 -0.5502
 3110SOL    HW312207   4.304   3.660   4.226  1.6688 -0.6220  1.0198
 3110SOL    MW412208   4.343   3.727   4.188  0.6587 -0.6121 -0.0338
 3111SOL     OW12209   1.994   4.126   4.926  0.1429 -0.3851 -0.1895
 3111SOL    HW212210   1.902   4.108   4.905  0.1814 -0.1165 -0.6038
 3111SOL    HW312211   2.036   4.135   4.840  0.9697 -2.4686 -0.0597
 3111SOL    MW412212   1.987   4.125   4.912  0.2570 -0.6246 -0.2270
 3112SOL     OW12213   1.503   0.934   4.880  0.1410  0.7508  0.3859
 3112SOL    HW212214   1.410   0.951   4.863  0.1590 -0.1542 -0.6863
 3112SOL    HW312215   1.515   0.841   4.859  1.7489  1.3500 -1.6938
 3112SOL    MW412216   1.492   0.924   4.875  0.3555  0.7105 -0.0300
 3113SOL     OW12217   2.423   2.267   1.263  0.0698  0.1526  0.1330
 3113SOL    HW212218   2.366   2.282   1.339 -0.1541  1.7396 -0.3111
 3113SOL    HW312219   2.364   2.263   1.188  0.4770  1.1622 -0.2533
 3113SOL    MW412220   2.408   2.268   1.263  0.0940  0.4952  0.0235
 3114SOL     OW12221   3.786   4.922   2.881  0.0902 -0.1418 -0.7916
 3114SOL    HW212222   3.780   4.999   2.824  0.2745  0.6403  0.2179
 3114SOL    HW312223   3.731   4.856   2.838 -1.6835  1.1814 -0.6840
 3114SOL    MW412224   3.778   4.923   2.868 -0.1195  0.1360 -0.6442
 3115SOL     OW12225   1.280   4.718   0.339 -0.2582  0.1482  0.5111
 3115SOL    HW212226   1.285   4.623   0.346 -1.4486 -0.0099 -0.4113
 3115SOL    HW312227   1.196   4.740   0.380 -0.1184  0.7796  0.4638
 3115SOL    MW412228   1.270   4.708   0.346 -0.3969  0.2106  0.3832
 3116SOL     OW12229   0.947   4.262   1.009  0.4683  0.1273  0.2425
 3116SOL    HW212230   0.917   4.190   0.954 -3.1372  0.8916  0.9433
 3116SOL    HW312231   1.043   4.252   1.011  0.3984 -2.6559 -2.2658
 3116SOL    MW412232   0.956   4.251   1.002 -0.0166 -0.1391  0.0040
 3117SOL     OW12233   5.696   5.181   3.877 -0.1144  0.9262  0.6491
 3117SOL    HW212234   5.699   5.097   3.831 -1.1526  0.3417  1.6221
 3117SOL    HW312235   5.604   5.208   3.871  0.2695  2.1797  0.0472
 3117SOL    MW412236   5.684   5.173   3.870 -0.2007  1.0144  0.6981
 3118SOL     OW12237   5.177   1.871   5.729 -0.4332 -0.1680 -0.1606
 3118SOL    HW212238   5.137   1.805   5.673  0.1907 -0.8232  0.1465
 3118SOL    HW312239   5.174   1.834   5.817 -1.5417  0.9136  0.2947
 3118SOL    MW412240   5.172   1.858   5.734 -0.4971 -0.1117 -0.0600
 3119SOL     OW12241   2.431   3.062   0.485  0.1053 -0.0299  0.1338
 3119SOL    HW212242   2.514   3.102   0.513 -0.2290  0.6933  0.1139
 3119SOL    HW312243   2.403   3.117   0.412 -0.0249 -0.7168 -0.3410
 3119SOL    MW412244   2.438   3.075   0.479  0.0440 -0.0251  0.0685
 3120SOL     OW12245   1.747   4.043   4.444  0.1209  0.0879 -0.6835
 3120SOL    HW212246   1.692   4.002   4.377 -0.8824  1.1121 -0.5020
 3120SOL    HW312247   1.777   4.125   4.404  0.7666 -0.0158 -0.4312
 3120SOL    MW412248   1.744   4.048   4.430  0.0737  0.2093 -0.6263
 3121SOL     OW12249   4.940   0.728   0.683  0.0480  0.2866 -0.1301
 3121SOL    HW212250   4.945   0.824   0.676  1.5735  0.2594  0.3043
 3121SOL    HW312251   4.847   0.711   0.697  0.0605  1.9411  2.6935
 3121SOL    MW412252   4.928   0.739   0.684  0.2510  0.5013  0.2997
 3122SOL     OW12253   1.657   3.675   6.054 -0.1385 -0.1574 -0.2932
 3122SOL    HW212254   1.634   3.632   6.136 -1.1270  1.6490  0.4100
 3122SOL    HW312255   1.746   3.644   6.036 -0.3285 -1.4679  0.8428
 3122SOL    MW412256   1.666   3.665   6.063 -0.2940 -0.0919 -0.0505
 3123SOL     OW12257   0.451   4.636   5.622 -0.4772  0.3230 -0.1501
 3123SOL    HW212258   0.434   4.636   5.717 -0.5438  1.2101 -0.1565
 3123SOL    HW312259   0.540   4.601   5.614 -1.2122 -1.7731  0.0710
 3123SOL    MW412260   0.461   4.631   5.634 -0.5830  0.1635 -0.1218
 3124SOL     OW12261   2.841   6.176   0.619 -0.6342  0.3558  0.4075
 3124SOL    HW212262   2.756   6.135   0.602 -0.1480  0.1123 -1.7939
 3124SOL    HW312263   2.890   6.162   0.538  1.0399  1.6645  1.1443
 3124SOL    MW412264   2.836   6.169   0.606 -0.3492  0.4963  0.2143
 3125SOL     OW12265   0.548   4.984   2.595  0.1711  0.0474 -0.1486
 3125SOL    HW212266   0.550   4.907   2.539  1.2806  0.9377 -1.3693
 3125SOL    HW312267   0.597   4.958   2.673  2.2785  0.1146 -1.3914
 3125SOL    MW412268   0.555   4.970   2.598  0.5955  0.1737 -0.4737
 3126SOL     OW12269   0.117   0.811   0.123 -0.0389 -0.5090 -0.4097
 3126SOL    HW212270   0.163   0.882   0.169 -0.0476 -0.6866 -0.1263
 3126SOL    HW312271   0.166   0.732   0.145 -1.5964 -1.0016  1.4846
 3126SOL    MW412272   0.129   0.810   0.132 -0.2455 -0.5974 -0.1223
 3127SOL     OW12273   6.308   1.850   4.174  0.6434  0.5419  0.4100
 3127SOL    HW212274   6.264   1.852   4.089 -1.0751 -0.4972  1.2096
 3127SOL    HW312275   6.374   1.781   4.165  1.5507  1.5071 -0.5372
 3127SOL    MW412276   6.311   1.841   4.161  0.5364  0.5321  0.3905
 3128SOL     OW12277   5.997   1.781   2.818 -0.4782  0.5483  0.0810
 3128SOL    HW212278   6.049   1.762   2.740 -0.4937 -0.4021  0.2851
 3128SOL    HW312279   6.025   1.715   2.881 -0.9057  0.9277  0.6747
 3128SOL    MW412280   6.008   1.770   2.816 -0.5367  0.4729  0.1863
 3129SOL     OW12281   4.929   6.242   2.392  0.1382  0.4991 -0.0256
 3129SOL    HW212282   4.996   6.284   2.337  0.0554 -0.4476 -0.8824
 3129SOL    HW312283   4.863   6.310   2.405  0.0455  0.6828 -1.3295
 3129SOL    MW412284   4.929   6.256   2.386  0.1150  0.3985 -0.3107
 3130SOL     OW12285   1.754   4.118   5.287 -0.1187  0.0596  0.0822
 3130SOL    HW212286   1.759   4.181   5.214 -0.1462 -0.0577 -0.0208
 3130SOL    HW312287   1.785   4.036   5.249  2.7217  0.6245  0.9270
 3130SOL    MW412288   1.759   4.116   5.272  0.2524  0.1187  0.1801
 3131SOL     OW12289   4.039   1.361   5.373 -0.1891  0.5328  0.3227
 3131SOL    HW212290   4.109   1.388   5.433 -0.3793  1.2398  0.2424
 3131SOL    HW312291   4.033   1.433   5.310 -0.4489  0.1074 -0.1442
 3131SOL    MW412292   4.047   1.374   5.373 -0.2485  0.5699  0.2505
 3132SOL     OW12293   2.370   5.569   4.896  0.0831 -0.8973  0.2888
 3132SOL    HW212294   2.406   5.488   4.860  0.1188 -1.3517  1.3129
 3132SOL    HW312295   2.363   5.628   4.820  1.8682 -1.1960 -0.1472
 3132SOL    MW412296   2.374   5.566   4.881  0.3233 -0.9967  0.3664
 3133SOL     OW12297   1.810   3.841   5.693 -0.0618  0.5525 -0.1244
 3133SOL    HW212298   1.842   3.928   5.667 -1.4390  0.9966 -0.4061
 3133SOL    HW312299   1.774   3.804   5.612  1.3644 -0.7197 -0.2471
 3133SOL    MW412300   1.810   3.848   5.679 -0.0553  0.4432 -0.1778
 3134SOL     OW12301   2.332   5.594   4.293  0.1014  0.6393 -0.3313
 3134SOL    HW212302   2.423   5.574   4.313  0.1031  1.0245  0.0539
 3134SOL    HW312303   2.291   5.508   4.280  0.0162  0.3362  1.6754
 3134SOL    MW412304   2.339   5.580   4.294  0.0904  0.6501 -0.0157
 3135SOL     OW12305   1.786   1.050   2.582  0.3555  0.1104  0.4723
 3135SOL    HW212306   1.878   1.053   2.611  1.3563 -1.1757 -2.2223
 3135SOL    HW312307   1.737   1.027   2.660  3.0439 -5.4520  1.0233
 3135SOL    MW412308   1.792   1.047   2.596  0.8423 -0.7932  0.1894
 3136SOL     OW12309   5.594   5.393   4.369 -0.6781  0.4727 -0.2441
 3136SOL    HW212310   5.504   5.369   4.392 -0.3992 -1.8007 -1.2148
 3136SOL    HW312311   5.616   5.335   4.296  2.2048 -0.4635  1.1909
 3136SOL    MW412312   5.585   5.382   4.363 -0.2609  0.0492 -0.1828
 3137SOL     OW12313   6.004   4.121   3.498 -0.5392  0.7207 -0.3709
 3137SOL    HW212314   6.084   4.094   3.453 -1.5880 -0.5508 -1.5857
 3137SOL    HW312315   5.945   4.046   3.488 -1.9807  1.7311  0.2333
 3137SOL    MW412316   6.006   4.107   3.490 -0.8677  0.6863 -0.4515
 3138SOL     OW12317   5.826   2.235   0.733  0.3746 -0.1208  0.3126
 3138SOL    HW212318   5.869   2.154   0.707  0.6035 -0.3392  1.3317
 3138SOL    HW312319   5.859   2.301   0.672  1.0863 -0.5588  0.2167
 3138SOL    MW412320   5.836   2.233   0.722  0.4987 -0.2074  0.4344
 3139SOL     OW12321   5.907   5.633   1.040  0.0560 -0.7562  0.1245
 3139SOL    HW212322   5.999   5.636   1.069  0.5673  1.1984 -1.4509
 3139SOL    HW312323   5.876   5.548   1.069  2.6212 -1.8352  0.0301
 3139SOL    MW412324   5.915   5.622   1.048  0.4619 -0.6407 -0.0958
 3140SOL     OW12325   1.616   5.238   4.702  0.2875 -0.5546  0.4532
 3140SOL    HW212326   1.684   5.288   4.747  0.7023 -0.6950 -0.0063
 3140SOL    HW312327   1.537   5.252   4.754  0.8841 -1.2006  1.5817
 3140SOL    MW412328   1.615   5.246   4.715  0.4209 -0.6583  0.5415
 3141SOL     OW12329   0.715   6.303   4.600  0.7540 -0.4898 -0.1683
 3141SOL    HW212330   0.678   6.242   4.664 -0.4669  0.3081 -0.0857
 3141SOL    HW312331   0.717   6.388   4.645 -1.3830  0.3818 -1.5581
 3141SOL    MW412332   0.710   6.306   4.615  0.3109 -0.2695 -0.3408
 3142SOL     OW12333   4.099   5.500   0.244  0.2813 -0.8112 -0.0276
 3142SOL    HW212334   4.187   5.525   0.216 -0.1219  0.4948 -0.2082
 3142SOL    HW312335   4.072   5.570   0.304 -0.8849 -0.8338 -0.4945
 3142SOL    MW412336   4.107   5.512   0.248  0.0742 -0.6419 -0.1130
 3143SOL     OW12337   3.262   4.886   3.625  0.5149  0.0557 -0.4868
 3143SOL    HW212338   3.312   4.966   3.641 -1.9284  1.4187  0.9871
 3143SOL    HW312339   3.325   4.826   3.584  2.5370  2.5726 -1.3439
 3143SOL    MW412340   3.277   4.889   3.622  0.4593  0.5676 -0.4054
 3144SOL     OW12341   5.278   4.762   0.966  0.4126 -0.5705 -0.2585
 3144SOL    HW212342   5.300   4.855   0.973  1.0279 -0.7118 -0.2796
 3144SOL    HW312343   5.247   4.751   0.876  2.5634 -0.8359 -1.0070
 3144SOL    MW412344   5.276   4.773   0.955  0.7775 -0.6242 -0.3600
 3145SOL     OW12345   5.169   3.717   1.837  0.1903 -0.3734 -0.2343
 3145SOL    HW212346   5.098   3.737   1.898  1.8653 -0.2153  1.7654
 3145SOL    HW312347   5.235   3.674   1.890  1.5269 -0.7097 -2.0744
 3145SOL    MW412348   5.168   3.714   1.852  0.5877 -0.3969 -0.2133
 3146SOL     OW12349   6.263   6.115   4.416  0.2640  0.3310  0.5940
 3146SOL    HW212350   6.215   6.032   4.409  0.2558  0.4084 -0.4079
 3146SOL    HW312351   6.211   6.168   4.476  0.1236 -0.2880  1.0271
 3146SOL    MW412352   6.250   6.111   4.423  0.2444  0.2596  0.5190
 3147SOL     OW12353   4.131   3.137   2.364 -0.0354  0.3880  0.6124
 3147SOL    HW212354   4.078   3.199   2.414 -1.5642 -0.5436  0.2102
 3147SOL    HW312355   4.200   3.190   2.324 -0.0087  1.4659  2.0159
 3147SOL    MW412356   4.133   3.152   2.365 -0.2335  0.4073  0.7445
 3148SOL     OW12357   0.955   1.787   5.830  0.7992 -0.2413 -0.7220
 3148SOL    HW212358   0.973   1.759   5.920 -0.1567  0.9092 -0.1304
 3148SOL    HW312359   1.037   1.774   5.783  1.6097  0.0315  0.5748
 3148SOL    MW412360   0.968   1.782   5.836  0.7800 -0.0535 -0.4728
 3149SOL     OW12361   2.551   4.324   4.270  0.1513 -0.0522 -0.9045
 3149SOL    HW212362   2.455   4.328   4.272  0.1542 -0.0600 -0.2504
 3149SOL    HW312363   2.575   4.365   4.187 -0.4118  0.0977 -1.0033
 3149SOL    MW412364   2.541   4.330   4.260  0.0774 -0.0335 -0.8313
 3150SOL     OW12365   2.362   0.559   6.175 -0.0849  0.4633 -0.1685
 3150SOL    HW212366   2.273   0.573   6.143  0.5563  0.2060 -2.1897
 3150SOL    HW312367   2.407   0.641   6.157  0.3468  0.2464 -0.0734
 3150SOL    MW412368   2.356   0.572   6.168  0.0566  0.4007 -0.4227
 3151SOL     OW12369   1.364   2.425   2.316 -0.0159  0.0309  1.0287
 3151SOL    HW212370   1.422   2.441   2.390  1.6202  1.0256 -0.4033
 3151SOL    HW312371   1.394   2.485   2.248 -1.4138 -0.8935 -0.4841
 3151SOL    MW412372   1.376   2.435   2.317  0.0155  0.0402  0.6402
 3152SOL     OW12373   2.895   4.508   4.329 -0.5015  0.3439 -0.0731
 3152SOL    HW212374   2.939   4.426   4.307 -0.7509  0.1226  0.2333
 3152SOL    HW312375   2.955   4.552   4.389 -0.8042 -0.0754  0.5471
 3152SOL    MW412376   2.909   4.503   4.334 -0.5743  0.2594  0.0491
 3153SOL     OW12377   0.943   1.284   5.983 -0.2131  0.0352 -0.4754
 3153SOL    HW212378   0.916   1.206   6.030  0.4703 -0.1227 -0.3316
 3153SOL    HW312379   0.867   1.342   5.985  0.2731  0.7122  2.2501
 3153SOL    MW412380   0.930   1.281   5.990 -0.0588  0.1037 -0.0968
 3154SOL     OW12381   3.997   4.320   0.824 -0.6288 -0.0111 -0.4591
 3154SOL    HW212382   4.034   4.235   0.849 -0.8684 -0.0561 -0.2638
 3154SOL    HW312383   3.912   4.299   0.786 -1.4031  0.2616  1.0423
 3154SOL    MW412384   3.991   4.306   0.822 -0.7626  0.0189 -0.2353
 3155SOL     OW12385   6.224   3.192   2.360 -0.5511  0.1339  0.4703
 3155SOL    HW212386   6.298   3.251   2.370  0.5043 -1.3072  1.5161
 3155SOL    HW312387   6.159   3.223   2.423  0.2386 -0.1516  1.4466
 3155SOL    MW412388   6.225   3.204   2.370 -0.3076 -0.0939  0.7371
 3156SOL     OW12389   0.663   6.023   1.912 -0.3688  0.0913 -0.4970
 3156SOL    HW212390   0.722   6.079   1.963 -1.5239  0.2110  0.7853
 3156SOL    HW312391   0.638   5.953   1.973 -0.2625 -0.8891 -1.5472
 3156SOL    MW412392   0.667   6.021   1.927 -0.5072 -0.0223 -0.4663
 3157SOL     OW12393   5.376   0.790   4.967  0.3033 -0.1404  0.3646
 3157SOL    HW212394   5.402   0.860   4.906 -1.1390  0.3411  0.2683
 3157SOL    HW312395   5.392   0.827   5.054 -2.7770  1.3784  0.4139
 3157SOL    MW412396   5.382   0.805   4.970 -0.2934  0.1235  0.3584
 3158SOL     OW12397   2.258   2.488   2.782  0.5533  0.5204 -0.8004
 3158SOL    HW212398   2.284   2.449   2.866 -3.1551 -2.0510 -0.6194
 3158SOL    HW312399   2.303   2.436   2.716 -0.8726 -1.3275 -0.4193
 3158SOL    MW412400   2.267   2.476   2.785 -0.1241 -0.0627 -0.7263
 3159SOL     OW12401   1.499   5.268   5.794  0.0058 -0.0497  0.2582
 3159SOL    HW212402   1.496   5.186   5.744 -1.3688  0.1596 -0.0469
 3159SOL    HW312403   1.541   5.245   5.877  1.9915 -0.4870 -0.8086
 3159SOL    MW412404   1.504   5.254   5.798  0.0864 -0.0797  0.0772
 3160SOL     OW12405   2.501   4.690   4.187 -0.3665 -0.1689  0.4292
 3160SOL    HW212406   2.505   4.785   4.192  0.9536 -0.2687  2.3526
 3160SOL    HW312407   2.504   4.661   4.278 -1.0783 -2.0565 -0.0965
 3160SOL    MW412408   2.502   4.699   4.200 -0.2862 -0.4311  0.6136
 3161SOL     OW12409   0.264   2.341   5.533  0.4041 -0.7405  0.3060
 3161SOL    HW212410   0.304   2.339   5.446 -1.2783  1.2921 -0.6036
 3161SOL    HW312411   0.170   2.335   5.517  0.1059 -1.5297  2.0946
 3161SOL    MW412412   0.257   2.340   5.519  0.1428 -0.5764  0.4220
 3162SOL     OW12413   3.744   4.234   3.531 -0.0685 -0.3026 -0.5070
 3162SOL    HW212414   3.768   4.145   3.558 -2.8796 -1.1510 -0.4512
 3162SOL    HW312415   3.793   4.248   3.450  1.5254 -1.3073  0.2273
 3162SOL    MW412416   3.754   4.224   3.524 -0.2291 -0.5471 -0.4028
 3163SOL     OW12417   1.988   4.364   1.385 -0.0173 -0.1741  0.4353
 3163SOL    HW212418   2.020   4.449   1.353 -0.7919 -0.3554 -0.8732
 3163SOL    HW312419   2.063   4.327   1.432  0.6773  0.7729  0.1156
 3163SOL    MW412420   2.002   4.371   1.387 -0.0278 -0.0731  0.2204
 3164SOL     OW12421   1.049   2.867   1.114 -0.0851  0.0479 -0.4615
 3164SOL    HW212422   1.095   2.907   1.040 -0.5743 -0.1172 -0.8609
 3164SOL    HW312423   1.073   2.775   1.111 -1.6833 -0.3770 -1.6600
 3164SOL    MW412424   1.058   2.860   1.104 -0.3605 -0.0300 -0.6724
 3165SOL     OW12425   1.634   3.340   0.296  0.1856  0.5787 -0.0012
 3165SOL    HW212426   1.639   3.280   0.221 -2.3412  1.4549 -0.9935
 3165SOL    HW312427   1.622   3.283   0.372 -0.1623 -0.2428 -0.6561
 3165SOL    MW412428   1.633   3.324   0.296 -0.1937  0.5859 -0.2185
 3166SOL     OW12429   3.899   3.949   2.225 -0.0498  0.3526  0.0900
 3166SOL    HW212430   3.831   4.012   2.250  1.1019  1.1700  1.3154
 3166SOL    HW312431   3.897   3.883   2.295 -0.4194 -0.3134 -0.5391
 3166SOL    MW412432   3.890   3.948   2.238  0.0534  0.3726  0.1686
 3167SOL     OW12433   5.122   3.524   2.829 -0.4878  0.5807  0.3172
 3167SOL    HW212434   5.214   3.551   2.827 -0.7282  1.4793  1.0771
 3167SOL    HW312435   5.095   3.535   2.920 -1.2055 -0.2000  0.2103
 3167SOL    MW412436   5.131   3.529   2.840 -0.6142  0.5963  0.4033
 3168SOL     OW12437   5.411   3.426   0.974  0.2414 -0.3858 -0.4993
 3168SOL    HW212438   5.339   3.408   0.912 -1.3810 -1.6990  1.6125
 3168SOL    HW312439   5.378   3.497   1.029  0.3307 -1.3036  0.7765
 3168SOL    MW412440   5.397   3.433   0.973  0.0391 -0.6802 -0.0523
 3169SOL     OW12441   3.019   6.191   4.484 -0.4869  0.7033  0.2422
 3169SOL    HW212442   3.007   6.248   4.408 -0.9344 -0.4079 -0.5529
 3169SOL    HW312443   3.114   6.180   4.492 -0.4225 -1.7059 -2.1880
 3169SOL    MW412444   3.030   6.197   4.475 -0.5375  0.2388 -0.1833
 3170SOL     OW12445   3.389   1.991   2.464  0.3246  0.1397 -0.5544
 3170SOL    HW212446   3.307   1.960   2.502  0.0303  1.4074 -0.1122
 3170SOL    HW312447   3.373   1.992   2.370 -0.3561  0.8474 -0.4423
 3170SOL    MW412448   3.376   1.987   2.457  0.1960  0.4003 -0.4812
 3171SOL     OW12449   5.520   3.060   2.584  0.1084  0.6609 -0.0292
 3171SOL    HW212450   5.547   2.984   2.636  1.3019  1.9132  1.2711
 3171SOL    HW312451   5.427   3.071   2.605 -0.4435 -1.1486 -1.2363
 3171SOL    MW412452   5.511   3.051   2.594  0.1930  0.5874 -0.0169
 3172SOL     OW12453   0.815   4.844   1.940  0.1742 -0.0842 -0.2510
 3172SOL    HW212454   0.766   4.836   2.021 -1.1969  2.5005 -0.7082
 3172SOL    HW312455   0.770   4.785   1.879 -0.4611 -0.0335  0.1610
 3172SOL    MW412456   0.803   4.835   1.942 -0.0905  0.2635 -0.2569
 3173SOL     OW12457   3.043   4.485   1.399  0.1132  0.0464  0.3584
 3173SOL    HW212458   3.056   4.414   1.336 -0.7947  0.2520 -0.0849
 3173SOL    HW312459   3.082   4.562   1.358 -0.7788  0.2561 -0.1302
 3173SOL    MW412460   3.050   4.486   1.385 -0.1242  0.1012  0.2354
 3174SOL     OW12461   5.838   1.550   4.035 -0.1458  0.9206  0.4094
 3174SOL    HW212462   5.911   1.609   4.053 -0.4298  1.0648  1.1424
 3174SOL    HW312463   5.806   1.525   4.122 -1.5141  1.5445  0.1168
 3174SOL    MW412464   5.843   1.555   4.049 -0.3638  1.0220  0.4675
 3175SOL     OW12465   3.664   5.006   1.092 -0.1432 -0.1701  0.3431
 3175SOL    HW212466   3.714   5.063   1.035  0.0450 -0.1478  0.5294
 3175SOL    HW312467   3.718   4.928   1.102  0.7636  0.6317  2.1035
 3175SOL    MW412468   3.677   5.003   1.086  0.0013 -0.0614  0.5999
 3176SOL     OW12469   4.599   3.585   4.122  0.0967  0.4766  0.2847
 3176SOL    HW212470   4.526   3.635   4.159 -2.0538 -1.2002 -1.3693
 3176SOL    HW312471   4.560   3.501   4.098  2.0427  0.2744 -2.6968
 3176SOL    MW412472   4.584   3.581   4.124  0.0697  0.2287 -0.3269
 3177SOL     OW12473   0.558   2.447   3.376  0.2816  0.2781 -0.5244
 3177SOL    HW212474   0.494   2.517   3.388 -0.8235 -0.4270 -1.9476
 3177SOL    HW312475   0.586   2.424   3.464 -2.4357 -0.2524  0.3137
 3177SOL    MW412476   0.553   2.453   3.389 -0.2227  0.1151 -0.6016
 3178SOL     OW12477   1.394   3.574   2.467  0.2774 -0.0554 -0.3605
 3178SOL    HW212478   1.487   3.596   2.470 -0.0450  1.2922  0.6022
 3178SOL    HW312479   1.356   3.640   2.408 -0.3170  0.4948  0.6087
 3178SOL    MW412480   1.401   3.586   2.459  0.1565  0.1950 -0.1056
 3179SOL     OW12481   4.327   2.196   2.529  0.1249  0.4497  0.5095
 3179SOL    HW212482   4.358   2.283   2.503  0.6487 -0.4353 -2.0535
 3179SOL    HW312483   4.232   2.199   2.514  0.3079  0.2172 -0.7571
 3179SOL    MW412484   4.318   2.208   2.524  0.2182  0.3022  0.0042
 3180SOL     OW12485   0.674   1.470   5.148 -0.3837  0.4921  0.4333
 3180SOL    HW212486   0.710   1.521   5.220  1.3313  0.0442 -0.0647
 3180SOL    HW312487   0.734   1.396   5.138 -1.2159 -0.0643 -0.7223
 3180SOL    MW412488   0.686   1.467   5.156 -0.2672  0.3596  0.2151
 3181SOL     OW12489   1.681   4.141   4.126 -0.1763  0.5715 -0.1850
 3181SOL    HW212490   1.656   4.106   4.041 -1.4275  1.4420 -0.2003
 3181SOL    HW312491   1.601   4.138   4.179  0.0235  2.0421  0.2530
 3181SOL    MW412492   1.667   4.136   4.122 -0.3150  0.8804 -0.1293
 3182SOL     OW12493   4.704   2.137   3.656 -0.5376 -0.6746  0.2592
 3182SOL    HW212494   4.650   2.169   3.584  0.1180 -0.0185  0.0404
 3182SOL    HW312495   4.657   2.164   3.735 -0.1985  0.5060  0.0730
 3182SOL    MW412496   4.690   2.145   3.657 -0.4063 -0.4323  0.2057
 3183SOL     OW12497   1.815   2.878   6.326 -0.2146 -0.2493  0.2837
 3183SOL    HW212498   1.749   2.879   6.396  0.6393  2.1052  1.1428
 3183SOL    HW312499   1.868   2.955   6.342  1.9117 -1.3064 -1.2297
 3183SOL    MW412500   1.813   2.888   6.337  0.1786 -0.0782  0.1973
 3184SOL     OW12501   0.713   2.008   2.787  0.0349  0.0950 -0.4824
 3184SOL    HW212502   0.669   1.938   2.739  1.3283 -0.3713 -1.0241
 3184SOL    HW312503   0.774   2.045   2.724  0.7371  0.4363  0.3839
 3184SOL    MW412504   0.715   2.004   2.773  0.2982  0.0785 -0.4396
 3185SOL     OW12505   3.136   4.325   1.172 -0.0669 -0.0994 -0.5210
 3185SOL    HW212506   3.220   4.281   1.159  0.2336 -0.5781  2.4429
 3185SOL    HW312507   3.072   4.254   1.175 -0.7728  0.2925 -3.3195
 3185SOL    MW412508   3.139   4.310   1.171 -0.1204 -0.1109 -0.4992
 3186SOL     OW12509   2.143   3.667   6.020  0.2791 -0.3824 -0.3237
 3186SOL    HW212510   2.238   3.662   6.036  0.2877  0.0997 -0.1938
 3186SOL    HW312511   2.107   3.699   6.103 -0.0737 -1.1846 -0.1631
 3186SOL    MW412512   2.151   3.671   6.033  0.2337 -0.4246 -0.2853
 3187SOL     OW12513   1.722   0.142   2.636 -0.6179 -0.4356  0.0053
 3187SOL    HW212514   1.698   0.102   2.720 -0.3332 -0.8961 -0.1285
 3187SOL    HW312515   1.754   0.069   2.584 -0.0534 -0.0164 -0.2349
 3187SOL    MW412516   1.723   0.127   2.640 -0.5059 -0.4410 -0.0441
 3188SOL     OW12517   2.047   3.421   3.296  0.5215 -0.0781 -0.5920
 3188SOL    HW212518   1.961   3.450   3.267  0.3761 -0.7905 -0.9017
 3188SOL    HW312519   2.083   3.373   3.221  1.4303  0.7078 -0.6700
 3188SOL    MW412520   2.040   3.418   3.282  0.6222 -0.0684 -0.6431
 3189SOL     OW12521   5.439   1.264   4.836  0.0658 -0.3599  0.8472
 3189SOL    HW212522   5.500   1.320   4.885  0.7008  0.5906 -0.9233
 3189SOL    HW312523   5.425   1.311   4.754  1.3147 -3.1703 -1.1399
 3189SOL    MW412524   5.445   1.278   4.831  0.3144 -0.6053  0.3515
 3190SOL     OW12525   2.950   3.527   4.810  0.0590  0.4741  0.0364
 3190SOL    HW212526   2.881   3.568   4.863  0.3290  1.7630 -0.5573
 3190SOL    HW312527   2.936   3.563   4.722  1.0367  0.1797 -0.2488
 3190SOL    MW412528   2.939   3.537   4.805  0.2236  0.6053 -0.0796
 3191SOL     OW12529   0.214   3.212   1.331  0.7768  0.4579  0.4610
 3191SOL    HW212530   0.213   3.218   1.235  1.5328  0.0155  0.4201
 3191SOL    HW312531   0.125   3.186   1.354  1.5861 -4.1427 -0.4810
 3191SOL    MW412532   0.202   3.209   1.321  0.9833 -0.2075  0.3313
 3192SOL     OW12533   3.978   6.184   3.264 -0.0826 -0.1370  0.5763
 3192SOL    HW212534   4.046   6.166   3.198 -0.4200 -0.0253  0.1944
 3192SOL    HW312535   4.024   6.232   3.333  0.2237 -0.0479  0.3142
 3192SOL    MW412536   3.993   6.188   3.264 -0.0867 -0.1105  0.4914
 3193SOL     OW12537   3.846   6.136   1.443 -0.0534 -0.6674  0.2269
 3193SOL    HW212538   3.895   6.074   1.498  2.3229 -0.1251 -1.1270
 3193SOL    HW312539   3.829   6.089   1.362  0.7812  0.0518 -0.3872
 3193SOL    MW412540   3.850   6.122   1.440  0.3702 -0.5010 -0.0327
 3194SOL     OW12541   5.396   3.865   3.826  0.0105  0.0549  0.1267
 3194SOL    HW212542   5.351   3.879   3.743  0.9021 -2.4959 -0.8974
 3194SOL    HW312543   5.337   3.808   3.876  1.2987 -2.0567 -0.6190
 3194SOL    MW412544   5.382   3.859   3.821  0.2981 -0.5602 -0.1068
 3195SOL     OW12545   0.738   6.073   3.423 -0.7548  0.6503  0.2430
 3195SOL    HW212546   0.771   6.123   3.348  0.3819 -1.1756 -0.5360
 3195SOL    HW312547   0.643   6.072   3.412 -0.6293  0.7754 -0.9507
 3195SOL    MW412548   0.730   6.080   3.412 -0.5883  0.4259 -0.0173
 3196SOL     OW12549   0.007   3.965   5.018  0.2225  0.5436 -0.1550
 3196SOL    HW212550   0.030   3.895   4.957  0.1862 -0.1102  0.5563
 3196SOL    HW312551  -0.035   4.032   4.964 -0.6453 -0.4216 -0.7183
 3196SOL    MW412552   0.004   3.965   5.003  0.1032  0.3300 -0.1355
 3197SOL     OW12553   0.798   6.328   2.494  0.2361  0.1431 -0.5375
 3197SOL    HW212554   0.746   6.280   2.429  1.4313 -0.8853 -0.7609
 3197SOL    HW312555   0.869   6.367   2.443  0.3877  0.5007 -0.0532
 3197SOL    MW412556   0.801   6.327   2.478  0.4138  0.0546 -0.5031
 3198SOL     OW12557   3.538   1.017   0.999 -0.3320 -0.1595  0.2649
 3198SOL    HW212558   3.579   1.035   0.915  1.2172 -0.3473  0.9430
 3198SOL    HW312559   3.445   1.029   0.984 -0.0168  0.4876 -1.2987
 3198SOL    MW412560   3.531   1.021   0.986 -0.0860 -0.0989  0.1481
 3199SOL     OW12561   4.245   0.533   2.760  0.3682  0.2284 -0.3877
 3199SOL    HW212562   4.258   0.554   2.668 -0.0428  1.3212 -0.2132
 3199SOL    HW312563   4.310   0.465   2.779 -0.8903 -1.5378 -1.9896
 3199SOL    MW412564   4.255   0.527   2.750  0.1479  0.1395 -0.5760
 3200SOL     OW12565   1.500   5.133   4.352  0.5718 -0.1397  1.5230
 3200SOL    HW212566   1.536   5.218   4.380 -1.2745  0.2330  2.9288
 3200SOL    HW312567   1.460   5.152   4.267 -0.7025  0.6692  2.2784
 3200SOL    MW412568   1.500   5.147   4.344  0.1600  0.0162  1.8081
 3201SOL     OW12569   5.316   5.040   1.628 -0.3942  0.3168 -0.0097
 3201SOL    HW212570   5.379   5.030   1.557 -0.6631  0.2756 -0.2453
 3201SOL    HW312571   5.303   5.134   1.637 -1.6615  0.2851 -1.1853
 3201SOL    MW412572   5.323   5.051   1.620 -0.5969  0.3072 -0.1959
 3202SOL     OW12573   3.976   3.369   3.358 -0.4766 -1.0059  0.1156
 3202SOL    HW212574   4.037   3.428   3.403 -0.2867 -0.7136 -0.5215
 3202SOL    HW312575   3.921   3.334   3.428 -0.6061 -0.0671  0.4947
 3202SOL    MW412576   3.977   3.372   3.373 -0.4686 -0.8435  0.0815
 3203SOL     OW12577   4.342   5.332   5.767 -0.7729  0.7863  0.1988
 3203SOL    HW212578   4.368   5.418   5.801  1.3906  0.2856 -0.0628
 3203SOL    HW312579   4.324   5.347   5.674  0.8508  0.7643 -0.1450
 3203SOL    MW412580   4.343   5.345   5.759 -0.2732  0.7173  0.1189
 3204SOL     OW12581   2.067   2.198   0.039 -0.3093  0.1203  0.0801
 3204SOL    HW212582   2.024   2.115   0.058 -1.1179  0.4229 -0.3804
 3204SOL    HW312583   2.006   2.264   0.070  0.4411  0.5446  0.6687
 3204SOL    MW412584   2.053   2.196   0.045 -0.3170  0.2162  0.0970
 3205SOL     OW12585   6.260   2.988   4.146 -0.1969  0.0267 -0.0294
 3205SOL    HW212586   6.271   2.933   4.069  0.7150 -0.4548  0.4323
 3205SOL    HW312587   6.317   3.063   4.130  0.1317 -0.1608  0.2517
 3205SOL    MW412588   6.269   2.991   4.134 -0.0332 -0.0616  0.0686
 3206SOL     OW12589   3.004   5.745   4.150  0.0130 -0.1931 -0.0790
 3206SOL    HW212590   3.099   5.746   4.157 -0.0749  0.1543  1.2595
 3206SOL    HW312591   2.977   5.834   4.172 -0.6052 -0.1655 -0.8969
 3206SOL    MW412592   3.013   5.757   4.153 -0.0802 -0.1436 -0.0103
 3207SOL     OW12593   0.998   0.142   0.683 -0.2511  0.0836  0.1670
 3207SOL    HW212594   0.978   0.099   0.599  1.5189 -0.1681 -0.1609
 3207SOL    HW312595   0.971   0.078   0.749  0.9644 -0.9556 -0.2878
 3207SOL    MW412596   0.992   0.128   0.680  0.1428 -0.0867  0.0637
 3208SOL     OW12597   3.792   3.702   5.202 -0.2404  0.0621  0.1270
 3208SOL    HW212598   3.752   3.741   5.124  1.3885  0.9094 -0.3261
 3208SOL    HW312599   3.872   3.753   5.216  1.1145 -2.0610  0.5242
 3208SOL    MW412600   3.797   3.714   5.194  0.1533 -0.1062  0.1196
 3209SOL     OW12601   0.580   4.225   3.031  0.0130  0.0484 -0.4480
 3209SOL    HW212602   0.580   4.307   2.983 -0.4755  0.6469  0.5565
 3209SOL    HW312603   0.508   4.174   2.994  0.6920 -0.1856 -1.4785
 3209SOL    MW412604   0.571   4.229   3.020  0.0382  0.0965 -0.4515
 3210SOL     OW12605   1.356   2.299   1.069  0.2927  0.5974 -0.1871
 3210SOL    HW212606   1.289   2.249   1.116 -0.4070  1.5939 -0.1061
 3210SOL    HW312607   1.324   2.304   0.979  1.9794 -1.9392 -1.0499
 3210SOL    MW412608   1.343   2.293   1.063  0.4229  0.3942 -0.2903
 3211SOL     OW12609   1.687   0.906   3.916  0.9418 -0.4526 -0.0044
 3211SOL    HW212610   1.670   0.883   4.007 -1.7389  1.6758  0.1720
 3211SOL    HW312611   1.600   0.912   3.876  1.9216  0.7587 -2.1385
 3211SOL    MW412612   1.673   0.904   3.923  0.7174 -0.0120 -0.2627
 3212SOL     OW12613   3.561   1.313   2.482 -0.2335 -0.4213 -0.1610
 3212SOL    HW212614   3.623   1.384   2.502 -1.3089  0.5343 -0.1366
 3212SOL    HW312615   3.568   1.300   2.388  0.7098 -1.0143 -0.0275
 3212SOL    MW412616   3.570   1.321   2.472 -0.2509 -0.3735 -0.1402
 3213SOL     OW12617   0.683   6.344   4.968  0.5282 -0.3907  0.2669
 3213SOL    HW212618   0.624   6.288   4.917 -0.3964  0.8133 -0.0271
 3213SOL    HW312619   0.634   6.424   4.982  2.2938  0.8757 -0.4352
 3213SOL    MW412620   0.669   6.347   4.963  0.6392 -0.0648  0.1355
 3214SOL     OW12621   3.922   3.129   2.712 -0.0044 -0.3982 -0.1021
 3214SOL    HW212622   3.962   3.042   2.714  0.1453 -0.3771 -1.2892
 3214SOL    HW312623   3.953   3.172   2.791  0.1655 -1.3171  0.3429
 3214SOL    MW412624   3.931   3.123   2.722  0.0377 -0.5167 -0.2000
 3215SOL     OW12625   5.892   5.077   4.646  0.2775  0.2916 -0.3597
 3215SOL    HW212626   5.832   5.006   4.621  0.8786 -0.3534 -0.0147
 3215SOL    HW312627   5.904   5.128   4.566 -0.2095  0.0357 -0.6014
 3215SOL    MW412628   5.886   5.074   4.632  0.2926  0.1728 -0.3461
 3216SOL     OW12629   4.177   1.782   4.202 -0.1751 -0.3892  0.1609
 3216SOL    HW212630   4.261   1.826   4.217 -0.8193  0.4761  1.3528
 3216SOL    HW312631   4.156   1.802   4.110  0.5348  0.0493  0.0878
 3216SOL    MW412632   4.185   1.790   4.192 -0.1664 -0.2172  0.3085
 3217SOL     OW12633   1.978   2.949   3.703 -0.2221 -0.4435  0.0922
 3217SOL    HW212634   2.069   2.917   3.700  0.0588  0.3626 -0.9158
 3217SOL    HW312635   1.945   2.933   3.615 -1.8038 -2.6749  1.0035
 3217SOL    MW412636   1.986   2.942   3.691 -0.3938 -0.6316  0.0794
 3218SOL     OW12637   6.119   6.334   1.305 -0.4419  0.0413 -0.2079
 3218SOL    HW212638   6.085   6.247   1.325 -0.5092 -0.0983 -0.9234
 3218SOL    HW312639   6.042   6.385   1.280 -0.7178  0.8821  2.0421
 3218SOL    MW412640   6.104   6.329   1.305 -0.4872  0.1338 -0.0055
 3219SOL     OW12641   4.127   4.199   0.088  0.2654  0.2779  0.0070
 3219SOL    HW212642   4.157   4.119   0.133 -0.3062 -1.3536 -2.2959
 3219SOL    HW312643   4.207   4.238   0.053  0.3802 -0.5663 -0.7332
 3219SOL    MW412644   4.142   4.193   0.089  0.2051 -0.0487 -0.3945
 3220SOL     OW12645   5.228  -0.005   1.793  0.0905  0.2270  0.2747
 3220SOL    HW212646   5.300  -0.039   1.847  0.6596  0.4404 -0.3361
 3220SOL    HW312647   5.199   0.073   1.839 -1.4748 -1.2096  1.9022
 3220SOL    MW412648   5.234   0.001   1.806 -0.0409  0.0656  0.4089
 3221SOL     OW12649   6.132   1.357   4.128 -0.3012  0.2316 -0.0547
 3221SOL    HW212650   6.152   1.416   4.201 -0.5559  0.3737 -0.1003
 3221SOL    HW312651   6.045   1.322   4.147 -1.2040  1.7127 -1.2252
 3221SOL    MW412652   6.123   1.360   4.140 -0.4539  0.4458 -0.2152
 3222SOL     OW12653   1.534   6.063   0.644 -0.2541  0.0706  0.6960
 3222SOL    HW212654   1.619   6.028   0.618 -1.6613 -3.1399 -0.0854
 3222SOL    HW312655   1.546   6.158   0.643  3.5218 -0.2513  1.5289
 3222SOL    MW412656   1.547   6.071   0.640  0.0584 -0.3954  0.7028
 3223SOL     OW12657   1.127   0.153   4.878 -0.3657  0.6077  0.6612
 3223SOL    HW212658   1.210   0.106   4.863 -0.2626  1.5840 -2.4732
 3223SOL    HW312659   1.154   0.236   4.916  0.1275  0.8739 -0.2282
 3223SOL    MW412660   1.142   0.158   4.881 -0.2870  0.7717  0.1304
 3224SOL     OW12661   2.673   2.297   1.509  0.1561  0.0915 -0.0672
 3224SOL    HW212662   2.688   2.327   1.420  0.2355  0.0533 -0.0663
 3224SOL    HW312663   2.669   2.202   1.502 -3.3144  0.1517 -0.6086
 3224SOL    MW412664   2.674   2.289   1.497 -0.2913  0.0944 -0.1385
 3225SOL     OW12665   2.622   1.828   3.664  0.2636 -0.2329  0.7722
 3225SOL    HW212666   2.571   1.866   3.592  0.7573 -0.1647  0.4559
 3225SOL    HW312667   2.712   1.854   3.646  0.4363 -0.5066  1.2315
 3225SOL    MW412668   2.627   1.836   3.652  0.3516 -0.2600  0.7911
 3226SOL     OW12669   0.631   3.650   2.506  0.2326  0.2430  0.4087
 3226SOL    HW212670   0.551   3.606   2.481  0.2648  1.0102 -1.1947
 3226SOL    HW312671   0.616   3.679   2.596 -1.4127  0.6415  0.0372
 3226SOL    MW412672   0.619   3.648   2.515  0.0198  0.3968  0.1481
 3227SOL     OW12673   0.250   4.172   2.271 -0.5599  0.3245  0.6066
 3227SOL    HW212674   0.213   4.152   2.185 -0.6343  2.2307  0.1619
 3227SOL    HW312675   0.176   4.204   2.323 -0.3256  0.1484  1.0560
 3227SOL    MW412676   0.235   4.174   2.267 -0.5388  0.5528  0.6072
 3228SOL     OW12677   1.985   0.095   1.003 -0.6065 -0.0809 -0.3105
 3228SOL    HW212678   1.917   0.156   0.974 -0.1794  0.8108  0.4970
 3228SOL    HW312679   2.060   0.114   0.947  0.4785  2.1776  1.6864
 3228SOL    MW412680   1.986   0.106   0.992 -0.4070  0.3347  0.0595
 3229SOL     OW12681   5.761   1.719   6.021 -0.4531 -0.2224 -0.3629
 3229SOL    HW212682   5.837   1.731   5.964 -0.1867  1.2069  0.2371
 3229SOL    HW312683   5.779   1.638   6.069  0.9772  0.3802  0.1683
 3229SOL    MW412684   5.773   1.710   6.020 -0.2292  0.0457 -0.2136
 3230SOL     OW12685   0.061   3.527   0.301  0.4895  0.3139  0.6318
 3230SOL    HW212686   0.032   3.440   0.328 -0.1147  0.5750  0.8611
 3230SOL    HW312687   0.013   3.587   0.359  0.4160  0.8199  0.0624
 3230SOL    MW412688   0.051   3.524   0.312  0.4001  0.4151  0.5869
 3231SOL     OW12689   3.588   3.321   3.999 -0.6487 -0.8068 -0.0890
 3231SOL    HW212690   3.583   3.237   4.044  1.9418 -1.6789 -1.2388
 3231SOL    HW312691   3.656   3.369   4.046 -0.9786  0.0093 -0.4339
 3231SOL    MW412692   3.596   3.316   4.011 -0.3504 -0.8142 -0.2862
 3232SOL     OW12693   1.271   3.804   3.173  0.7818  0.0533  0.1730
 3232SOL    HW212694   1.293   3.713   3.152 -0.9105 -0.3955  0.2387
 3232SOL    HW312695   1.180   3.814   3.144  0.2147  1.0736  2.1556
 3232SOL    MW412696   1.262   3.793   3.166  0.4837  0.1287  0.4432
 3233SOL     OW12697   4.639   4.454   6.120 -0.0049 -0.7748 -0.2980
 3233SOL    HW212698   4.678   4.539   6.138  0.5995 -0.9152 -0.8945
 3233SOL    HW312699   4.548   4.474   6.096  0.9127  0.0905 -3.6776
 3233SOL    MW412700   4.632   4.468   6.119  0.1959 -0.6792 -0.8226
 3234SOL     OW12701   2.889   4.596   5.648  0.1123 -0.4504 -0.3219
 3234SOL    HW212702   2.889   4.502   5.667  0.1062 -0.6766 -1.3819
 3234SOL    HW312703   2.948   4.606   5.573  1.2466  0.5977  0.6735
 3234SOL    MW412704   2.897   4.585   5.641  0.2612 -0.3419 -0.3304
 3235SOL     OW12705   6.208   0.900   4.567  0.2359 -0.1559 -0.6917
 3235SOL    HW212706   6.260   0.894   4.647 -0.6070 -1.5548 -0.2165
 3235SOL    HW312707   6.264   0.863   4.499  1.3984  2.0605 -1.0328
 3235SOL    MW412708   6.222   0.894   4.568  0.2780 -0.0480 -0.6740
 3236SOL     OW12709   0.217   3.841   0.209 -0.0048 -0.4626  0.7142
 3236SOL    HW212710   0.150   3.836   0.277 -0.3659  1.1321  0.5140
 3236SOL    HW312711   0.172   3.816   0.129 -0.1407 -0.2397  0.7199
 3236SOL    MW412712   0.202   3.837   0.208 -0.0704 -0.2228  0.6886
 3237SOL     OW12713   1.290   2.478   1.907 -0.1600  0.3943 -0.0765
 3237SOL    HW212714   1.210   2.436   1.938  0.1267  0.5397  0.8880
 3237SOL    HW312715   1.320   2.530   1.981 -0.4516  2.2601 -1.2144
 3237SOL    MW412716   1.284   2.479   1.920 -0.1607  0.6596 -0.0994
 3238SOL     OW12717   2.885   1.782   6.236 -0.6183  0.4414  0.1257
 3238SOL    HW212718   2.873   1.690   6.211 -0.2786  0.5426 -0.4079
 3238SOL    HW312719   2.832   1.831   6.174 -0.6534  0.6216  0.2969
 3238SOL    MW412720   2.876   1.776   6.225 -0.5782  0.4785  0.0779
 3239SOL     OW12721   3.420   5.222   4.119 -0.2660 -0.5417 -0.0155
 3239SOL    HW212722   3.359   5.149   4.131 -0.8815 -0.0439 -0.0977
 3239SOL    HW312723   3.456   5.238   4.206 -1.5711  0.3047  0.3951
 3239SOL    MW412724   3.417   5.214   4.132 -0.5194 -0.3643  0.0278
 3240SOL     OW12725   2.400   4.603   0.831  0.4707  0.2516  0.6644
 3240SOL    HW212726   2.453   4.642   0.901  0.4915 -0.0825  0.8372
 3240SOL    HW312727   2.348   4.536   0.875  0.0181  0.4716  0.4669
 3240SOL    MW412728   2.400   4.599   0.846  0.4137  0.2366  0.6611
 3241SOL     OW12729   3.295   0.500   6.402 -0.2367 -0.1843 -0.1745
 3241SOL    HW212730   3.308   0.443   6.477 -5.1854 -2.6550 -0.8026
 3241SOL    HW312731   3.260   0.582   6.438 -1.6777 -1.0064  0.3685
 3241SOL    MW412732   3.292   0.504   6.416 -1.0798 -0.6188 -0.1857
 3242SOL     OW12733   4.156   1.981   3.556  0.3192 -0.5114 -0.8610
 3242SOL    HW212734   4.097   1.970   3.482 -0.8368 -2.8632  0.2778
 3242SOL    HW312735   4.204   1.898   3.561 -0.3959 -0.8698  1.5649
 3242SOL    MW412736   4.155   1.969   3.547  0.0723 -0.8690 -0.3907
 3243SOL     OW12737   4.185   0.614   5.255 -0.0404  0.2454  0.3999
 3243SOL    HW212738   4.207   0.677   5.186  0.8726  0.5979  0.9996
 3243SOL    HW312739   4.206   0.529   5.216  0.1044  0.4114  0.1070
 3243SOL    MW412740   4.191   0.611   5.241  0.0992  0.3138  0.4403
 3244SOL     OW12741   0.170   3.331   2.073  0.1593  0.2900  0.2099
 3244SOL    HW212742   0.083   3.307   2.040 -0.9953  0.0867  3.1033
 3244SOL    HW312743   0.186   3.417   2.035 -1.2705  0.3107 -0.4403
 3244SOL    MW412744   0.160   3.339   2.064 -0.1817  0.2659  0.5059
 3245SOL     OW12745   2.943   2.268   1.569 -0.3019  0.2693  0.1873
 3245SOL    HW212746   3.007   2.315   1.516  0.8289  0.3883  1.6098
 3245SOL    HW312747   2.859   2.309   1.547 -0.2313 -0.9368 -2.9130
 3245SOL    MW412748   2.940   2.279   1.559 -0.1434  0.1258 -0.0341
 3246SOL     OW12749   1.438   6.336   0.147 -0.3622 -0.5372  0.3981
 3246SOL    HW212750   1.432   6.258   0.202 -0.0114 -0.7669  0.1204
 3246SOL    HW312751   1.492   6.309   0.073  0.5645  0.2299  0.7635
 3246SOL    MW412752   1.445   6.322   0.145 -0.1937 -0.4663  0.4097
 3247SOL     OW12753   6.184   5.111   5.179 -0.5295  0.7361 -0.7029
 3247SOL    HW212754   6.231   5.187   5.214 -0.8183  2.2806 -3.4103
 3247SOL    HW312755   6.191   5.120   5.084  2.3063 -4.3852 -1.3894
 3247SOL    MW412756   6.191   5.122   5.171 -0.1934  0.2642 -1.1507
 3248SOL     OW12757   2.826   0.122   4.200 -0.3879  0.0525 -0.3404
 3248SOL    HW212758   2.886   0.068   4.251  0.1343 -0.9231 -1.9147
 3248SOL    HW312759   2.877   0.199   4.176 -0.8056  0.7881  1.0090
 3248SOL    MW412760   2.841   0.125   4.203 -0.3741  0.0208 -0.3700
 3249SOL     OW12761   0.585   1.201   4.408  0.5766 -0.0428  0.3110
 3249SOL    HW212762   0.649   1.160   4.466  1.2833  0.2857 -0.2284
 3249SOL    HW312763   0.574   1.289   4.442 -0.6455 -0.5135  1.2301
 3249SOL    MW412764   0.592   1.207   4.420  0.5086 -0.0616  0.3611
 3250SOL     OW12765   4.007   4.881   5.142 -0.2047  0.0403 -0.3930
 3250SOL    HW212766   3.994   4.926   5.225 -0.1914 -1.0504  0.2134
 3250SOL    HW312767   4.037   4.950   5.082  0.4412  0.7143  0.6733
 3250SOL    MW412768   4.010   4.896   5.145 -0.1178 -0.0147 -0.1723
 3251SOL     OW12769   5.614   0.348   4.001  0.0287 -0.1516 -0.1352
 3251SOL    HW212770   5.541   0.312   4.051  0.4799  0.3576  0.9099
 3251SOL    HW312771   5.600   0.315   3.912 -0.3735 -1.6741  0.4674
 3251SOL    MW412772   5.602   0.339   3.996  0.0352 -0.2853  0.0822
 3252SOL     OW12773   3.669   4.707   5.795  0.0028 -0.4764 -0.0596
 3252SOL    HW212774   3.598   4.655   5.833 -0.0050  0.5791  1.4729
 3252SOL    HW312775   3.747   4.653   5.804 -0.2559 -0.8116  0.1606
 3252SOL    MW412776   3.670   4.693   5.801 -0.0324 -0.3814  0.1717
 3253SOL     OW12777   2.752   4.970   1.263 -0.0409  0.2029 -0.3339
 3253SOL    HW212778   2.754   5.066   1.262 -2.2035  0.3012  0.8139
 3253SOL    HW312779   2.753   4.947   1.356 -0.0780 -0.8755 -0.5911
 3253SOL    MW412780   2.753   4.979   1.275 -0.3311  0.0736 -0.2164
 3254SOL     OW12781   1.770   4.090   2.034  0.1372  0.3302  0.6609
 3254SOL    HW212782   1.766   4.041   2.116  0.7082  0.5478  0.8244
 3254SOL    HW312783   1.842   4.152   2.046 -0.7972  1.4703  0.5943
 3254SOL    MW412784   1.779   4.092   2.046  0.0892  0.5094  0.6737
 3255SOL     OW12785   0.872   4.865   1.150 -0.3462 -0.2946  0.4269
 3255SOL    HW212786   0.832   4.779   1.142  0.4896 -0.5795 -1.1666
 3255SOL    HW312787   0.958   4.847   1.189  0.0029 -0.2625 -0.3031
 3255SOL    MW412788   0.878   4.851   1.154 -0.1898 -0.3280  0.1204
 3256SOL     OW12789   3.668   1.798   2.286 -0.1542 -0.1547 -0.1840
 3256SOL    HW212790   3.603   1.747   2.335  2.3305 -2.3371  1.0620
 3256SOL    HW312791   3.668   1.884   2.329 -0.5430 -0.8926  1.3617
 3256SOL    MW412792   3.659   1.802   2.298  0.1223 -0.5400  0.1843
 3257SOL     OW12793   2.488   2.489   0.220  0.8564  0.3073 -0.6954
 3257SOL    HW212794   2.506   2.395   0.231 -0.0418  0.1419 -0.5567
 3257SOL    HW312795   2.557   2.519   0.160  1.2740 -0.3954 -0.5875
 3257SOL    MW412796   2.500   2.480   0.214  0.7930  0.1928 -0.6629
 3258SOL     OW12797   0.975   1.833   3.465 -0.0945  0.3593 -0.5449
 3258SOL    HW212798   1.007   1.758   3.414 -2.5453 -2.6473  1.9057
 3258SOL    HW312799   0.903   1.869   3.414 -0.1963 -0.2649 -0.8438
 3258SOL    MW412800   0.970   1.828   3.452 -0.4312 -0.1197 -0.2610
 3259SOL     OW12801   2.260   3.353   5.760 -0.0849  0.3633  0.3751
 3259SOL    HW212802   2.175   3.380   5.796 -0.2386 -0.7965  0.9133
 3259SOL    HW312803   2.296   3.293   5.825 -0.5610 -2.1431 -1.5332
 3259SOL    MW412804   2.253   3.349   5.774 -0.1680 -0.1204  0.1943
 3260SOL     OW12805   4.204   0.368   0.024 -0.1681 -0.3297 -0.0894
 3260SOL    HW212806   4.165   0.330  -0.055 -1.1574 -0.9139  0.6545
 3260SOL    HW312807   4.161   0.453   0.034  0.1175 -0.1581 -0.2881
 3260SOL    MW412808   4.193   0.374   0.015 -0.2609 -0.3841 -0.0174
 3261SOL     OW12809   2.944   6.310   4.901 -0.1489 -0.0312 -0.0852
 3261SOL    HW212810   2.872   6.369   4.922 -0.1209 -0.0444  0.0526
 3261SOL    HW312811   2.908   6.222   4.912 -0.5599 -0.0670 -1.5422
 3261SOL    MW412812   2.930   6.306   4.905 -0.1995 -0.0376 -0.2592
 3262SOL     OW12813   0.574   2.433   1.437  0.1121 -0.4912 -0.3309
 3262SOL    HW212814   0.537   2.354   1.477  0.7878 -0.6506 -0.0076
 3262SOL    HW312815   0.537   2.505   1.488 -0.1039 -0.6210 -0.2999
 3262SOL    MW412816   0.564   2.432   1.449  0.1727 -0.5294 -0.2841
 3263SOL     OW12817   5.411   3.314   5.870  0.2293 -0.4791 -0.7447
 3263SOL    HW212818   5.329   3.306   5.919  0.7522  1.1879  0.4635
 3263SOL    HW312819   5.417   3.407   5.847  2.2188 -0.3739  0.0160
 3263SOL    MW412820   5.401   3.325   5.873  0.5608 -0.2453 -0.4849
 3264SOL     OW12821   4.352   4.675   3.755 -0.4430  0.1412 -0.0002
 3264SOL    HW212822   4.329   4.697   3.845 -1.4871  0.6573 -0.3681
 3264SOL    HW312823   4.395   4.590   3.761 -1.7299 -0.4843  0.8539
 3264SOL    MW412824   4.355   4.667   3.768 -0.7506  0.1268  0.0639
 3265SOL     OW12825   1.474   5.100   3.384 -0.0360 -0.4145 -0.0604
 3265SOL    HW212826   1.539   5.159   3.347  0.2516 -1.1459 -0.7540
 3265SOL    HW312827   1.521   5.051   3.452 -0.0525 -0.4404 -0.0675
 3265SOL    MW412828   1.488   5.101   3.388 -0.0002 -0.5144 -0.1528
 3266SOL     OW12829   0.997   5.453   3.654 -0.0374 -0.4664  0.5588
 3266SOL    HW212830   0.933   5.522   3.669  0.6323  1.1250 -2.8357
 3266SOL    HW312831   1.056   5.456   3.730 -2.1785  0.0574  2.2805
 3266SOL    MW412832   0.997   5.462   3.666 -0.2315 -0.1873  0.3381
 3267SOL     OW12833   1.030   5.156   4.190 -0.6764  0.0215  0.0148
 3267SOL    HW212834   0.956   5.147   4.250  0.1297 -1.3416  0.8618
 3267SOL    HW312835   1.069   5.240   4.213 -1.8810  0.7271 -0.3969
 3267SOL    MW412836   1.025   5.166   4.201 -0.7290 -0.0653  0.0723
 3268SOL     OW12837   5.090   3.280   3.697 -0.4537  0.5704  0.1221
 3268SOL    HW212838   5.131   3.303   3.780 -0.2804  3.3796 -0.6444
 3268SOL    HW312839   5.162   3.246   3.643 -0.4454 -0.6371  0.8500
 3268SOL    MW412840   5.105   3.279   3.701 -0.4297  0.7817  0.1170
 3269SOL     OW12841   5.175   5.878   1.938  0.0556 -0.1032  0.6869
 3269SOL    HW212842   5.175   5.941   1.866 -0.0218 -0.7677  0.0951
 3269SOL    HW312843   5.260   5.833   1.931  0.2841  0.2162  1.3574
 3269SOL    MW412844   5.186   5.880   1.928  0.0755 -0.1488  0.6973
 3270SOL     OW12845   6.290   3.557   1.376 -0.4337 -0.0568  0.2647
 3270SOL    HW212846   6.342   3.635   1.396  0.7826 -0.6859 -0.3137
 3270SOL    HW312847   6.317   3.532   1.287  0.3953 -2.0067  0.9924
 3270SOL    MW412848   6.301   3.564   1.367 -0.1639 -0.3970  0.2844
 3271SOL     OW12849   0.095   2.763   5.267  0.3941  0.1840  0.0446
 3271SOL    HW212850   0.143   2.684   5.241 -2.1732 -1.9292  1.1962
 3271SOL    HW312851   0.129   2.785   5.353  0.9022  0.1414 -0.1435
 3271SOL    MW412852   0.106   2.755   5.275  0.1224 -0.1004  0.1717
 3272SOL     OW12853   2.231   2.344   5.168  0.0379  0.1243  0.2806
 3272SOL    HW212854   2.263   2.300   5.089 -1.7490 -0.5874 -0.0904
 3272SOL    HW312855   2.269   2.295   5.240 -0.3756 -0.8424 -0.1425
 3272SOL    MW412856   2.240   2.332   5.167 -0.2524 -0.0971  0.1758
 3273SOL     OW12857   4.769   5.342   3.317 -0.0679  0.0230  0.0083
 3273SOL    HW212858   4.781   5.256   3.358 -1.7235 -1.1939 -1.8918
 3273SOL    HW312859   4.846   5.392   3.344  1.3425 -2.2997  0.5931
 3273SOL    MW412860   4.781   5.337   3.326 -0.1002 -0.4440 -0.1652
 3274SOL     OW12861   2.663   4.552   2.087  0.4856 -0.1044  0.2956
 3274SOL    HW212862   2.618   4.619   2.138  0.4949  0.0388  0.1139
 3274SOL    HW312863   2.655   4.473   2.140 -0.2562 -0.1578  0.1221
 3274SOL    MW412864   2.656   4.550   2.101  0.3890 -0.0925  0.2488
 3275SOL     OW12865   3.110   6.267   6.135  0.1131  0.0929 -0.1451
 3275SOL    HW212866   3.040   6.332   6.127  1.2514  1.3527 -0.1377
 3275SOL    HW312867   3.133   6.269   6.228  1.8011  1.4895 -0.5542
 3275SOL    MW412868   3.104   6.276   6.146  0.4860  0.4433 -0.1981
 3276SOL     OW12869   0.363   0.390   4.682  0.6222  0.2320 -0.5166
 3276SOL    HW212870   0.386   0.299   4.664  0.2195 -0.1811  0.9269
 3276SOL    HW312871   0.413   0.413   4.760  0.7211  1.2566 -0.8676
 3276SOL    MW412872   0.373   0.381   4.689  0.5821  0.3127 -0.3725
 3277SOL     OW12873   1.230   5.877   0.350 -0.0669 -0.3129  0.5750
 3277SOL    HW212874   1.141   5.875   0.386 -0.1411  0.1990  0.4251
 3277SOL    HW312875   1.261   5.966   0.366  1.0903 -0.9650  2.2051
 3277SOL    MW412876   1.222   5.888   0.357  0.0760 -0.3314  0.7703
 3278SOL     OW12877   5.240   5.101   4.634  0.1507  0.2044  0.5469
 3278SOL    HW212878   5.220   5.147   4.716  1.6075 -0.7346  1.4907
 3278SOL    HW312879   5.312   5.043   4.657  1.4706  0.8233 -1.7137
 3278SOL    MW412880   5.247   5.100   4.648  0.5171  0.1622  0.3732
 3279SOL     OW12881   2.360   5.335   6.362 -0.1755 -0.1360  0.0323
 3279SOL    HW212882   2.373   5.392   6.286 -1.9203  0.3191  0.0322
 3279SOL    HW312883   2.424   5.264   6.350 -1.5409 -1.0449 -2.8354
 3279SOL    MW412884   2.370   5.333   6.350 -0.5858 -0.1959 -0.3460
 3280SOL     OW12885   2.449   0.834   3.159 -0.1380 -0.0577 -0.0066
 3280SOL    HW212886   2.359   0.866   3.164 -0.4305 -0.5307 -1.6529
 3280SOL    HW312887   2.448   0.750   3.203 -0.8876 -0.7630 -1.3030
 3280SOL    MW412888   2.437   0.827   3.165 -0.2755 -0.2132 -0.3948
 3281SOL     OW12889   6.227   3.313   4.449  0.1338 -0.2787  0.1681
 3281SOL    HW212890   6.305   3.264   4.477  0.7467 -0.0800 -1.1214
 3281SOL    HW312891   6.162   3.245   4.430  0.2047 -0.4754  0.6156
 3281SOL    MW412892   6.229   3.297   4.450  0.2241 -0.2785  0.0570
 3282SOL     OW12893   6.064   0.490   1.515 -0.3306 -0.2965  0.0146
 3282SOL    HW212894   5.998   0.557   1.534 -1.6700 -1.5526  0.0265
 3282SOL    HW312895   6.038   0.455   1.430  1.1367  0.0894 -0.6141
 3282SOL    MW412896   6.052   0.494   1.507 -0.3137 -0.4113 -0.0668
 3283SOL     OW12897   3.443   5.574   5.486  0.0605  0.3158 -0.1526
 3283SOL    HW212898   3.521   5.628   5.474  1.4623 -1.6809 -0.3964
 3283SOL    HW312899   3.402   5.573   5.399  1.1007 -0.5769 -0.6499
 3283SOL    MW412900   3.448   5.581   5.473  0.3827 -0.0654 -0.2504
 3284SOL     OW12901   5.296   3.837   0.126  0.0294 -0.0006  0.4125
 3284SOL    HW212902   5.370   3.776   0.119  0.1257 -0.1763  2.3671
 3284SOL    HW312903   5.237   3.795   0.189 -0.6973  1.1576  0.5242
 3284SOL    MW412904   5.298   3.823   0.133 -0.0538  0.1291  0.6851
 3285SOL     OW12905   6.383   1.125   1.918 -0.2443  0.4189 -0.5040
 3285SOL    HW212906   6.381   1.215   1.885 -0.5366  0.1290 -1.3059
 3285SOL    HW312907   6.473   1.096   1.902 -0.0123  0.7275  0.2119
 3285SOL    MW412908   6.395   1.133   1.912 -0.2522  0.4213 -0.5154
 3286SOL     OW12909   2.456   4.310   3.186 -0.2873  0.4887  0.2926
 3286SOL    HW212910   2.386   4.245   3.193  0.5232 -0.4220  0.1301
 3286SOL    HW312911   2.535   4.259   3.168  0.3812  1.5179  0.2095
 3286SOL    MW412912   2.457   4.294   3.185 -0.0922  0.5044  0.2602
 3287SOL     OW12913   1.857   2.665   4.848 -0.0520  0.0775  0.4173
 3287SOL    HW212914   1.922   2.730   4.876  0.1436 -0.0878  0.3459
 3287SOL    HW312915   1.793   2.664   4.918  0.9651 -1.0858  1.3715
 3287SOL    MW412916   1.857   2.674   4.861  0.1080 -0.0978  0.5338
 3288SOL     OW12917   5.984   5.906   5.319 -0.0928  0.0524  0.3424
 3288SOL    HW212918   5.969   5.858   5.400  0.1753 -0.0173  0.3529
 3288SOL    HW312919   5.899   5.945   5.298 -0.3530 -0.5501  0.2476
 3288SOL    MW412920   5.971   5.905   5.327 -0.0917 -0.0363  0.3313
 3289SOL     OW12921   4.115   4.418   1.962 -0.5800  0.4735 -0.4050
 3289SOL    HW212922   4.064   4.343   1.931 -0.9382  1.4025 -2.2154
 3289SOL    HW312923   4.070   4.447   2.042 -0.2602 -1.3739  0.4907
 3289SOL    MW412924   4.102   4.412   1.969 -0.5850  0.3523 -0.5257
 3290SOL     OW12925   6.412   3.141   5.875  0.6998  0.3176  0.4525
 3290SOL    HW212926   6.377   3.206   5.936  0.0017 -0.0626  0.4736
 3290SOL    HW312927   6.440   3.069   5.932 -0.8494 -0.4561  0.3049
 3290SOL    MW412928   6.411   3.140   5.891  0.4033  0.1654  0.4358
 3291SOL     OW12929   2.219   3.648   2.034 -0.3351  0.2161 -0.0130
 3291SOL    HW212930   2.247   3.624   1.946 -1.3898 -0.2577 -0.2359
 3291SOL    HW312931   2.134   3.691   2.022 -0.3608  0.4030  0.7494
 3291SOL    MW412932   2.211   3.651   2.021 -0.4776  0.1783  0.0582
 3292SOL     OW12933   2.564   2.633   0.454 -0.3650 -0.3836  0.0209
 3292SOL    HW212934   2.647   2.674   0.432 -0.9077  0.0543 -1.3574
 3292SOL    HW312935   2.524   2.612   0.369 -1.8586 -0.1451  0.6194
 3292SOL    MW412936   2.570   2.636   0.440 -0.6336 -0.2943 -0.0820
 3293SOL     OW12937   4.337   1.787   3.571 -0.2093 -0.3621 -0.3089
 3293SOL    HW212938   4.338   1.731   3.494 -3.0683  0.1629 -0.8257
 3293SOL    HW312939   4.418   1.837   3.565  0.6911 -1.8741 -1.7370
 3293SOL    MW412940   4.348   1.786   3.560 -0.4677 -0.4923 -0.5655
 3294SOL     OW12941   0.385   3.366   4.016  0.0957 -0.1798 -0.3342
 3294SOL    HW212942   0.418   3.292   4.068 -1.0609  0.3887  1.3236
 3294SOL    HW312943   0.301   3.335   3.981 -0.2419  0.2166  0.1033
 3294SOL    MW412944   0.378   3.352   4.018 -0.1015 -0.0525 -0.0577
 3295SOL     OW12945   5.309   2.713   5.724 -0.0987 -0.1763 -0.0308
 3295SOL    HW212946   5.296   2.628   5.767 -0.1470  0.2559  0.8310
 3295SOL    HW312947   5.386   2.750   5.766  1.3729 -0.7741 -2.0165
 3295SOL    MW412948   5.318   2.706   5.735  0.0891 -0.1981 -0.1791
 3296SOL     OW12949   2.299   6.190   5.414  0.8755 -0.3102 -0.6384
 3296SOL    HW212950   2.212   6.174   5.378  0.2210  1.7364 -0.1290
 3296SOL    HW312951   2.317   6.282   5.393  1.6991  0.1170  1.6803
 3296SOL    MW412952   2.290   6.200   5.406  0.8978  0.0162 -0.2652
 3297SOL     OW12953   2.721   3.685   6.379 -0.2465  0.2229 -0.0675
 3297SOL    HW212954   2.632   3.695   6.414 -0.4029  3.3811 -1.0679
 3297SOL    HW312955   2.718   3.729   6.294  1.9918 -0.7522 -0.7254
 3297SOL    MW412956   2.709   3.692   6.372  0.0282  0.5109 -0.2863
 3298SOL     OW12957   1.950   1.375   1.599 -0.2493 -0.1653 -0.2709
 3298SOL    HW212958   2.038   1.347   1.576 -0.5683 -0.8819 -0.6290
 3298SOL    HW312959   1.963   1.449   1.659  0.5921  0.8241 -1.6156
 3298SOL    MW412960   1.963   1.381   1.604 -0.1804 -0.1293 -0.4956
 3299SOL     OW12961   0.167   3.910   3.552  0.3135 -0.1206 -0.1377
 3299SOL    HW212962   0.221   3.934   3.476 -1.2643  0.2031 -1.1904
 3299SOL    HW312963   0.129   3.993   3.582 -1.6239 -0.6375 -1.0264
 3299SOL    MW412964   0.169   3.924   3.546 -0.1503 -0.1461 -0.3938
 3300SOL     OW12965   2.584   4.538   5.539  0.4393 -0.0991  0.7036
 3300SOL    HW212966   2.563   4.615   5.486 -0.0901  1.2012  2.6839
 3300SOL    HW312967   2.670   4.510   5.507  0.3301  0.8718 -0.5330
 3300SOL    MW412968   2.593   4.545   5.528  0.3550  0.2006  0.8017
 3301SOL     OW12969   2.583   5.750   6.217  0.6451  0.2879  0.6400
 3301SOL    HW212970   2.554   5.826   6.165 -3.3287  0.9404  3.3610
 3301SOL    HW312971   2.626   5.789   6.293  0.8213 -0.3129  0.8460
 3301SOL    MW412972   2.585   5.765   6.220  0.1441  0.2947  1.0262
 3302SOL     OW12973   5.998   2.263   0.364  0.0783 -0.0793 -0.2374
 3302SOL    HW212974   6.038   2.307   0.289  0.9307 -0.6121 -0.1159
 3302SOL    HW312975   5.906   2.254   0.341  0.6182 -1.7570 -2.0015
 3302SOL    MW412976   5.991   2.268   0.351  0.2620 -0.3709 -0.4541
 3303SOL     OW12977   1.754   0.783   0.631  0.4180 -0.3508 -0.0437
 3303SOL    HW212978   1.700   0.723   0.682  0.1446  0.1526  0.2633
 3303SOL    HW312979   1.692   0.830   0.575  0.4290  0.7503  0.8340
 3303SOL    MW412980   1.739   0.781   0.630  0.3833 -0.1391  0.1126
 3304SOL     OW12981   3.798   5.467   3.912 -0.1276  0.0516  0.2014
 3304SOL    HW212982   3.849   5.418   3.847 -0.3890  2.0313 -1.6185
 3304SOL    HW312983   3.864   5.504   3.970  0.1538 -1.2796  0.7658
 3304SOL    MW412984   3.813   5.466   3.911 -0.1250  0.1372  0.0358
 3305SOL     OW12985   5.818   3.663   4.057  0.1018  0.2645  0.0003
 3305SOL    HW212986   5.911   3.674   4.077  0.9032 -2.8935 -1.3742
 3305SOL    HW312987   5.812   3.574   4.022 -3.3101  0.7233 -0.8597
 3305SOL    MW412988   5.830   3.653   4.055 -0.2426 -0.0916 -0.2945
 3306SOL     OW12989   3.208   3.027   1.204 -0.1078  0.5927 -0.3199
 3306SOL    HW212990   3.207   2.947   1.256 -0.6364  0.0300 -1.1872
 3306SOL    HW312991   3.121   3.065   1.217  0.1568  1.0662  0.1302
 3306SOL    MW412992   3.196   3.022   1.213 -0.1427  0.5809 -0.3750
 3307SOL     OW12993   2.047   3.134   5.646 -0.3511  0.2075  0.6239
 3307SOL    HW212994   1.965   3.127   5.596 -0.3902  0.2066  0.6868
 3307SOL    HW312995   2.064   3.045   5.677 -0.7119  0.3311  1.2129
 3307SOL    MW412996   2.038   3.121   5.644 -0.4039  0.2237  0.7099
 3308SOL     OW12997   1.503   3.343   6.061  0.7092  0.4580 -0.2715
 3308SOL    HW212998   1.514   3.320   5.969  1.0303 -0.0600 -0.1142
 3308SOL    HW312999   1.450   3.423   6.061  4.0076  2.8211 -1.0801
 3308SOL    MW413000   1.497   3.350   6.049  1.1867  0.7014 -0.3574
 3309SOL     OW13001   5.842   1.599   3.111  0.5475  0.1249  0.5015
 3309SOL    HW213002   5.785   1.569   3.040  1.7757  0.3118 -0.6004
 3309SOL    HW313003   5.826   1.693   3.117  0.6529  0.1573  0.2753
 3309SOL    MW413004   5.832   1.607   3.103  0.7234  0.1538  0.3263
 3310SOL     OW13005   2.064   0.522   2.012  1.0497 -0.6114 -0.1347
 3310SOL    HW213006   2.056   0.471   2.093  0.6673 -1.3865 -0.6546
 3310SOL    HW313007   2.006   0.598   2.027  2.4614  0.2932  1.0714
 3310SOL    MW413008   2.055   0.526   2.025  1.1855 -0.5943 -0.0442
 3311SOL     OW13009   1.714   3.173   2.589 -0.3130 -0.3435 -0.1840
 3311SOL    HW213010   1.726   3.115   2.514 -0.8406  0.9822 -1.3183
 3311SOL    HW313011   1.636   3.139   2.634 -0.4550 -0.6697 -0.6729
 3311SOL    MW413012   1.706   3.161   2.585 -0.4014 -0.2117 -0.3982
 3312SOL     OW13013   5.422   4.156   1.026  0.2129  0.1767 -0.0204
 3312SOL    HW213014   5.445   4.223   0.961  2.3360 -0.4973 -0.0585
 3312SOL    HW313015   5.414   4.203   1.108  0.3981  0.6513 -0.2729
 3312SOL    MW413016   5.424   4.171   1.028  0.5174  0.1504 -0.0588
 3313SOL     OW13017   1.652   1.129   6.253  0.2843 -0.5699 -0.3383
 3313SOL    HW213018   1.577   1.116   6.195  0.4743 -1.7936 -0.3484
 3313SOL    HW313019   1.658   1.047   6.302  0.3028  0.3426  1.2305
 3313SOL    MW413020   1.643   1.116   6.252  0.3118 -0.6110 -0.1327
 3314SOL     OW13021   0.231   1.924   1.968  0.5395 -0.1879 -0.5133
 3314SOL    HW213022   0.212   1.986   2.039 -0.3091 -0.2977 -0.6421
 3314SOL    HW313023   0.183   1.845   1.991 -0.2160 -0.0350 -1.4931
 3314SOL    MW413024   0.222   1.922   1.980  0.3278 -0.1822 -0.6596
 3315SOL     OW13025   3.139   1.594   4.177  0.5852 -0.0092 -0.2050
 3315SOL    HW213026   3.131   1.685   4.147 -1.5523 -0.9694 -3.0115
 3315SOL    HW313027   3.207   1.556   4.122  1.5745 -0.1152  1.0573
 3315SOL    MW413028   3.147   1.601   4.166  0.4337 -0.1499 -0.4088
 3316SOL     OW13029   6.275   5.748   4.700  0.5069  0.3175  0.0777
 3316SOL    HW213030   6.180   5.751   4.712  0.7130 -0.5308  2.5957
 3316SOL    HW313031   6.303   5.840   4.707 -0.1259  0.5823 -0.7930
 3316SOL    MW413032   6.266   5.761   4.703  0.4506  0.2405  0.2951
 3317SOL     OW13033   0.655   0.444   6.281 -0.2655  0.3603  0.7450
 3317SOL    HW213034   0.731   0.387   6.296 -1.0088 -1.8859 -2.7551
 3317SOL    HW313035   0.613   0.452   6.366  2.8475  0.1621  2.4096
 3317SOL    MW413036   0.659   0.437   6.294  0.0471  0.0378  0.5028
 3318SOL     OW13037   2.301   0.648   0.452 -0.4363  0.3297  0.2995
 3318SOL    HW213038   2.219   0.599   0.452 -1.6561  2.1648  2.7421
 3318SOL    HW313039   2.326   0.652   0.545  1.6649  1.0577 -0.2548
 3318SOL    MW413040   2.294   0.642   0.464 -0.3200  0.6678  0.5486
 3319SOL     OW13041   4.094   0.204   3.689 -0.0965  0.5313  0.0460
 3319SOL    HW213042   4.006   0.197   3.727 -1.2777 -0.8557 -2.6329
 3319SOL    HW313043   4.135   0.119   3.707  0.4648  0.9241  0.6789
 3319SOL    MW413044   4.088   0.192   3.697 -0.1783  0.4001 -0.2240
 3320SOL     OW13045   4.450   2.266   1.610 -0.2069  0.4080 -0.1302
 3320SOL    HW213046   4.487   2.229   1.530  4.6671  4.2053 -0.1040
 3320SOL    HW313047   4.491   2.216   1.681  0.1271  0.7584 -0.0720
 3320SOL    MW413048   4.460   2.254   1.609  0.4802  0.9552 -0.1191
 3321SOL     OW13049   0.763   2.858   2.344  0.4345 -0.4716  0.1425
 3321SOL    HW213050   0.746   2.765   2.357 -0.7284 -0.6315 -1.9041
 3321SOL    HW313051   0.765   2.868   2.248 -0.1131  1.6959  0.3079
 3321SOL    MW413052   0.761   2.847   2.333  0.2088 -0.2067 -0.1057
 3322SOL     OW13053   0.933   3.545   5.756 -0.5121 -0.3462 -0.3662
 3322SOL    HW213054   0.942   3.637   5.732  0.3380 -0.6507 -1.2710
 3322SOL    HW313055   0.860   3.513   5.704 -2.3921  0.3554  1.6810
 3322SOL    MW413056   0.925   3.553   5.746 -0.6480 -0.2938 -0.2154
 3323SOL     OW13057   3.638   2.878   2.035 -0.5735  0.1591 -0.2446
 3323SOL    HW213058   3.700   2.812   2.067 -1.6798 -0.5480  0.5014
 3323SOL    HW313059   3.671   2.961   2.071  1.5868  0.2934 -2.2789
 3323SOL    MW413060   3.651   2.880   2.044 -0.4344  0.0835 -0.4146
 3324SOL     OW13061   1.544   1.516   3.342 -0.3769  0.0277  0.2266
 3324SOL    HW213062   1.559   1.597   3.391 -2.0014  0.7012 -0.3289
 3324SOL    HW313063   1.562   1.539   3.251 -3.1554  0.5126 -0.2894
 3324SOL    MW413064   1.548   1.529   3.337 -0.9579  0.1805  0.0852
 3325SOL     OW13065   5.978   5.216   5.672 -0.6455 -0.1646  0.0034
 3325SOL    HW213066   5.959   5.213   5.766 -1.4996  2.7409  0.0155
 3325SOL    HW313067   6.056   5.270   5.666 -0.5777 -0.3625 -0.9669
 3325SOL    MW413068   5.986   5.223   5.684 -0.7492  0.1926 -0.1230
 3326SOL     OW13069   6.325   1.789   6.380  0.0719 -0.5203 -0.0956
 3326SOL    HW213070   6.325   1.850   6.455 -0.5898 -0.5655 -0.0564
 3326SOL    HW313071   6.359   1.841   6.308  1.8782 -0.8138  0.4925
 3326SOL    MW413072   6.330   1.804   6.381  0.2229 -0.5650 -0.0128
 3327SOL     OW13073   0.770   3.056   5.238 -0.4788 -0.1554 -0.4327
 3327SOL    HW213074   0.710   2.988   5.270 -1.2298 -0.2320 -1.9585
 3327SOL    HW313075   0.848   3.007   5.211 -0.1145 -0.1571  0.5594
 3327SOL    MW413076   0.773   3.040   5.239 -0.5298 -0.1657 -0.5031
 3328SOL     OW13077   0.742   5.265   1.623  0.4141 -0.4736  0.5456
 3328SOL    HW213078   0.769   5.221   1.542  3.1039 -0.6726  1.4612
 3328SOL    HW313079   0.690   5.199   1.669 -1.6727 -0.1538 -1.2019
 3328SOL    MW413080   0.739   5.250   1.618  0.4937 -0.4577  0.4359
 3329SOL     OW13081   4.420   5.690   3.799 -0.2522 -0.0565 -0.2158
 3329SOL    HW213082   4.455   5.670   3.713  1.7030 -0.4257  0.6100
 3329SOL    HW313083   4.464   5.770   3.826  0.1061 -0.6068  0.9268
 3329SOL    MW413084   4.430   5.698   3.792  0.0530 -0.1778  0.0439
 3330SOL     OW13085   0.227   0.094   6.420 -0.6148  0.3768 -0.3066
 3330SOL    HW213086   0.280   0.161   6.464  1.0510 -1.2025  0.2056
 3330SOL    HW313087   0.190   0.042   6.491 -0.0860 -0.5846 -0.7281
 3330SOL    MW413088   0.229   0.096   6.435 -0.3252  0.0416 -0.2947
 3331SOL     OW13089   2.366   6.100   6.356  0.2642 -0.3807 -0.0264
 3331SOL    HW213090   2.305   6.102   6.282 -0.9435 -2.9513  0.8090
 3331SOL    HW313091   2.313   6.126   6.432  0.1818 -2.4438  0.6743
 3331SOL    MW413092   2.351   6.104   6.356  0.0940 -0.9921  0.1763
 3332SOL     OW13093   6.241   2.220   1.672 -0.0786  0.0041  0.6897
 3332SOL    HW213094   6.327   2.203   1.711 -0.2495 -1.5989  0.4489
 3332SOL    HW313095   6.203   2.288   1.727  1.9256  1.9190 -0.1078
 3332SOL    MW413096   6.248   2.226   1.684  0.1633  0.0453  0.5527
 3333SOL     OW13097   3.443   0.289   0.727  0.1881  0.1363 -0.7441
 3333SOL    HW213098   3.355   0.306   0.760 -0.1389  0.7545 -1.8686
 3333SOL    HW313099   3.495   0.363   0.757  0.2058  0.0189 -0.4876
 3333SOL    MW413100   3.438   0.301   0.735  0.1473  0.2024 -0.8586
 3334SOL     OW13101   1.441   2.351   1.667 -0.1423  0.1778 -0.2112
 3334SOL    HW213102   1.446   2.419   1.600  1.3358  0.5825  0.2590
 3334SOL    HW313103   1.405   2.395   1.744 -0.2270  0.1462 -0.2325
 3334SOL    MW413104   1.437   2.366   1.669  0.0415  0.2270 -0.1520
 3335SOL     OW13105   0.915   0.737   2.386 -0.5404 -0.5416  0.0707
 3335SOL    HW213106   0.933   0.763   2.477 -2.5103  1.2212  0.0244
 3335SOL    HW313107   0.876   0.650   2.393  0.5547 -0.9976  0.7784
 3335SOL    MW413108   0.912   0.729   2.399 -0.6558 -0.3692  0.1579
 3336SOL     OW13109   6.131   3.650   2.449 -0.5592  0.2587 -0.1806
 3336SOL    HW213110   6.077   3.624   2.375  1.1815  0.8069 -1.7034
 3336SOL    HW313111   6.182   3.724   2.418 -0.6142  1.2835  1.9656
 3336SOL    MW413112   6.131   3.656   2.435 -0.3368  0.4662 -0.0984
 3337SOL     OW13113   2.551   4.578   5.820 -0.0548  0.0782  0.0602
 3337SOL    HW213114   2.477   4.518   5.828  1.0369 -1.1368  1.9392
 3337SOL    HW313115   2.568   4.584   5.726 -0.9765 -1.6173 -0.2514
 3337SOL    MW413116   2.544   4.571   5.809 -0.0324 -0.3058  0.2670
 3338SOL     OW13117   0.094   1.506   1.067  0.1111  0.2083 -0.2392
 3338SOL    HW213118   0.118   1.549   0.985 -0.9229 -0.4301 -0.8980
 3338SOL    HW313119   0.075   1.416   1.042  0.8091 -0.2699  0.8834
 3338SOL    MW413120   0.095   1.500   1.053  0.0668  0.0610 -0.1780
 3339SOL     OW13121   5.513   0.712   0.557 -0.1528  0.2326 -0.8515
 3339SOL    HW213122   5.543   0.749   0.474  2.2885 -0.2372 -0.2599
 3339SOL    HW313123   5.519   0.784   0.620 -0.5844  0.2104 -0.7833
 3339SOL    MW413124   5.518   0.726   0.555  0.1123  0.1677 -0.7644
 3340SOL     OW13125   5.287   4.573   2.045 -0.9294  0.0017 -0.1381
 3340SOL    HW213126   5.258   4.493   2.000 -1.2145  0.1029 -0.1362
 3340SOL    HW313127   5.257   4.562   2.135  0.4352 -0.6132  0.2664
 3340SOL    MW413128   5.279   4.561   2.051 -0.7869 -0.0661 -0.0845
 3341SOL     OW13129   0.847   0.079   4.299 -0.4625 -0.2320 -0.6678
 3341SOL    HW213130   0.882   0.012   4.358 -2.7306 -0.4551  0.5756
 3341SOL    HW313131   0.890   0.160   4.326 -0.5716 -0.5469  0.5331
 3341SOL    MW413132   0.857   0.081   4.311 -0.7761 -0.3030 -0.3453
 3342SOL     OW13133   0.121   5.358   3.337 -0.9864 -0.0592  0.0883
 3342SOL    HW213134   0.053   5.380   3.400 -0.9913  1.1624 -0.3254
 3342SOL    HW313135   0.137   5.439   3.289 -0.9977 -0.9669 -1.5125
 3342SOL    MW413136   0.115   5.372   3.339 -0.9886 -0.0178 -0.1775
 3343SOL     OW13137   0.044   5.886   3.729  0.1721  0.0070 -0.0782
 3343SOL    HW213138   0.105   5.826   3.686  0.3990  0.4642 -0.4017
 3343SOL    HW313139  -0.041   5.867   3.688 -0.1259 -1.3525  1.1004
 3343SOL    MW413140   0.041   5.875   3.718  0.1627 -0.1120  0.0346
 3344SOL     OW13141   4.740   4.006   5.033  0.4439 -0.3290 -0.5357
 3344SOL    HW213142   4.724   3.913   5.012 -0.4516 -0.3711  0.2638
 3344SOL    HW313143   4.835   4.015   5.027  0.4722 -1.0528 -1.6017
 3344SOL    MW413144   4.750   3.995   5.030  0.3295 -0.4301 -0.5709
 3345SOL     OW13145   3.298   2.489   4.207  0.1727  0.2714 -0.0532
 3345SOL    HW213146   3.309   2.488   4.303  0.1903 -1.7986 -0.0406
 3345SOL    HW313147   3.204   2.479   4.194  0.4327 -3.9084 -0.1559
 3345SOL    MW413148   3.287   2.488   4.218  0.2093 -0.5532 -0.0651
 3346SOL     OW13149   0.920   2.753   2.936  0.1529  0.1002  0.2743
 3346SOL    HW213150   0.902   2.821   3.001 -2.3398 -2.1055  2.1397
 3346SOL    HW313151   0.973   2.689   2.983 -0.2082 -0.7168 -0.4057
 3346SOL    MW413152   0.924   2.754   2.951 -0.2236 -0.2986  0.4307
 3347SOL     OW13153   3.536   3.139   4.214  0.1030 -0.2855  0.3266
 3347SOL    HW213154   3.519   3.051   4.249  3.2832 -0.7448  0.9692
 3347SOL    HW313155   3.610   3.172   4.265  0.1234  2.0988 -1.0777
 3347SOL    MW413156   3.543   3.132   4.225  0.5253 -0.0315  0.2261
 3348SOL     OW13157   1.298   1.048   1.871  0.2466  0.4573 -0.0226
 3348SOL    HW213158   1.228   0.989   1.842  0.1635  0.9022 -0.7294
 3348SOL    HW313159   1.288   1.126   1.817  1.0530  0.6786  0.1361
 3348SOL    MW413160   1.287   1.050   1.860  0.3420  0.5452 -0.0949
 3349SOL     OW13161   3.052   0.004   4.295  0.1164 -0.2285  0.2197
 3349SOL    HW213162   3.095  -0.051   4.230  0.0066 -3.3707  2.5867
 3349SOL    HW313163   3.123   0.055   4.334  0.6944 -0.7659 -0.1083
 3349SOL    MW413164   3.067   0.003   4.292  0.1782 -0.7140  0.4888
 3350SOL     OW13165   0.985   4.443   0.379  0.0557  0.3408 -0.1927
 3350SOL    HW213166   1.076   4.436   0.405  0.8686  0.5145 -2.7349
 3350SOL    HW313167   0.984   4.511   0.311 -2.0743  0.7594  0.1733
 3350SOL    MW413168   0.997   4.451   0.373 -0.1180  0.4189 -0.4798
 3351SOL     OW13169   1.603   6.031   0.327 -0.1351 -0.2323 -0.0983
 3351SOL    HW213170   1.641   5.983   0.400 -0.6601 -0.5102 -0.0023
 3351SOL    HW313171   1.522   6.068   0.362 -0.2347 -0.1084 -0.4509
 3351SOL    MW413172   1.597   6.030   0.341 -0.2175 -0.2526 -0.1322
 3352SOL     OW13173   2.292   0.014   2.832 -0.5399  0.1387 -0.2609
 3352SOL    HW213174   2.247   0.093   2.860 -0.8442  0.1335 -0.7200
 3352SOL    HW313175   2.372   0.044   2.790  0.0402  0.1368  0.8086
 3352SOL    MW413176   2.297   0.028   2.830 -0.5035  0.1378 -0.1804
 3353SOL     OW13177   0.449   3.782   4.848  0.2358  0.2572 -0.4329
 3353SOL    HW213178   0.455   3.698   4.802  1.1125 -0.4222  0.8933
 3353SOL    HW313179   0.362   3.815   4.824 -0.3860 -1.3164 -0.4902
 3353SOL    MW413180   0.438   3.775   4.839  0.2695 -0.0401 -0.2655
 3354SOL     OW13181   1.790   5.540   1.195 -0.2671 -0.2190  0.2626
 3354SOL    HW213182   1.883   5.517   1.185 -0.5449 -0.6396 -1.5631
 3354SOL    HW313183   1.745   5.456   1.196 -0.8489  0.0411 -1.5418
 3354SOL    MW413184   1.797   5.526   1.194 -0.3805 -0.2401 -0.2163
 3355SOL     OW13185   3.994   1.484   0.414  0.1009  0.4889 -0.2229
 3355SOL    HW213186   4.037   1.472   0.329  0.0145  1.3551 -0.4025
 3355SOL    HW313187   4.066   1.480   0.478  0.1535 -0.2587 -0.3221
 3355SOL    MW413188   4.010   1.482   0.411  0.0965  0.5045 -0.2597
 3356SOL     OW13189   2.335   1.585   3.422  0.1481 -0.6441  0.1716
 3356SOL    HW213190   2.257   1.634   3.448  0.9717  0.0174  1.5139
 3356SOL    HW313191   2.302   1.511   3.372 -1.3005 -0.1328  0.3386
 3356SOL    MW413192   2.321   1.582   3.419  0.0657 -0.4893  0.3707
 3357SOL     OW13193   4.910   3.656   6.126  0.2024 -0.4409  0.0673
 3357SOL    HW213194   4.954   3.630   6.045 -1.1598 -0.8621 -0.5740
 3357SOL    HW313195   4.838   3.594   6.135  0.9848 -1.1232  2.2462
 3357SOL    MW413196   4.906   3.645   6.116  0.1259 -0.5865  0.2701
 3358SOL     OW13197   3.646   2.596   5.507 -0.8972 -0.5686  0.4305
 3358SOL    HW213198   3.553   2.574   5.514 -1.0319  0.2029  1.2982
 3358SOL    HW313199   3.658   2.668   5.569 -0.0838  0.5128 -0.9227
 3358SOL    MW413200   3.635   2.602   5.516 -0.8077 -0.3241  0.3664
 3359SOL     OW13201   6.295   3.376   5.301  0.3948 -0.0595  0.1659
 3359SOL    HW213202   6.316   3.412   5.215 -1.1156 -1.9489 -1.0965
 3359SOL    HW313203   6.345   3.294   5.306 -1.0135 -0.9722  0.1751
 3359SOL    MW413204   6.304   3.370   5.291  0.0097 -0.4292  0.0006
 3360SOL     OW13205   0.619   5.818   5.482  0.3544 -0.0362 -0.8742
 3360SOL    HW213206   0.547   5.856   5.432  0.7493  1.9753 -0.0499
 3360SOL    HW313207   0.619   5.868   5.564  0.8664 -1.9773  0.3743
 3360SOL    MW413208   0.609   5.830   5.487  0.4740 -0.0269 -0.6007
 3361SOL     OW13209   4.587  -0.007   3.700 -0.0411 -0.3161  0.0361
 3361SOL    HW213210   4.589   0.068   3.641  1.6020 -1.8915 -2.0379
 3361SOL    HW313211   4.657   0.011   3.763 -0.7822  0.6476  0.6174
 3361SOL    MW413212   4.596   0.005   3.701  0.0779 -0.3968 -0.1608
 3362SOL     OW13213   3.565   2.289   1.525 -0.3108  0.1556  0.0820
 3362SOL    HW213214   3.496   2.236   1.565 -0.2799 -0.5040 -0.7083
 3362SOL    HW313215   3.577   2.362   1.585 -2.1248  0.6278 -0.0624
 3362SOL    MW413216   3.558   2.292   1.538 -0.5461  0.1309 -0.0414
 3363SOL     OW13217   5.199   0.942   1.189 -0.3460 -0.5787  0.3893
 3363SOL    HW213218   5.252   0.955   1.110 -0.8923 -2.8287 -0.3977
 3363SOL    HW313219   5.243   0.871   1.236 -1.0374 -0.4759  1.2190
 3363SOL    MW413220   5.212   0.935   1.185 -0.5093 -0.8620  0.3949
 3364SOL     OW13221   4.939   3.886   5.628 -0.1851 -0.0155  0.1810
 3364SOL    HW213222   4.879   3.886   5.554  1.5606  1.1212 -1.3088
 3364SOL    HW313223   4.996   3.961   5.613  1.3603 -0.8043  1.7483
 3364SOL    MW413224   4.938   3.896   5.616  0.2491  0.0304  0.1912
 3365SOL     OW13225   0.181   4.895   4.324  0.3219 -0.5303 -0.0574
 3365SOL    HW213226   0.089   4.907   4.348  0.3753  0.3173 -0.2349
 3365SOL    HW313227   0.224   4.873   4.407 -0.0972 -1.3055 -0.0416
 3365SOL    MW413228   0.175   4.894   4.338  0.2736 -0.5207 -0.0787
 3366SOL     OW13229   3.135   2.525   6.395  0.2567 -0.0843 -0.0240
 3366SOL    HW213230   3.217   2.495   6.433  0.4237  1.7219  1.1453
 3366SOL    HW313231   3.145   2.619   6.386 -1.5619  0.1302 -0.1916
 3366SOL    MW413232   3.147   2.533   6.399  0.0388  0.1823  0.1081
 3367SOL     OW13233   1.747   5.683   4.467  0.2621  0.1898 -0.4154
 3367SOL    HW213234   1.654   5.701   4.453  0.4900 -0.2625 -3.2764
 3367SOL    HW313235   1.750   5.593   4.499 -0.2893  0.5528  0.7120
 3367SOL    MW413236   1.735   5.674   4.469  0.2194  0.1780 -0.6441
 3368SOL     OW13237   2.900   5.171   0.769 -0.0877  0.1640 -0.2396
 3368SOL    HW213238   2.847   5.238   0.812 -1.5476 -0.7109 -0.6237
 3368SOL    HW313239   2.987   5.181   0.808 -0.9177  0.5737  1.6241
 3368SOL    MW413240   2.905   5.181   0.780 -0.3898  0.1026 -0.0444
 3369SOL     OW13241   2.432   2.413   1.615 -0.2256  0.1180 -0.5701
 3369SOL    HW213242   2.509   2.366   1.582 -1.0371 -0.5893 -1.5049
 3369SOL    HW313243   2.422   2.488   1.557  0.3554  0.7996  0.1884
 3369SOL    MW413244   2.441   2.416   1.603 -0.2560  0.1146 -0.5934
 3370SOL     OW13245   4.707   4.093   0.995 -0.2842  0.1469  0.0011
 3370SOL    HW213246   4.682   4.179   1.030 -2.2491 -0.1865 -0.4391
 3370SOL    HW313247   4.781   4.111   0.938 -1.1851  1.7335 -0.7484
 3370SOL    MW413248   4.713   4.107   0.992 -0.6623  0.3122 -0.1559
 3371SOL     OW13249   0.514   1.666   6.031  0.3379 -0.0020  0.4277
 3371SOL    HW213250   0.430   1.623   6.013  1.4196 -2.1714  0.1913
 3371SOL    HW313251   0.521   1.734   5.964 -1.0342 -0.0522  0.2022
 3371SOL    MW413252   0.504   1.669   6.019  0.2996 -0.2948  0.3668
 3372SOL     OW13253   1.242   2.517   2.782 -0.1588  0.8063  0.0229
 3372SOL    HW213254   1.224   2.451   2.849 -0.8299  1.9264  0.9860
 3372SOL    HW313255   1.194   2.486   2.705  1.3494 -0.9648 -0.2861
 3372SOL    MW413256   1.233   2.504   2.781 -0.0484  0.7204  0.1092
 3373SOL     OW13257   5.839   4.288   2.944 -0.0806 -0.1998 -0.2714
 3373SOL    HW213258   5.794   4.369   2.968  0.0084 -0.8592  2.5665
 3373SOL    HW313259   5.768   4.225   2.927 -0.1944 -0.1936  0.1674
 3373SOL    MW413260   5.824   4.290   2.945 -0.0838 -0.2860  0.1609
 3374SOL     OW13261   6.395   1.091   0.851  0.1553  0.0368 -0.2162
 3374SOL    HW213262   6.418   1.147   0.924  1.3296  0.5479 -0.9439
 3374SOL    HW313263   6.456   1.116   0.781 -0.0025 -1.4056 -0.9073
 3374SOL    MW413264   6.406   1.102   0.851  0.2894 -0.0861 -0.4034
 3375SOL     OW13265   1.701   2.056   2.126  0.1355 -0.4692 -0.4240
 3375SOL    HW213266   1.761   2.109   2.073 -0.6876  0.2335 -0.6584
 3375SOL    HW313267   1.637   2.022   2.063 -1.4442  1.1727  0.2099
 3375SOL    MW413268   1.701   2.058   2.111 -0.1815 -0.1599 -0.3713
 3376SOL     OW13269   4.798   0.926   4.449 -0.6048  0.6583  0.3010
 3376SOL    HW213270   4.779   1.019   4.435 -0.2514  0.5599 -0.9638
 3376SOL    HW313271   4.876   0.926   4.505  0.7949  1.1951 -1.5409
 3376SOL    MW413272   4.806   0.938   4.454 -0.3735  0.7161 -0.1089
 3377SOL     OW13273   3.179   4.310   5.451  0.1084  0.0590  0.1924
 3377SOL    HW213274   3.233   4.384   5.423 -0.2132  0.8145  1.4908
 3377SOL    HW313275   3.091   4.332   5.420  0.3165 -0.6306 -0.9347
 3377SOL    MW413276   3.174   4.323   5.443  0.0934  0.0677  0.2150
 3378SOL     OW13277   1.812   4.408   4.791 -0.3677 -0.4896 -0.5068
 3378SOL    HW213278   1.906   4.391   4.793 -0.1465  0.6286 -0.9108
 3378SOL    HW313279   1.777   4.363   4.868  0.4681 -1.0599 -0.4561
 3378SOL    MW413280   1.819   4.400   4.801 -0.2282 -0.4173 -0.5534
 3379SOL     OW13281   4.743   1.000   5.681  0.3124 -0.5901 -0.3791
 3379SOL    HW213282   4.816   0.944   5.707  0.1625 -0.1691  0.9899
 3379SOL    HW313283   4.721   0.970   5.592  1.1125 -1.7706 -0.2041
 3379SOL    MW413284   4.750   0.989   5.672  0.3982 -0.6903 -0.1754
 3380SOL     OW13285   1.019   2.352   5.843  0.0799 -0.1268 -0.0425
 3380SOL    HW213286   0.967   2.416   5.893  2.3052  0.3111  1.8668
 3380SOL    HW313287   1.007   2.270   5.890 -0.6776 -0.5732 -0.9722
 3380SOL    MW413288   1.010   2.350   5.856  0.2736 -0.1279  0.0867
 3381SOL     OW13289   4.129   5.496   5.201 -0.0853 -0.5131 -0.3168
 3381SOL    HW213290   4.099   5.526   5.115 -2.4909  0.9491  0.9078
 3381SOL    HW313291   4.133   5.576   5.254  1.8316 -1.3043  0.8579
 3381SOL    MW413292   4.126   5.511   5.197 -0.1498 -0.4245 -0.0002
 3382SOL     OW13293   2.195   5.456   0.629 -0.3631 -0.0613 -0.5775
 3382SOL    HW213294   2.282   5.491   0.609  0.0909 -0.9754 -0.2221
 3382SOL    HW313295   2.198   5.365   0.602 -1.5816  0.1744 -1.6054
 3382SOL    MW413296   2.207   5.449   0.623 -0.4639 -0.1508 -0.6662
 3383SOL     OW13297   5.333   3.883   3.220 -0.0538  0.1374  0.3134
 3383SOL    HW213298   5.414   3.922   3.252 -0.0852  0.6585 -0.2239
 3383SOL    HW313299   5.311   3.933   3.141  0.1915 -1.3129 -0.7154
 3383SOL    MW413300   5.341   3.895   3.214 -0.0256  0.0148  0.1068
 3384SOL     OW13301   2.686   0.895   2.840  0.4331  0.7034 -0.1887
 3384SOL    HW213302   2.618   0.828   2.829 -0.1222  1.3396 -0.7453
 3384SOL    HW313303   2.683   0.916   2.933  0.4580  0.1184 -0.0503
 3384SOL    MW413304   2.676   0.889   2.851  0.3631  0.7102 -0.2439
 3385SOL     OW13305   0.345   3.570   2.453  0.3669 -0.0006  0.2324
 3385SOL    HW213306   0.381   3.514   2.384  2.0977 -0.4879  1.4609
 3385SOL    HW313307   0.317   3.509   2.521 -2.7742  0.3764 -0.5751
 3385SOL    MW413308   0.346   3.555   2.453  0.1809 -0.0151  0.2880
 3386SOL     OW13309   5.239   0.307   6.157 -0.2050  0.1929 -0.0032
 3386SOL    HW213310   5.302   0.343   6.220  2.4482 -0.3104 -2.1467
 3386SOL    HW313311   5.230   0.215   6.182  0.1379  0.2093  0.1855
 3386SOL    MW413312   5.246   0.300   6.168  0.1903  0.1287 -0.2612
 3387SOL     OW13313   2.408   3.808   4.581 -0.3550  0.4605 -0.1563
 3387SOL    HW213314   2.486   3.835   4.533 -0.3944 -0.2986 -0.6526
 3387SOL    HW313315   2.440   3.784   4.668 -0.2274  1.4329  0.0694
 3387SOL    MW413316   2.422   3.808   4.586 -0.3434  0.4886 -0.1920
 3388SOL     OW13317   0.497   5.223   4.649 -0.2674  0.0165 -0.2364
 3388SOL    HW213318   0.469   5.139   4.684 -0.3927 -0.5288 -1.5868
 3388SOL    HW313319   0.592   5.226   4.666 -0.0164 -1.0006 -1.3242
 3388SOL    MW413320   0.506   5.213   4.656 -0.2508 -0.1896 -0.5581
 3389SOL     OW13321   5.466   3.658   5.480 -0.2011  0.5708  0.3298
 3389SOL    HW213322   5.537   3.606   5.517  0.2845 -1.1900 -2.7132
 3389SOL    HW313323   5.509   3.715   5.415 -1.2304  1.8419  0.7183
 3389SOL    MW413324   5.481   3.659   5.476 -0.2728  0.5062 -0.0205
 3390SOL     OW13325   1.631   4.908   5.774 -0.6283  0.3982  0.1029
 3390SOL    HW213326   1.707   4.864   5.737 -0.3454  2.3245 -1.8231
 3390SOL    HW313327   1.668   4.965   5.843 -0.8425 -1.3087  1.7032
 3390SOL    MW413328   1.646   4.910   5.778 -0.6192  0.4272  0.0599
 3391SOL     OW13329   5.619   1.596   3.683  0.0134  0.3214  0.0130
 3391SOL    HW213330   5.629   1.635   3.770  2.2223  0.3813 -0.1908
 3391SOL    HW313331   5.709   1.575   3.657 -0.5898  0.3542 -2.2826
 3391SOL    MW413332   5.632   1.598   3.691  0.2253  0.3336 -0.3168
 3392SOL     OW13333   0.650   3.703   1.941  0.3672 -0.0522 -0.4398
 3392SOL    HW213334   0.671   3.624   1.991 -0.1261 -0.6488 -1.1553
 3392SOL    HW313335   0.723   3.763   1.959  0.6013 -0.5504  0.3383
 3392SOL    MW413336   0.663   3.701   1.950  0.3330 -0.1966 -0.4315
 3393SOL     OW13337   3.824   2.049   1.659 -0.4826  0.0517  0.1627
 3393SOL    HW213338   3.895   2.043   1.723  0.0974  0.7660 -0.3829
 3393SOL    HW313339   3.852   2.119   1.600 -0.1469 -1.7202 -1.9180
 3393SOL    MW413340   3.837   2.058   1.660 -0.3618 -0.0878 -0.1838
 3394SOL     OW13341   2.408   2.852   6.080 -0.0998  0.1722  0.0309
 3394SOL    HW213342   2.355   2.802   6.143  0.1030  0.1713  0.2011
 3394SOL    HW313343   2.485   2.879   6.130  0.1532  0.0140 -0.2704
 3394SOL    MW413344   2.411   2.849   6.095 -0.0397  0.1512  0.0136
 3395SOL     OW13345   2.843   4.087   0.324  0.2141  0.3288  0.2952
 3395SOL    HW213346   2.849   4.046   0.411  2.5969  1.4959  0.7708
 3395SOL    HW313347   2.883   4.173   0.336  0.2876  0.6420 -1.8983
 3395SOL    MW413348   2.849   4.093   0.337  0.5382  0.5241  0.0686
 3396SOL     OW13349   5.848   3.384   5.410  0.1325  0.9041 -0.9232
 3396SOL    HW213350   5.872   3.451   5.346  0.3046  2.1024  0.3394
 3396SOL    HW313351   5.930   3.341   5.432  0.4475  1.9441  0.0411
 3396SOL    MW413352   5.862   3.387   5.404  0.1967  1.1994 -0.6294
 3397SOL     OW13353   4.046   5.134   3.425 -0.0201 -0.2005 -0.0601
 3397SOL    HW213354   3.971   5.169   3.377 -0.5660  0.0025  0.8977
 3397SOL    HW313355   4.010   5.063   3.478  0.5062 -0.2643  0.2228
 3397SOL    MW413356   4.032   5.130   3.426 -0.0227 -0.1822  0.1036
 3398SOL     OW13357   4.495   1.295   6.309 -0.6719  0.2108  0.0323
 3398SOL    HW213358   4.413   1.330   6.275 -1.2206  0.7719  1.8510
 3398SOL    HW313359   4.562   1.330   6.250 -1.7342 -0.6697 -1.7892
 3398SOL    MW413360   4.493   1.304   6.297 -0.8845  0.1686  0.0319
 3399SOL     OW13361   3.271   6.052   2.842 -0.1063  0.0533  0.1109
 3399SOL    HW213362   3.274   6.142   2.875 -0.2576  0.5478 -1.1686
 3399SOL    HW313363   3.183   6.022   2.861  0.8939 -1.1147  3.6947
 3399SOL    MW413364   3.260   6.060   2.849  0.0057 -0.0356  0.4149
 3400SOL     OW13365   0.032   0.341   4.554  0.4836 -0.2067  0.2880
 3400SOL    HW213366  -0.026   0.386   4.493 -0.2690  0.3042  1.3502
 3400SOL    HW313367   0.118   0.343   4.511  0.0430  0.4345 -0.5936
 3400SOL    MW413368   0.036   0.347   4.540  0.3262 -0.0547  0.3118
 3401SOL     OW13369   5.560   3.066   1.484 -0.0758 -0.3209 -0.5991
 3401SOL    HW213370   5.634   3.054   1.425 -0.5086  2.1787 -1.7862
 3401SOL    HW313371   5.485   3.079   1.426 -0.9356  0.0046  0.5486
 3401SOL    MW413372   5.560   3.066   1.468 -0.2463  0.0519 -0.6043
 3402SOL     OW13373   3.848   3.670   0.772 -0.3057  0.9912  1.0597
 3402SOL    HW213374   3.870   3.698   0.861  1.3547  2.9338  0.1288
 3402SOL    HW313375   3.856   3.575   0.774  0.2893  1.0472  2.8582
 3402SOL    MW413376   3.852   3.661   0.784 -0.0081  1.2549  1.1742
 3403SOL     OW13377   0.786   3.123   4.948 -0.2522  0.2210  0.1061
 3403SOL    HW213378   0.764   3.138   5.040 -0.8477 -0.1470  0.0312
 3403SOL    HW313379   0.777   3.028   4.936 -2.2672  0.4866 -0.8398
 3403SOL    MW413380   0.782   3.112   4.958 -0.5966  0.2075 -0.0286
 3404SOL     OW13381   2.136   3.975   2.087 -0.2371  0.0758  0.1846
 3404SOL    HW213382   2.229   3.982   2.065 -0.1220  1.6149  1.0205
 3404SOL    HW313383   2.135   3.962   2.181 -0.8354 -2.4334 -0.1040
 3404SOL    MW413384   2.148   3.974   2.096 -0.3009 -0.0522  0.2568
 3405SOL     OW13385   6.278   1.501   1.191  0.0816 -0.4387  0.1445
 3405SOL    HW213386   6.367   1.502   1.157  0.2581  1.2160  0.5816
 3405SOL    HW313387   6.267   1.413   1.227  1.6359 -0.5663  0.3529
 3405SOL    MW413388   6.288   1.490   1.191  0.3100 -0.2372  0.2297
 3406SOL     OW13389   2.706   1.539   6.211  0.0899  0.1093  0.1306
 3406SOL    HW213390   2.757   1.551   6.131 -0.6955 -0.7946 -0.5318
 3406SOL    HW313391   2.632   1.599   6.202 -0.8911 -1.1673 -0.6247
 3406SOL    MW413392   2.703   1.549   6.199 -0.1432 -0.1784 -0.0565
 3407SOL     OW13393   6.306   2.868   3.893 -0.0131  0.3395 -0.1457
 3407SOL    HW213394   6.388   2.825   3.920 -1.0717 -0.9079  1.2585
 3407SOL    HW313395   6.335   2.948   3.850  1.9587 -0.0929  0.2432
 3407SOL    MW413396   6.321   2.873   3.891  0.1074  0.1179  0.0909
 3408SOL     OW13397   6.155   5.083   6.070  0.4053  0.3402  0.3479
 3408SOL    HW213398   6.089   5.123   6.014  0.4110  0.0275  0.1153
 3408SOL    HW313399   6.174   5.150   6.137  0.7607  0.9071 -0.3085
 3408SOL    MW413400   6.149   5.097   6.072  0.4529  0.3738  0.2306
 3409SOL     OW13401   1.112   2.506   2.295  0.1168 -0.0160 -0.1099
 3409SOL    HW213402   1.117   2.592   2.254  0.7271  0.8707  1.7056
 3409SOL    HW313403   1.201   2.489   2.326  0.2412 -1.7826 -1.2955
 3409SOL    MW413404   1.124   2.515   2.294  0.2138 -0.1321 -0.0268
 3410SOL     OW13405   0.667   0.240   5.893  0.4193  0.5413  0.0334
 3410SOL    HW213406   0.586   0.195   5.918  0.1113  1.6536  1.1544
 3410SOL    HW313407   0.683   0.211   5.803 -0.8160 -0.2762  0.0382
 3410SOL    MW413408   0.658   0.230   5.884  0.2157  0.5802  0.1820
 3411SOL     OW13409   1.191   0.327   0.782 -0.6094 -0.0924  0.0092
 3411SOL    HW213410   1.141   0.265   0.729 -0.9390  1.3590 -1.4637
 3411SOL    HW313411   1.125   0.385   0.820 -0.2316  0.0965  0.3815
 3411SOL    MW413412   1.176   0.326   0.780 -0.6031  0.1240 -0.1360
 3412SOL     OW13413   2.191   1.406   3.258  0.5992  0.0008 -0.4119
 3412SOL    HW213414   2.104   1.439   3.234  0.3680 -1.0348 -1.0665
 3412SOL    HW313415   2.218   1.352   3.184  0.2443 -2.5881  1.2066
 3412SOL    MW413416   2.183   1.403   3.245  0.5219 -0.4774 -0.2847
 3413SOL     OW13417   0.735   0.181   5.392  0.8379 -0.2234 -0.0476
 3413SOL    HW213418   0.654   0.159   5.346  1.5761  1.5397 -2.3965
 3413SOL    HW313419   0.804   0.141   5.340  1.6259  0.1861  0.6516
 3413SOL    MW413420   0.733   0.173   5.379  1.0393  0.0633 -0.2653
 3414SOL     OW13421   4.602   4.801   5.980 -0.8052  0.2586  0.1157
 3414SOL    HW213422   4.522   4.802   6.032 -1.3390  1.4747 -0.6846
 3414SOL    HW313423   4.577   4.757   5.898 -0.9243  1.4580 -0.5082
 3414SOL    MW413424   4.588   4.795   5.976 -0.8914  0.5773 -0.0722
 3415SOL     OW13425   4.882   5.947   5.262  0.2985 -0.1262 -1.0024
 3415SOL    HW213426   4.839   5.978   5.182  0.8185 -0.0489 -1.2533
 3415SOL    HW313427   4.972   5.979   5.255 -0.1236  1.5744  0.5265
 3415SOL    MW413428   4.888   5.955   5.251  0.3114  0.1084 -0.8338
 3416SOL     OW13429   5.516   4.098   5.468  0.1204  0.0497 -0.1316
 3416SOL    HW213430   5.555   4.186   5.469  1.2805 -0.4214 -1.1806
 3416SOL    HW313431   5.556   4.054   5.543 -1.8241  0.9213  1.5158
 3416SOL    MW413432   5.526   4.104   5.478  0.0169  0.1025 -0.0526
 3417SOL     OW13433   1.154   5.658   5.523 -0.0814 -0.2225  0.7893
 3417SOL    HW213434   1.117   5.601   5.590  0.6479 -0.5620  0.9155
 3417SOL    HW313435   1.209   5.600   5.470 -3.2543 -0.7209 -2.2645
 3417SOL    MW413436   1.156   5.643   5.525 -0.4038 -0.3331  0.4031
 3418SOL     OW13437   3.121   2.057   3.807  0.3328  0.2919  0.6454
 3418SOL    HW213438   3.111   1.989   3.873  0.0229  0.1836  0.4877
 3418SOL    HW313439   3.199   2.106   3.835  1.0642 -0.6452  0.3049
 3418SOL    MW413440   3.130   2.055   3.819  0.3884  0.1540  0.5796
 3419SOL     OW13441   1.886   1.470   0.508 -0.2527 -0.5053  0.3749
 3419SOL    HW213442   1.971   1.464   0.464  0.2782 -0.0877  1.3247
 3419SOL    HW313443   1.836   1.396   0.474 -0.4096  0.6394 -2.0887
 3419SOL    MW413444   1.891   1.460   0.498 -0.2033 -0.2992  0.1752
 3420SOL     OW13445   2.778   3.769   2.808 -0.2746 -0.5475  0.0848
 3420SOL    HW213446   2.699   3.768   2.862  0.2201 -0.8103  0.8134
 3420SOL    HW313447   2.845   3.729   2.862  0.5421  0.3169 -0.2608
 3420SOL    MW413448   2.776   3.763   2.822 -0.1016 -0.4681  0.1354
 3421SOL     OW13449   3.873   1.774   0.414  0.4880  1.0953  0.4698
 3421SOL    HW213450   3.786   1.749   0.446 -0.0827  0.2985 -1.5213
 3421SOL    HW313451   3.872   1.869   0.414 -1.1649  1.1489 -1.2900
 3421SOL    MW413452   3.861   1.783   0.418  0.1946  0.9972 -0.0250
 3422SOL     OW13453   0.327   4.846   5.082 -0.0714 -0.3877 -0.3737
 3422SOL    HW213454   0.321   4.820   5.174  0.6827 -1.1004 -0.5084
 3422SOL    HW313455   0.258   4.796   5.038 -0.8296  0.4064 -0.1170
 3422SOL    MW413456   0.317   4.836   5.088 -0.0719 -0.3769 -0.3576
 3423SOL     OW13457   0.262   5.860   4.738  0.2991 -0.3028 -0.2954
 3423SOL    HW213458   0.223   5.885   4.654  2.4575 -0.9084 -1.5905
 3423SOL    HW313459   0.344   5.817   4.713  1.5573  0.4939  2.1843
 3423SOL    MW413460   0.268   5.858   4.723  0.7498 -0.2776 -0.1391
 3424SOL     OW13461   5.774   2.742   4.430  0.1868  0.2978  0.0804
 3424SOL    HW213462   5.860   2.778   4.409 -0.3345  1.6152  0.1411
 3424SOL    HW313463   5.774   2.735   4.526  0.0251  0.8390  0.1230
 3424SOL    MW413464   5.785   2.746   4.440  0.0967  0.5430  0.0940
 3425SOL     OW13465   4.614   3.286   0.487  0.5549  0.2711  0.1811
 3425SOL    HW213466   4.657   3.312   0.405  0.9201  1.0844  0.6070
 3425SOL    HW313467   4.571   3.366   0.517  1.2288  0.2496  1.2615
 3425SOL    MW413468   4.614   3.300   0.480  0.6920  0.3756  0.3798
 3426SOL     OW13469   2.904   1.273   3.180  0.0198 -0.6438  0.2380
 3426SOL    HW213470   2.836   1.271   3.113  1.0035 -0.0230 -0.8270
 3426SOL    HW313471   2.961   1.199   3.159  1.0245  0.2792 -0.3953
 3426SOL    MW413472   2.903   1.263   3.169  0.2821 -0.4401  0.0140
 3427SOL     OW13473   1.882   1.051   0.595 -0.1621  0.2391 -0.0075
 3427SOL    HW213474   1.838   0.969   0.614  0.8478 -1.0114 -2.5495
 3427SOL    HW313475   1.973   1.037   0.622  0.4087 -0.1958 -1.9495
 3427SOL    MW413476   1.889   1.039   0.601  0.0465  0.0167 -0.5991
 3428SOL     OW13477   1.828   0.271   3.646 -0.7863  0.1241 -0.5030
 3428SOL    HW213478   1.810   0.351   3.596  1.0109  0.7998 -0.1204
 3428SOL    HW313479   1.840   0.301   3.736  1.6201 -0.3051 -0.6307
 3428SOL    MW413480   1.827   0.285   3.652 -0.2316  0.1566 -0.4694
 3429SOL     OW13481   3.887   2.657   5.994 -0.0423  0.4227 -0.0999
 3429SOL    HW213482   3.843   2.711   6.059 -0.5328  1.5962 -1.3797
 3429SOL    HW313483   3.817   2.602   5.958  0.4394 -1.0985  1.1510
 3429SOL    MW413484   3.872   2.657   5.998 -0.0435  0.3768 -0.1037
 3430SOL     OW13485   3.172   5.068   5.684 -0.3357 -0.3073 -0.3319
 3430SOL    HW213486   3.121   5.018   5.620 -1.1650 -0.1344  0.1789
 3430SOL    HW313487   3.255   5.019   5.692 -0.8413 -1.1990 -0.3730
 3430SOL    MW413488   3.176   5.055   5.677 -0.5118 -0.4021 -0.2699
 3431SOL     OW13489   1.555   3.462   2.831 -0.4487  0.1508  0.4403
 3431SOL    HW213490   1.470   3.447   2.790  0.0500 -0.4271 -0.4265
 3431SOL    HW313491   1.557   3.403   2.906 -0.6270 -0.1837  0.1826
 3431SOL    MW413492   1.544   3.452   2.835 -0.4064  0.0304  0.2919
 3432SOL     OW13493   1.542   4.203   4.557 -0.0892  0.0421  0.5071
 3432SOL    HW213494   1.573   4.293   4.557  0.8224 -0.2603  0.7226
 3432SOL    HW313495   1.618   4.151   4.531 -0.4085 -0.7267  1.0494
 3432SOL    MW413496   1.556   4.208   4.554 -0.0111 -0.0992  0.6071
 3433SOL     OW13497   0.570   1.785   2.686 -0.2097  0.2974  0.0547
 3433SOL    HW213498   0.479   1.810   2.667 -0.0122  0.2910 -0.9412
 3433SOL    HW313499   0.565   1.692   2.707 -0.2446 -0.0837 -1.5367
 3433SOL    MW413500   0.557   1.776   2.686 -0.1882  0.2463 -0.2866
 3434SOL     OW13501   6.075   1.635   1.019 -0.3134  0.0483 -0.1920
 3434SOL    HW213502   6.096   1.718   1.062  0.8709 -0.7092  0.7883
 3434SOL    HW313503   6.121   1.570   1.071 -3.1882 -1.5433  0.6041
 3434SOL    MW413504   6.084   1.637   1.032 -0.5364 -0.2616  0.0424
 3435SOL     OW13505   0.058   3.696   2.193  0.4399  0.6448  0.6232
 3435SOL    HW213506   0.111   3.776   2.196  2.7923 -0.7260 -0.8776
 3435SOL    HW313507   0.029   3.682   2.283  4.3297  0.5171  2.0467
 3435SOL    MW413508   0.062   3.705   2.205  1.2635  0.4471  0.6130
 3436SOL     OW13509   1.656   1.999   3.584  0.1165  0.1627 -0.3992
 3436SOL    HW213510   1.596   2.057   3.631 -0.6425 -0.0487 -1.0871
 3436SOL    HW313511   1.736   2.000   3.636 -0.5723  0.2390  0.6879
 3436SOL    MW413512   1.659   2.007   3.597 -0.0745  0.1448 -0.3465
 3437SOL     OW13513   1.018   2.528   6.361  0.2894 -0.0505  0.2187
 3437SOL    HW213514   0.935   2.572   6.381  0.3407  0.2035 -0.1079
 3437SOL    HW313515   1.002   2.487   6.276  0.5912  0.2474  0.0164
 3437SOL    MW413516   1.005   2.529   6.352  0.3360  0.0223  0.1489
 3438SOL     OW13517   2.428   4.020   4.306 -0.1452  0.0918  0.0443
 3438SOL    HW213518   2.475   4.042   4.225 -0.0414 -0.5638 -0.0750
 3438SOL    HW313519   2.337   4.045   4.287  0.2539  2.1041  0.5580
 3438SOL    MW413520   2.422   4.026   4.293 -0.0788  0.2708  0.0963
 3439SOL     OW13521   5.544   1.249   1.806 -1.0315 -0.1714 -0.7441
 3439SOL    HW213522   5.534   1.307   1.730 -0.5907  0.3954 -0.3762
 3439SOL    HW313523   5.581   1.169   1.769  0.1146  0.4546 -1.0032
 3439SOL    MW413524   5.548   1.246   1.791 -0.8221 -0.0141 -0.7297
 3440SOL     OW13525   2.501   1.890   4.460 -0.2104 -0.5093  0.2994
 3440SOL    HW213526   2.507   1.828   4.533  0.5806 -1.5970 -0.6501
 3440SOL    HW313527   2.494   1.835   4.382 -1.1193  0.6282 -0.4591
 3440SOL    MW413528   2.501   1.874   4.460 -0.2259 -0.5027  0.0741
 3441SOL     OW13529   1.452   0.425   4.113  0.2958  0.7842 -0.0121
 3441SOL    HW213530   1.375   0.370   4.103  1.3742 -0.6492 -0.9324
 3441SOL    HW313531   1.492   0.395   4.194  0.4979  0.6805 -0.1469
 3441SOL    MW413532   1.447   0.414   4.122  0.4647  0.5814 -0.1513
 3442SOL     OW13533   4.990   5.379   6.109 -0.2524 -0.4265  0.3564
 3442SOL    HW213534   4.942   5.354   6.031 -0.3771  0.4645  0.1337
 3442SOL    HW313535   5.017   5.470   6.092 -0.4922 -0.1404  1.4436
 3442SOL    MW413536   4.988   5.388   6.096 -0.3005 -0.2712  0.4705
 3443SOL     OW13537   5.196   1.804   4.496  0.0337 -0.5391  0.4305
 3443SOL    HW213538   5.218   1.887   4.453  0.4770 -0.5674  0.5983
 3443SOL    HW313539   5.100   1.800   4.491 -0.0214  0.1520  0.7330
 3443SOL    MW413540   5.186   1.815   4.489  0.0849 -0.4517  0.4925
 3444SOL     OW13541   2.881   1.717   5.158 -0.2976 -0.2299  0.0170
 3444SOL    HW213542   2.826   1.791   5.132  0.5343  0.4075  0.0141
 3444SOL    HW313543   2.892   1.728   5.253  0.8032  0.3480 -0.1636
 3444SOL    MW413544   2.875   1.728   5.167 -0.0426 -0.0695 -0.0072
 3445SOL     OW13545   2.995   4.852   3.548  0.4478  0.0579  0.2158
 3445SOL    HW213546   3.081   4.885   3.575 -0.3712  0.3519  2.8206
 3445SOL    HW313547   2.981   4.889   3.461  3.4650 -1.0765 -0.8709
 3445SOL    MW413548   3.004   4.861   3.540  0.7378 -0.0530  0.4161
 3446SOL     OW13549   1.750   5.719   3.225 -0.8529 -0.5366  0.3242
 3446SOL    HW213550   1.664   5.741   3.260 -1.0537 -1.1271  0.2051
 3446SOL    HW313551   1.801   5.800   3.235 -1.9947  0.4797 -1.4602
 3446SOL    MW413552   1.746   5.733   3.231 -1.0301 -0.4804  0.0730
 3447SOL     OW13553   5.240   4.095   1.923 -0.0314  0.3074  0.4052
 3447SOL    HW213554   5.188   4.068   1.998 -0.5978  0.3851  0.0443
 3447SOL    HW313555   5.330   4.099   1.956 -0.3516  0.8904  1.2239
 3447SOL    MW413556   5.245   4.092   1.937 -0.1484  0.3946  0.4656
 3448SOL     OW13557   1.507   1.241   5.058  0.4418  0.1140  0.3824
 3448SOL    HW213558   1.571   1.178   5.093  2.5049  1.2358 -1.1410
 3448SOL    HW313559   1.473   1.199   4.979  1.1909  0.5050 -0.1673
 3448SOL    MW413560   1.511   1.227   5.052  0.8129  0.3136  0.1089
 3449SOL     OW13561   0.059   3.508   5.482  0.5425 -0.3330  0.0105
 3449SOL    HW213562  -0.004   3.457   5.433 -0.5765  0.1828  0.8650
 3449SOL    HW313563   0.052   3.596   5.445  0.2727 -0.1254  0.5477
 3449SOL    MW413564   0.050   3.513   5.471  0.3593 -0.2376  0.1941
 3450SOL     OW13565   0.836   2.548   5.956  0.3586 -0.0030 -0.0257
 3450SOL    HW213566   0.745   2.542   5.929  0.2762 -0.1732  0.2778
 3450SOL    HW313567   0.854   2.642   5.961 -0.2181  0.0690  1.2432
 3450SOL    MW413568   0.826   2.559   5.953  0.2717 -0.0159  0.1817
 3451SOL     OW13569   1.398   4.508   4.636 -0.2567 -0.0010 -0.2974
 3451SOL    HW213570   1.340   4.432   4.633 -1.8030  0.9657  2.0870
 3451SOL    HW313571   1.353   4.574   4.584 -0.5089  0.2504  0.2352
 3451SOL    MW413572   1.385   4.507   4.628 -0.4940  0.1597  0.0875
 3452SOL     OW13573   3.747   6.169   4.185 -0.2405 -0.5303 -0.0907
 3452SOL    HW213574   3.748   6.257   4.146 -2.9199 -0.0561  0.7010
 3452SOL    HW313575   3.663   6.132   4.158  0.2699 -2.3631  0.6820
 3452SOL    MW413576   3.736   6.176   4.176 -0.5267 -0.7096  0.1157
 3453SOL     OW13577   2.702   2.194   1.084 -0.3211 -0.5605  0.0900
 3453SOL    HW213578   2.646   2.269   1.062  1.6297  1.1523  0.6203
 3453SOL    HW313579   2.671   2.166   1.170 -1.8269 -1.1714 -0.6142
 3453SOL    MW413580   2.691   2.200   1.093 -0.2624 -0.4152  0.0670
 3454SOL     OW13581   5.799   3.786   4.539 -0.6916 -0.0915 -0.0819
 3454SOL    HW213582   5.753   3.851   4.486 -2.1977 -0.0473  1.2135
 3454SOL    HW313583   5.750   3.783   4.621  1.0525 -0.7898  0.9886
 3454SOL    MW413584   5.787   3.794   4.543 -0.6602 -0.1778  0.2302
 3455SOL     OW13585   1.142   4.763   1.524  0.1649  0.8336  0.8590
 3455SOL    HW213586   1.065   4.725   1.567  0.7301 -1.0119  0.3468
 3455SOL    HW313587   1.211   4.699   1.538  1.1525  1.6311 -0.1850
 3455SOL    MW413588   1.141   4.749   1.532  0.3698  0.6953  0.6537
 3456SOL     OW13589   5.290   5.551   4.860  0.4885 -0.5477  0.0668
 3456SOL    HW213590   5.243   5.467   4.864 -1.7591  0.5332 -1.3600
 3456SOL    HW313591   5.250   5.603   4.929  2.1314 -0.7211  1.1866
 3456SOL    MW413592   5.278   5.546   4.870  0.4087 -0.4280  0.0263
 3457SOL     OW13593   0.881   2.597   3.604  0.3941  0.1767  0.2796
 3457SOL    HW213594   0.832   2.649   3.667  0.8750 -0.6877  1.3962
 3457SOL    HW313595   0.844   2.509   3.611 -0.5271  0.3607 -1.7120
 3457SOL    MW413596   0.870   2.592   3.613  0.3360  0.0869  0.1641
 3458SOL     OW13597   2.941   3.071   5.276 -0.4070  0.3333 -0.2465
 3458SOL    HW213598   2.968   3.137   5.212  1.5202  0.1741  0.3230
 3458SOL    HW313599   2.889   3.008   5.227  0.0542  0.8370 -1.4076
 3458SOL    MW413600   2.938   3.071   5.261 -0.0919  0.3788 -0.3246
 3459SOL     OW13601   4.574   2.270   3.865 -0.1087  0.0240  0.0578
 3459SOL    HW213602   4.654   2.322   3.868  0.1470 -0.3923  2.0617
 3459SOL    HW313603   4.516   2.319   3.806  1.3150  0.7571 -0.7862
 3459SOL    MW413604   4.577   2.284   3.858  0.1129  0.0658  0.2108
 3460SOL     OW13605   3.732   6.055   4.429 -0.6521  0.0897  0.5904
 3460SOL    HW213606   3.680   5.977   4.409  0.4358 -0.7248  0.7958
 3460SOL    HW313607   3.742   6.099   4.344 -0.6254 -0.4179  0.3249
 3460SOL    MW413608   3.727   6.050   4.415 -0.5051 -0.0847  0.5825
 3461SOL     OW13609   0.198   6.231   3.052 -0.2132 -0.0525  0.0521
 3461SOL    HW213610   0.277   6.201   3.008 -0.8415  1.8233 -2.6322
 3461SOL    HW313611   0.219   6.319   3.083 -0.9934  0.1519  0.0286
 3461SOL    MW413612   0.211   6.239   3.050 -0.3991  0.2220 -0.3052
 3462SOL     OW13613   1.427   4.013   3.232  0.1304 -0.3422 -0.0049
 3462SOL    HW213614   1.432   3.992   3.325 -0.7585  0.8668  0.3395
 3462SOL    HW313615   1.378   3.941   3.193  0.8440 -1.0475  0.3875
 3462SOL    MW413616   1.421   4.001   3.239  0.1073 -0.2757  0.0923
 3463SOL     OW13617   1.943   2.999   0.966  0.3249  0.0637  0.2940
 3463SOL    HW213618   1.876   3.056   0.930  0.6859  0.7241  0.6544
 3463SOL    HW313619   1.993   2.969   0.890  1.0222  1.3753  0.2104
 3463SOL    MW413620   1.941   3.003   0.951  0.4645  0.3239  0.3305
 3464SOL     OW13621   6.264   1.051   3.561  0.2060  0.1390 -0.9984
 3464SOL    HW213622   6.235   1.003   3.483 -0.4486 -0.0809 -0.6337
 3464SOL    HW313623   6.203   1.125   3.567  1.9357  1.7502 -2.2359
 3464SOL    MW413624   6.252   1.055   3.552  0.3478  0.3226 -1.1136
 3465SOL     OW13625   2.534   3.353   4.360 -0.1162 -0.7533  0.1545
 3465SOL    HW213626   2.449   3.308   4.352  0.0576 -1.4861  1.8862
 3465SOL    HW313627   2.564   3.363   4.270 -2.0631 -0.4207 -0.5179
 3465SOL    MW413628   2.526   3.349   4.347 -0.3502 -0.8061  0.2943
 3466SOL     OW13629   0.822   4.582   1.030 -0.2182 -0.0084  0.3989
 3466SOL    HW213630   0.907   4.539   1.044  0.4494  1.2280  0.3325
 3466SOL    HW313631   0.776   4.526   0.968  0.0795 -1.3009  1.3093
 3466SOL    MW413632   0.827   4.569   1.024 -0.0908 -0.0158  0.5102
 3467SOL     OW13633   5.291   2.356   1.134  0.2936  0.0730  0.0828
 3467SOL    HW213634   5.386   2.356   1.143  0.2991  0.0123  0.0261
 3467SOL    HW313635   5.272   2.434   1.081  0.3317 -0.0555 -0.1212
 3467SOL    MW413636   5.301   2.366   1.128  0.2994  0.0480  0.0484
 3468SOL     OW13637   3.966   1.005   4.773 -0.7271 -0.3184 -0.1028
 3468SOL    HW213638   3.975   0.934   4.836  0.1856  0.3393  0.5430
 3468SOL    HW313639   3.919   0.967   4.699 -0.5180 -1.5008  0.3595
 3468SOL    MW413640   3.961   0.991   4.772 -0.5791 -0.3876  0.0434
 3469SOL     OW13641   5.901   5.125   5.937 -0.0739 -0.0028 -0.1392
 3469SOL    HW213642   5.858   5.151   6.019 -1.2830  0.9036 -1.0250
 3469SOL    HW313643   5.856   5.046   5.909 -0.7785  0.6080 -0.7584
 3469SOL    MW413644   5.890   5.118   5.944 -0.3264  0.1974 -0.3377
 3470SOL     OW13645   2.006   0.506   0.866 -0.2252  0.4578  0.5945
 3470SOL    HW213646   2.016   0.601   0.855 -0.9706  0.4087 -0.6204
 3470SOL    HW313647   2.094   0.471   0.850 -0.3017  0.8087 -0.6996
 3470SOL    MW413648   2.019   0.514   0.863 -0.3337  0.4976  0.2634
 3471SOL     OW13649   5.088   2.218   1.641 -0.0067 -0.4013 -0.2328
 3471SOL    HW213650   5.120   2.136   1.604  0.1967 -0.8832  0.9752
 3471SOL    HW313651   5.133   2.226   1.725 -0.4201  0.6881 -0.0978
 3471SOL    MW413652   5.098   2.208   1.647 -0.0344 -0.3211 -0.0556
 3472SOL     OW13653   0.813   0.713   1.704 -0.1333  0.4225 -0.4299
 3472SOL    HW213654   0.853   0.717   1.791  0.8182 -0.9753 -0.7722
 3472SOL    HW313655   0.868   0.652   1.655 -1.0459  0.6694 -1.8213
 3472SOL    MW413656   0.826   0.706   1.709 -0.1281  0.2707 -0.6586
 3473SOL     OW13657   2.143   5.562   5.670  0.0316 -0.2749 -0.0768
 3473SOL    HW213658   2.083   5.572   5.596  1.6526 -2.6117 -1.8795
 3473SOL    HW313659   2.204   5.635   5.662 -0.0602 -0.2718 -0.8484
 3473SOL    MW413660   2.143   5.573   5.659  0.2333 -0.5828 -0.4164
 3474SOL     OW13661   3.581   0.859   3.575  0.0702  0.1746  0.0764
 3474SOL    HW213662   3.610   0.907   3.653 -0.4060  3.4213 -1.5609
 3474SOL    HW313663   3.658   0.859   3.518  0.2138 -1.6061  0.2071
 3474SOL    MW413664   3.595   0.866   3.578  0.0263  0.3680 -0.1224
 3475SOL     OW13665   0.826   1.167   2.096 -0.1234 -0.1639 -1.0118
 3475SOL    HW213666   0.885   1.124   2.033 -0.5192  0.5677 -1.9010
 3475SOL    HW313667   0.880   1.233   2.138  0.2034 -0.8062 -0.4146
 3475SOL    MW413668   0.841   1.170   2.093 -0.1325 -0.1521 -1.0503
 3476SOL     OW13669   4.568   5.757   0.404  0.2726  0.5898 -0.0339
 3476SOL    HW213670   4.547   5.842   0.367  1.0805  0.3890 -0.9896
 3476SOL    HW313671   4.557   5.768   0.499 -0.9893  1.3469 -0.2493
 3476SOL    MW413672   4.564   5.769   0.412  0.2127  0.6632 -0.1884
 3477SOL     OW13673   1.409   1.913   3.091 -1.0939  0.5808  0.4423
 3477SOL    HW213674   1.448   1.826   3.093  0.1021  1.1049  0.9433
 3477SOL    HW313675   1.380   1.925   3.001 -1.1931 -0.3024  0.3554
 3477SOL    MW413676   1.410   1.903   3.079 -0.9492  0.5334  0.4970
 3478SOL     OW13677   4.692   4.057   4.602  0.0317 -0.4195 -0.2553
 3478SOL    HW213678   4.740   4.050   4.519  1.0916 -1.8276  0.4258
 3478SOL    HW313679   4.722   3.982   4.653 -1.4385 -0.2064  0.9900
 3478SOL    MW413680   4.703   4.046   4.598 -0.0224 -0.5772 -0.0012
 3479SOL     OW13681   1.265   4.823   4.263 -0.5754 -0.0761 -0.1853
 3479SOL    HW213682   1.308   4.843   4.347 -2.2149 -1.0420  0.9567
 3479SOL    HW313683   1.337   4.803   4.203  0.6975  1.6393  0.6824
 3479SOL    MW413684   1.280   4.823   4.266 -0.6237  0.0228  0.0798
 3480SOL     OW13685   5.132   6.360   1.445 -0.4439  0.0039  0.2517
 3480SOL    HW213686   5.085   6.316   1.516  1.3937 -1.8703  0.4212
 3480SOL    HW313687   5.218   6.379   1.482  0.6589 -1.2604 -1.4944
 3480SOL    MW413688   5.137   6.357   1.459 -0.0559 -0.4102  0.0437
 3481SOL     OW13689   5.968   5.165   1.937 -0.3158  0.3552 -0.3535
 3481SOL    HW213690   6.037   5.203   1.991 -0.0073 -0.8619  0.1466
 3481SOL    HW313691   6.015   5.121   1.866 -0.4950 -1.1764  0.4350
 3481SOL    MW413692   5.983   5.164   1.935 -0.2988 -0.0074 -0.1835
 3482SOL     OW13693   4.723   0.305   4.423 -0.4379 -0.3490 -0.2491
 3482SOL    HW213694   4.720   0.399   4.405 -2.0361 -0.2816  0.2399
 3482SOL    HW313695   4.817   0.284   4.422 -0.0416  1.2470 -0.3083
 3482SOL    MW413696   4.735   0.315   4.420 -0.5965 -0.1296 -0.1924
 3483SOL     OW13697   1.077   5.039   1.591 -0.2265  0.2599 -0.0687
 3483SOL    HW213698   1.008   5.053   1.525 -0.2190 -0.6156 -0.2720
 3483SOL    HW313699   1.121   4.959   1.563  0.7467  0.6909  0.1819
 3483SOL    MW413700   1.074   5.030   1.578 -0.0971  0.2013 -0.0624
 3484SOL     OW13701   4.626   3.663   2.494 -0.3753 -0.0135 -0.4614
 3484SOL    HW213702   4.681   3.725   2.447  0.9803 -0.2256  0.7906
 3484SOL    HW313703   4.618   3.588   2.435 -1.3047  0.9445 -1.6161
 3484SOL    MW413704   4.632   3.661   2.480 -0.3190  0.0849 -0.4486
 3485SOL     OW13705   4.166   2.876   1.637 -0.1185 -0.3053 -0.1744
 3485SOL    HW213706   4.105   2.909   1.703  0.6337  0.2050  0.2791
 3485SOL    HW313707   4.172   2.947   1.573 -1.1457 -0.9499 -1.0253
 3485SOL    MW413708   4.158   2.890   1.637 -0.1548 -0.3230 -0.2268
 3486SOL     OW13709   6.049   0.017   1.796  0.1396  0.2122 -0.0447
 3486SOL    HW213710   6.100   0.016   1.877  0.9568 -1.8470 -0.5283
 3486SOL    HW313711   6.111  -0.010   1.729 -1.0582 -0.1684 -1.0185
 3486SOL    MW413712   6.064   0.014   1.798  0.0894 -0.1097 -0.2370
 3487SOL     OW13713   4.458   0.451   4.697 -0.0823  0.2084 -0.1638
 3487SOL    HW213714   4.478   0.368   4.742  0.6326  0.9448  0.9214
 3487SOL    HW313715   4.543   0.490   4.679 -0.4283  1.0225 -0.0788
 3487SOL    MW413716   4.472   0.445   4.700 -0.0336  0.4130 -0.0094
 3488SOL     OW13717   5.615   2.147   5.010  0.3534  0.4440 -0.1567
 3488SOL    HW213718   5.576   2.228   5.041 -0.1787  0.4398 -0.8070
 3488SOL    HW313719   5.710   2.164   5.011  0.2079  1.4289 -1.2352
 3488SOL    MW413720   5.623   2.160   5.014  0.2640  0.5734 -0.3848
 3489SOL     OW13721   6.403   2.561   3.749  0.1036  0.8629  0.7713
 3489SOL    HW213722   6.335   2.620   3.717 -0.0263  0.1716 -0.3164
 3489SOL    HW313723   6.475   2.572   3.686 -0.4210 -1.0447 -0.2587
 3489SOL    MW413724   6.404   2.570   3.736  0.0173  0.5200  0.4919
 3490SOL     OW13725   5.844   2.581   2.505 -0.0113  0.1464  0.1564
 3490SOL    HW213726   5.820   2.629   2.425  0.4077  0.9133  0.4808
 3490SOL    HW313727   5.765   2.531   2.527 -1.2350  2.2704  0.9475
 3490SOL    MW413728   5.830   2.581   2.497 -0.1174  0.5278  0.3036
 3491SOL     OW13729   1.840   0.640   1.756 -0.3671  0.3759 -0.0263
 3491SOL    HW213730   1.873   0.720   1.797 -1.4937  0.2396  1.1947
 3491SOL    HW313731   1.919   0.591   1.733  0.3547  1.9506 -1.0867
 3491SOL    MW413732   1.855   0.644   1.758 -0.4205  0.5657 -0.0051
 3492SOL     OW13733   2.138   0.125   3.813  0.2903  0.2546  0.1508
 3492SOL    HW213734   2.100   0.048   3.769  0.7679  1.9768 -3.6321
 3492SOL    HW313735   2.225   0.096   3.839 -0.6074 -1.3328  1.6026
 3492SOL    MW413736   2.144   0.111   3.810  0.2349  0.2724 -0.1567
 3493SOL     OW13737   3.649   3.638   1.062 -0.5263 -0.2069 -0.0643
 3493SOL    HW213738   3.741   3.664   1.068 -0.1621 -1.3794 -0.1307
 3493SOL    HW313739   3.600   3.719   1.068  0.5272  0.4607 -0.2162
 3493SOL    MW413740   3.655   3.652   1.063 -0.3393 -0.2735 -0.0931
 3494SOL     OW13741   5.078   3.326   2.084 -0.3072 -0.1284 -0.1578
 3494SOL    HW213742   5.006   3.288   2.133 -0.8268  1.2173  0.1519
 3494SOL    HW313743   5.039   3.354   2.001  0.5857 -2.5030 -1.4793
 3494SOL    MW413744   5.064   3.325   2.079 -0.2580 -0.2642 -0.2913
 3495SOL     OW13745   5.873   3.198   4.144 -0.2843 -0.1313 -0.6849
 3495SOL    HW213746   5.944   3.194   4.080  1.3922  0.4338  1.0481
 3495SOL    HW313747   5.840   3.108   4.149  1.0840 -0.6592 -0.7133
 3495SOL    MW413748   5.878   3.185   4.136  0.1174 -0.1264 -0.4600
 3496SOL     OW13749   3.799   3.577   0.445  0.2632 -0.0314 -0.2925
 3496SOL    HW213750   3.781   3.499   0.393 -0.1226  0.9760 -1.7370
 3496SOL    HW313751   3.747   3.566   0.524 -0.5447 -0.8016 -0.9179
 3496SOL    MW413752   3.790   3.566   0.449  0.1057 -0.0001 -0.5656
 3497SOL     OW13753   1.233   4.153   0.257 -0.1242 -0.0426 -0.0157
 3497SOL    HW213754   1.158   4.118   0.305  0.1279 -0.0962  0.3416
 3497SOL    HW313755   1.238   4.100   0.178 -0.4662 -0.0361 -0.0423
 3497SOL    MW413756   1.224   4.141   0.253 -0.1361 -0.0488  0.0279
 3498SOL     OW13757   4.221   2.310   5.716 -0.0972 -0.2511  0.8177
 3498SOL    HW213758   4.142   2.333   5.666  0.5404  2.4498  0.9166
 3498SOL    HW313759   4.290   2.304   5.650 -0.0090 -0.6866  0.9467
 3498SOL    MW413760   4.220   2.312   5.700 -0.0015  0.0478  0.8478
 3499SOL     OW13761   3.059   6.284   0.362 -0.2202 -0.0479 -0.1140
 3499SOL    HW213762   2.978   6.234   0.353 -0.6199  0.4541  0.6267
 3499SOL    HW313763   3.124   6.221   0.393  0.1175 -0.8350 -2.2250
 3499SOL    MW413764   3.057   6.269   0.365 -0.2284 -0.0855 -0.2948
 3500SOL     OW13765   0.003   3.377   2.300 -0.8631  0.4021  0.3134
 3500SOL    HW213766   0.026   3.455   2.351 -1.3377 -0.6135  2.1697
 3500SOL    HW313767   0.084   3.354   2.254 -1.0808  2.7415 -1.3860
 3500SOL    MW413768   0.017   3.384   2.301 -0.9545  0.5767  0.3341
 3501SOL     OW13769   2.732   4.687   6.007 -0.1934 -0.4468  0.1194
 3501SOL    HW213770   2.665   4.643   5.954  1.3434 -2.1070 -0.5367
 3501SOL    HW313771   2.688   4.702   6.091 -1.9690  0.2368 -0.8710
 3501SOL    MW413772   2.717   4.683   6.011 -0.2249 -0.5756 -0.0979
 3502SOL     OW13773   3.209   1.834   2.619 -0.0167  0.0319 -0.4964
 3502SOL    HW213774   3.160   1.775   2.676  2.0842 -1.0793  0.2801
 3502SOL    HW313775   3.233   1.781   2.544  2.0055 -0.2187  0.2686
 3502SOL    MW413776   3.206   1.819   2.617  0.5273 -0.1478 -0.2931
 3503SOL     OW13777   5.146   3.499   6.009  0.3916 -0.1352 -0.3990
 3503SOL    HW213778   5.172   3.532   6.095  0.8960  1.9843 -1.2899
 3503SOL    HW313779   5.158   3.404   6.015  2.0647  0.1132  1.3170
 3503SOL    MW413780   5.151   3.491   6.021  0.6789  0.1772 -0.2901
 3504SOL     OW13781   6.388   2.351   0.297  0.1861 -0.3242 -0.5377
 3504SOL    HW213782   6.476   2.313   0.292 -0.4664 -1.8244 -1.2668
 3504SOL    HW313783   6.372   2.361   0.391  1.3390  0.4943 -0.4063
 3504SOL    MW413784   6.398   2.347   0.309  0.2521 -0.4141 -0.6166
 3505SOL     OW13785   4.278   3.334   3.363  0.0014 -0.5079  0.5412
 3505SOL    HW213786   4.250   3.342   3.454  0.7507 -0.6139  0.7940
 3505SOL    HW313787   4.349   3.398   3.355 -2.3768  2.1959 -0.9827
 3505SOL    MW413788   4.284   3.343   3.374 -0.2135 -0.1651  0.3735
 3506SOL     OW13789   3.892   4.747   2.253  0.2077 -0.7176  0.5965
 3506SOL    HW213790   3.864   4.716   2.166  0.5078 -1.5665  0.7963
 3506SOL    HW313791   3.827   4.711   2.313 -2.0090  2.5864  0.4687
 3506SOL    MW413792   3.879   4.738   2.249 -0.0452 -0.3937  0.6060
 3507SOL     OW13793   0.335   0.669   6.318  0.0696 -0.7765  0.1636
 3507SOL    HW213794   0.325   0.752   6.364  0.4161 -1.6985  2.0267
 3507SOL    HW313795   0.263   0.666   6.256 -1.6844 -0.3159  2.0771
 3507SOL    MW413796   0.324   0.679   6.316 -0.1161 -0.8374  0.6619
 3508SOL     OW13797   0.626   4.939   2.985  0.3688  0.0370 -0.4505
 3508SOL    HW213798   0.708   4.898   3.011 -0.6777 -1.4962  0.6650
 3508SOL    HW313799   0.601   4.992   3.061  0.8014  1.3325 -1.1828
 3508SOL    MW413800   0.633   4.941   2.998  0.2878  0.0057 -0.3999
 3509SOL     OW13801   2.211   0.866   2.305 -0.0737 -0.2354 -0.2411
 3509SOL    HW213802   2.283   0.823   2.257  0.0873 -1.7273  1.2438
 3509SOL    HW313803   2.150   0.795   2.324 -0.6513  0.5291  0.8232
 3509SOL    MW413804   2.213   0.851   2.301 -0.1287 -0.3314  0.0952
 3510SOL     OW13805   6.061   1.151   4.765  0.5284 -1.0062 -0.0139
 3510SOL    HW213806   6.044   1.160   4.671 -0.9800 -1.6901  0.1704
 3510SOL    HW313807   6.135   1.209   4.781 -0.0721  0.1979 -1.3669
 3510SOL    MW413808   6.069   1.160   4.755  0.2502 -0.9376 -0.1681
 3511SOL     OW13809   1.124   4.685   2.542 -0.5401  0.1821 -0.3316
 3511SOL    HW213810   1.197   4.643   2.497  1.7113  2.1741  1.1916
 3511SOL    HW313811   1.123   4.644   2.629 -1.3227  0.0936 -0.3758
 3511SOL    MW413812   1.133   4.674   2.548 -0.3463  0.4332 -0.1365
 3512SOL     OW13813   6.338   6.044   5.013  0.2896  0.5764  0.3207
 3512SOL    HW213814   6.408   6.108   5.028  0.2569  0.5108  0.7723
 3512SOL    HW313815   6.335   5.993   5.093 -0.2463  0.5469  0.2856
 3512SOL    MW413816   6.347   6.046   5.025  0.2146  0.5639  0.3757
 3513SOL     OW13817   6.301   3.565   0.037 -0.1516 -0.0181  0.0531
 3513SOL    HW213818   6.333   3.480   0.006  1.1186  0.6264 -0.4936
 3513SOL    HW313819   6.316   3.563   0.132 -1.1021 -0.7895  0.1979
 3513SOL    MW413820   6.307   3.554   0.046 -0.1094 -0.0348  0.0000
 3514SOL     OW13821   1.570   4.298   6.138 -0.1905 -0.1845  0.0622
 3514SOL    HW213822   1.629   4.332   6.206  0.5202 -0.2828 -0.4928
 3514SOL    HW313823   1.554   4.208   6.163  2.0554 -1.0121 -1.1560
 3514SOL    MW413824   1.576   4.291   6.150  0.1996 -0.3066 -0.1717
 3515SOL     OW13825   0.689   1.426   3.675 -0.1230  0.0312 -0.2914
 3515SOL    HW213826   0.693   1.490   3.604 -0.0569 -0.0422 -0.3521
 3515SOL    HW313827   0.742   1.353   3.646 -1.3883 -0.6972 -0.8722
 3515SOL    MW413828   0.696   1.425   3.662 -0.2812 -0.0746 -0.3760
 3516SOL     OW13829   2.558   0.246   6.238 -0.2200  0.5357 -0.0879
 3516SOL    HW213830   2.618   0.179   6.271 -1.0718 -0.0384  0.3328
 3516SOL    HW313831   2.613   0.303   6.184  0.1546 -1.7076 -2.2699
 3516SOL    MW413832   2.573   0.245   6.235 -0.2829  0.1640 -0.3203
 3517SOL     OW13833   6.279   1.460   2.738  0.1761  0.2048 -0.1601
 3517SOL    HW213834   6.294   1.477   2.645 -0.0341  0.0762 -0.2198
 3517SOL    HW313835   6.314   1.537   2.783 -0.9284  0.8901 -0.4339
 3517SOL    MW413836   6.285   1.472   2.732  0.0026  0.2782 -0.2041
 3518SOL     OW13837   5.220   4.377   1.876 -0.2653 -0.2232 -0.0468
 3518SOL    HW213838   5.222   4.285   1.900 -0.9376 -0.0946  0.5129
 3518SOL    HW313839   5.150   4.385   1.812 -1.5282  0.2225  1.3420
 3518SOL    MW413840   5.211   4.366   1.870 -0.5207 -0.1474  0.2103
 3519SOL     OW13841   4.815   2.010   5.728  0.1411 -0.3696  0.0396
 3519SOL    HW213842   4.814   2.105   5.719  0.5065 -0.2479  1.0956
 3519SOL    HW313843   4.816   1.995   5.823  1.1814 -1.3982 -0.1081
 3519SOL    MW413844   4.815   2.021   5.739  0.3266 -0.4892  0.1594
 3520SOL     OW13845   3.554   6.086   3.355 -0.2253  0.2118 -0.3528
 3520SOL    HW213846   3.511   6.169   3.375 -2.2601 -0.8387 -0.1702
 3520SOL    HW313847   3.520   6.024   3.420 -0.5369 -1.3020 -1.8789
 3520SOL    MW413848   3.544   6.089   3.366 -0.5348 -0.1265 -0.5300
 3521SOL     OW13849   2.307   1.979   2.473 -0.1796 -0.1440 -0.5380
 3521SOL    HW213850   2.252   1.954   2.547  1.0210 -3.6035 -0.6266
 3521SOL    HW313851   2.247   2.022   2.412 -2.2272 -1.4078  0.4606
 3521SOL    MW413852   2.292   1.981   2.475 -0.2914 -0.7672 -0.4180
 3522SOL     OW13853   1.008   0.214   1.277  0.6951  0.3195 -0.1579
 3522SOL    HW213854   1.098   0.207   1.308  0.7050  1.0593 -0.0094
 3522SOL    HW313855   0.957   0.161   1.339  0.8814  0.7795  0.3920
 3522SOL    MW413856   1.013   0.206   1.289  0.7210  0.4778 -0.0658
 3523SOL     OW13857   1.059   5.258   3.166 -0.1213  0.9392  1.0708
 3523SOL    HW213858   0.972   5.224   3.189 -0.0672  0.4529  0.5806
 3523SOL    HW313859   1.119   5.186   3.183 -0.2687 -0.0913 -2.0906
 3523SOL    MW413860   1.055   5.244   3.171 -0.1336  0.7391  0.5890
 3524SOL     OW13861   1.168   1.758   0.369  0.1293  0.0166  0.5054
 3524SOL    HW213862   1.170   1.853   0.372 -0.9620  0.0468  0.4364
 3524SOL    HW313863   1.089   1.736   0.319  2.2580 -0.8820 -2.8570
 3524SOL    MW413864   1.158   1.767   0.362  0.2662 -0.0980  0.0527
 3525SOL     OW13865   6.211   4.129   4.224 -0.1189  0.3044 -0.4582
 3525SOL    HW213866   6.131   4.083   4.200 -0.5733 -0.1096  1.6804
 3525SOL    HW313867   6.203   4.215   4.181 -1.3610  0.0102 -0.8587
 3525SOL    MW413868   6.199   4.135   4.215 -0.3428  0.2110 -0.2289
 3526SOL     OW13869   0.469   3.422   2.220  0.0948 -0.8624  0.2392
 3526SOL    HW213870   0.405   3.488   2.193  0.8366  0.2678  1.1250
 3526SOL    HW313871   0.417   3.343   2.235 -0.8818 -0.3733 -0.4320
 3526SOL    MW413872   0.454   3.420   2.219  0.0638 -0.6488  0.2675
 3527SOL     OW13873   5.039   5.648   6.099 -0.1340  0.2501 -0.7506
 3527SOL    HW213874   4.992   5.663   6.182  0.3632 -0.3823 -0.3517
 3527SOL    HW313875   4.980   5.684   6.032  0.0084  1.9104 -0.0325
 3527SOL    MW413876   5.025   5.655   6.101 -0.0496  0.3858 -0.6032
 3528SOL     OW13877   1.141   4.742   3.149 -0.0092 -0.1223 -0.4312
 3528SOL    HW213878   1.104   4.655   3.131 -0.9408  0.2949 -0.5916
 3528SOL    HW313879   1.229   4.739   3.112 -0.6344 -0.4448 -1.9626
 3528SOL    MW413880   1.148   4.730   3.142 -0.2146 -0.1098 -0.6544
 3529SOL     OW13881   6.264   4.558   4.818 -0.1879  0.1889  0.2179
 3529SOL    HW213882   6.176   4.583   4.847  0.3295 -0.0428  2.1163
 3529SOL    HW313883   6.249   4.485   4.758 -1.2370 -1.6383  2.5511
 3529SOL    MW413884   6.250   4.552   4.814 -0.2580 -0.0827  0.7762
 3530SOL     OW13885   3.486   2.953   2.632 -0.0444 -0.7999  0.4687
 3530SOL    HW213886   3.449   2.940   2.719 -1.3794  0.8450  0.2040
 3530SOL    HW313887   3.575   2.918   2.638  0.5174  0.8089  3.0114
 3530SOL    MW413888   3.493   2.947   2.644 -0.1464 -0.3706  0.7692
 3531SOL     OW13889   2.527   3.394   1.956  0.5483 -0.1695  0.5172
 3531SOL    HW213890   2.583   3.329   1.999 -0.6467  0.1496  2.6849
 3531SOL    HW313891   2.490   3.348   1.881  1.4697 -1.2737  0.7158
 3531SOL    MW413892   2.530   3.379   1.952  0.5122 -0.2731  0.8294
 3532SOL     OW13893   0.379   5.127   1.744  0.2445  0.0278  0.1421
 3532SOL    HW213894   0.391   5.072   1.667 -2.3336  2.2795 -2.0588
 3532SOL    HW313895   0.468   5.142   1.776  1.2866 -2.2617 -1.3858
 3532SOL    MW413896   0.392   5.121   1.738  0.0418  0.0228 -0.3499
 3533SOL     OW13897   4.032   4.492   2.209  0.7772  0.2061  0.2518
 3533SOL    HW213898   3.975   4.569   2.201  0.4645 -0.0971 -0.5846
 3533SOL    HW313899   3.985   4.433   2.267  0.9894  0.6148  0.8490
 3533SOL    MW413900   4.018   4.495   2.216  0.7640  0.2200  0.2202
 3534SOL     OW13901   3.699   5.536   4.178  0.2170 -0.0149  0.0831
 3534SOL    HW213902   3.707   5.482   4.099  3.7719 -0.3042  0.4721
 3534SOL    HW313903   3.640   5.606   4.152  1.9166  0.4170 -3.2151
 3534SOL    MW413904   3.692   5.538   4.164  0.9103  0.0039 -0.3008
 3535SOL     OW13905   5.258   4.757   2.446  0.3186  0.2233 -0.8718
 3535SOL    HW213906   5.196   4.706   2.395  0.0858  0.4841 -0.8499
 3535SOL    HW313907   5.212   4.838   2.466  1.6343  1.6661 -3.2685
 3535SOL    MW413908   5.244   4.761   2.442  0.4615  0.4481 -1.1851
 3536SOL     OW13909   2.960   2.161   1.058 -0.1935 -0.1332  0.3628
 3536SOL    HW213910   3.013   2.227   1.013 -0.4413 -0.9266 -1.1865
 3536SOL    HW313911   2.871   2.196   1.055 -0.1164  0.1082  0.8273
 3536SOL    MW413912   2.955   2.174   1.051 -0.2160 -0.2061  0.2196
 3537SOL     OW13913   4.364   0.936   4.258  0.1434  0.4684  0.5107
 3537SOL    HW213914   4.323   0.969   4.338  0.3804 -1.3039  1.4080
 3537SOL    HW313915   4.314   0.858   4.236 -0.5076  1.4140 -1.6509
 3537SOL    MW413916   4.352   0.930   4.265  0.0888  0.3593  0.3439
 3538SOL     OW13917   5.455   0.364   0.363 -0.1548  0.3970 -0.3132
 3538SOL    HW213918   5.512   0.435   0.334  1.7341 -1.4008 -1.2540
 3538SOL    HW313919   5.509   0.312   0.422 -1.4401 -0.3515  0.2449
 3538SOL    MW413920   5.469   0.367   0.367 -0.0751  0.0610 -0.3637
 3539SOL     OW13921   0.656   3.430   0.095  0.1712 -0.1606  0.0298
 3539SOL    HW213922   0.590   3.361   0.102 -0.2021  0.2919  1.0427
 3539SOL    HW313923   0.623   3.488   0.027 -0.7015  0.3032  0.8391
 3539SOL    MW413924   0.643   3.428   0.087  0.0068 -0.0397  0.2702
 3540SOL     OW13925   4.820   2.229   1.599 -0.1533  0.4530  0.1225
 3540SOL    HW213926   4.800   2.322   1.591  0.4618  0.7925  2.0651
 3540SOL    HW313927   4.914   2.226   1.620  0.1080 -0.6798 -1.0655
 3540SOL    MW413928   4.830   2.241   1.601 -0.0377  0.3483  0.2221
 3541SOL     OW13929   3.247   2.635   3.823  0.1491 -0.0780  0.1434
 3541SOL    HW213930   3.216   2.718   3.859 -2.1206  0.4953 -2.7408
 3541SOL    HW313931   3.342   2.642   3.824  0.0190  2.7946 -0.4145
 3541SOL    MW413932   3.255   2.647   3.828 -0.1675  0.3766 -0.3108
 3542SOL     OW13933   3.122   5.290   6.023 -0.1660  0.0319 -0.8239
 3542SOL    HW213934   3.216   5.300   6.008  0.1981 -0.4166  0.9953
 3542SOL    HW313935   3.102   5.352   6.093 -0.6652 -1.7308  0.6681
 3542SOL    MW413936   3.132   5.299   6.030 -0.1838 -0.2598 -0.3870
 3543SOL     OW13937   5.329   0.921   3.344 -0.2737  0.4675 -0.3833
 3543SOL    HW213938   5.268   0.994   3.328 -1.4818 -0.4978 -0.3350
 3543SOL    HW313939   5.410   0.948   3.301  0.0992  2.8975  1.5966
 3543SOL    MW413940   5.331   0.934   3.336 -0.3839  0.6607 -0.1157
 3544SOL     OW13941   1.479   5.253   1.791 -0.7169 -0.1584  0.4383
 3544SOL    HW213942   1.539   5.316   1.750  0.4802 -0.4847  1.6014
 3544SOL    HW313943   1.509   5.247   1.882 -0.4490 -2.7350  0.2720
 3544SOL    MW413944   1.491   5.260   1.797 -0.5236 -0.5414  0.5698
 3545SOL     OW13945   0.634   2.208   0.030 -0.3414  0.2325 -0.1095
 3545SOL    HW213946   0.590   2.135   0.074 -0.1927  0.7222  0.8880
 3545SOL    HW313947   0.686   2.249   0.099  0.3940  0.6570 -0.8967
 3545SOL    MW413948   0.635   2.204   0.045 -0.2248  0.3531 -0.0818
 3546SOL     OW13949   5.101   5.703   2.335  0.3127  0.3693 -0.2970
 3546SOL    HW213950   5.042   5.642   2.380  0.4766 -0.1195 -0.7279
 3546SOL    HW313951   5.050   5.737   2.262 -0.0448  1.3728  0.4016
 3546SOL    MW413952   5.087   5.699   2.331  0.2872  0.4372 -0.2617
 3547SOL     OW13953   3.402   4.921   5.727 -0.0318 -0.4018  0.2409
 3547SOL    HW213954   3.484   4.964   5.752 -0.7035  0.5225  0.9517
 3547SOL    HW313955   3.403   4.837   5.773  0.4199 -0.2978  0.4223
 3547SOL    MW413956   3.413   4.916   5.737 -0.0609 -0.2661  0.3586
 3548SOL     OW13957   0.978   0.307   1.725 -0.3071 -0.1177  0.2199
 3548SOL    HW213958   0.962   0.317   1.819  0.7204 -0.9100  0.5075
 3548SOL    HW313959   0.928   0.230   1.700  0.0324 -0.3669  0.2968
 3548SOL    MW413960   0.969   0.298   1.734 -0.1268 -0.2551  0.2680
 3549SOL     OW13961   0.079   0.188   2.824  0.3992 -0.3468 -0.0790
 3549SOL    HW213962   0.105   0.097   2.837  1.7880  0.3579  3.0064
 3549SOL    HW313963   0.040   0.214   2.907  1.1723  2.2205 -0.4293
 3549SOL    MW413964   0.078   0.180   2.837  0.6844  0.0849  0.2819
 3550SOL     OW13965   0.101   5.827   1.667 -0.2508  0.0489 -0.3924
 3550SOL    HW213966   0.149   5.909   1.683  1.5923 -0.7927 -1.3074
 3550SOL    HW313967   0.150   5.761   1.716 -1.6071 -0.5725  0.1741
 3550SOL    MW413968   0.114   5.829   1.676 -0.1866 -0.1441 -0.4384
 3551SOL     OW13969   6.103   3.811   0.574  0.0203  0.4216 -0.3708
 3551SOL    HW213970   6.153   3.749   0.628 -0.8969 -0.2523 -0.2734
 3551SOL    HW313971   6.138   3.897   0.599  0.7619  0.0058  0.0777
 3551SOL    MW413972   6.114   3.814   0.585 -0.0029  0.2778 -0.2988
 3552SOL     OW13973   0.758   3.771   5.083  0.3027  0.2689 -0.2889
 3552SOL    HW213974   0.756   3.865   5.068 -0.9565  0.4196  0.6084
 3552SOL    HW313975   0.667   3.743   5.067  1.0159 -1.1128 -2.3230
 3552SOL    MW413976   0.745   3.780   5.079  0.2306  0.1065 -0.4389
 3553SOL     OW13977   3.020   3.294   2.354 -0.1189 -0.0225  0.1835
 3553SOL    HW213978   2.954   3.226   2.343 -1.2226  1.2075 -1.2292
 3553SOL    HW313979   3.071   3.293   2.273  2.0550 -1.3283  1.4707
 3553SOL    MW413980   3.018   3.285   2.342  0.0223 -0.0325  0.1670
 3554SOL     OW13981   2.414   3.823   4.001 -0.5524  0.4764  0.2528
 3554SOL    HW213982   2.339   3.801   3.947 -0.6852 -0.2002  0.6894
 3554SOL    HW313983   2.390   3.793   4.089  0.7377 -1.0340  0.1525
 3554SOL    MW413984   2.401   3.816   4.006 -0.3997  0.1879  0.2972
 3555SOL     OW13985   0.817   4.165   2.086 -0.5853  0.5366  0.0291
 3555SOL    HW213986   0.899   4.167   2.136 -0.7707 -0.4437  0.3866
 3555SOL    HW313987   0.843   4.188   1.997 -0.2770  2.4896  0.5648
 3555SOL    MW413988   0.831   4.168   2.081 -0.5691  0.6649  0.1470
 3556SOL     OW13989   2.212   0.717   4.568 -0.7863  0.1754 -0.2920
 3556SOL    HW213990   2.286   0.776   4.552  1.2907 -2.2848 -0.5492
 3556SOL    HW313991   2.215   0.699   4.662 -0.6160 -0.4245 -0.4041
 3556SOL    MW413992   2.222   0.722   4.578 -0.4898 -0.2283 -0.3407
 3557SOL     OW13993   2.327   6.054   4.412  0.2287  0.2043 -0.1498
 3557SOL    HW213994   2.276   5.995   4.467  1.6135  0.2913  1.3029
 3557SOL    HW313995   2.352   6.126   4.470  0.6008  0.9955 -1.2509
 3557SOL    MW413996   2.324   6.056   4.427  0.4605  0.3202 -0.1034
 3558SOL     OW13997   2.589   0.128   3.330 -0.0000 -0.1407  0.5293
 3558SOL    HW213998   2.642   0.124   3.410  0.3488  0.1412  0.3180
 3558SOL    HW313999   2.596   0.219   3.302  1.3494 -0.6248 -0.8006
 3558SOL    MW414000   2.597   0.139   3.337  0.2240 -0.1673  0.3260
 3559SOL     OW14001   1.149   2.080   2.723 -0.0130  0.1311 -0.5007
 3559SOL    HW214002   1.147   2.162   2.673  0.7306  0.2202 -0.3985
 3559SOL    HW314003   1.123   2.105   2.812 -1.1373  0.0082 -0.7894
 3559SOL    MW414004   1.146   2.094   2.728 -0.0633  0.1266 -0.5253
 3560SOL     OW14005   4.986   4.394   3.826  0.0694  0.4533 -0.0864
 3560SOL    HW214006   5.045   4.462   3.792  0.6347 -0.6876 -1.4606
 3560SOL    HW314007   5.037   4.353   3.896  0.5383  0.1147 -0.6163
 3560SOL    MW414008   5.001   4.398   3.831  0.2058  0.2581 -0.3376
 3561SOL     OW14009   5.111  -0.045   2.244 -0.1948 -0.4623 -0.1447
 3561SOL    HW214010   5.193  -0.071   2.203 -0.7095  1.6937 -2.8594
 3561SOL    HW314011   5.134   0.027   2.302 -0.1164 -0.0696 -0.6610
 3561SOL    MW414012   5.125  -0.039   2.246 -0.2524 -0.1261 -0.5710
 3562SOL     OW14013   0.932   2.703   0.341 -0.6427  0.3374 -0.2158
 3562SOL    HW214014   1.018   2.696   0.383 -0.8018 -0.1435  0.0327
 3562SOL    HW314015   0.946   2.766   0.270 -0.4628  1.4626  0.7916
 3562SOL    MW414016   0.946   2.710   0.337 -0.6400  0.4224 -0.0501
 3563SOL     OW14017   4.397   0.414   2.289  0.2282  0.3538  0.3621
 3563SOL    HW214018   4.483   0.379   2.312  0.2377 -0.3234 -0.6327
 3563SOL    HW314019   4.403   0.431   2.195 -0.3141  1.5241  0.5232
 3563SOL    MW414020   4.409   0.412   2.280  0.1579  0.4188  0.2521
 3564SOL     OW14021   4.164   4.655   1.189 -0.1974 -0.2812 -0.4073
 3564SOL    HW214022   4.094   4.591   1.180 -0.5026 -0.0463  0.2443
 3564SOL    HW314023   4.220   4.619   1.258 -0.6341  0.3755  0.3096
 3564SOL    MW414024   4.162   4.642   1.197 -0.2953 -0.1635 -0.2267
 3565SOL     OW14025   4.684  -0.016   5.038  0.1719  0.6578 -0.4775
 3565SOL    HW214026   4.737   0.063   5.057 -2.0550  2.2479 -0.4972
 3565SOL    HW314027   4.736  -0.065   4.975  2.7407  0.8487  1.3176
 3565SOL    MW414028   4.698  -0.012   5.032  0.2170  0.8928 -0.2432
 3566SOL     OW14029   0.248   0.846   2.341  0.4475  0.4048 -0.2432
 3566SOL    HW214030   0.197   0.885   2.412 -0.7926 -0.7073 -0.4760
 3566SOL    HW314031   0.203   0.875   2.261 -0.3281 -1.2037 -0.4281
 3566SOL    MW414032   0.235   0.855   2.340  0.1815  0.0459 -0.2983
 3567SOL     OW14033   5.259   1.507   1.815 -0.4855 -0.0833  0.1508
 3567SOL    HW214034   5.289   1.520   1.725 -0.4524  1.0020  0.3065
 3567SOL    HW314035   5.336   1.524   1.869 -1.0965  1.7083  0.5012
 3567SOL    MW414036   5.273   1.511   1.811 -0.5618  0.2962  0.2176
 3568SOL     OW14037   4.934   1.349   3.781  0.7506  0.2763  0.0452
 3568SOL    HW214038   4.869   1.378   3.845  0.3838  1.6506 -0.8934
 3568SOL    HW314039   5.000   1.303   3.833 -1.4049 -2.0346  0.9076
 3568SOL    MW414040   4.934   1.347   3.797  0.4178  0.1527  0.0351
 3569SOL     OW14041   2.528   3.139   2.540 -0.1397 -0.0858 -0.0123
 3569SOL    HW214042   2.516   3.230   2.568  3.1600  0.5015 -0.0413
 3569SOL    HW314043   2.455   3.091   2.579 -1.3310  2.3812  0.9640
 3569SOL    MW414044   2.517   3.145   2.549  0.1385  0.3172  0.1127
 3570SOL     OW14045   4.441   0.334   2.884  0.0010  0.4686  0.0474
 3570SOL    HW214046   4.506   0.279   2.928 -1.2158 -0.5038  0.7254
 3570SOL    HW314047   4.435   0.298   2.796  0.0235  0.2108  0.1478
 3570SOL    MW414048   4.449   0.322   2.878 -0.1566  0.3063  0.1501
 3571SOL     OW14049   2.807   0.374   6.148 -0.0550  0.2248 -0.2815
 3571SOL    HW214050   2.875   0.380   6.080  0.3200 -2.1438 -0.2296
 3571SOL    HW314051   2.828   0.444   6.209  2.5937 -0.5521 -0.1323
 3571SOL    MW414052   2.819   0.384   6.147  0.3440 -0.1902 -0.2550
 3572SOL     OW14053   4.343   6.156   1.622  0.2963 -0.4044  0.6225
 3572SOL    HW214054   4.389   6.093   1.678  1.1062  0.3597  0.8496
 3572SOL    HW314055   4.305   6.103   1.552 -0.2076 -1.3027  1.5481
 3572SOL    MW414056   4.344   6.141   1.620  0.3366 -0.4221  0.7746
 3573SOL     OW14057   4.176   3.597   1.689  0.7576 -0.2098 -0.4068
 3573SOL    HW214058   4.150   3.512   1.654 -1.3170  0.4567 -0.6127
 3573SOL    HW314059   4.220   3.577   1.771 -1.3667 -1.4407  0.5039
 3573SOL    MW414060   4.179   3.584   1.695  0.2036 -0.2842 -0.3138
 3574SOL     OW14061   2.501   4.676   1.073  0.3660  0.7201  0.2586
 3574SOL    HW214062   2.588   4.648   1.102  0.0377 -0.5481  0.0753
 3574SOL    HW314063   2.442   4.642   1.140 -0.4308 -2.4464 -1.8447
 3574SOL    MW414064   2.505   4.668   1.086  0.2175  0.1350 -0.0431
 3575SOL     OW14065   1.601   0.674   4.110 -0.1584  0.0051  0.0158
 3575SOL    HW214066   1.528   0.722   4.149 -0.2930  1.3177 -1.7008
 3575SOL    HW314067   1.569   0.585   4.100 -0.5777 -0.0502  1.6204
 3575SOL    MW414068   1.587   0.669   4.114 -0.2314  0.1710  0.0010
 3576SOL     OW14069   2.311   4.164   0.163  0.0413  0.1119 -0.5380
 3576SOL    HW214070   2.388   4.218   0.148 -0.1221  0.6457  0.4425
 3576SOL    HW314071   2.333   4.113   0.241 -0.7513  0.5792  0.0015
 3576SOL    MW414072   2.324   4.164   0.172 -0.0849  0.2440 -0.3375
 3577SOL     OW14073   2.327   0.976   1.127 -0.2288 -0.8899  0.1035
 3577SOL    HW214074   2.379   1.056   1.116 -0.9878 -0.0907  1.8756
 3577SOL    HW314075   2.393   0.906   1.134  0.5660 -0.1023  0.7822
 3577SOL    MW414076   2.343   0.977   1.127 -0.2241 -0.6805  0.4269
 3578SOL     OW14077   3.598   3.153   6.064 -0.6316  0.4128 -0.2065
 3578SOL    HW214078   3.686   3.174   6.097 -0.6451  0.4259 -0.1789
 3578SOL    HW314079   3.613   3.085   5.998 -0.5555  0.7291 -0.5210
 3578SOL    MW414080   3.612   3.147   6.060 -0.6234  0.4563 -0.2444
 3579SOL     OW14081   4.120   4.557   4.456  0.0064  0.2989 -0.3780
 3579SOL    HW214082   4.130   4.538   4.549 -0.8164  1.2474 -0.0724
 3579SOL    HW314083   4.028   4.579   4.446 -0.1234 -0.6979 -1.6064
 3579SOL    MW414084   4.109   4.558   4.467 -0.1193  0.2925 -0.4998
 3580SOL     OW14085   2.132   4.549   3.845  0.0733 -0.0287 -0.4388
 3580SOL    HW214086   2.114   4.465   3.887 -1.8821  0.6149  0.1323
 3580SOL    HW314087   2.213   4.580   3.886 -0.6271 -0.4196  1.2950
 3580SOL    MW414088   2.140   4.542   3.856 -0.2771  0.0046 -0.1347
 3581SOL     OW14089   2.226   1.537   2.486 -0.6791 -0.1143  0.2477
 3581SOL    HW214090   2.241   1.480   2.561 -1.6673  0.3340  0.8008
 3581SOL    HW314091   2.151   1.498   2.441 -1.8429  1.1307  1.0474
 3581SOL    MW414092   2.218   1.524   2.490 -0.9630  0.1091  0.4262
 3582SOL     OW14093   5.674   0.973   2.778 -0.0443 -0.1257  0.1729
 3582SOL    HW214094   5.662   0.948   2.686 -0.0043 -0.6531  0.3072
 3582SOL    HW314095   5.744   1.038   2.776 -1.4822  1.4822 -0.3938
 3582SOL    MW414096   5.682   0.979   2.766 -0.2287  0.0168  0.1159
 3583SOL     OW14097   3.772   3.535   6.177 -0.4305  0.1682  0.6549
 3583SOL    HW214098   3.693   3.499   6.137 -0.1624 -0.1046  0.3678
 3583SOL    HW314099   3.816   3.583   6.106  0.0837 -0.3816  0.5979
 3583SOL    MW414100   3.768   3.537   6.163 -0.3273  0.0597  0.6095
 3584SOL     OW14101   1.305   4.976   4.803 -0.5961  0.0327  0.1467
 3584SOL    HW214102   1.341   4.957   4.717  0.9235 -0.4478  0.8557
 3584SOL    HW314103   1.291   4.890   4.843 -2.2104  0.2111  0.0609
 3584SOL    MW414104   1.308   4.962   4.797 -0.6086 -0.0072  0.2289
 3585SOL     OW14105   0.182   1.477   4.785  0.3206 -0.1065  0.3809
 3585SOL    HW214106   0.149   1.518   4.706 -0.0243  0.4127  0.7846
 3585SOL    HW314107   0.159   1.385   4.777 -1.7339  0.3190  0.8963
 3585SOL    MW414108   0.175   1.470   4.774  0.0040  0.0181  0.5022
 3586SOL     OW14109   6.322   4.218   1.664  0.8594 -0.4164 -0.4195
 3586SOL    HW214110   6.237   4.244   1.630  1.5550 -0.2080 -2.0915
 3586SOL    HW314111   6.374   4.298   1.663  1.7110 -0.9496 -1.5222
 3586SOL    MW414112   6.318   4.232   1.659  1.0635 -0.4593 -0.7856
 3587SOL     OW14113   4.298   3.382   1.285  1.0590  0.1854 -0.0711
 3587SOL    HW214114   4.341   3.330   1.217  0.5386 -0.2105 -0.1050
 3587SOL    HW314115   4.324   3.340   1.367 -0.3637 -0.9444 -0.1461
 3587SOL    MW414116   4.307   3.369   1.287  0.8026 -0.0159 -0.0854
 3588SOL     OW14117   4.918   1.360   1.152  0.0438 -0.1655 -0.0921
 3588SOL    HW214118   4.871   1.358   1.069 -0.8249 -3.2224  0.3494
 3588SOL    HW314119   4.861   1.411   1.210 -0.0293  0.7788 -0.9566
 3588SOL    MW414120   4.904   1.367   1.149 -0.0805 -0.4442 -0.1479
 3589SOL     OW14121   6.378   4.662   4.430  0.1805  0.4177  0.2793
 3589SOL    HW214122   6.397   4.572   4.455 -0.6869  0.0091 -0.4991
 3589SOL    HW314123   6.437   4.715   4.484  0.7398 -0.6126  0.6926
 3589SOL    MW414124   6.388   4.657   4.441  0.1398  0.2279  0.2311
 3590SOL     OW14125   1.115   0.166   2.750 -0.2555  0.0089  0.6110
 3590SOL    HW214126   1.168   0.087   2.759 -0.3264 -0.0841  0.2100
 3590SOL    HW314127   1.025   0.134   2.743 -0.1477  0.0078 -1.3100
 3590SOL    MW414128   1.110   0.151   2.750 -0.2506 -0.0035  0.3047
 3591SOL     OW14129   4.208   3.769   0.754  0.5022 -0.2803  0.2565
 3591SOL    HW214130   4.266   3.795   0.683 -0.0055 -0.6294 -0.2923
 3591SOL    HW314131   4.121   3.800   0.727  0.2010 -0.9635  0.4243
 3591SOL    MW414132   4.204   3.776   0.741  0.3955 -0.4165  0.2062
 3592SOL     OW14133   1.193   5.748   6.321  0.2320  0.2477  0.2319
 3592SOL    HW214134   1.154   5.741   6.408  2.1181 -3.2367  0.9855
 3592SOL    HW314135   1.127   5.711   6.263  0.4420 -1.0938  0.8059
 3592SOL    MW414136   1.179   5.742   6.325  0.5086 -0.3890  0.4071
 3593SOL     OW14137   5.407   1.680   5.164 -0.6158  0.2243 -0.0014
 3593SOL    HW214138   5.395   1.774   5.154 -0.2542  0.2392 -0.3376
 3593SOL    HW314139   5.476   1.658   5.102  0.6064  0.0436  1.3452
 3593SOL    MW414140   5.415   1.690   5.155 -0.4068  0.2024  0.1319
 3594SOL     OW14141   3.795   1.151   0.149  0.0651  0.1273  0.0934
 3594SOL    HW214142   3.734   1.080   0.169 -1.0204  0.1812 -2.5448
 3594SOL    HW314143   3.739   1.228   0.140  0.2072 -0.0256 -3.4677
 3594SOL    MW414144   3.780   1.152   0.150 -0.0594  0.1142 -0.7245
 3595SOL     OW14145   2.901   3.868   2.369  0.2747 -0.1538 -0.0497
 3595SOL    HW214146   2.981   3.816   2.367  1.2368  1.3015 -0.7935
 3595SOL    HW314147   2.922   3.947   2.319 -1.1854  0.8852  0.8944
 3595SOL    MW414148   2.914   3.872   2.362  0.2090  0.1753 -0.0233
 3596SOL     OW14149   5.012   5.512   3.149 -0.3103 -0.6264  0.0788
 3596SOL    HW214150   5.041   5.441   3.093  0.0642 -0.9335  0.6494
 3596SOL    HW314151   4.937   5.550   3.104 -0.3085 -1.1749 -0.3883
 3596SOL    MW414152   5.005   5.508   3.136 -0.2607 -0.7393  0.0925
 3597SOL     OW14153   4.408   2.566   3.189  0.6559 -0.0455  0.3503
 3597SOL    HW214154   4.469   2.638   3.170  0.7691 -0.0090  0.8375
 3597SOL    HW314155   4.435   2.534   3.275 -1.8673  1.9190  2.0140
 3597SOL    MW414156   4.420   2.571   3.198  0.3379  0.2185  0.6341
 3598SOL     OW14157   5.462   0.445   5.479 -0.4011  0.2837 -0.2436
 3598SOL    HW214158   5.436   0.529   5.441 -0.6818  1.6845  2.7712
 3598SOL    HW314159   5.380   0.404   5.505 -0.1746 -0.2077 -0.3057
 3598SOL    MW414160   5.448   0.451   5.478 -0.4082  0.4037  0.1460
 3599SOL     OW14161   4.587   3.017   0.254  0.1145 -0.1230  0.1572
 3599SOL    HW214162   4.541   3.099   0.235 -1.2266 -0.5945  1.1991
 3599SOL    HW314163   4.567   2.999   0.346  4.0108  0.6300  1.3277
 3599SOL    MW414164   4.578   3.025   0.264  0.4516 -0.0859  0.4491
 3600SOL     OW14165   3.214   2.154   2.935 -0.3730  0.0839 -0.1136
 3600SOL    HW214166   3.125   2.166   2.903  0.3787  0.2802 -2.2741
 3600SOL    HW314167   3.262   2.230   2.903  1.2069 -1.4198 -1.5162
 3600SOL    MW414168   3.209   2.165   2.927 -0.0654 -0.0886 -0.5837
 3601SOL     OW14169   6.409   3.066   0.244  0.3961 -0.2498 -0.2335
 3601SOL    HW214170   6.389   2.996   0.182  2.3700  0.6418 -1.9881
 3601SOL    HW314171   6.486   3.035   0.292  1.8457  0.9850 -1.6479
 3601SOL    MW414172   6.416   3.053   0.242  0.8478  0.0308 -0.6516
 3602SOL     OW14173   0.207   5.878   5.026 -0.1848 -0.3379  0.1474
 3602SOL    HW214174   0.118   5.912   5.015  0.2812  0.8063 -0.2748
 3602SOL    HW314175   0.242   5.874   4.937  0.1730 -0.8220  0.3067
 3602SOL    MW414176   0.200   5.882   5.013 -0.0761 -0.2508  0.1127
 3603SOL     OW14177   5.179   4.137   5.284  0.0155  0.0541 -0.5021
 3603SOL    HW214178   5.182   4.140   5.379  2.4511  1.7241 -0.5443
 3603SOL    HW314179   5.095   4.177   5.261 -0.9452 -1.0638  0.9171
 3603SOL    MW414180   5.168   4.143   5.293  0.2101  0.1269 -0.3204
 3604SOL     OW14181   5.289   3.651   6.247  0.2138 -0.1853  0.0448
 3604SOL    HW214182   5.298   3.745   6.266 -0.4918  0.2178 -1.4697
 3604SOL    HW314183   5.379   3.621   6.234  0.4679  0.2102  0.7900
 3604SOL    MW414184   5.302   3.659   6.248  0.1542 -0.0799 -0.0567
 3605SOL     OW14185   3.432   1.195   1.393 -0.8477 -0.1228 -0.1277
 3605SOL    HW214186   3.389   1.261   1.447 -0.4100  1.2544 -1.3785
 3605SOL    HW314187   3.500   1.244   1.346 -0.6406 -1.4281 -1.2528
 3605SOL    MW414188   3.435   1.210   1.394 -0.7626 -0.1133 -0.4412
 3606SOL     OW14189   0.520   5.630   5.978 -0.2904  0.1683 -0.2771
 3606SOL    HW214190   0.587   5.621   6.046 -0.1023  1.9370 -0.1795
 3606SOL    HW314191   0.469   5.549   5.984 -0.0204  0.0833  1.6854
 3606SOL    MW414192   0.522   5.618   5.988 -0.2299  0.3905 -0.0053
 3607SOL     OW14193   0.073   5.735   1.384  0.3101 -0.3365  0.0696
 3607SOL    HW214194  -0.015   5.770   1.367  0.3680 -0.5554 -0.7263
 3607SOL    HW314195   0.095   5.766   1.472 -0.4684 -0.0838  0.1810
 3607SOL    MW414196   0.064   5.744   1.393  0.2150 -0.3320 -0.0207
 3608SOL     OW14197   3.199   5.329   6.338 -0.4025  0.0164  0.4200
 3608SOL    HW214198   3.218   5.318   6.431 -1.2473  3.0282  1.0777
 3608SOL    HW314199   3.255   5.402   6.311  1.5036 -2.2398 -2.1013
 3608SOL    MW414200   3.209   5.337   6.347 -0.2625  0.1161  0.1741
 3609SOL     OW14201   5.824   5.932   5.699 -0.3461 -0.0627 -0.6055
 3609SOL    HW214202   5.737   5.925   5.738 -0.4573 -1.8567 -1.0739
 3609SOL    HW314203   5.818   6.007   5.640 -0.2711  2.5330  2.3950
 3609SOL    MW414204   5.812   5.941   5.696 -0.3509  0.0431 -0.2714
 3610SOL     OW14205   2.174   5.521   0.156  0.0489 -0.3173  0.2936
 3610SOL    HW214206   2.102   5.551   0.211  1.1191  1.7844  0.6670
 3610SOL    HW314207   2.168   5.575   0.077  1.5510  0.3542  0.6057
 3610SOL    MW414208   2.164   5.532   0.152  0.3883  0.0486  0.3840
 3611SOL     OW14209   6.285   1.618   1.424  0.3887  0.0830  0.3282
 3611SOL    HW214210   6.285   1.586   1.334 -0.1925  2.1341 -0.4676
 3611SOL    HW314211   6.221   1.563   1.470 -1.0925  0.4995 -1.1421
 3611SOL    MW414212   6.277   1.606   1.418  0.1166  0.4086  0.0292
 3612SOL     OW14213   5.304   5.316   1.681 -0.4524  0.0971  0.0098
 3612SOL    HW214214   5.397   5.319   1.660 -0.6386  0.1833 -0.8542
 3612SOL    HW314215   5.300   5.327   1.776  0.4087  0.2116  0.0399
 3612SOL    MW414216   5.316   5.318   1.691 -0.3633  0.1236 -0.1002
 3613SOL     OW14217   4.305   1.275   5.901  0.7323  0.1660  0.9097
 3613SOL    HW214218   4.389   1.231   5.884 -0.7346 -1.9061 -1.7360
 3613SOL    HW314219   4.304   1.349   5.841 -0.0267 -0.8506 -0.3565
 3613SOL    MW414220   4.316   1.279   5.891  0.4386 -0.2415  0.3936
 3614SOL     OW14221   1.747   6.219   0.471 -0.0260  0.5256  0.7111
 3614SOL    HW214222   1.690   6.296   0.474  0.4729  0.8923  0.8109
 3614SOL    HW314223   1.699   6.157   0.415 -2.2190 -0.5558  3.5610
 3614SOL    MW414224   1.733   6.221   0.464 -0.2495  0.4313  1.1003
 3615SOL     OW14225   5.689   0.843   2.541  0.2351  0.0844  0.4279
 3615SOL    HW214226   5.628   0.880   2.477 -0.4377  1.0501  1.5693
 3615SOL    HW314227   5.640   0.772   2.582  0.5428 -0.3168  0.1020
 3615SOL    MW414228   5.674   0.838   2.538  0.1869  0.1589  0.5355
 3616SOL     OW14229   0.435   5.882   6.041 -0.6261 -0.1745 -0.7225
 3616SOL    HW214230   0.372   5.872   6.113 -0.6904  0.5918 -0.6674
 3616SOL    HW314231   0.437   5.796   5.999 -0.4246 -0.7047  0.3287
 3616SOL    MW414232   0.427   5.869   6.045 -0.6080 -0.1434 -0.5766
 3617SOL     OW14233   0.472   4.478   1.125 -1.0282  0.6780  0.2636
 3617SOL    HW214234   0.534   4.451   1.057 -1.0788 -1.1480  0.8704
 3617SOL    HW314235   0.437   4.561   1.094  0.3282  0.8226 -1.0147
 3617SOL    MW414236   0.476   4.485   1.112 -0.8559  0.4561  0.1750
 3618SOL     OW14237   1.677   1.991   1.038 -0.3692 -0.5283 -0.0545
 3618SOL    HW214238   1.628   1.938   1.100 -2.7027  0.7004 -0.7151
 3618SOL    HW314239   1.611   2.027   0.978  1.3737  1.0106 -1.2146
 3618SOL    MW414240   1.662   1.989   1.038 -0.4471 -0.1632 -0.2947
 3619SOL     OW14241   0.217   2.442   2.442  0.3593 -0.1495 -0.0984
 3619SOL    HW214242   0.127   2.412   2.429  0.6178 -1.6182  1.1905
 3619SOL    HW314243   0.209   2.534   2.467 -0.8300 -0.3958  0.4983
 3619SOL    MW414244   0.204   2.450   2.444  0.2365 -0.3758  0.1504
 3620SOL     OW14245   0.915   5.166   3.542 -0.5253  0.6268 -0.2497
 3620SOL    HW214246   0.839   5.143   3.595  1.1477 -0.4460  1.8638
 3620SOL    HW314247   0.964   5.229   3.596  0.0159  1.4577 -1.6449
 3620SOL    MW414248   0.912   5.172   3.556 -0.2331  0.5949 -0.1549
 3621SOL     OW14249   0.862   3.536   2.383 -0.1184 -0.2813 -0.7136
 3621SOL    HW214250   0.818   3.453   2.369 -1.8315  0.6606 -1.2938
 3621SOL    HW314251   0.807   3.581   2.448  0.9016  0.3183 -0.2351
 3621SOL    MW414252   0.849   3.531   2.390 -0.2098 -0.0779 -0.7270
 3622SOL     OW14253   4.754   4.074   2.663  0.1040 -0.0211  0.2789
 3622SOL    HW214254   4.789   4.017   2.731 -0.6289 -1.6925 -0.6971
 3622SOL    HW314255   4.671   4.106   2.700 -0.5787 -1.3834 -0.0183
 3622SOL    MW414256   4.747   4.071   2.677 -0.0828 -0.4214  0.1109
 3623SOL     OW14257   6.335   0.818   5.120 -0.1483 -0.0820 -0.1272
 3623SOL    HW214258   6.332   0.770   5.037 -2.4491 -0.9931  0.3987
 3623SOL    HW314259   6.385   0.762   5.179 -0.5343 -0.5806 -0.2661
 3623SOL    MW414260   6.341   0.804   5.117 -0.5028 -0.2680 -0.0761
 3624SOL     OW14261   5.871   3.902   4.863 -0.3389  0.0476  0.0360
 3624SOL    HW214262   5.799   3.840   4.872 -0.1717 -0.3567 -1.2089
 3624SOL    HW314263   5.949   3.848   4.861 -0.1812  0.2862 -0.8867
 3624SOL    MW414264   5.871   3.887   4.864 -0.2960  0.0258 -0.2500
 3625SOL     OW14265   4.237   4.924   1.120 -0.1491 -0.3894  0.0680
 3625SOL    HW214266   4.230   4.830   1.138  1.3197 -0.3616  0.9737
 3625SOL    HW314267   4.197   4.966   1.196 -0.3476 -0.2801 -0.0969
 3625SOL    MW414268   4.231   4.917   1.133  0.0185 -0.3713  0.1657
 3626SOL     OW14269   0.087   4.478   2.822 -0.3682 -0.2562  0.1839
 3626SOL    HW214270   0.100   4.528   2.902 -0.5233  0.2517 -0.1035
 3626SOL    HW314271   0.125   4.533   2.753  0.9879 -1.2731  0.0708
 3626SOL    MW414272   0.094   4.492   2.823 -0.2098 -0.3234  0.1310
 3627SOL     OW14273   0.456   3.544   1.475  0.1368  0.0378 -0.1440
 3627SOL    HW214274   0.543   3.504   1.475 -0.0399 -0.3581  0.0507
 3627SOL    HW314275   0.436   3.557   1.568  0.1549  0.4986 -0.2033
 3627SOL    MW414276   0.465   3.541   1.488  0.1158  0.0464 -0.1262
 3628SOL     OW14277   0.142   5.087   4.622 -0.4106  0.2737  0.0938
 3628SOL    HW214278   0.230   5.056   4.646 -0.3707  1.0656  1.0599
 3628SOL    HW314279   0.153   5.181   4.609 -1.3067  0.5867  1.3718
 3628SOL    MW414280   0.155   5.095   4.624 -0.5236  0.4194  0.3899
 3629SOL     OW14281   1.101   2.569   3.066  0.2845 -0.2863 -0.4658
 3629SOL    HW214282   1.164   2.516   3.019 -1.0618 -2.7237  0.2917
 3629SOL    HW314283   1.143   2.589   3.150  0.5246 -0.8292 -0.4568
 3629SOL    MW414284   1.115   2.565   3.071  0.1385 -0.6795 -0.3647
 3630SOL     OW14285   4.532   0.153   6.399 -0.7186  0.4637  0.0874
 3630SOL    HW214286   4.464   0.147   6.332 -2.4184  1.4968  1.6221
 3630SOL    HW314287   4.522   0.241   6.436  1.4935  0.6599  0.3691
 3630SOL    MW414288   4.521   0.164   6.395 -0.6510  0.6259  0.3270
 3631SOL     OW14289   1.734   0.506   5.055 -0.1736 -0.0958  0.1216
 3631SOL    HW214290   1.670   0.545   4.995  1.8987  1.4911 -1.1723
 3631SOL    HW314291   1.773   0.580   5.101  0.4416 -1.0710  1.2207
 3631SOL    MW414292   1.731   0.521   5.053  0.1809 -0.0151  0.0959
 3632SOL     OW14293   2.792   2.861   3.987  1.0489  0.0248  0.0465
 3632SOL    HW214294   2.858   2.890   3.924  0.2134 -2.2361 -2.0602
 3632SOL    HW314295   2.784   2.933   4.049  2.7660  1.9287 -1.7932
 3632SOL    MW414296   2.800   2.874   3.987  1.1652 -0.0223 -0.4742
 3633SOL     OW14297   0.333   5.415   1.755  0.5962 -0.3935 -0.2279
 3633SOL    HW214298   0.359   5.327   1.731 -0.0975 -1.0438  1.2468
 3633SOL    HW314299   0.401   5.472   1.720  0.7015 -1.4410 -1.7686
 3633SOL    MW414300   0.345   5.411   1.747  0.5185 -0.6175 -0.2366
 3634SOL     OW14301   4.017   1.235   2.574 -0.5416 -0.7563  0.1463
 3634SOL    HW214302   3.949   1.297   2.598 -0.0052 -0.9772  2.5007
 3634SOL    HW314303   4.024   1.177   2.650  1.8896 -1.0319 -0.2041
 3634SOL    MW414304   4.009   1.236   2.587 -0.1501 -0.8218  0.4107
 3635SOL     OW14305   0.678   6.133   1.580  0.0347 -0.2261 -0.0705
 3635SOL    HW214306   0.654   6.054   1.629  2.3070 -0.8829  0.0723
 3635SOL    HW314307   0.757   6.110   1.533  1.9423  2.5023  1.4882
 3635SOL    MW414308   0.685   6.120   1.580  0.5862  0.0472  0.1540
 3636SOL     OW14309   2.245   0.587   1.135  0.5459 -0.2961 -0.1726
 3636SOL    HW214310   2.310   0.650   1.165  0.5924  1.4013 -3.4361
 3636SOL    HW314311   2.276   0.559   1.049 -0.6846 -3.0843  0.1830
 3636SOL    MW414312   2.257   0.591   1.128  0.3897 -0.4400 -0.5563
 3637SOL     OW14313   4.893   1.263   5.582 -0.0983 -0.0101  0.2398
 3637SOL    HW214314   4.866   1.201   5.649 -1.1359  0.4540  0.2632
 3637SOL    HW314315   4.959   1.317   5.624 -1.2415  0.7340  1.1369
 3637SOL    MW414316   4.898   1.262   5.596 -0.3860  0.1493  0.3613
 3638SOL     OW14317   4.418   4.121   5.326 -0.3128  0.2539  0.0077
 3638SOL    HW214318   4.332   4.122   5.284 -0.4913 -0.8089  0.3346
 3638SOL    HW314319   4.442   4.213   5.331 -1.7724  0.6442  0.5970
 3638SOL    MW414320   4.410   4.133   5.321 -0.5289  0.1652  0.1286
 3639SOL     OW14321   3.437   2.804   1.850 -0.0022  0.1727 -0.1683
 3639SOL    HW214322   3.503   2.763   1.794  0.8166  0.5148  0.5197
 3639SOL    HW314323   3.477   2.807   1.937 -0.8070  0.6674  0.2051
 3639SOL    MW414324   3.451   2.799   1.854 -0.0003  0.2831 -0.0283
 3640SOL     OW14325   2.467   6.161   0.804  0.0867 -0.1504 -0.4629
 3640SOL    HW214326   2.530   6.226   0.835  0.8812 -1.0114 -0.2442
 3640SOL    HW314327   2.382   6.199   0.826  0.4993  1.1248 -0.9444
 3640SOL    MW414328   2.464   6.175   0.811  0.2460 -0.0958 -0.4975
 3641SOL     OW14329   2.619   4.207   1.537  0.7637 -0.2998 -0.5747
 3641SOL    HW214330   2.591   4.143   1.602  3.1164  0.8574  1.7783
 3641SOL    HW314331   2.700   4.172   1.502  3.3172  2.0886  2.3360
 3641SOL    MW414332   2.626   4.194   1.541  1.4110  0.1680  0.1198
 3642SOL     OW14333   4.547   1.538   4.350  0.2710  0.1894  0.3754
 3642SOL    HW214334   4.481   1.606   4.367 -1.4229 -1.1559 -0.4852
 3642SOL    HW314335   4.499   1.456   4.355  1.5750 -0.7861 -1.6059
 3642SOL    MW414336   4.532   1.536   4.353  0.2195 -0.1168  0.0005
 3643SOL     OW14337   0.051   1.780   0.639 -0.1909 -0.0613  0.8508
 3643SOL    HW214338   0.104   1.743   0.709  2.2509 -0.8694 -1.2687
 3643SOL    HW314339   0.111   1.838   0.592 -1.9678  1.0811 -0.1254
 3643SOL    MW414340   0.066   1.783   0.642 -0.1032 -0.0172  0.4424
 3644SOL     OW14341   3.183   5.945   3.496  0.4211 -0.4210  0.0640
 3644SOL    HW214342   3.162   6.034   3.524  3.2886  0.4855 -0.3742
 3644SOL    HW314343   3.162   5.943   3.403  1.2351  0.1358 -0.1404
 3644SOL    MW414344   3.177   5.956   3.488  0.9068 -0.2279 -0.0208
 3645SOL     OW14345   4.065   1.846   5.195 -0.4307  0.2267 -0.6344
 3645SOL    HW214346   4.149   1.868   5.237  0.2936 -0.9659 -1.3923
 3645SOL    HW314347   4.025   1.931   5.177  0.4079  0.8142  0.1410
 3645SOL    MW414348   4.071   1.860   5.199 -0.2245  0.1469 -0.6321
 3646SOL     OW14349   2.724   2.820   0.801  0.3496  0.2638  0.3940
 3646SOL    HW214350   2.790   2.751   0.809 -0.2673 -0.7563 -2.1684
 3646SOL    HW314351   2.773   2.894   0.764  0.6840  0.6642  1.6052
 3646SOL    MW414352   2.739   2.821   0.797  0.3123  0.1820  0.2157
 3647SOL     OW14353   0.876   3.466   3.935 -0.5301  0.5173  0.1385
 3647SOL    HW214354   0.958   3.417   3.927 -0.5330  0.6726 -1.0403
 3647SOL    HW314355   0.821   3.411   3.991  0.4636  0.5553  1.1838
 3647SOL    MW414356   0.879   3.452   3.941 -0.3994  0.5428  0.1209
 3648SOL     OW14357   6.342   0.561   0.409 -0.2149 -0.4242  0.3047
 3648SOL    HW214358   6.327   0.467   0.422 -0.5904 -0.7106 -1.9380
 3648SOL    HW314359   6.257   0.602   0.426 -0.5315 -0.7154 -0.5349
 3648SOL    MW414360   6.329   0.554   0.413 -0.3062 -0.5004 -0.1020
 3649SOL     OW14361   0.957   3.415   3.339  0.2885 -0.0766  0.1025
 3649SOL    HW214362   0.921   3.496   3.303  0.8950  0.2919  0.3029
 3649SOL    HW314363   0.881   3.362   3.361 -0.1661  1.0472  1.3609
 3649SOL    MW414364   0.942   3.419   3.337  0.3086  0.1203  0.2950
 3650SOL     OW14365   5.903   2.946   5.429  0.1381 -0.2073 -0.1840
 3650SOL    HW214366   5.902   2.852   5.415 -0.3412 -0.5089  1.6476
 3650SOL    HW314367   5.995   2.971   5.421  0.4648 -1.0740  0.6784
 3650SOL    MW414368   5.915   2.937   5.426  0.1180 -0.3614  0.1715
 3651SOL     OW14369   5.994   4.741   6.008  0.0021  0.6742 -0.4695
 3651SOL    HW214370   5.937   4.685   6.061  0.5351  1.7085  1.2957
 3651SOL    HW314371   5.935   4.792   5.954 -0.5221 -1.0856 -1.6362
 3651SOL    MW414372   5.979   4.740   6.008  0.0033  0.5784 -0.3906
 3652SOL     OW14373   2.684   1.482   2.568 -0.1321 -0.0025  0.3099
 3652SOL    HW214374   2.652   1.441   2.488  0.2073  0.1713  0.0776
 3652SOL    HW314375   2.724   1.411   2.618  0.2604  0.0042  0.0099
 3652SOL    MW414376   2.685   1.467   2.564 -0.0355  0.0213  0.2396
 3653SOL     OW14377   3.821   4.567   1.441  0.1266  0.0386  0.1398
 3653SOL    HW214378   3.788   4.518   1.366 -0.9520  0.3635  0.3821
 3653SOL    HW314379   3.748   4.569   1.503  0.6379  0.6936  0.7489
 3653SOL    MW414380   3.807   4.561   1.440  0.0518  0.1679  0.2521
 3654SOL     OW14381   0.307   2.942   4.764  0.5291 -0.0116 -0.0547
 3654SOL    HW214382   0.296   3.033   4.793 -3.0443 -0.9469  2.1534
 3654SOL    HW314383   0.220   2.915   4.737  0.8382 -3.5128  1.9005
 3654SOL    MW414384   0.294   2.951   4.765  0.0984 -0.5970  0.4946
 3655SOL     OW14385   1.070   2.932   0.122 -0.7755 -0.4563 -0.3145
 3655SOL    HW214386   1.112   2.876   0.058  0.4573  0.0411  0.0306
 3655SOL    HW314387   1.095   3.021   0.097 -0.7104 -0.2219  0.5402
 3655SOL    MW414388   1.079   2.937   0.110 -0.6042 -0.3598 -0.1562
 3656SOL     OW14389   4.751   4.188   2.997 -0.0410 -0.0386  0.2071
 3656SOL    HW214390   4.686   4.242   2.952 -0.8201 -0.6267  0.5813
 3656SOL    HW314391   4.826   4.245   3.011 -0.8308  0.9326  0.5659
 3656SOL    MW414392   4.752   4.202   2.993 -0.2480  0.0119  0.3038
 3657SOL     OW14393   5.764   5.206   6.219 -0.8578 -0.1848  0.2087
 3657SOL    HW214394   5.787   5.137   6.281 -0.2711  0.6170  0.9042
 3657SOL    HW314395   5.681   5.240   6.250  1.3031  3.0672  3.2026
 3657SOL    MW414396   5.756   5.201   6.231 -0.4953  0.3501  0.6955
 3658SOL     OW14397   5.507   6.021   3.173  1.1503  0.1223 -0.0589
 3658SOL    HW214398   5.574   6.085   3.199  0.6627  0.9506 -0.7762
 3658SOL    HW314399   5.556   5.943   3.147  1.8878  0.8920 -1.0685
 3658SOL    MW414400   5.522   6.019   3.173  1.1833  0.3331 -0.2868
 3659SOL     OW14401   1.093   5.335   0.186  0.3634 -0.1336 -0.8634
 3659SOL    HW214402   1.164   5.388   0.148 -0.5600  1.9659  0.1818
 3659SOL    HW314403   1.031   5.324   0.114  0.1612  0.9976 -0.8862
 3659SOL    MW414404   1.094   5.341   0.171  0.2149  0.2927 -0.7285
 3660SOL     OW14405   5.069   6.102   0.823 -0.4964 -0.6165  0.3741
 3660SOL    HW214406   5.069   6.178   0.766 -1.2533 -0.3935  0.6589
 3660SOL    HW314407   4.978   6.072   0.824 -0.0031 -2.2504 -0.6819
 3660SOL    MW414408   5.057   6.108   0.816 -0.5312 -0.8026  0.2723
 3661SOL     OW14409   3.772   2.184   2.653 -0.2813 -0.0535  0.4056
 3661SOL    HW214410   3.723   2.163   2.573 -0.4133  1.2856  0.1233
 3661SOL    HW314411   3.722   2.142   2.723 -1.5649  0.8400  0.0637
 3661SOL    MW414412   3.759   2.175   2.651 -0.4681  0.2410  0.3232
 3662SOL     OW14413   2.614   4.846   1.677 -0.3891 -0.4823  0.5205
 3662SOL    HW214414   2.667   4.798   1.742 -3.0390 -1.3829  2.1819
 3662SOL    HW314415   2.558   4.904   1.730 -2.9240 -1.5157 -0.8544
 3662SOL    MW414416   2.614   4.847   1.693 -1.0732 -0.7375  0.5583
 3663SOL     OW14417   6.068   5.379   3.171  0.5202  0.4241  0.2746
 3663SOL    HW214418   6.125   5.435   3.118 -1.0439  0.3301 -1.6313
 3663SOL    HW314419   5.998   5.437   3.200 -0.8850 -0.3547 -1.3607
 3663SOL    MW414420   6.066   5.394   3.168  0.1284  0.3090 -0.1926
 3664SOL     OW14421   2.396   0.720   2.161  0.5040 -0.0957  0.0216
 3664SOL    HW214422   2.472   0.771   2.133 -0.7861  1.5513 -0.6484
 3664SOL    HW314423   2.375   0.664   2.086  1.1711 -0.7430  0.3009
 3664SOL    MW414424   2.404   0.719   2.148  0.4218  0.0362 -0.0299
 3665SOL     OW14425   0.733   3.004   4.125 -0.0429  0.1555 -0.4634
 3665SOL    HW214426   0.767   3.070   4.185 -2.6457  1.3309 -0.1297
 3665SOL    HW314427   0.642   3.031   4.109 -0.1150 -1.3517 -3.2026
 3665SOL    MW414428   0.726   3.016   4.131 -0.3958  0.1118 -0.7808
 3666SOL     OW14429   3.381   0.947   0.142  0.6114 -0.2911 -0.7574
 3666SOL    HW214430   3.324   1.024   0.132 -0.0509 -0.6684  0.0346
 3666SOL    HW314431   3.436   0.948   0.063  2.1600  2.2584  0.2408
 3666SOL    MW414432   3.381   0.958   0.130  0.7284 -0.0045 -0.5212
 3667SOL     OW14433   2.414   3.054   5.244  0.1308 -0.4049  0.1207
 3667SOL    HW214434   2.327   3.083   5.273 -1.1249 -2.5350 -1.2133
 3667SOL    HW314435   2.446   3.126   5.189 -1.2952 -0.0036 -0.2396
 3667SOL    MW414436   2.407   3.067   5.240 -0.2230 -0.6330 -0.1028
 3668SOL     OW14437   2.422   1.394   5.875  0.1367  0.1946 -0.0812
 3668SOL    HW214438   2.416   1.490   5.878 -2.3624  0.0902  1.3895
 3668SOL    HW314439   2.422   1.367   5.966 -1.7262 -1.2551 -0.4442
 3668SOL    MW414440   2.421   1.403   5.887 -0.4388 -0.0105  0.0650
 3669SOL     OW14441   0.245   5.665   0.266  0.0008 -0.0228 -0.5457
 3669SOL    HW214442   0.198   5.726   0.208 -0.5395 -0.3423 -0.4523
 3669SOL    HW314443   0.282   5.600   0.207 -0.5254 -0.3322 -0.5441
 3669SOL    MW414444   0.244   5.664   0.251 -0.1399 -0.1058 -0.5332
 3670SOL     OW14445   2.070   0.988   4.346 -0.8183 -0.2769 -0.1284
 3670SOL    HW214446   2.136   0.967   4.280 -1.2342 -0.2644 -0.5521
 3670SOL    HW314447   2.067   1.083   4.347 -0.0790 -0.2545  0.6480
 3670SOL    MW414448   2.079   0.998   4.337 -0.7757 -0.2723 -0.0819
 3671SOL     OW14449   3.138   2.991   3.575 -0.0790  0.0336 -0.2478
 3671SOL    HW214450   3.222   2.946   3.568  0.3270  0.8573 -1.0280
 3671SOL    HW314451   3.079   2.942   3.518 -0.1804 -0.6450  0.4329
 3671SOL    MW414452   3.141   2.979   3.566 -0.0388  0.0528 -0.2609
 3672SOL     OW14453   5.502   2.204   0.697 -0.6440  0.0928 -0.0444
 3672SOL    HW214454   5.441   2.222   0.768  0.0300 -0.0745  0.5829
 3672SOL    HW314455   5.577   2.260   0.715  0.9230 -2.2665  1.2030
 3672SOL    MW414456   5.504   2.214   0.708 -0.3483 -0.2405  0.2029
 3673SOL     OW14457   5.705   0.554   0.979  0.3198  0.4914  0.4970
 3673SOL    HW214458   5.714   0.520   1.068  0.8947  2.4576  1.2318
 3673SOL    HW314459   5.633   0.617   0.985  0.9666  1.3195 -0.1913
 3673SOL    MW414460   5.696   0.558   0.992  0.4810  0.8601  0.5032
 3674SOL     OW14461   4.442   0.001   5.963 -0.0667 -0.5599  0.2393
 3674SOL    HW214462   4.421  -0.092   5.976  0.1834 -0.4600  1.5760
 3674SOL    HW314463   4.527   0.001   5.920  0.4639 -0.9793  1.2310
 3674SOL    MW414464   4.450  -0.011   5.959  0.0363 -0.6020  0.5465
 3675SOL     OW14465   3.901   2.041   4.419  0.0622  0.4512  0.3469
 3675SOL    HW214466   3.923   1.962   4.369 -1.8268  1.7137 -2.7351
 3675SOL    HW314467   3.957   2.109   4.382 -2.7608  1.8550 -1.6680
 3675SOL    MW414468   3.912   2.040   4.408 -0.5595  0.8030 -0.3256
 3676SOL     OW14469   1.898   4.434   6.073 -0.0905 -0.1076 -0.0017
 3676SOL    HW214470   1.916   4.345   6.042 -0.9327 -0.2217 -0.1780
 3676SOL    HW314471   1.812   4.455   6.037  0.9839  1.5882 -1.7624
 3676SOL    MW414472   1.889   4.425   6.064 -0.0599  0.1011 -0.2573
 3677SOL     OW14473   0.240   6.294   4.160 -0.4199  0.5522 -0.2219
 3677SOL    HW214474   0.153   6.254   4.159  0.2377 -1.0202  0.9738
 3677SOL    HW314475   0.253   6.325   4.071 -2.3866  1.2693 -0.3045
 3677SOL    MW414476   0.230   6.293   4.148 -0.5926  0.4393 -0.0750
 3678SOL     OW14477   5.946   2.168   2.474  0.0554 -0.2544  0.1241
 3678SOL    HW214478   5.858   2.131   2.471  0.5042 -1.6354  2.3440
 3678SOL    HW314479   6.003   2.099   2.439  0.1753  1.3499 -3.2763
 3678SOL    MW414480   5.942   2.154   2.469  0.1304 -0.2250 -0.0316
 3679SOL     OW14481   0.118   5.405   2.102 -0.9605 -0.2571 -0.3112
 3679SOL    HW214482   0.191   5.460   2.129 -2.1894  0.3949  1.9603
 3679SOL    HW314483   0.159   5.325   2.070  0.7649  0.6883 -0.6102
 3679SOL    MW414484   0.133   5.402   2.102 -0.8950 -0.0463 -0.0509
 3680SOL     OW14485   1.913   2.342   3.893 -0.3838  0.4029  0.2305
 3680SOL    HW214486   1.872   2.377   3.972  1.0328  1.0766  0.7072
 3680SOL    HW314487   1.989   2.293   3.925 -1.0947 -1.3026 -0.5872
 3680SOL    MW414488   1.918   2.340   3.908 -0.2907  0.2667  0.1855
 3681SOL     OW14489   1.120   3.456   4.266  0.5273  0.4676  0.0282
 3681SOL    HW214490   1.050   3.403   4.228  0.4759 -1.3344  2.4418
 3681SOL    HW314491   1.201   3.409   4.244  1.0251  2.0555 -1.9507
 3681SOL    MW414492   1.122   3.443   4.258  0.5862  0.4393  0.0856
 3682SOL     OW14493   3.696   4.568   5.327 -0.1160  0.4994 -0.6112
 3682SOL    HW214494   3.698   4.626   5.404  0.0765  2.1444 -1.7985
 3682SOL    HW314495   3.788   4.557   5.304 -0.1962  0.4065 -0.8865
 3682SOL    MW414496   3.708   4.574   5.334 -0.1012  0.7041 -0.8042
 3683SOL     OW14497   1.264   0.810   2.513 -0.1280 -0.3306 -0.4963
 3683SOL    HW214498   1.320   0.809   2.590 -0.5087  0.4830 -0.1949
 3683SOL    HW314499   1.226   0.722   2.509  0.7359 -0.7156 -0.3929
 3683SOL    MW414500   1.266   0.798   2.523 -0.0643 -0.2740 -0.4429
 3684SOL     OW14501   4.839   5.175   0.689 -0.1005  0.1563 -0.1849
 3684SOL    HW214502   4.749   5.158   0.717  0.1540  0.5054  0.8943
 3684SOL    HW314503   4.875   5.231   0.758  0.2980  1.8081 -1.6465
 3684SOL    MW414504   4.832   5.180   0.702 -0.0144  0.4203 -0.2353
 3685SOL     OW14505   3.095   0.350   2.036  0.6187 -0.5092  0.3983
 3685SOL    HW214506   3.103   0.443   2.054 -4.4283 -0.1164  1.9236
 3685SOL    HW314507   3.159   0.309   2.095  0.3658  1.8390  2.4329
 3685SOL    MW414508   3.105   0.357   2.046 -0.0806 -0.1476  0.8680
 3686SOL     OW14509   6.212   5.768   1.697  0.1616  0.3455  0.2102
 3686SOL    HW214510   6.179   5.857   1.704  1.2095  0.6711  1.2364
 3686SOL    HW314511   6.304   5.778   1.672  0.3620 -0.4308  0.6060
 3686SOL    MW414512   6.220   5.781   1.694  0.3263  0.2861  0.3978
 3687SOL     OW14513   3.235   1.694   0.822  0.6416  0.9500  0.3737
 3687SOL    HW214514   3.273   1.612   0.789 -1.1480  1.3660 -3.2530
 3687SOL    HW314515   3.301   1.760   0.801  0.0347  1.0291 -1.5258
 3687SOL    MW414516   3.249   1.692   0.815  0.3254  1.0153 -0.3554
 3688SOL     OW14517   0.615   5.326   3.561  0.0391  0.4622 -0.0859
 3688SOL    HW214518   0.671   5.327   3.483  1.5728  0.1756  0.9753
 3688SOL    HW314519   0.676   5.327   3.635 -1.3816  1.3178  1.1342
 3688SOL    MW414520   0.630   5.326   3.560  0.0540  0.5373  0.2151
 3689SOL     OW14521   5.368   0.752   3.035 -0.4891 -0.2930 -0.0266
 3689SOL    HW214522   5.312   0.686   2.995 -1.1698 -0.4053  1.0817
 3689SOL    HW314523   5.324   0.776   3.116  0.6091  0.2875  0.4274
 3689SOL    MW414524   5.355   0.746   3.040 -0.4340 -0.2312  0.1795
 3690SOL     OW14525   1.396   6.349   5.903 -0.2094 -0.4264 -0.0207
 3690SOL    HW214526   1.392   6.369   5.810 -0.4630  1.1316  0.3096
 3690SOL    HW314527   1.479   6.302   5.914  1.0549  1.5699 -0.6416
 3690SOL    MW414528   1.407   6.345   5.892 -0.0761  0.0425 -0.0590
 3691SOL     OW14529   3.678   1.721   5.800 -0.0548 -0.4129 -0.6036
 3691SOL    HW214530   3.753   1.680   5.841 -1.4672 -1.2797  1.2648
 3691SOL    HW314531   3.650   1.658   5.733 -0.5372 -1.2636  0.3618
 3691SOL    MW414532   3.684   1.707   5.796 -0.3048 -0.6395 -0.2297
 3692SOL     OW14533   3.997   4.596   5.181  0.2467  0.4629 -0.0736
 3692SOL    HW214534   4.036   4.596   5.269  0.0762 -0.4189  0.0075
 3692SOL    HW314535   3.983   4.689   5.162 -0.2774  0.6436  1.0856
 3692SOL    MW414536   4.001   4.608   5.190  0.1551  0.3704  0.0901
 3693SOL     OW14537   5.467   5.409   5.202 -0.1432  0.4443 -0.0829
 3693SOL    HW214538   5.513   5.389   5.284 -0.3809  0.5387  0.0755
 3693SOL    HW314539   5.530   5.388   5.133  0.0855  0.4336  0.1273
 3693SOL    MW414540   5.481   5.404   5.204 -0.1444  0.4554 -0.0343
 3694SOL     OW14541   6.282   3.353   4.832  0.1054 -0.3556  0.3978
 3694SOL    HW214542   6.206   3.407   4.813  0.2494  0.0230  0.8742
 3694SOL    HW314543   6.248   3.282   4.886  0.1132 -0.1031  0.7366
 3694SOL    MW414544   6.268   3.351   4.837  0.1254 -0.2723  0.5054
 3695SOL     OW14545   1.943   3.290   2.745  0.0997 -0.0702 -0.1846
 3695SOL    HW214546   1.865   3.266   2.696  1.3586  0.2985 -2.4930
 3695SOL    HW314547   2.016   3.264   2.689  1.6026  1.6909  0.8286
 3695SOL    MW414548   1.942   3.284   2.731  0.4641  0.2108 -0.3555
 3696SOL     OW14549   0.096   5.819   3.290  0.5635 -0.0700  0.2169
 3696SOL    HW214550   0.123   5.910   3.282  1.6841 -0.4240 -0.3016
 3696SOL    HW314551   0.004   5.818   3.266  0.7587  0.7930 -0.5975
 3696SOL    MW414552   0.088   5.831   3.286  0.7371 -0.0029  0.0411
 3697SOL     OW14553   3.467   3.003   6.381  0.5098  0.0016  0.1379
 3697SOL    HW214554   3.524   3.067   6.338 -1.8621  1.7438 -0.5977
 3697SOL    HW314555   3.457   3.035   6.470  0.2788  0.0036  0.1123
 3697SOL    MW414556   3.474   3.015   6.387  0.1664  0.2317  0.0374
 3698SOL     OW14557   2.768   5.822   6.423 -0.0745  0.0492  0.0224
 3698SOL    HW214558   2.796   5.910   6.448  0.4329 -0.1432  0.1416
 3698SOL    HW314559   2.755   5.776   6.506 -0.7477  0.1362 -0.0332
 3698SOL    MW414560   2.770   5.827   6.437 -0.0964  0.0353  0.0308
 3699SOL     OW14561   2.052   2.411   0.572  0.6786  0.1175 -0.4592
 3699SOL    HW214562   1.998   2.352   0.625  0.3684 -1.3723 -2.3250
 3699SOL    HW314563   2.140   2.373   0.575  1.3551  1.6761  1.3047
 3699SOL    MW414564   2.056   2.398   0.579  0.7269  0.1266 -0.4726
 3700SOL     OW14565   3.563   2.066   4.867  0.0589 -0.2315  0.1991
 3700SOL    HW214566   3.563   1.994   4.930  0.8353 -1.8115 -1.4974
 3700SOL    HW314567   3.648   2.060   4.824 -0.7171  0.2824 -1.5124
 3700SOL    MW414568   3.574   2.055   4.869  0.0589 -0.3722 -0.2506
 3701SOL     OW14569   2.156   2.929   1.613 -0.3655 -0.0908 -0.8426
 3701SOL    HW214570   2.224   2.956   1.675 -1.6089  0.6041  0.2434
 3701SOL    HW314571   2.156   2.834   1.618 -1.3075 -0.0143  1.1948
 3701SOL    MW414572   2.165   2.920   1.622 -0.6538  0.0110 -0.4305
 3702SOL     OW14573   6.129   2.675   1.682 -0.2559  0.5929 -0.6669
 3702SOL    HW214574   6.187   2.750   1.672  0.3805  0.4807  1.6686
 3702SOL    HW314575   6.048   2.712   1.717  0.2437  0.1753  1.0049
 3702SOL    MW414576   6.126   2.689   1.685 -0.1060  0.5230 -0.1382
 3703SOL     OW14577   3.438   0.800   5.614  0.0368  0.8717 -0.2042
 3703SOL    HW214578   3.362   0.809   5.556  1.5092 -1.6542 -2.7814
 3703SOL    HW314579   3.431   0.710   5.647  0.4823  1.5264  1.8449
 3703SOL    MW414580   3.427   0.789   5.611  0.2899  0.6248 -0.2739
 3704SOL     OW14581   4.419   1.445   3.971  0.2351 -0.1891  0.6002
 3704SOL    HW214582   4.399   1.354   3.993  0.5456 -0.6042 -0.7661
 3704SOL    HW314583   4.347   1.473   3.915  0.5361  0.1626  0.3821
 3704SOL    MW414584   4.407   1.437   3.966  0.3158 -0.1975  0.3912
 3705SOL     OW14585   2.311   6.173   1.413  0.4806 -0.1364  0.8782
 3705SOL    HW214586   2.375   6.128   1.357 -2.0815 -1.4306 -1.2200
 3705SOL    HW314587   2.260   6.226   1.352 -2.2702 -1.3765  1.9601
 3705SOL    MW414588   2.313   6.174   1.398 -0.2204 -0.4708  0.7441
 3706SOL     OW14589   6.214   1.518   6.343 -0.3135  0.4480  0.6491
 3706SOL    HW214590   6.269   1.456   6.296 -2.1059 -1.1087  0.4896
 3706SOL    HW314591   6.271   1.593   6.359  1.3947 -0.4646 -0.7859
 3706SOL    MW414592   6.229   1.520   6.339 -0.3246  0.1222  0.4387
 3707SOL     OW14593   1.016   1.439   3.698  0.0812 -0.4719  0.2149
 3707SOL    HW214594   1.106   1.461   3.675 -0.2635 -0.6702 -1.4546
 3707SOL    HW314595   1.022   1.396   3.783  1.3877  0.8543  0.8177
 3707SOL    MW414596   1.028   1.436   3.706  0.2081 -0.3231  0.0742
 3708SOL     OW14597   1.871   5.245   4.405 -0.1192  0.0586 -0.5244
 3708SOL    HW214598   1.918   5.195   4.339 -1.4571 -0.6894 -0.9443
 3708SOL    HW314599   1.891   5.200   4.487 -2.1451 -1.8932 -1.0210
 3708SOL    MW414600   1.880   5.232   4.407 -0.5630 -0.2976 -0.6453
 3709SOL     OW14601   1.791   3.162   3.223  0.0271 -0.3201  0.4633
 3709SOL    HW214602   1.875   3.152   3.269  0.0905 -0.0494  0.4054
 3709SOL    HW314603   1.727   3.120   3.280 -0.0143  0.6541  1.1491
 3709SOL    MW414604   1.794   3.155   3.236  0.0300 -0.1558  0.5462
 3710SOL     OW14605   1.709   1.674   3.754 -0.6648  0.6465  0.1459
 3710SOL    HW214606   1.672   1.586   3.745  0.6194 -0.1950  2.2534
 3710SOL    HW314607   1.636   1.728   3.783 -1.4427  0.2873 -1.0518
 3710SOL    MW414608   1.695   1.669   3.756 -0.5980  0.4881  0.2659
 3711SOL     OW14609   3.197   3.540   4.902 -0.2729 -0.3057 -0.0689
 3711SOL    HW214610   3.224   3.451   4.924 -0.0408 -0.3113 -0.3702
 3711SOL    HW314611   3.120   3.529   4.847  0.7910 -0.3979 -1.6197
 3711SOL    MW414612   3.191   3.527   4.897 -0.1019 -0.3186 -0.3132
 3712SOL     OW14613   2.337   3.332   6.280 -0.1104 -0.0992  0.3340
 3712SOL    HW214614   2.382   3.356   6.199  0.0444  1.5536  0.8631
 3712SOL    HW314615   2.294   3.249   6.260 -1.8133  1.2328 -2.1513
 3712SOL    MW414616   2.337   3.324   6.266 -0.3146  0.2946  0.0759
 3713SOL     OW14617   5.107   6.179   1.083  0.1868  0.1300  0.2723
 3713SOL    HW214618   5.195   6.153   1.109 -0.3397 -2.1943  0.0073
 3713SOL    HW314619   5.091   6.133   1.001 -2.2080 -1.8519  1.6954
 3713SOL    MW414620   5.116   6.169   1.076 -0.1986 -0.4381  0.4251
 3714SOL     OW14621   0.112   0.968   4.492 -0.0427 -0.1069 -0.0501
 3714SOL    HW214622   0.063   0.888   4.473  1.5489 -0.8263 -1.2915
 3714SOL    HW314623   0.125   0.966   4.587  0.7671 -1.8254 -0.1540
 3714SOL    MW414624   0.107   0.957   4.502  0.2741 -0.4286 -0.2276
 3715SOL     OW14625   3.032   3.883   0.047  0.0480  0.3591  0.1025
 3715SOL    HW214626   3.060   3.965   0.088 -2.4840  1.2019  0.3398
 3715SOL    HW314627   2.975   3.910  -0.025 -0.4079 -1.1918 -0.1548
 3715SOL    MW414628   3.028   3.897   0.043 -0.3462  0.2657  0.0999
 3716SOL     OW14629   1.320   6.155   0.355  0.0610  0.0063  0.0682
 3716SOL    HW214630   1.268   6.153   0.275  0.4752 -1.1351 -0.1741
 3716SOL    HW314631   1.291   6.235   0.399  0.8450  1.4417 -1.8730
 3716SOL    MW414632   1.309   6.166   0.351  0.2191  0.0451 -0.2199
 3717SOL     OW14633   2.109   1.070   3.420 -0.1649 -0.4973  0.0330
 3717SOL    HW214634   2.111   1.093   3.513  0.2864  0.8294 -0.2826
 3717SOL    HW314635   2.193   1.100   3.386 -0.8060  0.1697 -1.0484
 3717SOL    MW414636   2.120   1.077   3.428 -0.1899 -0.2342 -0.1513
 3718SOL     OW14637   4.812   1.225   4.443 -0.4928 -0.8136  0.1228
 3718SOL    HW214638   4.801   1.311   4.484  0.9622 -0.1701 -0.7449
 3718SOL    HW314639   4.744   1.222   4.375 -0.7294 -0.4661  0.3429
 3718SOL    MW414640   4.801   1.236   4.439 -0.3321 -0.6828  0.0374
 3719SOL     OW14641   1.484   5.824   3.851  0.2539  0.6855  0.3659
 3719SOL    HW214642   1.578   5.841   3.857  0.5964 -0.2871 -1.5175
 3719SOL    HW314643   1.474   5.734   3.880 -0.3438  1.2631  2.0375
 3719SOL    MW414644   1.495   5.815   3.855  0.2202  0.6334  0.3380
 3720SOL     OW14645   3.006   3.373   3.049 -0.0337  0.0752  0.6577
 3720SOL    HW214646   3.063   3.304   3.015 -0.5679 -0.9648  1.8050
 3720SOL    HW314647   3.042   3.393   3.136  0.3951  1.6054  0.1723
 3720SOL    MW414648   3.018   3.367   3.056 -0.0476  0.1399  0.7451
 3721SOL     OW14649   3.751   5.245   3.651  0.0885 -0.0204 -0.3221
 3721SOL    HW214650   3.742   5.167   3.596 -0.5808 -0.6624  0.6438
 3721SOL    HW314651   3.734   5.319   3.593  0.0103 -0.6447 -1.0991
 3721SOL    MW414652   3.747   5.244   3.636 -0.0101 -0.1874 -0.2972
 3722SOL     OW14653   2.775   2.506   5.789 -0.0560 -0.0170  0.0199
 3722SOL    HW214654   2.687   2.530   5.760 -0.0491 -0.3486 -0.2764
 3722SOL    HW314655   2.833   2.569   5.747 -0.2170  0.6662  0.8056
 3722SOL    MW414656   2.771   2.517   5.780 -0.0763  0.0294  0.0845
 3723SOL     OW14657   0.720   6.269   3.970 -0.5246  0.3273  0.1040
 3723SOL    HW214658   0.703   6.303   3.882 -0.3401 -0.5363 -0.2819
 3723SOL    HW314659   0.640   6.287   4.019 -1.2759 -0.6272 -0.7160
 3723SOL    MW414660   0.707   6.276   3.965 -0.5994  0.0874 -0.0551
 3724SOL     OW14661   2.113   1.680   1.416  0.2971 -0.6707 -0.1659
 3724SOL    HW214662   2.146   1.678   1.326  0.1970  1.9705 -0.3315
 3724SOL    HW314663   2.182   1.640   1.468  1.7657  0.5543 -1.0822
 3724SOL    MW414664   2.126   1.675   1.411  0.4776 -0.1606 -0.3086
 3725SOL     OW14665   5.923   1.026   5.634 -0.4046  0.3944  0.1377
 3725SOL    HW214666   5.987   0.973   5.588 -0.1749  0.8512 -0.0739
 3725SOL    HW314667   5.887   1.085   5.567 -0.0055  1.1234  0.5460
 3725SOL    MW414668   5.927   1.027   5.619 -0.3216  0.5509  0.1637
 3726SOL     OW14669   0.923   2.335   3.295  0.2543  0.4482 -0.0967
 3726SOL    HW214670   0.905   2.315   3.203  1.0919 -1.0088  0.0251
 3726SOL    HW314671   0.893   2.257   3.343 -0.3113  1.2476  0.8983
 3726SOL    MW414672   0.917   2.322   3.289  0.2902  0.3615  0.0507
 3727SOL     OW14673   1.484   2.546   1.486  0.2325  0.7158 -0.2120
 3727SOL    HW214674   1.547   2.502   1.428  1.0947  2.5492 -0.7456
 3727SOL    HW314675   1.407   2.561   1.432  1.5625  3.7537 -1.5167
 3727SOL    MW414676   1.482   2.542   1.471  0.5217  1.3585 -0.4545
 3728SOL     OW14677   1.178   5.996   1.566  0.1742 -0.0061 -0.0191
 3728SOL    HW214678   1.150   6.087   1.550 -0.7154 -0.1305  0.7466
 3728SOL    HW314679   1.198   5.962   1.479 -0.0846  0.7385 -0.3789
 3728SOL    MW414680   1.177   6.004   1.552  0.0227  0.0757  0.0344
 3729SOL     OW14681   0.757   2.847   4.868  0.4719 -0.5995 -0.4554
 3729SOL    HW214682   0.745   2.793   4.789 -1.0369 -2.1752  0.7699
 3729SOL    HW314683   0.780   2.784   4.936  0.1311  0.5056  0.7092
 3729SOL    MW414684   0.758   2.832   4.866  0.2278 -0.6616 -0.1401
 3730SOL     OW14685   4.159   0.958   2.202 -0.4260  0.3631  0.3224
 3730SOL    HW214686   4.164   0.895   2.129 -0.2643  1.0740 -0.2946
 3730SOL    HW314687   4.102   0.916   2.266 -0.0163 -0.5798  0.0889
 3730SOL    MW414688   4.152   0.944   2.201 -0.3506  0.3325  0.2102
 3731SOL     OW14689   1.799   0.945   1.473 -0.2534 -0.1437  0.3978
 3731SOL    HW214690   1.772   0.974   1.560  0.2223  0.4020  0.3703
 3731SOL    HW314691   1.765   0.856   1.466 -0.1268 -0.2654  1.2171
 3731SOL    MW414692   1.791   0.937   1.484 -0.1739 -0.0877  0.5023
 3732SOL     OW14693   2.690   2.445   5.452  0.0809  0.0157  0.4345
 3732SOL    HW214694   2.766   2.435   5.509 -0.1109 -0.0639  0.6769
 3732SOL    HW314695   2.670   2.539   5.455  1.2306  0.3354 -1.0037
 3732SOL    MW414696   2.698   2.456   5.460  0.2073  0.0474  0.2767
 3733SOL     OW14697   0.281   1.686   2.914  0.3677 -0.0138  0.0427
 3733SOL    HW214698   0.221   1.618   2.945  1.0133 -0.9505 -0.7434
 3733SOL    HW314699   0.358   1.639   2.884  1.8118  1.2070  1.6333
 3733SOL    MW414700   0.283   1.671   2.914  0.6434  0.0237  0.1488
 3734SOL     OW14701   2.134   4.661   4.775 -0.4217  0.6242  0.1987
 3734SOL    HW214702   2.192   4.715   4.721  0.2126 -0.0639  0.1703
 3734SOL    HW314703   2.046   4.682   4.745 -0.1736  1.4431  0.0106
 3734SOL    MW414704   2.130   4.671   4.764 -0.3053  0.6415  0.1701
 3735SOL     OW14705   0.588   3.955   4.019 -0.2656 -0.2253 -0.1648
 3735SOL    HW214706   0.623   3.867   4.036  1.3879  0.7909  2.1799
 3735SOL    HW314707   0.570   3.991   4.105  3.1888  3.2685 -0.5910
 3735SOL    MW414708   0.590   3.948   4.032  0.4083  0.3697  0.0883
 3736SOL     OW14709   0.560   2.637   2.910 -0.3590  0.1245  0.1897
 3736SOL    HW214710   0.598   2.713   2.866  0.0400 -1.0979 -1.6345
 3736SOL    HW314711   0.613   2.627   2.989  0.9628  0.4719 -0.6233
 3736SOL    MW414712   0.572   2.646   2.915 -0.1319  0.0091 -0.1583
 3737SOL     OW14713   5.265   3.167   2.623 -0.1194  0.2751 -0.1365
 3737SOL    HW214714   5.223   3.205   2.700  0.6997  0.9199  0.0019
 3737SOL    HW314715   5.250   3.232   2.554 -1.3818 -0.5741 -0.6988
 3737SOL    MW414716   5.257   3.181   2.624 -0.1779  0.2481 -0.1924
 3738SOL     OW14717   2.108   4.750   5.041 -0.1332  0.1326  0.2368
 3738SOL    HW214718   2.078   4.836   5.012  1.2082  0.7983  0.7202
 3738SOL    HW314719   2.098   4.693   4.965 -3.7994 -0.0894  0.6952
 3738SOL    MW414720   2.103   4.754   5.027 -0.4399  0.1911  0.3610
 3739SOL     OW14721   2.863   6.108   3.790  0.7100  0.0588  0.4404
 3739SOL    HW214722   2.852   6.013   3.792  2.3906 -0.2726 -2.1211
 3739SOL    HW314723   2.789   6.140   3.739  1.9547 -0.3047 -1.6884
 3739SOL    MW414724   2.852   6.100   3.784  1.0960 -0.0329 -0.1784
 3740SOL     OW14725   2.017   4.828   5.485 -0.0137 -0.0326  0.2287
 3740SOL    HW214726   2.068   4.819   5.565 -1.4606  0.0947  1.2132
 3740SOL    HW314727   1.998   4.921   5.479  1.6972  0.2482 -1.3396
 3740SOL    MW414728   2.021   4.839   5.495  0.0211  0.0212  0.1517
 3741SOL     OW14729   0.623   6.160   4.352  0.3404 -0.1938 -0.4478
 3741SOL    HW214730   0.651   6.198   4.435  2.6067 -2.8822  0.1698
 3741SOL    HW314731   0.536   6.124   4.369  0.5174 -0.1567  0.5811
 3741SOL    MW414732   0.615   6.160   4.365  0.6628 -0.5436 -0.2306
 3742SOL     OW14733   5.182   1.190   3.400  0.5364  0.4603 -0.6078
 3742SOL    HW214734   5.114   1.251   3.372  0.5372  0.1445 -1.3053
 3742SOL    HW314735   5.259   1.245   3.416 -0.1885  0.9871  1.3598
 3742SOL    MW414736   5.184   1.205   3.398  0.4409  0.4881 -0.4402
 3743SOL     OW14737   2.697   6.223   0.051  0.2362  0.5332  0.6859
 3743SOL    HW214738   2.756   6.298   0.061  0.5978  0.2219  0.9153
 3743SOL    HW314739   2.671   6.225  -0.041  0.9463  0.4181  0.4827
 3743SOL    MW414740   2.701   6.233   0.040  0.3776  0.4769  0.6894
 3744SOL     OW14741   0.199   2.637   4.268 -0.9793  0.2874  0.0143
 3744SOL    HW214742   0.170   2.549   4.293 -0.6510  0.0905 -0.2876
 3744SOL    HW314743   0.223   2.678   4.351 -0.1423 -0.2775  0.0723
 3744SOL    MW414744   0.199   2.630   4.282 -0.8255  0.1869 -0.0179
 3745SOL     OW14745   3.603   5.975   5.637 -0.1699 -0.7932  0.2920
 3745SOL    HW214746   3.625   5.904   5.577 -4.2054 -0.0333 -2.5006
 3745SOL    HW314747   3.529   5.941   5.688 -0.5770  0.5760  0.6601
 3745SOL    MW414748   3.596   5.961   5.636 -0.7561 -0.5123 -0.0279
 3746SOL     OW14749   4.135   1.698   4.900 -0.4790  0.0349  0.3013
 3746SOL    HW214750   4.070   1.728   4.837 -1.8362 -0.1746  1.5583
 3746SOL    HW314751   4.102   1.728   4.985 -0.0773 -1.9902  1.2211
 3746SOL    MW414752   4.122   1.706   4.903 -0.6051 -0.2599  0.5885
 3747SOL     OW14753   2.767   4.747   0.713 -0.6368  0.3375 -0.5699
 3747SOL    HW214754   2.758   4.825   0.769 -1.3824  0.8340 -1.3412
 3747SOL    HW314755   2.678   4.733   0.679 -0.1349  0.2986 -1.9344
 3747SOL    MW414756   2.754   4.756   0.716 -0.6690  0.3979 -0.8517
 3748SOL     OW14757   5.495   4.378   4.105  0.5118  0.2003 -0.3263
 3748SOL    HW214758   5.496   4.459   4.156 -0.9946 -0.0193  0.0943
 3748SOL    HW314759   5.458   4.404   4.021 -0.6211 -0.1707  0.0479
 3748SOL    MW414760   5.491   4.392   4.100  0.1635  0.1224 -0.2214
 3749SOL     OW14761   5.117   0.127   4.082 -0.2516  0.3268  0.1413
 3749SOL    HW214762   5.024   0.117   4.061 -0.0922  0.5788 -0.6795
 3749SOL    HW314763   5.162   0.077   4.014  0.2261  0.3732  0.4261
 3749SOL    MW414764   5.110   0.119   4.071 -0.1675  0.3661  0.0706
 3750SOL     OW14765   1.226   0.096   4.341 -0.2216 -0.1614  0.6531
 3750SOL    HW214766   1.178   0.013   4.341  1.1165 -1.0422 -1.5168
 3750SOL    HW314767   1.198   0.140   4.261  0.1040  0.8386  1.0784
 3750SOL    MW414768   1.216   0.091   4.330 -0.0021 -0.1457  0.4229
 3751SOL     OW14769   1.020   5.333   2.871 -0.1814  0.1894  0.3674
 3751SOL    HW214770   1.024   5.346   2.965 -1.7275  3.6034  0.0891
 3751SOL    HW314771   1.027   5.238   2.860  1.5694 -0.2183  3.7455
 3751SOL    MW414772   1.021   5.322   2.882 -0.1544  0.5860  0.7764
 3752SOL     OW14773   2.278   4.333   2.351  0.1903 -0.0308  0.8020
 3752SOL    HW214774   2.349   4.289   2.304  0.3439  0.4934  0.5425
 3752SOL    HW314775   2.318   4.367   2.431  0.1472 -0.0562  0.8348
 3752SOL    MW414776   2.293   4.332   2.355  0.2049  0.0350  0.7721
 3753SOL     OW14777   4.701   3.133   0.700  0.3655  0.0132  0.3622
 3753SOL    HW214778   4.694   3.198   0.631 -0.8799 -1.4658 -0.9906
 3753SOL    HW314779   4.748   3.060   0.660  0.0476 -0.6799  1.2180
 3753SOL    MW414780   4.706   3.132   0.686  0.1592 -0.2734  0.2966
 3754SOL     OW14781   5.094   2.296   2.517  0.3159  0.2292  0.3232
 3754SOL    HW214782   5.001   2.276   2.505  0.5580  0.2134 -2.0961
 3754SOL    HW314783   5.099   2.338   2.602 -1.7910 -0.4556  0.8442
 3754SOL    MW414784   5.082   2.299   2.526  0.0699  0.1368  0.0727
 3755SOL     OW14785   2.719   5.487   0.045 -0.2946  0.3982 -0.3114
 3755SOL    HW214786   2.653   5.463   0.109 -2.0132 -0.3171 -2.2319
 3755SOL    HW314787   2.673   5.541  -0.019  1.4207  1.3673 -0.8075
 3755SOL    MW414788   2.704   5.491   0.045 -0.2951  0.4317 -0.6302
 3756SOL     OW14789   5.416   3.618   0.708 -0.0492  1.0646 -0.5271
 3756SOL    HW214790   5.439   3.530   0.736 -1.3584 -0.0996 -2.7823
 3756SOL    HW314791   5.441   3.674   0.781 -2.2464 -1.5252  2.4817
 3756SOL    MW414792   5.422   3.614   0.721 -0.5118  0.5693 -0.4276
 3757SOL     OW14793   4.448   1.427   2.928  0.3532  0.0029  0.1141
 3757SOL    HW214794   4.494   1.436   2.844 -0.5752 -0.2822 -0.4339
 3757SOL    HW314795   4.451   1.515   2.966  2.8855 -0.3454  0.9425
 3757SOL    MW414796   4.454   1.440   2.922  0.5648 -0.0806  0.1511
 3758SOL     OW14797   1.049   3.456   5.182 -0.1700  0.1554 -0.1892
 3758SOL    HW214798   1.046   3.548   5.210  0.6498  0.4459 -0.9868
 3758SOL    HW314799   1.042   3.406   5.262 -0.6709  0.9164  0.2614
 3758SOL    MW414800   1.048   3.462   5.196 -0.1279  0.2941 -0.2350
 3759SOL     OW14801   5.298   2.115   5.778 -0.0343 -0.2983  0.5504
 3759SOL    HW214802   5.246   2.169   5.838  1.5461  2.0569 -0.0785
 3759SOL    HW314803   5.241   2.041   5.757 -2.9355  1.8252  0.3608
 3759SOL    MW414804   5.283   2.112   5.783 -0.2086  0.2926  0.4424
 3760SOL     OW14805   3.731   5.721   1.418 -0.0640 -0.1691  0.2249
 3760SOL    HW214806   3.779   5.718   1.501  0.3607  0.0381 -0.0120
 3760SOL    HW314807   3.653   5.668   1.434  0.9830 -1.8381  0.1408
 3760SOL    MW414808   3.727   5.713   1.431  0.1302 -0.3620  0.1826
 3761SOL     OW14809   2.927   4.294   5.733  0.1323 -0.2288  0.1344
 3761SOL    HW214810   2.878   4.312   5.813  0.4127 -1.1513  0.5370
 3761SOL    HW314811   3.017   4.286   5.762 -0.0165 -2.7239  0.1369
 3761SOL    MW414812   2.932   4.295   5.747  0.1497 -0.6797  0.1879
 3762SOL     OW14813   1.492   4.585   4.179 -0.1418 -0.2776 -0.0220
 3762SOL    HW214814   1.524   4.515   4.122 -1.4431 -0.8988 -0.0365
 3762SOL    HW314815   1.484   4.662   4.123  1.3461 -0.0848  0.0023
 3762SOL    MW414816   1.495   4.586   4.164 -0.1172 -0.3341 -0.0207
 3763SOL     OW14817   2.459   5.772   4.711  1.1367 -0.1912  0.1361
 3763SOL    HW214818   2.536   5.738   4.756 -0.0845 -2.0764  0.9320
 3763SOL    HW314819   2.489   5.786   4.621  2.8604  0.9147  0.8338
 3763SOL    MW414820   2.473   5.770   4.705  1.2030 -0.2941  0.3332
 3764SOL     OW14821   4.663   0.873   0.396 -0.0448 -0.3892  0.6710
 3764SOL    HW214822   4.656   0.905   0.486 -0.5293  0.2204  0.4277
 3764SOL    HW314823   4.722   0.798   0.401  0.0173 -0.2916  1.4785
 3764SOL    MW414824   4.670   0.867   0.408 -0.1006 -0.2959  0.7455
 3765SOL     OW14825   6.029   5.907   3.073 -0.4715 -0.5255 -0.6931
 3765SOL    HW214826   5.952   5.861   3.041 -0.3400 -0.6333 -0.8538
 3765SOL    HW314827   6.053   5.966   3.001 -0.1033 -0.8563 -0.8434
 3765SOL    MW414828   6.022   5.909   3.059 -0.4056 -0.5834 -0.7341
 3766SOL     OW14829   3.701   4.098   2.355  0.3601  0.2335  0.2449
 3766SOL    HW214830   3.659   4.012   2.356 -1.1717  0.9516  0.8467
 3766SOL    HW314831   3.754   4.100   2.435 -0.5426  0.2721  0.8543
 3766SOL    MW414832   3.702   4.087   2.366  0.0389  0.3334  0.4047
 3767SOL     OW14833   4.880   6.116   2.074 -0.9425 -0.2729 -1.1625
 3767SOL    HW214834   4.821   6.100   2.148 -0.5408  0.8366 -0.5835
 3767SOL    HW314835   4.892   6.211   2.072  1.7521 -0.5262 -0.5414
 3767SOL    MW414836   4.873   6.127   2.083 -0.5340 -0.1599 -1.0041
 3768SOL     OW14837   2.528   0.526   3.580 -0.6548 -0.8000  0.3630
 3768SOL    HW214838   2.492   0.439   3.565 -2.0079 -0.1562 -0.2893
 3768SOL    HW314839   2.623   0.512   3.586 -0.9026 -2.4162  1.1555
 3768SOL    MW414840   2.536   0.513   3.579 -0.8661 -0.9283  0.3815
 3769SOL     OW14841   4.894   2.930   2.650  0.1364  0.1830 -0.1496
 3769SOL    HW214842   4.936   2.907   2.568 -0.8594 -0.8819 -0.3801
 3769SOL    HW314843   4.871   2.846   2.690 -2.2503  0.6997 -0.2989
 3769SOL    MW414844   4.896   2.916   2.645 -0.3099  0.1107 -0.1997
 3770SOL     OW14845   3.300   0.605   3.161 -0.1591 -0.8528 -0.1129
 3770SOL    HW214846   3.326   0.697   3.157 -0.6465 -0.7618 -1.5381
 3770SOL    HW314847   3.205   0.607   3.173 -0.2402 -1.1684 -0.6942
 3770SOL    MW414848   3.291   0.617   3.162 -0.2341 -0.8824 -0.3776
 3771SOL     OW14849   3.701   0.403   4.408 -0.5889  0.1276  0.1513
 3771SOL    HW214850   3.695   0.321   4.457 -1.6572 -0.1943 -0.4882
 3771SOL    HW314851   3.611   0.433   4.400 -0.1952  1.4874  0.5580
 3771SOL    MW414852   3.689   0.396   4.413 -0.6779  0.2645  0.1206
 3772SOL     OW14853   0.768   3.113   0.313  0.2446  0.3497 -0.4902
 3772SOL    HW214854   0.736   3.070   0.233  2.1162 -2.7396  0.2556
 3772SOL    HW314855   0.693   3.162   0.346 -1.2652 -0.1942 -2.8883
 3772SOL    MW414856   0.754   3.113   0.306  0.2924 -0.1297 -0.7082
 3773SOL     OW14857   0.725   3.685   4.056 -0.5467  0.5566 -0.0223
 3773SOL    HW214858   0.777   3.612   4.021  1.0946  0.8001  1.6991
 3773SOL    HW314859   0.642   3.645   4.081 -1.0374  0.0259 -2.2838
 3773SOL    MW414860   0.721   3.670   4.055 -0.3949  0.5187 -0.0936
 3774SOL     OW14861   1.210   4.480   3.827  0.2125 -0.0120  0.6600
 3774SOL    HW214862   1.117   4.456   3.820  0.5045 -0.9823 -0.1333
 3774SOL    HW314863   1.228   4.481   3.921 -1.7642  4.9453  1.3280
 3774SOL    MW414864   1.200   4.477   3.838 -0.0098  0.5141  0.6434
 3775SOL     OW14865   5.069   1.976   4.208 -0.1550 -0.0634 -0.2432
 3775SOL    HW214866   4.976   1.973   4.228 -0.0919 -1.0190 -0.0625
 3775SOL    HW314867   5.088   1.891   4.169  0.9557 -0.4952  1.1642
 3775SOL    MW414868   5.059   1.964   4.205 -0.0001 -0.2464 -0.0336
 3776SOL     OW14869   0.090   5.286   6.153  0.4357  0.4818 -0.6673
 3776SOL    HW214870   0.026   5.358   6.146  0.8388  0.9078 -0.0976
 3776SOL    HW314871   0.165   5.316   6.101  0.9501  0.8761  0.2757
 3776SOL    MW414872   0.091   5.300   6.145  0.5568  0.5900 -0.4677
 3777SOL     OW14873   2.670   5.371   3.402  0.3576 -0.1858 -0.4946
 3777SOL    HW214874   2.693   5.426   3.476 -0.4255  0.1123 -0.4594
 3777SOL    HW314875   2.589   5.410   3.367 -0.7234 -1.8067  0.0789
 3777SOL    MW414876   2.662   5.383   3.407  0.1117 -0.3604 -0.4143
 3778SOL     OW14877   2.594   6.341   2.634  0.4468  0.6118 -0.1974
 3778SOL    HW214878   2.568   6.431   2.655  0.6333  0.0052  3.3648
 3778SOL    HW314879   2.690   6.343   2.636  0.4482  0.2558  0.5792
 3778SOL    MW414880   2.603   6.353   2.637  0.4716  0.4848  0.3750
 3779SOL     OW14881   5.773   5.783   0.867  0.2408 -0.4049  0.5543
 3779SOL    HW214882   5.795   5.733   0.946 -1.8492 -0.9600  0.8535
 3779SOL    HW314883   5.739   5.866   0.900  4.1914  1.6590  0.0586
 3779SOL    MW414884   5.771   5.787   0.882  0.4863 -0.2058  0.5284
 3780SOL     OW14885   3.498   0.992   5.814  0.4536 -0.0472  0.2436
 3780SOL    HW214886   3.478   0.922   5.752  0.7962  0.2250 -0.1830
 3780SOL    HW314887   3.448   1.067   5.782  0.5486  0.0659  0.3587
 3780SOL    MW414888   3.489   0.993   5.802  0.5113  0.0037  0.2025
 3781SOL     OW14889   1.910  -0.007   2.422  0.1193 -0.3242 -0.3483
 3781SOL    HW214890   1.901   0.066   2.361 -0.3841 -0.7120 -0.7506
 3781SOL    HW314891   1.984   0.016   2.478 -1.3586  1.5163  0.9695
 3781SOL    MW414892   1.918   0.005   2.421 -0.1421 -0.1325 -0.2275
 3782SOL     OW14893   2.398   5.559   2.597  0.1818 -0.0874 -0.2491
 3782SOL    HW214894   2.476   5.505   2.583 -1.0597 -2.1924  0.5252
 3782SOL    HW314895   2.433   5.647   2.615  2.3932 -1.0015  0.3115
 3782SOL    MW414896   2.413   5.564   2.598  0.3098 -0.4857 -0.0730
 3783SOL     OW14897   5.962   3.292   2.931 -0.4850  0.0402 -0.2470
 3783SOL    HW214898   6.014   3.361   2.972 -0.5742 -0.8727  1.5259
 3783SOL    HW314899   5.878   3.294   2.977 -0.4643 -1.2585 -0.1069
 3783SOL    MW414900   5.958   3.301   2.942 -0.4941 -0.2516  0.0054
 3784SOL     OW14901   5.098   5.035   6.337 -0.0933 -0.7128  0.2384
 3784SOL    HW214902   5.027   5.055   6.275 -0.4345  0.6933  1.0421
 3784SOL    HW314903   5.131   5.120   6.364  2.0008 -1.3259 -0.1791
 3784SOL    MW414904   5.093   5.049   6.332  0.1380 -0.6082  0.2894
 3785SOL     OW14905   3.109   5.787   1.570  0.1088  0.0882 -0.3472
 3785SOL    HW214906   3.122   5.836   1.651  0.4192 -0.3800 -0.1071
 3785SOL    HW314907   3.039   5.834   1.524  1.0365  1.3136 -0.5703
 3785SOL    MW414908   3.101   5.800   1.574  0.2721  0.1881 -0.3449
 3786SOL     OW14909   6.081   2.718   2.486  0.1880 -0.3094 -0.7964
 3786SOL    HW214910   6.003   2.665   2.501 -0.3568  1.1745  2.5339
 3786SOL    HW314911   6.090   2.722   2.391 -2.4695 -2.3714 -1.2395
 3786SOL    MW414912   6.072   2.712   2.475 -0.2345 -0.3857 -0.4155
 3787SOL     OW14913   2.643   1.995   3.090  0.2698  0.1860 -0.7316
 3787SOL    HW214914   2.639   2.061   3.160 -0.2282 -1.1431  0.5344
 3787SOL    HW314915   2.610   1.915   3.130  0.4003 -0.7386 -2.3782
 3787SOL    MW414916   2.638   1.993   3.104  0.2213 -0.1113 -0.7818
 3788SOL     OW14917   2.226   1.743   0.666 -0.0607 -0.0898 -0.4978
 3788SOL    HW214918   2.310   1.734   0.710 -0.8746 -1.3208  0.8953
 3788SOL    HW314919   2.184   1.817   0.710  0.3134  0.6039 -1.2760
 3788SOL    MW414920   2.232   1.751   0.677 -0.1187 -0.1607 -0.4166
 3789SOL     OW14921   3.665   1.377   1.638  0.4336 -0.2737  0.2257
 3789SOL    HW214922   3.631   1.311   1.698 -2.0643 -0.1646 -0.9309
 3789SOL    HW314923   3.668   1.458   1.689  1.4985 -0.8146  1.0600
 3789SOL    MW414924   3.661   1.379   1.652  0.2445 -0.3307  0.1832
 3790SOL     OW14925   0.506   6.353   4.149 -0.7843  0.1715 -0.9290
 3790SOL    HW214926   0.424   6.320   4.185 -1.6369  1.6250 -1.4468
 3790SOL    HW314927   0.565   6.358   4.225 -1.4304 -0.1423 -0.3949
 3790SOL    MW414928   0.503   6.349   4.164 -0.9820  0.3219 -0.9269
 3791SOL     OW14929   6.312   0.440   2.958  0.7552  0.3994 -0.0312
 3791SOL    HW214930   6.401   0.433   2.993 -0.3292 -1.4916  2.6553
 3791SOL    HW314931   6.266   0.494   3.022 -0.2649  0.7258 -1.0082
 3791SOL    MW414932   6.318   0.446   2.971  0.4775  0.1930  0.1944
 3792SOL     OW14933   2.049   3.404   6.304  0.0911  0.0142  0.0390
 3792SOL    HW214934   2.044   3.406   6.399  0.3011  0.4818  0.0434
 3792SOL    HW314935   2.143   3.413   6.285  0.0703 -0.2719 -0.2066
 3792SOL    MW414936   2.061   3.405   6.314  0.1161  0.0381  0.0072
 3793SOL     OW14937   5.566   2.019   3.624 -0.0206  0.3420 -0.2614
 3793SOL    HW214938   5.632   1.987   3.685 -2.0228  1.5513  2.7702
 3793SOL    HW314939   5.549   1.944   3.566  1.2847 -1.2409  1.2755
 3793SOL    MW414940   5.572   2.005   3.624 -0.1125  0.2927  0.3414
 3794SOL     OW14941   1.448   2.136   2.483 -0.2983 -0.5003 -0.0456
 3794SOL    HW214942   1.423   2.203   2.546 -1.8383 -0.3138 -0.8296
 3794SOL    HW314943   1.502   2.182   2.419  0.4285 -0.4824  0.5606
 3794SOL    MW414944   1.452   2.151   2.483 -0.4056 -0.4733 -0.0690
 3795SOL     OW14945   6.406   5.838   2.051  0.0788  0.6471  0.8342
 3795SOL    HW214946   6.357   5.889   1.987 -0.1775  1.4375  1.6461
 3795SOL    HW314947   6.378   5.748   2.035 -1.9227  1.0865  1.4722
 3795SOL    MW414948   6.396   5.833   2.041 -0.2191  0.8094  1.0255
 3796SOL     OW14949   4.233   3.972   4.010 -0.0108  0.2491 -0.2281
 3796SOL    HW214950   4.220   4.002   4.100 -1.3596 -1.4225  0.2077
 3796SOL    HW314951   4.146   3.980   3.971 -0.1324 -1.7798 -0.4492
 3796SOL    MW414952   4.219   3.977   4.017 -0.2048 -0.2392 -0.1998
 3797SOL     OW14953   5.720   4.555   2.954  0.3775  0.3804 -0.0642
 3797SOL    HW214954   5.641   4.552   3.007 -0.5302 -1.3823 -1.4258
 3797SOL    HW314955   5.724   4.646   2.922  0.5326  1.2607  2.2897
 3797SOL    MW414956   5.710   4.567   2.957  0.2782  0.2640  0.0667
 3798SOL     OW14957   3.581   3.593   0.209  0.2159  0.0624  0.3748
 3798SOL    HW214958   3.595   3.619   0.117  0.0673  0.1677  0.3833
 3798SOL    HW314959   3.624   3.661   0.260 -0.6920  0.6101  0.4119
 3798SOL    MW414960   3.589   3.605   0.203  0.0765  0.1486  0.3808
 3799SOL     OW14961   2.053   5.140   5.780 -0.6239 -0.4251  0.2579
 3799SOL    HW214962   2.120   5.109   5.841  1.0146  1.7685 -0.3251
 3799SOL    HW314963   2.034   5.229   5.808 -0.9374  0.1089 -1.5351
 3799SOL    MW414964   2.059   5.148   5.792 -0.4490 -0.0653 -0.0556
 3800SOL     OW14965   2.370   5.545   3.532  0.2194  0.1419  0.0270
 3800SOL    HW214966   2.333   5.630   3.510 -0.5981  0.0638  1.0291
 3800SOL    HW314967   2.413   5.558   3.617  0.5592 -0.3086 -0.0699
 3800SOL    MW414968   2.371   5.558   3.540  0.1564  0.0721  0.1465
 3801SOL     OW14969   0.031   1.890   5.674 -0.1530 -0.9832 -0.3759
 3801SOL    HW214970   0.124   1.898   5.655 -0.5888 -0.5518 -2.5149
 3801SOL    HW314971   0.027   1.827   5.747  1.8301 -0.2813  0.3956
 3801SOL    MW414972   0.042   1.882   5.681  0.0512 -0.8336 -0.5563
 3802SOL     OW14973   4.928   4.728   2.104 -0.6872  0.1437  0.5348
 3802SOL    HW214974   4.841   4.761   2.125 -1.1907  1.5321 -3.0721
 3802SOL    HW314975   4.912   4.648   2.053  0.0906  0.6228 -0.5031
 3802SOL    MW414976   4.915   4.722   2.100 -0.6510  0.3901 -0.0780
 3803SOL     OW14977   3.656   2.612   1.037 -0.2583 -0.2709 -0.0613
 3803SOL    HW214978   3.636   2.593   1.128 -0.8220  2.4444  0.4888
 3803SOL    HW314979   3.751   2.601   1.031  0.3589  2.7294  1.8692
 3803SOL    MW414980   3.666   2.608   1.048 -0.2512  0.4832  0.2660
 3804SOL     OW14981   2.518   4.931   4.457 -0.2763 -0.6231  0.0019
 3804SOL    HW214982   2.433   4.975   4.467 -0.0522 -0.0683 -0.5006
 3804SOL    HW314983   2.577   4.981   4.514 -0.4227 -1.4182  0.8794
 3804SOL    MW414984   2.514   4.944   4.466 -0.2661 -0.6548  0.0514
 3805SOL     OW14985   2.095   2.898   1.198 -0.2820  0.3007  0.0475
 3805SOL    HW214986   2.017   2.885   1.145 -1.0186  1.3563  0.8348
 3805SOL    HW314987   2.161   2.931   1.136 -0.6834  0.1155 -0.4783
 3805SOL    MW414988   2.094   2.901   1.183 -0.4321  0.4156  0.0820
 3806SOL     OW14989   0.713   0.820   3.591 -0.5244 -0.4438  1.1778
 3806SOL    HW214990   0.632   0.870   3.584 -0.9523 -1.2048  0.5264
 3806SOL    HW314991   0.782   0.885   3.578 -1.0968 -0.2130 -1.2583
 3806SOL    MW414992   0.712   0.835   3.588 -0.6564 -0.5137  0.7704
 3807SOL     OW14993   4.537   1.469   1.328  0.2886  0.0851 -0.0199
 3807SOL    HW214994   4.565   1.501   1.414 -0.0409 -0.2043  0.1928
 3807SOL    HW314995   4.442   1.457   1.336  0.4770 -1.5937  0.1218
 3807SOL    MW414996   4.528   1.472   1.340  0.2700 -0.1746  0.0269
 3808SOL     OW14997   5.885   1.151   2.852 -0.4239 -0.1150  0.3161
 3808SOL    HW214998   5.911   1.133   2.942  0.4427  1.9548  0.5458
 3808SOL    HW314999   5.948   1.217   2.822 -1.5951  0.3303 -1.3146
 3808SOL    MW415000   5.897   1.158   2.860 -0.4641  0.2169  0.1312
 3809SOL     OW15001   0.202   2.072   5.358 -0.0937  0.3067 -0.1760
 3809SOL    HW215002   0.221   1.996   5.303 -1.2742  0.2018 -0.4846
 3809SOL    HW315003   0.221   2.042   5.447  0.4857  0.0095 -0.3957
 3809SOL    MW415004   0.207   2.058   5.363 -0.1730  0.2536 -0.2457
 3810SOL     OW15005   6.204  -0.018   1.566  0.0117  0.5330 -0.0418
 3810SOL    HW215006   6.163  -0.048   1.485  0.5393  0.9457 -0.4791
 3810SOL    HW315007   6.291  -0.058   1.564 -0.8443 -1.5473  1.6081
 3810SOL    MW415008   6.210  -0.027   1.555 -0.0317  0.3130  0.1182
 3811SOL     OW15009   4.005   1.755   5.989 -0.5116 -0.6276  0.6284
 3811SOL    HW215010   4.049   1.702   5.922 -0.8370 -0.4050  0.2351
 3811SOL    HW315011   4.077   1.797   6.037 -0.1671 -2.5573  1.9249
 3811SOL    MW415012   4.021   1.753   5.986 -0.5091 -0.8529  0.7476
 3812SOL     OW15013   3.895   2.395   1.872 -0.6013 -0.0745  0.2275
 3812SOL    HW215014   3.939   2.326   1.922 -0.8586  0.0415  0.6139
 3812SOL    HW315015   3.899   2.365   1.781  0.0874 -0.1668  0.2840
 3812SOL    MW415016   3.902   2.382   1.867 -0.5444 -0.0714  0.2859
 3813SOL     OW15017   5.102   4.594   2.275  0.2273  0.0498  0.1380
 3813SOL    HW215018   5.028   4.627   2.225 -1.9024 -3.0620  0.9495
 3813SOL    HW315019   5.065   4.527   2.332  3.4495 -0.5600  1.7634
 3813SOL    MW415020   5.088   4.589   2.276  0.3715 -0.4412  0.4595
 3814SOL     OW15021   1.894   4.394   5.226  0.1273 -0.1975 -0.6348
 3814SOL    HW215022   1.946   4.473   5.237  1.0298 -0.8724  0.1586
 3814SOL    HW315023   1.959   4.323   5.223 -0.7069 -0.9949 -0.3766
 3814SOL    MW415024   1.910   4.395   5.227  0.1363 -0.3918 -0.4961
 3815SOL     OW15025   4.656   4.220   3.983  0.0344 -0.4045 -0.4780
 3815SOL    HW215026   4.619   4.208   4.071 -0.5414  1.9566 -0.3297
 3815SOL    HW315027   4.721   4.151   3.975 -1.0508 -1.7077  1.1516
 3815SOL    MW415028   4.659   4.209   3.994 -0.1847 -0.2649 -0.2434
 3816SOL     OW15029   1.826   4.604   1.639 -0.5690  0.1073 -0.1418
 3816SOL    HW215030   1.904   4.562   1.676 -0.6033 -1.2282 -1.4568
 3816SOL    HW315031   1.781   4.533   1.593 -1.3684  1.3252 -1.3004
 3816SOL    MW415032   1.831   4.589   1.638 -0.6790  0.0918 -0.4682
 3817SOL     OW15033   5.851   5.675   4.567  0.4702  0.2589  0.5266
 3817SOL    HW215034   5.813   5.601   4.615  0.1197  1.4116  2.1255
 3817SOL    HW315035   5.816   5.752   4.612  1.5471  1.3947 -0.5230
 3817SOL    MW415036   5.841   5.675   4.580  0.5660  0.5608  0.5991
 3818SOL     OW15037   4.216   5.939   4.117  0.1964 -0.3955  0.0121
 3818SOL    HW215038   4.204   5.868   4.055  1.4812 -1.7742  1.2686
 3818SOL    HW315039   4.296   5.984   4.088  1.0814 -1.3463  0.8865
 3818SOL    MW415040   4.225   5.936   4.105  0.4827 -0.7028  0.2933
 3819SOL     OW15041   1.589   4.417   0.767 -0.1371  0.1834 -0.0006
 3819SOL    HW215042   1.624   4.506   0.769 -1.4290  0.7071  0.1872
 3819SOL    HW315043   1.494   4.428   0.770 -0.3221 -1.2057  0.0490
 3819SOL    MW415044   1.581   4.430   0.767 -0.3320  0.0692  0.0307
 3820SOL     OW15045   1.469   2.548   5.278 -0.5336 -0.0025 -0.5307
 3820SOL    HW215046   1.411   2.541   5.202  1.0632  0.6157 -1.8758
 3820SOL    HW315047   1.477   2.642   5.293 -0.0712 -0.0918 -0.2036
 3820SOL    MW415048   1.462   2.560   5.270 -0.2619  0.0673 -0.6650
 3821SOL     OW15049   5.166   3.852   5.310  0.4239 -0.0805 -0.1425
 3821SOL    HW215050   5.216   3.932   5.323  1.5225 -0.6689 -0.5746
 3821SOL    HW315051   5.226   3.794   5.262 -0.6887 -0.8010 -0.7040
 3821SOL    MW415052   5.181   3.855   5.305  0.4221 -0.2532 -0.2736
 3822SOL     OW15053   3.331   2.178   0.621 -0.0790 -0.3470  0.3644
 3822SOL    HW215054   3.391   2.119   0.576 -0.3724 -1.2272  1.1020
 3822SOL    HW315055   3.257   2.187   0.560 -0.9666 -2.3867  1.0537
 3822SOL    MW415056   3.329   2.171   0.607 -0.2348 -0.7322  0.5527
 3823SOL     OW15057   2.633   2.569   4.155 -0.2871 -0.2147  0.3735
 3823SOL    HW215058   2.538   2.564   4.150 -0.2744 -0.2323  0.1720
 3823SOL    HW315059   2.649   2.643   4.214 -0.4232  0.0446  0.0916
 3823SOL    MW415060   2.623   2.578   4.162 -0.3034 -0.1828  0.3097
 3824SOL     OW15061   5.491   6.201   1.686  0.0159 -0.1821 -0.0553
 3824SOL    HW215062   5.502   6.237   1.774 -1.4651  2.1873 -0.7315
 3824SOL    HW315063   5.572   6.153   1.669  1.3311  1.2801  1.7251
 3824SOL    MW415064   5.503   6.200   1.696 -0.0060  0.3234  0.0904
 3825SOL     OW15065   0.452   1.968   2.951 -0.3237  0.4339  0.0809
 3825SOL    HW215066   0.527   1.914   2.925 -0.9691 -0.1630 -0.6143
 3825SOL    HW315067   0.437   2.026   2.876 -1.8415 -0.8997 -0.7059
 3825SOL    MW415068   0.460   1.968   2.938 -0.6091  0.1792 -0.1146
 3826SOL     OW15069   4.407   1.260   3.595 -0.0980 -0.1993  0.0256
 3826SOL    HW215070   4.458   1.180   3.591 -0.4791 -0.4677  0.4315
 3826SOL    HW315071   4.467   1.325   3.633 -0.4330 -0.8351  1.7456
 3826SOL    MW415072   4.422   1.258   3.599 -0.1925 -0.3186  0.3061
 3827SOL     OW15073   1.572   6.260   4.273 -1.0222 -0.1756  0.1879
 3827SOL    HW215074   1.549   6.344   4.234 -1.8024 -0.5791 -0.2509
 3827SOL    HW315075   1.563   6.197   4.201  2.8361 -0.2427 -0.4681
 3827SOL    MW415076   1.568   6.263   4.258 -0.6161 -0.2377  0.0435
 3828SOL     OW15077   3.209   5.998   0.234 -0.5136 -0.3221  0.1023
 3828SOL    HW215078   3.202   6.023   0.326 -0.0663  0.3091 -0.0208
 3828SOL    HW315079   3.284   5.939   0.230  1.4041  1.9510 -0.2495
 3828SOL    MW415080   3.218   5.994   0.245 -0.2016  0.0611  0.0397
 3829SOL     OW15081   1.207   2.039   0.354 -0.3957  0.2488 -0.1026
 3829SOL    HW215082   1.255   2.027   0.271 -0.7271  1.5541 -0.5001
 3829SOL    HW315083   1.275   2.034   0.421  0.1157  0.7174 -0.5676
 3829SOL    MW415084   1.223   2.037   0.352 -0.3720  0.4829 -0.2164
 3830SOL     OW15085   2.020   2.614   3.084  0.4181 -0.0324 -0.7722
 3830SOL    HW215086   1.939   2.587   3.040 -0.0578  1.5320 -0.9056
 3830SOL    HW315087   2.010   2.708   3.099  1.2445 -0.2169  1.2964
 3830SOL    MW415088   2.008   2.623   3.080  0.4643  0.1496 -0.5169
 3831SOL     OW15089   0.619   6.298   2.248  0.3017 -0.2234 -0.1148
 3831SOL    HW215090   0.552   6.335   2.306  1.0510  1.3960 -0.2170
 3831SOL    HW315091   0.585   6.316   2.160  0.4618 -0.1598 -0.1645
 3831SOL    MW415092   0.605   6.306   2.244  0.4217 -0.0013 -0.1348
 3832SOL     OW15093   4.839   6.295   2.860  0.1631 -0.6989 -0.3684
 3832SOL    HW215094   4.887   6.250   2.790  0.4504  1.3408 -1.5755
 3832SOL    HW315095   4.779   6.354   2.813 -0.6037 -0.2480  1.1183
 3832SOL    MW415096   4.838   6.297   2.844  0.0998 -0.3703 -0.3315
 3833SOL     OW15097   5.633   2.701   5.562 -0.5764  0.4236  0.0225
 3833SOL    HW215098   5.663   2.714   5.472  1.8855  1.1015  0.8384
 3833SOL    HW315099   5.671   2.618   5.589 -0.2299  0.8089  0.7885
 3833SOL    MW415100   5.642   2.692   5.554 -0.2059  0.5638  0.2312
 3834SOL     OW15101   0.792   0.489   2.392  0.2233  0.2895  0.2947
 3834SOL    HW215102   0.741   0.520   2.317 -0.4109  1.7767  1.2845
 3834SOL    HW315103   0.867   0.444   2.353 -1.8668 -2.0963 -1.2050
 3834SOL    MW415104   0.796   0.487   2.377 -0.1361  0.1710  0.2274
 3835SOL     OW15105   1.477   2.119   1.276 -0.0640  0.3657  0.0074
 3835SOL    HW215106   1.407   2.149   1.333 -0.5477 -2.5364  1.1343
 3835SOL    HW315107   1.448   2.145   1.188 -2.3154 -0.2261  0.4938
 3835SOL    MW415108   1.464   2.126   1.272 -0.4248 -0.0953  0.2202
 3836SOL     OW15109   3.477   6.021   4.849  0.2418  0.1676 -0.4957
 3836SOL    HW215110   3.557   6.073   4.847  0.1007  0.3860 -0.4659
 3836SOL    HW315111   3.415   6.073   4.901 -0.2964  0.5531 -1.4903
 3836SOL    MW415112   3.479   6.035   4.855  0.1522  0.2473 -0.6230
 3837SOL     OW15113   4.632   4.347   5.627  0.3959  0.3363  0.2532
 3837SOL    HW215114   4.687   4.338   5.705  0.9322  0.7519 -0.0630
 3837SOL    HW315115   4.657   4.433   5.591  1.7618 -0.7403 -1.5653
 3837SOL    MW415116   4.643   4.357   5.633  0.6469  0.2491 -0.0285
 3838SOL     OW15117   0.072   4.540   2.518 -0.0091 -0.3891  0.1167
 3838SOL    HW215118   0.059   4.447   2.497 -3.9081  0.0699 -0.1707
 3838SOL    HW315119   0.153   4.563   2.472 -1.0461 -2.6948 -3.2956
 3838SOL    MW415120   0.081   4.531   2.509 -0.6604 -0.6327 -0.3714
 3839SOL     OW15121   5.165   4.083   5.959 -0.4272 -0.1077  0.3244
 3839SOL    HW215122   5.104   4.028   6.009 -0.9358 -0.6620 -0.8654
 3839SOL    HW315123   5.121   4.168   5.954 -0.0546  0.1636  1.3896
 3839SOL    MW415124   5.151   4.087   5.965 -0.4452 -0.1450  0.3079
 3840SOL     OW15125   4.156   3.205   2.933  0.1267 -0.5776  0.1793
 3840SOL    HW215126   4.224   3.143   2.907 -2.9471 -3.6324 -1.2973
 3840SOL    HW315127   4.134   3.181   3.023 -0.3254 -0.9488 -0.0251
 3840SOL    MW415128   4.162   3.194   2.941 -0.3385 -1.0296 -0.0425
 3841SOL     OW15129   1.290   6.371   2.791  0.1622  0.7654  0.0454
 3841SOL    HW215130   1.312   6.365   2.884  1.3622 -2.3403 -0.3137
 3841SOL    HW315131   1.375   6.372   2.746 -0.4011  0.4831 -1.0706
 3841SOL    MW415132   1.304   6.370   2.797  0.2462  0.3184 -0.1492
 3842SOL     OW15133   0.029   1.827   1.403 -0.3929  0.1815 -0.1642
 3842SOL    HW215134  -0.020   1.746   1.414 -1.7840  1.0596  0.3595
 3842SOL    HW315135  -0.013   1.889   1.463  1.4087  0.9617  0.3723
 3842SOL    MW415136   0.017   1.825   1.413 -0.3387  0.4003 -0.0243
 3843SOL     OW15137   1.097   3.628   0.840 -0.0524  0.0600 -0.4064
 3843SOL    HW215138   1.062   3.601   0.925  0.2915 -1.6653 -0.7733
 3843SOL    HW315139   1.061   3.565   0.778  2.1547 -0.6623 -1.0640
 3843SOL    MW415140   1.088   3.616   0.843  0.2842 -0.2629 -0.5416
 3844SOL     OW15141   0.181   1.672   2.073 -0.9858 -0.5555  0.3893
 3844SOL    HW215142   0.103   1.640   2.120 -1.0956  0.2189  0.7526
 3844SOL    HW315143   0.254   1.646   2.129 -1.0535 -0.4871  0.5125
 3844SOL    MW415144   0.180   1.664   2.087 -1.0092 -0.4443  0.4535
 3845SOL     OW15145   2.459   4.702   5.340 -0.1013 -0.2088  0.8319
 3845SOL    HW215146   2.383   4.761   5.348  0.0652  0.4775 -1.7921
 3845SOL    HW315147   2.530   4.758   5.309  0.3433 -1.5647 -0.7607
 3845SOL    MW415148   2.458   4.717   5.337 -0.0207 -0.2971  0.2756
 3846SOL     OW15149   3.902   2.535   0.905 -0.3450  0.0123  0.0230
 3846SOL    HW215150   3.969   2.468   0.918 -1.1281 -0.6828  0.5786
 3846SOL    HW315151   3.923   2.574   0.820  2.0048  1.2723  1.0968
 3846SOL    MW415152   3.914   2.532   0.895 -0.1383  0.0868  0.2380
 3847SOL     OW15153   0.027   2.056   0.789  0.1223  0.5883 -0.1219
 3847SOL    HW215154   0.089   2.098   0.848  0.9652 -1.3656  0.4444
 3847SOL    HW315155   0.070   2.056   0.704  0.0180  1.0597 -0.1769
 3847SOL    MW415156   0.041   2.062   0.785  0.2197  0.3927 -0.0544
 3848SOL     OW15157   1.952   5.678   2.364 -0.1021 -0.7555 -0.2528
 3848SOL    HW215158   2.017   5.660   2.296 -1.2900  0.8284 -1.9018
 3848SOL    HW315159   1.990   5.748   2.416  0.1569 -0.8805 -0.2747
 3848SOL    MW415160   1.965   5.685   2.362 -0.2246 -0.5630 -0.4733
 3849SOL     OW15161   4.904   0.663   4.594  0.0577 -0.1647 -0.2677
 3849SOL    HW215162   4.919   0.589   4.653  0.9295  0.1723 -0.0569
 3849SOL    HW315163   4.857   0.727   4.648 -0.3042 -0.3840 -0.3214
 3849SOL    MW415164   4.900   0.661   4.609  0.1250 -0.1492 -0.2470
 3850SOL     OW15165   6.157   0.458   4.160  0.2123  0.2792 -1.0712
 3850SOL    HW215166   6.064   0.442   4.178 -0.0625  2.9950  0.5727
 3850SOL    HW315167   6.197   0.371   4.159 -2.0602 -0.8640 -0.0569
 3850SOL    MW415168   6.150   0.445   4.163 -0.1238  0.4867 -0.7205
 3851SOL     OW15169   4.042   3.363   4.764 -0.2643  0.5565 -0.0792
 3851SOL    HW215170   4.123   3.340   4.809 -0.3945 -2.0162 -1.0023
 3851SOL    HW315171   4.057   3.452   4.731  0.8643  1.4433  2.5614
 3851SOL    MW415172   4.055   3.372   4.765 -0.1326  0.3341  0.1474
 3852SOL     OW15173   5.146   3.295   1.343 -0.0261  0.3229 -0.6497
 3852SOL    HW215174   5.077   3.231   1.361 -1.3838  1.5476 -1.2480
 3852SOL    HW315175   5.196   3.257   1.271 -0.2186 -0.4624 -0.3846
 3852SOL    MW415176   5.143   3.281   1.336 -0.2306  0.3809 -0.6936
 3853SOL     OW15177   2.975   1.366   4.225 -1.1834  0.1301  0.3349
 3853SOL    HW215178   3.032   1.442   4.229  1.6202 -1.5638 -2.5586
 3853SOL    HW315179   2.932   1.374   4.139  0.5798 -2.2790 -0.8965
 3853SOL    MW415180   2.976   1.377   4.214 -0.5809 -0.4112 -0.2093
 3854SOL     OW15181   4.091   2.137   4.743  0.4767  0.0888  0.1963
 3854SOL    HW215182   4.066   2.230   4.743  0.1974  0.0412 -1.6637
 3854SOL    HW315183   4.121   2.120   4.654 -0.0243 -1.7795  0.3483
 3854SOL    MW415184   4.092   2.147   4.732  0.3738 -0.1639 -0.0291
 3855SOL     OW15185   6.284   3.784   3.289  0.0435 -0.3922 -0.1921
 3855SOL    HW215186   6.284   3.700   3.335  0.5243 -1.0011 -1.2567
 3855SOL    HW315187   6.345   3.771   3.216  0.7221  1.1453  0.0767
 3855SOL    MW415188   6.292   3.771   3.285  0.1964 -0.2697 -0.2971
 3856SOL     OW15189   4.277   5.695   3.056 -0.4609 -0.4393 -0.3617
 3856SOL    HW215190   4.309   5.785   3.048  0.1485 -0.3539  2.0937
 3856SOL    HW315191   4.322   5.648   2.986 -0.1609  0.9982 -1.1908
 3856SOL    MW415192   4.287   5.701   3.046 -0.3409 -0.2384 -0.1471
 3857SOL     OW15193   6.015   5.047   1.069 -0.1314 -0.5943 -0.2538
 3857SOL    HW215194   6.089   5.104   1.091 -0.1692 -1.1263  1.3910
 3857SOL    HW315195   6.036   5.012   0.983  0.6244  0.7139 -0.6319
 3857SOL    MW415196   6.028   5.050   1.061 -0.0367 -0.4919 -0.0867
 3858SOL     OW15197   1.874   3.501   6.126 -0.0291 -0.2249  0.1457
 3858SOL    HW215198   1.911   3.491   6.039  1.1577  1.0426  0.4641
 3858SOL    HW315199   1.939   3.463   6.185 -1.7319 -2.9975  0.4220
 3858SOL    MW415200   1.888   3.495   6.122 -0.0972 -0.4235  0.2241
 3859SOL     OW15201   2.434   5.009   1.873  0.0746 -0.1297  0.1613
 3859SOL    HW215202   2.477   4.990   1.957  1.0796  0.8484 -0.1073
 3859SOL    HW315203   2.353   4.959   1.876  1.0318 -1.7311  0.8670
 3859SOL    MW415204   2.429   4.999   1.885  0.3335 -0.2119  0.2190
 3860SOL     OW15205   0.417   2.229   4.945  0.3040  0.0417 -0.0443
 3860SOL    HW215206   0.406   2.261   5.034 -0.8350 -2.1226  0.6667
 3860SOL    HW315207   0.508   2.249   4.923 -0.0778  2.8428  0.6142
 3860SOL    MW415208   0.428   2.236   4.954  0.1033  0.1257  0.1364
 3861SOL     OW15209   2.379   5.664   0.279  0.0935  0.4629  0.2241
 3861SOL    HW215210   2.307   5.620   0.235  0.2787  0.4584 -0.0843
 3861SOL    HW315211   2.457   5.634   0.231  0.1658  1.6460 -0.4363
 3861SOL    MW415212   2.380   5.654   0.267  0.1275  0.6184  0.0963
 3862SOL     OW15213   0.583   3.963   3.753 -0.0616 -0.1413 -0.6320
 3862SOL    HW215214   0.584   3.982   3.847 -0.3975  1.9801 -0.9988
 3862SOL    HW315215   0.663   3.913   3.739  0.7776  0.7617  0.5919
 3862SOL    MW415216   0.594   3.959   3.764  0.0048  0.2577 -0.5189
 3863SOL     OW15217   1.885   0.794   6.274 -0.1125 -0.0120 -0.1997
 3863SOL    HW215218   1.792   0.811   6.285  0.0655  0.9273 -0.0833
 3863SOL    HW315219   1.911   0.749   6.355 -0.4985 -0.4267 -0.3073
 3863SOL    MW415220   1.876   0.790   6.286 -0.1399  0.0572 -0.1985
 3864SOL     OW15221   2.982   2.806   2.579  0.6572  0.3817 -0.0940
 3864SOL    HW215222   2.940   2.882   2.617 -0.5646 -0.5235  0.4317
 3864SOL    HW315223   2.919   2.774   2.513  1.2763 -0.0081 -0.5134
 3864SOL    MW415224   2.968   2.811   2.575  0.5777  0.2108 -0.0800
 3865SOL     OW15225   2.639   3.164   1.348 -0.2867 -0.1164  0.1909
 3865SOL    HW215226   2.574   3.187   1.415  0.9318  1.7235  0.7962
 3865SOL    HW315227   2.590   3.167   1.266 -1.3527 -0.4912  0.7789
 3865SOL    MW415228   2.624   3.167   1.346 -0.2666  0.0769  0.3483
 3866SOL     OW15229   3.168   1.762   4.832  0.3806  0.1064  0.2712
 3866SOL    HW215230   3.078   1.737   4.812  0.4133 -0.7008  1.0827
 3866SOL    HW315231   3.168   1.780   4.926  1.3436 -1.2580  0.5690
 3866SOL    MW415232   3.156   1.761   4.842  0.5119 -0.1801  0.4175
 3867SOL     OW15233   1.829   1.684   2.097  0.1079  0.3991 -0.3380
 3867SOL    HW215234   1.824   1.706   2.004  0.1007 -0.3215 -0.5103
 3867SOL    HW315235   1.845   1.590   2.099  0.2484  0.4321  0.3898
 3867SOL    MW415236   1.830   1.675   2.085  0.1255  0.3083 -0.2647
 3868SOL     OW15237   6.244   3.893   2.331  0.1151  0.4108 -0.5476
 3868SOL    HW215238   6.292   3.959   2.282  0.1052 -0.1176 -1.2925
 3868SOL    HW315239   6.155   3.898   2.298 -0.0168  0.4072 -0.2021
 3868SOL    MW415240   6.239   3.902   2.321  0.0964  0.3406 -0.6003
 3869SOL     OW15241   4.767   2.621   4.741  0.2709  0.0897 -0.6539
 3869SOL    HW215242   4.694   2.645   4.798 -0.1268 -0.5783 -0.8698
 3869SOL    HW315243   4.799   2.705   4.707  0.6159  0.5096  0.6537
 3869SOL    MW415244   4.761   2.636   4.744  0.2640  0.0570 -0.5099
 3870SOL     OW15245   6.078   2.464   1.468 -0.5299  0.0015 -0.0084
 3870SOL    HW215246   6.116   2.531   1.525  0.7124  0.7414 -1.6216
 3870SOL    HW315247   5.984   2.469   1.484 -0.4097  1.7211  0.3831
 3870SOL    MW415248   6.071   2.474   1.477 -0.3501  0.3260 -0.1696
 3871SOL     OW15249   6.152   3.303   3.467  0.1798 -0.3479  0.4063
 3871SOL    HW215250   6.152   3.262   3.554  0.3540 -0.5236  0.3248
 3871SOL    HW315251   6.187   3.236   3.409 -1.8042 -0.9458 -0.1527
 3871SOL    MW415252   6.157   3.289   3.471 -0.0590 -0.4500  0.3218
 3872SOL     OW15253   2.122   5.852   1.819  0.6028  0.1443 -0.6053
 3872SOL    HW215254   2.168   5.923   1.774  1.3278  0.1082  0.0504
 3872SOL    HW315255   2.159   5.852   1.907  0.2596 -0.7341 -0.4523
 3872SOL    MW415256   2.133   5.861   1.825  0.6532  0.0237 -0.4986
 3873SOL     OW15257   5.443   4.593   6.065  0.4580  0.0766  0.0671
 3873SOL    HW215258   5.497   4.648   6.122  0.8728  1.1487 -1.3066
 3873SOL    HW315259   5.425   4.648   5.989 -0.5905 -1.1053 -0.5714
 3873SOL    MW415260   5.447   4.607   6.063  0.3744  0.0621 -0.1984
 3874SOL     OW15261   4.261   1.384   1.246  0.2061 -0.1002 -0.3497
 3874SOL    HW215262   4.220   1.436   1.314 -1.3425 -0.9447 -0.6022
 3874SOL    HW315263   4.262   1.441   1.169  0.6785  0.3621 -0.0097
 3874SOL    MW415264   4.256   1.398   1.245  0.0641 -0.1506 -0.3381
 3875SOL     OW15265   2.950   5.132   0.488 -0.5525  0.0339 -0.1382
 3875SOL    HW215266   2.946   5.038   0.470  1.9544 -0.5507  1.6871
 3875SOL    HW315267   2.936   5.138   0.583 -0.8635  1.5353 -0.2646
 3875SOL    MW415268   2.948   5.120   0.499 -0.2628  0.1549  0.0859
 3876SOL     OW15269   2.351   1.253   3.074 -0.2663  0.0263 -0.2314
 3876SOL    HW215270   2.378   1.337   3.038 -0.9547  0.0269 -0.7862
 3876SOL    HW315271   2.368   1.190   3.004 -0.6662 -0.1337 -0.1932
 3876SOL    MW415272   2.357   1.256   3.060 -0.4099  0.0053 -0.2996
 3877SOL     OW15273   5.136   3.107   0.923 -0.2929 -0.0249 -0.0754
 3877SOL    HW215274   5.070   3.149   0.867 -1.4278 -0.8189  0.6191
 3877SOL    HW315275   5.216   3.108   0.870 -1.4583 -1.2593 -1.9763
 3877SOL    MW415276   5.138   3.113   0.908 -0.5964 -0.2925 -0.2346
 3878SOL     OW15277   4.719   0.156   6.173  0.2609 -0.2469  0.2370
 3878SOL    HW215278   4.801   0.174   6.221  0.1623 -0.3505  0.4466
 3878SOL    HW315279   4.654   0.141   6.242 -0.3637  1.6094  0.1138
 3878SOL    MW415280   4.722   0.157   6.189  0.1655 -0.0157  0.2484
 3879SOL     OW15281   2.624   3.131   2.068 -0.0324  0.0667 -0.1303
 3879SOL    HW215282   2.555   3.066   2.082 -1.0751  1.4840  1.7643
 3879SOL    HW315283   2.626   3.181   2.150  4.2105 -0.7534  0.4683
 3879SOL    MW415284   2.615   3.129   2.081  0.3898  0.1455  0.1987
 3880SOL     OW15285   6.273   5.326   1.733 -0.6671 -0.8084  0.7189
 3880SOL    HW215286   6.287   5.236   1.763 -0.8043 -0.6716  1.1996
 3880SOL    HW315287   6.183   5.345   1.757 -0.1273  0.0626  2.2358
 3880SOL    MW415288   6.263   5.317   1.740 -0.6140 -0.6754  0.9825
 3881SOL     OW15289   1.454   1.800   2.615  0.1144  0.0892  0.7773
 3881SOL    HW215290   1.484   1.735   2.552 -0.5550  0.3729  0.1550
 3881SOL    HW315291   1.519   1.870   2.610  1.9332 -1.3008  2.8349
 3881SOL    MW415292   1.467   1.801   2.606  0.2660 -0.0568  0.9667
 3882SOL     OW15293   4.217   5.222   2.207  0.4637 -0.3232 -0.0049
 3882SOL    HW215294   4.168   5.231   2.125 -1.1862  1.2968  1.0774
 3882SOL    HW315295   4.277   5.297   2.207  0.0970 -0.0242  0.4827
 3882SOL    MW415296   4.218   5.233   2.196  0.1976 -0.0700  0.2022
 3883SOL     OW15297   5.305   0.984   0.916 -0.1923 -0.1423  0.0199
 3883SOL    HW215298   5.245   1.058   0.905  0.5732  0.5824  0.5410
 3883SOL    HW315299   5.266   0.913   0.866 -0.2795  0.9987 -1.6121
 3883SOL    MW415300   5.292   0.984   0.908 -0.1028  0.1038 -0.1267
 3884SOL     OW15301   3.796   5.748   3.210  0.1613 -0.6137 -0.1507
 3884SOL    HW215302   3.774   5.757   3.303 -0.6278 -1.1336 -0.2769
 3884SOL    HW315303   3.858   5.674   3.208  0.6248 -0.2334  0.0214
 3884SOL    MW415304   3.802   5.739   3.222  0.1184 -0.6321 -0.1446
 3885SOL     OW15305   3.493   2.941   5.053 -0.6140 -0.0543 -0.2242
 3885SOL    HW215306   3.402   2.916   5.034 -0.9224  1.6444 -1.1843
 3885SOL    HW315307   3.542   2.914   4.976 -0.6903  0.8555 -0.6098
 3885SOL    MW415308   3.487   2.934   5.041 -0.6648  0.2899 -0.4017
 3886SOL     OW15309   3.617   2.123   6.006 -0.3282 -0.0189 -0.6388
 3886SOL    HW215310   3.587   2.085   5.923 -0.4287  0.6182 -0.8970
 3886SOL    HW315311   3.708   2.148   5.989  0.1235 -1.2210 -0.1002
 3886SOL    MW415312   3.625   2.121   5.993 -0.2819 -0.0935 -0.6018
 3887SOL     OW15313   4.075   2.895   3.245  0.9954  0.3898 -0.0969
 3887SOL    HW215314   4.058   2.871   3.336 -2.1292 -0.6422 -0.8470
 3887SOL    HW315315   4.094   2.812   3.202 -0.4499  0.4534 -0.9028
 3887SOL    MW415316   4.075   2.881   3.252  0.3924  0.2620 -0.3022
 3888SOL     OW15317   5.443   4.252   3.203 -0.2067  0.0239  0.1074
 3888SOL    HW215318   5.449   4.312   3.278  1.6793 -0.1573  0.1281
 3888SOL    HW315319   5.349   4.237   3.193 -0.5687  0.9340  1.7348
 3888SOL    MW415320   5.431   4.258   3.212 -0.0057  0.1200  0.3249
 3889SOL     OW15321   6.209   5.413   5.713  0.0342  0.0655 -0.5068
 3889SOL    HW215322   6.208   5.500   5.673  1.5495 -0.3671 -1.5804
 3889SOL    HW315323   6.302   5.391   5.722 -0.2977 -0.7244  1.4073
 3889SOL    MW415324   6.221   5.421   5.709  0.1904 -0.0958 -0.3959
 3890SOL     OW15325   5.368   3.665   1.115 -0.3430 -0.2575 -0.1022
 3890SOL    HW215326   5.435   3.657   1.182 -0.2950 -0.9279 -0.2170
 3890SOL    HW315327   5.407   3.723   1.049  0.0621 -0.5032 -0.0863
 3890SOL    MW415328   5.382   3.672   1.115 -0.2832 -0.3784 -0.1152
 3891SOL     OW15329   1.005   4.687   4.843  0.2205  0.4259 -0.0865
 3891SOL    HW215330   1.093   4.658   4.868 -0.4650 -2.0000 -0.2360
 3891SOL    HW315331   0.961   4.706   4.926  0.4880  0.4371  0.0528
 3891SOL    MW415332   1.011   4.686   4.857  0.1653  0.1073 -0.0879
 3892SOL     OW15333   1.323   5.008   2.042 -0.3618 -0.2900  0.1031
 3892SOL    HW215334   1.245   5.058   2.019 -0.7066 -1.2656 -0.9734
 3892SOL    HW315335   1.293   4.942   2.104 -0.7017 -1.4735 -1.2592
 3892SOL    MW415336   1.309   5.006   2.047 -0.4521 -0.5749 -0.2187
 3893SOL     OW15337   3.021   5.711   6.354 -0.6232  0.0720 -0.4038
 3893SOL    HW215338   3.067   5.781   6.309 -0.2465 -1.6900 -2.9621
 3893SOL    HW315339   2.942   5.753   6.390  0.3968  2.0863 -0.3663
 3893SOL    MW415340   3.016   5.726   6.353 -0.4389  0.1053 -0.7364
 3894SOL     OW15341   5.773   3.076   1.304  0.4253 -0.3481 -0.1833
 3894SOL    HW215342   5.720   3.137   1.254 -0.1587 -1.3630 -0.8351
 3894SOL    HW315343   5.839   3.131   1.347 -0.3958  0.7836 -0.3338
 3894SOL    MW415344   5.775   3.091   1.303  0.2399 -0.3327 -0.2891
 3895SOL     OW15345   1.150   1.370   2.447 -0.7509 -0.0664 -0.0693
 3895SOL    HW215346   1.199   1.450   2.462 -0.5784  0.0634 -1.2467
 3895SOL    HW315347   1.209   1.300   2.476 -1.3176  0.2391  2.0073
 3895SOL    MW415348   1.164   1.371   2.453 -0.8029 -0.0090  0.0494
 3896SOL     OW15349   5.383   3.317   4.374 -0.2683  0.4777 -0.6154
 3896SOL    HW215350   5.376   3.227   4.341  0.0575  0.0735  0.3835
 3896SOL    HW315351   5.325   3.368   4.317 -0.2428 -0.3096 -1.3720
 3896SOL    MW415352   5.374   3.311   4.362 -0.2219  0.3205 -0.5834
 3897SOL     OW15353   4.402   1.164   4.093 -0.0078  0.2592 -0.4432
 3897SOL    HW215354   4.470   1.137   4.030  0.8083  0.5117  0.3062
 3897SOL    HW315355   4.382   1.084   4.142  0.0462  0.2750 -0.3948
 3897SOL    MW415356   4.408   1.150   4.091  0.1070  0.2946 -0.3379
 3898SOL     OW15357   0.079   1.225   3.812  0.3406 -0.1468 -0.2338
 3898SOL    HW215358   0.080   1.239   3.718  0.1662 -1.5440 -0.4610
 3898SOL    HW315359  -0.011   1.241   3.838  0.6760  1.6165 -0.0574
 3898SOL    MW415360   0.067   1.229   3.803  0.3619 -0.0985 -0.2405
 3899SOL     OW15361   0.737   3.877   3.120 -0.7621  0.4852  0.4345
 3899SOL    HW215362   0.709   3.901   3.031  0.7207  1.2379  0.1451
 3899SOL    HW315363   0.752   3.960   3.164  1.5073  0.1521  0.3867
 3899SOL    MW415364   0.735   3.891   3.114 -0.2670  0.5405  0.3900
 3900SOL     OW15365   2.773   5.830   3.768 -0.5322  0.2359  0.1310
 3900SOL    HW215366   2.678   5.819   3.776 -0.5864  0.4771 -0.1595
 3900SOL    HW315367   2.809   5.758   3.819 -0.8800 -1.4527 -1.8863
 3900SOL    MW415368   2.765   5.819   3.776 -0.5852  0.0449 -0.1735
 3901SOL     OW15369   6.119   0.711   5.767  0.5349  0.4367 -0.0704
 3901SOL    HW215370   6.081   0.707   5.679 -1.5962 -0.8851  0.8181
 3901SOL    HW315371   6.069   0.780   5.811 -0.6758 -1.0587  1.0047
 3901SOL    MW415372   6.107   0.719   5.761  0.0940  0.0650  0.1886
 3902SOL     OW15373   6.244   0.103   5.072 -0.6049 -0.5786  0.1754
 3902SOL    HW215374   6.335   0.090   5.046 -0.2177 -1.0991  1.6774
 3902SOL    HW315375   6.194   0.098   4.991  0.7048 -0.2028 -0.6832
 3902SOL    MW415376   6.249   0.101   5.058 -0.3810 -0.5977  0.2603
 3903SOL     OW15377   3.714   4.764   5.525 -0.3791 -0.0138 -0.6296
 3903SOL    HW215378   3.667   4.848   5.524  1.1054  0.8710  0.6373
 3903SOL    HW315379   3.688   4.723   5.607 -1.6741 -1.1871 -1.5763
 3903SOL    MW415380   3.704   4.770   5.536 -0.3541 -0.0519 -0.5873
 3904SOL     OW15381   1.162   2.676   0.507 -0.2798 -0.1990 -0.1816
 3904SOL    HW215382   1.228   2.615   0.473 -2.3106 -1.5408 -2.0325
 3904SOL    HW315383   1.152   2.653   0.599  2.3542  0.6171  0.3926
 3904SOL    MW415384   1.170   2.665   0.514 -0.2002 -0.2684 -0.3501
 3905SOL     OW15385   0.454   2.007   6.208 -0.2802 -0.1125 -0.0488
 3905SOL    HW215386   0.365   2.001   6.241 -0.6907  2.3942 -0.5402
 3905SOL    HW315387   0.500   1.934   6.249 -2.6209 -1.7136 -0.1058
 3905SOL    MW415388   0.448   1.996   6.217 -0.6432  0.0070 -0.1212
 3906SOL     OW15389   5.111   1.601   2.153  0.1861 -0.4240  0.2745
 3906SOL    HW215390   5.183   1.628   2.096  0.0253  1.0027  0.7117
 3906SOL    HW315391   5.035   1.596   2.094 -0.6384  3.8283  0.6776
 3906SOL    MW415392   5.111   1.604   2.137  0.0561  0.3253  0.3853
 3907SOL     OW15393   1.572   0.025   0.415  0.3688  0.0456  0.1366
 3907SOL    HW215394   1.524  -0.014   0.341  1.3246  0.6672 -0.8465
 3907SOL    HW315395   1.504   0.049   0.478 -0.3561 -2.0325  0.2354
 3907SOL    MW415396   1.557   0.023   0.413  0.3992 -0.1466  0.0199
 3908SOL     OW15397   2.812   4.367   3.524  0.2786  0.2757 -0.2666
 3908SOL    HW215398   2.732   4.392   3.478  0.5381 -0.4908 -1.1771
 3908SOL    HW315399   2.785   4.295   3.582  0.0213  1.0075  0.5337
 3908SOL    MW415400   2.798   4.361   3.525  0.2789  0.2711 -0.2811
 3909SOL     OW15401   0.091   5.011   1.344 -0.8100  0.0951  0.2021
 3909SOL    HW215402   0.054   4.963   1.418  1.6542 -1.0742  0.7812
 3909SOL    HW315403   0.112   5.097   1.380 -0.0364 -0.3201  0.7882
 3909SOL    MW415404   0.089   5.016   1.359 -0.3828 -0.1140  0.3558
 3910SOL     OW15405   5.562   1.800   1.776  0.3926  0.0698 -0.4840
 3910SOL    HW215406   5.482   1.834   1.736 -1.4244 -1.0836  1.9423
 3910SOL    HW315407   5.603   1.876   1.816 -1.6069  0.1337  1.5940
 3910SOL    MW415408   5.557   1.815   1.776 -0.1109 -0.0740  0.1103
 3911SOL     OW15409   4.081   1.732   6.383 -0.7725 -0.9537  0.0744
 3911SOL    HW215410   4.085   1.758   6.475  0.2623 -1.3796  0.1553
 3911SOL    HW315411   3.987   1.732   6.363 -0.9533  2.9299  0.0472
 3911SOL    MW415412   4.069   1.736   6.392 -0.6599 -0.4975  0.0815
 3912SOL     OW15413   0.841   3.199   0.759 -0.3012  0.2836 -0.2512
 3912SOL    HW215414   0.787   3.142   0.814  1.3805 -0.1709  1.0018
 3912SOL    HW315415   0.892   3.138   0.705  0.0205  0.6562 -0.3716
 3912SOL    MW415416   0.841   3.183   0.759 -0.0369  0.2728 -0.1018
 3913SOL     OW15417   1.100   4.129   2.284 -0.5659 -0.4216 -0.3355
 3913SOL    HW215418   1.183   4.163   2.252 -1.8447  0.6536 -2.7898
 3913SOL    HW315419   1.110   4.034   2.283  1.0467 -0.2947  0.7281
 3913SOL    MW415420   1.112   4.121   2.280 -0.5218 -0.2630 -0.5190
 3914SOL     OW15421   1.245   3.681   5.094 -0.6306 -0.5592  0.4187
 3914SOL    HW215422   1.158   3.702   5.060 -0.0668  0.4721 -0.4482
 3914SOL    HW315423   1.295   3.655   5.016  0.1866  0.1019  0.7082
 3914SOL    MW415424   1.240   3.680   5.079 -0.4484 -0.3359  0.3425
 3915SOL     OW15425   0.446   4.630   1.565  0.3828 -0.3610  0.0862
 3915SOL    HW215426   0.493   4.572   1.504  2.8148  1.2249  0.3177
 3915SOL    HW315427   0.373   4.665   1.513  0.5204 -1.4605 -0.8993
 3915SOL    MW415428   0.443   4.627   1.550  0.7218 -0.2968 -0.0133
 3916SOL     OW15429   1.300   3.404   4.581 -0.3335  0.4060 -0.3231
 3916SOL    HW215430   1.232   3.446   4.634 -1.4438  0.0457 -1.4331
 3916SOL    HW315431   1.335   3.475   4.527 -0.5359  0.3887 -0.4776
 3916SOL    MW415432   1.296   3.419   4.581 -0.5067  0.3562 -0.4899
 3917SOL     OW15433   5.286   4.973   3.329  0.4131 -0.1688 -0.3996
 3917SOL    HW215434   5.220   4.981   3.398  0.0809 -0.6115 -0.6545
 3917SOL    HW315435   5.235   4.971   3.248  0.8455  1.0744 -0.7190
 3917SOL    MW415436   5.270   4.974   3.327  0.4263 -0.0632 -0.4754
 3918SOL     OW15437   3.492   5.271   0.052  0.5103  0.2209 -0.0900
 3918SOL    HW215438   3.568   5.311   0.093  0.0980 -1.2679  2.3271
 3918SOL    HW315439   3.520   5.182   0.031 -0.0419  0.2090 -0.8160
 3918SOL    MW415440   3.506   5.264   0.055  0.3831  0.0229  0.1331
 3919SOL     OW15441   1.657   2.577   6.164 -0.2914  0.4871  0.4338
 3919SOL    HW215442   1.632   2.649   6.106  0.5062  0.0304 -0.5045
 3919SOL    HW315443   1.753   2.583   6.168 -0.1058 -1.2427 -0.6312
 3919SOL    MW415444   1.667   2.588   6.157 -0.1616  0.1986  0.1695
 3920SOL     OW15445   0.832   5.687   1.551 -0.0498  0.3760  0.0984
 3920SOL    HW215446   0.755   5.697   1.496  0.8657  1.6012 -1.0215
 3920SOL    HW315447   0.849   5.775   1.585  0.6269  0.0421  0.6560
 3920SOL    MW415448   0.824   5.700   1.548  0.1603  0.4936  0.0242
 3921SOL     OW15449   1.000   2.350   0.624  0.4048 -0.2705 -0.1279
 3921SOL    HW215450   0.942   2.349   0.700  0.9407  1.5200  0.3517
 3921SOL    HW315451   0.945   2.381   0.552 -0.0346 -1.7203 -0.4608
 3921SOL    MW415452   0.985   2.354   0.624  0.4176 -0.2255 -0.1086
 3922SOL     OW15453   1.368   4.512   1.497 -0.1794 -0.0675 -0.0416
 3922SOL    HW215454   1.407   4.557   1.572 -1.4830 -1.2262  1.4002
 3922SOL    HW315455   1.417   4.429   1.491 -0.0697  0.0288 -0.4811
 3922SOL    MW415456   1.380   4.507   1.506 -0.3369 -0.2077  0.0906
 3923SOL     OW15457   5.893   3.193   5.792  0.2759  0.2132  0.1523
 3923SOL    HW215458   5.978   3.195   5.747 -0.4346  0.9817 -1.2432
 3923SOL    HW315459   5.829   3.192   5.721 -0.8895 -0.8425  1.1791
 3923SOL    MW415460   5.896   3.194   5.776  0.0284  0.1753  0.1036
 3924SOL     OW15461   3.576   1.082   5.357 -0.0269  0.3121 -0.2930
 3924SOL    HW215462   3.506   1.020   5.336 -0.2552  0.1269  0.9627
 3924SOL    HW315463   3.649   1.056   5.301 -0.7104  0.0444 -1.0803
 3924SOL    MW415464   3.576   1.070   5.347 -0.1472  0.2524 -0.2312
 3925SOL     OW15465   4.828   4.043   2.185  0.3192 -0.5923 -0.3976
 3925SOL    HW215466   4.734   4.023   2.188  0.6495 -2.4133 -0.5454
 3925SOL    HW315467   4.833   4.138   2.189 -1.5942 -0.3734 -1.8291
 3925SOL    MW415468   4.816   4.053   2.186  0.1103 -0.8037 -0.6060
 3926SOL     OW15469   5.415   1.557   0.479  0.3606 -0.0218  0.1013
 3926SOL    HW215470   5.418   1.462   0.488 -1.5427 -0.3422 -1.7301
 3926SOL    HW315471   5.459   1.574   0.396 -0.6692  0.5116 -0.3467
 3926SOL    MW415472   5.421   1.547   0.469 -0.0264  0.0063 -0.1994
 3927SOL     OW15473   0.218   0.135   1.212  1.0231 -0.2535  0.3229
 3927SOL    HW215474   0.251   0.117   1.300 -1.4749 -0.5286  1.2809
 3927SOL    HW315475   0.172   0.219   1.220 -0.4611 -0.9732 -0.3353
 3927SOL    MW415476   0.216   0.144   1.224  0.4977 -0.3848  0.3624
 3928SOL     OW15477   2.112   0.415   2.257 -0.3131  0.2014  0.1667
 3928SOL    HW215478   2.191   0.374   2.222  0.0568  1.0057  0.0471
 3928SOL    HW315479   2.050   0.343   2.265 -0.1653 -0.1467 -1.4227
 3928SOL    MW415480   2.114   0.400   2.253 -0.2448  0.2616 -0.0588
 3929SOL     OW15481   5.276   3.683   5.110 -0.4940  0.1376 -0.0938
 3929SOL    HW215482   5.364   3.648   5.122 -0.6566  0.2306  1.6330
 3929SOL    HW315483   5.218   3.610   5.129 -0.8266 -0.1544 -2.0208
 3929SOL    MW415484   5.280   3.669   5.114 -0.5593  0.1113 -0.1202
 3930SOL     OW15485   3.481   3.880   4.815 -0.3615 -0.4888 -0.2557
 3930SOL    HW215486   3.515   3.877   4.726 -1.1431  2.8065 -0.7892
 3930SOL    HW315487   3.409   3.817   4.816  0.8278 -1.9591 -1.3070
 3930SOL    MW415488   3.476   3.871   4.804 -0.3077 -0.2480 -0.4648
 3931SOL     OW15489   4.712   5.273   3.954  0.3671  0.4183  0.2779
 3931SOL    HW215490   4.776   5.222   4.003  1.3150  1.9494  0.6827
 3931SOL    HW315491   4.645   5.297   4.019  0.4067  0.4749  0.2981
 3931SOL    MW415492   4.711   5.270   3.969  0.4974  0.6278  0.3340
 3932SOL     OW15493   3.142   4.409   2.677 -0.2900  0.3081  0.2899
 3932SOL    HW215494   3.233   4.403   2.648 -0.0589 -0.8347  1.1623
 3932SOL    HW315495   3.125   4.503   2.684  0.7726  0.5370 -0.0390
 3932SOL    MW415496   3.152   4.421   2.674 -0.1193  0.1875  0.3616
 3933SOL     OW15497   5.322   4.603   4.472 -1.0287  0.4427  0.1356
 3933SOL    HW215498   5.316   4.572   4.563 -0.1648  1.1726  0.4582
 3933SOL    HW315499   5.266   4.543   4.423 -1.3562 -0.0885  1.1199
 3933SOL    MW415500   5.314   4.591   4.478 -0.9579  0.4689  0.3080
 3934SOL     OW15501   4.657   2.655   0.346 -0.6406 -0.2449 -0.8051
 3934SOL    HW215502   4.581   2.683   0.397  1.5279  0.7075  2.1664
 3934SOL    HW315503   4.652   2.707   0.265 -0.4988  3.7506  1.5054
 3934SOL    MW415504   4.646   2.665   0.342 -0.3358  0.4079 -0.1082
 3935SOL     OW15505   4.409   5.507   0.909 -0.4861 -0.4720 -0.3494
 3935SOL    HW215506   4.437   5.563   0.981  4.0591 -0.4949 -1.8002
 3935SOL    HW315507   4.380   5.426   0.952 -1.1660  0.6884  1.5062
 3935SOL    MW415508   4.409   5.504   0.924  0.0239 -0.3219 -0.2960
 3936SOL     OW15509   3.028   4.844   4.952 -0.0235  0.0264 -0.6011
 3936SOL    HW215510   3.073   4.781   4.896  1.4177  0.0694  0.4636
 3936SOL    HW315511   2.938   4.845   4.918  0.7738  0.0932 -2.9173
 3936SOL    MW415512   3.022   4.836   4.940  0.2718  0.0409 -0.7662
 3937SOL     OW15513   0.259   6.065   5.501 -0.2842  0.3186  0.1193
 3937SOL    HW215514   0.278   6.088   5.592 -1.5292  1.5486  0.0973
 3937SOL    HW315515   0.342   6.078   5.456  0.3660 -0.3610  1.0659
 3937SOL    MW415516   0.273   6.070   5.507 -0.3627  0.3912  0.2413
 3938SOL     OW15517   5.115   1.265   4.014  0.2265 -0.2281 -0.0777
 3938SOL    HW215518   5.198   1.312   4.022  0.5076 -0.9087  1.5074
 3938SOL    HW315519   5.075   1.273   4.101 -1.1567 -0.3280 -0.6718
 3938SOL    MW415520   5.120   1.273   4.027  0.0811 -0.3311  0.0531
 3939SOL     OW15521   6.146   6.378   4.142  0.1543  0.1225  0.1364
 3939SOL    HW215522   6.111   6.441   4.079 -0.1699 -0.7573 -0.5941
 3939SOL    HW315523   6.241   6.385   4.134  0.1346  0.9686  0.5367
 3939SOL    MW415524   6.154   6.387   4.132  0.1089  0.1181  0.0928
 3940SOL     OW15525   4.006   2.614   2.580 -0.2987 -0.5163  0.3200
 3940SOL    HW215526   4.025   2.678   2.649  3.0130 -1.3292  0.3209
 3940SOL    HW315527   4.006   2.665   2.499  0.8288 -0.2428  0.4724
 3940SOL    MW415528   4.009   2.629   2.578  0.2870 -0.5874  0.3402
 3941SOL     OW15529   2.610   0.011   4.351 -0.3116  0.7492  0.2996
 3941SOL    HW215530   2.668   0.061   4.295  1.2359 -0.3256  0.8828
 3941SOL    HW315531   2.648   0.019   4.439  0.3277 -1.8341  0.3377
 3941SOL    MW415532   2.622   0.018   4.355 -0.0231  0.2666  0.3815
 3942SOL     OW15533   3.746   5.723   0.438 -0.1771 -0.6753  0.2360
 3942SOL    HW215534   3.829   5.676   0.441  0.4803  0.4910  2.6641
 3942SOL    HW315535   3.680   5.655   0.452  0.7410 -1.0590  3.4531
 3942SOL    MW415536   3.748   5.708   0.441  0.0308 -0.5720  0.9808
 3943SOL     OW15537   5.421   4.346   2.326 -0.2558 -0.4532 -0.6311
 3943SOL    HW215538   5.489   4.299   2.277  1.0324  0.1840  0.4906
 3943SOL    HW315539   5.458   4.433   2.339 -0.1212 -0.8578  2.2400
 3943SOL    MW415540   5.435   4.351   2.321 -0.0681 -0.4225 -0.1043
 3944SOL     OW15541   0.939   0.835   4.289 -0.9323  0.2815 -0.5941
 3944SOL    HW215542   0.959   0.825   4.383  0.0620  0.9369 -0.7108
 3944SOL    HW315543   0.873   0.903   4.286 -0.0378  1.1864 -0.4201
 3944SOL    MW415544   0.933   0.842   4.301 -0.6831  0.4873 -0.5866
 3945SOL     OW15545   5.772   5.392   1.912 -0.4475  0.0233  0.2753
 3945SOL    HW215546   5.738   5.410   2.000 -1.0203 -1.0727  0.3012
 3945SOL    HW315547   5.823   5.311   1.922  1.0531  0.8977 -0.0428
 3945SOL    MW415548   5.774   5.384   1.925 -0.3251 -0.0059  0.2367
 3946SOL     OW15549   3.096   3.955   4.934 -0.3870 -0.4322  0.5721
 3946SOL    HW215550   3.016   3.914   4.901 -0.7868 -0.6069  1.6994
 3946SOL    HW315551   3.097   4.042   4.895 -1.6930 -0.0371  1.3444
 3946SOL    MW415552   3.085   3.961   4.925 -0.6120 -0.4031  0.8228
 3947SOL     OW15553   5.141   3.698   3.278  0.3307  0.0036 -0.0752
 3947SOL    HW215554   5.190   3.634   3.331  1.4057  1.1052  0.3085
 3947SOL    HW315555   5.208   3.758   3.245 -0.4845  0.0822 -1.6609
 3947SOL    MW415556   5.156   3.697   3.281  0.3650  0.1593 -0.2338
 3948SOL     OW15557   2.196   1.295   6.323  0.0320 -0.0073 -0.0321
 3948SOL    HW215558   2.256   1.273   6.253  1.2455  0.2686  0.8929
 3948SOL    HW315559   2.210   1.227   6.389  0.3872  0.8698  0.8151
 3948SOL    MW415560   2.206   1.283   6.323  0.2389  0.1448  0.2017
 3949SOL     OW15561   4.593   3.414   2.054  0.2579  0.0434  0.1393
 3949SOL    HW215562   4.532   3.473   2.009  1.7524  1.2610 -0.3630
 3949SOL    HW315563   4.562   3.326   2.031 -0.9981  0.6245 -0.5055
 3949SOL    MW415564   4.581   3.410   2.045  0.2894  0.2807 -0.0120
 3950SOL     OW15565   0.814   2.031   1.821  0.2338 -0.7783  0.2312
 3950SOL    HW215566   0.878   2.101   1.832  0.5353 -1.3701  2.9028
 3950SOL    HW315567   0.729   2.076   1.820  0.5293 -0.1998 -0.8589
 3950SOL    MW415568   0.811   2.046   1.822  0.3125 -0.7800  0.4398
 3951SOL     OW15569   1.278   5.379   5.647 -0.1264 -0.1685 -0.4389
 3951SOL    HW215570   1.349   5.326   5.683  0.2924 -1.0811 -2.4756
 3951SOL    HW315571   1.311   5.411   5.563 -1.3391  1.1949 -0.4364
 3951SOL    MW415572   1.292   5.376   5.641 -0.2312 -0.1090 -0.7073
 3952SOL     OW15573   5.224   2.074   2.280  0.1182 -0.1080 -0.9189
 3952SOL    HW215574   5.197   2.103   2.367  0.6771 -1.2810 -0.3342
 3952SOL    HW315575   5.165   2.121   2.220  0.8111  1.9715 -0.0399
 3952SOL    MW415576   5.212   2.084   2.283  0.2834  0.0116 -0.7257
 3953SOL     OW15577   3.625   0.942   3.152  0.3805 -0.0547 -0.1106
 3953SOL    HW215578   3.688   0.917   3.220  0.2952  0.0109 -0.0088
 3953SOL    HW315579   3.663   1.021   3.113  0.5388 -0.2136 -0.2854
 3953SOL    MW415580   3.638   0.949   3.156  0.3902 -0.0670 -0.1203
 3954SOL     OW15581   3.487   4.518   0.927 -0.9202  0.6081  0.0526
 3954SOL    HW215582   3.531   4.514   1.012 -0.1638 -1.3822 -0.3697
 3954SOL    HW315583   3.480   4.611   0.908  2.6375  1.1040  0.4158
 3954SOL    MW415584   3.492   4.529   0.936 -0.3510  0.4109  0.0448
 3955SOL     OW15585   3.224   1.112   1.227 -0.2414 -0.0558 -0.1514
 3955SOL    HW215586   3.304   1.136   1.274 -1.4088 -0.8309  2.4085
 3955SOL    HW315587   3.169   1.069   1.293 -1.9466 -1.4215 -2.3109
 3955SOL    MW415588   3.227   1.109   1.242 -0.6204 -0.3382 -0.0986
 3956SOL     OW15589   4.543   5.852   4.311 -0.2550  0.4060 -1.4136
 3956SOL    HW215590   4.602   5.781   4.285 -1.8866 -1.1562 -1.0358
 3956SOL    HW315591   4.546   5.853   4.407  0.8247  1.8476 -1.4194
 3956SOL    MW415592   4.552   5.843   4.320 -0.3279  0.3901 -1.3645
 3957SOL     OW15593   1.149   0.641   5.936  0.4740 -0.0586  0.0337
 3957SOL    HW215594   1.093   0.590   5.878 -0.9217  0.4368  0.8621
 3957SOL    HW315595   1.196   0.576   5.988 -0.0112 -0.5154 -0.0842
 3957SOL    MW415596   1.148   0.626   5.935  0.2258 -0.0535  0.1274
 3958SOL     OW15597   1.087   0.911   1.822 -0.1982 -0.0903 -0.2486
 3958SOL    HW215598   1.032   0.855   1.877 -0.3314 -0.7740 -1.0593
 3958SOL    HW315599   1.053   1.000   1.836  0.6507 -0.0441  1.8141
 3958SOL    MW415600   1.075   0.916   1.831 -0.1038 -0.1744 -0.0834
 3959SOL     OW15601   2.037   1.724   2.976 -0.3391  0.4563  0.0624
 3959SOL    HW215602   2.113   1.778   2.997 -0.4149  0.6078 -0.0511
 3959SOL    HW315603   1.973   1.786   2.939 -1.6109  0.8913  2.7449
 3959SOL    MW415604   2.039   1.740   2.974 -0.5169  0.5336  0.4013
 3960SOL     OW15605   4.915   3.526   4.928  0.0987  0.3804  0.6505
 3960SOL    HW215606   4.845   3.501   4.868  1.2754 -2.2479  0.2228
 3960SOL    HW315607   4.870   3.565   5.003 -2.0056 -2.4642  1.0216
 3960SOL    MW415608   4.900   3.528   4.930 -0.0237 -0.3417  0.6431
 3961SOL     OW15609   2.624   4.093   5.802 -0.4980 -0.1393  0.4547
 3961SOL    HW215610   2.636   4.077   5.708  0.6295  1.1258  0.3559
 3961SOL    HW315611   2.544   4.145   5.808 -0.3492  0.1248  0.1602
 3961SOL    MW415612   2.615   4.097   5.791 -0.3296  0.0625  0.4028
 3962SOL     OW15613   2.810   6.137   1.114  0.3566 -0.5318 -0.4098
 3962SOL    HW215614   2.894   6.179   1.133 -0.0505  0.6272 -1.0542
 3962SOL    HW315615   2.832   6.047   1.092  1.4173 -0.2756 -0.4424
 3962SOL    MW415616   2.824   6.131   1.113  0.4429 -0.3451 -0.4991
 3963SOL     OW15617   3.609   4.233   0.035 -0.4444 -0.2597 -0.1759
 3963SOL    HW215618   3.602   4.199  -0.054  0.6106  0.5982 -0.6074
 3963SOL    HW315619   3.703   4.236   0.052 -0.5490  1.4183  0.2431
 3963SOL    MW415620   3.621   4.229   0.026 -0.3190  0.0748 -0.1775
 3964SOL     OW15621   5.617   3.955   0.702  0.0404 -0.2829  0.3083
 3964SOL    HW215622   5.581   4.028   0.652  0.4920 -0.4174 -0.2244
 3964SOL    HW315623   5.663   3.996   0.775 -0.4811 -0.0802  0.5315
 3964SOL    MW415624   5.618   3.970   0.705  0.0312 -0.2739  0.2675
 3965SOL     OW15625   1.090   5.414   4.253 -0.2651 -0.6316 -0.6329
 3965SOL    HW215626   1.019   5.452   4.304  0.4738 -0.8243  0.5958
 3965SOL    HW315627   1.139   5.490   4.220 -1.5018 -0.4791 -2.2270
 3965SOL    MW415628   1.087   5.429   4.256 -0.3308 -0.6369 -0.6811
 3966SOL     OW15629   4.698   5.655   3.080 -0.3911 -0.7304  0.1792
 3966SOL    HW215630   4.650   5.717   3.134 -0.0418  1.0743 -1.4587
 3966SOL    HW315631   4.711   5.701   2.997  1.0123 -2.5293 -0.6650
 3966SOL    MW415632   4.694   5.669   3.076 -0.1599 -0.7296 -0.1483
 3967SOL     OW15633   3.431   3.120   0.195  0.0410 -0.3760 -0.9712
 3967SOL    HW215634   3.387   3.052   0.246  0.2277  0.8876  0.9883
 3967SOL    HW315635   3.508   3.143   0.246 -0.4934  1.9047 -1.0600
 3967SOL    MW415636   3.435   3.114   0.208 -0.0049  0.0916 -0.7244
 3968SOL     OW15637   4.944   0.473   3.169 -0.1171  0.3040 -0.8678
 3968SOL    HW215638   4.944   0.531   3.245 -0.2301 -0.3288 -0.3721
 3968SOL    HW315639   4.856   0.435   3.167  0.3060 -0.7383 -0.4767
 3968SOL    MW415640   4.932   0.475   3.179 -0.0762  0.0830 -0.7508
 3969SOL     OW15641   3.914   5.446   5.985  0.2662  0.0484  0.2302
 3969SOL    HW215642   3.901   5.355   5.959  0.8048  0.1945 -0.5862
 3969SOL    HW315643   4.001   5.468   5.951  0.8969  0.3433  1.9334
 3969SOL    MW415644   3.924   5.437   5.977  0.4204  0.1066  0.3472
 3970SOL     OW15645   5.846   2.296   1.404  0.1940 -0.0418  0.3417
 3970SOL    HW215646   5.858   2.357   1.331 -0.8123 -2.2970 -1.8505
 3970SOL    HW315647   5.922   2.239   1.400 -0.3962 -0.8380  0.3973
 3970SOL    MW415648   5.858   2.297   1.394 -0.0166 -0.4444  0.0598
 3971SOL     OW15649   4.496   2.854   3.278 -0.6645 -0.8376 -0.3256
 3971SOL    HW215650   4.552   2.878   3.352 -0.0181  1.2268 -1.3891
 3971SOL    HW315651   4.419   2.814   3.318  0.5639 -1.6954  1.3130
 3971SOL    MW415652   4.494   2.852   3.293 -0.4172 -0.6784 -0.2497
 3972SOL     OW15653   4.997   4.621   5.149  0.2305 -0.3557 -0.6985
 3972SOL    HW215654   4.907   4.596   5.125 -0.4477  0.9326  0.3955
 3972SOL    HW315655   5.010   4.582   5.235 -0.8233  2.7551  1.0145
 3972SOL    MW415656   4.987   4.612   5.157  0.0020  0.2247 -0.3281
 3973SOL     OW15657   6.359   1.274   2.425 -0.0066 -0.1446  0.1193
 3973SOL    HW215658   6.339   1.205   2.489  0.1887  0.4965  0.8789
 3973SOL    HW315659   6.366   1.227   2.342  1.2060 -1.2191  0.7888
 3973SOL    MW415660   6.358   1.258   2.422  0.1791 -0.2018  0.3079
 3974SOL     OW15661   5.807   0.143   2.073  0.4902 -0.4132  0.2785
 3974SOL    HW215662   5.715   0.142   2.099  0.4849 -0.0567  0.2832
 3974SOL    HW315663   5.847   0.072   2.124  0.4944  0.3255  1.3513
 3974SOL    MW415664   5.800   0.134   2.083  0.4900 -0.2687  0.4206
 3975SOL     OW15665   3.876   4.021   1.072 -0.5753 -0.3021  0.5629
 3975SOL    HW215666   3.947   4.035   1.010 -1.0979  0.1309  0.0573
 3975SOL    HW315667   3.904   4.068   1.151 -0.1112 -0.4837  0.5114
 3975SOL    MW415668   3.889   4.029   1.074 -0.5830 -0.2689  0.4894
 3976SOL     OW15669   1.510   4.950   3.648  0.5244  0.2373 -0.2483
 3976SOL    HW215670   1.467   4.876   3.692  0.4258  0.5159  0.1299
 3976SOL    HW315671   1.570   4.985   3.714  0.3468  0.6840 -0.3197
 3976SOL    MW415672   1.512   4.945   3.663  0.4880  0.3330 -0.2078
 3977SOL     OW15673   2.593   4.002   4.068  0.5194  0.1541 -0.1249
 3977SOL    HW215674   2.659   3.936   4.089  0.3572  0.1883  0.5169
 3977SOL    HW315675   2.515   3.951   4.045  0.6913  0.1159 -0.6342
 3977SOL    MW415676   2.591   3.986   4.067  0.5207  0.1536 -0.1074
 3978SOL     OW15677   4.300   1.625   3.362  0.2154  0.8017 -0.0170
 3978SOL    HW215678   4.319   1.532   3.372  1.8448  1.2283  1.1100
 3978SOL    HW315679   4.341   1.650   3.279  1.5466  0.9420  0.6719
 3978SOL    MW415680   4.308   1.616   3.352  0.6060  0.8765  0.2226
 3979SOL     OW15681   0.128   0.585   4.024  0.1596 -0.0733  0.0554
 3979SOL    HW215682   0.040   0.620   4.017  0.3277  0.7454  1.4956
 3979SOL    HW315683   0.158   0.574   3.933 -1.7412 -1.3078 -0.4653
 3979SOL    MW415684   0.121   0.588   4.011 -0.0690 -0.1282  0.1767
 3980SOL     OW15685   1.483   2.455   4.148 -0.4573  0.0184  0.1505
 3980SOL    HW215686   1.431   2.518   4.197 -0.9906 -0.2234 -0.0912
 3980SOL    HW315687   1.453   2.370   4.179 -0.0997 -0.1260  0.1108
 3980SOL    MW415688   1.472   2.452   4.159 -0.4805 -0.0325  0.1134
 3981SOL     OW15689   1.251   0.321   3.747 -0.8914  0.3109  0.5175
 3981SOL    HW215690   1.232   0.307   3.655  0.3203 -0.0429  0.3108
 3981SOL    HW315691   1.279   0.236   3.780  1.6622  1.0540  0.4537
 3981SOL    MW415692   1.252   0.308   3.739 -0.3946  0.3622  0.4818
 3982SOL     OW15693   2.753   3.343   5.952 -0.6175 -0.4158 -0.0259
 3982SOL    HW215694   2.796   3.260   5.933 -1.3777 -1.0226  0.8122
 3982SOL    HW315695   2.801   3.378   6.027 -0.4378 -0.2155 -0.2367
 3982SOL    MW415696   2.765   3.336   5.960 -0.6941 -0.4694  0.0569
 3983SOL     OW15697   4.117   4.100   2.139  0.2885 -0.1359  0.0461
 3983SOL    HW215698   4.052   4.050   2.189  0.1183  0.4151  0.3870
 3983SOL    HW315699   4.066   4.166   2.093  0.5553 -0.0269 -0.0914
 3983SOL    MW415700   4.102   4.102   2.140  0.3013 -0.0488  0.0730
 3984SOL     OW15701   5.799   6.116   4.855 -0.7910  0.1685  0.3513
 3984SOL    HW215702   5.886   6.078   4.868 -0.9133 -0.2902 -0.1412
 3984SOL    HW315703   5.803   6.202   4.898  1.0294  1.6928 -2.5687
 3984SOL    MW415704   5.811   6.123   4.863 -0.5670  0.3091 -0.0990
 3985SOL     OW15705   4.245   2.578   1.932  0.4234  0.6421  0.0583
 3985SOL    HW215706   4.217   2.610   2.018  1.4376  1.1085  0.2311
 3985SOL    HW315707   4.218   2.486   1.931 -0.7632  0.9675  0.3489
 3985SOL    MW415708   4.238   2.570   1.943  0.4006  0.7466  0.1194
 3986SOL     OW15709   5.519   1.995   0.497 -0.3919  0.2241  0.1780
 3986SOL    HW215710   5.479   1.946   0.569 -0.8624 -0.9564 -0.8322
 3986SOL    HW315711   5.534   2.082   0.532 -1.4846 -0.0491  1.4093
 3986SOL    MW415712   5.515   2.000   0.511 -0.5981  0.0323  0.2072
 3987SOL     OW15713   1.454   0.517   5.811  0.1394 -0.4797 -0.4546
 3987SOL    HW215714   1.517   0.446   5.803 -0.6336 -1.2167 -0.0676
 3987SOL    HW315715   1.380   0.490   5.758 -0.4087 -0.2386  0.1742
 3987SOL    MW415716   1.453   0.504   5.803 -0.0349 -0.5452 -0.3206
 3988SOL     OW15717   0.972   4.675   1.716  0.1934  0.0368  0.3081
 3988SOL    HW215718   0.929   4.630   1.790 -0.3710 -2.9411 -1.6467
 3988SOL    HW315719   0.900   4.708   1.663  0.4663 -0.3786 -0.3320
 3988SOL    MW415720   0.957   4.673   1.719  0.1549 -0.4109 -0.0342
 3989SOL     OW15721   1.445   2.049   0.523  0.2161 -0.3860 -0.4038
 3989SOL    HW215722   1.465   1.957   0.537  0.4927 -0.1889  0.6030
 3989SOL    HW315723   1.520   2.083   0.474  1.5779 -0.0614  1.7749
 3989SOL    MW415724   1.458   2.041   0.519  0.4323 -0.3171  0.0165
 3990SOL     OW15725   4.402   3.633   3.381 -0.2231  0.2433 -0.0710
 3990SOL    HW215726   4.388   3.590   3.465 -0.9455  2.6942  1.1535
 3990SOL    HW315727   4.315   3.634   3.340 -0.5938  1.9829  0.6890
 3990SOL    MW415728   4.389   3.628   3.386 -0.3673  0.7962  0.1909
 3991SOL     OW15729   1.097   0.750   4.928  0.0087  0.2216 -0.0836
 3991SOL    HW215730   1.078   0.738   5.021  0.7561  0.0438  0.0546
 3991SOL    HW315731   1.120   0.663   4.896  0.0697  0.3346 -0.3531
 3991SOL    MW415732   1.098   0.737   4.936  0.1153  0.2130 -0.1009
 3992SOL     OW15733   0.630   3.903   0.202  0.3121  0.1269  0.1527
 3992SOL    HW215734   0.557   3.844   0.218 -0.1334  0.8101  0.6813
 3992SOL    HW315735   0.694   3.849   0.155  0.4466 -1.1315  1.6983
 3992SOL    MW415736   0.629   3.888   0.198  0.2710  0.0510  0.4264
 3993SOL     OW15737   1.223   3.902   5.659  0.4907  0.3208  0.0922
 3993SOL    HW215738   1.283   3.828   5.659  0.8622  0.6056  0.7543
 3993SOL    HW315739   1.189   3.906   5.570  2.1805  0.7218 -0.5773
 3993SOL    MW415740   1.227   3.893   5.647  0.7626  0.4113  0.0913
 3994SOL     OW15741   1.316   1.262   1.597 -0.0921  0.0202  0.2443
 3994SOL    HW215742   1.397   1.294   1.556 -0.6594  1.5453  0.2669
 3994SOL    HW315743   1.308   1.172   1.566  1.4928 -0.0917  0.0568
 3994SOL    MW415744   1.326   1.254   1.588  0.0421  0.2067  0.2225
 3995SOL     OW15745   3.722   6.130   5.891  0.0322  0.3740  0.8343
 3995SOL    HW215746   3.800   6.152   5.941  0.8142 -0.3238 -0.0384
 3995SOL    HW315747   3.744   6.048   5.846 -0.8366  0.6760 -0.1971
 3995SOL    MW415748   3.735   6.122   5.892  0.0207  0.3218  0.5831
 3996SOL     OW15749   0.547   5.566   3.918 -0.0970 -0.4998  0.2951
 3996SOL    HW215750   0.537   5.642   3.976 -0.0509 -0.6494  0.4987
 3996SOL    HW315751   0.638   5.538   3.931  0.2945  0.1998 -0.7396
 3996SOL    MW415752   0.558   5.573   3.927 -0.0393 -0.4272  0.1854
 3997SOL     OW15753   1.483   0.082   4.224  0.1053  0.4995 -0.4770
 3997SOL    HW215754   1.478   0.124   4.139 -0.8774 -0.5533 -0.9624
 3997SOL    HW315755   1.393   0.082   4.256  0.4157  0.6212  0.4478
 3997SOL    MW415756   1.471   0.088   4.217  0.0166  0.3767 -0.4190
 3998SOL     OW15757   1.719   0.012   2.003 -0.3078  0.1349  0.0584
 3998SOL    HW215758   1.695   0.102   2.023 -0.8590 -0.3442  1.7545
 3998SOL    HW315759   1.805   0.018   1.961 -0.6091  1.4696 -0.3977
 3998SOL    MW415760   1.728   0.025   2.000 -0.4203  0.2478  0.2220
 3999SOL     OW15761   0.621   4.883   5.033 -0.5802  0.5511 -0.6654
 3999SOL    HW215762   0.529   4.877   5.061 -0.5337  1.1173 -0.3907
 3999SOL    HW315763   0.620   4.851   4.943 -1.3440  2.1651 -1.2678
 3999SOL    MW415764   0.609   4.878   5.025 -0.6748  0.8388 -0.7086
 4000SOL     OW15765   3.979   2.719   6.364  0.1029 -0.6489 -0.6128
 4000SOL    HW215766   3.993   2.625   6.356 -2.7322 -1.1518 -0.8014
 4000SOL    HW315767   3.923   2.742   6.290 -0.5774  0.8518  0.3033
 4000SOL    MW415768   3.973   2.710   6.353 -0.3609 -0.5173 -0.5168
 4001SOL     OW15769   2.482   1.828   3.376 -0.3175  0.4127  0.3201
 4001SOL    HW215770   2.430   1.882   3.317  0.9856  0.4845 -0.8021
 4001SOL    HW315771   2.427   1.752   3.394 -1.2544  1.0242  0.0818
 4001SOL    MW415772   2.468   1.825   3.371 -0.2692  0.5029  0.1406
 4002SOL     OW15773   0.631   1.552   0.690  0.0588 -0.1421 -0.6041
 4002SOL    HW215774   0.719   1.557   0.726 -0.4292  1.6910  0.4526
 4002SOL    HW315775   0.639   1.585   0.600  0.5426 -0.6212 -0.7426
 4002SOL    MW415776   0.643   1.557   0.683  0.0582  0.0366 -0.4830
 4003SOL     OW15777   0.123   0.268   1.985  0.2523 -0.1919 -0.2947
 4003SOL    HW215778   0.132   0.235   2.075 -1.9401  1.9623  0.8530
 4003SOL    HW315779   0.070   0.202   1.940 -0.6509 -0.2179  0.7529
 4003SOL    MW415780   0.117   0.255   1.991 -0.1561  0.0889 -0.0051
 4004SOL     OW15781   4.590   3.477   1.525  0.1576 -0.0196 -0.4203
 4004SOL    HW215782   4.534   3.538   1.477 -0.0209  0.3882  0.2907
 4004SOL    HW315783   4.675   3.483   1.482  0.0886  0.6015 -0.4730
 4004SOL    MW415784   4.594   3.486   1.513  0.1249  0.1162 -0.3335
 4005SOL     OW15785   2.330   3.007   1.826  0.3009  0.4610  0.0685
 4005SOL    HW215786   2.261   3.055   1.870  0.7860  2.2916 -1.0686
 4005SOL    HW315787   2.381   2.968   1.897 -2.4166 -1.8934  0.9457
 4005SOL    MW415788   2.328   3.008   1.841  0.0064  0.3919  0.0342
 4006SOL     OW15789   1.724   5.800   5.682 -0.3343 -0.3674  0.2701
 4006SOL    HW215790   1.684   5.741   5.619  1.6656 -0.6976 -0.7684
 4006SOL    HW315791   1.745   5.744   5.758  3.0171 -1.5502 -1.3162
 4006SOL    MW415792   1.722   5.785   5.684  0.3717 -0.5670 -0.0762
 4007SOL     OW15793   5.891   1.548   1.253  0.3458  0.3389  0.5276
 4007SOL    HW215794   5.967   1.606   1.264  0.4572  0.7838 -1.9367
 4007SOL    HW315795   5.867   1.558   1.161 -0.0900 -3.0135  0.1530
 4007SOL    MW415796   5.898   1.557   1.242  0.3030 -0.0447  0.1531
 4008SOL     OW15797   4.448   5.680   5.249 -0.2994  0.5132  0.1212
 4008SOL    HW215798   4.485   5.607   5.299 -0.7838 -0.3732 -0.7867
 4008SOL    HW315799   4.493   5.758   5.284 -0.3341 -0.1039  1.6417
 4008SOL    MW415800   4.459   5.681   5.260 -0.3679  0.3148  0.2020
 4009SOL     OW15801   0.316   3.878   2.545  0.0039 -0.3566 -0.4016
 4009SOL    HW215802   0.296   3.837   2.461 -0.6741  0.2354 -0.5456
 4009SOL    HW315803   0.233   3.917   2.573 -0.1725 -1.7969  1.2754
 4009SOL    MW415804   0.302   3.878   2.538 -0.1089 -0.4685 -0.1993
 4010SOL     OW15805   5.752   6.034   1.921 -0.2618  0.2745 -0.1273
 4010SOL    HW215806   5.741   5.989   2.005 -0.4748  0.4497 -0.0598
 4010SOL    HW315807   5.712   5.977   1.857  0.7555 -0.3252 -0.2544
 4010SOL    MW415808   5.746   6.021   1.924 -0.1557  0.2185 -0.1352
 4011SOL     OW15809   3.704   0.937   2.376 -0.3515  0.0651 -0.2470
 4011SOL    HW215810   3.735   1.025   2.398  1.5771 -1.0939  2.1982
 4011SOL    HW315811   3.630   0.922   2.435  0.3892 -0.5199  0.5563
 4011SOL    MW415812   3.699   0.947   2.387  0.0007 -0.1650  0.1816
 4012SOL     OW15813   0.558   5.846   4.418 -0.4656 -0.1509  0.0469
 4012SOL    HW215814   0.605   5.860   4.500 -0.1752  0.5871 -0.2383
 4012SOL    HW315815   0.514   5.929   4.401 -1.0366 -0.5059 -0.2218
 4012SOL    MW415816   0.558   5.859   4.427 -0.5026 -0.1004 -0.0262
 4013SOL     OW15817   0.649   4.902   3.374  0.4194  0.0230  0.2151
 4013SOL    HW215818   0.570   4.849   3.369 -0.0057  0.6095  0.6514
 4013SOL    HW315819   0.691   4.875   3.456  0.3099  0.2090  0.3333
 4013SOL    MW415820   0.644   4.891   3.384  0.3488  0.1249  0.2883
 4014SOL     OW15821   5.136   4.479   0.007 -0.4965 -0.0918 -0.1848
 4014SOL    HW215822   5.093   4.405  -0.036  0.8304 -1.2647  0.4155
 4014SOL    HW315823   5.158   4.539  -0.064 -0.0280 -1.1124 -0.9387
 4014SOL    MW415824   5.133   4.477  -0.008 -0.2596 -0.3812 -0.2051
 4015SOL     OW15825   6.294   0.420   5.978 -0.4962  0.2024  0.4580
 4015SOL    HW215826   6.236   0.368   6.033 -1.3445  1.4527  0.8087
 4015SOL    HW315827   6.365   0.448   6.037 -0.7893  0.5816  0.6393
 4015SOL    MW415828   6.296   0.417   5.993 -0.6468  0.4174  0.5282
 4016SOL     OW15829   3.836   1.763   4.955 -0.5820  0.2019  0.4160
 4016SOL    HW215830   3.791   1.680   4.939 -0.6630  0.3497 -0.1743
 4016SOL    HW315831   3.848   1.800   4.867  1.4249 -0.2160  0.4788
 4016SOL    MW415832   3.832   1.757   4.941 -0.3279  0.1663  0.3464
 4017SOL     OW15833   5.403   0.467   4.251 -0.0478 -0.5988 -0.4595
 4017SOL    HW215834   5.342   0.485   4.323 -1.1557  0.7454 -1.6719
 4017SOL    HW315835   5.490   0.479   4.290 -0.5169 -1.8409  1.1241
 4017SOL    MW415836   5.406   0.471   4.266 -0.2559 -0.5853 -0.4105
 4018SOL     OW15837   2.762   6.297   3.501  0.2459  0.6682  0.0894
 4018SOL    HW215838   2.817   6.236   3.452 -1.5252  0.0552 -1.2695
 4018SOL    HW315839   2.689   6.243   3.532  1.5024  0.8996  3.9898
 4018SOL    MW415840   2.760   6.282   3.498  0.1780  0.6179  0.4247
 4019SOL     OW15841   3.407   0.490   3.472  0.0834 -0.5946  0.1938
 4019SOL    HW215842   3.356   0.571   3.461  0.8000 -0.1067  0.3710
 4019SOL    HW315843   3.491   0.520   3.507 -0.0322 -1.5245  1.3247
 4019SOL    MW415844   3.411   0.505   3.476  0.1627 -0.6529  0.3664
 4020SOL     OW15845   2.888   4.056   0.593  0.1556 -0.5635 -0.3033
 4020SOL    HW215846   2.955   3.997   0.629  1.3498  1.2016  0.4999
 4020SOL    HW315847   2.855   4.104   0.669  1.4791  2.0209 -1.2613
 4020SOL    MW415848   2.892   4.054   0.608  0.4878  0.0104 -0.3237
 4021SOL     OW15849   1.736   5.251   1.544 -0.2466  0.4327  0.1727
 4021SOL    HW215850   1.690   5.183   1.593 -1.7517  0.2230 -1.4191
 4021SOL    HW315851   1.671   5.321   1.534  0.1172  0.6002 -1.1910
 4021SOL    MW415852   1.721   5.251   1.549 -0.3972  0.4271 -0.2173
 4022SOL     OW15853   0.845   0.703   4.784  0.2199 -0.4844 -0.0427
 4022SOL    HW215854   0.917   0.702   4.848  0.1424 -0.1814  0.0485
 4022SOL    HW315855   0.775   0.750   4.829  0.6130  0.9259 -0.8497
 4022SOL    MW415856   0.846   0.709   4.799  0.2616 -0.2583 -0.1372
 4023SOL     OW15857   4.634   2.241   4.649 -0.7499 -0.3284  0.5908
 4023SOL    HW215858   4.666   2.168   4.595 -0.2040 -0.1046  0.6087
 4023SOL    HW315859   4.542   2.251   4.624 -0.1411  0.7146 -1.3409
 4023SOL    MW415860   4.626   2.232   4.639 -0.5976 -0.1613  0.3383
 4024SOL     OW15861   1.647   2.353   1.368  0.2356  0.0072 -0.4912
 4024SOL    HW215862   1.717   2.311   1.318 -0.2156 -1.6584  0.1879
 4024SOL    HW315863   1.571   2.298   1.353 -0.1602  0.0217  1.2058
 4024SOL    MW415864   1.646   2.340   1.360  0.1239 -0.2107 -0.1777
 4025SOL     OW15865   6.089   4.111   3.796 -0.3339 -0.6257 -0.0351
 4025SOL    HW215866   6.122   4.200   3.805 -1.1148 -0.4399  1.4988
 4025SOL    HW315867   6.045   4.109   3.711 -0.8926  0.6655  0.2049
 4025SOL    MW415868   6.087   4.123   3.786 -0.5106 -0.4308  0.1989
 4026SOL     OW15869   1.496   5.821   4.172 -0.2007 -0.0477  0.0143
 4026SOL    HW215870   1.484   5.811   4.266 -0.6706  1.1988  0.0996
 4026SOL    HW315871   1.506   5.731   4.140  0.7879 -0.4413  1.3426
 4026SOL    MW415872   1.495   5.807   4.180 -0.1322  0.0648  0.2008
 4027SOL     OW15873   0.238   4.751   2.682 -0.0394 -0.5075 -0.5560
 4027SOL    HW215874   0.291   4.778   2.757 -1.7671 -0.3353  0.6601
 4027SOL    HW315875   0.222   4.832   2.633  1.9686 -0.7748 -1.7739
 4027SOL    MW415876   0.243   4.765   2.685 -0.0024 -0.5201 -0.5562
 4028SOL     OW15877   3.899   0.408   0.593  0.1322 -0.7054  0.0050
 4028SOL    HW215878   3.962   0.339   0.610  0.7017 -0.6919 -1.8136
 4028SOL    HW315879   3.821   0.362   0.562  0.4907 -0.5549 -1.1477
 4028SOL    MW415880   3.897   0.393   0.591  0.2546 -0.6838 -0.3870
 4029SOL     OW15881   5.059   5.675   2.688 -0.1823  0.1934 -0.2455
 4029SOL    HW215882   5.055   5.601   2.748  0.1280 -0.5446 -1.1068
 4029SOL    HW315883   5.071   5.751   2.745 -1.2885 -0.3050  0.7108
 4029SOL    MW415884   5.060   5.675   2.703 -0.2873  0.0303 -0.2330
 4030SOL     OW15885   1.590   4.670   2.216 -0.1971 -0.7094 -0.5796
 4030SOL    HW215886   1.541   4.607   2.162 -0.3898 -0.7257 -0.3870
 4030SOL    HW315887   1.682   4.646   2.203 -0.2588 -0.9011 -0.6692
 4030SOL    MW415888   1.595   4.659   2.207 -0.2307 -0.7368 -0.5660
 4031SOL     OW15889   3.993   6.331   1.983  0.2238 -0.4230 -0.1841
 4031SOL    HW215890   4.055   6.336   1.911  0.0207 -1.3947 -0.4349
 4031SOL    HW315891   3.985   6.421   2.014  1.7070 -0.2735 -0.1780
 4031SOL    MW415892   4.000   6.344   1.978  0.3927 -0.5315 -0.2164
 4032SOL     OW15893   3.252   5.700   5.657 -0.4477  0.4345  0.2191
 4032SOL    HW215894   3.315   5.736   5.719 -0.7252 -0.9802  1.3518
 4032SOL    HW315895   3.304   5.645   5.598 -0.5192 -0.2348  0.7697
 4032SOL    MW415896   3.267   5.698   5.657 -0.4938  0.1595  0.4412
 4033SOL     OW15897   6.173   4.948   3.223 -0.2874 -0.1541  0.0325
 4033SOL    HW215898   6.209   4.871   3.266  0.6198 -1.8454 -3.3319
 4033SOL    HW315899   6.249   5.006   3.210 -0.3698 -0.0664 -0.0600
 4033SOL    MW415900   6.188   4.946   3.227 -0.1786 -0.3657 -0.4236
 4034SOL     OW15901   6.294   4.714   3.023 -0.3133  0.5887 -0.0130
 4034SOL    HW215902   6.218   4.767   3.050 -1.2725 -0.7388 -0.0307
 4034SOL    HW315903   6.282   4.701   2.929 -1.0640 -1.1468  0.2990
 4034SOL    MW415904   6.282   4.719   3.014 -0.5389  0.1846  0.0258
 4035SOL     OW15905   4.131   5.534   4.606 -0.7453  0.1612  0.1553
 4035SOL    HW215906   4.039   5.506   4.603 -0.8461  0.3575  1.1643
 4035SOL    HW315907   4.170   5.479   4.674  0.3880 -1.2996 -1.5658
 4035SOL    MW415908   4.124   5.523   4.614 -0.6091 -0.0057  0.0613
 4036SOL     OW15909   3.093   4.005   2.895 -0.7033  0.0743 -0.0994
 4036SOL    HW215910   3.037   4.013   2.818  0.3658  1.3933 -0.7715
 4036SOL    HW315911   3.128   4.093   2.910  0.5405 -0.5251  0.7939
 4036SOL    MW415912   3.090   4.017   2.887 -0.3981  0.1693 -0.0702
 4037SOL     OW15913   4.012   4.083   2.942  0.4347  0.1225 -0.1093
 4037SOL    HW215914   4.035   4.017   3.008 -0.6071 -0.5953 -0.4602
 4037SOL    HW315915   4.061   4.058   2.864 -0.4654 -0.6379 -0.4459
 4037SOL    MW415916   4.022   4.071   2.941  0.1785 -0.0725 -0.2000
 4038SOL     OW15917   5.432   4.342   1.241 -0.4941  1.0616  0.7609
 4038SOL    HW215918   5.356   4.388   1.206 -2.2151 -1.6817  0.5408
 4038SOL    HW315919   5.409   4.323   1.332  0.3114  0.9276  0.9443
 4038SOL    MW415920   5.419   4.345   1.249 -0.6149  0.6820  0.7561
 4039SOL     OW15921   2.858   3.766   0.853  0.4911  0.4660 -0.6579
 4039SOL    HW215922   2.847   3.674   0.879  3.9006 -0.3292 -1.5113
 4039SOL    HW315923   2.801   3.776   0.777 -0.7853 -0.6178  0.1222
 4039SOL    MW415924   2.849   3.755   0.846  0.7725  0.2181 -0.6676
 4040SOL     OW15925   2.306   3.007   2.632  0.0586  0.1598  0.3609
 4040SOL    HW215926   2.306   3.002   2.728 -1.7660 -0.9764  0.3498
 4040SOL    HW315927   2.257   3.086   2.612  1.2811  0.9372  0.3401
 4040SOL    MW415928   2.300   3.017   2.642 -0.0208  0.1125  0.3567
 4041SOL     OW15929   4.226   4.810   4.305  0.4847  0.0692 -0.5892
 4041SOL    HW215930   4.191   4.739   4.360 -0.3665  2.1813  1.7945
 4041SOL    HW315931   4.258   4.766   4.226 -2.2397 -2.6999 -0.3390
 4041SOL    MW415932   4.225   4.795   4.302  0.0129 -0.0175 -0.2417
 4042SOL     OW15933   6.208   3.495   2.148 -0.4279 -0.1346  0.3126
 4042SOL    HW215934   6.126   3.449   2.163  0.6524 -2.0659  0.6001
 4042SOL    HW315935   6.275   3.439   2.188  1.1565  0.7774 -0.9398
 4042SOL    MW415936   6.206   3.482   2.155 -0.0763 -0.2690  0.1853
 4043SOL     OW15937   2.918   1.980   0.003  0.4564 -0.0514 -0.9464
 4043SOL    HW215938   2.909   1.923  -0.073  1.6208 -3.3225  1.1448
 4043SOL    HW315939   2.991   2.038  -0.018 -1.0718  1.1730 -3.3439
 4043SOL    MW415940   2.926   1.980  -0.010  0.4084 -0.3214 -0.9868
 4044SOL     OW15941   2.028   5.430   4.556 -0.2627  0.0210 -0.6589
 4044SOL    HW215942   2.038   5.511   4.506 -3.0004  1.2905  0.6097
 4044SOL    HW315943   1.965   5.379   4.505  1.1853 -1.2229 -1.2700
 4044SOL    MW415944   2.021   5.434   4.542 -0.4329  0.0244 -0.5721
 4045SOL     OW15945   3.031   3.090   0.474 -0.3590 -0.4236 -0.0593
 4045SOL    HW215946   3.072   3.032   0.410 -2.2232  0.3407 -2.0574
 4045SOL    HW315947   3.028   3.176   0.431 -0.4837  0.4539  1.5959
 4045SOL    MW415948   3.036   3.094   0.460 -0.6214 -0.2070 -0.1046
 4046SOL     OW15949   0.401   5.255   3.885 -0.3629  0.0786  0.1174
 4046SOL    HW215950   0.403   5.221   3.795 -1.1347  0.6287 -0.1214
 4046SOL    HW315951   0.461   5.199   3.933 -1.9381 -1.9701 -0.1490
 4046SOL    MW415952   0.409   5.243   3.879 -0.6726 -0.1191  0.0508
 4047SOL     OW15953   3.444   3.950   5.173  0.2500  0.7006 -0.1137
 4047SOL    HW215954   3.395   3.886   5.122  1.3490  0.4053 -0.8511
 4047SOL    HW315955   3.384   3.978   5.242 -0.2742 -1.0647  0.1829
 4047SOL    MW415956   3.430   3.945   5.175  0.3259  0.4287 -0.1719
 4048SOL     OW15957   4.419   1.928   4.289 -1.1323 -0.5008 -0.7304
 4048SOL    HW215958   4.417   2.018   4.322 -0.4301 -1.1819  1.3671
 4048SOL    HW315959   4.490   1.928   4.225  0.0988  0.0937  0.5516
 4048SOL    MW415960   4.428   1.940   4.285 -0.8772 -0.5122 -0.2845
 4049SOL     OW15961   2.307   1.558   2.777 -0.5589  0.1926  0.1029
 4049SOL    HW215962   2.365   1.619   2.730  0.4270 -0.6362  0.2053
 4049SOL    HW315963   2.357   1.534   2.856 -0.3757 -1.6949 -0.5418
 4049SOL    MW415964   2.321   1.563   2.781 -0.4047 -0.1658  0.0314
 4050SOL     OW15965   5.425   4.807   2.193  0.6425  0.2633 -0.1085
 4050SOL    HW215966   5.403   4.739   2.129 -0.2034  0.6508 -0.2462
 4050SOL    HW315967   5.514   4.833   2.170  2.3517 -3.0556  1.9651
 4050SOL    MW415968   5.434   4.801   2.181  0.7564 -0.1235  0.1469
 4051SOL     OW15969   2.816   3.480   5.132  0.0144 -0.0708  0.7592
 4051SOL    HW215970   2.740   3.434   5.168 -1.0648  0.7451 -0.3724
 4051SOL    HW315971   2.864   3.511   5.209 -0.2669 -1.4010  1.5073
 4051SOL    MW415972   2.812   3.478   5.147 -0.1651 -0.1387  0.7086
 4052SOL     OW15973   5.710   4.745   5.273  0.4028 -0.4300 -0.2967
 4052SOL    HW215974   5.736   4.784   5.357  0.4778  0.2811 -0.6420
 4052SOL    HW315975   5.633   4.794   5.246  0.4880 -0.5300 -0.7351
 4052SOL    MW415976   5.703   4.757   5.281  0.4239 -0.3494 -0.4001
 4053SOL     OW15977   5.885   0.893   3.517 -0.4777 -0.4538 -0.2479
 4053SOL    HW215978   5.871   0.827   3.449  1.8940 -0.6517 -0.6297
 4053SOL    HW315979   5.897   0.975   3.469 -0.2560 -0.3345  0.0054
 4053SOL    MW415980   5.885   0.895   3.502 -0.1355 -0.4642 -0.2649
 4054SOL     OW15981   5.964   4.592   2.793 -0.9869 -0.1341  0.3442
 4054SOL    HW215982   5.921   4.677   2.801 -0.3457  0.2546 -0.1975
 4054SOL    HW315983   5.932   4.541   2.868  0.2126  1.2768  1.8843
 4054SOL    MW415984   5.954   4.597   2.804 -0.7440  0.1033  0.4759
 4055SOL     OW15985   1.413   0.362   2.152 -0.3602 -0.1850  0.5004
 4055SOL    HW215986   1.408   0.415   2.073  2.1369 -1.0683 -0.3367
 4055SOL    HW315987   1.420   0.426   2.223  0.4790  0.6325 -0.2896
 4055SOL    MW415988   1.413   0.377   2.151  0.0800 -0.1937  0.2857
 4056SOL     OW15989   3.563   3.560   4.663  0.2406  0.1023  0.1144
 4056SOL    HW215990   3.569   3.506   4.585  1.3752 -0.2446  0.4232
 4056SOL    HW315991   3.587   3.648   4.633 -2.7580  0.7703 -0.6427
 4056SOL    MW415992   3.567   3.565   4.649 -0.0053  0.1446  0.0553
 4057SOL     OW15993   6.116   6.346   0.156  0.0556  0.2669 -0.0533
 4057SOL    HW215994   6.093   6.402   0.230  1.6263  1.3880 -0.3564
 4057SOL    HW315995   6.168   6.276   0.195 -0.0561  0.2437  0.0542
 4057SOL    MW415996   6.120   6.344   0.171  0.2481  0.4117 -0.0791
 4058SOL     OW15997   1.050   4.796   0.473  0.2983  0.5365  0.1794
 4058SOL    HW215998   0.987   4.833   0.411  1.3798  0.0543 -1.2590
 4058SOL    HW315999   1.101   4.871   0.503  0.7556  0.5888 -0.6925
 4058SOL    MW416000   1.048   4.811   0.469  0.5014  0.4798 -0.1254
 4059SOL     OW16001   4.678   5.308   2.306 -0.0376  0.1147  0.0488
 4059SOL    HW216002   4.766   5.290   2.273 -0.7294  0.7799 -2.4673
 4059SOL    HW316003   4.664   5.401   2.287 -1.4375 -0.0871 -0.0516
 4059SOL    MW416004   4.688   5.318   2.299 -0.3136  0.1758 -0.2964
 4060SOL     OW16005   0.035   2.845   4.646  0.2237  0.0634 -0.8682
 4060SOL    HW216006  -0.031   2.875   4.584  0.2102  1.5094 -0.1793
 4060SOL    HW316007  -0.016   2.797   4.713  0.3685 -2.7419 -2.5951
 4060SOL    MW416008   0.019   2.842   4.647  0.2410 -0.1160 -1.0052
 4061SOL     OW16009   6.360   3.122   2.967  0.3560  0.9482  0.6142
 4061SOL    HW216010   6.406   3.138   3.050 -0.1933  1.8557  0.7640
 4061SOL    HW316011   6.272   3.094   2.993 -0.0631  1.9839  0.3536
 4061SOL    MW416012   6.354   3.120   2.982  0.2282  1.2046  0.5996
 4062SOL     OW16013   2.125   5.797   3.669 -0.3494  0.1789  0.2755
 4062SOL    HW216014   2.137   5.891   3.683  0.1336  0.0925  0.4588
 4062SOL    HW316015   2.176   5.777   3.591 -0.9043  0.1683 -0.0912
 4062SOL    MW416016   2.133   5.807   3.661 -0.3589  0.1661  0.2513
 4063SOL     OW16017   4.059   3.788   4.265 -0.3973 -0.0302  0.2324
 4063SOL    HW216018   4.060   3.693   4.278  1.5254 -0.3456 -1.6564
 4063SOL    HW316019   3.999   3.801   4.192  1.7620 -0.2161 -1.6606
 4063SOL    MW416020   4.051   3.777   4.257  0.1412 -0.0963 -0.2666
 4064SOL     OW16021   2.481   3.373   2.670 -0.1604 -0.1257 -0.3333
 4064SOL    HW216022   2.411   3.427   2.706  0.7014  0.5038  0.4622
 4064SOL    HW316023   2.562   3.419   2.696  0.5639 -1.2430 -0.5508
 4064SOL    MW416024   2.483   3.386   2.678  0.0489 -0.1900 -0.2570
 4065SOL     OW16025   2.572   3.349   2.270  0.0866 -0.2703  0.1164
 4065SOL    HW216026   2.644   3.382   2.325 -0.0882 -0.9661  0.7650
 4065SOL    HW316027   2.535   3.428   2.231  0.8479  0.1487  0.2136
 4065SOL    MW416028   2.577   3.364   2.272  0.1640 -0.3068  0.2148
 4066SOL     OW16029   1.290   2.908   0.487  0.0246  0.3906  0.2646
 4066SOL    HW216030   1.343   2.876   0.413  1.2417 -1.4457  1.8263
 4066SOL    HW316031   1.222   2.841   0.496  0.3012  0.2316  1.2105
 4066SOL    MW416032   1.288   2.895   0.478  0.2217  0.1273  0.5955
 4067SOL     OW16033   1.531   0.509   0.414  0.1059 -0.5511  0.4723
 4067SOL    HW216034   1.512   0.451   0.487 -1.6123 -1.4285 -0.6078
 4067SOL    HW316035   1.475   0.586   0.429 -0.5548 -0.9075 -0.0899
 4067SOL    MW416036   1.521   0.512   0.425 -0.2080 -0.7139  0.2557
 4068SOL     OW16037   2.493   1.585   0.054  0.1709 -0.4146 -0.4096
 4068SOL    HW216038   2.588   1.573   0.056  0.2020 -0.1607  2.0797
 4068SOL    HW316039   2.481   1.672   0.016  0.8941 -0.6275 -1.1627
 4068SOL    MW416040   2.504   1.595   0.049  0.2704 -0.4092 -0.1805
 4069SOL     OW16041   1.777   3.893   5.096  0.1243  0.8043 -0.5724
 4069SOL    HW216042   1.687   3.887   5.063  0.0862 -0.2203 -0.3295
 4069SOL    HW316043   1.831   3.869   5.021  0.1113  0.0224 -0.3472
 4069SOL    MW416044   1.772   3.889   5.081  0.1176  0.5660 -0.5107
 4070SOL     OW16045   6.251   5.169   4.287 -0.5195  0.1887 -0.1254
 4070SOL    HW216046   6.283   5.256   4.312  1.5839 -0.7472  0.6671
 4070SOL    HW316047   6.283   5.111   4.357 -2.3182 -1.1654 -0.3559
 4070SOL    MW416048   6.259   5.173   4.300 -0.4793 -0.1135 -0.0512
 4071SOL     OW16049   6.236   0.002   2.487 -0.1990 -0.0419 -0.0615
 4071SOL    HW216050   6.250   0.019   2.580  2.1772  0.9721 -0.5291
 4071SOL    HW316051   6.152   0.043   2.467 -0.8113 -0.3817  1.6230
 4071SOL    MW416052   6.227   0.009   2.497  0.0337  0.0471  0.0991
 4072SOL     OW16053   5.862   1.194   1.667  0.1794 -0.2058 -0.0149
 4072SOL    HW216054   5.823   1.108   1.650  1.2849 -0.5865 -0.7395
 4072SOL    HW316055   5.875   1.232   1.580  0.4639  0.3496  0.2633
 4072SOL    MW416056   5.859   1.188   1.653  0.3628 -0.1828 -0.0738
 4073SOL     OW16057   4.231   0.164   4.148  0.2483 -0.4095  0.1112
 4073SOL    HW216058   4.293   0.094   4.130  0.4194 -0.2715  0.1520
 4073SOL    HW316059   4.261   0.237   4.094  0.3450 -0.2218  0.4105
 4073SOL    MW416060   4.243   0.165   4.139  0.2836 -0.3665  0.1561
 4074SOL     OW16061   3.838   2.780   5.045  0.4120  0.4480  0.1368
 4074SOL    HW216062   3.880   2.726   4.978 -1.1830  0.5081 -0.9637
 4074SOL    HW316063   3.761   2.815   5.002  0.2495  1.8670  1.5151
 4074SOL    MW416064   3.834   2.777   5.030  0.1801  0.6432  0.1734
 4075SOL     OW16065   4.559   4.881   5.615 -0.6470  0.3255 -0.1022
 4075SOL    HW216066   4.560   4.857   5.523 -0.2138 -0.4527  0.0929
 4075SOL    HW316067   4.650   4.905   5.634 -0.9505  1.5835 -0.1448
 4075SOL    MW416068   4.571   4.881   5.606 -0.6299  0.3888 -0.0821
 4076SOL     OW16069   1.541   3.256   4.826 -0.0823  0.4915 -0.0018
 4076SOL    HW216070   1.580   3.242   4.913 -0.3970  0.9726  0.2216
 4076SOL    HW316071   1.601   3.212   4.766  0.1028  0.0896  0.4661
 4076SOL    MW416072   1.554   3.248   4.830 -0.0994  0.5019  0.0894
 4077SOL     OW16073   1.651   2.058   3.100 -0.1280 -0.4072 -0.4778
 4077SOL    HW216074   1.567   2.013   3.087 -0.5834  0.4911 -0.7803
 4077SOL    HW316075   1.662   2.112   3.022  0.2394  0.2318 -0.0017
 4077SOL    MW416076   1.641   2.059   3.088 -0.1396 -0.2044 -0.4549
 4078SOL     OW16077   3.106   2.625   2.845 -1.1182  0.3540  0.5614
 4078SOL    HW216078   3.124   2.581   2.928 -0.1954 -0.3405  0.0121
 4078SOL    HW316079   3.067   2.557   2.790  1.0766 -0.0585 -0.5714
 4078SOL    MW416080   3.103   2.610   2.849 -0.7069  0.2079  0.3395
 4079SOL     OW16081   4.006   0.723   2.614  0.1468  0.1097 -0.0721
 4079SOL    HW216082   4.005   0.631   2.588 -1.9507  0.1088 -0.1555
 4079SOL    HW316083   3.960   0.725   2.698  1.4046  0.9333  0.6352
 4079SOL    MW416084   4.000   0.711   2.621  0.0360  0.2183  0.0102
 4080SOL     OW16085   1.132   1.006   1.211  0.2060  0.6307 -0.4444
 4080SOL    HW216086   1.195   1.035   1.276  0.0528  0.1415 -0.0681
 4080SOL    HW316087   1.059   0.972   1.262  1.0461 -1.9327 -0.7950
 4080SOL    MW416088   1.131   1.005   1.226  0.2967  0.2279 -0.4410
 4081SOL     OW16089   5.437   2.367   1.736  0.2427 -1.2165  0.6746
 4081SOL    HW216090   5.385   2.414   1.671 -0.9276 -1.6261  1.2821
 4081SOL    HW316091   5.519   2.416   1.742 -0.7595  0.4613  0.9606
 4081SOL    MW416092   5.441   2.379   1.728 -0.0439 -1.0491  0.7925
 4082SOL     OW16093   5.718   3.220   6.345  0.8391 -0.3540  0.0421
 4082SOL    HW216094   5.745   3.247   6.433 -2.4765  2.3374  0.4366
 4082SOL    HW316095   5.741   3.293   6.289 -1.3117  0.1108 -0.3502
 4082SOL    MW416096   5.724   3.233   6.350  0.1179  0.0624  0.0424
 4083SOL     OW16097   0.444   3.492   3.129 -0.3316 -0.2966 -0.0627
 4083SOL    HW216098   0.379   3.555   3.160  0.4732  0.3627  0.3209
 4083SOL    HW316099   0.528   3.532   3.149  0.2079 -1.7139  0.6379
 4083SOL    MW416100   0.446   3.505   3.135 -0.1542 -0.3966  0.0804
 4084SOL     OW16101   4.045   5.575   0.874 -0.1541  0.1079 -0.2555
 4084SOL    HW216102   4.086   5.496   0.910  0.5336  0.4180 -0.3520
 4084SOL    HW316103   4.117   5.637   0.864 -0.7714  0.9258  0.2855
 4084SOL    MW416104   4.060   5.572   0.877 -0.1448  0.2568 -0.1969
 4085SOL     OW16105   0.599   2.232   3.187 -0.5469  0.5986  0.1165
 4085SOL    HW216106   0.602   2.282   3.269  1.0136  0.2377  0.3077
 4085SOL    HW316107   0.549   2.287   3.127 -1.9758  0.7468  1.3638
 4085SOL    MW416108   0.593   2.246   3.190 -0.5296  0.5705  0.3063
 4086SOL     OW16109   4.697   5.627   5.598  0.2174  0.0907 -0.2975
 4086SOL    HW216110   4.783   5.663   5.577 -0.2194  1.9928  0.8462
 4086SOL    HW316111   4.654   5.697   5.647 -2.0069 -0.7810 -0.8823
 4086SOL    MW416112   4.703   5.641   5.601 -0.1337  0.2266 -0.2238
 4087SOL     OW16113   5.376   2.409   4.598 -0.2072  0.2137 -0.1342
 4087SOL    HW216114   5.311   2.427   4.529  0.0815  1.2559 -0.1405
 4087SOL    HW316115   5.418   2.493   4.614  0.9110 -0.3797  0.1187
 4087SOL    MW416116   5.373   2.422   4.591 -0.0216  0.2729 -0.1016
 4088SOL     OW16117   1.761  -0.009   5.491  0.4124  0.6032 -0.5793
 4088SOL    HW216118   1.826  -0.067   5.450 -0.7839 -2.1080  1.0548
 4088SOL    HW316119   1.780  -0.013   5.584 -2.1305 -0.4653 -0.0118
 4088SOL    MW416120   1.772  -0.017   5.498 -0.0810  0.1045 -0.2889
 4089SOL     OW16121   4.799   0.505   4.049 -0.0065 -0.2578 -0.6036
 4089SOL    HW216122   4.865   0.493   4.117 -1.0509  1.5022  0.8241
 4089SOL    HW316123   4.746   0.426   4.052 -0.4932  0.0882  1.2172
 4089SOL    MW416124   4.801   0.493   4.058 -0.2085  0.0200 -0.1750
 4090SOL     OW16125   1.844   3.818   4.161  0.0477 -0.1534 -0.6759
 4090SOL    HW216126   1.880   3.907   4.166  0.7980 -0.4642 -0.3335
 4090SOL    HW316127   1.869   3.787   4.074 -0.3346  0.0190 -0.8480
 4090SOL    MW416128   1.852   3.826   4.150  0.0963 -0.1716 -0.6534
 4091SOL     OW16129   0.702   0.821   1.026 -0.4014 -0.2518 -0.0025
 4091SOL    HW216130   0.696   0.903   1.076 -2.6010 -0.0786 -0.4520
 4091SOL    HW316131   0.659   0.840   0.943  1.1202 -1.2303 -1.0622
 4091SOL    MW416132   0.695   0.834   1.022 -0.4908 -0.3580 -0.2016
 4092SOL     OW16133   3.729   6.303   3.254  0.0684  0.3114 -0.1422
 4092SOL    HW216134   3.747   6.339   3.341 -0.7205  1.1839 -0.3205
 4092SOL    HW316135   3.798   6.237   3.241  1.6552  1.8348  0.1488
 4092SOL    MW416136   3.741   6.299   3.264  0.1736  0.6275 -0.1273
 4093SOL     OW16137   6.399  -0.046   1.322  0.0150  0.2222  0.2067
 4093SOL    HW216138   6.306  -0.063   1.314  0.2262 -0.7474 -0.3761
 4093SOL    HW316139   6.423   0.001   1.243 -0.2720  1.9603  1.1106
 4093SOL    MW416140   6.390  -0.042   1.311  0.0050  0.3236  0.2491
 4094SOL     OW16141   3.598   2.807   3.604 -0.6677  0.1027 -0.0814
 4094SOL    HW216142   3.582   2.747   3.677  0.2470 -0.0551 -0.0021
 4094SOL    HW316143   3.652   2.757   3.543  1.9546  1.4855  0.9667
 4094SOL    MW416144   3.603   2.793   3.605 -0.2010  0.2643  0.0673
 4095SOL     OW16145   4.046   5.066   4.687  0.6603 -0.1212  0.0262
 4095SOL    HW216146   4.141   5.058   4.682  0.8995  1.6090  0.9917
 4095SOL    HW316147   4.031   5.149   4.731 -1.3407  0.5391 -1.7365
 4095SOL    MW416148   4.057   5.076   4.692  0.4278  0.1942 -0.0790
 4096SOL     OW16149   1.635   4.749   6.121  0.3519 -0.0123 -0.0143
 4096SOL    HW216150   1.610   4.811   6.189  0.6311 -2.1594  2.2138
 4096SOL    HW316151   1.703   4.695   6.162  0.0792 -1.8256 -1.7790
 4096SOL    MW416152   1.641   4.750   6.135  0.3528 -0.5348  0.0469
 4097SOL     OW16153   5.809   5.801   5.020  0.2230 -0.4988  0.0497
 4097SOL    HW216154   5.733   5.813   4.964  0.6212  1.6990 -0.1175
 4097SOL    HW316155   5.773   5.769   5.103 -0.8799  0.3190 -0.0923
 4097SOL    MW416156   5.794   5.798   5.024  0.1300 -0.1009  0.0089
 4098SOL     OW16157   2.312   5.282   0.277 -0.7879 -0.2975  0.0249
 4098SOL    HW216158   2.273   5.341   0.213  1.2934  0.4154 -0.6577
 4098SOL    HW316159   2.330   5.202   0.228  0.0082 -0.0626 -0.0808
 4098SOL    MW416160   2.309   5.279   0.262 -0.4083 -0.1724 -0.0791
 4099SOL     OW16161   4.164   0.165   2.011 -0.5269 -0.5234  0.0357
 4099SOL    HW216162   4.109   0.232   2.052 -0.0509  0.6571 -1.2148
 4099SOL    HW316163   4.240   0.159   2.069 -1.2519 -1.1054  0.9719
 4099SOL    MW416164   4.167   0.173   2.024 -0.5597 -0.4445 -0.0058
 4100SOL     OW16165   3.403   5.514   6.236  0.0791 -0.4381  0.3420
 4100SOL    HW216166   3.478   5.475   6.191  0.4790  0.8152 -0.1303
 4100SOL    HW316167   3.441   5.556   6.314 -0.4368 -1.5255  1.2113
 4100SOL    MW416168   3.418   5.514   6.240  0.0638 -0.4162  0.3944
 4101SOL     OW16169   0.204   0.819   0.582  0.1727 -0.0235  0.8119
 4101SOL    HW216170   0.172   0.733   0.607 -0.6076  0.1627  0.4987
 4101SOL    HW316171   0.129   0.861   0.540  0.9959  0.2441 -0.4280
 4101SOL    MW416172   0.190   0.813   0.580  0.1783  0.0364  0.6070
 4102SOL     OW16173   2.496   3.636   2.489  0.5439 -0.1180 -0.2147
 4102SOL    HW216174   2.452   3.682   2.417 -0.3901 -1.3428 -0.4458
 4102SOL    HW316175   2.461   3.678   2.568 -1.0148 -1.0015 -0.3962
 4102SOL    MW416176   2.486   3.648   2.490  0.2150 -0.3962 -0.2691
 4103SOL     OW16177   4.993   1.211   0.373  0.4489  0.9334  0.7592
 4103SOL    HW216178   4.976   1.293   0.327 -3.0950 -1.0709 -2.0702
 4103SOL    HW316179   5.054   1.164   0.316  0.9145  0.8250  1.3417
 4103SOL    MW416180   4.999   1.215   0.360  0.0428  0.6547  0.4627
 4104SOL     OW16181   0.607   4.255   2.407  0.0624  0.1805  0.8257
 4104SOL    HW216182   0.654   4.232   2.487  1.3401 -0.0612  0.0277
 4104SOL    HW316183   0.587   4.170   2.367  2.0149  0.3209 -0.5552
 4104SOL    MW416184   0.610   4.240   2.412  0.4886  0.1671  0.5382
 4105SOL     OW16185   2.139   3.459   0.868 -0.1310 -0.0097  0.0428
 4105SOL    HW216186   2.069   3.468   0.804  0.2054  1.9722 -0.1174
 4105SOL    HW316187   2.094   3.454   0.952 -0.5035 -0.4110 -0.1750
 4105SOL    MW416188   2.124   3.459   0.870 -0.1358  0.1988 -0.0071
 4106SOL     OW16189   0.092   2.640   1.699  0.3734  0.1538  0.1381
 4106SOL    HW216190   0.017   2.699   1.693  0.7016  0.5311 -0.3216
 4106SOL    HW316191   0.130   2.659   1.785 -0.2870 -0.3224  0.5402
 4106SOL    MW416192   0.087   2.650   1.710  0.3296  0.1407  0.1305
 4107SOL     OW16193   4.148   1.783   5.539  0.3001 -0.2929 -0.4202
 4107SOL    HW216194   4.054   1.789   5.520 -0.1261 -0.0106  1.6115
 4107SOL    HW316195   4.153   1.726   5.616  1.5520  1.6351  1.0124
 4107SOL    MW416196   4.136   1.776   5.546  0.4090 -0.0013  0.0368
 4108SOL     OW16197   4.426   5.604   5.841  0.5539  0.1213  0.1944
 4108SOL    HW216198   4.334   5.591   5.866  0.3062 -1.9575 -1.5464
 4108SOL    HW316199   4.423   5.672   5.774  0.1126 -0.7879 -0.7271
 4108SOL    MW416200   4.413   5.611   5.836  0.4630 -0.2730 -0.1568
 4109SOL     OW16201   0.820   4.580   1.306 -0.0027 -0.5373  0.0377
 4109SOL    HW216202   0.885   4.515   1.331  1.8271  1.3994  0.6387
 4109SOL    HW316203   0.812   4.572   1.211  0.1598 -1.6350  0.1154
 4109SOL    MW416204   0.827   4.571   1.297  0.2601 -0.4266  0.1272
 4110SOL     OW16205   3.799   5.926   5.176  0.2754 -0.2344  0.2181
 4110SOL    HW216206   3.739   5.897   5.108 -0.4175 -0.2406  0.8115
 4110SOL    HW316207   3.775   6.017   5.192  1.6099  0.3171 -0.7627
 4110SOL    MW416208   3.788   5.934   5.169  0.3601 -0.1625  0.1670
 4111SOL     OW16209   2.152   5.893   4.561 -0.1907 -0.4429  0.0613
 4111SOL    HW216210   2.140   5.888   4.655  1.3606 -1.2238  0.2514
 4111SOL    HW316211   2.070   5.928   4.528 -0.8992 -0.5241  1.6582
 4111SOL    MW416212   2.140   5.897   4.569 -0.0795 -0.5566  0.2971
 4112SOL     OW16213   2.275   2.336   4.064 -0.3519  0.2562 -0.1214
 4112SOL    HW216214   2.341   2.276   4.097 -0.2721  0.5716  0.3077
 4112SOL    HW316215   2.299   2.421   4.102 -0.5923  0.5143 -0.5328
 4112SOL    MW416216   2.287   2.340   4.073 -0.3731  0.3318 -0.1191
 4113SOL     OW16217   3.018   3.404   0.066 -0.3833 -0.2928 -0.1585
 4113SOL    HW216218   3.005   3.497   0.080  0.9064 -0.3966  2.2744
 4113SOL    HW316219   3.113   3.392   0.072 -0.2825 -1.5098 -2.6425
 4113SOL    MW416220   3.029   3.414   0.068 -0.1998 -0.4671 -0.1653
 4114SOL     OW16221   1.913   1.681   6.281  0.3883 -0.1558  0.5429
 4114SOL    HW216222   1.865   1.664   6.362 -1.1044 -1.1013 -0.5104
 4114SOL    HW316223   1.848   1.713   6.219  1.1657 -1.1219 -0.8259
 4114SOL    MW416224   1.898   1.683   6.284  0.2939 -0.4080  0.2233
 4115SOL     OW16225   3.670   2.058   2.404 -0.6276 -0.2899 -0.2856
 4115SOL    HW216226   3.661   2.126   2.337 -0.9908 -0.8083 -0.7746
 4115SOL    HW316227   3.580   2.036   2.428 -0.5300  1.4158  1.9927
 4115SOL    MW416228   3.657   2.064   2.398 -0.6626 -0.1333 -0.0495
 4116SOL     OW16229   1.241   1.463   5.819 -0.1888  0.0300 -0.1284
 4116SOL    HW216230   1.232   1.368   5.813  0.7064 -0.3921  3.1965
 4116SOL    HW316231   1.333   1.479   5.799  0.2486 -0.1602  1.5544
 4116SOL    MW416232   1.252   1.452   5.815 -0.0130 -0.0508  0.5323
 4117SOL     OW16233   1.354   0.380   4.925  0.2413  0.3613  0.5043
 4117SOL    HW216234   1.438   0.401   4.885 -0.0541  1.9428  0.6619
 4117SOL    HW316235   1.376   0.329   5.003  1.0239  0.4956  0.3747
 4117SOL    MW416236   1.368   0.376   4.930  0.3056  0.5876  0.5080
 4118SOL     OW16237   0.870   3.866   4.737 -0.6171 -0.1469  0.3964
 4118SOL    HW216238   0.833   3.788   4.698 -1.1375 -0.1492  0.8935
 4118SOL    HW316239   0.800   3.931   4.735 -0.2893  0.2142  0.2749
 4118SOL    MW416240   0.856   3.864   4.731 -0.6425 -0.0996  0.4460
 4119SOL     OW16241   0.870   2.385   1.155 -0.3239 -0.2564  0.3756
 4119SOL    HW216242   0.912   2.470   1.169  0.4889 -0.7002  0.7207
 4119SOL    HW316243   0.939   2.330   1.117 -1.1418 -0.4703 -0.8461
 4119SOL    MW416244   0.885   2.389   1.152 -0.3246 -0.3432  0.2600
 4120SOL     OW16245   4.199   0.514   1.808 -0.4349  0.0295 -0.2485
 4120SOL    HW216246   4.110   0.508   1.775 -0.8360 -0.8974  0.9194
 4120SOL    HW316247   4.248   0.449   1.757 -0.5389  0.1651 -0.5234
 4120SOL    MW416248   4.194   0.505   1.797 -0.5015 -0.0749 -0.1307
 4121SOL     OW16249   4.653   5.153   3.690 -0.5169 -0.1055  0.0045
 4121SOL    HW216250   4.728   5.148   3.630 -0.0932  0.6884  0.4428
 4121SOL    HW316251   4.676   5.223   3.751 -1.9197  0.6333 -0.2631
 4121SOL    MW416252   4.666   5.162   3.690 -0.6461  0.0967  0.0270
 4122SOL     OW16253   4.962   4.180   0.823  0.0480  0.2028 -0.0697
 4122SOL    HW216254   5.014   4.260   0.818  1.4336 -0.6849 -0.2158
 4122SOL    HW316255   4.915   4.176   0.740  0.5492  0.4801 -0.3655
 4122SOL    MW416256   4.963   4.190   0.811  0.2969  0.1222 -0.1280
 4123SOL     OW16257   5.803   1.627   1.734 -0.1841 -0.2459 -0.0789
 4123SOL    HW216258   5.753   1.674   1.800  3.6375  1.3102  2.0326
 4123SOL    HW316259   5.789   1.676   1.653 -1.8806  0.1926  0.4539
 4123SOL    MW416260   5.795   1.640   1.732  0.0962  0.0173  0.2700
 4124SOL     OW16261   2.482   0.735   1.187  1.2212  0.1490 -0.3542
 4124SOL    HW216262   2.563   0.730   1.137  1.2567 -0.4671 -0.2415
 4124SOL    HW316263   2.510   0.725   1.278  0.9090 -1.3206 -0.3967
 4124SOL    MW416264   2.496   0.733   1.192  1.1847 -0.1262 -0.3450
 4125SOL     OW16265   5.185   5.694   3.869 -0.8267  0.2911  0.3507
 4125SOL    HW216266   5.118   5.743   3.916 -0.5363 -0.3045  1.4012
 4125SOL    HW316267   5.136   5.636   3.811 -1.2057  0.3113  0.6514
 4125SOL    MW416268   5.170   5.693   3.867 -0.8384  0.2152  0.5289
 4126SOL     OW16269   4.421   6.373   2.679 -0.0223 -0.5220 -0.2756
 4126SOL    HW216270   4.380   6.447   2.724  0.3733 -0.4608 -0.0133
 4126SOL    HW316271   4.397   6.384   2.587  0.6799  0.3665 -0.3672
 4126SOL    MW416272   4.412   6.384   2.673  0.1226 -0.3967 -0.2531
 4127SOL     OW16273   1.971   5.077   4.601 -0.1720  0.1606 -0.0697
 4127SOL    HW216274   1.999   5.055   4.690 -1.4901 -0.3709  0.2463
 4127SOL    HW316275   1.983   4.996   4.551  1.1951  0.6448 -0.5607
 4127SOL    MW416276   1.976   5.064   4.606 -0.1655  0.1543 -0.0928
 4128SOL     OW16277   1.392   3.479   1.934 -0.5944  0.5479 -0.2553
 4128SOL    HW216278   1.407   3.571   1.913 -0.4261  0.4749 -0.4614
 4128SOL    HW316279   1.471   3.453   1.983  1.0196 -0.3962 -3.1026
 4128SOL    MW416280   1.405   3.488   1.938 -0.3592  0.4137 -0.6581
 4129SOL     OW16281   0.833   2.746   4.039  0.6110  0.2265 -0.2294
 4129SOL    HW216282   0.876   2.705   4.114 -2.8593 -0.1296  1.7660
 4129SOL    HW316283   0.815   2.836   4.067 -1.1729 -0.0459 -0.3559
 4129SOL    MW416284   0.836   2.753   4.052 -0.0823  0.1435  0.0172
 4130SOL     OW16285   6.149   3.049   0.379 -0.5202  0.1343 -0.0763
 4130SOL    HW216286   6.104   3.009   0.304  1.0465 -1.0564 -0.4529
 4130SOL    HW316287   6.236   3.071   0.345 -0.2188  0.7682  1.0667
 4130SOL    MW416288   6.155   3.046   0.365 -0.2737  0.0609  0.0248
 4131SOL     OW16289   0.994   1.202   4.250  0.2675 -0.2419 -0.3246
 4131SOL    HW216290   0.914   1.154   4.231  0.2423  0.2628 -1.6117
 4131SOL    HW316291   0.996   1.210   4.345 -2.5271  1.9261 -0.3390
 4131SOL    MW416292   0.984   1.196   4.260 -0.1046  0.1107 -0.4963
 4132SOL     OW16293   2.781   5.874   5.655  0.4211 -0.5264 -0.0193
 4132SOL    HW216294   2.755   5.948   5.600 -0.3037 -0.1858  0.7601
 4132SOL    HW316295   2.854   5.834   5.608  0.7716  0.6335 -0.4896
 4132SOL    MW416296   2.787   5.878   5.641  0.3717 -0.3284  0.0215
 4133SOL     OW16297   0.468   1.128   3.833 -0.3982 -0.0459  0.2229
 4133SOL    HW216298   0.399   1.181   3.873 -0.0376  0.3141  0.3681
 4133SOL    HW316299   0.479   1.054   3.893 -0.1264  0.2939  0.5966
 4133SOL    MW416300   0.460   1.125   3.846 -0.3148  0.0464  0.2914
 4134SOL     OW16301   2.893   1.993   4.045 -0.4584 -0.4459  0.0830
 4134SOL    HW216302   2.846   2.013   4.126 -0.0431 -0.7175  0.3958
 4134SOL    HW316303   2.824   1.986   3.979 -0.5979  3.6783 -0.4932
 4134SOL    MW416304   2.878   1.995   4.047 -0.4220  0.0624  0.0482
 4135SOL     OW16305   1.822   0.563   0.480  0.3220 -0.1631 -0.0384
 4135SOL    HW216306   1.793   0.609   0.559 -0.1293  0.1124 -0.3612
 4135SOL    HW316307   1.760   0.492   0.469 -0.9252  1.0631 -1.3327
 4135SOL    MW416308   1.810   0.560   0.489  0.0979  0.0350 -0.2517
 4136SOL     OW16309   4.163   4.465   4.121 -0.4187 -0.1220 -0.2375
 4136SOL    HW216310   4.107   4.392   4.149  0.3738 -0.5877  0.1575
 4136SOL    HW316311   4.243   4.455   4.172 -0.3600  1.1362 -0.0468
 4136SOL    MW416312   4.166   4.454   4.131 -0.3064 -0.0174 -0.1602
 4137SOL     OW16313   3.214   3.191   6.022  0.2046  0.1518 -0.2118
 4137SOL    HW216314   3.124   3.163   6.004  0.4002 -0.9348  0.4541
 4137SOL    HW316315   3.206   3.285   6.039 -1.0780 -0.2044  1.4608
 4137SOL    MW416316   3.201   3.200   6.022  0.0612 -0.0386  0.0967
 4138SOL     OW16317   4.880   3.135   6.095  0.1941  0.6632 -0.4303
 4138SOL    HW216318   4.951   3.146   6.159 -1.1277  2.1826  0.8689
 4138SOL    HW316319   4.802   3.119   6.148 -0.7249  0.6892 -1.7299
 4138SOL    MW416320   4.879   3.134   6.111 -0.1015  0.8671 -0.4304
 4139SOL     OW16321   2.981   4.894   1.095  0.3850 -0.3430  0.1410
 4139SOL    HW216322   2.990   4.989   1.103 -0.2430 -0.2030 -0.6611
 4139SOL    HW316323   2.920   4.869   1.165 -1.7705  0.2759 -1.4170
 4139SOL    MW416324   2.974   4.903   1.105  0.0177 -0.2428 -0.1704
 4140SOL     OW16325   3.058   2.844   4.371  0.0381  0.5638 -0.2460
 4140SOL    HW216326   3.104   2.925   4.349  1.1899  0.2597  0.9116
 4140SOL    HW316327   3.094   2.779   4.311  1.3863  0.2739  0.8019
 4140SOL    MW416328   3.069   2.846   4.360  0.3679  0.4854  0.0450
 4141SOL     OW16329   2.312   4.855   3.615  0.2082  0.4467 -0.2334
 4141SOL    HW216330   2.403   4.885   3.608 -0.2867  2.3172  0.7658
 4141SOL    HW316331   2.279   4.895   3.695 -1.7027  0.3478 -0.9159
 4141SOL    MW416332   2.320   4.864   3.624 -0.1092  0.6805 -0.1916
 4142SOL     OW16333   5.642   5.174   4.179  0.2765 -0.0311  0.2220
 4142SOL    HW216334   5.651   5.085   4.214 -0.6172 -0.2412 -0.0439
 4142SOL    HW316335   5.658   5.165   4.085 -0.7650 -0.1077  0.0301
 4142SOL    MW416336   5.645   5.161   4.171  0.0212 -0.0689  0.1616
 4143SOL     OW16337   4.335   0.291   1.073 -0.0337  0.2405  0.5769
 4143SOL    HW216338   4.386   0.274   0.993 -0.6638 -0.8437  0.3914
 4143SOL    HW316339   4.278   0.363   1.049  1.3441  1.4459  0.7694
 4143SOL    MW416340   4.334   0.298   1.059  0.0650  0.2565  0.5778
 4144SOL     OW16341   2.657   1.797   5.831 -0.6080 -0.5153  0.1875
 4144SOL    HW216342   2.724   1.815   5.765 -1.1557  0.5336 -0.1014
 4144SOL    HW316343   2.682   1.851   5.906 -1.3984  0.2708 -0.1043
 4144SOL    MW416344   2.669   1.806   5.832 -0.7846 -0.2732  0.1109
 4145SOL     OW16345   0.501   3.533   4.769 -0.2115  0.1048 -0.2016
 4145SOL    HW216346   0.533   3.445   4.791  0.7421  0.6184  0.5468
 4145SOL    HW316347   0.571   3.570   4.715  0.4455  1.1945  1.3319
 4145SOL    MW416348   0.515   3.526   4.765  0.0010  0.3163  0.0995
 4146SOL     OW16349   5.384   1.787   6.352 -0.1336  0.0092 -0.1775
 4146SOL    HW216350   5.429   1.871   6.361  1.9000 -1.1230  0.9900
 4146SOL    HW316351   5.388   1.749   6.439 -2.3771 -0.6865 -0.3304
 4146SOL    MW416352   5.391   1.793   6.365 -0.1613 -0.2320 -0.0436
 4147SOL     OW16353   3.684   5.387   2.373 -0.5093  0.0084  0.3938
 4147SOL    HW216354   3.588   5.391   2.366 -0.5829  0.0059  1.3408
 4147SOL    HW316355   3.712   5.347   2.290 -1.2439  0.9971 -0.3478
 4147SOL    MW416356   3.675   5.382   2.361 -0.6159  0.1385  0.4209
 4148SOL     OW16357   3.484   2.777   5.760 -0.7124  0.4997  0.4341
 4148SOL    HW216358   3.403   2.772   5.810 -0.2958  0.7119  1.1434
 4148SOL    HW316359   3.531   2.851   5.797  0.5551 -0.6223  1.1661
 4148SOL    MW416360   3.480   2.786   5.771 -0.4902  0.3796  0.6243
 4149SOL     OW16361   0.526   4.228   2.116  0.3124 -0.1656  0.2510
 4149SOL    HW216362   0.611   4.224   2.160  0.4078 -0.0114  0.0836
 4149SOL    HW316363   0.462   4.216   2.186  0.2898  4.0298  1.2001
 4149SOL    MW416364   0.529   4.226   2.131  0.3220  0.4083  0.3541
 4150SOL     OW16365   2.904   1.706   1.407  0.4579 -0.0657  0.1459
 4150SOL    HW216366   2.900   1.802   1.412 -1.0884 -0.0681 -0.5515
 4150SOL    HW316367   2.820   1.677   1.444  1.2453 -1.2021  1.1230
 4150SOL    MW416368   2.892   1.715   1.413  0.3578 -0.2160  0.1828
 4151SOL     OW16369   5.773   2.519   5.175 -0.3339 -0.0459  0.4407
 4151SOL    HW216370   5.835   2.479   5.237 -1.0846 -1.0433  0.5662
 4151SOL    HW316371   5.829   2.567   5.114  0.7729 -2.4751 -0.6047
 4151SOL    MW416372   5.789   2.520   5.175 -0.2869 -0.4980  0.3193
 4152SOL     OW16373   2.486   5.108   2.579 -0.0071 -0.2489 -0.3234
 4152SOL    HW216374   2.480   5.125   2.485  2.0180  2.1048 -0.1342
 4152SOL    HW316375   2.577   5.129   2.601 -0.9196  1.2347  2.4812
 4152SOL    MW416376   2.497   5.113   2.569  0.1397  0.2574  0.0716
 4153SOL     OW16377   2.989   4.075   5.292  0.0222 -0.1679  0.3784
 4153SOL    HW216378   2.906   4.049   5.253  0.1033 -0.3300  0.3091
 4153SOL    HW316379   3.016   4.152   5.243 -0.2724  0.1104  0.6528
 4153SOL    MW416380   2.982   4.082   5.280 -0.0060 -0.1526  0.4054
 4154SOL     OW16381   5.604   0.092   4.883  1.1248  0.4958  0.2163
 4154SOL    HW216382   5.565   0.153   4.945  2.0594  1.2493  0.0761
 4154SOL    HW316383   5.575   0.006   4.914 -0.1541  0.9812  0.4500
 4154SOL    MW416384   5.595   0.088   4.895  1.0794  0.6593  0.2286
 4155SOL     OW16385   0.726   0.180   0.337  0.4534 -0.3110 -0.1965
 4155SOL    HW216386   0.647   0.181   0.390  1.1354 -0.7550  0.8549
 4155SOL    HW316387   0.760   0.269   0.342  0.5621 -0.3746  0.1781
 4155SOL    MW416388   0.720   0.192   0.345  0.5577 -0.3780 -0.0084
 4156SOL     OW16389   4.485   6.359   0.454 -0.1320 -0.0995  0.3797
 4156SOL    HW216390   4.454   6.307   0.380 -1.0461  0.0121  0.6638
 4156SOL    HW316391   4.407   6.407   0.483 -0.1274 -1.1093  2.2173
 4156SOL    MW416392   4.471   6.358   0.448 -0.2520 -0.2180  0.6596
 4157SOL     OW16393   4.492   1.782   2.156  0.7506 -0.3539 -0.8488
 4157SOL    HW216394   4.484   1.801   2.249 -1.7073  2.0178 -1.4128
 4157SOL    HW316395   4.528   1.693   2.152  0.9807 -0.5022  2.3007
 4157SOL    MW416396   4.496   1.773   2.168  0.4567 -0.0606 -0.5077
 4158SOL     OW16397   0.538   5.135   3.207 -0.3819  1.0909 -0.2392
 4158SOL    HW216398   0.443   5.121   3.210 -0.3389  0.6080 -1.0179
 4158SOL    HW316399   0.573   5.074   3.272 -0.5108  0.3123 -0.8838
 4158SOL    MW416400   0.530   5.125   3.216 -0.3932  0.9245 -0.4270
 4159SOL     OW16401   0.838   5.978   4.341  0.1381 -0.3420 -0.1331
 4159SOL    HW216402   0.873   5.974   4.430  0.8511 -0.1930 -0.3986
 4159SOL    HW316403   0.748   6.008   4.352  0.6316  1.0209  0.4540
 4159SOL    MW416404   0.831   5.981   4.354  0.2973 -0.1425 -0.0906
 4160SOL     OW16405   0.229   4.681   1.107  0.2382  0.7449 -0.0349
 4160SOL    HW216406   0.238   4.689   1.012  3.5228 -1.4559 -0.0815
 4160SOL    HW316407   0.189   4.595   1.120  1.5740  0.1771  0.5174
 4160SOL    MW416408   0.225   4.671   1.096  0.8478  0.3796  0.0318
 4161SOL     OW16409   0.828   3.212   1.512  0.5872  0.3098  0.3433
 4161SOL    HW216410   0.830   3.194   1.606  0.8236  1.8152  0.6570
 4161SOL    HW316411   0.919   3.210   1.484  0.4259 -1.4187 -0.1471
 4161SOL    MW416412   0.840   3.210   1.521  0.5971  0.2804  0.3200
 4162SOL     OW16413   3.629   1.007   2.822 -0.5508  0.0823  0.0536
 4162SOL    HW216414   3.602   1.010   2.731 -0.8804 -1.2065  0.0756
 4162SOL    HW316415   3.591   0.925   2.855  0.0418  0.2390  1.1869
 4162SOL    MW416416   3.620   0.996   2.815 -0.5161 -0.0671  0.2060
 4163SOL     OW16417   2.129   4.425   5.813  0.2475 -0.2332  0.2192
 4163SOL    HW216418   2.192   4.453   5.747 -0.2191  2.4393  0.7764
 4163SOL    HW316419   2.052   4.399   5.763  0.0601  1.3380 -0.3856
 4163SOL    MW416420   2.127   4.425   5.798  0.1612  0.3267  0.2129
 4164SOL     OW16421   3.654   4.582   4.636 -1.0947 -0.2863 -0.4597
 4164SOL    HW216422   3.634   4.627   4.718 -1.1675 -1.1072 -0.0132
 4164SOL    HW316423   3.589   4.613   4.574 -1.7366 -0.4921  0.1004
 4164SOL    MW416424   3.643   4.592   4.639 -1.1890 -0.4217 -0.3269
 4165SOL     OW16425   2.868   4.522   0.889 -0.0669 -0.1410  0.2828
 4165SOL    HW216426   2.956   4.489   0.872 -0.8458 -1.7048 -1.0957
 4165SOL    HW316427   2.861   4.602   0.837  0.2383 -0.5393 -0.3877
 4165SOL    MW416428   2.878   4.528   0.880 -0.1294 -0.3999  0.0125
 4166SOL     OW16429   3.368   6.278   5.542 -0.2887 -0.0568  0.0180
 4166SOL    HW216430   3.384   6.367   5.510  0.0533 -0.5969 -1.3876
 4166SOL    HW316431   3.383   6.283   5.636  0.3190  1.2352 -0.1319
 4166SOL    MW416432   3.372   6.291   5.550 -0.1634  0.0424 -0.1872
 4167SOL     OW16433   5.564   2.829   3.737 -0.4967 -0.0793 -0.4923
 4167SOL    HW216434   5.514   2.748   3.730  0.4234 -0.6796 -0.3668
 4167SOL    HW316435   5.534   2.883   3.664 -0.0495 -1.1461 -1.4950
 4167SOL    MW416436   5.554   2.826   3.727 -0.3163 -0.2993 -0.6080
 4168SOL     OW16437   1.424   1.106   6.131  0.5824 -0.0388  0.1841
 4168SOL    HW216438   1.355   1.120   6.196 -0.0840  1.6586 -0.8324
 4168SOL    HW316439   1.382   1.054   6.063  0.4790  0.4465 -0.1287
 4168SOL    MW416440   1.409   1.101   6.131  0.4809  0.2492  0.0087
 4169SOL     OW16441   3.741   1.859   1.418 -0.3750  0.4103 -0.5881
 4169SOL    HW216442   3.708   1.936   1.373  1.3537  1.3846 -0.2849
 4169SOL    HW316443   3.717   1.873   1.510 -1.4657 -0.2205 -0.7633
 4169SOL    MW416444   3.733   1.871   1.424 -0.2909  0.4556 -0.5712
 4170SOL     OW16445   4.408   3.956   3.504 -0.1006 -0.0580 -0.4099
 4170SOL    HW216446   4.372   3.941   3.592  2.2480  1.0052  0.8187
 4170SOL    HW316447   4.427   3.869   3.471 -0.3917 -0.4533  0.4310
 4170SOL    MW416448   4.406   3.943   3.512  0.1709  0.0302 -0.1369
 4171SOL     OW16449   0.307   5.491   0.055  0.0145  0.0802  0.5338
 4171SOL    HW216450   0.214   5.469   0.048  0.4502 -1.4657 -1.5882
 4171SOL    HW316451   0.351   5.407   0.064  1.2268  0.8157  1.9070
 4171SOL    MW416452   0.300   5.477   0.055  0.2320 -0.0267  0.4350
 4172SOL     OW16453   5.774   0.024   4.173  0.1419 -0.2993  0.0992
 4172SOL    HW216454   5.691  -0.011   4.139  0.6768 -0.6496 -0.8681
 4172SOL    HW316455   5.822  -0.053   4.203  0.3534 -0.1467  0.1546
 4172SOL    MW416456   5.769   0.009   4.173  0.2404 -0.3254 -0.0211
 4173SOL     OW16457   3.763   1.856   0.053 -0.4532 -0.3825 -0.3187
 4173SOL    HW216458   3.846   1.902   0.065  0.7575 -2.5613  0.2852
 4173SOL    HW316459   3.736   1.878  -0.036  0.3241  1.0339 -0.2295
 4173SOL    MW416460   3.770   1.865   0.043 -0.1909 -0.4831 -0.2273
 4174SOL     OW16461   2.168   1.442   0.659 -0.3268 -0.2720 -0.6079
 4174SOL    HW216462   2.076   1.417   0.645 -0.4304 -0.3787  0.2039
 4174SOL    HW316463   2.166   1.537   0.662 -0.3072 -0.2509 -1.2734
 4174SOL    MW416464   2.155   1.451   0.658 -0.3379 -0.2833 -0.5886
 4175SOL     OW16465   2.907   1.941   2.989  0.6195 -0.1582 -0.2188
 4175SOL    HW216466   2.946   1.914   3.073  0.6511 -1.2927 -0.5853
 4175SOL    HW316467   2.818   1.968   3.011  0.5027 -0.8141  0.1274
 4175SOL    MW416468   2.901   1.941   3.003  0.6083 -0.3944 -0.2215
 4176SOL     OW16469   3.902   3.351   6.350 -0.6889 -1.1727  0.1285
 4176SOL    HW216470   3.862   3.385   6.270 -1.2431 -1.3044  0.3457
 4176SOL    HW316471   3.931   3.429   6.397 -0.4093 -1.0914 -0.1703
 4176SOL    MW416472   3.900   3.366   6.345 -0.7251 -1.1793  0.1177
 4177SOL     OW16473   4.940   3.569   3.901  0.4673  0.2262  0.5496
 4177SOL    HW216474   4.891   3.509   3.846 -1.4096 -0.5190  2.8688
 4177SOL    HW316475   4.924   3.655   3.862  1.6600 -0.4930 -1.7149
 4177SOL    MW416476   4.931   3.573   3.889  0.3770  0.0330  0.5568
 4178SOL     OW16477   4.768   4.017   0.426  0.2027  0.4070 -0.0194
 4178SOL    HW216478   4.856   3.981   0.441  0.3513  0.3561 -0.9770
 4178SOL    HW316479   4.712   3.940   0.415  0.3133  0.4373 -0.8924
 4178SOL    MW416480   4.772   4.002   0.427  0.2369  0.4043 -0.2609
 4179SOL     OW16481   6.333   3.258   0.062  0.7516  0.6459  0.8574
 4179SOL    HW216482   6.239   3.251   0.080  0.5202 -1.1072 -0.6486
 4179SOL    HW316483   6.373   3.193   0.119  0.5946 -1.1324 -0.9389
 4179SOL    MW416484   6.326   3.248   0.072  0.7004  0.1800  0.4217
 4180SOL     OW16485   0.516   4.204   6.131 -0.1377  0.0644 -0.2632
 4180SOL    HW216486   0.457   4.279   6.125 -0.7962 -0.5708 -2.4489
 4180SOL    HW316487   0.591   4.237   6.181 -1.1339  1.6716  0.2510
 4180SOL    MW416488   0.518   4.218   6.137 -0.3560  0.1926 -0.4838
 4181SOL     OW16489   0.455   0.591   4.468  0.2337 -0.6657  0.0929
 4181SOL    HW216490   0.405   0.655   4.518 -1.2898 -0.3914 -1.6623
 4181SOL    HW316491   0.517   0.554   4.531 -1.0625  0.1803  1.9524
 4181SOL    MW416492   0.457   0.595   4.483 -0.1383 -0.5179  0.1067
 4182SOL     OW16493   4.912   2.267   6.251 -0.8015 -0.5349 -0.5060
 4182SOL    HW216494   4.992   2.309   6.220 -1.3877  0.8021 -0.2808
 4182SOL    HW316495   4.939   2.216   6.327 -0.3626  0.9473  0.3616
 4182SOL    MW416496   4.926   2.266   6.257 -0.8210 -0.1629 -0.3618
 4183SOL     OW16497   1.959   4.418   0.482  0.5398  0.0967 -0.7860
 4183SOL    HW216498   1.865   4.411   0.464  0.6122  0.8661 -1.5311
 4183SOL    HW316499   1.999   4.351   0.427  0.2417 -2.1869  1.6100
 4183SOL    MW416500   1.952   4.408   0.472  0.5100 -0.1030 -0.5682
 4184SOL     OW16501   5.817   2.627   1.978 -0.1702  0.0133 -0.1719
 4184SOL    HW216502   5.771   2.576   1.911 -2.2718  1.0864  0.3747
 4184SOL    HW316503   5.881   2.679   1.929 -1.4929  0.5913 -1.3481
 4184SOL    MW416504   5.819   2.627   1.963 -0.6220  0.2312 -0.2549
 4185SOL     OW16505   5.496   4.611   1.238  0.0634  0.4203  0.0801
 4185SOL    HW216506   5.570   4.625   1.179 -0.4483  0.3512 -0.5857
 4185SOL    HW316507   5.492   4.516   1.251 -2.0265 -0.0163 -2.7299
 4185SOL    MW416508   5.505   4.601   1.232 -0.2798  0.3536 -0.3785
 4186SOL     OW16509   3.415   2.571   3.509 -0.6632  0.0291  0.3058
 4186SOL    HW216510   3.319   2.563   3.509 -0.5869 -1.6748 -1.3391
 4186SOL    HW316511   3.439   2.568   3.601 -2.1169 -1.5924  0.7031
 4186SOL    MW416512   3.405   2.569   3.521 -0.8450 -0.4097  0.1412
 4187SOL     OW16513   3.849   1.308   0.804 -0.4243 -0.6824 -0.4060
 4187SOL    HW216514   3.868   1.235   0.746 -0.1770  0.3912 -1.7082
 4187SOL    HW316515   3.935   1.339   0.833 -0.5282 -0.9010  0.1475
 4187SOL    MW416516   3.863   1.303   0.801 -0.4054 -0.5696 -0.5048
 4188SOL     OW16517   5.688   4.798   1.793 -0.2014  0.1103 -0.0785
 4188SOL    HW216518   5.703   4.885   1.831  0.9313 -0.5834  1.1407
 4188SOL    HW316519   5.607   4.808   1.742  0.0014  1.9133 -0.1163
 4188SOL    MW416520   5.679   4.811   1.791 -0.0252  0.2566  0.0774
 4189SOL     OW16521   1.890   4.477   4.161 -0.5152  0.0963  0.2089
 4189SOL    HW216522   1.846   4.467   4.077 -0.5031  1.5859  0.0021
 4189SOL    HW316523   1.873   4.567   4.187 -1.0911 -0.5169  2.1484
 4189SOL    MW416524   1.882   4.487   4.153 -0.5896  0.2120  0.4375
 4190SOL     OW16525   0.789   3.425   2.787  0.3484 -0.1148  0.4680
 4190SOL    HW216526   0.761   3.392   2.872  2.3223  1.6231  1.9055
 4190SOL    HW316527   0.790   3.520   2.798 -2.6492  0.5099 -2.6440
 4190SOL    MW416528   0.785   3.433   2.800  0.2133  0.1969  0.2471
 4191SOL     OW16529   2.936   5.002   4.202 -0.5749  0.1146 -0.7237
 4191SOL    HW216530   2.908   4.915   4.176  0.5781  0.2129 -2.5086
 4191SOL    HW316531   3.032   4.996   4.208 -0.5675  0.9475  0.4445
 4191SOL    MW416532   2.945   4.990   4.199 -0.4218  0.2375 -0.8051
 4192SOL     OW16533   2.356   1.329   1.324  0.2355 -0.1492  0.0981
 4192SOL    HW216534   2.432   1.343   1.381 -0.0597  1.5888  0.1126
 4192SOL    HW316535   2.284   1.315   1.385  0.3963 -1.0667  0.0922
 4192SOL    MW416536   2.357   1.329   1.339  0.2178 -0.0409  0.0992
 4193SOL     OW16537   4.933   4.318   2.712 -0.2878 -0.5143 -0.2688
 4193SOL    HW216538   4.887   4.238   2.687 -0.0912 -0.1146 -2.0879
 4193SOL    HW316539   4.934   4.370   2.631  0.8067  0.7206  0.5125
 4193SOL    MW416540   4.927   4.315   2.698 -0.1174 -0.2986 -0.4057
 4194SOL     OW16541   2.307   2.210   4.935 -0.4065  0.3716  0.2609
 4194SOL    HW216542   2.247   2.198   4.861 -0.1117  0.2297  0.0423
 4194SOL    HW316543   2.380   2.259   4.898 -0.0378 -0.1082  0.3423
 4194SOL    MW416544   2.308   2.215   4.920 -0.3190  0.2896  0.2428
 4195SOL     OW16545   0.995   3.275   3.094 -0.3877  0.4103 -0.4774
 4195SOL    HW216546   0.999   3.326   3.175 -1.0390  0.9220 -0.7691
 4195SOL    HW316547   1.047   3.325   3.032 -2.1612  1.4747 -1.1675
 4195SOL    MW416548   1.003   3.288   3.097 -0.7076  0.6183 -0.6070
 4196SOL     OW16549   0.057   5.188   3.911 -0.0752 -0.1246  0.1515
 4196SOL    HW216550  -0.023   5.236   3.933 -0.7920 -1.2652  0.1426
 4196SOL    HW316551   0.099   5.172   3.996  0.8033  1.5119  0.0705
 4196SOL    MW416552   0.052   5.192   3.925 -0.0539 -0.0591  0.1396
 4197SOL     OW16553   4.445   2.156   5.429  0.1224  0.5004 -0.9012
 4197SOL    HW216554   4.448   2.249   5.451  0.1881  0.1029  0.8541
 4197SOL    HW316555   4.508   2.146   5.358  0.7803  1.6310 -0.4931
 4197SOL    MW416556   4.454   2.167   5.422  0.2179  0.5972 -0.6157
 4198SOL     OW16557   0.173   6.143   1.255  0.0410 -0.1846 -0.2419
 4198SOL    HW216558   0.191   6.050   1.242 -0.8642 -0.3158 -0.5703
 4198SOL    HW316559   0.205   6.185   1.175  2.3501  0.0674  0.7372
 4198SOL    MW416560   0.180   6.136   1.243  0.2262 -0.1686 -0.1561
 4199SOL     OW16561   1.601   2.592   5.743 -0.5272  0.2643  0.2422
 4199SOL    HW216562   1.679   2.583   5.798 -1.1192  0.1928  1.0929
 4199SOL    HW316563   1.595   2.685   5.722  1.2130 -0.0488 -1.9997
 4199SOL    MW416564   1.610   2.603   5.748 -0.3757  0.2136  0.0587
 4200SOL     OW16565   2.454   6.095   2.643  0.1747 -0.0432  0.2429
 4200SOL    HW216566   2.407   6.100   2.559  0.9733 -1.5971 -0.3428
 4200SOL    HW316567   2.495   6.181   2.652  0.0816  0.1560 -0.9781
 4200SOL    MW416568   2.453   6.107   2.633  0.2678 -0.2219  0.0045
 4201SOL     OW16569   3.525   2.008   0.504 -0.5113 -0.0098  0.0940
 4201SOL    HW216570   3.531   1.975   0.414 -1.0274  0.8991 -0.2815
 4201SOL    HW316571   3.496   1.932   0.555  0.5712 -0.7632 -0.3483
 4201SOL    MW416572   3.522   1.993   0.499 -0.4366  0.0107 -0.0139
 4202SOL     OW16573   3.664   1.010   3.808 -0.7173  0.0502 -0.0713
 4202SOL    HW216574   3.716   1.035   3.884 -1.7739  0.5541  0.5062
 4202SOL    HW316575   3.689   1.073   3.740  0.7785 -0.8593 -0.4161
 4202SOL    MW416576   3.674   1.022   3.809 -0.6593 -0.0033 -0.0406
 4203SOL     OW16577   0.599   5.319   0.268 -0.1655  0.1634 -0.1118
 4203SOL    HW216578   0.658   5.388   0.300  1.6360 -1.5530  0.4792
 4203SOL    HW316579   0.542   5.300   0.343  0.6197 -0.3006  0.3794
 4203SOL    MW416580   0.599   5.326   0.282  0.1758 -0.1243  0.0310
 4204SOL     OW16581   5.321   5.094   5.393 -0.2055 -0.3887 -0.0651
 4204SOL    HW216582   5.374   5.040   5.452 -0.2273  0.3170  0.6113
 4204SOL    HW316583   5.299   5.172   5.444 -1.2190 -0.2950 -0.6055
 4204SOL    MW416584   5.325   5.097   5.408 -0.3421 -0.2832 -0.0471
 4205SOL     OW16585   4.420   3.011   3.585  0.0694  0.1326  0.4651
 4205SOL    HW216586   4.447   3.099   3.611 -0.2756  0.4515 -0.2329
 4205SOL    HW316587   4.331   3.022   3.552 -0.2870 -0.6184  1.1321
 4205SOL    MW416588   4.412   3.024   3.584 -0.0232  0.0756  0.4610
 4206SOL     OW16589   4.055   4.709   6.000 -0.0204  0.0036  0.3817
 4206SOL    HW216590   4.025   4.650   6.069 -1.0903 -2.0240 -1.6505
 4206SOL    HW316591   3.990   4.779   5.998  0.3138  0.3675  1.7364
 4206SOL    MW416592   4.042   4.710   6.009 -0.1174 -0.2159  0.2923
 4207SOL     OW16593   5.818   4.070   6.270  0.1609  0.0424 -0.4823
 4207SOL    HW216594   5.872   4.003   6.227 -1.5640 -0.9127 -1.2591
 4207SOL    HW316595   5.842   4.064   6.363  0.5449 -1.1649 -0.6422
 4207SOL    MW416596   5.829   4.060   6.277 -0.0160 -0.2429 -0.6059
 4208SOL     OW16597   2.432   0.216   0.885  0.0795  0.2215  0.2903
 4208SOL    HW216598   2.387   0.166   0.953  0.5562 -0.6119  0.0003
 4208SOL    HW316599   2.443   0.154   0.813  1.1530  0.5853  0.1289
 4208SOL    MW416600   2.427   0.201   0.885  0.2840  0.1596  0.2307
 4209SOL     OW16601   2.120   0.694   4.104  0.1663 -0.3023 -0.4137
 4209SOL    HW216602   2.082   0.697   4.192  0.7781  1.8736 -0.1570
 4209SOL    HW316603   2.045   0.694   4.046 -0.2636  0.4325  0.1172
 4209SOL    MW416604   2.105   0.695   4.108  0.1903  0.0817 -0.3098
 4210SOL     OW16605   5.033   1.040   2.355 -0.0863 -0.0789  0.0670
 4210SOL    HW216606   5.059   0.997   2.437  1.2668  1.0988  0.2854
 4210SOL    HW316607   4.972   1.108   2.382  0.2257  0.1957  0.0868
 4210SOL    MW416608   5.028   1.043   2.369  0.1334  0.1127  0.0984
 4211SOL     OW16609   1.064   4.586   2.789 -0.2900  0.3471  0.3222
 4211SOL    HW216610   1.111   4.571   2.871 -1.5313 -1.0581  0.8093
 4211SOL    HW316611   0.997   4.651   2.811 -1.3738 -0.8830  0.7424
 4211SOL    MW416612   1.062   4.593   2.803 -0.5968 -0.0006  0.4419
 4212SOL     OW16613   1.730   5.953   0.073  0.0486  0.1146  0.1445
 4212SOL    HW216614   1.673   5.971   0.148 -0.2299  0.0492 -0.0465
 4212SOL    HW316615   1.687   5.881   0.027  0.6416 -0.3858  0.3658
 4212SOL    MW416616   1.717   5.946   0.077  0.0901  0.0399  0.1485
 4213SOL     OW16617   6.053   2.778   4.673  0.2011 -0.0982  0.6789
 4213SOL    HW216618   5.976   2.775   4.730  0.9188 -1.7053  1.6544
 4213SOL    HW316619   6.037   2.709   4.608  0.8488 -0.5167  0.9545
 4213SOL    MW416620   6.041   2.768   4.672  0.3813 -0.3655  0.8439
 4214SOL     OW16621   1.993   4.697   5.853 -0.2994 -0.1090 -0.0451
 4214SOL    HW216622   2.008   4.726   5.944  0.3641 -0.6561  0.0177
 4214SOL    HW316623   1.997   4.602   5.857 -2.7933 -0.2983 -0.1992
 4214SOL    MW416624   1.995   4.689   5.866 -0.5409 -0.2061 -0.0571
 4215SOL     OW16625   4.164   2.329   1.990  0.1035  0.3714 -0.2727
 4215SOL    HW216626   4.128   2.346   2.077 -0.4143  1.4462 -0.6724
 4215SOL    HW316627   4.210   2.246   1.998 -0.6655  0.0343  0.8076
 4215SOL    MW416628   4.165   2.320   2.002 -0.0663  0.4687 -0.1829
 4216SOL     OW16629   2.840   3.941   4.765 -0.7549  0.1676 -0.7353
 4216SOL    HW216630   2.824   4.008   4.831  1.3232 -0.0332  0.0174
 4216SOL    HW316631   2.866   3.989   4.687 -2.9939  0.3905 -1.4327
 4216SOL    MW416632   2.841   3.956   4.764 -0.7761  0.1705 -0.7280
 4217SOL     OW16633   4.144   1.190   4.689 -0.4794  0.0891  0.1127
 4217SOL    HW216634   4.085   1.127   4.729 -2.6341  0.2155 -2.6001
 4217SOL    HW316635   4.099   1.274   4.697  0.4747  0.6218  0.0811
 4217SOL    MW416636   4.130   1.193   4.696 -0.6378  0.1760 -0.2494
 4218SOL     OW16637   5.568   0.630   2.712  0.3729  0.5879 -0.2047
 4218SOL    HW216638   5.590   0.663   2.799  0.8259  2.4380 -0.9760
 4218SOL    HW316639   5.473   0.625   2.711  0.3255  1.3821  0.1154
 4218SOL    MW416640   5.559   0.633   2.723  0.4264  0.9368 -0.2642
 4219SOL     OW16641   5.786   2.449   2.192 -0.7320  0.0655  0.5422
 4219SOL    HW216642   5.714   2.491   2.238  2.3432  3.0097  3.2836
 4219SOL    HW316643   5.800   2.503   2.114 -1.1728 -0.1904  0.2876
 4219SOL    MW416644   5.779   2.462   2.188 -0.3844  0.4202  0.8703
 4220SOL     OW16645   1.501   3.997   6.075  0.0951 -0.3860  0.5792
 4220SOL    HW216646   1.507   3.926   6.139 -0.4243 -0.5588  0.4344
 4220SOL    HW316647   1.541   3.962   5.996  1.5851  0.1392  1.0630
 4220SOL    MW416648   1.507   3.983   6.073  0.2231 -0.3395  0.6239
 4221SOL     OW16649   0.608   2.611   6.159  0.4945  0.1924  0.0021
 4221SOL    HW216650   0.526   2.633   6.114  0.8644  0.9470 -0.3179
 4221SOL    HW316651   0.636   2.529   6.119  0.0048  0.0359 -0.0291
 4221SOL    MW416652   0.601   2.603   6.148  0.4787  0.2713 -0.0442
 4222SOL     OW16653   0.754   4.031   0.452  0.4415 -0.7450  0.4845
 4222SOL    HW216654   0.819   4.089   0.412 -2.2661  0.6814 -2.2159
 4222SOL    HW316655   0.756   3.952   0.398 -0.2502 -0.5727  0.2034
 4222SOL    MW416656   0.763   4.028   0.440 -0.0070 -0.5341  0.0911
 4223SOL     OW16657   5.165   1.996   1.444  0.0661 -0.2724  0.0338
 4223SOL    HW216658   5.071   1.976   1.448  0.0646 -1.0267 -2.2366
 4223SOL    HW316659   5.175   2.051   1.366  1.6552 -1.3513 -0.5835
 4223SOL    MW416660   5.154   2.001   1.434  0.2756 -0.5143 -0.3472
 4224SOL     OW16661   3.248   1.814   1.527 -0.0295 -0.7212  0.2587
 4224SOL    HW216662   3.336   1.783   1.548  0.1586 -0.7404 -0.5180
 4224SOL    HW316663   3.231   1.780   1.439  0.0089  0.9714 -0.4526
 4224SOL    MW416664   3.258   1.805   1.518  0.0004 -0.5004  0.0624
 4225SOL     OW16665   5.757   6.172   1.584 -0.2097  0.4518  0.6308
 4225SOL    HW216666   5.723   6.166   1.495 -2.6595 -0.2323  1.5381
 4225SOL    HW316667   5.755   6.266   1.605 -0.5112  0.5258  0.2771
 4225SOL    MW416668   5.752   6.184   1.575 -0.5727  0.3713  0.7038
 4226SOL     OW16669   3.065   5.147   3.143  0.3851 -1.1174 -0.0701
 4226SOL    HW216670   3.044   5.167   3.052  1.8171  0.5805 -0.0705
 4226SOL    HW316671   2.985   5.168   3.192  0.5364  0.8394 -0.6009
 4226SOL    MW416672   3.051   5.152   3.138  0.5940 -0.6352 -0.1402
 4227SOL     OW16673   1.643   5.280   1.199  0.1807  0.0455  0.9980
 4227SOL    HW216674   1.581   5.234   1.255  1.5312 -1.0692  1.6493
 4227SOL    HW316675   1.643   5.230   1.117  1.0142 -0.6460  1.4007
 4227SOL    MW416676   1.635   5.267   1.195  0.4688 -0.1928  1.1370
 4228SOL     OW16677   1.482   4.423   5.343  0.1555  0.1550 -0.4689
 4228SOL    HW216678   1.506   4.330   5.339 -0.8661 -0.1876  0.9362
 4228SOL    HW316679   1.390   4.424   5.369  0.2360  1.5790 -0.1353
 4228SOL    MW416680   1.473   4.411   5.346  0.0313  0.2977 -0.2395
 4229SOL     OW16681   3.799   0.879   3.371  0.3343 -0.3801 -0.6679
 4229SOL    HW216682   3.838   0.792   3.361 -0.8363 -0.8143 -1.7806
 4229SOL    HW316683   3.874   0.939   3.375  1.2941 -1.5551  2.3995
 4229SOL    MW416684   3.814   0.875   3.370  0.3065 -0.5924 -0.4100
 4230SOL     OW16685   0.173   5.975   2.594 -0.1362  0.5886  0.0294
 4230SOL    HW216686   0.155   5.882   2.606  0.7814  0.3893 -0.0566
 4230SOL    HW316687   0.176   5.987   2.499 -0.6135  0.7798  0.0381
 4230SOL    MW416688   0.171   5.965   2.583 -0.0781  0.5876  0.0192
 4231SOL     OW16689   5.895   2.116   4.186 -0.0272  0.2809 -0.4845
 4231SOL    HW216690   5.800   2.125   4.172 -0.4041  0.4048  1.7644
 4231SOL    HW316691   5.935   2.166   4.115 -1.6517  0.5351 -1.2664
 4231SOL    MW416692   5.888   2.123   4.175 -0.2912  0.3308 -0.2909
 4232SOL     OW16693   1.912   0.066   0.435 -0.0106  0.1790 -0.1843
 4232SOL    HW216694   1.880   0.072   0.525 -1.1469  1.0492 -0.6163
 4232SOL    HW316695   1.936  -0.026   0.424  2.8949  0.5122  1.8744
 4232SOL    MW416696   1.911   0.055   0.446  0.2228  0.3378  0.0303
 4233SOL     OW16697   1.384   1.750   2.163  0.3575 -0.0620  0.0707
 4233SOL    HW216698   1.439   1.739   2.241 -0.9839 -0.9021  0.9485
 4233SOL    HW316699   1.326   1.673   2.164 -1.2192  1.0772 -0.4662
 4233SOL    MW416700   1.384   1.738   2.174 -0.0275 -0.0226  0.1157
 4234SOL     OW16701   1.058   3.765   2.624  0.3328 -0.4245 -0.2798
 4234SOL    HW216702   1.063   3.669   2.617 -0.3726 -0.6360  1.5945
 4234SOL    HW316703   1.096   3.784   2.709 -0.5529  0.8669 -0.1517
 4234SOL    MW416704   1.064   3.755   2.634  0.1229 -0.2820 -0.0156
 4235SOL     OW16705   2.373   0.285   3.601 -0.4354  0.1210  0.2679
 4235SOL    HW216706   2.366   0.190   3.609 -0.9332 -0.0854 -1.8643
 4235SOL    HW316707   2.298   0.309   3.546  0.4690  1.5412 -0.3875
 4235SOL    MW416708   2.362   0.275   3.595 -0.3817  0.2811 -0.0999
 4236SOL     OW16709   1.686   2.336   1.772  0.0382 -0.5187  0.3552
 4236SOL    HW216710   1.748   2.314   1.702 -0.1573 -2.9605  0.8679
 4236SOL    HW316711   1.606   2.361   1.725  0.3025 -0.8702 -0.3028
 4236SOL    MW416712   1.684   2.336   1.757  0.0473 -0.8872  0.3360
 4237SOL     OW16713   1.635   4.691   4.403 -0.5998  0.0385 -0.2926
 4237SOL    HW216714   1.669   4.613   4.447 -0.8602  1.0087  1.7580
 4237SOL    HW316715   1.579   4.656   4.333 -0.3044 -1.5934  0.2337
 4237SOL    MW416716   1.632   4.676   4.399 -0.5952 -0.0488  0.0474
 4238SOL     OW16717   5.152   2.806   4.274  0.0653 -0.1941 -0.3754
 4238SOL    HW216718   5.062   2.837   4.280  0.2147  0.0657  0.8320
 4238SOL    HW316719   5.147   2.726   4.222 -0.7684  0.1591 -0.8458
 4238SOL    MW416720   5.140   2.800   4.268 -0.0250 -0.1132 -0.2781
 4239SOL     OW16721   3.899   1.191   5.950 -0.3657  0.0852 -0.2984
 4239SOL    HW216722   3.805   1.190   5.970  0.0355 -1.5975  1.8267
 4239SOL    HW316723   3.909   1.132   5.876 -0.7272 -1.9559  1.1980
 4239SOL    MW416724   3.888   1.183   5.943 -0.3604 -0.4061  0.1795
 4240SOL     OW16725   4.249   4.341   2.731  0.2269  0.1913 -0.4298
 4240SOL    HW216726   4.223   4.434   2.731 -0.3040  0.0436 -0.9159
 4240SOL    HW316727   4.292   4.328   2.647 -0.6691 -0.2711 -0.8231
 4240SOL    MW416728   4.252   4.352   2.720  0.0387  0.1108 -0.5458
 4241SOL     OW16729   1.911   6.236   4.109 -0.0990 -0.5846  0.3135
 4241SOL    HW216730   1.969   6.171   4.071  0.5550 -1.3548  2.5220
 4241SOL    HW316731   1.884   6.200   4.193 -0.0749  1.7739  1.4307
 4241SOL    MW416732   1.915   6.223   4.115 -0.0095 -0.3750  0.7523
 4242SOL     OW16733   3.853   1.607   4.541  0.3169  0.5833  0.0615
 4242SOL    HW216734   3.760   1.615   4.563 -0.7229 -3.0812 -2.0980
 4242SOL    HW316735   3.862   1.651   4.456  0.2947  0.1111 -0.1900
 4242SOL    MW416736   3.842   1.614   4.533  0.1768  0.0375 -0.2566
 4243SOL     OW16737   4.616   4.258   5.052  0.4709 -0.1764 -0.4649
 4243SOL    HW216738   4.632   4.174   5.096 -1.0442 -0.0372  0.4117
 4243SOL    HW316739   4.640   4.242   4.961 -0.6348 -1.8736 -0.5113
 4243SOL    MW416740   4.621   4.245   5.045  0.1251 -0.3820 -0.3554
 4244SOL     OW16741   1.778   1.029   0.972  0.1403  0.2350  0.3503
 4244SOL    HW216742   1.853   1.014   1.030  0.8249 -0.2321 -0.6329
 4244SOL    HW316743   1.797   1.114   0.931  0.2378  0.0207 -0.0515
 4244SOL    MW416744   1.791   1.038   0.974  0.2435  0.1451  0.1676
 4245SOL     OW16745   1.890   4.802   2.277  0.3169 -0.2053  0.5335
 4245SOL    HW216746   1.861   4.820   2.187  1.3661  1.4082  0.4606
 4245SOL    HW316747   1.960   4.866   2.292  0.9294 -1.1980  2.1192
 4245SOL    MW416748   1.896   4.813   2.267  0.5361 -0.1234  0.7331
 4246SOL     OW16749   5.281   1.929   5.393  0.4012 -0.4057 -0.0952
 4246SOL    HW216750   5.245   2.013   5.420  1.9241  1.1005 -2.3840
 4246SOL    HW316751   5.337   1.902   5.466 -0.3814  0.3629  0.8112
 4246SOL    MW416752   5.284   1.937   5.406  0.4989 -0.1056 -0.2776
 4247SOL     OW16753   1.601   0.803   5.941 -0.1015  0.1470  0.1732
 4247SOL    HW216754   1.671   0.758   5.892 -0.1124 -1.5513  1.6019
 4247SOL    HW316755   1.529   0.809   5.878  0.8330  0.6725 -0.8976
 4247SOL    MW416756   1.601   0.798   5.926  0.0203 -0.0077  0.2204
 4248SOL     OW16757   3.308   4.834   2.445 -0.1173  0.4371  0.7739
 4248SOL    HW216758   3.347   4.747   2.444 -1.9765 -0.4556  1.4282
 4248SOL    HW316759   3.237   4.827   2.509  0.0940  2.6247  1.3244
 4248SOL    MW416760   3.304   4.822   2.454 -0.3348  0.6080  0.9328
 4249SOL     OW16761   2.391   2.950   4.138  0.7047 -0.0128 -0.0327
 4249SOL    HW216762   2.477   2.981   4.166  0.5226  0.2895  0.2085
 4249SOL    HW316763   2.409   2.875   4.082  1.1508  0.4171 -0.4810
 4249SOL    MW416764   2.404   2.944   4.134  0.7395  0.0838 -0.0600
 4250SOL     OW16765   4.895   5.633   0.406 -0.2760  0.4200 -0.1106
 4250SOL    HW216766   4.881   5.692   0.480  2.0315 -1.0781  1.6423
 4250SOL    HW316767   4.810   5.593   0.390 -0.6562  0.1450  2.3220
 4250SOL    MW416768   4.882   5.636   0.414 -0.0217  0.1860  0.4416
 4251SOL     OW16769   1.545   5.217   2.055  0.1318  0.1238  0.1947
 4251SOL    HW216770   1.490   5.140   2.069 -1.0022  0.8024 -0.3390
 4251SOL    HW316771   1.625   5.199   2.104  0.2085 -1.7138 -0.5204
 4251SOL    MW416772   1.548   5.204   2.063 -0.0077 -0.0291  0.0300
 4252SOL     OW16773   5.898   0.797   1.308  0.4153  0.3120  0.3890
 4252SOL    HW216774   5.884   0.769   1.398 -1.3046  0.7893  0.2988
 4252SOL    HW316775   5.902   0.892   1.312 -0.1409  0.3626 -0.0876
 4252SOL    MW416776   5.896   0.806   1.320  0.1150  0.3816  0.3143
 4253SOL     OW16777   1.867   1.984   0.505  0.0349  0.1937 -0.6228
 4253SOL    HW216778   1.853   1.903   0.455 -1.9474 -0.3462  0.6702
 4253SOL    HW316779   1.951   2.017   0.474  0.5907 -2.0018 -1.6928
 4253SOL    MW416780   1.876   1.977   0.494 -0.1533 -0.1672 -0.5934
 4254SOL     OW16781   3.550   0.371   3.261  0.2412 -0.4555  0.3449
 4254SOL    HW216782   3.620   0.417   3.214 -2.5492  1.9651 -1.8632
 4254SOL    HW316783   3.493   0.441   3.292 -3.2321 -2.2494 -1.4309
 4254SOL    MW416784   3.552   0.386   3.259 -0.5852 -0.3728 -0.1807
 4255SOL     OW16785   5.382   0.458   3.705  0.1593  0.2288 -0.1907
 4255SOL    HW216786   5.447   0.391   3.683  1.0220  0.4331  1.5685
 4255SOL    HW316787   5.305   0.409   3.732  0.0621 -0.0232 -0.8990
 4255SOL    MW416788   5.381   0.443   3.706  0.2603  0.2225 -0.0521
 4256SOL     OW16789   3.114   3.116   4.300 -0.4876 -0.2363  0.2696
 4256SOL    HW216790   3.037   3.109   4.243  0.0271 -0.5700 -0.3889
 4256SOL    HW316791   3.082   3.165   4.376 -1.1400  0.3687 -0.3765
 4256SOL    MW416792   3.100   3.122   4.303 -0.5058 -0.2005  0.0975
 4257SOL     OW16793   2.112   5.026   6.212  0.3057 -0.6185  0.1537
 4257SOL    HW216794   2.206   5.010   6.214  0.5093  0.5523  1.5596
 4257SOL    HW316795   2.103   5.120   6.227 -1.0831 -0.6590 -0.2870
 4257SOL    MW416796   2.123   5.036   6.214  0.1493 -0.4693  0.2810
 4258SOL     OW16797   4.145   5.566   1.993  0.1656 -0.2522  0.6523
 4258SOL    HW216798   4.091   5.643   1.973  1.1872  0.5151  0.7520
 4258SOL    HW316799   4.201   5.594   2.065  1.1358 -0.8105  0.1334
 4258SOL    MW416800   4.145   5.580   2.000  0.4284 -0.2246  0.5970
 4259SOL     OW16801   1.223   4.567   2.278 -0.0183 -0.2307 -0.0377
 4259SOL    HW216802   1.166   4.627   2.230 -0.2870 -0.8608 -0.5183
 4259SOL    HW316803   1.285   4.536   2.213 -0.0007 -0.6220  0.1628
 4259SOL    MW416804   1.223   4.571   2.263 -0.0514 -0.3655 -0.0747
 4260SOL     OW16805   1.454   0.820   5.140 -0.0795 -0.1082 -0.1971
 4260SOL    HW216806   1.432   0.727   5.143 -1.6629  0.1989 -1.3146
 4260SOL    HW316807   1.449   0.843   5.047  1.8627  0.7743 -0.1461
 4260SOL    MW416808   1.451   0.811   5.128 -0.0322  0.0487 -0.3378
 4261SOL     OW16809   6.203   4.363   3.830 -0.2378  0.1602 -0.1913
 4261SOL    HW216810   6.123   4.403   3.864 -0.5839 -1.0371  0.4572
 4261SOL    HW316811   6.240   4.430   3.772  0.2814  2.2202  2.3151
 4261SOL    MW416812   6.197   4.377   3.827 -0.2150  0.2740  0.2249
 4262SOL     OW16813   0.952   1.384   1.602 -0.0352 -0.0170 -0.1549
 4262SOL    HW216814   1.018   1.396   1.534 -0.6122  0.6339 -0.6036
 4262SOL    HW316815   0.983   1.438   1.675 -0.2891  0.6178 -0.5179
 4262SOL    MW416816   0.965   1.393   1.603 -0.1448  0.1526 -0.2620
 4263SOL     OW16817   1.003   0.400   3.159 -0.3290 -0.0338 -0.1372
 4263SOL    HW216818   1.030   0.418   3.249 -1.3045 -1.3636  0.4544
 4263SOL    HW316819   0.908   0.415   3.158 -0.2324  0.6055 -1.1178
 4263SOL    MW416820   0.994   0.404   3.171 -0.4449 -0.1249 -0.1885
 4264SOL     OW16821   5.730   2.573   0.222  0.0394 -0.2078  0.2027
 4264SOL    HW216822   5.656   2.631   0.237 -0.5662 -0.1536 -2.4861
 4264SOL    HW316823   5.807   2.630   0.224 -0.4027  0.4563 -0.8863
 4264SOL    MW416824   5.731   2.588   0.225 -0.0988 -0.1130 -0.2958
 4265SOL     OW16825   6.398   0.779   6.252  0.5098 -0.6824 -0.4685
 4265SOL    HW216826   6.331   0.829   6.206  1.9875  1.9359  0.0361
 4265SOL    HW316827   6.355   0.750   6.333  0.0696  1.3707  0.0878
 4265SOL    MW416828   6.383   0.782   6.257  0.6466 -0.0661 -0.3285
 4266SOL     OW16829   4.319   4.963   4.548  0.5289 -0.3524  0.0176
 4266SOL    HW216830   4.318   4.937   4.456 -0.8690  2.6297 -0.9431
 4266SOL    HW316831   4.382   5.036   4.552  0.7493 -0.5950  1.4786
 4266SOL    MW416832   4.327   4.970   4.536  0.3736  0.0090  0.0836
 4267SOL     OW16833   2.037   3.444   0.147 -0.2910  0.3350 -0.1302
 4267SOL    HW216834   2.007   3.526   0.186  0.0947 -0.6030  2.3347
 4267SOL    HW316835   2.065   3.391   0.221 -1.5524 -2.4916 -1.5081
 4267SOL    MW416836   2.037   3.448   0.162 -0.4066 -0.1617  0.0132
 4268SOL     OW16837   1.539   5.451   2.928 -0.2109 -0.3899  0.3616
 4268SOL    HW216838   1.560   5.372   2.978  2.3621  0.3976  0.6523
 4268SOL    HW316839   1.561   5.428   2.838  3.0639  0.6452  0.7482
 4268SOL    MW416840   1.545   5.437   2.923  0.5607 -0.1494  0.4509
 4269SOL     OW16841   5.108   4.883   1.945 -0.2122  0.2284 -0.0920
 4269SOL    HW216842   5.068   4.969   1.962  0.6279  0.4200  1.0494
 4269SOL    HW316843   5.069   4.825   2.010  1.2487  0.3970  0.9786
 4269SOL    MW416844   5.098   4.887   1.956  0.0914  0.2760  0.1998
 4270SOL     OW16845   4.421   1.119   5.431  0.0576  0.1704  0.0924
 4270SOL    HW216846   4.392   1.087   5.345  1.1574  0.6883 -0.4944
 4270SOL    HW316847   4.383   1.057   5.493 -0.2046 -0.6167 -0.8181
 4270SOL    MW416848   4.412   1.106   5.428  0.1681  0.1348 -0.1051
 4271SOL     OW16849   5.683   1.185   1.069  0.2470  0.0344 -0.6947
 4271SOL    HW216850   5.732   1.251   1.020 -0.3049 -0.8833 -2.5806
 4271SOL    HW316851   5.601   1.229   1.093  1.1477  0.9692  0.8082
 4271SOL    MW416852   5.679   1.199   1.066  0.2930  0.0367 -0.7452
 4272SOL     OW16853   4.657   3.755   0.371 -0.3006  0.5190  0.4732
 4272SOL    HW216854   4.594   3.762   0.300 -1.8078  0.9439  1.7928
 4272SOL    HW316855   4.626   3.680   0.423  1.2017 -0.2638  0.3021
 4272SOL    MW416856   4.644   3.746   0.368 -0.3012  0.4718  0.6248
 4273SOL     OW16857   5.641   5.860   1.750  0.4616 -0.0327 -0.1563
 4273SOL    HW216858   5.564   5.819   1.789  0.5461  0.3796  0.4548
 4273SOL    HW316859   5.714   5.806   1.781  0.5831  0.6094  0.7301
 4273SOL    MW416860   5.641   5.847   1.760  0.4888  0.1064  0.0413
 4274SOL     OW16861   5.501   4.517   3.117  0.5543 -0.2878 -0.7210
 4274SOL    HW216862   5.485   4.427   3.145 -3.5067  0.5902  0.5228
 4274SOL    HW316863   5.463   4.521   3.029  1.2841  0.0693 -1.0235
 4274SOL    MW416864   5.494   4.506   3.109  0.1148 -0.1248 -0.5968
 4275SOL     OW16865   1.255   1.182   2.138  0.4886 -0.0902  0.6536
 4275SOL    HW216866   1.279   1.154   2.050  2.1118  0.1621  0.9815
 4275SOL    HW316867   1.231   1.102   2.183 -0.4712 -0.2080 -0.0443
 4275SOL    MW416868   1.255   1.168   2.132  0.5761 -0.0725  0.6048
 4276SOL     OW16869   5.377   4.946   2.868 -0.5642  0.2448 -0.4224
 4276SOL    HW216870   5.388   4.883   2.796  0.1842  0.2546 -0.3173
 4276SOL    HW316871   5.316   4.902   2.928 -0.7525  0.0000 -0.7855
 4276SOL    MW416872   5.370   4.932   2.866 -0.4903  0.2138 -0.4564
 4277SOL     OW16873   5.293   4.458   4.727  0.4003 -0.1915  0.0990
 4277SOL    HW216874   5.313   4.368   4.755  0.1305 -0.7256 -1.3367
 4277SOL    HW316875   5.225   4.487   4.787  0.7707 -0.8055  0.8301
 4277SOL    MW416876   5.287   4.450   4.738  0.4135 -0.3430  0.0060
 4278SOL     OW16877   4.012   3.057   5.546  0.5910  0.2288 -0.3735
 4278SOL    HW216878   4.065   3.109   5.606 -0.1366  0.7515 -0.1788
 4278SOL    HW316879   3.945   3.117   5.513  0.5372 -0.2401 -1.1538
 4278SOL    MW416880   4.010   3.072   5.549  0.4879  0.2359 -0.4507
 4279SOL     OW16881   4.576   6.110   1.449  0.3777 -0.3091  0.0197
 4279SOL    HW216882   4.538   6.171   1.512  1.1161  0.0273  0.1577
 4279SOL    HW316883   4.645   6.160   1.405  0.2446 -0.7101 -0.6621
 4279SOL    MW416884   4.580   6.124   1.452  0.4576 -0.3176 -0.0520
 4280SOL     OW16885   4.599   5.012   0.398 -0.0107  0.1438 -0.3752
 4280SOL    HW216886   4.570   4.958   0.471  0.9268 -1.8218 -1.3686
 4280SOL    HW316887   4.518   5.043   0.357 -0.5753 -0.2521  0.4214
 4280SOL    MW416888   4.585   5.009   0.402  0.0385 -0.1678 -0.4011
 4281SOL     OW16889   0.456   2.766   3.802 -0.4287 -0.4852  0.1016
 4281SOL    HW216890   0.548   2.780   3.781  0.0247 -2.8356  0.2436
 4281SOL    HW316891   0.408   2.802   3.727  0.4819  1.6777  0.4811
 4281SOL    MW416892   0.462   2.773   3.790 -0.2487 -0.5099  0.1704
 4282SOL     OW16893   4.042   5.669   0.032 -0.2925  0.2660  0.1306
 4282SOL    HW216894   4.039   5.602   0.100  0.5700  1.6393  1.5851
 4282SOL    HW316895   4.080   5.625  -0.044 -1.1847 -1.2774  0.5305
 4282SOL    MW416896   4.047   5.654   0.031 -0.2964  0.2436  0.3752
 4283SOL     OW16897   1.675   3.584   3.055 -0.4244  0.1998  0.0769
 4283SOL    HW216898   1.673   3.529   3.133  1.1515  0.0752  0.0466
 4283SOL    HW316899   1.619   3.538   2.992  0.6534 -1.2392  0.1407
 4283SOL    MW416900   1.667   3.570   3.057 -0.0743 -0.0065  0.0813
 4284SOL     OW16901   4.180   0.230   4.919 -0.6233 -0.1335 -0.1530
 4284SOL    HW216902   4.250   0.234   4.854  1.0831  0.7732  1.6171
 4284SOL    HW316903   4.105   0.270   4.876 -0.4499 -2.1774 -2.5184
 4284SOL    MW416904   4.180   0.236   4.905 -0.3753 -0.2835 -0.2316
 4285SOL     OW16905   2.564   4.052   1.750  0.0597  0.3618 -0.0605
 4285SOL    HW216906   2.510   3.976   1.728  0.4741 -0.6037  2.0547
 4285SOL    HW316907   2.652   4.016   1.764 -0.1455  0.8110  3.0120
 4285SOL    MW416908   2.569   4.037   1.749  0.0873  0.2937  0.6240
 4286SOL     OW16909   1.421   0.775   2.117 -0.3637 -0.1379  0.4045
 4286SOL    HW216910   1.372   0.843   2.164  2.6117  1.1078  1.9507
 4286SOL    HW316911   1.442   0.814   2.032 -0.9681 -0.2339  0.2013
 4286SOL    MW416912   1.417   0.789   2.112 -0.0509  0.0138  0.5817
 4287SOL     OW16913   6.125   0.907   4.125 -0.2615 -0.0394  0.0576
 4287SOL    HW216914   6.082   0.966   4.064  0.1622 -0.7071 -0.9037
 4287SOL    HW316915   6.193   0.961   4.166 -0.8277  0.5256  0.2755
 4287SOL    MW416916   6.129   0.922   4.123 -0.2803 -0.0529 -0.0405
 4288SOL     OW16917   2.061   1.382   3.545  0.0867 -0.1615  0.3721
 4288SOL    HW216918   2.024   1.470   3.534 -0.0484 -0.4981 -2.7329
 4288SOL    HW316919   2.086   1.356   3.457  0.7543 -3.0003  1.3153
 4288SOL    MW416920   2.059   1.390   3.532  0.1570 -0.5805  0.0869
 4289SOL     OW16921   1.157   0.288   2.477  0.2316  0.1238  0.6065
 4289SOL    HW216922   1.128   0.251   2.560  0.4742  0.4620  0.8444
 4289SOL    HW316923   1.250   0.265   2.472  0.3029  0.4053  0.5976
 4289SOL    MW416924   1.166   0.280   2.487  0.2730  0.2056  0.6367
 4290SOL     OW16925   1.196   2.212   2.344  0.0788 -0.2103 -0.2169
 4290SOL    HW216926   1.251   2.137   2.367  0.7889  1.3154  3.7871
 4290SOL    HW316927   1.257   2.278   2.311 -0.3634 -0.7739 -2.3164
 4290SOL    MW416928   1.211   2.211   2.342  0.1141 -0.0833  0.0344
 4291SOL     OW16929   2.533   3.574   1.657 -0.5994  0.9034 -0.0607
 4291SOL    HW216930   2.596   3.524   1.708 -1.4049  1.2153  1.2927
 4291SOL    HW316931   2.449   3.557   1.699 -1.0794  2.3425 -0.3702
 4291SOL    MW416932   2.530   3.565   1.669 -0.7690  1.1344  0.0770
 4292SOL     OW16933   3.448   1.595   1.294  0.6995 -0.3191 -0.5181
 4292SOL    HW216934   3.502   1.633   1.224  2.0123 -0.6441  0.2879
 4292SOL    HW316935   3.361   1.631   1.278  1.5147  1.7123 -0.7858
 4292SOL    MW416936   3.444   1.605   1.282  0.9803 -0.0940 -0.4471
 4293SOL     OW16937   6.230   5.345   5.364  0.6760 -0.1899 -0.1659
 4293SOL    HW216938   6.134   5.348   5.361  0.6724 -0.2468 -2.4041
 4293SOL    HW316939   6.257   5.435   5.346  1.0058 -0.3886 -0.7084
 4293SOL    MW416940   6.221   5.357   5.361  0.7190 -0.2237 -0.5328
 4294SOL     OW16941   0.313   4.353   5.480  0.0121 -0.0384  0.4926
 4294SOL    HW216942   0.345   4.443   5.478  1.4937 -0.5429  0.3339
 4294SOL    HW316943   0.270   4.344   5.565  1.7856  0.2100  1.4727
 4294SOL    MW416944   0.311   4.363   5.491  0.4415 -0.0722  0.6010
 4295SOL     OW16945   0.393   3.534   2.867 -0.0305 -0.3200  0.3290
 4295SOL    HW216946   0.297   3.535   2.865 -0.0290  0.6109  0.4968
 4295SOL    HW316947   0.414   3.521   2.960  0.0331 -4.3976 -0.0660
 4295SOL    MW416948   0.383   3.532   2.879 -0.0219 -0.7351  0.2990
 4296SOL     OW16949   6.279   2.146   4.665  0.1342 -0.0899  0.2602
 4296SOL    HW216950   6.244   2.149   4.576  0.0795 -0.4610  0.2671
 4296SOL    HW316951   6.208   2.110   4.718  0.9423 -2.2030  0.0418
 4296SOL    MW416952   6.265   2.141   4.660  0.2336 -0.4177  0.2323
 4297SOL     OW16953   5.165   2.927   1.656 -0.8613 -0.2225 -0.3663
 4297SOL    HW216954   5.250   2.887   1.676 -0.4862 -0.1868 -1.7782
 4297SOL    HW316955   5.120   2.862   1.603 -1.3649  0.1267 -0.3713
 4297SOL    MW416956   5.170   2.913   1.652 -0.8783 -0.1717 -0.5532
 4298SOL     OW16957   1.711   5.190   4.062 -0.1356  0.2360  0.0842
 4298SOL    HW216958   1.748   5.269   4.101  0.8792 -0.3990  0.4531
 4298SOL    HW316959   1.739   5.120   4.121 -0.3886 -0.4889 -0.6428
 4298SOL    MW416960   1.720   5.191   4.075 -0.0351  0.0566  0.0369
 4299SOL     OW16961   1.012   2.981   0.642 -0.3449 -0.0142 -0.0508
 4299SOL    HW216962   0.931   2.931   0.631 -0.1559 -0.3114 -0.1155
 4299SOL    HW316963   1.036   3.009   0.554 -1.1526  1.3301  0.1255
 4299SOL    MW416964   1.004   2.978   0.629 -0.4266  0.1239 -0.0360
 4300SOL     OW16965   4.081   6.281   3.493  0.4564 -0.0142  0.6117
 4300SOL    HW216966   4.007   6.304   3.549  0.9126  0.9201  0.8587
 4300SOL    HW316967   4.141   6.234   3.550  1.9730  2.8825  1.6297
 4300SOL    MW416968   4.079   6.278   3.508  0.7166  0.4912  0.7786
 4301SOL     OW16969   4.139   4.484   0.662 -0.3253 -0.3345  0.0340
 4301SOL    HW216970   4.135   4.533   0.744 -0.5371  0.7875 -0.6145
 4301SOL    HW316971   4.096   4.401   0.681  0.6050 -0.5322  1.3384
 4301SOL    MW416972   4.133   4.480   0.675 -0.2305 -0.2126  0.1205
 4302SOL     OW16973   4.950   0.746   4.217 -0.6788  0.0353  0.2564
 4302SOL    HW216974   5.030   0.769   4.263 -1.1760 -0.0366  1.1878
 4302SOL    HW316975   4.905   0.685   4.276 -1.8589  0.8176  0.1961
 4302SOL    MW416976   4.954   0.741   4.231 -0.9001  0.1290  0.3714
 4303SOL     OW16977   4.132   3.622   6.194  0.7033  0.1413  0.0384
 4303SOL    HW216978   4.112   3.533   6.166  1.3877 -0.4982  1.4908
 4303SOL    HW316979   4.227   3.624   6.204  0.8201  1.3828 -1.0426
 4303SOL    MW416980   4.142   3.610   6.191  0.8090  0.2207  0.0874
 4304SOL     OW16981   6.197   0.978   6.128  0.1403 -0.3271 -0.2268
 4304SOL    HW216982   6.138   0.927   6.072 -1.7773 -0.1619  1.5187
 4304SOL    HW316983   6.263   1.014   6.068  0.2513 -2.9727 -1.8405
 4304SOL    MW416984   6.198   0.976   6.112 -0.0981 -0.6544 -0.2094
 4305SOL     OW16985   1.628   5.598   3.515 -0.5487 -0.2496 -0.0595
 4305SOL    HW216986   1.709   5.649   3.509 -1.0525  0.5093 -0.6328
 4305SOL    HW316987   1.610   5.569   3.426 -2.3751  1.9757 -0.5183
 4305SOL    MW416988   1.636   5.601   3.503 -0.8561  0.1441 -0.1957
 4306SOL     OW16989   4.749   2.426   1.284  0.1781  0.4612 -1.2029
 4306SOL    HW216990   4.692   2.381   1.221 -0.6536  0.8506 -0.7346
 4306SOL    HW316991   4.720   2.517   1.282  1.4657  0.8896 -1.7078
 4306SOL    MW416992   4.738   2.432   1.275  0.2383  0.5691 -1.2077
 4307SOL     OW16993   5.514   6.268   4.950  0.2959  0.1794  0.0781
 4307SOL    HW216994   5.563   6.271   5.032 -0.2576 -0.7844  0.4701
 4307SOL    HW316995   5.423   6.282   4.977  0.2884  1.5991 -0.5951
 4307SOL    MW416996   5.508   6.270   4.965  0.2219  0.2396  0.0410
 4308SOL     OW16997   0.352   5.452   4.771  0.0283 -0.4656  0.1630
 4308SOL    HW216998   0.368   5.501   4.851 -0.7740  1.0313 -0.5492
 4308SOL    HW316999   0.392   5.366   4.787  1.0224  0.2308  1.6479
 4308SOL    MW417000   0.359   5.447   4.784  0.0536 -0.1762  0.2650
 4309SOL     OW17001   3.443   2.395   3.989  0.1257  0.0472 -0.2477
 4309SOL    HW217002   3.394   2.416   4.068 -2.2761  0.1635 -1.6674
 4309SOL    HW317003   3.384   2.339   3.938  1.7947 -0.4667 -1.7278
 4309SOL    MW417004   3.429   2.390   3.993  0.0290 -0.0052 -0.6303
 4310SOL     OW17005   0.921   0.010   0.033  0.5255 -0.2632  0.1663
 4310SOL    HW217006   0.877  -0.032   0.106 -0.5176  0.2202 -0.1579
 4310SOL    HW317007   1.007   0.036   0.067 -0.1625  0.4766  1.3926
 4310SOL    MW417008   0.927   0.008   0.047  0.2971 -0.1018  0.2853
 4311SOL     OW17009   3.294   6.077   1.981 -0.1547  0.4517  0.0043
 4311SOL    HW217010   3.355   6.150   1.968 -0.6419  0.7730 -0.5379
 4311SOL    HW317011   3.219   6.117   2.025  0.6634 -0.2473  2.1595
 4311SOL    MW417012   3.292   6.092   1.985 -0.1111  0.4019  0.2171
 4312SOL     OW17013   1.324   1.527   0.840  0.3686 -1.0723  0.1118
 4312SOL    HW217014   1.315   1.441   0.882 -0.6692 -1.4918 -0.9348
 4312SOL    HW317015   1.358   1.508   0.753 -1.3562 -0.5959 -0.7154
 4312SOL    MW417016   1.327   1.513   0.834  0.0041 -1.0648 -0.1354
 4313SOL     OW17017   0.839   4.438   2.720  0.1875  0.0145 -0.1249
 4313SOL    HW217018   0.774   4.508   2.711 -1.1223 -0.9586  1.2584
 4313SOL    HW317019   0.913   4.480   2.763 -0.0998  0.8256 -0.4024
 4313SOL    MW417020   0.840   4.453   2.725 -0.0232 -0.0069  0.0210
 4314SOL     OW17021   2.667   3.008   3.654 -0.0783  0.3131  0.1392
 4314SOL    HW217022   2.601   3.033   3.719 -1.8515  1.6824 -2.0653
 4314SOL    HW317023   2.714   3.089   3.635  1.2198 -0.3214  0.4948
 4314SOL    MW417024   2.664   3.022   3.660 -0.1410  0.4100 -0.1048
 4315SOL     OW17025   3.974   5.285   3.779 -0.8219 -0.2094 -0.2526
 4315SOL    HW217026   4.046   5.287   3.716  0.2204  0.2632  0.9308
 4315SOL    HW317027   3.899   5.253   3.728  0.5010 -1.9262 -1.2239
 4315SOL    MW417028   3.973   5.281   3.764 -0.5099 -0.3736 -0.2246
 4316SOL     OW17029   0.654   1.902   4.853 -0.5736 -0.2094  0.2199
 4316SOL    HW217030   0.708   1.826   4.833  1.9178  0.9976  1.8033
 4316SOL    HW317031   0.639   1.944   4.768  0.3158 -1.0142 -0.3583
 4316SOL    MW417032   0.659   1.898   4.839 -0.1275 -0.1563  0.3526
 4317SOL     OW17033   0.430   0.370   5.543  0.0548  0.3139  0.1584
 4317SOL    HW217034   0.370   0.382   5.617 -0.9842  0.4423 -0.6865
 4317SOL    HW317035   0.392   0.297   5.493  1.7596 -1.0364  0.7363
 4317SOL    MW417036   0.417   0.362   5.546  0.1426  0.1527  0.1232
 4318SOL     OW17037   3.997   3.088   4.653  0.0213 -0.2228  0.3950
 4318SOL    HW217038   4.014   3.182   4.643 -0.2431 -0.2176 -0.0387
 4318SOL    HW317039   4.084   3.049   4.664  0.2971 -0.1421 -1.2764
 4318SOL    MW417040   4.011   3.096   4.653  0.0228 -0.2115  0.1172
 4319SOL     OW17041   2.419   3.825   0.781 -0.5799 -0.5900  0.1034
 4319SOL    HW217042   2.356   3.842   0.711 -1.3563  0.9395  1.1251
 4319SOL    HW317043   2.418   3.904   0.835  1.9694 -0.6621  0.3740
 4319SOL    MW417044   2.410   3.838   0.779 -0.3460 -0.3977  0.2739
 4320SOL     OW17045   0.215   6.020   2.327  0.2415 -0.1257 -0.2503
 4320SOL    HW217046   0.217   6.026   2.232 -1.4287 -1.1310 -0.3864
 4320SOL    HW317047   0.273   5.947   2.348  0.3172 -0.1431 -0.5156
 4320SOL    MW417048   0.223   6.011   2.317  0.0312 -0.2607 -0.3032
 4321SOL     OW17049   1.768   1.156   5.756  0.0333  0.1027 -0.4519
 4321SOL    HW217050   1.825   1.083   5.732  1.0214  0.6349  0.1783
 4321SOL    HW317051   1.752   1.144   5.849 -0.6047  0.1618 -0.5502
 4321SOL    MW417052   1.774   1.145   5.765  0.0795  0.1807 -0.3817
 4322SOL     OW17053   0.939   5.560   1.132 -0.0952 -0.1807  0.2510
 4322SOL    HW217054   0.993   5.631   1.098 -0.3592 -0.9540 -1.9215
 4322SOL    HW317055   0.907   5.515   1.054 -2.7649 -0.5927  1.4914
 4322SOL    MW417056   0.942   5.564   1.117 -0.4823 -0.3371  0.1280
 4323SOL     OW17057   1.498   5.262   2.419 -0.3251  0.3060 -0.2076
 4323SOL    HW217058   1.501   5.320   2.495 -0.1532  0.4065 -0.2909
 4323SOL    HW317059   1.566   5.296   2.360 -0.3205  0.1064 -0.3176
 4323SOL    MW417060   1.508   5.274   2.421 -0.3018  0.2929 -0.2331
 4324SOL     OW17061   5.341   5.261   3.200 -0.3555  0.4542 -0.3218
 4324SOL    HW217062   5.261   5.279   3.151 -2.4857  0.6820  2.8702
 4324SOL    HW317063   5.341   5.165   3.211 -0.6983  0.5235  0.3683
 4324SOL    MW417064   5.330   5.250   3.195 -0.6818  0.4934  0.1904
 4325SOL     OW17065   6.158   5.724   6.223  0.1479 -0.4424  0.2114
 4325SOL    HW217066   6.253   5.733   6.213  0.2321 -1.8084 -0.4233
 4325SOL    HW317067   6.147   5.642   6.272 -0.7460 -2.0642 -2.4844
 4325SOL    MW417068   6.169   5.714   6.228  0.0411 -0.8366 -0.2280
 4326SOL     OW17069   6.075   0.043   1.017  0.4037 -0.1730  0.2276
 4326SOL    HW217070   6.034  -0.024   1.071  2.5049 -1.2974  0.5455
 4326SOL    HW317071   6.132   0.090   1.079 -0.1653  1.1619 -0.2326
 4326SOL    MW417072   6.077   0.041   1.033  0.6059 -0.1452  0.2088
 4327SOL     OW17073   3.344   0.230   5.273 -0.2976 -0.1062 -0.1116
 4327SOL    HW217074   3.380   0.150   5.311  0.2550 -1.1670 -2.6040
 4327SOL    HW317075   3.383   0.301   5.324  1.3245 -1.3676  0.4961
 4327SOL    MW417076   3.354   0.229   5.284 -0.0106 -0.4126 -0.3603
 4328SOL     OW17077   5.423   2.326   0.279 -0.4544  0.1534  0.1445
 4328SOL    HW217078   5.377   2.276   0.212  1.0971  0.3227 -1.1018
 4328SOL    HW317079   5.454   2.405   0.234  0.9116  0.1163  0.9403
 4328SOL    MW417080   5.421   2.330   0.264 -0.0695  0.1708  0.0851
 4329SOL     OW17081   0.531   1.752   5.269 -0.4196  0.1574 -0.0492
 4329SOL    HW217082   0.558   1.817   5.204  0.7267  1.1575  1.3574
 4329SOL    HW317083   0.518   1.803   5.350 -0.1263 -1.2730  0.9284
 4329SOL    MW417084   0.533   1.768   5.271 -0.2297  0.1007  0.2654
 4330SOL     OW17085   3.831   4.612   2.016  0.1047 -0.0102 -0.0504
 4330SOL    HW217086   3.806   4.521   1.998  1.9957 -0.8211  1.0819
 4330SOL    HW317087   3.892   4.635   1.945  1.3117 -0.4251  0.8116
 4330SOL    MW417088   3.836   4.603   2.004  0.5134 -0.1720  0.2127
 4331SOL     OW17089   5.378   6.017   4.853 -0.4593  0.4319  0.1843
 4331SOL    HW217090   5.424   6.084   4.904  0.9657 -0.4884  0.1606
 4331SOL    HW317091   5.434   5.940   4.858  0.0837  0.4341 -3.2658
 4331SOL    MW417092   5.392   6.016   4.861 -0.1996  0.3107 -0.2740
 4332SOL     OW17093   6.180   1.548   5.802  0.6871  0.0928  0.1537
 4332SOL    HW217094   6.143   1.512   5.721 -0.1685 -0.9699  0.9817
 4332SOL    HW317095   6.135   1.631   5.815  0.8398  0.2778 -0.4563
 4332SOL    MW417096   6.169   1.554   5.793  0.5943 -0.0230  0.1824
 4333SOL     OW17097   0.518   2.284   0.798  0.3252 -0.1720 -0.2771
 4333SOL    HW217098   0.574   2.331   0.859  1.4153  2.1875 -2.8679
 4333SOL    HW317099   0.429   2.312   0.821  0.6282 -0.0143  0.7504
 4333SOL    MW417100   0.513   2.294   0.809  0.5090  0.1601 -0.4833
 4334SOL     OW17101   4.129   0.832   3.147  0.0219 -0.1417  0.0691
 4334SOL    HW217102   4.189   0.901   3.120 -0.0050 -0.4448 -0.7941
 4334SOL    HW317103   4.181   0.752   3.143 -0.5862 -0.5013 -1.3341
 4334SOL    MW417104   4.144   0.831   3.143 -0.0619 -0.2292 -0.2299
 4335SOL     OW17105   6.309   0.110   4.625 -0.0666  0.2298 -0.0100
 4335SOL    HW217106   6.263   0.084   4.545  0.7859 -2.9732  0.4200
 4335SOL    HW317107   6.368   0.180   4.596  0.0853 -0.7013 -2.1790
 4335SOL    MW417108   6.310   0.116   4.610  0.0659 -0.3156 -0.2394
 4336SOL     OW17109   0.805   4.229   6.114  0.6479 -0.2520 -0.4586
 4336SOL    HW217110   0.885   4.177   6.111  0.9983  0.3046 -0.8023
 4336SOL    HW317111   0.783   4.247   6.023  1.5199  1.6820 -0.3481
 4336SOL    MW417112   0.813   4.225   6.102  0.8092  0.0766 -0.4894
 4337SOL     OW17113   1.787   2.421   4.104  0.7965  0.2491  0.2726
 4337SOL    HW217114   1.808   2.514   4.107  1.8965  0.1035 -1.2321
 4337SOL    HW317115   1.692   2.417   4.108  0.6750  1.5226 -0.6604
 4337SOL    MW417116   1.777   2.432   4.105  0.9256  0.3979 -0.0490
 4338SOL     OW17117   0.241   3.340   2.616  0.2884  0.7474  0.1140
 4338SOL    HW217118   0.161   3.339   2.669  0.2509  2.0048  0.0989
 4338SOL    HW317119   0.293   3.266   2.649 -1.7465 -1.4490 -1.2802
 4338SOL    MW417120   0.237   3.330   2.627  0.0150  0.6235 -0.0720
 4339SOL     OW17121   1.863   4.797   0.101 -0.0858 -0.6362 -0.2309
 4339SOL    HW217122   1.812   4.827   0.176  0.5336 -1.3662  0.4954
 4339SOL    HW317123   1.923   4.869   0.082  0.3756 -0.8049  0.5552
 4339SOL    MW417124   1.864   4.810   0.108  0.0568 -0.7548 -0.0314
 4340SOL     OW17125   1.677   4.904   1.515  0.2300  0.0799 -0.0844
 4340SOL    HW217126   1.648   4.820   1.481 -0.7875  0.7586 -0.9631
 4340SOL    HW317127   1.616   4.923   1.587 -0.0356  0.4235 -0.3975
 4340SOL    MW417128   1.665   4.895   1.520  0.0607  0.2148 -0.2417
 4341SOL     OW17129   3.879   1.642   1.293  0.0744  0.5549 -0.5980
 4341SOL    HW217130   3.802   1.699   1.301  0.2274  1.0869 -2.5535
 4341SOL    HW317131   3.945   1.684   1.349 -1.0068  0.0654  1.1521
 4341SOL    MW417132   3.877   1.655   1.302 -0.0481  0.5605 -0.6251
 4342SOL     OW17133   5.253   3.041   0.003  0.3126  0.1375 -0.1518
 4342SOL    HW217134   5.171   3.073  -0.033 -0.9500  0.2907  2.6332
 4342SOL    HW317135   5.228   2.980   0.071  2.6186 -2.3724 -1.3467
 4342SOL    MW417136   5.239   3.037   0.007  0.4503 -0.1734  0.0580
 4343SOL     OW17137   2.847   2.266   3.442 -0.3878 -0.4358  0.3799
 4343SOL    HW217138   2.757   2.290   3.418 -0.0390  0.9459  0.3753
 4343SOL    HW317139   2.839   2.230   3.530 -0.7592  1.2072  1.0489
 4343SOL    MW417140   2.834   2.265   3.450 -0.3908 -0.0367  0.4676
 4344SOL     OW17141   2.223   0.292   1.709  0.0740 -0.9200 -0.5070
 4344SOL    HW217142   2.233   0.209   1.755  1.7806 -0.9091 -0.7968
 4344SOL    HW317143   2.295   0.294   1.646  1.0698  1.4593  0.5673
 4344SOL    MW417144   2.233   0.281   1.707  0.4306 -0.6046 -0.4035
 4345SOL     OW17145   2.813   2.491   2.218 -0.2179 -0.6362 -0.4353
 4345SOL    HW217146   2.862   2.490   2.300  0.1930  0.3658 -0.6496
 4345SOL    HW317147   2.722   2.476   2.244 -0.4832  2.0734  0.5341
 4345SOL    MW417148   2.808   2.489   2.232 -0.1987 -0.1465 -0.3357
 4346SOL     OW17149   1.879   2.415   3.317  0.3261  0.1093 -0.3851
 4346SOL    HW217150   1.905   2.493   3.366  1.3059 -0.2181 -0.3721
 4346SOL    HW317151   1.870   2.346   3.384  1.7712 -0.3654 -0.6491
 4346SOL    MW417152   1.881   2.416   3.332  0.6460  0.0034 -0.4182
 4347SOL     OW17153   5.421   2.689   0.507  0.1622 -0.2695  0.4796
 4347SOL    HW217154   5.442   2.771   0.551  1.0723 -1.0722  1.5927
 4347SOL    HW317155   5.437   2.707   0.414 -0.0345  0.9175  0.6625
 4347SOL    MW417156   5.426   2.702   0.501  0.2564 -0.2188  0.6506
 4348SOL     OW17157   0.116   4.485   3.253 -0.1645 -0.5589  0.1474
 4348SOL    HW217158   0.154   4.549   3.194  1.5236  0.7192  2.4477
 4348SOL    HW317159   0.024   4.479   3.227 -0.1887  2.1607 -0.6846
 4348SOL    MW417160   0.109   4.492   3.242  0.0550 -0.0315  0.3411
 4349SOL     OW17161   4.306   3.302   5.337 -0.0726  0.6886 -0.3716
 4349SOL    HW217162   4.312   3.207   5.347 -1.1450  0.3394 -2.5198
 4349SOL    HW317163   4.387   3.335   5.376 -0.6877 -0.8666  2.5336
 4349SOL    MW417164   4.318   3.294   5.344 -0.2952  0.4373 -0.2717
 4350SOL     OW17165   3.971   0.272   0.185  0.6061  0.1718 -0.6369
 4350SOL    HW217166   4.009   0.288   0.099  1.4322 -2.4287 -0.8413
 4350SOL    HW317167   4.046   0.249   0.240 -0.2302 -1.5534 -0.1371
 4350SOL    MW417168   3.986   0.271   0.181  0.6048 -0.3989 -0.5979
 4351SOL     OW17169   2.107   5.892   5.798  0.1987 -0.9250 -0.1918
 4351SOL    HW217170   2.074   5.851   5.878  0.4120 -1.8584 -0.5675
 4351SOL    HW317171   2.200   5.906   5.814 -0.1274  0.8049  0.4912
 4351SOL    MW417172   2.115   5.889   5.810  0.1838 -0.8199 -0.1513
 4352SOL     OW17173   3.215   4.578   4.042  0.1093  0.3998 -0.1497
 4352SOL    HW217174   3.262   4.524   4.106  3.7138  0.3953 -2.5009
 4352SOL    HW317175   3.147   4.521   4.008  2.5199 -2.1480 -1.1177
 4352SOL    MW417176   3.213   4.563   4.046  0.9029  0.0631 -0.5877
 4353SOL     OW17177   0.832   0.057   1.424  0.0571 -0.5145 -0.1544
 4353SOL    HW217178   0.804   0.072   1.514  1.1478 -0.1219  0.1259
 4353SOL    HW317179   0.844  -0.038   1.419 -1.9296 -0.7989 -0.4841
 4353SOL    MW417180   0.830   0.046   1.435 -0.0611 -0.5002 -0.1609
 4354SOL     OW17181   2.023   5.654   3.903  0.4630  0.3299 -0.0690
 4354SOL    HW217182   2.050   5.675   3.814  1.3196  0.2549  0.1580
 4354SOL    HW317183   1.929   5.638   3.897  0.5277  0.2306 -0.9733
 4354SOL    MW417184   2.014   5.655   3.891  0.5846  0.3069 -0.1583
 4355SOL     OW17185   1.685   6.046   1.633  0.2602  0.4263  0.0243
 4355SOL    HW217186   1.599   6.005   1.619  0.3382  1.1188 -3.3508
 4355SOL    HW317187   1.735   5.981   1.682 -1.9947 -0.1920  1.6606
 4355SOL    MW417188   1.680   6.032   1.638 -0.0270  0.4361 -0.2051
 4356SOL     OW17189   1.280   5.616   4.419 -0.1954 -0.1394  0.1071
 4356SOL    HW217190   1.213   5.668   4.375  0.0836 -0.4193 -0.6618
 4356SOL    HW317191   1.244   5.599   4.507 -0.1479  1.6230  0.4999
 4356SOL    MW417192   1.266   5.620   4.425 -0.1523  0.0562  0.0575
 4357SOL     OW17193   4.005   2.385   4.735  0.2574 -0.0630  0.0714
 4357SOL    HW217194   4.015   2.427   4.649  3.9943 -1.9152 -0.5720
 4357SOL    HW317195   4.004   2.458   4.797  0.6587  1.2068 -1.3576
 4357SOL    MW417196   4.006   2.400   4.732  0.8034 -0.1399 -0.2020
 4358SOL     OW17197   6.026   3.596   6.406  0.6298  0.0400 -0.2236
 4358SOL    HW217198   5.991   3.578   6.493  0.4146  0.4140 -0.2314
 4358SOL    HW317199   6.121   3.591   6.417  0.5853 -0.7122 -0.1448
 4358SOL    MW417200   6.034   3.593   6.419  0.5955 -0.0099 -0.2142
 4359SOL     OW17201   1.565   6.330   1.006 -0.0108 -0.4910 -0.0418
 4359SOL    HW217202   1.659   6.318   0.994  0.3288  0.4420  1.5254
 4359SOL    HW317203   1.534   6.247   1.041  0.4748 -0.3372  0.7514
 4359SOL    MW417204   1.573   6.317   1.009  0.0981 -0.3476  0.2696
 4360SOL     OW17205   5.752   2.428   3.252  0.0769 -0.3479  0.0561
 4360SOL    HW217206   5.751   2.441   3.157 -0.1829 -1.4537 -0.0996
 4360SOL    HW317207   5.704   2.346   3.266 -0.0024 -0.1286  1.1555
 4360SOL    MW417208   5.745   2.419   3.241  0.0321 -0.4649  0.1806
 4361SOL     OW17209   1.698   4.601   5.894 -0.0833  0.6018 -0.0879
 4361SOL    HW217210   1.657   4.636   5.973 -0.2442  0.2649 -0.0166
 4361SOL    HW317211   1.783   4.645   5.888 -0.0597  0.6065  0.2878
 4361SOL    MW417212   1.704   4.611   5.903 -0.1014  0.5580 -0.0289
 4362SOL     OW17213   2.544   2.124   2.316 -0.2426  0.0705 -0.1836
 4362SOL    HW217214   2.489   2.052   2.347  0.6824 -1.1862 -1.3461
 4362SOL    HW317215   2.558   2.178   2.393 -0.6095 -1.2275  0.8240
 4362SOL    MW417216   2.538   2.122   2.330 -0.1690 -0.2666 -0.2040
 4363SOL     OW17217   3.225   0.769   1.290 -0.3532 -0.0410 -0.0268
 4363SOL    HW217218   3.304   0.747   1.241 -0.7669 -1.5460 -0.0698
 4363SOL    HW317219   3.244   0.854   1.331  1.0008 -0.0496 -0.6131
 4363SOL    MW417220   3.238   0.778   1.289 -0.2291 -0.2407 -0.1099
 4364SOL     OW17221   2.210   6.074   4.149 -0.0829  0.0414 -0.2566
 4364SOL    HW217222   2.253   6.065   4.234  0.2239 -1.9081 -0.5739
 4364SOL    HW317223   2.179   5.986   4.128 -0.2493  0.5044 -2.1291
 4364SOL    MW417224   2.211   6.062   4.157 -0.0644 -0.1547 -0.5455
 4365SOL     OW17225   0.314   5.868   6.283  0.0346 -0.2276 -0.5150
 4365SOL    HW217226   0.219   5.857   6.279 -0.0517  0.4045 -0.3731
 4365SOL    HW317227   0.349   5.779   6.289 -0.5937 -0.4286  0.4319
 4365SOL    MW417228   0.306   5.855   6.283 -0.0597 -0.1708 -0.3713
 4366SOL     OW17229   4.870   1.204   5.967  0.0429  0.2518 -0.1188
 4366SOL    HW217230   4.851   1.195   6.060  0.2293 -0.3980 -0.1415
 4366SOL    HW317231   4.803   1.263   5.934 -0.8952 -0.6573  0.1339
 4366SOL    MW417232   4.859   1.211   5.974 -0.0563  0.0461 -0.0884
 4367SOL     OW17233   0.556   4.430   1.398  0.2934 -0.4413 -0.2968
 4367SOL    HW217234   0.545   4.451   1.306 -1.6931  0.2373  0.0363
 4367SOL    HW317235   0.649   4.414   1.409  1.1713  2.8069 -1.7685
 4367SOL    MW417236   0.567   4.431   1.388  0.1472  0.0768 -0.4470
 4368SOL     OW17237   3.686   3.306   1.293 -0.0090  0.0287  0.2167
 4368SOL    HW217238   3.710   3.253   1.217 -1.3564  2.4800 -2.0925
 4368SOL    HW317239   3.590   3.309   1.290  0.0072  2.1004  0.5508
 4368SOL    MW417240   3.677   3.299   1.282 -0.1846  0.6255 -0.0439
 4369SOL     OW17241   5.986   4.481   5.214 -0.1103  0.3089 -0.1817
 4369SOL    HW217242   6.056   4.427   5.177  1.3209  0.6135  1.8931
 4369SOL    HW317243   5.906   4.447   5.175  0.8972 -2.1228 -0.2860
 4369SOL    MW417244   5.985   4.470   5.204  0.2115  0.0283  0.0783
 4370SOL     OW17245   0.498   1.953   5.949  0.3321  0.5357 -0.6948
 4370SOL    HW217246   0.592   1.963   5.929  0.7497  2.5735  1.7479
 4370SOL    HW317247   0.489   1.986   6.038 -2.3940 -1.7404  0.0112
 4370SOL    MW417248   0.510   1.959   5.958  0.0275  0.5043 -0.2794
 4371SOL     OW17249   2.727   5.256   1.178 -0.0071 -0.5222 -0.3332
 4371SOL    HW217250   2.654   5.228   1.123 -1.5591 -1.4076  2.0285
 4371SOL    HW317251   2.686   5.299   1.253  2.0176  0.8322  0.0750
 4371SOL    MW417252   2.712   5.258   1.181  0.0553 -0.4603  0.0323
 4372SOL     OW17253   3.323   3.599   4.283  0.2565 -0.4675 -0.2955
 4372SOL    HW217254   3.407   3.641   4.266  1.6342 -2.0604  1.9531
 4372SOL    HW317255   3.303   3.550   4.203  1.4515 -0.0534 -0.8674
 4372SOL    MW417256   3.331   3.598   4.270  0.5960 -0.6230 -0.0743
 4373SOL     OW17257   1.757   2.566   1.927  0.1739 -0.2779  0.2494
 4373SOL    HW217258   1.683   2.624   1.948 -0.6199 -0.9795 -0.5388
 4373SOL    HW317259   1.717   2.494   1.879  1.2961 -0.9962  0.3818
 4373SOL    MW417260   1.742   2.564   1.924  0.2172 -0.4653  0.1629
 4374SOL     OW17261   3.998   3.790   0.148 -0.0300  0.0496 -0.1290
 4374SOL    HW217262   3.979   3.804   0.240 -2.6365 -3.4814  0.0828
 4374SOL    HW317263   3.923   3.828   0.102  0.8326  1.0245 -0.7735
 4374SOL    MW417264   3.986   3.797   0.154 -0.2600 -0.2876 -0.1861
 4375SOL     OW17265   3.386   0.962   4.598  0.0174  0.3443 -0.7917
 4375SOL    HW217266   3.335   0.893   4.640 -1.4286  1.0443 -1.3334
 4375SOL    HW317267   3.382   1.036   4.659 -1.1402  0.9829 -1.5862
 4375SOL    MW417268   3.379   0.963   4.611 -0.3261  0.5209 -0.9680
 4376SOL     OW17269   6.213   3.476   2.661  0.4590 -0.0220 -0.3698
 4376SOL    HW217270   6.155   3.400   2.648 -1.4319  1.3626 -0.4001
 4376SOL    HW317271   6.185   3.540   2.596  0.1811  1.7237  1.3633
 4376SOL    MW417272   6.202   3.474   2.651  0.1729  0.3910 -0.1451
 4377SOL     OW17273   5.332   5.218   1.341 -0.1964  0.9412 -0.1180
 4377SOL    HW217274   5.273   5.148   1.314  0.5324 -0.0804  0.8551
 4377SOL    HW317275   5.280   5.298   1.334 -1.3687  0.1871 -0.2407
 4377SOL    MW417276   5.317   5.219   1.336 -0.2549  0.7069 -0.0058
 4378SOL     OW17277   4.719   3.523   1.797 -0.4746 -0.0811 -0.0452
 4378SOL    HW217278   4.673   3.458   1.850 -1.1872  0.4816  0.0466
 4378SOL    HW317279   4.684   3.512   1.709 -1.3271  0.8113  0.1610
 4378SOL    MW417280   4.709   3.513   1.792 -0.6811  0.1109 -0.0059
 4379SOL     OW17281   2.394   5.875   5.964 -0.5053 -0.5759 -0.0052
 4379SOL    HW217282   2.402   5.968   5.945 -1.5354 -0.8185 -1.9548
 4379SOL    HW317283   2.475   5.836   5.931 -0.7344 -0.5449 -0.6148
 4379SOL    MW417284   2.405   5.882   5.957 -0.6714 -0.6038 -0.3428
 4380SOL     OW17285   5.480   4.764   3.396 -0.3081  0.1800  0.4721
 4380SOL    HW217286   5.418   4.828   3.361 -1.6803 -1.1534  0.3610
 4380SOL    HW317287   5.513   4.718   3.319 -0.8815 -0.5914  0.6731
 4380SOL    MW417288   5.476   4.766   3.381 -0.5648 -0.0977  0.4840
 4381SOL     OW17289   0.073   4.451   1.254  0.6035  0.5137  0.1564
 4381SOL    HW217290   0.058   4.395   1.178 -0.6268 -0.3394  0.9693
 4381SOL    HW317291   0.149   4.413   1.298  0.2333 -0.0837  0.2952
 4381SOL    MW417292   0.081   4.438   1.250  0.3924  0.3223  0.2820
 4382SOL     OW17293   0.867   0.450   2.844 -0.7281 -0.1891 -0.6179
 4382SOL    HW217294   0.962   0.446   2.856 -0.7452 -0.6859 -0.6133
 4382SOL    HW317295   0.846   0.372   2.793 -1.0402  0.3387 -1.3167
 4382SOL    MW417296   0.877   0.439   2.839 -0.7715 -0.1850 -0.7095
 4383SOL     OW17297   6.273   2.281   0.753  0.2401 -0.2706 -0.5311
 4383SOL    HW217298   6.205   2.234   0.704  0.3674  0.3607 -1.3388
 4383SOL    HW317299   6.343   2.217   0.766  0.8530 -0.0722 -2.5022
 4383SOL    MW417300   6.273   2.267   0.748  0.3378 -0.1611 -0.8977
 4384SOL     OW17301   3.864   5.857   5.814 -0.4857 -0.2394 -1.0248
 4384SOL    HW217302   3.817   5.775   5.801 -1.0096  0.0388 -0.9366
 4384SOL    HW317303   3.946   5.846   5.766  0.2888 -1.5145  0.5276
 4384SOL    MW417304   3.868   5.845   5.806 -0.4526 -0.3709 -0.8084
 4385SOL     OW17305   1.786   3.154   5.552  0.3555 -0.0711  0.0286
 4385SOL    HW217306   1.772   3.136   5.645  0.7209 -0.6793 -0.0320
 4385SOL    HW317307   1.701   3.134   5.511  0.3407 -0.2741  0.1595
 4385SOL    MW417308   1.773   3.149   5.559  0.4018 -0.1781  0.0379
 4386SOL     OW17309   2.471   0.826   6.205  0.0654 -0.0235  0.1812
 4386SOL    HW217310   2.445   0.864   6.121  1.5767  1.2758  0.2594
 4386SOL    HW317311   2.567   0.820   6.200  0.0702 -1.3629  1.2366
 4386SOL    MW417312   2.480   0.830   6.194  0.2655 -0.0288  0.3308
 4387SOL     OW17313   3.073   4.826   5.246  0.4969  0.5131 -0.4530
 4387SOL    HW217314   3.006   4.894   5.244  1.3857  1.4871  0.9636
 4387SOL    HW317315   3.107   4.822   5.157 -1.6800 -0.3005 -1.3217
 4387SOL    MW417316   3.068   4.834   5.234  0.3270  0.5343 -0.3807
 4388SOL     OW17317   2.932   2.488   1.862  0.0111 -0.0084  0.7548
 4388SOL    HW217318   2.929   2.554   1.932 -2.0472  0.5542  0.1917
 4388SOL    HW317319   2.851   2.501   1.813 -0.2189 -2.6345  0.3062
 4388SOL    MW417320   2.921   2.499   1.865 -0.2908 -0.2806  0.6213
 4389SOL     OW17321   5.730   3.332   4.374  0.0532  0.1508  0.2440
 4389SOL    HW217322   5.678   3.277   4.433 -2.0583  0.8430 -0.8389
 4389SOL    HW317323   5.771   3.269   4.313 -0.2816 -0.3761  0.5502
 4389SOL    MW417324   5.728   3.316   4.373 -0.2696  0.1726  0.1415
 4390SOL     OW17325   3.370   2.050   3.189  0.1467 -0.6190  0.3727
 4390SOL    HW217326   3.379   1.957   3.209  2.2280 -1.0524 -1.9640
 4390SOL    HW317327   3.332   2.052   3.101  0.3956  0.7425  0.2675
 4390SOL    MW417328   3.366   2.038   3.180  0.4541 -0.4966  0.0505
 4391SOL     OW17329   1.257   3.226   4.878 -0.2990 -0.3180 -0.6454
 4391SOL    HW217330   1.344   3.243   4.843 -0.5109 -1.5459 -1.8403
 4391SOL    HW317331   1.205   3.302   4.849  0.5189  0.8330  0.7760
 4391SOL    MW417332   1.261   3.239   4.869 -0.2190 -0.3281 -0.6155
 4392SOL     OW17333   3.193   5.781   3.862  0.0417 -0.4804 -0.3789
 4392SOL    HW217334   3.113   5.729   3.871 -0.6951  0.7084  0.1390
 4392SOL    HW317335   3.252   5.725   3.811 -0.0974 -2.4951  1.5321
 4392SOL    MW417336   3.191   5.767   3.856 -0.0739 -0.5894 -0.0585
 4393SOL     OW17337   5.410   5.111   6.093 -0.3405  0.4905 -0.7006
 4393SOL    HW217338   5.431   5.190   6.143 -0.8846  1.4475 -1.9437
 4393SOL    HW317339   5.320   5.123   6.064 -1.3210 -1.6956  1.0627
 4393SOL    MW417340   5.401   5.123   6.096 -0.5417  0.3284 -0.6320
 4394SOL     OW17341   5.220   0.954   0.570  0.4549 -0.3016 -0.9742
 4394SOL    HW217342   5.302   0.950   0.619  0.1468  0.7130 -0.3346
 4394SOL    HW317343   5.205   0.865   0.540  1.0754 -0.7871  0.1043
 4394SOL    MW417344   5.229   0.942   0.573  0.4961 -0.2318 -0.7475
 4395SOL     OW17345   2.084   6.358   4.800 -0.2583 -1.0772  0.3645
 4395SOL    HW217346   2.086   6.436   4.856 -0.9428  0.0445 -1.0790
 4395SOL    HW317347   2.172   6.322   4.804  0.2233  0.0939  0.6528
 4395SOL    MW417348   2.096   6.364   4.808 -0.2851 -0.7747  0.2121
 4396SOL     OW17349   1.482   1.338   5.958 -0.0457  0.4265 -0.4261
 4396SOL    HW217350   1.444   1.290   6.031  0.5741  2.0645  1.0515
 4396SOL    HW317351   1.472   1.280   5.883 -3.8641  0.0231  0.1983
 4396SOL    MW417352   1.476   1.324   5.958 -0.4677  0.5894 -0.1487
 4397SOL     OW17353   1.040   3.107   6.307  0.7187 -0.4625  0.2735
 4397SOL    HW217354   1.045   3.179   6.370 -0.4154 -1.3579  1.4475
 4397SOL    HW317355   1.056   3.148   6.222 -0.7185  1.3472  0.8142
 4397SOL    MW417356   1.043   3.122   6.304  0.3794 -0.3418  0.4997
 4398SOL     OW17357   3.834   0.985   5.754 -0.1719  0.0283 -0.1216
 4398SOL    HW217358   3.911   0.953   5.706 -1.1133  0.9017 -2.3802
 4398SOL    HW317359   3.828   0.928   5.831  1.0011 -2.0186 -1.4421
 4398SOL    MW417360   3.844   0.973   5.758 -0.1413 -0.1265 -0.5938
 4399SOL     OW17361   2.923   1.282   5.252 -0.1701  0.2916  0.2469
 4399SOL    HW217362   2.844   1.333   5.271 -0.9990 -0.7572 -0.3138
 4399SOL    HW317363   2.985   1.310   5.319 -0.8144  1.5435  0.3700
 4399SOL    MW417364   2.921   1.293   5.263 -0.3645  0.3184  0.1892
 4400SOL     OW17365   6.104   3.423   4.186 -0.2895 -0.2070  0.1998
 4400SOL    HW217366   6.124   3.423   4.279  1.8494 -1.6157 -0.1936
 4400SOL    HW317367   6.092   3.516   4.164  1.1977  0.3423  1.5095
 4400SOL    MW417368   6.105   3.436   4.195  0.1889 -0.3204  0.3207
 4401SOL     OW17369   1.419   2.549   4.733 -0.1108 -0.0368 -0.4260
 4401SOL    HW217370   1.372   2.613   4.678  0.9918 -0.1379 -1.5124
 4401SOL    HW317371   1.446   2.600   4.810  0.3346  0.7077 -1.0536
 4401SOL    MW417372   1.416   2.564   4.736  0.0934  0.0481 -0.6521
 4402SOL     OW17373   3.279   2.932   0.369 -0.5207 -0.1614  0.3061
 4402SOL    HW217374   3.262   2.852   0.318 -0.8071  0.3311 -0.3966
 4402SOL    HW317375   3.299   2.901   0.457 -3.1905 -0.9094  0.7210
 4402SOL    MW417376   3.280   2.917   0.374 -0.9108 -0.1951  0.2681
 4403SOL     OW17377   4.353   4.439   4.358 -0.7395 -0.7419  0.5017
 4403SOL    HW217378   4.284   4.496   4.391 -0.5364 -0.0659 -0.2223
 4403SOL    HW317379   4.356   4.366   4.420 -1.5824 -0.3948  0.9580
 4403SOL    MW417380   4.344   4.437   4.370 -0.8239 -0.6069  0.4664
 4404SOL     OW17381   2.226   5.207   0.528 -0.6018  0.0170 -0.0510
 4404SOL    HW217382   2.255   5.245   0.445 -2.2692  2.1667  0.2700
 4404SOL    HW317383   2.148   5.157   0.506  0.0389 -1.0253 -0.0348
 4404SOL    MW417384   2.220   5.205   0.515 -0.7372  0.1631 -0.0065
 4405SOL     OW17385   4.217   3.651   0.371  0.0429 -0.1494 -0.2126
 4405SOL    HW217386   4.192   3.579   0.429  0.4166  0.5324  0.8442
 4405SOL    HW317387   4.148   3.716   0.384  0.5296  0.3187  0.0636
 4405SOL    MW417388   4.204   3.650   0.381  0.1564  0.0023 -0.0367
 4406SOL     OW17389   1.158   1.580   5.405 -0.1176 -0.2267 -0.0360
 4406SOL    HW217390   1.158   1.617   5.493 -0.4352 -1.6131  0.5771
 4406SOL    HW317391   1.191   1.650   5.349  2.0937  0.0372  1.4810
 4406SOL    MW417392   1.163   1.594   5.409  0.1323 -0.3748  0.2451
 4407SOL     OW17393   2.552   2.032   1.396 -0.0962  0.2481 -0.0503
 4407SOL    HW217394   2.463   2.052   1.367  0.4356 -1.1578 -3.0906
 4407SOL    HW317395   2.572   1.947   1.355  1.6427 -0.9687  2.9590
 4407SOL    MW417396   2.543   2.023   1.387  0.2034 -0.0979 -0.0544
 4408SOL     OW17397   2.744   5.684   2.735 -0.4231 -0.1947 -0.3464
 4408SOL    HW217398   2.695   5.611   2.772 -0.0099 -0.1714  0.2525
 4408SOL    HW317399   2.727   5.757   2.795 -0.7284  0.1724 -0.8689
 4408SOL    MW417400   2.735   5.684   2.748 -0.4089 -0.1432 -0.3364
 4409SOL     OW17401   6.307   0.214   4.105  0.2549 -0.5282  0.2202
 4409SOL    HW217402   6.400   0.236   4.111  0.0451  0.0584  1.7723
 4409SOL    HW317403   6.281   0.243   4.017  1.2532  0.4352  0.2212
 4409SOL    MW417404   6.315   0.221   4.094  0.3590 -0.3237  0.4251
 4410SOL     OW17405   3.425   6.300   0.063 -0.1557  0.1114  0.5474
 4410SOL    HW217406   3.439   6.273   0.154  1.0488  0.4123  0.4663
 4410SOL    HW317407   3.459   6.227   0.011 -0.6637  0.0264  0.3185
 4410SOL    MW417408   3.431   6.287   0.068 -0.0638  0.1399  0.5065
 4411SOL     OW17409   3.417   5.475   0.720 -0.4523  0.0458 -0.1037
 4411SOL    HW217410   3.478   5.541   0.752  0.9653 -0.4620 -1.6092
 4411SOL    HW317411   3.446   5.393   0.760  1.3750 -0.6037 -2.5456
 4411SOL    MW417412   3.429   5.473   0.729 -0.0242 -0.1069 -0.6245
 4412SOL     OW17413   2.532   3.452   1.096  0.0382  0.3456 -0.2037
 4412SOL    HW217414   2.530   3.504   1.176 -1.5487  0.8639 -0.5441
 4412SOL    HW317415   2.487   3.506   1.030 -1.8782 -1.4606 -0.5140
 4412SOL    MW417416   2.525   3.466   1.098 -0.4240  0.1757 -0.2895
 4413SOL     OW17417   0.929   4.483   5.987  0.5454 -0.0683 -0.0888
 4413SOL    HW217418   0.889   4.404   6.024  0.1315  0.3952  0.4702
 4413SOL    HW317419   0.857   4.528   5.942  0.8577 -0.1855 -0.7258
 4413SOL    MW417420   0.914   4.479   5.986  0.5320 -0.0226 -0.0991
 4414SOL     OW17421   4.219   2.960   6.020  0.0545  0.3223  0.1083
 4414SOL    HW217422   4.150   2.940   5.957  1.0855  0.1900 -1.0175
 4414SOL    HW317423   4.182   2.936   6.105 -0.6159 -1.5202 -0.6575
 4414SOL    MW417424   4.205   2.954   6.023  0.1021  0.0617 -0.1413
 4415SOL     OW17425   4.105   1.717   0.240 -0.2488  0.0092 -0.1499
 4415SOL    HW217426   4.046   1.755   0.305 -2.1527 -2.7999 -0.0458
 4415SOL    HW317427   4.182   1.690   0.290 -0.9194 -0.4972  0.6370
 4415SOL    MW417428   4.108   1.718   0.255 -0.5885 -0.4282 -0.0324
 4416SOL     OW17429   1.590   3.181   0.060  0.5132  0.4170  0.4126
 4416SOL    HW217430   1.631   3.202  -0.024 -0.8277 -1.2852 -0.7493
 4416SOL    HW317431   1.496   3.198   0.045  0.0193 -1.5763  0.9442
 4416SOL    MW417432   1.583   3.186   0.047  0.2711 -0.0706  0.3294
 4417SOL     OW17433   5.711   4.340   6.278  0.4778  0.1707 -0.5654
 4417SOL    HW217434   5.780   4.274   6.284 -0.1635 -1.0761 -4.2011
 4417SOL    HW317435   5.648   4.316   6.345  0.9979 -2.0269 -0.7921
 4417SOL    MW417436   5.712   4.328   6.288  0.4618 -0.2837 -1.0750
 4418SOL     OW17437   4.156   4.503   4.965  0.3487  0.1494 -0.5588
 4418SOL    HW217438   4.090   4.527   5.030 -1.5919 -2.2232 -1.4986
 4418SOL    HW317439   4.226   4.461   5.016  0.1543  0.7874  0.2475
 4418SOL    MW417440   4.156   4.500   4.980  0.0670 -0.0795 -0.5764
 4419SOL     OW17441   3.436   6.274   4.153  0.0286  0.3117  0.2896
 4419SOL    HW217442   3.341   6.278   4.164  0.0235 -2.6016  2.6178
 4419SOL    HW317443   3.470   6.342   4.211 -0.5641  1.8059 -1.0305
 4419SOL    MW417444   3.428   6.283   4.162 -0.0503  0.1245  0.4226
 4420SOL     OW17445   5.216   4.268   4.263 -0.1686  0.0539 -0.0853
 4420SOL    HW217446   5.175   4.339   4.312 -1.0150 -0.2936 -0.2690
 4420SOL    HW317447   5.239   4.307   4.179  1.3317  0.6645  0.5701
 4420SOL    MW417448   5.214   4.282   4.258 -0.0823  0.0886 -0.0231
 4421SOL     OW17449   1.155   0.555   2.582  0.5477 -0.3264  0.0330
 4421SOL    HW217450   1.154   0.548   2.678  1.3769 -0.9355  0.0111
 4421SOL    HW317451   1.153   0.465   2.552  1.9528 -0.2084 -0.4827
 4421SOL    MW417452   1.155   0.542   2.591  0.8425 -0.3912 -0.0380
 4422SOL     OW17453   1.477   4.000   1.609 -0.2407 -0.0230  0.1595
 4422SOL    HW217454   1.465   4.089   1.575  0.3709 -0.3252 -0.8861
 4422SOL    HW317455   1.477   4.011   1.704 -1.0201  0.9772  0.0676
 4422SOL    MW417456   1.475   4.013   1.617 -0.2628  0.0691  0.0094
 4423SOL     OW17457   1.321   4.269   5.793  0.8316 -0.0580 -0.2966
 4423SOL    HW217458   1.311   4.225   5.877 -0.0730 -0.7948 -0.7657
 4423SOL    HW317459   1.263   4.344   5.798  0.9933  0.0570 -0.1573
 4423SOL    MW417460   1.312   4.273   5.805  0.7336 -0.1401 -0.3401
 4424SOL     OW17461   0.397   4.103   2.685  0.2061  0.2650  0.2541
 4424SOL    HW217462   0.379   4.022   2.636 -0.0406  0.5782 -0.1745
 4424SOL    HW317463   0.493   4.108   2.688  0.2241  0.3678 -0.4032
 4424SOL    MW417464   0.408   4.093   2.679  0.1759  0.3199  0.1109
 4425SOL     OW17465   2.872   0.737   3.869 -0.8415  0.0663 -0.7709
 4425SOL    HW217466   2.826   0.793   3.806 -0.2591  0.8507 -0.5158
 4425SOL    HW317467   2.814   0.734   3.945 -0.1894  1.6586 -0.1598
 4425SOL    MW417468   2.858   0.744   3.870 -0.6786  0.3799 -0.6566
 4426SOL     OW17469   4.731   5.936   1.586  0.0642  0.0127 -0.0017
 4426SOL    HW217470   4.762   5.984   1.663 -0.2024  0.1448  0.0263
 4426SOL    HW317471   4.696   6.004   1.528 -0.1720 -0.1327 -0.0306
 4426SOL    MW417472   4.730   5.951   1.588 -0.0021  0.0109 -0.0018
 4427SOL     OW17473   2.256   4.946   3.897 -0.1859  0.3703  0.5900
 4427SOL    HW217474   2.178   4.999   3.911 -1.7349 -0.3656 -3.7085
 4427SOL    HW317475   2.327   5.009   3.889 -1.3611  1.6043 -0.7747
 4427SOL    MW417476   2.255   4.961   3.898 -0.5453  0.4360 -0.1572
 4428SOL     OW17477   2.806   4.183   1.874  0.5611 -0.2807  0.0539
 4428SOL    HW217478   2.845   4.271   1.881  0.0769 -0.0347 -0.2492
 4428SOL    HW317479   2.724   4.198   1.827 -0.4373 -0.6312  1.6054
 4428SOL    MW417480   2.800   4.197   1.869  0.3655 -0.2945  0.2186
 4429SOL     OW17481   0.682   2.113   0.506  0.4884 -0.5651 -0.2342
 4429SOL    HW217482   0.760   2.125   0.560  0.2346 -0.3062  0.0798
 4429SOL    HW317483   0.615   2.082   0.567 -0.3168  1.4648 -0.0223
 4429SOL    MW417484   0.684   2.111   0.521  0.3486 -0.2631 -0.1648
 4430SOL     OW17485   3.850   1.687   6.215  0.1478  0.0786 -0.2961
 4430SOL    HW217486   3.783   1.619   6.211 -1.1063  1.2068  0.8059
 4430SOL    HW317487   3.895   1.681   6.131 -1.5480 -0.5007 -1.2074
 4430SOL    MW417488   3.848   1.677   6.204 -0.2414  0.1510 -0.2710
 4431SOL     OW17489   3.665   1.610   5.520  0.2501 -0.1048  0.1619
 4431SOL    HW217490   3.746   1.559   5.520  1.6500  1.7592 -3.1939
 4431SOL    HW317491   3.693   1.699   5.498 -2.8016  0.2254 -3.3599
 4431SOL    MW417492   3.679   1.615   5.517  0.0321  0.1847 -0.7455
 4432SOL     OW17493   1.966   2.732   1.849  0.3566  0.2255  0.8838
 4432SOL    HW217494   1.916   2.652   1.866  0.3511  0.3453  1.4605
 4432SOL    HW317495   1.934   2.763   1.764  0.2059 -0.2677  0.7593
 4432SOL    MW417496   1.955   2.726   1.840  0.3360  0.1763  0.9435
 4433SOL     OW17497   1.915   3.176   5.287 -0.1994 -0.3885  0.0888
 4433SOL    HW217498   1.870   3.151   5.368 -2.2427 -0.0501 -0.8565
 4433SOL    HW317499   1.863   3.249   5.253  0.4244 -0.7163 -1.6697
 4433SOL    MW417500   1.902   3.182   5.293 -0.3867 -0.3871 -0.2679
 4434SOL     OW17501   2.915   2.656   1.616  0.6402 -0.1233  0.3936
 4434SOL    HW217502   2.825   2.633   1.641 -1.7664  4.9926 -2.0089
 4434SOL    HW317503   2.959   2.676   1.699 -1.3250 -0.2419  1.5245
 4434SOL    MW417504   2.909   2.656   1.630  0.0634  0.5360  0.2258
 4435SOL     OW17505   1.044   2.544   4.806  0.1789  0.4103  0.2404
 4435SOL    HW217506   1.099   2.465   4.810 -0.9467 -0.4869 -0.9704
 4435SOL    HW317507   1.097   2.612   4.847  1.3334 -0.8885  1.0162
 4435SOL    MW417508   1.059   2.542   4.812  0.1827  0.1205  0.1830
 4436SOL     OW17509   2.118   3.521   5.087  0.2173  0.0897 -1.1713
 4436SOL    HW217510   2.190   3.468   5.120 -0.1824 -0.3364 -0.9801
 4436SOL    HW317511   2.054   3.521   5.157  0.1976  0.8104 -1.1788
 4436SOL    MW417512   2.119   3.514   5.100  0.1619  0.1286 -1.1471
 4437SOL     OW17513   0.146   5.470   3.675  0.9476  0.4887 -0.2226
 4437SOL    HW217514   0.192   5.536   3.623  1.3356  1.2168  1.0088
 4437SOL    HW317515   0.061   5.510   3.694 -0.7957 -1.2741 -3.4182
 4437SOL    MW417516   0.141   5.484   3.670  0.7688  0.3522 -0.4818
 4438SOL     OW17517   3.575   0.562   6.368  0.1233 -0.0371 -0.5021
 4438SOL    HW217518   3.482   0.574   6.352  0.3437  0.7169 -1.3332
 4438SOL    HW317519   3.580   0.527   6.457 -0.8679  1.7725  0.3227
 4438SOL    MW417520   3.564   0.559   6.377  0.0216  0.3011 -0.5029
 4439SOL     OW17521   4.623   2.735   4.486  0.3881  0.0865  0.0033
 4439SOL    HW217522   4.703   2.781   4.461  0.8252 -0.0025  1.2067
 4439SOL    HW317523   4.597   2.689   4.406  2.5085 -1.2950  0.0255
 4439SOL    MW417524   4.630   2.735   4.472  0.7255 -0.1075  0.1650
 4440SOL     OW17525   4.875   3.918   2.859  0.1105 -0.1461 -0.0337
 4440SOL    HW217526   4.819   3.846   2.886  0.5201 -0.1499  0.8382
 4440SOL    HW317527   4.944   3.877   2.807  0.5477 -0.4399  0.7705
 4440SOL    MW417528   4.877   3.903   2.856  0.2222 -0.1853  0.1875
 4441SOL     OW17529   0.347   0.150   5.402  0.6720 -0.1444  0.3892
 4441SOL    HW217530   0.270   0.184   5.356  1.1956 -1.3846 -1.5092
 4441SOL    HW317531   0.312   0.082   5.459  0.3197 -0.5038 -0.2472
 4441SOL    MW417532   0.332   0.146   5.403  0.6946 -0.3554  0.0548
 4442SOL     OW17533   1.265   1.139   2.641 -0.0791 -0.0791 -0.3586
 4442SOL    HW217534   1.178   1.100   2.632 -0.0963 -0.2074  0.2884
 4442SOL    HW317535   1.321   1.087   2.583 -0.2248 -0.7011  0.0401
 4442SOL    MW417536   1.261   1.127   2.632 -0.1006 -0.1781 -0.2206
 4443SOL     OW17537   1.335   2.037   2.122  0.4748 -0.4542  0.2966
 4443SOL    HW217538   1.369   1.960   2.075  1.8352 -0.2529  0.8803
 4443SOL    HW317539   1.382   2.111   2.084 -0.4902  0.0496  0.0557
 4443SOL    MW417540   1.346   2.036   2.111  0.5270 -0.3612  0.3418
 4444SOL     OW17541   4.489   0.845   3.294  0.3311 -0.4389 -0.3061
 4444SOL    HW217542   4.555   0.808   3.353  0.9202  1.2740  0.1727
 4444SOL    HW317543   4.408   0.801   3.318  0.5556  0.2006  1.8070
 4444SOL    MW417544   4.487   0.835   3.305  0.4384 -0.1285  0.0359
 4445SOL     OW17545   0.205   1.438   0.320  0.0707  1.0483  0.2697
 4445SOL    HW217546   0.292   1.415   0.287 -0.7174  0.1662 -1.3417
 4445SOL    HW317547   0.147   1.374   0.279 -1.2635  1.1602  1.8960
 4445SOL    MW417548   0.209   1.426   0.310 -0.2093  0.9467  0.2717
 4446SOL     OW17549   4.372   3.765   6.219  0.1161  0.2232 -0.7125
 4446SOL    HW217550   4.461   3.754   6.186  0.1855 -0.0929 -0.4269
 4446SOL    HW317551   4.340   3.844   6.175  0.8182  0.8030 -0.2114
 4446SOL    MW417552   4.379   3.774   6.208  0.2179  0.2580 -0.6087
 4447SOL     OW17553   3.145   0.503   0.644 -0.0875  1.0385 -0.2389
 4447SOL    HW217554   3.051   0.488   0.642  0.3018 -1.8151 -1.0435
 4447SOL    HW317555   3.166   0.540   0.558 -0.4342  1.7087 -0.0447
 4447SOL    MW417556   3.136   0.506   0.633 -0.0819  0.7504 -0.3195
 4448SOL     OW17557   5.712   0.986   1.528  0.2886  0.3988 -0.1580
 4448SOL    HW217558   5.688   1.068   1.484  0.8370  0.9999  0.6235
 4448SOL    HW317559   5.631   0.957   1.570  0.0768  0.5155 -0.4876
 4448SOL    MW417560   5.698   0.993   1.528  0.3330  0.4935 -0.0984
 4449SOL     OW17561   0.922   6.202   1.363  0.5767 -0.0655 -0.4088
 4449SOL    HW217562   0.973   6.225   1.285  1.4331 -1.2908 -0.2327
 4449SOL    HW317563   0.982   6.215   1.436  1.5165 -3.6420 -0.3592
 4449SOL    MW417564   0.936   6.207   1.362  0.8137 -0.6990 -0.3790
 4450SOL     OW17565   1.249   5.083   3.222  0.4636  0.1599 -0.4658
 4450SOL    HW217566   1.322   5.079   3.284 -0.5564  0.3486  0.7952
 4450SOL    HW317567   1.290   5.107   3.139  1.9307 -0.5307  0.0201
 4450SOL    MW417568   1.264   5.086   3.219  0.5226  0.0937 -0.2353
 4451SOL     OW17569   6.067   5.072   1.692  0.0609 -0.7284  0.1822
 4451SOL    HW217570   6.041   5.153   1.646 -0.6395 -0.2764  1.3219
 4451SOL    HW317571   6.028   5.002   1.641  0.3046 -0.3214 -0.5795
 4451SOL    MW417572   6.058   5.074   1.679  0.0006 -0.6150  0.2321
 4452SOL     OW17573   3.027   5.289   4.352  0.3275  0.4004 -0.3122
 4452SOL    HW217574   3.017   5.293   4.257  0.5040  0.2309 -0.3375
 4452SOL    HW317575   2.942   5.319   4.386  0.3187  0.6114 -0.5205
 4452SOL    MW417576   3.014   5.294   4.344  0.3496  0.4059 -0.3430
 4453SOL     OW17577   1.131   5.151   1.226 -0.6767 -0.3898 -0.5730
 4453SOL    HW217578   1.049   5.168   1.179 -1.5228 -1.9335  0.2882
 4453SOL    HW317579   1.161   5.238   1.254 -2.0557  0.1893 -0.8213
 4453SOL    MW417580   1.124   5.165   1.223 -0.9703 -0.5170 -0.4921
 4454SOL     OW17581   3.711   4.441   2.658 -0.1066 -0.3870  0.1049
 4454SOL    HW217582   3.618   4.421   2.672 -0.4266  1.2329  0.4992
 4454SOL    HW317583   3.732   4.506   2.725  1.5057 -1.2082  0.4437
 4454SOL    MW417584   3.702   4.447   2.669  0.0639 -0.2816  0.2016
 4455SOL     OW17585   1.353   4.482   6.066  0.0651 -0.9139 -0.3809
 4455SOL    HW217586   1.430   4.436   6.100 -0.2174 -0.4292  1.0231
 4455SOL    HW317587   1.365   4.573   6.096 -1.5718 -1.0586  0.8550
 4455SOL    MW417588   1.365   4.488   6.075 -0.1881 -0.8690 -0.0326
 4456SOL     OW17589   1.222   1.813   5.284 -0.3498 -0.5245 -0.1192
 4456SOL    HW217590   1.303   1.828   5.333 -1.0599 -0.2151  1.0219
 4456SOL    HW317591   1.225   1.877   5.213 -0.9407  1.6996  1.6934
 4456SOL    MW417592   1.233   1.824   5.281 -0.5214 -0.1902  0.2705
 4457SOL     OW17593   3.625   3.669   5.834  0.0068  0.7426 -0.4108
 4457SOL    HW217594   3.578   3.639   5.911  0.6814  0.9946  0.1063
 4457SOL    HW317595   3.618   3.765   5.838  2.5354  0.9629  0.9937
 4457SOL    MW417596   3.618   3.678   5.844  0.4294  0.8049 -0.1573
 4458SOL     OW17597   2.590   5.448   2.108 -0.0992  0.5046 -0.0115
 4458SOL    HW217598   2.633   5.405   2.034  1.1987 -1.7678  1.9172
 4458SOL    HW317599   2.497   5.428   2.097  0.1310 -0.2003 -0.7801
 4458SOL    MW417600   2.584   5.440   2.097  0.1024  0.1118  0.1416
 4459SOL     OW17601   1.911   0.051   4.270 -0.3282 -0.2746 -0.1595
 4459SOL    HW217602   1.918  -0.029   4.219 -1.0034 -1.2876  1.2721
 4459SOL    HW317603   1.876   0.023   4.355 -1.6601  1.6577  0.0087
 4459SOL    MW417604   1.907   0.037   4.275 -0.5930 -0.1533  0.0516
 4460SOL     OW17605   3.063   2.891   5.748 -0.5108 -0.3125 -0.0505
 4460SOL    HW217606   3.125   2.950   5.705 -0.3161  0.4890  1.2735
 4460SOL    HW317607   3.116   2.842   5.812 -0.8394 -1.2801 -0.4941
 4460SOL    MW417608   3.078   2.892   5.751 -0.5284 -0.3344  0.0657
 4461SOL     OW17609   0.714   2.928   0.054  0.2283  0.2226 -0.4457
 4461SOL    HW217610   0.733   2.976  -0.027  0.4808  0.6192 -0.1582
 4461SOL    HW317611   0.743   2.839   0.036 -0.7573  0.0401 -1.1795
 4461SOL    MW417612   0.721   2.923   0.041  0.1316  0.2508 -0.5046
 4462SOL     OW17613   1.267   5.978   5.271 -0.4441 -0.3705  0.1379
 4462SOL    HW217614   1.260   6.070   5.246 -0.5186 -0.1449  0.9599
 4462SOL    HW317615   1.345   5.974   5.326 -1.6750 -0.3587  1.9402
 4462SOL    MW417616   1.276   5.990   5.275 -0.6163 -0.3392  0.4841
 4463SOL     OW17617   4.037   3.703   4.990  0.1724 -0.0690 -0.2780
 4463SOL    HW217618   4.019   3.620   5.033 -0.9496  0.1931 -0.2047
 4463SOL    HW317619   4.036   3.767   5.061  0.7864  0.0401 -0.3655
 4463SOL    MW417620   4.035   3.701   5.005  0.1054 -0.0200 -0.2799
 4464SOL     OW17621   6.097   6.117   0.720  0.2179 -0.2044 -0.1826
 4464SOL    HW217622   6.026   6.168   0.681  0.1108 -0.3859 -0.2261
 4464SOL    HW317623   6.065   6.027   0.720  0.5051 -0.3079 -0.3355
 4464SOL    MW417624   6.083   6.112   0.715  0.2416 -0.2420 -0.2085
 4465SOL     OW17625   0.991   0.079   5.324 -0.5708 -0.7329 -0.0712
 4465SOL    HW217626   1.002   0.060   5.231  2.6823  1.8204 -0.3938
 4465SOL    HW317627   1.036   0.008   5.369  1.8535  0.2679 -0.7526
 4465SOL    MW417628   0.998   0.067   5.318  0.1783 -0.2640 -0.2037
 4466SOL     OW17629   1.031   4.046   6.126 -0.1161 -0.0640  0.4843
 4466SOL    HW217630   1.103   4.108   6.112 -0.9623  0.5769 -1.4204
 4466SOL    HW317631   1.023   4.040   6.221  0.8452  1.7531  0.7398
 4466SOL    MW417632   1.039   4.053   6.136 -0.1009  0.2603  0.2667
 4467SOL     OW17633   4.289   3.701   5.648  0.0833 -0.3072 -0.4931
 4467SOL    HW217634   4.239   3.718   5.728  3.1333  2.1192  1.1215
 4467SOL    HW317635   4.317   3.610   5.656  0.3355 -0.1110  1.2694
 4467SOL    MW417636   4.286   3.691   5.659  0.5190  0.0388 -0.0475
 4468SOL     OW17637   4.454   2.223   4.316  0.5987  0.3485  0.0143
 4468SOL    HW217638   4.521   2.263   4.261  0.0521  1.3327  0.0258
 4468SOL    HW317639   4.372   2.240   4.269  0.4288 -1.6305 -0.4549
 4468SOL    MW417640   4.452   2.231   4.303  0.5041  0.2173 -0.0461
 4469SOL     OW17641   4.883   4.384   0.255  0.4715  0.0988  0.4236
 4469SOL    HW217642   4.935   4.407   0.332 -0.4388  0.5239  0.9186
 4469SOL    HW317643   4.808   4.336   0.289  0.6136 -0.6564 -0.3070
 4469SOL    MW417644   4.880   4.381   0.270  0.3701  0.0552  0.3926
 4470SOL     OW17645   3.035   4.897   5.512 -0.5501 -0.4679 -0.4257
 4470SOL    HW217646   3.043   4.875   5.419 -0.0968 -1.1457 -0.2307
 4470SOL    HW317647   2.940   4.895   5.529 -0.5541 -2.0214 -0.4874
 4470SOL    MW417648   3.023   4.894   5.502 -0.4908 -0.7623 -0.4081
 4471SOL     OW17649   5.524   3.129   4.080 -0.1497  0.3596 -0.0788
 4471SOL    HW217650   5.472   3.064   4.031  0.6542  1.0459 -1.9624
 4471SOL    HW317651   5.587   3.077   4.129  0.6519 -0.3240 -1.7563
 4471SOL    MW417652   5.525   3.114   4.080  0.0621  0.3600 -0.5487
 4472SOL     OW17653   3.268   0.213   2.220 -0.0385 -0.5759 -0.1934
 4472SOL    HW217654   3.223   0.133   2.194 -0.7906 -0.4224  0.6032
 4472SOL    HW317655   3.259   0.217   2.315  0.8411 -0.0444 -0.1156
 4472SOL    MW417656   3.261   0.203   2.229 -0.0217 -0.4855 -0.0781
 4473SOL     OW17657   2.228   1.459   5.531  0.4566  0.0398  0.8893
 4473SOL    HW217658   2.293   1.529   5.531  1.4040 -0.8041 -0.4621
 4473SOL    HW317659   2.187   1.464   5.444  1.3910 -1.8098  0.2921
 4473SOL    MW417660   2.231   1.469   5.519  0.7049 -0.3156  0.6322
 4474SOL     OW17661   3.148   1.382   4.980 -0.4556  1.3512  0.1846
 4474SOL    HW217662   3.055   1.375   5.003 -0.4051  1.2855  0.3714
 4474SOL    HW317663   3.194   1.361   5.061 -0.2886  2.3436  0.3693
 4474SOL    MW417664   3.142   1.378   4.994 -0.4269  1.4735  0.2337
 4475SOL     OW17665   1.976   6.176   4.980  0.1704  0.4114 -0.2052
 4475SOL    HW217666   2.028   6.165   5.060 -1.0179 -2.9366  0.2348
 4475SOL    HW317667   2.032   6.230   4.924  3.2759 -1.2677  1.0115
 4475SOL    MW417668   1.991   6.182   4.983  0.4233 -0.2519  0.0134
 4476SOL     OW17669   1.838   1.235   4.428 -0.0498  0.4366  0.3190
 4476SOL    HW217670   1.867   1.144   4.430  0.1776  0.4233 -1.6888
 4476SOL    HW317671   1.754   1.235   4.472  0.7599 -0.3999  1.9345
 4476SOL    MW417672   1.831   1.223   4.434  0.0871  0.3245  0.2673
 4477SOL     OW17673   5.191   4.206   3.473 -0.4561  0.0370  0.3596
 4477SOL    HW217674   5.179   4.297   3.443 -2.0150 -0.6642 -1.3316
 4477SOL    HW317675   5.107   4.164   3.456  0.5232 -1.9697  0.2354
 4477SOL    MW417676   5.178   4.213   3.467 -0.5326 -0.3203  0.1201
 4478SOL     OW17677   3.428   3.360   2.017  0.1515 -0.1585  0.5219
 4478SOL    HW217678   3.378   3.418   1.959  0.4569 -0.1509  0.2628
 4478SOL    HW317679   3.364   3.294   2.045 -0.2963  0.5254  1.1360
 4478SOL    MW417680   3.413   3.359   2.013  0.1327 -0.0672  0.5687
 4479SOL     OW17681   5.705   5.988   3.654 -0.1255 -0.0955  0.3734
 4479SOL    HW217682   5.761   5.942   3.592  0.6126  1.3357 -0.0696
 4479SOL    HW317683   5.765   6.018   3.723 -0.5832  0.2208  0.6400
 4479SOL    MW417684   5.721   5.986   3.655 -0.0885  0.1351  0.3501
 4480SOL     OW17685   3.148   1.334   6.117 -0.4386  0.3788 -0.0072
 4480SOL    HW217686   3.188   1.249   6.101 -0.7067  0.3453 -0.5461
 4480SOL    HW317687   3.087   1.346   6.043  2.3182  2.7147 -2.1612
 4480SOL    MW417688   3.145   1.324   6.105 -0.1103  0.6825 -0.3625
 4481SOL     OW17689   1.001   2.048   0.565  0.3926 -0.3531 -0.0478
 4481SOL    HW217690   1.001   2.142   0.587 -1.3513 -0.4441  0.4525
 4481SOL    HW317691   1.048   2.044   0.482  0.9986  0.8938  0.2050
 4481SOL    MW417692   1.007   2.060   0.557  0.2424 -0.2006  0.0516
 4482SOL     OW17693   0.805   1.527   1.071  0.3779  0.4329  0.0535
 4482SOL    HW217694   0.862   1.456   1.099  1.1737  1.7553  1.9479
 4482SOL    HW317695   0.826   1.600   1.129 -0.3887  2.2596 -1.8256
 4482SOL    MW417696   0.815   1.528   1.082  0.3817  0.8484  0.0555
 4483SOL     OW17697   4.774   3.288   4.048 -0.0381  0.1078  0.5568
 4483SOL    HW217698   4.731   3.202   4.055 -0.2085  0.2502  1.3540
 4483SOL    HW317699   4.772   3.307   3.954 -1.7736  0.1266  0.5566
 4483SOL    MW417700   4.768   3.279   4.036 -0.2896  0.1291  0.6620
 4484SOL     OW17701   3.818   4.626   3.492 -0.0280  0.7158 -0.5545
 4484SOL    HW217702   3.790   4.707   3.449  0.6510  2.0626  1.3692
 4484SOL    HW317703   3.791   4.638   3.583 -0.4512 -1.5285 -0.3412
 4484SOL    MW417704   3.811   4.639   3.498  0.0057  0.5974 -0.2726
 4485SOL     OW17705   0.860   0.370   0.588 -0.8575  0.1979  1.0341
 4485SOL    HW217706   0.896   0.290   0.627  0.8497  0.0395 -0.7088
 4485SOL    HW317707   0.765   0.361   0.597 -0.6621 -1.5909  1.6735
 4485SOL    MW417708   0.852   0.358   0.595 -0.6065 -0.0590  0.8885
 4486SOL     OW17709   0.269   0.186   3.937 -0.3646  0.0663 -0.1269
 4486SOL    HW217710   0.357   0.216   3.912 -1.3356  0.7923 -3.0161
 4486SOL    HW317711   0.276   0.091   3.937  0.4847  0.1161 -0.0451
 4486SOL    MW417712   0.282   0.178   3.934 -0.3807  0.1686 -0.4973
 4487SOL     OW17713   1.808   0.580   5.598 -0.0748  0.4074 -1.0060
 4487SOL    HW217714   1.873   0.615   5.537  0.4429  0.8802 -0.2004
 4487SOL    HW317715   1.823   0.485   5.597  2.6248  0.6751  1.2847
 4487SOL    MW417716   1.819   0.572   5.590  0.3497  0.5051 -0.5975
 4488SOL     OW17717   1.816   5.449   4.158  0.3072 -0.2952  0.1488
 4488SOL    HW217718   1.800   5.498   4.077  0.0490  0.3755  0.5952
 4488SOL    HW317719   1.895   5.489   4.194  1.3764 -1.6821 -0.5887
 4488SOL    MW417720   1.824   5.461   4.152  0.4142 -0.3897  0.1104
 4489SOL     OW17721   0.681   0.961   5.833  0.3963  0.3501 -0.1031
 4489SOL    HW217722   0.718   0.936   5.748 -0.0528  1.1715 -0.5499
 4489SOL    HW317723   0.594   0.920   5.834 -0.2898  1.7174 -0.7827
 4489SOL    MW417724   0.674   0.952   5.822  0.2465  0.6389 -0.2517
 4490SOL     OW17725   1.272   1.927   3.437  0.3622 -0.0071  0.1678
 4490SOL    HW217726   1.198   1.903   3.382  1.2141 -1.0953 -0.5449
 4490SOL    HW317727   1.251   2.015   3.468 -1.9877 -0.8847  1.3208
 4490SOL    MW417728   1.260   1.935   3.434  0.1645 -0.2664  0.2259
 4491SOL     OW17729   6.129   5.657   3.466  0.1919 -0.1103 -0.2762
 4491SOL    HW217730   6.057   5.594   3.463 -0.6820  0.8382 -0.1747
 4491SOL    HW317731   6.153   5.670   3.374  0.3708 -0.5904 -0.2956
 4491SOL    MW417732   6.122   5.651   3.453  0.1002 -0.0485 -0.2653
 4492SOL     OW17733   5.245   1.478   2.771  0.3537  0.1831  0.5780
 4492SOL    HW217734   5.255   1.485   2.676 -1.5069 -1.5305  0.1802
 4492SOL    HW317735   5.201   1.560   2.796 -0.2358  0.1275 -0.2386
 4492SOL    MW417736   5.240   1.490   2.762  0.0305 -0.0504  0.4178
 4493SOL     OW17737   1.159   5.263   6.295 -0.6573 -0.1972  0.6753
 4493SOL    HW217738   1.115   5.331   6.244 -0.0626 -0.3147 -0.0044
 4493SOL    HW317739   1.226   5.227   6.236 -0.7806 -1.1869  1.1134
 4493SOL    MW417740   1.162   5.267   6.280 -0.5951 -0.3433  0.6434
 4494SOL     OW17741   4.892   4.084   1.254  0.3000 -0.6860  0.1444
 4494SOL    HW217742   4.809   4.130   1.249  0.7048 -0.0417 -1.1372
 4494SOL    HW317743   4.868   3.992   1.264 -0.5406 -0.4073  0.7633
 4494SOL    MW417744   4.878   4.078   1.254  0.2425 -0.5642  0.0570
 4495SOL     OW17745   6.217   2.536   0.971 -0.2029 -0.4727  0.1068
 4495SOL    HW217746   6.301   2.537   0.927 -0.6066  0.1621 -0.6602
 4495SOL    HW317747   6.231   2.480   1.048  0.8782 -0.4564 -0.0678
 4495SOL    MW417748   6.230   2.529   0.976 -0.1136 -0.3868 -0.0175
 4496SOL     OW17749   4.450   2.424   5.539  0.4277 -0.0159  0.1950
 4496SOL    HW217750   4.506   2.454   5.467  0.6459 -0.1568  0.3038
 4496SOL    HW317751   4.505   2.430   5.617 -0.1522  1.1729  0.5309
 4496SOL    MW417752   4.464   2.429   5.540  0.3800  0.1224  0.2537
 4497SOL     OW17753   4.251   4.531   0.229  0.7777 -0.0229  0.1234
 4497SOL    HW217754   4.347   4.530   0.233  0.7624 -1.5124  0.7272
 4497SOL    HW317755   4.231   4.554   0.138  1.6799  1.0332  0.1701
 4497SOL    MW417756   4.261   4.534   0.217  0.8947 -0.0801  0.2092
 4498SOL     OW17757   4.512   4.205   2.689  0.9362  0.7836  0.0382
 4498SOL    HW217758   4.510   4.260   2.611 -2.1251 -1.3158 -1.5382
 4498SOL    HW317759   4.487   4.264   2.760 -0.5523  1.8472 -1.3050
 4498SOL    MW417760   4.508   4.220   2.688  0.3359  0.6469 -0.3470
 4499SOL     OW17761   5.817   2.818   2.653  0.2966 -0.4159  0.0212
 4499SOL    HW217762   5.822   2.733   2.611 -1.7557 -0.1235 -0.9205
 4499SOL    HW317763   5.844   2.880   2.585 -0.7846 -0.1193 -0.1501
 4499SOL    MW417764   5.822   2.815   2.639 -0.1168 -0.3382 -0.1256
 4500SOL     OW17765   5.466   5.040   3.566 -0.0099 -0.5020  0.5184
 4500SOL    HW217766   5.550   5.053   3.521  0.1817  1.2001  1.2744
 4500SOL    HW317767   5.402   5.036   3.495  0.4883  0.3809 -0.0032
 4500SOL    MW417768   5.469   5.041   3.550  0.0811 -0.1609  0.5493
 4501SOL     OW17769   6.353   5.170   3.267 -0.4479 -0.3136 -0.4370
 4501SOL    HW217770   6.417   5.241   3.277 -0.2985 -0.7464  2.4954
 4501SOL    HW317771   6.268   5.214   3.276 -0.3396 -0.5114  2.3178
 4501SOL    MW417772   6.350   5.185   3.269 -0.4139 -0.3968  0.3133
 4502SOL     OW17773   1.107   2.053   1.982  0.6433  0.3838  0.2565
 4502SOL    HW217774   1.185   2.040   2.035  1.5823  1.8751 -0.7030
 4502SOL    HW317775   1.034   2.036   2.042  1.6875 -0.2064  1.3890
 4502SOL    MW417776   1.107   2.049   1.997  0.9050  0.5027  0.2793
 4503SOL     OW17777   0.453   5.364   2.883 -0.1435 -0.0118  0.0925
 4503SOL    HW217778   0.428   5.440   2.830 -0.1673  0.9967  1.4903
 4503SOL    HW317779   0.542   5.344   2.856  0.2514  1.1961  0.4511
 4503SOL    MW417780   0.461   5.372   2.872 -0.0946  0.2806  0.3242
 4504SOL     OW17781   5.899   1.947   0.631 -0.3992 -0.4852  0.3770
 4504SOL    HW217782   5.909   1.864   0.676  0.6059 -0.7001 -0.1982
 4504SOL    HW317783   5.839   1.929   0.558  0.0365 -0.7811  0.0885
 4504SOL    MW417784   5.892   1.934   0.627 -0.2091 -0.5526  0.2630
 4505SOL     OW17785   5.176   4.109   0.611 -0.1859 -0.6415 -0.2777
 4505SOL    HW217786   5.200   4.061   0.691 -1.5424 -0.4460  0.2644
 4505SOL    HW317787   5.224   4.064   0.541  2.8533  0.5204  0.8537
 4505SOL    MW417788   5.186   4.097   0.612  0.0361 -0.4624 -0.0569
 4506SOL     OW17789   4.775   4.473   3.971  0.4848  0.4873  0.0757
 4506SOL    HW217790   4.832   4.456   3.897  0.7290  0.4360  0.2753
 4506SOL    HW317791   4.732   4.389   3.987  0.2335  0.5662 -0.1741
 4506SOL    MW417792   4.777   4.460   3.963  0.4838  0.4910  0.0690
 4507SOL     OW17793   3.776   1.151   1.054  0.3450 -0.6003  0.3294
 4507SOL    HW217794   3.685   1.122   1.062  0.0525 -0.0534 -0.7987
 4507SOL    HW317795   3.770   1.240   1.021  1.2753  0.2273  2.2508
 4507SOL    MW417796   3.763   1.159   1.051  0.4291 -0.4189  0.4340
 4508SOL     OW17797   2.026   1.541   6.066 -0.1390 -0.0667  0.0007
 4508SOL    HW217798   1.994   1.592   6.140  0.6456  0.0550  0.2655
 4508SOL    HW317799   2.119   1.563   6.060  0.4956 -2.3111  0.8138
 4508SOL    MW417800   2.034   1.551   6.075  0.0483 -0.3468  0.1429
 4509SOL     OW17801   2.964   2.650   5.351 -0.2414  0.0219  0.1518
 4509SOL    HW217802   2.940   2.609   5.268 -1.0728  0.7246  0.0240
 4509SOL    HW317803   3.015   2.727   5.326  0.6678 -0.5066  0.3556
 4509SOL    MW417804   2.967   2.655   5.337 -0.2312  0.0449  0.1618
 4510SOL     OW17805   3.702   2.420   4.420  0.1802  0.0856  0.2066
 4510SOL    HW217806   3.649   2.498   4.430 -0.3403 -0.0682 -1.2059
 4510SOL    HW317807   3.675   2.382   4.336  1.5797 -0.7165  0.0828
 4510SOL    MW417808   3.691   2.425   4.410  0.2962 -0.0405  0.0039
 4511SOL     OW17809   4.693   2.471   2.639  0.3013  0.2406 -0.0663
 4511SOL    HW217810   4.756   2.423   2.585  0.8243  0.8445 -0.0087
 4511SOL    HW317811   4.741   2.547   2.670  0.1674 -0.3411  1.6826
 4511SOL    MW417812   4.708   2.475   2.636  0.3527  0.2435  0.1720
 4512SOL     OW17813   1.892   2.906   3.448  0.0452  0.7911 -0.6124
 4512SOL    HW217814   1.950   2.963   3.397 -0.3469  1.9905  0.2406
 4512SOL    HW317815   1.807   2.914   3.404 -0.2139  1.5680  0.0012
 4512SOL    MW417816   1.889   2.915   3.435 -0.0407  1.0518 -0.4189
 4513SOL     OW17817   2.191   5.814   2.480  0.4098  0.0413 -0.5488
 4513SOL    HW217818   2.265   5.796   2.423  1.3170  2.5817 -0.3164
 4513SOL    HW317819   2.205   5.758   2.557  1.1288 -0.7629 -1.2488
 4513SOL    MW417820   2.202   5.804   2.483  0.6244  0.2704 -0.6105
 4514SOL     OW17821   5.267   5.038   2.253  0.0568  0.6882 -0.2718
 4514SOL    HW217822   5.301   5.078   2.333 -0.2246  0.7851 -0.2014
 4514SOL    HW317823   5.308   4.952   2.250  0.4465  0.8673 -0.2755
 4514SOL    MW417824   5.277   5.032   2.263  0.0711  0.7246 -0.2630
 4515SOL     OW17825   5.809   3.310   3.726 -0.3757  0.4069  0.6425
 4515SOL    HW217826   5.718   3.288   3.704 -0.1853  0.5676 -0.3427
 4515SOL    HW317827   5.809   3.319   3.821 -1.1638 -0.6346  0.7609
 4515SOL    MW417828   5.797   3.308   3.735 -0.4546  0.2907  0.5282
 4516SOL     OW17829   5.030   0.961   4.629  0.1765  0.0561  0.5481
 4516SOL    HW217830   5.067   1.049   4.630 -1.1741  0.7187 -1.4170
 4516SOL    HW317831   5.095   0.908   4.582  0.5110  0.2415  0.7998
 4516SOL    MW417832   5.043   0.965   4.623  0.0425  0.1680  0.3221
 4517SOL     OW17833   5.015   4.329   0.488 -0.4509  0.0169 -0.2452
 4517SOL    HW217834   5.066   4.266   0.539 -0.8585  0.5919  0.9191
 4517SOL    HW317835   4.925   4.319   0.521 -0.1868  2.7186  1.6577
 4517SOL    MW417836   5.010   4.320   0.499 -0.4698  0.4492  0.1595
 4518SOL     OW17837   0.438   3.401   1.112 -0.6825  0.8121 -0.1138
 4518SOL    HW217838   0.533   3.401   1.097 -0.6201  1.6662  0.2287
 4518SOL    HW317839   0.402   3.357   1.035  0.1843 -2.7249  1.3204
 4518SOL    MW417840   0.446   3.395   1.100 -0.5599  0.4581  0.1206
 4519SOL     OW17841   5.753   2.247   1.809 -1.0017 -0.4085  0.5064
 4519SOL    HW217842   5.758   2.187   1.735 -1.5377 -0.0345  0.1525
 4519SOL    HW317843   5.844   2.264   1.833 -0.8357 -0.8412  0.1830
 4519SOL    MW417844   5.766   2.242   1.803 -1.0505 -0.4163  0.4170
 4520SOL     OW17845   2.738   3.489   2.711 -0.2362 -0.1979 -0.0716
 4520SOL    HW217846   2.725   3.569   2.762 -0.5631 -0.2173 -0.1173
 4520SOL    HW317847   2.811   3.509   2.653  0.5574 -0.3928  0.8367
 4520SOL    MW417848   2.746   3.502   2.710 -0.1746 -0.2262  0.0422
 4521SOL     OW17849   5.322   5.450   2.349 -0.6016  0.2930 -0.0796
 4521SOL    HW217850   5.265   5.467   2.273  0.0278  3.7815  0.0355
 4521SOL    HW317851   5.281   5.500   2.420  0.5841 -0.2338  0.9937
 4521SOL    MW417852   5.309   5.459   2.348 -0.3621  0.6838  0.0772
 4522SOL     OW17853   0.508   0.267   3.831 -0.0619  0.1894 -0.2425
 4522SOL    HW217854   0.590   0.298   3.870  0.5852 -1.0222 -0.5990
 4522SOL    HW317855   0.529   0.254   3.739 -0.6757 -0.0996 -0.3458
 4522SOL    MW417856   0.522   0.270   3.824 -0.0575 -0.0086 -0.3031
 4523SOL     OW17857   5.566   5.922   1.484 -0.2523  0.0057  0.1250
 4523SOL    HW217858   5.639   5.935   1.424 -0.2146 -1.2314 -0.1140
 4523SOL    HW317859   5.607   5.901   1.568 -0.3080  1.6032  0.5865
 4523SOL    MW417860   5.581   5.921   1.487 -0.2547  0.0533  0.1544
 4524SOL     OW17861   3.649   0.250   0.167 -0.0382 -0.3605 -0.0509
 4524SOL    HW217862   3.660   0.219   0.257  0.0508  0.0852  0.0903
 4524SOL    HW317863   3.662   0.344   0.171 -0.5385 -0.2679 -0.4515
 4524SOL    MW417864   3.652   0.258   0.179 -0.0925 -0.2895 -0.0851
 4525SOL     OW17865   3.500   4.090   0.236  0.1073  0.1736 -0.0078
 4525SOL    HW217866   3.548   4.139   0.169 -0.1683  1.2184  0.5563
 4525SOL    HW317867   3.504   4.145   0.314 -2.0783  0.3306  0.0410
 4525SOL    MW417868   3.507   4.103   0.237 -0.2175  0.3321  0.0730
 4526SOL     OW17869   4.513   5.652   3.549  0.6452  0.1153 -0.1182
 4526SOL    HW217870   4.470   5.619   3.470 -0.3948 -0.1815  0.5538
 4526SOL    HW317871   4.606   5.633   3.534  0.3917 -0.5453 -0.9818
 4526SOL    MW417872   4.520   5.645   3.536  0.4745 -0.0111 -0.1435
 4527SOL     OW17873   5.264   5.311   5.585  0.2564 -0.2731 -0.2473
 4527SOL    HW217874   5.350   5.311   5.626  1.5450  0.0463 -2.7335
 4527SOL    HW317875   5.249   5.403   5.562 -0.7690 -0.3254  0.1636
 4527SOL    MW417876   5.273   5.323   5.587  0.2911 -0.2379 -0.5211
 4528SOL     OW17877   3.387   5.956   3.069  0.1381  0.2811  0.4097
 4528SOL    HW217878   3.471   5.999   3.079  0.4679  0.0865 -1.2905
 4528SOL    HW317879   3.355   5.984   2.983 -0.7086 -1.0067  0.2697
 4528SOL    MW417880   3.394   5.965   3.059  0.0699  0.0855  0.1669
 4529SOL     OW17881   4.369   0.417   4.070  0.3267 -0.2649 -0.1701
 4529SOL    HW217882   4.297   0.415   4.008 -0.4383 -1.8276  0.6977
 4529SOL    HW317883   4.338   0.473   4.142 -0.6341 -1.9619  0.8170
 4529SOL    MW417884   4.355   0.424   4.072  0.0990 -0.6950  0.0746
 4530SOL     OW17885   1.372   2.618   3.226  0.6310  0.5806  0.1831
 4530SOL    HW217886   1.449   2.623   3.282 -0.6828 -0.5999  2.2046
 4530SOL    HW317887   1.358   2.524   3.213 -0.3416  0.7937 -0.3685
 4530SOL    MW417888   1.381   2.606   3.231  0.3293  0.4530  0.3771
 4531SOL     OW17889   2.087   4.371   4.512 -0.6239 -0.1846  0.6417
 4531SOL    HW217890   1.995   4.352   4.494 -1.0525  1.0148  1.4270
 4531SOL    HW317891   2.090   4.387   4.606  0.1084  1.1727  0.4153
 4531SOL    MW417892   2.075   4.371   4.522 -0.5838  0.1527  0.7154
 4532SOL     OW17893   1.101   2.021   3.796  0.6765 -1.0140 -0.8091
 4532SOL    HW217894   1.148   2.102   3.776 -0.7086  0.6305  1.9801
 4532SOL    HW317895   1.122   2.004   3.888 -1.8358 -1.8130 -0.3168
 4532SOL    MW417896   1.110   2.030   3.805  0.1623 -0.9025 -0.3761
 4533SOL     OW17897   4.529   4.814   5.354 -0.2947  0.1684  0.6386
 4533SOL    HW217898   4.580   4.861   5.288 -0.2939 -1.0040 -0.2161
 4533SOL    HW317899   4.442   4.807   5.316 -0.5267  0.2345  1.1466
 4533SOL    MW417900   4.524   4.819   5.340 -0.3252  0.0225  0.5928
 4534SOL     OW17901   3.006   4.337   5.128  0.3777 -0.1705  0.2693
 4534SOL    HW217902   3.044   4.297   5.050 -0.6760 -1.4409  0.3804
 4534SOL    HW317903   2.948   4.405   5.094  0.5585 -0.1529 -0.0087
 4534SOL    MW417904   3.004   4.341   5.113  0.2625 -0.3358  0.2473
 4535SOL     OW17905   5.704   4.931   2.100  0.9575  0.4349 -0.4655
 4535SOL    HW217906   5.661   5.012   2.072 -1.0547 -0.3297  0.1921
 4535SOL    HW317907   5.794   4.956   2.119  0.1962  2.6961  0.4321
 4535SOL    MW417908   5.710   4.945   2.099  0.5916  0.6324 -0.2603
 4536SOL     OW17909   2.668   2.512   3.382  0.1404 -0.0001  0.2616
 4536SOL    HW217910   2.592   2.569   3.387 -0.8839 -1.3665  0.6937
 4536SOL    HW317911   2.704   2.512   3.471  0.2515  0.1067  0.2176
 4536SOL    MW417912   2.663   2.520   3.395  0.0199 -0.1663  0.3128
 4537SOL     OW17913   4.791   1.645   5.799  0.1696 -0.2006 -0.5170
 4537SOL    HW217914   4.728   1.681   5.861  0.9889  1.7983 -0.7598
 4537SOL    HW317915   4.746   1.648   5.714  0.0731 -0.1583 -0.4642
 4537SOL    MW417916   4.777   1.650   5.796  0.2650  0.0687 -0.5421
 4538SOL     OW17917   6.240   5.799   3.211 -0.5188  0.4656 -0.1868
 4538SOL    HW217918   6.257   5.737   3.140  2.6919  0.1502  0.6970
 4538SOL    HW317919   6.175   5.859   3.175 -0.6237 -0.9530 -2.5900
 4538SOL    MW417920   6.234   5.799   3.197 -0.1090  0.2368 -0.3873
 4539SOL     OW17921   0.659   3.066   0.928  0.2702 -0.0212  0.0658
 4539SOL    HW217922   0.598   3.087   0.999  1.1394  0.2753  0.7403
 4539SOL    HW317923   0.604   3.065   0.849 -0.7911 -0.7650  0.7808
 4539SOL    MW417924   0.644   3.069   0.927  0.2448 -0.0803  0.2491
 4540SOL     OW17925   1.297   3.695   2.227  0.2248  0.0710  0.2572
 4540SOL    HW217926   1.293   3.600   2.222 -1.4949  0.1533 -1.3528
 4540SOL    HW317927   1.207   3.721   2.248  0.4994  1.3486 -0.0568
 4540SOL    MW417928   1.284   3.686   2.229  0.0342  0.2504  0.0034
 4541SOL     OW17929   5.882   5.468   2.443  0.2515 -0.3449 -0.1720
 4541SOL    HW217930   5.956   5.528   2.433  1.5162 -1.6400  1.0187
 4541SOL    HW317931   5.826   5.509   2.509  1.1992 -0.5282  0.7712
 4541SOL    MW417932   5.885   5.481   2.450  0.5434 -0.5399  0.1095
 4542SOL     OW17933   0.183   6.070   3.279  0.5847 -0.3984  0.2513
 4542SOL    HW217934   0.193   6.128   3.203 -2.0710 -1.5556 -1.1407
 4542SOL    HW317935   0.185   6.129   3.354 -1.0607  1.4337 -1.0289
 4542SOL    MW417936   0.185   6.085   3.279  0.0172 -0.3094 -0.1013
 4543SOL     OW17937   1.830   6.079   5.552  0.3486  0.4423  0.0353
 4543SOL    HW217938   1.811   6.113   5.465  1.6853  0.7485 -0.1556
 4543SOL    HW317939   1.856   5.988   5.537  2.0026  0.9068 -0.0790
 4543SOL    MW417940   1.831   6.072   5.539  0.7432  0.5440 -0.0049
 4544SOL     OW17941   4.283   6.200   0.297  0.0334  0.1397  0.2356
 4544SOL    HW217942   4.196   6.162   0.284  0.6623 -1.8690  1.4075
 4544SOL    HW317943   4.292   6.266   0.228 -2.4106  0.4232  0.1114
 4544SOL    MW417944   4.273   6.204   0.286 -0.2061 -0.0879  0.3738
 4545SOL     OW17945   5.938   2.665   5.396 -0.1061 -0.5112 -0.2899
 4545SOL    HW217946   5.921   2.627   5.482 -1.9040 -0.0252 -0.3760
 4545SOL    HW317947   6.026   2.637   5.373  0.3322 -0.7792  1.6369
 4545SOL    MW417948   5.947   2.656   5.404 -0.2855 -0.4824 -0.0470
 4546SOL     OW17949   1.514   2.510   2.528 -0.5330 -0.3998  0.3287
 4546SOL    HW217950   1.475   2.597   2.533  1.6143  0.6257  0.5248
 4546SOL    HW317951   1.486   2.467   2.609  0.0631  0.9083  1.2693
 4546SOL    MW417952   1.505   2.515   2.540 -0.1711 -0.0919  0.4786
 4547SOL     OW17953   4.634   5.125   0.907  0.2197  0.4615  0.1993
 4547SOL    HW217954   4.563   5.139   0.843  0.1132  0.6449  0.3561
 4547SOL    HW317955   4.609   5.179   0.982  0.8042  0.9699  0.0371
 4547SOL    MW417956   4.622   5.134   0.908  0.2828  0.5528  0.1986
 4548SOL     OW17957   5.272   0.813   3.844 -0.0324  0.2299  0.2989
 4548SOL    HW217958   5.291   0.776   3.757 -0.1867 -2.3145  1.2429
 4548SOL    HW317959   5.348   0.788   3.897 -0.0184  1.5981  0.9570
 4548SOL    MW417960   5.285   0.805   3.840 -0.0509  0.0747  0.5103
 4549SOL     OW17961   4.288   2.921   2.461  0.1313  0.2835  0.0537
 4549SOL    HW217962   4.221   2.978   2.423 -0.0443 -0.0922 -0.2205
 4549SOL    HW317963   4.334   2.975   2.524 -0.3537  0.5843  0.1541
 4549SOL    MW417964   4.285   2.935   2.464  0.0441  0.2736  0.0307
 4550SOL     OW17965   2.997   0.916   5.506  0.1046 -0.0760  0.0371
 4550SOL    HW217966   2.909   0.879   5.513  0.1489 -0.1487  0.2062
 4550SOL    HW317967   2.991   1.000   5.552  0.0938 -0.0267 -0.0529
 4550SOL    MW417968   2.985   0.922   5.513  0.1090 -0.0791  0.0476
 4551SOL     OW17969   2.672   5.090   0.446  0.2459 -0.1661 -0.0746
 4551SOL    HW217970   2.601   5.137   0.490  0.2151  0.2663 -0.5820
 4551SOL    HW317971   2.751   5.138   0.469  0.4445 -0.9091  0.8607
 4551SOL    MW417972   2.673   5.102   0.455  0.2681 -0.2071 -0.0181
 4552SOL     OW17973   4.998   3.444   1.848  0.0606 -0.1560 -0.0722
 4552SOL    HW217974   4.909   3.476   1.833 -0.4527 -1.6765 -0.3671
 4552SOL    HW317975   5.031   3.420   1.761  0.2502 -0.8766  0.1912
 4552SOL    MW417976   4.991   3.445   1.835  0.0179 -0.4517 -0.0763
 4553SOL     OW17977   3.941   2.982   0.648 -0.0643 -0.4125  0.3606
 4553SOL    HW217978   3.873   2.940   0.700 -2.0953  1.8402 -0.2840
 4553SOL    HW317979   3.987   3.038   0.711 -1.6256  1.2634  0.0879
 4553SOL    MW417980   3.938   2.984   0.664 -0.5383  0.1058  0.2396
 4554SOL     OW17981   4.052   4.303   5.906 -0.0628  0.0987 -0.4955
 4554SOL    HW217982   4.001   4.223   5.917  0.0751 -0.0216 -0.7277
 4554SOL    HW317983   4.139   4.272   5.879  0.9293  0.1162  2.2652
 4554SOL    MW417984   4.057   4.288   5.904  0.0863  0.0851 -0.1619
 4555SOL     OW17985   0.462   1.293   6.021 -0.3403  0.1212 -0.6616
 4555SOL    HW217986   0.494   1.306   6.110  0.1804  0.3073 -0.8727
 4555SOL    HW317987   0.414   1.374   6.001  3.2192  2.1261 -2.1134
 4555SOL    MW417988   0.460   1.305   6.030  0.1980  0.4103 -0.8810
 4556SOL     OW17989   0.025   0.765   1.907 -0.0096 -0.1339 -0.0181
 4556SOL    HW217990  -0.061   0.790   1.873 -0.9350  0.6038  2.6009
 4556SOL    HW317991   0.010   0.681   1.949  0.4527  0.1215  0.6750
 4556SOL    MW417992   0.011   0.757   1.908 -0.0707 -0.0029  0.4189
 4557SOL     OW17993   4.164   3.019   5.165  0.2411  0.2329  0.6366
 4557SOL    HW217994   4.096   3.064   5.115  0.3614 -1.4517 -1.1532
 4557SOL    HW317995   4.130   2.931   5.178  0.1127  0.6614  3.8411
 4557SOL    MW417996   4.151   3.013   5.160  0.2400  0.0672  0.8233
 4558SOL     OW17997   0.077   5.266   0.404 -0.3415 -0.2791 -0.4214
 4558SOL    HW217998   0.108   5.354   0.428 -0.4105  0.0666 -1.5296
 4558SOL    HW317999   0.134   5.239   0.332 -2.1132  0.0920 -2.0565
 4558SOL    MW418000   0.089   5.274   0.397 -0.5844 -0.1845 -0.7833
 4559SOL     OW18001   2.071   0.562   5.996 -0.2182  0.1870 -0.0503
 4559SOL    HW218002   2.101   0.487   5.945 -0.2457  1.4704 -2.0680
 4559SOL    HW318003   2.121   0.636   5.961 -1.4946  1.4091  0.6068
 4559SOL    MW418004   2.082   0.562   5.985 -0.3902  0.5176 -0.2298
 4560SOL     OW18005   0.630   0.974   1.812  0.0987 -0.3971  0.8021
 4560SOL    HW218006   0.576   1.050   1.833  2.3763  1.8211 -0.7603
 4560SOL    HW318007   0.584   0.932   1.738 -1.1362 -0.5630  1.6264
 4560SOL    MW418008   0.617   0.979   1.805  0.2363 -0.1263  0.7048
 4561SOL     OW18009   5.730   4.592   0.609  0.3130  0.2185  0.3063
 4561SOL    HW218010   5.642   4.557   0.600  0.0713  1.2687 -2.8043
 4561SOL    HW318011   5.786   4.529   0.563  0.7743  0.7738  0.0756
 4561SOL    MW418012   5.726   4.579   0.602  0.3420  0.4303 -0.1346
 4562SOL     OW18013   2.968   1.679   4.408 -0.4342 -0.5345 -0.4973
 4562SOL    HW218014   2.995   1.632   4.487  0.9647 -1.0670 -1.2558
 4562SOL    HW318015   3.043   1.672   4.349 -1.3709  0.0311 -1.8066
 4562SOL    MW418016   2.982   1.672   4.411 -0.3732 -0.5301 -0.7702
 4563SOL     OW18017   3.862   3.507   1.265 -0.6241  0.0384 -0.2293
 4563SOL    HW218018   3.830   3.594   1.287 -0.7758 -0.3788  1.3477
 4563SOL    HW318019   3.785   3.451   1.270 -0.2417 -0.4510  0.4787
 4563SOL    MW418020   3.848   3.511   1.268 -0.5937 -0.0812  0.0722
 4564SOL     OW18021   5.475   3.931   4.208 -0.6199  0.0968 -0.1218
 4564SOL    HW218022   5.455   3.979   4.288  0.1659  2.3384 -1.2041
 4564SOL    HW318023   5.403   3.868   4.200 -2.4588  1.9578  0.7160
 4564SOL    MW418024   5.463   3.929   4.217 -0.7589  0.6381 -0.1541
 4565SOL     OW18025   4.543   3.974   2.211 -0.6109 -1.3776  0.2370
 4565SOL    HW218026   4.508   3.987   2.122 -0.4729 -0.9325  0.2465
 4565SOL    HW318027   4.516   3.885   2.234  1.7170 -2.5958 -1.3245
 4565SOL    MW418028   4.535   3.964   2.202 -0.2856 -1.4796  0.0322
 4566SOL     OW18029   5.935   2.164   3.321  0.6368  0.3346  0.0109
 4566SOL    HW218030   5.958   2.169   3.228  0.7130 -1.0017 -0.0642
 4566SOL    HW318031   5.843   2.138   3.322  0.9056 -0.6535  0.2892
 4566SOL    MW418032   5.926   2.161   3.309  0.6823  0.0279  0.0377
 4567SOL     OW18033   0.093   0.337   1.652  0.1207 -0.2718 -0.1013
 4567SOL    HW218034   0.128   0.420   1.685 -0.1708  0.2800 -1.1268
 4567SOL    HW318035  -0.001   0.344   1.664 -0.2496  0.8766 -2.9273
 4567SOL    MW418036   0.085   0.349   1.658  0.0334 -0.0475 -0.6094
 4568SOL     OW18037   3.196   1.926   0.472  0.3254  0.0676 -0.1207
 4568SOL    HW218038   3.114   1.968   0.499  0.2084  0.0513 -0.4509
 4568SOL    HW318039   3.228   1.979   0.400  1.4610  1.0447  1.0658
 4568SOL    MW418040   3.190   1.938   0.466  0.4597  0.1944 -0.0077
 4569SOL     OW18041   2.699   2.383   2.893  0.4044  0.3856  0.7726
 4569SOL    HW218042   2.741   2.413   2.973 -1.1017  1.1369  1.3230
 4569SOL    HW318043   2.659   2.461   2.855 -1.2739 -0.4070  0.7887
 4569SOL    MW418044   2.699   2.397   2.899 -0.0157  0.3801  0.8473
 4570SOL     OW18045   1.773   1.675   5.386  0.0168 -0.8295  0.2552
 4570SOL    HW218046   1.816   1.724   5.457 -2.6378  0.2420  1.2503
 4570SOL    HW318047   1.768   1.585   5.418  0.4156 -0.7237  0.6278
 4570SOL    MW418048   1.778   1.670   5.399 -0.2808 -0.6742  0.4356
 4571SOL     OW18049   1.134   1.737   0.828 -0.2074  0.0743 -0.4172
 4571SOL    HW218050   1.183   1.801   0.880 -0.0087 -1.3675  1.3096
 4571SOL    HW318051   1.189   1.659   0.830 -0.6035 -0.2794 -2.1642
 4571SOL    MW418052   1.148   1.735   0.835 -0.2335 -0.1626 -0.4199
 4572SOL     OW18053   4.374   4.327   2.436 -0.3994  0.7235 -0.4934
 4572SOL    HW218054   4.304   4.384   2.403 -0.5402 -0.3796 -2.1984
 4572SOL    HW318055   4.352   4.240   2.402  0.5280 -0.1133  0.9500
 4572SOL    MW418056   4.362   4.323   2.427 -0.2957  0.4676 -0.5279
 4573SOL     OW18057   4.824   5.472   3.800  0.1138  0.4377 -0.1965
 4573SOL    HW218058   4.804   5.398   3.858 -1.7015  0.7720 -0.3433
 4573SOL    HW318059   4.800   5.549   3.851  0.3517  0.8295 -0.6766
 4573SOL    MW418060   4.818   5.472   3.815 -0.0943  0.5335 -0.2792
 4574SOL     OW18061   2.531   5.838   3.504 -0.7604 -0.3175  0.1188
 4574SOL    HW218062   2.510   5.788   3.583 -0.3686 -1.9640 -0.7857
 4574SOL    HW318063   2.590   5.782   3.454  1.3135  1.8658 -0.0643
 4574SOL    MW418064   2.536   5.824   3.508 -0.4351 -0.2467 -0.0247
 4575SOL     OW18065   3.203   6.043   1.126  0.2999 -0.1772 -0.2197
 4575SOL    HW218066   3.156   6.080   1.200  0.7408 -0.1909  0.0766
 4575SOL    HW318067   3.160   5.960   1.109 -0.8016  0.5288 -0.9966
 4575SOL    MW418068   3.191   6.037   1.133  0.2127 -0.0859 -0.2831
 4576SOL     OW18069   1.774   0.529   3.559 -0.2059 -0.6312 -0.1117
 4576SOL    HW218070   1.680   0.540   3.569 -0.2708 -1.7567  0.8532
 4576SOL    HW318071   1.811   0.612   3.589 -0.8853 -0.0551 -0.8208
 4576SOL    MW418072   1.767   0.542   3.565 -0.3041 -0.7037 -0.0780
 4577SOL     OW18073   0.774   0.136   5.664 -0.6453  0.7469  0.1512
 4577SOL    HW218074   0.745   0.045   5.668 -1.5648  1.0392  0.2997
 4577SOL    HW318075   0.781   0.155   5.570  0.4962  0.2399  0.1196
 4577SOL    MW418076   0.771   0.126   5.652 -0.6160  0.7186  0.1666
 4578SOL     OW18077   0.743   6.274   2.784  0.5186 -0.5542  0.5787
 4578SOL    HW218078   0.801   6.349   2.799  1.7136 -1.2796 -0.1815
 4578SOL    HW318079   0.737   6.268   2.688 -0.5800 -0.6877  0.6501
 4578SOL    MW418080   0.750   6.283   2.773  0.5314 -0.6675  0.4878
 4579SOL     OW18081   0.596   1.364   1.711  0.2825 -0.0277  0.3149
 4579SOL    HW218082   0.639   1.432   1.660  1.4144 -1.0301 -0.1029
 4579SOL    HW318083   0.639   1.282   1.686 -1.4464 -1.0165  0.3479
 4579SOL    MW418084   0.607   1.362   1.701  0.2037 -0.2904  0.2641
 4580SOL     OW18085   5.624   4.957   0.812  0.1486  0.2773 -0.0151
 4580SOL    HW218086   5.539   4.969   0.854  0.0799 -2.2593  0.7064
 4580SOL    HW318087   5.682   5.018   0.858 -0.5164 -0.5354  1.9815
 4580SOL    MW418088   5.621   4.967   0.824  0.0518 -0.1646  0.3435
 4581SOL     OW18089   2.857   6.067   3.286  1.0845  0.3307  0.1225
 4581SOL    HW218090   2.766   6.096   3.290  0.8515  0.2433 -2.7151
 4581SOL    HW318091   2.905   6.144   3.255  2.2104  0.6442  2.3924
 4581SOL    MW418092   2.851   6.081   3.283  1.2023  0.3605  0.0476
 4582SOL     OW18093   2.452   6.360   6.029  0.0395  0.0516  0.1132
 4582SOL    HW218094   2.416   6.287   5.979 -0.0139 -0.4351  0.8437
 4582SOL    HW318095   2.509   6.319   6.094  0.8900  0.7285 -0.1753
 4582SOL    MW418096   2.455   6.345   6.031  0.1447  0.0767  0.1715
 4583SOL     OW18097   2.609   1.063   3.841 -0.3725 -0.1016  0.1880
 4583SOL    HW218098   2.651   1.002   3.781 -0.0978  0.8448 -0.6064
 4583SOL    HW318099   2.620   1.149   3.800 -0.7118  0.4958  1.2933
 4583SOL    MW418100   2.616   1.066   3.828 -0.3810  0.1021  0.2290
 4584SOL     OW18101   3.026   3.258   4.522 -0.6777 -0.3307  0.5250
 4584SOL    HW218102   3.057   3.348   4.524 -0.7650 -0.2827 -0.1072
 4584SOL    HW318103   3.033   3.228   4.613  0.1491  0.0350  0.5931
 4584SOL    MW418104   3.031   3.266   4.534 -0.5801 -0.2761  0.4506
 4585SOL     OW18105   2.227   2.968   2.891 -0.2210  0.2769  0.2821
 4585SOL    HW218106   2.183   2.890   2.860 -0.4393  0.4585  0.1395
 4585SOL    HW318107   2.161   3.037   2.886  0.0668  0.5406  0.0984
 4585SOL    MW418108   2.213   2.967   2.887 -0.2118  0.3357  0.2391
 4586SOL     OW18109   4.783   0.613   0.066 -0.6762  0.1943 -0.6282
 4586SOL    HW218110   4.835   0.693   0.062  0.0023 -0.2058 -0.0949
 4586SOL    HW318111   4.720   0.621  -0.006 -0.2928  0.9813 -0.8823
 4586SOL    MW418112   4.782   0.624   0.056 -0.5361  0.2453 -0.5914
 4587SOL     OW18113   1.076   4.214   5.364 -0.6342  0.0079 -0.2058
 4587SOL    HW218114   0.988   4.216   5.324 -0.2945  0.5000 -0.9460
 4587SOL    HW318115   1.090   4.122   5.385 -0.2048 -0.5703 -2.6880
 4587SOL    MW418116   1.066   4.202   5.361 -0.5327 -0.0035 -0.6309
 4588SOL     OW18117   6.017   2.309   3.551  0.0303 -0.0108  0.2190
 4588SOL    HW218118   5.960   2.314   3.628 -0.2780 -1.3972  0.1006
 4588SOL    HW318119   5.964   2.268   3.483  0.5844  0.3827 -0.4747
 4588SOL    MW418120   6.003   2.304   3.552  0.0628 -0.1418  0.1119
 4589SOL     OW18121   1.409   4.112   5.579 -0.3818  0.4173 -0.4935
 4589SOL    HW218122   1.396   4.171   5.653  0.2677  0.4456 -0.3986
 4589SOL    HW318123   1.349   4.039   5.596  0.6795 -0.2147  0.7395
 4589SOL    MW418124   1.399   4.110   5.591 -0.1561  0.3377 -0.3183
 4590SOL     OW18125   4.464  -0.032   1.860 -0.0860 -0.6758 -0.1459
 4590SOL    HW218126   4.401   0.034   1.831 -0.2353 -0.9110 -0.3659
 4590SOL    HW318127   4.502  -0.066   1.779  1.8124  0.8640  0.0441
 4590SOL    MW418128   4.461  -0.028   1.845  0.1448 -0.5037 -0.1499
 4591SOL     OW18129   3.201   5.001   0.649  1.0097  0.1663 -0.5950
 4591SOL    HW218130   3.185   5.094   0.631  1.1354 -0.2269 -3.1415
 4591SOL    HW318131   3.257   4.973   0.577  0.0732 -2.1482 -0.4907
 4591SOL    MW418132   3.206   5.010   0.637  0.9028 -0.1910 -0.9172
 4592SOL     OW18133   6.230   5.224   1.087 -0.6046  0.4075  0.4179
 4592SOL    HW218134   6.215   5.255   0.998  0.6154  0.7365  0.3045
 4592SOL    HW318135   6.286   5.290   1.127 -1.5789  0.5371  1.6210
 4592SOL    MW418136   6.236   5.237   1.080 -0.5722  0.4680  0.5617
 4593SOL     OW18137   4.775   0.584   1.612  0.2352  0.2314  0.7118
 4593SOL    HW218138   4.746   0.665   1.655  0.9026  0.6432  0.4051
 4593SOL    HW318139   4.711   0.570   1.542  0.8532  1.2446 -0.0898
 4593SOL    MW418140   4.763   0.593   1.609  0.4048  0.4194  0.5656
 4594SOL     OW18141   2.179   4.177   1.771  0.4106 -0.0204 -0.2786
 4594SOL    HW218142   2.269   4.179   1.804  0.0451 -1.5160  0.9207
 4594SOL    HW318143   2.140   4.259   1.802  0.7860 -0.2999  0.9737
 4594SOL    MW418144   2.185   4.188   1.779  0.4119 -0.2546  0.0449
 4595SOL     OW18145   4.647   3.798   6.152 -0.4257 -0.7840 -0.7076
 4595SOL    HW218146   4.737   3.774   6.176 -0.9020 -2.6811 -0.5998
 4595SOL    HW318147   4.633   3.756   6.067 -1.5677 -1.5211 -0.1779
 4595SOL    MW418148   4.657   3.789   6.144 -0.6392 -1.1315 -0.6235
 4596SOL     OW18149   5.588   4.352   6.033  0.4474  0.0342 -0.5714
 4596SOL    HW218150   5.629   4.337   6.118  3.4641  1.5149 -1.6029
 4596SOL    HW318151   5.554   4.441   6.038 -1.0418 -0.5189 -0.3652
 4596SOL    MW418152   5.589   4.362   6.045  0.6489  0.1566 -0.6803
 4597SOL     OW18153   2.171   2.250   5.874 -0.2866 -0.2439 -0.3241
 4597SOL    HW218154   2.246   2.192   5.865 -0.0067 -0.0675  0.7519
 4597SOL    HW318155   2.201   2.333   5.836  0.2149 -0.0553  0.4604
 4597SOL    MW418156   2.185   2.253   5.868 -0.1835 -0.1957 -0.0787
 4598SOL     OW18157   4.440   5.144   0.715 -0.3636 -0.1140 -0.2782
 4598SOL    HW218158   4.363   5.130   0.771 -0.3704  1.5096  0.1806
 4598SOL    HW318159   4.412   5.211   0.653  0.8530  0.9734  0.3047
 4598SOL    MW418160   4.426   5.151   0.714 -0.2040  0.2437 -0.1408
 4599SOL     OW18161   5.563   4.516   4.354 -0.4501 -0.2539 -0.3360
 4599SOL    HW218162   5.548   4.432   4.398 -0.3051  0.7688  1.7716
 4599SOL    HW318163   5.496   4.574   4.389  1.9709  1.6174  1.5120
 4599SOL    MW418164   5.552   4.512   4.364 -0.1116  0.1280  0.1859
 4600SOL     OW18165   0.626   5.706   1.369 -0.4548 -0.4407  0.1424
 4600SOL    HW218166   0.571   5.783   1.356  1.3467  0.7307 -0.9859
 4600SOL    HW318167   0.696   5.715   1.304  0.9745 -1.9505  1.3776
 4600SOL    MW418168   0.628   5.718   1.359 -0.0286 -0.4853  0.1565
 4601SOL     OW18169   3.991   5.553   3.162 -0.1046 -0.9162  0.1406
 4601SOL    HW218170   4.062   5.542   3.098  0.8931 -1.6184  1.3147
 4601SOL    HW318171   4.032   5.532   3.246 -0.3784  3.3137  1.5619
 4601SOL    MW418172   4.006   5.549   3.164 -0.0091 -0.4507  0.4830
 4602SOL     OW18173   1.568   2.870   1.391  0.2230 -0.3199  0.4343
 4602SOL    HW218174   1.567   2.850   1.484 -1.0642  2.3457  1.1032
 4602SOL    HW318175   1.610   2.956   1.385  1.6721 -1.0808 -1.6725
 4602SOL    MW418176   1.573   2.879   1.402  0.2444 -0.0686  0.2446
 4603SOL     OW18177   3.457   4.580   4.435  0.0584 -0.0206  0.0184
 4603SOL    HW218178   3.503   4.648   4.385  0.7125  0.3443  1.0626
 4603SOL    HW318179   3.431   4.515   4.370 -0.9365  1.4152 -1.0757
 4603SOL    MW418180   3.460   4.581   4.420  0.0134  0.2170  0.0118
 4604SOL     OW18181   3.015   0.388   5.338 -0.5205  0.5199  0.1756
 4604SOL    HW218182   3.032   0.370   5.431  2.5636 -1.7605 -0.6862
 4604SOL    HW318183   3.054   0.475   5.324  0.2483  0.2746  0.7186
 4604SOL    MW418184   3.022   0.397   5.349 -0.0122  0.1866  0.1335
 4605SOL     OW18185   3.580   4.212   5.357  0.5077 -0.4698 -0.5959
 4605SOL    HW218186   3.501   4.158   5.364  0.7898 -0.6678  2.2559
 4605SOL    HW318187   3.556   4.282   5.296 -1.5628 -1.0584 -0.5269
 4605SOL    MW418188   3.566   4.214   5.350  0.2718 -0.5736 -0.2106
 4606SOL     OW18189   5.542   5.587   1.527 -0.2377 -0.1631  0.5937
 4606SOL    HW218190   5.511   5.671   1.493  1.7924  1.5342  2.5584
 4606SOL    HW318191   5.494   5.521   1.478 -3.4668  2.1494  0.3463
 4606SOL    MW418192   5.532   5.589   1.516 -0.3959  0.3659  0.8203
 4607SOL     OW18193   3.437   1.483   6.336 -0.3625  0.3900  0.2639
 4607SOL    HW218194   3.380   1.502   6.411 -0.6636 -0.5018  0.2703
 4607SOL    HW318195   3.400   1.535   6.264 -2.1994 -1.3654 -0.1585
 4607SOL    MW418196   3.425   1.493   6.336 -0.6446  0.0407  0.2090
 4608SOL     OW18197   0.946   1.872   5.465  0.3146 -0.7913 -0.1765
 4608SOL    HW218198   0.931   1.807   5.533  1.3518 -1.0251 -0.1551
 4608SOL    HW318199   1.029   1.913   5.488  0.8261 -1.0608 -1.4364
 4608SOL    MW418200   0.955   1.869   5.477  0.5189 -0.8577 -0.3399
 4609SOL     OW18201   0.999   5.122   2.509  0.8880 -0.2818 -0.0936
 4609SOL    HW218202   1.042   5.204   2.487  2.9524 -1.1489  0.4149
 4609SOL    HW318203   1.072   5.062   2.529 -0.5506 -2.1450 -0.1951
 4609SOL    MW418204   1.015   5.125   2.509  0.9705 -0.6420 -0.0399
 4610SOL     OW18205   0.572   0.256   4.145  0.8274 -0.0014  0.0268
 4610SOL    HW218206   0.652   0.246   4.093 -0.0364  0.3838 -1.4222
 4610SOL    HW318207   0.523   0.175   4.130 -0.0863  0.7071 -0.9706
 4610SOL    MW418208   0.576   0.244   4.137  0.5929  0.1429 -0.2960
 4611SOL     OW18209   3.449   0.533   4.388 -0.0273  0.7366  0.1164
 4611SOL    HW218210   3.487   0.590   4.455  0.3438 -0.4816  0.9776
 4611SOL    HW318211   3.470   0.576   4.305  1.3064  1.2328  0.6866
 4611SOL    MW418212   3.457   0.546   4.386  0.1976  0.6414  0.3052
 4612SOL     OW18213   0.592   2.438   0.574 -0.2088 -0.2285 -0.2908
 4612SOL    HW218214   0.576   2.374   0.644 -0.9140 -0.1879 -0.4002
 4612SOL    HW318215   0.523   2.504   0.587 -1.3950 -1.0591 -2.0021
 4612SOL    MW418216   0.581   2.439   0.585 -0.4584 -0.3327 -0.5310
 4613SOL     OW18217   1.149   3.968   1.443 -0.1797 -0.1437 -0.4949
 4613SOL    HW218218   1.094   4.044   1.426  0.2783  0.1348 -0.7654
 4613SOL    HW318219   1.234   3.991   1.405 -0.0165 -0.7607 -0.5186
 4613SOL    MW418220   1.153   3.981   1.436 -0.0977 -0.1883 -0.5337
 4614SOL     OW18221   5.188   2.099   4.427  0.8815 -0.1228 -0.1328
 4614SOL    HW218222   5.257   2.155   4.392  0.2218  1.0290  0.3318
 4614SOL    HW318223   5.139   2.069   4.350  0.7307  0.6473 -0.3436
 4614SOL    MW418224   5.190   2.103   4.412  0.7746  0.1308 -0.0993
 4615SOL     OW18225   3.062   3.468   3.286 -0.0785 -0.3182  0.2042
 4615SOL    HW218226   3.001   3.496   3.354 -0.1817  0.4734 -0.2018
 4615SOL    HW318227   3.121   3.406   3.331 -1.5802 -1.6595  0.4355
 4615SOL    MW418228   3.062   3.463   3.301 -0.2902 -0.3907  0.1811
 4616SOL     OW18229   0.796   2.334   4.355 -0.2912 -0.3478  0.5339
 4616SOL    HW218230   0.863   2.395   4.387 -0.4610  0.3198 -0.3225
 4616SOL    HW318231   0.825   2.248   4.385 -0.3138  0.1956  2.2308
 4616SOL    MW418232   0.809   2.331   4.363 -0.3166 -0.1880  0.6448
 4617SOL     OW18233   0.932   1.256   0.864  0.8082  0.6288  0.1473
 4617SOL    HW218234   0.836   1.251   0.857  0.8435 -1.0777  0.4360
 4617SOL    HW318235   0.947   1.287   0.954  0.4902 -1.4796  0.9973
 4617SOL    MW418236   0.921   1.260   0.875  0.7709  0.1255  0.2975
 4618SOL     OW18237   0.766   0.449   5.352 -0.1975 -0.0338 -1.1936
 4618SOL    HW218238   0.828   0.492   5.410 -1.1062  2.0370 -1.6932
 4618SOL    HW318239   0.775   0.356   5.373 -0.4551  0.5919  2.2389
 4618SOL    MW418240   0.775   0.442   5.362 -0.3514  0.3220 -0.8066
 4619SOL     OW18241   0.194   1.059   1.805 -0.0980 -0.5118 -0.1120
 4619SOL    HW218242   0.235   1.146   1.812 -0.3048 -0.1938 -2.0823
 4619SOL    HW318243   0.268   0.998   1.804  0.1552 -0.2087 -0.4291
 4619SOL    MW418244   0.209   1.063   1.806 -0.0919 -0.4298 -0.4138
 4620SOL     OW18245   5.089   5.336   2.560 -0.2896 -0.0503 -0.0112
 4620SOL    HW218246   5.171   5.379   2.586  0.8263 -0.3554 -2.7736
 4620SOL    HW318247   5.041   5.403   2.511 -0.7326 -0.5395 -0.2532
 4620SOL    MW418248   5.094   5.351   2.557 -0.2008 -0.1551 -0.4076
 4621SOL     OW18249   2.314   1.483   2.170 -0.0623  0.0069 -0.3358
 4621SOL    HW218250   2.226   1.450   2.187 -0.3769  1.5770  1.4741
 4621SOL    HW318251   2.304   1.542   2.095 -0.4122 -0.2729 -0.5131
 4621SOL    MW418252   2.301   1.487   2.162 -0.1500  0.1772 -0.1204
 4622SOL     OW18253   5.355   2.572   0.084  0.4078  0.6370  0.6470
 4622SOL    HW218254   5.427   2.542   0.028 -0.3224  1.6981 -0.9255
 4622SOL    HW318255   5.302   2.628   0.027 -2.3052 -0.9676  1.3893
 4622SOL    MW418256   5.358   2.575   0.069 -0.0465  0.5653  0.5374
 4623SOL     OW18257   3.106   0.696   4.368 -0.3983  0.0959 -0.0923
 4623SOL    HW218258   3.152   0.780   4.363 -0.5699  0.1401 -1.6540
 4623SOL    HW318259   3.140   0.647   4.293 -1.2837 -0.7203  0.0294
 4623SOL    MW418260   3.117   0.701   4.357 -0.5378 -0.0059 -0.2823
 4624SOL     OW18261   0.478   5.108   2.177 -0.1453 -0.1469  0.2125
 4624SOL    HW218262   0.437   5.184   2.136  0.4581  0.6317  1.0187
 4624SOL    HW318263   0.569   5.109   2.146  0.4141  0.6416  1.7563
 4624SOL    MW418264   0.485   5.118   2.168  0.0081  0.0599  0.5225
 4625SOL     OW18265   5.699   3.655   2.477  0.0633  0.4785 -0.1203
 4625SOL    HW218266   5.766   3.630   2.540 -0.6541 -0.1431  0.4060
 4625SOL    HW318267   5.649   3.575   2.462 -1.9944  1.4421  1.2628
 4625SOL    MW418268   5.702   3.641   2.483 -0.3028  0.5236  0.1316
 4626SOL     OW18269   1.231   2.171   5.325 -0.0416  0.0796  0.1630
 4626SOL    HW218270   1.189   2.126   5.253 -0.1664  0.1106  0.2153
 4626SOL    HW318271   1.317   2.198   5.291 -0.5364  1.0841 -0.3419
 4626SOL    MW418272   1.237   2.169   5.311 -0.1234  0.2162  0.1033
 4627SOL     OW18273   1.225   2.307   4.770 -0.2561 -0.0437  0.2698
 4627SOL    HW218274   1.287   2.239   4.796 -1.1765 -0.7756  0.6220
 4627SOL    HW318275   1.257   2.339   4.686  1.5132  0.7691  1.2079
 4627SOL    MW418276   1.237   2.302   4.762 -0.1441 -0.0330  0.4400
 4628SOL     OW18277   1.645   1.983   0.138 -0.1411 -0.4671 -0.0771
 4628SOL    HW218278   1.640   2.041   0.062  1.7155 -2.5445 -1.9000
 4628SOL    HW318279   1.553   1.968   0.162 -0.8401 -0.3365 -2.4134
 4628SOL    MW418280   1.632   1.988   0.131  0.0116 -0.7240 -0.6259
 4629SOL     OW18281   5.985   2.815   2.903 -0.3584  0.0071 -0.7930
 4629SOL    HW218282   5.924   2.808   2.829 -2.0225 -1.6132  0.6432
 4629SOL    HW318283   6.041   2.738   2.895  1.6527  1.4985 -2.1191
 4629SOL    MW418284   5.985   2.804   2.892 -0.3126 -0.0099 -0.7784
 4630SOL     OW18285   6.311   2.286   6.034  0.5389  0.5728  0.3264
 4630SOL    HW218286   6.237   2.347   6.040  1.8300  2.5202 -1.7054
 4630SOL    HW318287   6.282   2.207   6.080 -2.5291  1.5026  0.1887
 4630SOL    MW418288   6.297   2.283   6.041  0.3045  0.9524  0.0401
 4631SOL     OW18289   1.965   6.175   2.313 -0.4509  0.3107 -0.4256
 4631SOL    HW218290   1.976   6.130   2.397 -0.2856  0.9789 -0.0838
 4631SOL    HW318291   1.932   6.262   2.336 -2.4308 -0.1862 -1.1803
 4631SOL    MW418292   1.962   6.180   2.327 -0.6903  0.3333 -0.4800
 4632SOL     OW18293   3.259   5.069   5.321  0.4954 -0.2391 -0.4058
 4632SOL    HW218294   3.317   5.140   5.349 -0.3036  0.2987 -0.0678
 4632SOL    HW318295   3.283   5.054   5.230  0.8030  0.3412 -0.4300
 4632SOL    MW418296   3.270   5.077   5.313  0.4305 -0.0916 -0.3644
 4633SOL     OW18297   5.350   3.458   3.135 -0.1525  0.0056  0.2012
 4633SOL    HW218298   5.371   3.550   3.120 -1.6326  0.2761 -0.4311
 4633SOL    HW318299   5.257   3.459   3.160 -0.1735 -1.3061  0.2275
 4633SOL    MW418300   5.340   3.470   3.136 -0.3505 -0.1317  0.1213
 4634SOL     OW18301   3.129   2.775   1.813 -0.0182  0.0369 -0.2192
 4634SOL    HW218302   3.215   2.811   1.834 -1.1403  2.2526  0.9217
 4634SOL    HW318303   3.135   2.682   1.838  1.0711  0.8553  3.0477
 4634SOL    MW418304   3.141   2.767   1.820 -0.0225  0.4372  0.3624
 4635SOL     OW18305   1.850   3.737   1.099  0.5500 -0.1574 -0.5823
 4635SOL    HW218306   1.890   3.768   1.181  0.3378 -1.4064  0.0295
 4635SOL    HW318307   1.880   3.799   1.033 -0.8532  2.0706  0.7346
 4635SOL    MW418308   1.859   3.749   1.101  0.3369 -0.0282 -0.3278
 4636SOL     OW18309   3.869   0.028   6.194 -0.0395  0.0157  0.1226
 4636SOL    HW218310   3.780   0.040   6.227 -0.2120  0.3340 -0.4394
 4636SOL    HW318311   3.876  -0.066   6.178  0.4059 -0.3150  2.0209
 4636SOL    MW418312   3.858   0.017   6.196 -0.0035  0.0141  0.2989
 4637SOL     OW18313   0.977   5.689   6.155 -0.6477  0.6491  0.5279
 4637SOL    HW218314   0.888   5.691   6.189 -1.0534 -0.5260 -0.4042
 4637SOL    HW318315   0.970   5.724   6.066  0.3898  3.6323  1.4739
 4637SOL    MW418316   0.964   5.694   6.147 -0.5643  0.8877  0.5297
 4638SOL     OW18317   5.009   3.910   0.515  0.7298 -0.0282  0.4675
 4638SOL    HW218318   5.021   3.989   0.568 -1.3053 -0.3088  1.4485
 4638SOL    HW318319   4.987   3.842   0.579 -1.7185 -0.4034 -0.6450
 4638SOL    MW418320   5.007   3.911   0.530  0.1382 -0.1147  0.4501
 4639SOL     OW18321   2.106   4.258   3.588  0.2082 -0.6087 -0.6772
 4639SOL    HW218322   2.201   4.268   3.588  0.1558  0.2249  0.9032
 4639SOL    HW318323   2.091   4.169   3.558  1.6204 -1.5027  1.0947
 4639SOL    MW418324   2.117   4.248   3.584  0.3876 -0.6167 -0.2349
 4640SOL     OW18325   2.518   4.519   3.804 -0.1997 -0.6896 -0.1830
 4640SOL    HW218326   2.583   4.573   3.758  0.7266 -0.7337  0.9976
 4640SOL    HW318327   2.462   4.583   3.849 -0.3279 -0.6632 -0.3841
 4640SOL    MW418328   2.519   4.535   3.804 -0.0944 -0.6919 -0.0538
 4641SOL     OW18329   1.975   1.486   2.826  0.5463 -0.6666  0.0748
 4641SOL    HW218330   1.896   1.511   2.778  1.6380 -0.0276 -1.4842
 4641SOL    HW318331   2.012   1.568   2.857  1.2669 -0.8224 -0.3402
 4641SOL    MW418332   1.970   1.500   2.824  0.7854 -0.6028 -0.1857
 4642SOL     OW18333   6.149   2.251   5.607  0.8504  0.1837  0.7731
 4642SOL    HW218334   6.182   2.340   5.591  1.2890 -0.3479 -1.6388
 4642SOL    HW318335   6.223   2.205   5.647  1.1495  0.4687  0.5477
 4642SOL    MW418336   6.163   2.257   5.610  0.9477  0.1512  0.4252
 4643SOL     OW18337   3.297   4.167   6.315 -0.2040 -0.0915 -0.2355
 4643SOL    HW218338   3.293   4.260   6.292  1.5770  0.5369  1.6431
 4643SOL    HW318339   3.276   4.121   6.234 -1.1702  1.9326 -1.2095
 4643SOL    MW418340   3.293   4.173   6.301 -0.0965  0.2585 -0.1162
 4644SOL     OW18341   0.391   2.661   6.003  0.3017  0.7211  0.6294
 4644SOL    HW218342   0.399   2.749   5.966 -0.2421  0.3063 -0.5283
 4644SOL    HW318343   0.367   2.606   5.928 -1.5823 -0.0246  1.7159
 4644SOL    MW418344   0.389   2.666   5.988 -0.0186  0.5680  0.6200
 4645SOL     OW18345   2.930   0.641   4.607  0.2236 -0.1725  0.2243
 4645SOL    HW218346   2.877   0.716   4.633 -0.3303 -0.5657  0.2278
 4645SOL    HW318347   2.985   0.674   4.536 -1.0844 -0.1575 -0.8076
 4645SOL    MW418348   2.930   0.655   4.601 -0.0221 -0.2224  0.0887
 4646SOL     OW18349   1.629   2.255   2.317  0.0148 -0.1747  0.1323
 4646SOL    HW218350   1.657   2.189   2.253 -0.4033 -2.2952  1.9848
 4646SOL    HW318351   1.560   2.304   2.273  0.2091 -1.1266 -1.2811
 4646SOL    MW418352   1.623   2.253   2.303 -0.0147 -0.5801  0.1902
 4647SOL     OW18353   3.304   0.837   2.090  0.4165 -0.2499 -0.1511
 4647SOL    HW218354   3.344   0.910   2.042  0.2372 -0.1990 -0.2249
 4647SOL    HW318355   3.343   0.841   2.177 -1.5759  1.6133  0.7481
 4647SOL    MW418356   3.314   0.847   2.095  0.1300  0.0027 -0.0422
 4648SOL     OW18357   5.272   1.962   2.890  0.1650  0.2246 -0.4565
 4648SOL    HW218358   5.202   1.898   2.873  0.2906 -0.1767  0.4487
 4648SOL    HW318359   5.232   2.026   2.949  0.1507  0.7895 -1.0678
 4648SOL    MW418360   5.257   1.962   2.895  0.1796  0.2462 -0.4177
 4649SOL     OW18361   4.988   0.421   0.266 -0.5726 -0.5330 -0.3049
 4649SOL    HW218362   5.032   0.463   0.191 -0.7792  0.2040 -0.0238
 4649SOL    HW318363   5.056   0.416   0.333 -1.0755  1.3823  0.4314
 4649SOL    MW418364   5.003   0.426   0.265 -0.6662 -0.1831 -0.1706
 4650SOL     OW18365   5.682   1.245   0.686 -0.3102  0.6359  0.5335
 4650SOL    HW218366   5.672   1.287   0.771  0.9979  2.8704 -0.3306
 4650SOL    HW318367   5.773   1.261   0.662 -0.0931 -1.6750 -0.4529
 4650SOL    MW418368   5.693   1.253   0.694 -0.1090  0.6258  0.2894
 4651SOL     OW18369   1.253   1.462   3.392  0.1470 -0.1536  0.3893
 4651SOL    HW218370   1.261   1.471   3.487  1.3321 -1.1145  0.4053
 4651SOL    HW318371   1.327   1.510   3.356 -0.4621  0.4621 -0.0828
 4651SOL    MW418372   1.264   1.470   3.400  0.2230 -0.1991  0.3291
 4652SOL     OW18373   2.057   3.809   6.270 -0.1834  0.6525  0.0034
 4652SOL    HW218374   2.018   3.893   6.248  1.0033  0.7506 -2.0910
 4652SOL    HW318375   2.130   3.830   6.328 -1.3285  0.7812  1.4329
 4652SOL    MW418376   2.062   3.823   6.274 -0.1779  0.6824 -0.0843
 4653SOL     OW18377   6.162   6.310   4.867  0.5470  0.4838 -0.1076
 4653SOL    HW218378   6.256   6.303   4.852  0.5195 -0.5056  0.1317
 4653SOL    HW318379   6.123   6.296   4.780  0.5647 -0.7802  0.0743
 4653SOL    MW418380   6.169   6.308   4.853  0.5457  0.1865 -0.0520
 4654SOL     OW18381   3.071   1.058   3.148 -0.4158 -0.8455 -0.3080
 4654SOL    HW218382   3.131   1.098   3.212 -1.8453 -1.0529  1.2099
 4654SOL    HW318383   3.129   1.020   3.082  1.1203  4.0174 -2.1926
 4654SOL    MW418384   3.087   1.058   3.148 -0.4017 -0.2313 -0.3564
 4655SOL     OW18385   4.324   4.643   6.371 -0.0205 -0.0036  0.0065
 4655SOL    HW218386   4.411   4.626   6.406 -0.8482  0.3459  2.4427
 4655SOL    HW318387   4.290   4.557   6.346  0.0779 -0.5003  1.5004
 4655SOL    MW418388   4.331   4.630   6.372 -0.1167 -0.0230  0.5250
 4656SOL     OW18389   5.947   1.827   6.369  0.0207  0.0947  0.0153
 4656SOL    HW218390   5.990   1.787   6.294 -0.0469  0.1756 -0.0668
 4656SOL    HW318391   6.005   1.899   6.395  1.2051 -1.2946  1.4457
 4656SOL    MW418392   5.960   1.831   6.363  0.1680 -0.0779  0.1932
 4657SOL     OW18393   4.089   2.478   6.085 -0.2136  0.4216  0.0211
 4657SOL    HW218394   4.011   2.529   6.063  0.2239  0.8074 -0.6869
 4657SOL    HW318395   4.096   2.483   6.180  0.0576  2.0637 -0.0599
 4657SOL    MW418396   4.080   2.485   6.095 -0.1201  0.6891 -0.0830
 4658SOL     OW18397   3.461   0.206   4.815 -0.5857 -0.3051  0.0308
 4658SOL    HW218398   3.426   0.147   4.748 -1.6793  0.0230  0.2998
 4658SOL    HW318399   3.386   0.228   4.870  0.1143  0.1527  0.8329
 4658SOL    MW418400   3.447   0.201   4.813 -0.6376 -0.2014  0.1721
 4659SOL     OW18401   4.522   3.021   2.289 -0.2934  0.0480 -0.2103
 4659SOL    HW218402   4.528   3.037   2.195  2.6199 -3.1117 -0.7635
 4659SOL    HW318403   4.437   2.978   2.301 -0.0150 -0.9588 -1.6879
 4659SOL    MW418404   4.511   3.017   2.278  0.1277 -0.5017 -0.4782
 4660SOL     OW18405   1.984   2.385   4.865 -0.7069  0.2514  0.0161
 4660SOL    HW218406   1.933   2.465   4.858  0.4814  0.9919 -0.4019
 4660SOL    HW318407   1.992   2.368   4.959 -2.2615 -0.2499  0.0816
 4660SOL    MW418408   1.979   2.393   4.876 -0.7552  0.2830 -0.0304
 4661SOL     OW18409   1.960   3.441   1.504  0.2446  1.0514  0.4788
 4661SOL    HW218410   1.994   3.529   1.518 -0.1778  1.1724  0.7606
 4661SOL    HW318411   1.972   3.397   1.588  0.1265  0.9532  0.4438
 4661SOL    MW418412   1.966   3.447   1.517  0.1733  1.0544  0.5114
 4662SOL     OW18413   2.292   4.546   5.622 -0.3994  0.0365 -0.0040
 4662SOL    HW218414   2.252   4.512   5.542 -0.6146 -1.5733  0.7424
 4662SOL    HW318415   2.379   4.507   5.623 -1.8113 -3.5890  2.6007
 4662SOL    MW418416   2.298   4.537   5.611 -0.6141 -0.6542  0.4382
 4663SOL     OW18417   2.823   1.717   4.172 -0.2014 -0.1151 -0.0438
 4663SOL    HW218418   2.870   1.695   4.252 -0.7253 -0.4612  0.1715
 4663SOL    HW318419   2.862   1.800   4.143  0.1629 -0.1209  0.4248
 4663SOL    MW418420   2.834   1.725   4.179 -0.2225 -0.1616  0.0464
 4664SOL     OW18421   0.954   4.529   3.099 -0.5336  0.1202  0.2222
 4664SOL    HW218422   0.990   4.444   3.075  0.4693  0.7987 -0.7805
 4664SOL    HW318423   0.863   4.525   3.069  0.2434  0.3654 -2.4488
 4664SOL    MW418424   0.947   4.517   3.092 -0.2988  0.2421 -0.2625
 4665SOL     OW18425   0.346   4.426   6.096  0.0544 -0.6894 -0.4225
 4665SOL    HW218426   0.362   4.498   6.034  0.3460 -1.0351 -0.7585
 4665SOL    HW318427   0.289   4.464   6.162  0.1671 -0.1572 -0.6189
 4665SOL    MW418428   0.341   4.441   6.096  0.1077 -0.6648 -0.4927
 4666SOL     OW18429   1.712   5.044   0.735  0.0977 -0.0416 -0.2912
 4666SOL    HW218430   1.720   5.111   0.667 -0.0705  0.1801 -0.0937
 4666SOL    HW318431   1.716   4.961   0.688 -1.0800  0.1161 -0.6975
 4666SOL    MW418432   1.713   5.042   0.720 -0.0798  0.0084 -0.3188
 4667SOL     OW18433   4.267   1.347   6.175 -0.1732  0.0927  0.1689
 4667SOL    HW218434   4.302   1.324   6.088  1.1064  0.5013  0.5547
 4667SOL    HW318435   4.194   1.286   6.188 -0.4866  0.1181 -1.2506
 4667SOL    MW418436   4.262   1.336   6.165 -0.0457  0.1500  0.0325
 4668SOL     OW18437   3.804   0.651   5.839  0.2644  0.2416  0.2592
 4668SOL    HW218438   3.850   0.678   5.759  0.8856 -0.9340  0.2027
 4668SOL    HW318439   3.812   0.726   5.897  1.3032  0.4748 -0.1590
 4668SOL    MW418440   3.811   0.665   5.836  0.4835  0.1172  0.1966
 4669SOL     OW18441   1.865   3.753   5.324  0.3685  0.3319 -0.1192
 4669SOL    HW218442   1.945   3.804   5.334 -0.5783  2.3458 -2.0535
 4669SOL    HW318443   1.825   3.785   5.244 -1.6648 -1.6547 -0.0225
 4669SOL    MW418444   1.870   3.764   5.315 -0.0247  0.3355 -0.3617
 4670SOL     OW18445   6.404   1.479   3.690 -0.8567  0.0156  0.3232
 4670SOL    HW218446   6.388   1.570   3.714  1.8448  0.4963  0.6676
 4670SOL    HW318447   6.433   1.438   3.771  0.7277 -0.3728 -0.3960
 4670SOL    MW418448   6.406   1.485   3.704 -0.2912  0.0278  0.2738
 4671SOL     OW18449   4.489   0.248   0.853 -0.5346 -0.6012 -0.2099
 4671SOL    HW218450   4.427   0.234   0.782 -0.8860 -0.3662  0.0505
 4671SOL    HW318451   4.565   0.195   0.829  0.4984  1.6034 -2.1624
 4671SOL    MW418452   4.491   0.239   0.841 -0.4447 -0.2793 -0.4331
 4672SOL     OW18453   1.798   2.058   4.250 -0.5084  0.0089 -0.0349
 4672SOL    HW218454   1.765   1.975   4.286 -2.0310  1.0304  1.0484
 4672SOL    HW318455   1.893   2.052   4.260 -0.6849 -1.0253  1.3681
 4672SOL    MW418456   1.806   2.046   4.256 -0.7326  0.0072  0.2931
 4673SOL     OW18457   4.831  -0.042   3.125  0.5390 -0.2759 -0.0507
 4673SOL    HW218458   4.745  -0.078   3.148  0.7331 -0.3425  0.5950
 4673SOL    HW318459   4.848  -0.075   3.037  0.6388 -1.6748  0.4580
 4673SOL    MW418460   4.822  -0.051   3.116  0.5778 -0.4693  0.1016
 4674SOL     OW18461   2.804   3.821   4.115 -0.2598 -0.1115  0.0775
 4674SOL    HW218462   2.870   3.824   4.046 -0.7336  0.5481 -0.3639
 4674SOL    HW318463   2.839   3.877   4.185 -0.0051 -0.3804  0.1654
 4674SOL    MW418464   2.817   3.829   4.115 -0.2887 -0.0600  0.0308
 4675SOL     OW18465   5.955   3.023   1.573  0.2438  0.1044  0.3631
 4675SOL    HW218466   5.882   2.967   1.598 -0.3102  0.2021 -0.9342
 4675SOL    HW318467   5.962   3.087   1.644 -0.3069 -0.4857  0.9613
 4675SOL    MW418468   5.946   3.024   1.585  0.0981  0.0394  0.2709
 4676SOL     OW18469   3.154   2.184   4.527  0.3707 -0.0839 -0.2092
 4676SOL    HW218470   3.097   2.261   4.529  0.7227  0.1664  1.5703
 4676SOL    HW318471   3.142   2.149   4.439 -1.6318  0.6172 -0.2847
 4676SOL    MW418472   3.145   2.190   4.516  0.1529  0.0416  0.0157
 4677SOL     OW18473   5.402   6.051   3.814 -0.3819 -0.2467 -0.8707
 4677SOL    HW218474   5.376   5.983   3.753  1.2863 -0.4804 -1.3682
 4677SOL    HW318475   5.447   6.004   3.884  0.5799  0.3145 -1.1032
 4677SOL    MW418476   5.404   6.036   3.816 -0.0349 -0.2035 -0.9670
 4678SOL     OW18477   1.315   1.674   4.038  0.6500 -0.6539 -0.5606
 4678SOL    HW218478   1.386   1.709   3.984 -0.9447 -0.6127 -2.7216
 4678SOL    HW318479   1.307   1.583   4.012  1.5015 -1.3815  1.4988
 4678SOL    MW418480   1.324   1.667   4.028  0.5520 -0.7445 -0.5740
 4679SOL     OW18481   2.191   4.350   5.310 -0.0977 -0.2131  0.4925
 4679SOL    HW218482   2.162   4.270   5.266  0.5386 -0.4417  0.4772
 4679SOL    HW318483   2.261   4.384   5.254 -1.6806  1.4556 -0.5801
 4679SOL    MW418484   2.196   4.344   5.297 -0.2226 -0.0231  0.3490
 4680SOL     OW18485   5.857   2.362   5.889  0.4743 -0.1456 -0.1757
 4680SOL    HW218486   5.854   2.269   5.913  0.5104 -0.4685 -1.3355
 4680SOL    HW318487   5.767   2.392   5.898 -0.3324 -1.2517 -3.1774
 4680SOL    MW418488   5.845   2.354   5.893  0.3727 -0.3341 -0.7247
 4681SOL     OW18489   3.590   2.457   2.940 -0.4524 -0.0177  0.0230
 4681SOL    HW218490   3.584   2.393   3.011 -0.0097 -0.1416 -0.0463
 4681SOL    HW318491   3.502   2.461   2.904 -0.2385 -1.4326 -0.6978
 4681SOL    MW418492   3.578   2.449   2.945 -0.3658 -0.2207 -0.0812
 4682SOL     OW18493   5.470   1.007   5.497  1.0316  0.2487 -0.3700
 4682SOL    HW218494   5.447   1.100   5.495  1.8287  0.4507 -2.5851
 4682SOL    HW318495   5.557   1.004   5.537  1.2147  0.5145 -0.7451
 4682SOL    MW418496   5.478   1.019   5.502  1.1609  0.3104 -0.7118
 4683SOL     OW18497   3.615   1.859   1.712  0.0368  0.6395 -0.2277
 4683SOL    HW218498   3.562   1.858   1.791  0.2482 -0.0832 -0.0894
 4683SOL    HW318499   3.658   1.944   1.713  0.6664  0.3281  0.8621
 4683SOL    MW418500   3.614   1.870   1.722  0.1478  0.5031 -0.0656
 4684SOL     OW18501   4.431   3.101   4.169 -0.4978 -0.2506  0.9171
 4684SOL    HW218502   4.408   3.021   4.122 -0.7432  0.1173  0.3928
 4684SOL    HW318503   4.463   3.072   4.254 -0.0051 -0.9406  0.5038
 4684SOL    MW418504   4.432   3.087   4.174 -0.4652 -0.2931  0.7934
 4685SOL     OW18505   1.518   3.334   1.738 -0.1458 -0.4992 -0.0136
 4685SOL    HW218506   1.460   3.349   1.664 -0.3405  0.3669  0.3002
 4685SOL    HW318507   1.466   3.361   1.814  0.7445  0.5652  0.2470
 4685SOL    MW418508   1.504   3.340   1.738 -0.0540 -0.2445  0.0622
 4686SOL     OW18509   6.319   4.649   6.328 -0.4893  0.1223 -0.0987
 4686SOL    HW218510   6.272   4.728   6.301 -1.8914 -0.2029  1.2883
 4686SOL    HW318511   6.260   4.577   6.305  0.0529 -0.4156  0.1735
 4686SOL    MW418512   6.305   4.650   6.321 -0.6027  0.0084  0.1202
 4687SOL     OW18513   4.332   2.526   1.143 -0.4634  0.2378  0.0244
 4687SOL    HW218514   4.348   2.440   1.180 -2.4916 -0.3356 -0.3226
 4687SOL    HW318515   4.308   2.581   1.218  1.5556  0.7414  0.3509
 4687SOL    MW418516   4.331   2.522   1.158 -0.4646  0.2286  0.0217
 4688SOL     OW18517   1.131   5.948   5.501  0.2853 -0.4778 -0.1296
 4688SOL    HW218518   1.110   5.855   5.497  1.3383 -0.7923  0.9395
 4688SOL    HW318519   1.179   5.966   5.420  0.4338 -0.9684 -0.1538
 4688SOL    MW418520   1.135   5.938   5.490  0.4438 -0.5840  0.0083
 4689SOL     OW18521   5.000   4.224   4.564  0.3548 -0.3348 -0.3757
 4689SOL    HW218522   4.994   4.238   4.658  1.3230 -2.3952  0.0563
 4689SOL    HW318523   4.910   4.232   4.533 -0.0524 -0.1468  0.8050
 4689SOL    MW418524   4.987   4.227   4.572  0.4288 -0.5819 -0.1629
 4690SOL     OW18525   2.062   4.634   1.269 -0.0873 -0.4092  0.1044
 4690SOL    HW218526   2.157   4.624   1.272  0.1148  0.7539 -1.3317
 4690SOL    HW318527   2.041   4.688   1.346  0.4179 -0.5750  0.3627
 4690SOL    MW418528   2.072   4.640   1.280  0.0060 -0.2776 -0.0510
 4691SOL     OW18529   0.147   4.370   3.988  0.0604 -0.2356  0.9647
 4691SOL    HW218530   0.154   4.340   3.898  0.3559 -0.1175  0.9456
 4691SOL    HW318531   0.120   4.462   3.981  1.3925  0.1729  0.9487
 4691SOL    MW418532   0.145   4.378   3.976  0.2752 -0.1661  0.9601
 4692SOL     OW18533   3.198   1.663   0.530  0.2616 -0.3138 -0.5415
 4692SOL    HW218534   3.203   1.682   0.624 -0.2999 -1.6786 -0.2153
 4692SOL    HW318535   3.213   1.748   0.488  0.7964  0.2717  0.7658
 4692SOL    MW418536   3.201   1.677   0.537  0.2581 -0.4166 -0.3260
 4693SOL     OW18537   0.944   5.301   1.823 -0.4542  0.0240 -0.3234
 4693SOL    HW218538   0.992   5.219   1.834  0.3043  0.4012 -0.7438
 4693SOL    HW318539   0.882   5.283   1.752 -0.6125 -0.3243 -0.0985
 4693SOL    MW418540   0.942   5.288   1.815 -0.3750  0.0278 -0.3492
 4694SOL     OW18541   5.536   4.657   0.958 -0.1173  0.1412  0.1306
 4694SOL    HW218542   5.448   4.690   0.975 -0.3250 -0.3592  0.0471
 4694SOL    HW318543   5.571   4.714   0.889 -0.3637  0.3573  0.1854
 4694SOL    MW418544   5.529   4.669   0.951 -0.1772  0.1037  0.1268
 4695SOL     OW18545   1.270   1.919   2.374 -0.1206 -0.0506 -0.1852
 4695SOL    HW218546   1.329   1.964   2.435 -0.1405 -2.8265  2.1248
 4695SOL    HW318547   1.304   1.941   2.288  1.9128  1.5320  0.9048
 4695SOL    MW418548   1.283   1.928   2.371  0.1451 -0.2080  0.2634
 4696SOL     OW18549   4.907   5.837   0.606  0.2746 -0.5817 -0.6419
 4696SOL    HW218550   4.893   5.929   0.583  0.9563 -0.6287 -1.2635
 4696SOL    HW318551   4.831   5.815   0.660  0.6284  0.6501  0.4210
 4696SOL    MW418552   4.895   5.847   0.610  0.4113 -0.4254 -0.5836
 4697SOL     OW18553   2.448   0.752   1.809 -0.1551 -0.4182 -0.0618
 4697SOL    HW218554   2.434   0.669   1.856 -0.8475 -0.7312 -0.7852
 4697SOL    HW318555   2.539   0.749   1.781  0.3497 -0.1057  1.4680
 4697SOL    MW418556   2.458   0.741   1.812 -0.1799 -0.4182  0.0446
 4698SOL     OW18557   0.858   5.733   4.195  0.0221  0.3676 -0.3841
 4698SOL    HW218558   0.824   5.813   4.234  0.8661  0.8551 -0.6186
 4698SOL    HW318559   0.855   5.748   4.101 -0.6951 -0.2540 -0.4702
 4698SOL    MW418560   0.853   5.745   4.188  0.0388  0.3499 -0.4264
 4699SOL     OW18561   0.765   6.280   1.817 -0.4010  0.2576 -0.7674
 4699SOL    HW218562   0.847   6.249   1.856 -0.0197  2.9865  0.8525
 4699SOL    HW318563   0.748   6.218   1.746  2.0736 -1.4661 -0.0164
 4699SOL    MW418564   0.774   6.268   1.813 -0.0242  0.3902 -0.4546
 4700SOL     OW18565   2.212   2.615   3.536 -0.0618 -0.4813  0.2769
 4700SOL    HW218566   2.206   2.569   3.452 -1.0383 -0.8732  0.5514
 4700SOL    HW318567   2.227   2.546   3.601  1.4898 -0.1133  0.3674
 4700SOL    MW418568   2.213   2.600   3.533  0.0141 -0.4845  0.3250
 4701SOL     OW18569   0.857   4.305   4.134  0.0759  0.8759  0.3355
 4701SOL    HW218570   0.876   4.242   4.203  0.4022 -0.1295 -0.6378
 4701SOL    HW318571   0.761   4.308   4.131 -0.0128 -1.1848 -0.9610
 4701SOL    MW418572   0.846   4.297   4.143  0.1072  0.4714  0.0360
 4702SOL     OW18573   4.722   5.985   4.684  0.3249  0.2219  0.0627
 4702SOL    HW218574   4.804   5.936   4.678  0.2345 -0.3751  2.5358
 4702SOL    HW318575   4.656   5.924   4.651  0.5784 -0.1917  0.3115
 4702SOL    MW418576   4.724   5.970   4.679  0.3464  0.0886  0.4219
 4703SOL     OW18577   3.355   3.920   2.450 -0.0218  0.2227  0.3173
 4703SOL    HW218578   3.366   3.940   2.543  1.5402 -1.3996  0.5572
 4703SOL    HW318579   3.272   3.873   2.445  0.3014 -0.4524  1.0603
 4703SOL    MW418580   3.346   3.916   2.461  0.2270 -0.0804  0.4470
 4704SOL     OW18581   2.883   1.253   1.376  0.3572  0.1863  0.0767
 4704SOL    HW218582   2.893   1.159   1.391 -2.0245 -0.1464  0.0358
 4704SOL    HW318583   2.943   1.294   1.438  2.2854 -1.3274 -0.6672
 4704SOL    MW418584   2.892   1.246   1.386  0.2974 -0.0573 -0.0268
 4705SOL     OW18585   5.884   0.073   3.034  0.2129 -0.0787  0.1625
 4705SOL    HW218586   5.903   0.130   3.109 -0.1228 -0.1987  0.3442
 4705SOL    HW318587   5.959   0.015   3.028  0.2490 -0.0574  0.4006
 4705SOL    MW418588   5.896   0.073   3.043  0.1733 -0.0917  0.2179
 4706SOL     OW18589   4.653  -0.024   5.751 -0.1191  0.7332 -0.7206
 4706SOL    HW218590   4.723   0.040   5.736  0.4248  0.1118 -0.9065
 4706SOL    HW318591   4.613  -0.036   5.665 -0.2166  0.8239 -0.6873
 4706SOL    MW418592   4.657  -0.017   5.737 -0.0602  0.6632 -0.7407
 4707SOL     OW18593   1.180   6.147   2.185  0.9257 -0.1670  0.3935
 4707SOL    HW218594   1.162   6.155   2.279  1.2695  0.3998  0.4115
 4707SOL    HW318595   1.094   6.160   2.143  0.6244 -1.1916  0.6536
 4707SOL    MW418596   1.166   6.150   2.192  0.9313 -0.2274  0.4302
 4708SOL     OW18597   6.329   0.375   1.035  0.3436  0.1176  0.4844
 4708SOL    HW218598   6.363   0.455   1.073  0.8876  0.9867 -1.6739
 4708SOL    HW318599   6.242   0.399   1.002 -0.5001 -0.8494  1.8895
 4708SOL    MW418600   6.322   0.389   1.036  0.3040  0.1047  0.3851
 4709SOL     OW18601   3.683   1.458   6.212  0.0317  0.3865  0.5395
 4709SOL    HW218602   3.603   1.463   6.264  0.0048 -0.7025  0.6240
 4709SOL    HW318603   3.744   1.408   6.267 -0.0485 -0.9278 -0.5225
 4709SOL    MW418604   3.681   1.452   6.226  0.0176  0.0694  0.4105
 4710SOL     OW18605   5.314   4.001   4.933  0.0738  0.1523  0.4417
 4710SOL    HW218606   5.349   3.948   5.005 -1.0894 -1.6294 -0.2230
 4710SOL    HW318607   5.220   4.006   4.951  0.1528  2.0410  0.4726
 4710SOL    MW418608   5.306   3.994   4.945 -0.0693  0.1664  0.3581
 4711SOL     OW18609   2.330   0.050   1.096 -0.4841 -0.5120 -0.6377
 4711SOL    HW218610   2.419   0.070   1.123 -0.7585  0.3256 -0.3455
 4711SOL    HW318611   2.276   0.117   1.137 -1.1316 -0.3777 -1.6660
 4711SOL    MW418612   2.335   0.061   1.105 -0.6058 -0.3838 -0.7348
 4712SOL     OW18613   6.040   5.671   5.174  0.1027  0.4244  0.5259
 4712SOL    HW218614   6.009   5.752   5.216 -0.2610 -0.1141  1.3345
 4712SOL    HW318615   6.084   5.700   5.094 -0.3863  1.3895  0.5946
 4712SOL    MW418616   6.042   5.686   5.169 -0.0098  0.4807  0.6417
 4713SOL     OW18617   5.177   4.459   1.135 -0.2650  0.9116 -0.2486
 4713SOL    HW218618   5.135   4.373   1.134  1.6777 -0.1237 -2.8853
 4713SOL    HW318619   5.124   4.513   1.077  0.0854  0.6380 -0.8286
 4713SOL    MW418620   5.164   4.455   1.128  0.0375  0.7389 -0.6730
 4714SOL     OW18621   3.465   3.326   3.251 -0.0203 -0.0570 -0.1325
 4714SOL    HW218622   3.424   3.365   3.174  2.6789  3.2307 -0.1385
 4714SOL    HW318623   3.472   3.233   3.229  0.6327  0.7075 -3.9472
 4714SOL    MW418624   3.461   3.319   3.238  0.4220  0.4776 -0.6366
 4715SOL     OW18625   1.419   4.729   2.753  0.0515  0.2018 -0.0557
 4715SOL    HW218626   1.403   4.800   2.691  1.0994  0.3688 -0.1432
 4715SOL    HW318627   1.411   4.649   2.700  0.5416  0.3277 -0.3235
 4715SOL    MW418628   1.416   4.728   2.738  0.2545  0.2404 -0.1026
 4716SOL     OW18629   0.071   1.028   6.336  0.1409  0.0677  0.4046
 4716SOL    HW218630   0.085   0.934   6.331  1.3494  0.2074  0.7130
 4716SOL    HW318631   0.066   1.056   6.244 -0.4699 -0.3174  0.3137
 4716SOL    MW418632   0.072   1.019   6.323  0.2197  0.0353  0.4333
 4717SOL     OW18633   2.400   2.576   2.094 -0.3098  0.2954  0.4435
 4717SOL    HW218634   2.319   2.567   2.043  0.1704  2.1563 -0.7211
 4717SOL    HW318635   2.447   2.494   2.079 -1.8814 -0.7647  1.0283
 4717SOL    MW418636   2.395   2.564   2.085 -0.4538  0.4011  0.3670
 4718SOL     OW18637   2.033   6.049   5.271  0.1620  0.1686  0.5520
 4718SOL    HW218638   2.085   5.981   5.228  0.2251  1.0208 -0.7874
 4718SOL    HW318639   1.945   6.037   5.235 -0.1138  0.0249  1.2612
 4718SOL    MW418640   2.029   6.038   5.261  0.1340  0.2621  0.4688
 4719SOL     OW18641   3.640   3.830   2.403 -0.2521  0.2670  0.2898
 4719SOL    HW218642   3.545   3.834   2.410 -0.4352 -0.9882 -1.1168
 4719SOL    HW318643   3.671   3.827   2.494 -1.5946 -0.3101  0.7467
 4719SOL    MW418644   3.631   3.830   2.416 -0.4533  0.0252  0.1645
 4720SOL     OW18645   3.730   6.128   4.930 -0.1355 -0.2147  0.1855
 4720SOL    HW218646   3.773   6.066   4.871  0.0212 -0.1621  0.2432
 4720SOL    HW318647   3.764   6.214   4.904 -2.6439  0.2756 -1.9843
 4720SOL    MW418648   3.740   6.131   4.919 -0.4458 -0.1431 -0.0932
 4721SOL     OW18649   2.632   1.987   1.960  0.1572 -0.0424  0.0077
 4721SOL    HW218650   2.641   2.078   1.931  1.4850 -0.1436  0.0161
 4721SOL    HW318651   2.686   1.937   1.898  1.4685 -0.5030  1.4467
 4721SOL    MW418652   2.640   1.992   1.948  0.5054 -0.1165  0.1987
 4722SOL     OW18653   6.072   1.684   2.095 -0.3573 -0.3264 -0.2596
 4722SOL    HW218654   6.046   1.760   2.043 -3.8565 -1.3542 -0.3239
 4722SOL    HW318655   6.057   1.711   2.186  1.7499  0.1102  0.0066
 4722SOL    MW418656   6.066   1.698   2.100 -0.5410 -0.4044 -0.2329
 4723SOL     OW18657   5.336   5.361   0.592  0.1020  0.6801  0.2949
 4723SOL    HW218658   5.248   5.367   0.556  0.7757 -0.3042 -1.6594
 4723SOL    HW318659   5.359   5.452   0.614 -0.3999  1.3564 -1.7526
 4723SOL    MW418660   5.328   5.374   0.590  0.1246  0.6395 -0.2331
 4724SOL     OW18661   5.285   0.674   2.697  0.1265 -0.0259 -0.2420
 4724SOL    HW218662   5.278   0.768   2.715  1.0207  0.1067 -0.5459
 4724SOL    HW318663   5.208   0.655   2.643  0.2807  0.6823 -0.7395
 4724SOL    MW418664   5.274   0.684   2.692  0.2648  0.0851 -0.3477
 4725SOL     OW18665   0.923   5.121   6.239  0.3975  0.0195  0.4236
 4725SOL    HW218666   0.924   5.038   6.286  0.4407 -0.5001 -0.4758
 4725SOL    HW318667   1.012   5.156   6.251  0.1266  0.3654  1.5245
 4725SOL    MW418668   0.935   5.115   6.247  0.3675 -0.0034  0.4502
 4726SOL     OW18669   1.949   0.912   5.298  0.2767  0.9463  0.1575
 4726SOL    HW218670   1.883   0.866   5.246 -0.9374  0.8606  1.6850
 4726SOL    HW318671   1.993   0.970   5.236 -1.1349  0.8890 -0.9441
 4726SOL    MW418672   1.946   0.914   5.283 -0.0698  0.9274  0.2137
 4727SOL     OW18673   2.617   2.604   1.150 -0.1263  0.0129 -0.0395
 4727SOL    HW218674   2.536   2.609   1.201 -0.0203 -0.3865  0.1715
 4727SOL    HW318675   2.627   2.691   1.112  1.0931  1.1540  2.6023
 4727SOL    MW418676   2.608   2.616   1.152  0.0486  0.1108  0.3369
 4728SOL     OW18677   2.203  -0.050   2.180 -0.0639 -0.0154  0.0310
 4728SOL    HW218678   2.202   0.020   2.115  0.8914  1.4159  1.5003
 4728SOL    HW318679   2.130  -0.030   2.239 -0.1099 -0.5629  0.1650
 4728SOL    MW418680   2.193  -0.038   2.179  0.0561  0.1012  0.2426
 4729SOL     OW18681   5.909   1.854   4.004  0.6586 -0.7018  0.1017
 4729SOL    HW218682   5.838   1.846   3.940  1.4925  2.2725 -1.3932
 4729SOL    HW318683   5.867   1.883   4.084 -0.0090 -0.8285 -0.1969
 4729SOL    MW418684   5.894   1.857   4.006  0.6805 -0.3261 -0.1349
 4730SOL     OW18685   4.335   0.119   6.212  0.3402  0.2025 -0.0298
 4730SOL    HW218686   4.373   0.066   6.142  1.0603  0.8563 -0.1495
 4730SOL    HW318687   4.327   0.207   6.175  0.2160  0.4341  0.5270
 4730SOL    MW418688   4.339   0.124   6.198  0.4188  0.3193  0.0279
 4731SOL     OW18689   2.655   2.522   1.761 -0.0577 -0.3998  0.3346
 4731SOL    HW218690   2.624   2.604   1.800  0.1863 -0.4962  0.7384
 4731SOL    HW318691   2.578   2.486   1.718 -0.8850 -1.2603  2.3762
 4731SOL    MW418692   2.641   2.528   1.761 -0.1347 -0.5261  0.6572
 4732SOL     OW18693   5.137   3.728   0.317 -0.3730  0.6590 -0.1261
 4732SOL    HW218694   5.086   3.787   0.374 -0.3435  1.0811 -0.5326
 4732SOL    HW318695   5.220   3.716   0.364 -0.3911  0.9199 -0.0222
 4732SOL    MW418696   5.141   3.734   0.331 -0.3715  0.7491 -0.1660
 4733SOL     OW18697   1.543   3.442   2.152  0.1157  0.0353 -0.0906
 4733SOL    HW218698   1.564   3.408   2.239 -5.9124 -0.7542  1.4843
 4733SOL    HW318699   1.564   3.535   2.157  1.6614 -0.3345  1.4221
 4733SOL    MW418700   1.549   3.450   2.164 -0.4757 -0.1177  0.3168
 4734SOL     OW18701   3.234   1.180   3.341  0.3487  0.5924  0.0444
 4734SOL    HW218702   3.293   1.233   3.288 -0.8053 -0.0734 -2.0122
 4734SOL    HW318703   3.183   1.243   3.392  0.9678  1.3012 -0.2062
 4734SOL    MW418704   3.235   1.195   3.341  0.2781  0.5981 -0.2600
 4735SOL     OW18705   5.584   1.353   5.041 -0.0320 -0.1156  0.1561
 4735SOL    HW218706   5.613   1.444   5.042 -0.8263  0.1920 -1.0703
 4735SOL    HW318707   5.653   1.306   4.994 -0.0990  0.0617 -0.1267
 4735SOL    MW418708   5.597   1.359   5.035 -0.1457 -0.0516 -0.0430
 4736SOL     OW18709   6.001   2.870   3.378 -0.3281 -0.0735  0.0813
 4736SOL    HW218710   5.921   2.912   3.409  0.8403  0.4862  2.5265
 4736SOL    HW318711   6.000   2.784   3.420  0.3650 -0.0497  0.1460
 4736SOL    MW418712   5.990   2.864   3.388 -0.0825  0.0035  0.4124
 4737SOL     OW18713   1.669   5.571   5.489  0.4247  0.0561 -0.0003
 4737SOL    HW218714   1.609   5.626   5.439  0.5221  1.3760  1.2669
 4737SOL    HW318715   1.753   5.581   5.445 -0.0576 -1.0878 -1.2456
 4737SOL    MW418716   1.672   5.580   5.477  0.3739  0.0793  0.0026
 4738SOL     OW18717   0.904   4.117   2.514  0.1395 -0.2565  0.3860
 4738SOL    HW218718   0.886   4.025   2.493 -2.5045  0.2208  0.2754
 4738SOL    HW318719   0.967   4.144   2.447 -0.6870 -1.4224 -0.9369
 4738SOL    MW418720   0.910   4.108   2.502 -0.3184 -0.3474  0.1969
 4739SOL     OW18721   0.812   3.887   2.059  0.3647 -0.2518  0.0305
 4739SOL    HW218722   0.816   3.982   2.070  0.5275 -0.4588  2.3172
 4739SOL    HW318723   0.902   3.861   2.040  0.2516  0.0624 -0.9950
 4739SOL    MW418724   0.824   3.896   2.058  0.3713 -0.2377  0.1969
 4740SOL     OW18725   0.324   2.609   3.132  0.7524 -0.9237  0.2299
 4740SOL    HW218726   0.339   2.616   3.226  1.7969 -0.0896  0.0258
 4740SOL    HW318727   0.230   2.619   3.122  0.8420  1.2590  1.0433
 4740SOL    MW418728   0.314   2.611   3.143  0.9020 -0.5257  0.3103
 4741SOL     OW18729   4.142   4.669   0.875  0.4550  0.3001 -0.5665
 4741SOL    HW218730   4.099   4.644   0.957 -0.4980  1.5148 -0.6636
 4741SOL    HW318731   4.232   4.690   0.900 -0.0635  1.5676  0.3758
 4741SOL    MW418732   4.149   4.669   0.889  0.2609  0.6276 -0.4550
 4742SOL     OW18733   5.484   5.623   2.190 -0.0266 -0.2376 -0.5113
 4742SOL    HW218734   5.432   5.566   2.246 -1.3689  1.3102 -0.1090
 4742SOL    HW318735   5.475   5.585   2.102 -0.9113 -0.6293 -0.2590
 4742SOL    MW418736   5.476   5.610   2.186 -0.3204 -0.0851 -0.4250
 4743SOL     OW18737   2.457   1.340   2.419 -0.2294 -0.0002 -0.1423
 4743SOL    HW218738   2.397   1.272   2.389  1.8470 -0.9415 -2.4727
 4743SOL    HW318739   2.461   1.327   2.514 -3.5126  0.0482  0.1183
 4743SOL    MW418740   2.449   1.329   2.428 -0.3886 -0.1180 -0.4154
 4744SOL     OW18741   0.368   3.066   4.403 -0.1036  0.9606  0.0716
 4744SOL    HW218742   0.292   3.032   4.356 -0.0251  0.4007  0.3409
 4744SOL    HW318743   0.404   2.990   4.449 -0.3386  1.5520  1.2654
 4744SOL    MW418744   0.363   3.051   4.403 -0.1243  0.9648  0.2646
 4745SOL     OW18745   3.604   6.287   3.923  0.6082 -0.0146  0.0851
 4745SOL    HW218746   3.525   6.272   3.976 -0.5090  0.6064 -1.3423
 4745SOL    HW318747   3.620   6.381   3.930  0.3768  0.0918 -0.7731
 4745SOL    MW418748   3.595   6.297   3.931  0.4302  0.0814 -0.2165
 4746SOL     OW18749   4.067   5.862   3.225 -0.4210 -0.2685  0.1178
 4746SOL    HW218750   3.978   5.830   3.207  0.0846 -2.1697  0.7397
 4746SOL    HW318751   4.124   5.790   3.198  0.9760  1.0202 -0.5008
 4746SOL    MW418752   4.063   5.848   3.219 -0.1700 -0.3493  0.1182
 4747SOL     OW18753   1.523   4.982   2.562  0.0086  0.1687  0.2913
 4747SOL    HW218754   1.618   4.971   2.559  0.0812  0.8006  0.1256
 4747SOL    HW318755   1.508   5.068   2.523 -0.6906 -0.2585 -0.4180
 4747SOL    MW418756   1.533   4.992   2.556 -0.0741  0.1957  0.1759
 4748SOL     OW18757   5.583   5.184   4.780 -0.2159 -0.0085  0.1074
 4748SOL    HW218758   5.573   5.169   4.685 -0.1379 -1.4472  0.2937
 4748SOL    HW318759   5.591   5.096   4.816  2.0392  0.5964  1.2214
 4748SOL    MW418760   5.583   5.170   4.772  0.0920 -0.1185  0.2790
 4749SOL     OW18761   5.224   3.637   4.510  0.2822  0.6693  0.3851
 4749SOL    HW218762   5.188   3.626   4.598 -0.3919  0.0413  0.0417
 4749SOL    HW318763   5.150   3.622   4.452  0.6595  1.3467 -0.2935
 4749SOL    MW418764   5.209   3.634   4.514  0.2430  0.6758  0.2502
 4750SOL     OW18765   1.826   4.393   3.895  0.0956 -0.2298  0.4814
 4750SOL    HW218766   1.746   4.356   3.933  0.1391 -0.1856  0.6191
 4750SOL    HW318767   1.884   4.318   3.886  1.0940  0.1202  3.0498
 4750SOL    MW418768   1.823   4.378   3.899  0.2331 -0.1778  0.8384
 4751SOL     OW18769   1.418   3.554   3.998 -0.2036 -1.0335  0.1103
 4751SOL    HW218770   1.406   3.642   4.036  1.2488 -0.3090 -1.0075
 4751SOL    HW318771   1.416   3.495   4.074 -2.1030 -0.1622  0.7976
 4751SOL    MW418772   1.417   3.558   4.013 -0.2626 -0.8230  0.0535
 4752SOL     OW18773   1.212   4.967   2.612 -0.4653 -0.3660 -0.0491
 4752SOL    HW218774   1.193   4.876   2.590 -0.2005 -0.0405 -1.7486
 4752SOL    HW318775   1.304   4.979   2.588  0.0500 -0.1105  1.8602
 4752SOL    MW418776   1.222   4.957   2.606 -0.3623 -0.2894 -0.0214
 4753SOL     OW18777   1.589   0.448   3.855 -0.1711 -0.1732  0.3489
 4753SOL    HW218778   1.680   0.457   3.884 -0.0305 -0.6874  0.0725
 4753SOL    HW318779   1.544   0.409   3.929 -0.3090  0.6796  0.7254
 4753SOL    MW418780   1.595   0.444   3.868 -0.1708 -0.1285  0.3621
 4754SOL     OW18781   1.938   3.712   2.337 -0.3047 -0.4939  0.2186
 4754SOL    HW218782   1.950   3.657   2.415 -0.8450  0.4139  0.9744
 4754SOL    HW318783   2.021   3.760   2.329  0.5826 -2.1492 -1.0818
 4754SOL    MW418784   1.951   3.711   2.347 -0.2589 -0.5925  0.1468
 4755SOL     OW18785   4.825   5.564   1.539 -0.1441  0.1343 -0.0034
 4755SOL    HW218786   4.744   5.589   1.496  0.0467  0.6729 -0.0649
 4755SOL    HW318787   4.876   5.645   1.542  0.8699 -0.4272 -1.0190
 4755SOL    MW418788   4.821   5.578   1.533  0.0148  0.1313 -0.1455
 4756SOL     OW18789   0.342   4.300   5.848  0.3475  0.1506 -0.1854
 4756SOL    HW218790   0.312   4.337   5.931 -0.4847 -0.0544 -0.3903
 4756SOL    HW318791   0.357   4.207   5.867  1.8302  0.4254  0.1651
 4756SOL    MW418792   0.340   4.292   5.862  0.4334  0.1598 -0.1662
 4757SOL     OW18793   2.180   3.833   5.721  0.1081 -0.3708 -0.0663
 4757SOL    HW218794   2.240   3.883   5.777  1.7094 -0.3822 -1.6862
 4757SOL    HW318795   2.235   3.765   5.682 -0.8091 -0.0578 -2.0191
 4757SOL    MW418796   2.196   3.831   5.724  0.1983 -0.3310 -0.5377
 4758SOL     OW18797   0.060   0.520   6.139 -0.2239 -0.4233 -0.1286
 4758SOL    HW218798   0.087   0.468   6.215  0.8982 -0.9480 -0.8609
 4758SOL    HW318799   0.028   0.602   6.176  3.1466  0.6247  0.8293
 4758SOL    MW418800   0.059   0.524   6.154  0.3688 -0.3542 -0.0988
 4759SOL     OW18801   0.153   2.505   2.160 -0.1835 -0.1013 -0.5273
 4759SOL    HW218802   0.141   2.420   2.118  0.1487  0.4075 -1.6909
 4759SOL    HW318803   0.183   2.484   2.248 -1.4871 -1.2066 -0.3078
 4759SOL    MW418804   0.155   2.491   2.166 -0.3117 -0.1800 -0.6518
 4760SOL     OW18805   5.462   1.790   6.071 -0.4511  0.1492 -0.3446
 4760SOL    HW218806   5.453   1.776   6.165  2.5165 -0.8541 -0.0900
 4760SOL    HW318807   5.541   1.741   6.047 -0.9948  0.5276 -3.3396
 4760SOL    MW418808   5.471   1.781   6.080 -0.1313  0.0667 -0.7061
 4761SOL     OW18809   3.835   1.194   3.286  0.3771  0.2049  0.0450
 4761SOL    HW218810   3.809   1.179   3.195  1.5903  0.8744 -0.4537
 4761SOL    HW318811   3.754   1.214   3.332 -0.2563 -0.1553 -0.8954
 4761SOL    MW418812   3.821   1.195   3.280  0.4536  0.2457 -0.1449
 4762SOL     OW18813   0.579   1.986   4.604  0.2535  0.0337  0.4749
 4762SOL    HW218814   0.661   1.993   4.556  0.9247  4.7341  1.7816
 4762SOL    HW318815   0.522   2.052   4.563 -1.3133 -0.1338  2.2353
 4762SOL    MW418816   0.582   1.996   4.592  0.1353  0.6318  0.8796
 4763SOL     OW18817   4.471   3.436   2.819 -0.2268 -0.4413 -0.6293
 4763SOL    HW218818   4.401   3.438   2.753 -1.2308  0.6445  0.4237
 4763SOL    HW318819   4.466   3.521   2.862 -0.3447 -1.5245  1.6179
 4763SOL    MW418820   4.461   3.447   2.816 -0.3748 -0.4410 -0.1938
 4764SOL     OW18821   1.964   1.187   0.329 -0.1729 -0.3192 -0.3839
 4764SOL    HW218822   1.944   1.127   0.400  0.4644 -0.6954 -0.5132
 4764SOL    HW318823   1.880   1.227   0.306 -0.4104 -0.3045  0.4717
 4764SOL    MW418824   1.951   1.185   0.335 -0.1202 -0.3669 -0.2881
 4765SOL     OW18825   3.200   5.163   2.855 -0.3591  0.2935  0.1514
 4765SOL    HW218826   3.284   5.176   2.811  0.2366 -1.4443  0.7085
 4765SOL    HW318827   3.212   5.084   2.908 -0.7198  2.6585  4.1797
 4765SOL    MW418828   3.213   5.155   2.856 -0.3281  0.3762  0.7564
 4766SOL     OW18829   4.491   1.741   0.918  0.0314 -0.7083 -0.5363
 4766SOL    HW218830   4.547   1.710   0.989 -1.2700  0.8750  1.2678
 4766SOL    HW318831   4.416   1.683   0.919  0.2722 -1.0329 -1.0132
 4766SOL    MW418832   4.489   1.729   0.927 -0.1086 -0.5422 -0.3612
 4767SOL     OW18833   5.076   2.468   2.287 -0.3239  0.7715  0.5337
 4767SOL    HW218834   5.034   2.545   2.326 -1.3654  0.1912  0.5820
 4767SOL    HW318835   5.107   2.418   2.363 -0.6464  0.5854  0.5415
 4767SOL    MW418836   5.075   2.472   2.302 -0.5039  0.6704  0.5411
 4768SOL     OW18837   5.120   3.004   5.250  0.1911  0.4481 -0.2486
 4768SOL    HW218838   5.139   3.055   5.171 -0.7540  0.3530 -0.5549
 4768SOL    HW318839   5.201   2.956   5.268  1.0154  1.8223 -0.1132
 4768SOL    MW418840   5.133   3.004   5.242  0.1752  0.6168 -0.2711
 4769SOL     OW18841   1.113   0.485   4.803 -0.0250 -0.1834 -0.3157
 4769SOL    HW218842   1.100   0.493   4.709  0.1573  1.5436 -0.2297
 4769SOL    HW318843   1.203   0.451   4.812 -0.7579 -2.4041 -0.7461
 4769SOL    MW418844   1.123   0.481   4.792 -0.0977 -0.2485 -0.3612
 4770SOL     OW18845   4.652   3.979   3.762  0.3601  0.7166 -0.2272
 4770SOL    HW218846   4.563   3.978   3.726  0.6881 -0.4247 -1.0674
 4770SOL    HW318847   4.687   4.064   3.735 -0.0733  0.6862 -0.9397
 4770SOL    MW418848   4.645   3.990   3.753  0.3462  0.5620 -0.4321
 4771SOL     OW18849   6.167   2.078   6.200 -0.5076  0.0591  0.2028
 4771SOL    HW218850   6.242   2.089   6.259 -1.8675 -0.2717  2.1072
 4771SOL    HW318851   6.103   2.143   6.230 -1.2477 -0.0990 -0.9612
 4771SOL    MW418852   6.169   2.088   6.212 -0.7847 -0.0054  0.3005
 4772SOL     OW18853   3.178   5.628   0.687  0.1919  0.4053 -0.2760
 4772SOL    HW218854   3.123   5.578   0.626  0.2800 -0.5960  0.4378
 4772SOL    HW318855   3.260   5.579   0.691 -0.4300 -0.6110  1.9905
 4772SOL    MW418856   3.181   5.615   0.680  0.1215  0.1391  0.1172
 4773SOL     OW18857   5.436   2.941   3.525  0.1996 -0.2952 -0.0784
 4773SOL    HW218858   5.376   3.013   3.542 -2.3515 -2.3028 -0.0717
 4773SOL    HW318859   5.465   2.955   3.434 -1.4616 -0.0534 -0.5992
 4773SOL    MW418860   5.432   2.952   3.515 -0.3562 -0.5282 -0.1462
 4774SOL     OW18861   1.433   2.126   4.820 -0.3241 -0.0311 -0.1146
 4774SOL    HW218862   1.418   2.096   4.910  0.1832  1.8571  0.6530
 4774SOL    HW318863   1.498   2.195   4.828 -0.8353  0.7139 -1.8556
 4774SOL    MW418864   1.439   2.131   4.833 -0.3246  0.3163 -0.2430
 4775SOL     OW18865   1.177   3.511   4.810  0.5127  0.0780  0.4554
 4775SOL    HW218866   1.224   3.590   4.781 -0.3341  0.2699 -0.4649
 4775SOL    HW318867   1.096   3.544   4.848  0.1686 -0.3334  0.0961
 4775SOL    MW418868   1.172   3.526   4.811  0.3556  0.0490  0.2866
 4776SOL     OW18869   5.823   1.566   0.335 -0.0549 -0.2078  0.2229
 4776SOL    HW218870   5.899   1.550   0.391 -0.6483 -0.0621  1.1028
 4776SOL    HW318871   5.772   1.485   0.339 -0.6492  0.1793  0.7928
 4776SOL    MW418872   5.826   1.553   0.343 -0.2116 -0.1375  0.4142
 4777SOL     OW18873   3.742   0.535   3.108  0.0683 -0.0549  0.2602
 4777SOL    HW218874   3.831   0.534   3.073 -0.7497  0.6172 -2.0192
 4777SOL    HW318875   3.701   0.611   3.066 -1.6483 -0.5026  1.0444
 4777SOL    MW418876   3.749   0.545   3.098 -0.2661 -0.0253  0.0629
 4778SOL     OW18877   4.483   6.265   2.967  0.0290  0.0066 -0.3767
 4778SOL    HW218878   4.447   6.349   2.938  1.0274  0.1617 -1.2481
 4778SOL    HW318879   4.519   6.284   3.054 -0.0090  0.4110 -0.4446
 4778SOL    MW418880   4.483   6.279   2.975  0.1557  0.0804 -0.5006
 4779SOL     OW18881   4.975   4.928   0.833 -0.0473  0.0477  0.3421
 4779SOL    HW218882   4.933   4.991   0.774  2.1327  1.0215 -0.2366
 4779SOL    HW318883   4.946   4.954   0.920 -1.2145  0.2194 -0.0778
 4779SOL    MW418884   4.965   4.940   0.836  0.0863  0.1988  0.2103
 4780SOL     OW18885   5.966   0.884   5.949 -0.0190 -0.1619 -0.2398
 4780SOL    HW218886   5.895   0.829   5.980 -0.6581  2.0567  2.5968
 4780SOL    HW318887   5.933   0.973   5.956  2.7867  0.9233  0.5605
 4780SOL    MW418888   5.953   0.889   5.954  0.2669  0.2740  0.2400
 4781SOL     OW18889   3.899   4.982   6.112 -0.3185  0.2301 -0.2811
 4781SOL    HW218890   3.819   4.931   6.102  0.5640 -1.1601 -0.5417
 4781SOL    HW318891   3.895   5.048   6.042 -1.7209  0.9038  0.3827
 4781SOL    MW418892   3.888   4.984   6.102 -0.3871  0.1356 -0.2279
 4782SOL     OW18893   5.375   1.397   3.415 -0.1054  0.3372 -0.7402
 4782SOL    HW218894   5.352   1.447   3.494 -1.6403 -1.8995  0.3170
 4782SOL    HW318895   5.349   1.454   3.343 -2.2812  0.8943  0.4080
 4782SOL    MW418896   5.369   1.411   3.416 -0.5950  0.1156 -0.4492
 4783SOL     OW18897   1.470   0.257   5.531  0.0902 -0.5433  0.4543
 4783SOL    HW218898   1.400   0.313   5.564 -2.2803 -3.0486  0.0420
 4783SOL    HW318899   1.512   0.309   5.462  0.1297  1.8357  2.1698
 4783SOL    MW418900   1.467   0.271   5.526 -0.2173 -0.5599  0.6263
 4784SOL     OW18901   1.067   0.094   3.456  0.0858  0.1897  0.4103
 4784SOL    HW218902   1.101   0.030   3.394  0.8277 -0.2503  1.2465
 4784SOL    HW318903   1.061   0.047   3.539 -1.4403  0.6066  0.5675
 4784SOL    MW418904   1.071   0.080   3.459 -0.0176  0.1866  0.5413
 4785SOL     OW18905   1.163   6.247   0.778 -0.2627 -0.5745 -0.4663
 4785SOL    HW218906   1.186   6.292   0.697 -1.7057 -0.5523 -0.8911
 4785SOL    HW318907   1.192   6.306   0.848 -2.2721  1.2120 -1.0002
 4785SOL    MW418908   1.170   6.261   0.777 -0.7182 -0.3358 -0.5928
 4786SOL     OW18909   6.078   2.001   2.064  0.0026 -0.0391 -0.0656
 4786SOL    HW218910   5.988   1.997   2.030 -0.0903  1.8572 -0.1085
 4786SOL    HW318911   6.133   2.012   1.987  0.1402  0.3717  0.0917
 4786SOL    MW418912   6.073   2.002   2.049  0.0085  0.2653 -0.0505
 4787SOL     OW18913   5.645   0.844   4.034  0.5027 -0.2266 -0.2340
 4787SOL    HW218914   5.578   0.787   4.072  1.1756 -1.3925 -0.7406
 4787SOL    HW318915   5.720   0.787   4.020  1.8598  1.1988  0.9136
 4787SOL    MW418916   5.646   0.829   4.037  0.7705 -0.1924 -0.1494
 4788SOL     OW18917   5.570   3.405   3.340  0.1684  0.6515 -0.0978
 4788SOL    HW218918   5.507   3.418   3.269  0.1134  1.8644  0.1524
 4788SOL    HW318919   5.651   3.443   3.307  0.3942  0.3852  0.1416
 4788SOL    MW418920   5.572   3.412   3.326  0.1909  0.7764 -0.0332
 4789SOL     OW18921   1.681   0.944   0.048  0.3474 -0.2115 -0.2911
 4789SOL    HW218922   1.769   0.955   0.084 -0.6140  1.1643  1.8512
 4789SOL    HW318923   1.656   0.855   0.073  0.4521  0.0448  0.7880
 4789SOL    MW418924   1.690   0.934   0.056  0.2344  0.0038  0.1339
 4790SOL     OW18925   5.940   0.188   1.612 -0.3169  1.0427 -0.2393
 4790SOL    HW218926   5.894   0.260   1.657 -0.6941  0.7284 -0.1136
 4790SOL    HW318927   5.978   0.136   1.683 -0.3308  0.9281 -0.3156
 4790SOL    MW418928   5.939   0.191   1.628 -0.3685  0.9861 -0.2328
 4791SOL     OW18929   1.917   4.250   3.226  0.6766 -0.3066  0.0973
 4791SOL    HW218930   1.917   4.329   3.280  0.9403  0.5481 -1.1015
 4791SOL    HW318931   1.878   4.183   3.281 -0.1605  0.8272  0.9347
 4791SOL    MW418932   1.911   4.252   3.240  0.6009 -0.0442  0.0496
 4792SOL     OW18933   2.007   1.407   3.983 -0.1693 -0.0412 -0.4703
 4792SOL    HW218934   1.928   1.397   4.036 -0.1267  1.1583 -0.1457
 4792SOL    HW318935   1.981   1.380   3.895 -1.6237  2.4620 -0.9060
 4792SOL    MW418936   1.993   1.402   3.978 -0.3555  0.4474 -0.4850
 4793SOL     OW18937   4.791   2.121   4.864 -0.0644 -0.0016 -0.2249
 4793SOL    HW218938   4.732   2.153   4.796  0.4598  0.9570 -0.2491
 4793SOL    HW318939   4.864   2.183   4.863 -0.4489  0.5391  1.8127
 4793SOL    MW418940   4.793   2.133   4.855 -0.0460  0.1962  0.0407
 4794SOL     OW18941   1.679   6.309   3.963 -0.1124 -0.0074  0.0018
 4794SOL    HW218942   1.764   6.294   4.005 -0.7502 -0.5843  1.1340
 4794SOL    HW318943   1.631   6.227   3.975 -0.9014  0.3740 -0.4442
 4794SOL    MW418944   1.684   6.296   3.971 -0.3007 -0.0332  0.0923
 4795SOL     OW18945   6.092   6.078   2.842  0.0291 -0.3121  0.5765
 4795SOL    HW218946   6.171   6.075   2.788 -0.3993 -1.0924 -0.0248
 4795SOL    HW318947   6.094   6.164   2.884  0.4888  0.2153 -0.5080
 4795SOL    MW418948   6.103   6.089   2.840  0.0332 -0.3454  0.3541
 4796SOL     OW18949   0.374   2.958   1.723  0.5218  0.2933 -0.2324
 4796SOL    HW218950   0.377   2.998   1.811  0.9483 -0.8592  0.2944
 4796SOL    HW318951   0.285   2.924   1.716  1.3179 -2.3146  1.0380
 4796SOL    MW418952   0.363   2.959   1.734  0.6831 -0.2028  0.0047
 4797SOL     OW18953   0.496   2.203   1.582 -0.2911  0.0048 -0.2157
 4797SOL    HW218954   0.496   2.124   1.527 -3.7286 -0.2883 -0.0006
 4797SOL    HW318955   0.480   2.170   1.671  1.3939  0.7869  0.4310
 4797SOL    MW418956   0.494   2.188   1.587 -0.5223  0.0693 -0.1020
 4798SOL     OW18957   1.269   2.303   6.230  0.2324 -0.2290  0.4011
 4798SOL    HW218958   1.303   2.302   6.140  1.4331 -0.6628  0.8298
 4798SOL    HW318959   1.194   2.244   6.229  1.1310 -1.4099 -0.0113
 4798SOL    MW418960   1.264   2.295   6.218  0.5094 -0.4420  0.4032
 4799SOL     OW18961   0.206   4.502   0.181  0.0203 -0.4300  0.8001
 4799SOL    HW218962   0.153   4.581   0.177 -0.8397 -0.9507  1.5093
 4799SOL    HW318963   0.214   4.474   0.090 -1.9901 -1.0093  0.7672
 4799SOL    MW418964   0.200   4.509   0.168 -0.3584 -0.5752  0.8893
 4800SOL     OW18965   1.030   4.763   4.566 -0.1305 -0.3625  0.5421
 4800SOL    HW218966   0.948   4.717   4.548 -0.4588  0.6022 -0.5313
 4800SOL    HW318967   1.037   4.762   4.661  0.1453 -3.0595  0.5572
 4800SOL    MW418968   1.020   4.757   4.576 -0.1374 -0.5910  0.4024
 4801SOL     OW18969   6.201   4.667   5.573 -0.4213  0.4680 -0.7687
 4801SOL    HW218970   6.125   4.614   5.549  0.0471 -1.2913  1.2914
 4801SOL    HW318971   6.264   4.652   5.503 -0.1955 -2.0614 -0.1278
 4801SOL    MW418972   6.200   4.658   5.561 -0.3297 -0.0979 -0.4124
 4802SOL     OW18973   4.812   5.939   5.780  0.0794 -0.0155 -0.3051
 4802SOL    HW218974   4.764   5.976   5.706 -0.4327  0.1925  0.1217
 4802SOL    HW318975   4.903   5.964   5.766  0.6587 -2.8297 -2.6847
 4802SOL    MW418976   4.818   5.947   5.769  0.0882 -0.3593 -0.5627
 4803SOL     OW18977   4.297   1.939   5.769 -0.0515  0.1695  0.0884
 4803SOL    HW218978   4.226   1.901   5.718 -1.1493  0.0106  1.6368
 4803SOL    HW318979   4.367   1.955   5.706 -0.2160 -2.6792 -0.9360
 4803SOL    MW418980   4.297   1.936   5.754 -0.2180 -0.2273  0.1575
 4804SOL     OW18981   4.420   3.369   4.092 -0.2862 -0.2264  0.0171
 4804SOL    HW218982   4.343   3.400   4.140 -2.6590 -2.0216 -2.3288
 4804SOL    HW318983   4.448   3.291   4.140  0.7925  0.9724  1.4393
 4804SOL    MW418984   4.414   3.363   4.105 -0.4569 -0.3051 -0.1048
 4805SOL     OW18985   2.184   4.824   0.725 -0.0985  0.0048  0.1343
 4805SOL    HW218986   2.159   4.849   0.814  0.5726  0.7385  0.1317
 4805SOL    HW318987   2.265   4.773   0.737  0.5682  0.9741 -0.1067
 4805SOL    MW418988   2.191   4.820   0.738  0.0780  0.2295  0.1022
 4806SOL     OW18989   5.179   1.617   1.364 -0.4289 -0.1577 -0.1199
 4806SOL    HW218990   5.270   1.647   1.366 -0.8538  1.1833  0.7479
 4806SOL    HW318991   5.170   1.574   1.279  0.9103  0.0269 -0.3856
 4806SOL    MW418992   5.190   1.615   1.353 -0.3083  0.0436 -0.0405
 4807SOL     OW18993   2.058   4.148   2.395 -0.1875 -0.0385  0.3700
 4807SOL    HW218994   2.138   4.200   2.408  0.3716 -0.6094 -0.6439
 4807SOL    HW318995   2.022   4.181   2.312  1.8023 -3.1664 -1.9962
 4807SOL    MW418996   2.064   4.160   2.386  0.1488 -0.5265 -0.0759
 4808SOL     OW18997   1.752   2.415   3.679 -0.2144  0.0962 -0.5173
 4808SOL    HW218998   1.813   2.388   3.747 -0.5717  0.2939 -0.1171
 4808SOL    HW318999   1.806   2.421   3.600 -0.1328 -1.8739 -0.6596
 4808SOL    MW419000   1.767   2.413   3.677 -0.2508 -0.1376 -0.4833
 4809SOL     OW19001   1.182   4.540   1.037 -0.4079  0.0664 -0.0336
 4809SOL    HW219002   1.230   4.458   1.044 -0.1604  0.3449  2.2516
 4809SOL    HW319003   1.198   4.585   1.120 -2.6288  1.2792 -0.1746
 4809SOL    MW419004   1.190   4.535   1.049 -0.6683  0.2632  0.2493
 4810SOL     OW19005   1.716   5.105   3.791  0.1258 -0.0098 -0.3318
 4810SOL    HW219006   1.723   5.133   3.882  1.0292 -0.7903 -0.1496
 4810SOL    HW319007   1.802   5.070   3.769 -0.8989 -2.6619 -0.5035
 4810SOL    MW419008   1.728   5.104   3.800  0.1098 -0.4627 -0.3304
 4811SOL     OW19009   5.411   4.869   4.392  0.2056 -0.0535  0.3338
 4811SOL    HW219010   5.406   4.775   4.408  1.5246 -0.5171 -1.5968
 4811SOL    HW319011   5.494   4.881   4.346 -0.4884  1.8711 -0.5284
 4811SOL    MW419012   5.421   4.858   4.388  0.2880  0.1393 -0.0347
 4812SOL     OW19013   5.439   4.245   0.285 -0.1550  0.3581  0.2086
 4812SOL    HW219014   5.403   4.316   0.231  2.7721  2.1655  0.3966
 4812SOL    HW319015   5.520   4.220   0.240  0.3885 -0.7941  1.7385
 4812SOL    MW419016   5.445   4.251   0.272  0.3029  0.4446  0.4353
 4813SOL     OW19017   0.424   2.448   1.871  0.0857 -0.1271 -0.4529
 4813SOL    HW219018   0.456   2.505   1.941 -1.2114  0.2378 -0.1136
 4813SOL    HW319019   0.493   2.383   1.859  1.0501  0.7847  0.0180
 4813SOL    MW419020   0.437   2.447   1.879  0.0418  0.0414 -0.3460
 4814SOL     OW19021   4.003   2.849   5.849  0.3052 -0.1786  0.2341
 4814SOL    HW219022   4.029   2.804   5.768  1.1427 -0.2282  0.5220
 4814SOL    HW319023   3.965   2.780   5.903  1.2884 -0.4964  0.5446
 4814SOL    MW419024   4.002   2.834   5.845  0.5454 -0.2271  0.3130
 4815SOL     OW19025   3.798   4.856   3.284  0.0023 -0.2140  0.1046
 4815SOL    HW219026   3.737   4.904   3.228  0.6838 -1.5973 -1.9186
 4815SOL    HW319027   3.884   4.895   3.264  0.0788  0.3929  1.4771
 4815SOL    MW419028   3.801   4.868   3.274  0.1023 -0.3164  0.0188
 4816SOL     OW19029   2.270   3.784   5.066  0.4280 -0.4868 -1.2987
 4816SOL    HW219030   2.180   3.752   5.077  0.0692  0.6659 -0.7451
 4816SOL    HW319031   2.324   3.706   5.078 -0.4105 -0.8912  0.1126
 4816SOL    MW419032   2.265   3.769   5.069  0.2700 -0.3881 -1.0395
 4817SOL     OW19033   5.630   4.255   4.520 -0.3330 -0.0178 -0.1174
 4817SOL    HW219034   5.576   4.190   4.477  2.0196 -1.1117 -1.6196
 4817SOL    HW319035   5.631   4.228   4.612  0.0862 -1.7656 -0.5997
 4817SOL    MW419036   5.623   4.243   4.527  0.0327 -0.3927 -0.3792
 4818SOL     OW19037   4.144   6.282   1.755 -0.3560  0.1198  0.4363
 4818SOL    HW219038   4.087   6.286   1.678  0.2947  1.6065 -0.0129
 4818SOL    HW319039   4.225   6.243   1.724 -0.4119 -0.1204  0.5896
 4818SOL    MW419040   4.147   6.278   1.741 -0.2775  0.2842  0.3973
 4819SOL     OW19041   4.559   3.704   1.299  0.5052  0.2665 -0.4964
 4819SOL    HW219042   4.541   3.682   1.207 -0.5456  1.1354 -0.5225
 4819SOL    HW319043   4.475   3.690   1.343  0.8289  0.5002  0.2082
 4819SOL    MW419044   4.545   3.699   1.293  0.4092  0.4120 -0.4069
 4820SOL     OW19045   1.144   1.064   0.935 -0.4067  0.2736 -0.1691
 4820SOL    HW219046   1.124   1.053   1.028 -1.1895  1.5876 -0.1585
 4820SOL    HW319047   1.076   1.124   0.903  0.3272  0.4717 -1.4075
 4820SOL    MW419048   1.132   1.071   0.943 -0.4132  0.4731 -0.3311
 4821SOL     OW19049   2.475   5.341   3.012  0.0264 -0.2459  0.0455
 4821SOL    HW219050   2.461   5.382   3.097 -0.1662 -1.3911  0.5762
 4821SOL    HW319051   2.389   5.341   2.970  0.3231  1.3323 -0.6425
 4821SOL    MW419052   2.462   5.346   3.018  0.0402 -0.1888  0.0248
 4822SOL     OW19053   5.493   3.409   0.353  0.1845  0.1573  0.0241
 4822SOL    HW219054   5.571   3.423   0.406  1.6132  0.7834 -2.1444
 4822SOL    HW319055   5.445   3.492   0.359  0.7765  0.5291 -0.3350
 4822SOL    MW419056   5.497   3.422   0.361  0.4511  0.2890 -0.3094
 4823SOL     OW19057   2.174   5.246   4.951  0.2368 -0.2692 -0.8115
 4823SOL    HW219058   2.214   5.241   5.038 -0.8268 -0.8681 -0.3434
 4823SOL    HW319059   2.248   5.262   4.892  0.7906  2.2788  0.3951
 4823SOL    MW419060   2.189   5.248   4.955  0.1695 -0.0121 -0.5906
 4824SOL     OW19061   2.242   2.451   3.760 -0.2375  0.4034  0.3162
 4824SOL    HW219062   2.331   2.487   3.755 -0.5110  1.0944  0.3111
 4824SOL    HW319063   2.207   2.485   3.843 -0.5975  0.3784  0.1759
 4824SOL    MW419064   2.249   2.460   3.770 -0.3211  0.4913  0.2970
 4825SOL     OW19065   3.990   0.111   4.308  0.3433 -1.2628 -0.4918
 4825SOL    HW219066   4.040   0.037   4.342  0.9441 -0.3378  0.6702
 4825SOL    HW319067   4.053   0.162   4.258  1.0423  0.6971  2.1718
 4825SOL    MW419068   4.005   0.108   4.306  0.5148 -0.8821  0.0129
 4826SOL     OW19069   4.786   5.190   0.295  0.2078  0.4459  0.5960
 4826SOL    HW219070   4.811   5.163   0.206  0.4465  1.3145  0.3837
 4826SOL    HW319071   4.713   5.133   0.318  0.0817  0.2724 -0.1960
 4826SOL    MW419072   4.780   5.179   0.286  0.2227  0.5376  0.4635
 4827SOL     OW19073   3.457   3.508   2.718 -0.0164  0.3173  0.6813
 4827SOL    HW219074   3.531   3.554   2.758  1.3259 -1.0109 -0.1714
 4827SOL    HW319075   3.439   3.435   2.777  1.1246 -0.8933 -0.4000
 4827SOL    MW419076   3.464   3.504   2.731  0.3112 -0.0176  0.4261
 4828SOL     OW19077   5.266   3.136   1.969 -0.1964  0.2272 -0.3377
 4828SOL    HW219078   5.280   3.133   1.875 -0.3396  2.1224 -0.4470
 4828SOL    HW319079   5.189   3.192   1.981 -0.5692 -0.4968  0.8825
 4828SOL    MW419080   5.258   3.143   1.958 -0.2645  0.3817 -0.1912
 4829SOL     OW19081   0.225   5.260   5.590  0.2696  0.1916 -0.5231
 4829SOL    HW219082   0.167   5.202   5.541  1.1499  0.0559 -1.4387
 4829SOL    HW319083   0.241   5.333   5.531  3.4374 -1.2043 -1.5899
 4829SOL    MW419084   0.219   5.262   5.576  0.8037 -0.0105 -0.7846
 4830SOL     OW19085   2.015   6.278   6.316  0.0086 -0.2662  0.2524
 4830SOL    HW219086   1.935   6.237   6.284  0.2901 -0.7054  0.1038
 4830SOL    HW319087   2.025   6.356   6.262  0.6390 -1.1556 -0.9457
 4830SOL    MW419088   2.005   6.283   6.305  0.1289 -0.4415  0.0747
 4831SOL     OW19089   0.777   2.089   5.537  0.4620  0.0877  0.8331
 4831SOL    HW219090   0.848   2.027   5.520  0.0065 -0.5391  1.1828
 4831SOL    HW319091   0.821   2.166   5.575  0.8938 -0.5500  1.6776
 4831SOL    MW419092   0.792   2.091   5.540  0.4588 -0.0791  0.9907
 4832SOL     OW19093   1.631   0.577   4.526 -0.1182  0.0017  0.3549
 4832SOL    HW219094   1.623   0.504   4.464  1.1522 -0.5473  0.7998
 4832SOL    HW319095   1.665   0.649   4.473  1.4774 -0.6209  0.4814
 4832SOL    MW419096   1.634   0.577   4.510  0.2599 -0.1529  0.4303
 4833SOL     OW19097   3.183   6.035   4.253 -0.5000 -0.2541  0.2117
 4833SOL    HW219098   3.213   5.945   4.242 -1.7592 -0.4909 -1.8334
 4833SOL    HW319099   3.090   6.028   4.275 -0.5052  0.5313  0.4874
 4833SOL    MW419100   3.175   6.022   4.254 -0.6668 -0.1817 -0.0218
 4834SOL     OW19101   0.780   3.559   0.848 -0.6097  0.2468 -0.6714
 4834SOL    HW219102   0.843   3.508   0.798  0.0281  1.0650 -0.7066
 4834SOL    HW319103   0.771   3.511   0.931  1.5587  1.1523  0.1417
 4834SOL    MW419104   0.787   3.546   0.852 -0.2395  0.4742 -0.5687
 4835SOL     OW19105   3.374   1.905   6.283  0.1735  0.1658 -0.9481
 4835SOL    HW219106   3.346   1.912   6.192 -0.7563  1.3028 -0.6022
 4835SOL    HW319107   3.467   1.924   6.281  0.0659  0.6687 -1.6128
 4835SOL    MW419108   3.382   1.909   6.271  0.0366  0.3822 -0.9902
 4836SOL     OW19109   3.859   2.566   2.972 -0.4122  0.3506 -0.1576
 4836SOL    HW219110   3.913   2.498   2.933 -1.9742 -0.5182 -0.9389
 4836SOL    HW319111   3.769   2.536   2.957 -1.1295  0.7227  2.8008
 4836SOL    MW419112   3.854   2.553   2.965 -0.7129  0.2851  0.1296
 4837SOL     OW19113   0.436   1.381   1.288 -0.2969 -0.3742  0.1420
 4837SOL    HW219114   0.373   1.453   1.286 -1.1902 -1.1506 -0.5390
 4837SOL    HW319115   0.418   1.335   1.370 -0.6533 -0.6225 -0.0740
 4837SOL    MW419116   0.426   1.384   1.299 -0.4618 -0.5094  0.0236
 4838SOL     OW19117   0.405   3.133   5.486  0.3806  0.1784 -0.4473
 4838SOL    HW219118   0.405   3.132   5.391  1.3095  0.9889 -0.4617
 4838SOL    HW319119   0.367   3.217   5.510 -1.2717 -0.6270 -0.0609
 4838SOL    MW419120   0.400   3.144   5.477  0.2852  0.1791 -0.3982
 4839SOL     OW19121   1.062   0.489   1.274  0.2501 -0.3585  0.6540
 4839SOL    HW219122   0.982   0.517   1.229  1.9964  2.9309 -0.7217
 4839SOL    HW319123   1.061   0.394   1.267 -1.6687 -0.2296 -2.7376
 4839SOL    MW419124   1.051   0.480   1.267  0.2274  0.0925  0.0250
 4840SOL     OW19125   2.939   2.658   5.650  0.0852  0.3117  0.3095
 4840SOL    HW219126   2.944   2.650   5.555 -0.9823 -0.0813  0.2597
 4840SOL    HW319127   2.978   2.742   5.670  0.3121  0.4028 -0.4800
 4840SOL    MW419128   2.945   2.668   5.640 -0.0257  0.2719  0.1988
 4841SOL     OW19129   4.511   0.876   6.419 -0.4560  0.1934  0.1340
 4841SOL    HW219130   4.417   0.858   6.412 -0.3164 -0.0494 -1.6049
 4841SOL    HW319131   4.533   0.917   6.335  0.8285  1.0760  0.8734
 4841SOL    MW419132   4.501   0.879   6.407 -0.2681  0.2778  0.0021
 4842SOL     OW19133   3.338   2.029   5.241  0.2090 -0.1753  0.2540
 4842SOL    HW219134   3.260   2.072   5.206  0.7482  0.1002 -0.6325
 4842SOL    HW319135   3.327   2.034   5.336 -1.2905 -0.9401  0.1615
 4842SOL    MW419136   3.326   2.035   5.249  0.0823 -0.2399  0.1249
 4843SOL     OW19137   3.108   4.256   4.887 -0.5091  0.9439  0.2147
 4843SOL    HW219138   3.080   4.327   4.828 -2.2206 -1.3836 -1.9835
 4843SOL    HW319139   3.203   4.252   4.876 -0.7805  0.3463 -2.8448
 4843SOL    MW419140   3.117   4.265   4.878 -0.7707  0.5579 -0.4790
 4844SOL     OW19141   4.596   4.643   6.423  0.2921  0.2425 -0.1984
 4844SOL    HW219142   4.596   4.554   6.456  0.2764 -0.2683 -1.5009
 4844SOL    HW319143   4.633   4.696   6.494  0.9932 -0.9105  0.3140
 4844SOL    MW419144   4.601   4.638   6.437  0.3825  0.0230 -0.3027
 4845SOL     OW19145   5.988   4.983   2.842  0.1815 -0.2790 -0.2869
 4845SOL    HW219146   6.058   4.970   2.778  1.9931  0.9041  1.3722
 4845SOL    HW319147   6.007   5.067   2.882 -1.5084 -0.5062  1.1005
 4845SOL    MW419148   6.000   4.992   2.839  0.1976 -0.1529  0.1151
 4846SOL     OW19149   4.173   4.770   3.378 -0.2505 -0.3417 -0.2621
 4846SOL    HW219150   4.166   4.772   3.473 -0.2492 -0.4198 -0.2596
 4846SOL    HW319151   4.125   4.690   3.352 -0.0343 -0.4589 -0.3060
 4846SOL    MW419152   4.166   4.759   3.387 -0.2218 -0.3674 -0.2676
 4847SOL     OW19153   1.040   4.064   3.192  0.3521  0.1745 -0.1255
 4847SOL    HW219154   0.962   4.078   3.245  0.5572  0.2141  0.1733
 4847SOL    HW319155   1.113   4.087   3.251  0.6580 -1.2588  0.0787
 4847SOL    MW419156   1.040   4.069   3.207  0.4195 -0.0094 -0.0591
 4848SOL     OW19157   4.593   1.014   3.941  0.2807  0.4541  0.2337
 4848SOL    HW219158   4.618   0.937   3.992  0.3414 -0.4083 -1.0556
 4848SOL    HW319159   4.675   1.060   3.926  0.4197  0.1343  0.0006
 4848SOL    MW419160   4.607   1.010   3.946  0.3071  0.2981  0.0328
 4849SOL     OW19161   4.036   1.931   1.826  0.5242 -0.4166  0.2269
 4849SOL    HW219162   3.985   1.883   1.891 -1.3955  1.8341  0.5254
 4849SOL    HW319163   4.127   1.923   1.855 -0.1376 -0.7236  2.3430
 4849SOL    MW419164   4.042   1.924   1.838  0.1836 -0.1602  0.5455
 4850SOL     OW19165   2.759   5.293   6.089  0.1408 -0.4334  0.5037
 4850SOL    HW219166   2.695   5.310   6.158  0.1540  0.3849  0.3306
 4850SOL    HW319167   2.840   5.331   6.122 -0.2080  1.4382 -0.5891
 4850SOL    MW419168   2.761   5.301   6.102  0.0965 -0.0785  0.3367
 4851SOL     OW19169   2.905  -0.021   0.134 -0.1223  0.2699 -0.0809
 4851SOL    HW219170   2.978  -0.025   0.196  0.5158  2.4437 -0.5789
 4851SOL    HW319171   2.946  -0.011   0.048 -1.0050 -0.6708 -0.6355
 4851SOL    MW419172   2.920  -0.020   0.131 -0.1546  0.4326 -0.2198
 4852SOL     OW19173   2.803   0.603   2.078  0.3879 -0.2405 -0.2168
 4852SOL    HW219174   2.893   0.595   2.109 -0.0889 -0.7418  1.1162
 4852SOL    HW319175   2.775   0.690   2.106  0.0175 -0.6222  0.6403
 4852SOL    MW419176   2.811   0.613   2.086  0.2761 -0.3570  0.0721
 4853SOL     OW19177   4.484   5.863   6.059 -0.4440 -0.1659 -0.1955
 4853SOL    HW219178   4.539   5.938   6.038 -2.9155  1.8299 -0.1113
 4853SOL    HW319179   4.544   5.790   6.065  2.4611  2.1569  1.9563
 4853SOL    MW419180   4.499   5.864   6.057 -0.3868  0.4039  0.0995
 4854SOL     OW19181   5.661   3.812   6.298 -0.3373 -0.4300  0.2566
 4854SOL    HW219182   5.610   3.854   6.229 -1.9076  1.0755  2.2083
 4854SOL    HW319183   5.731   3.875   6.318 -2.1243  0.9707  2.5279
 4854SOL    MW419184   5.664   3.826   6.292 -0.7803 -0.0466  0.8138
 4855SOL     OW19185   4.229   1.793   4.548 -0.8432 -0.7268 -0.0859
 4855SOL    HW219186   4.268   1.853   4.611 -1.5999 -0.2611 -0.0491
 4855SOL    HW319187   4.246   1.706   4.584 -2.0954 -0.4457  1.2852
 4855SOL    MW419188   4.237   1.790   4.561 -1.1082 -0.6283  0.0998
 4856SOL     OW19189   5.128   1.753   2.766 -0.1105 -0.1468 -0.3992
 4856SOL    HW219190   5.036   1.730   2.754 -1.1838  3.3165  0.2575
 4856SOL    HW319191   5.155   1.790   2.682 -0.6592  2.6682  0.5707
 4856SOL    MW419192   5.120   1.755   2.753 -0.3245  0.6816 -0.1846
 4857SOL     OW19193   4.151   3.760   2.760  0.1397  0.4424  0.4984
 4857SOL    HW219194   4.219   3.722   2.816  0.7498 -1.3644 -1.3382
 4857SOL    HW319195   4.070   3.745   2.807  0.9172  2.5111  2.6751
 4857SOL    MW419196   4.150   3.753   2.773  0.3228  0.4770  0.5432
 4858SOL     OW19197   0.402   0.942   6.351 -0.1211  0.3332  0.3798
 4858SOL    HW219198   0.435   0.899   6.429  1.0708  1.4411  0.5149
 4858SOL    HW319199   0.359   1.021   6.384 -0.1933  0.4699 -0.0403
 4858SOL    MW419200   0.401   0.947   6.366  0.0266  0.4974  0.3422
 4859SOL     OW19201   0.506   6.197   6.134  0.3733  0.0173 -0.0988
 4859SOL    HW219202   0.558   6.269   6.170 -0.1206 -0.8432  2.5188
 4859SOL    HW319203   0.549   6.118   6.166 -0.3740 -0.8107 -1.0771
 4859SOL    MW419204   0.518   6.196   6.143  0.2096 -0.2055  0.1175
 4860SOL     OW19205   5.346   3.179   0.399  0.3685 -0.0937  0.1307
 4860SOL    HW219206   5.377   3.267   0.380  0.7098 -0.5908 -1.8227
 4860SOL    HW319207   5.259   3.176   0.359  0.0322 -0.4060  0.8743
 4860SOL    MW419208   5.338   3.190   0.391  0.3692 -0.2005 -0.0289
 4861SOL     OW19209   1.697   2.920   2.883  0.7973 -0.9759  0.6838
 4861SOL    HW219210   1.742   2.871   2.814  2.2360 -0.8242  1.4861
 4861SOL    HW319211   1.623   2.961   2.838  1.2661 -1.4891 -0.6102
 4861SOL    MW419212   1.693   2.919   2.868  1.0490 -1.0236  0.6189
 4862SOL     OW19213   6.136   0.785   2.595 -0.4184  0.6609 -0.0425
 4862SOL    HW219214   6.203   0.759   2.659 -1.1642 -0.0852  0.4619
 4862SOL    HW319215   6.053   0.774   2.642 -0.8362  4.6531  0.4802
 4862SOL    MW419216   6.134   0.780   2.610 -0.5719  1.0892  0.0930
 4863SOL     OW19217   1.505   6.236   2.432 -0.4630 -0.7313 -0.3050
 4863SOL    HW219218   1.538   6.215   2.344  1.6484 -0.0849  0.2683
 4863SOL    HW319219   1.430   6.292   2.417  0.9237  0.8719 -1.7395
 4863SOL    MW419220   1.500   6.240   2.418 -0.0014 -0.4345 -0.4186
 4864SOL     OW19221   2.222   5.271   5.587  0.2961  0.5138 -0.2514
 4864SOL    HW219222   2.204   5.364   5.601 -2.2897  0.3800 -2.1369
 4864SOL    HW319223   2.172   5.226   5.655 -1.9921  0.3990 -1.9117
 4864SOL    MW419224   2.213   5.277   5.598 -0.3469  0.4810 -0.7192
 4865SOL     OW19225   6.213   4.631   5.846 -0.3107 -0.0937  0.0664
 4865SOL    HW219226   6.141   4.679   5.888 -1.0108 -0.5923 -0.5207
 4865SOL    HW319227   6.194   4.639   5.752 -0.3007 -1.2754 -0.0529
 4865SOL    MW419228   6.201   4.639   5.839 -0.4018 -0.3154 -0.0268
 4866SOL     OW19229   0.273   4.626   3.058  0.5291  0.6382  0.3022
 4866SOL    HW219230   0.296   4.712   3.020  0.7252  0.5782  0.2845
 4866SOL    HW319231   0.330   4.564   3.012  0.8077  0.5712  0.7393
 4866SOL    MW419232   0.283   4.630   3.047  0.5917  0.6214  0.3575
 4867SOL     OW19233   2.734   2.746   2.435 -0.3517  0.1549  0.3743
 4867SOL    HW219234   2.643   2.757   2.460 -0.3474  1.2561 -0.0401
 4867SOL    HW319235   2.738   2.778   2.344  0.1779 -1.1622 -0.1004
 4867SOL    MW419236   2.723   2.752   2.426 -0.2813  0.1264  0.2570
 4868SOL     OW19237   4.623   3.872   1.615 -0.0307  0.4604  0.1233
 4868SOL    HW219238   4.656   3.809   1.551 -0.2644 -0.2681  0.7139
 4868SOL    HW319239   4.684   3.946   1.609 -0.3622  0.6450 -1.3206
 4868SOL    MW419240   4.635   3.873   1.606 -0.1053  0.3887  0.0107
 4869SOL     OW19241   3.455   3.225   5.109  0.2409  0.1758  0.3514
 4869SOL    HW219242   3.455   3.135   5.076 -0.8697 -0.2259  1.3687
 4869SOL    HW319243   3.545   3.256   5.093  0.6453 -1.1016 -0.0159
 4869SOL    MW419244   3.467   3.217   5.102  0.1477 -0.0458  0.4372
 4870SOL     OW19245   4.668   0.335   1.758  0.1203  0.1763 -0.2336
 4870SOL    HW219246   4.604   0.283   1.710  0.7297 -0.2035 -0.6468
 4870SOL    HW319247   4.681   0.413   1.704 -1.0927  0.9858  0.5803
 4870SOL    MW419248   4.662   0.338   1.745  0.0407  0.2330 -0.1807
 4871SOL     OW19249   5.920   6.224   5.985 -0.0392  0.6430 -0.0095
 4871SOL    HW219250   5.937   6.263   6.071 -0.5079 -0.1645  0.4581
 4871SOL    HW319251   6.002   6.236   5.937  0.1795  1.2287  0.4913
 4871SOL    MW419252   5.933   6.231   5.990 -0.0722  0.6137  0.1183
 4872SOL     OW19253   0.907   5.178   0.807 -0.1045 -0.2013 -0.5187
 4872SOL    HW219254   0.851   5.170   0.730 -0.2410  0.0665 -0.4459
 4872SOL    HW319255   0.915   5.272   0.821 -1.7043 -0.2510  0.9813
 4872SOL    MW419256   0.901   5.189   0.798 -0.3336 -0.1725 -0.3112
 4873SOL     OW19257   3.099   6.188   2.155 -0.1243 -0.6081 -0.4300
 4873SOL    HW219258   3.013   6.146   2.157 -0.0466 -0.8289  2.2267
 4873SOL    HW319259   3.157   6.126   2.199  0.4068  1.3189  1.7759
 4873SOL    MW419260   3.095   6.175   2.161 -0.0440 -0.3829  0.2115
 4874SOL     OW19261   2.054   0.128   6.210 -0.3675 -0.0477  0.2995
 4874SOL    HW219262   2.017   0.180   6.138 -1.2810 -1.9762 -0.6934
 4874SOL    HW319263   2.149   0.132   6.195 -0.5381 -0.5267 -1.1652
 4874SOL    MW419264   2.062   0.135   6.198 -0.5105 -0.3653 -0.0247
 4875SOL     OW19265   3.316   5.924   0.775 -0.1196 -0.2218 -0.4013
 4875SOL    HW219266   3.355   5.861   0.836  1.2613  0.0287 -0.9982
 4875SOL    HW319267   3.319   6.008   0.821 -0.2875 -0.2645 -0.3115
 4875SOL    MW419268   3.321   5.927   0.789  0.0404 -0.1944 -0.4682
 4876SOL     OW19269   5.987   3.981   4.111  0.0279  0.1190  0.3187
 4876SOL    HW219270   5.981   4.019   4.023 -3.4125 -1.7974 -0.4620
 4876SOL    HW319271   6.017   3.891   4.097 -1.1388 -0.3989  0.9833
 4876SOL    MW419272   5.990   3.974   4.097 -0.5800 -0.2022  0.3034
 4877SOL     OW19273   0.983   4.327   4.399 -0.0163 -0.0138 -0.5815
 4877SOL    HW219274   0.903   4.324   4.452  0.8943  0.3805  0.8785
 4877SOL    HW319275   0.991   4.419   4.373 -0.7555 -0.3033 -1.9265
 4877SOL    MW419276   0.973   4.339   4.403  0.0063  0.0000 -0.5663
 4878SOL     OW19277   5.675   5.587   6.222  0.6076  0.2709  0.5888
 4878SOL    HW219278   5.613   5.648   6.262  0.1137 -0.0676  0.3468
 4878SOL    HW319279   5.726   5.641   6.162 -0.0616  0.3928  0.1138
 4878SOL    MW419280   5.673   5.602   6.220  0.4542  0.2423  0.4942
 4879SOL     OW19281   0.263   0.757   6.036 -0.1393  0.2390 -0.0590
 4879SOL    HW219282   0.178   0.776   5.997  0.4516 -0.9652 -2.0985
 4879SOL    HW319283   0.291   0.840   6.074 -1.0411  1.3811 -1.7321
 4879SOL    MW419284   0.255   0.770   6.036 -0.1803  0.2308 -0.5488
 4880SOL     OW19285   6.321   5.015   4.808 -0.0830  0.0186 -0.2075
 4880SOL    HW219286   6.390   5.080   4.799 -0.1527  0.1271  0.0289
 4880SOL    HW319287   6.348   4.962   4.884  1.7271 -2.3774 -2.3489
 4880SOL    MW419288   6.333   5.016   4.817  0.1466 -0.2832 -0.4588
 4881SOL     OW19289   1.684   4.096   4.852  0.1961 -0.1072  0.1493
 4881SOL    HW219290   1.630   4.139   4.786 -1.1047 -2.3319 -0.3320
 4881SOL    HW319291   1.687   4.157   4.925 -2.1540  0.5301 -0.2192
 4881SOL    MW419292   1.677   4.109   4.853 -0.2856 -0.3166  0.0372
 4882SOL     OW19293   3.140   2.604   3.572  0.9956 -0.3408 -0.6497
 4882SOL    HW219294   3.121   2.511   3.566  1.8811 -0.5522 -0.2817
 4882SOL    HW319295   3.164   2.619   3.663  2.6119 -0.1108 -1.0837
 4882SOL    MW419296   3.141   2.594   3.583  1.3257 -0.3384 -0.6584
 4883SOL     OW19297   1.182   0.799   3.970  0.1403 -0.3898  1.0064
 4883SOL    HW219298   1.125   0.860   3.923  1.1175  0.8423  1.3827
 4883SOL    HW319299   1.201   0.730   3.907 -1.0072 -0.3393  0.5790
 4883SOL    MW419300   1.177   0.798   3.956  0.1178 -0.2205  0.9997
 4884SOL     OW19301   6.341   5.446   4.261 -0.5145  0.1235  0.1820
 4884SOL    HW219302   6.271   5.509   4.242  1.5727  2.2446 -1.0519
 4884SOL    HW319303   6.381   5.480   4.341  0.6101  0.3888 -0.4774
 4884SOL    MW419304   6.337   5.459   4.269 -0.0907  0.4384 -0.0678
 4885SOL     OW19305   1.335   2.332   4.506  0.1227 -0.0369 -0.0684
 4885SOL    HW219306   1.368   2.404   4.452 -0.6044  0.8502  0.6369
 4885SOL    HW319307   1.404   2.266   4.502  2.1396  1.8181  1.4894
 4885SOL    MW419308   1.348   2.333   4.499  0.2929  0.3249  0.2302
 4886SOL     OW19309   4.922   4.656   0.146 -0.0264 -0.6601 -0.3509
 4886SOL    HW219310   4.873   4.573   0.145 -1.2167 -0.0325 -2.8266
 4886SOL    HW319311   4.998   4.639   0.090  0.4900 -0.4470  0.2698
 4886SOL    MW419312   4.925   4.643   0.138 -0.1153 -0.5492 -0.5956
 4887SOL     OW19313   4.286   2.080   0.098  0.3847 -0.5701 -0.1455
 4887SOL    HW219314   4.286   2.050   0.188 -2.0224  0.5729  0.3335
 4887SOL    HW319315   4.287   2.176   0.105 -0.7283 -0.4466 -1.2629
 4887SOL    MW419316   4.286   2.089   0.110 -0.0797 -0.4030 -0.2297
 4888SOL     OW19317   0.374   3.916   3.346 -0.0612 -0.1033 -0.0404
 4888SOL    HW219318   0.468   3.937   3.344 -0.3622  1.2971 -0.1407
 4888SOL    HW319319   0.333   3.985   3.295 -0.9916 -1.7570 -1.6563
 4888SOL    MW419320   0.381   3.928   3.339 -0.2237 -0.1367 -0.2668
 4889SOL     OW19321   0.514   5.661   3.266 -0.0194  0.2159  0.2364
 4889SOL    HW219322   0.536   5.571   3.241  2.4422  0.5456  0.9285
 4889SOL    HW319323   0.528   5.712   3.186 -0.0083  0.1801  0.2154
 4889SOL    MW419324   0.519   5.656   3.252  0.3068  0.2547  0.3250
 4890SOL     OW19325   1.310   5.411   3.516 -0.0439  0.0859 -0.8075
 4890SOL    HW219326   1.228   5.450   3.487 -0.1587  0.8157  0.4607
 4890SOL    HW319327   1.287   5.322   3.543 -0.1207 -0.2399 -1.8788
 4890SOL    MW419328   1.296   5.404   3.515 -0.0692  0.1392 -0.7815
 4891SOL     OW19329   0.380   6.355   2.708 -0.2560  0.1322  0.3305
 4891SOL    HW219330   0.284   6.354   2.716 -0.1853  0.5977  1.3514
 4891SOL    HW319331   0.404   6.263   2.699 -0.8522  0.0652 -0.7798
 4891SOL    MW419332   0.370   6.343   2.708 -0.3254  0.1848  0.3187
 4892SOL     OW19333   3.149   3.754   2.372 -0.4548 -0.4441  0.4905
 4892SOL    HW219334   3.197   3.704   2.305 -1.6841 -0.2431 -0.5655
 4892SOL    HW319335   3.158   3.701   2.451 -1.2921 -2.1236 -0.4779
 4892SOL    MW419336   3.157   3.740   2.374 -0.7275 -0.6392  0.2234
 4893SOL     OW19337   3.702   6.328   5.519 -0.0488 -0.4197 -0.5014
 4893SOL    HW219338   3.764   6.263   5.553 -0.6455 -1.7380 -1.8218
 4893SOL    HW319339   3.722   6.408   5.568  1.6669 -1.2064  0.1734
 4893SOL    MW419340   3.713   6.330   5.530  0.0988 -0.6974 -0.5866
 4894SOL     OW19341   5.434   4.535   2.826  0.2197 -0.7588 -0.5436
 4894SOL    HW219342   5.408   4.611   2.774 -0.7703  0.7156  1.8919
 4894SOL    HW319343   5.520   4.511   2.793  0.7768  1.7433 -1.1316
 4894SOL    MW419344   5.442   4.542   2.815  0.1626 -0.2342 -0.2998
 4895SOL     OW19345   4.223   2.600   0.887  0.4414 -0.1288  0.1446
 4895SOL    HW219346   4.178   2.685   0.892 -1.8324 -1.2984  1.0616
 4895SOL    HW319347   4.250   2.582   0.977  0.1938 -0.7268  0.1034
 4895SOL    MW419348   4.220   2.609   0.899  0.1087 -0.3620  0.2601
 4896SOL     OW19349   4.557   4.639   4.396 -0.4656  0.2652  0.1604
 4896SOL    HW219350   4.623   4.604   4.456 -0.9339 -2.4634 -0.7431
 4896SOL    HW319351   4.514   4.561   4.361 -2.7266  1.8863 -0.9056
 4896SOL    MW419352   4.560   4.624   4.399 -0.8257  0.1191 -0.0995
 4897SOL     OW19353   3.108   0.871   1.050  0.2167 -0.2749 -0.3870
 4897SOL    HW219354   3.130   0.823   1.129 -0.2313 -2.2785 -1.4182
 4897SOL    HW319355   3.023   0.911   1.069  0.4106 -0.2083  0.3605
 4897SOL    MW419356   3.100   0.870   1.063  0.1832 -0.5305 -0.4244
 4898SOL     OW19357   3.807   0.255   2.699  0.5629 -0.0998  0.6090
 4898SOL    HW219358   3.769   0.186   2.646 -0.5709  0.6342  0.4327
 4898SOL    HW319359   3.736   0.282   2.758  1.6872 -0.6785  2.3073
 4898SOL    MW419360   3.792   0.250   2.700  0.5616 -0.0793  0.8098
 4899SOL     OW19361   1.281   1.845   4.642 -0.0730  0.6670  0.2187
 4899SOL    HW219362   1.223   1.889   4.705 -1.1597 -0.5473  0.1129
 4899SOL    HW319363   1.247   1.756   4.637  0.8156  0.3784 -1.0995
 4899SOL    MW419364   1.269   1.839   4.650 -0.0991  0.4687  0.0308
 4900SOL     OW19365   1.324   1.512   1.877 -0.1051 -0.4891  0.0885
 4900SOL    HW219366   1.382   1.584   1.853  0.0529 -0.3606  0.8439
 4900SOL    HW319367   1.332   1.505   1.972  1.7359 -3.0395 -0.1321
 4900SOL    MW419368   1.333   1.521   1.886  0.1586 -0.8087  0.1591
 4901SOL     OW19369   1.139   1.198   5.772  0.2625 -0.4834 -0.1379
 4901SOL    HW219370   1.077   1.228   5.838  1.6482 -1.8823  1.9201
 4901SOL    HW319371   1.086   1.186   5.693 -1.3545  1.8100  0.4889
 4901SOL    MW419372   1.124   1.200   5.770  0.2320 -0.3654  0.2163
 4902SOL     OW19373   3.513   5.784   5.875 -0.1724  0.0840  0.2972
 4902SOL    HW219374   3.584   5.720   5.881 -0.2881  0.0595  1.5657
 4902SOL    HW319375   3.460   5.768   5.953 -1.2878  0.4517 -0.3687
 4902SOL    MW419376   3.515   5.773   5.886 -0.3349  0.1292  0.3767
 4903SOL     OW19377   4.326   0.717   1.198  0.0315  0.2249 -0.1008
 4903SOL    HW219378   4.380   0.780   1.246  0.5345  0.0751 -0.4660
 4903SOL    HW319379   4.272   0.675   1.266 -1.3282  2.0209 -0.0112
 4903SOL    MW419380   4.326   0.720   1.213 -0.0815  0.4421 -0.1371
 4904SOL     OW19381   4.722   0.703   3.112 -0.6074  0.2174  0.0650
 4904SOL    HW219382   4.634   0.732   3.086 -1.0395 -0.2433  0.9672
 4904SOL    HW319383   4.709   0.659   3.195  0.6921  1.4317  0.9608
 4904SOL    MW419384   4.708   0.701   3.119 -0.4929  0.3169  0.3022
 4905SOL     OW19385   1.371   0.330   0.218 -0.2682  0.2786 -0.2764
 4905SOL    HW219386   1.436   0.298   0.156  0.3886  1.4896 -0.2426
 4905SOL    HW319387   1.419   0.392   0.274 -1.3633  0.9340 -0.0231
 4905SOL    MW419388   1.386   0.334   0.217 -0.3260  0.5249 -0.2385
 4906SOL     OW19389   2.179   1.833   5.418 -0.2826 -0.2229  0.0338
 4906SOL    HW219390   2.089   1.844   5.387 -1.0052  0.9615  2.3468
 4906SOL    HW319391   2.233   1.868   5.347 -1.5555 -1.4381 -1.6317
 4906SOL    MW419392   2.174   1.839   5.404 -0.5459 -0.2270  0.1192
 4907SOL     OW19393   2.047   3.111   3.334 -0.2699 -0.2505  0.1521
 4907SOL    HW219394   2.097   3.064   3.267 -0.5239  2.1383 -1.8379
 4907SOL    HW319395   2.112   3.141   3.397  0.3498 -0.0569 -0.5743
 4907SOL    MW419396   2.062   3.109   3.334 -0.2217  0.0902 -0.2063
 4908SOL     OW19397   4.388   5.437   2.181  0.2215  0.0742 -0.1454
 4908SOL    HW219398   4.392   5.532   2.168 -0.7364  0.3093  1.0724
 4908SOL    HW319399   4.449   5.401   2.117  2.4190  1.6580  0.9586
 4908SOL    MW419400   4.396   5.445   2.170  0.3851  0.3142  0.1609
 4909SOL     OW19401   5.819   2.956   5.127 -0.1300  0.3781 -0.1662
 4909SOL    HW219402   5.788   2.926   5.212  0.9988  0.1687  0.1852
 4909SOL    HW319403   5.740   2.956   5.072 -0.3381 -2.7842 -0.0602
 4909SOL    MW419404   5.804   2.952   5.131 -0.0085 -0.0667 -0.1059
 4910SOL     OW19405   3.478   6.354   6.113  0.1514  0.2465 -0.4194
 4910SOL    HW219406   3.501   6.424   6.174  0.2850 -0.7655  0.7323
 4910SOL    HW319407   3.404   6.309   6.155 -0.4787  0.1916 -1.5401
 4910SOL    MW419408   3.471   6.358   6.126  0.0859  0.1057 -0.4153
 4911SOL     OW19409   2.371   4.992   6.333 -0.2290  0.0399 -0.4752
 4911SOL    HW219410   2.454   5.007   6.288  0.6665 -2.6888  0.1001
 4911SOL    HW319411   2.387   5.021   6.423  0.0832 -0.3689 -0.3949
 4911SOL    MW419412   2.384   4.998   6.339 -0.0697 -0.3740 -0.3887
 4912SOL     OW19413   3.099   2.288   5.846 -0.1320 -0.2744  0.1016
 4912SOL    HW219414   3.187   2.254   5.861  0.7489  1.1659 -1.4176
 4912SOL    HW319415   3.044   2.244   5.911  1.3454 -2.6630 -0.1359
 4912SOL    MW419416   3.103   2.278   5.856  0.1791 -0.3995 -0.1302
 4913SOL     OW19417   3.250   5.956   5.519 -0.3231  0.5982  0.4514
 4913SOL    HW219418   3.279   5.867   5.540 -2.1327 -0.0074  0.4933
 4913SOL    HW319419   3.266   6.005   5.600  0.9507  0.4188  0.3387
 4913SOL    MW419420   3.256   5.950   5.533 -0.3938  0.4947  0.4421
 4914SOL     OW19421   3.293   4.965   4.480  0.1164 -0.0619  0.0162
 4914SOL    HW219422   3.199   4.982   4.479  0.4172  1.8057 -0.0876
 4914SOL    HW319423   3.313   4.945   4.571 -0.8098 -3.5700 -0.4124
 4914SOL    MW419424   3.284   4.965   4.492  0.0338 -0.2783 -0.0541
 4915SOL     OW19425   4.049   5.911   5.039 -0.0233  0.2427 -0.1185
 4915SOL    HW219426   3.968   5.926   5.088 -0.9234  0.9668 -1.7410
 4915SOL    HW319427   4.111   5.878   5.104 -0.9820  1.6738  1.6038
 4915SOL    MW419428   4.047   5.909   5.054 -0.2686  0.5271 -0.1054
 4916SOL     OW19429   5.912   1.925   1.438  0.1844  0.3454  0.4010
 4916SOL    HW219430   5.867   1.845   1.465 -0.0255  0.0791 -0.6828
 4916SOL    HW319431   5.851   1.968   1.378  1.6736 -0.5220 -1.8916
 4916SOL    MW419432   5.898   1.920   1.433  0.3532  0.1958 -0.0445
 4917SOL     OW19433   3.927   6.253   2.832  0.4115  0.0323 -0.2458
 4917SOL    HW219434   3.950   6.200   2.756  1.2863  0.1628 -0.0879
 4917SOL    HW319435   3.831   6.256   2.832  0.4059  0.5778 -1.7122
 4917SOL    MW419436   3.917   6.246   2.822  0.5262  0.1214 -0.4185
 4918SOL     OW19437   2.460   2.298   5.471 -0.2112  0.1307  0.5533
 4918SOL    HW219438   2.494   2.209   5.467  0.5858  0.3609  1.5962
 4918SOL    HW319439   2.538   2.354   5.474 -0.6979  0.8505  0.0787
 4918SOL    MW419440   2.475   2.294   5.471 -0.1703  0.2560  0.6283
 4919SOL     OW19441   5.627   4.062   5.723  0.0981 -0.2606 -0.3035
 4919SOL    HW219442   5.545   4.084   5.767 -0.0719 -0.0857 -0.7090
 4919SOL    HW319443   5.695   4.092   5.784 -0.1263 -0.9403  0.3062
 4919SOL    MW419444   5.626   4.069   5.737  0.0461 -0.3272 -0.2766
 4920SOL     OW19445   3.003   0.308   5.598 -0.2332  0.2232 -0.1312
 4920SOL    HW219446   3.063   0.248   5.642 -0.4527  0.1826  0.1157
 4920SOL    HW319447   2.920   0.259   5.593  0.3426 -0.6624 -2.5494
 4920SOL    MW419448   3.000   0.293   5.603 -0.1862  0.1010 -0.4177
 4921SOL     OW19449   4.998   5.472   3.429 -0.3493 -0.0319  0.3575
 4921SOL    HW219450   4.935   5.540   3.453  1.6522  1.3772  1.9887
 4921SOL    HW319451   5.020   5.490   3.337  0.1047  1.5275  0.7490
 4921SOL    MW419452   4.992   5.483   3.420 -0.0254  0.3597  0.6244
 4922SOL     OW19453   1.577   2.922   0.049  0.4759  0.7425 -0.0165
 4922SOL    HW219454   1.581   3.017   0.062  1.1089  0.6671  0.3501
 4922SOL    HW319455   1.523   2.911  -0.029  1.8750  1.4917 -1.1408
 4922SOL    MW419456   1.570   2.933   0.041  0.7440  0.8314 -0.1165
 4923SOL     OW19457   6.251   2.350   3.386 -0.3316  0.4119  0.0337
 4923SOL    HW219458   6.162   2.345   3.420 -0.4884  0.0305 -0.4384
 4923SOL    HW319459   6.261   2.441   3.358 -0.5686  0.4522  0.0795
 4923SOL    MW419460   6.241   2.361   3.387 -0.3836  0.3669 -0.0225
 4924SOL     OW19461   0.994   0.804   4.546  0.6275 -0.1062 -0.0387
 4924SOL    HW219462   1.079   0.809   4.591 -0.7770 -0.6423  2.9523
 4924SOL    HW319463   0.931   0.791   4.617 -1.9117 -0.3589 -2.2085
 4924SOL    MW419464   0.997   0.803   4.562  0.1071 -0.2103  0.0697
 4925SOL     OW19465   3.055   1.392   1.581 -0.2603 -0.1057 -0.3503
 4925SOL    HW219466   3.106   1.454   1.530 -2.0980  0.5491 -1.4724
 4925SOL    HW319467   3.007   1.446   1.644  0.8551 -0.7720  1.1344
 4925SOL    MW419468   3.056   1.407   1.583 -0.3556 -0.1072 -0.3025
 4926SOL     OW19469   5.360   2.798   5.280 -0.0326 -0.2529 -0.2956
 4926SOL    HW219470   5.331   2.828   5.366 -1.8580  1.4443 -1.3992
 4926SOL    HW319471   5.296   2.731   5.255 -0.2363  0.1138 -0.7911
 4926SOL    MW419472   5.347   2.793   5.288 -0.3003  0.0194 -0.5066
 4927SOL     OW19473   5.555   5.470   0.896 -0.1849  0.3841  0.8285
 4927SOL    HW219474   5.631   5.472   0.837 -1.3173 -0.9708 -0.7858
 4927SOL    HW319475   5.480   5.484   0.838 -1.2802 -0.0291  2.1081
 4927SOL    MW419476   5.555   5.472   0.880 -0.4788  0.1508  0.7843
 4928SOL     OW19477   5.370   5.765   4.422 -0.1703 -0.1542  0.7067
 4928SOL    HW219478   5.462   5.750   4.445 -0.1103 -0.9753 -0.0264
 4928SOL    HW319479   5.322   5.696   4.467 -0.2273 -0.7723 -0.2715
 4928SOL    MW419480   5.376   5.754   4.431 -0.1699 -0.3441  0.4809
 4929SOL     OW19481   4.474   6.322   1.031  0.1487  0.4890  0.0760
 4929SOL    HW219482   4.533   6.248   1.041  0.3952  0.6403 -0.2490
 4929SOL    HW319483   4.418   6.318   1.108 -0.2779 -0.4207 -0.2734
 4929SOL    MW419484   4.475   6.312   1.043  0.1250  0.3889 -0.0130
 4930SOL     OW19485   3.455   3.258   4.646  0.0670  0.3803 -0.1248
 4930SOL    HW219486   3.460   3.318   4.571  0.8070  1.7265  0.9730
 4930SOL    HW319487   3.540   3.212   4.645 -0.9446 -1.6506 -1.6959
 4930SOL    MW419488   3.467   3.260   4.636  0.0311  0.2899 -0.1873
 4931SOL     OW19489   5.553   1.580   5.656  0.3982  0.0449 -0.4794
 4931SOL    HW219490   5.542   1.670   5.686 -1.5793 -0.8196  1.7508
 4931SOL    HW319491   5.480   1.564   5.597 -0.8508 -0.8120  1.2189
 4931SOL    MW419492   5.542   1.589   5.652 -0.0275 -0.1823  0.0389
 4932SOL     OW19493   4.825   0.266   4.875  0.2803 -0.0316 -0.4354
 4932SOL    HW219494   4.804   0.346   4.924 -0.2867  1.4340 -2.9134
 4932SOL    HW319495   4.888   0.220   4.931  0.7939  2.2494  1.0031
 4932SOL    MW419496   4.831   0.271   4.889  0.2733  0.4627 -0.5726
 4933SOL     OW19497   3.590   3.661   6.351  0.2498  0.1884 -0.3181
 4933SOL    HW219498   3.585   3.752   6.322 -0.3839 -0.2068 -1.5350
 4933SOL    HW319499   3.661   3.624   6.299  0.4490 -0.0425  0.1141
 4933SOL    MW419500   3.599   3.668   6.340  0.1925  0.1058 -0.4216
 4934SOL     OW19501   0.706   0.146   2.284  0.0108 -0.5135  0.2501
 4934SOL    HW219502   0.683   0.054   2.275  2.7356 -1.2457  0.0937
 4934SOL    HW319503   0.801   0.148   2.283  0.0470  2.3233  0.2672
 4934SOL    MW419504   0.715   0.134   2.283  0.3751 -0.2358  0.2317
 4935SOL     OW19505   1.533   2.467   0.642 -0.0012 -0.2892  0.7454
 4935SOL    HW219506   1.525   2.539   0.705  1.1215 -0.2388  0.8631
 4935SOL    HW319507   1.541   2.389   0.696 -1.6066 -0.5743  0.6134
 4935SOL    MW419508   1.533   2.466   0.658 -0.0649 -0.3202  0.7435
 4936SOL     OW19509   2.799   3.425   1.724  0.3062 -0.3941  0.2788
 4936SOL    HW219510   2.795   3.432   1.628 -0.0446  0.6632  0.3621
 4936SOL    HW319511   2.768   3.336   1.742  0.9530 -0.8203 -0.6199
 4936SOL    MW419512   2.794   3.414   1.713  0.3452 -0.3108  0.1712
 4937SOL     OW19513   3.382   4.613   3.337 -0.1666 -0.3316 -0.1892
 4937SOL    HW219514   3.355   4.598   3.427  1.4856 -0.3013  0.3330
 4937SOL    HW319515   3.378   4.708   3.326  1.3653 -0.1757  0.4423
 4937SOL    MW419516   3.378   4.623   3.347  0.2535 -0.3070 -0.0370
 4938SOL     OW19517   6.179   1.188   0.701  0.5001 -0.7155 -0.4182
 4938SOL    HW219518   6.263   1.173   0.746  0.1369 -0.7886  0.2406
 4938SOL    HW319519   6.147   1.101   0.680  1.2896 -0.6656 -2.0185
 4938SOL    MW419520   6.186   1.175   0.704  0.5564 -0.7186 -0.5424
 4939SOL     OW19521   0.370   1.590   2.248  0.0946 -0.0129  0.6738
 4939SOL    HW219522   0.444   1.629   2.202  0.8288  0.2556  2.0316
 4939SOL    HW319523   0.373   1.498   2.225  1.1426 -0.0881  1.0545
 4939SOL    MW419524   0.380   1.583   2.239  0.3298  0.0126  0.9032
 4940SOL     OW19525   2.504   2.570   5.705  0.8020  0.4980  0.3035
 4940SOL    HW219526   2.440   2.588   5.636  0.2092 -1.7641  0.1628
 4940SOL    HW319527   2.520   2.655   5.746 -0.4228  1.5435 -1.2528
 4940SOL    MW419528   2.497   2.583   5.701  0.5622  0.3375  0.0796
 4941SOL     OW19529   3.379   0.504   2.892 -0.3139 -1.2197 -0.2715
 4941SOL    HW219530   3.323   0.557   2.835  0.1104 -0.4273  0.0431
 4941SOL    HW319531   3.384   0.553   2.974 -0.0807 -1.8469  0.0975
 4941SOL    MW419532   3.372   0.518   2.895 -0.2271 -1.1979 -0.1813
 4942SOL     OW19533   1.897   5.487   2.639 -0.4191 -0.6609  0.0734
 4942SOL    HW219534   1.921   5.452   2.725 -0.3301  0.0632  0.3585
 4942SOL    HW319535   1.908   5.582   2.649  1.1958 -0.6657 -1.2324
 4942SOL    MW419536   1.902   5.495   2.652 -0.1943 -0.5660 -0.0613
 4943SOL     OW19537   2.287   0.478   4.036 -0.2448 -0.8937 -0.0085
 4943SOL    HW219538   2.247   0.560   4.067  1.2325  0.0946 -0.5777
 4943SOL    HW319539   2.341   0.449   4.109 -0.1736 -0.9426 -0.0815
 4943SOL    MW419540   2.289   0.485   4.050 -0.0405 -0.7697 -0.0932
 4944SOL     OW19541   5.258   3.759   4.175 -0.2249 -0.0950  0.7088
 4944SOL    HW219542   5.207   3.820   4.229 -0.1290  0.5225  0.1120
 4944SOL    HW319543   5.227   3.774   4.086  0.9096  0.1968  0.3514
 4944SOL    MW419544   5.247   3.769   4.171 -0.0626  0.0250  0.5829
 4945SOL     OW19545   4.493   2.886   6.143  0.4996  0.2453 -0.0318
 4945SOL    HW219546   4.407   2.905   6.181  0.3347 -1.2949  0.4456
 4945SOL    HW319547   4.474   2.832   6.066  1.0285 -0.0605  0.0457
 4945SOL    MW419548   4.479   2.881   6.138  0.5476  0.0017  0.0414
 4946SOL     OW19549   0.783   5.637   3.634  0.4124 -0.1869  0.0860
 4946SOL    HW219550   0.777   5.680   3.549 -0.9632  0.8405  0.6625
 4946SOL    HW319551   0.707   5.668   3.683  0.8122 -1.2484  1.4809
 4946SOL    MW419552   0.772   5.647   3.629  0.2837 -0.1914  0.3461
 4947SOL     OW19553   2.984   2.858   1.417  0.0775  0.3291 -0.4497
 4947SOL    HW219554   3.067   2.830   1.378 -0.6387 -0.4333 -1.4546
 4947SOL    HW319555   2.966   2.793   1.485  0.1952  0.4022 -0.3452
 4947SOL    MW419556   2.993   2.846   1.421 -0.0015  0.2381 -0.5685
 4948SOL     OW19557   0.131   4.462   0.772 -0.2029  0.5147  0.0249
 4948SOL    HW219558   0.156   4.550   0.798  0.6578  0.0387  0.8907
 4948SOL    HW319559   0.040   4.454   0.801  0.0717  0.7367  1.0053
 4948SOL    MW419560   0.122   4.472   0.779 -0.0531  0.4812  0.2685
 4949SOL     OW19561   4.250   3.339   0.747  0.3468  0.3640 -0.6148
 4949SOL    HW219562   4.240   3.414   0.805  1.6250 -1.2223  1.8239
 4949SOL    HW319563   4.327   3.294   0.780  0.4762 -1.2703 -2.9127
 4949SOL    MW419564   4.259   3.343   0.759  0.5325 -0.0609 -0.5963
 4950SOL     OW19565   4.244   4.545   2.352  0.2877  0.0363 -0.1035
 4950SOL    HW219566   4.169   4.529   2.295 -0.4736 -0.8753  1.1312
 4950SOL    HW319567   4.240   4.638   2.372 -0.8522 -0.1108  0.4025
 4950SOL    MW419568   4.234   4.555   2.347  0.0369 -0.1034  0.1262
 4951SOL     OW19569   3.634   5.275   0.444 -0.1353  0.1518 -0.4480
 4951SOL    HW219570   3.701   5.293   0.379 -0.8770  0.9480 -1.0164
 4951SOL    HW319571   3.553   5.309   0.406 -0.7747 -0.3028  0.4449
 4951SOL    MW419572   3.632   5.282   0.431 -0.3176  0.1969 -0.4052
 4952SOL     OW19573   3.877   3.278   1.778  0.2956 -0.2025 -0.1360
 4952SOL    HW219574   3.809   3.211   1.787  0.3962 -0.2111  0.6374
 4952SOL    HW319575   3.833   3.359   1.805  0.2949 -0.0289 -0.6560
 4952SOL    MW419576   3.862   3.280   1.783  0.3088 -0.1807 -0.1025
 4953SOL     OW19577   4.542   0.917   0.884  0.2988  0.3136  0.2160
 4953SOL    HW219578   4.615   0.888   0.940 -0.8098 -0.9788  1.0691
 4953SOL    HW319579   4.523   1.005   0.914  1.2732  0.5288  0.2330
 4953SOL    MW419580   4.549   0.925   0.896  0.2811  0.1715  0.3308
 4954SOL     OW19581   1.582   2.690   0.811 -0.3980  0.2439 -0.2452
 4954SOL    HW219582   1.658   2.708   0.867  0.1639 -1.0353 -0.5480
 4954SOL    HW319583   1.507   2.697   0.871 -0.0552  1.4650  0.0684
 4954SOL    MW419584   1.582   2.693   0.827 -0.2786  0.2363 -0.2438
 4955SOL     OW19585   0.509   3.011   2.351 -0.3253 -0.1529 -0.1875
 4955SOL    HW219586   0.519   3.078   2.419  0.1971 -0.1111 -0.2993
 4955SOL    HW319587   0.578   2.946   2.371 -0.0509 -0.0503 -0.7755
 4955SOL    MW419588   0.520   3.011   2.363 -0.2202 -0.1339 -0.2799
 4956SOL     OW19589   0.708   2.507   3.894 -0.0725  0.0790 -0.2013
 4956SOL    HW219590   0.637   2.553   3.849 -1.5607 -0.1656  1.7471
 4956SOL    HW319591   0.755   2.576   3.941 -0.0926  0.0419 -0.1257
 4956SOL    MW419592   0.705   2.522   3.895 -0.2715  0.0418  0.0657
 4957SOL     OW19593   5.466   6.095   5.539  0.5630 -0.2066  0.1608
 4957SOL    HW219594   5.560   6.109   5.530  0.4496  0.2983 -0.3219
 4957SOL    HW319595   5.446   6.029   5.473  0.5730 -0.2873  0.2385
 4957SOL    MW419596   5.476   6.088   5.529  0.5493 -0.1507  0.1074
 4958SOL     OW19597   3.626   2.096   4.357  1.2521  0.3394  0.1392
 4958SOL    HW219598   3.716   2.079   4.386  0.9781  0.4614  1.1163
 4958SOL    HW319599   3.634   2.170   4.298  1.7754  0.5068  0.4066
 4958SOL    MW419600   3.639   2.104   4.353  1.2850  0.3776  0.3034
 4959SOL     OW19601   2.095   3.261   0.345  0.0692 -0.1278  0.6560
 4959SOL    HW219602   2.036   3.187   0.331 -0.1823  0.1428  0.2527
 4959SOL    HW319603   2.182   3.226   0.323 -0.1644 -0.0539 -0.4784
 4959SOL    MW419604   2.099   3.246   0.340  0.0052 -0.0824  0.4531
 4960SOL     OW19605   4.246   4.705   2.930 -0.2391 -0.3207 -0.9181
 4960SOL    HW219606   4.295   4.776   2.971 -2.9639  1.1260  0.0406
 4960SOL    HW319607   4.163   4.701   2.978 -1.0050 -2.8494 -2.2355
 4960SOL    MW419608   4.241   4.714   2.942 -0.6997 -0.4635 -0.9654
 4961SOL     OW19609   5.958   0.451   3.581 -0.2557  0.1772 -0.1178
 4961SOL    HW219610   5.874   0.489   3.554 -0.3373 -0.1866 -0.3736
 4961SOL    HW319611   5.954   0.360   3.553  0.1863  0.1314 -0.0398
 4961SOL    MW419612   5.946   0.444   3.574 -0.2082  0.1231 -0.1413
 4962SOL     OW19613   4.496   6.174   1.989 -0.0682  0.4928  0.6451
 4962SOL    HW219614   4.475   6.247   1.930  1.0156  1.1865  1.0957
 4962SOL    HW319615   4.512   6.100   1.931 -0.7884  0.7052  0.1605
 4962SOL    MW419616   4.495   6.174   1.974 -0.0203  0.6123  0.6406
 4963SOL     OW19617   1.335   6.109   1.836 -0.2447  0.7030 -0.1928
 4963SOL    HW219618   1.341   6.018   1.865  1.8838  1.0594  0.6867
 4963SOL    HW319619   1.426   6.138   1.828 -0.6754  1.5516 -4.4557
 4963SOL    MW419620   1.348   6.101   1.839 -0.0207  0.8620 -0.6392
 4964SOL     OW19621   5.167   6.078   0.214  0.2077 -0.2074 -0.4616
 4964SOL    HW219622   5.145   6.109   0.125 -0.9950 -0.0992 -0.1489
 4964SOL    HW319623   5.105   6.007   0.230  0.7694 -0.5709  0.0933
 4964SOL    MW419624   5.156   6.073   0.204  0.1231 -0.2411 -0.3471
 4965SOL     OW19625   4.537   3.597   1.041 -0.0910  0.3280  0.3127
 4965SOL    HW219626   4.450   3.613   1.005  0.4202  1.1510 -0.6058
 4965SOL    HW319627   4.592   3.664   1.001  0.9756 -0.2027  0.8528
 4965SOL    MW419628   4.533   3.608   1.031  0.1172  0.3666  0.2628
 4966SOL     OW19629   2.913   5.906   1.423  0.0515  0.3886  0.0659
 4966SOL    HW219630   2.845   5.861   1.374  1.9342  0.5376 -2.9426
 4966SOL    HW319631   2.870   5.983   1.459 -1.3949  0.5550 -1.8615
 4966SOL    MW419632   2.899   5.910   1.421  0.1091  0.4302 -0.5853
 4967SOL     OW19633   4.398   2.767   5.914  0.3788 -0.1159  0.6849
 4967SOL    HW219634   4.362   2.685   5.879 -0.2918  0.6297 -0.4435
 4967SOL    HW319635   4.322   2.813   5.949  0.5269  0.6034  0.0889
 4967SOL    MW419636   4.383   2.762   5.914  0.3098  0.0774  0.4574
 4968SOL     OW19637   1.948   3.494   5.305 -0.2868  0.5332 -0.4733
 4968SOL    HW219638   1.911   3.582   5.315 -0.4523  0.2593  1.6862
 4968SOL    HW319639   2.003   3.481   5.382 -2.9834 -2.4967  1.2107
 4968SOL    MW419640   1.950   3.504   5.316 -0.6644  0.0973  0.0338
 4969SOL     OW19641   4.112   4.941   3.946  0.2643 -0.0879 -0.2462
 4969SOL    HW219642   4.152   5.028   3.948 -0.0900  0.0866 -0.7266
 4969SOL    HW319643   4.078   4.928   4.035  1.0890 -0.1015  0.0758
 4969SOL    MW419644   4.113   4.951   3.958  0.3264 -0.0666 -0.2671
 4970SOL     OW19645   0.049   4.286   6.001  0.0782 -0.0207  0.2499
 4970SOL    HW219646   0.051   4.191   5.993  2.8327  0.0141 -0.4329
 4970SOL    HW319647   0.065   4.302   6.094 -1.8811 -0.1665  0.6638
 4970SOL    MW419648   0.051   4.276   6.013  0.1831 -0.0353  0.2144
 4971SOL     OW19649   6.030   0.400   1.260 -0.9186  0.1756 -0.3838
 4971SOL    HW219650   6.093   0.456   1.214  0.1047 -0.4353  0.2409
 4971SOL    HW319651   6.075   0.316   1.269 -0.3064  0.7353  3.2464
 4971SOL    MW419652   6.044   0.396   1.255 -0.7028  0.1688  0.1776
 4972SOL     OW19653   3.179   2.022   4.289  0.6258  0.0723 -0.3433
 4972SOL    HW219654   3.260   1.970   4.295  1.0982  0.7933 -0.3650
 4972SOL    HW319655   3.192   2.076   4.211 -0.3594 -0.6092 -1.0049
 4972SOL    MW419656   3.191   2.022   4.279  0.5582  0.0775 -0.4335
 4973SOL     OW19657   2.137   1.225   1.459  0.2247 -0.2654 -0.0021
 4973SOL    HW219658   2.078   1.243   1.385 -0.7337 -1.4789  0.4397
 4973SOL    HW319659   2.181   1.143   1.435  0.0442 -0.5687  0.7035
 4973SOL    MW419660   2.135   1.217   1.446  0.0744 -0.4655  0.1493
 4974SOL     OW19661   4.741   5.710   1.046  0.6150 -0.1836  0.3257
 4974SOL    HW219662   4.768   5.801   1.061  0.6012 -0.3901  1.6808
 4974SOL    HW319663   4.819   5.659   1.069  0.3159 -0.5690  0.4716
 4974SOL    MW419664   4.755   5.715   1.051  0.5737 -0.2617  0.5238
 4975SOL     OW19665   5.995   4.877   2.459 -0.3128 -0.0458  0.4646
 4975SOL    HW219666   6.023   4.911   2.374  0.3132  1.3644  1.1921
 4975SOL    HW319667   6.066   4.901   2.519 -1.1770 -0.1287  1.5631
 4975SOL    MW419668   6.008   4.885   2.456 -0.3443  0.1293  0.7055
 4976SOL     OW19669   6.086   5.213   6.328 -0.3757 -0.8628 -0.3867
 4976SOL    HW219670   5.995   5.222   6.354  0.3631  1.5233  1.7571
 4976SOL    HW319671   6.118   5.139   6.380 -1.0078 -1.6755 -1.1078
 4976SOL    MW419672   6.078   5.204   6.338 -0.3616 -0.6552 -0.1990
 4977SOL     OW19673   0.128   5.883   0.136  0.4708 -0.1601  0.2578
 4977SOL    HW219674   0.067   5.914   0.069  0.9982  1.1518  0.3499
 4977SOL    HW319675   0.093   5.916   0.218  0.3198 -0.9891  0.5354
 4977SOL    MW419676   0.116   5.892   0.138  0.5205 -0.0964  0.3066
 4978SOL     OW19677   4.967   5.896   3.972 -0.2557  1.4838 -1.1898
 4978SOL    HW219678   4.917   5.953   4.030  0.8160  0.9915  0.2769
 4978SOL    HW319679   5.040   5.949   3.943  1.2815  0.6684  0.9414
 4978SOL    MW419680   4.970   5.910   3.976  0.0885  1.3113 -0.7151
 4979SOL     OW19681   5.535   4.560   4.943  0.5060  0.3999 -0.5531
 4979SOL    HW219682   5.485   4.628   4.990  0.6928 -1.0447  1.9008
 4979SOL    HW319683   5.468   4.506   4.901  0.1751  0.4481 -0.1020
 4979SOL    MW419684   5.519   4.562   4.944  0.4870  0.2156 -0.1698
 4980SOL     OW19685   0.331   0.603   5.342  0.2049 -0.4312 -0.0397
 4980SOL    HW219686   0.410   0.622   5.393 -0.3523  0.9898  0.3457
 4980SOL    HW319687   0.293   0.526   5.384  1.7533 -1.5943 -0.6847
 4980SOL    MW419688   0.337   0.595   5.354  0.3357 -0.3971 -0.0740
 4981SOL     OW19689   0.707   1.002   0.111  0.3528 -0.1535  0.6170
 4981SOL    HW219690   0.794   0.966   0.124  0.4553  0.1526  0.7807
 4981SOL    HW319691   0.699   1.011   0.016 -0.9443 -3.7662  0.1916
 4981SOL    MW419692   0.717   0.998   0.100  0.1952 -0.5898  0.5825
 4982SOL     OW19693   0.406   3.326   5.080 -0.0159 -0.2363  0.1594
 4982SOL    HW219694   0.408   3.280   4.996  1.3005 -1.3572  0.7673
 4982SOL    HW319695   0.496   3.359   5.091 -0.3426  0.4624  0.8332
 4982SOL    MW419696   0.418   3.325   5.070  0.1147 -0.2920  0.3285
 4983SOL     OW19697   3.465   2.415   1.016 -0.4145  0.1790 -0.4234
 4983SOL    HW219698   3.550   2.454   1.039  0.6910 -1.9791 -0.5710
 4983SOL    HW319699   3.447   2.354   1.088 -1.4041 -0.0463 -0.8507
 4983SOL    MW419700   3.474   2.412   1.029 -0.3992 -0.1355 -0.4993
 4984SOL     OW19701   3.609   3.647   2.198  0.3359 -0.2380 -0.4394
 4984SOL    HW219702   3.654   3.704   2.261 -0.2808  0.9751 -1.0468
 4984SOL    HW319703   3.555   3.589   2.251  1.0013 -0.2825  0.2009
 4984SOL    MW419704   3.608   3.647   2.213  0.3423 -0.0838 -0.4351
 4985SOL     OW19705   0.655   4.458   0.862 -0.1978 -0.0196  0.2122
 4985SOL    HW219706   0.664   4.363   0.853  1.1246 -0.0217  1.2339
 4985SOL    HW319707   0.657   4.491   0.771 -2.7234 -1.0609 -0.2988
 4985SOL    MW419708   0.657   4.450   0.849 -0.3566 -0.1573  0.2796
 4986SOL     OW19709   5.957   5.749   5.552 -0.3197  0.1213  0.5630
 4986SOL    HW219710   6.044   5.727   5.586 -0.2757  2.2072  1.9593
 4986SOL    HW319711   5.920   5.807   5.618 -2.9356 -0.9479  0.1622
 4986SOL    MW419712   5.963   5.754   5.565 -0.6590  0.2555  0.6943
 4987SOL     OW19713   2.526   2.736   3.427 -0.6007  0.2669  0.2619
 4987SOL    HW219714   2.608   2.773   3.460  0.0621 -0.1779 -0.8483
 4987SOL    HW319715   2.521   2.765   3.336  0.2086 -2.7082 -0.8249
 4987SOL    MW419716   2.536   2.745   3.419 -0.4065 -0.1844 -0.0280
 4988SOL     OW19717   0.381   2.344   3.051  0.3331 -0.0914  0.0817
 4988SOL    HW219718   0.363   2.434   3.079 -2.1903 -0.6960  0.6231
 4988SOL    HW319719   0.348   2.340   2.961  0.4765 -0.4549  0.0426
 4988SOL    MW419720   0.374   2.355   3.043  0.0191 -0.2191  0.1479
 4989SOL     OW19721   0.799   0.025   3.438 -0.1698  0.4586 -0.3512
 4989SOL    HW219722   0.884   0.069   3.440  0.2347 -0.1931 -1.7526
 4989SOL    HW319723   0.740   0.089   3.398  0.1448  0.2122 -1.2522
 4989SOL    MW419724   0.802   0.039   3.433 -0.0750  0.3401 -0.6550
 4990SOL     OW19725   5.803   5.926   1.353 -0.1383  0.0534 -0.3950
 4990SOL    HW219726   5.861   5.993   1.389 -0.6131  1.0541 -1.4322
 4990SOL    HW319727   5.848   5.843   1.370  2.7909  0.8700 -3.2094
 4990SOL    MW419728   5.816   5.924   1.360  0.1856  0.2932 -0.9032
 4991SOL     OW19729   2.686   1.310   5.796 -0.1461 -0.3401 -0.6779
 4991SOL    HW219730   2.719   1.377   5.737 -1.8172  0.2995 -0.9418
 4991SOL    HW319731   2.620   1.354   5.849  0.8099 -1.0720  1.2343
 4991SOL    MW419732   2.682   1.324   5.795 -0.2404 -0.3523 -0.4604
 4992SOL     OW19733   4.383   0.680   0.933 -0.1720 -0.3396 -0.0431
 4992SOL    HW219734   4.365   0.692   1.026 -0.0620 -0.1822 -0.0424
 4992SOL    HW319735   4.419   0.764   0.904  1.4921 -0.9594  0.1659
 4992SOL    MW419736   4.385   0.693   0.941  0.0620 -0.4006 -0.0155
 4993SOL     OW19737   1.711   6.235   4.950  0.2004  0.6577 -0.0030
 4993SOL    HW219738   1.701   6.227   4.855 -0.1999 -1.8447  0.1831
 4993SOL    HW319739   1.804   6.219   4.966  0.6344  2.8488 -0.0621
 4993SOL    MW419740   1.722   6.232   4.940  0.2048  0.6166  0.0138
 4994SOL     OW19741   3.401   2.543   0.474 -0.4722 -0.5675 -0.2880
 4994SOL    HW219742   3.390   2.498   0.557 -0.8630  1.3845  0.7625
 4994SOL    HW319743   3.470   2.608   0.489 -1.4496  0.7076 -1.0699
 4994SOL    MW419744   3.409   2.546   0.487 -0.6527 -0.1418 -0.2525
 4995SOL     OW19745   3.751   2.949   0.177 -0.9148 -0.2122 -0.0012
 4995SOL    HW219746   3.821   2.883   0.173 -0.0738  0.6027  0.8362
 4995SOL    HW319747   3.796   3.032   0.168 -1.8688  0.3097 -0.0766
 4995SOL    MW419748   3.766   2.951   0.175 -0.9297 -0.0358  0.0993
 4996SOL     OW19749   2.590   3.850   1.353  0.0249 -0.3277 -0.0309
 4996SOL    HW219750   2.568   3.926   1.299 -0.0464 -0.8801 -0.7913
 4996SOL    HW319751   2.534   3.780   1.320  0.2426 -0.7737  0.5239
 4996SOL    MW419752   2.579   3.851   1.342  0.0442 -0.4594 -0.0580
 4997SOL     OW19753   4.814   0.813   4.796  0.4448 -0.1061 -0.4970
 4997SOL    HW219754   4.831   0.766   4.878  1.7265  1.3214  0.1202
 4997SOL    HW319755   4.832   0.905   4.818 -1.5237  0.6364 -1.7629
 4997SOL    MW419756   4.819   0.819   4.810  0.3542  0.1802 -0.5826
 4998SOL     OW19757   2.474   0.108   0.620 -0.3697 -0.3113  0.4078
 4998SOL    HW219758   2.419   0.031   0.607 -1.8433  0.2327  2.8224
 4998SOL    HW319759   2.416   0.182   0.603  0.6911  0.3170 -0.6443
 4998SOL    MW419760   2.459   0.108   0.616 -0.4241 -0.1567  0.5876
 4999SOL     OW19761   3.883   2.289   5.998 -0.1583 -0.1712 -0.2733
 4999SOL    HW219762   3.965   2.337   5.999 -0.4233  0.3218  1.0922
 4999SOL    HW319763   3.890   2.229   5.925  1.6667 -0.5706  0.2000
 4999SOL    MW419764   3.895   2.288   5.989  0.0475 -0.1588 -0.0307
 5000SOL     OW19765   2.932   1.751   0.701  0.1346  0.2859 -0.3241
 5000SOL    HW219766   3.016   1.746   0.748 -0.0988 -0.3743  0.0271
 5000SOL    HW319767   2.870   1.782   0.766 -0.0070  0.2550 -0.4444
 5000SOL    MW419768   2.935   1.754   0.715  0.0852  0.1947 -0.2936
 5001SOL     OW19769   5.183   0.145   0.665 -0.6407  0.1689 -0.0216
 5001SOL    HW219770   5.140   0.065   0.634 -0.1691 -0.1084  0.0297
 5001SOL    HW319771   5.184   0.135   0.761 -1.7439  0.8403  0.0763
 5001SOL    MW419772   5.177   0.133   0.674 -0.7240  0.2209 -0.0020
 5002SOL     OW19773   2.526   1.173   0.062 -0.1316  0.3068 -0.8666
 5002SOL    HW219774   2.490   1.088   0.089  1.2443  0.2674  1.1046
 5002SOL    HW319775   2.471   1.237   0.108 -1.2800  0.5608 -2.4884
 5002SOL    MW419776   2.514   1.170   0.072 -0.1016  0.3351 -0.8205
 5003SOL     OW19777   2.264   0.292   2.518 -0.0845  0.1606 -0.2034
 5003SOL    HW219778   2.346   0.277   2.470 -0.1364 -0.3945 -0.1243
 5003SOL    HW319779   2.242   0.383   2.499 -0.8990 -0.4440 -2.4541
 5003SOL    MW419780   2.272   0.302   2.509 -0.1988  0.0076 -0.4899
 5004SOL     OW19781   1.427   0.023   3.483  0.4372 -0.1911  0.1762
 5004SOL    HW219782   1.409   0.090   3.417  0.3803 -0.9812 -0.6309
 5004SOL    HW319783   1.468   0.071   3.555  1.6235  0.5094 -0.9251
 5004SOL    MW419784   1.430   0.038   3.483  0.5862 -0.2029 -0.0756
 5005SOL     OW19785   5.516   1.439   2.459  0.1551 -0.6918 -0.4367
 5005SOL    HW219786   5.540   1.351   2.490  1.1591  0.1525  1.3406
 5005SOL    HW319787   5.421   1.435   2.448  0.1764 -1.9869 -0.3204
 5005SOL    MW419788   5.506   1.427   2.462  0.2904 -0.7513 -0.1869
 5006SOL     OW19789   5.259   5.950   2.349 -0.1095 -0.5835  1.0157
 5006SOL    HW219790   5.207   5.872   2.370  0.1682 -0.7918  0.9380
 5006SOL    HW319791   5.213   5.990   2.275  0.2428 -1.1800  0.4557
 5006SOL    MW419792   5.246   5.945   2.342 -0.0264 -0.6897  0.9315
 5007SOL     OW19793   2.574   4.686   1.463 -0.7932  0.3415 -0.3282
 5007SOL    HW219794   2.527   4.611   1.499 -2.6208  1.4891 -0.1838
 5007SOL    HW319795   2.592   4.741   1.539  2.6188 -0.9113 -0.0545
 5007SOL    MW419796   2.570   4.684   1.478 -0.5842  0.3276 -0.2730
 5008SOL     OW19797   5.361   0.166   4.756  0.2016 -0.4581 -0.1250
 5008SOL    HW219798   5.446   0.161   4.800 -0.6340  1.8793  1.9536
 5008SOL    HW319799   5.367   0.244   4.700 -1.1435  0.9033  1.5340
 5008SOL    MW419800   5.373   0.176   4.754 -0.0861  0.0299  0.3681
 5009SOL     OW19801   3.417   0.583   1.109  0.0175 -0.1204  0.1310
 5009SOL    HW219802   3.467   0.578   1.191  1.7671 -0.4249 -0.9042
 5009SOL    HW319803   3.402   0.492   1.085  1.1852 -0.0973 -0.8133
 5009SOL    MW419804   3.422   0.571   1.117  0.4024 -0.1575 -0.1302
 5010SOL     OW19805   4.384   2.698   6.430 -0.4611  0.3352  0.0946
 5010SOL    HW219806   4.387   2.639   6.505 -0.2608  0.4455  0.1752
 5010SOL    HW319807   4.311   2.757   6.449  0.8359  1.6598  1.1981
 5010SOL    MW419808   4.374   2.698   6.442 -0.2636  0.5245  0.2509
 5011SOL     OW19809   2.839   5.232   6.404  0.3435  0.0746 -0.4589
 5011SOL    HW219810   2.841   5.184   6.487 -0.3149  0.8655  0.0315
 5011SOL    HW319811   2.822   5.323   6.430 -1.1075  0.1368 -1.5328
 5011SOL    MW419812   2.837   5.238   6.419  0.0652  0.1871 -0.5359
 5012SOL     OW19813   4.799   3.788   4.127 -0.0043 -0.1767  0.0012
 5012SOL    HW219814   4.740   3.857   4.099 -0.3936  0.1963  1.6356
 5012SOL    HW319815   4.745   3.709   4.129 -0.2398 -0.0072  0.6344
 5012SOL    MW419816   4.784   3.786   4.124 -0.0868 -0.1052  0.3004
 5013SOL     OW19817   2.754   4.967   0.881 -0.2632  0.3337 -0.4162
 5013SOL    HW219818   2.804   4.959   0.963  0.5638  0.2083 -0.9257
 5013SOL    HW319819   2.805   5.027   0.827 -0.3094 -0.3145 -1.2038
 5013SOL    MW419820   2.767   4.974   0.885 -0.1602  0.2316 -0.5873
 5014SOL     OW19821   6.048   4.212   5.574 -0.2453  0.1110  0.2115
 5014SOL    HW219822   5.987   4.145   5.543 -1.2706  1.1110 -0.0327
 5014SOL    HW319823   6.072   4.184   5.662  1.2236 -1.7885 -0.7245
 5014SOL    MW419824   6.043   4.199   5.581 -0.1868 -0.0077  0.0558
 5015SOL     OW19825   0.663   3.148   3.879  0.1259 -0.3303  0.0847
 5015SOL    HW219826   0.671   3.179   3.970  3.4363  1.6328 -0.7170
 5015SOL    HW319827   0.594   3.203   3.842 -0.8055 -0.6980  1.2226
 5015SOL    MW419828   0.655   3.159   3.886  0.4397 -0.1198  0.1290
 5016SOL     OW19829   5.395   5.416   0.088 -0.2458  0.2733  0.3444
 5016SOL    HW219830   5.349   5.481   0.142 -0.6715 -0.6093  1.0921
 5016SOL    HW319831   5.465   5.384   0.145 -0.6055 -0.5588  0.3374
 5016SOL    MW419832   5.398   5.420   0.103 -0.3494  0.0470  0.4421
 5017SOL     OW19833   3.293   3.224   4.112  0.4287 -0.0592  0.2110
 5017SOL    HW219834   3.377   3.227   4.159  0.2164  1.4460  0.5630
 5017SOL    HW319835   3.231   3.190   4.176  0.3213  1.1348  0.7847
 5017SOL    MW419836   3.296   3.220   4.127  0.3865  0.2970  0.3332
 5018SOL     OW19837   1.652   5.387   0.722 -0.2471  0.8679 -0.0821
 5018SOL    HW219838   1.715   5.348   0.784 -0.2145  1.5145  0.3009
 5018SOL    HW319839   1.673   5.346   0.638 -2.0196 -2.0736  0.7699
 5018SOL    MW419840   1.663   5.376   0.719 -0.4766  0.5651  0.0808
 5019SOL     OW19841   3.670   6.244   1.182 -0.9226  0.6261  0.1807
 5019SOL    HW219842   3.747   6.233   1.126 -0.5277 -1.4268  1.0436
 5019SOL    HW319843   3.597   6.213   1.128 -0.5600 -1.2297  0.6997
 5019SOL    MW419844   3.670   6.239   1.167 -0.8227  0.1104  0.3630
 5020SOL     OW19845   5.823   1.883   4.292 -0.2710 -0.3330 -0.0062
 5020SOL    HW219846   5.729   1.893   4.304 -0.6632 -1.1948 -1.9651
 5020SOL    HW319847   5.853   1.968   4.261 -0.3296  0.0404  0.9368
 5020SOL    MW419848   5.815   1.895   4.289 -0.3305 -0.3975 -0.1402
 5021SOL     OW19849   2.344   1.100   3.895 -0.4529  0.5640  0.3586
 5021SOL    HW219850   2.431   1.064   3.876 -0.5224 -0.2391  1.4891
 5021SOL    HW319851   2.359   1.192   3.915  0.2780  0.2234  1.4552
 5021SOL    MW419852   2.357   1.108   3.895 -0.3656  0.4131  0.6525
 5022SOL     OW19853   5.981   2.923   0.178 -0.1671  0.2246 -0.0234
 5022SOL    HW219854   5.885   2.931   0.176 -0.1057  1.3901  0.8741
 5022SOL    HW319855   5.996   2.834   0.211 -0.9000 -0.8510 -2.3713
 5022SOL    MW419856   5.970   2.912   0.182 -0.2557  0.2364 -0.2147
 5023SOL     OW19857   5.855   6.335   5.025 -0.5928  0.0048 -0.0680
 5023SOL    HW219858   5.921   6.272   5.053 -0.2312  0.5978  0.4483
 5023SOL    HW319859   5.786   6.327   5.091 -0.1277  0.7938  0.5329
 5023SOL    MW419860   5.854   6.326   5.038 -0.4837  0.1871  0.0794
 5024SOL     OW19861   2.607   3.898   2.220  0.8782  0.0453  0.0647
 5024SOL    HW219862   2.660   3.977   2.207  0.8218  0.3559  1.5363
 5024SOL    HW319863   2.670   3.831   2.248  0.6517  0.1431  0.8300
 5024SOL    MW419864   2.622   3.900   2.222  0.8409  0.0992  0.3598
 5025SOL     OW19865   1.439   1.060   3.565  0.6264 -0.1026 -0.0787
 5025SOL    HW219866   1.437   1.099   3.653  2.1589 -2.6768  1.2353
 5025SOL    HW319867   1.347   1.055   3.539  0.2528  2.1818  0.6370
 5025SOL    MW419868   1.427   1.064   3.573  0.7793 -0.1408  0.1891
 5026SOL     OW19869   1.816   0.216   4.619  0.1084 -0.0225  0.1832
 5026SOL    HW219870   1.850   0.232   4.707  1.0095  0.2408 -0.1984
 5026SOL    HW319871   1.864   0.139   4.588  0.1652  0.1887 -0.2645
 5026SOL    MW419872   1.827   0.208   4.627  0.2348  0.0401  0.0738
 5027SOL     OW19873   3.957   1.057   4.319 -0.3036 -0.4397  0.4621
 5027SOL    HW219874   3.889   1.020   4.264 -0.4026 -1.3851  1.1890
 5027SOL    HW319875   3.940   1.151   4.319 -1.3069 -0.6130  0.2401
 5027SOL    MW419876   3.946   1.065   4.312 -0.4491 -0.5873  0.5287
 5028SOL     OW19877   1.789   3.811   2.677 -0.6478  0.0038 -0.4532
 5028SOL    HW219878   1.831   3.895   2.658 -1.7580  0.3486 -1.4888
 5028SOL    HW319879   1.734   3.829   2.753  0.7634 -0.3707  0.7091
 5028SOL    MW419880   1.788   3.825   2.685 -0.6081 -0.0001 -0.4365
 5029SOL     OW19881   0.519   1.455   1.040 -0.0143 -0.4712  0.1345
 5029SOL    HW219882   0.606   1.492   1.049  0.1050 -0.2852 -1.5468
 5029SOL    HW319883   0.485   1.450   1.130  1.0555  1.0322  0.6433
 5029SOL    MW419884   0.526   1.459   1.053  0.1426 -0.2483 -0.0202
 5030SOL     OW19885   4.161   0.797   3.909  0.0712 -0.0815  0.0749
 5030SOL    HW219886   4.149   0.891   3.919  1.3000  0.1553 -0.4673
 5030SOL    HW319887   4.222   0.789   3.836  1.1842 -1.2337  1.0811
 5030SOL    MW419888   4.168   0.808   3.901  0.3801 -0.2023  0.1361
 5031SOL     OW19889   2.190   3.416   2.188 -0.4844  0.3173  0.4804
 5031SOL    HW219890   2.204   3.490   2.130  1.0590 -0.2098  0.1269
 5031SOL    HW319891   2.105   3.381   2.163 -0.4379  0.9056 -0.5483
 5031SOL    MW419892   2.181   3.421   2.177 -0.2746  0.3253  0.2980
 5032SOL     OW19893   5.084   4.879   1.509  0.2630  0.2056  0.1695
 5032SOL    HW219894   5.155   4.917   1.562 -0.7611  0.5491  1.3451
 5032SOL    HW319895   5.040   4.819   1.568 -1.6232  1.4472  0.1072
 5032SOL    MW419896   5.088   4.876   1.524 -0.1210  0.4147  0.3164
 5033SOL     OW19897   3.942   1.720   2.050  0.3052 -0.3008  0.3534
 5033SOL    HW219898   3.857   1.678   2.055  1.2196 -2.1758  1.0094
 5033SOL    HW319899   4.004   1.649   2.038  1.6675  1.1490 -1.9380
 5033SOL    MW419900   3.939   1.705   2.049  0.6056 -0.3569  0.1377
 5034SOL     OW19901   4.382   2.817   4.055 -0.0937 -0.1804 -0.4015
 5034SOL    HW219902   4.292   2.789   4.039 -1.3723  1.4679  2.9935
 5034SOL    HW319903   4.404   2.781   4.141  1.4196  1.7323  0.0908
 5034SOL    MW419904   4.373   2.808   4.064 -0.0627  0.2894  0.1114
 5035SOL     OW19905   4.195   2.718   2.200 -0.5968 -0.3459  0.0409
 5035SOL    HW219906   4.237   2.666   2.269 -0.1074 -0.9075 -0.6714
 5035SOL    HW319907   4.109   2.740   2.237 -0.3098 -0.5510  0.8691
 5035SOL    MW419908   4.189   2.714   2.214 -0.4944 -0.4471  0.0562
 5036SOL     OW19909   6.286   4.283   2.958  0.4943  0.0979  0.2377
 5036SOL    HW219910   6.254   4.206   3.004  1.8425 -0.8573 -0.3402
 5036SOL    HW319911   6.380   4.267   2.947  0.8634  1.9664  0.3575
 5036SOL    MW419912   6.294   4.271   2.962  0.7209  0.2184  0.1773
 5037SOL     OW19913   2.943   5.629   3.916  0.2109 -0.4340  0.0312
 5037SOL    HW219914   2.943   5.670   4.002 -0.1175  0.4910 -0.4001
 5037SOL    HW319915   2.981   5.542   3.931  1.0130  0.0558  0.9386
 5037SOL    MW419916   2.948   5.623   3.929  0.2734 -0.2473  0.0940
 5038SOL     OW19917   3.237   1.685   2.396  0.4028 -0.2994 -0.0842
 5038SOL    HW219918   3.183   1.611   2.425  0.0574 -0.3497 -0.8336
 5038SOL    HW319919   3.178   1.740   2.346  0.6464  0.5259  0.5119
 5038SOL    MW419920   3.222   1.682   2.393  0.3894 -0.1972 -0.1044
 5039SOL     OW19921   6.161   0.161   5.868  0.5692 -0.3929 -0.7758
 5039SOL    HW219922   6.072   0.178   5.898  0.9093 -0.4704  0.3170
 5039SOL    HW319923   6.165   0.200   5.781  0.4085  2.5375  0.4092
 5039SOL    MW419924   6.150   0.168   5.861  0.5929 -0.0165 -0.4753
 5040SOL     OW19925   0.356   1.033   6.094 -0.2868  0.1524 -0.3474
 5040SOL    HW219926   0.395   1.004   6.177 -0.7175 -3.3836 -1.2100
 5040SOL    HW319927   0.428   1.075   6.047  1.2707 -1.9078  0.0445
 5040SOL    MW419928   0.371   1.035   6.099 -0.1382 -0.5859 -0.4095
 5041SOL     OW19929   2.955   3.777   5.789  0.1906  0.0867  0.7408
 5041SOL    HW219930   3.042   3.745   5.815 -1.2973 -3.8797  1.4761
 5041SOL    HW319931   2.949   3.756   5.696 -0.1465  0.0171  0.7802
 5041SOL    MW419932   2.966   3.770   5.780 -0.0502 -0.4458  0.8430
 5042SOL     OW19933   0.989   1.203   4.524  0.1370  0.1312 -0.3759
 5042SOL    HW219934   0.950   1.276   4.572  0.5344 -0.5733  1.0876
 5042SOL    HW319935   0.922   1.135   4.525  0.3118 -0.0424 -0.4247
 5042SOL    MW419936   0.975   1.204   4.531  0.2125  0.0153 -0.1892
 5043SOL     OW19937   1.398   4.078   2.604  0.0953 -0.2477  0.5432
 5043SOL    HW219938   1.341   4.155   2.617  0.7856  0.1069  1.6233
 5043SOL    HW319939   1.372   4.018   2.674  1.7628  0.3774  1.7563
 5043SOL    MW419940   1.387   4.080   2.615  0.4064 -0.1185  0.8457
 5044SOL     OW19941   1.484   6.039   5.726  0.2670 -0.0179  0.0206
 5044SOL    HW219942   1.395   6.059   5.756  0.6296  0.8119  0.6007
 5044SOL    HW319943   1.489   5.944   5.729 -1.0138 -0.1699 -1.2694
 5044SOL    MW419944   1.473   6.029   5.731  0.1459  0.0715 -0.0730
 5045SOL     OW19945   5.906   2.525   6.350  0.3203 -0.6661  0.0332
 5045SOL    HW219946   5.924   2.596   6.289  0.1406 -1.0364 -0.4514
 5045SOL    HW319947   5.811   2.513   6.347  0.4195 -1.4048 -0.4317
 5045SOL    MW419948   5.896   2.533   6.342  0.3097 -0.8124 -0.0920
 5046SOL     OW19949   5.669   3.808   5.831 -0.1363 -0.1827  0.2215
 5046SOL    HW219950   5.749   3.789   5.782 -1.2593 -2.9561 -0.6866
 5046SOL    HW319951   5.648   3.898   5.808  1.4747 -0.1384 -1.3116
 5046SOL    MW419952   5.677   3.817   5.822 -0.0719 -0.5428 -0.1006
 5047SOL     OW19953   2.249   3.686   3.826 -0.0935  0.0685 -0.4999
 5047SOL    HW219954   2.300   3.607   3.845  2.2066  0.7450 -3.2261
 5047SOL    HW319955   2.165   3.652   3.792  0.5425 -1.2046 -0.8836
 5047SOL    MW419956   2.244   3.671   3.824  0.2938 -0.0102 -0.9102
 5048SOL     OW19957   3.754   2.499   2.619  0.1633 -0.2407  0.5808
 5048SOL    HW219958   3.841   2.527   2.590  0.6385 -1.4440  0.7987
 5048SOL    HW319959   3.769   2.416   2.663 -0.9603  0.0838  1.6107
 5048SOL    MW419960   3.767   2.492   2.621  0.0777 -0.3566  0.7454
 5049SOL     OW19961   4.547   1.132   4.591  0.1587 -0.3409 -0.1272
 5049SOL    HW219962   4.634   1.155   4.626 -0.5137  0.2801  1.2375
 5049SOL    HW319963   4.540   1.038   4.605  0.1401 -0.1990  0.9606
 5049SOL    MW419964   4.558   1.123   4.598  0.0675 -0.2403  0.1964
 5050SOL     OW19965   3.576   1.615   4.920  0.0264  0.2227  0.4259
 5050SOL    HW219966   3.544   1.680   4.983  0.0249  2.6761 -1.9044
 5050SOL    HW319967   3.497   1.574   4.886 -0.0215 -0.5159  1.4185
 5050SOL    MW419968   3.561   1.618   4.924  0.0199  0.4490  0.2494
 5051SOL     OW19969   6.134   1.973   3.334  0.3372 -0.1540 -0.2901
 5051SOL    HW219970   6.072   2.046   3.338 -0.2920 -0.6761 -0.3673
 5051SOL    HW319971   6.214   2.011   3.297 -0.2330  0.3265 -1.0399
 5051SOL    MW419972   6.137   1.988   3.330  0.1789 -0.1595 -0.3992
 5052SOL     OW19973   5.174   1.870   3.746  0.2010  0.2161 -0.0130
 5052SOL    HW219974   5.113   1.942   3.758 -1.8468 -1.5516  0.8114
 5052SOL    HW319975   5.227   1.871   3.826  1.0798  1.5476 -0.5785
 5052SOL    MW419976   5.173   1.880   3.758  0.0468  0.1585  0.0211
 5053SOL     OW19977   5.211   5.699   3.142 -0.1508 -0.1439  0.2186
 5053SOL    HW219978   5.136   5.643   3.121  0.3410 -0.5657 -0.4326
 5053SOL    HW319979   5.261   5.704   3.060 -0.7016  2.0416 -0.0404
 5053SOL    MW419980   5.208   5.692   3.129 -0.1586  0.0888  0.0985
 5054SOL     OW19981   0.024   0.880   5.947  0.0436  0.1612  0.4509
 5054SOL    HW219982   0.013   0.898   5.853 -0.0194  1.4797  0.6880
 5054SOL    HW319983  -0.030   0.803   5.963  0.7778 -0.6401 -0.7666
 5054SOL    MW419984   0.015   0.872   5.936  0.1322  0.2294  0.3215
 5055SOL     OW19985   4.045   3.391   6.024  0.0852  0.1239 -0.5652
 5055SOL    HW219986   4.103   3.322   5.991  0.0351 -0.4950  0.5807
 5055SOL    HW319987   3.965   3.382   5.972  0.1151 -0.6316 -0.4950
 5055SOL    MW419988   4.042   3.380   6.013  0.0825 -0.0574 -0.4047
 5056SOL     OW19989   1.562   5.275   5.299  0.3618  0.4758 -0.4802
 5056SOL    HW219990   1.585   5.361   5.333  0.7008  0.2557 -0.1544
 5056SOL    HW319991   1.582   5.281   5.205  1.2606  0.4536 -0.2966
 5056SOL    MW419992   1.567   5.287   5.291  0.5251  0.4438 -0.4130
 5057SOL     OW19993   2.108   2.021   0.376  0.1509 -0.0145  0.2308
 5057SOL    HW219994   2.124   1.927   0.375  0.4729  0.0090  1.6153
 5057SOL    HW319995   2.066   2.039   0.292  0.9146 -1.2425 -0.4406
 5057SOL    MW419996   2.105   2.011   0.365  0.2942 -0.1734  0.3249
 5058SOL     OW19997   5.227   1.914   1.830  0.4390 -0.0290 -0.1023
 5058SOL    HW219998   5.240   1.836   1.886 -1.1774  0.6832  1.3457
 5058SOL    HW319999   5.295   1.906   1.763  1.1175 -2.0388  0.7322
 5058SOL    MW420000   5.238   1.902   1.829  0.3152 -0.2002  0.1988
 5059SOL     OW20001   3.311   1.621   5.275 -0.7886  0.6782 -0.5865
 5059SOL    HW220002   3.398   1.612   5.236  0.0193  0.2963  1.1960
 5059SOL    HW320003   3.285   1.531   5.296 -0.0125  0.9861  2.0907
 5059SOL    MW420004   3.319   1.608   5.272 -0.5796  0.6685  0.0019
 5060SOL     OW20005   3.977   1.977   3.780 -0.5971  0.4939 -0.0936
 5060SOL    HW220006   4.027   1.991   3.700 -0.7399  0.2900 -0.2216
 5060SOL    HW320007   3.895   2.024   3.766 -0.2460  1.2433  0.3188
 5060SOL    MW420008   3.973   1.985   3.768 -0.5696  0.5659 -0.0560
 5061SOL     OW20009   0.611   2.489   5.375  0.2085  0.4660  0.1304
 5061SOL    HW220010   0.554   2.528   5.309 -2.4132 -2.7787  0.2311
 5061SOL    HW320011   0.580   2.524   5.458 -2.8984 -2.2668  0.3321
 5061SOL    MW420012   0.599   2.498   5.377 -0.5473 -0.3226  0.1703
 5062SOL     OW20013   2.231   5.665   5.313  0.0758 -0.0282 -0.4448
 5062SOL    HW220014   2.260   5.736   5.369  1.1637 -0.3422 -0.5961
 5062SOL    HW320015   2.311   5.632   5.272 -0.6420 -0.0211 -1.9245
 5062SOL    MW420016   2.245   5.670   5.315  0.1246 -0.0687 -0.6600
 5063SOL     OW20017   2.170   0.304   2.812 -0.2793  0.1556 -0.1707
 5063SOL    HW220018   2.098   0.360   2.841 -0.5121 -0.6577  0.9091
 5063SOL    HW320019   2.177   0.320   2.718 -0.1130  2.2277  0.1496
 5063SOL    MW420020   2.161   0.313   2.803 -0.2881  0.3217  0.0141
 5064SOL     OW20021   4.736   3.443   6.096 -0.1791  0.2857  0.5873
 5064SOL    HW220022   4.782   3.359   6.097 -0.9621 -0.2923 -2.2156
 5064SOL    HW320023   4.670   3.435   6.165 -0.7228 -1.7390 -0.0897
 5064SOL    MW420024   4.733   3.431   6.105 -0.3542 -0.0577  0.1281
 5065SOL     OW20025   1.109   4.884   3.373 -0.2647 -0.2442 -0.3998
 5065SOL    HW220026   1.123   4.838   3.290 -0.1506  0.7232 -0.9350
 5065SOL    HW320027   1.138   4.974   3.356 -1.6641  0.3698  0.2142
 5065SOL    MW420028   1.114   4.890   3.360 -0.4343 -0.0356 -0.3894
 5066SOL     OW20029   0.667   3.471   5.044  0.2130  0.4093 -0.0173
 5066SOL    HW220030   0.658   3.561   5.013 -1.8761  0.1477 -0.3478
 5066SOL    HW320031   0.731   3.431   4.985  0.0922  1.3089 -0.7787
 5066SOL    MW420032   0.674   3.477   5.032 -0.0786  0.4935 -0.1613
 5067SOL     OW20033   1.254   2.972   2.992  0.5211  0.1559  0.4342
 5067SOL    HW220034   1.270   2.914   2.918 -0.6211 -0.6586  0.7843
 5067SOL    HW320035   1.197   2.921   3.050  3.1521 -0.1467  3.0006
 5067SOL    MW420036   1.248   2.958   2.990  0.7175  0.0085  0.8190
 5068SOL     OW20037   1.514   1.688   0.989 -0.5884  0.4953 -0.1689
 5068SOL    HW220038   1.542   1.631   1.061 -1.2591  0.3695  0.0091
 5068SOL    HW320039   1.449   1.636   0.942  1.3605 -0.2585 -2.1804
 5068SOL    MW420040   1.509   1.674   0.992 -0.4198  0.3792 -0.4108
 5069SOL     OW20041   1.431   6.308   4.521  0.2544 -0.4253  0.1320
 5069SOL    HW220042   1.344   6.272   4.510  1.4363 -3.1247 -1.1984
 5069SOL    HW320043   1.470   6.305   4.434  1.2505  2.1228  0.3905
 5069SOL    MW420044   1.425   6.303   4.508  0.5418 -0.4453 -0.0094
 5070SOL     OW20045   5.757   4.550   3.377  0.2678  0.4997 -0.1685
 5070SOL    HW220046   5.809   4.471   3.362  0.4078  0.9634 -2.5497
 5070SOL    HW320047   5.772   4.572   3.469  0.5130 -2.0110  0.4593
 5070SOL    MW420048   5.766   4.543   3.387  0.3186  0.2296 -0.3998
 5071SOL     OW20049   2.175   6.090   0.150  0.2105 -0.1142 -0.6292
 5071SOL    HW220050   2.129   6.154   0.205 -1.0026  0.2785 -2.0159
 5071SOL    HW320051   2.110   6.022   0.134  1.1089 -1.0931 -0.1666
 5071SOL    MW420052   2.160   6.090   0.155  0.1690 -0.1915 -0.7511
 5072SOL     OW20053   1.543   5.908   2.119 -0.0448  0.2411 -0.2258
 5072SOL    HW220054   1.559   5.997   2.150  2.9063  0.2685 -1.4926
 5072SOL    HW320055   1.457   5.886   2.153 -0.3238  3.0925  1.2152
 5072SOL    MW420056   1.534   5.917   2.128  0.3077  0.6209 -0.2028
 5073SOL     OW20057   1.440   2.952   5.101 -0.6443  0.3915 -0.2528
 5073SOL    HW220058   1.405   3.034   5.136  0.1655  0.2296  0.9646
 5073SOL    HW320059   1.445   2.893   5.176  1.8053  0.2675 -0.4264
 5073SOL    MW420060   1.436   2.955   5.115 -0.2142  0.3538 -0.1151
 5074SOL     OW20061   4.527   0.189   1.541  0.0589  0.3305  0.9172
 5074SOL    HW220062   4.461   0.120   1.530  0.8086 -0.6584  2.3453
 5074SOL    HW320063   4.519   0.242   1.462 -0.1314 -1.7363 -0.5349
 5074SOL    MW420064   4.517   0.187   1.530  0.1327 -0.0727  0.9140
 5075SOL     OW20065   4.984   0.897   1.411 -0.7134 -0.8131  0.0320
 5075SOL    HW220066   5.027   0.879   1.328 -0.3015 -0.3831  0.1491
 5075SOL    HW320067   5.004   0.988   1.430  0.8766 -1.4092  1.5532
 5075SOL    MW420068   4.992   0.906   1.403 -0.4493 -0.8350  0.2482
 5076SOL     OW20069   0.977   4.922   0.890 -0.7618  0.1451  0.2101
 5076SOL    HW220070   0.936   4.912   0.975 -1.9781 -0.0338 -0.3773
 5076SOL    HW320071   0.966   5.014   0.867 -3.2001 -0.3923 -1.0695
 5076SOL    MW420072   0.970   4.933   0.898 -1.2440  0.0506 -0.0362
 5077SOL     OW20073   1.735   2.409   0.279 -0.1150 -0.0640  0.5545
 5077SOL    HW220074   1.655   2.386   0.233 -0.7279  1.3136  0.8870
 5077SOL    HW320075   1.757   2.331   0.330 -1.8879 -0.0742  1.3610
 5077SOL    MW420076   1.728   2.396   0.279 -0.4298  0.1164  0.7048
 5078SOL     OW20077   3.462   6.067   6.027  0.2557  0.4393  0.1264
 5078SOL    HW220078   3.468   5.972   6.035 -0.1546  0.3769 -0.2657
 5078SOL    HW320079   3.544   6.093   5.986 -0.2941  0.0658 -1.2767
 5078SOL    MW420080   3.473   6.058   6.022  0.1290  0.3818 -0.1104
 5079SOL     OW20081   3.577   4.988   6.431  0.4699 -0.1729 -0.7197
 5079SOL    HW220082   3.549   4.897   6.417  2.1866 -0.7871 -0.4388
 5079SOL    HW320083   3.638   4.983   6.505  0.8607  1.1607 -0.9287
 5079SOL    MW420084   3.581   4.975   6.439  0.7480 -0.0780 -0.7102
 5080SOL     OW20085   4.415   5.576   3.300 -0.0036  0.4924  0.9474
 5080SOL    HW220086   4.451   5.494   3.268  0.8466  1.3575 -0.4066
 5080SOL    HW320087   4.392   5.626   3.222 -0.7948  1.4315  1.7387
 5080SOL    MW420088   4.417   5.572   3.286  0.0042  0.7304  0.8732
 5081SOL     OW20089   5.708   2.027   2.419  0.0043 -0.1357  0.1400
 5081SOL    HW220090   5.746   1.976   2.491  3.5270  2.6428  0.5164
 5081SOL    HW320091   5.716   1.971   2.342  0.8068 -1.2863  1.0334
 5081SOL    MW420092   5.714   2.013   2.418  0.5749  0.0791  0.3076
 5082SOL     OW20093   5.033   2.835   0.993 -0.0848  0.2976 -0.5136
 5082SOL    HW220094   4.978   2.811   0.919 -2.0868  2.3667  0.1947
 5082SOL    HW320095   5.078   2.915   0.965  1.9135 -0.8266 -0.7198
 5082SOL    MW420096   5.032   2.842   0.980 -0.0853  0.4223 -0.4474
 5083SOL     OW20097   1.794   6.047   1.972  0.0394 -0.3620 -0.5005
 5083SOL    HW220098   1.735   6.029   2.045  1.3111 -0.5761  0.5084
 5083SOL    HW320099   1.813   5.960   1.935  0.0803 -0.3352 -0.5418
 5083SOL    MW420100   1.788   6.033   1.977  0.2126 -0.3867 -0.3729
 5084SOL     OW20101   3.126   4.073   2.133  0.2932 -0.0364  0.0676
 5084SOL    HW220102   3.115   4.082   2.227 -1.1750 -1.5940  0.0961
 5084SOL    HW320103   3.084   3.990   2.112  0.9610  0.0737 -1.9091
 5084SOL    MW420104   3.119   4.063   2.142  0.1876 -0.2274 -0.1894
 5085SOL     OW20105   3.238   0.810   4.758 -0.1142  0.2267  0.5989
 5085SOL    HW220106   3.159   0.852   4.724 -2.4098 -2.9223  1.5235
 5085SOL    HW320107   3.259   0.857   4.838  0.8144  2.9218 -1.0892
 5085SOL    MW420108   3.230   0.822   4.764 -0.2946  0.1668  0.4981
 5086SOL     OW20109   4.764   1.246   1.551  0.1282 -0.4290  0.0749
 5086SOL    HW220110   4.732   1.217   1.465  1.4443 -2.7801  0.3094
 5086SOL    HW320111   4.689   1.231   1.610 -1.4973  3.0524 -0.8490
 5086SOL    MW420112   4.750   1.240   1.547  0.0874 -0.2798 -0.0161
 5087SOL     OW20113   0.382   1.307   5.697  0.4231  0.0007 -0.6199
 5087SOL    HW220114   0.464   1.271   5.731 -0.0325  0.0839  0.6423
 5087SOL    HW320115   0.409   1.376   5.636  1.3013 -2.1707 -2.8237
 5087SOL    MW420116   0.396   1.311   5.693  0.4789 -0.2748 -0.7441
 5088SOL     OW20117   3.330   2.425   2.840 -0.6899 -0.0537  0.7061
 5088SOL    HW220118   3.361   2.374   2.765 -0.5212 -0.3086  0.9491
 5088SOL    HW320119   3.309   2.511   2.803  1.0889  0.4105  0.6743
 5088SOL    MW420120   3.331   2.430   2.825 -0.4330 -0.0261  0.7340
 5089SOL     OW20121   5.453   4.871   5.501 -0.3973 -0.0177 -0.7955
 5089SOL    HW220122   5.458   4.776   5.502  0.0535  0.0037  0.5211
 5089SOL    HW320123   5.525   4.900   5.558 -2.0690  1.0186  0.9042
 5089SOL    MW420124   5.464   4.862   5.508 -0.5584  0.1219 -0.3976
 5090SOL     OW20125   4.693   0.018   2.696  0.2709  0.6250 -0.1747
 5090SOL    HW220126   4.721   0.020   2.605  0.8736  0.7465  0.0115
 5090SOL    HW320127   4.598   0.027   2.692  0.2925  0.6059 -0.7909
 5090SOL    MW420128   4.684   0.020   2.683  0.3532  0.6385 -0.2314
 5091SOL     OW20129   0.645   3.952   5.825  0.0597 -0.2837 -0.2764
 5091SOL    HW220130   0.725   3.916   5.862  0.6291  0.6161 -0.6016
 5091SOL    HW320131   0.636   4.039   5.866 -1.2292 -0.7206  0.4202
 5091SOL    MW420132   0.655   3.959   5.835 -0.0352 -0.2226 -0.2274
 5092SOL     OW20133   2.897   5.350   4.771  0.1751 -0.6897 -0.5368
 5092SOL    HW220134   2.847   5.414   4.720  0.9848  0.2426 -0.1964
 5092SOL    HW320135   2.981   5.343   4.726  1.0039  0.3471  0.7448
 5092SOL    MW420136   2.901   5.358   4.759  0.3913 -0.4299 -0.3228
 5093SOL     OW20137   0.348   1.613   4.179  0.0694 -0.5082 -0.0417
 5093SOL    HW220138   0.332   1.538   4.237  0.6080 -0.1693  0.5503
 5093SOL    HW320139   0.355   1.688   4.238 -0.2903 -0.0142 -0.6212
 5093SOL    MW420140   0.346   1.613   4.195  0.0930 -0.3983 -0.0401
 5094SOL     OW20141   3.624   3.866   0.341  0.5036 -0.2651  0.2327
 5094SOL    HW220142   3.663   3.896   0.423  0.3159  0.6671 -0.0069
 5094SOL    HW320143   3.592   3.946   0.299 -0.1456 -0.8204 -0.3612
 5094SOL    MW420144   3.625   3.881   0.347  0.3932 -0.2154  0.1227
 5095SOL     OW20145   4.773   1.631   4.192 -0.0064  0.3867 -0.3887
 5095SOL    HW220146   4.844   1.590   4.241 -0.5152 -0.7917 -0.6022
 5095SOL    HW320147   4.695   1.617   4.246 -0.0233  2.1402  0.1057
 5095SOL    MW420148   4.772   1.624   4.206 -0.0757  0.4626 -0.3517
 5096SOL     OW20149   2.817   0.847   0.507  0.3708  0.1714 -0.1244
 5096SOL    HW220150   2.863   0.868   0.589 -1.3130 -0.6081  1.0826
 5096SOL    HW320151   2.771   0.928   0.484  0.1093  0.1212  0.2160
 5096SOL    MW420152   2.817   0.860   0.515  0.1141  0.0619  0.0797
 5097SOL     OW20153   2.206   2.225   3.421  0.4506  0.2873 -0.6258
 5097SOL    HW220154   2.220   2.303   3.367 -0.8721  0.7659 -0.3247
 5097SOL    HW320155   2.111   2.224   3.437  0.5463 -0.9826 -0.0160
 5097SOL    MW420156   2.195   2.235   3.416  0.2888  0.1829 -0.5056
 5098SOL     OW20157   1.003   5.334   0.453  0.4918  0.0887 -0.9966
 5098SOL    HW220158   1.060   5.390   0.505 -0.4380  1.5848 -1.5547
 5098SOL    HW320159   1.033   5.346   0.363 -0.9327  1.2251 -1.3509
 5098SOL    MW420160   1.015   5.343   0.448  0.1812  0.4360 -1.1169
 5099SOL     OW20161   6.362   2.332   4.330 -0.7054  0.2310  0.0802
 5099SOL    HW220162   6.290   2.270   4.332 -1.0202  0.6029  1.2302
 5099SOL    HW320163   6.319   2.418   4.324 -0.2613  0.3592 -3.2015
 5099SOL    MW420164   6.347   2.335   4.330 -0.6883  0.2969 -0.2011
 5100SOL     OW20165   2.197   4.795   5.679 -0.0499 -0.0122  0.0359
 5100SOL    HW220166   2.240   4.709   5.677  2.5391  1.0860  2.6098
 5100SOL    HW320167   2.130   4.787   5.746 -1.1568 -0.4946 -1.0731
 5100SOL    MW420168   2.194   4.782   5.687  0.1456  0.0691  0.2292
 5101SOL     OW20169   6.215   6.161   2.368 -0.1291  0.0165 -0.1061
 5101SOL    HW220170   6.119   6.168   2.362 -0.1807  0.1054  0.7637
 5101SOL    HW320171   6.240   6.232   2.427  0.0795 -2.2993  2.8113
 5101SOL    MW420172   6.205   6.171   2.375 -0.1084 -0.2773  0.3936
 5102SOL     OW20173   2.942   3.073   5.912 -0.0020  0.2120  0.1362
 5102SOL    HW220174   2.985   3.022   5.843  1.6762 -0.8378  1.8675
 5102SOL    HW320175   2.871   3.016   5.943  1.0894 -0.5850  1.2257
 5102SOL    MW420176   2.938   3.059   5.907  0.3634 -0.0316  0.5083
 5103SOL     OW20177   6.367   4.982   4.476 -0.0134 -0.5859 -0.0594
 5103SOL    HW220178   6.312   4.932   4.537 -1.3377  1.7822  0.7988
 5103SOL    HW320179   6.441   5.011   4.529 -0.8892  1.0159  0.3411
 5103SOL    MW420180   6.369   4.979   4.491 -0.3036 -0.0621  0.1066
 5104SOL     OW20181   1.913   5.483   6.115  0.1531 -0.2103 -0.6597
 5104SOL    HW220182   1.931   5.449   6.027  1.7653  0.3494 -0.5724
 5104SOL    HW320183   1.984   5.449   6.169  1.1988  2.2872 -0.3252
 5104SOL    MW420184   1.925   5.474   6.110  0.5038  0.1930 -0.6040
 5105SOL     OW20185   4.765   1.103   0.256 -0.0673 -0.7517 -0.0142
 5105SOL    HW220186   4.842   1.132   0.304 -0.0686 -0.1241 -0.3794
 5105SOL    HW320187   4.728   1.033   0.310 -0.3778  0.3089  1.1928
 5105SOL    MW420188   4.770   1.097   0.269 -0.1085 -0.5290  0.0969
 5106SOL     OW20189   3.399   1.440   1.540  0.1184 -0.0000  0.0572
 5106SOL    HW220190   3.430   1.481   1.460  2.0889 -0.1030  0.7241
 5106SOL    HW320191   3.476   1.395   1.576 -0.6982  0.0669  2.0224
 5106SOL    MW420192   3.413   1.439   1.534  0.2706 -0.0048  0.4045
 5107SOL     OW20193   1.858   5.839   1.738 -0.2612  0.0846  0.3695
 5107SOL    HW220194   1.946   5.868   1.762  0.1609 -0.1508 -0.8752
 5107SOL    HW320195   1.848   5.754   1.782  0.1539  0.0742  0.4443
 5107SOL    MW420196   1.868   5.831   1.747 -0.1507  0.0522  0.2152
 5108SOL     OW20197   2.249   5.509   2.387 -0.1872  0.1356  0.0384
 5108SOL    HW220198   2.288   5.429   2.352  0.1415 -0.1057  0.9252
 5108SOL    HW320199   2.316   5.545   2.445 -0.3839  0.9896 -0.2476
 5108SOL    MW420200   2.263   5.503   2.390 -0.1698  0.2164  0.1177
 5109SOL     OW20201   2.891   4.377   2.920  0.2279  0.3369  0.1860
 5109SOL    HW220202   2.977   4.352   2.954  1.1800  1.7260 -1.0577
 5109SOL    HW320203   2.867   4.455   2.970  0.1717  0.5285 -0.1312
 5109SOL    MW420204   2.900   4.384   2.931  0.3461  0.5455 -0.0199
 5110SOL     OW20205   5.424   0.949   1.620  1.2062  0.2556 -0.2777
 5110SOL    HW220206   5.364   1.021   1.605  1.4569  0.5267  0.0056
 5110SOL    HW320207   5.368   0.872   1.626  0.9583  0.3909 -0.8249
 5110SOL    MW420208   5.409   0.948   1.619  1.2066  0.3092 -0.3125
 5111SOL     OW20209   6.367   1.636   2.198  0.4054  0.3742  0.1529
 5111SOL    HW220210   6.332   1.617   2.286  0.5787  2.1120  0.6212
 5111SOL    HW320211   6.294   1.615   2.139  0.0647 -0.1928  0.7543
 5111SOL    MW420212   6.352   1.630   2.202  0.3833  0.5287  0.2941
 5112SOL     OW20213   2.020   0.785   0.864 -0.2346  0.1234 -0.4434
 5112SOL    HW220214   2.029   0.836   0.783  0.6764  0.3063 -0.2327
 5112SOL    HW320215   2.020   0.851   0.933 -0.5283 -0.0719 -0.2541
 5112SOL    MW420216   2.021   0.800   0.862 -0.1532  0.1217 -0.3906
 5113SOL     OW20217   6.142   4.300   5.045  0.3073  0.0037 -0.5756
 5113SOL    HW220218   6.119   4.217   5.086  1.3109 -1.1079 -2.1625
 5113SOL    HW320219   6.065   4.322   4.992 -0.6958  1.0760  1.1988
 5113SOL    MW420220   6.129   4.292   5.043  0.3074 -0.0015 -0.5509
 5114SOL     OW20221   4.131   4.298   3.100 -0.1443  0.3419 -0.3644
 5114SOL    HW220222   4.092   4.251   3.026  0.2664  0.1449 -0.4616
 5114SOL    HW320223   4.070   4.284   3.172 -0.1392 -0.1673 -0.4531
 5114SOL    MW420224   4.118   4.290   3.100 -0.0894  0.2487 -0.3889
 5115SOL     OW20225   5.886   1.259   4.197 -0.1211 -0.7665  0.2085
 5115SOL    HW220226   5.875   1.171   4.234  0.9374 -0.5918  0.9693
 5115SOL    HW320227   5.809   1.307   4.225  0.0778 -0.9925  1.1623
 5115SOL    MW420228   5.874   1.253   4.206  0.0448 -0.7733  0.4347
 5116SOL     OW20229   2.112   4.981   2.828 -0.6741  0.1860 -0.8290
 5116SOL    HW220230   2.031   4.973   2.878  0.2642 -1.5718  0.5384
 5116SOL    HW320231   2.144   4.891   2.819  0.8009  0.7746 -1.8742
 5116SOL    MW420232   2.106   4.968   2.833 -0.3557  0.0318 -0.7865
 5117SOL     OW20233   5.617   0.939   4.324  0.3079  0.3661 -0.3254
 5117SOL    HW220234   5.609   0.912   4.233  2.5318  1.5475 -0.9380
 5117SOL    HW320235   5.711   0.946   4.339 -0.0282  1.1922  1.7691
 5117SOL    MW420236   5.628   0.936   4.314  0.5570  0.6309 -0.1299
 5118SOL     OW20237   0.042   2.297   2.799 -0.7439 -0.1477  0.3722
 5118SOL    HW220238   0.047   2.208   2.767 -0.1966 -0.4609  1.2748
 5118SOL    HW320239  -0.005   2.345   2.731  0.5203 -0.7248 -0.9472
 5118SOL    MW420240   0.036   2.292   2.786 -0.5049 -0.2652  0.3172
 5119SOL     OW20241   5.041   6.205   1.669  0.2473 -0.0265 -0.2034
 5119SOL    HW220242   5.068   6.281   1.721 -0.4215 -0.1254  0.2956
 5119SOL    HW320243   5.108   6.139   1.687 -0.5297 -0.4284  1.3914
 5119SOL    MW420244   5.053   6.206   1.678  0.0566 -0.0926  0.0729
 5120SOL     OW20245   0.455   1.137   1.949  0.0108  0.0577  0.2013
 5120SOL    HW220246   0.493   1.149   2.036 -0.1579 -0.1800  0.3065
 5120SOL    HW320247   0.420   1.224   1.926  2.2900  0.8082 -0.7029
 5120SOL    MW420248   0.455   1.150   1.957  0.2892  0.1253  0.0958
 5121SOL     OW20249   1.181   2.629   1.362 -0.0627 -0.1535 -0.1625
 5121SOL    HW220250   1.186   2.716   1.401 -0.0717 -0.3255  0.2260
 5121SOL    HW320251   1.129   2.577   1.424 -0.1023 -0.4194 -0.4156
 5121SOL    MW420252   1.175   2.633   1.376 -0.0691 -0.2113 -0.1446
 5122SOL     OW20253   3.661   5.454   3.472  0.1798  0.5534  0.3901
 5122SOL    HW220254   3.716   5.532   3.477 -0.5264  1.1034 -0.1488
 5122SOL    HW320255   3.668   5.426   3.380  2.1277 -1.3027  1.0424
 5122SOL    MW420256   3.669   5.461   3.460  0.3436  0.3811  0.4051
 5123SOL     OW20257   2.173   4.703   2.471  0.2569 -0.3397 -0.3807
 5123SOL    HW220258   2.087   4.665   2.457 -0.1858  0.1414  0.8483
 5123SOL    HW320259   2.198   4.674   2.559  0.5457  0.9729 -0.0065
 5123SOL    MW420260   2.165   4.694   2.481  0.2366 -0.1031 -0.1692
 5124SOL     OW20261   4.037   0.181   0.675 -0.3081 -0.1895  0.0932
 5124SOL    HW220262   3.978   0.181   0.750  0.3556 -1.4074  0.6304
 5124SOL    HW320263   4.017   0.101   0.627  1.4181 -1.0321  0.7161
 5124SOL    MW420264   4.027   0.171   0.678  0.0072 -0.4614  0.2463
 5125SOL     OW20265   2.006   1.767   4.486  0.0774 -0.1650 -0.2543
 5125SOL    HW220266   1.922   1.801   4.518 -0.0314 -1.5141  0.9921
 5125SOL    HW320267   2.035   1.832   4.422 -1.3878  0.8833  0.0875
 5125SOL    MW420268   1.998   1.780   4.482 -0.1303 -0.2047 -0.0448
 5126SOL     OW20269   3.965   6.260   2.498  0.5805 -0.1686 -0.4754
 5126SOL    HW220270   4.014   6.287   2.421 -2.5456  1.4061 -2.0902
 5126SOL    HW320271   3.931   6.173   2.476  1.2176 -0.5446 -0.0292
 5126SOL    MW420272   3.967   6.252   2.485  0.2521 -0.0105 -0.6296
 5127SOL     OW20273   2.588   6.292   3.801 -0.0237 -0.2940  0.4665
 5127SOL    HW220274   2.536   6.247   3.868 -1.7824  0.6712 -0.1819
 5127SOL    HW320275   2.655   6.340   3.850 -0.4445 -0.6672  1.4320
 5127SOL    MW420276   2.590   6.292   3.817 -0.3112 -0.2159  0.5083
 5128SOL     OW20277   1.154   0.025   6.210  0.0571  0.0132 -0.3774
 5128SOL    HW220278   1.093  -0.002   6.141 -0.9275  0.8093  0.1481
 5128SOL    HW320279   1.147  -0.043   6.277  0.3577 -0.3132 -0.6771
 5128SOL    MW420280   1.145   0.013   6.210 -0.0332  0.0752 -0.3476
 5129SOL     OW20281   0.283   1.432   4.377  0.2686  0.1316 -0.2354
 5129SOL    HW220282   0.361   1.417   4.430  2.8274  2.8759 -2.8199
 5129SOL    HW320283   0.275   1.353   4.322  2.0708  0.3127 -0.8138
 5129SOL    MW420284   0.292   1.419   4.376  0.8440  0.5176 -0.6527
 5130SOL     OW20285   0.703   4.616   3.008  0.1755 -0.2820  0.2326
 5130SOL    HW220286   0.733   4.685   3.067  0.5040  0.5347 -0.8390
 5130SOL    HW320287   0.710   4.655   2.921 -1.9542 -0.8247 -0.2435
 5130SOL    MW420288   0.708   4.631   3.004 -0.0621 -0.2459  0.0284
 5131SOL     OW20289   4.999   2.293   4.933  0.5376  0.6555 -0.0967
 5131SOL    HW220290   5.094   2.291   4.945  0.5862  0.6854 -0.4497
 5131SOL    HW320291   4.975   2.384   4.951  0.6525  0.7755 -0.5163
 5131SOL    MW420292   5.008   2.305   4.937  0.5592  0.6752 -0.1986
 5132SOL     OW20293   2.291   4.006   5.235 -0.1077 -0.1107  0.3130
 5132SOL    HW220294   2.373   4.020   5.282  0.9853  0.0595 -1.5397
 5132SOL    HW320295   2.302   3.920   5.193 -0.6354  0.1522 -0.3900
 5132SOL    MW420296   2.303   3.996   5.235 -0.0331 -0.0536 -0.0242
 5133SOL     OW20297   0.310   5.598   5.016 -0.1625 -0.3450 -0.6453
 5133SOL    HW220298   0.404   5.613   5.005 -0.1468 -0.6533 -0.9657
 5133SOL    HW320299   0.271   5.685   5.019  0.1255 -0.2181 -0.6005
 5133SOL    MW420300   0.317   5.611   5.015 -0.1224 -0.3689 -0.6817
 5134SOL     OW20301   0.616   5.888   5.790  0.0834  0.0098  0.0868
 5134SOL    HW220302   0.709   5.905   5.806 -0.3860  2.5540  0.4949
 5134SOL    HW320303   0.602   5.800   5.825  2.3035 -0.4075  0.0818
 5134SOL    MW420304   0.626   5.878   5.797  0.3144  0.2904  0.1400
 5135SOL     OW20305   4.658   2.952   2.917 -0.1120  0.0831 -0.1126
 5135SOL    HW220306   4.591   3.021   2.922 -0.1675  0.2306 -2.0669
 5135SOL    HW320307   4.734   2.994   2.879 -0.3354 -1.0227 -1.9031
 5135SOL    MW420308   4.659   2.966   2.913 -0.1488 -0.0434 -0.6067
 5136SOL     OW20309   2.620   0.646   0.576  0.8020  0.5145 -0.2609
 5136SOL    HW220310   2.673   0.718   0.541  0.7905  0.1636 -1.0101
 5136SOL    HW320311   2.615   0.583   0.505 -2.1328  1.3260 -0.9295
 5136SOL    MW420312   2.626   0.647   0.562  0.4132  0.5752 -0.4480
 5137SOL     OW20313   1.087   5.777   1.059  0.5878  0.2268  0.0252
 5137SOL    HW220314   1.058   5.845   0.999 -0.1049 -0.8457 -0.8961
 5137SOL    HW320315   1.172   5.749   1.025  2.0424  2.1878  1.7509
 5137SOL    MW420316   1.094   5.782   1.047  0.6883  0.3440  0.1314
 5138SOL     OW20317   2.751   4.633   4.686  0.3995 -0.1739 -0.0509
 5138SOL    HW220318   2.675   4.586   4.721  0.7092 -1.4307 -0.9678
 5138SOL    HW320319   2.740   4.629   4.591  0.6948  1.2333 -0.1639
 5138SOL    MW420320   2.740   4.626   4.678  0.4793 -0.1541 -0.1868
 5139SOL     OW20321   6.238   5.693   5.637 -0.9336  0.4210  0.5441
 5139SOL    HW220322   6.326   5.692   5.600 -1.8537 -1.1997 -1.8544
 5139SOL    HW320323   6.250   5.716   5.729  2.2534 -2.3178  0.9873
 5139SOL    MW420324   6.251   5.696   5.644 -0.6345 -0.1542  0.2861
 5140SOL     OW20325   5.921   1.164   3.399  0.0857  0.3913 -0.4262
 5140SOL    HW220326   6.000   1.216   3.400  0.3400  0.1056 -2.2314
 5140SOL    HW320327   5.865   1.203   3.466  1.5695  0.8363  0.6014
 5140SOL    MW420328   5.924   1.176   3.408  0.3150  0.4123 -0.5288
 5141SOL     OW20329   1.950   4.034   2.637 -0.6414  0.4155 -0.0078
 5141SOL    HW220330   1.970   4.116   2.683  2.0748  0.5276 -1.1811
 5141SOL    HW320331   1.941   4.061   2.545  0.4824 -0.6040 -0.4363
 5141SOL    MW420332   1.951   4.049   2.631 -0.1348  0.2957 -0.2192
 5142SOL     OW20333   3.281   2.764   4.207  0.3755 -0.1687 -0.3472
 5142SOL    HW220334   3.308   2.676   4.182  1.2964  0.4931 -1.8444
 5142SOL    HW320335   3.241   2.800   4.128  0.1644  0.8051  0.1917
 5142SOL    MW420336   3.279   2.757   4.194  0.4692  0.0471 -0.4736
 5143SOL     OW20337   1.834   2.802   1.401  0.2024  0.0598 -0.4857
 5143SOL    HW220338   1.742   2.812   1.377  0.0959  0.1938 -0.0302
 5143SOL    HW320339   1.833   2.744   1.477  0.4406  0.6077 -0.0616
 5143SOL    MW420340   1.822   2.796   1.408  0.2198  0.1498 -0.3696
 5144SOL     OW20341   3.485   1.651   2.708 -0.6617  0.0673  0.2168
 5144SOL    HW220342   3.466   1.557   2.710  1.1965 -0.4198 -1.6682
 5144SOL    HW320343   3.553   1.663   2.774 -0.0475 -0.1520 -0.3678
 5144SOL    MW420344   3.492   1.640   2.717 -0.3355 -0.0259 -0.1091
 5145SOL     OW20345   2.890   4.674   2.409  0.0002  0.7874 -0.2173
 5145SOL    HW220346   2.983   4.677   2.388 -0.3499  0.2308 -2.0272
 5145SOL    HW320347   2.875   4.753   2.461  1.3943  1.0980 -0.2497
 5145SOL    MW420348   2.900   4.685   2.413  0.1379  0.7550 -0.4604
 5146SOL     OW20349   1.788   3.435   1.284  0.5894  0.2324 -0.2365
 5146SOL    HW220350   1.845   3.430   1.361 -0.5301  2.1436  0.7940
 5146SOL    HW320351   1.712   3.382   1.306  1.1317 -0.8346 -0.8681
 5146SOL    MW420352   1.786   3.428   1.297  0.5132  0.3437 -0.1838
 5147SOL     OW20353   2.731   5.252   1.886 -0.0854 -0.2975  0.6252
 5147SOL    HW220354   2.695   5.168   1.915 -0.2439  0.0054  1.3155
 5147SOL    HW320355   2.815   5.229   1.845  0.9966 -0.5849  2.8497
 5147SOL    MW420356   2.737   5.238   1.885  0.0364 -0.2954  1.0098
 5148SOL     OW20357   5.870   4.674   4.049 -0.1094  0.1711  0.1936
 5148SOL    HW220358   5.948   4.729   4.045 -0.2407  0.3042 -0.7628
 5148SOL    HW320359   5.853   4.662   4.142 -0.2261  1.9555  0.4202
 5148SOL    MW420360   5.878   4.679   4.061 -0.1421  0.4241  0.0973
 5149SOL     OW20361   4.478   1.692   5.277  0.2307  0.0755  0.2764
 5149SOL    HW220362   4.420   1.631   5.230  0.5263  0.0327 -0.0339
 5149SOL    HW320363   4.421   1.765   5.302  0.0410  0.0334 -0.0276
 5149SOL    MW420364   4.463   1.693   5.274  0.2447  0.0643  0.1953
 5150SOL     OW20365   1.875   1.016   3.752 -0.2959 -0.0203  0.0203
 5150SOL    HW220366   1.868   0.935   3.701 -1.4710  0.1057 -0.0565
 5150SOL    HW320367   1.827   0.998   3.833 -0.2291  0.4665  0.1746
 5150SOL    MW420368   1.868   1.003   3.756 -0.4421  0.0605  0.0305
 5151SOL     OW20369   3.326   3.101   3.845  0.3414  0.1504 -0.6432
 5151SOL    HW220370   3.359   3.143   3.924  2.5050 -1.3162 -0.6638
 5151SOL    HW320371   3.262   3.162   3.810  2.2115  2.7420  0.1092
 5151SOL    MW420372   3.322   3.115   3.851  0.8736  0.2988 -0.5467
 5152SOL     OW20373   5.934   1.217   0.551 -0.5721 -0.6104 -0.3841
 5152SOL    HW220374   5.937   1.138   0.496 -0.1874 -1.6854  1.1278
 5152SOL    HW320375   6.020   1.220   0.593 -1.1701 -0.3388  0.8627
 5152SOL    MW420376   5.946   1.207   0.549 -0.6002 -0.7164 -0.0201
 5153SOL     OW20377   3.885   1.123   1.308 -0.4189  0.1481  0.4946
 5153SOL    HW220378   3.907   1.213   1.330 -2.5213  0.4983  1.3829
 5153SOL    HW320379   3.858   1.126   1.217  1.4504 -0.0163 -0.1240
 5153SOL    MW420380   3.885   1.135   1.299 -0.4497  0.1726  0.5302
 5154SOL     OW20381   0.336   1.947   3.782  0.1391 -0.1443  0.6127
 5154SOL    HW220382   0.303   2.012   3.844 -0.0550  0.0444  0.3157
 5154SOL    HW320383   0.362   1.998   3.705 -2.3377 -0.5943 -0.6379
 5154SOL    MW420384   0.335   1.962   3.780 -0.2133 -0.1788  0.4085
 5155SOL     OW20385   5.462   4.237   2.032 -0.1893  0.3187  0.4345
 5155SOL    HW220386   5.547   4.259   2.071  0.2428  0.5438 -0.5919
 5155SOL    HW320387   5.425   4.321   2.007  1.2603  0.0629 -3.0905
 5155SOL    MW420388   5.468   4.251   2.034  0.0589  0.3146 -0.1660
 5156SOL     OW20389   5.900   3.687   5.702  0.5030  0.3582  0.2195
 5156SOL    HW220390   5.976   3.700   5.758  0.6363  0.8101 -0.0589
 5156SOL    HW320391   5.876   3.595   5.715  2.2175 -0.3461 -1.0660
 5156SOL    MW420392   5.907   3.676   5.711  0.7468  0.3249  0.0132
 5157SOL     OW20393   2.350   6.018   2.915 -0.1192 -0.0752  0.0683
 5157SOL    HW220394   2.320   6.097   2.959 -1.8704 -0.6468 -0.0278
 5157SOL    HW320395   2.390   6.049   2.833 -3.3390  0.6104 -1.3703
 5157SOL    MW420396   2.352   6.032   2.910 -0.7750 -0.0602 -0.1342
 5158SOL     OW20397   3.368   2.319   4.660  0.0427  0.6003 -0.1507
 5158SOL    HW220398   3.459   2.295   4.648  0.2074 -0.2932  2.3555
 5158SOL    HW320399   3.322   2.281   4.585  1.8902  2.7696 -2.5767
 5158SOL    MW420400   3.374   2.311   4.648  0.3082  0.7686 -0.1401
 5159SOL     OW20401   5.888   2.719   4.985  0.1938 -0.0997 -0.3014
 5159SOL    HW220402   5.980   2.702   4.969  0.2469 -0.1825  0.0740
 5159SOL    HW320403   5.887   2.796   5.041 -0.0119  0.5821 -1.2251
 5159SOL    MW420404   5.900   2.727   4.990  0.1737 -0.0207 -0.3737
 5160SOL     OW20405   3.450   5.166   2.754 -0.3896 -0.5521  0.1855
 5160SOL    HW220406   3.431   5.226   2.682 -1.4645 -1.6578 -0.5015
 5160SOL    HW320407   3.454   5.080   2.713  0.9269 -1.0016  1.1717
 5160SOL    MW420408   3.448   5.162   2.739 -0.3577 -0.7573  0.2250
 5161SOL     OW20409   6.067   1.190   6.231  0.1773  0.6378 -0.3700
 5161SOL    HW220410   6.092   1.111   6.183  1.2678  0.5054  0.3925
 5161SOL    HW320411   6.131   1.256   6.205  0.9643  0.4873  1.0941
 5161SOL    MW420412   6.079   1.188   6.221  0.4250  0.6005 -0.0762
 5162SOL     OW20413   2.766   5.787   2.104  0.5857  0.3559  0.2334
 5162SOL    HW220414   2.853   5.769   2.067  1.5278  2.6773  1.1593
 5162SOL    HW320415   2.706   5.767   2.032  1.8077 -1.7300 -0.2896
 5162SOL    MW420416   2.770   5.782   2.089  0.8712  0.3870  0.2866
 5163SOL     OW20417   3.638   2.561   5.882  0.2783 -0.0165 -0.0990
 5163SOL    HW220418   3.595   2.635   5.839  0.1727  0.6615  1.1018
 5163SOL    HW320419   3.663   2.502   5.811 -2.3499 -0.3067 -0.9039
 5163SOL    MW420420   3.636   2.563   5.867 -0.0824  0.0347 -0.0467
 5164SOL     OW20421   2.339   5.220   1.554 -0.2448  0.0567 -0.0653
 5164SOL    HW220422   2.431   5.194   1.551 -0.0946  0.3687  1.2559
 5164SOL    HW320423   2.331   5.269   1.636 -1.2031  1.5284 -0.9868
 5164SOL    MW420424   2.350   5.223   1.564 -0.3515  0.2921 -0.0126
 5165SOL     OW20425   6.385   4.861   5.027 -0.0920  0.3685 -0.1230
 5165SOL    HW220426   6.304   4.827   5.064  0.9447  0.1914  2.1268
 5165SOL    HW320427   6.431   4.902   5.101  1.9843  0.2546 -1.2640
 5165SOL    MW420428   6.381   4.862   5.042  0.3187  0.3301  0.0233
 5166SOL     OW20429   3.407   1.474   0.781 -0.5207 -0.7176 -0.1151
 5166SOL    HW220430   3.413   1.439   0.869 -1.7283 -0.0999  0.2335
 5166SOL    HW320431   3.391   1.398   0.725 -0.9689 -0.9714  0.3578
 5166SOL    MW420432   3.405   1.459   0.785 -0.7392 -0.6696 -0.0067
 5167SOL     OW20433   3.199   0.364   6.171 -0.0400  0.4176 -0.5058
 5167SOL    HW220434   3.192   0.420   6.248 -0.1483 -0.2614 -0.0091
 5167SOL    HW320435   3.293   0.362   6.151  0.0734  0.0361  0.0396
 5167SOL    MW420436   3.211   0.371   6.179 -0.0393  0.2777 -0.3683
 5168SOL     OW20437   0.280   0.836   0.859  0.0987  0.2265  0.1318
 5168SOL    HW220438   0.250   0.848   0.769  0.1396 -0.0327  0.0846
 5168SOL    HW320439   0.200   0.823   0.910  0.1414 -0.8081 -0.0449
 5168SOL    MW420440   0.266   0.836   0.854  0.1098  0.0558  0.1023
 5169SOL     OW20441   1.610   6.210   2.919 -0.7863 -0.1397  0.2708
 5169SOL    HW220442   1.592   6.135   2.863 -0.4372  0.0091 -0.0500
 5169SOL    HW320443   1.569   6.189   3.003  0.4981 -1.3294  0.6451
 5169SOL    MW420444   1.603   6.197   2.923 -0.5708 -0.2770  0.2778
 5170SOL     OW20445   4.575   2.642   4.950 -0.2897 -0.5862 -0.6107
 5170SOL    HW220446   4.589   2.729   4.988  4.4401 -0.5764 -1.7305
 5170SOL    HW320447   4.598   2.581   5.021 -0.4036 -0.8193 -0.7753
 5170SOL    MW420448   4.580   2.645   4.965  0.3193 -0.6156 -0.7802
 5171SOL     OW20449   3.416   5.149   3.475  0.1862  0.1355  0.2915
 5171SOL    HW220450   3.378   5.186   3.396  0.5899 -1.4152 -0.6830
 5171SOL    HW320451   3.509   5.140   3.455  0.0755 -1.5849  0.3546
 5171SOL    MW420452   3.423   5.153   3.462  0.2248 -0.2961  0.1712
 5172SOL     OW20453   3.088   4.986   0.098 -0.3852  0.4957  0.4371
 5172SOL    HW220454   3.048   4.899   0.105  0.8551 -0.1319  0.0050
 5172SOL    HW320455   3.059   5.019   0.013 -2.9647  1.6566  1.6328
 5172SOL    MW420456   3.079   4.979   0.088 -0.5619  0.5661  0.5378
 5173SOL     OW20457   3.915   3.070   4.962 -0.2255 -0.1612 -0.0502
 5173SOL    HW220458   3.954   3.063   4.874  0.0860 -0.1559  0.0845
 5173SOL    HW320459   3.903   2.979   4.989 -0.2324 -0.1629 -0.0586
 5173SOL    MW420460   3.919   3.057   4.954 -0.1853 -0.1607 -0.0335
 5174SOL     OW20461   3.204   4.523   0.187  0.8393  0.0746 -0.3232
 5174SOL    HW220462   3.258   4.598   0.212  2.3860 -0.4256 -1.9464
 5174SOL    HW320463   3.211   4.463   0.261  0.6635  0.9587  0.4302
 5174SOL    MW420464   3.212   4.525   0.200  1.0201  0.1252 -0.4379
 5175SOL     OW20465   2.913   5.482   1.346 -0.3198  0.4562  0.0580
 5175SOL    HW220466   2.933   5.403   1.396 -0.6805  0.3336  0.0112
 5175SOL    HW320467   2.839   5.521   1.392 -0.1592  0.7566  0.0660
 5175SOL    MW420468   2.906   5.477   1.359 -0.3462  0.4797  0.0529
 5176SOL     OW20469   2.597   3.371   4.063 -0.5858  0.6793 -0.4825
 5176SOL    HW220470   2.522   3.417   4.025 -1.2749  1.2825  1.5026
 5176SOL    HW320471   2.648   3.439   4.107 -0.3528 -0.1035  0.5056
 5176SOL    MW420472   2.594   3.386   4.064 -0.6460  0.6556 -0.0902
 5177SOL     OW20473   4.405   0.693   1.631  0.1710 -0.2825 -0.0015
 5177SOL    HW220474   4.452   0.689   1.714 -1.1291  2.5190  0.9658
 5177SOL    HW320475   4.318   0.660   1.651  0.0797 -0.3243 -0.4571
 5177SOL    MW420476   4.400   0.688   1.644 -0.0126  0.0816  0.0660
 5178SOL     OW20477   5.362   3.063   6.181  0.4245  0.8114  0.0947
 5178SOL    HW220478   5.446   3.109   6.180 -0.0372  1.6679  0.1519
 5178SOL    HW320479   5.333   3.067   6.272 -0.3008  1.6717 -0.1676
 5178SOL    MW420480   5.369   3.069   6.193  0.2679  1.0379  0.0676
 5179SOL     OW20481   5.194   5.272   5.949 -0.2964  0.0790 -0.4860
 5179SOL    HW220482   5.148   5.214   5.889 -0.2577 -0.1732 -0.2728
 5179SOL    HW320483   5.125   5.318   5.997 -0.3638 -1.1646  0.6870
 5179SOL    MW420484   5.179   5.270   5.948 -0.3002 -0.1183 -0.3031
 5180SOL     OW20485   2.444   0.231   0.261  0.0749 -0.6240 -0.3501
 5180SOL    HW220486   2.361   0.186   0.274 -0.8194  0.3620 -2.2722
 5180SOL    HW320487   2.511   0.165   0.283 -1.1371 -0.9883  2.6466
 5180SOL    MW420488   2.442   0.216   0.266 -0.2030 -0.5420 -0.2083
 5181SOL     OW20489   3.162   6.374   6.385 -0.1297  0.6903 -0.0010
 5181SOL    HW220490   3.149   6.466   6.363  2.1408  0.9746 -0.4383
 5181SOL    HW320491   3.240   6.373   6.440  0.5452 -1.0482 -0.8870
 5181SOL    MW420492   3.171   6.386   6.389  0.2589  0.4985 -0.1756
 5182SOL     OW20493   0.174   0.366   3.460 -0.3454  0.1734 -0.3002
 5182SOL    HW220494   0.225   0.442   3.486  1.3609 -0.9291 -0.2223
 5182SOL    HW320495   0.159   0.319   3.542  1.4267 -1.1759 -0.6797
 5182SOL    MW420496   0.179   0.370   3.474  0.1135 -0.1501 -0.3400
 5183SOL     OW20497   6.222   3.867   3.742 -0.0069  0.0612  0.2712
 5183SOL    HW220498   6.180   3.950   3.767  0.5151  0.0171  1.3597
 5183SOL    HW320499   6.157   3.823   3.687 -0.4354  1.0289 -0.0167
 5183SOL    MW420500   6.208   3.872   3.738  0.0054  0.1830  0.3768
 5184SOL     OW20501   3.391   5.095   2.299  0.1332 -0.2612 -0.2485
 5184SOL    HW220502   3.480   5.085   2.265  0.3404  0.0031  0.2108
 5184SOL    HW320503   3.375   5.014   2.346  0.8541  0.4458  1.2888
 5184SOL    MW420504   3.401   5.083   2.300  0.2556 -0.1330  0.0149
 5185SOL     OW20505   5.895   5.897   3.470 -0.4158 -0.7965 -0.4010
 5185SOL    HW220506   5.938   5.967   3.421  0.4538  1.1507  2.8659
 5185SOL    HW320507   5.956   5.823   3.464  0.5812  0.0204 -0.6922
 5185SOL    MW420508   5.909   5.896   3.463 -0.1695 -0.4318 -0.0084
 5186SOL     OW20509   2.820   6.072   4.866  0.0455 -0.1670 -0.4041
 5186SOL    HW220510   2.776   6.080   4.782 -1.3149 -0.6797  0.2375
 5186SOL    HW320511   2.867   5.989   4.861 -0.9154 -0.7305 -0.2812
 5186SOL    MW420512   2.821   6.062   4.855 -0.2607 -0.3090 -0.3032
 5187SOL     OW20513   1.553   0.052   1.743 -0.0926  0.4054  0.3400
 5187SOL    HW220514   1.592  -0.002   1.812  0.3650  0.9563  0.5140
 5187SOL    HW320515   1.610   0.129   1.737 -0.5227  0.6890 -0.1727
 5187SOL    MW420516   1.566   0.055   1.751 -0.0890  0.5155  0.2953
 5188SOL     OW20517   3.632   2.456   3.361  0.2314 -0.4416 -0.3346
 5188SOL    HW220518   3.547   2.482   3.396  0.3415 -1.2317  0.5647
 5188SOL    HW320519   3.611   2.404   3.283  0.0066  1.8480 -1.8905
 5188SOL    MW420520   3.618   2.452   3.355  0.2162 -0.2438 -0.4213
 5189SOL     OW20521   5.952   4.971   4.293 -0.0205  0.0076 -0.0813
 5189SOL    HW220522   5.985   5.058   4.315 -0.5289 -0.2106  1.7256
 5189SOL    HW320523   6.003   4.912   4.347  1.0485 -0.9827 -2.0539
 5189SOL    MW420524   5.963   4.975   4.303  0.0534 -0.1518 -0.1032
 5190SOL     OW20525   5.817   1.368   6.347  0.4219 -0.4049  0.1961
 5190SOL    HW220526   5.907   1.351   6.317  0.3102 -1.0037  0.1885
 5190SOL    HW320527   5.826   1.440   6.409  0.9104 -0.4669  0.2050
 5190SOL    MW420528   5.830   1.375   6.351  0.4716 -0.4921  0.1963
 5191SOL     OW20529   2.605   4.292   0.344  0.1705  0.0309  0.4304
 5191SOL    HW220530   2.692   4.331   0.355 -0.2333  0.9988  0.2808
 5191SOL    HW320531   2.601   4.270   0.251  0.0400  0.5218  0.3177
 5191SOL    MW420532   2.616   4.294   0.333  0.1000  0.2233  0.3958
 5192SOL     OW20533   2.528   2.931   1.117 -0.2672 -0.8606  0.0663
 5192SOL    HW220534   2.619   2.905   1.104 -0.0011 -0.2522  0.6743
 5192SOL    HW320535   2.481   2.889   1.044  0.5593 -0.8091 -0.5134
 5192SOL    MW420536   2.534   2.922   1.106 -0.1230 -0.7736  0.0700
 5193SOL     OW20537   4.561   2.464   5.981 -0.0596  0.6849  0.0080
 5193SOL    HW220538   4.568   2.503   6.068 -0.2590  0.5852  0.0707
 5193SOL    HW320539   4.467   2.455   5.966 -0.1019 -2.8321  1.3956
 5193SOL    MW420540   4.550   2.468   5.990 -0.0915  0.2077  0.1993
 5194SOL     OW20541   1.744   5.366   3.702 -0.0039  0.4344  0.0184
 5194SOL    HW220542   1.720   5.277   3.727 -0.3754  0.8599  1.2376
 5194SOL    HW320543   1.664   5.403   3.664 -0.0666  0.4884  0.2022
 5194SOL    MW420544   1.730   5.359   3.700 -0.0612  0.4977  0.2035
 5195SOL     OW20545   4.023   3.076   2.107 -0.0674  0.0081  0.6496
 5195SOL    HW220546   4.045   3.101   2.197 -1.2924  1.1721  0.6638
 5195SOL    HW320547   3.932   3.103   2.097  0.1863  0.3191 -1.0903
 5195SOL    MW420548   4.014   3.083   2.117 -0.1955  0.2027  0.4219
 5196SOL     OW20549   6.156   4.396   4.166 -0.2113 -0.4959 -0.6217
 5196SOL    HW220550   6.105   4.404   4.085 -2.0253 -0.4906  0.4714
 5196SOL    HW320551   6.204   4.478   4.172 -2.4471  0.8367 -0.1580
 5196SOL    MW420552   6.156   4.408   4.156 -0.7456 -0.3194 -0.4163
 5197SOL     OW20553   3.559   2.510   1.731 -0.2832  0.3536 -0.1985
 5197SOL    HW220554   3.541   2.531   1.823 -1.0634  1.7401 -0.6189
 5197SOL    HW320555   3.480   2.540   1.685  0.6279  0.9161 -1.4557
 5197SOL    MW420556   3.546   2.517   1.737 -0.2659  0.6108 -0.4199
 5198SOL     OW20557   5.661   2.758   5.272 -0.1924  0.2153 -0.6413
 5198SOL    HW220558   5.569   2.765   5.250 -0.3761  0.2837  0.1055
 5198SOL    HW320559   5.684   2.666   5.255 -0.7935 -0.1884  0.5804
 5198SOL    MW420560   5.652   2.747   5.267 -0.2960  0.1711 -0.3816
 5199SOL     OW20561   0.515   4.881   0.638 -0.3962  0.2943 -0.4023
 5199SOL    HW220562   0.471   4.867   0.553 -1.9989 -0.4531  0.4955
 5199SOL    HW320563   0.587   4.817   0.638 -1.5559 -1.0720 -0.4633
 5199SOL    MW420564   0.519   4.870   0.627 -0.7607  0.0154 -0.2919
 5200SOL     OW20565   3.645   2.306   4.153 -0.2521  0.3689 -0.0458
 5200SOL    HW220566   3.697   2.247   4.099  1.7574  0.9608  1.1434
 5200SOL    HW320567   3.570   2.330   4.098  0.5540 -0.7686 -1.7037
 5200SOL    MW420568   3.642   2.301   4.139  0.1194  0.2969 -0.1076
 5201SOL     OW20569   0.121   1.252   1.440 -0.2772 -0.3928  0.3653
 5201SOL    HW220570   0.126   1.165   1.480  0.5179  0.5775  2.5447
 5201SOL    HW320571   0.209   1.288   1.450  0.5459 -0.6616 -3.9574
 5201SOL    MW420572   0.134   1.245   1.446 -0.0637 -0.3003  0.0825
 5202SOL     OW20573   4.263   1.386   2.496  0.0525 -0.0268  0.2227
 5202SOL    HW220574   4.184   1.338   2.520 -0.0273 -1.0016 -1.7474
 5202SOL    HW320575   4.306   1.330   2.431  1.8980  0.8987  0.5876
 5202SOL    MW420576   4.258   1.372   2.490  0.2855 -0.0333  0.0109
 5203SOL     OW20577   5.151   3.587   5.455 -0.0058 -0.0319  0.1984
 5203SOL    HW220578   5.238   3.564   5.487  0.2679  0.1161 -0.4333
 5203SOL    HW320579   5.148   3.682   5.459  0.5361  0.0906 -1.4617
 5203SOL    MW420580   5.162   3.596   5.460  0.1018  0.0038 -0.1040
 5204SOL     OW20581   0.399   5.592   6.248 -0.0977 -0.0376  0.7182
 5204SOL    HW220582   0.422   5.509   6.207 -1.4425  0.0466 -0.2888
 5204SOL    HW320583   0.381   5.570   6.339  1.1203 -0.5521  0.8608
 5204SOL    MW420584   0.400   5.578   6.255 -0.1144 -0.0944  0.6042
 5205SOL     OW20585   6.197   2.546   5.568  0.4054 -0.0675  0.2471
 5205SOL    HW220586   6.256   2.568   5.640  0.8547  2.0417 -0.6739
 5205SOL    HW320587   6.110   2.562   5.603  0.6247  1.0487  0.3175
 5205SOL    MW420588   6.193   2.551   5.582  0.4936  0.3581  0.1349
 5206SOL     OW20589   5.963   0.162   4.033 -0.0321 -0.5195  0.5915
 5206SOL    HW220590   5.937   0.153   3.942 -0.9464 -1.0724  0.8825
 5206SOL    HW320591   5.896   0.112   4.081 -0.2350  0.7188  1.6446
 5206SOL    MW420592   5.951   0.154   4.028 -0.1795 -0.4290  0.7689
 5207SOL     OW20593   1.330   5.270   4.765 -0.4847  0.1094 -0.0751
 5207SOL    HW220594   1.274   5.324   4.709 -0.8715 -1.3257 -1.1207
 5207SOL    HW320595   1.281   5.188   4.775 -0.1287  0.0897  1.8540
 5207SOL    MW420596   1.316   5.267   4.759 -0.4888 -0.0825  0.0415
 5208SOL     OW20597   4.745   4.494   5.129 -0.3888  0.2822  0.0523
 5208SOL    HW220598   4.704   4.410   5.111  2.0731 -0.9185 -0.4341
 5208SOL    HW320599   4.698   4.557   5.074 -3.4783 -0.3561  1.7898
 5208SOL    MW420600   4.734   4.491   5.119 -0.4716  0.0396  0.2174
 5209SOL     OW20601   1.130   6.326   3.265  0.0315  0.3231  0.2160
 5209SOL    HW220602   1.038   6.305   3.245  0.0176 -1.0520  1.5622
 5209SOL    HW320603   1.162   6.250   3.313  1.0472  1.9460  2.2729
 5209SOL    MW420604   1.122   6.313   3.269  0.1636  0.3558  0.6650
 5210SOL     OW20605   5.149   6.118   3.919  0.1165  0.0742 -0.3531
 5210SOL    HW220606   5.108   6.158   3.842  0.5963  1.3466  0.0314
 5210SOL    HW320607   5.238   6.096   3.890 -0.4425 -1.7363 -0.8722
 5210SOL    MW420608   5.155   6.120   3.905  0.1060  0.0032 -0.3708
 5211SOL     OW20609   0.785   3.512   3.688  0.9415  0.0706 -0.7226
 5211SOL    HW220610   0.708   3.454   3.695  0.4239  0.7540 -0.6552
 5211SOL    HW320611   0.834   3.496   3.768 -0.0990  0.9785  0.1255
 5211SOL    MW420612   0.781   3.502   3.699  0.7359  0.2805 -0.6018
 5212SOL     OW20613   2.196   3.777   1.222  0.0442 -0.4768 -0.2570
 5212SOL    HW220614   2.255   3.716   1.177  2.3048  1.0190  0.5061
 5212SOL    HW320615   2.177   3.844   1.156  3.6884  1.9374  0.8856
 5212SOL    MW420616   2.201   3.778   1.207  0.8233  0.0391 -0.0055
 5213SOL     OW20617   4.678   4.943   3.884 -0.7761 -0.2633  0.0238
 5213SOL    HW220618   4.715   4.991   3.957 -0.0944  0.0057 -0.4835
 5213SOL    HW320619   4.685   5.003   3.809 -0.4345 -0.9361 -0.4962
 5213SOL    MW420620   4.684   4.957   3.883 -0.6411 -0.3166 -0.1117
 5214SOL     OW20621   2.948   0.289   5.053  0.5171  0.5589 -0.3217
 5214SOL    HW220622   2.959   0.327   5.141  0.8290  0.3800 -0.2806
 5214SOL    HW320623   2.948   0.365   4.994 -2.3254  0.9404  0.0193
 5214SOL    MW420624   2.950   0.304   5.057  0.1832  0.5857 -0.2713
 5215SOL     OW20625   4.897   4.591   4.744  0.1874  0.2155 -0.3849
 5215SOL    HW220626   4.832   4.650   4.783  0.6691  1.6302 -1.6059
 5215SOL    HW320627   4.964   4.650   4.709  0.9191 -1.0998 -1.2825
 5215SOL    MW420628   4.897   4.607   4.745  0.3475  0.2286 -0.6644
 5216SOL     OW20629   2.105   4.334   0.069  0.1085  0.7773  0.1661
 5216SOL    HW220630   2.176   4.294   0.120  1.1708  2.1550 -0.2061
 5216SOL    HW320631   2.078   4.410   0.121 -0.3436  0.9037 -0.2446
 5216SOL    MW420632   2.111   4.338   0.083  0.1890  0.9758  0.0628
 5217SOL     OW20633   0.336   2.575   4.824 -0.0738 -0.1081  0.2125
 5217SOL    HW220634   0.430   2.570   4.809 -0.4035 -0.1931 -2.1560
 5217SOL    HW320635   0.322   2.664   4.855  0.8327 -0.3129  1.2998
 5217SOL    MW420636   0.347   2.586   4.826  0.0023 -0.1463  0.0435
 5218SOL     OW20637   1.040   5.733   3.400 -0.1766 -0.3316 -0.0269
 5218SOL    HW220638   0.947   5.738   3.375 -0.0811  0.3262 -0.2556
 5218SOL    HW320639   1.065   5.643   3.378 -1.0998 -0.9375  1.2521
 5218SOL    MW420640   1.031   5.722   3.394 -0.2858 -0.3248  0.1117
 5219SOL     OW20641   6.401   5.154   5.503 -0.1195 -0.6051 -0.1238
 5219SOL    HW220642   6.356   5.092   5.561 -0.7969  0.9463  1.0733
 5219SOL    HW320643   6.331   5.196   5.454  0.1940  0.2286  0.1237
 5219SOL    MW420644   6.386   5.151   5.505 -0.1675 -0.2904  0.0668
 5220SOL     OW20645   2.446   2.667   3.017 -0.1670  0.3497 -0.2686
 5220SOL    HW220646   2.366   2.702   3.056  1.4271  2.0831  1.6781
 5220SOL    HW320647   2.463   2.725   2.943 -0.5584  0.1507 -0.5177
 5220SOL    MW420648   2.438   2.679   3.013 -0.0083  0.5521 -0.0446
 5221SOL     OW20649   3.340   0.467   3.747  0.3910 -0.2059 -0.0122
 5221SOL    HW220650   3.325   0.466   3.653  0.8278 -0.9102 -0.0803
 5221SOL    HW320651   3.352   0.559   3.769 -1.6850  0.1827 -0.3154
 5221SOL    MW420652   3.340   0.479   3.738  0.1748 -0.2475 -0.0612
 5222SOL     OW20653   0.179   2.201   0.514  0.0085 -0.2197  0.4647
 5222SOL    HW220654   0.092   2.169   0.495 -1.0247  2.3856  0.3140
 5222SOL    HW320655   0.230   2.123   0.535 -2.0512 -1.9221 -0.5137
 5222SOL    MW420656   0.175   2.187   0.515 -0.3996 -0.1006  0.3158
 5223SOL     OW20657   3.492   5.232   5.370 -0.1925  0.1269 -0.2047
 5223SOL    HW220658   3.547   5.181   5.311  2.1644  4.2891 -2.0116
 5223SOL    HW320659   3.511   5.196   5.457  2.2512 -1.2067 -1.1982
 5223SOL    MW420660   3.502   5.220   5.374  0.4409  0.5001 -0.5742
 5224SOL     OW20661   3.749   3.128   2.095 -0.0281 -0.1781  0.4833
 5224SOL    HW220662   3.669   3.128   2.148 -1.4163  1.2459 -1.4447
 5224SOL    HW320663   3.760   3.220   2.069  2.4350 -0.2825  0.9143
 5224SOL    MW420664   3.740   3.140   2.098  0.1137 -0.0040  0.2858
 5225SOL     OW20665   5.811   4.369   5.866  0.7476  0.0333 -0.1306
 5225SOL    HW220666   5.860   4.290   5.888  0.8549  0.3653  0.8401
 5225SOL    HW320667   5.729   4.361   5.913  0.0411 -0.2800 -1.3605
 5225SOL    MW420668   5.807   4.357   5.875  0.6686  0.0357 -0.1648
 5226SOL     OW20669   0.118   2.256   1.232 -0.3572  0.1111  0.6341
 5226SOL    HW220670   0.156   2.339   1.260 -0.5594  0.3205  0.3059
 5226SOL    HW320671   0.136   2.195   1.303 -0.2428  0.4490  0.8947
 5226SOL    MW420672   0.125   2.259   1.245 -0.3688  0.1833  0.6252
 5227SOL     OW20673   1.533   2.349   0.063 -0.4431 -0.7100 -0.4538
 5227SOL    HW220674   1.463   2.334   0.126 -1.9378 -1.5679 -2.2129
 5227SOL    HW320675   1.503   2.422   0.009  1.3013  0.7440  0.4178
 5227SOL    MW420676   1.520   2.356   0.064 -0.4102 -0.6313 -0.5709
 5228SOL     OW20677   0.714   3.336   4.093  0.5312  0.1106  0.3161
 5228SOL    HW220678   0.654   3.372   4.158  0.2350 -3.1390  2.0758
 5228SOL    HW320679   0.784   3.296   4.145 -0.3148 -3.6457 -1.1398
 5228SOL    MW420680   0.715   3.335   4.109  0.3805 -0.8137  0.3562
 5229SOL     OW20681   0.422   5.729   2.041 -0.8175 -0.1352  0.0499
 5229SOL    HW220682   0.510   5.692   2.034 -1.0500 -0.4412 -1.7199
 5229SOL    HW320683   0.376   5.699   1.962 -2.2876  0.6044  0.5747
 5229SOL    MW420684   0.428   5.720   2.030 -1.0422 -0.0780 -0.1144
 5230SOL     OW20685   1.993   1.567   1.802 -0.6354  0.0624 -0.0902
 5230SOL    HW220686   1.957   1.517   1.875 -0.5252 -1.7653 -1.2236
 5230SOL    HW320687   2.080   1.594   1.831 -0.9121  0.0524  0.7468
 5230SOL    MW420688   2.000   1.564   1.815 -0.6574 -0.1801 -0.1293
 5231SOL     OW20689   5.637   2.012   0.868 -0.7642  0.1104  0.4917
 5231SOL    HW220690   5.601   2.061   0.794 -1.3412  1.0749  1.3845
 5231SOL    HW320691   5.560   1.972   0.908 -0.5920  0.4923  1.2096
 5231SOL    MW420692   5.622   2.013   0.863 -0.8176  0.2880  0.7042
 5232SOL     OW20693   1.910   0.745   2.140  0.6819  0.2357 -0.6168
 5232SOL    HW220694   1.821   0.709   2.149  0.6746  0.4892  0.3783
 5232SOL    HW320695   1.949   0.734   2.226  0.0147  4.4038  0.3987
 5232SOL    MW420696   1.903   0.739   2.152  0.5929  0.8191 -0.3515
 5233SOL     OW20697   2.531   1.730   6.103  0.4231  0.1180 -0.2553
 5233SOL    HW220698   2.448   1.684   6.112  0.0424  0.2882 -2.3529
 5233SOL    HW320699   2.508   1.821   6.088  1.1808  1.1756  3.9185
 5233SOL    MW420700   2.517   1.736   6.102  0.4728  0.2800  0.0186
 5234SOL     OW20701   2.086   1.516   0.035  0.5487  0.0412 -0.0329
 5234SOL    HW220702   2.108   1.476   0.119 -0.4530  0.1795  0.3060
 5234SOL    HW320703   2.120   1.454  -0.030  0.3888 -0.5984  0.4794
 5234SOL    MW420704   2.094   1.503   0.037  0.3955 -0.0249  0.0794
 5235SOL     OW20705   5.506   3.941   4.706  0.3171  0.0068  0.0958
 5235SOL    HW220706   5.479   3.913   4.619  0.7975 -0.0558 -0.0373
 5235SOL    HW320707   5.425   3.946   4.756 -0.3976  2.9505 -1.1550
 5235SOL    MW420708   5.492   3.938   4.701  0.2862  0.3869 -0.0868
 5236SOL     OW20709   3.663   4.845   6.164  0.3520  0.9725 -0.2619
 5236SOL    HW220710   3.577   4.885   6.165  0.4759  1.2356  0.0579
 5236SOL    HW320711   3.648   4.755   6.136  0.0101  1.1002 -0.4847
 5236SOL    MW420712   3.650   4.838   6.161  0.3232  1.0241 -0.2491
 5237SOL     OW20713   6.265   1.644   1.802 -0.3140  0.1083  0.6720
 5237SOL    HW220714   6.217   1.608   1.877 -0.1288  1.4512  1.4706
 5237SOL    HW320715   6.274   1.738   1.822  0.2729  0.3816 -0.7494
 5237SOL    MW420716   6.260   1.652   1.815 -0.2121  0.3215  0.5898
 5238SOL     OW20717   2.003   6.325   3.697 -0.0403 -0.3078 -0.1237
 5238SOL    HW220718   1.910   6.339   3.709  0.3412  0.6758  2.0882
 5238SOL    HW320719   2.020   6.353   3.607 -1.5513  1.3564  0.0629
 5238SOL    MW420720   1.993   6.331   3.687 -0.1893  0.0415  0.1928
 5239SOL     OW20721   0.253   3.309   6.028  0.0291 -0.1901  0.5715
 5239SOL    HW220722   0.225   3.389   5.983 -1.3850 -1.1964 -0.4414
 5239SOL    HW320723   0.187   3.296   6.096  0.7828 -0.0120  1.3561
 5239SOL    MW420724   0.240   3.318   6.031 -0.0580 -0.2994  0.5414
 5240SOL     OW20725   0.529   0.192   6.297 -0.2053 -0.0102 -0.0571
 5240SOL    HW220726   0.575   0.273   6.277 -0.6039  0.7305  1.8248
 5240SOL    HW320727   0.575   0.156   6.373  0.1933 -1.7712 -1.0697
 5240SOL    MW420728   0.541   0.198   6.305 -0.2053 -0.1448  0.0576
 5241SOL     OW20729   3.133   3.866   1.338  0.0697 -0.0797  0.2770
 5241SOL    HW220730   3.130   3.942   1.397 -0.3229 -0.6710  1.0388
 5241SOL    HW320731   3.043   3.834   1.337  0.2616 -0.6157  0.0630
 5241SOL    MW420732   3.120   3.872   1.346  0.0432 -0.2284  0.3493
 5242SOL     OW20733   1.215   5.408   1.324  0.2385  0.2419 -0.1644
 5242SOL    HW220734   1.148   5.463   1.365  1.6786  0.6094  1.8092
 5242SOL    HW320735   1.249   5.354   1.395  0.6251 -1.4505 -1.5576
 5242SOL    MW420736   1.211   5.408   1.339  0.4795  0.0671 -0.0878
 5243SOL     OW20737   1.567   3.562   4.816 -0.2316  0.2943  0.4879
 5243SOL    HW220738   1.547   3.472   4.841 -1.8113  0.2352 -0.8098
 5243SOL    HW320739   1.575   3.559   4.721  1.0357  1.3061  0.5359
 5243SOL    MW420740   1.565   3.550   4.807 -0.2728  0.4200  0.3230
 5244SOL     OW20741   1.046   0.035   1.929 -0.6183 -0.2595 -0.7812
 5244SOL    HW220742   1.127   0.078   1.956 -0.9643 -1.3386  2.4070
 5244SOL    HW320743   0.980   0.105   1.933 -0.3549 -0.0319 -0.3396
 5244SOL    MW420744   1.048   0.050   1.933 -0.6292 -0.3718 -0.3023
 5245SOL     OW20745   6.137   0.624   3.443 -0.3536 -0.2481  0.3829
 5245SOL    HW220746   6.192   0.546   3.439  0.2730  0.1664  0.7170
 5245SOL    HW320747   6.051   0.591   3.470  0.7128 -0.5171  4.0563
 5245SOL    MW420748   6.132   0.610   3.446 -0.1302 -0.2289  0.9116
 5246SOL     OW20749   0.164   0.474   3.027  0.3176  1.0837 -0.0764
 5246SOL    HW220750   0.248   0.511   3.001  0.1641  0.2987 -1.8588
 5246SOL    HW320751   0.138   0.524   3.104  1.4050  2.7819 -0.7575
 5246SOL    MW420752   0.172   0.485   3.034  0.4408  1.2042 -0.4015
 5247SOL     OW20753   4.472   5.972   3.604 -0.4667 -0.2364 -0.7144
 5247SOL    HW220754   4.477   5.885   3.563  0.8825 -0.1552 -0.7575
 5247SOL    HW320755   4.518   5.962   3.687  0.1941  0.5627 -0.9650
 5247SOL    MW420756   4.479   5.959   3.609 -0.2015 -0.1203 -0.7531
 5248SOL     OW20757   2.274   2.799   3.246 -0.3343 -0.5562 -0.3177
 5248SOL    HW220758   2.278   2.760   3.333  0.7219  1.3709  0.5628
 5248SOL    HW320759   2.184   2.830   3.237 -0.4188 -0.6725  0.1315
 5248SOL    MW420760   2.263   2.798   3.256 -0.2061 -0.3173 -0.1423
 5249SOL     OW20761   4.498   5.190   1.785  0.5033  0.0114  0.1521
 5249SOL    HW220762   4.537   5.226   1.865 -1.0071 -0.2008  1.0352
 5249SOL    HW320763   4.487   5.265   1.727 -1.2146  0.7491  1.3716
 5249SOL    MW420764   4.502   5.205   1.788  0.0774  0.0807  0.4295
 5250SOL     OW20765   5.479   1.078   3.102 -0.2782  0.0332  0.6630
 5250SOL    HW220766   5.397   1.126   3.089  0.8983  2.5959  2.0103
 5250SOL    HW320767   5.547   1.143   3.086  1.4869 -1.7148  0.7903
 5250SOL    MW420768   5.477   1.093   3.098  0.1099  0.1407  0.8575
 5251SOL     OW20769   2.113   3.146   1.936  0.4293  0.7079 -0.0655
 5251SOL    HW220770   2.138   3.221   1.991  1.7911  0.8483 -0.8400
 5251SOL    HW320771   2.035   3.110   1.979 -0.7362  3.0203 -0.0760
 5251SOL    MW420772   2.106   3.151   1.949  0.4552  1.0315 -0.1690
 5252SOL     OW20773   6.325   2.568   5.820 -0.5488 -0.1600  0.0045
 5252SOL    HW220774   6.378   2.488   5.823 -2.0454 -1.1624  1.8229
 5252SOL    HW320775   6.388   2.639   5.835  0.4609 -1.2157  0.9358
 5252SOL    MW420776   6.340   2.567   5.823 -0.6130 -0.4315  0.3673
 5253SOL     OW20777   0.543   5.350   0.764  0.3561 -0.1495 -0.2611
 5253SOL    HW220778   0.580   5.356   0.852  0.2534 -0.9043 -0.1522
 5253SOL    HW320779   0.588   5.275   0.725 -0.6938 -0.7776 -0.2995
 5253SOL    MW420780   0.554   5.341   0.770  0.2040 -0.3319 -0.2518
 5254SOL     OW20781   5.738   1.413   2.912  0.5970  0.1029 -0.5856
 5254SOL    HW220782   5.825   1.396   2.875  1.6630  0.0628  1.7666
 5254SOL    HW320783   5.729   1.347   2.981 -1.2535  0.2456 -0.6505
 5254SOL    MW420784   5.748   1.402   2.916  0.4935  0.1164 -0.2838
 5255SOL     OW20785   5.343   1.486   1.557 -0.3481  0.2883 -0.6299
 5255SOL    HW220786   5.278   1.495   1.488  0.4860  2.4243 -1.2052
 5255SOL    HW320787   5.408   1.553   1.538  1.4557 -1.0318  0.5749
 5255SOL    MW420788   5.343   1.496   1.546 -0.0000  0.3960 -0.5469
 5256SOL     OW20789   0.449   0.254   0.873 -0.4788 -0.1278 -0.0013
 5256SOL    HW220790   0.424   0.327   0.931  0.3517 -0.0393  0.2590
 5256SOL    HW320791   0.482   0.187   0.932 -1.4626 -0.8322 -0.2191
 5256SOL    MW420792   0.450   0.255   0.889 -0.4990 -0.2090  0.0043
 5257SOL     OW20793   2.388   3.714   2.252 -0.1444  0.3895  0.2526
 5257SOL    HW220794   2.465   3.757   2.215 -1.2059  3.0432  0.9138
 5257SOL    HW320795   2.333   3.693   2.176  0.6517 -0.3759 -0.1241
 5257SOL    MW420796   2.391   3.717   2.237 -0.1794  0.6387  0.2902
 5258SOL     OW20797   1.621   4.786   4.740  0.3325 -0.1237  0.3895
 5258SOL    HW220798   1.666   4.869   4.753  0.5104 -0.1474 -0.0488
 5258SOL    HW320799   1.574   4.797   4.658 -1.9598  0.5474  1.7108
 5258SOL    MW420800   1.621   4.798   4.731  0.0535 -0.0383  0.5060
 5259SOL     OW20801   5.885   1.663   5.070  0.1979 -0.0882 -0.4895
 5259SOL    HW220802   5.921   1.727   5.008 -0.3105  0.2680 -0.4303
 5259SOL    HW320803   5.912   1.578   5.035  0.9072  0.1610 -0.5523
 5259SOL    MW420804   5.893   1.660   5.057  0.2244 -0.0083 -0.4900
 5260SOL     OW20805   5.613   1.752   5.351  0.3144  0.5244 -0.3219
 5260SOL    HW220806   5.547   1.730   5.286  0.3905 -0.9181  0.0685
 5260SOL    HW320807   5.563   1.771   5.430  0.3405 -0.5514 -0.0311
 5260SOL    MW420808   5.598   1.752   5.353  0.3278  0.1922 -0.2320
 5261SOL     OW20809   3.038   0.997   5.246  0.7244  0.9427  0.3458
 5261SOL    HW220810   3.028   0.974   5.338 -1.7581 -1.1180 -0.3229
 5261SOL    HW320811   2.992   1.080   5.236 -2.6570 -0.7761  0.3307
 5261SOL    MW420812   3.031   1.005   5.257 -0.0493  0.4440  0.2556
 5262SOL     OW20813   2.706   4.802   0.111  0.7188  0.8970  0.3463
 5262SOL    HW220814   2.677   4.764   0.194  0.3906  2.6163  1.0732
 5262SOL    HW320815   2.800   4.788   0.109  0.6708  0.4723  0.7975
 5262SOL    MW420816   2.714   4.795   0.122  0.6692  1.0678  0.5018
 5263SOL     OW20817   4.279   5.925   2.732  0.0061 -0.1465 -0.0857
 5263SOL    HW220818   4.250   6.011   2.701  0.2170 -0.8779 -2.6002
 5263SOL    HW320819   4.298   5.937   2.825  0.2819  2.5790 -0.4265
 5263SOL    MW420820   4.278   5.938   2.740  0.0703  0.1166 -0.4624
 5264SOL     OW20821   2.412   2.374   2.557 -0.7557 -0.3238 -0.6564
 5264SOL    HW220822   2.504   2.366   2.534 -0.6640  0.7996 -0.7162
 5264SOL    HW320823   2.376   2.436   2.493 -1.7317 -1.3281 -1.1136
 5264SOL    MW420824   2.419   2.381   2.546 -0.8724 -0.3081 -0.7246
 5265SOL     OW20825   2.692   5.428   5.842  0.1512  0.2198  0.0636
 5265SOL    HW220826   2.613   5.379   5.819  1.1475 -0.5635 -1.8116
 5265SOL    HW320827   2.714   5.398   5.930 -1.7477  0.6495  0.7481
 5265SOL    MW420828   2.684   5.418   5.851  0.0322  0.1732 -0.0935
 5266SOL     OW20829   4.829   2.698   5.904 -0.4823  0.0309  0.2178
 5266SOL    HW220830   4.752   2.722   5.852 -0.3475  0.6107  0.2786
 5266SOL    HW320831   4.817   2.746   5.987  0.5555  1.1121 -0.2351
 5266SOL    MW420832   4.817   2.708   5.908 -0.3276  0.2500  0.1661
 5267SOL     OW20833   2.375   0.073   4.009 -0.2352 -0.8744  0.0344
 5267SOL    HW220834   2.381   0.093   4.102 -1.5728 -1.0237  0.1772
 5267SOL    HW320835   2.402   0.154   3.966 -3.6743  0.7860  0.6091
 5267SOL    MW420836   2.379   0.086   4.016 -0.8654 -0.6750  0.1290
 5268SOL     OW20837   1.083   4.048   4.713 -0.5025 -0.8025 -0.5440
 5268SOL    HW220838   1.082   4.078   4.803 -1.4935  0.1066 -0.8407
 5268SOL    HW320839   1.026   3.971   4.713  1.8773 -2.7051  0.1731
 5268SOL    MW420840   1.075   4.042   4.725 -0.3193 -0.9336 -0.4885
 5269SOL     OW20841   0.848   0.137   2.648 -0.3126 -0.0274  0.2481
 5269SOL    HW220842   0.811   0.067   2.594  0.6162 -1.1303  0.9826
 5269SOL    HW320843   0.780   0.205   2.649 -0.9588 -0.6226 -1.0390
 5269SOL    MW420844   0.834   0.136   2.641 -0.2753 -0.2515  0.1752
 5270SOL     OW20845   4.551   3.783   3.191 -0.6865  0.6089  0.4455
 5270SOL    HW220846   4.507   3.778   3.106  1.5383  0.7000 -0.7724
 5270SOL    HW320847   4.510   3.713   3.242 -0.9319 -0.5640 -1.2563
 5270SOL    MW420848   4.540   3.773   3.186 -0.4253  0.4662  0.0603
 5271SOL     OW20849   0.049   2.564   0.874 -0.0989  0.4197 -0.1959
 5271SOL    HW220850   0.077   2.652   0.850 -1.6679  1.1247  0.4060
 5271SOL    HW320851   0.130   2.516   0.890  0.8154  1.4804 -1.4140
 5271SOL    MW420852   0.063   2.569   0.873 -0.1853  0.6526 -0.2772
 5272SOL     OW20853   0.046   1.308   5.078  0.1934  0.1005  0.0472
 5272SOL    HW220854  -0.017   1.314   5.151  1.1331  0.5849  0.8444
 5272SOL    HW320855   0.069   1.399   5.060 -0.1101 -0.0106 -0.9513
 5272SOL    MW420856   0.040   1.321   5.086  0.2773  0.1497  0.0207
 5273SOL     OW20857   5.038   1.180   2.041 -0.4123  1.0132 -0.0723
 5273SOL    HW220858   5.100   1.222   2.100  0.5530 -0.4979  0.0536
 5273SOL    HW320859   5.060   1.086   2.046 -2.3249  0.5026 -0.4767
 5273SOL    MW420860   5.049   1.173   2.049 -0.5373  0.7465 -0.1090
 5274SOL     OW20861   6.406   2.209   5.260 -0.0781  0.5022 -0.5636
 5274SOL    HW220862   6.324   2.167   5.286  1.1686 -0.6839  1.8437
 5274SOL    HW320863   6.474   2.144   5.281  1.5536  1.6996 -1.8111
 5274SOL    MW420864   6.404   2.195   5.267  0.3017  0.5037 -0.4106
 5275SOL     OW20865   4.457   5.772   1.527 -0.1557  0.1276  0.1347
 5275SOL    HW220866   4.520   5.836   1.559  1.8076 -1.0506 -1.2195
 5275SOL    HW320867   4.433   5.721   1.605  2.1401 -0.6677  0.4071
 5275SOL    MW420868   4.462   5.773   1.542  0.4062 -0.1327 -0.0080
 5276SOL     OW20869   4.606   1.357   0.139  0.3994  0.1852  0.7191
 5276SOL    HW220870   4.566   1.329   0.057 -1.6128  0.4586  1.5644
 5276SOL    HW320871   4.656   1.281   0.168 -1.1804 -0.9235  0.6456
 5276SOL    MW420872   4.608   1.343   0.132 -0.0745  0.0750  0.8209
 5277SOL     OW20873   6.053   1.355   0.132 -0.2196 -0.0765 -0.8061
 5277SOL    HW220874   6.110   1.359   0.208  0.2368 -0.5020 -1.1225
 5277SOL    HW320875   6.056   1.444   0.096  0.4652 -0.1672 -0.9809
 5277SOL    MW420876   6.061   1.367   0.137 -0.0690 -0.1446 -0.8709
 5278SOL     OW20877   5.001   1.362   3.298  0.1956 -0.2715 -0.5788
 5278SOL    HW220878   4.930   1.311   3.258  0.2907 -1.4264  0.6378
 5278SOL    HW320879   4.959   1.410   3.369  0.2309  0.8771 -1.3108
 5278SOL    MW420880   4.986   1.362   3.302  0.2128 -0.2723 -0.5149
 5279SOL     OW20881   0.754   3.360   3.042 -0.1784 -0.4091  0.1447
 5279SOL    HW220882   0.843   3.332   3.065  0.2958  0.2517 -0.8363
 5279SOL    HW320883   0.735   3.433   3.101 -0.7122 -1.5612  1.4545
 5279SOL    MW420884   0.763   3.366   3.053 -0.1863 -0.4739  0.1881
 5280SOL     OW20885   0.398   2.844   4.058 -0.2750 -0.7930  0.1039
 5280SOL    HW220886   0.420   2.829   3.966 -1.1334  1.5894 -0.5653
 5280SOL    HW320887   0.450   2.780   4.106  0.5152 -1.8234 -1.9915
 5280SOL    MW420888   0.408   2.833   4.052 -0.2840 -0.6146 -0.2608
 5281SOL     OW20889   2.707   3.563   5.497 -0.2011  0.2027  1.1366
 5281SOL    HW220890   2.679   3.477   5.530  4.4135 -1.2621  1.9480
 5281SOL    HW320891   2.726   3.614   5.576 -1.3989  1.5103  0.6380
 5281SOL    MW420892   2.706   3.558   5.512  0.2497  0.1819  1.1779
 5282SOL     OW20893   1.988   5.917   4.804  0.3931 -0.3872  0.2202
 5282SOL    HW220894   1.914   5.925   4.744 -1.0400 -2.1547  1.6508
 5282SOL    HW320895   1.984   5.997   4.857 -0.6795 -0.5936  0.4681
 5282SOL    MW420896   1.977   5.929   4.803  0.0625 -0.6477  0.4416
 5283SOL     OW20897   0.571   0.628   1.320 -0.0820  0.2494  0.6368
 5283SOL    HW220898   0.581   0.596   1.231  0.4118  2.6960 -0.2443
 5283SOL    HW320899   0.476   0.635   1.332 -0.1404  0.7311 -0.0385
 5283SOL    MW420900   0.560   0.625   1.310 -0.0246  0.6357  0.4314
 5284SOL     OW20901   1.197   1.714   4.299  0.3414  0.1316  0.3333
 5284SOL    HW220902   1.182   1.643   4.361  0.6618 -0.6510 -0.4662
 5284SOL    HW320903   1.239   1.672   4.224  1.3547  1.3195  0.2045
 5284SOL    MW420904   1.200   1.699   4.297  0.5173  0.1851  0.2108
 5285SOL     OW20905   2.049   1.085   5.121 -0.4226  0.2902 -0.1784
 5285SOL    HW220906   2.115   1.018   5.103 -1.3184 -0.4289 -0.8686
 5285SOL    HW320907   2.099   1.160   5.153  0.5130 -1.1282  1.8965
 5285SOL    MW420908   2.064   1.086   5.123 -0.4173  0.0082  0.0043
 5286SOL     OW20909   4.013   4.957   4.204  0.0502  0.2218  0.2836
 5286SOL    HW220910   4.032   5.048   4.227 -1.2632  0.3611  0.9238
 5286SOL    HW320911   4.073   4.905   4.257 -1.1831  0.6399  2.2166
 5286SOL    MW420912   4.023   4.962   4.214 -0.2858  0.2953  0.6231
 5287SOL     OW20913   6.377   1.843   3.651  0.1354  0.0845 -0.5480
 5287SOL    HW220914   6.367   1.931   3.688  0.8228  0.0767 -0.3283
 5287SOL    HW320915   6.439   1.799   3.710  0.3290 -0.3199 -1.0496
 5287SOL    MW420916   6.384   1.849   3.664  0.2516  0.0301 -0.5852
 5288SOL     OW20917   4.284   5.740   0.118 -0.3721  0.2683  0.0735
 5288SOL    HW220918   4.324   5.654   0.136 -0.0768  0.5199  0.6261
 5288SOL    HW320919   4.198   5.719   0.082 -1.2259 -0.2714  2.2664
 5288SOL    MW420920   4.278   5.726   0.116 -0.4458  0.2303  0.4357
 5289SOL     OW20921   6.117   4.286   2.725  0.4342 -0.9854  0.6161
 5289SOL    HW220922   6.038   4.331   2.754 -0.0860  0.1110 -2.2444
 5289SOL    HW320923   6.173   4.284   2.803 -1.7929 -0.4917  2.3253
 5289SOL    MW420924   6.114   4.292   2.739  0.0717 -0.7756  0.4642
 5290SOL     OW20925   4.966   2.797   3.078 -0.0497  0.0302 -0.1199
 5290SOL    HW220926   4.983   2.871   3.020  0.5156 -0.7991 -1.0456
 5290SOL    HW320927   5.011   2.820   3.159  0.5727  0.4729 -0.5789
 5290SOL    MW420928   4.974   2.810   3.081  0.1070 -0.0208 -0.3026
 5291SOL     OW20929   3.221   4.112   3.310 -0.1056 -0.0896 -0.6195
 5291SOL    HW220930   3.246   4.019   3.310  0.5841  0.0816 -1.2543
 5291SOL    HW320931   3.305   4.159   3.314 -0.5061  0.5208  1.4812
 5291SOL    MW420932   3.236   4.106   3.310 -0.0674  0.0135 -0.4261
 5292SOL     OW20933   4.289   4.827   5.229 -0.4374 -0.1372  0.2590
 5292SOL    HW220934   4.198   4.798   5.238 -0.2283 -1.0890 -0.5432
 5292SOL    HW320935   4.295   4.861   5.139  0.2171 -0.9334 -0.0116
 5292SOL    MW420936   4.278   4.828   5.218 -0.3234 -0.3679  0.1175
 5293SOL     OW20937   1.799   5.495   6.425 -0.1544  0.0621 -0.2882
 5293SOL    HW220938   1.740   5.531   6.492  0.7007  3.7398 -1.3160
 5293SOL    HW320939   1.741   5.442   6.370 -1.4850 -0.4474  1.4780
 5293SOL    MW420940   1.783   5.493   6.427 -0.2171  0.4801 -0.1908
 5294SOL     OW20941   3.438   5.639   3.406 -0.1775  0.0115  0.3575
 5294SOL    HW220942   3.361   5.582   3.413 -0.2090 -0.0572 -0.5439
 5294SOL    HW320943   3.502   5.598   3.464 -0.3007 -0.7844 -0.0556
 5294SOL    MW420944   3.436   5.626   3.415 -0.1979 -0.1026  0.1841
 5295SOL     OW20945   0.998   2.129   6.011 -0.1931  0.0688 -0.1282
 5295SOL    HW220946   0.921   2.087   5.974 -0.5611  0.8527 -0.2722
 5295SOL    HW320947   0.965   2.179   6.085  0.1404  0.5544 -0.3015
 5295SOL    MW420948   0.984   2.130   6.016 -0.1977  0.2363 -0.1701
 5296SOL     OW20949   2.875   0.313   0.119  0.0961  0.1289  0.1839
 5296SOL    HW220950   2.926   0.277   0.047 -1.3794 -0.7313 -0.4837
 5296SOL    HW320951   2.835   0.392   0.082  0.6779  0.6259  0.6031
 5296SOL    MW420952   2.876   0.319   0.104 -0.0218  0.0810  0.1511
 5297SOL     OW20953   0.105   1.358   5.827 -0.5508  0.5086 -0.0419
 5297SOL    HW220954   0.067   1.289   5.881 -0.1682 -0.0273 -0.4480
 5297SOL    HW320955   0.196   1.331   5.814 -1.0982 -0.3580 -2.5310
 5297SOL    MW420956   0.112   1.345   5.833 -0.5725  0.3236 -0.4239
 5298SOL     OW20957   3.896   3.382   0.781 -0.0558  0.3457  0.3761
 5298SOL    HW220958   3.937   3.302   0.813  0.5454 -0.2435 -1.7007
 5298SOL    HW320959   3.829   3.353   0.720  1.1856  1.3759 -1.5957
 5298SOL    MW420960   3.893   3.368   0.777  0.1873  0.4039 -0.1581
 5299SOL     OW20961   3.373   3.443   2.264 -0.7659 -0.1316  0.5430
 5299SOL    HW220962   3.383   3.376   2.332 -2.9395 -0.9693  0.1311
 5299SOL    HW320963   3.414   3.404   2.186 -2.7268 -1.4437  0.0819
 5299SOL    MW420964   3.380   3.429   2.263 -1.3114 -0.4152  0.4279
 5300SOL     OW20965   5.210   1.310   5.992 -0.7259 -0.7376  0.5856
 5300SOL    HW220966   5.143   1.244   6.011 -1.5539 -0.2071 -0.3890
 5300SOL    HW320967   5.162   1.393   5.989 -0.3353 -0.5149 -1.5803
 5300SOL    MW420968   5.195   1.312   5.994 -0.7836 -0.6383  0.1712
 5301SOL     OW20969   0.924   3.090   2.415 -0.1782 -0.1694 -0.3550
 5301SOL    HW220970   0.852   3.152   2.408 -0.5172 -0.4686  0.3707
 5301SOL    HW320971   0.883   3.007   2.437  0.4866  0.0118  1.7798
 5301SOL    MW420972   0.909   3.088   2.417 -0.1352 -0.1849  0.0224
 5302SOL     OW20973   3.611   3.009   5.831  0.0404  0.0379 -0.0959
 5302SOL    HW220974   3.697   3.043   5.808 -0.6234  3.4028  1.8481
 5302SOL    HW320975   3.549   3.071   5.792 -1.5164 -1.6070 -0.3886
 5302SOL    MW420976   3.614   3.021   5.823 -0.2526  0.2648  0.1220
 5303SOL     OW20977   1.138   1.820   6.290 -0.5831 -0.0433 -0.3294
 5303SOL    HW220978   1.105   1.753   6.350 -0.2924 -0.2471 -0.3972
 5303SOL    HW320979   1.229   1.796   6.274 -1.0901 -0.9159 -2.1238
 5303SOL    MW420980   1.146   1.808   6.296 -0.6116 -0.1853 -0.5751
 5304SOL     OW20981   2.734   5.359   3.959 -0.3930  0.2226  0.0104
 5304SOL    HW220982   2.701   5.280   4.002  2.1369 -0.7728  0.2919
 5304SOL    HW320983   2.664   5.423   3.971 -1.7326 -1.3934  1.4588
 5304SOL    MW420984   2.720   5.357   3.966 -0.2359 -0.1220  0.2386
 5305SOL     OW20985   4.552   5.338   5.069 -0.7560  0.8051  0.6190
 5305SOL    HW220986   4.460   5.323   5.091 -0.7987  0.3247  0.1264
 5305SOL    HW320987   4.601   5.292   5.137 -0.8837 -1.4515 -0.7439
 5305SOL    MW420988   4.546   5.330   5.081 -0.7785  0.4440  0.3742
 5306SOL     OW20989   1.007   4.960   3.740 -0.2984  0.4166  0.2865
 5306SOL    HW220990   1.019   5.026   3.807  1.4622  1.3758 -0.9090
 5306SOL    HW320991   0.973   5.008   3.664 -2.2053 -0.6330  0.4126
 5306SOL    MW420992   1.004   4.975   3.738 -0.3177  0.4047  0.1454
 5307SOL     OW20993   5.191   5.467   1.304 -0.5058 -0.1164  0.5951
 5307SOL    HW220994   5.258   5.534   1.290 -1.1663  0.3039 -0.8670
 5307SOL    HW320995   5.165   5.478   1.395  0.8874  0.1952  0.9754
 5307SOL    MW420996   5.196   5.477   1.314 -0.4092 -0.0198  0.4524
 5308SOL     OW20997   0.900   5.618   2.566  0.5635  0.4439  0.8295
 5308SOL    HW220998   0.830   5.557   2.587  0.8510  0.3165  1.4440
 5308SOL    HW320999   0.887   5.692   2.626 -0.1185  1.2712 -0.2849
 5308SOL    MW421000   0.889   5.620   2.577  0.5115  0.5363  0.7635
 5309SOL     OW21001   3.742   3.350   4.765 -0.1207  0.7579 -0.7282
 5309SOL    HW221002   3.700   3.434   4.747 -0.9190  0.4133 -0.5055
 5309SOL    HW321003   3.836   3.370   4.766 -0.3195  2.4924  3.2134
 5309SOL    MW421004   3.749   3.364   4.763 -0.2522  0.9413 -0.1788
 5310SOL     OW21005   6.186   5.571   2.999 -0.3481  0.7691  0.4135
 5310SOL    HW221006   6.268   5.604   2.963  0.5366 -0.4524  1.2455
 5310SOL    HW321007   6.120   5.595   2.934  0.7124  1.4401 -0.4509
 5310SOL    MW421008   6.188   5.579   2.986 -0.0914  0.6964  0.4092
 5311SOL     OW21009   0.785   4.053   5.003 -0.0459  0.0254  0.2436
 5311SOL    HW221010   0.877   4.074   4.987  0.3138  1.1991  3.2356
 5311SOL    HW321011   0.746   4.048   4.915  2.5164  1.0686 -1.0591
 5311SOL    MW421012   0.792   4.055   4.989  0.3396  0.3179  0.4665
 5312SOL     OW21013   0.014   1.017   5.678  0.0412 -0.0903  0.0572
 5312SOL    HW221014   0.090   1.031   5.621 -0.1247 -1.2908 -0.4793
 5312SOL    HW321015  -0.027   0.938   5.645  0.2458 -1.1634  2.1589
 5312SOL    MW421016   0.019   1.009   5.666  0.0463 -0.3903  0.2637
 5313SOL     OW21017   0.314   4.251   0.407 -0.4432 -0.2839  0.1552
 5313SOL    HW221018   0.403   4.277   0.384 -0.0269 -1.1363  0.7425
 5313SOL    HW321019   0.280   4.209   0.329 -0.8204  1.1966 -0.5164
 5313SOL    MW421020   0.321   4.249   0.394 -0.4380 -0.2010  0.1441
 5314SOL     OW21021   0.386   1.486   5.158 -0.3530 -0.0528  0.2807
 5314SOL    HW221022   0.381   1.556   5.223  0.3417  0.9419 -0.6904
 5314SOL    HW321023   0.475   1.492   5.123 -1.0147  0.1411 -1.4812
 5314SOL    MW421024   0.397   1.496   5.162 -0.3486  0.1040 -0.0799
 5315SOL     OW21025   1.140   5.116   4.496  0.1000  0.0514  0.2938
 5315SOL    HW221026   1.138   5.082   4.407  0.1823 -1.4716  0.8428
 5315SOL    HW321027   1.077   5.063   4.544  0.6765  0.2698  1.3340
 5315SOL    MW421028   1.131   5.105   4.491  0.1870 -0.1208  0.5034
 5316SOL     OW21029   0.826   4.830   3.142  0.0657 -0.0218  0.0212
 5316SOL    HW221030   0.902   4.778   3.168 -0.2928 -0.8132 -0.4994
 5316SOL    HW321031   0.784   4.854   3.224 -0.1257 -1.0961  0.2445
 5316SOL    MW421032   0.830   4.827   3.156 -0.0068 -0.2680 -0.0180
 5317SOL     OW21033   3.218   0.180   5.008 -0.0498 -0.8636 -0.2209
 5317SOL    HW221034   3.142   0.237   5.016  1.5403  1.4524 -0.3585
 5317SOL    HW321035   3.267   0.193   5.089  0.1507 -2.4080 -0.0693
 5317SOL    MW421036   3.215   0.189   5.019  0.1864 -0.7618 -0.2191
 5318SOL     OW21037   0.918   4.973   2.208 -0.3488 -0.1248  0.5006
 5318SOL    HW221038   0.884   4.960   2.296 -0.1690  0.7833  0.7140
 5318SOL    HW321039   0.978   4.900   2.194 -0.4896 -0.3530  1.0647
 5318SOL    MW421040   0.921   4.962   2.217 -0.3436 -0.0351  0.6032
 5319SOL     OW21041   1.689   0.868   5.609 -0.5608 -0.6335 -0.1249
 5319SOL    HW221042   1.648   0.811   5.544 -1.8138  1.0660 -0.8916
 5319SOL    HW321043   1.617   0.918   5.647  0.5146  0.6285  0.3283
 5319SOL    MW421044   1.674   0.867   5.606 -0.5843 -0.2428 -0.1662
 5320SOL     OW21045   3.085   2.329   3.572  0.7392 -0.2310  0.3671
 5320SOL    HW221046   2.993   2.316   3.547  1.3308 -0.0617 -2.2367
 5320SOL    HW321047   3.084   2.336   3.667 -2.1327  1.1829  0.3361
 5320SOL    MW421048   3.073   2.328   3.581  0.4383 -0.0221  0.0195
 5321SOL     OW21049   4.673   5.603   1.781  0.2348 -0.1324 -0.8534
 5321SOL    HW221050   4.705   5.561   1.701  0.1774 -1.0686 -0.3957
 5321SOL    HW321051   4.578   5.603   1.772  0.2162 -0.4808 -0.6676
 5321SOL    MW421052   4.664   5.598   1.770  0.2248 -0.3019 -0.7685
 5322SOL     OW21053   5.660   5.470   5.872  0.3977 -0.0067  1.1692
 5322SOL    HW221054   5.643   5.453   5.965  0.1057  0.9479  1.3004
 5322SOL    HW321055   5.725   5.540   5.872 -0.4924  0.8372  0.6644
 5322SOL    MW421056   5.667   5.477   5.884  0.2417  0.2306  1.1199
 5323SOL     OW21057   3.651   1.995   2.013 -0.4797  0.1518  0.2297
 5323SOL    HW221058   3.642   2.079   1.968  0.8446 -0.1825 -0.7125
 5323SOL    HW321059   3.741   1.995   2.045  0.0777 -1.5556 -1.1928
 5323SOL    MW421060   3.662   2.006   2.011 -0.2314 -0.1176 -0.0823
 5324SOL     OW21061   4.123   3.584   3.994  0.0529  0.8427  0.0205
 5324SOL    HW221062   4.130   3.521   3.921 -1.5599 -0.4016  0.8662
 5324SOL    HW321063   4.165   3.541   4.067  0.3010  1.4239  0.2231
 5324SOL    MW421064   4.129   3.570   3.994 -0.1272  0.7552  0.1588
 5325SOL     OW21065   3.074   0.408   1.630 -0.2299 -0.0447 -0.2825
 5325SOL    HW221066   3.128   0.420   1.552  0.5861  0.2770  0.3207
 5325SOL    HW321067   3.115   0.336   1.678 -1.0256 -0.5889 -0.3939
 5325SOL    MW421068   3.086   0.400   1.626 -0.2273 -0.0740 -0.2177
 5326SOL     OW21069   2.004   2.362   2.716 -0.2833  0.2661 -0.0084
 5326SOL    HW221070   2.084   2.410   2.736 -0.5901 -0.0111  2.2030
 5326SOL    HW321071   1.952   2.423   2.663  0.3749  1.4355  0.6341
 5326SOL    MW421072   2.007   2.377   2.712 -0.2369  0.3838  0.3682
 5327SOL     OW21073   3.450   1.311   3.180  0.1541  0.0186 -0.0424
 5327SOL    HW221074   3.437   1.243   3.115 -0.3944 -0.3523  0.4469
 5327SOL    HW321075   3.393   1.382   3.153 -0.7674 -0.4840  0.5081
 5327SOL    MW421076   3.441   1.311   3.168 -0.0398 -0.0966  0.0947
 5328SOL     OW21077   3.407   4.283   1.416  0.2573 -0.0892 -0.3553
 5328SOL    HW221078   3.488   4.239   1.443  0.7285  0.4146 -0.9170
 5328SOL    HW321079   3.431   4.375   1.408 -0.2379 -0.0109 -1.0319
 5328SOL    MW421080   3.421   4.289   1.418  0.2542 -0.0124 -0.5187
 5329SOL     OW21081   5.033   0.664   1.569 -0.2195 -0.6926 -0.1449
 5329SOL    HW221082   5.038   0.749   1.523  0.2522 -1.2258 -1.1194
 5329SOL    HW321083   4.940   0.651   1.584 -0.4723 -0.8490 -1.6788
 5329SOL    MW421084   5.021   0.674   1.565 -0.1906 -0.7836 -0.4758
 5330SOL     OW21085   2.688   5.149   4.135  0.3496  0.4297  0.2943
 5330SOL    HW221086   2.758   5.084   4.148 -0.3821 -0.9557 -2.1206
 5330SOL    HW321087   2.607   5.098   4.140 -0.5081  1.8731  2.2036
 5330SOL    MW421088   2.687   5.134   4.137  0.1399  0.4373  0.2276
 5331SOL     OW21089   0.336   3.182   3.434  0.2357 -0.3348 -0.7145
 5331SOL    HW221090   0.392   3.193   3.357 -0.6313 -0.4026 -1.3802
 5331SOL    HW321091   0.258   3.234   3.414 -0.7801 -1.8018 -0.6889
 5331SOL    MW421092   0.333   3.191   3.421 -0.0127 -0.5373 -0.7989
 5332SOL     OW21093   0.733   5.136   2.035  0.1319 -0.0968 -0.0074
 5332SOL    HW221094   0.785   5.068   2.079  0.8062  0.0429 -0.5797
 5332SOL    HW321095   0.742   5.213   2.092 -0.0158 -0.2724  0.2540
 5332SOL    MW421096   0.741   5.137   2.048  0.2014 -0.1015 -0.0484
 5333SOL     OW21097   0.758   1.574   3.429  0.3054 -0.6402  0.3725
 5333SOL    HW221098   0.762   1.664   3.461 -1.1245 -0.1957 -0.5972
 5333SOL    HW321099   0.848   1.552   3.406  0.3602  1.5075 -1.8703
 5333SOL    MW421100   0.770   1.583   3.430  0.1240 -0.2982 -0.0514
 5334SOL     OW21101   5.886   1.183   2.523 -0.0445 -0.1637  0.2188
 5334SOL    HW221102   5.942   1.191   2.600 -0.1674 -2.5069  0.6248
 5334SOL    HW321103   5.945   1.196   2.449  0.8164 -1.3071  0.6712
 5334SOL    MW421104   5.901   1.186   2.523  0.0529 -0.6237  0.3320
 5335SOL     OW21105   2.081   2.130   4.027  0.2005  0.3937 -0.5962
 5335SOL    HW221106   2.134   2.201   4.062  0.0566  0.7486 -1.0831
 5335SOL    HW321107   2.089   2.060   4.091 -0.5478  1.2333  0.4516
 5335SOL    MW421108   2.089   2.130   4.040  0.0828  0.5513 -0.5222
 5336SOL     OW21109   4.301   5.874   6.259 -0.0828 -0.0128 -0.2584
 5336SOL    HW221110   4.370   5.852   6.322  0.6904  1.2663 -0.6203
 5336SOL    HW321111   4.348   5.897   6.179 -0.9784  0.0533 -0.7810
 5336SOL    MW421112   4.317   5.874   6.257 -0.0989  0.1647 -0.3751
 5337SOL     OW21113   0.074   0.715   5.301 -0.1063  0.4286  0.1036
 5337SOL    HW221114   0.150   0.681   5.348  0.8157  2.2874  0.0357
 5337SOL    HW321115   0.011   0.737   5.369 -0.4855 -0.8032  0.1781
 5337SOL    MW421116   0.075   0.713   5.316 -0.0347  0.5113  0.1044
 5338SOL     OW21117   5.628   2.975   0.967  0.3471 -0.1489 -0.1665
 5338SOL    HW221118   5.711   2.934   0.944  1.1272  0.6516  1.1306
 5338SOL    HW321119   5.585   2.911   1.024 -1.7517 -2.3009 -3.7386
 5338SOL    MW421120   5.633   2.961   0.972  0.1731 -0.3272 -0.4667
 5339SOL     OW21121   6.001   3.009   1.145  0.4443  0.0826  0.4798
 5339SOL    HW221122   5.933   3.051   1.197  0.0754 -0.1272  0.1702
 5339SOL    HW321123   6.064   3.080   1.127  1.0187 -0.0333  1.9119
 5339SOL    MW421124   6.000   3.024   1.149  0.4714  0.0396  0.6279
 5340SOL     OW21125   4.602   4.540   5.392 -0.0635  0.5929 -0.4407
 5340SOL    HW221126   4.596   4.635   5.387  1.3884  0.7000 -0.8353
 5340SOL    HW321127   4.655   4.516   5.316 -1.1154 -0.6287 -0.8234
 5340SOL    MW421128   4.608   4.549   5.381 -0.0107  0.4459 -0.5432
 5341SOL     OW21129   2.481   5.770   0.737 -0.2534  0.3628  0.1152
 5341SOL    HW221130   2.429   5.836   0.690  1.1840  0.8646 -0.8187
 5341SOL    HW321131   2.415   5.714   0.779 -1.5513  0.9702 -1.0127
 5341SOL    MW421132   2.465   5.772   0.736 -0.2350  0.5091 -0.1568
 5342SOL     OW21133   6.309   0.747   4.862 -0.2693 -0.1320  0.1193
 5342SOL    HW221134   6.283   0.657   4.842 -1.1157 -0.1548  1.2346
 5342SOL    HW321135   6.227   0.795   4.867  0.2371  0.9968 -1.6835
 5342SOL    MW421136   6.295   0.741   4.860 -0.3142  0.0140  0.0286
 5343SOL     OW21137   3.655   3.040   2.927 -0.1684 -0.2705 -0.1427
 5343SOL    HW221138   3.718   2.983   2.883 -0.5750  0.5128 -1.8363
 5343SOL    HW321139   3.709   3.103   2.975  0.3586  0.0215 -1.0794
 5343SOL    MW421140   3.670   3.041   2.927 -0.1525 -0.1287 -0.4897
 5344SOL     OW21141   2.016   0.486   5.261 -0.0983 -0.1572  0.4069
 5344SOL    HW221142   2.105   0.453   5.252 -0.2647 -0.2867 -0.8522
 5344SOL    HW321143   1.959   0.414   5.235 -0.5218  0.4013 -0.2680
 5344SOL    MW421144   2.020   0.472   5.256 -0.1762 -0.1006  0.1517
 5345SOL     OW21145   4.580   2.803   2.031  0.2749 -0.5860  0.3432
 5345SOL    HW221146   4.484   2.810   2.034  0.0443 -2.5588 -0.4265
 5345SOL    HW321147   4.595   2.713   2.002  2.3725 -0.1638  0.0221
 5345SOL    MW421148   4.569   2.792   2.028  0.5212 -0.7906  0.1993
 5346SOL     OW21149   3.544   3.422   6.043 -0.1679 -0.4778  0.3177
 5346SOL    HW221150   3.469   3.434   6.101 -0.2747 -0.5642  0.1969
 5346SOL    HW321151   3.561   3.328   6.045 -0.2360 -0.4946  0.1301
 5346SOL    MW421152   3.536   3.412   6.051 -0.1910 -0.4914  0.2770
 5347SOL     OW21153   2.470   3.589   1.341  0.3308 -0.6165 -0.1259
 5347SOL    HW221154   2.380   3.558   1.344  0.5215 -1.1797 -0.0024
 5347SOL    HW321155   2.508   3.559   1.424  0.6403 -0.4055 -0.1887
 5347SOL    MW421156   2.463   3.581   1.352  0.3968 -0.6629 -0.1179
 5348SOL     OW21157   4.665   2.798   0.097  0.2126  0.3772 -0.0078
 5348SOL    HW221158   4.662   2.885   0.137 -1.6144 -0.1268  1.0801
 5348SOL    HW321159   4.607   2.804   0.021  0.4114  0.2281 -0.1710
 5348SOL    MW421160   4.657   2.810   0.092 -0.0022  0.2910  0.1142
 5349SOL     OW21161   6.400   2.451   1.457  0.2388 -0.2855  0.0446
 5349SOL    HW221162   6.375   2.385   1.521  1.1960 -0.0851  0.6407
 5349SOL    HW321163   6.488   2.426   1.429  0.0352 -0.0818 -0.8123
 5349SOL    MW421164   6.408   2.439   1.462  0.3382 -0.2322  0.0102
 5350SOL     OW21165   5.397   5.131   2.495  0.4768 -0.1766  0.1256
 5350SOL    HW221166   5.452   5.070   2.544  0.1066  0.7076  1.7055
 5350SOL    HW321167   5.449   5.210   2.486 -0.0733  0.2463  0.5696
 5350SOL    MW421168   5.411   5.133   2.500  0.3554 -0.0041  0.3926
 5351SOL     OW21169   5.140   0.322   3.773 -0.6081  0.1755 -0.1577
 5351SOL    HW221170   5.127   0.358   3.861 -2.2155 -1.4851  0.3494
 5351SOL    HW321171   5.083   0.376   3.718  0.8374  1.5915 -0.3296
 5351SOL    MW421172   5.130   0.334   3.777 -0.6295  0.1432 -0.1135
 5352SOL     OW21173   4.591   2.904   5.018  0.5064  0.7939 -0.1316
 5352SOL    HW221174   4.509   2.952   5.008  0.0682  0.3229  1.0168
 5352SOL    HW321175   4.651   2.946   4.957 -0.7296  0.7987 -1.3998
 5352SOL    MW421176   4.588   2.916   5.009  0.2855  0.7324 -0.1474
 5353SOL     OW21177   3.819   3.197   3.071  0.4609  0.4613 -0.4835
 5353SOL    HW221178   3.806   3.291   3.059  1.2934  0.7769  0.8831
 5353SOL    HW321179   3.914   3.187   3.074  0.4215 -0.6348 -2.0389
 5353SOL    MW421180   3.830   3.208   3.070  0.5656  0.3583 -0.5084
 5354SOL     OW21181   5.488   0.948   2.387  0.6160 -0.0531  0.4540
 5354SOL    HW221182   5.522   0.979   2.303 -2.2789  2.1309 -0.0953
 5354SOL    HW321183   5.429   0.876   2.365  1.8603 -1.2837  0.9793
 5354SOL    MW421184   5.485   0.943   2.373  0.3982  0.0727  0.4508
 5355SOL     OW21185   5.985   1.748   5.853  0.6417  0.0430 -0.3585
 5355SOL    HW221186   5.976   1.764   5.759  0.2231  1.3989 -0.1240
 5355SOL    HW321187   6.052   1.811   5.881  0.2071  0.1980  0.3645
 5355SOL    MW421188   5.992   1.759   5.844  0.5291  0.2423 -0.2321
 5356SOL     OW21189   3.989   2.656   1.853  0.0689  0.2499  0.1981
 5356SOL    HW221190   4.084   2.645   1.857  0.1362  0.8574  0.3518
 5356SOL    HW321191   3.955   2.568   1.868  0.6159 -0.1382 -0.7228
 5356SOL    MW421192   3.997   2.643   1.856  0.1499  0.2788  0.0968
 5357SOL     OW21193   6.029   5.384   4.902 -0.0834  0.0229 -0.7728
 5357SOL    HW221194   6.083   5.460   4.924  1.7274 -1.3418 -0.2336
 5357SOL    HW321195   6.059   5.358   4.814 -0.3531 -0.3394 -0.7607
 5357SOL    MW421196   6.040   5.391   4.893  0.1199 -0.2049 -0.7001
 5358SOL     OW21197   1.674   5.640   2.406  0.4664  0.0445 -0.2972
 5358SOL    HW221198   1.620   5.652   2.328  0.0907 -0.9023 -0.1930
 5358SOL    HW321199   1.763   5.656   2.376  0.2328  0.6500 -0.6926
 5358SOL    MW421200   1.678   5.644   2.392  0.3860 -0.0005 -0.3356
 5359SOL     OW21201   4.280   5.828   1.933 -0.4532  0.0308  0.4914
 5359SOL    HW221202   4.283   5.807   2.026 -0.6626 -1.9576  0.0923
 5359SOL    HW321203   4.200   5.881   1.923 -0.5333  0.1001  1.3932
 5359SOL    MW421204   4.270   5.832   1.944 -0.4914 -0.2224  0.5577
 5360SOL     OW21205   5.232   2.752   3.522  0.1906  0.1373 -0.4823
 5360SOL    HW221206   5.300   2.811   3.489  2.0082 -1.4327  0.2531
 5360SOL    HW321207   5.215   2.692   3.450 -1.0443  1.0026 -0.9398
 5360SOL    MW421208   5.238   2.752   3.508  0.2675  0.0443 -0.4456
 5361SOL     OW21209   0.162   1.464   0.590 -0.1012  0.2234  0.0491
 5361SOL    HW221210   0.137   1.473   0.498 -1.1290  1.7067  0.4291
 5361SOL    HW321211   0.144   1.373   0.612  0.8776 -0.3538 -1.3938
 5361SOL    MW421212   0.156   1.453   0.581 -0.1076  0.3429 -0.0911
 5362SOL     OW21213   5.593   5.305   0.220 -0.3992 -0.4723 -0.2647
 5362SOL    HW221214   5.533   5.230   0.227  0.4783 -1.0598  1.4338
 5362SOL    HW321215   5.615   5.326   0.311  0.8726  0.6245 -0.8036
 5362SOL    MW421216   5.588   5.298   0.233 -0.1156 -0.4051 -0.1117
 5363SOL     OW21217   4.381   0.384   3.271 -0.0371  0.0186 -0.1659
 5363SOL    HW221218   4.343   0.402   3.357 -0.8047 -0.9054 -0.2881
 5363SOL    HW321219   4.329   0.311   3.237  0.1610  0.4610 -1.4785
 5363SOL    MW421220   4.369   0.377   3.278 -0.1122 -0.0450 -0.3552
 5364SOL     OW21221   5.533   3.681   3.150 -0.1246 -1.0223  0.1126
 5364SOL    HW221222   5.567   3.696   3.238  0.8889 -3.4226  0.2252
 5364SOL    HW321223   5.477   3.756   3.132  3.1185  1.8353  0.9988
 5364SOL    MW421224   5.530   3.693   3.159  0.4370 -0.9619  0.2444
 5365SOL     OW21225   3.095   1.911   1.955  0.0556  0.0052 -0.2020
 5365SOL    HW221226   3.062   1.837   1.904  0.7539 -0.9914  0.7493
 5365SOL    HW321227   3.062   1.988   1.909  0.3696 -0.8610 -1.9624
 5365SOL    MW421228   3.086   1.911   1.942  0.1892 -0.2405 -0.3087
 5366SOL     OW21229   3.510   1.876   5.068 -0.4514 -0.0129 -0.2575
 5366SOL    HW221230   3.450   1.915   5.132  0.3155 -1.6300  1.5547
 5366SOL    HW321231   3.590   1.859   5.118 -0.4426 -3.0286 -1.1335
 5366SOL    MW421232   3.512   1.879   5.083 -0.3490 -0.6241 -0.1340
 5367SOL     OW21233   3.130   3.791   4.213  0.4897  0.4476 -0.3483
 5367SOL    HW221234   3.174   3.711   4.242  1.1377  0.6493 -0.7407
 5367SOL    HW321235   3.141   3.791   4.118  1.5242  1.5687 -0.2597
 5367SOL    MW421236   3.137   3.781   4.204  0.7117  0.6222 -0.3884
 5368SOL     OW21237   3.679   2.209   1.838  0.4079 -0.1199 -0.6577
 5368SOL    HW221238   3.701   2.160   1.759  3.1299  1.0872 -0.7591
 5368SOL    HW321239   3.753   2.268   1.851 -0.9172  1.1890  1.6558
 5368SOL    MW421240   3.691   2.211   1.829  0.5922  0.2121 -0.3658
 5369SOL     OW21241   0.089   1.116   6.058 -0.4291  0.1035 -0.1137
 5369SOL    HW221242   0.051   1.039   6.015 -1.4389  1.3940 -1.6266
 5369SOL    HW321243   0.182   1.095   6.066 -0.6659 -1.2306 -0.6052
 5369SOL    MW421244   0.096   1.103   6.053 -0.5936  0.0978 -0.3781
 5370SOL     OW21245   0.655   3.101   3.038 -0.6394 -0.0763  0.2474
 5370SOL    HW221246   0.705   3.179   3.061  0.2151 -0.4900 -0.1475
 5370SOL    HW321247   0.682   3.081   2.948 -1.3700 -0.4252  0.0983
 5370SOL    MW421248   0.665   3.108   3.029 -0.6230 -0.1769  0.1756
 5371SOL     OW21249   6.216   2.435   4.688  0.3896  0.0192 -0.4613
 5371SOL    HW221250   6.211   2.339   4.695 -0.9520  0.1089  0.0669
 5371SOL    HW321251   6.308   2.452   4.669  0.6965 -1.3639 -0.3764
 5371SOL    MW421252   6.227   2.424   4.686  0.2531 -0.1514 -0.3804
 5372SOL     OW21253   0.407   5.836   2.344  0.3392  0.0849 -0.0714
 5372SOL    HW221254   0.463   5.878   2.279  2.3045 -1.1454  0.7066
 5372SOL    HW321255   0.378   5.755   2.301 -0.0633  0.2662 -0.1403
 5372SOL    MW421256   0.410   5.831   2.330  0.5454 -0.0535  0.0222
 5373SOL     OW21257   6.044   3.261   0.700 -0.2718  1.0226 -0.1763
 5373SOL    HW221258   6.058   3.352   0.728 -1.3716  1.0470  0.3264
 5373SOL    HW321259   5.961   3.236   0.740  0.7007 -0.7010  0.9276
 5373SOL    MW421260   6.035   3.270   0.709 -0.2886  0.7985  0.0356
 5374SOL     OW21261   3.054   5.966   5.287 -0.0308  0.0921  0.5097
 5374SOL    HW221262   3.099   5.925   5.361 -0.9609 -3.3350 -0.6410
 5374SOL    HW321263   3.122   5.978   5.221  0.3400  0.9000  1.0270
 5374SOL    MW421264   3.069   5.962   5.288 -0.1046 -0.2535  0.4262
 5375SOL     OW21265   3.618   1.268   5.947  0.1470  0.1181 -0.0293
 5375SOL    HW221266   3.577   1.207   5.886  1.3272 -0.0616 -0.6703
 5375SOL    HW321267   3.583   1.354   5.921  1.4771  0.1896 -1.7296
 5375SOL    MW421268   3.608   1.272   5.936  0.4782  0.1038 -0.3382
 5376SOL     OW21269   4.343   1.297   2.030  0.1954 -0.1102  0.1491
 5376SOL    HW221270   4.317   1.340   1.949  1.3267  1.1565  0.4349
 5376SOL    HW321271   4.261   1.280   2.075 -0.2993  3.1246  0.7075
 5376SOL    MW421272   4.329   1.300   2.025  0.2794  0.4837  0.2605
 5377SOL     OW21273   4.678   3.027   3.828 -0.0708  0.6368 -0.2716
 5377SOL    HW221274   4.768   3.018   3.795 -0.0180 -1.6754  0.3000
 5377SOL    HW321275   4.634   3.083   3.764  0.5486 -2.0175 -3.2607
 5377SOL    MW421276   4.684   3.033   3.815  0.0179 -0.0185 -0.5905
 5378SOL     OW21277   4.367   5.486   4.008  0.2142  0.7165  0.4577
 5378SOL    HW221278   4.383   5.536   3.928  0.7965  1.7288  1.1825
 5378SOL    HW321279   4.320   5.547   4.065  1.3274  0.6129  1.5293
 5378SOL    MW421280   4.363   5.501   4.005  0.4379  0.8364  0.6947
 5379SOL     OW21281   5.910   2.443   0.579  0.2696  0.1512 -0.4491
 5379SOL    HW221282   5.826   2.482   0.553  0.1933 -0.4780 -1.1810
 5379SOL    HW321283   5.932   2.384   0.507  0.2247 -1.4063  0.7572
 5379SOL    MW421284   5.902   2.441   0.566  0.2536 -0.1373 -0.3865
 5380SOL     OW21285   0.740   1.132   1.221  0.2331 -0.8767 -0.4359
 5380SOL    HW221286   0.694   1.205   1.262 -0.2440 -0.3643 -1.8392
 5380SOL    HW321287   0.717   1.056   1.275  1.5905  0.1282  1.6941
 5380SOL    MW421288   0.731   1.131   1.234  0.3492 -0.6765 -0.3400
 5381SOL     OW21289   0.327   4.086   2.934  0.3088  0.0393  0.4390
 5381SOL    HW221290   0.310   3.993   2.929  0.6528 -0.1300  1.8666
 5381SOL    HW321291   0.349   4.112   2.845 -0.7356 -1.0384 -0.1512
 5381SOL    MW421292   0.328   4.077   2.922  0.2164 -0.1252  0.5495
 5382SOL     OW21293   1.404   0.251   3.297  0.4549  0.1421  0.2950
 5382SOL    HW221294   1.379   0.238   3.206  1.4598 -0.1696  0.0447
 5382SOL    HW321295   1.383   0.343   3.315  1.8341  0.7078 -0.7995
 5382SOL    MW421296   1.398   0.261   3.288  0.7694  0.1756  0.1176
 5383SOL     OW21297   5.564   4.991   0.562  0.3853  0.4968 -0.1925
 5383SOL    HW221298   5.629   4.936   0.519 -0.3983 -1.5153  1.0931
 5383SOL    HW321299   5.595   5.002   0.651  1.3321  3.5683 -0.7774
 5383SOL    MW421300   5.577   4.985   0.568  0.4068  0.6366 -0.1001
 5384SOL     OW21301   2.576   5.505   4.395  0.4072 -0.0669 -0.1985
 5384SOL    HW221302   2.638   5.551   4.338 -0.3303  0.3229 -0.7052
 5384SOL    HW321303   2.612   5.517   4.483  2.0869 -1.4954 -0.6272
 5384SOL    MW421304   2.589   5.513   4.399  0.5315 -0.2039 -0.3219
 5385SOL     OW21305   0.111   0.653   5.729  0.3301  0.2708  0.6394
 5385SOL    HW221306   0.027   0.652   5.683  0.7149  1.5934 -0.1449
 5385SOL    HW321307   0.168   0.705   5.672  2.0130 -1.5174  0.5884
 5385SOL    MW421308   0.107   0.660   5.715  0.6029  0.2094  0.5292
 5386SOL     OW21309   2.184   1.735   4.149  0.2477  0.2166  0.0439
 5386SOL    HW221310   2.213   1.651   4.184 -1.4192 -0.2169  0.4928
 5386SOL    HW321311   2.246   1.754   4.078  1.3268 -0.8164  0.6674
 5386SOL    MW421312   2.196   1.727   4.144  0.1701  0.0231  0.1854
 5387SOL     OW21313   1.514   3.237   3.629 -0.3447 -0.0053  0.7206
 5387SOL    HW221314   1.569   3.311   3.605 -0.2106 -0.2793  0.1740
 5387SOL    HW321315   1.573   3.162   3.629 -0.2450  0.0498  2.3635
 5387SOL    MW421316   1.529   3.237   3.626 -0.3139 -0.0342  0.8653
 5388SOL     OW21317   0.121   5.678   2.667 -0.6804 -0.7781 -0.1422
 5388SOL    HW221318   0.035   5.679   2.624 -0.9387 -1.2181  0.3428
 5388SOL    HW321319   0.165   5.602   2.628  1.1396  1.6903 -3.4417
 5388SOL    MW421320   0.115   5.668   2.656 -0.4744 -0.5105 -0.5135
 5389SOL     OW21321   0.134   2.704   1.961 -0.3997 -0.1826 -0.1274
 5389SOL    HW221322   0.042   2.730   1.963 -0.4440 -0.3227  1.9985
 5389SOL    HW321323   0.140   2.633   2.025  1.0524 -0.6556 -0.7617
 5389SOL    MW421324   0.122   2.698   1.970 -0.2140 -0.2635  0.0694
 5390SOL     OW21325   2.599   0.592   0.155  0.1689  0.1586 -0.1894
 5390SOL    HW221326   2.581   0.550   0.240 -2.3016  1.9635  0.2944
 5390SOL    HW321327   2.667   0.656   0.175  0.7244 -0.4930  0.0586
 5390SOL    MW421328   2.606   0.595   0.169 -0.0838  0.3107 -0.0929
 5391SOL     OW21329   0.720   1.166   3.950 -0.7275 -0.5290  0.2750
 5391SOL    HW221330   0.643   1.168   3.893 -0.0923 -0.1885 -0.5928
 5391SOL    HW321331   0.752   1.256   3.951  0.2158 -0.8409 -0.1643
 5391SOL    MW421332   0.714   1.178   3.942 -0.5193 -0.5252  0.1026
 5392SOL     OW21333   0.865   5.531   4.393 -0.3209 -0.0183  0.3692
 5392SOL    HW221334   0.829   5.573   4.471 -2.3800  0.2841 -0.6879
 5392SOL    HW321335   0.865   5.600   4.327 -0.4296 -0.7810 -0.4325
 5392SOL    MW421336   0.860   5.546   4.395 -0.6069 -0.0791  0.1240
 5393SOL     OW21337   5.987   4.489   5.499 -0.3635 -0.4377  0.4895
 5393SOL    HW221338   6.001   4.395   5.510 -2.0210 -0.9244 -1.1078
 5393SOL    HW321339   5.961   4.499   5.407  0.0186  1.6333  0.5523
 5393SOL    MW421340   5.986   4.478   5.488 -0.5318 -0.2286  0.2870
 5394SOL     OW21341   0.475   5.557   3.621  0.2960 -0.4111  0.0807
 5394SOL    HW221342   0.474   5.544   3.716  2.6193 -1.0947  0.0542
 5394SOL    HW321343   0.516   5.478   3.586  1.9085  0.9335 -1.2569
 5394SOL    MW421344   0.480   5.545   3.629  0.8153 -0.3239 -0.0993
 5395SOL     OW21345   1.197   6.056   5.738 -0.2534 -0.0120  0.0253
 5395SOL    HW221346   1.160   6.017   5.658  2.2422  0.9073 -1.7078
 5395SOL    HW321347   1.137   6.127   5.760 -1.8540 -1.2844 -0.0430
 5395SOL    MW421348   1.184   6.060   5.730 -0.1353 -0.0586 -0.2124
 5396SOL     OW21349   1.321   5.466   5.382  0.3623 -0.1093 -0.2346
 5396SOL    HW221350   1.302   5.420   5.300 -0.4482  0.9924 -0.6962
 5396SOL    HW321351   1.380   5.537   5.356 -0.6252  0.8028 -0.0419
 5396SOL    MW421352   1.326   5.469   5.367  0.1251  0.1564 -0.2701
 5397SOL     OW21353   0.344   1.616   3.654  0.4399  0.0865  0.0821
 5397SOL    HW221354   0.311   1.538   3.608 -0.1902  1.2219 -1.4780
 5397SOL    HW321355   0.374   1.583   3.738  0.9729 -1.9878 -0.8647
 5397SOL    MW421356   0.343   1.601   3.659  0.4271 -0.0374 -0.2486
 5398SOL     OW21357   5.096   1.314   0.612  0.4140 -0.5446 -0.2636
 5398SOL    HW221358   5.056   1.259   0.545  1.4763 -0.9317 -0.6053
 5398SOL    HW321359   5.044   1.394   0.613 -1.1331 -1.5220  0.1960
 5398SOL    MW421360   5.084   1.317   0.604  0.3501 -0.7247 -0.2481
 5399SOL     OW21361   0.057   0.169   0.363 -0.3068  0.0943 -0.3469
 5399SOL    HW221362   0.080   0.148   0.454 -3.8409 -1.6637  0.3315
 5399SOL    HW321363   0.140   0.193   0.323  1.9265 -1.8316  2.6140
 5399SOL    MW421364   0.071   0.169   0.370 -0.4784 -0.3918  0.1333
 5400SOL     OW21365   4.385   5.901   1.021  0.0791 -0.4839  0.4939
 5400SOL    HW221366   4.460   5.959   1.010  1.0534 -1.7525  0.1725
 5400SOL    HW321367   4.342   5.932   1.101  0.6565  0.5625  0.4120
 5400SOL    MW421368   4.389   5.913   1.030  0.2839 -0.5132  0.4407
 5401SOL     OW21369   0.010   2.778   4.911  0.2614  0.2963 -0.2295
 5401SOL    HW221370  -0.062   2.802   4.968  1.5727  1.7414  0.8977
 5401SOL    HW321371   0.047   2.699   4.950  1.6610  1.7160  1.5261
 5401SOL    MW421372   0.005   2.771   4.923  0.6190  0.6743  0.1509
 5402SOL     OW21373   3.950   1.206   4.978 -0.1020  0.3477  0.0208
 5402SOL    HW221374   3.920   1.143   4.912  0.2578 -0.8457  0.9540
 5402SOL    HW321375   3.913   1.290   4.949 -1.5007 -0.4642 -0.6874
 5402SOL    MW421376   3.941   1.209   4.965 -0.2390  0.0831  0.0505
 5403SOL     OW21377   4.608   0.455   5.189 -0.2089 -0.5895 -0.3336
 5403SOL    HW221378   4.592   0.527   5.250  1.3452  1.5824 -2.2978
 5403SOL    HW321379   4.522   0.433   5.154 -0.8051 -0.2098  0.8567
 5403SOL    MW421380   4.595   0.461   5.192 -0.0825 -0.2529 -0.4357
 5404SOL     OW21381   5.874   3.875   2.976 -0.0765  0.0323  0.6075
 5404SOL    HW221382   5.834   3.898   2.893  0.7288  0.5325  0.3451
 5404SOL    HW321383   5.863   3.953   3.031  0.5958  0.2097  0.5017
 5404SOL    MW421384   5.867   3.888   2.972  0.1185  0.1217  0.5589
 5405SOL     OW21385   5.846   4.785   5.019 -0.2644  0.4645 -0.6058
 5405SOL    HW221386   5.917   4.849   5.027 -0.5083  0.5992  0.7635
 5405SOL    HW321387   5.800   4.789   5.103 -1.5482 -0.0448 -1.2546
 5405SOL    MW421388   5.850   4.794   5.031 -0.4660  0.4151 -0.5107
 5406SOL     OW21389   4.019   4.577   4.729  0.2020  0.2337  0.5106
 5406SOL    HW221390   4.052   4.535   4.808  2.5320 -3.0903 -1.9339
 5406SOL    HW321391   3.944   4.524   4.703  0.1096  0.6444 -0.0858
 5406SOL    MW421392   4.014   4.565   4.736  0.4972 -0.1507  0.1094
 5407SOL     OW21393   6.337   2.101   2.536  0.0377  0.0878 -0.0752
 5407SOL    HW221394   6.425   2.067   2.522  0.8133  1.9653 -0.0658
 5407SOL    HW321395   6.313   2.071   2.623 -0.0971 -1.9229 -0.7539
 5407SOL    MW421396   6.345   2.093   2.545  0.1223  0.0702 -0.1635
 5408SOL     OW21397   4.039   4.484   0.024 -0.4999 -0.3038  0.2074
 5408SOL    HW221398   3.989   4.546   0.077  1.8434  0.7521  1.3772
 5408SOL    HW321399   4.046   4.406   0.079  0.9750  0.3816  1.0555
 5408SOL    MW421400   4.034   4.482   0.038  0.0039 -0.0741  0.4737
 5409SOL     OW21401   2.103   1.974   4.264  0.5352 -0.0274  0.1121
 5409SOL    HW221402   2.140   1.887   4.246  1.7888  0.8820 -2.0939
 5409SOL    HW321403   2.167   2.016   4.321  0.9472  0.1606 -0.4871
 5409SOL    MW421404   2.116   1.968   4.269  0.7549  0.1174 -0.2580
 5410SOL     OW21405   2.077   3.072   0.589  0.5045 -0.1874 -0.5461
 5410SOL    HW221406   2.061   3.044   0.499 -0.4672 -2.2669  0.2103
 5410SOL    HW321407   2.169   3.098   0.590  0.2810  0.8056 -2.3440
 5410SOL    MW421408   2.087   3.072   0.577  0.3468 -0.3308 -0.6835
 5411SOL     OW21409   3.249   3.777   1.002  0.2512  0.1405 -0.5543
 5411SOL    HW221410   3.209   3.856   1.038 -0.5914 -0.8086  0.6567
 5411SOL    HW321411   3.231   3.782   0.908 -1.9985  0.2082 -0.1914
 5411SOL    MW421412   3.241   3.788   0.994 -0.1568  0.0242 -0.3466
 5412SOL     OW21413   0.225   5.496   5.450  0.2709  0.8557 -0.2750
 5412SOL    HW221414   0.304   5.547   5.433 -0.2925  2.0547  0.5806
 5412SOL    HW321415   0.192   5.473   5.363  2.0777 -0.5353 -0.6432
 5412SOL    MW421416   0.231   5.500   5.437  0.4350  0.8303 -0.2107
 5413SOL     OW21417   6.058   6.111   5.014  0.0561  0.0314  0.2624
 5413SOL    HW221418   6.135   6.054   5.016  0.5827  0.6978 -0.3693
 5413SOL    HW321419   6.086   6.187   4.963 -1.3723 -0.2291 -0.9586
 5413SOL    MW421420   6.072   6.114   5.008 -0.0629  0.0850  0.0180
 5414SOL     OW21421   1.626   5.362   4.444 -0.0885 -0.0704  0.4565
 5414SOL    HW221422   1.703   5.314   4.414  1.8261  1.8330  2.0508
 5414SOL    HW321423   1.618   5.340   4.536  0.5086  2.1445  1.0981
 5414SOL    MW421424   1.635   5.353   4.452  0.2429  0.4729  0.7515
 5415SOL     OW21425   4.426   0.783   2.092  0.5025 -0.1010  0.1005
 5415SOL    HW221426   4.417   0.873   2.060  1.0760 -0.2821 -0.5891
 5415SOL    HW321427   4.337   0.748   2.089  0.1299  0.6848  1.1471
 5415SOL    MW421428   4.413   0.790   2.088  0.5290 -0.0212  0.1476
 5416SOL     OW21429   6.328   0.746   5.524  0.1951  0.1934 -0.4787
 5416SOL    HW221430   6.260   0.810   5.503 -0.3918 -1.0307 -2.5530
 5416SOL    HW321431   6.281   0.677   5.572  0.0377 -0.4138 -1.4785
 5416SOL    MW421432   6.312   0.745   5.528  0.0969 -0.0482 -0.8843
 5417SOL     OW21433   2.620   3.922   3.429  0.0444 -0.0610 -0.4156
 5417SOL    HW221434   2.679   3.857   3.390  2.5780  1.9140 -0.1045
 5417SOL    HW321435   2.593   3.977   3.355  0.5639  0.4875 -0.2036
 5417SOL    MW421436   2.624   3.921   3.414  0.4472  0.2719 -0.3466
 5418SOL     OW21437   1.844   4.197   0.084 -0.3089  0.2173  0.2107
 5418SOL    HW221438   1.814   4.185   0.174  1.2479  1.8437  1.0256
 5418SOL    HW321439   1.930   4.239   0.093 -0.0470  0.3100 -2.0470
 5418SOL    MW421440   1.852   4.201   0.097 -0.0690  0.4441  0.0203
 5419SOL     OW21441   5.529   2.921   4.453 -0.2297  0.1608  0.1970
 5419SOL    HW221442   5.553   2.951   4.541 -0.3949 -0.8352  0.5958
 5419SOL    HW321443   5.609   2.881   4.419 -0.2583  0.2496  0.0243
 5419SOL    MW421444   5.543   2.920   4.460 -0.2553  0.0411  0.2268
 5420SOL     OW21445   3.461   5.177   1.887  0.7206 -0.6212  0.3484
 5420SOL    HW221446   3.553   5.152   1.887  1.7335  2.6232 -0.5125
 5420SOL    HW321447   3.441   5.198   1.796 -0.4519  0.0419  0.7285
 5420SOL    MW421448   3.471   5.176   1.875  0.6995 -0.1057  0.2850
 5421SOL     OW21449   5.757   1.245   4.840  0.6527  0.0187  0.0586
 5421SOL    HW221450   5.778   1.152   4.844 -1.2923 -0.4529 -0.1171
 5421SOL    HW321451   5.814   1.279   4.770  2.4033 -0.7031  1.0663
 5421SOL    MW421452   5.768   1.237   4.831  0.6271 -0.1387  0.1684
 5422SOL     OW21453   2.380   5.368   3.996  0.6510 -0.2759  0.1814
 5422SOL    HW221454   2.406   5.283   3.961 -1.1885 -1.4372  1.4413
 5422SOL    HW321455   2.305   5.393   3.941  0.6944  0.1589  0.3199
 5422SOL    MW421456   2.373   5.360   3.984  0.4140 -0.3718  0.3659
 5423SOL     OW21457   4.623   1.502   3.387  0.2116  0.0701 -0.0022
 5423SOL    HW221458   4.637   1.477   3.478  1.1686 -1.6729 -0.5891
 5423SOL    HW321459   4.631   1.598   3.387 -2.2750  0.3858  2.1118
 5423SOL    MW421460   4.626   1.512   3.399  0.0098 -0.1182  0.1992
 5424SOL     OW21461   4.275   3.460   0.183 -0.4089  0.4006 -0.4974
 5424SOL    HW221462   4.284   3.530   0.248  1.2652  0.5493 -0.8578
 5424SOL    HW321463   4.199   3.486   0.131  0.4566  2.2270 -0.9196
 5424SOL    MW421464   4.266   3.473   0.185 -0.0738  0.6612 -0.6007
 5425SOL     OW21465   2.463   0.951   5.166 -0.7144  0.2500 -0.8130
 5425SOL    HW221466   2.556   0.932   5.152  0.2367  1.6267  2.5554
 5425SOL    HW321467   2.452   1.040   5.131 -0.8305  0.0345 -1.3371
 5425SOL    MW421468   2.474   0.960   5.159 -0.6042  0.4032 -0.4378
 5426SOL     OW21469   3.586   1.997   5.745 -0.3548 -0.4085 -0.0835
 5426SOL    HW221470   3.620   2.049   5.673  0.2178 -0.3952  0.1948
 5426SOL    HW321471   3.604   1.907   5.721 -1.5559 -0.5149 -0.6758
 5426SOL    MW421472   3.593   1.992   5.732 -0.4377 -0.4208 -0.1250
 5427SOL     OW21473   5.494   6.336   3.814  0.3569  0.9888 -0.1749
 5427SOL    HW221474   5.468   6.252   3.777  1.6844  0.9906 -1.2117
 5427SOL    HW321475   5.413   6.388   3.818 -0.3237 -0.0472 -0.2985
 5427SOL    MW421476   5.480   6.332   3.810  0.4422  0.8524 -0.3280
 5428SOL     OW21477   3.279   3.142   2.092  0.0016  0.5752 -0.1619
 5428SOL    HW221478   3.277   3.077   2.163  0.0634  0.6303 -0.1096
 5428SOL    HW321479   3.187   3.152   2.066 -0.1487  1.3452  0.6339
 5428SOL    MW421480   3.266   3.135   2.098 -0.0101  0.6841 -0.0500
 5429SOL     OW21481   2.728   0.039   6.309 -0.1802  0.0553  0.2595
 5429SOL    HW221482   2.665  -0.031   6.292 -0.6384  0.3924  0.5606
 5429SOL    HW321483   2.787   0.037   6.234 -1.4810  0.7631 -0.8213
 5429SOL    MW421484   2.727   0.030   6.297 -0.4123  0.1931  0.1566
 5430SOL     OW21485   5.692   3.252   2.246  0.2415 -0.2523 -0.2502
 5430SOL    HW221486   5.598   3.240   2.230  0.1316 -2.4552  1.4859
 5430SOL    HW321487   5.701   3.244   2.341  2.3893 -2.0257 -0.5248
 5430SOL    MW421488   5.680   3.250   2.257  0.5104 -0.7769 -0.0574
 5431SOL     OW21489   0.299   3.233   2.349 -0.4680  0.0509 -0.2921
 5431SOL    HW221490   0.319   3.139   2.345 -0.9499 -0.0497 -0.3707
 5431SOL    HW321491   0.260   3.246   2.435 -0.7734  0.1048 -0.4370
 5431SOL    MW421492   0.297   3.222   2.360 -0.5719  0.0447 -0.3216
 5432SOL     OW21493   3.384   2.496   5.506  0.7233  0.1369 -0.0820
 5432SOL    HW221494   3.332   2.495   5.426  2.0252 -1.5835 -0.9731
 5432SOL    HW321495   3.322   2.523   5.574 -0.5605  1.0736 -1.5448
 5432SOL    MW421496   3.369   2.499   5.505  0.7257  0.0335 -0.3926
 5433SOL     OW21497   6.382   5.705   5.186 -0.3963 -0.1010 -0.7703
 5433SOL    HW221498   6.354   5.635   5.127 -0.3506 -0.6456 -0.1533
 5433SOL    HW321499   6.305   5.762   5.193 -1.1364 -1.1777  0.3083
 5433SOL    MW421500   6.368   5.703   5.179 -0.4879 -0.3149 -0.5466
 5434SOL     OW21501   3.361   3.302   0.966  0.5512 -0.0589  0.1748
 5434SOL    HW221502   3.449   3.332   0.940  0.7543  0.8664  1.7750
 5434SOL    HW321503   3.374   3.212   0.994  0.7506 -0.3238 -0.7331
 5434SOL    MW421504   3.375   3.294   0.966  0.6043  0.0282  0.2661
 5435SOL     OW21505   4.454   1.502   2.198  0.1827 -0.4772  0.1532
 5435SOL    HW221506   4.508   1.470   2.269 -0.2549 -0.8283  0.3327
 5435SOL    HW321507   4.438   1.426   2.142  0.3821 -0.2420 -0.2293
 5435SOL    MW421508   4.459   1.488   2.200  0.1513 -0.4925  0.1264
 5436SOL     OW21509   1.908   3.378   3.567  0.3135 -0.3289  0.1643
 5436SOL    HW221510   1.963   3.358   3.491  1.6053 -1.2053  1.2967
 5436SOL    HW321511   1.953   3.449   3.611 -0.6809  0.4945 -0.1024
 5436SOL    MW421512   1.921   3.384   3.563  0.3527 -0.3359  0.2785
 5437SOL     OW21513   2.016   0.661   2.374  0.2250 -0.0168  0.2584
 5437SOL    HW221514   1.961   0.625   2.444 -0.5213 -0.8506 -0.7230
 5437SOL    HW321515   2.057   0.584   2.335  0.2717  0.3876 -0.5063
 5437SOL    MW421516   2.014   0.646   2.379  0.1327 -0.0735  0.0280
 5438SOL     OW21517   4.303   2.511   5.895 -0.1103 -0.5100  0.9720
 5438SOL    HW221518   4.245   2.489   5.968  0.3413 -0.8482  1.2306
 5438SOL    HW321519   4.266   2.464   5.820 -1.1023  0.5542  0.7685
 5438SOL    MW421520   4.290   2.502   5.895 -0.1816 -0.4142  0.9793
 5439SOL     OW21521   2.527   4.910   4.988 -0.4041  0.0199 -0.8337
 5439SOL    HW221522   2.480   4.954   4.917  0.4108  0.6613 -0.9896
 5439SOL    HW321523   2.554   4.982   5.046 -1.2837 -0.5154  0.2660
 5439SOL    MW421524   2.524   4.925   4.987 -0.4127  0.0339 -0.7091
 5440SOL     OW21525   4.832   1.781   3.142  0.4640 -0.3798 -0.0171
 5440SOL    HW221526   4.833   1.859   3.087  1.0565  0.0771  0.6283
 5440SOL    HW321527   4.764   1.798   3.208  0.9959 -0.1535  0.4777
 5440SOL    MW421528   4.823   1.794   3.144  0.6123 -0.2896  0.1333
 5441SOL     OW21529   4.427   3.912   0.872  0.8890  0.5189  0.3727
 5441SOL    HW221530   4.507   3.863   0.853 -0.7181 -2.4321  0.5369
 5441SOL    HW321531   4.357   3.860   0.831 -1.0256  2.5763  0.8501
 5441SOL    MW421532   4.428   3.898   0.864  0.4244  0.4010  0.4574
 5442SOL     OW21533   3.528   0.243   3.722 -0.6297  0.0718  0.2093
 5442SOL    HW221534   3.478   0.310   3.767  0.9311  1.5657 -0.1827
 5442SOL    HW321535   3.598   0.220   3.782  0.6796  1.1126 -0.8437
 5442SOL    MW421536   3.530   0.248   3.736 -0.2510  0.4062  0.0187
 5443SOL     OW21537   6.392   2.719   0.368  0.1268  0.4171  0.1812
 5443SOL    HW221538   6.337   2.713   0.446  1.0349  0.3184  0.8265
 5443SOL    HW321539   6.443   2.799   0.380 -0.8663  1.2787 -1.0860
 5443SOL    MW421540   6.392   2.729   0.380  0.1156  0.5178  0.0992
 5444SOL     OW21541   2.220   3.730   0.293  0.9652  0.2192  0.1647
 5444SOL    HW221542   2.247   3.760   0.206 -2.1372 -0.0014 -0.9806
 5444SOL    HW321543   2.126   3.716   0.286  0.8642 -1.4085  3.1333
 5444SOL    MW421544   2.211   3.732   0.281  0.5425 -0.0247  0.4053
 5445SOL     OW21545   3.686   4.500   4.088 -0.1667  0.3086  0.1994
 5445SOL    HW221546   3.779   4.508   4.108 -0.2137  0.2951  0.4216
 5445SOL    HW321547   3.645   4.481   4.172 -0.1801 -1.2527 -0.1264
 5445SOL    MW421548   3.693   4.498   4.101 -0.1747  0.1008  0.1857
 5446SOL     OW21549   4.312   5.259   3.026 -0.1255 -0.1841 -0.0707
 5446SOL    HW221550   4.349   5.210   2.953 -1.8482 -1.4587 -0.1298
 5446SOL    HW321551   4.388   5.282   3.079  1.0206 -0.4043 -1.5401
 5446SOL    MW421552   4.327   5.256   3.023 -0.2016 -0.3813 -0.2724
 5447SOL     OW21553   3.126   2.382   3.848  0.3663 -0.2539  0.2584
 5447SOL    HW221554   3.168   2.468   3.843  0.8504 -0.3203  2.3285
 5447SOL    HW321555   3.199   2.320   3.842  0.0496 -0.5335 -0.8981
 5447SOL    MW421556   3.142   2.385   3.846  0.3884 -0.2996  0.3789
 5448SOL     OW21557   4.707   0.004   2.399 -0.5954  0.2356  0.3757
 5448SOL    HW221558   4.684  -0.052   2.326  0.5071  1.1407 -0.7186
 5448SOL    HW321559   4.681   0.092   2.371 -1.8578  0.3738  1.8494
 5448SOL    MW421560   4.701   0.009   2.386 -0.6165  0.3733  0.4257
 5449SOL     OW21561   0.131   1.874   1.148  0.5887 -0.0749 -0.3576
 5449SOL    HW221562   0.059   1.830   1.102  0.0510  0.5767 -0.1636
 5449SOL    HW321563   0.112   1.859   1.241  1.2081 -0.6708 -0.3217
 5449SOL    MW421564   0.119   1.866   1.154  0.5995 -0.0676 -0.3273
 5450SOL     OW21565   6.266   2.193   4.016 -0.3288  0.2459 -0.1284
 5450SOL    HW221566   6.307   2.158   3.937  1.8845 -0.6623  1.3200
 5450SOL    HW321567   6.336   2.192   4.082 -2.3708 -0.1827  2.1847
 5450SOL    MW421568   6.281   2.188   4.014 -0.3062  0.0695  0.3679
 5451SOL     OW21569   6.137   1.110   5.792 -0.4665  0.1381 -0.2805
 5451SOL    HW221570   6.167   1.150   5.710 -0.2206  1.8031  0.5763
 5451SOL    HW321571   6.045   1.090   5.777 -0.4767  0.6142 -0.8878
 5451SOL    MW421572   6.129   1.113   5.779 -0.4354  0.4206 -0.2476
 5452SOL     OW21573   1.979   1.279   1.218  0.6476 -0.3773 -0.1491
 5452SOL    HW221574   1.898   1.227   1.209  0.2605 -0.2255  2.0039
 5452SOL    HW321575   1.949   1.370   1.215  0.9047 -0.2990 -0.4638
 5452SOL    MW421576   1.964   1.284   1.216  0.6304 -0.3469  0.0934
 5453SOL     OW21577   3.480   5.258   1.191  0.6946  0.7265 -0.2978
 5453SOL    HW221578   3.459   5.250   1.098 -0.2378 -0.7423 -0.0004
 5453SOL    HW321579   3.519   5.173   1.214  0.2885  0.8190  0.7885
 5453SOL    MW421580   3.482   5.246   1.182  0.5180  0.5449 -0.1152
 5454SOL     OW21581   1.608   6.331   1.523  0.3158  0.3565 -0.1061
 5454SOL    HW221582   1.572   6.371   1.603 -0.1747  0.6861 -0.4822
 5454SOL    HW321583   1.549   6.258   1.504  0.9430 -0.2696  0.3194
 5454SOL    MW421584   1.596   6.327   1.531  0.3338  0.3174 -0.0996
 5455SOL     OW21585   2.193   0.790   1.705 -0.1435 -0.3430  0.2921
 5455SOL    HW221586   2.283   0.790   1.739 -0.0070 -0.6922 -0.0608
 5455SOL    HW321587   2.187   0.710   1.654 -1.0356 -0.9401  1.2922
 5455SOL    MW421588   2.204   0.780   1.703 -0.2432 -0.4679  0.3775
 5456SOL     OW21589   0.262   5.638   3.879 -0.0368  0.3219 -0.3276
 5456SOL    HW221590   0.339   5.586   3.900  0.5657  1.1618 -0.3766
 5456SOL    HW321591   0.208   5.580   3.826 -0.5889 -1.1088  1.6838
 5456SOL    MW421592   0.265   5.624   3.875 -0.0301  0.2440 -0.0687
 5457SOL     OW21593   3.866   5.128   0.936  0.4575 -0.2440  0.0923
 5457SOL    HW221594   3.937   5.067   0.914  1.1974  0.2977  0.9309
 5457SOL    HW321595   3.817   5.138   0.854  1.3177 -0.6684 -0.4868
 5457SOL    MW421596   3.869   5.121   0.922  0.6686 -0.2285  0.1265
 5458SOL     OW21597   0.547   2.131   1.156  0.1605  0.5633  0.2586
 5458SOL    HW221598   0.492   2.090   1.089  0.3645  1.7433 -0.6798
 5458SOL    HW321599   0.632   2.089   1.146  0.0832  0.4532  0.0521
 5458SOL    MW421600   0.551   2.120   1.146  0.1772  0.7044  0.1075
 5459SOL     OW21601   2.359   3.198   0.261  0.2738 -0.4230  0.0148
 5459SOL    HW221602   2.369   3.144   0.183  1.4522 -0.2104  0.0045
 5459SOL    HW321603   2.370   3.288   0.230  0.5611 -0.3268  0.3889
 5459SOL    MW421604   2.362   3.203   0.247  0.4672 -0.3822  0.0628
 5460SOL     OW21605   2.374   4.137   4.563  0.4442  0.6827 -0.3971
 5460SOL    HW221606   2.299   4.096   4.608 -0.5249  1.6062 -1.1082
 5460SOL    HW321607   2.384   4.086   4.483 -0.5839  1.6128 -1.1487
 5460SOL    MW421608   2.365   4.124   4.558  0.1807  0.9273 -0.5900
 5461SOL     OW21609   5.243   0.407   5.080  0.6971  0.1838  0.0639
 5461SOL    HW221610   5.225   0.466   5.007  3.1097  1.8166  0.6357
 5461SOL    HW321611   5.332   0.376   5.064  1.2038  0.3777  2.1326
 5461SOL    MW421612   5.253   0.410   5.068  1.0823  0.4248  0.4123
 5462SOL     OW21613   0.857   1.692   0.848  0.2877 -0.1187  0.5075
 5462SOL    HW221614   0.950   1.716   0.843  0.5364 -0.8385  1.5499
 5462SOL    HW321615   0.852   1.629   0.919 -0.6216 -1.9737 -1.1089
 5462SOL    MW421616   0.868   1.687   0.857  0.2005 -0.4584  0.4317
 5463SOL     OW21617   1.728   4.510   5.435  0.6231 -0.0318  0.6357
 5463SOL    HW221618   1.774   4.481   5.356  0.2096  2.3070 -0.5576
 5463SOL    HW321619   1.640   4.475   5.426 -0.1677  2.1852 -1.2748
 5463SOL    MW421620   1.723   4.502   5.423  0.4642  0.5693  0.2262
 5464SOL     OW21621   1.085   2.298   0.081  0.2747  0.0756 -0.0383
 5464SOL    HW221622   1.164   2.305   0.135 -0.6103  0.7571  1.2020
 5464SOL    HW321623   1.072   2.385   0.044 -0.1374  0.0802  0.1092
 5464SOL    MW421624   1.094   2.310   0.083  0.1035  0.1661  0.1448
 5465SOL     OW21625   5.635   2.184   3.355  0.1894 -0.2034  0.3724
 5465SOL    HW221626   5.586   2.188   3.437 -2.3886  0.3802 -1.0931
 5465SOL    HW321627   5.577   2.137   3.295  2.3420 -1.3236 -0.9540
 5465SOL    MW421628   5.621   2.178   3.358  0.1333 -0.2742  0.0040
 5466SOL     OW21629   4.447   0.872   1.387 -0.1726 -0.2456 -0.1700
 5466SOL    HW221630   4.438   0.835   1.475 -2.2709 -0.1941 -0.3083
 5466SOL    HW321631   4.536   0.847   1.360  0.2023 -1.0281  1.5947
 5466SOL    MW421632   4.458   0.864   1.395 -0.4000 -0.3421  0.0446
 5467SOL     OW21633   5.488   0.637   3.360  0.0986 -0.2819 -0.3612
 5467SOL    HW221634   5.499   0.707   3.297 -1.2295 -0.0265 -0.3306
 5467SOL    HW321635   5.449   0.679   3.437  0.6503 -0.7897  0.2091
 5467SOL    MW421636   5.484   0.651   3.362 -0.0039 -0.3152 -0.2819
 5468SOL     OW21637   3.165   0.550   5.740 -0.4059  0.2575  0.4007
 5468SOL    HW221638   3.260   0.543   5.738 -0.3955 -0.9406 -3.6220
 5468SOL    HW321639   3.147   0.643   5.721  0.1795 -0.1656 -2.9545
 5468SOL    MW421640   3.175   0.562   5.737 -0.3273  0.0436 -0.5727
 5469SOL     OW21641   6.107   5.626   2.494  0.4766 -0.0939 -0.4370
 5469SOL    HW221642   6.112   5.542   2.539  1.5492 -0.4330 -1.1512
 5469SOL    HW321643   6.198   5.647   2.473  0.1632  0.9711 -0.7809
 5469SOL    MW421644   6.120   5.618   2.497  0.5767  0.0019 -0.5766
 5470SOL     OW21645   5.479   1.947   3.921  0.3223  0.5810 -0.2986
 5470SOL    HW221646   5.469   1.980   3.832 -1.2874  0.9105 -0.0347
 5470SOL    HW321647   5.523   1.862   3.911 -1.9133 -0.5109 -1.6668
 5470SOL    MW421648   5.483   1.940   3.908 -0.1850  0.4804 -0.4443
 5471SOL     OW21649   2.301   2.494   2.334  0.1808 -0.0218 -0.1296
 5471SOL    HW221650   2.259   2.421   2.289  1.0674  0.2068 -1.3810
 5471SOL    HW321651   2.357   2.534   2.267  2.9397 -0.7366  1.6272
 5471SOL    MW421652   2.303   2.490   2.319  0.6618 -0.0859 -0.0629
 5472SOL     OW21653   2.908   3.581   3.504 -0.2813  0.2759  0.2780
 5472SOL    HW221654   2.833   3.556   3.558  0.6468 -0.6633  1.1831
 5472SOL    HW321655   2.974   3.613   3.566  0.4792  0.0194 -0.3694
 5472SOL    MW421656   2.907   3.582   3.519 -0.0585  0.1181  0.3120
 5473SOL     OW21657   3.477   5.544   1.141 -0.2793 -0.3814  0.1068
 5473SOL    HW221658   3.494   5.450   1.129  0.7955 -0.1068 -0.6914
 5473SOL    HW321659   3.382   5.550   1.149 -0.6602 -1.2851 -2.6064
 5473SOL    MW421660   3.467   5.532   1.141 -0.1877 -0.4644 -0.3565
 5474SOL     OW21661   2.177   3.436   4.169  0.2164 -0.3328 -0.6432
 5474SOL    HW221662   2.192   3.357   4.222  1.4583 -0.3302 -0.9844
 5474SOL    HW321663   2.180   3.508   4.232 -0.6245 -0.5150 -0.3775
 5474SOL    MW421664   2.179   3.435   4.185  0.2693 -0.3565 -0.6531
 5475SOL     OW21665   6.370   2.377   2.432  0.3789 -0.5638  0.8072
 5475SOL    HW221666   6.316   2.430   2.491  2.1618  0.3684  1.6683
 5475SOL    HW321667   6.364   2.288   2.467 -2.2818 -0.9806 -0.3925
 5475SOL    MW421668   6.362   2.372   2.444  0.2631 -0.4958  0.7626
 5476SOL     OW21669   0.530   1.332   6.319  0.2522  0.5308  0.0092
 5476SOL    HW221670   0.578   1.249   6.313  0.3306  0.5320  0.5564
 5476SOL    HW321671   0.453   1.311   6.371  0.7073  0.9847  0.8951
 5476SOL    MW421672   0.527   1.318   6.325  0.3226  0.5908  0.1983
 5477SOL     OW21673   0.039   4.374   4.407  0.0114  0.3860  0.1931
 5477SOL    HW221674  -0.033   4.341   4.462  1.1204 -0.5604  1.1250
 5477SOL    HW321675   0.057   4.303   4.346 -1.3331  1.4973 -1.6219
 5477SOL    MW421676   0.032   4.360   4.406 -0.0197  0.4077  0.0766
 5478SOL     OW21677   3.198   2.525   6.084  0.5557  0.6022  0.0722
 5478SOL    HW221678   3.167   2.511   6.173  0.4480  4.0777  0.7399
 5478SOL    HW321679   3.164   2.451   6.034 -1.2200 -0.3257  2.4796
 5478SOL    MW421680   3.189   2.513   6.089  0.3072  0.9383  0.4780
 5479SOL     OW21681   2.611   1.944   0.562 -0.3864  0.5802  0.5370
 5479SOL    HW221682   2.561   2.022   0.536 -0.0177  1.0810  1.2699
 5479SOL    HW321683   2.650   1.968   0.646 -0.1795 -0.3683  0.7242
 5479SOL    MW421684   2.610   1.958   0.569 -0.3105  0.5211  0.6584
 5480SOL     OW21685   1.923   0.809   0.306 -0.5790 -0.1905 -0.4276
 5480SOL    HW221686   1.914   0.769   0.220  0.3959  0.3223 -0.7800
 5480SOL    HW321687   1.874   0.751   0.364  0.5964 -1.7888 -0.9518
 5480SOL    MW421688   1.915   0.796   0.302 -0.2953 -0.3337 -0.5433
 5481SOL     OW21689   5.101   6.016   5.766 -0.2748 -0.1046  0.5391
 5481SOL    HW221690   5.139   5.953   5.705 -2.0076 -1.7250  1.0383
 5481SOL    HW321691   5.156   6.010   5.844  0.7773  0.5304 -0.1392
 5481SOL    MW421692   5.113   6.007   5.768 -0.3646 -0.2346  0.5155
 5482SOL     OW21693   5.937   2.818   1.819  0.2102  0.4812  0.0642
 5482SOL    HW221694   5.999   2.891   1.823  0.5240  0.2686 -0.8222
 5482SOL    HW321695   5.871   2.846   1.756 -0.2467  0.4317  0.5154
 5482SOL    MW421696   5.936   2.831   1.811  0.1913  0.4466  0.0068
 5483SOL     OW21697   1.899   2.308   4.339 -0.7857 -0.3405 -0.7099
 5483SOL    HW221698   1.871   2.378   4.280  0.0587 -0.4493 -1.2549
 5483SOL    HW321699   1.860   2.229   4.303 -0.1328 -0.4322 -1.2345
 5483SOL    MW421700   1.891   2.307   4.327 -0.5882 -0.3670 -0.8510
 5484SOL     OW21701   5.955   4.153   1.112 -0.2811 -0.0458 -0.7468
 5484SOL    HW221702   5.986   4.101   1.186 -0.3265 -0.8177 -1.2564
 5484SOL    HW321703   5.923   4.088   1.049 -0.7126  0.6230 -1.2320
 5484SOL    MW421704   5.955   4.137   1.114 -0.3440 -0.0594 -0.8781
 5485SOL     OW21705   5.069   2.502   0.171  0.6787  0.9140 -0.7504
 5485SOL    HW221706   5.153   2.501   0.124  0.8255  0.5042 -0.4806
 5485SOL    HW321707   5.088   2.548   0.253  1.0698 -0.6791  0.0889
 5485SOL    MW421708   5.082   2.508   0.175  0.7497  0.6497 -0.6041
 5486SOL     OW21709   1.486   3.159   0.846  0.3240  0.2296 -0.0389
 5486SOL    HW221710   1.582   3.150   0.845  0.2986 -0.2605 -1.9344
 5486SOL    HW321711   1.455   3.085   0.794 -1.0363  0.8762 -0.1711
 5486SOL    MW421712   1.495   3.148   0.839  0.1411  0.2502 -0.3064
 5487SOL     OW21713   0.838   3.700   2.814 -0.3980  0.0542  0.0915
 5487SOL    HW221714   0.881   3.721   2.731  1.9961  1.7351  1.6249
 5487SOL    HW321715   0.776   3.771   2.828  1.0354  1.2023  0.8789
 5487SOL    MW421716   0.835   3.712   2.805  0.1070  0.4275  0.3977
 5488SOL     OW21717   2.553   5.933   3.123 -0.1507 -0.0479 -0.3703
 5488SOL    HW221718   2.507   5.853   3.146 -2.2176  1.3793  0.8259
 5488SOL    HW321719   2.506   5.967   3.046  0.2354  0.3773 -0.4267
 5488SOL    MW421720   2.540   5.927   3.116 -0.3724  0.1965 -0.2199
 5489SOL     OW21721   4.879   2.642   2.158 -0.5556  0.7632 -0.3782
 5489SOL    HW221722   4.851   2.644   2.067  2.1734 -0.8841 -1.4039
 5489SOL    HW321723   4.960   2.590   2.157 -0.0614  1.2167  2.8965
 5489SOL    MW421724   4.886   2.635   2.146 -0.1303  0.6057 -0.0815
 5490SOL     OW21725   0.477   0.609   2.439 -0.4478 -0.0146  0.5839
 5490SOL    HW221726   0.402   0.556   2.409  1.0055 -2.2463  0.6349
 5490SOL    HW321727   0.539   0.607   2.366  0.5068 -0.1795  1.3752
 5490SOL    MW421728   0.475   0.602   2.425 -0.1301 -0.3308  0.6950
 5491SOL     OW21729   2.243   2.294   1.055 -0.0266 -0.1207  0.4429
 5491SOL    HW221730   2.292   2.254   0.983 -0.3712 -0.4747  0.3998
 5491SOL    HW321731   2.249   2.388   1.038  0.3119 -0.1767  0.2273
 5491SOL    MW421732   2.250   2.301   1.043 -0.0274 -0.1748  0.4088
 5492SOL     OW21733   2.987   0.975   1.380  0.0071 -0.4881  0.3440
 5492SOL    HW221734   2.980   0.951   1.472 -1.2690 -1.5823 -0.0195
 5492SOL    HW321735   2.936   0.909   1.333  0.2576  0.3057 -1.1118
 5492SOL    MW421736   2.980   0.963   1.386 -0.1282 -0.5277  0.1039
 5493SOL     OW21737   4.573   1.800   5.933 -0.2503 -0.3644  0.0937
 5493SOL    HW221738   4.542   1.772   6.019 -1.8752  1.0983  0.0364
 5493SOL    HW321739   4.497   1.842   5.893  0.6937 -0.3556 -1.7718
 5493SOL    MW421740   4.559   1.802   5.939 -0.3402 -0.1702 -0.1600
 5494SOL     OW21741   2.813   2.414   1.276  0.0278 -0.0428 -1.0231
 5494SOL    HW221742   2.767   2.490   1.239  0.2202  0.5900 -0.0032
 5494SOL    HW321743   2.834   2.360   1.201  0.5242  1.2691 -1.8626
 5494SOL    MW421744   2.810   2.417   1.261  0.1186  0.2138 -0.9993
 5495SOL     OW21745   0.417   2.311   6.330  0.2265  0.2700 -0.2730
 5495SOL    HW221746   0.356   2.242   6.356 -0.3413  0.6582 -0.5315
 5495SOL    HW321747   0.503   2.279   6.355  0.0722 -0.9229 -1.2012
 5495SOL    MW421748   0.420   2.298   6.337  0.1312  0.1638 -0.4296
 5496SOL     OW21749   5.560   4.034   3.298 -0.3923  0.3617  0.1939
 5496SOL    HW221750   5.576   4.041   3.393 -3.5562 -0.0099  0.8482
 5496SOL    HW321751   5.516   4.115   3.275 -0.5272  0.0289 -0.7502
 5496SOL    MW421752   5.557   4.045   3.308 -0.8275  0.2688  0.1557
 5497SOL     OW21753   1.392   0.063   4.864  0.7094  0.3156 -0.5113
 5497SOL    HW221754   1.424   0.146   4.900 -1.1431  0.9777 -0.2459
 5497SOL    HW321755   1.428   0.060   4.775  1.5592  0.9459 -0.2032
 5497SOL    MW421756   1.401   0.074   4.857  0.5771  0.4861 -0.4356
 5498SOL     OW21757   5.207   3.224   6.031  0.9945  0.9443  0.3138
 5498SOL    HW221758   5.269   3.175   6.085 -0.3032 -0.3931  0.6517
 5498SOL    HW321759   5.193   3.169   5.954  0.4374  1.3596  0.1088
 5498SOL    MW421760   5.213   3.211   6.028  0.7498  0.8226  0.3313
 5499SOL     OW21761   1.142   3.838   0.239  0.2821 -0.0863 -0.1457
 5499SOL    HW221762   1.232   3.845   0.206  0.1585 -0.3399 -0.5311
 5499SOL    HW321763   1.153   3.809   0.330  0.5642 -0.9973 -0.4587
 5499SOL    MW421764   1.156   3.835   0.247  0.3030 -0.2399 -0.2379
 5500SOL     OW21765   3.179   5.918   4.901  0.0977  0.2670 -0.3497
 5500SOL    HW221766   3.230   5.841   4.876 -1.2834 -0.4832 -0.9657
 5500SOL    HW321767   3.222   5.950   4.981  1.7015 -0.1293 -1.0162
 5500SOL    MW421768   3.191   5.912   4.908  0.1271  0.1157 -0.5189
 5501SOL     OW21769   4.979   4.964   2.836  0.4651 -0.5423 -0.0371
 5501SOL    HW221770   4.884   4.974   2.833  0.6149  1.0626 -0.0131
 5501SOL    HW321771   4.993   4.871   2.819 -1.0827 -0.7267 -0.4960
 5501SOL    MW421772   4.968   4.953   2.833  0.2806 -0.3549 -0.0945
 5502SOL     OW21773   0.922   4.514   2.153 -0.1994  0.1837 -0.2427
 5502SOL    HW221774   0.854   4.498   2.087 -1.3679 -0.5741  1.1054
 5502SOL    HW321775   0.882   4.491   2.236  2.0507 -1.4512  0.5151
 5502SOL    MW421776   0.908   4.509   2.155 -0.0567 -0.1320  0.0351
 5503SOL     OW21777   0.602   5.751   2.971  0.0831  0.0075 -0.5250
 5503SOL    HW221778   0.678   5.743   2.914 -0.6625  0.9378 -1.7093
 5503SOL    HW321779   0.529   5.720   2.917 -0.4618 -0.2701  0.3680
 5503SOL    MW421780   0.602   5.746   2.956 -0.0871  0.0937 -0.5634
 5504SOL     OW21781   1.270   2.240   5.718  0.0758  0.3222  0.1560
 5504SOL    HW221782   1.352   2.249   5.766 -0.9058  0.8780  1.8213
 5504SOL    HW321783   1.207   2.293   5.767 -1.4659 -0.6834 -0.6384
 5504SOL    MW421784   1.272   2.248   5.731 -0.2571  0.2629  0.2709
 5505SOL     OW21785   5.943   0.678   1.029  0.1723 -0.1665  0.1538
 5505SOL    HW221786   5.871   0.632   0.985  0.7147  0.6391 -1.6286
 5505SOL    HW321787   5.906   0.704   1.113 -0.5492 -2.7120  0.7164
 5505SOL    MW421788   5.928   0.675   1.034  0.1486 -0.3961 -0.0072
 5506SOL     OW21789   3.399   0.900   5.231 -0.0932  0.1075 -0.1498
 5506SOL    HW221790   3.474   0.841   5.245 -0.1824 -0.4985 -1.9607
 5506SOL    HW321791   3.337   0.876   5.300  0.4675 -0.9240  0.0249
 5506SOL    MW421792   3.401   0.889   5.242 -0.0310 -0.1085 -0.3657
 5507SOL     OW21793   4.046   5.300   1.939 -0.8385 -0.1944 -0.4653
 5507SOL    HW221794   4.108   5.281   1.869 -0.0802 -2.4383  0.7330
 5507SOL    HW321795   4.061   5.392   1.959  2.6982 -0.7889  0.2641
 5507SOL    MW421796   4.056   5.310   1.932 -0.2719 -0.5689 -0.2110
 5508SOL     OW21797   1.040   5.331   4.685  0.2409 -0.5014  0.4232
 5508SOL    HW221798   1.041   5.266   4.615 -0.7780 -0.7677  0.6309
 5508SOL    HW321799   1.053   5.280   4.765 -0.2118 -0.4190  0.5547
 5508SOL    MW421800   1.042   5.316   4.686  0.0467 -0.5257  0.4679
 5509SOL     OW21801   5.185   0.733   0.863 -0.3063 -0.3117  0.4068
 5509SOL    HW221802   5.117   0.740   0.796  0.6566 -0.5755 -0.6200
 5509SOL    HW321803   5.256   0.684   0.821  0.6869  0.2993  1.3243
 5509SOL    MW421804   5.185   0.727   0.848 -0.0482 -0.2659  0.3924
 5510SOL     OW21805   1.465   3.729   5.871 -0.3268 -0.3133 -0.3845
 5510SOL    HW221806   1.512   3.803   5.833  0.2331 -0.4957 -0.0445
 5510SOL    HW321807   1.526   3.690   5.932 -1.1509 -0.1506  0.5713
 5510SOL    MW421808   1.479   3.734   5.874 -0.3617 -0.3159 -0.2136
 5511SOL     OW21809   0.826   5.378   1.304  0.3088 -0.1882  0.4703
 5511SOL    HW221810   0.735   5.398   1.328  0.9735  1.1078  2.1956
 5511SOL    HW321811   0.853   5.453   1.251  0.5539 -0.2276  0.5385
 5511SOL    MW421812   0.818   5.391   1.300  0.4288 -0.0224  0.7069
 5512SOL     OW21813   6.419   2.154   6.324  0.7413 -0.0839 -0.1345
 5512SOL    HW221814   6.511   2.135   6.346  0.5985 -1.4316 -0.5889
 5512SOL    HW321815   6.384   2.193   6.404  1.1460 -1.6490  0.8714
 5512SOL    MW421816   6.427   2.157   6.337  0.7758 -0.4682 -0.0617
 5513SOL     OW21817   0.433   2.014   1.378 -0.0415  0.0506  0.0865
 5513SOL    HW221818   0.456   1.921   1.382 -0.4228 -0.0066  1.5411
 5513SOL    HW321819   0.464   2.043   1.292  0.0103 -1.4336 -0.4229
 5513SOL    MW421820   0.440   2.006   1.367 -0.0849 -0.1528  0.2112
 5514SOL     OW21821   5.643   4.512   2.609  0.1097  0.0511  0.7607
 5514SOL    HW221822   5.606   4.529   2.522 -2.2382  1.0705  1.8817
 5514SOL    HW321823   5.737   4.528   2.597 -0.3005  1.5044 -1.2926
 5514SOL    MW421824   5.651   4.516   2.596 -0.2542  0.3773  0.6377
 5515SOL     OW21825   2.684   1.174   4.871 -0.3972  0.4581  0.1307
 5515SOL    HW221826   2.658   1.200   4.959  1.8790  1.0625  0.7061
 5515SOL    HW321827   2.661   1.081   4.865 -0.0089  0.2486  1.6282
 5515SOL    MW421828   2.678   1.165   4.882 -0.0457  0.5102  0.4042
 5516SOL     OW21829   6.342   2.771   2.565 -0.0530 -0.0737  0.4361
 5516SOL    HW221830   6.247   2.760   2.560 -0.1574  0.7039  0.6472
 5516SOL    HW321831   6.363   2.762   2.658  0.2318 -1.3340  0.2737
 5516SOL    MW421832   6.332   2.768   2.576 -0.0292 -0.1374  0.4426
 5517SOL     OW21833   3.551   5.829   4.393 -0.1438  0.0030  0.0432
 5517SOL    HW221834   3.495   5.855   4.467  0.8938  4.0543 -0.3179
 5517SOL    HW321835   3.506   5.864   4.316  1.4786  0.9425 -0.5250
 5517SOL    MW421836   3.537   5.837   4.393  0.2071  0.6615 -0.0794
 5518SOL     OW21837   3.231   0.075   0.324  0.3060  0.5833 -0.6139
 5518SOL    HW221838   3.170   0.001   0.319  1.3776 -0.5917  1.8519
 5518SOL    HW321839   3.175   0.152   0.322 -1.0256 -0.3484 -1.1692
 5518SOL    MW421840   3.215   0.075   0.323  0.2717  0.3054 -0.3619
 5519SOL     OW21841   5.442   0.736   4.197 -0.2917  0.8259 -0.2831
 5519SOL    HW221842   5.401   0.651   4.206 -0.0369  0.6442 -0.7683
 5519SOL    HW321843   5.463   0.763   4.286 -2.1323  1.2666  0.0465
 5519SOL    MW421844   5.439   0.729   4.210 -0.5009  0.8601 -0.3037
 5520SOL     OW21845   3.571   2.657   4.497 -0.3668  0.5590  0.3416
 5520SOL    HW221846   3.512   2.645   4.572 -1.8356  1.0016 -0.7063
 5520SOL    HW321847   3.537   2.734   4.451  0.1708 -0.0228 -1.0832
 5520SOL    MW421848   3.558   2.666   4.501 -0.4897  0.5406  0.0153
 5521SOL     OW21849   3.905   4.829   4.727  0.0122 -0.4831  0.6860
 5521SOL    HW221850   3.953   4.900   4.685 -1.1929  0.2258  0.4582
 5521SOL    HW321851   3.965   4.754   4.724  0.8486  0.2001 -0.1408
 5521SOL    MW421852   3.919   4.828   4.721 -0.0364 -0.2994  0.5469
 5522SOL     OW21853   3.703   2.957   0.449  0.0747  0.1397  0.0574
 5522SOL    HW221854   3.791   2.951   0.485  0.3933  1.3595 -0.4435
 5522SOL    HW321855   3.714   2.940   0.355 -0.2619  0.0320  0.0346
 5522SOL    MW421856   3.716   2.954   0.441  0.0723  0.2865 -0.0117
 5523SOL     OW21857   3.354   1.431   4.366  0.2537 -0.4685  0.0289
 5523SOL    HW221858   3.291   1.468   4.428 -0.2021 -1.0604 -0.0707
 5523SOL    HW321859   3.313   1.350   4.336 -0.1900  0.5163 -2.1773
 5523SOL    MW421860   3.340   1.425   4.370  0.1350 -0.4167 -0.2753
 5524SOL     OW21861   1.223   0.707   1.194  0.0164 -0.2718  0.8949
 5524SOL    HW221862   1.178   0.633   1.235 -0.6469 -0.8663 -0.8339
 5524SOL    HW321863   1.153   0.771   1.179  0.2621 -0.0537  0.6925
 5524SOL    MW421864   1.208   0.706   1.198 -0.0387 -0.3214  0.6401
 5525SOL     OW21865   0.857   4.878   5.264  0.0616 -0.4203  0.0448
 5525SOL    HW221866   0.865   4.946   5.197 -1.0367 -0.8512 -0.5463
 5525SOL    HW321867   0.887   4.798   5.221 -0.6943 -0.7073  0.0321
 5525SOL    MW421868   0.862   4.876   5.249 -0.1830 -0.5150 -0.0349
 5526SOL     OW21869   0.266   4.011   1.178  0.5176 -0.1227  0.7016
 5526SOL    HW221870   0.281   3.965   1.260 -0.3848 -0.3636  0.7476
 5526SOL    HW321871   0.291   3.949   1.110  1.8545  0.2976  0.7853
 5526SOL    MW421872   0.271   3.997   1.180  0.5750 -0.0990  0.7187
 5527SOL     OW21873   3.121   6.358   5.129 -0.0045  0.6546 -0.2027
 5527SOL    HW221874   3.146   6.443   5.092  0.2806  0.9419  0.6266
 5527SOL    HW321875   3.049   6.328   5.073 -0.4205  1.6607 -0.2231
 5527SOL    MW421876   3.115   6.365   5.116 -0.0218  0.8253 -0.0960
 5528SOL     OW21877   5.568   3.537   4.718  0.4255 -0.6136 -0.5653
 5528SOL    HW221878   5.519   3.569   4.642  0.7776 -1.3317 -1.1032
 5528SOL    HW321879   5.501   3.508   4.780  0.1393 -0.0381 -0.5932
 5528SOL    MW421880   5.553   3.538   4.716  0.4342 -0.6324 -0.6400
 5529SOL     OW21881   0.469   5.422   2.415  0.5359  0.2335  0.1346
 5529SOL    HW221882   0.535   5.441   2.482 -0.7808 -1.4602  2.0717
 5529SOL    HW321883   0.453   5.328   2.425 -1.8928  0.5283 -0.4632
 5529SOL    MW421884   0.476   5.412   2.425  0.0417  0.0490  0.3113
 5530SOL     OW21885   5.580   2.546   4.787  0.2218  0.3514  0.3094
 5530SOL    HW221886   5.552   2.503   4.868  0.6981  0.9425  0.7954
 5530SOL    HW321887   5.564   2.639   4.802  1.2911  0.5727  0.1331
 5530SOL    MW421888   5.574   2.552   4.800  0.4257  0.4586  0.3503
 5531SOL     OW21889   3.855   0.643   5.312  0.2398  0.2660  0.3706
 5531SOL    HW221890   3.937   0.631   5.266  0.7626  2.4478  0.6439
 5531SOL    HW321891   3.880   0.679   5.398 -0.8660 -1.3226  1.4239
 5531SOL    MW421892   3.869   0.646   5.318  0.1629  0.3443  0.5456
 5532SOL     OW21893   1.574   4.831   5.426 -0.4483 -0.0113 -0.0512
 5532SOL    HW221894   1.631   4.790   5.491 -0.0490  1.5715  0.6427
 5532SOL    HW321895   1.493   4.848   5.473 -0.6695 -0.1547 -0.3791
 5532SOL    MW421896   1.571   4.828   5.440 -0.4248  0.1786 -0.0029
 5533SOL     OW21897   0.240   1.324   1.838 -0.1707 -0.1310  0.4242
 5533SOL    HW221898   0.313   1.386   1.839 -0.5993  0.4359 -0.8715
 5533SOL    HW321899   0.172   1.368   1.787  0.1181 -2.2655 -2.0403
 5533SOL    MW421900   0.241   1.338   1.831 -0.1892 -0.3378 -0.0719
 5534SOL     OW21901   3.208   3.667   5.895 -0.3020  0.5623  0.2754
 5534SOL    HW221902   3.229   3.641   5.805 -2.6676  0.3655 -0.3012
 5534SOL    HW321903   3.163   3.591   5.931 -0.4027  1.0736  1.2412
 5534SOL    MW421904   3.205   3.653   5.888 -0.6274  0.6038  0.3268
 5535SOL     OW21905   2.747   4.547   1.137  0.7390  0.1957 -0.1972
 5535SOL    HW221906   2.797   4.554   1.056  0.4681 -0.2538 -0.4076
 5535SOL    HW321907   2.802   4.588   1.203  0.9591  0.5680 -0.6109
 5535SOL    MW421908   2.761   4.553   1.135  0.7323  0.1855 -0.2795
 5536SOL     OW21909   0.636   3.977   1.482  0.7150 -0.2382 -0.6946
 5536SOL    HW221910   0.677   3.977   1.396 -1.3366  0.5324 -1.7303
 5536SOL    HW321911   0.666   3.895   1.523  0.5863 -1.3322 -2.6963
 5536SOL    MW421912   0.646   3.966   1.476  0.4273 -0.2809 -1.0953
 5537SOL     OW21913   3.892   1.175   2.327  0.2051  0.2809 -0.0267
 5537SOL    HW221914   3.936   1.194   2.410  0.6809 -1.2776  0.1175
 5537SOL    HW321915   3.962   1.173   2.262 -0.1604  1.4529 -0.4708
 5537SOL    MW421916   3.907   1.177   2.330  0.2196  0.2299 -0.0662
 5538SOL     OW21917   5.564   1.167   6.415  0.5314 -0.4124 -0.5333
 5538SOL    HW221918   5.566   1.261   6.431 -1.3079 -0.2236 -1.2399
 5538SOL    HW321919   5.644   1.135   6.457  1.8234  1.5958 -1.2853
 5538SOL    MW421920   5.575   1.175   6.423  0.4592 -0.1225 -0.7258
 5539SOL     OW21921   3.711   0.222   0.448 -0.3787 -0.0861  0.2557
 5539SOL    HW221922   3.774   0.151   0.461 -0.2726  0.1514  1.0569
 5539SOL    HW321923   3.632   0.193   0.494 -0.4097  0.2169  0.3939
 5539SOL    MW421924   3.709   0.209   0.455 -0.3688 -0.0148  0.3796
 5540SOL     OW21925   6.033   0.814   0.202  0.0813  0.2120  0.2592
 5540SOL    HW221926   6.001   0.864   0.127 -0.2140  0.0696  0.2914
 5540SOL    HW321927   6.128   0.819   0.194  0.0953 -1.6982 -1.3919
 5540SOL    MW421928   6.041   0.821   0.191  0.0442 -0.0588  0.0456
 5541SOL     OW21929   5.508   1.110   3.806 -0.3687  0.6796 -0.6602
 5541SOL    HW221930   5.415   1.105   3.786 -0.7655 -1.7389  1.3132
 5541SOL    HW321931   5.548   1.039   3.755 -0.0368  0.0445  0.4651
 5541SOL    MW421932   5.501   1.100   3.796 -0.3773  0.2767 -0.2514
 5542SOL     OW21933   2.576   6.106   3.576 -0.4770  0.0027 -0.4412
 5542SOL    HW221934   2.577   6.010   3.575 -0.6535 -0.0527 -3.4672
 5542SOL    HW321935   2.492   6.129   3.618 -0.2712 -1.1178  0.6369
 5542SOL    MW421936   2.565   6.096   3.581 -0.4731 -0.1524 -0.6982
 5543SOL     OW21937   0.849   1.407   4.648  0.2762  0.3737 -0.0326
 5543SOL    HW221938   0.778   1.350   4.679  1.6190 -2.8549 -2.3252
 5543SOL    HW321939   0.910   1.410   4.722 -0.0524 -0.8610  0.3213
 5543SOL    MW421940   0.848   1.400   4.662  0.4100 -0.2152 -0.2884
 5544SOL     OW21941   5.732   4.084   0.937 -0.3006 -0.1363 -0.6259
 5544SOL    HW221942   5.731   4.173   0.972  1.3198  0.2030 -1.3370
 5544SOL    HW321943   5.701   4.030   1.010 -0.6662  0.9292  0.0409
 5544SOL    MW421944   5.728   4.089   0.951 -0.1351  0.0491 -0.6317
 5545SOL     OW21945   3.586   3.972   5.771  0.2023  0.2785 -0.4767
 5545SOL    HW221946   3.570   3.976   5.865  1.1466  0.3525 -0.3075
 5545SOL    HW321947   3.650   4.042   5.754 -0.0252  0.3253 -1.1881
 5545SOL    MW421948   3.592   3.982   5.781  0.2969  0.2944 -0.5483
 5546SOL     OW21949   1.704   1.308   0.329  0.0553  0.8493  0.5837
 5546SOL    HW221950   1.630   1.296   0.389 -0.1769  1.0376  0.3337
 5546SOL    HW321951   1.668   1.288   0.242  0.4589  0.3014  0.5335
 5546SOL    MW421952   1.690   1.304   0.326  0.0779  0.8019  0.5441
 5547SOL     OW21953   5.366   1.219   4.447 -0.2261  0.2160  0.0690
 5547SOL    HW221954   5.361   1.199   4.353  1.2824 -2.0290  0.3847
 5547SOL    HW321955   5.285   1.182   4.483 -1.2266  1.8219 -0.3757
 5547SOL    MW421956   5.354   1.211   4.439 -0.1591  0.1317  0.0520
 5548SOL     OW21957   6.431   4.128   3.631  0.5590  0.6012  0.2223
 5548SOL    HW221958   6.370   4.122   3.704 -0.1284  1.0924 -0.3024
 5548SOL    HW321959   6.498   4.190   3.661  0.5134  0.4780  0.5886
 5548SOL    MW421960   6.432   4.136   3.645  0.4623  0.6497  0.2014
 5549SOL     OW21961   1.178   2.625   3.712 -0.2709  0.1939  1.1723
 5549SOL    HW221962   1.096   2.593   3.675  0.7250 -1.0707 -0.0672
 5549SOL    HW321963   1.190   2.712   3.674 -0.0474 -0.4592 -0.3059
 5549SOL    MW421964   1.169   2.632   3.702 -0.1100 -0.0591  0.8138
 5550SOL     OW21965   2.540   1.456   4.449 -0.0910 -0.1305  0.1325
 5550SOL    HW221966   2.499   1.410   4.376  1.7943  0.3601 -1.3290
 5550SOL    HW321967   2.553   1.389   4.515  0.0386 -1.0753 -0.8228
 5550SOL    MW421968   2.536   1.441   4.448  0.1748 -0.1905 -0.1864
 5551SOL     OW21969   1.297   4.497   0.727  0.1055 -0.5114  0.3672
 5551SOL    HW221970   1.275   4.429   0.790 -1.8633 -1.8057 -1.5436
 5551SOL    HW321971   1.234   4.567   0.744  0.2155 -0.4427  0.4850
 5551SOL    MW421972   1.286   4.497   0.737 -0.1397 -0.6731  0.1306
 5552SOL     OW21973   0.379   0.581   1.947  0.2755  0.3339 -0.1628
 5552SOL    HW221974   0.456   0.535   1.913  0.7059  0.5413  0.5250
 5552SOL    HW321975   0.372   0.552   2.038  0.9474  2.1041  0.4973
 5552SOL    MW421976   0.388   0.571   1.954  0.4210  0.5948  0.0150
 5553SOL     OW21977   1.940   2.336   6.093  0.2908 -0.3653 -0.1745
 5553SOL    HW221978   1.924   2.254   6.140 -0.7137  0.1183  0.3544
 5553SOL    HW321979   1.974   2.308   6.008 -0.8877 -1.3822 -0.3431
 5553SOL    MW421980   1.942   2.321   6.088  0.0028 -0.4357 -0.1270
 5554SOL     OW21981   4.995   4.278   1.428 -0.3630  0.0093  0.0611
 5554SOL    HW221982   4.956   4.235   1.352 -0.3823 -1.0327  0.6457
 5554SOL    HW321983   4.993   4.371   1.406 -1.6422 -0.1610 -0.6235
 5554SOL    MW421984   4.990   4.285   1.415 -0.5343 -0.1506  0.0479
 5555SOL     OW21985   5.364  -0.039   0.998 -1.1917 -0.1297  0.1704
 5555SOL    HW221986   5.418   0.039   0.985 -1.6272 -0.0941 -1.8648
 5555SOL    HW321987   5.388  -0.096   0.924 -0.7699 -2.0206  1.6927
 5555SOL    MW421988   5.375  -0.036   0.986 -1.1935 -0.3745  0.1027
 5556SOL     OW21989   4.038   3.350   2.532  0.3355  0.1063  0.4158
 5556SOL    HW221990   4.014   3.294   2.606  1.0068  0.3250  0.8010
 5556SOL    HW321991   3.980   3.425   2.540  1.4289  0.8585  1.6266
 5556SOL    MW421992   4.027   3.352   2.543  0.5683  0.2344  0.6264
 5557SOL     OW21993   0.170   2.097   1.441 -0.0379 -0.9486 -0.3294
 5557SOL    HW221994   0.258   2.065   1.422  0.1734  0.0084 -1.0140
 5557SOL    HW321995   0.113   2.024   1.414  0.5060 -1.3648 -0.3784
 5557SOL    MW421996   0.174   2.083   1.435  0.0617 -0.8772 -0.4262
 5558SOL     OW21997   0.462   0.239   2.391  0.2981  0.0701  0.3983
 5558SOL    HW221998   0.467   0.276   2.479 -0.0346  1.7650 -0.2527
 5558SOL    HW321999   0.546   0.260   2.351 -0.2440  0.9938 -0.2911
 5558SOL    MW422000   0.474   0.247   2.397  0.1827  0.4156  0.2214
 5559SOL     OW22001   1.285   0.472   5.599 -0.1514  0.2843 -0.3096
 5559SOL    HW222002   1.260   0.564   5.589 -1.0918  0.0892  0.0890
 5559SOL    HW322003   1.207   0.424   5.572  0.1465 -0.3853  0.0159
 5559SOL    MW422004   1.271   0.478   5.594 -0.2362  0.1702 -0.2141
 5560SOL     OW22005   0.208   5.360   1.007 -0.1206  0.7057  0.6631
 5560SOL    HW222006   0.254   5.283   1.038  1.1346  1.1403 -0.0437
 5560SOL    HW322007   0.223   5.360   0.912 -0.7095  1.4343  0.5575
 5560SOL    MW422008   0.216   5.350   0.998 -0.0327  0.8592  0.5559
 5561SOL     OW22009   4.658   0.380   3.219 -0.2292 -0.3777  0.1587
 5561SOL    HW222010   4.563   0.382   3.232 -0.1298 -0.0413  0.8837
 5561SOL    HW322011   4.690   0.316   3.282  0.0842 -0.0378  0.3506
 5561SOL    MW422012   4.650   0.372   3.229 -0.1747 -0.2885  0.2797
 5562SOL     OW22013   0.326   6.180   4.900  0.2081 -0.2405  0.0587
 5562SOL    HW222014   0.252   6.188   4.960  1.2837  2.6653  1.1565
 5562SOL    HW322015   0.301   6.232   4.824  0.6504 -0.2019 -0.0629
 5562SOL    MW422016   0.313   6.188   4.898  0.4084  0.1480  0.1875
 5563SOL     OW22017   1.431   5.779   3.576  0.1060  0.1246  0.1057
 5563SOL    HW222018   1.499   5.712   3.572  0.9256  0.8356  1.4936
 5563SOL    HW322019   1.442   5.819   3.662 -0.5566  1.8496 -0.5769
 5563SOL    MW422020   1.441   5.775   3.586  0.1267  0.4460  0.1987
 5564SOL     OW22021   0.154   4.663   4.945  0.5801  0.1483  0.0688
 5564SOL    HW222022   0.182   4.589   4.998  0.2219  0.5115  0.7892
 5564SOL    HW322023   0.060   4.670   4.961  0.9601  2.2526  2.0168
 5564SOL    MW422024   0.145   4.654   4.955  0.5830  0.4739  0.4209
 5565SOL     OW22025   5.770   1.032   0.839 -0.2514 -0.0433  0.7440
 5565SOL    HW222026   5.759   1.104   0.777  0.7095 -1.4193 -1.1665
 5565SOL    HW322027   5.737   1.065   0.922  0.5589  2.7081  0.0467
 5565SOL    MW422028   5.764   1.046   0.842 -0.0177  0.1382  0.3999
 5566SOL     OW22029   4.320   3.615   1.422  0.2015 -0.3375  0.3169
 5566SOL    HW222030   4.274   3.610   1.505  2.8468 -1.6145  1.8228
 5566SOL    HW322031   4.297   3.534   1.376 -2.2860  0.9479 -0.8782
 5566SOL    MW422032   4.311   3.604   1.427  0.2223 -0.3364  0.3579
 5567SOL     OW22033   1.389   3.672   3.691  0.5675  0.1592  0.4263
 5567SOL    HW222034   1.296   3.685   3.675  0.9386  0.9466 -1.3115
 5567SOL    HW322035   1.394   3.591   3.741 -1.0484  0.1987  0.7002
 5567SOL    MW422036   1.378   3.663   3.696  0.4033  0.2683  0.2332
 5568SOL     OW22037   4.596   2.616   6.219 -0.9432 -0.0468  0.1352
 5568SOL    HW222038   4.650   2.584   6.291 -0.8466  0.1415  0.1480
 5568SOL    HW322039   4.519   2.654   6.262  0.2403  2.3060  0.3129
 5568SOL    MW422040   4.593   2.617   6.234 -0.7743  0.2885  0.1603
 5569SOL     OW22041   3.571   1.355   1.189  0.2928 -0.4778 -0.2252
 5569SOL    HW222042   3.546   1.436   1.232 -0.5870 -1.3220  0.9250
 5569SOL    HW322043   3.655   1.374   1.148 -0.7935  1.5841 -1.6632
 5569SOL    MW422044   3.579   1.368   1.189  0.0334 -0.3172 -0.2631
 5570SOL     OW22045   6.170   0.908   3.354 -0.3439  0.1823 -0.8448
 5570SOL    HW222046   6.243   0.890   3.295 -0.8197  0.2438 -1.4689
 5570SOL    HW322047   6.158   0.826   3.402  1.4775  0.8091  0.8118
 5570SOL    MW422048   6.178   0.895   3.353 -0.1663  0.2731 -0.7086
 5571SOL     OW22049   2.536   5.826   2.555  0.0676 -0.3803 -0.0391
 5571SOL    HW222050   2.614   5.853   2.603 -0.8420  0.1055  1.2452
 5571SOL    HW322051   2.476   5.900   2.565 -0.3446 -0.4944 -1.5135
 5571SOL    MW422052   2.538   5.839   2.563 -0.1068 -0.3312 -0.0642
 5572SOL     OW22053   3.294   3.547   1.852 -0.1116 -0.0388  0.5560
 5572SOL    HW222054   3.213   3.512   1.815 -0.3393  0.0330  0.9833
 5572SOL    HW322055   3.316   3.620   1.794 -0.0613 -0.3895  0.1267
 5572SOL    MW422056   3.286   3.552   1.840 -0.1350 -0.0756  0.5558
 5573SOL     OW22057   5.098   2.000   2.561 -0.2623  0.2483 -0.0135
 5573SOL    HW222058   5.038   1.951   2.504 -1.3855  0.2799  1.1037
 5573SOL    HW322059   5.046   2.073   2.592  0.7171  0.9060  0.1215
 5573SOL    MW422060   5.083   2.003   2.558 -0.2812  0.3393  0.1517
 5574SOL     OW22061   0.255   2.154   3.221  0.1312 -0.2978  0.3057
 5574SOL    HW222062   0.291   2.219   3.161  1.2343 -0.3937  0.8455
 5574SOL    HW322063   0.321   2.086   3.226  0.3704  0.0227  2.1196
 5574SOL    MW422064   0.268   2.154   3.214  0.3083 -0.2682  0.6163
 5575SOL     OW22065   4.272   5.730   0.824  0.3054 -0.1234  0.2439
 5575SOL    HW222066   4.319   5.650   0.846  0.6942 -0.2843 -1.0457
 5575SOL    HW322067   4.296   5.792   0.892 -0.1326 -1.1440  1.3547
 5575SOL    MW422068   4.281   5.728   0.836  0.2989 -0.2793  0.2203
 5576SOL     OW22069   5.410   1.294   5.466 -0.3522 -0.0944 -0.0426
 5576SOL    HW222070   5.492   1.301   5.416 -1.8836  0.1523 -2.7044
 5576SOL    HW322071   5.367   1.378   5.453 -1.8725 -0.8877 -0.2862
 5576SOL    MW422072   5.415   1.306   5.458 -0.7549 -0.1665 -0.4260
 5577SOL     OW22073   0.914   6.003   0.897 -0.0088 -0.0802 -0.7995
 5577SOL    HW222074   0.884   5.919   0.863  1.4550 -0.4515 -1.2542
 5577SOL    HW322075   0.938   6.054   0.819 -0.8524  0.7743 -0.5302
 5577SOL    MW422076   0.913   5.999   0.882  0.0731 -0.0164 -0.8240
 5578SOL     OW22077   0.065   0.590   3.269 -0.5769  0.5250 -0.7047
 5578SOL    HW222078   0.016   0.669   3.248 -2.4335 -0.8168 -1.8366
 5578SOL    HW322079   0.003   0.537   3.320  1.1996  0.4586  1.5427
 5578SOL    MW422080   0.050   0.593   3.273 -0.5875  0.3392 -0.5575
 5579SOL     OW22081   1.078   1.599   5.043 -0.0253  0.1004 -0.0179
 5579SOL    HW222082   1.040   1.682   5.071 -1.9246 -0.3604 -1.0171
 5579SOL    HW322083   1.024   1.533   5.087 -1.3034 -0.5919 -2.4240
 5579SOL    MW422084   1.066   1.601   5.053 -0.4445 -0.0517 -0.4672
 5580SOL     OW22085   2.831   5.881   0.971  0.1809 -0.0584  0.2007
 5580SOL    HW222086   2.744   5.921   0.975  0.5780  1.0120 -1.0417
 5580SOL    HW322087   2.876   5.930   0.903  2.1875  0.2430  1.6598
 5580SOL    MW422088   2.825   5.893   0.962  0.4980  0.1226  0.2293
 5581SOL     OW22089   5.983   6.088   3.298 -0.0146 -0.2334 -0.3559
 5581SOL    HW222090   5.891   6.108   3.278 -0.3685 -1.6403 -0.2503
 5581SOL    HW322091   6.010   6.029   3.228  0.6205 -0.3303 -0.0360
 5581SOL    MW422092   5.974   6.083   3.286  0.0225 -0.4318 -0.2997
 5582SOL     OW22093   5.341   5.931   5.343  0.7858  0.1411  0.0429
 5582SOL    HW222094   5.275   5.979   5.293 -2.5894 -3.4572  0.6452
 5582SOL    HW322095   5.341   5.843   5.306  0.9393 -1.6315  3.8034
 5582SOL    MW422096   5.333   5.926   5.331  0.3607 -0.5675  0.6185
 5583SOL     OW22097   5.370   4.202   6.354  0.2946  0.2862  0.0933
 5583SOL    HW222098   5.314   4.133   6.317  1.3119 -1.5312  1.7324
 5583SOL    HW322099   5.314   4.247   6.417 -0.1448  0.4186 -0.3862
 5583SOL    MW422100   5.355   4.199   6.358  0.3709  0.0639  0.2463
 5584SOL     OW22101   3.161   0.349   3.926  0.0058  0.1088 -0.2905
 5584SOL    HW222102   3.217   0.388   3.860  0.5457 -1.2227 -0.6435
 5584SOL    HW322103   3.073   0.381   3.905  0.3726  0.8183 -0.7824
 5584SOL    MW422104   3.157   0.359   3.915  0.1254  0.0267 -0.4020
 5585SOL     OW22105   3.222   4.382   4.529 -0.5914 -0.1038 -0.2873
 5585SOL    HW222106   3.285   4.454   4.531 -0.2053 -0.4245 -0.6901
 5585SOL    HW322107   3.276   4.303   4.528 -1.0061 -0.4575  1.3681
 5585SOL    MW422108   3.237   4.381   4.529 -0.5951 -0.1928 -0.1220
 5586SOL     OW22109   0.250   2.216   4.710 -0.3385 -0.5402 -0.0308
 5586SOL    HW222110   0.242   2.123   4.732  0.8526 -0.6611 -0.0662
 5586SOL    HW322111   0.294   2.255   4.786 -1.9756  0.2692  0.5686
 5586SOL    MW422112   0.255   2.209   4.723 -0.3974 -0.4493  0.0436
 5587SOL     OW22113   3.383   1.610   0.300  0.4114  0.3739 -0.8877
 5587SOL    HW222114   3.311   1.614   0.363  0.5467  0.7329 -0.7528
 5587SOL    HW322115   3.356   1.543   0.237  0.3193 -0.0550 -0.3945
 5587SOL    MW422116   3.370   1.602   0.300  0.4171  0.3647 -0.8048
 5588SOL     OW22117   5.876   3.587   5.234  0.0789  0.0223 -0.2922
 5588SOL    HW222118   5.962   3.620   5.210  0.1775  0.2522  0.3645
 5588SOL    HW322119   5.839   3.654   5.290 -0.9340  0.3726 -1.3464
 5588SOL    MW422120   5.883   3.600   5.238 -0.0417  0.0988 -0.3446
 5589SOL     OW22121   2.882   1.678   5.461  0.1054 -0.3282 -0.1366
 5589SOL    HW222122   2.799   1.630   5.461  1.4346 -2.8091 -1.0944
 5589SOL    HW322123   2.946   1.616   5.496  1.6710  1.3666  0.2074
 5589SOL    MW422124   2.880   1.664   5.466  0.4873 -0.4319 -0.2176
 5590SOL     OW22125   6.144   0.491   4.682 -0.1179 -0.5275 -0.2091
 5590SOL    HW222126   6.067   0.540   4.709 -0.7783 -1.0697 -1.0550
 5590SOL    HW322127   6.125   0.400   4.706  0.3833 -0.6223 -0.1582
 5590SOL    MW422128   6.131   0.485   4.689 -0.1389 -0.6116 -0.3140
 5591SOL     OW22129   2.245   5.225   3.216 -0.3624 -0.6349  0.2308
 5591SOL    HW222130   2.261   5.184   3.131 -0.1633 -1.9171  0.8607
 5591SOL    HW322131   2.156   5.260   3.209 -0.7175 -1.5717 -0.2060
 5591SOL    MW422132   2.235   5.224   3.204 -0.3830 -0.9277  0.2563
 5592SOL     OW22133   1.632   6.055   4.067  0.2866  0.2056 -0.4061
 5592SOL    HW222134   1.574   5.979   4.075 -0.0666  0.5820  0.9128
 5592SOL    HW322135   1.718   6.017   4.048  0.1494 -0.5628  0.4081
 5592SOL    MW422136   1.636   6.040   4.066  0.2219  0.1539 -0.1246
 5593SOL     OW22137   2.147   0.052   2.574  0.0346  0.2473 -0.3080
 5593SOL    HW222138   2.166   0.024   2.664 -0.5275  1.9774  0.3883
 5593SOL    HW322139   2.187   0.138   2.566 -0.8675  0.5996 -1.3493
 5593SOL    MW422140   2.155   0.059   2.585 -0.1586  0.5221 -0.3535
 5594SOL     OW22141   3.080   1.008   4.142  0.4035 -0.4421  0.2698
 5594SOL    HW222142   3.099   0.951   4.068  0.1886  0.0595 -0.1742
 5594SOL    HW322143   2.988   1.033   4.131  0.8315  1.0075 -0.2630
 5594SOL    MW422144   3.071   1.004   4.131  0.4316 -0.1846  0.1409
 5595SOL     OW22145   4.579   3.721   0.677 -0.3154 -0.8624  0.0515
 5595SOL    HW222146   4.666   3.751   0.651 -0.3012 -0.6980  0.2803
 5595SOL    HW322147   4.519   3.777   0.629 -0.3049  1.3739  2.4339
 5595SOL    MW422148   4.583   3.732   0.667 -0.3121 -0.5457  0.3960
 5596SOL     OW22149   2.843   0.231   2.582  0.1871  0.0391 -0.1089
 5596SOL    HW222150   2.815   0.153   2.631 -1.9274 -0.6472 -2.2202
 5596SOL    HW322151   2.785   0.301   2.613 -0.5765 -0.1976 -0.9512
 5596SOL    MW422152   2.831   0.230   2.592 -0.1926 -0.0827 -0.4986
 5597SOL     OW22153   3.844   0.649   4.501  0.0683  0.2088 -0.1465
 5597SOL    HW222154   3.786   0.584   4.462  1.6396 -0.9230 -0.6477
 5597SOL    HW322155   3.887   0.604   4.573  2.4219  0.1083 -1.5172
 5597SOL    MW422156   3.842   0.635   4.505  0.5861  0.0462 -0.3935
 5598SOL     OW22157   3.765   4.662   3.754 -0.1117  0.5470  0.1971
 5598SOL    HW222158   3.827   4.677   3.825 -0.1903 -0.5070  0.5038
 5598SOL    HW322159   3.682   4.644   3.798  0.0117 -0.8849 -0.1161
 5598SOL    MW422160   3.763   4.662   3.769 -0.1058  0.2190  0.1962
 5599SOL     OW22161   0.225   3.559   5.881 -0.4892 -0.0482  0.2802
 5599SOL    HW222162   0.298   3.554   5.819  1.2304  1.6874  2.0284
 5599SOL    HW322163   0.168   3.627   5.844 -0.6294 -0.5553 -0.4680
 5599SOL    MW422164   0.227   3.568   5.868 -0.2808  0.1139  0.4121
 5600SOL     OW22165   6.198   6.167   6.218 -0.2055 -0.1715 -0.5423
 5600SOL    HW222166   6.234   6.166   6.129  2.1633 -0.1019  0.3354
 5600SOL    HW322167   6.275   6.181   6.274 -1.1035 -3.3192  1.7388
 5600SOL    MW422168   6.213   6.169   6.214 -0.0115 -0.5776 -0.1255
 5601SOL     OW22169   0.681   0.358   2.642  0.3500 -0.0709  0.9264
 5601SOL    HW222170   0.587   0.364   2.654  0.1538 -0.7832 -0.1228
 5601SOL    HW322171   0.698   0.408   2.561  0.7397 -0.6798  0.6255
 5601SOL    MW422172   0.671   0.366   2.633  0.3755 -0.2452  0.7483
 5602SOL     OW22173   0.302   2.828   1.334  0.0665 -0.0210  0.0085
 5602SOL    HW222174   0.223   2.793   1.373 -0.4383  0.7987 -0.2476
 5602SOL    HW322175   0.283   2.834   1.241  1.0675 -1.4432 -0.3172
 5602SOL    MW422176   0.289   2.824   1.327  0.1320 -0.1005 -0.0683
 5603SOL     OW22177   0.149   1.232   4.660  0.2481  0.0303 -0.9147
 5603SOL    HW222178   0.234   1.210   4.622  0.2863 -0.0606 -0.7775
 5603SOL    HW322179   0.085   1.190   4.603  0.2357  1.0743 -1.7050
 5603SOL    MW422180   0.152   1.224   4.648  0.2515  0.1561 -1.0008
 5604SOL     OW22181   0.054   2.043   1.736 -0.1894 -0.4593 -0.7574
 5604SOL    HW222182   0.079   2.067   1.646 -0.3988  1.3280 -0.3692
 5604SOL    HW322183   0.127   1.989   1.767  0.7640  0.4202 -1.3970
 5604SOL    MW422184   0.067   2.039   1.728 -0.0912 -0.1075 -0.7906
 5605SOL     OW22185   1.929   4.102   0.649 -0.3979 -0.4675 -0.2413
 5605SOL    HW222186   1.841   4.118   0.683 -0.3076  0.4639 -0.4303
 5605SOL    HW322187   1.944   4.172   0.585  1.5657  1.1490  1.8081
 5605SOL    MW422188   1.920   4.113   0.645 -0.1269 -0.1313  0.0041
 5606SOL     OW22189   2.292   5.050   5.910  0.3050  0.0778 -0.1260
 5606SOL    HW222190   2.359   5.111   5.878  0.0938  0.3955  0.0213
 5606SOL    HW322191   2.341   4.973   5.938  0.6268  0.3479  0.0779
 5606SOL    MW422192   2.307   5.048   5.910  0.3196  0.1554 -0.0796
 5607SOL     OW22193   0.681   2.419   2.765  0.2152 -0.0121  0.1230
 5607SOL    HW222194   0.702   2.418   2.859  0.6658  2.0024  0.0735
 5607SOL    HW322195   0.631   2.499   2.752  0.2155 -0.2334 -1.3896
 5607SOL    MW422196   0.677   2.429   2.776  0.2747  0.2245 -0.0831
 5608SOL     OW22197   0.479   1.997   3.240  0.3469 -0.1376 -0.0383
 5608SOL    HW222198   0.470   1.962   3.152  1.1662  0.1173 -0.2316
 5608SOL    HW322199   0.520   2.083   3.229 -1.2158  0.7284  0.4630
 5608SOL    MW422200   0.483   2.004   3.227  0.2488  0.0103  0.0024
 5609SOL     OW22201   0.163   3.026   5.169  0.7816 -0.0490 -0.4109
 5609SOL    HW222202   0.133   3.041   5.079 -1.2545 -1.4565 -0.0492
 5609SOL    HW322203   0.154   2.932   5.181  1.2885  0.0861  1.1904
 5609SOL    MW422204   0.158   3.016   5.158  0.5798 -0.2169 -0.1519
 5610SOL     OW22205   0.837   5.504   3.113  0.0786  0.5208 -0.2437
 5610SOL    HW222206   0.823   5.468   3.201  0.8986  0.6942 -0.0285
 5610SOL    HW322207   0.755   5.487   3.067 -0.6861  1.2022  0.8181
 5610SOL    MW422208   0.824   5.497   3.119  0.0859  0.6336 -0.0752
 5611SOL     OW22209   2.321   2.103   6.431 -0.6272  0.6195  0.3726
 5611SOL    HW222210   2.335   2.022   6.480 -1.3166  0.0827 -0.2893
 5611SOL    HW322211   2.227   2.120   6.438 -0.3669  1.8725  1.2544
 5611SOL    MW422212   2.310   2.095   6.438 -0.6838  0.7140  0.4016
 5612SOL     OW22213   5.205   5.795   0.519 -0.3180  0.1852  0.1024
 5612SOL    HW222214   5.250   5.818   0.438 -0.9056  2.1923  0.2837
 5612SOL    HW322215   5.115   5.778   0.491 -0.3760  0.2529  0.2495
 5612SOL    MW422216   5.199   5.796   0.504 -0.4032  0.4590  0.1457
 5613SOL     OW22217   6.040   3.251   2.598  0.1332  0.3261  0.2019
 5613SOL    HW222218   6.024   3.230   2.690  1.6799 -0.4715  0.3255
 5613SOL    HW322219   5.972   3.203   2.550  0.1411 -0.3563  0.8569
 5613SOL    MW422220   6.029   3.242   2.603  0.3383  0.1309  0.3046
 5614SOL     OW22221   4.607   0.121   1.152 -0.2070  0.5602  0.4832
 5614SOL    HW222222   4.540   0.079   1.098  0.5872 -0.7902  0.5094
 5614SOL    HW322223   4.561   0.192   1.197 -2.1097 -1.4549  1.9457
 5614SOL    MW422224   4.592   0.125   1.151 -0.3532  0.1162  0.6796
 5615SOL     OW22225   2.437   4.960   4.187 -0.7220 -0.4618  0.1721
 5615SOL    HW222226   2.341   4.955   4.184 -1.0261  3.1625 -0.6499
 5615SOL    HW322227   2.457   4.985   4.277 -0.6445 -0.2778  0.1046
 5615SOL    MW422228   2.427   4.962   4.198 -0.7519  0.0407  0.0547
 5616SOL     OW22229   4.766   1.877   3.919 -0.0611  0.1527 -0.1122
 5616SOL    HW222230   4.827   1.822   3.870 -1.7562 -0.8317 -1.2235
 5616SOL    HW322231   4.689   1.821   3.932 -1.3929  1.8850 -0.2553
 5616SOL    MW422232   4.764   1.862   3.914 -0.4604  0.2514 -0.2777
 5617SOL     OW22233   3.432   5.945   3.903 -0.3780  0.1395 -0.1265
 5617SOL    HW222234   3.344   5.982   3.910 -2.0277 -2.6900 -3.1077
 5617SOL    HW322235   3.452   5.949   3.809  0.9689 -2.7496 -0.0592
 5617SOL    MW422236   3.423   5.951   3.891 -0.4179 -0.6150 -0.5109
 5618SOL     OW22237   4.678   4.846   4.653 -0.1553  0.3372  0.5444
 5618SOL    HW222238   4.674   4.882   4.741  0.9479  0.8567  0.3880
 5618SOL    HW322239   4.587   4.823   4.632 -0.2554 -1.1517  2.3585
 5618SOL    MW422240   4.665   4.848   4.662 -0.0230  0.2093  0.7631
 5619SOL     OW22241   0.689   2.981   3.410 -0.1731 -0.3583  0.0801
 5619SOL    HW222242   0.726   2.894   3.395 -2.9637 -1.6912  0.4347
 5619SOL    HW322243   0.721   3.006   3.497 -0.4245 -1.6275  0.5477
 5619SOL    MW422244   0.698   2.973   3.420 -0.5745 -0.7016  0.1886
 5620SOL     OW22245   3.771   2.636   2.097 -0.2056  0.4220 -0.2457
 5620SOL    HW222246   3.805   2.586   2.023 -0.6742 -1.9683  1.0560
 5620SOL    HW322247   3.692   2.589   2.123 -0.7557  1.9456  1.0030
 5620SOL    MW422248   3.765   2.623   2.091 -0.3400  0.3076  0.0908
 5621SOL     OW22249   4.545   6.089   6.291  0.0672 -0.4457  0.1278
 5621SOL    HW222250   4.582   6.160   6.344  0.6536 -0.7631  0.1537
 5621SOL    HW322251   4.604   6.081   6.216  0.6141 -1.5935  0.6517
 5621SOL    MW422252   4.558   6.097   6.288  0.2167 -0.6390  0.2003
 5622SOL     OW22253   1.919   5.380   2.909 -0.6384  0.1297 -0.2146
 5622SOL    HW222254   1.859   5.451   2.931  0.1196  0.8792 -0.4920
 5622SOL    HW322255   1.863   5.308   2.879 -1.4196  0.5829  0.1546
 5622SOL    MW422256   1.904   5.380   2.908 -0.6415  0.2884 -0.2025
 5623SOL     OW22257   3.112   0.256   1.233 -0.1919 -0.0532  0.0242
 5623SOL    HW222258   3.062   0.305   1.167  1.2902 -0.8228 -1.7669
 5623SOL    HW322259   3.121   0.317   1.306 -0.1848  1.6262 -1.2964
 5623SOL    MW422260   3.107   0.271   1.234  0.0046  0.0668 -0.3864
 5624SOL     OW22261   0.748   5.194   2.498  0.0117  0.0362  0.2783
 5624SOL    HW222262   0.699   5.138   2.558 -0.3541 -0.2048 -0.2402
 5624SOL    HW322263   0.838   5.159   2.501  0.1062  0.3431  1.0616
 5624SOL    MW422264   0.754   5.182   2.506 -0.0241  0.0449  0.3133
 5625SOL     OW22265   1.231   1.177   6.320  0.7586 -0.0418  0.3929
 5625SOL    HW222266   1.213   1.125   6.398  0.6346  0.4345  0.6852
 5625SOL    HW322267   1.254   1.264   6.354 -1.4621  0.8248 -0.1385
 5625SOL    MW422268   1.232   1.182   6.335  0.4492  0.1354  0.3614
 5626SOL     OW22269   0.471   3.185   0.178 -0.3223  0.0019  0.1662
 5626SOL    HW222270   0.462   3.108   0.235  0.3990 -0.8557 -0.8531
 5626SOL    HW322271   0.421   3.164   0.100  0.2635  0.3669 -0.3230
 5626SOL    MW422272   0.463   3.172   0.176 -0.1498 -0.0631 -0.0328
 5627SOL     OW22273   3.267   1.099   6.044 -0.2692  0.1828 -0.0432
 5627SOL    HW222274   3.345   1.123   6.095 -0.7970  3.2002 -0.4461
 5627SOL    HW322275   3.294   1.105   5.953  0.5611 -4.8220 -0.3652
 5627SOL    MW422276   3.281   1.103   6.039 -0.2293 -0.0794 -0.1389
 5628SOL     OW22277   1.064   3.688   1.805  0.1460 -0.1145 -0.2682
 5628SOL    HW222278   0.987   3.633   1.822 -0.4194  0.5039 -0.8179
 5628SOL    HW322279   1.070   3.745   1.882  1.0951 -1.3114  0.6035
 5628SOL    MW422280   1.055   3.688   1.818  0.1966 -0.1908 -0.2257
 5629SOL     OW22281   1.889   6.085   5.823  0.1838 -0.0897 -0.2253
 5629SOL    HW222282   1.852   6.085   5.735  1.4899  0.8421 -0.8100
 5629SOL    HW322283   1.967   6.029   5.817  1.4740  1.6208 -0.2476
 5629SOL    MW422284   1.895   6.078   5.811  0.5264  0.2590 -0.3054
 5630SOL     OW22285   1.412   2.912   6.235  0.2872  0.0266 -0.2056
 5630SOL    HW222286   1.327   2.869   6.239  0.5996 -0.5144  1.3491
 5630SOL    HW322287   1.457   2.869   6.162 -0.5896 -0.0028 -0.7444
 5630SOL    MW422288   1.407   2.901   6.226  0.2128 -0.0486 -0.0716
 5631SOL     OW22289   3.622   0.656   3.926  0.8360  0.2747  0.1267
 5631SOL    HW222290   3.682   0.582   3.921 -0.3567 -0.6881 -0.2385
 5631SOL    HW322291   3.584   0.650   4.014  1.2069  0.8379  0.3311
 5631SOL    MW422292   3.625   0.646   3.937  0.7275  0.2220  0.1055
 5632SOL     OW22293   2.816   4.905   1.996 -0.3835 -0.7796 -0.1864
 5632SOL    HW222294   2.909   4.927   2.000 -0.1629 -1.6637 -0.1829
 5632SOL    HW322295   2.814   4.817   1.958 -1.2746 -0.4239 -1.0167
 5632SOL    MW422296   2.828   4.896   1.991 -0.4719 -0.8493 -0.2955
 5633SOL     OW22297   4.745   4.690   6.192 -0.1257  0.0042 -0.0229
 5633SOL    HW222298   4.682   4.728   6.130 -1.2532 -0.7698  0.6054
 5633SOL    HW322299   4.694   4.676   6.272  0.8585 -0.6411  0.5108
 5633SOL    MW422300   4.730   4.693   6.195 -0.1446 -0.1831  0.1304
 5634SOL     OW22301   2.828   5.344   2.932 -0.2693  0.3621  0.0656
 5634SOL    HW222302   2.905   5.375   2.883  0.0714  0.6746  0.7891
 5634SOL    HW322303   2.800   5.420   2.982  0.1235 -0.2767  1.2894
 5634SOL    MW422304   2.835   5.358   2.932 -0.1726  0.3190  0.3225
 5635SOL     OW22305   1.374   0.851   4.554 -0.0673  0.1204  0.0335
 5635SOL    HW222306   1.334   0.937   4.567  0.7388  0.3828  0.9112
 5635SOL    HW322307   1.382   0.842   4.459  0.4621  1.3169 -0.0475
 5635SOL    MW422308   1.370   0.861   4.543  0.1089  0.3129  0.1386
 5636SOL     OW22309   1.314   0.508   3.387  0.1082 -0.4669 -0.1675
 5636SOL    HW222310   1.234   0.469   3.422  0.6701  0.0357  1.8389
 5636SOL    HW322311   1.378   0.498   3.457  0.9805  1.7628 -0.5381
 5636SOL    MW422312   1.312   0.502   3.401  0.2975 -0.1064  0.0483
 5637SOL     OW22313   4.624   3.631   5.424  0.3097  0.2200  0.6412
 5637SOL    HW222314   4.557   3.675   5.371  0.2976 -0.0959  0.3896
 5637SOL    HW322315   4.677   3.702   5.460  1.1094  0.4191 -0.8347
 5637SOL    MW422316   4.622   3.646   5.422  0.4136  0.2046  0.4133
 5638SOL     OW22317   1.054   2.394   5.383 -0.0963  0.3053  0.0312
 5638SOL    HW222318   1.122   2.330   5.361 -0.7099 -0.4073  0.2029
 5638SOL    HW322319   1.007   2.355   5.456 -1.2582  0.4070 -0.6487
 5638SOL    MW422320   1.057   2.380   5.390 -0.3305  0.2247 -0.0359
 5639SOL     OW22321   1.634   4.699   0.745  0.0353 -1.0620 -0.6303
 5639SOL    HW222322   1.566   4.757   0.711  0.2852  0.3306  1.0784
 5639SOL    HW322323   1.716   4.734   0.709  0.4598  1.2754  2.1890
 5639SOL    MW422324   1.636   4.712   0.736  0.1243 -0.5699 -0.0329
 5640SOL     OW22325   5.548   2.815   1.183 -0.6732 -0.2470 -0.3682
 5640SOL    HW222326   5.490   2.780   1.250  0.6334 -1.1251  0.3414
 5640SOL    HW322327   5.636   2.803   1.218 -0.0800  2.0840 -0.9329
 5640SOL    MW422328   5.552   2.809   1.196 -0.4226 -0.0553 -0.3491
 5641SOL     OW22329   1.910   5.360   0.852  0.4960 -0.1759  0.3165
 5641SOL    HW222330   1.897   5.451   0.825  1.0633 -0.5291 -1.2688
 5641SOL    HW322331   1.997   5.337   0.820  0.4088 -1.2432  0.7826
 5641SOL    MW422332   1.920   5.369   0.844  0.5593 -0.3633  0.1688
 5642SOL     OW22333   3.641   0.183   4.565 -0.1968  0.0678  0.0518
 5642SOL    HW222334   3.736   0.180   4.577 -0.2699  1.3709  1.2433
 5642SOL    HW322335   3.610   0.242   4.634 -1.7086  0.8922 -1.2687
 5642SOL    MW422336   3.649   0.190   4.576 -0.4059  0.3485  0.0348
 5643SOL     OW22337   1.384   0.895   5.408  0.3581  0.3162 -0.2889
 5643SOL    HW222338   1.434   0.968   5.444 -0.0302  0.8915 -0.8919
 5643SOL    HW322339   1.419   0.882   5.320  1.3026 -1.0827  0.2495
 5643SOL    MW422340   1.395   0.903   5.401  0.4315  0.2075 -0.2974
 5644SOL     OW22341   3.646   5.765   5.446 -0.3626  0.2583  0.2769
 5644SOL    HW222342   3.739   5.750   5.433 -0.3299 -0.6540  1.3898
 5644SOL    HW322343   3.609   5.767   5.358  0.7624  1.1305 -0.1990
 5644SOL    MW422344   3.653   5.764   5.433 -0.2099  0.2530  0.3609
 5645SOL     OW22345   5.286   4.935   0.539 -0.0388  0.0041 -0.9108
 5645SOL    HW222346   5.378   4.932   0.564 -0.1980  0.9663 -0.1432
 5645SOL    HW322347   5.248   5.004   0.593 -1.3920 -0.8944 -0.6295
 5645SOL    MW422348   5.293   4.943   0.549 -0.2384  0.0125 -0.7724
 5646SOL     OW22349   5.202   2.577   0.977 -0.0275  0.4139  0.2198
 5646SOL    HW222350   5.274   2.629   0.942  0.0923 -0.6570 -1.2210
 5646SOL    HW322351   5.140   2.642   1.010  0.2154  1.4935 -1.3267
 5646SOL    MW422352   5.203   2.592   0.976  0.0204  0.4150 -0.1743
 5647SOL     OW22353   1.806   5.107   3.226  0.1773 -0.0593  0.8169
 5647SOL    HW222354   1.817   5.063   3.310  1.9162 -0.2386  0.5303
 5647SOL    HW322355   1.878   5.171   3.223 -0.4984  0.6906 -0.0814
 5647SOL    MW422356   1.817   5.110   3.236  0.3176  0.0160  0.6606
 5648SOL     OW22357   5.192   5.271   4.873 -0.0306 -0.5931  0.1168
 5648SOL    HW222358   5.205   5.250   4.965  0.6622 -0.2542  0.0995
 5648SOL    HW322359   5.101   5.301   4.868 -0.0341 -0.4936  0.7119
 5648SOL    MW422360   5.182   5.272   4.884  0.0603 -0.5352  0.1931
 5649SOL     OW22361   2.347   2.055   5.801  0.2079  0.1137 -0.0715
 5649SOL    HW222362   2.308   1.992   5.862 -1.4985  0.3092 -0.8907
 5649SOL    HW322363   2.429   2.082   5.843  0.8200 -2.3567  0.4686
 5649SOL    MW422364   2.353   2.051   5.815  0.0635 -0.1865 -0.1084
 5650SOL     OW22365   5.897   0.229   5.845  0.3556 -0.3612  0.1475
 5650SOL    HW222366   5.882   0.178   5.765 -0.2203 -2.5049  1.5278
 5650SOL    HW322367   5.905   0.319   5.815  1.5318 -1.2296 -2.4629
 5650SOL    MW422368   5.896   0.234   5.830  0.4348 -0.7586 -0.0148
 5651SOL     OW22369   6.030   0.902   0.897  0.2445 -0.1155  0.7953
 5651SOL    HW222370   6.015   0.811   0.921 -0.8144 -0.4170 -0.8219
 5651SOL    HW322371   5.944   0.944   0.909  0.3214  0.2802  0.0198
 5651SOL    MW422372   6.016   0.896   0.902  0.1149 -0.1030  0.4796
 5652SOL     OW22373   5.917   1.066   1.257 -0.2109  0.6823  0.5094
 5652SOL    HW222374   5.845   1.091   1.199  0.0199  1.7497  0.6757
 5652SOL    HW322375   5.996   1.082   1.206 -0.0139  1.4491  1.0394
 5652SOL    MW422376   5.918   1.071   1.242 -0.1545  0.9243  0.6013
 5653SOL     OW22377   0.718   1.929   0.900  0.3384  0.1154  0.3599
 5653SOL    HW222378   0.748   1.938   0.990 -1.0854 -2.7182  1.2344
 5653SOL    HW322379   0.767   1.855   0.865 -2.1739 -1.6418  0.3262
 5653SOL    MW422380   0.728   1.921   0.907 -0.1809 -0.4903  0.4708
 5654SOL     OW22381   3.902   2.967   3.585  0.5529 -0.2132  0.0608
 5654SOL    HW222382   3.850   3.000   3.659  2.0885 -0.6034  1.3598
 5654SOL    HW322383   3.863   3.009   3.509  0.6988  2.5370  1.3522
 5654SOL    MW422384   3.890   2.977   3.585  0.7748  0.0981  0.4026
 5655SOL     OW22385   0.097   6.227   5.074  0.0532 -0.5027  0.2374
 5655SOL    HW222386   0.087   6.318   5.045  0.1165 -0.6137 -0.1442
 5655SOL    HW322387   0.133   6.233   5.162  1.2581 -0.1746 -0.2588
 5655SOL    MW422388   0.100   6.239   5.081  0.2205 -0.4740  0.1216
 5656SOL     OW22389   5.842   5.734   3.815 -0.0562 -0.2463  0.2595
 5656SOL    HW222390   5.766   5.709   3.762 -0.2566 -1.0743  0.9106
 5656SOL    HW322391   5.908   5.667   3.795  0.2662  0.0845  0.2060
 5656SOL    MW422392   5.841   5.722   3.805 -0.0401 -0.3119  0.3383
 5657SOL     OW22393   0.794   4.394   1.566  0.3138 -0.7233  0.2949
 5657SOL    HW222394   0.887   4.378   1.583  0.3545 -2.0089 -0.9868
 5657SOL    HW322395   0.748   4.331   1.622  0.1243  0.6429  1.7622
 5657SOL    MW422396   0.800   4.383   1.576  0.2942 -0.7127  0.3194
 5658SOL     OW22397   1.285   5.046   4.037 -0.0217 -0.5122 -0.2348
 5658SOL    HW222398   1.353   5.108   4.062  0.0792 -0.9918  0.7208
 5658SOL    HW322399   1.212   5.065   4.096 -0.7771  0.0746 -1.3268
 5658SOL    MW422400   1.284   5.056   4.048 -0.1081 -0.4981 -0.2528
 5659SOL     OW22401   3.677   3.890   2.693  0.3273 -0.3584 -0.0316
 5659SOL    HW222402   3.737   3.820   2.720  2.3977  0.9945 -0.8655
 5659SOL    HW322403   3.721   3.971   2.721 -0.6726  0.7397 -1.4814
 5659SOL    MW422404   3.691   3.892   2.700  0.4686 -0.0350 -0.3329
 5660SOL     OW22405   4.892   6.321   5.500  0.1451  0.7676  0.6895
 5660SOL    HW222406   4.824   6.389   5.502 -0.1829  0.4554  0.3985
 5660SOL    HW322407   4.843   6.239   5.495  0.5481  0.5319  0.5909
 5660SOL    MW422408   4.876   6.320   5.500  0.1550  0.6953  0.6381
 5661SOL     OW22409   6.147   1.764   3.503 -0.4101 -0.2187 -0.0202
 5661SOL    HW222410   6.201   1.775   3.582 -0.2675 -2.3671  0.2350
 5661SOL    HW322411   6.149   1.850   3.461  0.2565  0.7335  1.8413
 5661SOL    MW422412   6.155   1.777   3.508 -0.3034 -0.3765  0.2591
 5662SOL     OW22413   0.828   2.607   5.001  0.1079  0.3496  0.4915
 5662SOL    HW222414   0.854   2.539   5.063  2.8896  1.1812  0.3513
 5662SOL    HW322415   0.902   2.614   4.941 -0.9787  2.0940 -0.7323
 5662SOL    MW422416   0.841   2.599   5.001  0.3316  0.6895  0.3116
 5663SOL     OW22417   3.116   5.116   3.874 -0.2989  0.0326  0.1952
 5663SOL    HW222418   3.049   5.121   3.807 -0.1638 -2.4300 -0.2131
 5663SOL    HW322419   3.197   5.139   3.829 -0.3464 -0.6722 -0.2553
 5663SOL    MW422420   3.118   5.120   3.859 -0.2873 -0.3853  0.0819
 5664SOL     OW22421   3.388   2.286   2.587 -0.2743  0.0638 -0.1336
 5664SOL    HW222422   3.315   2.282   2.524 -0.2954  1.4727 -0.2255
 5664SOL    HW322423   3.414   2.195   2.599 -1.1654 -0.3471 -1.1469
 5664SOL    MW422424   3.382   2.273   2.580 -0.3947  0.1955 -0.2794
 5665SOL     OW22425   5.623   2.499   6.396  0.2729 -0.5698 -0.7342
 5665SOL    HW222426   5.655   2.506   6.486 -0.1432 -2.5833 -0.3755
 5665SOL    HW322427   5.600   2.589   6.371  3.2729  0.5139  0.0415
 5665SOL    MW422428   5.624   2.512   6.404  0.6138 -0.6925 -0.5845
 5666SOL     OW22429   1.572   1.795   5.031  0.0197  0.4258 -0.1838
 5666SOL    HW222430   1.615   1.810   4.946  0.1053  0.0225 -0.2147
 5666SOL    HW322431   1.557   1.883   5.066  1.4395  0.5735  0.1177
 5666SOL    MW422432   1.576   1.809   5.024  0.2183  0.3921 -0.1481
 5667SOL     OW22433   5.273   5.792   4.156  0.1270  0.0733 -0.4663
 5667SOL    HW222434   5.207   5.859   4.175 -0.8841 -1.2679  1.1111
 5667SOL    HW322435   5.323   5.784   4.237  0.5672 -0.7090 -0.8040
 5667SOL    MW422436   5.271   5.800   4.169  0.0517 -0.2069 -0.3028
 5668SOL     OW22437   1.990   6.320   5.353  0.1514  0.2672 -0.2672
 5668SOL    HW222438   2.044   6.386   5.310  0.6545 -0.8977 -1.4750
 5668SOL    HW322439   2.015   6.238   5.312 -0.4472 -0.7009  1.2203
 5668SOL    MW422440   2.001   6.318   5.342  0.1388 -0.0142 -0.2303
 5669SOL     OW22441   1.573   0.158   3.662  0.1414  0.2204 -0.2680
 5669SOL    HW222442   1.661   0.193   3.646  0.0257  0.3455 -0.6448
 5669SOL    HW322443   1.551   0.187   3.750  0.4387  0.2692 -0.2076
 5669SOL    MW422444   1.582   0.166   3.671  0.1653  0.2434 -0.3098
 5670SOL     OW22445   0.654   0.892   4.899  0.0461 -0.0312  0.0345
 5670SOL    HW222446   0.704   0.970   4.923  0.4825 -0.1846 -0.3502
 5670SOL    HW322447   0.662   0.834   4.975 -0.5482  0.4259  0.4472
 5670SOL    MW422448   0.662   0.894   4.912  0.0252  0.0089  0.0382
 5671SOL     OW22449   4.028   0.575   4.296  0.3775 -0.1755 -0.4954
 5671SOL    HW222450   3.966   0.623   4.352  1.7940  3.3936 -1.6505
 5671SOL    HW322451   3.973   0.530   4.232 -1.1163  0.7681  0.0605
 5671SOL    MW422452   4.012   0.576   4.295  0.3673  0.4199 -0.5745
 5672SOL     OW22453   2.318   2.954   0.715 -0.6918  0.3143  0.1011
 5672SOL    HW222454   2.340   3.036   0.760  1.2111  0.0458 -0.2773
 5672SOL    HW322455   2.350   2.967   0.625 -3.0003  0.2309 -0.7927
 5672SOL    MW422456   2.325   2.967   0.709 -0.7453  0.2679 -0.0667
 5673SOL     OW22457   5.409   0.273   5.903 -0.2209  0.2392  0.1766
 5673SOL    HW222458   5.495   0.263   5.944  0.1491  0.7764 -0.4536
 5673SOL    HW322459   5.350   0.291   5.976  0.0810 -0.7728  0.6873
 5673SOL    MW422460   5.413   0.274   5.918 -0.1323  0.1765  0.1608
 5674SOL     OW22461   5.160   0.223   1.373  0.2907 -0.4338  0.1469
 5674SOL    HW222462   5.148   0.147   1.430  0.8482 -1.0437 -0.5202
 5674SOL    HW322463   5.244   0.207   1.329  0.9200  1.0607  0.7149
 5674SOL    MW422464   5.170   0.211   1.375  0.4473 -0.3171  0.1339
 5675SOL     OW22465   2.440   0.618   3.328 -0.4364  0.1693  0.5110
 5675SOL    HW222466   2.345   0.607   3.323 -0.3058 -0.6719 -0.3033
 5675SOL    HW322467   2.460   0.608   3.422 -1.0006 -1.0912  0.5220
 5675SOL    MW422468   2.430   0.615   3.340 -0.4936 -0.1080  0.4050
 5676SOL     OW22469   4.352   1.464   5.695  1.1201  0.0360  0.1269
 5676SOL    HW222470   4.331   1.443   5.604  2.5588 -0.8267 -0.0296
 5676SOL    HW322471   4.406   1.543   5.689 -0.9192  1.5425  0.4508
 5676SOL    MW422472   4.356   1.472   5.682  1.0408  0.1209  0.1490
 5677SOL     OW22473   0.574   5.567   4.980  0.0582  0.6654 -0.0633
 5677SOL    HW222474   0.664   5.593   4.961  0.2256  1.1904  1.3511
 5677SOL    HW322475   0.575   5.539   5.071 -0.9177 -0.7847 -0.4439
 5677SOL    MW422476   0.586   5.567   4.989 -0.0485  0.5433  0.0731
 5678SOL     OW22477   1.642   4.070   3.864 -0.0016 -0.5371 -0.0531
 5678SOL    HW222478   1.609   4.106   3.782  0.8771 -0.2537 -0.2968
 5678SOL    HW322479   1.639   3.975   3.852 -0.5946 -0.5128 -0.1139
 5678SOL    MW422480   1.637   4.062   3.852  0.0361 -0.4965 -0.0933
 5679SOL     OW22481   0.462   3.104   4.134 -0.2348  0.2689 -0.0335
 5679SOL    HW222482   0.443   3.014   4.109 -0.9148  0.3198  0.2832
 5679SOL    HW322483   0.444   3.107   4.229 -1.7952  1.1213 -0.3153
 5679SOL    MW422484   0.457   3.092   4.144 -0.5304  0.3881 -0.0289
 5680SOL     OW22485   4.144   2.028   2.874  0.1412  0.1346  0.3702
 5680SOL    HW222486   4.190   2.102   2.914 -1.1158  1.3497 -0.3187
 5680SOL    HW322487   4.091   1.992   2.944  1.5435 -0.8127  0.9800
 5680SOL    MW422488   4.143   2.033   2.888  0.1604  0.1699  0.3598
 5681SOL     OW22489   1.630   2.238   3.310 -0.0072  0.2595 -0.0924
 5681SOL    HW222490   1.641   2.178   3.237  1.1889 -0.2360  0.4620
 5681SOL    HW322491   1.609   2.182   3.385 -0.2076  0.6580  0.1557
 5681SOL    MW422492   1.629   2.223   3.310  0.1242  0.2467  0.0135
 5682SOL     OW22493   3.635   0.585   3.577 -0.4697 -0.4631  0.4194
 5682SOL    HW222494   3.706   0.582   3.512  0.3805 -1.2082  1.3382
 5682SOL    HW322495   3.611   0.677   3.582 -0.7287 -0.4183 -1.1177
 5682SOL    MW422496   3.641   0.597   3.569 -0.3917 -0.5555  0.3378
 5683SOL     OW22497   0.917   6.069   4.691  0.1727  0.3742  0.2262
 5683SOL    HW222498   0.920   6.165   4.695 -0.8086  0.3856  0.9790
 5683SOL    HW322499   1.009   6.043   4.686  0.5650  1.3097  1.7630
 5683SOL    MW422500   0.930   6.078   4.691  0.0950  0.4991  0.5283
 5684SOL     OW22501   0.998   3.718   4.929  0.0542  0.0076 -0.0709
 5684SOL    HW222502   0.970   3.771   4.854  0.8245  0.8897  0.2476
 5684SOL    HW322503   0.930   3.732   4.995 -1.2063 -1.6186 -0.9271
 5684SOL    MW422504   0.985   3.727   4.928 -0.0105 -0.0906 -0.1419
 5685SOL     OW22505   5.734   1.094   3.978 -0.0143  0.8497 -0.1982
 5685SOL    HW222506   5.678   1.141   3.916  1.0716  0.4738 -1.5232
 5685SOL    HW322507   5.685   1.015   4.000 -0.1113  0.6195 -1.1838
 5685SOL    MW422508   5.720   1.090   3.973  0.1161  0.7697 -0.5031
 5686SOL     OW22509   0.072   1.906   3.393  1.2334 -0.0913 -0.1215
 5686SOL    HW222510   0.045   1.907   3.485  0.4476 -2.1511 -0.2656
 5686SOL    HW322511   0.035   1.986   3.355 -3.0589 -1.6849  0.1839
 5686SOL    MW422512   0.063   1.917   3.400  0.5634 -0.5733 -0.1002
 5687SOL     OW22513   5.534   0.255   0.992 -0.2984 -0.1614 -0.0408
 5687SOL    HW222514   5.621   0.217   0.980  0.0256  0.7160 -0.5144
 5687SOL    HW322515   5.506   0.279   0.904 -1.5403 -1.5245 -0.0610
 5687SOL    MW422516   5.541   0.253   0.979 -0.4195 -0.2255 -0.1060
 5688SOL     OW22517   6.334   3.426   3.216  0.3943 -0.2683  0.0903
 5688SOL    HW222518   6.251   3.426   3.168 -1.0842  0.4694  2.4478
 5688SOL    HW322519   6.402   3.422   3.148 -1.4827  1.9684 -2.0884
 5688SOL    MW422520   6.332   3.425   3.201 -0.0484  0.1241  0.1139
 5689SOL     OW22521   4.335   4.188   1.686  0.4688  0.0624 -0.1578
 5689SOL    HW222522   4.353   4.255   1.620  0.2418  1.1933  0.8889
 5689SOL    HW322523   4.400   4.203   1.754  0.7444 -1.1331 -0.1425
 5689SOL    MW422524   4.346   4.199   1.686  0.4752  0.0539 -0.0177
 5690SOL     OW22525   0.621   1.220   5.797 -0.0451  0.1995 -0.1800
 5690SOL    HW222526   0.596   1.262   5.879  2.1610  1.7052 -0.1666
 5690SOL    HW322527   0.642   1.130   5.821  0.9274  0.7146  1.0238
 5690SOL    MW422528   0.621   1.214   5.811  0.3742  0.4661 -0.0194
 5691SOL     OW22529   0.375   1.125   0.510  0.6640 -0.2751 -0.0629
 5691SOL    HW222530   0.451   1.070   0.527  1.1430 -0.3167 -2.0827
 5691SOL    HW322531   0.409   1.215   0.516  1.2310 -0.2977 -2.1684
 5691SOL    MW422532   0.390   1.130   0.513  0.8020 -0.2835 -0.6072
 5692SOL     OW22533   1.209   5.436   3.881 -0.1399 -0.0423 -0.3513
 5692SOL    HW222534   1.162   5.357   3.908  0.0354  0.5266  1.7866
 5692SOL    HW322535   1.295   5.405   3.855 -0.4749 -0.6867 -0.7028
 5692SOL    MW422536   1.214   5.422   3.881 -0.1610 -0.0523 -0.1156
 5693SOL     OW22537   0.458   2.831   4.968  0.2147 -0.2507 -0.3694
 5693SOL    HW222538   0.395   2.885   4.920  0.5893  0.5314 -0.0017
 5693SOL    HW322539   0.536   2.829   4.913  0.7439  0.8781  0.2976
 5693SOL    MW422540   0.460   2.838   4.954  0.3339  0.0014 -0.2329
 5694SOL     OW22541   1.910   3.625   5.864 -0.0559  0.0866  0.2382
 5694SOL    HW222542   1.989   3.645   5.914 -0.7602 -0.1343  1.4721
 5694SOL    HW322543   1.873   3.711   5.844 -0.4679  0.1489  1.2489
 5694SOL    MW422544   1.916   3.639   5.868 -0.2032  0.0657  0.5343
 5695SOL     OW22545   3.910   0.810   2.896 -0.1836 -0.0140  0.5196
 5695SOL    HW222546   3.964   0.786   2.971  2.1369 -0.1465 -1.0867
 5695SOL    HW322547   3.958   0.880   2.853 -1.6940  0.3878 -0.5945
 5695SOL    MW422548   3.923   0.816   2.900 -0.0767  0.0216  0.1607
 5696SOL     OW22549   0.097   1.029   4.170 -0.4699 -0.2559 -0.5599
 5696SOL    HW222550   0.088   1.000   4.079  0.1978  1.1168 -1.0910
 5696SOL    HW322551   0.017   1.079   4.187 -1.6821 -2.3991  0.3962
 5696SOL    MW422552   0.085   1.032   4.160 -0.5417 -0.3576 -0.5038
 5697SOL     OW22553   5.965   0.236   2.797 -0.2767  0.1460  0.4193
 5697SOL    HW222554   5.942   0.202   2.884  0.6366  1.7420  1.3257
 5697SOL    HW322555   5.910   0.185   2.737 -2.7116  0.5868  2.0959
 5697SOL    MW422556   5.955   0.224   2.801 -0.4774  0.4147  0.7601
 5698SOL     OW22557   3.075   0.658   2.121 -0.0933  0.5582  0.2431
 5698SOL    HW222558   3.080   0.628   2.212 -0.9157  3.3029  1.3178
 5698SOL    HW322559   3.151   0.714   2.110 -0.5361  1.0543 -0.4194
 5698SOL    MW422560   3.085   0.662   2.132 -0.2602  0.9858  0.2975
 5699SOL     OW22561   5.825   5.233   0.705  0.0291 -0.3323 -0.3612
 5699SOL    HW222562   5.741   5.259   0.666  0.1334  0.3993 -0.1268
 5699SOL    HW322563   5.858   5.164   0.648 -0.1529  0.2252 -1.1651
 5699SOL    MW422564   5.818   5.228   0.693  0.0189 -0.1622 -0.4363
 5700SOL     OW22565   0.293   2.502   5.779  0.0021  0.0937  0.2905
 5700SOL    HW222566   0.289   2.439   5.707 -0.0240 -0.5074  0.8154
 5700SOL    HW322567   0.236   2.574   5.751 -0.3485 -0.3290 -0.1000
 5700SOL    MW422568   0.285   2.503   5.766 -0.0476 -0.0413  0.3083
 5701SOL     OW22569   0.757   1.189   1.596 -0.1703 -0.3382 -0.1517
 5701SOL    HW222570   0.801   1.104   1.604 -1.4572 -0.9934  0.1916
 5701SOL    HW322571   0.829   1.252   1.586  0.8142 -1.4370 -0.2436
 5701SOL    MW422572   0.773   1.186   1.596 -0.2102 -0.5696 -0.1185
 5702SOL     OW22573   6.361   3.843   5.892 -0.1262  0.1941 -0.8810
 5702SOL    HW222574   6.390   3.892   5.815 -0.1418 -1.0924 -1.7479
 5702SOL    HW322575   6.360   3.752   5.862  0.7360 -0.4472  0.9155
 5702SOL    MW422576   6.365   3.837   5.878 -0.0145 -0.0602 -0.7583
 5703SOL     OW22577   1.457   1.074   2.431  0.4504 -0.3016 -0.1248
 5703SOL    HW222578   1.407   1.036   2.359  0.7015 -0.2892 -0.3094
 5703SOL    HW322579   1.540   1.026   2.430 -0.2032 -1.5139  1.2869
 5703SOL    MW422580   1.462   1.063   2.421  0.3973 -0.4599  0.0371
 5704SOL     OW22581   0.854   3.868   3.716  0.6604  0.4551  0.4129
 5704SOL    HW222582   0.862   3.804   3.645  0.9110 -0.3171  1.1252
 5704SOL    HW322583   0.860   3.953   3.672 -0.8004  0.0277 -0.7074
 5704SOL    MW422584   0.856   3.871   3.701  0.5008  0.2968  0.3590
 5705SOL     OW22585   2.311   0.111   0.009 -0.0360 -0.1082  0.0664
 5705SOL    HW222586   2.328   0.098  -0.085  1.7994 -2.2611  0.6060
 5705SOL    HW322587   2.360   0.190   0.031  1.1479 -0.6781 -0.4359
 5705SOL    MW422588   2.320   0.120  -0.001  0.3624 -0.4675  0.0713
 5706SOL     OW22589   4.363   2.366   6.402  0.2057  0.3372 -0.4186
 5706SOL    HW222590   4.402   2.332   6.322  1.9360  3.2524 -0.9590
 5706SOL    HW322591   4.435   2.368   6.465  0.0394  2.1560 -0.2211
 5706SOL    MW422592   4.378   2.362   6.400  0.4120  0.9618 -0.4639
 5707SOL     OW22593   4.025   1.036   2.751  1.0444 -0.0346  0.2996
 5707SOL    HW222594   4.112   0.996   2.739  0.9521 -0.6112  1.4039
 5707SOL    HW322595   4.034   1.089   2.829  0.2947 -0.4211  0.6558
 5707SOL    MW422596   4.038   1.037   2.759  0.9333 -0.1617  0.4923
 5708SOL     OW22597   3.603   4.587   1.168  0.0788 -0.3860 -0.5312
 5708SOL    HW222598   3.639   4.504   1.201  0.9259  0.2847  0.3002
 5708SOL    HW322599   3.540   4.613   1.235  1.5904  0.8339  0.5075
 5708SOL    MW422600   3.600   4.580   1.181  0.3900 -0.1365 -0.2845
 5709SOL     OW22601   4.006   0.663   0.654  0.3048  0.1995 -0.1239
 5709SOL    HW222602   3.968   0.579   0.628 -0.1517  0.0114  1.0713
 5709SOL    HW322603   4.001   0.718   0.576 -1.7564 -0.0585 -0.2089
 5709SOL    MW422604   4.001   0.659   0.640 -0.0274  0.1406  0.0226
 5710SOL     OW22605   2.442   2.086   4.095  0.1654  0.2456  0.3498
 5710SOL    HW222606   2.524   2.134   4.081  0.2015  0.1498  0.2306
 5710SOL    HW322607   2.417   2.107   4.185 -0.3045  1.2283  0.0017
 5710SOL    MW422608   2.449   2.095   4.105  0.1082  0.3626  0.2882
 5711SOL     OW22609   1.182   5.182   0.745 -0.6554 -0.1757 -0.2955
 5711SOL    HW222610   1.226   5.165   0.828 -0.7993 -0.5200 -0.2889
 5711SOL    HW322611   1.089   5.176   0.765 -0.6832 -1.2907 -0.6904
 5711SOL    MW422612   1.176   5.179   0.758 -0.6781 -0.3682 -0.3467
 5712SOL     OW22613   5.651   1.345   5.317 -0.3489  0.2257 -0.6523
 5712SOL    HW222614   5.643   1.325   5.223  0.4186 -1.5979 -0.3694
 5712SOL    HW322615   5.713   1.417   5.321  0.0000 -0.0153 -1.5278
 5712SOL    MW422616   5.658   1.352   5.305 -0.2016 -0.0467 -0.7305
 5713SOL     OW22617   4.800   3.703   3.293 -0.5959 -0.0814  0.1770
 5713SOL    HW222618   4.789   3.756   3.372  0.7540  0.8918 -0.2464
 5713SOL    HW322619   4.724   3.725   3.239 -0.5193  0.7462  0.3917
 5713SOL    MW422620   4.789   3.713   3.296 -0.4077  0.1562  0.1495
 5714SOL     OW22621   1.288   4.881   6.227 -0.9037 -0.0195 -0.2392
 5714SOL    HW222622   1.212   4.842   6.184  0.0308  0.9439 -3.0406
 5714SOL    HW322623   1.308   4.958   6.173  2.4205 -0.6158 -0.0499
 5714SOL    MW422624   1.281   4.886   6.214 -0.3418  0.0289 -0.5838
 5715SOL     OW22625   5.430   0.903   5.225  0.7290 -0.2650 -0.1124
 5715SOL    HW222626   5.412   0.835   5.290 -0.2181  0.0742 -0.0014
 5715SOL    HW322627   5.432   0.984   5.275 -0.1861  0.0224 -0.5192
 5715SOL    MW422628   5.428   0.905   5.240  0.4833 -0.1823 -0.1514
 5716SOL     OW22629   0.342   1.193   0.845 -0.5692  0.0371 -0.5314
 5716SOL    HW222630   0.435   1.214   0.844 -0.6388  0.3407 -0.9454
 5716SOL    HW322631   0.315   1.203   0.754 -1.0652  0.2211 -0.3663
 5716SOL    MW422632   0.351   1.197   0.833 -0.6438  0.1014 -0.5642
 5717SOL     OW22633   6.087   3.062   3.019 -0.0355  0.1846 -0.3003
 5717SOL    HW222634   6.038   3.139   2.991 -0.5108 -0.3358 -0.9132
 5717SOL    HW322635   6.046   2.989   2.973  1.3480 -0.2575 -0.8917
 5717SOL    MW422636   6.075   3.062   3.009  0.0843  0.0576 -0.4592
 5718SOL     OW22637   1.922   6.184   3.003 -0.2792  0.2722 -0.6338
 5718SOL    HW222638   1.831   6.196   2.975 -0.8177  0.9870  1.3267
 5718SOL    HW322639   1.919   6.108   3.062  0.4785  0.0745 -0.8367
 5718SOL    MW422640   1.909   6.175   3.007 -0.2503  0.3404 -0.4019
 5719SOL     OW22641   5.359   2.095   2.609  0.1783 -0.0569  0.1523
 5719SOL    HW222642   5.266   2.077   2.601  0.4780 -1.0873 -1.4757
 5719SOL    HW322643   5.376   2.095   2.703 -0.9756 -2.4570  0.4295
 5719SOL    MW422644   5.349   2.093   2.620  0.0656 -0.5095 -0.0259
 5720SOL     OW22645   4.459   1.022   2.557  0.2934 -0.3720  0.6855
 5720SOL    HW222646   4.382   0.990   2.604 -0.0326 -0.4854  0.0979
 5720SOL    HW322647   4.476   0.954   2.491 -0.2913  0.5632 -0.4654
 5720SOL    MW422648   4.451   1.009   2.554  0.1732 -0.2636  0.4561
 5721SOL     OW22649   0.094   6.031   4.497 -0.0110 -0.0490 -0.2000
 5721SOL    HW222650   0.011   6.076   4.481 -1.1924 -1.7942  0.6592
 5721SOL    HW322651   0.095   5.959   4.433  1.2198  0.3700 -0.6905
 5721SOL    MW422652   0.083   6.027   4.486 -0.0045 -0.2240 -0.1514
 5722SOL     OW22653   6.154   0.902   1.479 -0.1961  0.2306 -0.1693
 5722SOL    HW222654   6.175   0.932   1.568 -0.2921 -1.4045  0.4433
 5722SOL    HW322655   6.069   0.941   1.460 -0.5129  0.0227  0.7651
 5722SOL    MW422656   6.146   0.911   1.489 -0.2505 -0.0126  0.0348
 5723SOL     OW22657   6.291   0.444   4.947 -0.2641 -0.2648  0.0528
 5723SOL    HW222658   6.370   0.406   4.910  0.0951 -0.2171  0.7571
 5723SOL    HW322659   6.224   0.376   4.936 -0.0810 -0.3753 -0.3775
 5723SOL    MW422660   6.292   0.430   4.941 -0.1925 -0.2730  0.0889
 5724SOL     OW22661   2.864   0.948   0.758 -0.3869 -0.0162  0.2289
 5724SOL    HW222662   2.916   1.025   0.782  0.7464 -0.6598 -0.0893
 5724SOL    HW322663   2.780   0.961   0.803 -0.3764  1.5894 -0.1361
 5724SOL    MW422664   2.860   0.960   0.767 -0.2360  0.1107  0.1388
 5725SOL     OW22665   3.473   3.572   3.897 -0.0322  0.4103  0.2068
 5725SOL    HW222666   3.545   3.625   3.863 -0.4033 -0.0004 -1.2654
 5725SOL    HW322667   3.516   3.507   3.954  0.9488 -0.6974 -1.6955
 5725SOL    MW422668   3.488   3.571   3.900  0.0483  0.2100 -0.2385
 5726SOL     OW22669   5.025   0.825   2.897 -0.6677  0.2684 -0.4262
 5726SOL    HW222670   5.051   0.734   2.906 -1.0339 -0.0002 -1.7755
 5726SOL    HW322671   5.095   0.875   2.940 -0.7067 -0.6537  0.7336
 5726SOL    MW422672   5.038   0.820   2.904 -0.7212  0.1113 -0.4512
 5727SOL     OW22673   0.739   3.255   4.502  0.1888 -0.1964  0.0749
 5727SOL    HW222674   0.798   3.286   4.571 -1.9867  0.9121  1.5832
 5727SOL    HW322675   0.740   3.159   4.511 -0.1655 -0.0800  1.8464
 5727SOL    MW422676   0.747   3.246   4.512 -0.1450 -0.0348  0.5076
 5728SOL     OW22677   5.084   6.323   0.615  0.3318  0.0184  0.1406
 5728SOL    HW222678   4.989   6.331   0.604  0.2263 -0.1409  0.8616
 5728SOL    HW322679   5.118   6.312   0.526 -0.5124 -1.8211 -0.0055
 5728SOL    MW422680   5.076   6.322   0.602  0.2065 -0.2453  0.2165
 5729SOL     OW22681   2.573   6.168   4.282  0.0846 -0.2446  0.0076
 5729SOL    HW222682   2.597   6.256   4.309 -0.5732  0.4602 -1.5673
 5729SOL    HW322683   2.486   6.154   4.321  0.1594 -0.1708  0.2011
 5729SOL    MW422684   2.565   6.178   4.291  0.0077 -0.1419 -0.1747
 5730SOL     OW22685   2.795   0.526   6.387  1.1126 -0.1868  0.3091
 5730SOL    HW222686   2.720   0.569   6.427 -0.4302 -1.4130 -1.1164
 5730SOL    HW322687   2.859   0.596   6.376  1.0904  0.4842  3.4649
 5730SOL    MW422688   2.794   0.541   6.391  0.9061 -0.2601  0.5374
 5731SOL     OW22689   5.430   5.422   2.886 -0.6078  0.0395 -0.1362
 5731SOL    HW222690   5.411   5.337   2.848  0.5646 -0.3615  0.1022
 5731SOL    HW322691   5.498   5.404   2.952  0.1405  1.2337 -0.5346
 5731SOL    MW422692   5.437   5.409   2.890 -0.3544  0.1441 -0.1573
 5732SOL     OW22693   2.384   0.642   0.720 -0.3748  0.0546 -0.8725
 5732SOL    HW222694   2.470   0.656   0.679 -0.1314  2.1911  0.2048
 5732SOL    HW322695   2.364   0.726   0.762 -3.2017 -0.2485 -1.4248
 5732SOL    MW422696   2.393   0.655   0.721 -0.7156  0.2965 -0.8032
 5733SOL     OW22697   4.795   1.670   3.647  0.0117 -0.3909 -0.0872
 5733SOL    HW222698   4.865   1.637   3.590 -0.4235 -0.2924 -0.6849
 5733SOL    HW322699   4.742   1.593   3.666  0.7939 -0.6536  1.1273
 5733SOL    MW422700   4.798   1.656   3.642  0.0575 -0.4126 -0.0058
 5734SOL     OW22701   5.849   2.844   3.149  0.2023  0.1782  0.0175
 5734SOL    HW222702   5.919   2.841   3.215  0.3581 -1.3867 -0.1922
 5734SOL    HW322703   5.890   2.816   3.068 -0.4334  0.2379 -0.3362
 5734SOL    MW422704   5.863   2.840   3.147  0.1390 -0.0204 -0.0568
 5735SOL     OW22705   5.152   6.188   4.195 -0.5661 -0.1444  0.6781
 5735SOL    HW222706   5.153   6.180   4.099  1.3815 -0.9056  0.7266
 5735SOL    HW322707   5.118   6.103   4.225  2.1259 -1.3023  0.6969
 5735SOL    MW422708   5.148   6.176   4.186  0.0461 -0.3976  0.6870
 5736SOL     OW22709   3.357   2.036   1.113 -0.4392 -0.0840  0.2036
 5736SOL    HW222710   3.316   1.950   1.119 -3.1570  1.1314  0.2828
 5736SOL    HW322711   3.352   2.059   1.020  1.5811 -0.5258 -0.0710
 5736SOL    MW422712   3.351   2.028   1.101 -0.5313  0.0181  0.1778
 5737SOL     OW22713   2.792   5.057   1.600 -0.3556 -0.4929 -0.4021
 5737SOL    HW222714   2.849   5.060   1.677  0.4700  0.7859 -1.0402
 5737SOL    HW322715   2.726   4.991   1.622  0.9264 -1.4746  0.6614
 5737SOL    MW422716   2.791   5.048   1.613 -0.0775 -0.4537 -0.3460
 5738SOL     OW22717   3.374  -0.042   2.624  0.2217 -0.0288  0.3302
 5738SOL    HW222718   3.299  -0.101   2.617  1.2321 -1.6094  1.8172
 5738SOL    HW322719   3.437  -0.076   2.560 -0.5939  1.8500 -1.5817
 5738SOL    MW422720   3.373  -0.055   2.615  0.2474  0.0105  0.2741
 5739SOL     OW22721   6.391   3.089   3.752 -0.3722  0.9691 -0.5633
 5739SOL    HW222722   6.303   3.125   3.743 -0.0751  2.2389  1.1597
 5739SOL    HW322723   6.405   3.041   3.671 -2.6717  0.6582 -0.8573
 5739SOL    MW422724   6.381   3.087   3.740 -0.6364  1.0956 -0.3747
 5740SOL     OW22725   3.789   1.456   1.088  0.4663  0.0814  0.6546
 5740SOL    HW222726   3.846   1.495   1.154  0.4065 -0.8482  1.2841
 5740SOL    HW322727   3.728   1.525   1.064  2.0398  1.2142 -0.2890
 5740SOL    MW422728   3.789   1.470   1.093  0.6660  0.1082  0.6132
 5741SOL     OW22729   4.838   4.240   3.652 -0.1846 -0.0860  0.7071
 5741SOL    HW222730   4.822   4.303   3.582  1.1585 -0.2869  0.1961
 5741SOL    HW322731   4.893   4.287   3.715  2.7924 -1.3129 -0.7498
 5741SOL    MW422732   4.843   4.254   3.651  0.3854 -0.2744  0.4475
 5742SOL     OW22733   5.608   5.350   2.441  0.0005  0.7120 -0.0532
 5742SOL    HW222734   5.532   5.401   2.413  1.2874  3.2395  0.7456
 5742SOL    HW322735   5.648   5.402   2.511  2.3181 -0.6327 -0.2519
 5742SOL    MW422736   5.604   5.363   2.447  0.4760  0.8681  0.0260
 5743SOL     OW22737   4.913   2.860   2.376  0.2911  0.4401  0.5229
 5743SOL    HW222738   4.948   2.805   2.306  0.2574 -0.6079  1.2966
 5743SOL    HW322739   4.821   2.835   2.382 -0.0510  1.5436  0.0121
 5743SOL    MW422740   4.905   2.849   2.368  0.2415  0.4474  0.5576
 5744SOL     OW22741   0.425   6.089   2.685 -0.0819 -0.0707 -0.4857
 5744SOL    HW222742   0.353   6.058   2.631  0.2706 -1.9465  0.0408
 5744SOL    HW322743   0.503   6.078   2.630 -0.0182  0.5738 -0.5354
 5744SOL    MW422744   0.426   6.084   2.670 -0.0270 -0.2332 -0.4228
 5745SOL     OW22745   0.307   3.174   5.795  0.1335 -0.1548 -0.4761
 5745SOL    HW222746   0.278   3.228   5.869  0.5211  0.0909 -0.5021
 5745SOL    HW322747   0.229   3.164   5.741  0.1497  0.7080 -0.6746
 5745SOL    MW422748   0.293   3.180   5.798  0.1868 -0.0086 -0.5058
 5746SOL     OW22749   1.136   3.267   2.451 -0.2199 -0.8291 -0.1050
 5746SOL    HW222750   1.107   3.350   2.489 -0.4837 -0.0938 -1.8246
 5746SOL    HW322751   1.054   3.222   2.428 -0.0785 -0.5761 -1.1704
 5746SOL    MW422752   1.121   3.272   2.453 -0.2361 -0.6987 -0.4724
 5747SOL     OW22753   6.413   2.882   3.297 -0.5521 -0.2248  0.6230
 5747SOL    HW222754   6.338   2.942   3.302  0.7607  1.4475  0.8069
 5747SOL    HW322755   6.373   2.796   3.283 -2.4367  0.9009 -1.6089
 5747SOL    MW422756   6.398   2.878   3.296 -0.6275  0.1444  0.3528
 5748SOL     OW22757   0.971   3.432   0.676  0.1161 -0.2372 -0.3098
 5748SOL    HW222758   1.013   3.417   0.591  0.2875 -2.4436  0.1240
 5748SOL    HW322759   0.931   3.348   0.699 -1.4553  0.8008  0.9998
 5748SOL    MW422760   0.971   3.419   0.668 -0.0686 -0.3913 -0.0798
 5749SOL     OW22761   1.806   3.791   4.614 -0.1048  0.0241 -0.2722
 5749SOL    HW222762   1.875   3.748   4.563  1.6803  1.9929  0.3509
 5749SOL    HW322763   1.798   3.878   4.574 -0.8357  0.5212  0.9156
 5749SOL    MW422764   1.814   3.796   4.602  0.0343  0.3494 -0.0333
 5750SOL     OW22765   0.692   3.611   3.182  0.0225  0.7136 -0.3106
 5750SOL    HW222766   0.688   3.701   3.148 -0.9277  0.7528 -0.1041
 5750SOL    HW322767   0.673   3.619   3.275  2.0360  0.5304  0.1583
 5750SOL    MW422768   0.689   3.624   3.189  0.1628  0.6946 -0.2215
 5751SOL     OW22769   0.867   0.112   6.014 -0.1596 -0.2665  0.0541
 5751SOL    HW222770   0.797   0.152   5.962  0.5775  0.6102 -0.2713
 5751SOL    HW322771   0.874   0.167   6.091 -0.4697 -0.9138  0.5607
 5751SOL    MW422772   0.858   0.124   6.017 -0.1032 -0.2362  0.0781
 5752SOL     OW22773   3.688   1.363   2.218 -0.5425 -0.2452  0.4107
 5752SOL    HW222774   3.740   1.291   2.253 -2.0818 -0.6397  2.0309
 5752SOL    HW322775   3.715   1.440   2.268  1.0399  0.3551 -1.2615
 5752SOL    MW422776   3.698   1.363   2.229 -0.5368 -0.2181  0.4038
 5753SOL     OW22777   6.226   4.660   2.736  0.0817 -0.0936 -0.0685
 5753SOL    HW222778   6.157   4.617   2.787  0.2464 -0.4609 -0.1532
 5753SOL    HW322779   6.258   4.592   2.677 -1.5798  0.8682 -2.2084
 5753SOL    MW422780   6.221   4.645   2.735 -0.1158 -0.0151 -0.3620
 5754SOL     OW22781   6.043   5.411   1.307 -0.6052 -0.0123 -0.1976
 5754SOL    HW222782   5.962   5.412   1.255  0.3764 -1.7297 -1.8903
 5754SOL    HW322783   6.095   5.483   1.272 -0.6793 -0.0132 -0.3095
 5754SOL    MW422784   6.039   5.421   1.296 -0.4855 -0.2390 -0.4357
 5755SOL     OW22785   6.182   4.931   2.670  0.2699  0.1375  0.8041
 5755SOL    HW222786   6.211   4.842   2.687 -0.0146 -0.0976  0.0992
 5755SOL    HW322787   6.235   4.985   2.728  1.3996 -0.3743  0.2821
 5755SOL    MW422788   6.193   4.927   2.680  0.3814  0.0389  0.6422
 5756SOL     OW22789   6.099   5.634   0.526  0.1165 -0.4423 -0.2578
 5756SOL    HW222790   6.159   5.673   0.462 -1.7202 -0.0113 -1.7812
 5756SOL    HW322791   6.036   5.704   0.544 -0.2798 -1.0819  0.8780
 5756SOL    MW422792   6.099   5.649   0.520 -0.1781 -0.4698 -0.3090
 5757SOL     OW22793   3.858   5.166   5.920 -0.3662 -0.1249 -0.0692
 5757SOL    HW222794   3.921   5.145   5.851  1.0568  1.0093  0.8345
 5757SOL    HW322795   3.778   5.120   5.894  0.4799 -0.6831 -1.8447
 5757SOL    MW422796   3.856   5.157   5.907 -0.0669 -0.0489 -0.1842
 5758SOL     OW22797   4.087   6.139   4.710 -0.2753  0.0157  0.3940
 5758SOL    HW222798   4.129   6.144   4.624 -0.2159 -1.5103  0.3106
 5758SOL    HW322799   4.157   6.109   4.769  0.1385  2.6044  1.3519
 5758SOL    MW422800   4.102   6.135   4.706 -0.2129  0.1559  0.5094
 5759SOL     OW22801   4.570   0.679   1.867  0.0187  0.8596  0.1846
 5759SOL    HW222802   4.633   0.744   1.837 -0.3098  0.4885 -1.3667
 5759SOL    HW322803   4.542   0.711   1.953  2.6385  0.8010  1.1650
 5759SOL    MW422804   4.575   0.691   1.874  0.3210  0.8029  0.1093
 5760SOL     OW22805   1.832   6.293   1.006 -0.0199  0.4104  0.3602
 5760SOL    HW222806   1.891   6.364   0.979 -1.2565  0.8442 -1.3349
 5760SOL    HW322807   1.841   6.290   1.101  1.5404  1.5079  0.2924
 5760SOL    MW422808   1.841   6.302   1.015  0.0228  0.6124  0.1276
 5761SOL     OW22809   4.976   5.823   4.674 -0.2580  0.1277  0.2784
 5761SOL    HW222810   4.975   5.730   4.650 -0.8336  0.7655 -2.4759
 5761SOL    HW322811   4.994   5.823   4.768  2.9869 -2.6761 -0.1338
 5761SOL    MW422812   4.979   5.811   4.683  0.0942 -0.1581 -0.1394
 5762SOL     OW22813   5.008   5.608   1.149  0.4535  0.0827  0.3043
 5762SOL    HW222814   5.040   5.561   1.226 -0.7497  1.3947  1.6832
 5762SOL    HW322815   5.063   5.686   1.145  0.7849 -0.1819 -0.4442
 5762SOL    MW422816   5.019   5.612   1.159  0.3385  0.2209  0.3875
 5763SOL     OW22817   0.338   4.164   4.911 -0.8695  0.2442 -0.5385
 5763SOL    HW222818   0.271   4.232   4.901  0.2047  1.3450 -0.4546
 5763SOL    HW322819   0.421   4.211   4.906 -0.0974 -0.8678  0.9880
 5763SOL    MW422820   0.340   4.179   4.909 -0.6259  0.2427 -0.3260
 5764SOL     OW22821   4.214   1.050   4.462 -0.1433  0.2712 -0.0631
 5764SOL    HW222822   4.122   1.052   4.436 -0.1432  1.1531 -0.0207
 5764SOL    HW322823   4.213   1.066   4.556 -0.0482 -1.4542  0.2549
 5764SOL    MW422824   4.202   1.052   4.471 -0.1307  0.1599 -0.0156
 5765SOL     OW22825   3.873   2.276   0.047  0.3050  0.1687  0.0463
 5765SOL    HW222826   3.906   2.186   0.050  0.8085  0.3575  0.2884
 5765SOL    HW322827   3.818   2.279  -0.032  2.1224  0.2686 -1.2732
 5765SOL    MW422828   3.870   2.265   0.037  0.6112  0.2068 -0.0958
 5766SOL     OW22829   2.565   2.813   5.841 -0.0590  0.2761 -0.1578
 5766SOL    HW222830   2.524   2.879   5.785 -0.0571 -0.3592 -0.9304
 5766SOL    HW322831   2.516   2.817   5.923  1.2167  2.6286  0.5813
 5766SOL    MW422832   2.553   2.822   5.844  0.1095  0.5027 -0.1622
 5767SOL     OW22833   2.037   0.970   1.097 -0.2923 -0.3458  0.1328
 5767SOL    HW222834   2.023   0.905   1.166 -1.4687  0.4403  0.6586
 5767SOL    HW322835   2.132   0.978   1.092 -0.0915 -2.3056 -0.1502
 5767SOL    MW422836   2.048   0.962   1.106 -0.4210 -0.5007  0.1649
 5768SOL     OW22837   1.272   0.337   4.536  0.2831 -0.4818 -0.1116
 5768SOL    HW222838   1.285   0.374   4.449  1.6608 -1.4529 -0.3655
 5768SOL    HW322839   1.311   0.401   4.595  0.4867 -0.4007 -0.3313
 5768SOL    MW422840   1.279   0.350   4.532  0.4917 -0.5992 -0.1741
 5769SOL     OW22841   2.267   1.127   4.590 -0.4074 -0.3705 -0.0566
 5769SOL    HW222842   2.217   1.159   4.515  0.1998 -2.1918 -1.3133
 5769SOL    HW322843   2.328   1.063   4.553  0.2669 -0.9652  1.9336
 5769SOL    MW422844   2.268   1.123   4.576 -0.2383 -0.6893  0.0401
 5770SOL     OW22845   5.636   3.956   1.192 -0.1321  0.1463 -0.1278
 5770SOL    HW222846   5.709   4.011   1.222  1.2609 -1.3269 -0.6167
 5770SOL    HW322847   5.558   3.997   1.228  1.0957  0.7449  2.0121
 5770SOL    MW422848   5.636   3.968   1.201  0.2137  0.0309  0.0900
 5771SOL     OW22849   6.237   0.860   2.339 -1.0530  0.0775 -0.0178
 5771SOL    HW222850   6.281   0.778   2.317  2.8228  1.5497  1.3811
 5771SOL    HW322851   6.190   0.841   2.420 -0.0764 -0.7628  0.3679
 5771SOL    MW422852   6.237   0.847   2.347 -0.4128  0.1608  0.2176
 5772SOL     OW22853   0.652   2.598   2.369 -0.2169  0.1261  0.5748
 5772SOL    HW222854   0.590   2.531   2.397 -0.7328  0.9656  1.5004
 5772SOL    HW322855   0.724   2.549   2.328 -0.8368 -0.9430  0.7455
 5772SOL    MW422856   0.654   2.583   2.367 -0.3668  0.0958  0.7195
 5773SOL     OW22857   0.245   5.130   3.222 -0.2450 -0.1617  0.1481
 5773SOL    HW222858   0.268   5.147   3.131 -0.1718 -0.1350  0.1716
 5773SOL    HW322859   0.213   5.214   3.255  1.8029  0.4407  0.7807
 5773SOL    MW422860   0.244   5.143   3.215  0.0348 -0.0787  0.2347
 5774SOL     OW22861   2.083   4.083   5.680 -0.2366 -0.4974 -0.0258
 5774SOL    HW222862   2.093   3.988   5.684 -0.7468 -0.5249  0.7353
 5774SOL    HW322863   2.000   4.097   5.635 -0.7133 -0.4405  0.8571
 5774SOL    MW422864   2.074   4.073   5.675 -0.3668 -0.4935  0.1911
 5775SOL     OW22865   0.335   2.297   3.457 -0.0016 -0.3789 -0.4820
 5775SOL    HW222866   0.399   2.348   3.407 -1.5507  0.9624 -1.2050
 5775SOL    HW322867   0.281   2.254   3.389 -0.7373 -0.3493  0.0731
 5775SOL    MW422868   0.336   2.298   3.441 -0.3030 -0.1980 -0.5041
 5776SOL     OW22869   2.983   1.428   0.197 -0.2675  0.2207  0.1209
 5776SOL    HW222870   2.926   1.487   0.147  0.1745 -0.0532 -0.7372
 5776SOL    HW322871   2.946   1.341   0.183 -0.2989  0.1750  0.4938
 5776SOL    MW422872   2.971   1.424   0.188 -0.2133  0.1785  0.0569
 5777SOL     OW22873   0.131   0.329   4.127 -0.2666  0.4188 -0.0714
 5777SOL    HW222874   0.123   0.415   4.085 -1.2694  0.5130  0.2954
 5777SOL    HW322875   0.184   0.278   4.066 -1.0758  0.7814 -1.1156
 5777SOL    MW422876   0.137   0.333   4.114 -0.5057  0.4790 -0.1608
 5778SOL     OW22877   3.910   1.754   4.303 -0.0072  0.7639 -0.2925
 5778SOL    HW222878   3.874   1.780   4.218 -0.8562  3.4804  0.7813
 5778SOL    HW322879   4.005   1.766   4.293  0.3143 -2.0068 -1.7177
 5778SOL    MW422880   3.918   1.759   4.290 -0.0768  0.7568 -0.3389
 5779SOL     OW22881   3.514   0.964   6.327 -0.1710  0.0264 -0.2019
 5779SOL    HW222882   3.494   1.052   6.295  0.0140 -0.5338 -1.9826
 5779SOL    HW322883   3.519   0.910   6.247  1.8085 -1.1783  0.6566
 5779SOL    MW422884   3.512   0.968   6.312  0.1146 -0.2065 -0.3236
 5780SOL     OW22885   5.202   2.378   6.157 -0.2980  0.2568  0.1951
 5780SOL    HW222886   5.256   2.308   6.194  0.3377  0.3237 -0.5845
 5780SOL    HW322887   5.210   2.450   6.220 -0.7970 -0.2909  0.9011
 5780SOL    MW422888   5.210   2.378   6.170 -0.2799  0.1934  0.1854
 5781SOL     OW22889   4.358   0.675   5.823 -0.7596  0.1470  0.2133
 5781SOL    HW222890   4.276   0.640   5.787 -0.6868 -0.4091  0.5727
 5781SOL    HW322891   4.388   0.737   5.757 -0.9888 -0.3336 -0.3597
 5781SOL    MW422892   4.351   0.678   5.810 -0.7802  0.0102  0.1851
 5782SOL     OW22893   4.346   4.449   5.696 -0.1209  0.2881  0.1551
 5782SOL    HW222894   4.391   4.406   5.623 -0.5165  0.8586 -0.4360
 5782SOL    HW322895   4.330   4.378   5.759 -0.7470 -0.4302 -0.7937
 5782SOL    MW422896   4.350   4.434   5.695 -0.2557  0.2686 -0.0481
 5783SOL     OW22897   5.858   3.077   2.464  0.0827 -0.4470 -0.1664
 5783SOL    HW222898   5.765   3.089   2.486  0.0926 -0.4992 -0.0944
 5783SOL    HW322899   5.857   3.049   2.373 -0.0365 -1.4791  0.1368
 5783SOL    MW422900   5.845   3.075   2.455  0.0683 -0.5901 -0.1169
 5784SOL     OW22901   2.422   1.369   0.236  0.0079  0.5373 -0.2146
 5784SOL    HW222902   2.435   1.447   0.182 -0.5640  1.0066  0.3183
 5784SOL    HW322903   2.491   1.373   0.301  0.2435  0.3612 -0.4489
 5784SOL    MW422904   2.433   1.380   0.237 -0.0364  0.5760 -0.1752
 5785SOL     OW22905   0.961   1.725   3.732 -0.0096  0.0580  0.0401
 5785SOL    HW222906   0.955   1.632   3.711 -1.5466  0.3616 -0.9718
 5785SOL    HW322907   0.956   1.770   3.648 -1.5581  1.1296  0.6491
 5785SOL    MW422908   0.960   1.719   3.718 -0.4167  0.2395 -0.0131
 5786SOL     OW22909   4.903   0.739   5.072 -0.1819 -0.0732  0.3742
 5786SOL    HW222910   4.847   0.811   5.102 -0.8748  0.3062 -1.6964
 5786SOL    HW322911   4.980   0.782   5.035 -1.2779 -0.2103 -2.2846
 5786SOL    MW422912   4.905   0.754   5.071 -0.4179 -0.0412 -0.2498
 5787SOL     OW22913   0.248   1.650   5.374  0.0043 -0.4948 -0.5891
 5787SOL    HW222914   0.336   1.667   5.406 -0.3016 -0.0395  0.0488
 5787SOL    HW322915   0.227   1.726   5.320 -0.1358 -0.4183 -0.4290
 5787SOL    MW422916   0.257   1.662   5.371 -0.0546 -0.4246 -0.4838
 5788SOL     OW22917   3.453   5.699   3.137  0.3130 -0.7299 -0.4179
 5788SOL    HW222918   3.415   5.785   3.122  0.1700 -0.8774 -0.9112
 5788SOL    HW322919   3.439   5.683   3.231  0.0709 -0.3482 -0.3856
 5788SOL    MW422920   3.446   5.708   3.148  0.2622 -0.6990 -0.4787
 5789SOL     OW22921   4.725   0.491   5.635 -0.7290 -0.2398  0.0462
 5789SOL    HW222922   4.746   0.547   5.710 -0.9358  0.0749 -0.1251
 5789SOL    HW322923   4.647   0.443   5.662  0.2185 -1.4654  0.7106
 5789SOL    MW422924   4.717   0.492   5.648 -0.6313 -0.3600  0.1112
 5790SOL     OW22925   2.953   4.837   3.925 -0.1710  0.0438  0.0926
 5790SOL    HW222926   3.015   4.780   3.880 -0.1177  1.8951 -2.4039
 5790SOL    HW322927   2.994   4.924   3.921 -1.8081  0.8676  0.5969
 5790SOL    MW422928   2.967   4.841   3.918 -0.3799  0.3967 -0.1702
 5791SOL     OW22929   5.699   4.969   1.126 -0.1968  0.6745 -0.0097
 5791SOL    HW222930   5.687   5.038   1.061  0.2761  0.5988 -0.1764
 5791SOL    HW322931   5.610   4.946   1.153 -0.4555  0.1216 -1.2475
 5791SOL    MW422932   5.686   4.975   1.121 -0.1685  0.5916 -0.1950
 5792SOL     OW22933   3.659   2.295   2.250 -0.8782 -0.5035  0.1312
 5792SOL    HW222934   3.642   2.360   2.319  2.8932 -0.2982  1.1040
 5792SOL    HW322935   3.636   2.340   2.169 -1.6059  0.7529  0.9903
 5792SOL    MW422936   3.653   2.309   2.249 -0.4766 -0.3106  0.3729
 5793SOL     OW22937   5.361   1.726   4.737  0.5734 -0.2248 -0.5658
 5793SOL    HW222938   5.296   1.668   4.776  0.9740 -0.5031 -0.3095
 5793SOL    HW322939   5.328   1.743   4.648  1.1087 -1.9203 -1.1249
 5793SOL    MW422940   5.348   1.721   4.730  0.6969 -0.4852 -0.6057
 5794SOL     OW22941   4.925   3.726   1.967 -0.1326 -0.4695 -0.1041
 5794SOL    HW222942   4.931   3.688   2.055  1.7853 -0.9337 -0.4063
 5794SOL    HW322943   4.884   3.658   1.914 -0.1877 -0.6549  0.1762
 5794SOL    MW422944   4.920   3.712   1.972  0.1132 -0.5552 -0.1070
 5795SOL     OW22945   5.680   4.084   2.492 -0.2560  0.2732 -0.0674
 5795SOL    HW222946   5.637   4.052   2.413  0.0475 -1.9898  0.6303
 5795SOL    HW322947   5.609   4.118   2.546 -0.9835 -1.6593  0.2554
 5795SOL    MW422948   5.665   4.084   2.489 -0.3119 -0.2803  0.0672
 5796SOL     OW22949   4.342   0.636   3.439  0.3414  0.2890 -0.0723
 5796SOL    HW222950   4.255   0.599   3.425  1.2778 -1.0391 -3.2089
 5796SOL    HW322951   4.384   0.577   3.502 -0.8931  0.8510  1.3370
 5796SOL    MW422952   4.336   0.623   3.446  0.3020  0.1879 -0.3002
 5797SOL     OW22953   0.583   0.546   5.705  0.1968 -0.5713 -0.3442
 5797SOL    HW222954   0.600   0.598   5.626 -1.2231 -1.1352 -1.0570
 5797SOL    HW322955   0.542   0.466   5.673  3.2520 -2.6919  0.6142
 5797SOL    MW422956   0.580   0.542   5.690  0.4126 -0.9255 -0.3118
 5798SOL     OW22957   3.983   4.459   1.108 -0.1641  0.4414 -0.2432
 5798SOL    HW222958   3.993   4.439   1.014 -0.7508 -2.8107  0.2531
 5798SOL    HW322959   3.897   4.422   1.130  0.8051 -0.6509  1.9430
 5798SOL    MW422960   3.973   4.451   1.098 -0.1136 -0.1318  0.1107
 5799SOL     OW22961   2.619   5.783   4.160 -0.5479 -0.3518  0.9016
 5799SOL    HW222962   2.707   5.751   4.182 -0.3369 -1.0782 -0.8220
 5799SOL    HW322963   2.633   5.874   4.133 -0.0612 -0.8959 -0.7847
 5799SOL    MW422964   2.633   5.791   4.159 -0.4558 -0.5194  0.4517
 5800SOL     OW22965   3.680   5.000   4.339 -0.1900  0.1358 -0.3906
 5800SOL    HW222966   3.767   5.029   4.366  0.5574 -1.9496 -0.3319
 5800SOL    HW322967   3.683   4.998   4.244 -0.0143 -0.3424 -0.3779
 5800SOL    MW422968   3.692   5.003   4.330 -0.0682 -0.2024 -0.3812
 5801SOL     OW22969   0.297   2.898   2.115  0.6202  0.0117 -0.0445
 5801SOL    HW222970   0.235   2.829   2.088  3.0847 -2.3531 -0.0531
 5801SOL    HW322971   0.259   2.933   2.196 -1.8279  0.3023 -1.2017
 5801SOL    MW422972   0.284   2.893   2.122  0.6224 -0.2620 -0.1983
 5802SOL     OW22973   5.369   5.666   3.377 -0.8216  0.4002 -0.5073
 5802SOL    HW222974   5.325   5.668   3.292 -2.7063 -0.4921  0.3862
 5802SOL    HW322975   5.369   5.574   3.402 -0.1388  0.6303  0.3783
 5802SOL    MW422976   5.363   5.654   3.369 -0.9802  0.3128 -0.2726
 5803SOL     OW22977   5.879   0.994   0.345  0.3001  1.5031  0.1570
 5803SOL    HW222978   5.918   0.922   0.295 -1.3566  0.1989  0.6453
 5803SOL    HW322979   5.886   1.070   0.287  0.6383  0.5934 -1.0408
 5803SOL    MW422980   5.885   0.994   0.331  0.1261  1.2110  0.0634
 5804SOL     OW22981   2.856   0.357   3.964  0.3955 -0.3199  0.6030
 5804SOL    HW222982   2.805   0.437   3.971  1.2062  0.2666 -0.0409
 5804SOL    HW322983   2.809   0.305   3.898  1.2718  0.7394 -0.9093
 5804SOL    MW422984   2.843   0.361   3.956  0.6181 -0.1027  0.3185
 5805SOL     OW22985   1.889   5.709   4.983  0.2807  0.3190 -0.3926
 5805SOL    HW222986   1.961   5.646   4.992 -0.1407 -0.3865 -1.7505
 5805SOL    HW322987   1.920   5.772   4.918 -0.1692  0.2513 -0.6707
 5805SOL    MW422988   1.903   5.709   4.976  0.1658  0.2170 -0.6084
 5806SOL     OW22989   4.337   4.257   4.568  0.5330  0.2451  0.1938
 5806SOL    HW222990   4.362   4.314   4.641 -0.1666  1.5912 -0.5755
 5806SOL    HW322991   4.241   4.259   4.569  0.4862  1.6518 -1.7426
 5806SOL    MW422992   4.328   4.265   4.578  0.4345  0.6083 -0.1632
 5807SOL     OW22993   0.250   2.689   4.536 -0.8949  0.1241  0.0378
 5807SOL    HW222994   0.255   2.616   4.597  1.4742  0.7356  0.6504
 5807SOL    HW322995   0.170   2.735   4.562 -1.6154 -1.3619  0.6125
 5807SOL    MW422996   0.240   2.685   4.548 -0.6774  0.0087  0.1944
 5808SOL     OW22997   5.543   0.112   2.154  0.1117 -0.0652 -0.1048
 5808SOL    HW222998   5.501   0.133   2.070  0.5749 -0.7069 -0.5117
 5808SOL    HW322999   5.505   0.028   2.180  0.3119 -0.0999  0.0854
 5808SOL    MW423000   5.533   0.103   2.146  0.1992 -0.1544 -0.1334
 5809SOL     OW23001   2.112   5.541   4.993 -0.1554  0.4234  0.1833
 5809SOL    HW223002   2.192   5.573   4.950 -0.0940  0.8342  0.5915
 5809SOL    HW323003   2.108   5.448   4.971  1.0118  0.1424  1.0321
 5809SOL    MW423004   2.122   5.533   4.984  0.0067  0.4405  0.3491
 5810SOL     OW23005   3.750   2.027   3.096 -0.0450 -0.2892 -0.0750
 5810SOL    HW223006   3.841   2.000   3.085  0.7742  1.1977  2.1175
 5810SOL    HW323007   3.726   1.995   3.183 -0.5271  1.9135  0.6855
 5810SOL    MW423008   3.759   2.019   3.106 -0.0005  0.1976  0.3146
 5811SOL     OW23009   1.964   0.500   3.149 -0.0288  0.4529 -0.4493
 5811SOL    HW223010   1.948   0.496   3.055 -0.3357 -0.5791 -0.3651
 5811SOL    HW323011   1.878   0.484   3.189  0.4677 -1.2971 -0.0075
 5811SOL    MW423012   1.951   0.497   3.142 -0.0038  0.0858 -0.3799
 5812SOL     OW23013   3.450   3.287   2.506  0.3598  0.5600 -0.1951
 5812SOL    HW223014   3.368   3.275   2.554  0.4722  0.8266  0.0695
 5812SOL    HW323015   3.493   3.360   2.550  1.0092  0.0525  0.0238
 5812SOL    MW423016   3.445   3.295   2.518  0.4603  0.5282 -0.1313
 5813SOL     OW23017   2.882   0.781   4.938 -0.0785 -0.0378 -0.8601
 5813SOL    HW223018   2.862   0.784   5.031  2.4472  1.3302 -0.2855
 5813SOL    HW323019   2.924   0.696   4.925  2.5170  1.0302  0.0014
 5813SOL    MW423020   2.885   0.770   4.948  0.5972  0.2836 -0.6706
 5814SOL     OW23021   3.866   2.671   0.592 -0.4824  0.4494 -0.3057
 5814SOL    HW223022   3.866   2.581   0.559 -1.8959  0.5435 -0.6343
 5814SOL    HW323023   3.957   2.700   0.583 -0.4375 -0.1721 -2.3951
 5814SOL    MW423024   3.878   2.663   0.586 -0.6629  0.3798 -0.6247
 5815SOL     OW23025   5.032   2.233   5.852  0.5239  0.0813 -0.4467
 5815SOL    HW223026   5.022   2.162   5.916 -2.8755  0.8700  0.0905
 5815SOL    HW323027   4.998   2.198   5.770  0.2189  0.5966 -0.5502
 5815SOL    MW423028   5.027   2.219   5.850  0.0352  0.2534 -0.3895
 5816SOL     OW23029   5.042   1.832   3.348 -0.7266  0.2639  0.0005
 5816SOL    HW223030   4.985   1.808   3.274  0.1032  1.3107 -0.9978
 5816SOL    HW323031   4.989   1.894   3.399 -1.5998 -1.0432  0.7608
 5816SOL    MW423032   5.027   1.837   3.345 -0.7324  0.2296 -0.0309
 5817SOL     OW23033   0.263   0.913   5.136 -0.1709 -0.1209 -0.3373
 5817SOL    HW223034   0.222   0.976   5.076 -2.6228  1.9736  3.1327
 5817SOL    HW323035   0.189   0.868   5.177  0.8522  1.7766  4.1988
 5817SOL    MW423036   0.248   0.915   5.134 -0.3594  0.4058  0.7190
 5818SOL     OW23037   0.691   4.646   0.637 -0.3124 -0.2095 -0.3376
 5818SOL    HW223038   0.784   4.621   0.638  0.1299  1.1778 -2.2307
 5818SOL    HW323039   0.651   4.588   0.572 -0.8545 -0.9347  0.6082
 5818SOL    MW423040   0.698   4.635   0.629 -0.3256 -0.1222 -0.4626
 5819SOL     OW23041   3.347   2.022   4.056 -0.3845  0.9619 -0.2048
 5819SOL    HW223042   3.372   2.083   3.985 -0.0001 -1.8762 -2.7096
 5819SOL    HW323043   3.429   1.977   4.078 -1.1729 -0.7166 -0.5745
 5819SOL    MW423044   3.361   2.024   4.049 -0.4378  0.3660 -0.5841
 5820SOL     OW23045   3.646   0.517   0.763 -0.2622  1.3057 -0.0661
 5820SOL    HW223046   3.728   0.470   0.748 -0.4029  0.9238  0.3432
 5820SOL    HW323047   3.663   0.571   0.840 -0.3994  1.2139  0.0291
 5820SOL    MW423048   3.659   0.518   0.771 -0.2989  1.2432  0.0004
 5821SOL     OW23049   2.032   1.798   2.224 -0.1841  0.1840 -0.3968
 5821SOL    HW223050   1.960   1.761   2.174 -2.0395  3.5532 -0.4353
 5821SOL    HW323051   2.012   1.775   2.315 -0.8717  0.4123 -0.4857
 5821SOL    MW423052   2.020   1.790   2.230 -0.5196  0.6587 -0.4136
 5822SOL     OW23053   3.012   0.795   2.849  0.1459  0.6948 -0.3235
 5822SOL    HW223054   3.083   0.852   2.876 -0.0377  0.8657 -0.1978
 5822SOL    HW323055   2.945   0.854   2.815 -0.0657  0.5594 -0.1428
 5822SOL    MW423056   3.012   0.810   2.848  0.0937  0.6995 -0.2830
 5823SOL     OW23057   2.587   0.936   2.468  0.2916 -0.3667 -0.1886
 5823SOL    HW223058   2.646   0.994   2.517  0.4580 -0.5750 -0.1405
 5823SOL    HW323059   2.516   0.918   2.530 -1.4467  2.3154 -1.2115
 5823SOL    MW423060   2.585   0.941   2.483  0.0842 -0.0403 -0.3172
 5824SOL     OW23061   0.431   3.654   1.208 -0.9029  0.0033  0.3171
 5824SOL    HW223062   0.450   3.631   1.299 -0.2632 -0.7498  0.0019
 5824SOL    HW323063   0.445   3.573   1.159  1.5126  1.0430 -0.8520
 5824SOL    MW423064   0.435   3.640   1.213 -0.4998  0.0411  0.1213
 5825SOL     OW23065   0.736   5.771   3.377 -0.5288  0.4362  0.2201
 5825SOL    HW223066   0.658   5.731   3.338  0.3168 -0.6516 -0.3970
 5825SOL    HW323067   0.722   5.865   3.366 -2.9876  0.4648  2.5167
 5825SOL    MW423068   0.724   5.778   3.370 -0.7416  0.2964  0.4417
 5826SOL     OW23069   3.324   3.291   4.878  0.5487 -0.3994 -0.4253
 5826SOL    HW223070   3.380   3.280   4.802  1.1789  0.9247 -0.1920
 5826SOL    HW323071   3.384   3.293   4.952  0.6677  3.7416 -0.3703
 5826SOL    MW423072   3.339   3.290   4.878  0.6476  0.3216 -0.3873
 5827SOL     OW23073   1.750   5.021   4.791  0.4180 -0.0895  0.4323
 5827SOL    HW223074   1.698   5.096   4.762 -1.4931 -0.9864  1.3592
 5827SOL    HW323075   1.816   5.010   4.723 -0.9533  0.7893 -1.1184
 5827SOL    MW423076   1.752   5.029   4.778 -0.0150 -0.0918  0.3500
 5828SOL     OW23077   3.435   4.593   1.404 -0.0977 -0.4679 -0.2121
 5828SOL    HW223078   3.497   4.617   1.472 -0.3824 -1.3186  0.3535
 5828SOL    HW323079   3.365   4.659   1.411  1.5549  1.6536 -2.0697
 5828SOL    MW423080   3.434   4.605   1.414  0.0828 -0.3002 -0.3826
 5829SOL     OW23081   1.486   0.507   3.604 -0.0606  0.5082  0.5217
 5829SOL    HW223082   1.515   0.469   3.687  0.6266  1.2952  0.6564
 5829SOL    HW323083   1.463   0.598   3.626 -0.8085  0.4481  0.0319
 5829SOL    MW423084   1.487   0.514   3.618 -0.0686  0.6041  0.4748
 5830SOL     OW23085   5.716   0.653   2.186  0.2082  0.2427 -0.1982
 5830SOL    HW223086   5.671   0.728   2.147 -0.3419 -0.8646 -1.7644
 5830SOL    HW323087   5.789   0.692   2.235 -0.4953  1.8311 -0.3551
 5830SOL    MW423088   5.720   0.668   2.188  0.0428  0.3062 -0.4256
 5831SOL     OW23089   3.778   3.024   1.537 -0.3359  0.6329  0.1202
 5831SOL    HW223090   3.822   3.108   1.548 -1.7120  1.4023 -0.0260
 5831SOL    HW323091   3.742   3.004   1.623 -1.3793  1.0052 -0.2175
 5831SOL    MW423092   3.779   3.032   1.550 -0.6551  0.7835  0.0564
 5832SOL     OW23093   2.597   3.729   5.296 -0.9898 -0.4347 -0.1954
 5832SOL    HW223094   2.576   3.671   5.223 -1.4102 -3.4617  2.1332
 5832SOL    HW323095   2.629   3.671   5.364 -2.1144  2.0220  2.6412
 5832SOL    MW423096   2.599   3.714   5.295 -1.1937 -0.5099  0.4861
 5833SOL     OW23097   1.045   0.625   4.137 -0.0279 -0.1747  0.5583
 5833SOL    HW223098   1.097   0.667   4.068 -0.6004 -0.0839  0.1797
 5833SOL    HW323099   1.020   0.698   4.194 -1.0877  0.0323 -0.1420
 5833SOL    MW423100   1.049   0.640   4.135 -0.2433 -0.1354  0.4160
 5834SOL     OW23101   4.179   3.641   3.191 -0.2841 -0.2705  0.1784
 5834SOL    HW223102   4.186   3.734   3.168  0.9080  0.0275  1.5827
 5834SOL    HW323103   4.102   3.637   3.249  0.1096 -0.0073  0.7316
 5834SOL    MW423104   4.169   3.653   3.196 -0.0749 -0.1965  0.4366
 5835SOL     OW23105   0.370   2.872   3.056  0.3415  0.3753 -0.0840
 5835SOL    HW223106   0.391   2.781   3.079  2.6101  1.0991  1.0992
 5835SOL    HW323107   0.437   2.897   2.992 -1.1111  0.8458 -1.5028
 5835SOL    MW423108   0.382   2.863   3.051  0.4492  0.5329 -0.1151
 5836SOL     OW23109   1.397   2.817   0.246  0.0559  0.7826  0.0244
 5836SOL    HW223110   1.333   2.756   0.208  0.6488 -0.5215  1.0277
 5836SOL    HW323111   1.438   2.859   0.171 -1.1879  0.8062 -0.6657
 5836SOL    MW423112   1.394   2.814   0.231 -0.0300  0.6137  0.0657
 5837SOL     OW23113   0.877   4.099   3.591 -0.1376 -0.6946  0.0584
 5837SOL    HW223114   0.816   4.158   3.635  0.5920  0.9089 -0.9598
 5837SOL    HW323115   0.956   4.152   3.579  1.2914 -2.5377  0.8576
 5837SOL    MW423116   0.879   4.114   3.595  0.1472 -0.7262  0.0295
 5838SOL     OW23117   1.290   0.998   5.884  0.4897  0.1461  0.1975
 5838SOL    HW223118   1.359   1.019   5.821  3.3667  0.0013  3.0556
 5838SOL    HW323119   1.231   1.073   5.881  2.4544  1.7483 -0.2346
 5838SOL    MW423120   1.291   1.011   5.875  1.1285  0.3384  0.5176
 5839SOL     OW23121   3.243   2.716   0.202  0.4441 -0.4638 -0.3675
 5839SOL    HW223122   3.295   2.652   0.154  2.2032  0.5107  0.1384
 5839SOL    HW323123   3.176   2.664   0.247  1.2554 -1.8237 -0.6801
 5839SOL    MW423124   3.241   2.701   0.202  0.7833 -0.5147 -0.3420
 5840SOL     OW23125   0.637   3.056   1.398  0.5121 -0.5038 -0.2844
 5840SOL    HW223126   0.568   3.105   1.442  0.7223  0.5745 -1.1207
 5840SOL    HW323127   0.717   3.105   1.415  0.4502  0.6047 -2.7236
 5840SOL    MW423128   0.639   3.069   1.406  0.5317 -0.2153 -0.7165
 5841SOL     OW23129   1.322   3.202   0.441  0.1788 -0.5087 -0.6064
 5841SOL    HW223130   1.249   3.142   0.424  0.4622 -0.7734 -0.9005
 5841SOL    HW323131   1.399   3.145   0.449 -0.0176 -0.5077  2.4605
 5841SOL    MW423132   1.323   3.187   0.440  0.1903 -0.5435 -0.2405
 5842SOL     OW23133   5.109   3.919   4.339  0.2932 -0.1424 -0.1331
 5842SOL    HW223134   5.085   4.001   4.295  0.4780 -0.4189 -0.7502
 5842SOL    HW323135   5.025   3.878   4.361  0.2008  0.1305  0.0356
 5842SOL    MW423136   5.094   3.925   4.336  0.3054 -0.1429 -0.1923
 5843SOL     OW23137   2.619   3.314   5.587 -0.0809 -0.0357 -0.3369
 5843SOL    HW223138   2.569   3.316   5.668 -0.6102  1.2828 -0.6564
 5843SOL    HW323139   2.675   3.237   5.594  0.4892  0.5045  1.6348
 5843SOL    MW423140   2.620   3.304   5.599 -0.0755  0.2095 -0.1190
 5844SOL     OW23141   2.700   4.866   3.406  0.7874 -0.1062 -0.1531
 5844SOL    HW223142   2.739   4.848   3.321 -0.7738 -0.8142 -0.7554
 5844SOL    HW323143   2.610   4.891   3.387 -0.3569 -2.5715  1.3636
 5844SOL    MW423144   2.693   4.867   3.393  0.4305 -0.5249 -0.0324
 5845SOL     OW23145   1.385   0.221   5.886 -0.3567 -0.0805  0.7025
 5845SOL    HW223146   1.290   0.228   5.884 -0.8221 -4.0181 -1.7372
 5845SOL    HW323147   1.403   0.145   5.941  1.4047  0.5065  1.0070
 5845SOL    MW423148   1.375   0.212   5.893 -0.1857 -0.5226  0.4208
 5846SOL     OW23149   4.514   3.348   5.515  0.0747  0.3787  0.4226
 5846SOL    HW223150   4.590   3.308   5.557  0.6956 -0.4090 -1.3313
 5846SOL    HW323151   4.551   3.422   5.466 -0.0125 -0.8002 -1.5217
 5846SOL    MW423152   4.529   3.353   5.514  0.1451  0.1193 -0.0653
 5847SOL     OW23153   2.067   0.834   2.607  0.1866  0.3639  0.5182
 5847SOL    HW223154   2.105   0.921   2.597 -0.5442  0.7587  1.0527
 5847SOL    HW323155   2.062   0.800   2.517 -0.1092  1.1345  0.2316
 5847SOL    MW423156   2.071   0.841   2.593  0.0512  0.5177  0.5509
 5848SOL     OW23157   6.115   3.185   2.091 -0.5690 -0.1760  0.0435
 5848SOL    HW223158   6.051   3.255   2.084  1.4450  1.6102 -2.3156
 5848SOL    HW323159   6.135   3.181   2.185 -1.6677  1.5433  0.4009
 5848SOL    MW423160   6.109   3.194   2.103 -0.4482  0.2865 -0.2206
 5849SOL     OW23161   0.360   0.689   0.388 -0.0936 -0.0277 -0.2107
 5849SOL    HW223162   0.282   0.653   0.346 -0.5397  2.4693 -1.7135
 5849SOL    HW323163   0.326   0.744   0.459 -0.0229  3.1972 -2.4928
 5849SOL    MW423164   0.345   0.691   0.392 -0.1431  0.7272 -0.7100
 5850SOL     OW23165   1.669   0.407   1.458  0.4708  0.6817 -0.4818
 5850SOL    HW223166   1.719   0.359   1.392 -0.3466 -4.3318  2.0094
 5850SOL    HW323167   1.577   0.390   1.436  0.1693 -1.4501  1.8832
 5850SOL    MW423168   1.663   0.398   1.447  0.3232 -0.2611  0.1589
 5851SOL     OW23169   5.815   2.357   3.720  0.8165  0.0423 -0.8141
 5851SOL    HW223170   5.841   2.413   3.793  2.9831 -0.7001 -0.9741
 5851SOL    HW323171   5.720   2.347   3.731  0.8316  1.3279  0.8911
 5851SOL    MW423172   5.806   2.363   3.731  1.1044  0.1139 -0.6102
 5852SOL     OW23173   2.621   4.843   2.935  0.6622  0.1651  0.4706
 5852SOL    HW223174   2.552   4.824   2.871  1.5209 -0.1865 -0.3618
 5852SOL    HW323175   2.593   4.925   2.976  0.2737  0.5975 -0.6163
 5852SOL    MW423176   2.608   4.851   2.932  0.7242  0.1758  0.2174
 5853SOL     OW23177   2.302   3.228   0.750 -0.1371 -0.4436 -0.5449
 5853SOL    HW223178   2.381   3.262   0.709  0.0424  0.2319  0.3379
 5853SOL    HW323179   2.247   3.305   0.764  0.0426 -0.5599  0.9871
 5853SOL    MW423180   2.305   3.243   0.746 -0.0897 -0.3698 -0.2263
 5854SOL     OW23181   5.596   0.890   2.075 -0.2911  0.1034 -0.8608
 5854SOL    HW223182   5.662   0.929   2.017 -0.0445 -0.2149 -0.8010
 5854SOL    HW323183   5.513   0.904   2.029 -0.1334  0.1279 -1.1468
 5854SOL    MW423184   5.594   0.897   2.061 -0.2378  0.0646 -0.8906
 5855SOL     OW23185   0.655   0.900   1.333 -0.3981  0.3755 -0.2075
 5855SOL    HW223186   0.622   0.813   1.314  0.7067 -1.0090  3.4315
 5855SOL    HW323187   0.583   0.944   1.379 -0.5867  1.0694 -1.1222
 5855SOL    MW423188   0.641   0.895   1.337 -0.2772  0.2844  0.1519
 5856SOL     OW23189   4.570   4.603   5.765 -0.0902 -0.3029  0.4245
 5856SOL    HW223190   4.487   4.556   5.771 -0.1243 -0.3050  0.0107
 5856SOL    HW323191   4.555   4.670   5.698  0.5144 -0.8991 -0.3296
 5856SOL    MW423192   4.557   4.606   5.757 -0.0149 -0.3819  0.2704
 5857SOL     OW23193   1.833   2.550   5.929  0.0878  0.7605 -0.2135
 5857SOL    HW223194   1.870   2.633   5.958 -1.7822  1.6748 -0.3104
 5857SOL    HW323195   1.835   2.494   6.007 -1.1277  1.8217  0.6078
 5857SOL    MW423196   1.838   2.553   5.943 -0.3193  1.0212 -0.1179
 5858SOL     OW23197   4.751   1.136   3.245  0.5432 -0.2417 -0.3193
 5858SOL    HW223198   4.786   1.058   3.201 -1.3507 -0.8274 -0.8498
 5858SOL    HW323199   4.710   1.187   3.176  1.8451  1.3477 -0.0003
 5858SOL    MW423200   4.750   1.133   3.230  0.4651 -0.1093 -0.3472
 5859SOL     OW23201   6.021   4.122   4.736 -0.4400  0.4429 -0.2234
 5859SOL    HW223202   5.996   4.030   4.731 -1.2113  0.5973  0.5814
 5859SOL    HW323203   5.993   4.160   4.653 -1.5609  0.2935  0.0805
 5859SOL    MW423204   6.014   4.115   4.724 -0.6897  0.4435 -0.0771
 5860SOL     OW23205   5.895   5.756   1.881 -0.1409  0.0169  0.6497
 5860SOL    HW223206   5.917   5.776   1.972  0.9245  1.2251  0.1488
 5860SOL    HW323207   5.943   5.675   1.863 -0.6276 -0.4221  1.2341
 5860SOL    MW423208   5.904   5.748   1.891 -0.0645  0.1184  0.6608
 5861SOL     OW23209   0.498   0.550   4.198 -0.0197  0.2280  0.0690
 5861SOL    HW223210   0.468   0.564   4.288 -0.6437  1.9679 -0.3487
 5861SOL    HW323211   0.537   0.463   4.198 -0.3295  0.0480  1.9327
 5861SOL    MW423212   0.499   0.541   4.210 -0.1429  0.4338  0.2598
 5862SOL     OW23213   3.361   3.447   3.686  0.2145 -0.0461  0.1478
 5862SOL    HW223214   3.430   3.405   3.635  0.7830  0.8489  0.1734
 5862SOL    HW323215   3.404   3.477   3.765 -0.4508 -0.4917  0.6953
 5862SOL    MW423216   3.376   3.445   3.689  0.2017  0.0132  0.2234
 5863SOL     OW23217   0.497   1.542   4.763  0.0439  0.2430 -0.5279
 5863SOL    HW223218   0.404   1.522   4.776  0.2632  0.4655  1.7301
 5863SOL    HW323219   0.498   1.634   4.737 -0.4163 -0.0618 -1.6597
 5863SOL    MW423220   0.485   1.552   4.761  0.0121  0.2322 -0.3793
 5864SOL     OW23221   4.924   0.203   1.797  0.2427 -0.3401  1.2109
 5864SOL    HW223222   4.843   0.253   1.808 -0.7650 -1.6676  0.0573
 5864SOL    HW323223   4.934   0.193   1.703  1.4845 -0.6390  1.3569
 5864SOL    MW423224   4.915   0.209   1.786  0.2736 -0.5547  1.0780
 5865SOL     OW23225   2.470   1.483   2.988  0.0923  0.0859 -0.4648
 5865SOL    HW223226   2.504   1.562   3.031  1.8583  0.0509 -1.7051
 5865SOL    HW323227   2.542   1.421   2.991 -1.1090 -1.3509  0.0452
 5865SOL    MW423228   2.484   1.485   2.994  0.1668 -0.1083 -0.5612
 5866SOL     OW23229   5.581   3.214   5.213 -0.2228 -0.2375 -0.6196
 5866SOL    HW223230   5.538   3.298   5.229  0.4593 -0.0539  0.2859
 5866SOL    HW323231   5.560   3.161   5.290  2.3331  0.3449  0.5942
 5866SOL    MW423232   5.572   3.218   5.225  0.2044 -0.1364 -0.3400
 5867SOL     OW23233   4.442   2.892   5.671 -0.2736  0.1969  0.4630
 5867SOL    HW223234   4.365   2.948   5.662  0.5551  1.4040  0.7109
 5867SOL    HW323235   4.440   2.863   5.762 -0.3475  0.3715  0.5174
 5867SOL    MW423236   4.432   2.895   5.682 -0.1740  0.3792  0.5029
 5868SOL     OW23237   2.647   3.565   4.561 -0.4057 -0.4026  0.2222
 5868SOL    HW223238   2.639   3.659   4.547 -0.6896 -0.2616  1.2292
 5868SOL    HW323239   2.587   3.526   4.499 -1.0917  0.1400  0.5280
 5868SOL    MW423240   2.638   3.572   4.551 -0.5337 -0.3124  0.3954
 5869SOL     OW23241   6.041   2.662   1.267  0.0822 -0.4519 -0.7607
 5869SOL    HW223242   6.123   2.696   1.231 -0.6179  0.7759 -1.2479
 5869SOL    HW323243   6.068   2.605   1.338  1.3889 -0.6760 -1.4069
 5869SOL    MW423244   6.055   2.659   1.271  0.1623 -0.3195 -0.9103
 5870SOL     OW23245   5.126   0.548   0.057  0.3577  0.4642 -0.1502
 5870SOL    HW223246   5.218   0.525   0.046  0.6996  2.0365 -0.8051
 5870SOL    HW323247   5.091   0.547  -0.032 -0.1918  0.1894  0.0626
 5870SOL    MW423248   5.133   0.545   0.044  0.3303  0.6354 -0.2085
 5871SOL     OW23249   3.519   1.620   2.431  0.1529 -0.0436  0.6714
 5871SOL    HW223250   3.432   1.606   2.392  0.3774  1.1653 -0.3370
 5871SOL    HW323251   3.500   1.659   2.517 -0.3104  0.3159  0.4116
 5871SOL    MW423252   3.505   1.623   2.437  0.1214  0.1633  0.5041
 5872SOL     OW23253   3.211   3.727   3.929 -0.2495  0.3431 -0.0427
 5872SOL    HW223254   3.166   3.644   3.940 -0.5719  0.5739  0.4156
 5872SOL    HW323255   3.188   3.756   3.841 -0.1858 -0.0187 -0.1805
 5872SOL    MW423256   3.202   3.720   3.919 -0.2836  0.3258 -0.0004
 5873SOL     OW23257   6.419   4.986   3.502  0.3205 -0.0365  0.2083
 5873SOL    HW223258   6.400   5.031   3.419  0.9172  0.8499  0.5418
 5873SOL    HW323259   6.458   5.053   3.558 -0.5078 -0.5060  1.3881
 5873SOL    MW423260   6.422   5.001   3.498  0.2899  0.0185  0.4080
 5874SOL     OW23261   1.069   0.528   0.449  0.1022  0.2383 -0.3094
 5874SOL    HW223262   1.131   0.456   0.442  1.3032  1.0461  1.2248
 5874SOL    HW323263   0.996   0.493   0.500  0.4211 -0.0438 -0.0458
 5874SOL    MW423264   1.068   0.514   0.455  0.3028  0.3077 -0.0722
 5875SOL     OW23265   0.836   0.364   4.347 -1.0990 -0.0477  0.3314
 5875SOL    HW223266   0.892   0.394   4.419 -0.0367  0.2154 -0.5928
 5875SOL    HW323267   0.816   0.443   4.297  0.3965 -0.5899 -1.1986
 5875SOL    MW423268   0.841   0.378   4.350 -0.7615 -0.0845  0.0076
 5876SOL     OW23269   4.289   2.958   0.651  0.0212 -0.7709  0.5606
 5876SOL    HW223270   4.226   2.891   0.624  0.5676 -1.1340  0.1618
 5876SOL    HW323271   4.275   3.031   0.591  2.0801 -2.0406 -1.6445
 5876SOL    MW423272   4.279   2.959   0.640  0.3649 -0.9864  0.2170
 5877SOL     OW23273   5.618   0.562   1.509  0.0719  0.6262  0.2046
 5877SOL    HW223274   5.534   0.608   1.514  0.2179  0.7963  1.6906
 5877SOL    HW323275   5.637   0.538   1.600  0.7664 -0.9898 -0.3301
 5877SOL    MW423276   5.609   0.565   1.522  0.1828  0.4354  0.3301
 5878SOL     OW23277   0.228   3.237   4.587 -0.4985  0.0075  0.3052
 5878SOL    HW223278   0.258   3.212   4.499 -0.6100 -0.1595  0.3139
 5878SOL    HW323279   0.146   3.189   4.598 -0.7789  0.4762  0.2744
 5878SOL    MW423280   0.222   3.228   4.577 -0.5502  0.0473  0.3023
 5879SOL     OW23281   1.114   0.464   0.050  0.2060  0.2060 -0.4767
 5879SOL    HW223282   1.136   0.403  -0.020  0.8356  0.3267 -0.3911
 5879SOL    HW323283   1.197   0.506   0.072 -0.2091  1.0737 -0.5121
 5879SOL    MW423284   1.128   0.462   0.044  0.2343  0.3364 -0.4701
 5880SOL     OW23285   1.813   2.094   4.969 -0.1553 -0.1244  0.0110
 5880SOL    HW223286   1.845   2.074   4.881  0.3854  0.2481  0.1178
 5880SOL    HW323287   1.841   2.184   4.985 -3.8234  1.4294 -1.0836
 5880SOL    MW423288   1.821   2.103   4.959 -0.5679  0.1298 -0.1193
 5881SOL     OW23289   5.736   2.064   1.267 -0.4601  0.0337 -0.4213
 5881SOL    HW223290   5.777   2.140   1.307  1.0908 -0.0982 -1.6555
 5881SOL    HW323291   5.798   2.035   1.200 -0.6793 -2.6874  0.4120
 5881SOL    MW423292   5.749   2.070   1.263 -0.2844 -0.3427 -0.4742
 5882SOL     OW23293   3.979   0.916   6.232  0.0319  0.0617 -0.1511
 5882SOL    HW223294   3.992   1.011   6.239 -0.4356  0.2391 -1.4796
 5882SOL    HW323295   3.929   0.893   6.311 -3.3375  1.6040 -1.6410
 5882SOL    MW423296   3.974   0.926   6.243 -0.4743  0.2886 -0.5229
 5883SOL     OW23297   3.570   2.924   5.357 -0.2836  0.0058  0.0352
 5883SOL    HW223298   3.492   2.902   5.409 -0.6307 -1.6835 -1.1020
 5883SOL    HW323299   3.539   2.923   5.266  0.7093  1.0492 -0.3323
 5883SOL    MW423300   3.556   2.921   5.352 -0.1984 -0.0794 -0.1634
 5884SOL     OW23301   1.279   5.230   1.540  0.0671 -0.3342  0.3500
 5884SOL    HW223302   1.210   5.164   1.548 -0.2754 -0.2410 -1.3898
 5884SOL    HW323303   1.252   5.301   1.598 -0.5358 -0.9378  0.8106
 5884SOL    MW423304   1.266   5.231   1.548 -0.0577 -0.4016  0.1812
 5885SOL     OW23305   2.814   0.057   5.332  0.0153  0.1189 -0.3417
 5885SOL    HW223306   2.909   0.068   5.346  0.0653 -0.5190 -0.1531
 5885SOL    HW323307   2.801   0.081   5.240  0.5934 -1.1579 -0.7794
 5885SOL    MW423308   2.825   0.062   5.321  0.0982 -0.1337 -0.3745
 5886SOL     OW23309   0.058   5.197   5.067 -0.1128 -0.0268 -0.2540
 5886SOL    HW223310   0.096   5.281   5.093 -0.1793 -0.2131  0.4494
 5886SOL    HW323311   0.049   5.148   5.148 -0.0390 -0.7376 -0.6667
 5886SOL    MW423312   0.062   5.202   5.081 -0.1118 -0.1451 -0.2156
 5887SOL     OW23313   5.347   4.480   0.197 -0.3193 -0.1433  0.3755
 5887SOL    HW223314   5.278   4.470   0.131  0.4007 -1.2787 -0.2294
 5887SOL    HW323315   5.301   4.513   0.274 -1.6146 -1.2023  0.0914
 5887SOL    MW423316   5.332   4.483   0.198 -0.3952 -0.4329  0.2582
 5888SOL     OW23317   3.035   1.897   3.213  0.4087 -0.6400  0.3604
 5888SOL    HW223318   3.023   1.807   3.243  0.0401 -0.3915  0.9765
 5888SOL    HW323319   3.090   1.937   3.281  2.8290 -1.0891 -1.1833
 5888SOL    MW423320   3.041   1.890   3.226  0.6794 -0.6665  0.2380
 5889SOL     OW23321   5.105   2.681   4.682  0.1258 -0.1469  0.2487
 5889SOL    HW223322   5.176   2.729   4.641 -0.0858 -0.0342  0.0165
 5889SOL    HW323323   5.128   2.680   4.775  0.8321 -0.7964  0.0733
 5889SOL    MW423324   5.117   2.687   4.689  0.1911 -0.2177  0.1949
 5890SOL     OW23325   4.983   0.302   2.480  0.1596 -0.1005 -0.0784
 5890SOL    HW223326   5.061   0.246   2.481 -0.0963 -0.5003 -1.4317
 5890SOL    HW323327   4.949   0.295   2.570  0.5634 -1.5234 -0.0004
 5890SOL    MW423328   4.989   0.294   2.492  0.1791 -0.3410 -0.2466
 5891SOL     OW23329   6.339   4.982   2.439 -0.2096  0.7513 -0.1292
 5891SOL    HW223330   6.323   4.901   2.390 -3.0474  1.9923 -1.4897
 5891SOL    HW323331   6.295   4.969   2.522  0.8479  0.3031  0.3871
 5891SOL    MW423332   6.331   4.969   2.443 -0.4445  0.8559 -0.2406
 5892SOL     OW23333   0.867   3.407   5.994 -0.2476 -0.2471 -0.5102
 5892SOL    HW223334   0.906   3.458   6.065  2.3285 -1.5408 -0.8668
 5892SOL    HW323335   0.883   3.459   5.915 -0.0268 -0.3741 -0.5500
 5892SOL    MW423336   0.874   3.421   5.993  0.1215 -0.4345 -0.5625
 5893SOL     OW23337   3.715   1.419   3.762  0.3550  0.1148 -0.3071
 5893SOL    HW223338   3.779   1.468   3.812 -0.2169  1.0808 -0.4884
 5893SOL    HW323339   3.631   1.462   3.781 -0.1719 -0.8077 -0.4565
 5893SOL    MW423340   3.712   1.431   3.771  0.2100  0.1205 -0.3508
 5894SOL     OW23341   1.104   1.717   3.033 -0.5794  0.4866  0.4842
 5894SOL    HW223342   1.020   1.707   2.987 -0.2406 -0.6558  0.0635
 5894SOL    HW323343   1.169   1.718   2.963 -0.2080  0.8328  0.8356
 5894SOL    MW423344   1.102   1.716   3.017 -0.4857  0.3815  0.4751
 5895SOL     OW23345   6.036   5.455   0.339  0.1534 -0.0821 -0.1744
 5895SOL    HW223346   6.105   5.457   0.273 -0.0000  2.1471 -0.3624
 5895SOL    HW323347   6.065   5.518   0.406 -0.7252 -0.6556  0.7825
 5895SOL    MW423348   6.049   5.464   0.339  0.0173  0.1363 -0.0729
 5896SOL     OW23349   2.379   0.132   4.279  0.2207  0.1532 -0.2409
 5896SOL    HW223350   2.463   0.090   4.301 -0.1775 -0.8055 -0.5168
 5896SOL    HW323351   2.400   0.225   4.276  1.2802 -0.0661 -0.2822
 5896SOL    MW423352   2.393   0.138   4.281  0.3080 -0.0022 -0.2828
 5897SOL     OW23353   4.200   5.229   2.698  0.2205 -0.4591  0.7083
 5897SOL    HW223354   4.290   5.211   2.727  0.3239  0.3079  0.8886
 5897SOL    HW323355   4.200   5.323   2.678 -0.4377 -0.5378  0.3319
 5897SOL    MW423356   4.212   5.239   2.699  0.1473 -0.3683  0.6824
 5898SOL     OW23357   0.859   2.633   1.334 -0.1675  0.5250 -0.1950
 5898SOL    HW223358   0.764   2.621   1.333  0.0292 -1.7029  1.4632
 5898SOL    HW323359   0.871   2.728   1.339 -2.3576  0.8069  0.9044
 5898SOL    MW423360   0.848   2.644   1.335 -0.4305  0.2682  0.1688
 5899SOL     OW23361   2.915   5.823   4.933 -0.5815 -0.1247 -0.2360
 5899SOL    HW223362   2.879   5.866   5.011  0.1957 -2.3669  1.4917
 5899SOL    HW323363   3.007   5.848   4.932 -0.5346 -0.3005 -0.2949
 5899SOL    MW423364   2.922   5.832   4.943 -0.4727 -0.4437 -0.0158
 5900SOL     OW23365   5.783   5.508   0.752  0.2390 -0.3007  0.6705
 5900SOL    HW223366   5.835   5.428   0.750  1.7500  0.6301 -0.9706
 5900SOL    HW323367   5.832   5.567   0.809  0.6215  0.3123 -0.2514
 5900SOL    MW423368   5.797   5.505   0.759  0.4888 -0.0970  0.3324
 5901SOL     OW23369   0.106   4.436   0.488 -0.4770 -0.1895 -0.5173
 5901SOL    HW223370   0.117   4.430   0.583  0.2609 -1.8690 -0.6797
 5901SOL    HW323371   0.175   4.381   0.452 -0.3198  0.9373 -2.0757
 5901SOL    MW423372   0.117   4.428   0.496 -0.3589 -0.2624 -0.7444
 5902SOL     OW23373   1.123   4.361   2.013  0.0115  0.2465  0.7823
 5902SOL    HW223374   1.074   4.418   2.072  0.4256  0.9653  0.4349
 5902SOL    HW323375   1.185   4.419   1.969  0.5770 -0.5043  0.5716
 5902SOL    MW423376   1.125   4.376   2.015  0.1408  0.2423  0.7087
 5903SOL     OW23377   0.697   5.385   5.679  0.3724  0.1063  0.5537
 5903SOL    HW223378   0.624   5.324   5.686  1.0307 -0.5610  2.1531
 5903SOL    HW323379   0.755   5.346   5.613  0.1240 -0.2692  0.5572
 5903SOL    MW423380   0.695   5.372   5.671  0.4264 -0.0313  0.7652
 5904SOL     OW23381   1.758   3.793   3.561  0.1504 -0.4794  0.1910
 5904SOL    HW223382   1.703   3.756   3.492 -0.3129 -0.5424  0.5853
 5904SOL    HW323383   1.842   3.748   3.552 -0.3571 -1.5229  0.5778
 5904SOL    MW423384   1.762   3.782   3.551  0.0223 -0.6254  0.2941
 5905SOL     OW23385   5.280   2.900   5.519 -0.5465 -0.0088  0.0919
 5905SOL    HW223386   5.185   2.911   5.521 -0.3406  1.8505  0.7844
 5905SOL    HW323387   5.296   2.824   5.576 -1.6429 -0.8641 -0.6737
 5905SOL    MW423388   5.270   2.891   5.527 -0.6640  0.1236  0.0823
 5906SOL     OW23389   6.162   5.041   0.666  0.1630  0.5598 -0.3384
 5906SOL    HW223390   6.156   4.963   0.721  2.0537  0.5403 -0.1050
 5906SOL    HW323391   6.076   5.047   0.624 -0.6722 -0.5281  1.1172
 5906SOL    MW423392   6.150   5.031   0.667  0.3023  0.4137 -0.1156
 5907SOL     OW23393   2.773   4.237   4.034 -0.1181  0.1547 -0.1502
 5907SOL    HW223394   2.733   4.323   4.045 -0.2332  0.0403  0.3729
 5907SOL    HW323395   2.703   4.175   4.057 -0.3932 -0.1181 -1.6432
 5907SOL    MW423396   2.759   4.240   4.038 -0.1696  0.1036 -0.2781
 5908SOL     OW23397   2.364   1.272   6.117  0.0973  0.3216  0.0660
 5908SOL    HW223398   2.358   1.177   6.104 -1.2713  0.3265  0.4160
 5908SOL    HW323399   2.444   1.285   6.168  0.4041 -0.6221 -0.1594
 5908SOL    MW423400   2.374   1.261   6.122 -0.0428  0.1977  0.0824
 5909SOL     OW23401   2.998   4.582   5.380 -0.1932 -0.0144  0.0971
 5909SOL    HW223402   2.920   4.545   5.340 -0.9348  0.3867  1.1459
 5909SOL    HW323403   3.017   4.661   5.328 -1.8384  1.1672  1.1793
 5909SOL    MW423404   2.991   4.588   5.368 -0.5081  0.1944  0.3783
 5910SOL     OW23405   3.187   5.360   1.933  0.1608 -1.2002 -0.4888
 5910SOL    HW223406   3.264   5.412   1.954 -0.4691 -0.5574  0.2957
 5910SOL    HW323407   3.199   5.278   1.980  0.9218 -1.5770 -1.3273
 5910SOL    MW423408   3.199   5.356   1.942  0.1781 -1.1651 -0.4959
 5911SOL     OW23409   2.893   2.401   0.020 -0.0275  0.0033 -0.0103
 5911SOL    HW223410   2.967   2.460   0.006 -0.3486  0.4741  0.2109
 5911SOL    HW323411   2.873   2.366  -0.067 -1.5294  2.3078 -0.6817
 5911SOL    MW423412   2.900   2.404   0.007 -0.2680  0.3695 -0.0697
 5912SOL     OW23413   3.032   1.098   1.800 -0.0697  1.0130 -0.1173
 5912SOL    HW223414   3.083   1.152   1.739 -0.1642  1.6698  0.3737
 5912SOL    HW323415   2.953   1.150   1.818 -0.5686  0.3388 -0.2843
 5912SOL    MW423416   3.028   1.112   1.794 -0.1480  1.0107 -0.0746
 5913SOL     OW23417   2.735   5.470   3.673 -0.4145 -0.3392  0.0067
 5913SOL    HW223418   2.827   5.494   3.663 -0.4978  0.5436  1.1820
 5913SOL    HW323419   2.735   5.400   3.738 -0.6914  0.7779  1.2382
 5913SOL    MW423420   2.747   5.464   3.680 -0.4620 -0.0753  0.3242
 5914SOL     OW23421   0.901   2.015   2.591  0.2315  0.1314  0.7695
 5914SOL    HW223422   0.986   2.020   2.635  1.0889  1.8889 -0.9406
 5914SOL    HW323423   0.882   2.106   2.567 -0.3536 -0.6698 -2.1021
 5914SOL    MW423424   0.910   2.028   2.594  0.2675  0.2576  0.1650
 5915SOL     OW23425   1.462   5.471   4.248  0.6826 -0.2106 -0.1777
 5915SOL    HW223426   1.537   5.457   4.306  1.3844  1.9870 -0.4591
 5915SOL    HW323427   1.403   5.526   4.299 -0.4201 -1.3042 -0.2404
 5915SOL    MW423428   1.464   5.476   4.263  0.6297 -0.0649 -0.2231
 5916SOL     OW23429   0.290   5.385   4.117  0.2802 -0.3858  0.7026
 5916SOL    HW223430   0.212   5.344   4.153  1.4725 -1.3942  2.2703
 5916SOL    HW323431   0.310   5.334   4.038 -0.2745 -0.5282  0.6528
 5916SOL    MW423432   0.283   5.373   4.111  0.3643 -0.5376  0.9028
 5917SOL     OW23433   2.019   3.678   3.497  0.3609 -0.3857 -0.2391
 5917SOL    HW223434   2.062   3.593   3.503 -1.5638 -1.3615  0.3292
 5917SOL    HW323435   1.991   3.685   3.406  1.5030  0.1794 -0.5691
 5917SOL    MW423436   2.021   3.668   3.486  0.2576 -0.4399 -0.2076
 5918SOL     OW23437   3.434   0.542   5.747 -0.6598  0.0076  0.5514
 5918SOL    HW223438   3.451   0.574   5.836 -0.4930  0.8040  0.2376
 5918SOL    HW323439   3.464   0.451   5.749 -1.7721 -0.3602  1.6431
 5918SOL    MW423440   3.440   0.534   5.759 -0.7845  0.0641  0.6540
 5919SOL     OW23441   5.867   2.037   1.032  0.0682  0.0986  0.8437
 5919SOL    HW223442   5.785   2.032   0.983  0.1110 -1.4986  0.8676
 5919SOL    HW323443   5.909   2.118   1.002 -0.3104 -0.3912 -1.1330
 5919SOL    MW423444   5.862   2.047   1.021  0.0239 -0.1767  0.5861
 5920SOL     OW23445   4.258   4.925   1.598  0.1965 -0.1840 -0.6378
 5920SOL    HW223446   4.197   4.943   1.526  0.6410  0.7545 -0.8018
 5920SOL    HW323447   4.341   4.962   1.568  0.1037  1.3308  0.8290
 5920SOL    MW423448   4.261   4.932   1.584  0.2429  0.1397 -0.4659
 5921SOL     OW23449   4.609   2.170   5.191 -0.1752  0.4080  0.4932
 5921SOL    HW223450   4.582   2.109   5.123  1.7065  1.1341 -0.9967
 5921SOL    HW323451   4.699   2.144   5.212 -0.0395  1.4433  1.2573
 5921SOL    MW423452   4.618   2.159   5.185  0.0910  0.6404  0.3974
 5922SOL     OW23453   3.755   2.698   3.385 -0.5114  0.2967  0.3448
 5922SOL    HW223454   3.721   2.610   3.369 -1.0818  0.6059 -0.1823
 5922SOL    HW323455   3.847   2.684   3.407 -0.6401 -0.4451  0.4579
 5922SOL    MW423456   3.763   2.684   3.386 -0.6037  0.2396  0.2902
 5923SOL     OW23457   3.645   0.192   1.106  0.1290 -0.7421  0.2610
 5923SOL    HW223458   3.643   0.150   1.191 -0.0874 -0.5930  0.3306
 5923SOL    HW323459   3.555   0.218   1.089  0.5470  1.5047  1.1420
 5923SOL    MW423460   3.633   0.190   1.115  0.1556 -0.4260  0.3864
 5924SOL     OW23461   3.922   1.765   0.919  0.2641 -0.1048 -0.1301
 5924SOL    HW223462   3.889   1.677   0.931 -0.2346 -0.1714 -1.6901
 5924SOL    HW323463   3.930   1.775   0.824 -0.7725  1.9048 -0.0770
 5924SOL    MW423464   3.919   1.755   0.908  0.0615  0.1515 -0.3289
 5925SOL     OW23465   0.108   3.424   3.015  0.4360 -0.3641  0.2661
 5925SOL    HW223466   0.057   3.400   2.938 -1.0122 -0.6783  1.2904
 5925SOL    HW323467   0.175   3.355   3.020 -0.4522 -1.2692  0.1855
 5925SOL    MW423468   0.110   3.411   3.006  0.1277 -0.5249  0.3906
 5926SOL     OW23469   0.875   6.058   2.361  0.6290 -0.5188  0.1683
 5926SOL    HW223470   0.799   6.039   2.416  1.0362 -1.7901  0.3108
 5926SOL    HW323471   0.880   5.985   2.300  0.3974  0.6868 -1.3748
 5926SOL    MW423472   0.866   6.046   2.360  0.6522 -0.5275 -0.0165
 5927SOL     OW23473   5.186   2.163   5.513  0.0130 -0.2715  0.1210
 5927SOL    HW223474   5.223   2.231   5.457 -0.4072 -0.4140 -0.3388
 5927SOL    HW323475   5.216   2.185   5.601  1.0933 -0.3173 -0.2211
 5927SOL    MW423476   5.195   2.174   5.517  0.1001 -0.2963  0.0152
 5928SOL     OW23477   4.628   2.528   2.234  0.1507  0.1268  1.0757
 5928SOL    HW223478   4.595   2.611   2.271 -1.0927  0.8718 -1.4263
 5928SOL    HW323479   4.721   2.544   2.217 -0.2483  1.4141 -0.1722
 5928SOL    MW423480   4.636   2.541   2.237 -0.0660  0.3950  0.5809
 5929SOL     OW23481   2.029   0.833   1.350  0.2917  0.3753  0.2218
 5929SOL    HW223482   2.051   0.752   1.396  0.3727  0.6972  0.7601
 5929SOL    HW323483   1.950   0.864   1.394 -0.2959  0.0893 -0.6166
 5929SOL    MW423484   2.022   0.826   1.362  0.2249  0.3800  0.1822
 5930SOL     OW23485   0.227   4.748   1.382  0.4310  0.0420 -0.1341
 5930SOL    HW223486   0.145   4.714   1.418  1.3799 -0.1291  2.0273
 5930SOL    HW323487   0.209   4.760   1.289 -2.1750  0.4110  0.3283
 5930SOL    MW423488   0.214   4.745   1.374  0.2124  0.0681  0.2121
 5931SOL     OW23489   3.527   2.473   2.425  0.0506  0.7832 -0.6614
 5931SOL    HW223490   3.577   2.530   2.484  1.2410  1.2906 -2.1041
 5931SOL    HW323491   3.491   2.405   2.482 -0.6354  2.4305  0.9798
 5931SOL    MW423492   3.529   2.472   2.440  0.1172  1.0675 -0.6352
 5932SOL     OW23493   6.146   4.660   1.812 -0.2311 -0.4658 -0.2028
 5932SOL    HW223494   6.063   4.623   1.841 -0.7057  1.2896  0.8903
 5932SOL    HW323495   6.144   4.653   1.717 -1.2075 -1.3143 -0.1292
 5932SOL    MW423496   6.135   4.654   1.803 -0.4225 -0.3461 -0.0489
 5933SOL     OW23497   4.618   6.083   1.045 -0.1749  0.2316  0.1233
 5933SOL    HW223498   4.675   6.078   1.122 -0.7105  2.0887  0.6951
 5933SOL    HW323499   4.677   6.094   0.971  0.3550 -1.7264  0.2019
 5933SOL    MW423500   4.633   6.083   1.046 -0.1757  0.2183  0.2091
 5934SOL     OW23501   4.983   6.105   6.028 -0.4816 -0.2745 -0.4476
 5934SOL    HW223502   5.007   6.197   6.021  0.6417 -0.4966  0.1671
 5934SOL    HW323503   4.998   6.069   5.941 -3.0187  0.5515 -1.3084
 5934SOL    MW423504   4.988   6.112   6.016 -0.6681 -0.1948 -0.4801
 5935SOL     OW23505   1.428   5.699   1.404  0.3799  0.2598 -0.2382
 5935SOL    HW223506   1.447   5.758   1.477 -0.3692  1.4755 -0.9986
 5935SOL    HW323507   1.449   5.612   1.438  0.7509  0.8734  1.1743
 5935SOL    MW423508   1.433   5.695   1.418  0.3300  0.5011 -0.1522
 5936SOL     OW23509   4.527   1.815   4.541  0.1204  0.3625 -0.3377
 5936SOL    HW223510   4.590   1.887   4.550  1.5256 -0.7189 -0.9285
 5936SOL    HW323511   4.477   1.837   4.462  0.0572  1.0256 -0.1185
 5936SOL    MW423512   4.529   1.828   4.532  0.2975  0.3073 -0.3867
 5937SOL     OW23513   6.223   3.559   3.513  0.1522  0.0580 -0.1823
 5937SOL    HW223514   6.212   3.465   3.497 -0.4752  0.5037 -2.8666
 5937SOL    HW323515   6.135   3.596   3.499  0.7454  1.2223 -1.0777
 5937SOL    MW423516   6.210   3.552   3.509  0.1477  0.2704 -0.6546
 5938SOL     OW23517   1.815   3.503   0.460  0.1412  0.1604  0.5962
 5938SOL    HW223518   1.749   3.495   0.529 -1.8574  0.0857 -1.2081
 5938SOL    HW323519   1.780   3.452   0.388  1.1712  1.7931 -1.1590
 5938SOL    MW423520   1.802   3.495   0.460  0.0134  0.3660  0.1266
 5939SOL     OW23521   3.408   1.380   3.603 -0.0293 -0.4749  0.1525
 5939SOL    HW223522   3.341   1.325   3.643 -2.7425 -1.1500 -4.4815
 5939SOL    HW323523   3.367   1.466   3.593  1.0277  0.0384 -0.0146
 5939SOL    MW423524   3.394   1.384   3.607 -0.2478 -0.4963 -0.4810
 5940SOL     OW23525   0.964   0.435   0.882 -0.1428  0.0680 -0.0600
 5940SOL    HW223526   0.896   0.469   0.823 -1.2070  1.7701  1.9952
 5940SOL    HW323527   0.928   0.353   0.915  0.0274 -0.4027 -1.0194
 5940SOL    MW423528   0.950   0.429   0.878 -0.2607  0.2304  0.0846
 5941SOL     OW23529   0.071   1.656   4.108  0.1739  0.5011  0.1529
 5941SOL    HW223530   0.156   1.646   4.151  0.9814  4.0745 -0.2867
 5941SOL    HW323531   0.092   1.695   4.023 -1.8982  1.8895  0.2015
 5941SOL    MW423532   0.085   1.660   4.102  0.0071  1.1557  0.1013
 5942SOL     OW23533   3.591   0.156   4.004 -0.7783 -0.1225 -0.2374
 5942SOL    HW223534   3.512   0.163   4.057 -0.1215  0.2677  0.7188
 5942SOL    HW323535   3.653   0.108   4.059 -0.0138  0.4654 -0.5650
 5942SOL    MW423536   3.589   0.150   4.018 -0.5907  0.0065 -0.1545
 5943SOL     OW23537   1.658   3.089   1.236  0.7581  0.6535 -1.4524
 5943SOL    HW223538   1.613   3.162   1.279  1.8258 -0.8678  2.8067
 5943SOL    HW323539   1.750   3.116   1.234  0.8281  0.3726 -2.0828
 5943SOL    MW423540   1.664   3.102   1.242  0.9082  0.4157 -0.9737
 5944SOL     OW23541   4.936   1.004   0.721  0.3012  0.4313  0.0836
 5944SOL    HW223542   4.959   1.027   0.811 -1.2897  1.0733  0.3595
 5944SOL    HW323543   5.005   1.043   0.668  1.2938 -0.0087  1.0118
 5944SOL    MW423544   4.948   1.012   0.726  0.2223  0.4579  0.2424
 5945SOL     OW23545   6.066   1.650   6.153 -0.6154  0.6753 -0.5461
 5945SOL    HW223546   6.122   1.622   6.226 -0.2040  1.8871 -0.3741
 5945SOL    HW323547   6.022   1.570   6.124 -0.5230  0.1039  0.8132
 5945SOL    MW423548   6.067   1.636   6.159 -0.5490  0.7598 -0.3441
 5946SOL     OW23549   4.887  -0.035   6.036  0.0950  0.1598  0.6149
 5946SOL    HW223550   4.906   0.001   5.949  0.9346  0.5557  0.9502
 5946SOL    HW323551   4.799  -0.003   6.057 -0.3563 -0.4282 -0.3330
 5946SOL    MW423552   4.878  -0.026   6.027  0.1462  0.1344  0.5341
 5947SOL     OW23553   5.334   5.828   3.695  0.2870  0.0984  0.5254
 5947SOL    HW223554   5.283   5.791   3.767  0.5388 -0.2044  0.5512
 5947SOL    HW323555   5.276   5.819   3.618  0.4004 -0.4988  0.4999
 5947SOL    MW423556   5.319   5.822   3.694  0.3352 -0.0203  0.5254
 5948SOL     OW23557   1.278   6.262   5.223 -0.4540  0.1460  0.8334
 5948SOL    HW223558   1.216   6.304   5.163 -0.7959 -0.5877  0.6610
 5948SOL    HW323559   1.247   6.286   5.310 -0.2539  0.7952  0.7301
 5948SOL    MW423560   1.266   6.270   5.227 -0.4727  0.1348  0.7970
 5949SOL     OW23561   2.176   6.285   1.799 -0.0144  0.2053 -0.8326
 5949SOL    HW223562   2.200   6.220   1.733  0.7661 -0.5216  0.1272
 5949SOL    HW323563   2.134   6.233   1.868 -0.6871  0.9269 -0.6890
 5949SOL    MW423564   2.173   6.270   1.800 -0.0002  0.2046 -0.6870
 5950SOL     OW23565   0.352   2.626   3.402 -0.0326 -0.4834 -0.1886
 5950SOL    HW223566   0.302   2.625   3.484 -0.0179 -0.0210 -0.1722
 5950SOL    HW323567   0.392   2.713   3.399  0.1017 -0.5567 -0.6083
 5950SOL    MW423568   0.351   2.637   3.413 -0.0130 -0.4320 -0.2418
 5951SOL     OW23569   2.266   1.699   1.190  0.5297  0.7994  0.1284
 5951SOL    HW223570   2.251   1.645   1.113 -0.4631 -3.2477  2.8225
 5951SOL    HW323571   2.361   1.714   1.192  0.5535  1.1458 -1.8366
 5951SOL    MW423572   2.277   1.694   1.180  0.4018  0.3111  0.2246
 5952SOL     OW23573   3.307   3.720   0.740  0.3101 -0.4429  0.4519
 5952SOL    HW223574   3.348   3.717   0.653  0.0347  0.8221  0.2581
 5952SOL    HW323575   3.295   3.628   0.764  1.4510 -0.8178 -0.3383
 5952SOL    MW423576   3.311   3.707   0.731  0.4243 -0.3254  0.3221
 5953SOL     OW23577   3.707   3.738   4.936  0.3139 -0.1534  0.3724
 5953SOL    HW223578   3.635   3.792   4.904 -0.6215 -0.6902  1.4870
 5953SOL    HW323579   3.773   3.741   4.867 -1.0021 -0.0713 -0.9173
 5953SOL    MW423580   3.706   3.745   4.923  0.0169 -0.2134  0.3493
 5954SOL     OW23581   4.231   5.402   0.643 -0.5129 -0.2060  0.2492
 5954SOL    HW223582   4.221   5.438   0.731 -1.2074 -0.9929  0.4980
 5954SOL    HW323583   4.147   5.361   0.624  0.2789 -1.7718  0.0155
 5954SOL    MW423584   4.219   5.401   0.652 -0.5001 -0.5164  0.2512
 5955SOL     OW23585   3.740   4.316   0.682 -0.6023 -0.3093 -0.3317
 5955SOL    HW223586   3.654   4.296   0.719 -0.3510 -0.0642  0.3869
 5955SOL    HW323587   3.742   4.411   0.675 -0.1916 -0.2868  0.1219
 5955SOL    MW423588   3.729   4.326   0.686 -0.5150 -0.2740 -0.1770
 5956SOL     OW23589   6.044   1.183   5.161 -0.7730 -0.4578  0.2846
 5956SOL    HW223590   6.039   1.098   5.119  2.2873 -0.8885  0.5927
 5956SOL    HW323591   6.040   1.246   5.089  0.5275 -1.0220 -0.2946
 5956SOL    MW423592   6.043   1.180   5.146 -0.1976 -0.5891  0.2488
 5957SOL     OW23593   1.103   4.378   1.319 -0.0337 -0.0550  1.5178
 5957SOL    HW223594   1.053   4.301   1.345 -1.1505  0.1652  0.1813
 5957SOL    HW323595   1.183   4.343   1.279  0.1132 -0.4676  2.1662
 5957SOL    MW423596   1.107   4.363   1.317 -0.1617 -0.0804  1.4270
 5958SOL     OW23597   0.003   4.973   3.019  0.0485 -0.0741 -0.7847
 5958SOL    HW223598   0.049   4.966   3.103 -0.0747 -0.9382 -0.7753
 5958SOL    HW323599  -0.043   4.889   3.011  1.5306 -0.7930 -2.5785
 5958SOL    MW423600   0.003   4.961   3.029  0.2278 -0.2830 -1.0201
 5959SOL     OW23601   3.614   0.318   2.921 -0.3681  0.0688  0.5483
 5959SOL    HW223602   3.554   0.390   2.901 -0.2640  0.3899  1.3455
 5959SOL    HW323603   3.658   0.345   3.001  2.0179  0.5577 -0.8260
 5959SOL    MW423604   3.611   0.331   2.929 -0.0396  0.1757  0.4721
 5960SOL     OW23605   1.820   6.209   4.379  0.0340  0.4542  0.0044
 5960SOL    HW223606   1.727   6.216   4.358 -0.4723  0.7291  2.0939
 5960SOL    HW323607   1.829   6.258   4.461  1.8331 -0.4129  0.3645
 5960SOL    MW423608   1.809   6.217   4.387  0.2045  0.3761  0.3276
 5961SOL     OW23609   4.948   3.457   2.440 -0.0055  0.3886 -0.1237
 5961SOL    HW223610   4.872   3.401   2.448  0.6005 -0.8200 -2.1277
 5961SOL    HW323611   4.932   3.529   2.501 -1.0994 -1.5900  2.0680
 5961SOL    MW423612   4.936   3.459   2.449 -0.0699 -0.0319 -0.0989
 5962SOL     OW23613   2.825   3.123   5.499  0.2363  0.0499 -0.1573
 5962SOL    HW223614   2.884   3.105   5.572 -1.2434 -2.3293  0.5864
 5962SOL    HW323615   2.879   3.110   5.421  1.9436  3.0127  0.3843
 5962SOL    MW423616   2.840   3.119   5.498  0.2663  0.1269  0.0123
 5963SOL     OW23617   2.377   1.931   4.903  0.0776  0.5559 -0.5763
 5963SOL    HW223618   2.471   1.916   4.897  0.1958  1.2169 -0.4464
 5963SOL    HW323619   2.369   2.018   4.942 -0.5957  0.0757  0.4016
 5963SOL    MW423620   2.388   1.941   4.907  0.0043  0.5797 -0.4302
 5964SOL     OW23621   2.516   1.054   2.206 -0.0184  0.5126 -0.2249
 5964SOL    HW223622   2.536   1.013   2.290 -0.4794  1.0418  0.1441
 5964SOL    HW323623   2.549   0.991   2.141 -0.6310 -0.4169  0.3319
 5964SOL    MW423624   2.523   1.040   2.208 -0.1600  0.4598 -0.1028
 5965SOL     OW23625   4.194   4.403   6.131 -0.2325 -0.3918  0.1803
 5965SOL    HW223626   4.149   4.383   6.049 -0.1441  0.6134 -0.1285
 5965SOL    HW323627   4.138   4.365   6.199 -0.8944 -0.2603 -0.2817
 5965SOL    MW423628   4.181   4.395   6.129 -0.3082 -0.2418  0.0786
 5966SOL     OW23629   5.970   1.838   4.855  0.2605  0.2166  0.0173
 5966SOL    HW223630   6.020   1.918   4.838  0.2552 -0.0594 -1.4053
 5966SOL    HW323631   5.887   1.852   4.810  0.8529 -1.1975 -1.6108
 5966SOL    MW423632   5.965   1.850   4.847  0.3380 -0.0064 -0.3852
 5967SOL     OW23633   0.614   2.338   4.543  0.7592 -0.9445 -0.1741
 5967SOL    HW223634   0.681   2.337   4.474 -0.2218 -0.2218 -1.1668
 5967SOL    HW323635   0.569   2.422   4.531 -1.1380 -1.9461 -0.3277
 5967SOL    MW423636   0.617   2.349   4.532  0.3794 -0.9813 -0.3253
 5968SOL     OW23637   0.946   1.720   4.745 -0.1620  0.0050  0.1480
 5968SOL    HW223638   0.894   1.752   4.671 -1.5568 -0.1125  1.0193
 5968SOL    HW323639   0.882   1.671   4.798  1.0031 -0.6680  0.9613
 5968SOL    MW423640   0.930   1.718   4.742 -0.1923 -0.0993  0.3703
 5969SOL     OW23641   1.730   1.996   3.982 -0.6204  0.3498 -0.7975
 5969SOL    HW223642   1.813   1.947   3.987 -2.0802 -2.2156 -0.1360
 5969SOL    HW323643   1.722   2.037   4.068  0.7353  2.1158 -1.4382
 5969SOL    MW423644   1.740   1.995   3.994 -0.6341  0.2443 -0.7948
 5970SOL     OW23645   5.269   0.824   5.625  0.3176  0.1166  0.1607
 5970SOL    HW223646   5.325   0.893   5.591  0.5027 -1.2434 -2.5366
 5970SOL    HW323647   5.181   0.861   5.624  0.5096  0.5696 -0.5409
 5970SOL    MW423648   5.265   0.838   5.621  0.3674 -0.0031 -0.2877
 5971SOL     OW23649   1.026   1.101   5.543  0.0567  0.7577  0.1795
 5971SOL    HW223650   0.962   1.032   5.552  1.0916 -0.1383  0.9859
 5971SOL    HW323651   1.071   1.083   5.460  0.7233  0.0909  0.6722
 5971SOL    MW423652   1.024   1.090   5.533  0.2812  0.5515  0.3509
 5972SOL     OW23653   6.288   2.376   1.188  0.2757 -0.0640  0.1215
 5972SOL    HW223654   6.278   2.406   1.278 -0.5515  0.2119 -0.0518
 5972SOL    HW323655   6.358   2.311   1.191 -1.0627 -1.5316  1.3238
 5972SOL    MW423656   6.296   2.371   1.200 -0.0100 -0.2212  0.2572
 5973SOL     OW23657   1.659   3.482   3.873  0.2984  0.5077 -0.1333
 5973SOL    HW223658   1.609   3.532   3.938  0.1473 -0.4887  0.5258
 5973SOL    HW323659   1.725   3.436   3.924  0.4393  0.0289 -0.7404
 5973SOL    MW423660   1.661   3.483   3.888  0.2971  0.3131 -0.1265
 5974SOL     OW23661   1.290   3.530   3.119 -0.1275 -0.0352  0.0326
 5974SOL    HW223662   1.320   3.515   3.208  1.2065  2.1384  0.0178
 5974SOL    HW323663   1.311   3.449   3.072 -0.7709 -1.1719  1.6286
 5974SOL    MW423664   1.296   3.517   3.124 -0.0364  0.1016  0.2412
 5975SOL     OW23665   4.597   2.015   4.075 -0.3157 -0.2981 -0.4555
 5975SOL    HW223666   4.633   2.102   4.090 -0.5371 -0.2819  0.0255
 5975SOL    HW323667   4.658   1.972   4.016 -0.4547  0.3532 -1.0801
 5975SOL    MW423668   4.610   2.020   4.069 -0.3632 -0.2100 -0.4744
 5976SOL     OW23669   0.981   3.842   0.690 -0.0242  0.5733 -0.0024
 5976SOL    HW223670   0.940   3.912   0.740  1.0868  0.1935  1.4964
 5976SOL    HW323671   0.997   3.773   0.754 -3.4208 -2.2508 -1.8302
 5976SOL    MW423672   0.978   3.842   0.705 -0.3258  0.1506 -0.0458
 5977SOL     OW23673   5.835   3.456   5.822  0.0944  0.3839  0.9895
 5977SOL    HW223674   5.878   3.371   5.820 -1.0775 -0.2285  1.1900
 5977SOL    HW323675   5.810   3.468   5.914  0.5113  1.0933  1.0252
 5977SOL    MW423676   5.837   3.447   5.834 -0.0052  0.3967  1.0207
 5978SOL     OW23677   1.390   0.350   2.784 -0.0613  0.2410  0.3841
 5978SOL    HW223678   1.386   0.313   2.696  2.4674 -0.3357  0.4310
 5978SOL    HW323679   1.384   0.274   2.842 -0.1993  0.4654  0.6655
 5978SOL    MW423680   1.389   0.335   2.780  0.2542  0.1945  0.4274
 5979SOL     OW23681   0.113   4.203   2.733  0.1024  0.2535  0.5713
 5979SOL    HW223682   0.203   4.170   2.734  0.2828  0.6639 -0.6068
 5979SOL    HW323683   0.120   4.292   2.768  0.6671  1.4035 -2.2667
 5979SOL    MW423684   0.126   4.210   2.738  0.2007  0.4593  0.0414
 5980SOL     OW23685   6.207   0.507   5.202 -0.3413  0.2852  0.2470
 5980SOL    HW223686   6.254   0.492   5.120 -1.2498 -2.5126  0.1232
 5980SOL    HW323687   6.163   0.424   5.219 -0.7414  1.0123  3.2389
 5980SOL    MW423688   6.207   0.494   5.194 -0.5139  0.0120  0.6254
 5981SOL     OW23689   0.216   2.364   4.386 -1.2827  0.2758  0.6495
 5981SOL    HW223690   0.264   2.298   4.436 -0.0641 -0.0535 -0.8839
 5981SOL    HW323691   0.130   2.324   4.370 -0.2255 -1.4606 -1.1492
 5981SOL    MW423692   0.211   2.350   4.390 -0.9824  0.0033  0.2099
 5982SOL     OW23693   3.859   6.120   2.124  1.1384 -0.2916  0.1925
 5982SOL    HW223694   3.907   6.195   2.089 -1.3098  1.5510  0.5643
 5982SOL    HW323695   3.815   6.082   2.048  3.1857 -2.1557 -0.1986
 5982SOL    MW423696   3.860   6.125   2.109  1.0855 -0.2944  0.1899
 5983SOL     OW23697   0.302   0.254   0.228  0.4084  0.2076 -0.1052
 5983SOL    HW223698   0.369   0.200   0.269  0.2182 -0.6355 -0.8703
 5983SOL    HW323699   0.304   0.337   0.277  1.1616 -0.2462  0.6527
 5983SOL    MW423700   0.311   0.258   0.240  0.4827  0.0365 -0.1062
 5984SOL     OW23701   5.988   2.914   3.729 -0.2725  0.4545  0.9667
 5984SOL    HW223702   6.079   2.884   3.735  0.1184  1.5921  1.0599
 5984SOL    HW323703   5.942   2.843   3.686  0.6440 -0.1877  1.0121
 5984SOL    MW423704   5.994   2.901   3.724 -0.1000  0.5199  0.9850
 5985SOL     OW23705   0.763   5.622   2.317 -0.3386  0.1642 -0.0252
 5985SOL    HW223706   0.756   5.533   2.283  0.5006 -0.6387  1.7859
 5985SOL    HW323707   0.814   5.613   2.397 -2.3623  1.9427  1.5737
 5985SOL    MW423708   0.769   5.609   2.323 -0.4949  0.2929  0.4247
 5986SOL     OW23709   6.165   0.189   0.778  0.6940  0.3840  0.0675
 5986SOL    HW223710   6.138   0.139   0.854 -0.9009  0.0481 -0.6565
 5986SOL    HW323711   6.169   0.125   0.707  1.2945  0.8267 -0.3045
 5986SOL    MW423712   6.162   0.174   0.778  0.5628  0.3981 -0.0771
 5987SOL     OW23713   0.238   2.605   0.280  0.0537  0.2394  0.3288
 5987SOL    HW223714   0.147   2.632   0.273  0.4179  1.3438 -0.4007
 5987SOL    HW323715   0.287   2.687   0.292  1.1646 -0.0506 -1.6778
 5987SOL    MW423716   0.232   2.620   0.281  0.2483  0.3469 -0.0322
 5988SOL     OW23717   3.166   6.167   0.877  0.4028 -0.3907 -0.1859
 5988SOL    HW223718   3.101   6.111   0.834 -0.7611  0.4115  0.4446
 5988SOL    HW323719   3.161   6.142   0.970  2.4792 -1.7153 -0.3703
 5988SOL    MW423720   3.157   6.156   0.884  0.5232 -0.4596 -0.1271
 5989SOL     OW23721   2.098   1.085   1.731 -0.6832 -0.1461  0.4465
 5989SOL    HW223722   2.139   1.007   1.692  2.3257  0.5804  1.8299
 5989SOL    HW323723   2.110   1.153   1.665 -1.3697 -0.3416  0.1106
 5989SOL    MW423724   2.105   1.083   1.717 -0.3768 -0.0760  0.5847
 5990SOL     OW23725   1.571   2.993   2.416 -0.3932 -0.4136 -0.0331
 5990SOL    HW223726   1.534   3.037   2.339 -0.2249  0.7819  0.5361
 5990SOL    HW323727   1.654   2.957   2.385 -0.0098  0.6318 -0.2672
 5990SOL    MW423728   1.577   2.994   2.402 -0.3204 -0.1180  0.0111
 5991SOL     OW23729   1.688   4.737   2.985 -0.3778  0.1449 -0.2649
 5991SOL    HW223730   1.611   4.733   3.042 -0.9321  0.3277 -0.9795
 5991SOL    HW323731   1.677   4.663   2.925 -0.5791  0.8058 -1.0661
 5991SOL    MW423732   1.676   4.727   2.984 -0.4775  0.2562 -0.4649
 5992SOL     OW23733   3.564   2.443   2.012 -0.2309 -0.1406  0.1726
 5992SOL    HW223734   3.469   2.450   2.016 -0.5898 -3.2201 -0.1909
 5992SOL    HW323735   3.580   2.367   1.956  2.5602  1.6573 -1.6868
 5992SOL    MW423736   3.554   2.434   2.005  0.0900 -0.3097 -0.1207
 5993SOL     OW23737   1.253   5.186   3.685 -0.3178 -0.2238 -0.2103
 5993SOL    HW223738   1.185   5.164   3.748 -1.9503 -0.1832 -1.8776
 5993SOL    HW323739   1.317   5.115   3.693 -0.2995 -0.0545  1.6637
 5993SOL    MW423740   1.253   5.174   3.694 -0.5307 -0.1961 -0.1830
 5994SOL     OW23741   3.935   5.124   4.443  0.4963  0.6215 -0.6557
 5994SOL    HW223742   3.993   5.106   4.517  1.1509 -1.7268 -1.6631
 5994SOL    HW323743   3.984   5.187   4.389  0.1152  2.1610  0.7141
 5994SOL    MW423744   3.949   5.130   4.445  0.5324  0.5148 -0.6079
 5995SOL     OW23745   3.443   2.404   0.722 -0.0413  0.0737 -0.0626
 5995SOL    HW223746   3.400   2.321   0.704 -0.6495 -0.0442  1.7018
 5995SOL    HW323747   3.429   2.418   0.816 -0.5424  2.4934 -0.4258
 5995SOL    MW423748   3.435   2.395   0.732 -0.1877  0.3774  0.1223
 5996SOL     OW23749   1.618   2.410   1.069  0.7934 -0.2119  0.1717
 5996SOL    HW223750   1.604   2.470   1.142  0.6919 -0.2546  0.1878
 5996SOL    HW323751   1.531   2.371   1.054  0.4385  0.9762 -1.0101
 5996SOL    MW423752   1.604   2.413   1.077  0.7332 -0.0608  0.0179
 5997SOL     OW23753   0.595   3.276   0.462  0.2355  0.0382 -0.4364
 5997SOL    HW223754   0.503   3.291   0.438 -0.5349 -1.5280  1.3283
 5997SOL    HW323755   0.618   3.354   0.513 -0.9452 -0.6471  1.2303
 5997SOL    MW423756   0.586   3.289   0.465 -0.0219 -0.2589  0.0164
 5998SOL     OW23757   5.520   4.948   5.205 -0.1516  0.3006  0.1052
 5998SOL    HW223758   5.473   4.969   5.286  1.6490 -0.0652  1.3133
 5998SOL    HW323759   5.599   5.002   5.209 -0.0751  0.3475 -1.4858
 5998SOL    MW423760   5.524   4.958   5.216  0.0960  0.2586  0.0547
 5999SOL     OW23761   0.633   5.541   1.954  0.2391 -0.4847 -0.0302
 5999SOL    HW223762   0.636   5.511   1.863 -0.3968 -1.9863  0.4202
 5999SOL    HW323763   0.720   5.521   1.988 -0.0771 -1.5500  0.1731
 5999SOL    MW423764   0.645   5.534   1.946  0.1135 -0.8234  0.0560
 6000SOL     OW23765   5.716   2.082   0.153  0.4781  0.0049 -0.4517
 6000SOL    HW223766   5.720   2.169   0.192 -0.5187 -0.5290  0.9258
 6000SOL    HW323767   5.731   2.022   0.226 -2.1206 -1.0605 -0.6742
 6000SOL    MW423768   5.718   2.085   0.168  0.0037 -0.2061 -0.2993
 6001SOL     OW23769   0.034   5.949   6.278  0.6369  0.2208 -0.2398
 6001SOL    HW223770   0.001   5.931   6.190 -0.8973  0.9049  0.1498
 6001SOL    HW323771   0.029   6.045   6.286 -0.6516  0.0891  1.0656
 6001SOL    MW423772   0.029   5.960   6.267  0.2645  0.2936 -0.0162
 6002SOL     OW23773   1.994   5.285   5.304  0.1902 -0.4604 -0.1262
 6002SOL    HW223774   1.976   5.228   5.379  2.3989  0.5074  1.2457
 6002SOL    HW323775   1.957   5.239   5.229  0.8588 -3.1571  1.0776
 6002SOL    MW423776   1.987   5.271   5.304  0.5698 -0.6885  0.2137
 6003SOL     OW23777   1.125   5.909   4.729 -0.2061 -0.1323  1.0581
 6003SOL    HW223778   1.219   5.918   4.713 -0.3203 -1.0834 -0.3611
 6003SOL    HW323779   1.120   5.858   4.810  0.4692  0.7521  1.6841
 6003SOL    MW423780   1.137   5.903   4.738 -0.1321 -0.1411  0.9534
 6004SOL     OW23781   5.486   3.066   0.169 -0.1123  0.1199  0.2604
 6004SOL    HW223782   5.457   3.106   0.252 -0.8445 -1.4888  0.8258
 6004SOL    HW323783   5.407   3.066   0.114  0.0818  0.1459 -0.0174
 6004SOL    MW423784   5.472   3.071   0.173 -0.1833 -0.0889  0.2984
 6005SOL     OW23785   0.265   3.960   4.739 -0.0441  0.4055 -0.0228
 6005SOL    HW223786   0.303   4.030   4.791 -1.1854  0.5822  0.6278
 6005SOL    HW323787   0.212   4.005   4.672 -0.9893  0.1902  0.5577
 6005SOL    MW423788   0.263   3.975   4.737 -0.3194  0.4004  0.1396
 6006SOL     OW23789   0.530   0.896   4.004  0.3356  0.8193  0.0400
 6006SOL    HW223790   0.476   0.820   3.981  0.1445  0.1333  2.3947
 6006SOL    HW323791   0.619   0.861   4.011  0.5676  1.2451 -0.7059
 6006SOL    MW423792   0.534   0.881   4.002  0.3410  0.7850  0.2522
 6007SOL     OW23793   0.792   4.684   0.121  0.0858  0.1299  0.8573
 6007SOL    HW223794   0.706   4.702   0.084  0.4122  1.2944  0.6169
 6007SOL    HW323795   0.785   4.715   0.212  0.3595  0.5743  0.7286
 6007SOL    MW423796   0.780   4.690   0.128  0.1650  0.3422  0.8086
 6008SOL     OW23797   5.727   3.410   0.476  0.1422 -0.0255  0.0912
 6008SOL    HW223798   5.779   3.491   0.483 -1.1163  0.8841 -0.7248
 6008SOL    HW323799   5.793   3.340   0.474  1.3549  1.0873 -0.9687
 6008SOL    MW423800   5.743   3.412   0.477  0.1361  0.2413 -0.1563
 6009SOL     OW23801   1.978   5.953   0.666 -0.3987  0.3496  0.8584
 6009SOL    HW223802   2.024   6.037   0.656 -0.2571  0.1750 -0.0321
 6009SOL    HW323803   2.046   5.887   0.654 -0.7717  0.0928  0.1257
 6009SOL    MW423804   1.993   5.956   0.663 -0.4293  0.2927  0.6442
 6010SOL     OW23805   4.785   1.971   6.035 -0.6179 -0.1719 -0.0161
 6010SOL    HW223806   4.708   1.929   5.996 -0.3477  0.3096 -1.1218
 6010SOL    HW323807   4.761   2.063   6.043  0.2999  0.2484 -1.6642
 6010SOL    MW423808   4.772   1.978   6.031 -0.4611 -0.0529 -0.3794
 6011SOL     OW23809   5.450   4.884   4.710 -0.1058  0.1227  0.0195
 6011SOL    HW223810   5.518   4.892   4.777 -0.4263 -1.2759  0.5313
 6011SOL    HW323811   5.480   4.813   4.653  0.3146  1.4865 -1.5360
 6011SOL    MW423812   5.463   4.876   4.711 -0.0926  0.1181 -0.1182
 6012SOL     OW23813   5.973   4.957   5.584 -0.0490 -0.4667 -0.2602
 6012SOL    HW223814   6.004   4.953   5.494 -0.2161 -1.0088 -0.2933
 6012SOL    HW323815   5.980   5.050   5.607  0.9532 -0.4840 -0.4852
 6012SOL    MW423816   5.978   4.969   5.575  0.0612 -0.5405 -0.2942
 6013SOL     OW23817   5.486   3.485   5.252  0.1460  0.4697 -0.4200
 6013SOL    HW223818   5.520   3.564   5.211  3.3735 -0.3771  0.3691
 6013SOL    HW323819   5.463   3.513   5.341  2.4201  0.3663  0.2566
 6013SOL    MW423820   5.487   3.499   5.258  0.8719  0.3443 -0.2266
 6014SOL     OW23821   0.774   1.976   4.050  0.2881  0.1767  0.2245
 6014SOL    HW223822   0.820   2.044   4.001  1.3393 -0.0779  0.8101
 6014SOL    HW323823   0.716   1.934   3.986 -1.0974  2.2206  0.0629
 6014SOL    MW423824   0.773   1.979   4.035  0.2440  0.4128  0.2804
 6015SOL     OW23825   3.436   3.048   3.242  0.0595 -0.1832  0.0914
 6015SOL    HW223826   3.435   3.003   3.326  0.1309  1.6311  1.1181
 6015SOL    HW323827   3.521   3.026   3.204 -0.6537 -2.4173 -0.3684
 6015SOL    MW423828   3.447   3.040   3.248 -0.0252 -0.2386  0.1662
 6016SOL     OW23829   0.111   0.812   1.246  0.0501  0.0721  0.3981
 6016SOL    HW223830   0.037   0.872   1.238  1.2859  1.6567  0.2807
 6016SOL    HW323831   0.112   0.788   1.338  0.5590  1.6648  0.8405
 6016SOL    MW423832   0.101   0.816   1.257  0.2803  0.4913  0.4410
 6017SOL     OW23833   6.105   5.503   5.959 -0.0596  0.3475 -0.2709
 6017SOL    HW223834   6.142   5.477   5.874 -1.5797 -0.8883 -0.5915
 6017SOL    HW323835   6.180   5.500   6.019  0.9749  0.9433 -1.4919
 6017SOL    MW423836   6.120   5.499   5.956 -0.1236  0.2630 -0.4743
 6018SOL     OW23837   1.740   4.074   1.017 -0.0358 -0.5961  0.0181
 6018SOL    HW223838   1.768   4.163   1.036 -1.9071  0.0881 -0.1767
 6018SOL    HW323839   1.755   4.026   1.099  0.5588  0.0015  0.2635
 6018SOL    MW423840   1.746   4.079   1.031 -0.2042 -0.4270  0.0248
 6019SOL     OW23841   3.813   3.434   4.116  0.7294  0.3966  0.2835
 6019SOL    HW223842   3.856   3.366   4.169 -0.6469 -0.4824  0.3294
 6019SOL    HW323843   3.803   3.508   4.175  0.9486  0.1122  0.6815
 6019SOL    MW423844   3.817   3.435   4.131  0.5768  0.2431  0.3420
 6020SOL     OW23845   1.761   5.571   3.903  0.3517  0.7269  0.5305
 6020SOL    HW223846   1.770   5.508   3.832  1.5308  1.1463  0.2794
 6020SOL    HW323847   1.668   5.573   3.923  0.1361 -0.1046 -0.3519
 6020SOL    MW423848   1.750   5.563   3.896  0.4788  0.6726  0.3809
 6021SOL     OW23849   0.449   3.653   4.135 -0.7359 -0.5481  0.4149
 6021SOL    HW223850   0.431   3.655   4.229 -0.9442  1.3799  0.3830
 6021SOL    HW323851   0.435   3.562   4.110 -1.3582 -0.9665  2.1235
 6021SOL    MW423852   0.445   3.641   4.144 -0.8455 -0.3489  0.6361
 6022SOL     OW23853   5.217   1.673   0.649  0.1853  0.4738 -0.4024
 6022SOL    HW223854   5.282   1.617   0.607 -0.4684 -0.2814 -0.4077
 6022SOL    HW323855   5.138   1.620   0.655  0.0774  0.7437  1.2580
 6022SOL    MW423856   5.215   1.659   0.644  0.0848  0.4098 -0.1840
 6023SOL     OW23857   0.776   2.664   6.415  0.5160  0.3268  0.2349
 6023SOL    HW223858   0.735   2.616   6.487  1.7787  0.8321  1.3275
 6023SOL    HW323859   0.725   2.639   6.338 -1.4119  0.4161  1.4165
 6023SOL    MW423860   0.764   2.654   6.415  0.4282  0.4053  0.5349
 6024SOL     OW23861   1.921   1.420   2.049 -0.4818 -0.5672  0.3448
 6024SOL    HW223862   1.846   1.360   2.049  0.1523 -1.3827 -0.2470
 6024SOL    HW323863   1.996   1.364   2.027  0.3406  0.1867  1.1426
 6024SOL    MW423864   1.921   1.405   2.046 -0.2896 -0.5753  0.3720
 6025SOL     OW23865   3.897   0.747   3.997  0.0466  0.3890  0.2197
 6025SOL    HW223866   3.975   0.767   3.945 -0.2512  1.1716  0.0784
 6025SOL    HW323867   3.824   0.765   3.939 -0.2525 -0.2527  0.3895
 6025SOL    MW423868   3.898   0.752   3.983 -0.0322  0.4076  0.2235
 6026SOL     OW23869   0.912   3.746   0.135 -0.3049  0.0263 -0.4812
 6026SOL    HW223870   0.964   3.691   0.076 -0.0680 -0.7817  0.4533
 6026SOL    HW323871   0.977   3.797   0.184 -0.2687 -1.5250  1.2237
 6026SOL    MW423872   0.927   3.746   0.134 -0.2689 -0.2850 -0.1329
 6027SOL     OW23873   2.444  -0.003   5.095  0.4259  0.0120  0.2396
 6027SOL    HW223874   2.494  -0.068   5.146 -1.0706  0.6747  2.7583
 6027SOL    HW323875   2.481   0.081   5.120 -1.2196  0.4470  1.4349
 6027SOL    MW423876   2.455  -0.001   5.105  0.0113  0.1568  0.7296
 6028SOL     OW23877   4.823   5.213   3.042  0.3672 -0.6636  0.3831
 6028SOL    HW223878   4.773   5.137   3.074 -1.8252  0.0646 -1.0541
 6028SOL    HW323879   4.829   5.270   3.118 -0.6230 -0.9919  0.7374
 6028SOL    MW423880   4.817   5.210   3.056 -0.0527 -0.6108  0.2402
 6029SOL     OW23881   3.722   2.579   0.286  0.3895  0.1310 -0.2431
 6029SOL    HW223882   3.686   2.566   0.198  0.7409 -0.8039 -0.2613
 6029SOL    HW323883   3.650   2.617   0.336  0.3762  1.2455 -1.0868
 6029SOL    MW423884   3.707   2.582   0.281  0.4341  0.1547 -0.3568
 6030SOL     OW23885   6.001   2.847   4.278  0.4083 -0.0485  0.5973
 6030SOL    HW223886   6.003   2.870   4.185 -1.3269  0.1001  0.5590
 6030SOL    HW323887   6.028   2.927   4.323  1.0755 -0.0655  0.2422
 6030SOL    MW423888   6.005   2.861   4.272  0.2674 -0.0311  0.5454
 6031SOL     OW23889   3.388   3.486   6.249  0.6280 -0.1961 -1.2194
 6031SOL    HW223890   3.436   3.561   6.284 -1.6596  1.0543 -0.6098
 6031SOL    HW323891   3.377   3.428   6.325  0.8814 -0.3360 -1.2878
 6031SOL    MW423892   3.393   3.488   6.264  0.3596 -0.0496 -1.1480
 6032SOL     OW23893   1.808   5.615   1.524  0.0455  0.8837 -0.2798
 6032SOL    HW223894   1.818   5.626   1.619 -2.7172 -0.2914  0.2464
 6032SOL    HW323895   1.879   5.555   1.499  0.7002  1.0650  1.0552
 6032SOL    MW423896   1.819   5.609   1.533 -0.2326  0.7526 -0.0342
 6033SOL     OW23897   0.048   2.618   3.127  0.2499  0.5253 -0.0527
 6033SOL    HW223898  -0.006   2.546   3.094 -0.1908  1.1262 -0.6594
 6033SOL    HW323899   0.050   2.681   3.055  1.1308  0.8525  0.2499
 6033SOL    MW423900   0.041   2.617   3.113  0.3079  0.6477 -0.0928
 6034SOL     OW23901   1.520   4.702   4.988  0.5677 -0.6231 -0.1632
 6034SOL    HW223902   1.545   4.739   4.903 -1.8085 -0.2275 -0.7634
 6034SOL    HW323903   1.556   4.763   5.052  0.6164  0.2189 -0.9740
 6034SOL    MW423904   1.528   4.715   4.986  0.2606 -0.4598 -0.3493
 6035SOL     OW23905   6.314   3.136   1.709 -0.0969  0.3138 -0.0853
 6035SOL    HW223906   6.344   3.190   1.782  1.5803 -1.3131  0.5016
 6035SOL    HW323907   6.268   3.198   1.651  3.4583  2.8694 -0.5163
 6035SOL    MW423908   6.311   3.152   1.711  0.5934  0.4363 -0.0647
 6036SOL     OW23909   5.628   1.644   5.012 -0.0250  0.0482  0.3888
 6036SOL    HW223910   5.637   1.651   4.917 -0.4255  2.4755  0.4669
 6036SOL    HW323911   5.711   1.676   5.047 -0.0316 -0.4352  0.8638
 6036SOL    MW423912   5.640   1.649   5.004 -0.0787  0.3046  0.4618
 6037SOL     OW23913   0.839   2.416   2.298  0.3572  0.3444  0.2552
 6037SOL    HW223914   0.818   2.352   2.231 -0.1403 -0.6940  1.3585
 6037SOL    HW323915   0.934   2.424   2.296  0.4152 -0.3787  0.0603
 6037SOL    MW423916   0.848   2.409   2.289  0.2992  0.1120  0.3751
 6038SOL     OW23917   4.757   5.696   3.950 -0.1719 -0.9807 -0.3291
 6038SOL    HW223918   4.690   5.761   3.931  0.3271 -0.6500 -0.9957
 6038SOL    HW323919   4.839   5.746   3.955  0.0809 -1.4270  0.1022
 6038SOL    MW423920   4.759   5.711   3.948 -0.0727 -0.9959 -0.3602
 6039SOL     OW23921   5.245   2.215   1.893  0.1745  0.1583 -0.5419
 6039SOL    HW223922   5.274   2.124   1.886  0.2402  0.1128  0.2007
 6039SOL    HW323923   5.321   2.267   1.867  0.4306  0.0118 -0.0929
 6039SOL    MW423924   5.259   2.210   1.889  0.2170  0.1330 -0.3847
 6040SOL     OW23925   4.973   1.408   2.593 -0.0335 -0.5881 -0.2092
 6040SOL    HW223926   4.949   1.395   2.685 -1.2711  0.1763 -0.3931
 6040SOL    HW323927   5.068   1.405   2.592 -0.0277 -1.4586  0.9642
 6040SOL    MW423928   4.982   1.406   2.605 -0.1960 -0.6021 -0.0787
 6041SOL     OW23929   1.357   5.561   1.860  1.2166 -0.2409  0.2048
 6041SOL    HW223930   1.373   5.520   1.945  0.1374  1.3407  1.2179
 6041SOL    HW323931   1.288   5.508   1.821  0.5267 -0.0075  1.0676
 6041SOL    MW423932   1.350   5.549   1.866  0.9832 -0.0015  0.4523
 6042SOL     OW23933   5.298   5.302   1.946  0.1058  0.4591 -0.0331
 6042SOL    HW223934   5.342   5.234   1.997 -0.1069 -0.0974 -0.5928
 6042SOL    HW323935   5.258   5.359   2.012  0.6546  0.2969  0.4491
 6042SOL    MW423936   5.299   5.301   1.962  0.1501  0.3643 -0.0433
 6043SOL     OW23937   5.384   0.240   0.056 -0.4129 -0.0049 -0.6462
 6043SOL    HW223938   5.430   0.246   0.139 -0.6458 -1.3290 -0.3965
 6043SOL    HW323939   5.374   0.331   0.027 -0.0392  0.4521  0.6034
 6043SOL    MW423940   5.389   0.253   0.063 -0.3943 -0.1193 -0.4484
 6044SOL     OW23941   3.455   5.176   4.405 -0.4474 -0.3685 -0.0863
 6044SOL    HW223942   3.384   5.114   4.422 -1.8113  1.3199  0.6839
 6044SOL    HW323943   3.533   5.121   4.397 -1.8092 -2.3019 -1.0402
 6044SOL    MW423944   3.456   5.161   4.406 -0.8070 -0.4008 -0.1105
 6045SOL     OW23945   3.804   3.970   3.653  0.2301 -0.1605  0.1170
 6045SOL    HW223946   3.757   4.007   3.728 -1.3684  1.8227 -1.7400
 6045SOL    HW323947   3.896   3.987   3.673  0.0482 -1.5019  2.4933
 6045SOL    MW423948   3.810   3.977   3.666 -0.0048 -0.0758  0.1855
 6046SOL     OW23949   5.283   5.959   5.965 -0.2655  0.2628 -0.3147
 6046SOL    HW223950   5.284   5.886   6.027  1.3645  1.0669  0.6662
 6046SOL    HW323951   5.342   5.932   5.895  0.2655  0.5818  0.0027
 6046SOL    MW423952   5.291   5.946   5.964  0.0196  0.4110 -0.1434
 6047SOL     OW23953   4.523   4.230   3.566 -0.1399 -0.1245 -0.2157
 6047SOL    HW223954   4.499   4.189   3.483  3.2365  2.9344 -3.1029
 6047SOL    HW323955   4.440   4.250   3.609 -2.0961 -1.4954 -3.0696
 6047SOL    MW423956   4.509   4.227   3.561  0.0475  0.0982 -0.9732
 6048SOL     OW23957   6.194   1.852   0.648  0.1521  0.3156 -0.3838
 6048SOL    HW223958   6.284   1.830   0.671  0.1431  0.8593  0.2070
 6048SOL    HW323959   6.142   1.778   0.678  0.4002  0.0039 -0.7211
 6048SOL    MW423960   6.199   1.840   0.655  0.1836  0.3462 -0.3504
 6049SOL     OW23961   5.996   1.132   3.117  0.0212 -0.4029 -0.1554
 6049SOL    HW223962   6.055   1.066   3.080 -0.3030 -1.1660  0.6449
 6049SOL    HW323963   5.987   1.107   3.209 -2.6140 -1.1806 -0.5307
 6049SOL    MW423964   6.002   1.120   3.124 -0.3693 -0.6062 -0.0994
 6050SOL     OW23965   1.155   5.849   5.033 -0.0666 -0.1294  0.5410
 6050SOL    HW223966   1.077   5.904   5.032  1.0952  1.6172  0.5714
 6050SOL    HW323967   1.207   5.882   5.106  1.6885  0.2813 -0.8088
 6050SOL    MW423968   1.152   5.860   5.043  0.3183  0.1552  0.3669
 6051SOL     OW23969   1.769   1.734   0.109  0.3585 -0.2520 -0.4742
 6051SOL    HW223970   1.727   1.820   0.112  1.4814  0.2826  0.4594
 6051SOL    HW323971   1.793   1.716   0.200 -0.0334 -1.6494 -0.6342
 6051SOL    MW423972   1.767   1.743   0.121  0.4550 -0.3659 -0.3721
 6052SOL     OW23973   5.744   6.298   5.767 -0.2174  0.0603  0.3345
 6052SOL    HW223974   5.749   6.379   5.716  0.5784  0.1660  0.5590
 6052SOL    HW323975   5.816   6.305   5.830  0.5989 -1.3256 -0.3982
 6052SOL    MW423976   5.754   6.309   5.769 -0.0047 -0.1086  0.2674
 6053SOL     OW23977   2.386   4.686   4.990  0.4698  0.6594  0.3425
 6053SOL    HW223978   2.302   4.693   5.036  0.6884  0.0881  0.8328
 6053SOL    HW323979   2.422   4.775   4.993 -0.1231  0.9105  0.1150
 6053SOL    MW423980   2.380   4.699   4.997  0.4204  0.6172  0.3772
 6054SOL     OW23981   1.262   0.927   2.265  0.5213 -0.1209 -0.5140
 6054SOL    HW223982   1.275   0.872   2.343  1.4177  0.5910 -0.1470
 6054SOL    HW323983   1.170   0.914   2.242 -0.8743  2.3799  2.7996
 6054SOL    MW423984   1.252   0.918   2.272  0.4555  0.3030 -0.0284
 6055SOL     OW23985   5.795   0.044   0.634  0.1658  0.0603 -0.6121
 6055SOL    HW223986   5.809  -0.050   0.626 -2.1396 -0.4752  0.9030
 6055SOL    HW323987   5.817   0.064   0.725 -2.1270  0.3870 -0.0762
 6055SOL    MW423988   5.800   0.035   0.645 -0.4409  0.0328 -0.3415
 6056SOL     OW23989   4.227   2.639   3.675 -0.4334  0.3044 -0.5559
 6056SOL    HW223990   4.164   2.646   3.747 -0.0880 -2.6570  0.1683
 6056SOL    HW323991   4.303   2.689   3.705 -1.7205  2.5165 -0.7226
 6056SOL    MW423992   4.229   2.647   3.689 -0.5577  0.2056 -0.4823
 6057SOL     OW23993   5.966   2.074   3.737 -0.1953 -0.3010  0.3987
 6057SOL    HW223994   5.953   2.142   3.804 -1.0657  0.6126 -0.6560
 6057SOL    HW323995   5.967   2.122   3.654 -3.0035 -1.6956 -0.5865
 6057SOL    MW423996   5.964   2.089   3.735 -0.6806 -0.3645  0.1296
 6058SOL     OW23997   1.876   2.063   4.698 -0.3472  0.1352  0.0091
 6058SOL    HW223998   1.827   2.001   4.645 -2.9828  2.4878 -0.5443
 6058SOL    HW323999   1.965   2.062   4.662 -0.9799 -1.4321 -1.5914
 6058SOL    MW424000   1.882   2.055   4.686 -0.7784  0.2388 -0.2751
 6059SOL     OW24001   2.192   5.380   4.220  0.4730 -0.4131  0.1762
 6059SOL    HW224002   2.140   5.300   4.223  0.4810 -0.4141  0.2809
 6059SOL    HW324003   2.257   5.364   4.152 -0.9092  0.3490 -1.4032
 6059SOL    MW424004   2.194   5.368   4.211  0.2917 -0.3127 -0.0184
 6060SOL     OW24005   1.851   4.653   3.206  0.0333 -0.1633  0.2890
 6060SOL    HW224006   1.827   4.700   3.126 -0.9098 -0.4167  0.4101
 6060SOL    HW324007   1.881   4.721   3.266 -1.0966  0.2736  0.3814
 6060SOL    MW424008   1.852   4.668   3.204 -0.2402 -0.1391  0.3172
 6061SOL     OW24009   6.218   5.217   2.349  0.0311 -0.2694  0.0163
 6061SOL    HW224010   6.123   5.210   2.359  0.0703 -1.3925 -0.3226
 6061SOL    HW324011   6.252   5.132   2.377  1.0520  0.5155  1.3210
 6061SOL    MW424012   6.210   5.205   2.354  0.1710 -0.3140  0.1437
 6062SOL     OW24013   6.306   5.102   2.824 -0.0066 -0.5604  0.6510
 6062SOL    HW224014   6.379   5.151   2.787  0.3470 -0.9643  0.8076
 6062SOL    HW324015   6.340   5.065   2.905 -0.7862  0.3467  1.4097
 6062SOL    MW424016   6.320   5.103   2.830 -0.0628 -0.4940  0.7718
 6063SOL     OW24017   5.237   0.148   5.672 -0.5191 -0.2828  0.3795
 6063SOL    HW224018   5.216   0.055   5.662 -0.5125 -0.3539  0.9560
 6063SOL    HW324019   5.287   0.152   5.754 -1.2381  0.3371  0.7962
 6063SOL    MW424020   5.241   0.136   5.682 -0.6131 -0.2104  0.5105
 6064SOL     OW24021   1.770   3.430   3.286  0.6057  0.3377  0.3215
 6064SOL    HW224022   1.773   3.337   3.262  0.5009  0.5035 -0.3550
 6064SOL    HW324023   1.760   3.430   3.381  1.4629 -0.3458  0.4305
 6064SOL    MW424024   1.769   3.417   3.295  0.7050  0.2694  0.2466
 6065SOL     OW24025   6.282   2.937   0.007 -0.4234 -0.4561  0.4500
 6065SOL    HW224026   6.286   2.847  -0.027  0.8223 -0.4276  0.4780
 6065SOL    HW324027   6.197   2.969  -0.021 -0.0225 -0.9218 -1.4568
 6065SOL    MW424028   6.272   2.929  -0.001 -0.2062 -0.5138  0.2021
 6066SOL     OW24029   5.370   3.826   2.115  0.0429  0.6683 -0.1498
 6066SOL    HW224030   5.287   3.868   2.135 -0.8786 -0.8468 -0.6335
 6066SOL    HW324031   5.347   3.735   2.096  1.5291  0.6966 -2.4671
 6066SOL    MW424032   5.356   3.819   2.115  0.1174  0.4722 -0.5193
 6067SOL     OW24033   4.071   1.558   5.187  0.3588 -0.0023 -0.6034
 6067SOL    HW224034   4.031   1.531   5.105 -0.9168  0.4306 -0.1423
 6067SOL    HW324035   4.052   1.651   5.194 -0.6683 -0.2654  0.7616
 6067SOL    MW424036   4.063   1.567   5.177  0.0550  0.0201 -0.3625
 6068SOL     OW24037   5.734   3.080   3.271  0.1743  0.4850 -0.0589
 6068SOL    HW224038   5.770   3.098   3.358 -1.9444  0.3985  0.9135
 6068SOL    HW324039   5.774   2.998   3.244  0.2439  0.0842  1.2149
 6068SOL    MW424040   5.744   3.072   3.279 -0.0961  0.4207  0.2375
 6069SOL     OW24041   4.281   1.513   4.657  0.2966  0.4751 -0.6326
 6069SOL    HW224042   4.376   1.528   4.655  0.5330 -0.7241  0.5507
 6069SOL    HW324043   4.258   1.495   4.566  1.1831  0.8825 -0.9534
 6069SOL    MW424044   4.290   1.513   4.645  0.4447  0.3706 -0.5188
 6070SOL     OW24045   2.265   3.549   3.406 -0.0303 -0.3128 -0.0547
 6070SOL    HW224046   2.346   3.509   3.438 -0.2790  0.2153  1.2674
 6070SOL    HW324047   2.227   3.482   3.349 -0.1875 -1.8079  1.7148
 6070SOL    MW424048   2.271   3.535   3.403 -0.0838 -0.4404  0.3532
 6071SOL     OW24049   4.106   3.605   3.528 -0.1785 -0.5029  0.0283
 6071SOL    HW224050   4.012   3.620   3.518 -0.0344  0.3421 -0.1364
 6071SOL    HW324051   4.113   3.541   3.599 -0.8796 -0.6573 -0.0328
 6071SOL    MW424052   4.095   3.599   3.536 -0.2520 -0.4118 -0.0015
 6072SOL     OW24053   3.284   2.710   2.661  0.3438  0.1890 -0.3964
 6072SOL    HW224054   3.329   2.758   2.730  1.3505 -0.5901 -0.4956
 6072SOL    HW324055   3.198   2.689   2.698 -0.2501  2.2720 -0.4513
 6072SOL    MW424056   3.279   2.714   2.675  0.3983  0.3610 -0.4167
 6073SOL     OW24057   4.732   2.163   2.191 -0.1196 -0.6383  0.4307
 6073SOL    HW224058   4.749   2.137   2.101  0.2854  2.3915 -0.4878
 6073SOL    HW324059   4.640   2.190   2.192  0.6556  2.4686 -0.0924
 6073SOL    MW424060   4.722   2.163   2.179  0.0361  0.1713  0.2405
 6074SOL     OW24061   2.410   3.916   2.004 -0.3317  0.2481  0.4523
 6074SOL    HW224062   2.476   3.947   2.066 -0.7953 -0.7996  1.5339
 6074SOL    HW324063   2.438   3.827   1.981  0.0040  0.7418 -1.1278
 6074SOL    MW424064   2.422   3.908   2.009 -0.3486  0.1750  0.3865
 6075SOL     OW24065   4.155   0.356   4.636  0.6044  0.2510  0.2385
 6075SOL    HW224066   4.192   0.347   4.548 -1.1284 -0.7102 -0.4350
 6075SOL    HW324067   4.067   0.319   4.629 -0.4797  2.3325  1.7824
 6075SOL    MW424068   4.148   0.350   4.624  0.2327  0.3988  0.3533
 6076SOL     OW24069   0.258   1.588   1.293 -0.4052  0.0847  0.2304
 6076SOL    HW224070   0.317   1.650   1.251 -0.0817 -0.7503 -0.5758
 6076SOL    HW324071   0.183   1.582   1.234 -0.3623 -0.4159  0.2279
 6076SOL    MW424072   0.256   1.596   1.280 -0.3569 -0.0915  0.1237
 6077SOL     OW24073   1.569   1.874   1.964 -0.1026  0.1152 -0.3516
 6077SOL    HW224074   1.663   1.858   1.951  0.1958  2.5660 -1.8459
 6077SOL    HW324075   1.538   1.798   2.014  2.6530 -0.7777  0.1604
 6077SOL    MW424076   1.577   1.862   1.969  0.3003  0.3208 -0.4812
 6078SOL     OW24077   0.764   3.162   5.671  0.0774  0.0931 -0.6692
 6078SOL    HW224078   0.725   3.196   5.590  2.3683  1.8078 -1.1794
 6078SOL    HW324079   0.729   3.074   5.680 -1.4235  0.4050 -2.6888
 6078SOL    MW424080   0.754   3.155   5.662  0.1817  0.3605 -1.0030
 6079SOL     OW24081   0.371   3.141   3.697  0.2010 -0.1306  0.2961
 6079SOL    HW224082   0.421   3.220   3.719  1.3857 -0.9837  0.7992
 6079SOL    HW324083   0.349   3.151   3.605 -0.5576  1.2483  0.6028
 6079SOL    MW424084   0.375   3.153   3.688  0.2572 -0.0612  0.4029
 6080SOL     OW24085   0.574   5.765   2.545  0.4765 -0.2846  0.1430
 6080SOL    HW224086   0.625   5.699   2.498  0.8438  1.6652 -2.4332
 6080SOL    HW324087   0.505   5.789   2.484 -1.3844 -0.2235  2.1392
 6080SOL    MW424088   0.572   5.759   2.531  0.2795 -0.0193  0.0664
 6081SOL     OW24089   2.985   3.268   5.058 -0.1040  0.3229 -0.3341
 6081SOL    HW224090   3.073   3.285   5.090 -0.7453  0.8748  1.2631
 6081SOL    HW324091   2.936   3.348   5.077 -1.0019 -0.0324 -1.0236
 6081SOL    MW424092   2.990   3.281   5.065 -0.3071  0.3488 -0.2143
 6082SOL     OW24093   5.467   3.775   4.469  0.1863 -0.1086 -0.0507
 6082SOL    HW224094   5.390   3.718   4.470  0.6024 -0.6654  0.5400
 6082SOL    HW324095   5.518   3.745   4.394  0.6052 -0.7960  0.4976
 6082SOL    MW424096   5.464   3.763   4.459  0.2965 -0.2728  0.0996
 6083SOL     OW24097   5.320   3.035   1.354 -0.0629  0.1853 -0.1257
 6083SOL    HW224098   5.318   3.074   1.267  1.4358  0.8693  0.1123
 6083SOL    HW324099   5.255   3.085   1.404 -0.4002  0.2807 -0.6497
 6083SOL    MW424100   5.311   3.047   1.349  0.0903  0.2881 -0.1635
 6084SOL     OW24101   1.356   1.865   5.666 -0.2251  1.0707 -0.1796
 6084SOL    HW224102   1.388   1.874   5.576  1.6920  3.7274  0.6713
 6084SOL    HW324103   1.295   1.938   5.677  1.7129  2.5186  1.4733
 6084SOL    MW424104   1.352   1.876   5.655  0.2836  1.6122  0.1508
 6085SOL     OW24105   2.808   5.994   4.512 -0.6826 -0.1729 -0.3086
 6085SOL    HW224106   2.865   6.069   4.532 -1.0749  0.2582 -0.7883
 6085SOL    HW324107   2.724   6.017   4.551 -0.6329 -0.6618  0.1017
 6085SOL    MW424108   2.805   6.007   4.520 -0.7278 -0.1805 -0.3178
 6086SOL     OW24109   5.608   0.319   2.869  0.1739  0.1824 -0.0135
 6086SOL    HW224110   5.595   0.225   2.882 -1.0901  0.2329 -0.7486
 6086SOL    HW324111   5.606   0.331   2.774  0.2639  0.9550  0.0739
 6086SOL    MW424112   5.606   0.308   2.858  0.0190  0.2910 -0.0989
 6087SOL     OW24113   1.728   3.437   0.948 -0.0212  0.4503 -0.1691
 6087SOL    HW224114   1.644   3.396   0.971  1.5687 -2.2203  1.4907
 6087SOL    HW324115   1.776   3.441   1.031  0.4489  4.8297 -0.4597
 6087SOL    MW424116   1.723   3.432   0.962  0.2506  0.6758  0.0116
 6088SOL     OW24117   3.228   0.729   0.129  0.0196  0.4814 -0.2936
 6088SOL    HW224118   3.225   0.692   0.217 -0.2571  0.6683 -0.2226
 6088SOL    HW324119   3.283   0.807   0.138  0.3198  0.2816 -0.3715
 6088SOL    MW424120   3.235   0.734   0.142  0.0227  0.4797 -0.2945
 6089SOL     OW24121   4.112   5.232   4.214  0.7187  1.0754  0.1773
 6089SOL    HW224122   4.144   5.317   4.242  1.1974  0.9691 -0.0505
 6089SOL    HW324123   4.146   5.221   4.125 -0.3901  1.2005 -0.2884
 6089SOL    MW424124   4.121   5.242   4.206  0.6356  1.0778  0.0858
 6090SOL     OW24125   5.395   5.865   0.958 -0.1028  0.1060 -0.2103
 6090SOL    HW224126   5.378   5.911   0.876  0.5068  1.7557  0.5383
 6090SOL    HW324127   5.457   5.921   1.005 -0.1529 -0.9664  1.2354
 6090SOL    MW424128   5.401   5.878   0.953 -0.0290  0.1821  0.0792
 6091SOL     OW24129   0.216   2.235   0.251  0.1333  0.7687 -0.0309
 6091SOL    HW224130   0.296   2.287   0.251  1.3360 -1.0025  0.0410
 6091SOL    HW324131   0.197   2.220   0.344 -1.8765  3.4030  0.1056
 6091SOL    MW424132   0.224   2.240   0.263  0.0268  0.8826 -0.0034
 6092SOL     OW24133   2.887   6.026   0.383  0.1241  0.1333  0.1946
 6092SOL    HW224134   2.886   6.005   0.289  0.3545  0.1115  0.1954
 6092SOL    HW324135   2.893   5.941   0.426 -0.5239  0.1143  0.2449
 6092SOL    MW424136   2.888   6.012   0.376  0.0690  0.1279  0.2013
 6093SOL     OW24137   5.491   1.521   0.760  0.6233  0.2694  0.3281
 6093SOL    HW224138   5.555   1.589   0.780 -0.0196  1.0982 -0.3420
 6093SOL    HW324139   5.503   1.503   0.667  0.6364 -0.3865  0.4490
 6093SOL    MW424140   5.501   1.528   0.751  0.5402  0.2922  0.2557
 6094SOL     OW24141   5.143   1.014   5.140 -0.1976 -0.4551 -0.0360
 6094SOL    HW224142   5.231   0.983   5.163  0.1548  1.0655  0.7979
 6094SOL    HW324143   5.158   1.096   5.094 -1.1514 -0.8046 -1.0009
 6094SOL    MW424144   5.157   1.020   5.137 -0.2769 -0.3006 -0.0533
 6095SOL     OW24145   1.487   4.154   0.892 -0.3286  0.2608 -0.0497
 6095SOL    HW224146   1.558   4.108   0.938  0.6473 -0.2870 -2.0059
 6095SOL    HW324147   1.529   4.230   0.852 -1.4058  1.4023  0.9024
 6095SOL    MW424148   1.502   4.158   0.893 -0.3420  0.3391 -0.1822
 6096SOL     OW24149   1.801   5.766   6.274  0.5182 -0.3218  0.1248
 6096SOL    HW224150   1.834   5.693   6.326  1.0094 -0.3043 -0.1538
 6096SOL    HW324151   1.876   5.795   6.222  1.1540  2.1536  2.2145
 6096SOL    MW424152   1.815   5.760   6.274  0.6669  0.0072  0.3638
 6097SOL     OW24153   6.154   1.613   3.812 -0.3581  0.3269 -0.7526
 6097SOL    HW224154   6.160   1.705   3.838  0.1708  0.5238 -1.5173
 6097SOL    HW324155   6.216   1.567   3.869  0.7159  0.7331 -1.5651
 6097SOL    MW424156   6.163   1.619   3.823 -0.1466  0.4065 -0.9607
 6098SOL     OW24157   2.722   4.103   5.023 -0.2676 -0.8995  0.4141
 6098SOL    HW224158   2.677   4.141   4.948 -0.5823 -1.7228  0.1733
 6098SOL    HW324159   2.722   4.172   5.089  0.8704  0.1856 -0.6665
 6098SOL    MW424160   2.716   4.117   5.022 -0.1590 -0.8650  0.2397
 6099SOL     OW24161   6.396   3.130   5.341 -0.7854  0.8392 -0.4613
 6099SOL    HW224162   6.333   3.061   5.360 -0.7967  1.0375  0.2501
 6099SOL    HW324163   6.467   3.086   5.295  0.3448 -0.1612  2.0307
 6099SOL    MW424164   6.397   3.115   5.338 -0.6378  0.7334 -0.0387
 6100SOL     OW24165   5.819   6.197   0.652 -0.1125  0.7576 -0.2803
 6100SOL    HW224166   5.774   6.124   0.610 -0.1569  1.0381 -0.7249
 6100SOL    HW324167   5.799   6.188   0.745 -0.2705  0.3132 -0.3582
 6100SOL    MW424168   5.810   6.186   0.659 -0.1392  0.7359 -0.3492
 6101SOL     OW24169   5.448   2.024   3.182 -0.1935 -0.1111  0.0992
 6101SOL    HW224170   5.379   1.971   3.222  1.3079 -2.3450 -0.0974
 6101SOL    HW324171   5.487   1.966   3.116  2.0513  0.9583  0.4049
 6101SOL    MW424172   5.444   2.009   3.178  0.3008 -0.2647  0.1136
 6102SOL     OW24173   2.772   0.136   3.515 -0.1361 -0.4245 -0.6969
 6102SOL    HW224174   2.782   0.041   3.520  2.1182 -0.2373 -0.4277
 6102SOL    HW324175   2.769   0.164   3.606  0.0969 -0.1791 -0.7641
 6102SOL    MW424176   2.773   0.127   3.528  0.1920 -0.3674 -0.6703
 6103SOL     OW24177   5.705   2.375   0.941  0.1224 -0.4399 -0.4661
 6103SOL    HW224178   5.766   2.394   1.012  1.8250  0.1287 -1.9809
 6103SOL    HW324179   5.757   2.323   0.879 -1.2174 -0.6936 -1.4178
 6103SOL    MW424180   5.720   2.371   0.942  0.1702 -0.3984 -0.7915
 6104SOL     OW24181   4.847   1.063   6.212 -0.4972  0.1793  0.0514
 6104SOL    HW224182   4.880   1.139   6.261  0.2529  0.7197 -1.2304
 6104SOL    HW324183   4.870   0.988   6.266  1.3093  0.6766  0.0413
 6104SOL    MW424184   4.855   1.063   6.226 -0.1599  0.3162 -0.1191
 6105SOL     OW24185   2.799   3.357   1.096  0.0654 -0.5749  0.4796
 6105SOL    HW224186   2.822   3.266   1.116 -2.6480 -1.3011  0.6632
 6105SOL    HW324187   2.704   3.356   1.084  0.0838  2.0582 -0.6221
 6105SOL    MW424188   2.789   3.345   1.097 -0.2902 -0.3233  0.3585
 6106SOL     OW24189   5.422   0.213   1.242 -0.0845  0.5095 -0.2795
 6106SOL    HW224190   5.492   0.205   1.307 -1.2131  1.6053  1.1528
 6106SOL    HW324191   5.465   0.246   1.164  0.9796  1.2910  0.6114
 6106SOL    MW424192   5.437   0.216   1.240 -0.0930  0.7572  0.0270
 6107SOL     OW24193   0.217   1.832   5.164  0.2169  0.0722  0.5259
 6107SOL    HW224194   0.306   1.845   5.130  0.6455  0.3448  1.7190
 6107SOL    HW324195   0.162   1.890   5.111  0.6642 -0.4029 -0.4969
 6107SOL    MW424196   0.221   1.841   5.153  0.3324  0.0455  0.5484
 6108SOL     OW24197   1.740   0.747   5.222 -0.5243 -0.1970  0.0923
 6108SOL    HW224198   1.658   0.780   5.184 -0.6404  1.5039  1.6883
 6108SOL    HW324199   1.712   0.696   5.298 -0.1170  0.4550  0.6882
 6108SOL    MW424200   1.725   0.745   5.227 -0.4859  0.1135  0.3815
 6109SOL     OW24201   4.577   1.979   4.970 -0.3808  0.3041 -0.4247
 6109SOL    HW224202   4.523   1.973   4.891  0.3696 -2.1683 -0.8445
 6109SOL    HW324203   4.652   2.033   4.943 -0.6732  0.3937 -1.0747
 6109SOL    MW424204   4.580   1.985   4.956 -0.3203 -0.0102 -0.5659
 6110SOL     OW24205   0.946   0.991   3.603 -0.2045 -0.0389  0.1505
 6110SOL    HW224206   0.898   1.073   3.597  0.2500  0.2807  0.7914
 6110SOL    HW324207   0.956   0.975   3.697 -0.1698 -0.7598  0.0347
 6110SOL    MW424208   0.941   0.999   3.615 -0.1400 -0.0918  0.2198
 6111SOL     OW24209   5.608   3.914   3.579  0.0957  0.0832 -0.7125
 6111SOL    HW224210   5.637   3.882   3.664  2.2084  1.1840 -0.9487
 6111SOL    HW324211   5.513   3.909   3.582  0.1208  0.1497  1.7374
 6111SOL    MW424212   5.600   3.909   3.590  0.3778  0.2372 -0.4204
 6112SOL     OW24213   4.737   6.095   5.528 -0.0619 -0.2006 -0.0787
 6112SOL    HW224214   4.728   6.036   5.454  1.0900 -0.2122 -0.2235
 6112SOL    HW324215   4.652   6.138   5.535 -0.3263 -0.5290 -1.1188
 6112SOL    MW424216   4.725   6.093   5.519  0.0552 -0.2454 -0.2350
 6113SOL     OW24217   0.031   2.918   3.567 -0.3924 -0.0213 -0.3895
 6113SOL    HW224218   0.125   2.903   3.579 -0.7039 -2.2411 -0.3911
 6113SOL    HW324219   0.015   2.901   3.474 -0.8405  0.1992 -0.3571
 6113SOL    MW424220   0.041   2.914   3.556 -0.4926 -0.2851 -0.3855
 6114SOL     OW24221   4.835   0.720   2.541  0.3744  0.8943 -0.5981
 6114SOL    HW224222   4.800   0.720   2.452 -2.3708 -0.9285  0.3242
 6114SOL    HW324223   4.904   0.654   2.540  0.1392  0.6533 -1.3309
 6114SOL    MW424224   4.839   0.711   2.529 -0.0189  0.6220 -0.5731
 6115SOL     OW24225   5.664   2.600   0.588 -0.2262  0.0735 -0.2192
 6115SOL    HW224226   5.582   2.631   0.550  0.1761  0.4136 -0.8346
 6115SOL    HW324227   5.655   2.617   0.682 -1.2801 -0.8757 -0.1368
 6115SOL    MW424228   5.652   2.607   0.596 -0.3122 -0.0068 -0.2895
 6116SOL     OW24229   1.198   1.413   0.272  0.5906 -0.1306 -0.2758
 6116SOL    HW224230   1.220   1.425   0.180  0.2537  1.0339 -0.2292
 6116SOL    HW324231   1.103   1.418   0.276  0.6227  0.2883  0.1791
 6116SOL    MW424232   1.189   1.416   0.261  0.5504  0.0783 -0.2096
 6117SOL     OW24233   0.293   3.268   0.474  0.2166  0.2362  0.3267
 6117SOL    HW224234   0.235   3.205   0.517 -0.8091  0.2406 -0.9871
 6117SOL    HW324235   0.293   3.344   0.532 -1.1065  0.2289  0.3706
 6117SOL    MW424236   0.285   3.269   0.487 -0.0933  0.2358  0.1592
 6118SOL     OW24237   0.812   6.087   6.071 -0.0379 -0.5490  0.5383
 6118SOL    HW224238   0.791   6.181   6.076  0.1524 -0.5516  1.5009
 6118SOL    HW324239   0.828   6.071   5.978  2.5015  0.9424  0.6410
 6118SOL    MW424240   0.811   6.097   6.059  0.3222 -0.3526  0.6789
 6119SOL     OW24241   4.861   1.182   2.497  0.0208 -0.2961 -0.8333
 6119SOL    HW224242   4.915   1.256   2.526  1.0240 -0.7258 -1.5436
 6119SOL    HW324243   4.816   1.153   2.576  1.9928 -0.8574  0.1751
 6119SOL    MW424244   4.862   1.188   2.512  0.4133 -0.4268 -0.7940
 6120SOL     OW24245   5.368   1.883   0.722 -0.1368  0.1831 -0.3026
 6120SOL    HW224246   5.301   1.817   0.703  0.3591 -0.4870  0.1986
 6120SOL    HW324247   5.383   1.875   0.816  1.7272 -0.7668 -0.6216
 6120SOL    MW424248   5.361   1.873   0.732  0.1745 -0.0306 -0.2786
 6121SOL     OW24249   0.247   0.417   5.747  0.0384 -0.4002 -0.1263
 6121SOL    HW224250   0.198   0.499   5.748  0.8397  0.0898 -0.2483
 6121SOL    HW324251   0.283   0.408   5.835  2.3808  0.9091 -0.8508
 6121SOL    MW424252   0.245   0.427   5.758  0.4531 -0.1628 -0.2380
 6122SOL     OW24253   2.034   1.242   5.882 -0.5834  0.4161  0.5086
 6122SOL    HW224254   1.957   1.200   5.843  0.4451 -0.9371 -0.1678
 6122SOL    HW324255   2.020   1.236   5.976 -0.7656 -0.9445  0.4164
 6122SOL    MW424256   2.022   1.236   5.889 -0.4717  0.0580  0.4072
 6123SOL     OW24257   1.116   1.568   0.584 -0.3745  0.1117 -0.2794
 6123SOL    HW224258   1.123   1.633   0.514  0.6445 -0.3741 -0.6462
 6123SOL    HW324259   1.127   1.619   0.664 -3.0657  0.9258 -0.3283
 6123SOL    MW424260   1.118   1.584   0.585 -0.5952  0.1550 -0.3343
 6124SOL     OW24261   2.260   4.807   1.523 -0.1219 -0.1730 -0.0491
 6124SOL    HW224262   2.182   4.857   1.499  1.5444  1.9599 -1.4254
 6124SOL    HW324263   2.329   4.873   1.534  1.9977 -2.0693 -0.9451
 6124SOL    MW424264   2.259   4.822   1.521  0.3776 -0.1418 -0.3489
 6125SOL     OW24265   3.399   4.441   1.704  0.1533 -0.7752  0.4604
 6125SOL    HW224266   3.313   4.461   1.669  0.8716  0.0548 -0.9210
 6125SOL    HW324267   3.393   4.349   1.733 -0.9072 -1.0326 -0.5175
 6125SOL    MW424268   3.387   4.431   1.703  0.1081 -0.6997  0.1491
 6126SOL     OW24269   2.960   1.950   4.449  0.4700  0.2275  0.0069
 6126SOL    HW224270   3.033   1.983   4.396  0.7616 -2.9676 -1.7721
 6126SOL    HW324271   2.969   1.855   4.447 -5.0071 -0.5883 -2.2483
 6126SOL    MW424272   2.971   1.942   4.442 -0.2141 -0.3017 -0.5254
 6127SOL     OW24273   4.966   1.844   1.839  0.0138 -0.4339 -0.2838
 6127SOL    HW224274   4.913   1.922   1.859 -0.4737 -1.1300  1.2014
 6127SOL    HW324275   5.054   1.879   1.825 -0.0109  0.3119  1.2376
 6127SOL    MW424276   4.970   1.859   1.840 -0.0538 -0.4273  0.1129
 6128SOL     OW24277   4.637   1.792   3.348 -0.0579  0.0889 -0.1362
 6128SOL    HW224278   4.568   1.838   3.301 -2.9101 -1.4230  2.2220
 6128SOL    HW324279   4.631   1.825   3.438  0.6281 -1.8274  0.6802
 6128SOL    MW424280   4.627   1.803   3.354 -0.3437 -0.3634  0.2826
 6129SOL     OW24281   0.249   3.581   2.030 -0.2061  0.5612  0.2063
 6129SOL    HW224282   0.282   3.643   1.966  0.3456 -0.0287 -0.0993
 6129SOL    HW324283   0.171   3.622   2.066 -0.1789  1.1663 -0.4065
 6129SOL    MW424284   0.243   3.595   2.026 -0.1297  0.5632  0.0852
 6130SOL     OW24285   5.019   0.281   4.425 -0.6239  0.1950 -0.0039
 6130SOL    HW224286   5.042   0.323   4.342 -0.9259  0.4426  0.0358
 6130SOL    HW324287   5.066   0.198   4.424  2.3518  1.7232  1.1825
 6130SOL    MW424288   5.028   0.276   4.414 -0.2712  0.4293  0.1579
 6131SOL     OW24289   0.367   3.225   4.828  0.2037  0.0620 -0.4684
 6131SOL    HW224290   0.457   3.228   4.797 -0.2405  1.7217 -1.7654
 6131SOL    HW324291   0.314   3.240   4.749 -1.1111  1.0888  0.5582
 6131SOL    MW424292   0.372   3.228   4.813 -0.0284  0.4165 -0.5041
 6132SOL     OW24293   1.484   6.127   3.144  0.3555 -0.3995  0.2587
 6132SOL    HW224294   1.450   6.059   3.202 -2.1822  1.3543  1.0549
 6132SOL    HW324295   1.544   6.178   3.200  1.1652 -1.1332  0.0729
 6132SOL    MW424296   1.487   6.125   3.159  0.1275 -0.2649  0.3393
 6133SOL     OW24297   0.294   3.040   2.642 -0.2920 -0.2813  0.2521
 6133SOL    HW224298   0.290   2.992   2.559  0.8720 -2.2484  1.2461
 6133SOL    HW324299   0.231   2.996   2.698 -0.4001  0.4413  0.7110
 6133SOL    MW424300   0.285   3.028   2.638 -0.1527 -0.4455  0.4438
 6134SOL     OW24301   3.354   5.684   4.834 -0.3633  0.4224  0.6015
 6134SOL    HW224302   3.328   5.598   4.868  1.0171 -2.0659 -3.8540
 6134SOL    HW324303   3.443   5.697   4.866 -0.1160 -0.4588  0.2896
 6134SOL    MW424304   3.362   5.675   4.843 -0.1486 -0.0221 -0.0275
 6135SOL     OW24305   2.595   0.047   1.751  0.0843  0.0156 -0.3204
 6135SOL    HW224306   2.676  -0.002   1.756 -0.2843 -0.5634  0.1030
 6135SOL    HW324307   2.534  -0.011   1.705 -0.3102  0.1313  0.0463
 6135SOL    MW424308   2.598   0.033   1.745 -0.0164 -0.0456 -0.2161
 6136SOL     OW24309   2.794   4.148   3.723 -0.0491  0.0069  0.5508
 6136SOL    HW224310   2.790   4.183   3.812 -0.2674  0.1066  0.5025
 6136SOL    HW324311   2.750   4.063   3.729 -1.9452  0.9024  0.1158
 6136SOL    MW424312   2.787   4.141   3.736 -0.3280  0.1382  0.4870
 6137SOL     OW24313   6.170   0.630   3.140  0.3301  0.2838 -0.1527
 6137SOL    HW224314   6.158   0.664   3.228  0.7612  0.6895 -0.2418
 6137SOL    HW324315   6.151   0.704   3.083  1.8449  0.5658 -0.3294
 6137SOL    MW424316   6.166   0.644   3.144  0.5868  0.3746 -0.1878
 6138SOL     OW24317   2.900   1.954   2.382  0.1225 -0.0967  0.2693
 6138SOL    HW224318   2.834   1.932   2.317 -0.3869  0.7988  0.4586
 6138SOL    HW324319   2.916   1.872   2.429 -1.7720 -0.0860  1.0323
 6138SOL    MW424320   2.894   1.940   2.380 -0.1947  0.0229  0.3949
 6139SOL     OW24321   1.128   3.138   4.031 -0.5242  0.6957  0.2288
 6139SOL    HW224322   1.215   3.133   4.070 -1.2225 -0.0004  1.7630
 6139SOL    HW324323   1.103   3.047   4.015 -0.6763  0.9236 -0.9414
 6139SOL    MW424324   1.136   3.126   4.034 -0.6364  0.6339  0.2768
 6140SOL     OW24325   5.701   2.521   1.749  0.2321 -0.0762  0.3410
 6140SOL    HW224326   5.738   2.432   1.747 -1.1031 -0.6647 -1.6923
 6140SOL    HW324327   5.681   2.540   1.657 -0.6828  1.8375  0.8910
 6140SOL    MW424328   5.703   2.512   1.736 -0.0648  0.0987  0.1453
 6141SOL     OW24329   1.723   3.922   2.279  0.3097 -0.0316 -0.5410
 6141SOL    HW224330   1.669   3.855   2.237  0.2746 -0.0102 -0.5303
 6141SOL    HW324331   1.795   3.874   2.319  0.6867  0.0047 -1.1588
 6141SOL    MW424332   1.725   3.907   2.279  0.3548 -0.0240 -0.6211
 6142SOL     OW24333   0.510   4.223   4.623  0.2828 -0.4296  0.0947
 6142SOL    HW224334   0.484   4.216   4.532 -1.8125 -0.9425  0.6730
 6142SOL    HW324335   0.464   4.300   4.656  2.6672  1.0262  0.2597
 6142SOL    MW424336   0.501   4.232   4.616  0.3209 -0.3052  0.1928
 6143SOL     OW24337   5.213   4.658   6.214 -0.0574 -0.9804 -0.4086
 6143SOL    HW224338   5.267   4.622   6.144 -0.6681 -1.2512 -0.7447
 6143SOL    HW324339   5.258   4.738   6.240  0.0237 -0.7244 -1.3072
 6143SOL    MW424340   5.226   4.664   6.208 -0.1273 -0.9824 -0.5715
 6144SOL     OW24341   0.901   1.302   0.016 -0.1582 -0.1105 -0.5933
 6144SOL    HW224342   0.833   1.351  -0.031  0.3357  0.8518 -0.3351
 6144SOL    HW324343   0.865   1.213   0.024 -1.9457  0.6523  0.5928
 6144SOL    MW424344   0.887   1.297   0.011 -0.3289  0.1171 -0.4028
 6145SOL     OW24345   3.400  -0.040   1.465  0.4414 -0.2034  0.5711
 6145SOL    HW224346   3.375  -0.029   1.557 -0.0785 -2.4774  0.7628
 6145SOL    HW324347   3.423  -0.132   1.457  2.3788  0.3394 -1.1737
 6145SOL    MW424348   3.400  -0.050   1.476  0.6284 -0.4318  0.3662
 6146SOL     OW24349   2.342   4.242   4.892 -0.2215 -0.4598  0.5978
 6146SOL    HW224350   2.432   4.269   4.872 -0.5734 -0.0308 -0.4708
 6146SOL    HW324351   2.343   4.147   4.880  0.3734 -0.6330  1.8064
 6146SOL    MW424352   2.354   4.233   4.888 -0.1894 -0.4261  0.6162
 6147SOL     OW24353   4.455   1.378   1.630 -0.0122 -0.8003  0.5069
 6147SOL    HW224354   4.420   1.452   1.680 -3.1232 -1.8994  0.1900
 6147SOL    HW324355   4.378   1.325   1.610  1.5720 -2.1811 -2.5273
 6147SOL    MW424356   4.440   1.381   1.634 -0.2136 -1.1275  0.0648
 6148SOL     OW24357   4.925   0.598   3.413  0.0703 -0.0804  0.4969
 6148SOL    HW224358   4.843   0.647   3.416 -0.2749 -0.6053 -0.3029
 6148SOL    HW324359   4.993   0.665   3.429 -0.3720  0.7265 -0.8606
 6148SOL    MW424360   4.923   0.613   3.415 -0.0336 -0.0432  0.2122
 6149SOL     OW24361   2.225   4.584   6.039  0.0911  0.0508  0.6909
 6149SOL    HW224362   2.206   4.538   5.957  1.3036  0.0577  0.3945
 6149SOL    HW324363   2.151   4.562   6.096 -0.5641 -0.2849 -0.2625
 6149SOL    MW424364   2.213   4.575   6.036  0.1646  0.0074  0.5260
 6150SOL     OW24365   5.569   1.851   1.193 -0.3048 -0.3607 -0.0368
 6150SOL    HW224366   5.624   1.927   1.215  0.0765  0.3974 -3.2029
 6150SOL    HW324367   5.493   1.888   1.149  0.9473 -1.7307 -3.7598
 6150SOL    MW424368   5.566   1.866   1.190 -0.0893 -0.4414 -0.9457
 6151SOL     OW24369   3.829   6.034   2.404 -0.0176 -0.0409  0.1601
 6151SOL    HW224370   3.856   6.066   2.318  1.2886 -0.2057  0.4777
 6151SOL    HW324371   3.734   6.043   2.405  0.1801  2.8951 -0.1228
 6151SOL    MW424372   3.820   6.039   2.392  0.1808  0.3247  0.1647
 6152SOL     OW24373   5.234   2.346   3.715  0.3937 -0.6362 -0.2643
 6152SOL    HW224374   5.176   2.338   3.640 -0.0457 -0.4532  0.0553
 6152SOL    HW324375   5.190   2.296   3.785  1.0836 -1.3125 -0.2921
 6152SOL    MW424376   5.221   2.338   3.715  0.4268 -0.7013 -0.2258
 6153SOL     OW24377   2.948   3.564   5.349 -0.0531  0.3420  0.0395
 6153SOL    HW224378   2.873   3.590   5.402 -0.2803  0.2051 -0.2121
 6153SOL    HW324379   2.991   3.647   5.326  2.2103  0.3282  3.4719
 6153SOL    MW424380   2.944   3.579   5.353  0.2155  0.3222  0.4592
 6154SOL     OW24381   6.317   6.210   3.151  0.3697  0.2131 -0.0247
 6154SOL    HW224382   6.304   6.233   3.243 -0.3805  1.4997 -0.4389
 6154SOL    HW324383   6.391   6.148   3.152 -0.2056 -0.4858  1.5136
 6154SOL    MW424384   6.325   6.205   3.163  0.1948  0.2906  0.1236
 6155SOL     OW24385   0.628   4.724   1.779 -0.1983 -0.0017  0.1157
 6155SOL    HW224386   0.591   4.711   1.691 -2.1632 -0.3566  0.9364
 6155SOL    HW324387   0.666   4.639   1.801  0.1159  0.0259 -0.3163
 6155SOL    MW424388   0.628   4.711   1.770 -0.4161 -0.0448  0.1670
 6156SOL     OW24389   0.474   2.854   6.404  0.1687  0.2764 -0.6974
 6156SOL    HW224390   0.426   2.910   6.343 -0.9671 -0.4864 -0.5305
 6156SOL    HW324391   0.560   2.895   6.412 -0.8760  2.4428  0.0463
 6156SOL    MW424392   0.479   2.866   6.397 -0.1190  0.4616 -0.5772
 6157SOL     OW24393   6.261   0.698   5.997  0.6373 -0.1459 -0.1990
 6157SOL    HW224394   6.286   0.606   6.008  2.7175  0.3668 -0.1399
 6157SOL    HW324395   6.218   0.701   5.912  0.0556 -1.2438  0.0307
 6157SOL    MW424396   6.259   0.686   5.987  0.8350 -0.2231 -0.1609
 6158SOL     OW24397   2.014   3.321   1.738  0.2159 -0.6653  0.4950
 6158SOL    HW224398   1.990   3.388   1.802 -0.7088 -1.3087  0.8393
 6158SOL    HW324399   2.058   3.254   1.790 -0.0597 -0.9450  0.3689
 6158SOL    MW424400   2.017   3.321   1.753  0.0575 -0.7871  0.5238
 6159SOL     OW24401   5.015   2.302   0.621 -0.0504  0.2295  0.4155
 6159SOL    HW224402   5.096   2.303   0.571  0.2196  1.5007  0.8235
 6159SOL    HW324403   4.950   2.340   0.561 -0.1834 -0.1377  0.3281
 6159SOL    MW424404   5.017   2.307   0.606 -0.0323  0.3487  0.4578
 6160SOL     OW24405   3.064   0.392   2.591  0.6787  0.1211  0.2331
 6160SOL    HW224406   3.134   0.336   2.625  0.3690 -0.4819 -0.1069
 6160SOL    HW324407   2.987   0.335   2.589 -0.1602  1.1266  1.8348
 6160SOL    MW424408   3.063   0.377   2.595  0.5271  0.1742  0.3996
 6161SOL     OW24409   0.383   0.851   1.903 -0.2131 -0.1382 -0.4587
 6161SOL    HW224410   0.393   0.766   1.945 -1.5294 -0.4971 -0.8472
 6161SOL    HW324411   0.449   0.906   1.946 -0.1837 -1.0153  0.6626
 6161SOL    MW424412   0.393   0.847   1.914 -0.3829 -0.3013 -0.3620
 6162SOL     OW24413   1.629   3.755   0.470  0.4451 -0.0785 -0.0724
 6162SOL    HW224414   1.643   3.704   0.390 -1.6839 -1.0084  0.0679
 6162SOL    HW324415   1.541   3.731   0.498  0.4222  1.6614  1.5350
 6162SOL    MW424416   1.619   3.745   0.463  0.1612  0.0284  0.1582
 6163SOL     OW24417   2.599   1.266   6.238  0.0657  0.0819  0.3527
 6163SOL    HW224418   2.579   1.241   6.329 -1.4808 -0.1683 -0.0308
 6163SOL    HW324419   2.637   1.353   6.245 -0.1763  0.1296  1.2444
 6163SOL    MW424420   2.601   1.274   6.251 -0.1703  0.0552  0.4198
 6164SOL     OW24421   3.992   4.778   3.013  0.0395  0.4947  0.2336
 6164SOL    HW224422   3.923   4.814   2.958  0.0499  0.2698  0.0724
 6164SOL    HW324423   4.013   4.849   3.075 -0.0823  0.6897  0.0531
 6164SOL    MW424424   3.986   4.792   3.014  0.0248  0.4908  0.1885
 6165SOL     OW24425   2.346   4.742   4.588  0.1089 -0.0172  0.0677
 6165SOL    HW224426   2.319   4.685   4.516  0.0185  0.8845 -0.6336
 6165SOL    HW324427   2.412   4.799   4.548  1.9018 -1.0933  1.3153
 6165SOL    MW424428   2.351   4.742   4.573  0.3336 -0.0402  0.1398
 6166SOL     OW24429   4.979   5.803   1.545 -0.2888  0.4760  0.1216
 6166SOL    HW224430   4.892   5.843   1.551 -0.6463  0.0235 -1.5255
 6166SOL    HW324431   5.031   5.866   1.496 -0.3476 -0.2535 -0.8991
 6166SOL    MW424432   4.974   5.817   1.540 -0.3438  0.3201 -0.2304
 6167SOL     OW24433   2.683   3.569   4.224 -0.8672 -0.5926  0.2155
 6167SOL    HW224434   2.724   3.649   4.190 -0.3354 -0.2199  1.6531
 6167SOL    HW324435   2.590   3.591   4.230 -0.8118 -0.2915  0.0333
 6167SOL    MW424436   2.676   3.583   4.220 -0.7897 -0.5037  0.3811
 6168SOL     OW24437   1.187   1.917   6.016 -0.0341 -0.0389 -0.5397
 6168SOL    HW224438   1.125   1.984   5.989  0.5873  0.4363 -0.8324
 6168SOL    HW324439   1.164   1.897   6.106  0.2792  1.1809 -0.1660
 6168SOL    MW424440   1.176   1.923   6.024  0.0892  0.1848 -0.5290
 6169SOL     OW24441   4.611   5.276   2.046  0.2425  0.0041 -0.2277
 6169SOL    HW224442   4.691   5.325   2.030 -0.4853  0.8042 -1.6067
 6169SOL    HW324443   4.616   5.249   2.138  0.8994  2.2384  0.4335
 6169SOL    MW424444   4.622   5.279   2.056  0.2331  0.4045 -0.3224
 6170SOL     OW24445   5.408   4.409   0.856  0.5297 -0.0588  0.2876
 6170SOL    HW224446   5.437   4.489   0.899 -1.4351 -0.0877  1.8178
 6170SOL    HW324447   5.436   4.419   0.765  2.3270  1.2972  0.9220
 6170SOL    MW424448   5.416   4.421   0.849  0.5076  0.1163  0.5732
 6171SOL     OW24449   0.630   1.015   2.868  0.3572 -0.0673  0.4749
 6171SOL    HW224450   0.720   1.032   2.840  0.5696 -0.4514  0.9033
 6171SOL    HW324451   0.631   0.925   2.898 -0.0490  0.0836  0.9588
 6171SOL    MW424452   0.642   1.006   2.869  0.3316 -0.0981  0.5952
 6172SOL     OW24453   1.304   1.473   2.164  0.1288 -0.3532  0.0678
 6172SOL    HW224454   1.389   1.448   2.199  0.3053 -1.0037 -0.7959
 6172SOL    HW324455   1.256   1.391   2.156  0.7132 -0.5386 -2.7999
 6172SOL    MW424456   1.309   1.459   2.168  0.2292 -0.4635 -0.4245
 6173SOL     OW24457   0.328   3.422   6.345  0.6707  0.0001 -0.4439
 6173SOL    HW224458   0.316   3.439   6.438 -0.4587 -0.6871 -0.4405
 6173SOL    HW324459   0.317   3.327   6.336 -0.2323  0.1652 -1.3900
 6173SOL    MW424460   0.325   3.412   6.356  0.4026 -0.0688 -0.5683
 6174SOL     OW24461   6.165   1.869   3.919 -0.5773 -0.6055  0.4777
 6174SOL    HW224462   6.169   1.952   3.872  1.0315 -0.4957  0.7577
 6174SOL    HW324463   6.076   1.866   3.955 -0.8448  0.7120 -0.0232
 6174SOL    MW424464   6.154   1.880   3.918 -0.4003 -0.4172  0.4486
 6175SOL     OW24465   5.594   4.645   4.629 -0.0764 -0.0134  0.2576
 6175SOL    HW224466   5.631   4.568   4.587  2.1320  0.2821  1.5142
 6175SOL    HW324467   5.605   4.629   4.723  2.5235  2.6732  0.5548
 6175SOL    MW424468   5.600   4.633   4.636  0.5580  0.3801  0.4626
 6176SOL     OW24469   5.136   4.169   1.159 -0.7083  0.1233 -0.3305
 6176SOL    HW224470   5.204   4.130   1.214 -0.7329 -1.6651 -1.5007
 6176SOL    HW324471   5.058   4.118   1.179 -0.7036 -0.6054 -2.0312
 6176SOL    MW424472   5.135   4.157   1.169 -0.7109 -0.2088 -0.7093
 6177SOL     OW24473   0.174   2.805   0.007 -0.0478 -0.4474 -0.3402
 6177SOL    HW224474   0.092   2.760   0.025 -0.2366 -0.6880 -1.7131
 6177SOL    HW324475   0.237   2.735  -0.009  0.3350 -0.2559  0.2803
 6177SOL    MW424476   0.172   2.790   0.008 -0.0222 -0.4539 -0.4395
 6178SOL     OW24477   4.877   4.973   4.503 -0.6514 -0.0158 -0.3886
 6178SOL    HW224478   4.957   4.920   4.502  0.0337  0.9260  0.8313
 6178SOL    HW324479   4.814   4.921   4.553  0.0232  0.2892  0.8270
 6178SOL    MW424480   4.880   4.959   4.510 -0.4720  0.1487 -0.0673
 6179SOL     OW24481   2.868   2.879   0.507 -0.0683  0.3201  0.1129
 6179SOL    HW224482   2.937   2.825   0.546  0.1399  0.6708  0.2288
 6179SOL    HW324483   2.911   2.962   0.486 -0.3924  0.4467 -0.0524
 6179SOL    MW424484   2.883   2.883   0.510 -0.0836  0.3831  0.1064
 6180SOL     OW24485   0.015   2.279   3.579  0.3587  0.9145  0.4263
 6180SOL    HW224486   0.039   2.356   3.631 -0.5073  1.4371  0.0659
 6180SOL    HW324487  -0.048   2.312   3.515  0.6768  0.0878 -0.3335
 6180SOL    MW424488   0.010   2.294   3.577  0.2864  0.8743  0.2785
 6181SOL     OW24489   4.372   2.346   0.904 -0.0329 -0.1403  0.3214
 6181SOL    HW224490   4.341   2.407   0.971 -1.5559  0.2552 -0.6714
 6181SOL    HW324491   4.433   2.398   0.851 -0.0291  0.0205  0.4814
 6181SOL    MW424492   4.376   2.361   0.906 -0.2333 -0.0669  0.2115
 6182SOL     OW24493   6.231   5.864   1.338  0.3883 -0.3191  0.1859
 6182SOL    HW224494   6.205   5.793   1.280  0.0030  0.0606 -0.1182
 6182SOL    HW324495   6.271   5.929   1.279 -1.3630  0.7457  0.0769
 6182SOL    MW424496   6.233   5.863   1.322  0.1064 -0.1285  0.1314
 6183SOL     OW24497   3.616   5.669   0.755 -0.3356 -0.2598  0.3214
 6183SOL    HW224498   3.681   5.604   0.726  0.2071 -0.5344  2.0615
 6183SOL    HW324499   3.653   5.706   0.835 -2.0118  0.0785  0.9736
 6183SOL    MW424500   3.630   5.665   0.762 -0.4852 -0.2514  0.6370
 6184SOL     OW24501   1.442   4.114   4.271 -0.5213 -0.0495 -0.2506
 6184SOL    HW224502   1.355   4.143   4.242  0.8440  3.0282 -1.8445
 6184SOL    HW324503   1.445   4.136   4.364 -0.9785  1.3286 -0.5314
 6184SOL    MW424504   1.431   4.121   4.279 -0.4015  0.5384 -0.4979
 6185SOL     OW24505   3.327   0.938   3.441  1.0085  0.3546 -0.0465
 6185SOL    HW224506   3.295   1.028   3.450  0.1891 -0.0575  1.7057
 6185SOL    HW324507   3.412   0.939   3.484  1.3174  0.4331 -0.6494
 6185SOL    MW424508   3.334   0.950   3.448  0.9412  0.3106  0.1051
 6186SOL     OW24509   4.428   2.530   2.820 -0.0347  0.0514 -0.1449
 6186SOL    HW224510   4.515   2.562   2.847  1.0085 -2.1344 -0.7226
 6186SOL    HW324511   4.424   2.549   2.727  0.0219 -0.2482 -0.2096
 6186SOL    MW424512   4.439   2.537   2.812  0.1104 -0.2765 -0.2297
 6187SOL     OW24513   0.763   2.040   3.066 -0.1560  0.1308  0.5163
 6187SOL    HW224514   0.728   2.022   2.978  1.6469 -1.2223  0.0035
 6187SOL    HW324515   0.726   2.125   3.090  0.4939  1.3102 -2.2304
 6187SOL    MW424516   0.754   2.049   3.057  0.1676  0.1078  0.0862
 6188SOL     OW24517   2.577   4.430   1.847 -0.2294 -0.2028  0.3116
 6188SOL    HW224518   2.501   4.379   1.874 -0.8334 -0.1673 -1.2124
 6188SOL    HW324519   2.591   4.492   1.919 -2.1408  0.3186  0.3014
 6188SOL    MW424520   2.569   4.431   1.860 -0.5613 -0.1294  0.1091
 6189SOL     OW24521   5.352   1.003   1.967  0.5072 -0.2164 -0.2923
 6189SOL    HW224522   5.386   1.084   2.006 -0.1683 -0.1600  0.1883
 6189SOL    HW324523   5.375   1.010   1.875  4.0252 -1.2936  0.3501
 6189SOL    MW424524   5.360   1.014   1.960  0.8822 -0.3511 -0.1442
 6190SOL     OW24525   4.208   2.093   5.985  0.8478  0.2072 -0.0414
 6190SOL    HW224526   4.225   2.070   5.893  0.7489 -1.4485  0.3407
 6190SOL    HW324527   4.218   2.011   6.033  0.4762  0.9710  1.3857
 6190SOL    MW424528   4.212   2.079   5.979  0.7857  0.0895  0.1973
 6191SOL     OW24529   4.308   4.790   1.858 -0.0517 -0.4128  0.1193
 6191SOL    HW224530   4.311   4.842   1.939  0.7178 -0.7186  0.2915
 6191SOL    HW324531   4.255   4.843   1.798 -0.2687  0.0172  0.6823
 6191SOL    MW424532   4.301   4.804   1.861  0.0212 -0.3964  0.2163
 6192SOL     OW24533   3.875   0.007   0.471  0.1620  0.2272 -0.5449
 6192SOL    HW224534   3.895   0.001   0.377  0.7795 -1.5748 -0.3234
 6192SOL    HW324535   3.875  -0.083   0.502  2.4343  0.8636  1.6980
 6192SOL    MW424536   3.878  -0.005   0.462  0.5433  0.0734 -0.2198
 6193SOL     OW24537   5.515   2.004   4.766  0.4921  0.8809  0.4865
 6193SOL    HW224538   5.529   2.078   4.824  0.7499  0.8764  0.4353
 6193SOL    HW324539   5.458   1.945   4.815  0.4714  1.0099  0.6180
 6193SOL    MW424540   5.510   2.006   4.780  0.5234  0.8973  0.4971
 6194SOL     OW24541   2.916   3.232   2.769  0.2682 -0.4700 -0.2030
 6194SOL    HW224542   2.842   3.292   2.762  0.4047 -0.2307  0.3964
 6194SOL    HW324543   2.988   3.278   2.725  0.6249  0.2239  1.0789
 6194SOL    MW424544   2.916   3.246   2.762  0.3333 -0.3469  0.0452
 6195SOL     OW24545   1.630   2.865   4.270  0.4216 -0.3925 -0.5109
 6195SOL    HW224546   1.645   2.945   4.321 -0.2553 -0.9895  0.6759
 6195SOL    HW324547   1.608   2.799   4.336 -1.0429 -1.0690 -1.6223
 6195SOL    MW424548   1.629   2.867   4.286  0.1391 -0.5605 -0.5010
 6196SOL     OW24549   4.768   2.755   1.625  0.3393  0.5667 -0.0089
 6196SOL    HW224550   4.761   2.664   1.596 -0.5298 -0.0439  1.9065
 6196SOL    HW324551   4.829   2.751   1.699 -1.3457  1.1499  1.4543
 6196SOL    MW424552   4.775   2.742   1.631  0.0023  0.5631  0.4369
 6197SOL     OW24553   2.588   4.083   0.528 -0.2421 -0.2464  0.1715
 6197SOL    HW224554   2.616   4.163   0.485 -3.6760  1.8555  1.3902
 6197SOL    HW324555   2.668   4.046   0.564  1.6006  2.2853 -1.0022
 6197SOL    MW424556   2.602   4.089   0.527 -0.4520  0.3649  0.1774
 6198SOL     OW24557   0.227   3.801   2.880  0.2369 -0.5626  0.4264
 6198SOL    HW224558   0.165   3.786   2.951 -1.4410  1.2867 -0.5467
 6198SOL    HW324559   0.196   3.745   2.809 -1.7169  1.8185 -0.7653
 6198SOL    MW424560   0.215   3.792   2.880 -0.2422 -0.0044  0.1408
 6199SOL     OW24561   1.984   5.870   0.144 -0.3201  0.4396  0.5709
 6199SOL    HW224562   1.896   5.891   0.113  0.5003  1.8365 -0.9367
 6199SOL    HW324563   2.019   5.809   0.078 -0.0812  0.0156  1.0793
 6199SOL    MW424564   1.977   5.864   0.131 -0.1803  0.5680  0.4391
 6200SOL     OW24565   6.415   1.875   6.119 -0.1092  0.3339 -0.1020
 6200SOL    HW224566   6.347   1.863   6.052  1.1264  0.7388 -1.4989
 6200SOL    HW324567   6.480   1.931   6.076  1.6974 -1.0301  0.7340
 6200SOL    MW424568   6.415   1.881   6.104  0.2922  0.2073 -0.1760
 6201SOL     OW24569   0.724   1.587   1.616  0.8942 -0.2500 -0.8937
 6201SOL    HW224570   0.715   1.624   1.703  0.3774  1.2553 -1.5411
 6201SOL    HW324571   0.806   1.538   1.618  1.6192  0.9469  0.0319
 6201SOL    MW424572   0.733   1.586   1.627  0.9217  0.1065 -0.8570
 6202SOL     OW24573   4.824   5.946   2.349  0.2055 -0.5415 -0.3838
 6202SOL    HW224574   4.850   5.897   2.427 -0.1247  0.3476  0.2951
 6202SOL    HW324575   4.854   6.035   2.365 -1.0364 -0.0486 -0.6900
 6202SOL    MW424576   4.832   5.951   2.361 -0.0019 -0.3591 -0.3346
 6203SOL     OW24577   0.309   3.443   0.214  0.0135  0.4904 -1.1227
 6203SOL    HW224578   0.334   3.355   0.243  2.2705  1.4306  0.0486
 6203SOL    HW324579   0.228   3.461   0.261 -0.0709 -0.6765 -0.7756
 6203SOL    MW424580   0.302   3.434   0.224  0.3001  0.4605 -0.9224
 6204SOL     OW24581   0.074   2.795   5.774  0.8278  0.0589 -0.2174
 6204SOL    HW224582   0.122   2.842   5.843  0.6962  0.0342 -0.1071
 6204SOL    HW324583   0.121   2.816   5.693  0.7463  0.4104 -0.1748
 6204SOL    MW424584   0.087   2.804   5.773  0.7997  0.1020 -0.1972
 6205SOL     OW24585   3.480   6.246   0.373 -0.0916  0.0033 -0.2355
 6205SOL    HW224586   3.506   6.316   0.432 -0.1578 -0.3107  0.1705
 6205SOL    HW324587   3.402   6.207   0.414 -0.2126 -0.1381 -0.5900
 6205SOL    MW424588   3.473   6.250   0.386 -0.1163 -0.0568 -0.2287
 6206SOL     OW24589   5.472   0.550   1.777 -0.3766  0.3899 -0.2945
 6206SOL    HW224590   5.421   0.608   1.720 -1.4337 -1.3309 -1.1771
 6206SOL    HW324591   5.407   0.512   1.837  0.2520 -0.0788  0.0989
 6206SOL    MW424592   5.457   0.553   1.777 -0.4331  0.1010 -0.3590
 6207SOL     OW24593   4.066   6.174   4.063 -0.6223  0.0811 -0.6151
 6207SOL    HW224594   4.112   6.091   4.057 -1.2430 -0.3281  0.0969
 6207SOL    HW324595   3.976   6.150   4.087 -1.5269  0.7593 -2.9768
 6207SOL    MW424596   4.060   6.160   4.065 -0.8235  0.1166 -0.8328
 6208SOL     OW24597   6.150   3.182   3.720  0.5042 -0.3442  0.1129
 6208SOL    HW224598   6.086   3.115   3.700  1.0266 -0.5502 -0.9721
 6208SOL    HW324599   6.125   3.215   3.806 -0.3944 -1.1714  0.1831
 6208SOL    MW424600   6.138   3.178   3.729  0.4546 -0.4805 -0.0210
 6209SOL     OW24601   5.749   2.770   4.739 -0.2283 -0.0415 -0.3762
 6209SOL    HW224602   5.683   2.836   4.761  0.2319  0.5604 -0.7930
 6209SOL    HW324603   5.794   2.753   4.822  1.1053  1.7869 -0.6807
 6209SOL    MW424604   5.746   2.776   4.753  0.0084  0.2792 -0.4714
 6210SOL     OW24605   2.803   5.267   2.234  0.0241 -1.0713 -0.5659
 6210SOL    HW224606   2.875   5.278   2.171  0.2556 -1.0354 -0.2999
 6210SOL    HW324607   2.742   5.337   2.213 -0.0627 -1.2676 -0.9686
 6210SOL    MW424608   2.805   5.278   2.223  0.0432 -1.0924 -0.5839
 6211SOL     OW24609   4.095   4.604   3.664 -0.1471 -0.2120  0.3897
 6211SOL    HW224610   4.184   4.635   3.683  0.5796 -2.7636  1.6373
 6211SOL    HW324611   4.045   4.627   3.742 -0.5045  0.8381 -0.1332
 6211SOL    MW424612   4.100   4.611   3.677 -0.0984 -0.4101  0.4853
 6212SOL     OW24613   1.909  -0.002   3.164 -0.0832  0.4477 -0.0662
 6212SOL    HW224614   1.900  -0.068   3.096  0.6225  0.2299  0.0411
 6212SOL    HW324615   1.970   0.062   3.128 -0.4855  0.8574 -0.0295
 6212SOL    MW424616   1.916  -0.002   3.151 -0.0432  0.4730 -0.0472
 6213SOL     OW24617   3.722   5.932   0.933 -0.1073  0.3626 -0.2185
 6213SOL    HW224618   3.631   5.950   0.907 -0.3117 -0.5454 -0.1515
 6213SOL    HW324619   3.717   5.850   0.982  0.9573 -0.5443 -1.5633
 6213SOL    MW424620   3.709   5.924   0.936  0.0062  0.1232 -0.3871
 6214SOL     OW24621   1.950   0.959   5.641 -0.1203 -0.0399 -0.5719
 6214SOL    HW224622   1.872   0.904   5.635 -0.2368  0.1143 -0.4595
 6214SOL    HW324623   1.994   0.930   5.720 -0.5659  0.5309 -0.1091
 6214SOL    MW424624   1.946   0.948   5.650 -0.1945  0.0557 -0.4960
 6215SOL     OW24625   0.745   5.096   0.107 -0.6861  0.2491 -0.1519
 6215SOL    HW224626   0.815   5.051   0.060  0.4881  0.5557  1.2302
 6215SOL    HW324627   0.762   5.189   0.093 -1.4260  0.3129 -0.6520
 6215SOL    MW424628   0.757   5.102   0.099 -0.6288  0.2979 -0.0355
 6216SOL     OW24629   5.295   0.628   1.300  0.1026  0.4352 -0.7189
 6216SOL    HW224630   5.331   0.587   1.221  1.9388 -0.6237  0.5924
 6216SOL    HW324631   5.214   0.579   1.318  1.5416 -1.8464  0.0325
 6216SOL    MW424632   5.289   0.616   1.292  0.5347 -0.0055 -0.4467
 6217SOL     OW24633   2.490   2.609   5.253  0.2362 -0.5343  0.2895
 6217SOL    HW224634   2.571   2.624   5.301  0.4409 -2.1855  0.5394
 6217SOL    HW324635   2.509   2.533   5.197 -1.3761 -1.5009  0.9823
 6217SOL    MW424636   2.503   2.601   5.252  0.0505 -0.8797  0.4139
 6218SOL     OW24637   4.646   5.915   3.216 -0.3924 -0.1631  0.4890
 6218SOL    HW224638   4.668   5.964   3.136  1.2911 -1.4294  0.1237
 6218SOL    HW324639   4.729   5.903   3.261 -0.5544 -3.2063  0.2230
 6218SOL    MW424640   4.660   5.920   3.211 -0.1917 -0.7317  0.4057
 6219SOL     OW24641   3.158   4.008   1.104  0.6386  0.1689 -0.1764
 6219SOL    HW224642   3.242   4.049   1.125  0.3099  0.4462  0.6203
 6219SOL    HW324643   3.129   3.968   1.186  0.5008 -0.8663 -0.7030
 6219SOL    MW424644   3.165   4.008   1.118  0.5771  0.0689 -0.1407
 6220SOL     OW24645   0.945   6.352   4.845 -0.1137  0.4464  0.3748
 6220SOL    HW224646   0.966   6.445   4.852 -1.4463  0.6934  1.4303
 6220SOL    HW324647   0.856   6.345   4.878 -0.2666 -1.1229 -0.2932
 6220SOL    MW424648   0.936   6.363   4.850 -0.3097  0.2719  0.4260
 6221SOL     OW24649   2.216   4.551   1.627 -0.3788 -0.1536 -0.1008
 6221SOL    HW224650   2.307   4.521   1.627 -0.8142 -1.5663 -0.3337
 6221SOL    HW324651   2.218   4.635   1.580  0.5128 -1.2222 -2.1214
 6221SOL    MW424652   2.228   4.558   1.621 -0.3186 -0.4810 -0.3981
 6222SOL     OW24653   1.627   0.515   1.891  0.0701 -0.0148  0.0750
 6222SOL    HW224654   1.573   0.569   1.834  1.3555  0.1049 -1.0910
 6222SOL    HW324655   1.714   0.519   1.852  0.5836 -1.5010  0.9788
 6222SOL    MW424656   1.632   0.523   1.878  0.3074 -0.1951  0.0404
 6223SOL     OW24657   3.199   5.694   4.579 -0.2087  0.5506  0.5901
 6223SOL    HW224658   3.251   5.656   4.649 -0.6010  1.0210  1.1486
 6223SOL    HW324659   3.208   5.633   4.506  1.0441  0.5813  0.7036
 6223SOL    MW424660   3.207   5.681   4.579 -0.0952  0.6167  0.6788
 6224SOL     OW24661   5.802   5.448   2.860 -0.3731  0.0690  0.2245
 6224SOL    HW224662   5.816   5.369   2.808 -0.2699 -0.4210  0.9784
 6224SOL    HW324663   5.750   5.419   2.934 -2.9642  1.2999 -0.9842
 6224SOL    MW424664   5.797   5.434   2.863 -0.7013  0.1667  0.1645
 6225SOL     OW24665   6.240   3.063   0.627  0.1771  0.2773 -0.2091
 6225SOL    HW224666   6.202   3.047   0.541  2.4133  1.3582 -1.5038
 6225SOL    HW324667   6.191   3.138   0.662 -1.4018 -0.7986 -0.0657
 6225SOL    MW424668   6.229   3.071   0.621  0.2638  0.2779 -0.3610
 6226SOL     OW24669   6.266   5.754   0.315 -0.2551 -0.9619  0.3597
 6226SOL    HW224670   6.341   5.808   0.339 -0.5496 -0.3179 -0.1452
 6226SOL    HW324671   6.221   5.804   0.247  0.1752 -2.4054 -1.0615
 6226SOL    MW424672   6.270   5.768   0.309 -0.2372 -1.0674  0.1056
 6227SOL     OW24673   4.317   3.292   5.960 -0.6470 -0.5537  0.0525
 6227SOL    HW224674   4.348   3.356   5.896  0.1469 -0.1477  0.8261
 6227SOL    HW324675   4.382   3.221   5.955 -1.7865 -1.5565 -1.1578
 6227SOL    MW424676   4.330   3.291   5.951 -0.6926 -0.6324 -0.0051
 6228SOL     OW24677   0.460   5.965   1.401 -0.2133  0.4215  0.3920
 6228SOL    HW224678   0.446   6.060   1.397 -0.5603  0.3875  0.7774
 6228SOL    HW324679   0.454   5.943   1.494  0.8717  0.1626  0.4180
 6228SOL    MW424680   0.457   5.975   1.412 -0.1159  0.3829  0.4463
 6229SOL     OW24681   3.973   4.083   2.471  0.1139  0.5406 -0.1717
 6229SOL    HW224682   4.007   4.079   2.560 -0.6410  0.0227  0.1021
 6229SOL    HW324683   4.018   4.011   2.425  0.6684  0.9459 -0.2794
 6229SOL    MW424684   3.984   4.073   2.476  0.0875  0.5258 -0.1498
 6230SOL     OW24685   4.134   4.028   3.389  0.1820  0.4150 -0.3793
 6230SOL    HW224686   4.213   4.081   3.401 -0.4136  1.0151  1.2354
 6230SOL    HW324687   4.132   3.971   3.467 -2.1351  2.0038  0.8299
 6230SOL    MW424688   4.144   4.027   3.401 -0.2023  0.7038 -0.0067
 6231SOL     OW24689   5.516   3.697   0.074 -0.0094 -0.7346  0.5092
 6231SOL    HW224690   5.521   3.601   0.075 -0.3716 -0.8296 -1.6060
 6231SOL    HW324691   5.568   3.722  -0.002 -0.0177  0.7566  0.9716
 6231SOL    MW424692   5.524   3.688   0.064 -0.0583 -0.5504  0.2911
 6232SOL     OW24693   1.828   1.725   0.369  0.4860 -0.2545  0.4539
 6232SOL    HW224694   1.874   1.660   0.422 -0.8215 -1.6571 -0.0524
 6232SOL    HW324695   1.736   1.700   0.375 -0.2482  2.3487  1.2818
 6232SOL    MW424696   1.822   1.713   0.377  0.2166 -0.0961  0.4963
 6233SOL     OW24697   3.101   1.357   1.207 -0.0808  0.4217  0.3201
 6233SOL    HW224698   3.153   1.278   1.222 -1.4711 -1.1428 -2.2556
 6233SOL    HW324699   3.010   1.325   1.207 -0.7221  2.1611 -0.0557
 6233SOL    MW424700   3.096   1.342   1.209 -0.3488  0.4448 -0.0693
 6234SOL     OW24701   1.706   4.402   6.363 -0.0466 -0.3813 -0.7259
 6234SOL    HW224702   1.748   4.361   6.438  0.4093  0.3586 -0.5729
 6234SOL    HW324703   1.765   4.472   6.336 -0.9037  0.3194 -0.8539
 6234SOL    MW424704   1.719   4.406   6.369 -0.0995 -0.1912 -0.7226
 6235SOL     OW24705   3.908   2.034   5.875 -0.5988 -0.7452 -0.3938
 6235SOL    HW224706   3.997   2.053   5.905 -1.1281 -1.5818  1.9490
 6235SOL    HW324707   3.897   1.940   5.889 -2.3968 -0.3758  1.0980
 6235SOL    MW424708   3.918   2.024   5.881 -0.9059 -0.8069  0.1122
 6236SOL     OW24709   1.367   4.959   4.535  0.4833  0.1225 -0.0547
 6236SOL    HW224710   1.285   5.009   4.541  1.0915  1.1157  0.2049
 6236SOL    HW324711   1.422   5.011   4.477 -0.1341 -2.0963 -2.8077
 6236SOL    MW424712   1.363   4.973   4.528  0.4821 -0.0392 -0.3837
 6237SOL     OW24713   0.694   0.409   1.464 -0.0822 -0.0910 -0.2662
 6237SOL    HW224714   0.653   0.493   1.441  1.4178  0.4754 -0.9597
 6237SOL    HW324715   0.782   0.432   1.492  0.6320 -1.5115 -1.2326
 6237SOL    MW424716   0.700   0.423   1.465  0.2099 -0.2037 -0.4852
 6238SOL     OW24717   3.225   0.543   5.483  0.0450 -0.1926 -0.4937
 6238SOL    HW224718   3.176   0.521   5.562  0.3835 -0.2754 -0.3064
 6238SOL    HW324719   3.305   0.491   5.489  0.7484  0.9081 -0.1712
 6238SOL    MW424720   3.229   0.533   5.494  0.1824 -0.0583 -0.4265
 6239SOL     OW24721   5.504   6.181   3.564  0.2869 -0.1068 -0.3644
 6239SOL    HW224722   5.572   6.118   3.588  0.5207 -0.3077 -1.5318
 6239SOL    HW324723   5.552   6.255   3.527  0.0722  1.0896  1.5842
 6239SOL    MW424724   5.519   6.183   3.562  0.2894  0.0245 -0.2614
 6240SOL     OW24725   5.247   4.003   0.874  0.2556  0.2202  0.2826
 6240SOL    HW224726   5.162   4.012   0.918 -0.2022 -1.0813 -0.2841
 6240SOL    HW324727   5.304   4.065   0.920 -0.8634  0.7486  1.0112
 6240SOL    MW424728   5.244   4.012   0.886  0.0475  0.1182  0.3040
 6241SOL     OW24729   1.355   5.118   2.964 -0.7881 -0.2586 -0.5156
 6241SOL    HW224730   1.417   5.185   2.994  0.1530 -1.2887 -0.0559
 6241SOL    HW324731   1.408   5.059   2.911 -1.4657 -0.9692 -0.4184
 6241SOL    MW424732   1.370   5.119   2.961 -0.7533 -0.4882 -0.4421
 6242SOL     OW24733   5.305   0.767   6.304 -0.1551 -0.5456  0.3670
 6242SOL    HW224734   5.211   0.781   6.310  0.1662  2.8202 -0.5922
 6242SOL    HW324735   5.344   0.836   6.358  1.7937 -0.7538 -0.6675
 6242SOL    MW424736   5.298   0.778   6.312  0.1444 -0.1290  0.1039
 6243SOL     OW24737   4.363   3.470   5.101 -0.4902  0.1431  0.4873
 6243SOL    HW224738   4.451   3.437   5.086  0.2393  1.6017  1.4054
 6243SOL    HW324739   4.325   3.409   5.164 -0.7125 -1.3495 -1.0159
 6243SOL    MW424740   4.369   3.457   5.108 -0.4233  0.1386  0.4101
 6244SOL     OW24741   5.547   4.687   3.678 -0.1196 -0.0631 -0.2246
 6244SOL    HW224742   5.637   4.673   3.646 -0.6730 -1.0100 -1.4759
 6244SOL    HW324743   5.500   4.722   3.602 -0.6926  0.9464  0.5792
 6244SOL    MW424744   5.553   4.690   3.663 -0.2682 -0.0548 -0.2837
 6245SOL     OW24745   4.874   0.217   1.129 -0.0403 -0.4048  0.2871
 6245SOL    HW224746   4.784   0.185   1.136  0.4522 -2.1697 -0.6941
 6245SOL    HW324747   4.927   0.141   1.153  1.1925  0.3521  0.0028
 6245SOL    MW424748   4.869   0.203   1.133  0.1874 -0.5378  0.1201
 6246SOL     OW24749   2.178   4.887   1.892 -0.3904  0.2513  0.4379
 6246SOL    HW224750   2.099   4.863   1.843 -0.3841  2.4686 -0.7766
 6246SOL    HW324751   2.153   4.964   1.942  0.9893  0.9960  0.0253
 6246SOL    MW424752   2.164   4.894   1.892 -0.2075  0.6421  0.2232
 6247SOL     OW24753   0.523   5.416   3.143 -0.3255  0.0857  0.5163
 6247SOL    HW224754   0.555   5.328   3.162  0.9420  0.2305 -0.7563
 6247SOL    HW324755   0.474   5.406   3.062 -0.7307  0.4460  0.7149
 6247SOL    MW424756   0.521   5.403   3.135 -0.2117  0.1523  0.3746
 6248SOL     OW24757   4.310   4.052   4.879 -0.4553  0.0602 -0.0816
 6248SOL    HW224758   4.366   4.037   4.803 -1.4705 -2.0485 -0.4990
 6248SOL    HW324759   4.324   3.975   4.934 -0.8265  0.8646  1.1818
 6248SOL    MW424760   4.319   4.040   4.877 -0.6382 -0.1119  0.0300
 6249SOL     OW24761   3.377   2.596   1.546  0.3946  0.3551  0.3348
 6249SOL    HW224762   3.380   2.556   1.459 -1.6913  1.7227 -0.4278
 6249SOL    HW324763   3.289   2.575   1.579  0.3313  1.7887  1.1409
 6249SOL    MW424764   3.366   2.588   1.539  0.1110  0.7247  0.3405
 6250SOL     OW24765   4.875   3.122   2.182  0.0880  0.2695  0.2770
 6250SOL    HW224766   4.842   3.086   2.099 -0.1935  1.6602 -0.2377
 6250SOL    HW324767   4.862   3.051   2.245  0.8899 -1.0499 -0.9774
 6250SOL    MW424768   4.869   3.108   2.179  0.1566  0.2789  0.0436
 6251SOL     OW24769   4.837   5.893   3.673 -0.0962 -0.7544  0.1321
 6251SOL    HW224770   4.910   5.928   3.724 -1.3517  1.1234  0.7067
 6251SOL    HW324771   4.816   5.961   3.610 -2.6970 -0.3027  1.3678
 6251SOL    MW424772   4.844   5.906   3.672 -0.6050 -0.4471  0.3709
 6252SOL     OW24773   4.827   5.264   2.769 -0.1540  0.0795  0.3148
 6252SOL    HW224774   4.815   5.235   2.860  3.5057 -0.7003  0.7057
 6252SOL    HW324775   4.808   5.187   2.717  1.0895 -0.5303  0.7256
 6252SOL    MW424776   4.823   5.250   2.774  0.4929 -0.1038  0.4205
 6253SOL     OW24777   2.944   3.439   2.031 -0.6111 -0.3370  0.2342
 6253SOL    HW224778   2.945   3.462   1.939  0.9328 -0.2495  0.2347
 6253SOL    HW324779   2.900   3.512   2.074  1.1879  1.0486 -0.1425
 6253SOL    MW424780   2.938   3.451   2.025 -0.1700 -0.1427  0.1845
 6254SOL     OW24781   3.879   1.468   5.828  0.1054 -0.1421 -0.3995
 6254SOL    HW224782   3.879   1.393   5.886 -1.2200 -0.7081 -1.0947
 6254SOL    HW324783   3.857   1.432   5.742  1.5736  0.7377 -1.1793
 6254SOL    MW424784   3.876   1.454   5.824  0.1242 -0.1007 -0.5942
 6255SOL     OW24785   5.322   6.082   3.397 -0.0371 -0.0541  0.1968
 6255SOL    HW224786   5.386   6.114   3.460  1.4225 -1.7183 -0.3809
 6255SOL    HW324787   5.370   6.071   3.316 -1.2171 -0.6758 -0.4528
 6255SOL    MW424788   5.337   6.085   3.395 -0.0002 -0.3557  0.0349
 6256SOL     OW24789   1.790   2.324   4.589  0.4302 -0.3174  0.2251
 6256SOL    HW224790   1.800   2.237   4.629  0.7520 -0.4880 -0.2113
 6256SOL    HW324791   1.819   2.311   4.498 -0.8456 -0.0875 -0.2344
 6256SOL    MW424792   1.795   2.311   4.582  0.3044 -0.3096  0.1069
 6257SOL     OW24793   3.216   2.934   3.082 -0.0059  0.5708  1.1487
 6257SOL    HW224794   3.205   2.848   3.124  0.8756  0.1494  0.5503
 6257SOL    HW324795   3.284   2.977   3.133  0.9477  0.1244  0.2931
 6257SOL    MW424796   3.223   2.928   3.094  0.2362  0.4563  0.9568
 6258SOL     OW24797   3.444   4.706   6.410 -0.0504 -0.6493 -0.0823
 6258SOL    HW224798   3.416   4.712   6.319 -2.1609 -3.4304  0.2468
 6258SOL    HW324799   3.513   4.640   6.409  0.4298 -0.1563  0.2574
 6258SOL    MW424800   3.449   4.698   6.398 -0.2655 -0.9512  0.0060
 6259SOL     OW24801   2.709   0.135   0.244 -0.3986  0.1765 -0.0420
 6259SOL    HW224802   2.722   0.221   0.205 -0.1379  1.1296  2.0229
 6259SOL    HW324803   2.763   0.076   0.191 -0.1051  1.3790 -1.1209
 6259SOL    MW424804   2.718   0.138   0.232 -0.3255  0.4609  0.0881
 6260SOL     OW24805   4.599   4.480   3.700  0.1307  0.1402  0.1043
 6260SOL    HW224806   4.604   4.397   3.652  2.7935  0.5931 -0.5400
 6260SOL    HW324807   4.612   4.455   3.791  2.4865 -0.0851 -0.2383
 6260SOL    MW424808   4.601   4.465   3.706  0.7929  0.1703 -0.0259
 6261SOL     OW24809   1.838   1.798   1.834 -0.5253  0.1369  0.0410
 6261SOL    HW224810   1.897   1.863   1.871 -1.0704  0.4584  0.3666
 6261SOL    HW324811   1.895   1.730   1.799  0.0308  0.3302  0.5558
 6261SOL    MW424812   1.853   1.798   1.834 -0.5238  0.2048  0.1519
 6262SOL     OW24813   0.242   0.692   4.639  0.2775  0.2395 -0.5839
 6262SOL    HW224814   0.161   0.701   4.589 -0.4860 -0.0648  0.5848
 6262SOL    HW324815   0.223   0.628   4.706  2.0454 -1.2046 -1.3677
 6262SOL    MW424816   0.229   0.685   4.641  0.4100  0.0088 -0.5331
 6263SOL     OW24817   0.859   4.450   6.340  0.0661 -0.2788 -1.0292
 6263SOL    HW224818   0.846   4.521   6.403 -1.5631 -0.0923 -1.5310
 6263SOL    HW324819   0.780   4.451   6.286 -0.4944 -3.1561 -0.4088
 6263SOL    MW424820   0.847   4.460   6.341 -0.2228 -0.6338 -1.0135
 6264SOL     OW24821   4.076   0.083   6.371 -0.2400  0.6955 -0.3171
 6264SOL    HW224822   4.165   0.059   6.347 -0.4165  0.0714 -0.3606
 6264SOL    HW324823   4.023   0.058   6.295 -0.5405  0.4566 -0.0309
 6264SOL    MW424824   4.081   0.077   6.358 -0.3029  0.5817 -0.2850
 6265SOL     OW24825   3.353   2.821   0.623  0.1135 -0.5321 -0.4459
 6265SOL    HW224826   3.384   2.902   0.664 -0.9292  0.7414 -2.0129
 6265SOL    HW324827   3.433   2.775   0.597  0.7341  0.3621 -0.1616
 6265SOL    MW424828   3.368   2.826   0.625  0.0578 -0.2461 -0.6152
 6266SOL     OW24829   1.983   4.773   3.423  0.2912  0.7485 -0.1028
 6266SOL    HW224830   2.026   4.735   3.500 -0.0852  1.9842  0.7349
 6266SOL    HW324831   2.054   4.813   3.373  0.6054 -0.4666 -0.6790
 6266SOL    MW424832   1.998   4.773   3.426  0.2830  0.7512 -0.0683
 6267SOL     OW24833   2.811   3.149   0.809  0.1992 -0.3023 -0.2275
 6267SOL    HW224834   2.832   3.242   0.802  1.5737 -0.6180 -0.5693
 6267SOL    HW324835   2.734   3.146   0.866  0.3543  1.0129  0.0825
 6267SOL    MW424836   2.804   3.161   0.816  0.4010 -0.1704 -0.2317
 6268SOL     OW24837   1.444   1.691   5.948  0.3326  0.5550 -0.2957
 6268SOL    HW224838   1.528   1.654   5.920  1.5320  2.7089  0.2440
 6268SOL    HW324839   1.402   1.719   5.867 -0.1214 -0.9721 -0.6126
 6268SOL    MW424840   1.450   1.690   5.933  0.4310  0.6377 -0.2663
 6269SOL     OW24841   1.024   1.673   2.102 -0.2430 -0.1328 -0.3428
 6269SOL    HW224842   1.108   1.636   2.075  1.3702  2.5257  0.6047
 6269SOL    HW324843   0.982   1.699   2.020  0.9310  0.5755 -0.7470
 6269SOL    MW424844   1.029   1.672   2.088  0.1247  0.3114 -0.2711
 6270SOL     OW24845   0.480   2.926   2.811 -0.9241  0.1176 -0.4382
 6270SOL    HW224846   0.555   2.983   2.792 -1.0516  1.4847  2.6155
 6270SOL    HW324847   0.413   2.952   2.748  0.8594 -0.7641 -2.8900
 6270SOL    MW424848   0.481   2.937   2.800 -0.7056  0.1817 -0.3588
 6271SOL     OW24849   0.531   1.273   3.515  0.1786 -0.0707 -0.0249
 6271SOL    HW224850   0.565   1.329   3.585 -0.3815  2.0423 -1.3552
 6271SOL    HW324851   0.450   1.316   3.487  0.1404 -1.1235 -1.6531
 6271SOL    MW424852   0.525   1.286   3.520  0.0997  0.0692 -0.4152
 6272SOL     OW24853   3.257   5.126   2.060  0.3594  0.1789  0.3913
 6272SOL    HW224854   3.331   5.129   1.998  1.9732  0.0368  2.2115
 6272SOL    HW324855   3.298   5.128   2.146 -1.7770 -0.4444  1.4942
 6272SOL    MW424856   3.272   5.127   2.063  0.2905  0.0779  0.7770
 6273SOL     OW24857   6.288   4.112   5.421  0.0414  0.8647 -0.0916
 6273SOL    HW224858   6.208   4.156   5.449  0.4777  2.4429 -1.1764
 6273SOL    HW324859   6.353   4.182   5.417  1.4212 -0.3312  0.4869
 6273SOL    MW424860   6.286   4.127   5.424  0.2810  0.9151 -0.1584
 6274SOL     OW24861   2.184   1.078   2.688 -0.2087  0.5693  0.0617
 6274SOL    HW224862   2.126   1.066   2.764  0.3188  0.1127  0.4000
 6274SOL    HW324863   2.269   1.046   2.717 -0.1065 -0.0751 -0.8722
 6274SOL    MW424864   2.187   1.072   2.702 -0.1256  0.4240 -0.0169
 6275SOL     OW24865   3.870   3.481   3.823 -0.6940 -0.1160 -0.0363
 6275SOL    HW224866   3.964   3.470   3.809 -0.4651  1.4684  0.1115
 6275SOL    HW324867   3.854   3.436   3.906  0.3687  1.3762  1.0437
 6275SOL    MW424868   3.880   3.473   3.832 -0.5236  0.2899  0.1257
 6276SOL     OW24869   5.873   0.407   4.139 -0.3087 -0.4591  0.3690
 6276SOL    HW224870   5.900   0.329   4.091 -1.1661 -1.9547  2.1806
 6276SOL    HW324871   5.778   0.411   4.130 -0.1306  1.9165 -1.7987
 6276SOL    MW424872   5.864   0.398   4.132 -0.3983 -0.3430  0.3220
 6277SOL     OW24873   1.050   3.599   4.503 -0.0039  0.3530  0.4324
 6277SOL    HW224874   1.066   3.551   4.422 -2.6320  0.8523 -0.4635
 6277SOL    HW324875   1.099   3.681   4.492 -0.2501  0.3719 -0.6156
 6277SOL    MW424876   1.059   3.604   4.491 -0.3831  0.4213  0.1759
 6278SOL     OW24877   1.669   1.500   1.618 -0.5333  0.1519  0.2909
 6278SOL    HW224878   1.609   1.561   1.576 -1.5684 -0.5263  0.7556
 6278SOL    HW324879   1.756   1.530   1.592 -1.0279  1.7447  0.4163
 6278SOL    MW424880   1.673   1.512   1.609 -0.7351  0.2726  0.3687
 6279SOL     OW24881   3.265   0.140   4.398 -0.6431 -0.3216  0.2583
 6279SOL    HW224882   3.250   0.229   4.430 -1.3618 -0.3500  0.0214
 6279SOL    HW324883   3.301   0.093   4.473 -1.9798 -0.2975  0.9450
 6279SOL    MW424884   3.268   0.145   4.412 -0.9143 -0.3222  0.3176
 6280SOL     OW24885   3.517   2.255   5.555 -0.2186  0.4028 -0.3671
 6280SOL    HW224886   3.480   2.341   5.536 -0.9801  0.5052  1.3457
 6280SOL    HW324887   3.600   2.273   5.599 -0.4691  0.2799  0.1662
 6280SOL    MW424888   3.523   2.269   5.558 -0.3522  0.4001 -0.0708
 6281SOL     OW24889   3.040   6.293   3.187 -0.1026  0.1004  0.1189
 6281SOL    HW224890   3.084   6.317   3.268 -0.9620  0.1932  0.5612
 6281SOL    HW324891   3.035   6.375   3.137  1.3057 -0.1457 -0.4697
 6281SOL    MW424892   3.045   6.307   3.191 -0.0302  0.0802  0.0996
 6282SOL     OW24893   3.832   5.939   1.223  0.1830 -0.4453 -0.3482
 6282SOL    HW224894   3.816   5.865   1.281 -0.3921 -0.1206 -0.0867
 6282SOL    HW324895   3.881   5.901   1.149 -1.7704 -1.4850 -1.1848
 6282SOL    MW424896   3.836   5.924   1.221 -0.1506 -0.5396 -0.4241
 6283SOL     OW24897   1.865   2.705   4.118  0.0512 -0.1488 -0.1487
 6283SOL    HW224898   1.849   2.749   4.201  0.6982  0.4136 -0.3163
 6283SOL    HW324899   1.798   2.739   4.059 -0.4962 -0.6534  0.1716
 6283SOL    MW424900   1.854   2.715   4.121  0.0643 -0.1412 -0.1285
 6284SOL     OW24901   1.404   6.141   1.478  0.7119 -0.4505  0.2969
 6284SOL    HW224902   1.356   6.121   1.398  0.9366 -2.0525  0.5284
 6284SOL    HW324903   1.338   6.179   1.536  0.6019  0.9552 -0.6947
 6284SOL    MW424904   1.389   6.144   1.475  0.7270 -0.4764  0.1966
 6285SOL     OW24905   4.353   0.632   6.077 -0.3072 -0.0214 -0.4115
 6285SOL    HW224906   4.354   0.722   6.111  1.0156  0.6147 -1.9994
 6285SOL    HW324907   4.355   0.642   5.982 -0.4197 -1.7514 -0.6290
 6285SOL    MW424908   4.353   0.645   6.069 -0.1475 -0.1657 -0.6497
 6286SOL     OW24909   1.005   2.856   1.624 -0.0126 -0.2803  0.1235
 6286SOL    HW224910   0.943   2.915   1.667 -0.3295 -0.2863 -0.3198
 6286SOL    HW324911   1.008   2.886   1.533  1.2167  0.2043  0.3019
 6286SOL    MW424912   0.997   2.868   1.617  0.1078 -0.2171  0.0885
 6287SOL     OW24913   1.109   3.063   4.411  0.1753 -0.0721  0.4138
 6287SOL    HW224914   1.083   3.037   4.499  0.0030 -0.8912  0.1410
 6287SOL    HW324915   1.198   3.096   4.420  0.5114 -1.0435  0.7559
 6287SOL    MW424916   1.117   3.064   4.423  0.1969 -0.3083  0.4230
 6288SOL     OW24917   0.791   2.802   0.568  0.8486  0.2918 -0.6218
 6288SOL    HW224918   0.844   2.787   0.490  2.9817  0.3521  0.7343
 6288SOL    HW324919   0.824   2.740   0.633 -1.4827 -0.3878  0.0136
 6288SOL    MW424920   0.802   2.792   0.567  0.8225  0.2101 -0.3591
 6289SOL     OW24921   0.937   6.373   3.021  0.3663  0.0029 -0.1802
 6289SOL    HW224922   0.974   6.302   2.968  0.4394  0.1196 -0.2871
 6289SOL    HW324923   1.000   6.444   3.012  0.4169 -0.0019  0.1292
 6289SOL    MW424924   0.950   6.373   3.013  0.3826  0.0176 -0.1535
 6290SOL     OW24925   0.497   3.760   2.730 -0.1286 -0.1403 -0.5593
 6290SOL    HW224926   0.462   3.682   2.774 -0.1899  0.7989  1.1793
 6290SOL    HW324927   0.431   3.784   2.666  0.1840 -1.8584 -1.5715
 6290SOL    MW424928   0.484   3.753   2.728 -0.0955 -0.2431 -0.4635
 6291SOL     OW24929   2.756   2.899   6.002  0.4569 -0.1909  0.4684
 6291SOL    HW224930   2.698   2.921   6.075  0.6606  2.9007 -0.1656
 6291SOL    HW324931   2.700   2.857   5.937 -0.7279  1.1686  0.5797
 6291SOL    MW424932   2.741   2.897   6.003  0.3275  0.3964  0.3994
 6292SOL     OW24933   3.785   4.799   0.826 -0.0542  0.1957 -0.2428
 6292SOL    HW224934   3.878   4.822   0.826 -0.3096  1.2749 -0.8193
 6292SOL    HW324935   3.770   4.760   0.912  0.6956  1.0094  0.2751
 6292SOL    MW424936   3.795   4.797   0.838  0.0110  0.4455 -0.2506
 6293SOL     OW24937   5.255   5.533   5.859  0.1310  0.7617 -0.7321
 6293SOL    HW224938   5.266   5.449   5.903  3.5450  1.0455 -0.7558
 6293SOL    HW324939   5.305   5.595   5.913 -0.0917  2.2229 -2.1203
 6293SOL    MW424940   5.263   5.530   5.872  0.5521  0.9919 -0.9184
 6294SOL     OW24941   3.213   4.764   4.241  0.1328  0.1325 -0.2944
 6294SOL    HW224942   3.188   4.737   4.329  0.1667 -0.4002 -0.4464
 6294SOL    HW324943   3.187   4.692   4.184  0.0176  0.5141 -0.7410
 6294SOL    MW424944   3.207   4.751   4.245  0.1220  0.1125 -0.3734
 6295SOL     OW24945   3.933   1.106   1.617  0.4197 -1.0219 -0.5494
 6295SOL    HW224946   3.843   1.107   1.649  0.5641  1.9823  0.0299
 6295SOL    HW324947   3.926   1.082   1.525 -1.1388  0.1808 -0.7819
 6295SOL    MW424948   3.921   1.103   1.609  0.2332 -0.4669 -0.5037
 6296SOL     OW24949   1.098   5.400   2.576 -0.2753 -0.2199  0.6811
 6296SOL    HW224950   1.099   5.361   2.664 -1.0416 -0.5275  0.5658
 6296SOL    HW324951   1.032   5.469   2.582 -0.8859 -0.7450  0.1452
 6296SOL    MW424952   1.089   5.404   2.589 -0.4570 -0.3298  0.5952
 6297SOL     OW24953   2.718   5.172   4.894 -0.2244  0.3733  0.0500
 6297SOL    HW224954   2.760   5.110   4.954  0.9330 -0.6285 -1.7002
 6297SOL    HW324955   2.791   5.219   4.854 -1.0447  2.1763  0.5756
 6297SOL    MW424956   2.733   5.170   4.897 -0.1799  0.4790 -0.1116
 6298SOL     OW24957   1.258   1.418   3.994 -0.5660  0.3923  0.9103
 6298SOL    HW224958   1.172   1.377   3.993 -0.2865 -0.2129 -0.7168
 6298SOL    HW324959   1.306   1.376   3.922  0.2278  2.5254  0.1178
 6298SOL    MW424960   1.253   1.407   3.985 -0.4244  0.5939  0.5910
 6299SOL     OW24961   5.599   0.867   1.277 -0.1122  0.2262 -0.4139
 6299SOL    HW224962   5.680   0.819   1.294 -1.6021 -1.9969  0.8160
 6299SOL    HW324963   5.602   0.942   1.336  1.8550  1.2695 -1.7321
 6299SOL    MW424964   5.610   0.871   1.287 -0.0492  0.0706 -0.4256
 6300SOL     OW24965   0.132   2.646   6.142 -0.5737 -0.2488  0.0478
 6300SOL    HW224966   0.219   2.656   6.104  0.4810  3.0283  2.8543
 6300SOL    HW324967   0.129   2.554   6.169  3.2210  0.0103  2.1604
 6300SOL    MW424968   0.143   2.635   6.141  0.0661  0.2178  0.6969
 6301SOL     OW24969   0.712   0.578   0.799  0.2189 -0.0461 -0.1348
 6301SOL    HW224970   0.667   0.657   0.829  0.8328  0.2138  0.1018
 6301SOL    HW324971   0.644   0.528   0.754 -0.9994 -0.8937  2.4314
 6301SOL    MW424972   0.697   0.582   0.797  0.1392 -0.1237  0.2350
 6302SOL     OW24973   5.742   1.846   0.422  0.4107  0.1209 -0.1680
 6302SOL    HW224974   5.656   1.888   0.426  0.6770  0.6040  0.8076
 6302SOL    HW324975   5.723   1.752   0.428 -0.0957  0.1646 -0.9135
 6302SOL    MW424976   5.728   1.839   0.423  0.3790  0.1904 -0.1377
 6303SOL     OW24977   5.952   2.127   0.029  0.1116  0.5045 -0.4235
 6303SOL    HW224978   5.876   2.104   0.084  0.4543 -0.2250 -0.2382
 6303SOL    HW324979   5.916   2.185  -0.038 -0.3532  1.2893  0.4658
 6303SOL    MW424980   5.937   2.131   0.028  0.0955  0.5118 -0.2817
 6304SOL     OW24981   1.078   1.822   4.008 -0.6355 -0.6977 -0.0505
 6304SOL    HW224982   1.037   1.811   3.923 -0.0462  0.6696 -0.5394
 6304SOL    HW324983   1.165   1.783   3.998  0.4479  1.7181 -0.9618
 6304SOL    MW424984   1.084   1.816   3.996 -0.4148 -0.1985 -0.2353
 6305SOL     OW24985   5.057   4.881   5.463 -0.0164 -0.4539  0.1842
 6305SOL    HW224986   5.118   4.910   5.396  1.6688 -1.9105  1.0156
 6305SOL    HW324987   5.076   4.788   5.475 -2.7312 -1.0915  0.1730
 6305SOL    MW424988   5.067   4.873   5.456 -0.1523 -0.7302  0.2924
 6306SOL     OW24989   1.655   2.407   5.547 -0.1669 -0.6211 -0.0745
 6306SOL    HW224990   1.616   2.472   5.605 -0.6452  0.4432 -1.5174
 6306SOL    HW324991   1.681   2.457   5.469  0.6566 -1.9485 -0.6907
 6306SOL    MW424992   1.653   2.422   5.544 -0.1214 -0.6558 -0.3462
 6307SOL     OW24993   5.263   2.360   5.298 -0.1410 -0.5947  0.2107
 6307SOL    HW224994   5.337   2.316   5.257 -0.2649  0.8192 -1.7325
 6307SOL    HW324995   5.301   2.414   5.367  0.3310 -1.6349  0.7695
 6307SOL    MW424996   5.277   2.362   5.302 -0.0950 -0.5454  0.0280
 6308SOL     OW24997   3.179   2.537   5.687  0.1078 -0.3791 -0.2434
 6308SOL    HW224998   3.152   2.447   5.704 -0.7538  0.3479  3.0420
 6308SOL    HW324999   3.098   2.588   5.692  0.7532  0.7292 -0.6755
 6308SOL    MW425000   3.165   2.532   5.690  0.0793 -0.1370  0.1331
 6309SOL     OW25001   1.483   5.789   0.048  0.3859  0.1550 -0.0130
 6309SOL    HW225002   1.492   5.711   0.103 -3.6884  0.3323  1.2257
 6309SOL    HW325003   1.473   5.754  -0.041  1.1343 -0.5296  0.1560
 6309SOL    MW425004   1.483   5.774   0.044 -0.0529  0.0881  0.1727
 6310SOL     OW25005   1.888   2.781   5.617  0.0303  0.3813 -0.2643
 6310SOL    HW225006   1.903   2.686   5.618  0.9538  0.5087  1.0355
 6310SOL    HW325007   1.860   2.800   5.527  0.5041 -1.0251 -0.7406
 6310SOL    MW425008   1.886   2.771   5.605  0.2146  0.2125 -0.1556
 6311SOL     OW25009   1.668   6.224   5.963  0.4861  0.0053  0.4240
 6311SOL    HW225010   1.733   6.206   5.895  0.4497  1.0145  0.1054
 6311SOL    HW325011   1.657   6.141   6.009 -1.6649 -1.6175 -2.6301
 6311SOL    MW425012   1.675   6.211   5.960  0.1975 -0.0757 -0.0210
 6312SOL     OW25013   0.813   5.079   5.065 -0.7218 -0.1730 -0.2026
 6312SOL    HW225014   0.769   5.160   5.040 -0.8954  0.3406  1.5994
 6312SOL    HW325015   0.745   5.012   5.061 -1.7867  0.5974  2.4712
 6312SOL    MW425016   0.799   5.081   5.061 -0.8852 -0.0036  0.3879
 6313SOL     OW25017   0.725   5.670   6.240 -0.0037 -0.2267  0.2294
 6313SOL    HW225018   0.678   5.752   6.255 -1.7903 -1.2407  0.5455
 6313SOL    HW325019   0.713   5.620   6.321  1.3605 -0.6664  0.1768
 6313SOL    MW425020   0.717   5.674   6.253 -0.0594 -0.4185  0.2642
 6314SOL     OW25021   4.488   2.469   3.430  0.1265  0.4782 -0.4041
 6314SOL    HW225022   4.439   2.450   3.510 -0.0348 -0.8675 -0.7957
 6314SOL    HW325023   4.567   2.513   3.460  1.0384 -1.7802  0.7374
 6314SOL    MW425024   4.492   2.473   3.445  0.2255  0.0027 -0.3051
 6315SOL     OW25025   5.379   0.503   5.750  0.1447 -0.7053 -0.3655
 6315SOL    HW225026   5.400   0.469   5.663  0.9221 -2.0957  0.3174
 6315SOL    HW325027   5.395   0.428   5.809  1.4900  0.7040  1.1773
 6315SOL    MW425028   5.384   0.488   5.746  0.4248 -0.7028 -0.0719
 6316SOL     OW25029   3.019   4.895   1.452  0.4436 -0.8801 -0.2386
 6316SOL    HW225030   2.965   4.969   1.481  1.0155  0.0460 -1.4286
 6316SOL    HW325031   2.957   4.831   1.419 -0.0416 -0.7582  0.4199
 6316SOL    MW425032   3.004   4.896   1.451  0.4550 -0.7418 -0.3087
 6317SOL     OW25033   0.279   4.863   5.543  0.3605 -0.4316 -0.7758
 6317SOL    HW225034   0.313   4.922   5.476 -1.3426 -0.3332 -1.6029
 6317SOL    HW325035   0.353   4.848   5.601  1.6023  0.3128 -2.0950
 6317SOL    MW425036   0.293   4.869   5.541  0.2996 -0.3204 -1.0590
 6318SOL     OW25037   2.821   4.425   1.587 -0.1243 -0.1953  0.1687
 6318SOL    HW225038   2.787   4.338   1.563  0.1857  0.0475 -1.2255
 6318SOL    HW325039   2.894   4.439   1.527  0.6731  0.4905  1.2574
 6318SOL    MW425040   2.826   4.415   1.576  0.0218 -0.0728  0.1284
 6319SOL     OW25041   6.366   2.093   3.767  0.1541  0.2111 -0.6380
 6319SOL    HW225042   6.378   2.159   3.699  0.4036  2.3299  1.3370
 6319SOL    HW325043   6.450   2.091   3.813  0.0160 -1.2399 -0.4019
 6319SOL    MW425044   6.379   2.101   3.764  0.1688  0.2992 -0.3463
 6320SOL     OW25045   0.714   5.722   1.075 -0.1332 -0.3089 -0.1829
 6320SOL    HW225046   0.787   5.670   1.108 -1.2830 -1.4287  0.6811
 6320SOL    HW325047   0.735   5.812   1.102  0.1364 -0.8513  1.5449
 6320SOL    MW425048   0.726   5.727   1.083 -0.2493 -0.5282  0.1590
 6321SOL     OW25049   0.960   4.171   1.435 -0.2921  0.2468  0.3801
 6321SOL    HW225050   0.885   4.171   1.376 -0.2188 -2.1939  0.1943
 6321SOL    HW325051   0.929   4.124   1.513  0.7671  0.0259  0.6793
 6321SOL    MW425052   0.946   4.165   1.438 -0.1427 -0.1043  0.3950
 6322SOL     OW25053   6.025   4.451   3.087  0.1432  0.3803 -0.2646
 6322SOL    HW225054   5.988   4.363   3.079  1.0116  0.0225 -0.4690
 6322SOL    HW325055   6.111   4.438   3.128  1.2894  0.8485 -2.3250
 6322SOL    MW425056   6.032   4.438   3.091  0.4090  0.3949 -0.5634
 6323SOL     OW25057   2.075   3.453   0.540  0.6089 -0.1081  0.1085
 6323SOL    HW225058   1.998   3.507   0.525  1.7404  1.3918 -0.5480
 6323SOL    HW325059   2.071   3.386   0.472  0.5775  0.7837 -0.7845
 6323SOL    MW425060   2.064   3.451   0.529  0.7540  0.2075 -0.0959
 6324SOL     OW25061   4.612   4.690   4.009 -0.5257  0.1426  0.2863
 6324SOL    HW225062   4.673   4.616   4.005  1.1007  1.3173  1.6043
 6324SOL    HW325063   4.626   4.738   3.928 -0.9720 -0.5158 -0.1896
 6324SOL    MW425064   4.622   4.687   3.998 -0.3700  0.2107  0.3974
 6325SOL     OW25065   6.062   1.494   4.482  0.1016  0.0548 -0.0934
 6325SOL    HW225066   6.004   1.570   4.473 -3.1487 -2.3020 -0.5944
 6325SOL    HW325067   6.139   1.517   4.429 -0.9256  2.7828 -0.5918
 6325SOL    MW425068   6.065   1.507   4.474 -0.4628  0.1038 -0.2252
 6326SOL     OW25069   1.934   0.441   2.883 -0.2341 -0.3474 -0.0238
 6326SOL    HW225070   1.845   0.445   2.848 -0.1139 -0.5420 -0.3536
 6326SOL    HW325071   1.963   0.532   2.886 -0.0416 -0.3675 -0.9660
 6326SOL    MW425072   1.926   0.453   2.879 -0.1929 -0.3757 -0.1916
 6327SOL     OW25073   5.511   0.015   2.854 -0.0220  0.1075 -0.6293
 6327SOL    HW225074   5.571   0.002   2.780  0.1602 -2.8688 -0.1072
 6327SOL    HW325075   5.424   0.010   2.815  0.0819 -0.6807 -0.7912
 6327SOL    MW425076   5.508   0.013   2.839  0.0158 -0.3892 -0.5818
 6328SOL     OW25077   2.435   5.670   3.118  0.3912  0.1082 -0.0538
 6328SOL    HW225078   2.460   5.645   3.030 -3.3609 -2.0122 -0.7612
 6328SOL    HW325079   2.407   5.587   3.159  1.4246  1.1127  2.9598
 6328SOL    MW425080   2.434   5.655   3.112  0.0325 -0.0390  0.2505
 6329SOL     OW25081   1.611   2.662   1.193 -0.0476  0.5928 -0.2129
 6329SOL    HW225082   1.668   2.700   1.126 -1.2375  1.6006 -0.6799
 6329SOL    HW325083   1.583   2.736   1.247 -0.3798  0.0173  0.4290
 6329SOL    MW425084   1.615   2.677   1.191 -0.2484  0.6498 -0.1898
 6330SOL     OW25085   1.023   3.146   0.944 -0.2234 -0.1712  0.0053
 6330SOL    HW225086   1.085   3.081   0.911 -0.3899  0.5625 -1.9027
 6330SOL    HW325087   0.961   3.158   0.871 -0.5265  1.6851  0.5262
 6330SOL    MW425088   1.023   3.139   0.930 -0.2853  0.1705 -0.1777
 6331SOL     OW25089   3.062   5.919   5.926  0.2434  0.3703  0.3808
 6331SOL    HW225090   3.007   5.841   5.919  0.8304 -0.0126 -0.0555
 6331SOL    HW325091   3.029   5.964   6.004  0.2612 -0.5968  0.9679
 6331SOL    MW425092   3.050   5.914   5.935  0.3232  0.1922  0.4007
 6332SOL     OW25093   1.659   4.333   3.451 -0.0514  0.5208  0.3046
 6332SOL    HW225094   1.665   4.325   3.356 -2.6864  3.5452 -0.2947
 6332SOL    HW325095   1.750   4.336   3.480  0.8325 -1.0108 -1.9929
 6332SOL    MW425096   1.672   4.333   3.443 -0.2824  0.7177 -0.0776
 6333SOL     OW25097   4.375   3.876   3.776 -0.3492  0.1908 -0.3310
 6333SOL    HW225098   4.322   3.912   3.848  1.1534 -0.0885  0.9903
 6333SOL    HW325099   4.378   3.782   3.793 -1.7517 -0.2036 -2.0356
 6333SOL    MW425100   4.369   3.869   3.788 -0.3360  0.1019 -0.3815
 6334SOL     OW25101   1.605   1.598   6.353  0.6819 -0.3973  0.3422
 6334SOL    HW225102   1.646   1.644   6.427 -0.6566  1.6913 -0.1392
 6334SOL    HW325103   1.533   1.655   6.326  0.5718 -1.5365 -2.0120
 6334SOL    MW425104   1.601   1.612   6.359  0.4908 -0.2721 -0.0319
 6335SOL     OW25105   1.378   1.962   0.136  0.7813  0.0142  0.9015
 6335SOL    HW225106   1.369   1.984   0.043 -1.8565  2.0608  1.5067
 6335SOL    HW325107   1.367   1.867   0.139  1.3359 -0.1523 -0.8832
 6335SOL    MW425108   1.375   1.953   0.124  0.5064  0.2623  0.7459
 6336SOL     OW25109   2.091   0.444   0.424  0.7440  0.3153  0.2106
 6336SOL    HW225110   2.008   0.482   0.452 -0.1943 -2.6007  1.8085
 6336SOL    HW325111   2.089   0.449   0.329 -1.1072  0.5659  0.2356
 6336SOL    MW425112   2.080   0.450   0.415  0.3759 -0.0363  0.4247
 6337SOL     OW25113   5.292   5.193   2.780 -0.2484 -0.1141  0.3619
 6337SOL    HW225114   5.310   5.106   2.818 -0.0493 -0.3890 -0.3447
 6337SOL    HW325115   5.296   5.179   2.686 -0.1318  0.6923  0.2421
 6337SOL    MW425116   5.295   5.179   2.773 -0.2067 -0.0439  0.2529
 6338SOL     OW25117   3.494   0.623   0.489 -0.1019 -0.1857 -0.5731
 6338SOL    HW225118   3.556   0.567   0.535 -0.9788  0.2074  1.1826
 6338SOL    HW325119   3.473   0.692   0.552 -1.5844  0.2218 -1.4625
 6338SOL    MW425120   3.499   0.625   0.503 -0.4132 -0.0801 -0.4588
 6339SOL     OW25121   4.085   2.862   2.714 -0.2340 -0.2000 -0.2393
 6339SOL    HW225122   4.141   2.860   2.636 -1.1053 -1.1516 -0.8665
 6339SOL    HW325123   4.140   2.826   2.784  1.0065  1.8713 -0.0649
 6339SOL    MW425124   4.100   2.857   2.713 -0.1853 -0.0523 -0.2991
 6340SOL     OW25125   2.422   2.988   5.693 -0.1087  0.0558  0.2927
 6340SOL    HW225126   2.330   2.994   5.667 -0.6732  2.0033  2.4113
 6340SOL    HW325127   2.468   2.968   5.611 -2.2610  0.3806 -1.0903
 6340SOL    MW425128   2.416   2.986   5.679 -0.4672  0.3556  0.3898
 6341SOL     OW25129   5.016   0.511   6.229  0.2411  0.6988  0.4215
 6341SOL    HW225130   5.062   0.516   6.145 -1.5801 -1.2901 -0.8090
 6341SOL    HW325131   4.928   0.543   6.209  0.0854  1.2037  1.8491
 6341SOL    MW425132   5.010   0.516   6.215 -0.0197  0.5030  0.4475
 6342SOL     OW25133   2.886   1.863   3.619  0.0532  0.4559 -0.0773
 6342SOL    HW225134   2.937   1.808   3.678 -0.0709 -0.5891 -0.9260
 6342SOL    HW325135   2.904   1.953   3.649 -0.5648 -0.0505  1.9934
 6342SOL    MW425136   2.895   1.868   3.631 -0.0447  0.2512  0.0839
 6343SOL     OW25137   0.178   4.534   6.303  0.0121 -0.0065  0.0475
 6343SOL    HW225138   0.084   4.547   6.289 -0.4142 -0.5111  2.0702
 6343SOL    HW325139   0.213   4.622   6.314 -0.2204  0.1772 -0.5962
 6343SOL    MW425140   0.170   4.547   6.302 -0.0748 -0.0489  0.2294
 6344SOL     OW25141   4.416   0.743   2.947 -0.3147  0.5414 -0.7551
 6344SOL    HW225142   4.371   0.677   2.999 -0.3627  0.5869 -0.7386
 6344SOL    HW325143   4.407   0.824   2.998  0.8903  0.2952 -0.1131
 6344SOL    MW425144   4.409   0.745   2.961 -0.1621  0.5149 -0.6682
 6345SOL     OW25145   0.682   1.958   2.431  0.2984 -0.2083  0.3151
 6345SOL    HW225146   0.768   1.990   2.456  0.4739  0.1453 -0.7116
 6345SOL    HW325147   0.699   1.875   2.387  0.2092  0.3201 -0.7407
 6345SOL    MW425148   0.696   1.951   2.429  0.3098 -0.0919  0.0403
 6346SOL     OW25149   4.203   0.183   0.289 -0.0152  0.2312  0.1951
 6346SOL    HW225150   4.234   0.138   0.210 -0.4711  0.2639 -0.0072
 6346SOL    HW325151   4.192   0.113   0.353 -1.8645 -0.1457 -0.4759
 6346SOL    MW425152   4.206   0.168   0.287 -0.3193  0.1858  0.0799
 6347SOL     OW25153   2.319   0.820   0.037  0.1309 -0.4336  0.8170
 6347SOL    HW225154   2.359   0.838  -0.047 -2.1781  0.0905 -0.2581
 6347SOL    HW325155   2.330   0.726   0.050  1.7720 -0.2895  0.6798
 6347SOL    MW425156   2.326   0.810   0.028  0.0428 -0.3454  0.6570
 6348SOL     OW25157   6.346   6.046   1.168  0.3227 -0.1715  0.1127
 6348SOL    HW225158   6.299   6.083   1.093 -0.5697 -0.2594  0.6148
 6348SOL    HW325159   6.428   6.095   1.172  0.0373  0.3566 -0.4522
 6348SOL    MW425160   6.351   6.057   1.159  0.1673 -0.1134  0.1044
 6349SOL     OW25161   3.941   2.077   6.175 -0.1817 -0.2572 -0.1210
 6349SOL    HW225162   3.861   2.024   6.172  0.3901 -1.1392 -0.0991
 6349SOL    HW325163   3.929   2.143   6.106 -0.9346 -0.3563 -0.0956
 6349SOL    MW425164   3.929   2.079   6.166 -0.2056 -0.3867 -0.1148
 6350SOL     OW25165   5.390   3.544   2.791 -0.1116 -0.4119  0.5304
 6350SOL    HW225166   5.472   3.494   2.790  0.1825 -0.0137  1.9014
 6350SOL    HW325167   5.412   3.626   2.746  0.2704 -0.2799  0.9460
 6350SOL    MW425168   5.404   3.548   2.785 -0.0224 -0.3420  0.7661
 6351SOL     OW25169   2.072   0.048   5.804 -0.1825 -0.4574 -0.3011
 6351SOL    HW225170   2.148   0.097   5.771  0.2684 -0.2263  1.0251
 6351SOL    HW325171   2.013   0.116   5.838  0.6854 -0.7732  2.0500
 6351SOL    MW425172   2.075   0.064   5.804 -0.0085 -0.4686  0.1841
 6352SOL     OW25173   1.225   1.005   4.893  0.1527 -0.0509  0.1849
 6352SOL    HW225174   1.169   1.056   4.951 -1.2085 -0.0092 -1.0936
 6352SOL    HW325175   1.189   0.916   4.898 -1.3929  0.3498 -2.1310
 6352SOL    MW425176   1.213   1.000   4.901 -0.2308  0.0075 -0.2893
 6353SOL     OW25177   3.728   3.015   1.810  0.6699 -0.8090 -0.1255
 6353SOL    HW225178   3.681   2.957   1.870  1.5386 -0.5508  0.8369
 6353SOL    HW325179   3.821   2.999   1.829  0.9947 -0.9386 -1.6281
 6353SOL    MW425180   3.734   3.005   1.820  0.8273 -0.7921 -0.1968
 6354SOL     OW25181   1.052   1.628   3.298 -0.0435 -0.0308  0.3440
 6354SOL    HW225182   1.096   1.658   3.218  1.0910 -0.4022  0.8168
 6354SOL    HW325183   1.109   1.560   3.333 -0.8838 -0.3617  1.1068
 6354SOL    MW425184   1.065   1.623   3.292 -0.0047 -0.1234  0.5070
 6355SOL     OW25185   2.974   5.811   2.603  0.0428  0.3843  0.3793
 6355SOL    HW225186   2.937   5.821   2.515  0.2969 -0.0731  0.2152
 6355SOL    HW325187   2.938   5.729   2.635  2.7180 -1.3479 -0.7294
 6355SOL    MW425188   2.965   5.802   2.596  0.4293  0.0954  0.2114
 6356SOL     OW25189   1.107   0.165   3.037  0.7660 -0.3631  0.3668
 6356SOL    HW225190   1.081   0.239   3.092  0.6898  0.0013 -0.1487
 6356SOL    HW325191   1.148   0.206   2.960 -0.4059 -0.8034 -0.5220
 6356SOL    MW425192   1.109   0.180   3.034  0.6013 -0.3731  0.1815
 6357SOL     OW25193   1.882   1.323   3.744  0.0980 -0.1857 -0.2251
 6357SOL    HW225194   1.895   1.230   3.761 -1.6937 -0.5911 -0.8799
 6357SOL    HW325195   1.933   1.341   3.665 -0.1803 -0.8167 -0.5581
 6357SOL    MW425196   1.890   1.313   3.736 -0.1751 -0.3224 -0.3554
 6358SOL     OW25197   6.010   3.099   4.385  0.0208 -0.0363  0.0438
 6358SOL    HW225198   5.962   3.133   4.461 -2.0961 -0.4817 -1.0161
 6358SOL    HW325199   5.966   3.139   4.310  2.2927  0.6725 -0.9778
 6358SOL    MW425200   5.998   3.109   4.385  0.0412 -0.0016 -0.2308
 6359SOL     OW25201   6.028   4.111   5.241 -0.6531  0.0785 -0.4838
 6359SOL    HW225202   5.951   4.080   5.193 -0.4547  0.7651 -1.2879
 6359SOL    HW325203   6.091   4.040   5.235 -0.3745  0.4088 -1.8865
 6359SOL    MW425204   6.026   4.098   5.234 -0.5902  0.2127 -0.7750
 6360SOL     OW25205   1.980   2.100   5.739 -0.1350 -0.6443  0.3133
 6360SOL    HW225206   2.051   2.156   5.769 -0.5182 -0.5105  0.9734
 6360SOL    HW325207   2.004   2.012   5.769  0.5308 -0.8783 -0.8334
 6360SOL    MW425208   1.992   2.096   5.747 -0.0977 -0.6576  0.2491
 6361SOL     OW25209   5.463   3.899   2.938  0.1983 -0.6518  0.2008
 6361SOL    HW225210   5.529   3.844   2.897  0.4203 -0.2369 -0.0014
 6361SOL    HW325211   5.498   3.988   2.932 -0.5477 -0.3755 -0.2561
 6361SOL    MW425212   5.476   3.904   2.932  0.1292 -0.5606  0.1138
 6362SOL     OW25213   2.282   3.906   0.002 -0.1201 -0.2300  0.4541
 6362SOL    HW225214   2.294   3.993   0.041 -0.7747  0.9925 -1.9239
 6362SOL    HW325215   2.371   3.872  -0.007  0.4686  1.6448 -1.5902
 6362SOL    MW425216   2.296   3.913   0.006 -0.1288  0.1787 -0.1294
 6363SOL     OW25217   0.306   3.391   5.495 -0.3534 -0.2852 -0.2874
 6363SOL    HW225218   0.213   3.409   5.500 -0.2523  1.7824 -3.4304
 6363SOL    HW325219   0.344   3.438   5.570 -1.4773  2.2340 -1.2087
 6363SOL    MW425220   0.299   3.400   5.506 -0.4883  0.3200 -0.8236
 6364SOL     OW25221   1.737   5.681   5.956 -0.2708  0.5433  0.1738
 6364SOL    HW225222   1.802   5.628   6.002 -0.6505 -0.2248 -0.1635
 6364SOL    HW325223   1.656   5.632   5.965 -0.6493  1.1164 -0.0708
 6364SOL    MW425224   1.735   5.668   5.963 -0.3708  0.5176  0.0970
 6365SOL     OW25225   1.698   4.946   0.276 -0.1775  0.2306  0.1339
 6365SOL    HW225226   1.686   5.041   0.278  1.1493  0.4256 -0.0671
 6365SOL    HW325227   1.613   4.911   0.249 -0.5654  1.3888 -0.1799
 6365SOL    MW425228   1.685   4.954   0.273 -0.0536  0.4092  0.0660
 6366SOL     OW25229   0.336   4.746   4.047 -0.5189 -0.6676  0.2674
 6366SOL    HW225230   0.354   4.781   4.134 -2.4322 -2.1829  1.3643
 6366SOL    HW325231   0.336   4.823   3.990  0.4946  0.4030  1.6228
 6366SOL    MW425232   0.339   4.761   4.051 -0.6376 -0.7263  0.5910
 6367SOL     OW25233   4.735   3.377   2.752 -0.0980  0.5936 -0.2383
 6367SOL    HW225234   4.730   3.288   2.716  0.0905  0.7907 -0.7605
 6367SOL    HW325235   4.644   3.407   2.756 -0.1636  0.3763 -0.0465
 6367SOL    MW425236   4.722   3.369   2.748 -0.0818  0.5909 -0.2819
 6368SOL     OW25237   5.760   5.570   5.507  0.5622 -0.7448  0.8104
 6368SOL    HW225238   5.799   5.492   5.466 -0.0129 -0.4253 -0.3992
 6368SOL    HW325239   5.835   5.626   5.527  0.9752 -1.5377  1.5799
 6368SOL    MW425240   5.775   5.567   5.504  0.5408 -0.8072  0.7523
 6369SOL     OW25241   5.604   2.428   5.927 -0.2563  0.2252  0.5177
 6369SOL    HW225242   5.600   2.388   6.014 -0.7147 -0.4964  0.1749
 6369SOL    HW325243   5.586   2.356   5.867  2.4642  0.1715 -0.3404
 6369SOL    MW425244   5.601   2.413   5.930  0.0422  0.1229  0.3593
 6370SOL     OW25245   3.488   0.918   0.577  0.2133  0.3464  0.7360
 6370SOL    HW225246   3.401   0.904   0.539 -0.2376  0.8203  1.5647
 6370SOL    HW325247   3.538   0.962   0.508 -1.0198  2.5065  1.1282
 6370SOL    MW425248   3.483   0.922   0.563 -0.0089  0.6939  0.8971
 6371SOL     OW25249   5.717   6.186   3.255 -0.1749 -0.4843 -0.4623
 6371SOL    HW225250   5.715   6.244   3.332  0.6159 -1.4842  0.3418
 6371SOL    HW325251   5.730   6.245   3.181  3.2243  0.2384  0.5492
 6371SOL    MW425252   5.719   6.201   3.256  0.3779 -0.5209 -0.2227
 6372SOL     OW25253   3.839   3.490   3.145  0.1902  0.0208  0.0874
 6372SOL    HW225254   3.912   3.485   3.083 -0.0131  1.4491 -0.3057
 6372SOL    HW325255   3.878   3.468   3.230  1.1977  1.1747 -0.0460
 6372SOL    MW425256   3.854   3.486   3.148  0.2963  0.3615  0.0179
 6373SOL     OW25257   2.941   2.296   4.062 -0.2513 -0.4129 -0.0700
 6373SOL    HW225258   2.954   2.202   4.047  0.8591 -0.0493 -1.5267
 6373SOL    HW325259   2.998   2.339   3.999  0.3872  1.2679  1.5811
 6373SOL    MW425260   2.950   2.289   4.052 -0.0206 -0.1432 -0.0443
 6374SOL     OW25261   0.685   4.683   2.719  0.2186  0.2370  0.5026
 6374SOL    HW225262   0.743   4.708   2.647 -0.1918  1.1363  0.4676
 6374SOL    HW325263   0.603   4.660   2.676  0.5612 -1.1422  0.5427
 6374SOL    MW425264   0.682   4.683   2.704  0.2096  0.1737  0.5033
 6375SOL     OW25265   5.687   1.476   4.273  0.6667  0.0740  0.5646
 6375SOL    HW225266   5.624   1.409   4.299  1.6134 -0.8060  0.6418
 6375SOL    HW325267   5.650   1.558   4.306  0.4251 -0.6483  2.1934
 6375SOL    MW425268   5.674   1.478   4.281  0.7598 -0.1374  0.7897
 6376SOL     OW25269   3.667   4.590   2.436  0.2941 -0.2986  0.3213
 6376SOL    HW225270   3.683   4.540   2.516 -0.4896 -0.3244  0.4662
 6376SOL    HW325271   3.648   4.523   2.370 -1.7484 -0.1812  0.7406
 6376SOL    MW425272   3.667   4.574   2.438 -0.0788 -0.2865  0.3957
 6377SOL     OW25273   1.096   0.658   3.625 -0.4308  0.2824  0.3323
 6377SOL    HW225274   1.071   0.582   3.679  0.3010  0.6516  1.2124
 6377SOL    HW325275   1.047   0.646   3.543 -1.5396 -0.3143  1.0566
 6377SOL    MW425276   1.086   0.646   3.621 -0.4806  0.2524  0.5440
 6378SOL     OW25277   3.125   5.221   0.277  0.9875  0.4699  0.5867
 6378SOL    HW225278   3.071   5.212   0.356 -0.8287  0.4450 -0.5891
 6378SOL    HW325279   3.103   5.145   0.224  1.3320  1.0463 -0.4241
 6378SOL    MW425280   3.115   5.210   0.280  0.7934  0.5427  0.2982
 6379SOL     OW25281   5.184   2.608   5.205  0.8117 -0.0187  0.5638
 6379SOL    HW225282   5.094   2.599   5.235  0.4191 -0.7176 -0.7463
 6379SOL    HW325283   5.220   2.519   5.213  1.0392  0.0259  0.0353
 6379SOL    MW425284   5.177   2.595   5.210  0.7899 -0.1050  0.3212
 6380SOL     OW25285   5.677   1.744   0.825  0.0359 -0.5050 -0.0880
 6380SOL    HW225286   5.746   1.704   0.771  0.9294  0.7172  0.1078
 6380SOL    HW325287   5.704   1.835   0.834 -1.7956  0.0868 -0.2656
 6380SOL    MW425288   5.690   1.750   0.819 -0.0879 -0.2657 -0.0856
 6381SOL     OW25289   0.932   2.497   2.637  0.4156  0.8717 -0.4722
 6381SOL    HW225290   0.950   2.590   2.650  0.5615  0.7388  0.3242
 6381SOL    HW325291   0.840   2.486   2.663  0.5380  0.7092 -0.1001
 6381SOL    MW425292   0.922   2.507   2.642  0.4510  0.8327 -0.3180
 6382SOL     OW25293   5.771   4.799   2.818  0.1013  0.3357  0.3780
 6382SOL    HW225294   5.824   4.877   2.836 -1.3564  1.5343 -0.2554
 6382SOL    HW325295   5.742   4.810   2.727 -0.1995 -0.9158  0.3032
 6382SOL    MW425296   5.774   4.811   2.808 -0.1307  0.3287  0.2846
 6383SOL     OW25297   5.268   2.150   0.142  0.2435  0.0922 -0.2682
 6383SOL    HW225298   5.255   2.126   0.050  0.5195 -0.5000 -0.1623
 6383SOL    HW325299   5.288   2.067   0.185  0.8193  0.4644  0.1978
 6383SOL    MW425300   5.269   2.136   0.135  0.3559  0.0632 -0.1927
 6384SOL     OW25301   1.278   4.408   0.045  0.0788  0.2261 -0.1499
 6384SOL    HW225302   1.290   4.325   0.091  0.5898 -0.0776 -0.8100
 6384SOL    HW325303   1.217   4.457   0.099  0.2336 -0.3453  0.5570
 6384SOL    MW425304   1.272   4.403   0.058  0.1666  0.1106 -0.1438
 6385SOL     OW25305   2.979   5.997   0.761  0.3517 -0.3089 -0.6109
 6385SOL    HW225306   2.934   6.068   0.715  2.1380  0.6616 -0.9541
 6385SOL    HW325307   3.011   5.940   0.692  4.3672  1.9477 -0.8871
 6385SOL    MW425308   2.977   5.999   0.746  1.1172  0.1169 -0.6926
 6386SOL     OW25309   0.839   4.752   2.490  0.1057 -0.0222  0.8637
 6386SOL    HW225310   0.934   4.746   2.488  0.1698  0.8410 -1.0407
 6386SOL    HW325311   0.809   4.668   2.455  0.2019  0.0957  0.4947
 6386SOL    MW425312   0.847   4.740   2.485  0.1269  0.1072  0.5638
 6387SOL     OW25313   6.325   0.576   2.274 -0.4656 -0.2202  0.5051
 6387SOL    HW225314   6.232   0.573   2.296 -0.7894 -0.3708 -0.7853
 6387SOL    HW325315   6.328   0.559   2.180  0.9105 -0.7183  0.6058
 6387SOL    MW425316   6.313   0.573   2.265 -0.3268 -0.3058  0.3481
 6388SOL     OW25317   4.299  -0.008   3.721  0.5364  0.3527  0.6974
 6388SOL    HW225318   4.391   0.011   3.701  0.3139  0.4759 -0.2316
 6388SOL    HW325319   4.284  -0.096   3.686  0.8909 -0.6126  2.8254
 6388SOL    MW425320   4.309  -0.017   3.714  0.5538  0.2416  0.8556
 6389SOL     OW25321   0.429   1.354   2.567  0.7154 -0.0893 -0.0500
 6389SOL    HW225322   0.367   1.291   2.530  1.9221 -2.3625  1.5075
 6389SOL    HW325323   0.513   1.329   2.529  1.6568 -1.2411  2.5489
 6389SOL    MW425324   0.432   1.342   2.557  0.9988 -0.5412  0.4984
 6390SOL     OW25325   3.743   4.334   2.979  0.5095  0.6549  0.2802
 6390SOL    HW225326   3.807   4.396   2.943  0.2388  0.4165 -0.6241
 6390SOL    HW325327   3.794   4.255   2.998  0.5223  0.5377 -0.2411
 6390SOL    MW425328   3.758   4.332   2.977  0.4754  0.6080  0.0921
 6391SOL     OW25329   5.350   0.695   5.388 -0.1314  0.1720  0.0403
 6391SOL    HW225330   5.261   0.669   5.363 -0.4336 -0.1037  1.3401
 6391SOL    HW325331   5.340   0.734   5.475  0.9024  0.9519 -0.1753
 6391SOL    MW425332   5.337   0.697   5.396 -0.0349  0.2385  0.1833
 6392SOL     OW25333   5.522   4.979   5.846 -1.0642 -0.3786  0.1300
 6392SOL    HW225334   5.463   4.904   5.836 -1.8200  0.1065  0.7660
 6392SOL    HW325335   5.492   5.022   5.926  3.2570 -2.8546  3.5038
 6392SOL    MW425336   5.510   4.975   5.855 -0.5938 -0.6413  0.6590
 6393SOL     OW25337   5.908   2.183   5.050 -0.1508 -0.1805  0.3338
 6393SOL    HW225338   5.908   2.114   5.116  0.5088 -0.5154 -0.0045
 6393SOL    HW325339   5.915   2.265   5.100  0.2906 -0.4269  0.6820
 6393SOL    MW425340   5.909   2.185   5.065 -0.0055 -0.2572  0.3351
 6394SOL     OW25341   2.110   2.067   2.260  0.5470  0.0384  0.1667
 6394SOL    HW225342   2.098   1.975   2.238  0.6517 -0.1277  0.7695
 6394SOL    HW325343   2.144   2.107   2.180  0.6939 -0.4891 -0.0393
 6394SOL    MW425344   2.113   2.060   2.247  0.5802 -0.0531  0.2190
 6395SOL     OW25345   6.100   3.754   5.877  0.2956 -0.0223  0.2753
 6395SOL    HW225346   6.135   3.700   5.947 -0.9541  1.4004  2.0824
 6395SOL    HW325347   6.162   3.826   5.868  1.2543 -0.9651 -1.2124
 6395SOL    MW425348   6.113   3.756   5.885  0.2572  0.0410  0.3175
 6396SOL     OW25349   1.078   6.217   1.834  0.5898  0.4490  0.6648
 6396SOL    HW225350   1.068   6.302   1.877  1.0657  0.3821  0.9173
 6396SOL    HW325351   1.172   6.201   1.835  0.4855 -0.1849  0.8262
 6396SOL    MW425352   1.089   6.226   1.840  0.6388  0.3565  0.7194
 6397SOL     OW25353   4.047   5.790   3.488  0.1214  0.3288  0.0268
 6397SOL    HW225354   4.087   5.703   3.488 -0.0816  0.2257  0.7364
 6397SOL    HW325355   4.057   5.822   3.398  1.7082  0.2683  0.1544
 6397SOL    MW425356   4.053   5.783   3.476  0.3040  0.3072  0.1373
 6398SOL     OW25357   2.157   2.371   4.465 -0.2561  0.2973 -0.4295
 6398SOL    HW225358   2.067   2.383   4.435 -1.0265  2.7491  2.3949
 6398SOL    HW325359   2.192   2.459   4.475  2.1714 -0.5736 -0.4997
 6398SOL    MW425360   2.150   2.384   4.462 -0.0375  0.5059 -0.0661
 6399SOL     OW25361   4.436   2.246   2.811 -0.2248 -0.0843  0.1547
 6399SOL    HW225362   4.428   2.336   2.843  0.4840  0.0152  0.0615
 6399SOL    HW325363   4.389   2.247   2.728 -2.4719 -0.4561  1.3415
 6399SOL    MW425364   4.429   2.258   2.804 -0.4278 -0.1202  0.2990
 6400SOL     OW25365   4.330  -0.024   4.876 -0.7664  0.5693  0.2945
 6400SOL    HW225366   4.396   0.045   4.871 -0.9230  0.6987 -0.0193
 6400SOL    HW325367   4.380  -0.104   4.894 -0.4281  0.5190 -0.7874
 6400SOL    MW425368   4.345  -0.025   4.877 -0.7424  0.5797  0.1103
 6401SOL     OW25369   2.762   4.151   2.153  0.4398 -0.8062 -0.2961
 6401SOL    HW225370   2.825   4.209   2.195  0.3162 -1.7845  1.3397
 6401SOL    HW325371   2.772   4.168   2.060  2.0983  0.0748  0.0047
 6401SOL    MW425372   2.771   4.161   2.146  0.6423 -0.8190 -0.0406
 6402SOL     OW25373   0.416   4.649   1.942  0.5815  0.2769  0.1761
 6402SOL    HW225374   0.456   4.688   1.864 -0.0139 -0.2373 -0.4000
 6402SOL    HW325375   0.353   4.715   1.972 -0.4325 -0.2267 -0.8017
 6402SOL    MW425376   0.413   4.663   1.936  0.3692  0.1426 -0.0289
 6403SOL     OW25377   5.930   3.325   1.414  0.0173  0.2741 -0.6539
 6403SOL    HW225378   5.903   3.359   1.328 -0.5580 -0.3845 -0.7399
 6403SOL    HW325379   5.886   3.382   1.477 -1.3208 -0.5534 -0.7940
 6403SOL    MW425380   5.921   3.337   1.411 -0.2351  0.0781 -0.6837
 6404SOL     OW25381   3.804   5.156   2.522  0.2920  0.0596  0.3811
 6404SOL    HW225382   3.764   5.234   2.483  0.7051 -0.0102 -0.2069
 6404SOL    HW325383   3.889   5.149   2.478 -0.3076 -1.5176 -0.6193
 6404SOL    MW425384   3.810   5.165   2.511  0.2674 -0.1577  0.1716
 6405SOL     OW25385   1.874   4.990   2.980 -0.2009 -0.0092 -0.6387
 6405SOL    HW225386   1.847   5.025   3.065  1.2667  0.2323 -0.2422
 6405SOL    HW325387   1.809   4.923   2.960 -1.1291  0.6056  0.2031
 6405SOL    MW425388   1.861   4.986   2.989 -0.1298  0.1038 -0.4753
 6406SOL     OW25389   6.020   5.970   3.984  0.1305 -0.3545 -0.2329
 6406SOL    HW225390   6.086   5.908   3.952 -0.3613 -1.1943  0.3453
 6406SOL    HW325391   5.976   5.923   4.055 -0.8602  0.3292 -0.3848
 6406SOL    MW425392   6.023   5.956   3.990 -0.0651 -0.3751 -0.1766
 6407SOL     OW25393   5.394   1.905   1.570  0.1297 -0.0460 -0.2215
 6407SOL    HW225394   5.317   1.937   1.523 -0.2276 -0.7189 -0.1168
 6407SOL    HW325395   5.448   1.983   1.585 -0.8636  0.5536  0.3279
 6407SOL    MW425396   5.391   1.919   1.566 -0.0485 -0.0556 -0.1352
 6408SOL     OW25397   5.193   5.979   4.547  0.3489  0.4760  0.2041
 6408SOL    HW225398   5.127   5.946   4.608 -0.5879  1.2238 -0.3773
 6408SOL    HW325399   5.248   5.903   4.528 -0.4753 -0.2184  0.5239
 6408SOL    MW425400   5.192   5.964   4.553  0.1165  0.4831  0.1696
 6409SOL     OW25401   5.662   5.654   4.356  0.6287  0.0773 -0.4591
 6409SOL    HW225402   5.629   5.565   4.353  1.6266 -0.2944 -1.1490
 6409SOL    HW325403   5.722   5.655   4.431 -0.0756  0.4430  0.1170
 6409SOL    MW425404   5.666   5.643   4.365  0.6675  0.0765 -0.4741
 6410SOL     OW25405   4.428   3.151   3.206 -0.1499 -0.4826  0.3017
 6410SOL    HW225406   4.422   3.056   3.222 -0.5046 -0.7789 -1.4364
 6410SOL    HW325407   4.357   3.188   3.258 -0.7747 -1.2997  0.0499
 6410SOL    MW425408   4.418   3.143   3.215 -0.2792 -0.6295  0.0391
 6411SOL     OW25409   5.817   1.950   1.933 -0.1160 -0.6135  0.0016
 6411SOL    HW225410   5.865   1.977   1.854 -0.7833 -1.6602 -0.7934
 6411SOL    HW325411   5.772   2.029   1.962  0.4417 -0.1218 -0.4499
 6411SOL    MW425412   5.817   1.964   1.926 -0.1305 -0.6867 -0.1629
 6412SOL     OW25413   1.233   3.453   5.868  0.2468  0.6464 -0.1342
 6412SOL    HW225414   1.248   3.487   5.957  1.6560 -0.9642  0.2929
 6412SOL    HW325415   1.140   3.432   5.866 -0.9372  4.8859 -0.6335
 6412SOL    MW425416   1.223   3.455   5.879  0.2765  0.9932 -0.1437
 6413SOL     OW25417   4.487   2.422   2.472  0.3640  0.4055  0.4287
 6413SOL    HW225418   4.519   2.412   2.382 -0.5523  0.1406  0.1224
 6413SOL    HW325419   4.562   2.456   2.520  1.4385 -1.1639 -0.0429
 6413SOL    MW425420   4.501   2.425   2.466  0.3849  0.1635  0.3261
 6414SOL     OW25421   2.588   1.347   0.846 -0.1221  0.2514 -0.1272
 6414SOL    HW225422   2.611   1.440   0.836 -0.5175  0.3457 -0.1652
 6414SOL    HW325423   2.533   1.327   0.771 -2.3761  0.7439  1.3108
 6414SOL    MW425424   2.584   1.357   0.835 -0.4717  0.3288  0.0575
 6415SOL     OW25425   2.650   3.152   3.241  0.5735 -0.4109 -0.4812
 6415SOL    HW225426   2.703   3.075   3.219  0.2337 -1.2978  1.5930
 6415SOL    HW325427   2.695   3.192   3.315  0.1309  0.7605 -0.8267
 6415SOL    MW425428   2.663   3.147   3.247  0.4703 -0.3733 -0.2531
 6416SOL     OW25429   4.182   5.555   5.959  0.2017 -0.5298 -0.2190
 6416SOL    HW225430   4.205   5.544   6.051  0.4298 -1.5183 -0.3798
 6416SOL    HW325431   4.118   5.626   5.958 -0.7202 -1.3145  0.8350
 6416SOL    MW425432   4.177   5.563   5.971  0.1102 -0.7638 -0.1012
 6417SOL     OW25433   4.810   2.291   2.456 -0.1875 -0.6191  0.0198
 6417SOL    HW225434   4.830   2.278   2.363 -3.1257  2.6956 -1.2943
 6417SOL    HW325435   4.756   2.216   2.479  0.9893 -1.7530 -0.7310
 6417SOL    MW425436   4.806   2.279   2.447 -0.4199 -0.3314 -0.2526
 6418SOL     OW25437   0.975   4.185   5.654  0.2215 -0.3999 -0.8553
 6418SOL    HW225438   1.048   4.153   5.707 -0.2816 -1.5715 -0.8319
 6418SOL    HW325439   1.010   4.262   5.608  1.0877 -0.2199  0.0808
 6418SOL    MW425440   0.989   4.191   5.655  0.2694 -0.5307 -0.7287
 6419SOL     OW25441   1.281   3.426   0.257  0.6127  0.3645  0.9440
 6419SOL    HW225442   1.334   3.488   0.307 -2.1796  1.8537  2.3212
 6419SOL    HW325443   1.306   3.340   0.290  1.3263  1.0899  2.3812
 6419SOL    MW425444   1.291   3.423   0.268  0.3384  0.6567  1.3153
 6420SOL     OW25445   3.877   6.354   3.663 -0.2633 -0.2507  0.2275
 6420SOL    HW225446   3.869   6.429   3.723 -0.5800  0.5639 -0.8069
 6420SOL    HW325447   3.795   6.354   3.614 -0.7704 -1.9918  0.9768
 6420SOL    MW425448   3.865   6.364   3.665 -0.3720 -0.3730  0.1899
 6421SOL     OW25449   6.410   1.690   2.836 -0.2845 -0.4538 -0.2369
 6421SOL    HW225450   6.371   1.713   2.921 -1.2297 -1.1978 -0.4552
 6421SOL    HW325451   6.465   1.765   2.814 -1.7218  0.7109  0.0004
 6421SOL    MW425452   6.412   1.703   2.845 -0.5988 -0.3983 -0.2344
 6422SOL     OW25453   1.826   2.231   1.548  0.5726  0.1518  0.2757
 6422SOL    HW225454   1.753   2.260   1.493 -0.1952 -3.2081 -0.6536
 6422SOL    HW325455   1.903   2.273   1.508 -0.2829 -0.0608 -1.7308
 6422SOL    MW425456   1.827   2.241   1.535  0.3584 -0.3196 -0.1116
 6423SOL     OW25457   3.543   5.694   5.185 -0.8001 -0.3929 -0.5137
 6423SOL    HW225458   3.573   5.748   5.112 -0.1601 -0.2330 -0.1399
 6423SOL    HW325459   3.586   5.610   5.172 -0.4157 -0.2618 -0.1534
 6423SOL    MW425460   3.553   5.690   5.174 -0.6649 -0.3545 -0.4168
 6424SOL     OW25461   1.805   0.268   0.903 -0.0617  0.1116 -0.0596
 6424SOL    HW225462   1.711   0.262   0.887 -0.0643  0.3755 -0.1548
 6424SOL    HW325463   1.830   0.353   0.865  0.2869 -0.1405 -0.4062
 6424SOL    MW425464   1.796   0.279   0.896 -0.0160  0.1132 -0.1179
 6425SOL     OW25465   4.308   0.279   0.606  0.4717  0.5934 -0.1893
 6425SOL    HW225466   4.217   0.250   0.608  0.4830  0.5103 -0.8944
 6425SOL    HW325467   4.303   0.374   0.614  0.3728  0.5223  0.7033
 6425SOL    MW425468   4.296   0.288   0.608  0.4602  0.5730 -0.1646
 6426SOL     OW25469   4.367   3.672   2.531  0.0185 -0.1731  0.0767
 6426SOL    HW225470   4.459   3.697   2.537 -0.3741  1.4456 -0.0782
 6426SOL    HW325471   4.319   3.752   2.556 -1.3543 -0.4594 -1.4862
 6426SOL    MW425472   4.373   3.686   2.535 -0.2144  0.0027 -0.1499
 6427SOL     OW25473   0.899   5.106   5.960 -0.5285 -0.3020 -0.3001
 6427SOL    HW225474   0.914   5.092   6.053 -0.0855 -0.7982 -0.4422
 6427SOL    HW325475   0.979   5.076   5.917 -1.6106 -2.3849 -1.0252
 6427SOL    MW425476   0.911   5.100   5.966 -0.6128 -0.6423 -0.4145
 6428SOL     OW25477   5.738   0.009   1.725  0.1657  0.2843  0.3287
 6428SOL    HW225478   5.707  -0.024   1.809  1.4415  0.8746  1.0463
 6428SOL    HW325479   5.824   0.046   1.743  0.9735 -0.5834 -1.4555
 6428SOL    MW425480   5.745   0.009   1.738  0.4406  0.2477  0.1880
 6429SOL     OW25481   3.460   5.258   5.680 -0.0175  0.5406  0.2447
 6429SOL    HW225482   3.501   5.343   5.696  0.0595  0.8818 -1.6188
 6429SOL    HW325483   3.367   5.278   5.664 -0.5224 -0.0043  2.1722
 6429SOL    MW425484   3.453   5.271   5.680 -0.0740  0.5137  0.2531
 6430SOL     OW25485   1.540   1.687   2.377  0.5274  0.3237  0.4920
 6430SOL    HW225486   1.558   1.596   2.351 -0.9696  0.1187  0.1013
 6430SOL    HW325487   1.626   1.730   2.372  1.6005 -1.4363  2.3537
 6430SOL    MW425488   1.554   1.681   2.373  0.4715  0.0644  0.6861
 6431SOL     OW25489   5.642   1.343   0.318 -0.4304  0.0474 -0.4030
 6431SOL    HW225490   5.615   1.377   0.233 -0.5745 -0.2104 -0.4634
 6431SOL    HW325491   5.575   1.278   0.340  0.4593 -1.0812 -0.8588
 6431SOL    MW425492   5.630   1.339   0.309 -0.3320 -0.1355 -0.4711
 6432SOL     OW25493   1.119   2.676   5.294 -0.1682  0.1122 -0.3817
 6432SOL    HW225494   1.094   2.586   5.312 -1.5551  0.4920 -0.2624
 6432SOL    HW325495   1.195   2.692   5.351  1.0599 -1.4030 -1.5161
 6432SOL    MW425496   1.126   2.667   5.304 -0.1892 -0.0376 -0.5156
 6433SOL     OW25497   4.726   1.196   3.525  0.0919 -0.0736 -0.3128
 6433SOL    HW225498   4.727   1.175   3.431 -0.5377 -0.1637 -0.3036
 6433SOL    HW325499   4.814   1.175   3.555 -0.1516 -1.5402 -0.5611
 6433SOL    MW425500   4.737   1.191   3.516 -0.0233 -0.2790 -0.3444
 6434SOL     OW25501   0.293   1.824   2.668  0.0929 -0.6048 -0.5456
 6434SOL    HW225502   0.222   1.889   2.674  1.2026  0.7716 -1.7114
 6434SOL    HW325503   0.287   1.774   2.750 -0.5939  1.1852  0.5491
 6434SOL    MW425504   0.282   1.826   2.680  0.1487 -0.1870 -0.5550
 6435SOL     OW25505   6.181   4.209   6.248  0.0062  0.0266  0.3610
 6435SOL    HW225506   6.274   4.227   6.262 -0.5232  1.1470  2.9746
 6435SOL    HW325507   6.145   4.290   6.212 -0.4185  0.5503  1.9137
 6435SOL    MW425508   6.189   4.222   6.245 -0.1197  0.2436  0.9107
 6436SOL     OW25509   4.753   2.040   2.524 -0.5628  0.0651 -0.0835
 6436SOL    HW225510   4.671   2.003   2.556  0.8421 -1.2191  2.3228
 6436SOL    HW325511   4.793   1.970   2.473 -0.4941  0.3310 -0.3987
 6436SOL    MW425512   4.748   2.026   2.521 -0.3684 -0.0693  0.1924
 6437SOL     OW25513   0.904   2.301   3.858 -0.3011  0.2746  0.3032
 6437SOL    HW225514   0.853   2.227   3.825  0.8487  0.2521 -1.5811
 6437SOL    HW325515   0.839   2.367   3.880 -1.3517 -1.2378  2.0156
 6437SOL    MW425516   0.889   2.300   3.856 -0.2880  0.0721  0.2806
 6438SOL     OW25517   0.473   0.975   3.570 -0.1866  0.3844  0.2626
 6438SOL    HW225518   0.424   0.937   3.643 -0.7277  0.6545  0.0488
 6438SOL    HW325519   0.491   1.065   3.597  1.0489  0.0138  0.7463
 6438SOL    MW425520   0.469   0.982   3.583 -0.0950  0.3712  0.2982
 6439SOL     OW25521   0.667   0.811   4.421 -0.2472 -0.2745  0.1106
 6439SOL    HW225522   0.610   0.747   4.464  0.5965  0.5991  2.7186
 6439SOL    HW325523   0.608   0.864   4.369 -2.1092  1.1216  3.3415
 6439SOL    MW425524   0.651   0.809   4.420 -0.3815  0.0250  0.8810
 6440SOL     OW25525   0.464   6.212   3.609 -0.4640  1.0001 -0.4140
 6440SOL    HW225526   0.453   6.149   3.680  0.0314  0.4589 -0.8155
 6440SOL    HW325527   0.403   6.182   3.541  2.6709 -1.6156 -2.3740
 6440SOL    MW425528   0.454   6.200   3.610  0.0150  0.5836 -0.7256
 6441SOL     OW25529   4.169   0.416   3.858  0.4353  0.0970 -0.4849
 6441SOL    HW225530   4.152   0.344   3.797 -0.3875  0.3605 -0.5722
 6441SOL    HW325531   4.093   0.418   3.916  1.8634 -1.1683  1.6018
 6441SOL    MW425532   4.157   0.407   3.858  0.5152 -0.0352 -0.2211
 6442SOL     OW25533   6.134   2.151   5.336 -0.0213 -0.2756  0.7178
 6442SOL    HW225534   6.111   2.172   5.427 -1.1503  2.1860 -0.0454
 6442SOL    HW325535   6.117   2.058   5.327 -0.7054 -0.3986  2.8001
 6442SOL    MW425536   6.129   2.142   5.347 -0.2605  0.0330  0.8919
 6443SOL     OW25537   5.710   3.247   3.048  0.4305  0.5662 -0.9462
 6443SOL    HW225538   5.628   3.237   2.998  0.7257 -0.7528 -1.1903
 6443SOL    HW325539   5.698   3.191   3.125  0.0014  2.5370  0.4973
 6443SOL    MW425540   5.697   3.238   3.052  0.4129  0.6522 -0.7879
 6444SOL     OW25541   6.070   0.796   5.270  0.5016 -0.4776 -0.0538
 6444SOL    HW225542   6.059   0.747   5.351  0.7774 -0.0435  0.2528
 6444SOL    HW325543   6.156   0.769   5.237  1.3019  0.8417  0.8616
 6444SOL    MW425544   6.080   0.786   5.276  0.6436 -0.2462  0.1074
 6445SOL     OW25545   1.581   5.921   3.359 -0.1572 -0.1835 -0.1005
 6445SOL    HW225546   1.542   5.885   3.438 -0.9461  0.5576 -0.1415
 6445SOL    HW325547   1.627   6.000   3.389 -1.2502  0.6254 -0.5090
 6445SOL    MW425548   1.582   5.927   3.373 -0.4055  0.0210 -0.1598
 6446SOL     OW25549   0.769   2.802   6.077 -0.5093 -0.2727 -0.1618
 6446SOL    HW225550   0.710   2.742   6.123 -0.5639  0.0793  0.2358
 6446SOL    HW325551   0.775   2.878   6.135 -1.6207  0.7556 -1.3326
 6446SOL    MW425552   0.762   2.804   6.091 -0.6631 -0.0906 -0.2638
 6447SOL     OW25553   4.082   4.204   0.519 -0.3052  0.3976 -0.5520
 6447SOL    HW225554   4.010   4.249   0.476  0.6595  0.3166 -2.3669
 6447SOL    HW325555   4.158   4.261   0.505  0.1493  0.0945  0.5873
 6447SOL    MW425556   4.083   4.217   0.511 -0.1180  0.3469 -0.6412
 6448SOL     OW25557   4.778   4.702   3.583 -0.8080  0.3955 -0.1397
 6448SOL    HW225558   4.695   4.750   3.581 -1.0127  0.0246 -0.5590
 6448SOL    HW325559   4.755   4.616   3.619 -0.7566  0.0057 -1.0251
 6448SOL    MW425560   4.764   4.697   3.588 -0.8282  0.2951 -0.3118
 6449SOL     OW25561   4.156   5.950   0.314 -0.0904  0.0426  0.1733
 6449SOL    HW225562   4.198   5.887   0.256  1.2956  0.8043  0.2994
 6449SOL    HW325563   4.188   5.928   0.401  0.7074  1.1121  0.1780
 6449SOL    MW425564   4.165   5.939   0.318  0.1977  0.2842  0.1906
 6450SOL     OW25565   0.854   4.089   4.335 -0.9290 -0.0289 -0.1125
 6450SOL    HW225566   0.868   4.130   4.421  0.7532  0.4375 -0.5755
 6450SOL    HW325567   0.910   4.011   4.336 -0.3203  0.3808 -1.0518
 6450SOL    MW425568   0.863   4.084   4.347 -0.6268  0.0867 -0.2975
 6451SOL     OW25569   5.099   3.785   2.699 -0.3189 -0.4402 -0.3760
 6451SOL    HW225570   5.081   3.765   2.607 -1.4919 -1.6688  0.0885
 6451SOL    HW325571   5.093   3.700   2.743  0.9467  0.0214  0.7333
 6451SOL    MW425572   5.096   3.771   2.693 -0.3067 -0.5414 -0.1683
 6452SOL     OW25573   2.339   5.273   1.268 -0.1451 -0.3160  0.2469
 6452SOL    HW225574   2.350   5.227   1.351  0.3256  0.4458  0.6146
 6452SOL    HW325575   2.244   5.283   1.259 -0.1657  1.4629  1.7639
 6452SOL    MW425576   2.328   5.268   1.278 -0.0857  0.0192  0.4956
 6453SOL     OW25577   1.393   0.821   4.246  0.3492  0.7721  0.2495
 6453SOL    HW225578   1.303   0.850   4.229  0.0526  0.1770  0.8019
 6453SOL    HW325579   1.444   0.902   4.248 -0.5396  1.3357  2.1974
 6453SOL    MW425580   1.388   0.836   4.244  0.1928  0.7679  0.5794
 6454SOL     OW25581   2.263   5.862   2.067  0.2146  0.1625  0.1492
 6454SOL    HW225582   2.345   5.861   2.017  0.3367 -1.9192  0.3252
 6454SOL    HW325583   2.288   5.828   2.153 -0.4173  1.7062  0.9923
 6454SOL    MW425584   2.277   5.858   2.072  0.1474  0.0915  0.2836
 6455SOL     OW25585   1.371   3.131   4.497 -0.4305 -0.0841  0.0654
 6455SOL    HW225586   1.347   3.214   4.538 -1.8183  0.8938 -2.4962
 6455SOL    HW325587   1.385   3.071   4.570  0.0627  2.2189  1.9943
 6455SOL    MW425588   1.370   3.134   4.512 -0.5485  0.3488 -0.0181
 6456SOL     OW25589   0.187   0.069   1.720 -0.4594  0.3471  0.3055
 6456SOL    HW225590   0.278   0.084   1.746 -0.5708  0.1822  0.7953
 6456SOL    HW325591   0.159   0.153   1.684  0.1943  0.1151 -0.7953
 6456SOL    MW425592   0.196   0.082   1.719 -0.3879  0.2948  0.2249
 6457SOL     OW25593   1.103   4.684   0.825  0.0333 -0.2793  0.2655
 6457SOL    HW225594   1.109   4.633   0.906 -2.9736 -1.1935  0.0208
 6457SOL    HW325595   1.065   4.767   0.853  2.7331  1.0799  0.2884
 6457SOL    MW425596   1.099   4.688   0.839 -0.0072 -0.2206  0.2362
 6458SOL     OW25597   2.267   0.951   4.152 -0.0535 -0.5009 -0.0626
 6458SOL    HW225598   2.226   0.866   4.134 -0.6272  0.0987 -1.8097
 6458SOL    HW325599   2.270   0.994   4.067  0.7374  1.0186  0.7048
 6458SOL    MW425600   2.262   0.945   4.139 -0.0248 -0.2213 -0.1918
 6459SOL     OW25601   5.572   2.461   3.031  0.0676 -0.1363  0.2297
 6459SOL    HW225602   5.557   2.443   2.938 -1.5385  1.8063  0.0432
 6459SOL    HW325603   5.532   2.547   3.045 -0.1795 -0.6042  2.8230
 6459SOL    MW425604   5.564   2.470   3.020 -0.1769  0.0583  0.5472
 6460SOL     OW25605   2.695   2.349   2.455 -0.3188  0.0415 -0.1050
 6460SOL    HW225606   2.769   2.408   2.440 -0.7829  1.2025  1.9388
 6460SOL    HW325607   2.728   2.285   2.518 -0.7787  0.0190  0.1175
 6460SOL    MW425608   2.709   2.348   2.461 -0.4407  0.1917  0.1940
 6461SOL     OW25609   1.002   5.195   3.901 -0.4677 -0.3864  0.3985
 6461SOL    HW225610   1.011   5.168   3.993 -1.0372 -0.5739  0.3976
 6461SOL    HW325611   0.910   5.216   3.891 -0.6018 -1.2836 -0.3863
 6461SOL    MW425612   0.991   5.194   3.912 -0.5606 -0.5295  0.2948
 6462SOL     OW25613   0.414   6.074   3.870  0.2624  0.0756  0.4289
 6462SOL    HW225614   0.354   6.003   3.892 -0.9045  0.9133  0.0482
 6462SOL    HW325615   0.500   6.041   3.895 -0.2555 -1.4440  0.3049
 6462SOL    MW425616   0.417   6.060   3.876  0.0401 -0.0144  0.3623
 6463SOL     OW25617   3.955   0.237   3.436  0.1936 -0.2701 -0.2155
 6463SOL    HW225618   4.003   0.204   3.512 -0.0583  1.7677  0.8712
 6463SOL    HW325619   3.863   0.229   3.460  0.1274  0.9515 -0.0407
 6463SOL    MW425620   3.949   0.231   3.449  0.1516  0.1600 -0.0491
 6464SOL     OW25621   2.395   1.209   1.957 -0.3665  0.2689  0.3296
 6464SOL    HW225622   2.429   1.159   2.032 -0.0926  0.4479  0.3270
 6464SOL    HW325623   2.300   1.199   1.963 -0.4134  1.1297  1.2986
 6464SOL    MW425624   2.387   1.201   1.968 -0.3365  0.4061  0.4571
 6465SOL     OW25625   3.946   0.728   0.923 -0.1208 -0.2061 -0.6847
 6465SOL    HW225626   3.964   0.822   0.932 -0.4655 -0.1980 -0.0152
 6465SOL    HW325627   3.946   0.713   0.829  0.3950  0.3759 -0.7869
 6465SOL    MW425628   3.949   0.739   0.912 -0.0982 -0.1282 -0.6099
 6466SOL     OW25629   0.923   4.979   5.522 -0.2299  0.3753 -0.4242
 6466SOL    HW225630   0.950   4.894   5.558  0.5603  0.2779 -1.2261
 6466SOL    HW325631   0.902   4.961   5.431 -0.7183  0.9235 -0.4277
 6466SOL    MW425632   0.924   4.965   5.515 -0.1901  0.4348 -0.5304
 6467SOL     OW25633   4.766   3.190   5.627  0.7099  0.3074 -0.4748
 6467SOL    HW225634   4.785   3.145   5.709  1.0165  1.1795 -0.0526
 6467SOL    HW325635   4.852   3.214   5.592  0.5941 -0.3456 -1.2171
 6467SOL    MW425636   4.780   3.187   5.633  0.7351  0.3363 -0.5170
 6468SOL     OW25637   2.850   0.974   1.096 -0.6171 -0.1126  0.4398
 6468SOL    HW225638   2.847   1.059   1.053 -1.3164  0.7553  2.1514
 6468SOL    HW325639   2.777   0.925   1.057  0.0525 -0.1271 -0.8650
 6468SOL    MW425640   2.840   0.979   1.085 -0.6210  0.0000  0.4935
 6469SOL     OW25641   5.560   0.153   0.539 -0.6309 -0.1325  0.1086
 6469SOL    HW225642   5.640   0.119   0.578 -1.2010  0.5783  1.9969
 6469SOL    HW325643   5.520   0.077   0.496  1.0530 -0.4729 -0.9634
 6469SOL    MW425644   5.565   0.138   0.538 -0.4839 -0.0837  0.2163
 6470SOL     OW25645   4.235   3.164   5.710  0.1664 -0.1003  0.7186
 6470SOL    HW225646   4.286   3.169   5.791  0.7893 -0.1859  0.3421
 6470SOL    HW325647   4.180   3.243   5.711 -0.6218 -0.6443  1.7283
 6470SOL    MW425648   4.235   3.175   5.721  0.1446 -0.1833  0.8022
 6471SOL     OW25649   1.927   5.958   4.430  0.3440 -0.4607  0.3489
 6471SOL    HW225650   1.889   5.909   4.358  0.9435 -1.7143  0.8619
 6471SOL    HW325651   1.891   6.047   4.420 -1.5438 -1.2110 -0.0295
 6471SOL    MW425652   1.917   5.964   4.419  0.1740 -0.7251  0.3666
 6472SOL     OW25653   0.082   0.288   3.725 -0.3377  0.0875 -0.1606
 6472SOL    HW225654   0.130   0.272   3.806  3.1773 -2.6984 -2.4881
 6472SOL    HW325655   0.075   0.383   3.718  0.9764  0.4393  2.4351
 6472SOL    MW425656   0.087   0.298   3.734  0.2994 -0.2337 -0.1252
 6473SOL     OW25657   2.956   4.323   0.338 -0.5252 -1.0687 -0.2001
 6473SOL    HW225658   2.951   4.336   0.244 -1.5553 -0.8295 -0.1243
 6473SOL    HW325659   3.050   4.328   0.358 -0.4638  2.1004 -0.7657
 6473SOL    MW425660   2.968   4.325   0.329 -0.6530 -0.6190 -0.2648
 6474SOL     OW25661   0.088   5.789   4.331  0.5532  0.4299  0.1819
 6474SOL    HW225662   0.145   5.730   4.281 -0.2185  0.6344 -0.9917
 6474SOL    HW325663   0.032   5.829   4.264  0.5645  1.9395  1.0325
 6474SOL    MW425664   0.088   5.787   4.315  0.4529  0.6561  0.1393
 6475SOL     OW25665   2.334   6.248   4.873 -0.2100 -0.5499  0.0008
 6475SOL    HW225666   2.318   6.153   4.866 -1.2980 -0.3774 -0.1135
 6475SOL    HW325667   2.386   6.258   4.952 -2.9814 -0.9705  2.0290
 6475SOL    MW425668   2.339   6.237   4.882 -0.7192 -0.5826  0.2533
 6476SOL     OW25669   1.767   5.614   2.965  0.0172  0.2057 -0.0135
 6476SOL    HW225670   1.764   5.645   3.055 -1.4383  1.1007 -0.3383
 6476SOL    HW325671   1.680   5.577   2.949 -0.0374  0.8225 -1.2909
 6476SOL    MW425672   1.755   5.614   2.974 -0.1820  0.4052 -0.2249
 6477SOL     OW25673   1.613   0.898   0.390  0.6853 -0.3290  0.4758
 6477SOL    HW225674   1.544   0.941   0.439  0.6137  0.0536  0.0481
 6477SOL    HW325675   1.657   0.969   0.343  1.3983 -0.5630  0.7773
 6477SOL    MW425676   1.610   0.913   0.390  0.7700 -0.3094  0.4591
 6478SOL     OW25677   0.802   5.359   3.385  0.2953 -0.4288  0.0175
 6478SOL    HW225678   0.836   5.277   3.423 -0.3608 -0.6006  0.2471
 6478SOL    HW325679   0.831   5.427   3.446 -0.4561 -0.6636  0.6533
 6478SOL    MW425680   0.811   5.357   3.398  0.1096 -0.4824  0.1317
 6479SOL     OW25681   4.398   5.486   2.888 -0.4224 -0.1368  0.5553
 6479SOL    HW225682   4.493   5.474   2.887 -0.4978 -0.8936 -0.8007
 6479SOL    HW325683   4.364   5.410   2.936 -0.2958  0.9477  2.4596
 6479SOL    MW425684   4.406   5.474   2.894 -0.4156 -0.0936  0.6276
 6480SOL     OW25685   6.426   5.680   2.926  0.2726  0.0612  0.5897
 6480SOL    HW225686   6.504   5.647   2.972  1.0547 -0.0372 -0.7414
 6480SOL    HW325687   6.448   5.669   2.833 -1.6295 -0.6415  0.1887
 6480SOL    MW425688   6.439   5.674   2.920  0.1248 -0.0445  0.3612
 6481SOL     OW25689   6.011   0.190   2.464 -0.4000  0.0290  0.4328
 6481SOL    HW225690   5.916   0.183   2.456 -0.3482 -0.0899 -0.0692
 6481SOL    HW325691   6.025   0.275   2.508 -0.7086  0.3890 -0.1554
 6481SOL    MW425692   6.001   0.200   2.469 -0.4339  0.0608  0.2890
 6482SOL     OW25693   0.920   6.194   0.679 -0.5989  0.1633 -0.3404
 6482SOL    HW225694   1.008   6.222   0.706 -1.2456  3.1382 -0.9640
 6482SOL    HW325695   0.921   6.200   0.584 -1.3359 -0.3032 -0.3833
 6482SOL    MW425696   0.932   6.199   0.670 -0.7815  0.4942 -0.4284
 6483SOL     OW25697   5.567   3.993   5.211  0.4723  1.0241 -0.2614
 6483SOL    HW225698   5.575   4.000   5.306  0.7080 -1.4633 -0.0319
 6483SOL    HW325699   5.499   4.056   5.187  0.1975  1.4772  1.5869
 6483SOL    MW425700   5.559   4.002   5.220  0.4672  0.7557  0.0128
 6484SOL     OW25701   3.740   3.230   1.032  0.0001  0.0156  0.7583
 6484SOL    HW225702   3.660   3.182   1.008  0.2335 -0.5221  1.0392
 6484SOL    HW325703   3.755   3.290   0.959 -0.0573 -0.6374  0.2011
 6484SOL    MW425704   3.731   3.232   1.019  0.0233 -0.1415  0.7218
 6485SOL     OW25705   2.171   3.222   5.404  0.0786  0.6551  0.0997
 6485SOL    HW225706   2.097   3.193   5.351 -0.7873  2.3734  0.3167
 6485SOL    HW325707   2.147   3.199   5.494  0.5911 -0.3186  0.0011
 6485SOL    MW425708   2.158   3.215   5.409  0.0320  0.7533  0.1153
 6486SOL     OW25709   3.645   3.666   3.365  0.7007  0.1697 -0.4670
 6486SOL    HW225710   3.664   3.581   3.325  1.4662  0.8184 -1.5526
 6486SOL    HW325711   3.606   3.718   3.294  1.4054  1.1245 -0.1818
 6486SOL    MW425712   3.642   3.662   3.350  0.8947  0.3813 -0.5726
 6487SOL     OW25713   1.603   2.840   1.667 -0.2767  0.3396 -0.2423
 6487SOL    HW225714   1.674   2.897   1.695 -0.3898 -0.4766  1.9308
 6487SOL    HW325715   1.639   2.751   1.676 -1.3693 -0.0616  0.2943
 6487SOL    MW425716   1.617   2.836   1.672 -0.4357  0.1790  0.1152
 6488SOL     OW25717   2.318   0.139   6.142  0.5541  0.4857  0.6964
 6488SOL    HW225718   2.394   0.187   6.174  0.8503 -1.4272  3.1772
 6488SOL    HW325719   2.355   0.059   6.103 -0.0870  0.5465 -0.0611
 6488SOL    MW425720   2.333   0.135   6.141  0.5086  0.2414  0.9238
 6489SOL     OW25721   4.874   2.924   0.597 -0.0561  0.1628 -0.2041
 6489SOL    HW225722   4.965   2.954   0.603 -0.1224  0.2319  0.5275
 6489SOL    HW325723   4.868   2.885   0.510  0.7444 -0.0717 -0.1663
 6489SOL    MW425724   4.886   2.923   0.586  0.0408  0.1410 -0.1026
 6490SOL     OW25725   1.683   2.129   0.362 -0.0982 -0.3753  0.5905
 6490SOL    HW225726   1.672   2.082   0.279 -2.6159 -0.9206  1.1309
 6490SOL    HW325727   1.757   2.087   0.405  0.0800 -1.3084 -0.5939
 6490SOL    MW425728   1.691   2.117   0.357 -0.4068 -0.5703  0.5055
 6491SOL     OW25729   3.600   1.664   0.503 -0.6507 -0.5307 -0.0060
 6491SOL    HW225730   3.654   1.585   0.510 -0.4981 -0.5500 -1.1740
 6491SOL    HW325731   3.566   1.661   0.414  0.0379  1.1535 -0.3515
 6491SOL    MW425732   3.603   1.653   0.492 -0.5397 -0.3110 -0.2057
 6492SOL     OW25733   1.377   0.439   1.419 -0.0404 -0.0480  1.0063
 6492SOL    HW225734   1.338   0.496   1.485  0.4164  0.2801  0.9953
 6492SOL    HW325735   1.409   0.498   1.351  0.4228 -0.3118  0.9885
 6492SOL    MW425736   1.377   0.454   1.419  0.0810 -0.0395  1.0025
 6493SOL     OW25737   5.001  -0.021   1.199 -0.2843  0.1349  0.0695
 6493SOL    HW225738   5.039  -0.104   1.170 -1.5704 -1.1316  1.7986
 6493SOL    HW325739   5.048   0.000   1.280  0.6921  1.6494 -0.8404
 6493SOL    MW425740   5.012  -0.029   1.206 -0.3251  0.1676  0.1776
 6494SOL     OW25741   1.177   5.715   3.895  0.2678  0.3732  0.5296
 6494SOL    HW225742   1.161   5.764   3.814  1.5146  1.0310  0.6622
 6494SOL    HW325743   1.180   5.624   3.868 -2.8326  0.2058  0.3749
 6494SOL    MW425744   1.175   5.710   3.881  0.0232  0.4379  0.5267
 6495SOL     OW25745   5.721   2.950   6.239 -0.0008  0.0049 -0.3646
 6495SOL    HW225746   5.724   2.969   6.145  0.0555  1.0653 -0.1627
 6495SOL    HW325747   5.727   3.036   6.281  0.1363 -0.4694  0.6148
 6495SOL    MW425748   5.722   2.964   6.232  0.0247  0.0822 -0.2087
 6496SOL     OW25749   5.832   1.137   6.029 -0.0308  0.1824 -0.0152
 6496SOL    HW225750   5.803   1.167   5.943 -3.2755 -0.1725  0.8372
 6496SOL    HW325751   5.876   1.213   6.067 -0.0550  0.8809 -1.3080
 6496SOL    MW425752   5.834   1.151   6.023 -0.4621  0.2277 -0.0733
 6497SOL     OW25753   5.082   0.810   6.128  0.6225 -0.3307  0.1771
 6497SOL    HW225754   5.025   0.863   6.072 -0.6010 -1.7664  0.0067
 6497SOL    HW325755   5.127   0.751   6.067  0.3486 -0.9379  0.5492
 6497SOL    MW425756   5.081   0.809   6.112  0.4249 -0.6002  0.2037
 6498SOL     OW25757   4.137   5.550   1.352 -0.5874 -0.1779  0.4129
 6498SOL    HW225758   4.056   5.557   1.303 -0.1440  0.3075 -0.2570
 6498SOL    HW325759   4.190   5.624   1.324  0.2719 -0.7373  0.5034
 6498SOL    MW425760   4.133   5.560   1.342 -0.4156 -0.1877  0.3365
 6499SOL     OW25761   0.867   4.007   1.692  0.0583  0.0875  0.1574
 6499SOL    HW225762   0.810   3.931   1.680  0.1669  0.4045 -3.5804
 6499SOL    HW325763   0.953   3.971   1.711 -0.0256 -0.7386 -0.9398
 6499SOL    MW425764   0.871   3.992   1.693  0.0616  0.0203 -0.4805
 6500SOL     OW25765   5.258   0.770   2.352  0.0068 -0.3906  0.7515
 6500SOL    HW225766   5.175   0.750   2.309 -0.7838  2.5332  0.6775
 6500SOL    HW325767   5.233   0.816   2.432  1.5490 -0.5781  1.3761
 6500SOL    MW425768   5.244   0.773   2.357  0.1059 -0.0295  0.8241
 6501SOL     OW25769   4.756   2.615   3.432  0.0219  0.6088 -1.4124
 6501SOL    HW225770   4.772   2.593   3.340  1.8133 -0.3031 -0.9096
 6501SOL    HW325771   4.744   2.711   3.431  1.0789  0.7553 -2.4530
 6501SOL    MW425772   4.756   2.625   3.420  0.3977  0.5078 -1.4834
 6502SOL     OW25773   2.687   3.310   3.017 -0.2844 -0.4752  0.6819
 6502SOL    HW225774   2.688   3.235   3.077  0.3422  0.2640  1.6230
 6502SOL    HW325775   2.778   3.339   3.014 -0.2385 -0.7159 -0.9331
 6502SOL    MW425776   2.699   3.304   3.025 -0.1957 -0.4094  0.5930
 6503SOL     OW25777   4.317   2.265   1.291  0.9263  0.2574  0.2248
 6503SOL    HW225778   4.295   2.208   1.217  1.4836 -1.0799  1.0560
 6503SOL    HW325779   4.407   2.242   1.314  0.7705  0.6638  1.3134
 6503SOL    MW425780   4.326   2.255   1.284  0.9793  0.1346  0.4781
 6504SOL     OW25781   4.000   5.751   6.043 -0.4839  0.3115  0.2912
 6504SOL    HW225782   4.048   5.821   6.086 -0.5967  1.1101 -0.8386
 6504SOL    HW325783   3.932   5.796   5.993 -1.7126 -0.7240  0.9641
 6504SOL    MW425784   3.997   5.766   6.042 -0.6609  0.2803  0.2310
 6505SOL     OW25785   3.891   5.573   1.204 -0.5526 -0.2911 -0.4714
 6505SOL    HW225786   3.850   5.500   1.156 -0.7936 -0.4189 -0.0762
 6505SOL    HW325787   3.833   5.588   1.279  2.2642 -3.4749  2.7305
 6505SOL    MW425788   3.878   5.565   1.207 -0.2127 -0.7280  0.0032
 6506SOL     OW25789   3.653   2.270   4.641  0.4149 -0.3883 -0.0607
 6506SOL    HW225790   3.687   2.299   4.557  0.7706  0.3862  0.3362
 6506SOL    HW325791   3.719   2.210   4.675  1.8002  1.6306  1.0152
 6506SOL    MW425792   3.666   2.266   4.635  0.6446 -0.0197  0.1336
 6507SOL     OW25793   2.156   1.932   2.705  0.3487  0.2873  0.4141
 6507SOL    HW225794   2.183   1.909   2.793 -2.3834 -2.1932  0.7827
 6507SOL    HW325795   2.081   1.990   2.717 -1.2852 -1.5943 -0.0785
 6507SOL    MW425796   2.150   1.937   2.718 -0.2273 -0.2882  0.3977
 6508SOL     OW25797   1.668   2.065   5.442 -0.2801 -0.4398  0.0155
 6508SOL    HW225798   1.690   2.107   5.525  0.1889  0.5490 -0.5958
 6508SOL    HW325799   1.742   2.084   5.385 -1.6234  0.9502 -1.3616
 6508SOL    MW425800   1.681   2.073   5.445 -0.3954 -0.1259 -0.2468
 6509SOL     OW25801   1.026   0.864   3.262 -0.7186  0.2075  0.1325
 6509SOL    HW225802   0.941   0.874   3.305 -0.1128 -0.3147  1.5073
 6509SOL    HW325803   1.087   0.911   3.318  0.3338 -1.7134  0.6522
 6509SOL    MW425804   1.022   0.872   3.275 -0.4998 -0.1148  0.3825
 6510SOL     OW25805   4.620   4.272   0.374 -0.7694  0.1120 -0.0709
 6510SOL    HW225806   4.595   4.356   0.411  0.6677  1.0821 -1.1636
 6510SOL    HW325807   4.553   4.211   0.404 -2.0891  1.7266  0.4079
 6510SOL    MW425808   4.608   4.275   0.383 -0.7539  0.4530 -0.1519
 6511SOL     OW25809   5.651   3.295   1.187  0.5137  0.4712  0.1357
 6511SOL    HW225810   5.662   3.361   1.119 -1.0992 -0.3304 -0.9669
 6511SOL    HW325811   5.605   3.341   1.257  4.5750  2.0702  2.0302
 6511SOL    MW425812   5.646   3.310   1.187  0.8367  0.5764  0.2402
 6512SOL     OW25813   6.172   2.916   6.104 -0.1257 -0.1549 -0.1157
 6512SOL    HW225814   6.247   2.864   6.135 -0.9484 -2.1510 -1.2830
 6512SOL    HW325815   6.113   2.921   6.179  0.6331  0.4467  0.4614
 6512SOL    MW425816   6.174   2.910   6.118 -0.1342 -0.3389 -0.1936
 6513SOL     OW25817   2.564   3.137   3.885  0.1632  0.0807  0.0817
 6513SOL    HW225818   2.574   3.207   3.949 -1.6982 -0.3733  0.9353
 6513SOL    HW325819   2.480   3.096   3.906  0.1527 -0.9975 -1.7786
 6513SOL    MW425820   2.555   3.141   3.896 -0.0838 -0.1215 -0.0512
 6514SOL     OW25821   1.487   1.691   1.521 -0.3620 -0.0249  0.2466
 6514SOL    HW225822   1.447   1.727   1.601  0.3200 -0.1198  0.6397
 6514SOL    HW325823   1.518   1.767   1.473  0.8677 -0.0564  0.9637
 6514SOL    MW425824   1.486   1.706   1.525 -0.1098 -0.0416  0.3931
 6515SOL     OW25825   4.382   5.131   0.295 -0.0893 -0.0756  0.6731
 6515SOL    HW225826   4.406   5.206   0.349  0.5803 -0.2238  0.5811
 6515SOL    HW325827   4.408   5.156   0.207 -0.5339 -0.1250  0.5245
 6515SOL    MW425828   4.388   5.144   0.291 -0.0596 -0.1017  0.6414
 6516SOL     OW25829   4.638   0.171   2.988  0.7258 -0.0761  0.4078
 6516SOL    HW225830   4.680   0.101   3.038  0.8965  0.7228  1.4353
 6516SOL    HW325831   4.642   0.247   3.047 -1.3395  0.2662  0.1684
 6516SOL    MW425832   4.644   0.172   3.003  0.4758  0.0744  0.5118
 6517SOL     OW25833   1.299   3.256   5.157 -0.0038  0.2353 -0.2205
 6517SOL    HW225834   1.260   3.235   5.072  0.3339  2.7426 -1.0683
 6517SOL    HW325835   1.241   3.216   5.221 -1.0387 -0.5263 -1.5977
 6517SOL    MW425836   1.286   3.248   5.154 -0.0958  0.4656 -0.5141
 6518SOL     OW25837   4.656   0.255   5.918  0.3051 -0.1617  0.6799
 6518SOL    HW225838   4.670   0.191   5.987  1.0565 -1.7757 -0.8888
 6518SOL    HW325839   4.711   0.225   5.846  1.3199  2.7127  0.1215
 6518SOL    MW425840   4.665   0.243   5.917  0.5381  0.0046  0.3992
 6519SOL     OW25841   0.409   0.082   1.405  0.3946 -0.5376 -0.5416
 6519SOL    HW225842   0.444   0.105   1.491  0.6623 -0.9927 -0.5268
 6519SOL    HW325843   0.459   0.136   1.344 -0.9163  1.0169 -0.3011
 6519SOL    MW425844   0.420   0.092   1.408  0.2569 -0.3926 -0.5079
 6520SOL     OW25845   4.441   5.126   2.812  0.4953  0.0494 -0.5601
 6520SOL    HW225846   4.439   5.037   2.847  0.7037  0.5039  0.6556
 6520SOL    HW325847   4.532   5.139   2.785  0.5990  0.0774 -0.2084
 6520SOL    MW425848   4.453   5.116   2.813  0.5365  0.1131 -0.3533
 6521SOL     OW25849   0.390   5.161   3.643 -0.4843  0.0656  0.2765
 6521SOL    HW225850   0.438   5.235   3.606  0.6998  0.0503  1.6867
 6521SOL    HW325851   0.298   5.181   3.626 -0.1318  1.3930 -0.1794
 6521SOL    MW425852   0.384   5.173   3.636 -0.2816  0.2387  0.4024
 6522SOL     OW25853   3.353   3.431   3.006  0.1803  0.2871  0.2201
 6522SOL    HW225854   3.301   3.508   3.030 -0.3558  0.0066 -0.0180
 6522SOL    HW325855   3.289   3.360   3.001  0.2710  0.3047 -1.9527
 6522SOL    MW425856   3.338   3.432   3.009  0.1215  0.2524 -0.0980
 6523SOL     OW25857   2.900   3.661   3.019  0.1334  0.1338 -0.2406
 6523SOL    HW225858   2.975   3.605   3.036 -0.3577 -0.5183 -0.1738
 6523SOL    HW325859   2.918   3.741   3.069  1.0485  0.2223 -0.6983
 6523SOL    MW425860   2.912   3.664   3.028  0.1893  0.0595 -0.2921
 6524SOL     OW25861   2.545   2.381   0.937 -0.4557 -0.3508 -0.4962
 6524SOL    HW225862   2.589   2.455   0.977 -0.2506  1.0071 -3.0526
 6524SOL    HW325863   2.474   2.419   0.886 -1.1910 -2.0368 -0.8262
 6524SOL    MW425864   2.541   2.396   0.936 -0.5257 -0.3941 -0.8770
 6525SOL     OW25865   5.755   5.410   1.132  0.3259 -0.1293  0.1182
 6525SOL    HW225866   5.745   5.325   1.090  0.6652 -0.0952 -0.0354
 6525SOL    HW325867   5.694   5.408   1.205  2.1206 -1.4605  1.6589
 6525SOL    MW425868   5.746   5.399   1.136  0.6075 -0.3005  0.3012
 6526SOL     OW25869   2.740   1.512   5.632 -0.1196  0.5772 -0.0835
 6526SOL    HW225870   2.679   1.558   5.689  0.9645  0.0563  1.5943
 6526SOL    HW325871   2.686   1.476   5.562 -1.6330  0.6575  0.9891
 6526SOL    MW425872   2.725   1.513   5.631 -0.1762  0.5191  0.2794
 6527SOL     OW25873   1.615   5.259   5.029  0.2953  0.1708 -0.1658
 6527SOL    HW225874   1.692   5.209   5.052  0.1279 -0.4310 -0.8666
 6527SOL    HW325875   1.646   5.349   5.020  0.7529  0.0644  0.3084
 6527SOL    MW425876   1.629   5.265   5.031  0.3336  0.0774 -0.1957
 6528SOL     OW25877   0.426   5.334   2.019  0.2346  0.5259 -0.2474
 6528SOL    HW225878   0.498   5.396   2.012 -0.3797  1.3948  0.8018
 6528SOL    HW325879   0.372   5.351   1.941  0.8345  0.2570 -0.7380
 6528SOL    MW425880   0.428   5.344   2.007  0.2327  0.6051 -0.1737
 6529SOL     OW25881   4.349  -0.020   3.992 -0.6581  0.6714  0.3348
 6529SOL    HW225882   4.318  -0.026   3.901 -1.5877 -0.6104  0.7031
 6529SOL    HW325883   4.444  -0.028   3.985 -0.6078  1.7518 -0.5965
 6529SOL    MW425884   4.358  -0.022   3.979 -0.7741  0.6448  0.2605
 6530SOL     OW25885   5.550   4.935   1.486 -0.7092  0.7024  0.2341
 6530SOL    HW225886   5.509   4.923   1.400 -1.0051  0.0948  0.4563
 6530SOL    HW325887   5.636   4.972   1.466 -0.2590 -0.6340 -0.4242
 6530SOL    MW425888   5.556   4.938   1.472 -0.6889  0.4459  0.1765
 6531SOL     OW25889   3.666   5.022   3.111  0.4589  0.0490  0.1357
 6531SOL    HW225890   3.713   5.099   3.142  0.0619 -0.0426  1.0081
 6531SOL    HW325891   3.718   4.990   3.037 -1.0798  3.0305 -2.4717
 6531SOL    MW425892   3.679   5.028   3.106  0.2035  0.4303 -0.0932
 6532SOL     OW25893   4.001   5.645   0.465 -0.6624  0.0430  0.3794
 6532SOL    HW225894   4.020   5.730   0.505  0.3435 -0.0703  0.1708
 6532SOL    HW325895   3.975   5.589   0.538 -0.2772  0.2431  0.6753
 6532SOL    MW425896   4.000   5.649   0.480 -0.4789  0.0544  0.3910
 6533SOL     OW25897   5.192   0.539   4.822  0.3852 -0.0563  0.1122
 6533SOL    HW225898   5.165   0.631   4.824 -0.5525 -0.3079 -0.4599
 6533SOL    HW325899   5.116   0.492   4.787  1.8422 -0.6559 -2.5448
 6533SOL    MW425900   5.179   0.545   4.818  0.4537 -0.1686 -0.3138
 6534SOL     OW25901   2.973   5.421   5.779 -0.4574  0.2203  0.1105
 6534SOL    HW225902   2.878   5.408   5.778 -0.5339  0.6308 -1.5198
 6534SOL    HW325903   3.003   5.373   5.856 -1.7018 -2.0677 -0.7237
 6534SOL    MW425904   2.964   5.413   5.789 -0.6317 -0.0274 -0.2147
 6535SOL     OW25905   3.131   4.680   3.771 -0.0753  0.4856 -0.1694
 6535SOL    HW225906   3.144   4.754   3.712  0.4185 -0.2543 -0.9942
 6535SOL    HW325907   3.064   4.627   3.729  1.5618 -0.9959 -1.0161
 6535SOL    MW425908   3.124   4.683   3.758  0.2059  0.1925 -0.3899
 6536SOL     OW25909   1.980   4.006   1.831  0.0177  0.2674 -0.4643
 6536SOL    HW225910   2.062   4.051   1.852 -1.2008  1.8238  1.2179
 6536SOL    HW325911   1.925   4.018   1.908 -1.1105 -2.5113 -0.7145
 6536SOL    MW425912   1.984   4.014   1.844 -0.2919  0.1061 -0.2754
 6537SOL     OW25913   2.310   4.272   0.672 -0.3584 -0.2161 -0.2567
 6537SOL    HW225914   2.280   4.214   0.602  0.7301 -0.6402 -0.3910
 6537SOL    HW325915   2.310   4.359   0.633 -1.7028 -0.1503 -0.1511
 6537SOL    MW425916   2.306   4.276   0.657 -0.3921 -0.2634 -0.2605
 6538SOL     OW25917   3.693   5.684   3.780 -0.1064 -0.0720 -0.4646
 6538SOL    HW225918   3.729   5.610   3.830  0.8689  0.9169  0.3380
 6538SOL    HW325919   3.716   5.761   3.831  0.6696  0.9663 -2.2874
 6538SOL    MW425920   3.701   5.684   3.793  0.1247  0.1954 -0.5992
 6539SOL     OW25921   4.318   0.617   5.489  0.2932  0.3956  0.0902
 6539SOL    HW225922   4.263   0.617   5.410  0.9919  0.6410 -0.4120
 6539SOL    HW325923   4.404   0.588   5.458  1.0803  2.2605  0.3703
 6539SOL    MW425924   4.322   0.614   5.474  0.4892  0.6740  0.0609
 6540SOL     OW25925   3.995   4.989   5.391  0.1857 -0.2751  0.0201
 6540SOL    HW225926   3.970   4.927   5.459  0.2494  0.5235  0.7887
 6540SOL    HW325927   4.079   5.025   5.421  0.0516  0.3260 -0.3153
 6540SOL    MW425928   4.003   4.985   5.404  0.1764 -0.0905  0.0773
 6541SOL     OW25929   2.716   0.160   2.923 -0.1137 -0.0074 -0.3271
 6541SOL    HW225930   2.678   0.104   2.990  0.2548 -0.2562 -0.3193
 6541SOL    HW325931   2.811   0.146   2.931  0.0404  1.1613  0.1470
 6541SOL    MW425932   2.724   0.151   2.933 -0.0447  0.1140 -0.2635
 6542SOL     OW25933   2.938   2.306   5.498  0.6737 -0.1308 -0.0998
 6542SOL    HW225934   3.018   2.314   5.444  0.1973 -0.1180 -0.8244
 6542SOL    HW325935   2.961   2.242   5.565  1.8276  1.0716  0.6939
 6542SOL    MW425936   2.952   2.299   5.499  0.7631  0.0295 -0.0907
 6543SOL     OW25937   4.880   2.541   4.978 -0.1230  0.7701 -0.2841
 6543SOL    HW225938   4.863   2.559   4.886  1.5793  0.1562 -0.7408
 6543SOL    HW325939   4.883   2.628   5.019  0.8198  1.1536 -1.1300
 6543SOL    MW425940   4.878   2.555   4.971  0.2260  0.7397 -0.4560
 6544SOL     OW25941   1.831   4.642   6.296  0.0746 -0.0845 -0.0976
 6544SOL    HW225942   1.919   4.605   6.303  0.2037 -0.0647 -1.3447
 6544SOL    HW325943   1.824   4.702   6.370  1.3522  0.3809 -0.3165
 6544SOL    MW425944   1.842   4.645   6.307  0.2602 -0.0205 -0.2910
 6545SOL     OW25945   4.504   2.536   1.654  0.0679  0.2778 -0.0634
 6545SOL    HW225946   4.491   2.441   1.647  0.8517  0.0262  1.4936
 6545SOL    HW325947   4.498   2.554   1.748  0.9347  1.6207 -0.2463
 6545SOL    MW425948   4.501   2.526   1.666  0.2857  0.4218  0.1179
 6546SOL     OW25949   1.588   0.631   3.104 -0.6882 -0.0697  0.7652
 6546SOL    HW225950   1.638   0.576   3.165 -0.9190  0.7058  1.6769
 6546SOL    HW325951   1.500   0.592   3.105 -0.7864  0.1569  1.2139
 6546SOL    MW425952   1.583   0.618   3.112 -0.7316  0.0625  0.9447
 6547SOL     OW25953   5.068   3.763   2.427 -0.5682  0.4698 -0.5496
 6547SOL    HW225954   5.068   3.729   2.338 -2.3416 -0.8102 -0.1252
 6547SOL    HW325955   4.981   3.800   2.439  0.2173  2.2081  0.1260
 6547SOL    MW425956   5.057   3.763   2.417 -0.6985  0.5303 -0.4044
 6548SOL     OW25957   5.915   0.505   3.135  0.1317  0.3735  0.1784
 6548SOL    HW225958   5.882   0.512   3.046  1.5471  3.8987 -0.2514
 6548SOL    HW325959   6.004   0.540   3.130  0.5527 -0.0947  2.8581
 6548SOL    MW425960   5.923   0.510   3.123  0.3740  0.7768  0.4752
 6549SOL     OW25961   2.975   4.441   3.975  0.1715  0.3157  0.1616
 6549SOL    HW225962   2.930   4.494   3.909 -0.2123  1.2179  1.1148
 6549SOL    HW325963   2.907   4.387   4.013  0.0837  0.8790  0.8341
 6549SOL    MW425964   2.960   4.441   3.972  0.1093  0.5090  0.3761
 6550SOL     OW25965   1.759   5.057   1.835 -1.5029  0.1737  0.1862
 6550SOL    HW225966   1.843   5.014   1.815 -1.6002  0.7290 -1.6052
 6550SOL    HW325967   1.784   5.142   1.870 -1.3154  0.0792  0.2842
 6550SOL    MW425968   1.774   5.062   1.837 -1.4910  0.2345 -0.0373
 6551SOL     OW25969   4.564   1.468   1.907 -0.3367  0.2479  0.2902
 6551SOL    HW225970   4.633   1.509   1.959 -0.5800  0.4219  0.4816
 6551SOL    HW325971   4.483   1.494   1.951 -0.4999 -0.3436  0.3452
 6551SOL    MW425972   4.562   1.477   1.920 -0.3903  0.1928  0.3227
 6552SOL     OW25973   5.473   1.170   2.803 -0.0084  0.1147 -0.0502
 6552SOL    HW225974   5.495   1.226   2.728 -0.0925 -1.6765 -1.4780
 6552SOL    HW325975   5.545   1.108   2.809 -1.1791 -1.3244 -0.2479
 6552SOL    MW425976   5.485   1.169   2.794 -0.1740 -0.3115 -0.2647
 6553SOL     OW25977   5.788   0.093   5.608  0.1820 -0.1980 -0.0622
 6553SOL    HW225978   5.722   0.152   5.571  0.9798  1.2498  0.7092
 6553SOL    HW325979   5.844   0.069   5.534  1.1766  1.8701 -0.0490
 6553SOL    MW425980   5.787   0.098   5.594  0.4185  0.2659  0.0413
 6554SOL     OW25981   3.391   5.747   2.747  0.7900  0.3401 -0.2444
 6554SOL    HW225982   3.330   5.747   2.673 -0.0981  0.9001  0.4594
 6554SOL    HW325983   3.417   5.656   2.757 -0.7913 -0.1089  0.0923
 6554SOL    MW425984   3.386   5.735   2.739  0.4642  0.3547 -0.1071
 6555SOL     OW25985   4.204   6.183   2.658 -0.3227 -0.0852  0.5677
 6555SOL    HW225986   4.272   6.250   2.666 -1.0596  0.5530  1.8667
 6555SOL    HW325987   4.133   6.225   2.609  0.3061 -0.8662 -1.1093
 6555SOL    MW425988   4.204   6.197   2.653 -0.3369 -0.1041  0.5178
 6556SOL     OW25989   2.163   4.713   2.762 -0.1271 -0.5835 -0.0139
 6556SOL    HW225990   2.184   4.622   2.782  1.4114 -0.3790 -0.5259
 6556SOL    HW325991   2.072   4.711   2.734 -0.2446 -1.8935  0.3860
 6556SOL    MW425992   2.154   4.701   2.761  0.0604 -0.7294 -0.0287
 6557SOL     OW25993   2.956   5.692   5.514 -0.1580  0.1430 -0.0040
 6557SOL    HW225994   2.994   5.630   5.452 -0.6910  0.3856 -0.5796
 6557SOL    HW325995   3.021   5.698   5.584  0.6608  0.1894 -0.7394
 6557SOL    MW425996   2.969   5.685   5.515 -0.1203  0.1812 -0.1770
 6558SOL     OW25997   1.921   4.086   1.309 -0.3002  0.1078  0.3324
 6558SOL    HW225998   1.953   4.175   1.320 -1.3679  0.6294 -0.5927
 6558SOL    HW325999   1.974   4.050   1.238  0.0223  0.0567  0.5977
 6558SOL    MW426000   1.932   4.093   1.301 -0.3985  0.1699  0.2453
 6559SOL     OW26001   4.719   0.845   1.332 -0.0111  0.6965  0.0372
 6559SOL    HW226002   4.753   0.930   1.303  1.2609  0.4575  0.7474
 6559SOL    HW326003   4.773   0.822   1.408 -0.8058 -0.4221  0.2942
 6559SOL    MW426004   4.731   0.853   1.338  0.0518  0.5174  0.1648
 6560SOL     OW26005   0.752   3.772   1.616  0.0981 -0.0914  0.3491
 6560SOL    HW226006   0.833   3.770   1.564 -0.1176  0.5533 -0.0293
 6560SOL    HW326007   0.769   3.713   1.689  0.2148 -1.4548 -0.7281
 6560SOL    MW426008   0.765   3.764   1.619  0.0851 -0.1862  0.1571
 6561SOL     OW26009   1.118   2.032   5.107  0.7670 -0.0083  0.1219
 6561SOL    HW226010   1.052   2.099   5.088  1.5101  0.0759 -2.6128
 6561SOL    HW326011   1.068   1.951   5.110  0.1491  0.3907  1.2740
 6561SOL    MW426012   1.102   2.030   5.105  0.7835  0.0555 -0.0869
 6562SOL     OW26013   4.509   4.088   3.270  0.1617  0.2282 -0.3820
 6562SOL    HW226014   4.597   4.067   3.239  0.5597 -0.0052  0.8806
 6562SOL    HW326015   4.489   4.020   3.335 -0.0543  1.5671  0.9914
 6562SOL    MW426016   4.518   4.076   3.274  0.1857  0.3741 -0.0342
 6563SOL     OW26017   5.201   1.049   4.261  0.0152 -0.1476 -0.0643
 6563SOL    HW226018   5.146   1.116   4.300 -0.8808 -0.9353  0.0749
 6563SOL    HW326019   5.218   0.988   4.332  2.1339  0.7091  0.2229
 6563SOL    MW426020   5.196   1.050   4.275  0.1765 -0.1385 -0.0080
 6564SOL     OW26021   0.031   3.354   6.228  0.0596 -0.2909 -0.1797
 6564SOL    HW226022   0.045   3.311   6.312  1.9839 -1.2615 -0.9453
 6564SOL    HW326023  -0.033   3.299   6.183  1.2934 -1.4659 -0.5198
 6564SOL    MW426024   0.024   3.341   6.234  0.4763 -0.5740 -0.3256
 6565SOL     OW26025   2.794   0.076   5.744 -0.1514 -0.5990 -0.5026
 6565SOL    HW226026   2.821  -0.013   5.722  1.0750 -0.5087  0.5287
 6565SOL    HW326027   2.867   0.112   5.793 -1.2911  0.4306  0.5253
 6565SOL    MW426028   2.807   0.069   5.748 -0.1400 -0.4512 -0.2309
 6566SOL     OW26029   2.492   2.492   6.072 -0.1256  0.1459  0.2259
 6566SOL    HW226030   2.486   2.456   6.161  1.1643  2.3453  1.2733
 6566SOL    HW326031   2.575   2.539   6.070 -1.2240  2.1659 -1.3588
 6566SOL    MW426032   2.502   2.493   6.083 -0.1004  0.7026  0.1550
 6567SOL     OW26033   2.703   1.444   5.290  0.0049  0.1238  0.1005
 6567SOL    HW226034   2.644   1.378   5.326  1.7399 -0.5393  1.9007
 6567SOL    HW326035   2.653   1.525   5.290 -1.4593 -0.7531 -0.1218
 6567SOL    MW426036   2.689   1.446   5.295  0.0406 -0.0794  0.3086
 6568SOL     OW26037   2.555   4.342   6.068 -0.3146  0.3585  0.0075
 6568SOL    HW226038   2.546   4.266   6.125  0.8036  0.7861  0.7902
 6568SOL    HW326039   2.483   4.334   6.006 -1.3769 -0.2866  1.2826
 6568SOL    MW426040   2.544   4.331   6.067 -0.3073  0.3298  0.2790
 6569SOL     OW26041   2.220   5.204   2.268  0.0035 -0.5340 -0.0657
 6569SOL    HW226042   2.299   5.196   2.323  0.3319 -1.0869 -0.6007
 6569SOL    HW326043   2.154   5.240   2.327  0.6115 -0.2070  0.4368
 6569SOL    MW426044   2.222   5.208   2.283  0.1270 -0.5638 -0.0700
 6570SOL     OW26045   6.306   1.466   4.361 -0.2171 -0.5069  0.3572
 6570SOL    HW226046   6.390   1.511   4.364 -0.8450  0.7104  0.5297
 6570SOL    HW326047   6.322   1.381   4.402  0.7158  0.0520  1.1744
 6570SOL    MW426048   6.319   1.461   4.367 -0.1769 -0.2725  0.4878
 6571SOL     OW26049   4.294   5.355   5.496 -0.4927 -0.3291 -0.2647
 6571SOL    HW226050   4.289   5.266   5.462 -1.3202 -0.3160 -0.2006
 6571SOL    HW326051   4.374   5.391   5.457  1.0518 -1.7803  1.4139
 6571SOL    MW426052   4.304   5.348   5.486 -0.3981 -0.5188 -0.0348
 6572SOL     OW26053   6.025   2.836   5.878 -0.5559 -0.0816  0.0342
 6572SOL    HW226054   6.089   2.848   5.948 -1.1728  1.5662  0.3574
 6572SOL    HW326055   5.950   2.796   5.921  0.1465 -1.8784 -0.3170
 6572SOL    MW426056   6.024   2.833   5.893 -0.5446 -0.1013  0.0305
 6573SOL     OW26057   4.658   4.826   0.184 -0.2427  0.0170  0.5418
 6573SOL    HW226058   4.635   4.813   0.276  0.1242 -2.3252  0.3654
 6573SOL    HW326059   4.754   4.834   0.185 -0.0080 -2.1820  0.2263
 6573SOL    MW426060   4.668   4.825   0.196 -0.1634 -0.5822  0.4769
 6574SOL     OW26061   3.707   5.672   1.031  0.2173 -0.1392 -0.3426
 6574SOL    HW226062   3.628   5.634   1.069 -0.9956  0.0830 -2.4879
 6574SOL    HW326063   3.778   5.643   1.088 -1.2232 -1.6266  0.7665
 6574SOL    MW426064   3.706   5.663   1.044 -0.1328 -0.3061 -0.4793
 6575SOL     OW26065   3.824   1.190   1.967  0.1645  0.3801 -0.0160
 6575SOL    HW226066   3.779   1.157   1.890  0.9246  1.1149 -0.7909
 6575SOL    HW326067   3.797   1.282   1.973 -0.4467  0.1526  1.0226
 6575SOL    MW426068   3.814   1.198   1.958  0.1842  0.4470  0.0188
 6576SOL     OW26069   5.635   1.216   1.385  0.3526 -0.1827  0.5112
 6576SOL    HW226070   5.640   1.291   1.444 -1.9680 -0.7317  1.5300
 6576SOL    HW326071   5.558   1.233   1.331  0.5071 -1.2666 -0.0730
 6576SOL    MW426072   5.626   1.228   1.386  0.0668 -0.3981  0.5685
 6577SOL     OW26073   4.768   4.326   5.882  0.2720  0.2975 -0.3145
 6577SOL    HW226074   4.761   4.235   5.908  2.7259  0.6657  2.1402
 6577SOL    HW326075   4.701   4.372   5.933 -1.3409 -0.1368 -1.9700
 6577SOL    MW426076   4.758   4.320   5.892  0.3829  0.2888 -0.2090
 6578SOL     OW26077   0.277   5.059   0.766 -0.3393 -0.4722 -0.2623
 6578SOL    HW226078   0.366   5.024   0.759  0.0328  0.4007 -0.0790
 6578SOL    HW326079   0.262   5.070   0.860  0.3615  1.7597 -0.3369
 6578SOL    MW426080   0.287   5.056   0.778 -0.1978 -0.0625 -0.2480
 6579SOL     OW26081   3.644   2.035   1.210 -0.0587 -0.6142 -0.0181
 6579SOL    HW226082   3.553   2.060   1.197  0.2247  0.8710  0.6931
 6579SOL    HW326083   3.686   2.052   1.125 -0.2328 -0.2996 -0.0424
 6579SOL    MW426084   3.638   2.040   1.197 -0.0443 -0.3768  0.0725
 6580SOL     OW26085   4.369   4.478   3.042 -0.2872  0.3125  0.0706
 6580SOL    HW226086   4.290   4.434   3.074 -1.7947  2.5467 -0.3756
 6580SOL    HW326087   4.338   4.560   3.004  2.4932  3.0292  3.0065
 6580SOL    MW426088   4.355   4.483   3.042 -0.1192  0.9657  0.3991
 6581SOL     OW26089   4.478   5.272   4.136 -0.3798 -0.4828  0.4425
 6581SOL    HW226090   4.430   5.348   4.102  1.7871  1.6251  1.8448
 6581SOL    HW326091   4.481   5.285   4.230  1.5474 -1.3790  0.5502
 6581SOL    MW426092   4.472   5.284   4.144  0.1604 -0.3229  0.6417
 6582SOL     OW26093   0.372   2.859   0.254  0.1723 -0.2713 -0.4953
 6582SOL    HW226094   0.417   2.851   0.170  0.7269 -0.3099 -0.2035
 6582SOL    HW326095   0.437   2.831   0.318 -0.3851 -0.6405 -0.0847
 6582SOL    MW426096   0.387   2.854   0.251  0.1720 -0.3251 -0.4027
 6583SOL     OW26097   2.493   5.234   3.587  1.1572 -0.2063  1.2115
 6583SOL    HW226098   2.551   5.306   3.561  1.2818 -0.8973 -0.5382
 6583SOL    HW326099   2.495   5.173   3.513 -2.7233  0.2638  0.5001
 6583SOL    MW426100   2.501   5.236   3.574  0.6617 -0.2354  0.8868
 6584SOL     OW26101   3.333   1.917   4.676  0.2350  0.2575  0.2577
 6584SOL    HW226102   3.360   1.985   4.738  1.7829 -0.6593  0.6597
 6584SOL    HW326103   3.273   1.862   4.725  0.4174  0.2880  0.5140
 6584SOL    MW426104   3.329   1.919   4.690  0.4633  0.1405  0.3445
 6585SOL     OW26105   0.156   0.267   5.225  0.1888  0.2215  0.0277
 6585SOL    HW226106   0.184   0.340   5.170  0.2461 -0.6698 -1.1919
 6585SOL    HW326107   0.072   0.295   5.262  0.3535  1.0106 -0.1851
 6585SOL    MW426108   0.148   0.280   5.222  0.2181  0.2080 -0.1613
 6586SOL     OW26109   6.115   4.012   2.780  0.8628  0.5124  0.2067
 6586SOL    HW226110   6.068   4.017   2.863 -0.7358  0.3580 -0.6548
 6586SOL    HW326111   6.083   4.088   2.731 -0.9246 -1.2893 -1.5881
 6586SOL    MW426112   6.104   4.023   2.785  0.4160  0.2543 -0.1438
 6587SOL     OW26113   2.878   0.711   5.980 -0.3568 -0.2983  0.3851
 6587SOL    HW226114   2.788   0.690   5.954  0.0295 -0.3769 -0.9578
 6587SOL    HW326115   2.927   0.630   5.965 -0.0100 -0.1967  0.9237
 6587SOL    MW426116   2.873   0.698   5.975 -0.2601 -0.2953  0.2789
 6588SOL     OW26117   2.182   2.594   0.722 -0.3533  0.1173  0.3270
 6588SOL    HW226118   2.126   2.540   0.666 -0.3591 -0.6519  1.0475
 6588SOL    HW326119   2.140   2.680   0.722  0.8840  0.8311 -2.6762
 6588SOL    MW426120   2.169   2.598   0.715 -0.1908  0.1100  0.0258
 6589SOL     OW26121   4.008   4.289   4.263 -0.1473  0.2069  0.1801
 6589SOL    HW226122   4.076   4.225   4.283  0.6524  1.0825  0.3198
 6589SOL    HW326123   4.002   4.343   4.342 -0.1138  0.9055 -0.2794
 6589SOL    MW426124   4.016   4.288   4.276 -0.0373  0.4146  0.1379
 6590SOL     OW26125   5.260   4.263   2.524 -0.5108  0.2250 -0.5786
 6590SOL    HW226126   5.319   4.281   2.451 -0.7704  0.2647 -0.7832
 6590SOL    HW326127   5.233   4.172   2.512  3.3223 -1.5378  2.2603
 6590SOL    MW426128   5.264   4.253   2.513 -0.0393 -0.0023 -0.2310
 6591SOL     OW26129   5.180   1.276   2.260 -0.0043  0.4273 -0.0349
 6591SOL    HW226130   5.159   1.193   2.302 -0.1061  0.1982 -0.5240
 6591SOL    HW326131   5.273   1.267   2.235  0.2570  0.8398  0.7677
 6591SOL    MW426132   5.190   1.264   2.262  0.0168  0.4515  0.0065
 6592SOL     OW26133   1.988   1.941   0.100  0.2950 -0.4037 -0.3139
 6592SOL    HW226134   1.907   1.890   0.092 -0.2399  0.4589 -0.4891
 6592SOL    HW326135   2.047   1.901   0.036 -0.0798 -0.8566 -0.3875
 6592SOL    MW426136   1.985   1.929   0.091  0.1750 -0.3496 -0.3468
 6593SOL     OW26137   2.533   5.924   1.633  0.0509 -0.0807  0.0236
 6593SOL    HW226138   2.617   5.897   1.671  1.0420  0.2951 -1.7985
 6593SOL    HW326139   2.494   5.842   1.602  0.4350 -0.0935 -0.4376
 6593SOL    MW426140   2.539   5.909   1.634  0.2324 -0.0328 -0.2776
 6594SOL     OW26141   3.248   0.969   5.013 -0.3333 -0.2413 -0.3284
 6594SOL    HW226142   3.171   0.976   5.069  0.2783  1.4987  0.3663
 6594SOL    HW326143   3.313   0.925   5.067 -0.5902 -1.0665 -0.6692
 6594SOL    MW426144   3.246   0.964   5.027 -0.2865 -0.1206 -0.2817
 6595SOL     OW26145   2.699   5.564   5.389 -0.5106  0.0257 -0.1422
 6595SOL    HW226146   2.650   5.615   5.324 -0.9131 -1.0949 -0.7450
 6595SOL    HW326147   2.760   5.627   5.428 -2.1746  1.3911  0.3832
 6595SOL    MW426148   2.700   5.579   5.385 -0.7833  0.0580 -0.1524
 6596SOL     OW26149   1.110   6.263   1.562 -0.2342 -0.0196 -0.5067
 6596SOL    HW226150   1.119   6.356   1.580 -3.0052  0.1906  0.2275
 6596SOL    HW326151   1.076   6.225   1.643 -0.7438 -1.3747 -1.3144
 6596SOL    MW426152   1.107   6.270   1.575 -0.6670 -0.1707 -0.5164
 6597SOL     OW26153   0.922   4.444   3.890 -0.2797  0.4479 -0.6618
 6597SOL    HW226154   0.906   4.389   3.967 -1.2499  0.5941 -0.7378
 6597SOL    HW326155   0.934   4.532   3.926  2.5897  0.0369 -0.4306
 6597SOL    MW426156   0.921   4.449   3.905 -0.0291  0.4130 -0.6413
 6598SOL     OW26157   4.859   1.343   2.173 -0.4162 -0.0070 -0.0482
 6598SOL    HW226158   4.917   1.284   2.126  0.1558  0.9848 -0.6156
 6598SOL    HW326159   4.785   1.289   2.199  0.3003 -1.0673 -0.1613
 6598SOL    MW426160   4.857   1.328   2.170 -0.2462 -0.0160 -0.1379
 6599SOL     OW26161   5.504   4.414   3.406 -0.0733  0.0521 -0.2353
 6599SOL    HW226162   5.579   4.472   3.391 -0.0177 -0.4632 -2.3090
 6599SOL    HW326163   5.540   4.341   3.457  0.5009  0.4805 -0.0160
 6599SOL    MW426164   5.519   4.412   3.411  0.0098  0.0407 -0.4800
 6600SOL     OW26165   6.407   4.020   5.692  0.2076  0.3514 -0.2908
 6600SOL    HW226166   6.350   4.016   5.615 -0.3909  0.1285  0.1522
 6600SOL    HW326167   6.487   4.061   5.661  0.3775 -0.6876 -1.2867
 6600SOL    MW426168   6.410   4.025   5.678  0.1510  0.1849 -0.3637
 6601SOL     OW26169   4.689   4.017   0.091  0.3361 -0.2744 -0.5125
 6601SOL    HW226170   4.772   4.000   0.047  0.0031  0.0387 -1.2721
 6601SOL    HW326171   4.714   4.052   0.177  0.9836 -0.5231 -0.5923
 6601SOL    MW426172   4.703   4.019   0.097  0.3776 -0.2659 -0.6232
 6602SOL     OW26173   4.373   1.021   1.940  0.0923 -0.5148 -0.1030
 6602SOL    HW226174   4.365   1.114   1.960 -0.1481 -0.3834 -0.7960
 6602SOL    HW326175   4.290   0.998   1.898  0.9680 -0.5245 -1.9245
 6602SOL    MW426176   4.361   1.030   1.937  0.1761 -0.4987 -0.4348
 6603SOL     OW26177   1.189   2.691   4.975 -0.0605 -0.3116  0.2756
 6603SOL    HW226178   1.227   2.778   4.978  0.2668 -0.2635 -2.7955
 6603SOL    HW326179   1.141   2.684   5.058 -0.1537  2.7788  0.6149
 6603SOL    MW426180   1.187   2.701   4.987 -0.0296  0.1025 -0.0848
 6604SOL     OW26181   2.881   4.287   5.460  0.5247  0.0140 -0.3544
 6604SOL    HW226182   2.904   4.268   5.550  0.6710  0.4565 -0.2933
 6604SOL    HW326183   2.915   4.213   5.409 -0.0720 -0.5202  0.0167
 6604SOL    MW426184   2.889   4.275   5.465  0.4653  0.0019 -0.2974
 6605SOL     OW26185   2.556   1.731   3.102 -0.1213  0.0899 -0.1554
 6605SOL    HW226186   2.520   1.710   3.189  0.0051  2.7627  0.6440
 6605SOL    HW326187   2.645   1.696   3.104 -0.1304  0.0904  0.7960
 6605SOL    MW426188   2.563   1.724   3.114 -0.1058  0.4426  0.0756
 6606SOL     OW26189   3.151   4.933   6.029 -0.3447 -0.2889  0.5508
 6606SOL    HW226190   3.095   4.872   5.981 -1.3559 -0.0323  1.3774
 6606SOL    HW326191   3.217   4.960   5.965  0.6753 -2.8861  0.3972
 6606SOL    MW426192   3.152   4.928   6.014 -0.3435 -0.5977  0.6396
 6607SOL     OW26193   1.015   1.001   0.439  0.4705  0.2640 -0.5410
 6607SOL    HW226194   1.093   1.020   0.491  0.3120  0.1545 -0.2619
 6607SOL    HW326195   0.967   0.936   0.490  0.4348 -0.0259 -0.9415
 6607SOL    MW426196   1.019   0.995   0.453  0.4449  0.2113 -0.5570
 6608SOL     OW26197   4.895   2.785   5.135  0.0331 -0.0202  0.4670
 6608SOL    HW226198   4.823   2.792   5.198  0.0735  1.1549  0.3986
 6608SOL    HW326199   4.943   2.867   5.143 -0.3872  0.4851 -1.6011
 6608SOL    MW426200   4.892   2.797   5.145 -0.0170  0.2015  0.1851
 6609SOL     OW26201   2.829   0.506   0.690  0.3788  0.4360  0.3449
 6609SOL    HW226202   2.741   0.521   0.655  0.5001 -0.6901 -0.4752
 6609SOL    HW326203   2.844   0.581   0.749 -0.1026  2.0224 -1.4533
 6609SOL    MW426204   2.819   0.518   0.693  0.3313  0.4967 -0.0006
 6610SOL     OW26205   4.090   3.411   1.115  0.3913 -0.3299  0.1061
 6610SOL    HW226206   4.019   3.445   1.170  0.8649 -0.8349  1.0391
 6610SOL    HW326207   4.167   3.412   1.171  1.3744  1.1770 -1.2079
 6610SOL    MW426208   4.090   3.416   1.130  0.5835 -0.1977  0.0558
 6611SOL     OW26209   3.873   5.592   5.428 -0.3146  0.3605 -0.0818
 6611SOL    HW226210   3.808   5.554   5.487 -0.7554 -0.8953 -1.3315
 6611SOL    HW326211   3.863   5.544   5.346  2.6395 -0.4022 -0.1272
 6611SOL    MW426212   3.863   5.581   5.425  0.0170  0.0942 -0.2527
 6612SOL     OW26213   5.524   3.354   3.638  0.1787  0.0286 -0.2982
 6612SOL    HW226214   5.546   3.386   3.551  0.1390  0.1899 -0.2484
 6612SOL    HW326215   5.509   3.433   3.690 -2.7797 -0.0369 -0.8637
 6612SOL    MW426216   5.525   3.368   3.633 -0.2169  0.0412 -0.3662
 6613SOL     OW26217   0.634   0.603   2.183  0.0926 -0.1227 -0.0148
 6613SOL    HW226218   0.650   0.555   2.101  3.0931  1.3825 -0.4302
 6613SOL    HW326219   0.651   0.694   2.161 -3.3347  1.0057  1.3057
 6613SOL    MW426220   0.638   0.608   2.169  0.0363  0.2248  0.1046
 6614SOL     OW26221   2.416   4.423   4.614 -0.3423 -0.1767  0.9710
 6614SOL    HW226222   2.393   4.332   4.595 -0.5204  0.5195 -3.0375
 6614SOL    HW326223   2.332   4.466   4.632 -0.3518 -0.6230  2.0173
 6614SOL    MW426224   2.402   4.417   4.614 -0.3671 -0.1437  0.5802
 6615SOL     OW26225   1.562   0.648   4.863  0.6040 -0.3766 -0.2584
 6615SOL    HW226226   1.648   0.641   4.821  0.2784 -1.3758 -0.7886
 6615SOL    HW326227   1.501   0.607   4.801 -0.4848  1.5378 -0.5039
 6615SOL    MW426228   1.565   0.641   4.849  0.4174 -0.2558 -0.3607
 6616SOL     OW26229   6.350   6.009   4.723  0.0229 -0.4987  0.3577
 6616SOL    HW226230   6.432   6.015   4.673  1.2786  0.2506  2.3915
 6616SOL    HW326231   6.378   6.008   4.815 -2.2575 -0.4677  1.1084
 6616SOL    MW426232   6.365   6.009   4.729 -0.1123 -0.3958  0.7251
 6617SOL     OW26233   0.507   2.294   0.305  0.2844 -0.6068 -0.2113
 6617SOL    HW226234   0.539   2.318   0.391 -1.5087 -1.2653  0.6944
 6617SOL    HW326235   0.522   2.199   0.299  3.1919 -0.1498 -1.9213
 6617SOL    MW426236   0.513   2.284   0.315  0.4314 -0.6334 -0.3174
 6618SOL     OW26237   3.333   2.864   5.515  0.3679  0.8451 -0.6124
 6618SOL    HW226238   3.390   2.835   5.587  1.7947  0.1003 -1.9836
 6618SOL    HW326239   3.333   2.960   5.522  0.7462  0.7996  0.1857
 6618SOL    MW426240   3.341   2.873   5.526  0.6061  0.7409 -0.6880
 6619SOL     OW26241   0.099   1.179   3.545 -0.0726  0.1557  0.2986
 6619SOL    HW226242   0.018   1.132   3.563  1.1360 -1.8814  0.8228
 6619SOL    HW326243   0.072   1.256   3.495 -2.0991 -1.6138 -1.5524
 6619SOL    MW426244   0.085   1.183   3.541 -0.1805 -0.3465  0.1236
 6620SOL     OW26245   0.589   3.509   0.635  0.0460  0.0681  0.2754
 6620SOL    HW226246   0.643   3.526   0.712 -0.2064 -1.8615  0.9293
 6620SOL    HW326247   0.637   3.551   0.563  1.2321  0.3584  1.2026
 6620SOL    MW426248   0.603   3.517   0.635  0.1692 -0.1482  0.4840
 6621SOL     OW26249   0.933   0.043   3.991  0.4380 -0.2066 -0.7044
 6621SOL    HW226250   0.924   0.080   4.079  0.5427  0.6589 -1.0511
 6621SOL    HW326251   0.878  -0.036   3.993  0.8634 -0.5026  0.2984
 6621SOL    MW426252   0.924   0.037   4.003  0.5080 -0.1315 -0.6178
 6622SOL     OW26253   6.325   3.923   1.714 -0.1011  0.8558  0.2165
 6622SOL    HW226254   6.341   4.017   1.705 -0.1961  0.8121 -0.5047
 6622SOL    HW326255   6.381   3.896   1.786 -0.0232  1.4575  0.3891
 6622SOL    MW426256   6.335   3.932   1.722 -0.1033  0.9294  0.1441
 6623SOL     OW26257   4.802   6.349   0.528 -0.1025 -0.0646  0.2273
 6623SOL    HW226258   4.726   6.355   0.587 -0.6135  0.2638 -0.4454
 6623SOL    HW326259   4.765   6.361   0.440  0.5065 -1.5237 -0.2580
 6623SOL    MW426260   4.787   6.352   0.524 -0.0896 -0.2138  0.0745
 6624SOL     OW26261   3.515   0.014   5.354 -0.3357  0.1398 -0.0276
 6624SOL    HW226262   3.580  -0.039   5.402 -0.2052  0.3050 -0.0202
 6624SOL    HW326263   3.537   0.000   5.262 -0.5619 -0.1470 -0.0380
 6624SOL    MW426264   3.527   0.005   5.348 -0.3483  0.1237 -0.0280
 6625SOL     OW26265   4.252   6.138   3.656  0.3042 -0.5944 -0.0282
 6625SOL    HW226266   4.188   6.074   3.686 -0.8139 -0.2502 -1.5657
 6625SOL    HW326267   4.328   6.086   3.630 -0.3940 -1.2805 -0.7514
 6625SOL    MW426268   4.254   6.123   3.656  0.0646 -0.6395 -0.3265
 6626SOL     OW26269   3.554   0.029   0.791 -0.1283  0.1315  0.4640
 6626SOL    HW226270   3.515   0.009   0.876 -0.6053  0.3292  0.2943
 6626SOL    HW326271   3.524   0.117   0.771 -1.3754 -0.5072 -0.6622
 6626SOL    MW426272   3.545   0.038   0.800 -0.3558  0.0733  0.2930
 6627SOL     OW26273   3.424   4.635   0.556  0.2288 -0.3654 -0.0895
 6627SOL    HW226274   3.507   4.615   0.600  0.8143 -1.5091 -1.6349
 6627SOL    HW326275   3.368   4.560   0.575 -0.2858  0.1670  0.5216
 6627SOL    MW426276   3.427   4.623   0.564  0.2381 -0.4461 -0.2128
 6628SOL     OW26277   0.378   1.801   4.664  0.1567 -0.3597 -0.3091
 6628SOL    HW226278   0.452   1.861   4.655  1.6507 -1.9163  0.9876
 6628SOL    HW326279   0.324   1.838   4.734  0.9616 -0.4136  0.3447
 6628SOL    MW426280   0.380   1.813   4.672  0.4600 -0.5722 -0.0517
 6629SOL     OW26281   3.787   5.488   4.909 -0.0213  0.0555  0.3026
 6629SOL    HW226282   3.711   5.445   4.869  0.2569 -0.1056 -0.0604
 6629SOL    HW326283   3.794   5.571   4.863  0.8407 -0.5091 -0.6403
 6629SOL    MW426284   3.778   5.493   4.897  0.1291 -0.0403  0.1303
 6630SOL     OW26285   5.141   6.075   2.131  0.4765 -0.2977 -0.0231
 6630SOL    HW226286   5.046   6.083   2.134  0.5639  0.7789  0.2701
 6630SOL    HW326287   5.158   6.013   2.061 -0.4154  0.0851 -0.5909
 6630SOL    MW426288   5.131   6.068   2.123  0.3703 -0.1051 -0.0593
 6631SOL     OW26289   1.842   5.108   1.329 -0.0154  0.4508 -0.0620
 6631SOL    HW226290   1.780   5.140   1.394 -0.3984 -0.4530  0.0421
 6631SOL    HW326291   1.821   5.157   1.250 -0.8699  0.1708 -0.0251
 6631SOL    MW426292   1.831   5.118   1.327 -0.1787  0.2946 -0.0434
 6632SOL     OW26293   5.906   4.464   2.541 -0.2647  0.3201  0.7738
 6632SOL    HW226294   5.904   4.519   2.463 -2.0534 -0.2754  0.3492
 6632SOL    HW326295   5.947   4.519   2.608  2.2670  0.4862 -0.7826
 6632SOL    MW426296   5.911   4.479   2.540 -0.1667  0.2635  0.5124
 6633SOL     OW26297   1.883   1.485   4.907  0.2528  0.0498 -0.1360
 6633SOL    HW226298   1.858   1.460   4.996  1.6246  0.8752  0.5186
 6633SOL    HW326299   1.878   1.581   4.907 -0.1674  0.0327 -1.0898
 6633SOL    MW426300   1.879   1.495   4.919  0.3784  0.1565 -0.1754
 6634SOL     OW26301   1.534   0.887   0.917 -0.0942 -1.3069 -0.1735
 6634SOL    HW226302   1.629   0.873   0.919 -0.2199 -2.1762  0.2656
 6634SOL    HW326303   1.518   0.950   0.986  0.1254 -1.4230 -0.0146
 6634SOL    MW426304   1.544   0.893   0.926 -0.0818 -1.4369 -0.0946
 6635SOL     OW26305   0.639   1.306   0.854 -0.6380 -0.1777 -0.1457
 6635SOL    HW226306   0.610   1.357   0.930  0.4815 -0.2987  0.3804
 6635SOL    HW326307   0.650   1.372   0.785  1.5906  0.4850  0.7509
 6635SOL    MW426308   0.636   1.322   0.855 -0.1963 -0.1062  0.0420
 6636SOL     OW26309   2.422   1.679   5.815 -0.1760 -0.3769 -0.0032
 6636SOL    HW226310   2.353   1.726   5.862 -0.3305 -0.2980 -0.3079
 6636SOL    HW326311   2.504   1.720   5.844 -0.0758 -1.9015  2.0431
 6636SOL    MW426312   2.424   1.691   5.825 -0.1832 -0.5677  0.2266
 6637SOL     OW26313   4.753   3.815   4.719  0.3212 -0.9213  0.3099
 6637SOL    HW226314   4.843   3.817   4.752  0.4708  0.4693 -0.1240
 6637SOL    HW326315   4.700   3.797   4.797  0.8146  0.5046  1.0162
 6637SOL    MW426316   4.758   3.813   4.734  0.4060 -0.5497  0.3458
 6638SOL     OW26317   3.952   0.839   0.408  0.5189 -0.2812 -0.0826
 6638SOL    HW226318   3.965   0.817   0.316 -0.4644  0.7378 -0.5004
 6638SOL    HW326319   3.864   0.878   0.411  1.2086  1.3070  0.9728
 6638SOL    MW426320   3.942   0.841   0.397  0.4802  0.0628  0.0015
 6639SOL     OW26321   3.490   0.021   2.871  0.0080 -0.4372  0.3814
 6639SOL    HW226322   3.469   0.008   2.778 -2.2428  0.9803  0.6192
 6639SOL    HW326323   3.527   0.109   2.875 -0.0135 -0.4486  0.8428
 6639SOL    MW426324   3.492   0.031   2.859 -0.2918 -0.2517  0.4736
 6640SOL     OW26325   1.658   3.555   2.577  0.2172  0.5163 -0.3234
 6640SOL    HW226326   1.658   3.518   2.665 -0.0174 -0.8788 -0.8969
 6640SOL    HW326327   1.728   3.621   2.579  1.4207 -0.7270  0.4207
 6640SOL    MW426328   1.667   3.559   2.589  0.3451  0.1682 -0.3009
 6641SOL     OW26329   6.414   6.221   4.196  0.4406 -0.8783  0.6026
 6641SOL    HW226330   6.370   6.187   4.273  1.2829 -1.6826  0.7444
 6641SOL    HW326331   6.358   6.195   4.123 -0.0768 -0.5957  0.8985
 6641SOL    MW426332   6.401   6.213   4.196  0.4835 -0.9471  0.6604
 6642SOL     OW26333   1.909   3.857   4.863  0.4204  0.6522  0.2440
 6642SOL    HW226334   1.875   3.853   4.773  0.5483  2.9293  0.0263
 6642SOL    HW326335   1.977   3.925   4.860  1.3257 -0.1350  1.8014
 6642SOL    MW426336   1.913   3.866   4.851  0.5567  0.8488  0.4208
 6643SOL     OW26337   5.491   5.871   4.004 -0.5085 -0.3310 -0.2179
 6643SOL    HW226338   5.410   5.840   4.046 -0.7265  0.4529 -0.0400
 6643SOL    HW326339   5.531   5.792   3.969 -0.4145 -0.9949  1.2999
 6643SOL    MW426340   5.485   5.856   4.005 -0.5248 -0.3152  0.0058
 6644SOL     OW26341   0.209   5.400   5.176 -0.5096  0.4120 -0.6713
 6644SOL    HW226342   0.224   5.480   5.126 -0.6039  1.5127  1.0080
 6644SOL    HW326343   0.277   5.339   5.146  0.1365  1.4283 -1.3055
 6644SOL    MW426344   0.220   5.402   5.165 -0.4368  0.6913 -0.5334
 6645SOL     OW26345   1.133   3.538   3.527  0.5076 -0.3980  0.1456
 6645SOL    HW226346   1.075   3.488   3.470  0.7946 -0.5948  0.0259
 6645SOL    HW326347   1.080   3.557   3.605  0.2257 -0.4203 -0.0387
 6645SOL    MW426348   1.118   3.534   3.530  0.5083 -0.4269  0.1055
 6646SOL     OW26349   2.083   0.155   4.955 -0.0757  0.2811  0.2129
 6646SOL    HW226350   2.142   0.229   4.936 -0.8351  0.5555 -1.2318
 6646SOL    HW326351   1.996   0.194   4.957 -0.5058 -0.5990 -0.7783
 6646SOL    MW426352   2.080   0.170   4.953 -0.2327  0.2012 -0.1085
 6647SOL     OW26353   0.141   2.952   2.872 -0.0141 -0.3002  0.5224
 6647SOL    HW226354   0.211   2.950   2.937  1.5836  0.8937 -1.0480
 6647SOL    HW326355   0.073   3.007   2.911  0.7302  0.0452  1.3475
 6647SOL    MW426356   0.141   2.959   2.885  0.2949 -0.0971  0.4240
 6648SOL     OW26357   5.525   4.165   2.937 -0.0453 -0.4799  0.1826
 6648SOL    HW226358   5.465   4.179   3.011  0.3996 -0.0968  0.4763
 6648SOL    HW326359   5.487   4.218   2.866  2.6707  4.3175  1.8184
 6648SOL    MW426360   5.512   4.174   2.937  0.3717  0.2036  0.4372
 6649SOL     OW26361   3.878   5.269   5.572  0.0884  0.2635 -0.0878
 6649SOL    HW226362   3.946   5.227   5.624 -0.0454  1.6678  1.3174
 6649SOL    HW326363   3.916   5.278   5.485  0.8394 -0.9574  0.0903
 6649SOL    MW426364   3.892   5.265   5.568  0.1698  0.2877  0.1211
 6650SOL     OW26365   6.240   1.430   0.356 -0.0515  0.1157  0.8355
 6650SOL    HW226366   6.270   1.519   0.374  0.5499  0.0545  0.1638
 6650SOL    HW326367   6.309   1.392   0.302  0.5464 -1.3390  2.5122
 6650SOL    MW426368   6.253   1.436   0.352  0.1067 -0.0843  0.9681
 6651SOL     OW26369   3.614   0.052   6.322  0.6852 -0.1543 -0.2528
 6651SOL    HW226370   3.647   0.128   6.369 -0.9915  0.3418  0.1694
 6651SOL    HW326371   3.568   0.000   6.388 -2.8477  1.2011 -1.4190
 6651SOL    MW426372   3.612   0.055   6.337 -0.0021  0.0900 -0.3510
 6652SOL     OW26373   5.298   3.499   1.495  0.3109  0.5702  0.2598
 6652SOL    HW226374   5.390   3.484   1.471 -0.1081 -0.5450 -0.8074
 6652SOL    HW326375   5.251   3.428   1.450 -1.0146  0.8407  1.1858
 6652SOL    MW426376   5.304   3.488   1.486  0.0808  0.4587  0.2412
 6653SOL     OW26377   3.091   4.117   2.398 -0.1080  0.0717 -0.1924
 6653SOL    HW226378   3.051   4.091   2.481  0.9058  0.5143  0.4529
 6653SOL    HW326379   3.054   4.203   2.379  0.5095  0.4822  0.4064
 6653SOL    MW426380   3.081   4.125   2.406  0.1072  0.1842 -0.0283
 6654SOL     OW26381   6.227   2.856   5.091  0.1560  0.8721  0.3816
 6654SOL    HW226382   6.193   2.770   5.065 -1.7188  1.8321 -0.5244
 6654SOL    HW326383   6.220   2.857   5.186  0.6633 -0.1607  0.4370
 6654SOL    MW426384   6.221   2.845   5.100 -0.0244  0.8625  0.2694
 6655SOL     OW26385   1.337   1.184   0.312  0.3197  0.2423  0.2226
 6655SOL    HW226386   1.281   1.112   0.284 -0.5660  1.2110 -0.5618
 6655SOL    HW326387   1.286   1.263   0.296  2.0406  1.2082 -0.9085
 6655SOL    MW426388   1.323   1.185   0.306  0.4299  0.4975 -0.0302
 6656SOL     OW26389   6.355   5.048   0.476  0.4839  0.3079 -0.5764
 6656SOL    HW226390   6.287   5.061   0.542 -0.9763 -0.0602 -1.9517
 6656SOL    HW326391   6.383   5.136   0.452  0.7382  0.4519  0.2247
 6656SOL    MW426392   6.350   5.061   0.481  0.3248  0.2783 -0.6522
 6657SOL     OW26393   2.710   0.614   1.816 -0.1704 -0.1552 -0.3477
 6657SOL    HW226394   2.665   0.529   1.816 -0.1435 -0.1976  1.5328
 6657SOL    HW326395   2.733   0.630   1.907 -0.4875  2.0614 -0.5937
 6657SOL    MW426396   2.707   0.605   1.828 -0.2087  0.1316 -0.1320
 6658SOL     OW26397   2.540   6.041   1.267 -0.2737  0.1518  0.5397
 6658SOL    HW226398   2.536   6.024   1.173  1.9242  0.8092  0.2819
 6658SOL    HW326399   2.615   6.099   1.278 -0.1496 -0.3529  2.7665
 6658SOL    MW426400   2.550   6.046   1.256  0.0327  0.1720  0.7995
 6659SOL     OW26401   6.372   4.947   1.134 -0.0961  0.1788 -0.1304
 6659SOL    HW226402   6.323   5.029   1.143  1.3130  1.2950 -1.9355
 6659SOL    HW326403   6.449   4.959   1.190 -0.0090 -0.0220 -0.2078
 6659SOL    MW426404   6.376   4.960   1.143  0.1013  0.2996 -0.3788
 6660SOL     OW26405   5.047   6.315   4.725 -0.3654 -0.2082 -0.3385
 6660SOL    HW226406   5.096   6.385   4.768  0.5557 -1.1978  0.2458
 6660SOL    HW326407   5.083   6.312   4.636  1.4815 -1.6724  0.4063
 6660SOL    MW426408   5.058   6.324   4.719 -0.0002 -0.5320 -0.1632
 6661SOL     OW26409   5.407   4.123   4.412  0.1145 -0.4268 -0.4513
 6661SOL    HW226410   5.350   4.181   4.362 -1.7452 -1.9521 -0.1781
 6661SOL    HW326411   5.363   4.112   4.496  2.4587  0.9303  1.1040
 6661SOL    MW426412   5.394   4.129   4.417  0.1784 -0.4490 -0.2101
 6662SOL     OW26413   4.338   2.086   3.974 -0.0279 -0.2092 -0.2541
 6662SOL    HW226414   4.310   2.154   4.036 -1.3476 -0.6841 -0.2962
 6662SOL    HW326415   4.430   2.071   3.995  0.3546  1.7179 -0.3649
 6662SOL    MW426416   4.346   2.093   3.985 -0.1515 -0.0176 -0.2743
 6663SOL     OW26417   2.150   1.085   3.702 -0.1224 -0.3508  0.1329
 6663SOL    HW226418   2.216   1.109   3.766  1.2839  0.5102 -1.5491
 6663SOL    HW326419   2.073   1.060   3.754  0.8380  0.6130  2.1004
 6663SOL    MW426420   2.149   1.085   3.717  0.1898 -0.1101  0.1706
 6664SOL     OW26421   2.706   3.550   0.614 -0.2426  0.2396 -0.1334
 6664SOL    HW226422   2.674   3.634   0.647  0.6721 -0.1184  1.8566
 6664SOL    HW326423   2.781   3.530   0.670  0.3295 -1.3222 -1.3769
 6664SOL    MW426424   2.712   3.558   0.626 -0.0464 -0.0137 -0.0349
 6665SOL     OW26425   0.786   4.494   1.864 -0.4642 -0.5391  0.7754
 6665SOL    HW226426   0.806   4.406   1.832 -1.4304 -0.2735 -0.6735
 6665SOL    HW326427   0.709   4.482   1.920 -1.6525 -0.4385 -0.7758
 6665SOL    MW426428   0.778   4.481   1.867 -0.7484 -0.4908  0.3796
 6666SOL     OW26429   5.486   1.001   4.813 -0.1624  0.4558  0.3335
 6666SOL    HW226430   5.581   0.986   4.811 -0.3584 -1.3420 -2.8004
 6666SOL    HW326431   5.476   1.095   4.800  1.2136  0.5881  0.0604
 6666SOL    MW426432   5.498   1.011   4.811 -0.0067  0.2361 -0.1160
 6667SOL     OW26433   4.146   2.728   0.588  0.3446 -0.1957  0.1060
 6667SOL    HW226434   4.200   2.652   0.609  0.6662  0.0012  0.0001
 6667SOL    HW326435   4.149   2.734   0.492 -0.0170 -0.2921  0.0859
 6667SOL    MW426436   4.153   2.719   0.578  0.3393 -0.1825  0.0893
 6668SOL     OW26437   1.795   2.878   5.065  0.5827 -0.1885 -0.1829
 6668SOL    HW226438   1.747   2.961   5.064  0.9205  0.0916  1.6680
 6668SOL    HW326439   1.794   2.851   5.157  2.6969 -0.9176 -0.3093
 6668SOL    MW426440   1.789   2.885   5.077  0.9062 -0.2477  0.0446
 6669SOL     OW26441   3.928   3.764   6.059 -0.0440  0.2471 -0.1952
 6669SOL    HW226442   3.999   3.727   6.111  1.8380  2.3253 -1.1313
 6669SOL    HW326443   3.888   3.830   6.117 -1.2560 -0.9133  0.3272
 6669SOL    MW426444   3.932   3.768   6.074  0.0444  0.3682 -0.2498
 6670SOL     OW26445   4.192   5.306   3.573  0.4507  0.4489  0.1075
 6670SOL    HW226446   4.253   5.248   3.618  1.4326 -0.1699 -1.8994
 6670SOL    HW326447   4.143   5.248   3.515  0.2529  1.3838 -0.6797
 6670SOL    MW426448   4.194   5.291   3.571  0.5541  0.4906 -0.2611
 6671SOL     OW26449   6.007   5.954   6.231  0.2275 -0.3209 -0.2216
 6671SOL    HW226450   6.079   6.016   6.222  1.1029 -1.1309  0.9274
 6671SOL    HW326451   6.049   5.870   6.250 -1.0212 -0.5647  1.7472
 6671SOL    MW426452   6.022   5.951   6.232  0.1783 -0.4600  0.1898
 6672SOL     OW26453   6.104   6.314   2.986  0.3700 -0.3216  0.0890
 6672SOL    HW226454   6.161   6.346   2.916 -0.1853 -0.5647 -0.4854
 6672SOL    HW326455   6.161   6.258   3.039  0.6813 -0.5335 -0.4554
 6672SOL    MW426456   6.119   6.311   2.984  0.3378 -0.3817 -0.0586
 6673SOL     OW26457   1.529   5.746   6.181 -0.0082 -0.6540  0.1487
 6673SOL    HW226458   1.624   5.758   6.186  0.2806 -1.8129 -1.6015
 6673SOL    HW326459   1.495   5.833   6.164  0.7560 -0.2479  0.6466
 6673SOL    MW426460   1.537   5.759   6.179  0.1307 -0.7533 -0.0165
 6674SOL     OW26461   0.624   3.784   6.194 -0.1700  0.1068  0.0997
 6674SOL    HW226462   0.669   3.807   6.113  0.5599 -0.2631  0.3927
 6674SOL    HW326463   0.542   3.833   6.190  0.6113  1.4558 -0.0626
 6674SOL    MW426464   0.619   3.794   6.183  0.0294  0.2360  0.1169
 6675SOL     OW26465   2.507   5.563   2.863  0.5627 -0.5073 -0.0771
 6675SOL    HW226466   2.493   5.485   2.918 -1.4027  0.3107  0.6917
 6675SOL    HW326467   2.426   5.571   2.813  0.5541  1.3029  0.1967
 6675SOL    MW426468   2.494   5.553   2.864  0.3023 -0.1605  0.0605
 6676SOL     OW26469   5.320   5.491   4.021 -0.0996  0.2403 -0.6045
 6676SOL    HW226470   5.257   5.440   4.072  1.1353 -0.6561  0.0711
 6676SOL    HW326471   5.267   5.556   3.976 -1.4052  0.0730  0.6227
 6676SOL    MW426472   5.305   5.493   4.022 -0.1089  0.1000 -0.3534
 6677SOL     OW26473   6.213   5.785   3.935  0.5775 -0.8321  0.2762
 6677SOL    HW226474   6.177   5.713   3.986 -2.6107 -0.5811 -1.4120
 6677SOL    HW326475   6.272   5.830   3.995  0.0634 -2.8638  2.4133
 6677SOL    MW426476   6.216   5.781   3.949  0.0890 -1.0670  0.3354
 6678SOL     OW26477   2.385   0.853   3.467  0.0875 -0.5878  0.6073
 6678SOL    HW226478   2.390   0.769   3.422 -0.3765  0.1783 -0.9333
 6678SOL    HW326479   2.331   0.908   3.410 -1.7772  0.0149  2.7936
 6678SOL    MW426480   2.378   0.849   3.454 -0.2197 -0.4072  0.6925
 6679SOL     OW26481   0.606   4.497   2.067 -0.1600  0.1953  0.1312
 6679SOL    HW226482   0.570   4.408   2.072  0.2921 -0.1754 -2.1015
 6679SOL    HW326483   0.537   4.547   2.022  0.7616  0.2314 -1.2985
 6679SOL    MW426484   0.592   4.492   2.062  0.0213  0.1512 -0.3520
 6680SOL     OW26485   1.054   5.681   3.007  0.0580 -0.0938  0.4350
 6680SOL    HW226486   1.044   5.772   3.035  1.3957  0.0782  0.3924
 6680SOL    HW326487   1.048   5.630   3.088  0.2063  0.1030  0.5692
 6680SOL    MW426488   1.052   5.686   3.022  0.2540 -0.0451  0.4471
 6681SOL     OW26489   2.240   0.661   4.842  0.5104 -0.4265  0.2231
 6681SOL    HW226490   2.169   0.601   4.818 -0.8113  1.1589  0.0369
 6681SOL    HW326491   2.197   0.744   4.861  2.2473  0.3655  0.9436
 6681SOL    MW426492   2.225   0.664   4.841  0.5652 -0.1128  0.2936
 6682SOL     OW26493   4.260   0.585   3.112  0.7627 -0.7012 -0.3759
 6682SOL    HW226494   4.191   0.535   3.068  0.3000 -0.1565 -0.2864
 6682SOL    HW326495   4.305   0.521   3.167  0.1482 -1.0117 -0.2278
 6682SOL    MW426496   4.257   0.570   3.114  0.6206 -0.6703 -0.3445
 6683SOL     OW26497   2.717   0.857   3.647  0.0947  0.0355 -0.1442
 6683SOL    HW226498   2.780   0.807   3.594 -0.9488  0.0659 -1.4626
 6683SOL    HW326499   2.642   0.799   3.657 -0.0759  0.3668  0.5810
 6683SOL    MW426500   2.716   0.843   3.641 -0.0655  0.0832 -0.2225
 6684SOL     OW26501   5.277  -0.012   2.673 -0.3063  0.4649 -0.2919
 6684SOL    HW226502   5.299  -0.095   2.630  0.3980  0.0560  0.8227
 6684SOL    HW326503   5.188  -0.025   2.707 -0.4529  0.4155 -0.6854
 6684SOL    MW426504   5.268  -0.024   2.672 -0.2327  0.4044 -0.1968
 6685SOL     OW26505   0.359   4.382   2.450 -0.3185  0.4472 -0.2179
 6685SOL    HW226506   0.444   4.341   2.431 -0.4282  0.6048 -1.0766
 6685SOL    HW326507   0.295   4.315   2.428 -0.4645  0.7861 -0.8587
 6685SOL    MW426508   0.362   4.368   2.444 -0.3522  0.5127 -0.4157
 6686SOL     OW26509   2.378   0.451   2.949  0.1856 -0.2563 -0.6391
 6686SOL    HW226510   2.308   0.413   2.896  1.9053 -3.4997 -0.8060
 6686SOL    HW326511   2.345   0.447   3.039 -0.8833  0.8232 -0.9702
 6686SOL    MW426512   2.364   0.445   2.954  0.2715 -0.5418 -0.7048
 6687SOL     OW26513   2.046   4.143   5.197  0.2482  0.6251 -0.9814
 6687SOL    HW226514   2.044   4.164   5.103 -0.6787 -0.6079 -1.2588
 6687SOL    HW326515   2.103   4.067   5.204 -3.1603 -2.2435 -1.2721
 6687SOL    MW426516   2.053   4.136   5.185 -0.3238  0.0839 -1.0563
 6688SOL     OW26517   5.700   5.974   0.567 -0.0653  0.2557 -0.5757
 6688SOL    HW226518   5.664   5.888   0.589  0.2335  0.4028  0.5098
 6688SOL    HW326519   5.642   6.007   0.498 -0.0148 -0.9307 -1.2105
 6688SOL    MW426520   5.688   5.967   0.561 -0.0192  0.1186 -0.5162
 6689SOL     OW26521   2.927   3.988   3.462  0.4922 -0.1376  0.9122
 6689SOL    HW226522   2.832   3.993   3.477  0.4306 -1.3500  1.0267
 6689SOL    HW326523   2.954   4.079   3.448 -1.0001  0.0925 -0.9809
 6689SOL    MW426524   2.918   4.000   3.462  0.2872 -0.2672  0.6775
 6690SOL     OW26525   1.580   4.430   1.143  0.3710  0.1537  0.6749
 6690SOL    HW226526   1.671   4.401   1.138  0.0141 -0.8301 -2.3573
 6690SOL    HW326527   1.578   4.514   1.097 -0.6066 -1.1697 -1.9123
 6690SOL    MW426528   1.591   4.437   1.137  0.1949 -0.1507 -0.0665
 6691SOL     OW26529   3.631   0.765   2.964 -0.5083  0.4402  0.1641
 6691SOL    HW226530   3.719   0.771   2.928  0.1025 -0.9979  1.3217
 6691SOL    HW326531   3.633   0.824   3.040 -0.6230  0.5748  0.0639
 6691SOL    MW426532   3.643   0.774   2.970 -0.4429  0.2683  0.3036
 6692SOL     OW26533   1.527   2.245   3.662  0.2992 -0.6775  0.3938
 6692SOL    HW226534   1.458   2.298   3.623  1.2963 -0.9290 -1.9041
 6692SOL    HW326535   1.604   2.302   3.662  0.7394 -1.2564  0.3668
 6692SOL    MW426536   1.528   2.260   3.657  0.4888 -0.7871  0.0870
 6693SOL     OW26537   4.225   5.193   1.688  0.2312  0.5055 -0.1156
 6693SOL    HW226538   4.313   5.192   1.726  0.5780  0.1783 -0.9017
 6693SOL    HW326539   4.205   5.101   1.671  0.4192  0.6931 -1.4543
 6693SOL    MW426540   4.234   5.180   1.690  0.3018  0.4871 -0.3959
 6694SOL     OW26541   2.476   5.127   3.862 -0.6261 -0.6321 -0.4936
 6694SOL    HW226542   2.488   5.180   3.783  0.9383 -0.0249  0.1007
 6694SOL    HW326543   2.544   5.060   3.855  1.2945  0.9399  1.4840
 6694SOL    MW426544   2.487   5.125   3.850 -0.1663 -0.3446 -0.1543
 6695SOL     OW26545   3.809   4.917   3.879 -0.0551 -0.1384  0.2600
 6695SOL    HW226546   3.768   4.977   3.941  0.3353  0.0975  0.2925
 6695SOL    HW326547   3.901   4.914   3.906 -0.2153 -1.3415  0.7370
 6695SOL    MW426548   3.815   4.924   3.890 -0.0248 -0.2660  0.3272
 6696SOL     OW26549   1.321   2.456   5.022  0.0346 -0.0754  0.4607
 6696SOL    HW226550   1.274   2.539   5.010 -1.9310 -1.0215  1.0997
 6696SOL    HW326551   1.291   2.402   4.949  0.8088 -0.4469  0.4111
 6696SOL    MW426552   1.311   2.460   5.011 -0.1226 -0.2492  0.5385
 6697SOL     OW26553   4.539   4.937   1.713 -0.5497  0.7005 -0.3110
 6697SOL    HW226554   4.544   5.027   1.744 -0.6175  0.3876  0.6203
 6697SOL    HW326555   4.454   4.906   1.743  0.3265 -0.3439  1.2543
 6697SOL    MW426556   4.529   4.945   1.721 -0.4430  0.5214  0.0184
 6698SOL     OW26557   0.558   0.187   5.174  0.4051  0.7075  0.0464
 6698SOL    HW226558   0.492   0.160   5.111  0.2055  0.1877  0.4732
 6698SOL    HW326559   0.538   0.279   5.192  0.7671  1.0089 -1.0143
 6698SOL    MW426560   0.547   0.196   5.168  0.4265  0.6787 -0.0372
 6699SOL     OW26561   4.306   1.113   1.232 -0.5756  0.0868 -0.3847
 6699SOL    HW226562   4.299   1.206   1.255  0.4680 -0.3759  2.1432
 6699SOL    HW326563   4.243   1.069   1.290 -0.0108 -0.9087 -0.5046
 6699SOL    MW426564   4.297   1.119   1.243 -0.3633 -0.1056 -0.0670
 6700SOL     OW26565   5.748   2.015   5.615  0.5616  0.4480  0.1776
 6700SOL    HW226566   5.830   2.028   5.663  0.8318  0.3135 -0.2434
 6700SOL    HW326567   5.751   2.078   5.544  0.0034  0.8860  0.5323
 6700SOL    MW426568   5.759   2.025   5.612  0.5236  0.4880  0.1689
 6701SOL     OW26569   5.183   1.255   5.015 -0.0377 -0.3476 -0.3043
 6701SOL    HW226570   5.259   1.273   4.959 -1.0117  0.6026 -1.3592
 6701SOL    HW326571   5.174   1.334   5.069  0.7783 -1.1801  1.1027
 6701SOL    MW426572   5.192   1.268   5.015 -0.0586 -0.3321 -0.2579
 6702SOL     OW26573   4.095   0.517   3.421 -0.1522 -0.3108  0.1797
 6702SOL    HW226574   4.054   0.431   3.414 -1.5837  0.1476  2.1925
 6702SOL    HW326575   4.076   0.546   3.510 -2.0094  3.2085 -1.1587
 6702SOL    MW426576   4.087   0.510   3.432 -0.5861  0.2140  0.2687
 6703SOL     OW26577   1.159   0.471   2.872  0.0793  0.4934  0.1699
 6703SOL    HW226578   1.238   0.423   2.849  0.2129  0.8529 -0.1436
 6703SOL    HW326579   1.176   0.507   2.959 -0.5902 -1.2215  1.0541
 6703SOL    MW426580   1.171   0.470   2.881  0.0086  0.3145  0.2452
 6704SOL     OW26581   2.828   2.225   5.920  0.1098  0.3888  0.0231
 6704SOL    HW226582   2.843   2.292   5.854 -0.7460  1.0690  0.5005
 6704SOL    HW326583   2.736   2.202   5.910  0.7008 -1.7606 -1.0824
 6704SOL    MW426584   2.818   2.230   5.910  0.0749  0.1950 -0.0598
 6705SOL     OW26585   1.396   2.951   1.815 -0.3553 -0.2900 -0.3126
 6705SOL    HW226586   1.422   3.019   1.878  0.1593  0.1251 -0.9613
 6705SOL    HW326587   1.478   2.908   1.790 -0.8092 -2.1137  1.1338
 6705SOL    MW426588   1.410   2.954   1.820 -0.3473 -0.4759 -0.2074
 6706SOL     OW26589   3.295   4.058   5.377  0.3056  0.0463  0.0628
 6706SOL    HW226590   3.282   4.042   5.470  1.3702  1.1434  0.4303
 6706SOL    HW326591   3.267   4.149   5.364 -1.0770 -0.4820 -0.9777
 6706SOL    MW426592   3.289   4.068   5.387  0.2636  0.1214 -0.0260
 6707SOL     OW26593   4.998   5.276   5.247 -0.1976 -0.4540 -0.4383
 6707SOL    HW226594   5.008   5.305   5.338  0.0413 -0.8364 -0.3411
 6707SOL    HW326595   5.080   5.232   5.226  0.0013  0.1974 -1.0566
 6707SOL    MW426596   5.010   5.274   5.257 -0.1398 -0.4185 -0.5070
 6708SOL     OW26597   4.639   3.221   3.365 -0.0315  0.0179  0.2048
 6708SOL    HW226598   4.563   3.183   3.321  0.5153 -0.3385 -0.4469
 6708SOL    HW326599   4.666   3.293   3.309  1.2454 -1.0247 -0.5878
 6708SOL    MW426600   4.633   3.225   3.352  0.2091 -0.1667  0.0143
 6709SOL     OW26601   3.878   5.491   2.547 -0.3337 -0.0202  0.0274
 6709SOL    HW226602   3.803   5.498   2.489 -0.1334 -0.7356 -0.3257
 6709SOL    HW326603   3.929   5.417   2.513  0.7971  0.7589 -0.0489
 6709SOL    MW426604   3.875   5.482   2.535 -0.1581 -0.0118 -0.0292
 6710SOL     OW26605   3.112   2.095   2.621  0.3525 -0.4019 -0.2903
 6710SOL    HW226606   3.147   2.006   2.628  1.7226  0.1770  0.5881
 6710SOL    HW326607   3.067   2.110   2.704 -0.2495 -0.4138 -0.6075
 6710SOL    MW426608   3.110   2.085   2.633  0.4539 -0.3271 -0.2163
 6711SOL     OW26609   4.560   3.218   4.779 -0.1459  0.5760  0.7649
 6711SOL    HW226610   4.620   3.151   4.813  1.4599  1.5489 -0.0315
 6711SOL    HW326611   4.584   3.226   4.687 -0.1606  2.3849  0.8867
 6711SOL    MW426612   4.571   3.210   4.771  0.0641  0.9430  0.6759
 6712SOL     OW26613   1.587   1.695   3.060  0.6469 -0.4713 -0.0357
 6712SOL    HW226614   1.588   1.678   2.966  1.1523  1.7236 -0.4742
 6712SOL    HW326615   1.678   1.690   3.087  0.4796 -1.3577  0.4322
 6712SOL    MW426616   1.599   1.692   3.051  0.6915 -0.2987 -0.0318
 6713SOL     OW26617   6.272   2.733   1.152  0.8411  0.3324  0.1406
 6713SOL    HW226618   6.317   2.806   1.110 -0.4711  0.2974 -1.4131
 6713SOL    HW326619   6.253   2.672   1.080  0.5971 -0.8403  1.1672
 6713SOL    MW426620   6.275   2.734   1.137  0.6358  0.1731  0.0710
 6714SOL     OW26621   5.037   2.948   5.752  0.4343 -0.1063  0.3152
 6714SOL    HW226622   5.098   3.021   5.743  2.1566 -1.4264  0.7858
 6714SOL    HW326623   5.078   2.890   5.815  0.2021 -2.5390 -1.6202
 6714SOL    MW426624   5.050   2.950   5.759  0.6309 -0.6014  0.1220
 6715SOL     OW26625   5.640   0.490   4.401  0.1427 -0.1389  0.4612
 6715SOL    HW226626   5.611   0.400   4.387 -3.9533  1.1753 -1.0646
 6715SOL    HW326627   5.612   0.511   4.491  2.4234 -0.7323  1.3616
 6715SOL    MW426628   5.632   0.481   4.411 -0.0968 -0.0438  0.3787
 6716SOL     OW26629   1.897   2.201   0.748 -0.8140 -0.3881 -0.5467
 6716SOL    HW226630   1.887   2.107   0.729  0.8152 -0.0961 -3.2952
 6716SOL    HW326631   1.936   2.203   0.836  1.2765 -2.4337 -1.3188
 6716SOL    MW426632   1.901   2.189   0.757 -0.3232 -0.6195 -1.0112
 6717SOL     OW26633   0.316   1.273   3.996 -0.3535  0.9584  0.6241
 6717SOL    HW226634   0.329   1.223   4.077  1.1143 -1.9117 -1.2384
 6717SOL    HW326635   0.236   1.238   3.958  0.7833 -0.2600 -0.7879
 6717SOL    MW426636   0.307   1.262   4.002 -0.0099  0.4189  0.1921
 6718SOL     OW26637   1.656   5.158   6.419 -0.5662 -0.0673  0.1221
 6718SOL    HW226638   1.609   5.080   6.390  0.5265 -1.2093  1.3092
 6718SOL    HW326639   1.679   5.203   6.337  0.4456 -1.9886 -0.7180
 6718SOL    MW426640   1.653   5.153   6.404 -0.2885 -0.4715  0.1679
 6719SOL     OW26641   1.341   1.297   4.531 -0.3494  0.1787 -0.3497
 6719SOL    HW226642   1.300   1.218   4.565  1.6328 -0.8599 -0.1872
 6719SOL    HW326643   1.334   1.289   4.436  2.6809 -1.9693 -0.5361
 6719SOL    MW426644   1.335   1.286   4.523  0.3119 -0.2417 -0.3529
 6720SOL     OW26645   1.648   3.475   0.681  0.3082  0.1323 -0.2521
 6720SOL    HW226646   1.696   3.482   0.763 -0.9275 -1.4733  0.6866
 6720SOL    HW326647   1.563   3.514   0.700  0.2123  0.2707 -0.9522
 6720SOL    MW426648   1.643   3.481   0.694  0.1325 -0.0613 -0.2207
 6721SOL     OW26649   4.522   2.244   1.941 -0.7321 -0.1922  0.0954
 6721SOL    HW226650   4.495   2.249   2.033  0.1410 -0.0757  0.3477
 6721SOL    HW326651   4.527   2.335   1.912  0.2534 -0.1639  0.3137
 6721SOL    MW426652   4.519   2.256   1.949 -0.4869 -0.1731  0.1575
 6722SOL     OW26653   3.902   1.572   3.929 -0.4436  0.0363  0.1982
 6722SOL    HW226654   3.886   1.655   3.973  1.1203  0.5581 -0.1400
 6722SOL    HW326655   3.937   1.515   3.997 -1.6529 -0.4172  0.4636
 6722SOL    MW426656   3.905   1.575   3.943 -0.3968  0.0453  0.1886
 6723SOL     OW26657   2.223   0.278   5.652  0.0985 -0.2484 -0.2305
 6723SOL    HW226658   2.203   0.313   5.739 -2.8495 -0.8097 -0.5892
 6723SOL    HW326659   2.244   0.355   5.600 -0.2070  0.3223  0.4645
 6723SOL    MW426660   2.223   0.293   5.657 -0.3307 -0.2472 -0.1862
 6724SOL     OW26661   3.140   0.798   3.950  0.1823 -0.1440 -0.6776
 6724SOL    HW226662   3.216   0.807   3.892  0.8099  0.3551  0.1937
 6724SOL    HW326663   3.069   0.771   3.893  0.3294  2.0663 -2.0162
 6724SOL    MW426664   3.141   0.795   3.935  0.2845  0.2135 -0.7393
 6725SOL     OW26665   5.815   4.683   3.612 -0.2254 -0.1269  0.1909
 6725SOL    HW226666   5.849   4.753   3.557  3.1999 -1.5073  0.3042
 6725SOL    HW326667   5.885   4.665   3.675 -2.4820 -1.1746  2.5904
 6725SOL    MW426668   5.828   4.690   3.613 -0.0712 -0.4473  0.5225
 6726SOL     OW26669   4.898   3.048   3.655 -0.7695 -0.0318  0.1818
 6726SOL    HW226670   4.952   3.120   3.686  1.5001 -0.7003 -1.9058
 6726SOL    HW326671   4.952   2.970   3.665 -1.5834 -0.8479 -1.3208
 6726SOL    MW426672   4.912   3.047   3.660 -0.5774 -0.2277 -0.2918
 6727SOL     OW26673   3.640   5.079   2.171  0.3726  0.4265 -0.2090
 6727SOL    HW226674   3.722   5.065   2.219  0.0073 -0.0902  0.2806
 6727SOL    HW326675   3.665   5.076   2.079  0.9322  0.4222 -0.0580
 6727SOL    MW426676   3.654   5.077   2.165  0.3982  0.3577 -0.1245
 6728SOL     OW26677   5.133   0.786   3.480 -0.1506  0.0921  0.0526
 6728SOL    HW226678   5.191   0.832   3.419  0.3836  0.3229  0.7230
 6728SOL    HW326679   5.086   0.855   3.526  0.1479 -0.0537  0.5790
 6728SOL    MW426680   5.134   0.801   3.478 -0.0407  0.1033  0.2105
 6729SOL     OW26681   6.398   4.623   1.444  0.4199 -0.1114  0.1808
 6729SOL    HW226682   6.416   4.584   1.530 -2.0063 -0.9947  0.3607
 6729SOL    HW326683   6.432   4.559   1.382  0.7735 -0.2258  0.4869
 6729SOL    MW426684   6.405   4.610   1.448  0.1465 -0.2431  0.2449
 6730SOL     OW26685   3.372   4.238   4.821  0.0286  0.7686  0.0185
 6730SOL    HW226686   3.440   4.192   4.869  0.0654  0.6202 -0.1776
 6730SOL    HW326687   3.371   4.197   4.734  0.4072  1.4671 -0.3266
 6730SOL    MW426688   3.381   4.227   4.816  0.0834  0.8412 -0.0529
 6731SOL     OW26689   4.095   1.360   0.185  0.3870 -0.1014 -0.1449
 6731SOL    HW226690   4.105   1.267   0.168  0.0978  0.2437 -2.7039
 6731SOL    HW326691   4.185   1.393   0.192  0.4845 -0.5906  1.1707
 6731SOL    MW426692   4.108   1.352   0.183  0.3617 -0.1204 -0.3089
 6732SOL     OW26693   1.594   0.593   0.773 -0.5253  0.2031  0.3760
 6732SOL    HW226694   1.651   0.570   0.846 -0.3559  1.7525  0.7707
 6732SOL    HW326695   1.520   0.637   0.813 -0.8496  0.3135 -0.3271
 6732SOL    MW426696   1.592   0.596   0.788 -0.5458  0.4220  0.3353
 6733SOL     OW26697   5.403   2.614   3.696 -0.4279 -0.3467 -0.0619
 6733SOL    HW226698   5.365   2.668   3.627 -1.3476  1.1536  1.5554
 6733SOL    HW326699   5.330   2.560   3.726  0.0671 -1.2803 -0.4840
 6733SOL    MW426700   5.389   2.614   3.691 -0.4839 -0.2720  0.0958
 6734SOL     OW26701   5.433   0.287   0.742  0.4569 -0.5211  0.0916
 6734SOL    HW226702   5.341   0.260   0.737  0.8284 -2.0853  1.1256
 6734SOL    HW326703   5.477   0.235   0.675  0.6818 -0.1149 -0.0829
 6734SOL    MW426704   5.427   0.277   0.733  0.5356 -0.6739  0.2050
 6735SOL     OW26705   2.547   2.786   1.801  0.3657  0.1987 -0.2815
 6735SOL    HW226706   2.571   2.833   1.722  1.4388  1.2212  0.6175
 6735SOL    HW326707   2.594   2.831   1.871 -1.3160 -0.0590  1.0788
 6735SOL    MW426708   2.556   2.798   1.800  0.2854  0.2996  0.0166
 6736SOL     OW26709   2.399   4.305   5.753 -0.7341  0.0542  0.5090
 6736SOL    HW226710   2.341   4.255   5.810 -0.5486 -1.4003 -0.5085
 6736SOL    HW326711   2.375   4.278   5.664  1.2837 -0.3834  0.0473
 6736SOL    MW426712   2.388   4.295   5.749 -0.4434 -0.1954  0.3139
 6737SOL     OW26713   0.554   0.828   0.796 -0.7797 -0.0596  0.1259
 6737SOL    HW226714   0.570   0.880   0.717  0.3082 -0.6343 -0.0574
 6737SOL    HW326715   0.464   0.849   0.821 -1.0105  0.4386 -1.0401
 6737SOL    MW426716   0.544   0.837   0.789 -0.6666 -0.0697 -0.0521
 6738SOL     OW26717   1.173   0.604   2.045  0.5565 -0.4349 -1.1626
 6738SOL    HW226718   1.224   0.551   1.983  2.3659 -1.4619  1.0310
 6738SOL    HW326719   1.238   0.660   2.087 -0.2944 -0.8896  0.8696
 6738SOL    MW426720   1.188   0.604   2.042  0.6830 -0.6304 -0.6050
 6739SOL     OW26721   6.294   5.313   0.215  0.0571 -0.4234 -0.0046
 6739SOL    HW226722   6.352   5.311   0.139  1.2690  0.5767  0.8520
 6739SOL    HW326723   6.351   5.295   0.290 -0.7780  0.3277  0.8437
 6739SOL    MW426724   6.309   5.310   0.215  0.1068 -0.1923  0.2204
 6740SOL     OW26725   4.937   3.247   4.982  0.2883  0.0354  0.1493
 6740SOL    HW226726   4.906   3.275   5.069 -0.7803  1.5173 -0.6627
 6740SOL    HW326727   4.972   3.327   4.943  2.1624 -0.9222 -0.2564
 6740SOL    MW426728   4.937   3.261   4.988  0.3946  0.1046 -0.0113
 6741SOL     OW26729   1.043   2.217   1.587 -0.0504  0.2898  0.2990
 6741SOL    HW226730   0.987   2.245   1.514  1.1161 -0.2850 -0.8574
 6741SOL    HW326731   1.029   2.284   1.654 -0.6191  1.2481 -0.7261
 6741SOL    MW426732   1.033   2.230   1.586  0.0285  0.3404  0.0112
 6742SOL     OW26733   1.670   4.612   3.430 -0.6308 -0.4275  0.3227
 6742SOL    HW226734   1.649   4.519   3.430 -0.3297 -0.4943  0.2888
 6742SOL    HW326735   1.731   4.622   3.357 -1.5428 -0.0141 -0.4130
 6742SOL    MW426736   1.675   4.601   3.420 -0.7114 -0.3818  0.2212
 6743SOL     OW26737   1.212   4.610   4.443 -0.0419  0.0773 -0.2559
 6743SOL    HW226738   1.156   4.678   4.482 -1.5721 -0.0614 -2.0894
 6743SOL    HW326739   1.240   4.647   4.359 -0.2399 -1.2351 -0.9199
 6743SOL    MW426740   1.208   4.624   4.437 -0.2699 -0.1141 -0.5854
 6744SOL     OW26741   1.297   2.891   3.325  0.2506 -0.5807  0.0309
 6744SOL    HW226742   1.202   2.904   3.324  0.3251 -0.0163 -0.5105
 6744SOL    HW326743   1.309   2.796   3.319 -0.2876 -0.7808  1.6757
 6744SOL    MW426744   1.286   2.880   3.324  0.1894 -0.5326  0.1765
 6745SOL     OW26745   6.092   0.816   2.957  0.3069 -0.8687 -0.3644
 6745SOL    HW226746   6.170   0.820   2.902  0.3756 -0.0948 -0.2209
 6745SOL    HW326747   6.019   0.816   2.895  0.4243 -2.0918 -0.5135
 6745SOL    MW426748   6.093   0.817   2.942  0.3315 -0.9279 -0.3652
 6746SOL     OW26749   5.160   4.858   3.689  0.1746  0.0015  0.3388
 6746SOL    HW226750   5.219   4.883   3.759 -0.0703  0.3932  0.4085
 6746SOL    HW326751   5.073   4.855   3.730  0.0952 -0.2252  0.1599
 6746SOL    MW426752   5.156   4.861   3.703  0.1318  0.0233  0.3244
 6747SOL     OW26753   2.706   5.241   4.414  0.3339 -0.5549 -0.4268
 6747SOL    HW226754   2.734   5.212   4.327 -0.7440  0.2413 -1.0675
 6747SOL    HW326755   2.655   5.321   4.397  0.7874  0.0622  1.0117
 6747SOL    MW426756   2.703   5.248   4.400  0.2515 -0.3684 -0.3215
 6748SOL     OW26757   3.559   0.861   6.067 -1.0307  0.1482 -0.1708
 6748SOL    HW226758   3.520   0.900   5.989  0.4340 -0.2598 -1.1486
 6748SOL    HW326759   3.523   0.772   6.070 -0.0438 -0.3219 -1.2261
 6748SOL    MW426760   3.549   0.854   6.057 -0.7072  0.0323 -0.4390
 6749SOL     OW26761   0.629   6.222   3.035 -0.0468 -0.0085  0.1133
 6749SOL    HW226762   0.666   6.245   2.950 -1.6640  0.5125 -0.4989
 6749SOL    HW326763   0.669   6.139   3.058  0.1280 -0.3559 -1.3542
 6749SOL    MW426764   0.639   6.214   3.027 -0.2371  0.0144 -0.1611
 6750SOL     OW26765   4.834   0.302   5.248 -0.3252  0.2339 -0.0726
 6750SOL    HW226766   4.883   0.352   5.313 -0.0209  0.0021 -0.1239
 6750SOL    HW326767   4.758   0.357   5.228 -0.2016  0.4941  0.1664
 6750SOL    MW426768   4.830   0.316   5.254 -0.2687  0.2376 -0.0479
 6751SOL     OW26769   2.418   2.644   1.442  0.7748  0.1779 -0.1854
 6751SOL    HW226770   2.470   2.725   1.440  1.4977 -0.1708 -4.2457
 6751SOL    HW326771   2.337   2.667   1.397 -0.7271 -0.5277  1.9751
 6751SOL    MW426772   2.414   2.658   1.436  0.6720  0.0388 -0.4361
 6752SOL     OW26773   3.106   0.499   2.353 -0.3942 -0.5558  0.7354
 6752SOL    HW226774   3.104   0.447   2.433  0.3930 -0.7437  0.6424
 6752SOL    HW326775   3.197   0.491   2.322 -0.5618 -0.0618  0.1092
 6752SOL    MW426776   3.118   0.491   2.359 -0.3125 -0.5154  0.6405
 6753SOL     OW26777   4.392   0.853   5.608  0.0411 -0.0542  0.4565
 6753SOL    HW226778   4.353   0.788   5.549 -2.1912  0.9350  0.7145
 6753SOL    HW326779   4.479   0.869   5.573  0.9220 -3.5809  0.7315
 6753SOL    MW426780   4.398   0.847   5.595 -0.1372 -0.3890  0.5268
 6754SOL     OW26781   1.479   1.494   1.228 -0.0022  0.4691 -0.4313
 6754SOL    HW226782   1.393   1.531   1.208 -0.0497  0.7274  0.2554
 6754SOL    HW326783   1.491   1.427   1.160 -1.1634 -0.2325  0.0150
 6754SOL    MW426784   1.469   1.490   1.216 -0.1617  0.4106 -0.2818
 6755SOL     OW26785   5.563   1.665   2.624 -0.6027 -0.0704 -0.1753
 6755SOL    HW226786   5.539   1.588   2.572  2.4062 -1.4196  0.2514
 6755SOL    HW326787   5.552   1.636   2.715 -0.7145  0.4689 -0.0119
 6755SOL    MW426788   5.558   1.651   2.629 -0.2205 -0.1773 -0.0975
 6756SOL     OW26789   5.436   1.228   2.105  0.0956  0.7340 -0.1502
 6756SOL    HW226790   5.429   1.264   2.016  1.0857  1.2002 -0.0521
 6756SOL    HW326791   5.529   1.231   2.124  0.2328 -1.8737 -0.1104
 6756SOL    MW426792   5.447   1.233   2.096  0.2443  0.4515 -0.1320
 6757SOL     OW26793   3.055   5.417   2.795 -0.1065  0.6736  0.4195
 6757SOL    HW226794   3.106   5.493   2.823  0.3063  0.6019 -0.1263
 6757SOL    HW326795   3.103   5.342   2.830  1.5037  0.4557 -2.0325
 6757SOL    MW426796   3.068   5.417   2.803  0.1604  0.6354  0.0240
 6758SOL     OW26797   5.869   5.519   3.310 -0.2039 -0.3121 -0.4298
 6758SOL    HW226798   5.844   5.444   3.363 -0.0801  0.3257  0.5677
 6758SOL    HW326799   5.796   5.581   3.321  0.5522  0.4713  0.3239
 6758SOL    MW426800   5.856   5.518   3.318 -0.0878 -0.1246 -0.1988
 6759SOL     OW26801   4.698   5.007   2.747 -0.2339 -0.4737 -0.8133
 6759SOL    HW226802   4.651   4.936   2.791 -2.0793  0.6713 -0.8084
 6759SOL    HW326803   4.653   5.017   2.663 -0.3145  0.9621 -0.6229
 6759SOL    MW426804   4.686   4.999   2.742 -0.4880 -0.1332 -0.7875
 6760SOL     OW26805   6.326   1.266   1.300 -0.5443  0.1803 -0.1980
 6760SOL    HW226806   6.408   1.267   1.350  0.3711  0.1662 -1.6513
 6760SOL    HW326807   6.309   1.173   1.285  0.0411  0.2242 -1.2341
 6760SOL    MW426808   6.334   1.254   1.305 -0.3463  0.1843 -0.5265
 6761SOL     OW26809   0.439   3.513   5.695 -0.4912 -0.0771  0.4099
 6761SOL    HW226810   0.485   3.594   5.677 -0.0365 -0.1918  1.0196
 6761SOL    HW326811   0.505   3.456   5.734 -0.7281 -0.8543 -0.3003
 6761SOL    MW426812   0.453   3.516   5.698 -0.4625 -0.1948  0.3967
 6762SOL     OW26813   5.812   5.299   3.498  0.2592  0.1447 -0.3005
 6762SOL    HW226814   5.761   5.232   3.453 -0.4988  0.7642 -0.3757
 6762SOL    HW326815   5.860   5.251   3.566  0.8076 -0.6789 -1.2368
 6762SOL    MW426816   5.812   5.284   3.501  0.2315  0.1178 -0.4340
 6763SOL     OW26817   4.015   2.467   4.441  0.5970  0.0708  0.0675
 6763SOL    HW226818   3.927   2.503   4.430  0.7221  0.4448  0.2688
 6763SOL    HW326819   4.010   2.379   4.404 -0.1311 -0.2910  0.9812
 6763SOL    MW426820   4.002   2.461   4.435  0.5174  0.0724  0.2146
 6764SOL     OW26821   1.331   2.910   5.792 -0.3141 -0.3503  0.2055
 6764SOL    HW226822   1.309   2.995   5.829 -0.9153  0.0070 -0.9415
 6764SOL    HW326823   1.353   2.928   5.701  0.5359 -1.2947  0.2088
 6764SOL    MW426824   1.331   2.923   5.785 -0.2813 -0.4278  0.0546
 6765SOL     OW26825   5.316   0.424   1.999 -0.3712  0.3818 -0.0124
 6765SOL    HW226826   5.229   0.413   2.036 -0.5434  0.4343 -0.3990
 6765SOL    HW326827   5.363   0.477   2.063 -0.9912  1.3683 -0.3465
 6765SOL    MW426828   5.311   0.429   2.012 -0.4757  0.5189 -0.1075
 6766SOL     OW26829   4.900   2.190   5.194 -0.1116 -0.8480 -0.2900
 6766SOL    HW226830   4.944   2.202   5.110  0.9753 -0.5301  0.2922
 6766SOL    HW326831   4.942   2.112   5.231 -1.8165 -2.0569 -0.7755
 6766SOL    MW426832   4.912   2.181   5.188 -0.1931 -0.9655 -0.2773
 6767SOL     OW26833   1.081   4.603   0.160  0.0031 -0.0118  0.5627
 6767SOL    HW226834   1.150   4.669   0.167 -0.7639  1.0818 -1.5597
 6767SOL    HW326835   1.000   4.653   0.151 -0.6128 -1.2021 -0.9518
 6767SOL    MW426836   1.080   4.618   0.160 -0.1794 -0.0245  0.0829
 6768SOL     OW26837   0.475   0.827   0.164 -0.3086  0.6545 -0.3592
 6768SOL    HW226838   0.554   0.882   0.166 -0.3918  0.7459  0.9164
 6768SOL    HW326839   0.479   0.776   0.245 -0.5218 -0.8474 -1.2600
 6768SOL    MW426840   0.486   0.828   0.175 -0.3477  0.4684 -0.3098
 6769SOL     OW26841   1.334   3.165   3.445  0.3581  0.1769  0.3176
 6769SOL    HW226842   1.339   3.070   3.433 -0.2788 -0.1987  2.5176
 6769SOL    HW326843   1.396   3.184   3.515  0.2324  1.3408  0.1428
 6769SOL    MW426844   1.343   3.155   3.453  0.2575  0.2809  0.5848
 6770SOL     OW26845   5.381   2.524   5.492  0.1958 -0.4986 -0.4077
 6770SOL    HW226846   5.409   2.613   5.513  1.8968 -1.5084  2.0997
 6770SOL    HW326847   5.292   2.517   5.527  0.8303 -0.3535  1.3192
 6770SOL    MW426848   5.373   2.535   5.500  0.5039 -0.6127  0.1509
 6771SOL     OW26849   6.277   1.070   2.606  0.5352 -1.5021  0.5844
 6771SOL    HW226850   6.199   1.025   2.573 -0.6627  0.4638  0.5402
 6771SOL    HW326851   6.263   1.075   2.701 -0.4770  0.6528  0.3732
 6771SOL    MW426852   6.265   1.065   2.614  0.2436 -0.9584  0.5507
 6772SOL     OW26853   3.801   1.116   3.010 -0.0761 -0.1979 -0.1866
 6772SOL    HW226854   3.888   1.155   2.998 -0.0766  0.1778  0.9077
 6772SOL    HW326855   3.773   1.093   2.922  0.1779  1.7810 -0.8437
 6772SOL    MW426856   3.808   1.118   2.997 -0.0427  0.1128 -0.1289
 6773SOL     OW26857   4.508   6.095   2.412 -0.0607 -0.8989 -0.2343
 6773SOL    HW226858   4.515   6.076   2.505 -1.0209  1.0361  0.2868
 6773SOL    HW326859   4.433   6.043   2.382 -0.4421 -0.6935  0.3421
 6773SOL    MW426860   4.499   6.086   2.420 -0.2377 -0.6165 -0.0895
 6774SOL     OW26861   3.027   3.877   1.819  0.1155  0.2239  0.3612
 6774SOL    HW226862   3.020   3.842   1.908  0.0218 -1.4050 -0.2584
 6774SOL    HW326863   3.007   3.970   1.829 -0.9245 -0.1167  1.9005
 6774SOL    MW426864   3.023   3.885   1.832 -0.0341 -0.0360  0.4826
 6775SOL     OW26865   3.993   0.364   5.480  0.6845  0.8962  0.2386
 6775SOL    HW226866   3.948   0.324   5.406 -0.6967  0.4797  1.2529
 6775SOL    HW326867   4.067   0.305   5.497 -1.1430 -1.1941  1.5081
 6775SOL    MW426868   3.997   0.351   5.473  0.2611  0.5655  0.5400
 6776SOL     OW26869   2.373   1.886   2.073  0.3658 -0.3747  0.5963
 6776SOL    HW226870   2.465   1.895   2.045  0.7786 -0.0005  2.0238
 6776SOL    HW326871   2.374   1.815   2.136  0.2203  1.4989  2.8228
 6776SOL    MW426872   2.386   1.878   2.077  0.4010 -0.0781  1.0784
 6777SOL     OW26873   4.916   1.019   1.799  0.2126 -0.0433 -0.1949
 6777SOL    HW226874   4.957   1.059   1.721 -1.9169 -0.6146 -1.7091
 6777SOL    HW326875   4.911   1.091   1.862  0.6236  0.8578 -1.1479
 6777SOL    MW426876   4.921   1.034   1.797 -0.0141  0.0002 -0.5204
 6778SOL     OW26877   0.907   4.577   4.293 -0.1885 -0.3135 -0.1070
 6778SOL    HW226878   0.830   4.595   4.346  0.2859 -0.0097  0.4907
 6778SOL    HW326879   0.882   4.502   4.239 -1.0805  0.1148 -0.3036
 6778SOL    MW426880   0.894   4.570   4.293 -0.2436 -0.2169 -0.0541
 6779SOL     OW26881   5.996   1.058   3.941  0.5180  0.2717  0.3725
 6779SOL    HW226882   5.901   1.056   3.955  0.6133  0.3841  1.0683
 6779SOL    HW326883   6.011   0.990   3.875 -0.2098  1.2698 -0.8595
 6779SOL    MW426884   5.985   1.049   3.934  0.4346  0.4182  0.3017
 6780SOL     OW26885   3.908   4.596   6.213  0.0297 -0.5246 -0.2041
 6780SOL    HW226886   3.950   4.552   6.286  1.3698 -0.1706 -0.7231
 6780SOL    HW326887   3.885   4.682   6.247  0.8147 -0.2936 -0.2277
 6780SOL    MW426888   3.911   4.601   6.227  0.3101 -0.4474 -0.2757
 6781SOL     OW26889   3.391   5.509   1.669 -0.2709  0.4341  0.1390
 6781SOL    HW226890   3.394   5.550   1.755  1.1833  0.5307  0.0675
 6781SOL    HW326891   3.426   5.575   1.609  0.1256 -0.1483 -0.2868
 6781SOL    MW426892   3.396   5.523   1.673 -0.0267  0.3700  0.0734
 6782SOL     OW26893   6.199   1.905   4.430 -0.2938  0.2919  0.7172
 6782SOL    HW226894   6.221   1.869   4.344  1.9282 -0.6628  1.5962
 6782SOL    HW326895   6.168   1.994   4.412 -2.7089 -0.8248 -1.2550
 6782SOL    MW426896   6.198   1.912   4.416 -0.3192  0.0186  0.5730
 6783SOL     OW26897   2.148   4.861   4.288 -0.7219  0.0202 -0.3604
 6783SOL    HW226898   2.198   4.780   4.297 -0.5355  0.0549 -1.0211
 6783SOL    HW326899   2.057   4.833   4.281 -0.4488 -0.4412 -3.9734
 6783SOL    MW426900   2.143   4.847   4.289 -0.6613 -0.0361 -0.9242
 6784SOL     OW26901   5.174   5.036   0.238  0.4379  0.3724 -0.2218
 6784SOL    HW226902   5.147   5.097   0.308 -2.2345 -0.4394 -0.4175
 6784SOL    HW326903   5.184   5.091   0.161  1.6223  1.0234  0.3643
 6784SOL    MW426904   5.171   5.051   0.237  0.2416  0.3512 -0.1703
 6785SOL     OW26905   0.481   5.036   0.197 -0.5262 -0.1993 -0.3576
 6785SOL    HW226906   0.571   5.067   0.205 -1.2280  1.9967 -0.2016
 6785SOL    HW326907   0.476   4.961   0.256  0.9854  0.1864  0.3122
 6785SOL    MW426908   0.492   5.031   0.206 -0.4194  0.1413 -0.2486
 6786SOL     OW26909   4.679   0.704   3.453  0.1031  0.1934  0.0352
 6786SOL    HW226910   4.613   0.643   3.486 -0.0110 -0.0149 -0.5676
 6786SOL    HW326911   4.711   0.750   3.531  0.4079 -0.8407  0.5365
 6786SOL    MW426912   4.675   0.702   3.468  0.1282  0.0295  0.0218
 6787SOL     OW26913   1.305   3.669   1.256 -0.2436  0.4980 -0.6793
 6787SOL    HW226914   1.352   3.692   1.337 -0.2983  0.6414 -0.6884
 6787SOL    HW326915   1.360   3.704   1.186 -0.3488  0.6393 -0.6913
 6787SOL    MW426916   1.319   3.676   1.258 -0.2647  0.5356 -0.6821
 6788SOL     OW26917   3.668   4.351   2.253  0.2385 -0.1618  0.1097
 6788SOL    HW226918   3.692   4.264   2.286  0.0642 -0.3623 -0.2792
 6788SOL    HW326919   3.587   4.336   2.204  1.4290 -0.2478 -1.9851
 6788SOL    MW426920   3.661   4.337   2.251  0.3726 -0.1996 -0.2180
 6789SOL     OW26921   3.733   5.154   6.253 -0.0368  0.0231  0.4723
 6789SOL    HW226922   3.678   5.086   6.290 -0.4633  0.1148  0.0194
 6789SOL    HW326923   3.796   5.107   6.198 -1.4524  0.0812 -1.2788
 6789SOL    MW426924   3.734   5.139   6.250 -0.2798  0.0429  0.1815
 6790SOL     OW26925   4.916   3.438   6.430  0.1675  0.0618 -0.6008
 6790SOL    HW226926   4.916   3.523   6.473  2.7389  0.2871 -0.8613
 6790SOL    HW326927   4.990   3.442   6.369  0.5975 -2.4598 -0.3722
 6790SOL    MW426928   4.926   3.450   6.427  0.5635 -0.2412 -0.6050
 6791SOL     OW26929   0.720   3.381   1.098 -0.2315 -1.1161 -0.1778
 6791SOL    HW226930   0.740   3.448   1.164 -1.5269 -1.2358  0.3743
 6791SOL    HW326931   0.792   3.319   1.105  0.9098  0.1186 -0.5839
 6791SOL    MW426932   0.732   3.382   1.108 -0.2518 -0.9690 -0.1585
 6792SOL     OW26933   1.288   3.291   2.949 -0.3471  0.2924 -0.2212
 6792SOL    HW226934   1.265   3.199   2.943 -0.4902  0.1391  1.8865
 6792SOL    HW326935   1.280   3.324   2.859 -1.8017 -1.3690 -0.7583
 6792SOL    MW426936   1.284   3.284   2.936 -0.5579  0.0529 -0.0140
 6793SOL     OW26937   2.173   4.450   2.829  0.3739  0.4144 -0.3414
 6793SOL    HW226938   2.091   4.400   2.818  0.9053 -0.3135 -1.1218
 6793SOL    HW326939   2.174   4.473   2.922  0.0141 -0.8958  0.0102
 6793SOL    MW426940   2.162   4.446   2.840  0.3965  0.1455 -0.3979
 6794SOL     OW26941   2.646   5.447   5.000  0.2491  0.0141 -0.1310
 6794SOL    HW226942   2.587   5.434   5.073  0.1321  0.6943 -0.0943
 6794SOL    HW326943   2.674   5.359   4.975 -2.0780 -0.4907 -1.2253
 6794SOL    MW426944   2.642   5.434   5.006 -0.0734  0.0372 -0.2705
 6795SOL     OW26945   1.323   2.536   5.862  0.2265  0.2909 -0.8107
 6795SOL    HW226946   1.262   2.610   5.863  0.5696  0.5733 -0.5032
 6795SOL    HW326947   1.396   2.566   5.809  0.5431  0.3153 -0.3636
 6795SOL    MW426948   1.324   2.550   5.855  0.3136  0.3314 -0.7112
 6796SOL     OW26949   5.581   5.315   1.690  0.1131  0.2441 -0.2811
 6796SOL    HW226950   5.584   5.410   1.679  1.1379  0.0688 -1.7979
 6796SOL    HW326951   5.622   5.280   1.611  0.1684 -1.4574  0.4540
 6796SOL    MW426952   5.587   5.323   1.678  0.2556 -0.0035 -0.3842
 6797SOL     OW26953   5.883   1.749   5.585 -0.2041  0.6929  0.2447
 6797SOL    HW226954   5.885   1.713   5.496  1.0166  1.0181  0.1177
 6797SOL    HW326955   5.815   1.816   5.582 -0.0065  0.8766 -0.5356
 6797SOL    MW426956   5.874   1.753   5.573 -0.0170  0.7601  0.1250
 6798SOL     OW26957   0.983   6.122   3.596 -0.1694 -0.3688 -0.0856
 6798SOL    HW226958   0.974   6.069   3.676 -0.1446  0.2652  0.3415
 6798SOL    HW326959   0.894   6.130   3.563 -0.3021  0.1445  0.3879
 6798SOL    MW426960   0.970   6.116   3.602 -0.1837 -0.2174  0.0332
 6799SOL     OW26961   3.727   0.384   4.133 -0.1276  0.5451 -0.0170
 6799SOL    HW226962   3.649   0.343   4.097 -0.5498  0.1061  1.3471
 6799SOL    HW326963   3.708   0.395   4.226  1.0647  1.3059  0.1569
 6799SOL    MW426964   3.714   0.380   4.140 -0.0260  0.5875  0.1859
 6800SOL     OW26965   0.848   3.519   0.261 -0.2432 -0.0741 -0.5123
 6800SOL    HW226966   0.860   3.603   0.217 -2.7429  0.2193 -0.7706
 6800SOL    HW326967   0.789   3.470   0.204  1.2672 -2.1377 -0.4605
 6800SOL    MW426968   0.842   3.524   0.248 -0.3737 -0.3077 -0.5396
 6801SOL     OW26969   5.757   5.074   5.292  0.2814  0.5902  0.4560
 6801SOL    HW226970   5.729   5.119   5.371 -1.2965  2.2846 -0.9741
 6801SOL    HW326971   5.791   5.143   5.235  2.1498 -0.6943 -0.0873
 6801SOL    MW426972   5.758   5.089   5.295  0.3197  0.6443  0.1956
 6802SOL     OW26973   2.597   1.772   4.845  0.3761 -0.4384 -0.0928
 6802SOL    HW226974   2.551   1.754   4.763 -0.1761  0.6364 -0.0390
 6802SOL    HW326975   2.602   1.687   4.889 -0.0651 -0.8712 -0.8575
 6802SOL    MW426976   2.592   1.758   4.840  0.2451 -0.3537 -0.1866
 6803SOL     OW26977   4.080   3.564   0.034 -0.0978  0.6471 -0.3019
 6803SOL    HW226978   4.084   3.579  -0.061  0.9040 -2.3522 -0.8378
 6803SOL    HW326979   4.057   3.649   0.070 -2.0539  1.5957 -3.3440
 6803SOL    MW426980   4.077   3.577   0.026 -0.2237  0.3766 -0.7739
 6804SOL     OW26981   1.475   3.410   1.061  0.7512 -0.2999 -0.0816
 6804SOL    HW226982   1.468   3.506   1.068  0.1639 -0.4103  1.0864
 6804SOL    HW326983   1.391   3.383   1.023  0.9551 -0.3557 -0.5025
 6804SOL    MW426984   1.463   3.419   1.057  0.7006 -0.3218  0.0169
 6805SOL     OW26985   3.557   4.081   4.965 -0.3186  0.0430 -0.1404
 6805SOL    HW226986   3.518   4.011   4.912  0.5204 -0.1875 -0.4714
 6805SOL    HW326987   3.516   4.072   5.050 -0.1938 -0.8898 -0.1668
 6805SOL    MW426988   3.546   4.071   4.969 -0.1915 -0.1105 -0.1876
 6806SOL     OW26989   3.997   0.331   2.144 -0.2219 -1.0671  0.0027
 6806SOL    HW226990   3.911   0.304   2.110 -0.8440  0.3715  0.3495
 6806SOL    HW326991   4.009   0.277   2.223 -0.2954 -2.0449 -0.6343
 6806SOL    MW426992   3.987   0.320   2.150 -0.3137 -1.0063 -0.0356
 6807SOL     OW26993   1.224   6.099   3.418  0.4381 -0.5049 -0.0923
 6807SOL    HW226994   1.308   6.097   3.463  0.2777  0.7650  0.2842
 6807SOL    HW326995   1.158   6.096   3.488  0.1898  1.3718 -0.2016
 6807SOL    MW426996   1.226   6.098   3.433  0.3842 -0.0897 -0.0571
 6808SOL     OW26997   3.763   5.919   3.931  0.7937 -0.3746  0.5157
 6808SOL    HW226998   3.693   5.957   3.983  0.3244 -0.3551 -0.1276
 6808SOL    HW326999   3.776   5.980   3.859 -1.2233 -2.2483 -1.5828
 6808SOL    MW427000   3.756   5.932   3.928  0.4656 -0.6192  0.1539
 6809SOL     OW27001   1.515   3.337   1.336  0.2077  0.1868  0.6157
 6809SOL    HW227002   1.450   3.367   1.400  0.4439  2.1218  0.0095
 6809SOL    HW327003   1.475   3.354   1.251 -0.0116 -2.1556  0.1844
 6809SOL    MW427004   1.501   3.343   1.333  0.2099  0.1330  0.4788
 6810SOL     OW27005   0.059   5.368   5.763  0.1140 -0.5636 -0.3675
 6810SOL    HW227006   0.121   5.329   5.701  1.5331  1.1720 -0.0931
 6810SOL    HW327007   0.027   5.294   5.815  1.6972 -1.5400 -0.7360
 6810SOL    MW427008   0.063   5.353   5.761  0.5101 -0.4634 -0.3799
 6811SOL     OW27009   1.984   2.897   3.136  0.4886  0.1142 -0.8620
 6811SOL    HW227010   1.892   2.873   3.145  0.7081 -0.2074  1.0235
 6811SOL    HW327011   1.985   2.967   3.071 -1.5597  2.4909  1.4642
 6811SOL    MW427012   1.972   2.903   3.129  0.2473  0.3853 -0.3063
 6812SOL     OW27013   1.241   0.073   0.931 -0.1773 -0.1674 -0.1858
 6812SOL    HW227014   1.210   0.149   0.882  0.8305 -0.9683 -2.2008
 6812SOL    HW327015   1.162   0.028   0.960 -0.8211  0.4066 -1.0068
 6812SOL    MW427016   1.227   0.077   0.928 -0.1293 -0.1973 -0.5600
 6813SOL     OW27017   0.844   2.261   0.204 -0.2800  0.0300  0.7878
 6813SOL    HW227018   0.927   2.273   0.158 -0.5437 -0.6562  0.1058
 6813SOL    HW327019   0.842   2.331   0.268  0.8684  0.0151  0.8725
 6813SOL    MW427020   0.855   2.272   0.206 -0.1632 -0.0625  0.7090
 6814SOL     OW27021   1.358   2.332   3.235 -0.4213 -0.1897 -0.3104
 6814SOL    HW227022   1.336   2.344   3.327 -2.4041 -1.0570 -0.6247
 6814SOL    HW327023   1.451   2.310   3.236  0.2418  2.2493  1.2383
 6814SOL    MW427024   1.367   2.330   3.247 -0.5954  0.0176 -0.1476
 6815SOL     OW27025   3.017   2.206   4.929 -0.2711  0.3356  0.4800
 6815SOL    HW227026   3.070   2.162   4.863  0.2925  0.9027  0.5475
 6815SOL    HW327027   3.061   2.188   5.012  0.5025  1.7867  0.4101
 6815SOL    MW427028   3.030   2.198   4.931 -0.0947  0.6019  0.4797
 6816SOL     OW27029   2.323   3.380   5.239 -0.5646  0.3532 -0.2526
 6816SOL    HW227030   2.283   3.313   5.294  0.9450 -0.9946 -0.6890
 6816SOL    HW327031   2.321   3.460   5.291  0.2398 -0.7287  1.5319
 6816SOL    MW427032   2.318   3.381   5.253 -0.2593  0.0326 -0.0747
 6817SOL     OW27033   6.099   0.030   4.421  0.1577 -0.1069  0.7458
 6817SOL    HW227034   6.104  -0.006   4.332 -0.8247  0.4851  0.4356
 6817SOL    HW327035   6.064   0.118   4.409 -1.9824 -0.7370  1.8634
 6817SOL    MW427036   6.095   0.037   4.407 -0.2543 -0.1119  0.8523
 6818SOL     OW27037   1.953   3.061   1.454  0.1639 -0.1115  0.3896
 6818SOL    HW227038   2.009   3.032   1.526 -0.3481 -1.7774  0.1610
 6818SOL    HW327039   1.911   2.981   1.423 -0.7772  0.8043 -0.7820
 6818SOL    MW427040   1.955   3.046   1.459 -0.0278 -0.2105  0.2049
 6819SOL     OW27041   4.440   3.735   2.272  0.2914  0.1769 -0.9785
 6819SOL    HW227042   4.526   3.692   2.269  1.2607  1.9410 -0.5600
 6819SOL    HW327043   4.405   3.713   2.358  0.9387  0.4877 -0.6258
 6819SOL    MW427044   4.447   3.727   2.283  0.5047  0.4506 -0.8767
 6820SOL     OW27045   3.984   0.594   4.749  0.8491  0.3882 -0.1555
 6820SOL    HW227046   4.079   0.592   4.737  0.5862  1.4301 -3.3309
 6820SOL    HW327047   3.964   0.511   4.794  3.0439 -1.0468 -1.6276
 6820SOL    MW427048   3.994   0.583   4.753  1.1040  0.3364 -0.7687
 6821SOL     OW27049   2.947   2.432   2.706 -0.2740  0.4046  0.3184
 6821SOL    HW227050   2.867   2.479   2.732 -3.5320 -2.5906 -3.0895
 6821SOL    HW327051   2.938   2.345   2.746  0.1461 -0.6458 -1.7330
 6821SOL    MW427052   2.935   2.427   2.715 -0.6484 -0.1292 -0.4019
 6822SOL     OW27053   1.228   5.759   2.816 -0.6373 -0.1052  0.0754
 6822SOL    HW227054   1.172   5.725   2.885 -0.6742 -1.0596 -0.4131
 6822SOL    HW327055   1.262   5.682   2.771  0.1212  0.4802 -0.3952
 6822SOL    MW427056   1.225   5.745   2.819 -0.5421 -0.1539 -0.0512
 6823SOL     OW27057   2.767   3.740   3.310  0.2745  0.0493 -0.1744
 6823SOL    HW227058   2.823   3.785   3.248 -0.3887  0.4494 -0.4922
 6823SOL    HW327059   2.827   3.702   3.374  0.8357  1.6636  0.3036
 6823SOL    MW427060   2.782   3.741   3.310  0.2611  0.3151 -0.1533
 6824SOL     OW27061   6.382   3.999   2.842 -0.4040  0.3622 -0.0540
 6824SOL    HW227062   6.288   4.002   2.828 -0.6074 -0.8565  0.9072
 6824SOL    HW327063   6.416   4.078   2.799 -1.8766  0.9318 -0.2010
 6824SOL    MW427064   6.374   4.010   2.835 -0.6251  0.2766  0.0534
 6825SOL     OW27065   2.268   2.592   0.007 -0.4218 -0.2875  0.6096
 6825SOL    HW227066   2.266   2.508  -0.040 -0.4667 -1.5526  2.7755
 6825SOL    HW327067   2.319   2.575   0.086 -2.8022  0.9324  2.5291
 6825SOL    MW427068   2.275   2.579   0.011 -0.7418 -0.2935  1.1486
 6826SOL     OW27069   3.404   1.974   2.169  0.1171  0.2274 -0.1335
 6826SOL    HW227070   3.440   2.046   2.117 -0.8948  0.2729 -0.7993
 6826SOL    HW327071   3.326   1.947   2.121  2.3201 -3.7173 -1.9550
 6826SOL    MW427072   3.398   1.980   2.155  0.2742 -0.2870 -0.4617
 6827SOL     OW27073   1.710   0.053   5.072 -0.1634 -0.3859  0.0893
 6827SOL    HW227074   1.712  -0.033   5.029  0.6712 -0.9294  1.1810
 6827SOL    HW327075   1.639   0.045   5.136 -0.2014 -0.2028  0.0686
 6827SOL    MW427076   1.701   0.040   5.075 -0.0583 -0.4334  0.2306
 6828SOL     OW27077   1.733   1.068   5.397 -0.3686  0.4042  0.1240
 6828SOL    HW227078   1.784   1.000   5.354  0.5774  1.6422 -0.7839
 6828SOL    HW327079   1.717   1.034   5.485 -1.0398 -1.5272 -0.6978
 6828SOL    MW427080   1.738   1.055   5.403 -0.3324  0.3127 -0.1042
 6829SOL     OW27081   2.607   5.257   1.487 -0.0781  0.3425  0.3932
 6829SOL    HW227082   2.688   5.212   1.510  0.3795  2.0900  2.6019
 6829SOL    HW327083   2.599   5.326   1.553 -1.7591  2.1986 -1.6104
 6829SOL    MW427084   2.616   5.260   1.499 -0.2395  0.8179  0.4203
 6830SOL     OW27085   0.130   3.076   3.170 -0.1836 -0.5817 -0.3898
 6830SOL    HW227086   0.222   3.070   3.142  0.1276 -0.1947  0.5383
 6830SOL    HW327087   0.109   2.988   3.202 -0.0666 -0.6084 -0.3853
 6830SOL    MW427088   0.140   3.064   3.170 -0.1271 -0.5341 -0.2668
 6831SOL     OW27089   2.014   2.433   1.456  0.2022  0.4938  0.9503
 6831SOL    HW227090   2.055   2.503   1.405  0.9514  0.3012  1.2702
 6831SOL    HW327091   2.087   2.379   1.485 -0.3493 -0.2816  0.9192
 6831SOL    MW427092   2.029   2.435   1.453  0.2283  0.3661  0.9884
 6832SOL     OW27093   4.634   1.308   5.459  0.0462  0.3669 -0.2222
 6832SOL    HW227094   4.578   1.235   5.485 -0.7542  1.0754  0.0580
 6832SOL    HW327095   4.718   1.289   5.500 -0.0288 -0.6058 -0.4877
 6832SOL    MW427096   4.638   1.296   5.468 -0.0693  0.3320 -0.2203
 6833SOL     OW27097   3.574   1.380   1.957  0.1631  0.0352  0.1294
 6833SOL    HW227098   3.479   1.376   1.950  0.1068 -0.0990  0.9115
 6833SOL    HW327099   3.593   1.355   2.048  1.0446 -1.4586 -0.4352
 6833SOL    MW427100   3.564   1.376   1.968  0.2720 -0.1796  0.1581
 6834SOL     OW27101   1.511   2.939   3.101  0.2882 -0.1740 -0.4696
 6834SOL    HW227102   1.554   2.931   3.016 -0.8788  3.8109 -1.6339
 6834SOL    HW327103   1.418   2.947   3.080 -0.0966  0.1737  1.2324
 6834SOL    MW427104   1.505   2.939   3.087  0.0835  0.3977 -0.3986
 6835SOL     OW27105   2.697   4.517   6.427  0.5955 -0.9050 -0.0157
 6835SOL    HW227106   2.618   4.471   6.454  0.0919  0.3406  0.6840
 6835SOL    HW327107   2.699   4.596   6.480  3.2764 -1.7574  1.3720
 6835SOL    MW427108   2.687   4.521   6.438  0.8828 -0.8532  0.2597
 6836SOL     OW27109   2.332   3.654   3.151  0.1949  0.1429 -0.5482
 6836SOL    HW227110   2.264   3.721   3.141  0.5746  0.4632 -1.0572
 6836SOL    HW327111   2.318   3.618   3.239 -0.8473 -0.0440 -0.7818
 6836SOL    MW427112   2.321   3.658   3.162  0.1075  0.1605 -0.6462
 6837SOL     OW27113   3.200   4.862   2.885 -0.2544 -0.1890  0.0399
 6837SOL    HW227114   3.283   4.889   2.922 -0.1893  1.1778 -1.0154
 6837SOL    HW327115   3.160   4.807   2.952 -0.4990  2.7274  2.5274
 6837SOL    MW427116   3.205   4.859   2.899 -0.2781  0.3761  0.2289
 6838SOL     OW27117   3.395   1.642   2.156  0.3187 -0.5591 -0.5309
 6838SOL    HW227118   3.326   1.653   2.220  1.1170  0.6950  0.1524
 6838SOL    HW327119   3.357   1.586   2.089 -1.6712  0.8375 -0.6512
 6838SOL    MW427120   3.381   1.636   2.156  0.1615 -0.2093 -0.4566
 6839SOL     OW27121   2.235   0.444   3.178 -0.5169 -0.0528 -0.8689
 6839SOL    HW227122   2.246   0.376   3.244 -1.1979  0.9831  0.3452
 6839SOL    HW327123   2.141   0.459   3.173 -0.5136 -0.3115 -2.3153
 6839SOL    MW427124   2.224   0.437   3.186 -0.6063  0.0497 -0.8995
 6840SOL     OW27125   4.616   4.357   1.043 -0.2166  0.6675 -0.0371
 6840SOL    HW227126   4.624   4.404   0.960  1.2251  0.4229 -0.0635
 6840SOL    HW327127   4.680   4.399   1.100  0.6813 -0.8370  0.1235
 6840SOL    MW427128   4.625   4.368   1.039  0.0921  0.4367 -0.0194
 6841SOL     OW27129   6.124   2.127   0.571 -0.4851 -1.0685  0.0325
 6841SOL    HW227130   6.074   2.164   0.498  0.0393 -1.9062 -0.7749
 6841SOL    HW327131   6.079   2.045   0.592  0.0507 -1.4102 -0.1342
 6841SOL    MW427132   6.111   2.121   0.564 -0.3452 -1.2241 -0.0960
 6842SOL     OW27133   5.548   3.458   1.395  0.6505 -0.2439  0.2637
 6842SOL    HW227134   5.619   3.474   1.458  0.1415 -0.1218  0.8117
 6842SOL    HW327135   5.554   3.532   1.334  1.0719 -0.3011  0.2300
 6842SOL    MW427136   5.558   3.470   1.395  0.6389 -0.2354  0.3316
 6843SOL     OW27137   4.265   6.259   4.263 -0.1760  0.4793  0.2340
 6843SOL    HW227138   4.203   6.239   4.334  0.4489  0.4329  0.7706
 6843SOL    HW327139   4.220   6.229   4.184 -1.4800  1.7966  0.4319
 6843SOL    MW427140   4.251   6.252   4.262 -0.2656  0.6470  0.3309
 6844SOL     OW27141   6.267   0.353   0.063  0.9255 -0.1078 -0.2651
 6844SOL    HW227142   6.229   0.277   0.019  2.5907 -0.8567 -0.4966
 6844SOL    HW327143   6.195   0.391   0.113 -0.0779 -1.5071 -0.5984
 6844SOL    MW427144   6.253   0.348   0.064  1.0128 -0.3912 -0.3396
 6845SOL     OW27145   6.000   3.760   2.680  0.3081 -0.4115  1.0573
 6845SOL    HW227146   6.045   3.738   2.598  0.6345 -2.9964  1.8381
 6845SOL    HW327147   6.048   3.836   2.714 -0.0746  0.9545 -1.2668
 6845SOL    MW427148   6.013   3.767   2.674  0.3007 -0.5723  0.8537
 6846SOL     OW27149   0.999   2.564   1.595 -0.4956  0.2927  0.1302
 6846SOL    HW227150   0.965   2.568   1.505 -0.3844 -0.3527  0.0510
 6846SOL    HW327151   1.007   2.655   1.622 -1.6265  0.4710 -0.0983
 6846SOL    MW427152   0.996   2.576   1.586 -0.6301  0.2311  0.0896
 6847SOL     OW27153   0.213   2.012   6.024  0.7249  0.1333  0.0735
 6847SOL    HW227154   0.292   1.959   6.010  1.5509  0.8988  1.5631
 6847SOL    HW327155   0.246   2.099   6.046 -0.5920  0.8909 -0.8491
 6847SOL    MW427156   0.228   2.016   6.025  0.6602  0.3343  0.1483
 6848SOL     OW27157   6.057   1.431   1.793 -0.1568  0.2364  0.0941
 6848SOL    HW227158   6.085   1.486   1.719 -0.3483  1.7146  1.0730
 6848SOL    HW327159   5.961   1.437   1.792 -0.1278  0.8917  0.9113
 6848SOL    MW427160   6.048   1.439   1.783 -0.1782  0.5179  0.3311
 6849SOL     OW27161   6.281   4.164   4.861 -0.4291 -0.4964  0.0670
 6849SOL    HW227162   6.237   4.221   4.924  0.6675  2.0480 -1.3510
 6849SOL    HW327163   6.220   4.157   4.788 -0.3784 -0.7773  0.0503
 6849SOL    MW427164   6.267   4.171   4.860 -0.2777 -0.1978 -0.1223
 6850SOL     OW27165   3.991   2.926   1.853  0.0104 -0.2891  0.1013
 6850SOL    HW227166   3.989   2.831   1.867 -0.1296 -0.3014 -0.0011
 6850SOL    HW327167   4.011   2.963   1.939 -2.0838 -0.2901  0.6547
 6850SOL    MW427168   3.993   2.918   1.866 -0.2844 -0.2908  0.1608
 6851SOL     OW27169   3.665   0.404   4.836 -0.3124 -0.3236  0.2243
 6851SOL    HW227170   3.649   0.445   4.920  0.6588  0.8719 -0.1388
 6851SOL    HW327171   3.589   0.349   4.820 -1.4272  0.9627  0.9724
 6851SOL    MW427172   3.653   0.402   4.845 -0.3314  0.0038  0.2751
 6852SOL     OW27173   4.266   4.640   1.476 -0.1315  0.7464 -0.0004
 6852SOL    HW227174   4.179   4.628   1.514 -0.0475 -0.5818 -0.1771
 6852SOL    HW327175   4.289   4.731   1.497 -0.3487  0.2846  2.5699
 6852SOL    MW427176   4.258   4.650   1.484 -0.1491  0.5102  0.3154
 6853SOL     OW27177   4.448   2.640   4.264 -0.2337 -0.6937  0.6943
 6853SOL    HW227178   4.367   2.635   4.314 -0.3394 -0.3900  0.5503
 6853SOL    HW327179   4.438   2.574   4.195  0.2198 -1.6486  1.5123
 6853SOL    MW427180   4.436   2.630   4.261 -0.1878 -0.7796  0.7832
 6854SOL     OW27181   5.895   4.183   4.450 -0.2506 -0.5111  0.5630
 6854SOL    HW227182   5.810   4.220   4.477  0.0774  0.0317  0.8734
 6854SOL    HW327183   5.872   4.107   4.397 -0.9256 -1.3916  2.0528
 6854SOL    MW427184   5.881   4.178   4.446 -0.2964 -0.5557  0.8005
 6855SOL     OW27185   2.795   1.871   1.737 -0.3884  0.0512  0.1186
 6855SOL    HW227186   2.874   1.824   1.763 -0.1747 -0.6727 -1.7281
 6855SOL    HW327187   2.815   1.909   1.652 -2.2601 -0.7912 -0.7681
 6855SOL    MW427188   2.808   1.870   1.729 -0.6072 -0.1555 -0.2421
 6856SOL     OW27189   0.840   2.308   1.409 -0.0707  0.0331 -0.4934
 6856SOL    HW227190   0.842   2.330   1.316 -1.9388 -0.8371 -0.7921
 6856SOL    HW327191   0.762   2.354   1.442  0.1627 -0.2432  0.4829
 6856SOL    MW427192   0.830   2.317   1.401 -0.2864 -0.1181 -0.4040
 6857SOL     OW27193   2.221   1.043   6.068 -0.0014  0.1908  0.2097
 6857SOL    HW227194   2.163   1.017   6.140 -0.8952  1.5305  0.0031
 6857SOL    HW327195   2.182   1.005   5.990  1.1639 -1.5648  0.4350
 6857SOL    MW427196   2.209   1.035   6.067  0.0344  0.1359  0.2121
 6858SOL     OW27197   2.968   5.110   5.881  0.7882 -0.2828  0.0191
 6858SOL    HW227198   3.035   5.131   5.946  1.6245 -0.8205 -0.6377
 6858SOL    HW327199   3.018   5.084   5.804 -0.1786 -2.0866 -0.0380
 6858SOL    MW427200   2.983   5.110   5.879  0.7710 -0.5917 -0.0751
 6859SOL     OW27201   0.894   2.608   0.826 -0.4840  0.4992 -0.1801
 6859SOL    HW227202   0.988   2.620   0.811 -0.7274  0.9347 -1.5169
 6859SOL    HW327203   0.872   2.673   0.893  0.2137  0.1753  0.3766
 6859SOL    MW427204   0.903   2.618   0.833 -0.4241  0.5139 -0.2830
 6860SOL     OW27205   5.148   4.483   2.991  0.9829 -0.1232  0.5821
 6860SOL    HW227206   5.212   4.420   2.959  0.5465 -0.7322  0.8961
 6860SOL    HW327207   5.129   4.539   2.915  1.0294 -0.6462  0.1835
 6860SOL    MW427208   5.154   4.482   2.977  0.9315 -0.2725  0.5710
 6861SOL     OW27209   0.816   2.048   4.467  0.2236 -0.1747 -0.1112
 6861SOL    HW227210   0.884   2.092   4.519  1.8503 -1.2391 -1.2453
 6861SOL    HW327211   0.864   1.988   4.411 -1.6925 -0.9936 -0.9575
 6861SOL    MW427212   0.831   2.046   4.467  0.1854 -0.4232 -0.3725
 6862SOL     OW27213   2.323   2.120   4.379 -0.0916  0.2443  0.4369
 6862SOL    HW227214   2.365   2.081   4.456 -2.1409 -1.0958  0.9628
 6862SOL    HW327215   2.300   2.209   4.406  0.6605  0.3386  0.7921
 6862SOL    MW427216   2.326   2.126   4.393 -0.2628  0.0800  0.5532
 6863SOL     OW27217   0.585   4.818   5.375  0.2069  0.0614  0.0186
 6863SOL    HW227218   0.621   4.836   5.462  0.1754  0.1182  0.0196
 6863SOL    HW327219   0.660   4.822   5.316  0.3160 -0.4802  0.1100
 6863SOL    MW427220   0.599   4.821   5.379  0.2171 -0.0026  0.0308
 6864SOL     OW27221   0.254   5.889   1.220 -0.5067 -0.1659 -0.2573
 6864SOL    HW227222   0.178   5.850   1.264  0.1807  0.4529  1.5914
 6864SOL    HW327223   0.318   5.900   1.290  0.3128  1.7925 -1.2573
 6864SOL    MW427224   0.252   5.885   1.235 -0.3079  0.1741 -0.1453
 6865SOL     OW27225   5.409   4.202   5.873 -1.1706  0.1596 -0.2648
 6865SOL    HW227226   5.341   4.150   5.918 -0.5620 -0.6524 -0.2578
 6865SOL    HW327227   5.450   4.253   5.942 -0.9529 -0.2815 -0.0637
 6865SOL    MW427228   5.405   4.202   5.888 -1.0615 -0.0058 -0.2374
 6866SOL     OW27229   0.881   4.993   4.615 -0.7942 -0.6024 -0.3635
 6866SOL    HW227230   0.823   4.957   4.682  0.6607 -0.5717  0.9572
 6866SOL    HW327231   0.931   4.918   4.583  0.0376 -0.2871  0.1593
 6866SOL    MW427232   0.880   4.979   4.619 -0.4925 -0.5568 -0.1203
 6867SOL     OW27233   3.154   5.668   2.886 -0.4824  0.6374  0.8343
 6867SOL    HW227234   3.091   5.740   2.894  0.6164  1.7080  0.2356
 6867SOL    HW327235   3.234   5.710   2.855  0.3828 -0.7675  1.0783
 6867SOL    MW427236   3.156   5.683   2.883 -0.2232  0.5933  0.7875
 6868SOL     OW27237   0.446   5.694   4.628  0.3913  0.2944  0.1690
 6868SOL    HW227238   0.410   5.606   4.626  1.9285 -0.3745  0.2716
 6868SOL    HW327239   0.464   5.714   4.536  2.4935 -0.6050  0.3334
 6868SOL    MW427240   0.444   5.685   4.616  0.8715  0.0874  0.2043
 6869SOL     OW27241   0.257   6.308   4.635  0.2320  0.2838  0.4765
 6869SOL    HW227242   0.249   6.354   4.552  1.0123  0.0306  0.2599
 6869SOL    HW327243   0.167   6.302   4.668 -0.0390  0.6671 -0.1912
 6869SOL    MW427244   0.244   6.313   4.629  0.2992  0.3010  0.3598
 6870SOL     OW27245   1.578   1.429   2.262 -0.0599  0.3053 -0.1340
 6870SOL    HW227246   1.624   1.379   2.195 -0.1399  1.6326 -1.2094
 6870SOL    HW327247   1.615   1.398   2.345 -0.3516 -1.7521 -0.7198
 6870SOL    MW427248   1.589   1.419   2.264 -0.1090  0.2090 -0.3532
 6871SOL     OW27249   4.567   1.030   6.191 -0.2749 -0.3880  0.4790
 6871SOL    HW227250   4.661   1.049   6.186 -0.4741  0.4184 -0.3352
 6871SOL    HW327251   4.531   1.102   6.242 -0.3498 -1.1407  1.5345
 6871SOL    MW427252   4.575   1.042   6.197 -0.3111 -0.3809  0.5109
 6872SOL     OW27253   6.269   3.775   1.994 -0.2290 -0.0173 -0.3968
 6872SOL    HW227254   6.295   3.866   2.007 -0.3621  0.0478 -0.5817
 6872SOL    HW327255   6.298   3.730   2.073 -0.3893  0.2350 -0.1923
 6872SOL    MW427256   6.276   3.781   2.006 -0.2677  0.0246 -0.3942
 6873SOL     OW27257   3.243   2.771   1.324 -0.2590 -0.0181  0.0465
 6873SOL    HW227258   3.231   2.707   1.254  2.6574  1.2887 -1.8414
 6873SOL    HW327259   3.322   2.742   1.370 -0.9660  0.2976  1.5130
 6873SOL    MW427260   3.252   2.759   1.320  0.0325  0.1960 -0.0091
 6874SOL     OW27261   3.732   2.384   5.669  0.5109 -0.5401 -0.5862
 6874SOL    HW227262   3.693   2.441   5.602 -0.7271  1.0088  1.3442
 6874SOL    HW327263   3.825   2.407   5.668  0.3243  0.2436 -1.0809
 6874SOL    MW427264   3.739   2.395   5.660  0.3229 -0.2323 -0.3968
 6875SOL     OW27265   3.172   2.269   2.406  0.1620 -0.5531 -0.6843
 6875SOL    HW227266   3.157   2.195   2.465  1.8253  0.2922  0.8883
 6875SOL    HW327267   3.105   2.333   2.430  1.7021  0.3923  1.4514
 6875SOL    MW427268   3.161   2.268   2.417  0.5847 -0.3168 -0.1951
 6876SOL     OW27269   4.116   1.408   0.850  0.4629 -0.4516 -0.6130
 6876SOL    HW227270   4.156   1.326   0.880  0.1382  0.0257  1.2591
 6876SOL    HW327271   4.178   1.442   0.786  1.4148 -1.3634 -0.2130
 6876SOL    MW427272   4.130   1.402   0.846  0.5456 -0.5089 -0.3132
 6877SOL     OW27273   1.423   3.669   4.413  0.1153  0.0769  0.0788
 6877SOL    HW227274   1.478   3.720   4.353  0.4093 -1.6471 -1.1982
 6877SOL    HW327275   1.482   3.605   4.452 -0.5431 -0.3284  0.4368
 6877SOL    MW427276   1.438   3.667   4.410  0.0672 -0.2040 -0.0425
 6878SOL     OW27277   5.470   6.202   5.869 -0.0347 -0.1897  0.5152
 6878SOL    HW227278   5.547   6.233   5.821  0.3010 -0.5316  0.8266
 6878SOL    HW327279   5.466   6.108   5.849 -1.6462  0.2001 -1.2739
 6878SOL    MW427280   5.480   6.194   5.860 -0.2031 -0.1834  0.3202
 6879SOL     OW27281   4.705   5.089   4.328  0.5868  0.1856 -0.3895
 6879SOL    HW227282   4.686   5.005   4.284 -0.2903  0.1712  0.0040
 6879SOL    HW327283   4.783   5.070   4.381 -0.8133 -1.0080  1.3490
 6879SOL    MW427284   4.713   5.075   4.329  0.2863  0.0262 -0.1082
 6880SOL     OW27285   4.855   3.283   5.244  0.7793  0.3025  0.1812
 6880SOL    HW227286   4.901   3.230   5.309 -1.0485 -1.2762  0.2877
 6880SOL    HW327287   4.773   3.235   5.228 -0.9039  2.9823  0.1177
 6880SOL    MW427288   4.850   3.270   5.251  0.3161  0.4477  0.1869
 6881SOL     OW27289   2.383   1.376   3.944 -0.9292 -0.2501 -0.0944
 6881SOL    HW227290   2.438   1.443   3.984  0.3249 -1.3731  0.1562
 6881SOL    HW327291   2.351   1.416   3.863  0.7148  0.2681 -0.5293
 6881SOL    MW427292   2.386   1.390   3.939 -0.5468 -0.3299 -0.1187
 6882SOL     OW27293   4.187   2.891   4.344 -0.1723 -0.5402  0.1932
 6882SOL    HW227294   4.187   2.804   4.384 -0.4181 -1.5052 -1.7435
 6882SOL    HW327295   4.150   2.876   4.257  0.5657  1.3701 -0.4925
 6882SOL    MW427296   4.182   2.877   4.338 -0.1074 -0.4155 -0.1528
 6883SOL     OW27297   2.236   2.826   3.747  0.1413  0.0429 -0.0603
 6883SOL    HW227298   2.249   2.774   3.667  2.8134  0.5568 -0.0535
 6883SOL    HW327299   2.322   2.827   3.789 -0.4568  2.3081  1.2766
 6883SOL    MW427300   2.249   2.819   3.742  0.4150  0.4096  0.1170
 6884SOL     OW27301   3.543   3.924   1.349 -0.0342  0.0276 -0.5380
 6884SOL    HW227302   3.554   4.000   1.407  1.2898 -1.9812  2.0751
 6884SOL    HW327303   3.481   3.867   1.395  2.0499 -2.2340 -0.3299
 6884SOL    MW427304   3.536   3.927   1.363  0.4154 -0.5358 -0.1658
 6885SOL     OW27305   1.053   3.669   5.341 -0.2449  0.1944 -0.5598
 6885SOL    HW227306   1.063   3.603   5.409  0.2345 -0.6378 -1.4160
 6885SOL    HW327307   0.960   3.691   5.341  0.0307  1.7826  1.7759
 6885SOL    MW427308   1.042   3.663   5.350 -0.1453  0.2941 -0.3646
 6886SOL     OW27309   1.907   2.071   5.306 -0.5106 -0.2637 -0.6527
 6886SOL    HW227310   1.983   2.095   5.359 -1.2633 -0.4093  0.5340
 6886SOL    HW327311   1.925   1.982   5.276  0.4318  0.2352 -1.6006
 6886SOL    MW427312   1.919   2.063   5.309 -0.4856 -0.2171 -0.6212
 6887SOL     OW27313   2.437   5.556   0.537 -0.3172 -0.1052  0.0161
 6887SOL    HW227314   2.421   5.585   0.447  0.0471  1.6478  0.4732
 6887SOL    HW327315   2.440   5.637   0.588 -0.6869 -1.0763  1.6479
 6887SOL    MW427316   2.435   5.571   0.532 -0.3179 -0.0020  0.2917
 6888SOL     OW27317   6.131   2.621   4.921  0.4164 -0.0686  0.6271
 6888SOL    HW227318   6.169   2.550   4.973  0.2248  0.1984  1.1352
 6888SOL    HW327319   6.145   2.594   4.831  2.0582  0.1369  0.7859
 6888SOL    MW427320   6.138   2.608   4.916  0.6078 -0.0063  0.7151
 6889SOL     OW27321   2.192   5.872   5.123  0.3327 -0.1428 -0.1384
 6889SOL    HW227322   2.166   5.787   5.157  0.3532  0.5895  1.8899
 6889SOL    HW327323   2.269   5.896   5.175  0.2994  1.1392 -0.6261
 6889SOL    MW427324   2.199   5.864   5.134  0.3310  0.1229  0.0649
 6890SOL     OW27325   0.269   1.087   5.548  0.0457 -0.1401 -0.0305
 6890SOL    HW227326   0.264   1.138   5.467  3.1476  1.6484  0.7500
 6890SOL    HW327327   0.289   1.151   5.616 -0.1286 -1.8952  1.7721
 6890SOL    MW427328   0.271   1.102   5.546  0.4319 -0.1357  0.3103
 6891SOL     OW27329   1.340   4.815   0.943  0.0088 -0.3446  0.1075
 6891SOL    HW227330   1.393   4.794   1.020 -0.5763 -1.7912  0.1405
 6891SOL    HW327331   1.259   4.766   0.956 -0.9945  1.1166 -0.3842
 6891SOL    MW427332   1.337   4.806   0.955 -0.2008 -0.3427  0.0470
 6892SOL     OW27333   1.352   6.269   4.023 -0.0382  0.0017  0.9558
 6892SOL    HW227334   1.350   6.208   3.950 -2.4022  0.6379  0.3846
 6892SOL    HW327335   1.293   6.232   4.088  1.0659  0.0716  2.0518
 6892SOL    MW427336   1.344   6.256   4.022 -0.2044  0.0949  1.0250
 6893SOL     OW27337   5.428   2.666   3.199 -0.0193  0.0630 -0.2014
 6893SOL    HW227338   5.474   2.634   3.276 -1.8232  0.3119  1.0447
 6893SOL    HW327339   5.402   2.755   3.223  0.8322  0.7735 -1.7789
 6893SOL    MW427340   5.431   2.674   3.212 -0.1450  0.1895 -0.2451
 6894SOL     OW27341   0.672   4.048   6.358 -0.8492 -0.2481 -0.3744
 6894SOL    HW227342   0.619   3.978   6.396  1.2407 -1.9264 -0.3890
 6894SOL    HW327343   0.689   4.020   6.268 -1.8963  1.4652 -1.1746
 6894SOL    MW427344   0.667   4.035   6.351 -0.7116 -0.2435 -0.4819
 6895SOL     OW27345   2.786   1.588   0.072  0.7166 -0.5525 -0.0848
 6895SOL    HW227346   2.826   1.571  -0.014  2.7839 -0.5785  0.8223
 6895SOL    HW327347   2.829   1.667   0.103 -1.9584  1.0493 -0.1672
 6895SOL    MW427348   2.797   1.596   0.065  0.6364 -0.3446  0.0240
 6896SOL     OW27349   6.172   0.161   3.410  0.0484  0.0098 -0.0461
 6896SOL    HW227350   6.161   0.159   3.505  1.2101  1.2025  0.1383
 6896SOL    HW327351   6.170   0.068   3.384 -1.7281 -0.2784  0.9222
 6896SOL    MW427352   6.170   0.148   3.419 -0.0327  0.1291  0.1059
 6897SOL     OW27353   2.815   4.387   5.991  0.3895 -0.6242 -0.2936
 6897SOL    HW227354   2.726   4.359   6.012  0.6452 -0.8378  0.5208
 6897SOL    HW327355   2.814   4.482   6.005  0.3760 -0.6727  0.0458
 6897SOL    MW427356   2.803   4.396   5.996  0.4214 -0.6588 -0.1414
 6898SOL     OW27357   2.685   1.540   4.969  0.1890 -0.1671  0.4154
 6898SOL    HW227358   2.718   1.590   5.044 -1.2602  0.0620  0.9361
 6898SOL    HW327359   2.756   1.480   4.947  2.2994  2.5182 -0.6844
 6898SOL    MW427360   2.698   1.538   4.976  0.2762  0.2174  0.3390
 6899SOL     OW27361   3.942   3.485   5.158  0.2133  0.6234 -0.1293
 6899SOL    HW227362   3.888   3.563   5.175 -0.4331  0.0288  0.6245
 6899SOL    HW327363   3.879   3.418   5.133  0.6550  0.0570  0.2520
 6899SOL    MW427364   3.926   3.487   5.157  0.1863  0.4703  0.0204
 6900SOL     OW27365   5.843   0.737   3.294  0.5023 -0.4897 -0.5883
 6900SOL    HW227366   5.764   0.780   3.263  0.4072 -0.8914 -0.9083
 6900SOL    HW327367   5.861   0.670   3.229  0.9622 -0.5699 -0.3835
 6900SOL    MW427368   5.835   0.734   3.282  0.5504 -0.5533 -0.6035
 6901SOL     OW27369   3.342   5.038   5.043  0.1958  0.5778  0.1338
 6901SOL    HW227370   3.361   4.949   5.074  0.7799  1.2294  1.7334
 6901SOL    HW327371   3.423   5.086   5.056  0.0586  1.2434 -1.2531
 6901SOL    MW427372   3.355   5.033   5.048  0.2548  0.7516  0.1618
 6902SOL     OW27373   4.646   6.240   2.214 -0.4889  0.2166  0.1903
 6902SOL    HW227374   4.586   6.232   2.140 -0.0168 -1.1802 -0.0675
 6902SOL    HW327375   4.613   6.177   2.279  1.0617 -1.1115 -0.2432
 6902SOL    MW427376   4.634   6.231   2.213 -0.2220 -0.1429  0.0991
 6903SOL     OW27377   4.427   4.415   4.780 -0.1180 -0.0508 -0.1505
 6903SOL    HW227378   4.430   4.356   4.855  0.6179  1.3791  0.9941
 6903SOL    HW327379   4.438   4.502   4.817 -0.3427  0.7533 -1.8696
 6903SOL    MW427380   4.429   4.419   4.795 -0.0505  0.2440 -0.2263
 6904SOL     OW27381   3.939   6.092   0.454 -0.1360  0.2887  0.2103
 6904SOL    HW227382   4.007   6.050   0.402 -0.2428  0.8542 -0.3949
 6904SOL    HW327383   3.920   6.029   0.523  0.3586 -0.2616 -0.1451
 6904SOL    MW427384   3.945   6.078   0.456 -0.0849  0.2907  0.0835
 6905SOL     OW27385   4.841   3.800   4.391  0.1624 -0.7249 -0.1228
 6905SOL    HW227386   4.754   3.778   4.425 -0.0027  0.5327  0.3309
 6905SOL    HW327387   4.832   3.792   4.296 -0.8496  0.6445 -0.1723
 6905SOL    MW427388   4.828   3.796   4.383  0.0071 -0.3783 -0.0695
 6906SOL     OW27389   0.557   0.255   1.251  0.2061  0.4523 -0.2780
 6906SOL    HW227390   0.549   0.308   1.172  1.2832  0.6207 -0.2880
 6906SOL    HW327391   0.601   0.312   1.314 -0.5495  0.2846  0.4121
 6906SOL    MW427392   0.562   0.269   1.249  0.2485  0.4524 -0.1883
 6907SOL     OW27393   2.227   0.319   0.629  0.0256 -0.1313 -0.1050
 6907SOL    HW227394   2.230   0.383   0.700  1.0441 -1.1631  0.8418
 6907SOL    HW327395   2.179   0.362   0.559 -1.1523  0.8724  1.2650
 6907SOL    MW427396   2.221   0.333   0.629  0.0046 -0.1350  0.2007
 6908SOL     OW27397   0.706   5.955   3.116 -0.2607 -0.4954  0.7335
 6908SOL    HW227398   0.675   5.875   3.074 -1.3578 -0.3398  1.2259
 6908SOL    HW327399   0.800   5.958   3.095 -0.1429 -2.0427  0.9455
 6908SOL    MW427400   0.714   5.945   3.108 -0.3899 -0.6791  0.8264
 6909SOL     OW27401   2.597   5.706   5.824 -0.0814 -0.3819  0.3666
 6909SOL    HW227402   2.681   5.746   5.801 -0.0780  0.2301  1.3909
 6909SOL    HW327403   2.620   5.622   5.864 -0.0248 -0.7635 -0.4401
 6909SOL    MW427404   2.611   5.700   5.826 -0.0735 -0.3515  0.3953
 6910SOL     OW27405   2.254   3.205   4.938 -0.6992 -0.2908 -0.5255
 6910SOL    HW227406   2.281   3.194   4.847 -0.2192  2.9068 -0.9172
 6910SOL    HW327407   2.313   3.273   4.972 -0.9018 -1.3457  2.1897
 6910SOL    MW427408   2.266   3.213   4.930 -0.6626 -0.0081 -0.2190
 6911SOL     OW27409   0.993   3.736   3.111  0.1082 -0.2750  0.3503
 6911SOL    HW227410   0.921   3.786   3.074 -0.6824 -1.2683  0.5057
 6911SOL    HW327411   0.981   3.742   3.206  0.5724  0.0367  0.3926
 6911SOL    MW427412   0.982   3.743   3.119  0.0652 -0.3649  0.3764
 6912SOL     OW27413   0.211   3.492   1.398  0.4568 -0.3443 -0.1498
 6912SOL    HW227414   0.193   3.405   1.361  0.8719 -0.1359 -0.8682
 6912SOL    HW327415   0.302   3.487   1.427  0.0528 -0.5971  1.1459
 6912SOL    MW427416   0.221   3.480   1.397  0.4583 -0.3502 -0.0737
 6913SOL     OW27417   6.369   1.546   2.470  0.0276 -0.3224  0.2861
 6913SOL    HW227418   6.383   1.454   2.451 -0.2798 -0.3214  0.0470
 6913SOL    HW327419   6.456   1.586   2.460  0.6652 -0.9690  2.7237
 6913SOL    MW427420   6.383   1.539   2.466  0.0712 -0.4076  0.5762
 6914SOL     OW27421   0.782   0.099   1.691  0.4219 -0.4906 -0.0774
 6914SOL    HW227422   0.766   0.021   1.743 -1.0935  0.1396  0.4442
 6914SOL    HW327423   0.697   0.143   1.686  1.5710  2.0924  1.2232
 6914SOL    MW427424   0.769   0.095   1.697  0.3736 -0.0667  0.1630
 6915SOL     OW27425   0.450   3.681   0.277  0.0487  0.0862  0.3056
 6915SOL    HW227426   0.374   3.727   0.244  0.8064  1.4576  0.4008
 6915SOL    HW327427   0.429   3.588   0.266 -1.7323  0.4257  0.6016
 6915SOL    MW427428   0.437   3.675   0.271 -0.0863  0.3119  0.3572
 6916SOL     OW27429   4.533   4.387   3.270 -0.1549  0.1454 -0.1302
 6916SOL    HW227430   4.518   4.419   3.181 -1.0735 -1.2248 -0.5115
 6916SOL    HW327431   4.524   4.292   3.262  0.5773 -0.0658  1.2829
 6916SOL    MW427432   4.530   4.378   3.257 -0.1795 -0.0633  0.0059
 6917SOL     OW27433   3.591   3.359   0.361 -0.3134  0.2495 -0.3953
 6917SOL    HW227434   3.497   3.356   0.380 -0.1872 -2.1410  0.2085
 6917SOL    HW327435   3.605   3.445   0.321 -2.4465  1.3280  0.9777
 6917SOL    MW427436   3.581   3.370   0.358 -0.5782  0.0764 -0.1345
 6918SOL     OW27437   0.577   2.795   1.416  0.1952  0.0425  0.1855
 6918SOL    HW227438   0.609   2.885   1.409  1.8902 -0.6396 -1.9077
 6918SOL    HW327439   0.484   2.801   1.391  0.7363  1.0084 -1.8085
 6918SOL    MW427440   0.569   2.808   1.411  0.4902  0.0799 -0.3537
 6919SOL     OW27441   5.800   1.407   0.918  0.2340 -0.3979 -0.0623
 6919SOL    HW227442   5.890   1.408   0.952 -0.1264 -1.8073  1.0348
 6919SOL    HW327443   5.757   1.479   0.963  0.3036 -0.9900  0.9924
 6919SOL    MW427444   5.806   1.416   0.928  0.1956 -0.6620  0.2216
 6920SOL     OW27445   1.754   5.168   2.759  0.4313  0.0628  0.0906
 6920SOL    HW227446   1.821   5.124   2.708  0.6236  1.1753 -0.6448
 6920SOL    HW327447   1.735   5.107   2.831  0.8431 -1.1030 -0.7508
 6920SOL    MW427448   1.760   5.154   2.762  0.5110  0.0557 -0.1174
 6921SOL     OW27449   4.563   0.770   4.411  0.4212  0.4407 -0.2168
 6921SOL    HW227450   4.512   0.813   4.343 -0.3451  1.0607  0.7156
 6921SOL    HW327451   4.641   0.824   4.421  0.0945  0.8762  0.0236
 6921SOL    MW427452   4.566   0.783   4.404  0.2770  0.5799 -0.0620
 6922SOL     OW27453   1.388   3.657   5.629 -0.5517 -0.3347 -0.7355
 6922SOL    HW227454   1.410   3.649   5.722 -2.7313  1.2260  0.0142
 6922SOL    HW327455   1.471   3.646   5.584  1.0240  1.1182  1.5551
 6922SOL    MW427456   1.402   3.655   5.636 -0.6314  0.0629 -0.3343
 6923SOL     OW27457   1.929   4.702   2.650 -0.5473 -0.2294 -0.0926
 6923SOL    HW227458   1.861   4.651   2.696 -0.0235 -1.2436 -0.4143
 6923SOL    HW327459   1.880   4.763   2.595 -1.1886  0.4872  1.2227
 6923SOL    MW427460   1.913   4.703   2.649 -0.5628 -0.2686  0.0385
 6924SOL     OW27461   4.019   2.748   3.482 -0.0024 -0.2495  0.2372
 6924SOL    HW227462   3.983   2.822   3.532  0.1526 -0.3385  0.4786
 6924SOL    HW327463   4.100   2.726   3.527 -0.1619 -0.7149  0.2955
 6924SOL    MW427464   4.025   2.755   3.495 -0.0030 -0.3226  0.2767
 6925SOL     OW27465   3.737   1.807   5.201  0.3970 -0.1592 -0.5119
 6925SOL    HW227466   3.785   1.798   5.119 -0.8362 -1.7521 -1.1144
 6925SOL    HW327467   3.705   1.719   5.219 -0.6977  0.4863  0.8442
 6925SOL    MW427468   3.739   1.794   5.192  0.0898 -0.2842 -0.4125
 6926SOL     OW27469   1.002   0.342   4.141  0.5819 -0.1029 -0.0840
 6926SOL    HW227470   1.007   0.436   4.126 -0.0187 -0.0443  0.0311
 6926SOL    HW327471   0.953   0.333   4.223  1.2190 -0.4990  0.2608
 6926SOL    MW427472   0.996   0.353   4.150  0.5867 -0.1474 -0.0233
 6927SOL     OW27473   1.745   3.930   1.482  0.0957 -0.4200  0.3344
 6927SOL    HW227474   1.805   3.994   1.443 -0.3993 -1.3802 -2.2053
 6927SOL    HW327475   1.689   3.982   1.540  0.1789  1.3399 -1.0888
 6927SOL    MW427476   1.745   3.946   1.485  0.0414 -0.3145 -0.1885
 6928SOL     OW27477   1.558   3.678   1.061 -0.2751  0.1418  0.3185
 6928SOL    HW227478   1.536   3.742   0.994  0.5631  0.5360  0.4200
 6928SOL    HW327479   1.648   3.652   1.042  0.2838  0.8948  1.7908
 6928SOL    MW427480   1.567   3.683   1.050 -0.0908  0.2932  0.5262
 6929SOL     OW27481   4.485   0.425   1.998 -0.5201 -0.3050 -0.1475
 6929SOL    HW227482   4.576   0.402   1.980 -0.1552  0.8966  0.0794
 6929SOL    HW327483   4.466   0.498   1.938 -0.6732  0.8136  1.2238
 6929SOL    MW427484   4.495   0.432   1.987 -0.4921  0.0012  0.0634
 6930SOL     OW27485   4.603   1.868   3.615 -0.0001 -0.1787  0.2219
 6930SOL    HW227486   4.672   1.806   3.640 -0.5372 -0.4861  0.9622
 6930SOL    HW327487   4.639   1.954   3.638 -0.5201 -0.4500  2.2741
 6930SOL    MW427488   4.617   1.871   3.622 -0.1396 -0.2551  0.5903
 6931SOL     OW27489   3.816   0.711   1.202  0.2745 -0.0647  0.1789
 6931SOL    HW227490   3.898   0.742   1.165 -0.0442  1.7091  0.8362
 6931SOL    HW327491   3.751   0.727   1.134 -0.0665  1.8398  0.8789
 6931SOL    MW427492   3.818   0.717   1.188  0.1875  0.4206  0.3580
 6932SOL     OW27493   5.474   2.549   2.210  0.1204  0.5133 -0.2589
 6932SOL    HW227494   5.422   2.571   2.287  0.4677  1.1177 -0.1890
 6932SOL    HW327495   5.450   2.459   2.189  1.9240 -0.6571  2.1560
 6932SOL    MW427496   5.464   2.540   2.218  0.4042  0.4386  0.0690
 6933SOL     OW27497   6.002   2.301   1.887 -0.6174  0.2155  0.4229
 6933SOL    HW227498   6.015   2.261   1.974  1.3720 -1.8169 -0.6947
 6933SOL    HW327499   6.061   2.376   1.886 -0.5132  0.1411  0.7904
 6933SOL    MW427500   6.012   2.305   1.899 -0.3412 -0.0624  0.3239
 6934SOL     OW27501   1.519   0.896   1.882 -0.0480  0.3570  0.2101
 6934SOL    HW227502   1.571   0.955   1.936  1.7296  0.0994 -1.1304
 6934SOL    HW327503   1.438   0.943   1.865  0.3846  1.4366  1.0671
 6934SOL    MW427504   1.516   0.910   1.887  0.2436  0.4655  0.1463
 6935SOL     OW27505   4.191   0.310   2.462  0.0502  0.1649 -0.0403
 6935SOL    HW227506   4.233   0.356   2.389  0.5321  0.0073  0.1340
 6935SOL    HW327507   4.154   0.231   2.423 -1.0123  0.8127 -0.3922
 6935SOL    MW427508   4.192   0.306   2.447 -0.0264  0.2296 -0.0637
 6936SOL     OW27509   2.148   0.953   4.782 -0.0328 -0.1976  0.0432
 6936SOL    HW227510   2.188   1.023   4.731  0.6248 -0.9135 -0.4515
 6936SOL    HW327511   2.086   0.997   4.840  0.3195  0.7771 -0.3085
 6936SOL    MW427512   2.145   0.968   4.783  0.1005 -0.1634 -0.0684
 6937SOL     OW27513   0.358   3.922   1.427  0.7688  0.4845  0.6562
 6937SOL    HW227514   0.296   3.972   1.481 -0.6560 -0.0377 -0.4513
 6937SOL    HW327515   0.444   3.945   1.463  0.1804  3.4940  0.4237
 6937SOL    MW427516   0.361   3.932   1.439  0.5032  0.8127  0.4794
 6938SOL     OW27517   4.078   1.516   3.728  0.4346 -0.5058 -0.3738
 6938SOL    HW227518   4.014   1.556   3.787  1.0486  2.6661 -1.6544
 6938SOL    HW327519   4.163   1.547   3.759  0.9351 -0.4798 -1.6923
 6938SOL    MW427520   4.081   1.525   3.740  0.5817 -0.0839 -0.7167
 6939SOL     OW27521   6.134   4.733   5.155  0.1932 -0.3816  0.0996
 6939SOL    HW227522   6.091   4.649   5.140 -1.0132  0.5815 -2.4741
 6939SOL    HW327523   6.083   4.775   5.224  0.7860 -1.6819  1.3830
 6939SOL    MW427524   6.121   4.728   5.162  0.1122 -0.4261 -0.0706
 6940SOL     OW27525   4.739  -0.031   0.262 -0.1090  0.0465  0.4446
 6940SOL    HW227526   4.814   0.026   0.245  0.1198 -0.0257  1.1755
 6940SOL    HW327527   4.712  -0.061   0.175  1.5523 -1.0078  0.2485
 6940SOL    MW427528   4.746  -0.027   0.248  0.1404 -0.1021  0.5152
 6941SOL     OW27529   5.988   4.827   0.316  0.4754  0.2914  0.1138
 6941SOL    HW227530   5.969   4.830   0.222  0.6433  2.3911  0.0974
 6941SOL    HW327531   6.084   4.826   0.321  0.5572  2.5981  0.2064
 6941SOL    MW427532   5.998   4.827   0.304  0.5084  0.8728  0.1238
 6942SOL     OW27533   3.399   3.763   5.482  0.5618 -0.8840 -0.1138
 6942SOL    HW227534   3.349   3.777   5.402 -1.1969 -0.2889  1.0384
 6942SOL    HW327535   3.487   3.793   5.460  0.1812 -0.9372 -1.8714
 6942SOL    MW427536   3.404   3.769   5.468  0.2796 -0.8125 -0.1937
 6943SOL     OW27537   4.573   0.549   1.439  0.1444  0.4946 -0.2029
 6943SOL    HW227538   4.515   0.596   1.498 -0.0829  0.8244 -0.6839
 6943SOL    HW327539   4.516   0.488   1.392 -0.0853  1.7935 -1.6923
 6943SOL    MW427540   4.558   0.547   1.441  0.0841  0.7095 -0.4629
 6944SOL     OW27541   1.165   2.807   2.484 -0.2040  0.2824 -0.1985
 6944SOL    HW227542   1.146   2.784   2.393 -0.8484  0.3821 -0.0952
 6944SOL    HW327543   1.092   2.771   2.534  0.0129  0.4500  0.2523
 6944SOL    MW427544   1.153   2.799   2.479 -0.2604  0.3177 -0.1254
 6945SOL     OW27545   4.719   5.813   1.958  0.1779  0.0935 -0.5224
 6945SOL    HW227546   4.665   5.840   2.032 -1.7759  1.0739 -2.2048
 6945SOL    HW327547   4.680   5.731   1.928  0.9999 -0.3368 -0.4460
 6945SOL    MW427548   4.707   5.806   1.964  0.0286  0.1661 -0.7343
 6946SOL     OW27549   5.771   4.925   3.129  0.2875  0.2554 -0.1691
 6946SOL    HW227550   5.831   4.998   3.115  0.4735 -0.3051 -2.8129
 6946SOL    HW327551   5.826   4.853   3.162  0.7206  0.3112 -0.7716
 6946SOL    MW427552   5.786   4.925   3.132  0.3692  0.1888 -0.5974
 6947SOL     OW27553   3.306   1.594   1.763 -0.5103 -0.1886 -0.0899
 6947SOL    HW227554   3.265   1.546   1.835 -2.1316  2.1519  0.6936
 6947SOL    HW327555   3.357   1.529   1.715  0.2244 -1.9397  2.8614
 6947SOL    MW427556   3.307   1.579   1.766 -0.6273 -0.1108  0.4029
 6948SOL     OW27557   3.848   5.205   3.225 -0.0288 -0.4575 -0.3202
 6948SOL    HW227558   3.803   5.289   3.220  0.3219 -0.2192  0.3342
 6948SOL    HW327559   3.905   5.204   3.149 -1.5831 -1.0447 -1.5242
 6948SOL    MW427560   3.850   5.216   3.214 -0.1876 -0.5035 -0.3927
 6949SOL     OW27561   3.553   5.383   4.834  0.4644 -0.3688  0.3552
 6949SOL    HW227562   3.479   5.385   4.894  0.2764  1.3564  0.0982
 6949SOL    HW327563   3.514   5.365   4.749  0.4734 -0.5704  0.3932
 6949SOL    MW427564   3.538   5.381   4.831  0.4408 -0.1678  0.3263
 6950SOL     OW27565   1.790   6.377   5.755 -0.0331  0.6862  0.0486
 6950SOL    HW227566   1.881   6.379   5.785  0.2298 -0.1858 -0.6473
 6950SOL    HW327567   1.746   6.443   5.808  0.4890 -0.4785  2.0644
 6950SOL    MW427568   1.796   6.386   5.766  0.0705  0.4175  0.2227
 6951SOL     OW27569   5.070   2.919   1.997 -0.3943 -0.1272  0.2195
 6951SOL    HW227570   5.108   2.880   2.076 -0.5140  1.8984  1.3211
 6951SOL    HW327571   5.138   2.979   1.965 -0.9242  0.1613 -0.3780
 6951SOL    MW427572   5.084   2.922   2.003 -0.4800  0.1782  0.2860
 6952SOL     OW27573   2.717   1.573   0.674  0.1481  0.1174 -0.2073
 6952SOL    HW227574   2.722   1.569   0.578  1.1550 -0.2903 -0.1560
 6952SOL    HW327575   2.807   1.593   0.701  0.1263 -0.9865  0.7079
 6952SOL    MW427576   2.730   1.575   0.665  0.2780 -0.0820 -0.0798
 6953SOL     OW27577   6.140   6.339   5.214  0.0414 -0.0823 -0.3274
 6953SOL    HW227578   6.167   6.410   5.157 -2.3205  0.5265 -0.8269
 6953SOL    HW327579   6.150   6.260   5.162  0.4306  0.1681 -0.6295
 6953SOL    MW427580   6.145   6.338   5.200 -0.2189  0.0311 -0.4332
 6954SOL     OW27581   0.012   2.237   4.863 -0.0746  0.3226  0.4212
 6954SOL    HW227582  -0.029   2.207   4.782 -1.3012  1.0157  0.7566
 6954SOL    HW327583   0.106   2.228   4.848 -0.3105 -0.2461 -0.7999
 6954SOL    MW427584   0.019   2.232   4.851 -0.2676  0.3390  0.3044
 6955SOL     OW27585   1.593   0.410   5.299 -0.0736  0.1438 -0.5417
 6955SOL    HW227586   1.639   0.411   5.215 -0.4897  0.7146 -0.7720
 6955SOL    HW327587   1.553   0.497   5.306 -0.8606 -0.2282 -0.2180
 6955SOL    MW427588   1.594   0.422   5.289 -0.2324  0.1700 -0.5294
 6956SOL     OW27589   0.736   4.511   5.531 -0.4586 -0.3886 -0.1071
 6956SOL    HW227590   0.829   4.492   5.522 -0.1306  0.8588  0.4186
 6956SOL    HW327591   0.698   4.430   5.565  0.6626 -0.4943  0.9695
 6956SOL    MW427592   0.743   4.498   5.534 -0.2674 -0.2379  0.1043
 6957SOL     OW27593   4.479   3.166   2.943  0.1757 -0.0474  0.1757
 6957SOL    HW227594   4.454   3.164   3.035 -0.7994 -0.1843 -0.0788
 6957SOL    HW327595   4.484   3.260   2.922 -2.1132  0.0469 -0.2516
 6957SOL    MW427596   4.476   3.178   2.952 -0.2550 -0.0530  0.0857
 6958SOL     OW27597   0.265   3.684   3.245  0.1872  0.1675 -0.2860
 6958SOL    HW227598   0.300   3.763   3.286 -1.4451  0.2744  1.0279
 6958SOL    HW327599   0.221   3.638   3.317  0.6509 -1.6846 -1.1351
 6958SOL    MW427600   0.263   3.688   3.260  0.0330 -0.0628 -0.2246
 6959SOL     OW27601   2.689   4.938   3.852 -0.2549 -0.1709  0.3259
 6959SOL    HW227602   2.758   4.983   3.803 -0.8141  0.3325 -0.0056
 6959SOL    HW327603   2.737   4.885   3.917  0.4402  0.1578  0.0920
 6959SOL    MW427604   2.705   4.937   3.854 -0.2370 -0.0612  0.2513
 6960SOL     OW27605   6.406   3.604   5.735  0.3758 -0.1938  0.2309
 6960SOL    HW227606   6.365   3.530   5.781  0.8800  0.1054  1.2052
 6960SOL    HW327607   6.422   3.572   5.647 -1.8143 -0.3680 -0.1507
 6960SOL    MW427608   6.403   3.590   5.730  0.1533 -0.1773  0.3091
 6961SOL     OW27609   1.235   4.231   3.323  0.0558 -0.0505 -0.4851
 6961SOL    HW227610   1.309   4.177   3.294  0.7872  0.6985 -0.0782
 6961SOL    HW327611   1.267   4.321   3.314  0.1270  0.2521  2.0264
 6961SOL    MW427612   1.249   4.236   3.318  0.1617  0.0882 -0.1001
 6962SOL     OW27613   4.758   1.697   0.496  0.2536 -0.5695  0.0341
 6962SOL    HW227614   4.803   1.782   0.495  0.4730 -0.6691  0.7859
 6962SOL    HW327615   4.672   1.716   0.532 -0.0364 -0.5138 -0.6737
 6962SOL    MW427616   4.753   1.711   0.501  0.2443 -0.5753  0.0399
 6963SOL     OW27617   3.547   4.819   2.249  0.1762  0.4976 -0.4313
 6963SOL    HW227618   3.597   4.831   2.330  1.4636  1.5182 -1.3344
 6963SOL    HW327619   3.586   4.881   2.187 -1.6127  0.6495 -1.4699
 6963SOL    MW427620   3.559   4.829   2.251  0.1100  0.6523 -0.6875
 6964SOL     OW27621   1.168   3.987   1.755  0.1280  0.3363  0.0034
 6964SOL    HW227622   1.211   4.063   1.794 -1.3034  0.7506  0.8662
 6964SOL    HW327623   1.183   3.996   1.661 -0.1854  1.8210  0.0701
 6964SOL    MW427624   1.175   3.998   1.747 -0.1022  0.5868  0.1260
 6965SOL     OW27625   1.906   2.417   0.066 -0.0191 -1.0315 -0.4375
 6965SOL    HW227626   1.833   2.423   0.127  0.0905  0.7200 -0.4183
 6965SOL    HW327627   1.898   2.495   0.011  2.7788  0.1786  0.6836
 6965SOL    MW427628   1.895   2.428   0.067  0.3645 -0.6408 -0.2871
 6966SOL     OW27629   3.890   3.560   5.835 -0.0002  0.2480 -0.0366
 6966SOL    HW227630   3.798   3.587   5.842  0.2033  0.9866 -0.1163
 6966SOL    HW327631   3.939   3.637   5.865  0.7016  1.1274 -3.1431
 6966SOL    MW427632   3.884   3.574   5.840  0.1192  0.4615 -0.4570
 6967SOL     OW27633   3.697   3.439   5.453 -0.7327 -0.0191  0.3062
 6967SOL    HW227634   3.650   3.494   5.390 -1.1673  0.1990  0.8128
 6967SOL    HW327635   3.695   3.351   5.415  1.2995  0.5435 -1.2672
 6967SOL    MW427636   3.691   3.434   5.440 -0.5219  0.0839  0.1655
 6968SOL     OW27637   3.106   6.238   5.441  0.0143 -0.4230 -0.1565
 6968SOL    HW227638   3.192   6.262   5.475 -0.6910  0.4150  1.1008
 6968SOL    HW327639   3.118   6.150   5.405  1.4159 -0.2660 -0.1128
 6968SOL    MW427640   3.119   6.229   5.441  0.1061 -0.2917  0.0151
 6969SOL     OW27641   3.468   5.651   1.444  0.4740 -0.1257 -0.2734
 6969SOL    HW227642   3.448   5.734   1.403  2.2516  0.2429 -0.4784
 6969SOL    HW327643   3.475   5.589   1.371 -0.6719 -0.4418 -0.1353
 6969SOL    MW427644   3.467   5.654   1.429  0.5573 -0.1188 -0.2822
 6970SOL     OW27645   5.067   0.996   5.900 -0.4255  0.3993 -0.2105
 6970SOL    HW227646   5.028   1.083   5.900 -1.4697 -0.0382  1.1107
 6970SOL    HW327647   5.161   1.012   5.916 -0.7747  1.2466  1.1739
 6970SOL    MW427648   5.075   1.010   5.902 -0.6093  0.4534  0.1465
 6971SOL     OW27649   4.865   6.030   1.202  0.0261  0.1102  0.5004
 6971SOL    HW227650   4.940   6.070   1.159 -0.2418 -0.2238 -0.3117
 6971SOL    HW327651   4.902   5.976   1.272  0.5093  0.2858  0.3793
 6971SOL    MW427652   4.879   6.028   1.205  0.0545  0.0893  0.3773
 6972SOL     OW27653   2.470   2.591   3.680  0.2728 -0.0708  0.1321
 6972SOL    HW227654   2.553   2.550   3.655  0.5005  1.2746 -1.4692
 6972SOL    HW327655   2.434   2.626   3.598 -1.6783 -0.2236  0.8530
 6972SOL    MW427656   2.476   2.590   3.666  0.0454  0.0866  0.0159
 6973SOL     OW27657   2.055   0.481   4.735 -0.7655 -0.2572  0.0331
 6973SOL    HW227658   2.032   0.466   4.643  0.2706 -0.9462 -0.1217
 6973SOL    HW327659   1.974   0.515   4.774 -1.1927  0.1261 -1.1440
 6973SOL    MW427660   2.041   0.484   4.728 -0.6851 -0.2975 -0.1427
 6974SOL     OW27661   3.225   3.465   4.524  0.0457 -0.4990  0.5789
 6974SOL    HW227662   3.246   3.503   4.439 -0.0551  0.3086  0.9111
 6974SOL    HW327663   3.245   3.534   4.587 -0.7968 -0.7554  1.1376
 6974SOL    MW427664   3.230   3.479   4.521 -0.0788 -0.4263  0.6964
 6975SOL     OW27665   1.201   3.349   0.980 -0.0250  0.1666  0.1015
 6975SOL    HW227666   1.140   3.276   0.988  0.3351 -0.0268  1.2397
 6975SOL    HW327667   1.203   3.369   0.886 -0.9013 -0.6134 -0.0921
 6975SOL    MW427668   1.194   3.342   0.969 -0.0931  0.0382  0.2262
 6976SOL     OW27669   3.564   3.338   3.526 -0.3023 -0.0585 -0.3713
 6976SOL    HW227670   3.550   3.344   3.431  1.1682  0.0519 -0.6032
 6976SOL    HW327671   3.556   3.245   3.546 -2.8964  0.1161 -0.1748
 6976SOL    MW427672   3.561   3.327   3.516 -0.4506 -0.0209 -0.3760
 6977SOL     OW27673   4.545   1.695   3.969 -0.0877 -0.0474 -0.2030
 6977SOL    HW227674   4.542   1.603   3.995 -0.0793  0.0884  0.2847
 6977SOL    HW327675   4.473   1.704   3.906 -0.4802 -0.2447  0.2103
 6977SOL    MW427676   4.535   1.684   3.964 -0.1384 -0.0555 -0.0841
 6978SOL     OW27677   3.593   5.054   1.347 -0.3124 -0.4346 -0.3298
 6978SOL    HW227678   3.649   5.126   1.375 -0.0628 -0.2861 -1.1855
 6978SOL    HW327679   3.638   5.016   1.272 -1.1009 -0.6290 -0.7150
 6978SOL    MW427680   3.606   5.059   1.341 -0.3835 -0.4406 -0.4936
 6979SOL     OW27681   3.103   0.332   0.283 -0.4089  0.6269  0.5533
 6979SOL    HW227682   3.070   0.308   0.370 -0.0606 -0.9563  0.2857
 6979SOL    HW327683   3.028   0.321   0.225 -0.0716 -0.6751  0.3141
 6979SOL    MW427684   3.089   0.327   0.287 -0.3185  0.2462  0.4864
 6980SOL     OW27685   4.012   4.173   6.260 -0.1183 -0.1626 -0.6229
 6980SOL    HW227686   3.954   4.097   6.250  2.1115 -1.9191 -1.2092
 6980SOL    HW327687   4.049   4.163   6.348 -1.0285  1.2334 -0.0454
 6980SOL    MW427688   4.010   4.161   6.270  0.0558 -0.2102 -0.6240
 6981SOL     OW27689   1.526   1.175   2.933  0.0796 -0.2031  0.1140
 6981SOL    HW227690   1.529   1.254   2.880 -1.8338 -0.9898 -1.2690
 6981SOL    HW327691   1.434   1.164   2.955 -0.0512 -3.0603 -1.3915
 6981SOL    MW427692   1.515   1.184   2.929 -0.1901 -0.6839 -0.2671
 6982SOL     OW27693   3.272   4.513   5.194  0.0334 -0.0169 -0.3422
 6982SOL    HW227694   3.196   4.458   5.173 -0.0095 -0.5422  1.0982
 6982SOL    HW327695   3.346   4.467   5.154 -0.2227 -0.2347 -0.5694
 6982SOL    MW427696   3.272   4.499   5.186 -0.0061 -0.1150 -0.1822
 6983SOL     OW27697   4.460   1.791   2.447 -0.0534  0.4213 -0.0566
 6983SOL    HW227698   4.505   1.724   2.499  1.7743  1.1914 -0.5708
 6983SOL    HW327699   4.453   1.866   2.505 -1.6233  0.0009  0.3434
 6983SOL    MW427700   4.465   1.792   2.461 -0.0194  0.4674 -0.0717
 6984SOL     OW27701   5.676   2.272   6.252  0.1429 -0.1403  0.1346
 6984SOL    HW227702   5.651   2.350   6.302 -0.4727  2.1236 -3.3574
 6984SOL    HW327703   5.592   2.234   6.224  0.3732  1.2170 -2.6746
 6984SOL    MW427704   5.661   2.277   6.255  0.0921  0.3375 -0.6968
 6985SOL     OW27705   2.721   3.186   0.500  0.4338 -0.1213 -0.1047
 6985SOL    HW227706   2.659   3.254   0.527  1.0834  0.4295  0.0135
 6985SOL    HW327707   2.778   3.174   0.576  1.6663  0.7469 -0.8620
 6985SOL    MW427708   2.720   3.194   0.514  0.6821  0.0659 -0.1890
 6986SOL     OW27709   1.671   0.281   2.085  0.0281 -0.3279 -0.3755
 6986SOL    HW227710   1.684   0.344   2.014 -3.3702 -0.1241 -1.0023
 6986SOL    HW327711   1.584   0.301   2.118  0.1796 -2.6180  1.6277
 6986SOL    MW427712   1.661   0.292   2.080 -0.4003 -0.6032 -0.1939
 6987SOL     OW27713   5.036   2.800   3.718  0.0595  0.0277  0.3435
 6987SOL    HW227714   5.111   2.790   3.659 -0.0890  1.3551 -0.1004
 6987SOL    HW327715   5.072   2.841   3.796 -0.3387  1.4601 -0.2092
 6987SOL    MW427716   5.051   2.804   3.721 -0.0127  0.3918  0.2120
 6988SOL     OW27717   2.318   1.189   0.699  0.1951 -0.4139  0.0044
 6988SOL    HW227718   2.362   1.203   0.615  2.1574  1.3388  1.2067
 6988SOL    HW327719   2.265   1.269   0.711 -0.3179 -0.7949  0.3089
 6988SOL    MW427720   2.317   1.202   0.689  0.3863 -0.2329  0.2032
 6989SOL     OW27721   1.714   6.349   3.704  0.2860  0.1095  0.0135
 6989SOL    HW227722   1.654   6.416   3.672  0.6441  0.9292  1.0071
 6989SOL    HW327723   1.701   6.348   3.799  1.5804  0.0753  0.2184
 6989SOL    MW427724   1.704   6.358   3.713  0.5040  0.2131  0.1716
 6990SOL     OW27725   4.148   1.386   4.445  0.3708  0.1253 -0.2176
 6990SOL    HW227726   4.205   1.422   4.377  0.3691 -1.1860 -0.9356
 6990SOL    HW327727   4.202   1.320   4.489 -0.2486 -0.3963 -0.2257
 6990SOL    MW427728   4.162   1.382   4.442  0.2889 -0.1165 -0.3134
 6991SOL     OW27729   4.665   0.374   2.618  0.3070  0.2673 -0.3887
 6991SOL    HW227730   4.735   0.354   2.681  0.7422  0.6455 -0.7470
 6991SOL    HW327731   4.625   0.454   2.651  0.0655  0.0727 -0.2055
 6991SOL    MW427732   4.669   0.382   2.631  0.3325  0.2915 -0.4118
 6992SOL     OW27733   2.036   0.439   1.216  0.1122  0.0055 -0.0032
 6992SOL    HW227734   2.089   0.359   1.216  2.3355  1.2847  2.6751
 6992SOL    HW327735   2.087   0.501   1.164  1.4036  1.2313  2.5430
 6992SOL    MW427736   2.050   0.436   1.210  0.5759  0.3360  0.6861
 6993SOL     OW27737   2.234   1.619   5.079 -0.2028  0.2591  0.1989
 6993SOL    HW227738   2.309   1.592   5.025 -1.3222 -1.3051 -0.6434
 6993SOL    HW327739   2.184   1.678   5.023  0.0984  0.8773  0.5689
 6993SOL    MW427740   2.238   1.623   5.065 -0.3107  0.1343  0.1366
 6994SOL     OW27741   0.204   5.964   5.894 -0.0450  0.8633 -0.3729
 6994SOL    HW227742   0.273   5.937   5.954 -0.0043  2.2355  0.2421
 6994SOL    HW327743   0.219   6.058   5.881 -2.6955  1.5990  1.0590
 6994SOL    MW427744   0.215   5.973   5.900 -0.3893  1.1414 -0.1028
 6995SOL     OW27745   6.288   4.529   0.799  0.2315  0.7006 -0.1231
 6995SOL    HW227746   6.253   4.467   0.864 -1.2118  0.0514 -1.4383
 6995SOL    HW327747   6.328   4.598   0.851 -0.9821  0.2788  1.4743
 6995SOL    MW427748   6.289   4.530   0.814 -0.1190  0.5593 -0.0859
 6996SOL     OW27749   3.549   5.238   3.855  0.2242 -0.2886 -0.6023
 6996SOL    HW227750   3.628   5.235   3.800  1.1050 -0.2954  0.6294
 6996SOL    HW327751   3.573   5.296   3.927 -1.1900  0.3561 -0.6275
 6996SOL    MW427752   3.563   5.246   3.857  0.1538 -0.2045 -0.4431
 6997SOL     OW27753   3.552   4.389   5.591 -0.2908  0.0919  0.0063
 6997SOL    HW227754   3.580   4.340   5.515  1.8735  2.4430 -0.8613
 6997SOL    HW327755   3.487   4.451   5.557 -1.1402 -0.4523  0.5939
 6997SOL    MW427756   3.547   4.391   5.577 -0.1173  0.3303 -0.0307
 6998SOL     OW27757   6.182   5.765   5.892 -0.1509 -0.3968  0.2724
 6998SOL    HW227758   6.155   5.677   5.918 -1.9370  0.3819  1.2424
 6998SOL    HW327759   6.101   5.814   5.886  0.5746  0.6189 -2.6814
 6998SOL    MW427760   6.168   5.760   5.895 -0.2908 -0.1601  0.0107
 6999SOL     OW27761   4.069   3.319   0.314  0.2378 -0.1009  0.1524
 6999SOL    HW227762   4.138   3.360   0.262  0.8681 -0.4729  0.6608
 6999SOL    HW327763   4.076   3.361   0.400  0.2859 -0.6120  0.4038
 6999SOL    MW427764   4.079   3.330   0.319  0.3273 -0.2174  0.2526
 7000SOL     OW27765   0.753   0.136   4.653 -0.3631 -0.2770  0.2203
 7000SOL    HW227766   0.702   0.187   4.590  1.0280  0.9790  0.0540
 7000SOL    HW327767   0.843   0.165   4.640  0.3262 -1.9549  0.9556
 7000SOL    MW427768   0.758   0.147   4.643 -0.0886 -0.3326  0.2954
 7001SOL     OW27769   1.031   3.159   1.736 -0.0412 -0.4216  0.0693
 7001SOL    HW227770   1.024   3.121   1.824 -0.3319 -0.6333 -0.0434
 7001SOL    HW327771   1.049   3.252   1.752 -0.3601 -0.4044  0.3570
 7001SOL    MW427772   1.032   3.166   1.750 -0.1216 -0.4472  0.0924
 7002SOL     OW27773   1.975   3.557   4.819 -0.4347  0.0491  0.3064
 7002SOL    HW227774   1.920   3.632   4.843 -1.6029 -0.6450 -0.1178
 7002SOL    HW327775   2.010   3.526   4.902 -2.5961 -0.9216  0.9235
 7002SOL    MW427776   1.972   3.563   4.833 -0.8740 -0.1705  0.3318
 7003SOL     OW27777   3.421   3.975   2.717 -0.1959 -0.5153  1.0536
 7003SOL    HW227778   3.382   3.909   2.773  0.9655 -0.5480  1.8712
 7003SOL    HW327779   3.514   3.951   2.713 -0.2792 -0.6893 -1.1462
 7003SOL    MW427780   3.428   3.963   2.724 -0.0536 -0.5426  0.8712
 7004SOL     OW27781   0.526   0.210   4.451  0.6143  0.1079 -0.1409
 7004SOL    HW227782   0.451   0.266   4.428 -1.1091 -2.0444 -0.1396
 7004SOL    HW327783   0.585   0.217   4.376 -0.0070  1.1956 -0.5470
 7004SOL    MW427784   0.524   0.218   4.438  0.3050 -0.0326 -0.1943
 7005SOL     OW27785   5.866   4.093   5.891  0.1116  0.2896  0.0801
 7005SOL    HW227786   5.834   4.065   5.977 -0.7401  1.4540  0.1800
 7005SOL    HW327787   5.959   4.070   5.891  0.5554  1.7564  2.0122
 7005SOL    MW427788   5.874   4.086   5.902  0.0578  0.6368  0.3482
 7006SOL     OW27789   4.569   6.314   3.237 -0.3410 -0.6977 -0.1577
 7006SOL    HW227790   4.497   6.358   3.282 -1.1012 -0.4820 -1.5097
 7006SOL    HW327791   4.587   6.236   3.289 -0.3513  0.1566  1.1614
 7006SOL    MW427792   4.562   6.310   3.249 -0.4427 -0.5566 -0.1621
 7007SOL     OW27793   0.014   2.718   1.369  0.4037  0.7404 -0.4128
 7007SOL    HW227794  -0.053   2.718   1.300  0.7887  2.1374 -0.8373
 7007SOL    HW327795   0.006   2.633   1.411 -0.6581  0.3222 -1.4057
 7007SOL    MW427796   0.004   2.707   1.365  0.3144  0.8696 -0.5998
 7008SOL     OW27797   3.111   5.788   1.077  0.0787  0.4184 -0.3117
 7008SOL    HW227798   3.112   5.741   1.161 -0.0926  0.4191 -0.3075
 7008SOL    HW327799   3.026   5.766   1.039  0.6273 -0.5424 -1.0319
 7008SOL    MW427800   3.100   5.779   1.083  0.1285  0.2917 -0.4062
 7009SOL     OW27801   6.003   4.529   0.095 -0.0185  0.2505  1.1430
 7009SOL    HW227802   6.071   4.494   0.152  0.7278  0.7177  0.5657
 7009SOL    HW327803   5.921   4.492   0.128  0.5245 -0.3546  1.8221
 7009SOL    MW427804   6.001   4.519   0.107  0.1516  0.2323  1.1564
 7010SOL     OW27805   4.734   5.200   5.550  0.2746 -0.2984 -0.2138
 7010SOL    HW227806   4.680   5.255   5.607 -0.2122  1.0518 -1.9246
 7010SOL    HW327807   4.755   5.124   5.605 -0.7738  0.5862  1.5206
 7010SOL    MW427808   4.730   5.197   5.565  0.0721 -0.0035 -0.2107
 7011SOL     OW27809   0.940   2.105   2.222 -0.5314 -0.0291 -0.1001
 7011SOL    HW227810   0.919   2.014   2.243 -2.0355  0.8096  2.4351
 7011SOL    HW327811   1.020   2.124   2.270  1.2041 -0.6037 -2.5584
 7011SOL    MW427812   0.948   2.096   2.231 -0.5009  0.0057 -0.0900
 7012SOL     OW27813   3.369   0.228   5.613 -0.4770 -0.0137  0.4522
 7012SOL    HW227814   3.317   0.155   5.646  0.1353 -0.2222  0.9813
 7012SOL    HW327815   3.454   0.190   5.593  0.2008  0.7292  1.7397
 7012SOL    MW427816   3.373   0.214   5.615 -0.3068  0.0568  0.6919
 7013SOL     OW27817   5.149   1.198   0.856  0.8998 -0.2993  0.2445
 7013SOL    HW227818   5.201   1.270   0.891  2.1384 -1.7377  1.5199
 7013SOL    HW327819   5.123   1.228   0.769  0.8664  1.8986  0.9422
 7013SOL    MW427820   5.152   1.211   0.849  1.0588 -0.1991  0.5048
 7014SOL     OW27821   0.963   0.873   0.169 -0.8961  0.0304 -0.5907
 7014SOL    HW227822   0.971   0.870   0.264  0.0233 -0.9084 -0.6657
 7014SOL    HW327823   0.949   0.781   0.144  1.9115 -0.2296 -1.5388
 7014SOL    MW427824   0.962   0.860   0.178 -0.4044 -0.1278 -0.7257
 7015SOL     OW27825   2.186   6.091   1.062  0.8118  0.3893  0.7029
 7015SOL    HW227826   2.156   6.163   1.118  0.1653  1.1299 -0.5403
 7015SOL    HW327827   2.105   6.048   1.034  1.1881 -0.7288  1.2894
 7015SOL    MW427828   2.171   6.095   1.066  0.7761  0.3395  0.6162
 7016SOL     OW27829   5.516  -0.022   4.090 -0.2986 -0.1587 -0.2683
 7016SOL    HW227830   5.526  -0.056   4.000  1.0329  0.0274 -0.2218
 7016SOL    HW327831   5.487   0.068   4.078 -0.0372 -0.1044 -0.5315
 7016SOL    MW427832   5.514  -0.014   4.076 -0.0884 -0.1270 -0.2969
 7017SOL     OW27833   1.567   0.667   5.434 -0.3460  0.0095  0.2603
 7017SOL    HW227834   1.480   0.706   5.442  0.1059  1.0637  0.2764
 7017SOL    HW327835   1.575   0.609   5.509 -0.1238  1.7888  1.6987
 7017SOL    MW427836   1.557   0.665   5.445 -0.2570  0.3833  0.4522
 7018SOL     OW27837   2.896   1.014   6.382  0.1697  0.4883 -0.1822
 7018SOL    HW227838   2.870   1.066   6.306  0.0815  1.4894  0.5241
 7018SOL    HW327839   2.869   1.066   6.457 -0.1675 -0.7106  0.5424
 7018SOL    MW427840   2.889   1.028   6.382  0.1136  0.4622  0.0066
 7019SOL     OW27841   0.027   6.230   6.294  0.0488 -0.1437 -0.0624
 7019SOL    HW227842   0.004   6.322   6.279  1.3878  0.3219  0.5708
 7019SOL    HW327843   0.122   6.231   6.303  0.0896 -1.6179 -0.1246
 7019SOL    MW427844   0.037   6.242   6.293  0.2309 -0.2767  0.0129
 7020SOL     OW27845   0.425   5.191   5.129 -0.3060 -0.4620 -0.3617
 7020SOL    HW227846   0.513   5.225   5.112 -0.6000  0.2742 -0.4502
 7020SOL    HW327847   0.397   5.156   5.044 -0.3510 -0.0926 -0.5032
 7020SOL    MW427848   0.433   5.191   5.115 -0.3507 -0.3161 -0.3920
 7021SOL     OW27849   4.681   1.190   1.908 -0.2670  0.7095 -0.2571
 7021SOL    HW227850   4.638   1.276   1.909 -2.6365 -0.4067  0.0821
 7021SOL    HW327851   4.644   1.146   1.832  1.8357  0.3560 -1.1472
 7021SOL    MW427852   4.671   1.196   1.898 -0.3022  0.5156 -0.3298
 7022SOL     OW27853   3.919   5.893   2.955 -0.0600 -0.6453  0.4788
 7022SOL    HW227854   3.962   5.833   2.893  0.1233  0.4246 -0.4737
 7022SOL    HW327855   3.992   5.935   3.001 -0.0868  0.2970 -0.2947
 7022SOL    MW427856   3.934   5.891   2.953 -0.0393 -0.3798  0.2511
 7023SOL     OW27857   5.870   2.794   0.982 -0.4079 -0.3922 -0.1502
 7023SOL    HW227858   5.920   2.727   0.935 -0.1447  0.5051 -1.1987
 7023SOL    HW327859   5.937   2.855   1.014 -0.6288 -0.7114  0.9642
 7023SOL    MW427860   5.885   2.793   0.980 -0.4023 -0.3159 -0.1415
 7024SOL     OW27861   4.295   2.669   1.498 -0.4526  0.0534 -0.1533
 7024SOL    HW227862   4.245   2.734   1.548 -1.9418 -1.8498  0.9892
 7024SOL    HW327863   4.353   2.629   1.563 -0.1417 -0.3005 -0.6445
 7024SOL    MW427864   4.296   2.672   1.513 -0.6081 -0.2444 -0.0673
 7025SOL     OW27865   0.985   3.153   5.993  0.2294 -0.3611 -0.4926
 7025SOL    HW227866   0.922   3.099   5.946  0.1968 -1.5721  0.8726
 7025SOL    HW327867   0.942   3.239   6.000 -0.6373 -0.7533 -0.8610
 7025SOL    MW427868   0.971   3.158   5.988  0.1107 -0.5726 -0.3611
 7026SOL     OW27869   3.367   1.457   4.819 -0.4036  0.0694 -0.5254
 7026SOL    HW227870   3.400   1.369   4.801 -0.1166 -0.6934  3.1106
 7026SOL    HW327871   3.280   1.443   4.856 -0.5233  1.3637 -0.2763
 7026SOL    MW427872   3.359   1.444   4.821 -0.3815  0.1396 -0.0128
 7027SOL     OW27873   5.333   5.941   2.734  0.4873  0.8532 -0.7139
 7027SOL    HW227874   5.353   5.999   2.807  1.0679 -0.4127  0.1645
 7027SOL    HW327875   5.375   5.858   2.757 -2.7319 -0.8570 -0.4861
 7027SOL    MW427876   5.341   5.938   2.747  0.1392  0.4606 -0.5680
 7028SOL     OW27877   2.104   2.829   5.321 -0.5529 -0.2788 -0.3025
 7028SOL    HW227878   2.137   2.766   5.257  0.7661 -0.2843  0.3624
 7028SOL    HW327879   2.102   2.912   5.275 -0.1885 -0.3936 -0.5230
 7028SOL    MW427880   2.108   2.832   5.307 -0.3308 -0.2947 -0.2439
 7029SOL     OW27881   3.314   5.975   5.161 -0.4740 -0.4062 -0.0308
 7029SOL    HW227882   3.368   6.021   5.225 -0.7619 -1.7290  1.2318
 7029SOL    HW327883   3.309   5.885   5.194  0.4408 -1.5014 -2.6083
 7029SOL    MW427884   3.320   5.969   5.174 -0.3913 -0.7252 -0.2043
 7030SOL     OW27885   1.149   2.025   5.587  0.1426  0.2301 -0.3924
 7030SOL    HW227886   1.165   2.102   5.642  0.1102  0.1065 -0.2099
 7030SOL    HW327887   1.183   2.050   5.501 -1.1433  0.9725 -0.6968
 7030SOL    MW427888   1.156   2.038   5.583 -0.0313  0.3117 -0.4084
 7031SOL     OW27889   4.258   6.114   2.124 -0.3572  0.3447 -0.2148
 7031SOL    HW227890   4.290   6.033   2.163 -0.3660  0.9301  1.0629
 7031SOL    HW327891   4.333   6.150   2.077  0.5726  1.0678  1.6981
 7031SOL    MW427892   4.272   6.108   2.123 -0.2357  0.5173  0.2062
 7032SOL     OW27893   4.266   4.008   6.087  0.2169 -0.3769 -0.2527
 7032SOL    HW227894   4.200   4.073   6.110 -0.0360 -1.5886  2.9713
 7032SOL    HW327895   4.221   3.948   6.028 -0.9115  0.0397  0.1626
 7032SOL    MW427896   4.251   4.008   6.082  0.0347 -0.4818  0.2275
 7033SOL     OW27897   5.309   3.181   3.571 -0.8296 -0.0455  0.4162
 7033SOL    HW227898   5.317   3.168   3.476 -0.9594  1.9333  0.1066
 7033SOL    HW327899   5.386   3.231   3.595 -1.0555 -0.1047  1.2853
 7033SOL    MW427900   5.320   3.186   3.561 -0.8765  0.2078  0.4900
 7034SOL     OW27901   1.058   5.562   5.060 -0.3032 -0.7256 -0.6528
 7034SOL    HW227902   1.102   5.645   5.042 -0.3162 -0.9572 -1.8111
 7034SOL    HW327903   1.025   5.572   5.150 -0.5872  0.6423 -0.8854
 7034SOL    MW427904   1.059   5.574   5.070 -0.3424 -0.5757 -0.8363
 7035SOL     OW27905   4.795   4.491   4.251 -0.4768  0.4108 -0.0734
 7035SOL    HW227906   4.781   4.463   4.161  0.1081 -0.5816  0.1313
 7035SOL    HW327907   4.777   4.585   4.250  1.7298  0.9165 -1.7467
 7035SOL    MW427908   4.791   4.500   4.239 -0.1085  0.3466 -0.2672
 7036SOL     OW27909   5.335   1.385   0.957  0.3045  0.2425 -0.3301
 7036SOL    HW227910   5.400   1.433   0.907  0.3102 -0.1080 -0.6596
 7036SOL    HW327911   5.275   1.453   0.990 -1.1894  0.2968 -2.9356
 7036SOL    MW427912   5.335   1.400   0.955  0.1082  0.2034 -0.7173
 7037SOL     OW27913   6.125   3.045   4.709 -0.6459 -0.4238 -0.4329
 7037SOL    HW227914   6.137   3.040   4.804  1.7432  1.1222 -0.5827
 7037SOL    HW327915   6.103   2.955   4.684 -0.3327 -1.0925  1.4611
 7037SOL    MW427916   6.124   3.032   4.719 -0.2893 -0.3081 -0.2028
 7038SOL     OW27917   5.001   0.669   1.092  0.7178 -0.1515 -0.1858
 7038SOL    HW227918   4.931   0.727   1.060  1.5234  2.0459  1.8100
 7038SOL    HW327919   5.081   0.706   1.056  1.0675 -1.5940 -0.9719
 7038SOL    MW427920   5.002   0.682   1.083  0.8702 -0.0519 -0.0262
 7039SOL     OW27921   4.186   4.669   5.673 -0.3298 -0.5120  0.4677
 7039SOL    HW227922   4.234   4.734   5.724  1.0875 -0.7311 -0.5253
 7039SOL    HW327923   4.221   4.585   5.701 -1.0573 -0.7686  0.6381
 7039SOL    MW427924   4.197   4.667   5.683 -0.2388 -0.5748  0.3592
 7040SOL     OW27925   1.155   2.849   6.182  0.4149 -0.3212  0.1913
 7040SOL    HW227926   1.129   2.929   6.229  3.9528  0.8817  0.4082
 7040SOL    HW327927   1.141   2.779   6.246 -0.7385  0.3918  0.7687
 7040SOL    MW427928   1.149   2.851   6.197  0.7295 -0.0684  0.2961
 7041SOL     OW27929   0.186   1.617   0.815  0.0454 -0.7986  0.1163
 7041SOL    HW227930   0.184   1.561   0.737  0.2953 -2.1688  1.0388
 7041SOL    HW327931   0.278   1.640   0.826 -0.2600  1.1493 -1.1511
 7041SOL    MW427932   0.198   1.612   0.806  0.0381 -0.7224  0.0708
 7042SOL     OW27933   3.600   3.415   0.872 -0.7552  0.5823 -0.2285
 7042SOL    HW227934   3.596   3.459   0.787 -1.0234  1.6499  0.3227
 7042SOL    HW327935   3.616   3.485   0.935  0.3047 -0.2959  0.5290
 7042SOL    MW427936   3.602   3.430   0.869 -0.6507  0.6073 -0.0559
 7043SOL     OW27937   0.295   2.430   0.916  0.1748 -0.3893  0.0642
 7043SOL    HW227938   0.344   2.447   0.996 -0.6487 -1.8095  0.8991
 7043SOL    HW327939   0.251   2.347   0.931 -2.1852  0.6177 -0.8019
 7043SOL    MW427940   0.296   2.421   0.929 -0.2452 -0.4438  0.0601
 7044SOL     OW27941   1.933   5.260   1.940 -0.1857 -0.1017 -0.3176
 7044SOL    HW227942   1.907   5.330   2.000 -0.8718 -1.4393  1.0053
 7044SOL    HW327943   1.971   5.193   1.997 -0.9241 -1.4422 -1.3633
 7044SOL    MW427944   1.934   5.261   1.956 -0.3736 -0.4550 -0.2810
 7045SOL     OW27945   4.937   0.507   3.698 -0.2920 -0.0093  0.0767
 7045SOL    HW227946   4.930   0.544   3.610  0.2219  1.2961  0.5652
 7045SOL    HW327947   4.938   0.583   3.756  2.3813 -0.6594  1.0060
 7045SOL    MW427948   4.936   0.522   3.694  0.1285  0.0771  0.2638
 7046SOL     OW27949   5.028   2.902   3.327  0.1415  0.2083 -0.1302
 7046SOL    HW227950   5.047   2.914   3.420  1.3153  2.0317 -0.5545
 7046SOL    HW327951   4.956   2.962   3.309 -0.9774 -1.0889 -0.1701
 7046SOL    MW427952   5.021   2.911   3.337  0.1488  0.2777 -0.1915
 7047SOL     OW27953   6.277   2.497   2.677 -0.0631 -0.1441 -0.1107
 7047SOL    HW227954   6.186   2.467   2.669  0.0598 -0.7776  0.6923
 7047SOL    HW327955   6.278   2.551   2.755  1.2216 -4.4480  3.2997
 7047SOL    MW427956   6.265   2.500   2.686  0.1226 -0.7956  0.4452
 7048SOL     OW27957   5.023   1.542   5.923 -0.0292  0.3497 -1.0300
 7048SOL    HW227958   5.090   1.604   5.951  0.6600 -0.6027 -0.5151
 7048SOL    HW327959   4.953   1.596   5.887 -0.5958  1.5802  1.7423
 7048SOL    MW427960   5.022   1.557   5.922 -0.0130  0.3864 -0.5963
 7049SOL     OW27961   3.046   1.669   5.820  0.3172  0.1846 -0.4731
 7049SOL    HW227962   2.991   1.733   5.774  0.9291  1.1709  0.1245
 7049SOL    HW327963   3.053   1.703   5.909 -0.6319 -1.5530  0.3187
 7049SOL    MW427964   3.040   1.682   5.826  0.2727  0.0855 -0.2898
 7050SOL     OW27965   4.874   1.387   2.876  0.0187 -0.0164 -0.1744
 7050SOL    HW227966   4.796   1.430   2.911 -0.9745 -2.0669  0.2343
 7050SOL    HW327967   4.946   1.426   2.925 -0.7658  1.4915 -0.1481
 7050SOL    MW427968   4.873   1.398   2.887 -0.2158 -0.0880 -0.1170
 7051SOL     OW27969   3.011   3.085   1.784  0.1545 -0.2916  0.5832
 7051SOL    HW227970   2.987   3.107   1.874  1.4025  2.6091  0.3254
 7051SOL    HW327971   3.104   3.063   1.788  0.4731  0.8114 -0.0592
 7051SOL    MW427972   3.020   3.085   1.796  0.3612  0.2366  0.4644
 7052SOL     OW27973   1.610   3.161   0.536 -0.0608 -0.2201 -0.8252
 7052SOL    HW227974   1.644   3.072   0.532  2.1369  0.5869 -1.4195
 7052SOL    HW327975   1.653   3.201   0.611 -1.5034  0.1936 -0.1766
 7052SOL    MW427976   1.620   3.155   0.545  0.0388 -0.0590 -0.8180
 7053SOL     OW27977   2.678   3.830   5.875  0.3696 -0.0356 -0.1150
 7053SOL    HW227978   2.653   3.913   5.836  1.1593 -0.4397 -1.5381
 7053SOL    HW327979   2.773   3.828   5.868  0.2473 -2.0594 -2.2963
 7053SOL    MW427980   2.687   3.841   5.869  0.4576 -0.3559 -0.5905
 7054SOL     OW27981   0.853   0.231   1.036 -0.0165 -0.3803 -0.4460
 7054SOL    HW227982   0.881   0.234   1.128 -1.0988  1.6501 -0.1220
 7054SOL    HW327983   0.773   0.179   1.038 -0.7576  0.7485  0.0033
 7054SOL    MW427984   0.846   0.224   1.049 -0.2571  0.0365 -0.3440
 7055SOL     OW27985   2.630   1.365   1.407  0.7074  0.4143  0.0128
 7055SOL    HW227986   2.626   1.433   1.475  0.8209  0.2480  0.1862
 7055SOL    HW327987   2.722   1.341   1.403  0.6615  0.2475 -0.0274
 7055SOL    MW427988   2.642   1.371   1.415  0.7163  0.3704  0.0304
 7056SOL     OW27989   4.729   4.786   1.831  0.0424 -0.1241  0.3529
 7056SOL    HW227990   4.753   4.821   1.917  1.9870  0.5238 -0.4092
 7056SOL    HW327991   4.660   4.845   1.800  1.2355  1.3099  0.3299
 7056SOL    MW427992   4.723   4.798   1.839  0.4564  0.1506  0.2493
 7057SOL     OW27993   2.721   2.093   4.717 -0.0358  0.2908 -0.2333
 7057SOL    HW227994   2.803   2.044   4.709 -0.8844 -1.9799  3.0121
 7057SOL    HW327995   2.655   2.036   4.677 -0.4002  1.0427 -0.7378
 7057SOL    MW427996   2.723   2.079   4.710 -0.1959  0.0904  0.1283
 7058SOL     OW27997   6.109   0.289   6.161  0.2014  0.3025 -0.4710
 7058SOL    HW227998   6.098   0.290   6.256 -0.3305  1.1669 -0.5352
 7058SOL    HW327999   6.094   0.197   6.137  0.1732  0.1065  0.2562
 7058SOL    MW428000   6.106   0.277   6.171  0.1275  0.3907 -0.3836
 7059SOL     OW28001   2.697   4.440   2.357 -0.1914  0.5662 -0.0894
 7059SOL    HW228002   2.753   4.509   2.393 -1.9505  2.1001 -0.1151
 7059SOL    HW328003   2.652   4.403   2.433 -0.4006  0.5242 -0.2327
 7059SOL    MW428004   2.699   4.444   2.372 -0.4511  0.7630 -0.1117
 7060SOL     OW28005   6.023   4.435   4.397  0.1141 -0.2544  0.0874
 7060SOL    HW228006   5.987   4.346   4.392  1.5206 -0.7927 -1.6003
 7060SOL    HW328007   6.068   4.447   4.314 -0.2097  2.1573  0.1972
 7060SOL    MW428008   6.024   4.425   4.386  0.2570 -0.0073 -0.1208
 7061SOL     OW28009   5.689   4.653   2.140 -0.0943 -0.1938  0.2584
 7061SOL    HW228010   5.683   4.740   2.100  0.8749 -0.4664 -0.5025
 7061SOL    HW328011   5.656   4.593   2.073  1.1199 -0.6110  0.0226
 7061SOL    MW428012   5.684   4.656   2.126  0.1937 -0.2848  0.1269
 7062SOL     OW28013   2.671   1.236   4.049 -0.6577  0.0965  0.5381
 7062SOL    HW228014   2.648   1.178   3.976 -1.0510 -0.3185  0.9866
 7062SOL    HW328015   2.682   1.177   4.123  1.3000  0.3281  0.4861
 7062SOL    MW428016   2.670   1.220   4.049 -0.4513  0.0723  0.5904
 7063SOL     OW28017   5.086   2.321   3.479 -0.3931  0.0263  0.2324
 7063SOL    HW228018   5.041   2.398   3.512  0.9411  1.6984 -1.6241
 7063SOL    HW328019   5.016   2.261   3.452 -1.4543  0.8823  1.0538
 7063SOL    MW428020   5.071   2.323   3.479 -0.3571  0.3598  0.0959
 7064SOL     OW28021   3.903   5.470   4.342 -0.4322  0.0018  0.2855
 7064SOL    HW228022   3.829   5.477   4.282 -0.1119 -2.0679 -0.4134
 7064SOL    HW328023   3.980   5.492   4.290 -0.3296 -0.0129  0.4284
 7064SOL    MW428024   3.903   5.474   4.327 -0.3764 -0.2732  0.2121
 7065SOL     OW28025   4.735   4.541   0.597 -0.1653  0.2212  0.1309
 7065SOL    HW228026   4.739   4.551   0.692 -1.4805 -0.6593  0.2891
 7065SOL    HW328027   4.779   4.620   0.564  2.1308 -0.4048  1.4507
 7065SOL    MW428028   4.741   4.553   0.605 -0.0359  0.0225  0.3259
 7066SOL     OW28029   6.236   6.037   1.814  0.0310 -0.0277 -0.6440
 7066SOL    HW228030   6.265   6.097   1.746 -0.3138 -1.0888 -1.7674
 7066SOL    HW328031   6.141   6.031   1.801 -0.0472 -0.2005 -0.0262
 7066SOL    MW428032   6.227   6.044   1.803 -0.0248 -0.1905 -0.7107
 7067SOL     OW28033   2.374   3.741   2.728  0.0773 -0.0604 -0.1093
 7067SOL    HW228034   2.315   3.668   2.744 -0.1919 -0.1187 -1.2857
 7067SOL    HW328035   2.318   3.810   2.691  1.0060 -0.8844 -3.3736
 7067SOL    MW428036   2.359   3.740   2.725  0.1643 -0.1768 -0.6952
 7068SOL     OW28037   2.757   4.545   5.230  0.1245 -0.3160  0.2268
 7068SOL    HW228038   2.783   4.544   5.138 -0.4013 -0.6455  0.0787
 7068SOL    HW328039   2.733   4.636   5.247 -0.5497 -0.4144 -0.1872
 7068SOL    MW428040   2.757   4.557   5.221 -0.0338 -0.3725  0.1526
 7069SOL     OW28041   5.945   3.901   0.911 -0.2769 -0.6102 -0.1030
 7069SOL    HW228042   5.856   3.935   0.897 -0.2596 -0.6018 -0.1892
 7069SOL    HW328043   5.996   3.936   0.838  0.0854  0.4198  0.6132
 7069SOL    MW428044   5.940   3.910   0.900 -0.2268 -0.4732 -0.0198
 7070SOL     OW28045   2.021   5.038   2.096  0.3454  0.2743  0.6031
 7070SOL    HW228046   1.939   5.035   2.146  0.8004 -0.2439  1.3311
 7070SOL    HW328047   2.088   5.062   2.160  1.0534 -1.1057  0.4166
 7070SOL    MW428048   2.019   5.041   2.111  0.4989  0.0239  0.6746
 7071SOL     OW28049   6.374   4.386   3.527 -0.0577  0.4458 -0.6678
 7071SOL    HW228050   6.388   4.297   3.560 -1.9429  0.6671  0.8971
 7071SOL    HW328051   6.411   4.442   3.595 -0.1837  0.8743 -0.9517
 7071SOL    MW428052   6.381   4.382   3.540 -0.3230  0.5315 -0.4988
 7072SOL     OW28053   1.340   2.777   2.805  0.0622  0.2123  0.6130
 7072SOL    HW228054   1.294   2.694   2.794 -1.3414  0.7708  1.8435
 7072SOL    HW328055   1.371   2.799   2.718  0.2606 -1.4822  0.2268
 7072SOL    MW428056   1.338   2.769   2.792 -0.0968  0.0624  0.7244
 7073SOL     OW28057   6.044   3.534   4.722  0.1296  0.1302 -0.0409
 7073SOL    HW228058   5.978   3.478   4.762  0.7903 -2.1624 -1.9586
 7073SOL    HW328059   6.030   3.525   4.628  2.5018  0.4024 -0.4937
 7073SOL    MW428060   6.033   3.525   4.715  0.5298 -0.1363 -0.3537
 7074SOL     OW28061   2.144   2.222   4.700 -0.5972  0.1204  0.1495
 7074SOL    HW228062   2.093   2.278   4.758  0.8092  0.8135  0.7767
 7074SOL    HW328063   2.155   2.273   4.620 -0.6518  0.0895  0.1225
 7074SOL    MW428064   2.139   2.236   4.697 -0.4189  0.2078  0.2287
 7075SOL     OW28065   2.001   1.418   2.341 -0.1334  0.3527 -0.4413
 7075SOL    HW228066   1.988   1.325   2.358  1.0062  0.1490 -0.5812
 7075SOL    HW328067   1.950   1.435   2.262 -1.3169  0.1370  0.2578
 7075SOL    MW428068   1.993   1.408   2.333 -0.1392  0.2973 -0.3675
 7076SOL     OW28069   1.799   1.741   3.249 -0.0966  0.5940 -0.0266
 7076SOL    HW228070   1.844   1.656   3.252  0.6346  0.9538 -0.4911
 7076SOL    HW328071   1.729   1.733   3.314  0.2144 -0.2237  0.2254
 7076SOL    MW428072   1.796   1.729   3.258  0.0409  0.5336 -0.0547
 7077SOL     OW28073   1.606   5.370   2.670  0.5619  0.1776  0.3660
 7077SOL    HW228074   1.673   5.432   2.640  1.4654  0.5131  2.8822
 7077SOL    HW328075   1.655   5.290   2.692 -0.3298 -0.7402 -0.8467
 7077SOL    MW428076   1.621   5.367   2.669  0.5635  0.1008  0.5380
 7078SOL     OW28077   5.643   2.638   0.855 -0.9599 -0.0311  0.4964
 7078SOL    HW228078   5.707   2.704   0.881  1.2238 -1.0913 -1.7792
 7078SOL    HW328079   5.679   2.556   0.887 -1.8327 -0.5242  0.2390
 7078SOL    MW428080   5.656   2.636   0.863 -0.7869 -0.2360  0.1622
 7079SOL     OW28081   4.756   5.811   2.847  0.0051 -0.5447  0.3254
 7079SOL    HW228082   4.669   5.835   2.814 -0.2309 -1.4641  0.2496
 7079SOL    HW328083   4.785   5.888   2.895 -1.2559 -0.5457  1.1476
 7079SOL    MW428084   4.748   5.824   2.849 -0.1924 -0.6661  0.4238
 7080SOL     OW28085   5.169   6.235   6.386 -0.2327  0.7185 -0.3453
 7080SOL    HW228086   5.220   6.290   6.446  1.6408 -0.4410 -0.7819
 7080SOL    HW328087   5.235   6.196   6.329 -1.9020  1.4373 -2.9086
 7080SOL    MW428088   5.185   6.237   6.387 -0.2058  0.6604 -0.7411
 7081SOL     OW28089   4.333   0.407   5.112 -0.1608  0.2945 -0.5396
 7081SOL    HW228090   4.326   0.344   5.183  2.1552  1.2999  0.7139
 7081SOL    HW328091   4.280   0.371   5.042 -1.4219 -1.4377  1.2111
 7081SOL    MW428092   4.325   0.394   5.112 -0.0216  0.1986 -0.1433
 7082SOL     OW28093   5.492   2.796   5.932  0.0824 -0.0587  0.1298
 7082SOL    HW228094   5.440   2.804   6.012 -0.1597  0.1262 -0.0427
 7082SOL    HW328095   5.485   2.882   5.891  1.8215  0.4990  0.8879
 7082SOL    MW428096   5.484   2.809   5.937  0.2799  0.0393  0.2070
 7083SOL     OW28097   5.764   3.989   4.272  0.0968  0.2190 -0.2692
 7083SOL    HW228098   5.688   3.945   4.235  0.9014 -1.4731  0.0092
 7083SOL    HW328099   5.822   4.006   4.197  0.2571 -0.1716 -0.2337
 7083SOL    MW428100   5.762   3.986   4.258  0.2241 -0.0558 -0.2277
 7084SOL     OW28101   0.976   3.433   2.143  0.0360 -0.1834  0.1772
 7084SOL    HW228102   0.945   3.471   2.225 -1.7354  0.1043 -0.5738
 7084SOL    HW328103   1.066   3.464   2.133  0.6916 -1.1365  2.5367
 7084SOL    MW428104   0.984   3.442   2.152 -0.1112 -0.2712  0.3894
 7085SOL     OW28105   3.842   2.715   4.593  0.2373 -0.1866 -0.1446
 7085SOL    HW228106   3.878   2.795   4.553 -1.1074  2.2307  3.0319
 7085SOL    HW328107   3.758   2.703   4.549 -0.3922  1.3127  0.5869
 7085SOL    MW428108   3.836   2.724   4.582 -0.0232  0.3301  0.3710
 7086SOL     OW28109   0.678   1.566   3.913 -0.3397 -0.1706 -0.1643
 7086SOL    HW228110   0.589   1.543   3.940 -0.9312 -0.3724 -2.1185
 7086SOL    HW328111   0.688   1.525   3.827  1.0583  1.2201 -0.7016
 7086SOL    MW428112   0.667   1.557   3.905 -0.2333 -0.0137 -0.4930
 7087SOL     OW28113   1.684   4.014   6.376  0.4868 -0.0866  0.2603
 7087SOL    HW228114   1.721   4.091   6.419  0.4198 -0.3866  0.8663
 7087SOL    HW328115   1.744   3.943   6.398  0.4581 -0.2421 -0.1577
 7087SOL    MW428116   1.697   4.015   6.385  0.4742 -0.1467  0.2851
 7088SOL     OW28117   5.620   4.186   0.066  0.4236 -0.2267 -0.1459
 7088SOL    HW228118   5.552   4.185  -0.001  1.3585 -1.0068 -1.1425
 7088SOL    HW328119   5.628   4.094   0.094 -0.0780  0.1151  1.1894
 7088SOL    MW428120   5.612   4.174   0.061  0.4808 -0.2845 -0.1012
 7089SOL     OW28121   2.202   3.609   4.395  0.1423  0.0535  0.7386
 7089SOL    HW228122   2.219   3.560   4.476 -1.1911 -0.4865  0.7048
 7089SOL    HW328123   2.173   3.695   4.425  0.2853  0.0730  0.8228
 7089SOL    MW428124   2.201   3.614   4.410 -0.0148 -0.0152  0.7453
 7090SOL     OW28125   3.198   3.297   5.213 -0.4058  0.6044 -0.1324
 7090SOL    HW228126   3.294   3.292   5.214 -0.4722 -1.6321  0.0448
 7090SOL    HW328127   3.176   3.344   5.294  0.4867 -1.5199  1.4278
 7090SOL    MW428128   3.208   3.303   5.224 -0.2968  0.0291  0.0968
 7091SOL     OW28129   6.135   2.167   4.393  0.2181  0.2256  0.1704
 7091SOL    HW228130   6.104   2.125   4.313 -0.5078  0.4880  0.3036
 7091SOL    HW328131   6.055   2.193   4.439  0.6259 -0.0461  1.0524
 7091SOL    MW428132   6.121   2.165   4.388  0.1761  0.2244  0.3044
 7092SOL     OW28133   5.212   5.277   3.693  0.0044  0.2542  0.3316
 7092SOL    HW228134   5.194   5.369   3.675  0.0147  0.0379 -0.8381
 7092SOL    HW328135   5.291   5.278   3.747 -0.1959  0.9376  0.6299
 7092SOL    MW428136   5.220   5.289   3.698 -0.0207  0.3158  0.2167
 7093SOL     OW28137   2.544   2.021   6.228 -0.1546  0.0789 -0.0234
 7093SOL    HW228138   2.600   2.004   6.304  2.1873 -0.6984 -1.8183
 7093SOL    HW328139   2.464   2.059   6.266  1.8255  2.0162  2.6359
 7093SOL    MW428140   2.540   2.024   6.243  0.4156  0.2320  0.0907
 7094SOL     OW28141   1.816   4.030   3.383 -0.1010  0.4321  0.1539
 7094SOL    HW228142   1.769   3.954   3.417  1.4644 -1.1430 -0.9818
 7094SOL    HW328143   1.908   4.010   3.398  0.3818  1.8724 -0.6575
 7094SOL    MW428144   1.822   4.017   3.389  0.1692  0.4143 -0.1030
 7095SOL     OW28145   6.374   4.025   2.061 -0.5842  0.6466  0.2626
 7095SOL    HW228146   6.304   4.072   2.016  0.7423  1.3239 -1.1635
 7095SOL    HW328147   6.454   4.057   2.022  0.6021  0.4166  2.3619
 7095SOL    MW428148   6.375   4.035   2.050 -0.2527  0.7056  0.3514
 7096SOL     OW28149   0.382   5.537   1.120  0.5206 -0.0015 -0.6482
 7096SOL    HW228150   0.359   5.626   1.091  0.1480 -0.5843 -2.2412
 7096SOL    HW328151   0.312   5.482   1.086 -0.1439 -0.7447  1.7244
 7096SOL    MW428152   0.370   5.542   1.112  0.3837 -0.1765 -0.5453
 7097SOL     OW28153   6.098   4.856   4.054  0.0080  0.0018 -0.3408
 7097SOL    HW228154   6.170   4.883   3.997 -0.1890 -1.0804 -1.1264
 7097SOL    HW328155   6.084   4.931   4.111  1.4078  0.4261 -0.5224
 7097SOL    MW428156   6.106   4.869   4.054  0.1667 -0.0850 -0.4684
 7098SOL     OW28157   2.698   2.024   3.845 -0.4089  0.3530  0.0375
 7098SOL    HW228158   2.643   2.100   3.865  0.7155  1.6027 -1.4043
 7098SOL    HW328159   2.650   1.978   3.776  1.2456  2.7407 -2.9801
 7098SOL    MW428160   2.684   2.028   3.838 -0.0423  0.8329 -0.5508
 7099SOL     OW28161   3.661   5.067   4.069 -0.3215 -0.4944 -0.3173
 7099SOL    HW228162   3.724   5.133   4.097  0.2552 -2.1948  2.8314
 7099SOL    HW328163   3.581   5.115   4.052  0.6771  1.2307 -0.3674
 7099SOL    MW428164   3.659   5.082   4.070 -0.1137 -0.4912  0.0915
 7100SOL     OW28165   1.996   3.732   1.429  0.1041  0.3407 -0.0676
 7100SOL    HW228166   2.069   3.737   1.367  0.6606  0.2807  0.5773
 7100SOL    HW328167   2.020   3.793   1.499 -1.2191  1.5699 -0.6119
 7100SOL    MW428168   2.009   3.741   1.430  0.0029  0.4950 -0.0544
 7101SOL     OW28169   0.595   0.060   0.107  0.4060  0.3458  0.1073
 7101SOL    HW228170   0.536  -0.001   0.152  0.9198 -0.2433  0.0005
 7101SOL    HW328171   0.642   0.104   0.178  0.6403 -0.0032  0.1744
 7101SOL    MW428172   0.593   0.057   0.123  0.5047  0.2221  0.1020
 7102SOL     OW28173   5.853   1.986   5.236  0.1616 -0.4489 -0.8459
 7102SOL    HW228174   5.781   1.922   5.240  0.5752 -1.0104 -1.9388
 7102SOL    HW328175   5.931   1.933   5.221  1.1497 -0.0374  2.1556
 7102SOL    MW428176   5.854   1.970   5.235  0.3465 -0.4687 -0.5941
 7103SOL     OW28177   1.062   4.742   5.622 -0.2890  0.2211 -0.1793
 7103SOL    HW228178   1.095   4.742   5.712 -0.6822  1.7384 -0.0113
 7103SOL    HW328179   1.123   4.799   5.574  0.7298 -1.6335 -1.2327
 7103SOL    MW428180   1.075   4.750   5.627 -0.2064  0.1766 -0.2961
 7104SOL     OW28181   3.341   4.002   5.657 -0.4232  0.2574  0.1044
 7104SOL    HW228182   3.423   3.986   5.703 -0.5515  0.7826  0.5191
 7104SOL    HW328183   3.325   3.921   5.608  0.3277  0.1424  0.0356
 7104SOL    MW428184   3.350   3.989   5.656 -0.3411  0.3115  0.1501
 7105SOL     OW28185   1.358   0.561   5.130 -0.0531 -0.3400  0.0662
 7105SOL    HW228186   1.353   0.505   5.053  1.4690 -0.3184 -0.0724
 7105SOL    HW328187   1.279   0.540   5.181 -0.3678 -1.3440 -0.8161
 7105SOL    MW428188   1.347   0.551   5.127  0.1062 -0.4696 -0.0685
 7106SOL     OW28189   5.901   6.255   1.105 -0.4736 -0.3537  0.2156
 7106SOL    HW228190   5.928   6.163   1.106  1.4845  0.1621  0.7764
 7106SOL    HW328191   5.835   6.262   1.174 -1.6946 -1.5844 -0.7779
 7106SOL    MW428192   5.896   6.244   1.115 -0.3763 -0.4480  0.1585
 7107SOL     OW28193   3.405   1.179   2.917 -0.4389  0.5014 -0.0263
 7107SOL    HW228194   3.370   1.245   2.857  0.4428  0.1982 -0.9067
 7107SOL    HW328195   3.470   1.131   2.865 -0.5485 -0.5971  0.8104
 7107SOL    MW428196   3.409   1.182   2.902 -0.3371  0.3164 -0.0321
 7108SOL     OW28197   0.288   5.654   4.200  0.0591 -0.4830 -0.6390
 7108SOL    HW228198   0.304   5.574   4.150  0.5015  0.8127 -2.6346
 7108SOL    HW328199   0.369   5.704   4.193 -0.0453 -0.0203  0.9914
 7108SOL    MW428200   0.301   5.650   4.193  0.1037 -0.2510 -0.6871
 7109SOL     OW28201   5.996   2.381   2.638  0.1951 -0.1585  0.3126
 7109SOL    HW228202   5.952   2.440   2.577  2.1212  1.2572  0.2166
 7109SOL    HW328203   6.010   2.301   2.588  1.8576  1.0232 -1.1946
 7109SOL    MW428204   5.992   2.378   2.624  0.6686  0.1842  0.1011
 7110SOL     OW28205   5.507   5.204   5.700 -0.0769 -0.1407  0.4491
 7110SOL    HW228206   5.533   5.269   5.766 -1.7795 -0.0483  1.0699
 7110SOL    HW328207   5.507   5.121   5.747 -0.3396 -0.2206  0.3081
 7110SOL    MW428208   5.510   5.202   5.715 -0.3362 -0.1390  0.5124
 7111SOL     OW28209   0.757   5.990   1.136  0.3500 -0.2103 -0.1685
 7111SOL    HW228210   0.781   6.016   1.047  2.3329  0.3165  0.4758
 7111SOL    HW328211   0.820   6.035   1.192  0.3835 -2.0746  1.3822
 7111SOL    MW428212   0.769   5.999   1.132  0.6160 -0.3868  0.1211
 7112SOL     OW28213   3.312   2.173   4.882  0.2547  0.3336  0.1242
 7112SOL    HW228214   3.405   2.155   4.872  0.4071  0.4862  1.1981
 7112SOL    HW328215   3.282   2.195   4.794  1.0978 -0.3189 -0.3372
 7112SOL    MW428216   3.320   2.174   4.869  0.3861  0.2676  0.2050
 7113SOL     OW28217   3.189   2.481   1.739 -0.2641 -0.1369  0.2707
 7113SOL    HW228218   3.215   2.395   1.707  0.9871  0.5646 -0.6864
 7113SOL    HW328219   3.099   2.469   1.769 -0.1224 -1.7646  0.1494
 7113SOL    MW428220   3.181   2.468   1.739 -0.0803 -0.2591  0.1284
 7114SOL     OW28221   5.920   4.698   3.215 -0.0492  0.2214 -0.3394
 7114SOL    HW228222   5.843   4.654   3.251  0.5644 -0.6394 -0.0518
 7114SOL    HW328223   5.954   4.637   3.149  0.6726  0.3668 -0.1130
 7114SOL    MW428224   5.914   4.685   3.211  0.1270  0.1270 -0.2716
 7115SOL     OW28225   3.536   4.399   5.166 -0.0362  0.1980  0.2725
 7115SOL    HW228226   3.583   4.458   5.225  0.7401 -1.2934  1.2093
 7115SOL    HW328227   3.599   4.378   5.097  0.0469 -0.3509  0.5137
 7115SOL    MW428228   3.551   4.404   5.165  0.0772 -0.0712  0.4279
 7116SOL     OW28229   4.996   5.875   0.231 -0.2334  0.3924  0.5499
 7116SOL    HW228230   4.932   5.921   0.176 -0.6705 -0.6950  0.1267
 7116SOL    HW328231   4.943   5.823   0.290  0.2630 -0.0257  0.6254
 7116SOL    MW428232   4.981   5.874   0.231 -0.2256  0.1937  0.5040
 7117SOL     OW28233   2.317   3.490   0.423  0.0445 -0.0317  0.5435
 7117SOL    HW228234   2.232   3.468   0.461 -0.5428 -1.3521 -1.3852
 7117SOL    HW328235   2.306   3.577   0.385 -0.8982 -0.7579 -0.8933
 7117SOL    MW428236   2.305   3.498   0.423 -0.1574 -0.3017  0.0994
 7118SOL     OW28237   6.286   2.748   1.971  0.1962 -0.2789  0.6586
 7118SOL    HW228238   6.235   2.811   1.920 -1.6736 -2.6388 -0.5775
 7118SOL    HW328239   6.249   2.752   2.059  0.5641  0.7890  0.7775
 7118SOL    MW428240   6.274   2.757   1.976 -0.0019 -0.4494  0.5112
 7119SOL     OW28241   0.612   6.235   0.505 -0.0048 -0.1132 -0.0391
 7119SOL    HW228242   0.687   6.221   0.447 -1.5401  1.1837 -2.5007
 7119SOL    HW328243   0.622   6.325   0.535 -0.6561  0.1275 -0.5319
 7119SOL    MW428244   0.623   6.245   0.501 -0.2933  0.0897 -0.4289
 7120SOL     OW28245   5.895   3.143   3.488 -0.1631  0.3002  0.1419
 7120SOL    HW228246   5.948   3.215   3.454  1.5342 -1.3399 -0.9123
 7120SOL    HW328247   5.874   3.168   3.578 -3.9467  4.3618 -1.4743
 7120SOL    MW428248   5.899   3.156   3.495 -0.4384  0.6197 -0.2105
 7121SOL     OW28249   0.468   0.942   4.271 -0.3359  0.1755 -0.4173
 7121SOL    HW228250   0.416   0.863   4.285  2.9231 -1.9811  0.6579
 7121SOL    HW328251   0.493   0.938   4.178 -0.2114 -0.0706 -0.3756
 7121SOL    MW428252   0.464   0.931   4.260  0.1105 -0.1415 -0.2700
 7122SOL     OW28253   0.410   5.662   2.755 -0.3249 -0.0720  0.0635
 7122SOL    HW228254   0.468   5.685   2.683  0.2484 -0.6028  0.3435
 7122SOL    HW328255   0.322   5.661   2.717  0.0415 -1.0476 -0.8040
 7122SOL    MW428256   0.406   5.665   2.741 -0.2009 -0.2707 -0.0140
 7123SOL     OW28257   3.367   0.356   0.215 -0.8113  0.0731 -0.5005
 7123SOL    HW228258   3.410   0.272   0.198 -1.1088 -0.7988  2.4115
 7123SOL    HW328259   3.281   0.333   0.249 -1.1959  1.5817 -0.3527
 7123SOL    MW428260   3.361   0.342   0.218 -0.9013  0.1571 -0.0968
 7124SOL     OW28261   3.509   4.793   4.247 -0.0663  0.2307 -0.4174
 7124SOL    HW228262   3.545   4.867   4.295  0.6206 -0.9902  1.0395
 7124SOL    HW328263   3.414   4.798   4.262  0.1279 -0.1506  1.1925
 7124SOL    MW428264   3.501   4.803   4.255  0.0500  0.0193 -0.0128
 7125SOL     OW28265   2.019   5.651   0.541 -0.7679  0.3737 -0.1691
 7125SOL    HW228266   1.959   5.663   0.614 -1.2203  0.3859 -0.5371
 7125SOL    HW328267   2.053   5.562   0.553  0.7439  1.0792  1.1961
 7125SOL    MW428268   2.016   5.641   0.552 -0.6281  0.4684 -0.0375
 7126SOL     OW28269   1.854   5.790   1.039 -0.2557 -0.3575 -0.2183
 7126SOL    HW228270   1.841   5.795   1.133  1.8227  0.9218  0.0503
 7126SOL    HW328271   1.864   5.881   1.011 -3.2938 -0.4811 -2.1334
 7126SOL    MW428272   1.853   5.802   1.048 -0.3823 -0.2050 -0.4355
 7127SOL     OW28273   4.715   3.260   2.400 -0.4240 -0.0133 -0.5184
 7127SOL    HW228274   4.646   3.325   2.385 -1.7492 -1.4261 -0.7541
 7127SOL    HW328275   4.746   3.237   2.312  0.3995  0.6447 -0.4110
 7127SOL    MW428276   4.710   3.266   2.386 -0.4902 -0.1129 -0.5353
 7128SOL     OW28277   2.603   0.978   0.862 -0.5755  0.2515  0.4251
 7128SOL    HW228278   2.552   1.058   0.851 -1.0748 -0.0186  0.7152
 7128SOL    HW328279   2.539   0.907   0.851 -0.3010 -0.0889  0.9580
 7128SOL    MW428280   2.588   0.979   0.859 -0.6051  0.1710  0.5337
 7129SOL     OW28281   1.767   3.167   0.855  0.0974 -0.0276  0.1460
 7129SOL    HW228282   1.746   3.255   0.886 -1.3307 -0.9327  1.8657
 7129SOL    HW328283   1.831   3.182   0.785 -0.7045  2.4136 -0.1670
 7129SOL    MW428284   1.773   3.180   0.850 -0.1968  0.1750  0.3316
 7130SOL     OW28285   1.398   1.816   1.756  0.0150 -0.1990  0.5879
 7130SOL    HW228286   1.460   1.844   1.823  2.3526  1.3461 -1.9497
 7130SOL    HW328287   1.324   1.876   1.765  0.4794  0.2563  1.4907
 7130SOL    MW428288   1.397   1.828   1.766  0.3847  0.0649  0.3722
 7131SOL     OW28289   0.073   3.270   3.365  0.6030  0.4145 -0.3542
 7131SOL    HW228290  -0.001   3.321   3.331  0.8170  0.9799  0.0120
 7131SOL    HW328291   0.090   3.205   3.297 -0.7266 -0.2284 -0.1129
 7131SOL    MW428292   0.065   3.268   3.352  0.4558  0.4042 -0.2741
 7132SOL     OW28293   2.164   2.912   2.193  0.4056  0.4416 -0.0739
 7132SOL    HW228294   2.176   2.849   2.265  1.7984  0.3862 -0.3256
 7132SOL    HW328295   2.189   2.996   2.231  0.9102  0.4508 -0.4198
 7132SOL    MW428296   2.169   2.915   2.208  0.6560  0.4355 -0.1528
 7133SOL     OW28297   6.421   4.504   1.684 -0.0962  0.4394  0.0892
 7133SOL    HW228298   6.352   4.502   1.750 -0.2414 -2.4473 -0.0499
 7133SOL    HW328299   6.502   4.489   1.734 -0.1832 -1.5126 -0.2851
 7133SOL    MW428300   6.423   4.502   1.700 -0.1269 -0.1990  0.0214
 7134SOL     OW28301   4.874   0.150   5.757 -0.3838  0.3189 -0.3369
 7134SOL    HW228302   4.949   0.169   5.814 -0.8433  0.4284  0.2441
 7134SOL    HW328303   4.882   0.213   5.685 -1.0435  1.7539  0.7783
 7134SOL    MW428304   4.885   0.161   5.755 -0.5314  0.5226 -0.1131
 7135SOL     OW28305   4.857   1.560   2.389  0.0310 -0.4535  0.3166
 7135SOL    HW228306   4.920   1.527   2.453  1.5869 -0.3688 -1.0999
 7135SOL    HW328307   4.870   1.506   2.312 -2.1174 -0.8413  0.1435
 7135SOL    MW428308   4.867   1.549   2.387 -0.0472 -0.4935  0.1069
 7136SOL     OW28309   4.928   4.978   0.113 -0.2070  0.3183 -0.1087
 7136SOL    HW228310   4.990   4.988   0.185 -0.1562  0.9095 -0.2281
 7136SOL    HW328311   4.982   4.976   0.034 -0.2503 -0.4969 -0.1231
 7136SOL    MW428312   4.943   4.979   0.112 -0.2060  0.2888 -0.1263
 7137SOL     OW28313   5.644   5.700   5.284  0.5707 -0.0161  0.7461
 7137SOL    HW228314   5.672   5.660   5.366 -1.5940 -1.4435  0.8598
 7137SOL    HW328315   5.548   5.701   5.289  0.4034  3.4374 -0.1137
 7137SOL    MW428316   5.635   5.695   5.296  0.2630  0.2512  0.6476
 7138SOL     OW28317   1.484   3.865   0.794  0.6662  0.2145  0.0648
 7138SOL    HW228318   1.442   3.779   0.789  0.5035  0.2823  0.2469
 7138SOL    HW328319   1.412   3.927   0.786  0.5573  0.3361  1.6861
 7138SOL    MW428320   1.469   3.862   0.792  0.6303  0.2395  0.3027
 7139SOL     OW28321   6.302   0.770   3.788 -0.4832  0.6420  0.2920
 7139SOL    HW228322   6.301   0.755   3.882 -0.1997  1.4365  0.4374
 7139SOL    HW328323   6.224   0.823   3.771 -0.0169  1.3385  0.2517
 7139SOL    MW428324   6.292   0.775   3.798 -0.3843  0.8387  0.3058
 7140SOL     OW28325   4.056   5.727   2.771 -0.0412 -0.2443  0.5732
 7140SOL    HW228326   4.113   5.800   2.748 -0.0455 -0.7517 -1.1892
 7140SOL    HW328327   3.977   5.741   2.719  0.1676 -1.7449 -0.2029
 7140SOL    MW428328   4.053   5.739   2.761 -0.0142 -0.5093  0.2382
 7141SOL     OW28329   3.662   4.664   2.839  0.0793  0.6829 -0.1378
 7141SOL    HW228330   3.675   4.654   2.933  0.8190 -0.7047 -0.3603
 7141SOL    HW328331   3.569   4.646   2.825  0.8689 -5.7279 -0.2958
 7141SOL    MW428332   3.651   4.660   2.849  0.2811 -0.3460 -0.1880
 7142SOL     OW28333   3.009   3.104   3.308  0.6345 -0.4675  0.0324
 7142SOL    HW228334   2.969   3.123   3.223 -1.3399  2.7429  1.5047
 7142SOL    HW328335   3.029   3.010   3.304 -2.4623 -1.2146 -2.7597
 7142SOL    MW428336   3.006   3.094   3.296 -0.0346 -0.1425 -0.1417
 7143SOL     OW28337   4.065   5.943   3.722 -0.4888 -1.1116  0.2125
 7143SOL    HW228338   3.984   5.993   3.730  0.0948 -0.3286  1.7187
 7143SOL    HW328339   4.053   5.889   3.644 -0.8309  1.9975 -2.0849
 7143SOL    MW428340   4.053   5.942   3.713 -0.4570 -0.5981  0.1082
 7144SOL     OW28341   5.648   1.568   2.247 -0.0716 -0.0119 -0.1757
 7144SOL    HW228342   5.606   1.507   2.307 -0.1088 -1.0064 -1.1833
 7144SOL    HW328343   5.736   1.532   2.233 -0.0423  0.2360 -0.6780
 7144SOL    MW428344   5.654   1.555   2.253 -0.0727 -0.1104 -0.3749
 7145SOL     OW28345   3.815   0.220   5.330 -0.3473 -0.6790 -0.8098
 7145SOL    HW228346   3.733   0.233   5.379  0.8396  0.8261  0.9461
 7145SOL    HW328347   3.787   0.200   5.241 -2.6206 -1.2916 -0.0335
 7145SOL    MW428348   3.800   0.219   5.325 -0.4906 -0.5613 -0.4757
 7146SOL     OW28349   5.060   3.858   1.499  0.3656 -1.1825 -0.3751
 7146SOL    HW228350   4.991   3.866   1.432  0.2259 -0.4198 -0.1433
 7146SOL    HW328351   5.062   3.764   1.519 -0.5347 -1.2303 -0.4626
 7146SOL    MW428352   5.051   3.847   1.493  0.2284 -1.0882 -0.3561
 7147SOL     OW28353   0.985   3.830   4.329 -0.3787 -0.2533  0.1160
 7147SOL    HW228354   1.070   3.829   4.372 -0.5806  0.7497  0.5820
 7147SOL    HW328355   0.938   3.755   4.367 -0.1182 -0.1090  0.7367
 7147SOL    MW428356   0.990   3.820   4.340 -0.3709 -0.1019  0.2594
 7148SOL     OW28357   5.483   0.808   1.039 -0.8467 -0.4226  0.6028
 7148SOL    HW228358   5.529   0.839   1.117  0.6495 -0.3130 -0.2822
 7148SOL    HW328359   5.451   0.887   0.996  1.4091 -0.1095 -0.7022
 7148SOL    MW428360   5.485   0.822   1.044 -0.3517 -0.3669  0.3139
 7149SOL     OW28361   2.607   1.329   3.741 -0.1026  0.1038  0.1191
 7149SOL    HW228362   2.515   1.321   3.716  0.0992 -0.3195 -0.5051
 7149SOL    HW328363   2.609   1.405   3.800 -0.4370  1.8646 -1.9863
 7149SOL    MW428364   2.595   1.338   3.746 -0.1201  0.2802 -0.2411
 7150SOL     OW28365   1.994   1.164   2.343 -0.2999  0.3575  0.0960
 7150SOL    HW228366   1.993   1.120   2.258 -0.2641  0.2946  0.1286
 7150SOL    HW328367   2.086   1.163   2.370 -0.3880 -0.1139  0.3926
 7150SOL    MW428368   2.006   1.158   2.335 -0.3068  0.2870  0.1394
 7151SOL     OW28369   2.583   1.863   0.282 -0.4104 -0.1954  0.0741
 7151SOL    HW228370   2.603   1.907   0.365 -0.3618 -0.7440  0.3549
 7151SOL    HW328371   2.489   1.875   0.270 -0.8104 -1.8188  1.2225
 7151SOL    MW428372   2.574   1.870   0.292 -0.4568 -0.4820  0.2627
 7152SOL     OW28373   5.530   4.598   2.351  0.3554  0.4094  0.1019
 7152SOL    HW228374   5.466   4.662   2.319 -0.4250 -0.6656 -0.5861
 7152SOL    HW328375   5.601   4.601   2.287  0.5195  0.8843  0.3057
 7152SOL    MW428376   5.531   4.607   2.338  0.2741  0.3302  0.0380
 7153SOL     OW28377   5.960   3.168   5.141 -0.3810  0.2656  0.0665
 7153SOL    HW228378   5.907   3.242   5.112  0.6253  0.3917 -1.5677
 7153SOL    HW328379   5.903   3.092   5.135 -0.3967  0.3834 -1.7604
 7153SOL    MW428380   5.946   3.168   5.137 -0.2503  0.2978 -0.3902
 7154SOL     OW28381   4.914   0.038   2.051 -0.3536  0.0101  0.2428
 7154SOL    HW228382   4.992   0.042   2.106 -0.0405 -2.3175  0.0838
 7154SOL    HW328383   4.940   0.079   1.969  0.1776  0.7086  0.7551
 7154SOL    MW428384   4.927   0.044   2.047 -0.2422 -0.2048  0.2894
 7155SOL     OW28385   2.776   2.046   5.005  0.0232  0.3195 -0.2116
 7155SOL    HW228386   2.871   2.061   5.003  0.1103 -0.0742  0.4888
 7155SOL    HW328387   2.749   2.050   4.913  0.7779  0.0982 -0.4532
 7155SOL    MW428388   2.785   2.048   4.993  0.1342  0.2384 -0.1510
 7156SOL     OW28389   4.950   1.553   0.642 -0.4263 -0.3274  0.0629
 7156SOL    HW228390   4.898   1.614   0.591 -0.7156 -1.2646 -0.7758
 7156SOL    HW328391   4.937   1.581   0.733 -1.0392  0.4656 -0.2590
 7156SOL    MW428392   4.942   1.565   0.648 -0.5454 -0.3464 -0.0902
 7157SOL     OW28393   5.417   3.105   0.830 -0.3011  0.5628 -0.4058
 7157SOL    HW228394   5.455   3.177   0.781  0.5928 -0.4100 -1.2087
 7157SOL    HW328395   5.485   3.079   0.892 -1.7725  2.4220  2.1673
 7157SOL    MW428396   5.431   3.111   0.832 -0.3773  0.6797 -0.1723
 7158SOL     OW28397   5.656   0.698   2.978 -0.3972 -0.2402 -0.0530
 7158SOL    HW228398   5.675   0.792   2.978 -0.6419 -0.1759 -1.4210
 7158SOL    HW328399   5.564   0.692   3.005  0.0165 -0.2086  1.4657
 7158SOL    MW428400   5.646   0.710   2.981 -0.3749 -0.2276 -0.0331
 7159SOL     OW28401   5.451   4.902   1.232 -0.4350  0.7353  0.8982
 7159SOL    HW228402   5.364   4.941   1.236 -0.5439  0.7019 -0.5249
 7159SOL    HW328403   5.437   4.808   1.233 -0.5454  0.7033 -0.6273
 7159SOL    MW428404   5.438   4.895   1.232 -0.4639  0.7267  0.5092
 7160SOL     OW28405   3.634   1.396   0.146  0.3166 -0.1123 -0.3958
 7160SOL    HW228406   3.695   1.470   0.136 -0.0529  0.4901  1.5279
 7160SOL    HW328407   3.551   1.429   0.111  0.5499 -0.1946 -1.0436
 7160SOL    MW428408   3.631   1.410   0.140  0.2986 -0.0437 -0.2275
 7161SOL     OW28409   3.530   0.042   4.320  0.4456 -0.3834  0.5269
 7161SOL    HW228410   3.581   0.090   4.386  0.7582  0.5411 -0.3537
 7161SOL    HW328411   3.442   0.079   4.327  0.2185 -1.0279  1.1313
 7161SOL    MW428412   3.525   0.053   4.330  0.4569 -0.3465  0.4904
 7162SOL     OW28413   0.890   1.416   2.573 -0.6967 -0.3663 -0.3134
 7162SOL    HW228414   0.918   1.403   2.664  0.1165 -0.1432 -0.5179
 7162SOL    HW328415   0.964   1.383   2.521 -1.5815 -1.4403 -0.9162
 7162SOL    MW428416   0.904   1.410   2.578 -0.7061 -0.4785 -0.4199
 7163SOL     OW28417   2.129   4.046   4.696  0.2701 -0.3065 -0.3938
 7163SOL    HW228418   2.195   4.022   4.761 -0.1638 -0.7822 -0.1216
 7163SOL    HW328419   2.125   3.971   4.637 -0.3154 -0.4458 -0.1766
 7163SOL    MW428420   2.137   4.033   4.696  0.1356 -0.3876 -0.3293
 7164SOL     OW28421   4.200   3.922   2.469 -0.7713  0.5880 -0.7386
 7164SOL    HW228422   4.265   3.970   2.417 -0.5210  0.4988 -0.5137
 7164SOL    HW328423   4.204   3.963   2.556 -0.6187  0.2202 -0.5702
 7164SOL    MW428424   4.209   3.934   2.474 -0.7181  0.5277 -0.6867
 7165SOL     OW28425   5.484   0.074   3.300 -0.0017  0.0985  0.0805
 7165SOL    HW228426   5.554   0.026   3.255  0.4448 -0.9661  1.8149
 7165SOL    HW328427   5.434   0.115   3.229  0.8166 -1.2541 -1.3515
 7165SOL    MW428428   5.487   0.073   3.285  0.1652 -0.2204  0.1204
 7166SOL     OW28429   1.952   0.310   6.412  0.5323  0.1689 -0.0299
 7166SOL    HW228430   1.939   0.373   6.341  1.4848  0.8766  0.4040
 7166SOL    HW328431   2.002   0.239   6.372  0.0945  0.0301 -0.3386
 7166SOL    MW428432   1.957   0.309   6.398  0.6002  0.2439 -0.0134
 7167SOL     OW28433   1.775   0.350   1.208  0.0780 -0.3265  0.1883
 7167SOL    HW228434   1.761   0.259   1.232  0.0016 -0.4119 -0.1760
 7167SOL    HW328435   1.870   0.357   1.197  0.0995 -0.3218  0.3656
 7167SOL    MW428436   1.786   0.339   1.210  0.0708 -0.3372  0.1636
 7168SOL     OW28437   0.352   3.788   3.728 -0.2459  0.7365 -0.7178
 7168SOL    HW228438   0.423   3.850   3.712  0.7598 -0.0990  0.3833
 7168SOL    HW328439   0.281   3.819   3.672  0.4540  2.4850 -0.7164
 7168SOL    MW428440   0.352   3.800   3.719 -0.0209  0.8570 -0.5723
 7169SOL     OW28441   6.367   3.825   1.434  0.5122  0.3202 -0.1656
 7169SOL    HW228442   6.327   3.842   1.519 -0.5710  0.7413 -0.7321
 7169SOL    HW328443   6.454   3.791   1.454  0.0576 -0.1428  1.1149
 7169SOL    MW428444   6.373   3.823   1.448  0.3093  0.3147 -0.0714
 7170SOL     OW28445   5.228   4.299   3.959 -0.0588 -0.1559  0.1360
 7170SOL    HW228446   5.236   4.311   3.864  0.9806 -0.7350  0.1411
 7170SOL    HW328447   5.286   4.226   3.979  0.6068  0.6789  1.3876
 7170SOL    MW428448   5.237   4.291   3.949  0.1662 -0.1221  0.3018
 7171SOL     OW28449   0.342   3.602   5.315  0.7038 -0.1492  0.4282
 7171SOL    HW228450   0.344   3.532   5.380 -0.1708  0.1664  0.8106
 7171SOL    HW328451   0.321   3.681   5.365 -1.0913 -0.0826 -0.3529
 7171SOL    MW428452   0.339   3.603   5.330  0.3516 -0.0988  0.3756
 7172SOL     OW28453   0.586   5.958   2.191 -0.1470 -0.1663  0.4738
 7172SOL    HW228454   0.580   6.054   2.199  0.7365 -0.0792  0.1828
 7172SOL    HW328455   0.680   5.939   2.194 -0.2701 -0.9535 -0.2244
 7172SOL    MW428456   0.598   5.968   2.192 -0.0466 -0.2587  0.3433
 7173SOL     OW28457   5.594   1.212   5.755  0.0069 -0.2667  0.3401
 7173SOL    HW228458   5.654   1.285   5.740 -0.3299  0.1691  1.0648
 7173SOL    HW328459   5.560   1.227   5.843 -2.0607  0.1405 -0.4752
 7173SOL    MW428460   5.598   1.224   5.765 -0.3103 -0.1555  0.3282
 7174SOL     OW28461   0.720   3.455   1.497  0.5626 -0.1990  0.1510
 7174SOL    HW228462   0.742   3.362   1.489 -0.7672 -0.4514 -1.1820
 7174SOL    HW328463   0.761   3.496   1.421 -1.1066 -0.2151 -0.8238
 7174SOL    MW428464   0.728   3.448   1.486  0.1669 -0.2344 -0.1535
 7175SOL     OW28465   3.104   3.376   5.477 -0.6729 -0.1934  0.1178
 7175SOL    HW228466   3.040   3.427   5.426  0.2857 -1.7604 -2.8673
 7175SOL    HW328467   3.154   3.442   5.525 -1.7453  1.3802 -0.8249
 7175SOL    MW428468   3.102   3.392   5.477 -0.6879 -0.1926 -0.4004
 7176SOL     OW28469   1.432   2.547   6.319 -0.5541 -0.3083 -0.1519
 7176SOL    HW228470   1.510   2.582   6.275  0.1278 -0.6830  0.7407
 7176SOL    HW328471   1.404   2.473   6.265 -1.2191  0.7561 -1.3201
 7176SOL    MW428472   1.438   2.542   6.306 -0.5519 -0.2173 -0.1883
 7177SOL     OW28473   2.527   1.274   4.652  0.9609  0.2444 -0.2867
 7177SOL    HW228474   2.444   1.227   4.640  0.9250  0.4614 -0.8940
 7177SOL    HW328475   2.575   1.221   4.716  0.8942 -0.5942 -0.9088
 7177SOL    MW428476   2.522   1.261   4.659  0.9474  0.1624 -0.4489
 7178SOL     OW28477   0.642   2.692   2.637  0.1087 -0.7651 -0.2688
 7178SOL    HW228478   0.556   2.733   2.648  0.1092 -0.9221  0.3433
 7178SOL    HW328479   0.641   2.659   2.547  0.6692  1.8628 -1.3490
 7178SOL    MW428480   0.631   2.693   2.627  0.1827 -0.4391 -0.3306
 7179SOL     OW28481   0.782   2.655   4.669 -0.6677  0.1044 -0.2351
 7179SOL    HW228482   0.863   2.610   4.692  0.4977  2.5728  0.9061
 7179SOL    HW328483   0.715   2.613   4.723 -0.2234 -1.9935 -1.2101
 7179SOL    MW428484   0.784   2.644   4.679 -0.4553  0.1533 -0.2131
 7180SOL     OW28485   0.763   4.176   1.222 -0.1447 -0.7705 -0.0794
 7180SOL    HW228486   0.809   4.224   1.154 -1.6696  1.4300  0.3129
 7180SOL    HW328487   0.671   4.175   1.193 -0.6784 -0.5795  1.4950
 7180SOL    MW428488   0.757   4.182   1.210 -0.4163 -0.4550  0.1801
 7181SOL     OW28489   4.399   4.559   6.030  0.0984 -0.1631 -0.2642
 7181SOL    HW228490   4.363   4.635   5.985  1.0623 -0.5748 -1.8047
 7181SOL    HW328491   4.323   4.514   6.068 -0.6764  0.5110 -0.9921
 7181SOL    MW428492   4.385   4.563   6.029  0.1234 -0.1285 -0.5635
 7182SOL     OW28493   1.016   3.289   0.102 -0.4205  0.2162  0.6124
 7182SOL    HW228494   0.983   3.378   0.115 -4.3246 -0.2973 -3.3972
 7182SOL    HW328495   0.951   3.233   0.143  1.7223 -0.9693  2.6166
 7182SOL    MW428496   1.003   3.294   0.109 -0.6529 -0.0080  0.3478
 7183SOL     OW28497   5.322  -0.029   5.132 -1.2756 -1.1424  0.6201
 7183SOL    HW228498   5.270  -0.029   5.051 -0.4236 -0.4001  0.0521
 7183SOL    HW328499   5.290   0.047   5.181 -0.6839 -0.6309  0.2286
 7183SOL    MW428500   5.311  -0.019   5.128 -1.0851 -0.9770  0.4935
 7184SOL     OW28501   3.705   4.305   4.969 -0.2077  0.2412  0.4161
 7184SOL    HW228502   3.794   4.289   5.001  0.1043  0.4328 -0.3211
 7184SOL    HW328503   3.664   4.219   4.966  0.0684  0.1095  0.4390
 7184SOL    MW428504   3.711   4.292   4.973 -0.1301  0.2491  0.3218
 7185SOL     OW28505   1.175   6.336   5.473 -0.4073 -0.2835  0.5197
 7185SOL    HW228506   1.247   6.378   5.521 -0.0730  0.0897 -0.2969
 7185SOL    HW328507   1.151   6.261   5.528 -0.2559  0.3205  1.4310
 7185SOL    MW428508   1.182   6.331   5.487 -0.3432 -0.1546  0.5322
 7186SOL     OW28509   2.513   2.125   5.119  0.9930 -0.0676 -0.0939
 7186SOL    HW228510   2.477   2.206   5.083  1.9806  0.4574  0.0701
 7186SOL    HW328511   2.596   2.113   5.074  1.2804 -0.5088  0.5298
 7186SOL    MW428512   2.519   2.134   5.108  1.1612 -0.0565  0.0101
 7187SOL     OW28513   3.599   4.357   5.885 -0.3143 -0.2755 -0.3755
 7187SOL    HW228514   3.581   4.405   5.804  0.5658  1.2947  0.3063
 7187SOL    HW328515   3.513   4.346   5.925 -0.7368 -0.8872 -1.4114
 7187SOL    MW428516   3.585   4.362   5.879 -0.2539 -0.1491 -0.4222
 7188SOL     OW28517   2.608   3.666   3.908  0.1545 -0.1113 -0.1735
 7188SOL    HW228518   2.549   3.726   3.953  0.7535 -0.5223  1.1984
 7188SOL    HW328519   2.686   3.719   3.889  0.1315 -0.0900 -0.2076
 7188SOL    MW428520   2.611   3.681   3.911  0.2305 -0.1627  0.0030
 7189SOL     OW28521   0.452   0.197   1.946  0.3662  0.0750 -0.0465
 7189SOL    HW228522   0.452   0.105   1.972  1.9253  0.1448  0.2814
 7189SOL    HW328523   0.386   0.238   2.003 -0.2405 -0.7927 -0.1019
 7189SOL    MW428524   0.443   0.190   1.957  0.4919 -0.0303 -0.0105
 7190SOL     OW28525   1.719   2.647   0.511  0.4019  0.0860  0.0363
 7190SOL    HW228526   1.664   2.579   0.550 -1.3342  0.8050 -1.0429
 7190SOL    HW328527   1.771   2.601   0.445  0.6172 -0.4963  0.5994
 7190SOL    MW428528   1.718   2.632   0.508  0.2012  0.1041 -0.0318
 7191SOL     OW28529   2.878   3.158   4.160  0.3753  0.0354 -0.1043
 7191SOL    HW228530   2.792   3.117   4.170 -0.2886  1.6449  1.3296
 7191SOL    HW328531   2.882   3.183   4.067  0.0529 -1.5809 -0.5769
 7191SOL    MW428532   2.867   3.156   4.149  0.2452  0.0345  0.0225
 7192SOL     OW28533   2.652   3.839   4.415 -0.6043 -0.4437 -0.3044
 7192SOL    HW228534   2.747   3.830   4.419 -0.5201 -0.5045 -1.9056
 7192SOL    HW328535   2.637   3.934   4.420 -0.4756 -0.4350 -0.0242
 7192SOL    MW428536   2.663   3.851   4.416 -0.5762 -0.4506 -0.4787
 7193SOL     OW28537   4.981   5.568   4.552  0.0831  0.2720  0.1733
 7193SOL    HW228538   5.077   5.565   4.553  0.1623  2.1068  1.0577
 7193SOL    HW328539   4.954   5.482   4.586  1.4030 -0.0648  0.4221
 7193SOL    MW428540   4.990   5.556   4.556  0.2677  0.4697  0.3228
 7194SOL     OW28541   4.237   1.585   1.430 -0.4231  0.0144 -0.0245
 7194SOL    HW228542   4.219   1.665   1.379 -1.0894 -0.0990  0.0202
 7194SOL    HW328543   4.317   1.605   1.478  1.1869 -0.4484 -2.3340
 7194SOL    MW428544   4.245   1.598   1.429 -0.2986 -0.0616 -0.3233
 7195SOL     OW28545   1.479   1.791   3.857  0.5286 -0.0102  0.1324
 7195SOL    HW228546   1.480   1.881   3.889 -1.4521 -0.9346  3.3409
 7195SOL    HW328547   1.415   1.790   3.787  0.4791  1.0391  0.1573
 7195SOL    MW428548   1.471   1.803   3.852  0.2608  0.0063  0.5590
 7196SOL     OW28549   5.131   1.721   2.444  0.5150 -0.3328  0.6142
 7196SOL    HW228550   5.210   1.774   2.455  0.5342 -0.0287 -0.8032
 7196SOL    HW328551   5.097   1.746   2.359  0.5382 -2.6350 -0.1424
 7196SOL    MW428552   5.137   1.731   2.434  0.5206 -0.5965  0.3273
 7197SOL     OW28553   3.217   3.451   0.786  0.3781 -0.0472 -0.4580
 7197SOL    HW228554   3.260   3.392   0.847  0.4258 -0.3422 -0.7730
 7197SOL    HW328555   3.193   3.396   0.711  0.9751  0.4503 -1.0295
 7197SOL    MW428556   3.220   3.436   0.784  0.4632 -0.0205 -0.5750
 7198SOL     OW28557   1.026   4.144   2.768 -0.2640  0.6996  0.3801
 7198SOL    HW228558   0.981   4.132   2.685 -1.3878  0.6654  0.9822
 7198SOL    HW328559   1.091   4.073   2.771 -0.2028  0.7142 -0.4622
 7198SOL    MW428560   1.029   4.133   2.758 -0.4042  0.6970  0.3484
 7199SOL     OW28561   5.627   3.752   4.874  0.0669 -0.0084 -0.0176
 7199SOL    HW228562   5.631   3.681   4.809 -0.2964  0.2371 -0.3128
 7199SOL    HW328563   5.582   3.823   4.829  0.9201  0.6167  0.0958
 7199SOL    MW428564   5.622   3.752   4.860  0.1315  0.1065 -0.0416
 7200SOL     OW28565   1.984   0.702   3.853 -0.1726  0.0131  0.1551
 7200SOL    HW228566   2.048   0.722   3.785 -1.4844 -2.0131 -1.8016
 7200SOL    HW328567   1.915   0.767   3.842 -0.4770 -0.4319 -0.6252
 7200SOL    MW428568   1.984   0.713   3.843 -0.3858 -0.3129 -0.2060
 7201SOL     OW28569   1.302   5.978   0.777  0.1482 -0.3179 -0.3836
 7201SOL    HW228570   1.375   5.995   0.717  0.2577 -0.6298 -0.3372
 7201SOL    HW328571   1.260   6.064   0.786  1.3997  0.2174  0.7630
 7201SOL    MW428572   1.306   5.992   0.770  0.3277 -0.2884 -0.2262
 7202SOL     OW28573   4.201   4.682   0.452 -0.4078  0.1296 -0.5609
 7202SOL    HW228574   4.177   4.610   0.511  0.3767  0.2510 -0.0631
 7202SOL    HW328575   4.202   4.643   0.365  0.4046 -0.5729 -0.2491
 7202SOL    MW428576   4.198   4.668   0.449 -0.1971  0.0529 -0.4541
 7203SOL     OW28577   4.808   2.838   6.145 -0.0704  0.7333  0.4148
 7203SOL    HW228578   4.824   2.921   6.099 -1.1418  0.8733  0.2685
 7203SOL    HW328579   4.713   2.838   6.161  0.0537 -0.0710  1.1801
 7203SOL    MW428580   4.797   2.849   6.141 -0.1954  0.6456  0.4965
 7204SOL     OW28581   0.615   0.210   3.310 -0.3222 -0.3035  0.2650
 7204SOL    HW228582   0.529   0.251   3.302  0.0274  0.5516  0.7101
 7204SOL    HW328583   0.624   0.157   3.231 -0.0539  1.9090 -1.2742
 7204SOL    MW428584   0.605   0.209   3.298 -0.2406  0.1013  0.1207
 7205SOL     OW28585   3.451   5.480   2.804 -0.3076 -0.0183  0.1394
 7205SOL    HW228586   3.482   5.398   2.766  0.4321  0.4613 -0.2985
 7205SOL    HW328587   3.420   5.456   2.891  1.7443 -0.4353  0.7906
 7205SOL    MW428588   3.451   5.466   2.810  0.0607 -0.0100  0.1676
 7206SOL     OW28589   4.715   4.609   0.864 -0.1200 -0.2106 -0.0331
 7206SOL    HW228590   4.804   4.605   0.899 -0.6641 -1.9043  1.3302
 7206SOL    HW328591   4.706   4.698   0.831  2.2122 -0.1181 -0.6151
 7206SOL    MW428592   4.726   4.620   0.865  0.1160 -0.4218  0.0700
 7207SOL     OW28593   5.523   3.531   6.170 -0.2364  0.3705  0.4665
 7207SOL    HW228594   5.597   3.589   6.153 -1.2005  1.0061 -1.9706
 7207SOL    HW328595   5.553   3.445   6.139 -0.5629  0.6664 -0.6927
 7207SOL    MW428596   5.537   3.527   6.164 -0.4067  0.4934 -0.0080
 7208SOL     OW28597   2.549   2.211   0.230 -0.2994 -0.1619 -0.0898
 7208SOL    HW228598   2.621   2.227   0.290 -0.9022 -1.3700  0.9913
 7208SOL    HW328599   2.578   2.135   0.178 -0.7684 -0.6204  0.3165
 7208SOL    MW428600   2.562   2.203   0.231 -0.4408 -0.3818  0.1065
 7209SOL     OW28601   0.181   0.887   2.774 -0.3964 -0.0834  0.1780
 7209SOL    HW228602   0.246   0.816   2.777 -0.7104 -0.3563  1.7635
 7209SOL    HW328603   0.232   0.967   2.785 -0.2064 -0.1986  0.1390
 7209SOL    MW428604   0.196   0.888   2.776 -0.4128 -0.1346  0.3820
 7210SOL     OW28605   4.301   3.971   1.104 -0.7718 -0.0422  0.6887
 7210SOL    HW228606   4.247   3.902   1.143 -1.2683 -1.0354 -1.6272
 7210SOL    HW328607   4.369   3.925   1.056  1.8216  1.1892  2.9113
 7210SOL    MW428608   4.303   3.956   1.103 -0.4952 -0.0108  0.6764
 7211SOL     OW28609   3.528   1.640   4.249 -0.1474  0.5181  0.0627
 7211SOL    HW228610   3.474   1.561   4.247 -1.1559  1.2028 -0.3101
 7211SOL    HW328611   3.506   1.681   4.332  0.6443  0.2363  0.4199
 7211SOL    MW428612   3.518   1.635   4.260 -0.1760  0.5712  0.0607
 7212SOL     OW28613   0.188   3.524   4.561  0.4755 -0.1698 -0.5353
 7212SOL    HW228614   0.207   3.541   4.653 -1.7570  0.0182 -0.0606
 7212SOL    HW328615   0.225   3.437   4.544  0.8170 -0.2497  0.5507
 7212SOL    MW428616   0.196   3.515   4.571  0.2260 -0.1556 -0.3294
 7213SOL     OW28617   5.429   6.203   4.233 -0.4594  0.2542 -0.3037
 7213SOL    HW228618   5.336   6.182   4.218 -0.2779  0.9310 -2.7624
 7213SOL    HW328619   5.443   6.285   4.185  1.6390 -0.3543 -0.8065
 7213SOL    MW428620   5.418   6.211   4.225 -0.1586  0.2632 -0.6944
 7214SOL     OW28621   6.297   0.689   4.047  0.2142  0.1344 -0.0176
 7214SOL    HW228622   6.253   0.763   4.090 -1.3690 -0.4294 -0.5826
 7214SOL    HW328623   6.243   0.613   4.069  1.8883 -0.9088  0.6660
 7214SOL    MW428624   6.284   0.689   4.055  0.2262 -0.0776 -0.0019
 7215SOL     OW28625   1.750   3.509   5.037  0.2008 -0.1081 -0.1952
 7215SOL    HW228626   1.703   3.538   5.114  1.1477  0.8673  0.0387
 7215SOL    HW328627   1.701   3.545   4.963 -0.4836 -0.7127 -0.0415
 7215SOL    MW428628   1.737   3.517   5.037  0.2354 -0.0592 -0.1441
 7216SOL     OW28629   4.783   5.090   5.944 -0.4436  0.1219 -0.2606
 7216SOL    HW228630   4.779   5.088   6.040 -0.9730  0.8767 -0.2577
 7216SOL    HW328631   4.852   5.153   5.924 -1.8304  1.6913 -0.3568
 7216SOL    MW428632   4.791   5.098   5.954 -0.6964  0.4285 -0.2729
 7217SOL     OW28633   6.427   1.418   1.725  0.5631 -1.3164  0.0299
 7217SOL    HW228634   6.383   1.498   1.754  2.6851 -0.0483 -0.0860
 7217SOL    HW328635   6.374   1.386   1.652  0.6454  0.9763 -1.0895
 7217SOL    MW428636   6.414   1.424   1.719  0.8539 -0.8466 -0.1331
 7218SOL     OW28637   1.321   3.466   5.349 -0.3325  0.3411  0.4711
 7218SOL    HW228638   1.317   3.400   5.279  1.8446  1.1125 -0.4675
 7218SOL    HW328639   1.256   3.532   5.323  1.4176  1.3497 -1.7179
 7218SOL    MW428640   1.312   3.466   5.336  0.1856  0.5759  0.0585
 7219SOL     OW28641   4.818   1.565   4.971 -0.0096  0.5718  0.2248
 7219SOL    HW228642   4.727   1.591   4.961  0.3159  2.3754  1.4663
 7219SOL    HW328643   4.851   1.618   5.044  1.7976 -0.6735  0.3956
 7219SOL    MW428644   4.810   1.576   4.979  0.2718  0.6455  0.4111
 7220SOL     OW28645   3.487   5.557   0.448 -0.1744  0.1231  0.3529
 7220SOL    HW228646   3.474   5.525   0.537 -2.1680  0.2520  0.1651
 7220SOL    HW328647   3.430   5.502   0.394  0.3073  0.6390 -0.7171
 7220SOL    MW428648   3.478   5.546   0.453 -0.3739  0.2082  0.1870
 7221SOL     OW28649   4.433   5.345   0.482 -0.4474  0.3230 -0.3994
 7221SOL    HW228650   4.361   5.381   0.533 -0.2819 -0.4505  0.4102
 7221SOL    HW328651   4.512   5.371   0.530 -0.2714 -0.0715 -0.4677
 7221SOL    MW428652   4.434   5.353   0.495 -0.4024  0.1689 -0.3016
 7222SOL     OW28653   4.994   5.127   1.156  0.2268 -0.3317  0.6596
 7222SOL    HW228654   4.928   5.058   1.155 -0.3217 -0.0482  4.3480
 7222SOL    HW328655   4.951   5.200   1.200  1.3636  1.8406 -1.5912
 7222SOL    MW428656   4.979   5.127   1.162  0.3044 -0.0077  0.8493
 7223SOL     OW28657   3.125   0.533   4.981 -0.5297  0.7963  0.1319
 7223SOL    HW228658   3.143   0.518   4.889 -1.8840  1.3293 -0.2383
 7223SOL    HW328659   3.210   0.520   5.024 -0.2850 -1.6018 -0.8815
 7223SOL    MW428660   3.139   0.529   4.975 -0.6761  0.5502 -0.0506
 7224SOL     OW28661   6.427   5.019   6.221 -0.6677  0.1227 -0.6770
 7224SOL    HW228662   6.473   5.099   6.196  2.2627 -1.4491 -0.8443
 7224SOL    HW328663   6.360   5.007   6.153  0.7261  0.9694 -2.2735
 7224SOL    MW428664   6.424   5.028   6.209 -0.0972  0.0271 -0.9097
 7225SOL     OW28665   4.843   5.072   4.769 -0.0248 -0.0338  0.6484
 7225SOL    HW228666   4.856   5.048   4.678 -0.6643 -3.0569  1.2543
 7225SOL    HW328667   4.929   5.062   4.810  0.8265  3.5252  0.0840
 7225SOL    MW428668   4.856   5.068   4.762  0.0032  0.0369  0.6539
 7226SOL     OW28669   4.380   0.564   4.330 -0.4907  0.0493 -0.1015
 7226SOL    HW228670   4.296   0.609   4.325 -0.3425  0.2718 -0.6008
 7226SOL    HW328671   4.440   0.629   4.367 -0.1756  0.4186 -1.2279
 7226SOL    MW428672   4.377   0.579   4.335 -0.4296  0.1274 -0.3160
 7227SOL     OW28673   0.146   5.358   4.568 -0.2015 -0.8060 -0.0322
 7227SOL    HW228674   0.097   5.436   4.542 -1.1078 -1.5363 -0.5898
 7227SOL    HW328675   0.224   5.392   4.612 -1.2053  0.4037  0.9046
 7227SOL    MW428676   0.150   5.373   4.570 -0.4535 -0.7428  0.0179
 7228SOL     OW28677   3.034   1.659   3.791  0.4890 -0.1943 -0.9595
 7228SOL    HW228678   3.064   1.573   3.820  0.8670  0.0378 -0.6544
 7228SOL    HW328679   3.045   1.715   3.867  1.2708  0.3703 -1.4803
 7228SOL    MW428680   3.039   1.655   3.805  0.6420 -0.0892 -0.9880
 7229SOL     OW28681   4.449   0.358   6.087 -0.2763 -0.2445  0.2067
 7229SOL    HW228682   4.519   0.338   6.025 -0.2313 -0.5481  0.3514
 7229SOL    HW328683   4.431   0.451   6.074  0.3499 -0.0969  0.3675
 7229SOL    MW428684   4.456   0.368   6.077 -0.1877 -0.2651  0.2470
 7230SOL     OW28685   0.563   1.959   0.164 -0.3690  0.1812 -0.5905
 7230SOL    HW228686   0.653   1.974   0.194 -0.2676 -2.2258  0.5315
 7230SOL    HW328687   0.573   1.904   0.087 -0.8706  0.0899 -0.5881
 7230SOL    MW428688   0.577   1.954   0.158 -0.4218 -0.1484 -0.4422
 7231SOL     OW28689   1.545   4.026   1.865 -0.2024 -0.0815  0.4769
 7231SOL    HW228690   1.587   3.940   1.855  2.3282  1.2534 -1.6555
 7231SOL    HW328691   1.599   4.072   1.929 -0.7729  0.3786  0.6361
 7231SOL    MW428692   1.557   4.021   1.872  0.0562  0.1553  0.2165
 7232SOL     OW28693   6.142   4.874   1.294  0.0775 -0.5113 -0.6409
 7232SOL    HW228694   6.228   4.896   1.259  0.3732  2.3207  1.4657
 7232SOL    HW328695   6.080   4.912   1.231  0.4509 -0.0602 -0.7393
 7232SOL    MW428696   6.145   4.882   1.281  0.1658 -0.0781 -0.3760
 7233SOL     OW28697   4.683   0.126   5.479 -0.4197 -0.4847  0.1428
 7233SOL    HW228698   4.714   0.178   5.405  1.1315 -0.2924  0.8749
 7233SOL    HW328699   4.611   0.176   5.516  0.5693  0.8045  0.3899
 7233SOL    MW428700   4.678   0.139   5.474 -0.0846 -0.2892  0.2720
 7234SOL     OW28701   2.520   4.757   2.271 -0.6064  0.2687  0.2010
 7234SOL    HW228702   2.534   4.745   2.365 -2.6773  0.0229  0.5165
 7234SOL    HW328703   2.432   4.723   2.255 -0.0119 -0.3705 -1.9789
 7234SOL    MW428704   2.510   4.751   2.281 -0.8012  0.1520 -0.0450
 7235SOL     OW28705   1.332   6.070   3.826  0.1873 -0.3485 -0.1336
 7235SOL    HW228706   1.239   6.048   3.825 -0.0901  0.6996  0.5803
 7235SOL    HW328707   1.375   5.990   3.857 -0.7137 -0.2012  1.6839
 7235SOL    MW428708   1.325   6.056   3.830  0.0318 -0.1908  0.2004
 7236SOL     OW28709   0.588   4.237   0.343 -0.5898  0.9603  0.1865
 7236SOL    HW228710   0.627   4.155   0.374  0.4992  0.4640 -2.3116
 7236SOL    HW328711   0.636   4.305   0.390 -0.1874  0.2196  0.8760
 7236SOL    MW428712   0.599   4.235   0.353 -0.3931  0.7971 -0.0521
 7237SOL     OW28713   1.172   5.529   0.549 -0.3932 -0.2835 -0.1391
 7237SOL    HW228714   1.230   5.578   0.491 -2.3644  1.7893 -0.5128
 7237SOL    HW328715   1.177   5.575   0.633 -2.4169  0.8229 -0.5457
 7237SOL    MW428716   1.180   5.541   0.553 -0.9203  0.1360 -0.2421
 7238SOL     OW28717   6.169   5.797   0.929 -0.0199  0.5740 -0.3404
 7238SOL    HW228718   6.265   5.803   0.930  0.3298 -2.4618  2.1084
 7238SOL    HW328719   6.149   5.737   0.857 -0.1017  1.2309 -0.8702
 7238SOL    MW428720   6.179   5.790   0.920  0.0155  0.2601 -0.0872
 7239SOL     OW28721   3.192   2.464   5.310  0.4629  0.0641 -0.5457
 7239SOL    HW228722   3.199   2.441   5.217 -0.6181  1.7435 -1.1020
 7239SOL    HW328723   3.112   2.517   5.315  1.3893  1.4109  1.0250
 7239SOL    MW428724   3.183   2.468   5.298  0.4425  0.4634 -0.4119
 7240SOL     OW28725   2.633   6.335   0.940  0.3461 -0.3266 -0.5621
 7240SOL    HW228726   2.682   6.267   0.985  0.0077  0.0419  0.3893
 7240SOL    HW328727   2.686   6.356   0.863  1.3397 -0.4087  0.0799
 7240SOL    MW428728   2.646   6.329   0.935  0.4325 -0.2889 -0.3519
 7241SOL     OW28729   4.910   1.663   1.331 -0.0184 -0.2399  0.2640
 7241SOL    HW228730   4.859   1.615   1.396  1.4504 -2.3883 -0.0641
 7241SOL    HW328731   5.000   1.662   1.365  0.2067  1.6130 -0.1733
 7241SOL    MW428732   4.915   1.657   1.344  0.2051 -0.2789  0.1630
 7242SOL     OW28733   4.078   3.465   2.991  0.9114 -0.6465  0.6099
 7242SOL    HW228734   4.117   3.379   2.975 -0.0115 -1.7505  3.5820
 7242SOL    HW328735   4.124   3.499   3.067 -1.4377 -0.4827  2.0904
 7242SOL    MW428736   4.089   3.458   2.999  0.4797 -0.7705  1.1974
 7243SOL     OW28737   5.473   2.436   5.028 -0.7463  0.4770 -0.2158
 7243SOL    HW228738   5.399   2.404   4.977 -1.9059  0.6113  1.2966
 7243SOL    HW328739   5.467   2.531   5.022 -0.8429  0.4914  0.0961
 7243SOL    MW428740   5.462   2.444   5.021 -0.9120  0.4966  0.0249
 7244SOL     OW28741   4.988   5.888   4.928  0.1055 -0.6079 -0.4054
 7244SOL    HW228742   5.035   5.971   4.938 -3.6509  1.6881  0.5053
 7244SOL    HW328743   5.028   5.829   4.992  0.8513  1.6031  1.2968
 7244SOL    MW428744   4.999   5.891   4.937 -0.2917 -0.0133 -0.0607
 7245SOL     OW28745   5.562   2.751   6.315  0.2935 -0.1115 -0.1208
 7245SOL    HW228746   5.616   2.824   6.283  0.3722 -0.5816 -1.0882
 7245SOL    HW328747   5.481   2.758   6.265  0.6674 -1.2400 -0.9167
 7245SOL    MW428748   5.559   2.762   6.304  0.3532 -0.3224 -0.3535
 7246SOL     OW28749   0.754   5.043   2.772  0.8758  0.6178  0.8729
 7246SOL    HW228750   0.819   4.975   2.758  0.9712  0.6965  0.9312
 7246SOL    HW328751   0.701   5.011   2.845  0.9825  0.6520  0.9648
 7246SOL    MW428752   0.756   5.030   2.780  0.9025  0.6327  0.8927
 7247SOL     OW28753   4.986   2.765   1.463  0.1926  0.2552 -0.4119
 7247SOL    HW228754   4.918   2.763   1.529  0.0196 -1.5727 -0.5911
 7247SOL    HW328755   4.943   2.798   1.384 -0.9382 -2.1661 -0.9115
 7247SOL    MW428756   4.971   2.769   1.461  0.0206 -0.3054 -0.5015
 7248SOL     OW28757   3.452   2.900   4.378 -0.1528  0.9239 -0.0325
 7248SOL    HW228758   3.388   2.945   4.434 -1.5078  0.1590 -0.8960
 7248SOL    HW328759   3.399   2.866   4.305  0.9238 -1.4048  0.1999
 7248SOL    MW428760   3.436   2.902   4.376 -0.1895  0.5157 -0.1158
 7249SOL     OW28761   6.087   4.852   6.235  0.3278 -0.1682  0.3266
 7249SOL    HW228762   6.082   4.787   6.165 -0.8553 -2.3945  2.3262
 7249SOL    HW328763   6.084   4.936   6.190 -0.2927 -1.4773 -2.2797
 7249SOL    MW428764   6.086   4.854   6.220  0.0898 -0.6346  0.2466
 7250SOL     OW28765   4.843   3.086   3.225  0.3438 -0.4412 -0.0187
 7250SOL    HW228766   4.802   3.049   3.146  0.6355 -1.6141  0.3569
 7250SOL    HW328767   4.770   3.126   3.272  0.2664  0.8550 -1.1815
 7250SOL    MW428768   4.828   3.086   3.221  0.3721 -0.4249 -0.1226
 7251SOL     OW28769   3.536   2.572   3.782  0.3314 -0.1824 -0.4009
 7251SOL    HW228770   3.618   2.540   3.744  0.3391 -0.5481 -0.0765
 7251SOL    HW328771   3.515   2.510   3.852  0.6905  0.8769  0.6779
 7251SOL    MW428772   3.544   2.560   3.786  0.3798 -0.0909 -0.2158
 7252SOL     OW28773   4.335   3.016   4.936  0.1720  0.0489  0.3064
 7252SOL    HW228774   4.253   3.015   4.986  1.2989 -0.8159  2.2750
 7252SOL    HW328775   4.341   3.105   4.902 -1.8660 -0.0396 -0.4194
 7252SOL    MW428776   4.325   3.028   4.938  0.0518 -0.0769  0.4703
 7253SOL     OW28777   0.458   4.096   1.894  0.6598  0.5077 -0.3096
 7253SOL    HW228778   0.480   4.151   1.969 -0.2853  0.9849 -0.3593
 7253SOL    HW328779   0.513   4.130   1.823  1.2979  0.2862  0.0762
 7253SOL    MW428780   0.468   4.108   1.894  0.6193  0.5415 -0.2653
 7254SOL     OW28781   1.184   4.508   5.830 -0.2402  0.2082 -0.4273
 7254SOL    HW228782   1.246   4.529   5.900  0.7079  2.5591 -1.8475
 7254SOL    HW328783   1.098   4.507   5.873  0.6020 -2.5448  1.4629
 7254SOL    MW428784   1.181   4.511   5.845 -0.0040  0.1551 -0.3653
 7255SOL     OW28785   3.206   4.705   4.761  0.2683  0.0542 -0.2102
 7255SOL    HW228786   3.272   4.638   4.780  0.1254  0.1393  0.6293
 7255SOL    HW328787   3.254   4.787   4.764  0.5171 -0.0142 -1.5973
 7255SOL    MW428788   3.221   4.707   4.764  0.2822  0.0564 -0.2825
 7256SOL     OW28789   0.210  -0.030   5.578 -0.0340  0.0925  0.4711
 7256SOL    HW228790   0.241  -0.096   5.640 -1.1962 -0.0067  0.9755
 7256SOL    HW328791   0.154   0.027   5.630 -0.6374  0.2959 -0.3847
 7256SOL    MW428792   0.207  -0.031   5.593 -0.2669  0.1063  0.4248
 7257SOL     OW28793   1.619   3.619   0.222 -0.0177 -0.1600 -0.5952
 7257SOL    HW228794   1.638   3.605   0.129  3.3789 -0.8176  0.0955
 7257SOL    HW328795   1.595   3.532   0.254  0.6746 -0.3213 -0.4983
 7257SOL    MW428796   1.618   3.606   0.214  0.5218 -0.2680 -0.4913
 7258SOL     OW28797   2.328   6.141   5.905  0.4360  0.1221  0.3647
 7258SOL    HW228798   2.365   6.171   5.823 -0.3411 -1.5618 -0.6460
 7258SOL    HW328799   2.248   6.192   5.915  0.0937 -0.2593 -0.3680
 7258SOL    MW428800   2.322   6.152   5.896  0.2883 -0.1504  0.1347
 7259SOL     OW28801   4.775   4.712   1.268 -0.0832 -0.1649  0.1854
 7259SOL    HW228802   4.765   4.756   1.353 -0.4815  0.1642 -0.0333
 7259SOL    HW328803   4.686   4.701   1.235  0.0874  0.0932 -0.3844
 7259SOL    MW428804   4.762   4.716   1.275 -0.1133 -0.0874  0.0814
 7260SOL     OW28805   5.291   0.935   2.813  0.2264  0.4994  0.2270
 7260SOL    HW228806   5.325   0.895   2.893  0.4482 -0.5863 -0.3769
 7260SOL    HW328807   5.348   1.011   2.798  0.5619  0.3621  0.7754
 7260SOL    MW428808   5.303   0.939   2.822  0.2999  0.3381  0.2197
 7261SOL     OW28809   3.398   1.097   3.911  0.2151 -0.3997 -0.0769
 7261SOL    HW228810   3.465   1.041   3.870 -0.8439 -1.1916 -0.7980
 7261SOL    HW328811   3.444   1.177   3.934  1.6179 -1.2755  0.2932
 7261SOL    MW428812   3.413   1.100   3.908  0.2604 -0.6197 -0.1232
 7262SOL     OW28813   1.960   5.400   5.847  0.0224 -0.3114  0.1072
 7262SOL    HW228814   1.872   5.418   5.812  0.4846 -1.0656 -1.5328
 7262SOL    HW328815   2.015   5.468   5.808  0.4612 -0.8737 -0.2665
 7262SOL    MW428816   1.956   5.411   5.837  0.1413 -0.4851 -0.1584
 7263SOL     OW28817   5.235   0.030   3.848  0.0695  0.3403  0.8224
 7263SOL    HW228818   5.171  -0.030   3.810  0.4678  0.9039 -0.7975
 7263SOL    HW328819   5.231   0.108   3.793  1.2236  0.8935  1.4833
 7263SOL    MW428820   5.226   0.032   3.836  0.2743  0.4877  0.6959
 7264SOL     OW28821   1.119   2.065   0.839 -0.4273  0.1890  0.5383
 7264SOL    HW228822   1.039   2.118   0.839  0.7395  2.0642 -0.9570
 7264SOL    HW328823   1.120   2.023   0.753  0.9910  1.5506 -0.1600
 7264SOL    MW428824   1.108   2.067   0.828 -0.0862  0.6161  0.2488
 7265SOL     OW28825   0.263   0.362   4.407 -0.0759 -0.6546  0.2722
 7265SOL    HW228826   0.321   0.438   4.417  1.0553 -1.3513 -0.6523
 7265SOL    HW328827   0.231   0.368   4.317 -1.8880 -0.0245  0.9085
 7265SOL    MW428828   0.267   0.373   4.396 -0.1657 -0.6634  0.2342
 7266SOL     OW28829   4.330   1.856   1.790  0.1759  0.3720  0.1698
 7266SOL    HW228830   4.311   1.942   1.752  2.2699  0.4995 -0.7392
 7266SOL    HW328831   4.372   1.808   1.719  2.3034 -0.1404  1.6955
 7266SOL    MW428832   4.333   1.861   1.775  0.7329  0.3212  0.2512
 7267SOL     OW28833   4.721   5.219   5.267  0.3356 -0.2011 -0.8590
 7267SOL    HW228834   4.719   5.188   5.358 -0.0759  0.2253 -0.7180
 7267SOL    HW328835   4.812   5.242   5.252 -0.1427  3.5321  0.7910
 7267SOL    MW428836   4.733   5.218   5.277  0.2182  0.3477 -0.6227
 7268SOL     OW28837   2.698   3.933   0.147 -0.2942 -0.1058 -0.0169
 7268SOL    HW228838   2.736   3.853   0.112  0.7553 -0.0425  0.9365
 7268SOL    HW328839   2.766   3.971   0.202 -1.1974  0.8122  0.5183
 7268SOL    MW428840   2.712   3.928   0.150 -0.2749  0.0237  0.1795
 7269SOL     OW28841   2.636   2.900   0.337 -0.0278 -0.0223  0.3490
 7269SOL    HW228842   2.558   2.942   0.375 -0.3233 -0.6815  0.4792
 7269SOL    HW328843   2.701   2.903   0.407 -0.0621  0.1682  0.3745
 7269SOL    MW428844   2.634   2.906   0.351 -0.0714 -0.0841  0.3696
 7270SOL     OW28845   5.668   3.437   2.789 -0.2150 -0.2823 -0.1467
 7270SOL    HW228846   5.681   3.483   2.872 -2.6337  0.7325 -0.2686
 7270SOL    HW328847   5.745   3.460   2.736  0.9032 -0.2090  1.4557
 7270SOL    MW428848   5.680   3.446   2.793 -0.3866 -0.1387  0.0487
 7271SOL     OW28849   2.654   4.536   2.715 -0.2348 -0.2264  0.1967
 7271SOL    HW228850   2.623   4.527   2.805 -2.2408 -0.4754 -0.4898
 7271SOL    HW328851   2.632   4.454   2.673 -0.7006  0.4438 -0.9126
 7271SOL    MW428852   2.647   4.524   2.722 -0.5609 -0.1708 -0.0402
 7272SOL     OW28853   5.103   4.523   4.270  0.1621 -0.2196 -0.1778
 7272SOL    HW228854   5.011   4.499   4.257  0.6848 -2.2713 -0.3708
 7272SOL    HW328855   5.120   4.590   4.204 -1.4337  0.8964  0.4929
 7272SOL    MW428856   5.093   4.529   4.260  0.0205 -0.3431 -0.1148
 7273SOL     OW28857   1.847   0.977   3.281 -0.6563  0.2354 -0.1377
 7273SOL    HW228858   1.915   1.008   3.341  1.0160 -1.1805 -1.1780
 7273SOL    HW328859   1.765   0.988   3.329  0.5411 -0.2782  2.1749
 7273SOL    MW428860   1.845   0.983   3.295 -0.2777 -0.0192  0.0302
 7274SOL     OW28861   2.752   5.794   1.789 -0.1359 -0.7106  0.1257
 7274SOL    HW228862   2.672   5.763   1.831  0.2453 -1.9087  0.0113
 7274SOL    HW328863   2.798   5.714   1.763  1.5724 -0.0887  1.0756
 7274SOL    MW428864   2.748   5.779   1.791  0.1398 -0.7866  0.2359
 7275SOL     OW28865   2.314   2.145   0.848 -0.0022 -0.1569 -0.0205
 7275SOL    HW228866   2.302   2.195   0.767 -0.5723  0.0614  0.1967
 7275SOL    HW328867   2.235   2.092   0.856  0.2332 -0.4839  0.1884
 7275SOL    MW428868   2.302   2.145   0.838 -0.0464 -0.1712  0.0357
 7276SOL     OW28869   0.614   2.522   4.831 -0.4087 -0.3049 -0.1087
 7276SOL    HW228870   0.674   2.512   4.905  1.2434  0.8467 -1.2244
 7276SOL    HW328871   0.608   2.434   4.794  0.3987 -0.4943  0.1860
 7276SOL    MW428872   0.621   2.509   4.836 -0.0842 -0.1780 -0.2170
 7277SOL     OW28873   5.158   3.038   4.970  0.2527  0.0424 -0.1178
 7277SOL    HW228874   5.170   3.016   4.878  0.1546  1.8641 -0.5928
 7277SOL    HW328875   5.082   3.096   4.972 -0.4428 -0.8560  1.2695
 7277SOL    MW428876   5.150   3.042   4.958  0.1480  0.1642  0.0026
 7278SOL     OW28877   4.521   0.877   4.692  0.0446  0.3731 -0.1154
 7278SOL    HW228878   4.529   0.818   4.616 -0.7183  0.4378 -0.2554
 7278SOL    HW328879   4.607   0.875   4.732  0.5314  0.5007 -1.1104
 7278SOL    MW428880   4.533   0.869   4.687  0.0082  0.3985 -0.2652
 7279SOL     OW28881   3.738   2.778   2.691 -0.0356 -0.7957 -1.2798
 7279SOL    HW228882   3.716   2.687   2.673 -1.7511 -0.5672 -0.5403
 7279SOL    HW328883   3.794   2.775   2.768 -1.4450 -1.1750 -0.2175
 7279SOL    MW428884   3.742   2.766   2.699 -0.4479 -0.8156 -1.0421
 7280SOL     OW28885   5.286   1.195   1.540  0.0724 -0.0424  0.4345
 7280SOL    HW228886   5.239   1.185   1.457  0.6427  1.9666 -0.1586
 7280SOL    HW328887   5.309   1.287   1.544 -0.8711  0.1589  3.3465
 7280SOL    MW428888   5.283   1.206   1.530  0.0232  0.2492  0.7404
 7281SOL     OW28889   2.919   0.714   1.288  0.2906  0.2248 -0.8478
 7281SOL    HW228890   3.015   0.708   1.291  0.2226 -0.8147 -0.6165
 7281SOL    HW328891   2.888   0.637   1.335 -0.6697  0.7297 -0.6282
 7281SOL    MW428892   2.928   0.703   1.294  0.1549  0.1542 -0.7883
 7282SOL     OW28893   1.050   3.168   5.725  0.5962  0.1447  0.4837
 7282SOL    HW228894   1.072   3.157   5.818  1.1578  0.9660  0.4615
 7282SOL    HW328895   0.965   3.212   5.726  0.9660  0.8823  0.6338
 7282SOL    MW428896   1.042   3.172   5.737  0.7191  0.3504  0.5006
 7283SOL     OW28897   4.663   5.463   2.828  0.2835 -0.6861 -0.2044
 7283SOL    HW228898   4.725   5.405   2.785  1.3124  0.3465 -0.1704
 7283SOL    HW328899   4.716   5.536   2.859 -1.1380  1.0475 -1.6102
 7283SOL    MW428900   4.678   5.465   2.826  0.2317 -0.3212 -0.3854
 7284SOL     OW28901   1.162   2.294   3.728 -0.0092 -0.4656 -0.1656
 7284SOL    HW228902   1.073   2.327   3.742 -0.3217 -1.4776  0.3406
 7284SOL    HW328903   1.219   2.359   3.769 -0.6108 -0.5343  0.8229
 7284SOL    MW428904   1.158   2.307   3.735 -0.1298 -0.6082  0.0316
 7285SOL     OW28905   6.106   3.200   4.014  0.1978 -0.1379  0.3590
 7285SOL    HW228906   6.133   3.129   4.072  1.3860 -0.0821 -0.0866
 7285SOL    HW328907   6.101   3.277   4.071  2.3529  0.1397  0.2921
 7285SOL    MW428908   6.109   3.201   4.029  0.6389 -0.0939  0.2914
 7286SOL     OW28909   2.843   4.711   2.843  0.5507 -0.4967  0.1098
 7286SOL    HW228910   2.809   4.637   2.792 -0.3937  0.0987 -0.1530
 7286SOL    HW328911   2.770   4.737   2.898  0.8527  0.2927  0.1446
 7286SOL    MW428912   2.829   4.704   2.843  0.4660 -0.3140  0.0797
 7287SOL     OW28913   0.250   4.445   1.832  0.4545  0.0524  0.1894
 7287SOL    HW228914   0.316   4.513   1.847 -0.2692  1.1754 -1.4676
 7287SOL    HW328915   0.292   4.383   1.772  1.3874 -1.4742  2.2744
 7287SOL    MW428916   0.265   4.446   1.826  0.4821 -0.0009  0.2459
 7288SOL     OW28917   2.430   1.515   0.504 -0.7462 -0.4881 -0.5711
 7288SOL    HW228918   2.345   1.480   0.532  1.4423 -4.8008  1.4776
 7288SOL    HW328919   2.458   1.571   0.576 -0.8260 -0.9886 -0.1506
 7288SOL    MW428920   2.422   1.518   0.517 -0.4680 -1.1232 -0.2453
 7289SOL     OW28921   2.347  -0.024   3.327  0.3033 -1.0302 -0.4454
 7289SOL    HW228922   2.435   0.013   3.337 -0.2077  0.1072 -0.0015
 7289SOL    HW328923   2.352  -0.078   3.248  1.5605 -1.4944 -0.0732
 7289SOL    MW428924   2.359  -0.026   3.318  0.4017 -0.9414 -0.3377
 7290SOL     OW28925   4.514   4.508   0.450 -0.3774  0.2677  0.2165
 7290SOL    HW228926   4.454   4.458   0.504 -0.6196 -1.1120 -1.2700
 7290SOL    HW328927   4.583   4.537   0.510 -1.4403  0.1272  1.5305
 7290SOL    MW428928   4.515   4.505   0.465 -0.5496  0.0671  0.1937
 7291SOL     OW28929   2.641   6.042   4.052  0.3724 -0.1972  0.0730
 7291SOL    HW228930   2.623   6.101   4.126 -1.0256 -2.2025  1.4223
 7291SOL    HW328931   2.724   6.074   4.016  0.0480  2.1268  1.1585
 7291SOL    MW428932   2.649   6.054   4.057  0.1452 -0.1552  0.3943
 7292SOL     OW28933   5.364   3.879   5.912  0.1449 -0.3949 -0.1565
 7292SOL    HW228934   5.410   3.897   5.994 -0.4662 -0.8272  0.2843
 7292SOL    HW328935   5.287   3.935   5.914  0.8623  0.6839 -1.1161
 7292SOL    MW428936   5.360   3.889   5.923  0.1589 -0.3096 -0.2250
 7293SOL     OW28937   4.577   1.172   2.984 -0.0737  0.4468  0.0387
 7293SOL    HW228938   4.549   1.263   2.969  1.5229  0.9682  0.0112
 7293SOL    HW328939   4.618   1.146   2.902  0.6600  0.1791  0.4766
 7293SOL    MW428940   4.579   1.181   2.971  0.2338  0.4803  0.0928
 7294SOL     OW28941   0.908   3.919   1.079 -0.5434  0.4086  0.4084
 7294SOL    HW228942   0.865   3.967   1.150 -2.5498 -1.2210  0.3897
 7294SOL    HW328943   0.873   3.959   0.999  0.7320  1.3913  0.3127
 7294SOL    MW428944   0.897   3.931   1.077 -0.6398  0.3232  0.3933
 7295SOL     OW28945   4.883   4.477   1.156 -0.5339 -0.2406  0.5277
 7295SOL    HW228946   4.904   4.513   1.070 -0.8945 -0.6010  0.2834
 7295SOL    HW328947   4.858   4.553   1.208  1.0706  0.1792  0.7559
 7295SOL    MW428948   4.883   4.492   1.151 -0.3698 -0.2328  0.5256
 7296SOL     OW28949   0.419   0.653   3.936 -0.1589 -0.0717 -0.1582
 7296SOL    HW228950   0.505   0.634   3.898  0.1628  0.3161  0.3641
 7296SOL    HW328951   0.413   0.595   4.012 -1.1167 -1.4040 -1.1904
 7296SOL    MW428952   0.429   0.643   3.941 -0.2428 -0.1963 -0.2254
 7297SOL     OW28953   4.047   4.996   2.008  0.7937 -0.0222 -0.5702
 7297SOL    HW228954   4.008   4.918   1.970 -0.6232 -0.1687  1.0363
 7297SOL    HW328955   3.996   5.069   1.972  0.9017  0.0087 -0.6594
 7297SOL    MW428956   4.035   4.996   1.999  0.6210 -0.0374 -0.3700
 7298SOL     OW28957   5.297   3.605   2.485 -0.0337  0.2495  0.2246
 7298SOL    HW228958   5.362   3.665   2.521 -0.7484  1.1833  0.0022
 7298SOL    HW328959   5.220   3.660   2.469 -1.1668 -0.9631  1.2278
 7298SOL    MW428960   5.295   3.620   2.488 -0.2775  0.2127  0.3276
 7299SOL     OW28961   4.343   0.203   5.310  0.2685 -0.3597 -0.0138
 7299SOL    HW228962   4.399   0.133   5.276 -0.9364 -0.7726 -1.2306
 7299SOL    HW328963   4.266   0.158   5.344  0.4216  0.2419  1.1724
 7299SOL    MW428964   4.341   0.188   5.310  0.1297 -0.3348 -0.0178
 7300SOL     OW28965   5.976   6.012   1.683 -0.3931 -0.0058 -0.0068
 7300SOL    HW228966   5.894   6.057   1.660 -1.1116 -1.0858  0.3336
 7300SOL    HW328967   5.948   5.941   1.741  0.5585 -1.5018 -1.2887
 7300SOL    MW428968   5.961   6.009   1.688 -0.3623 -0.3457 -0.1310
 7301SOL     OW28969   0.482   1.532   2.793  0.0387 -0.3470 -0.0390
 7301SOL    HW228970   0.552   1.479   2.830 -0.6454 -0.5093  1.0709
 7301SOL    HW328971   0.450   1.480   2.719 -1.0815 -1.8801  1.4467
 7301SOL    MW428972   0.487   1.518   2.788 -0.1993 -0.5707  0.3035
 7302SOL     OW28973   0.314   2.295   2.781 -0.8237  0.3445  0.3992
 7302SOL    HW228974   0.222   2.268   2.776 -0.3799 -1.2547  0.3340
 7302SOL    HW328975   0.362   2.225   2.737  0.6343 -0.1274  2.5891
 7302SOL    MW428976   0.308   2.282   2.775 -0.5728  0.0713  0.6795
 7303SOL     OW28977   0.327   2.864   1.054  0.2575  0.5332  0.2036
 7303SOL    HW228978   0.391   2.797   1.032 -0.5895 -0.2399  0.0438
 7303SOL    HW328979   0.379   2.942   1.074  1.1802  1.2602 -4.1100
 7303SOL    MW428980   0.342   2.866   1.054  0.2675  0.5271 -0.3866
 7304SOL     OW28981   0.910   6.116   4.124 -0.5604  0.0069 -0.1686
 7304SOL    HW228982   0.847   6.187   4.139 -0.1447  0.2514  0.5019
 7304SOL    HW328983   0.899   6.059   4.200 -0.8384 -0.6211 -0.6684
 7304SOL    MW428984   0.900   6.118   4.136 -0.5422 -0.0437 -0.1461
 7305SOL     OW28985   2.309   3.974   1.373  0.1552  0.1276 -0.4287
 7305SOL    HW228986   2.265   3.896   1.340  0.1666  0.3964 -1.1052
 7305SOL    HW328987   2.377   3.992   1.308  1.5867 -0.5537  0.8360
 7305SOL    MW428988   2.312   3.966   1.360  0.3456  0.0732 -0.3511
 7306SOL     OW28989   2.297   5.828   1.192 -0.2452 -0.2021 -0.5445
 7306SOL    HW228990   2.255   5.826   1.278 -0.5642 -0.9233 -0.7110
 7306SOL    HW328991   2.284   5.918   1.162 -0.1656  0.0460  0.1442
 7306SOL    MW428992   2.289   5.840   1.199 -0.2768 -0.2646 -0.4756
 7307SOL     OW28993   3.968   0.837   2.359  0.5939  0.3405 -0.1902
 7307SOL    HW228994   3.880   0.872   2.345  0.1857 -1.3007 -2.1586
 7307SOL    HW328995   3.967   0.806   2.450 -0.6900  0.8209 -0.0167
 7307SOL    MW428996   3.956   0.837   2.369  0.3707  0.1874 -0.4270
 7308SOL     OW28997   4.687   5.437   0.578  0.2675 -0.2969  0.2090
 7308SOL    HW228998   4.722   5.515   0.619  0.8133  0.1048 -0.9721
 7308SOL    HW328999   4.754   5.370   0.591 -0.1635 -0.5527  1.1476
 7308SOL    MW429000   4.700   5.438   0.585  0.2826 -0.2777  0.1770
 7309SOL     OW29001   6.299   4.592   0.512  0.1487  0.1447  0.1106
 7309SOL    HW229002   6.270   4.555   0.595 -0.5811  1.2085  0.3573
 7309SOL    HW329003   6.388   4.560   0.501 -0.4352 -1.6517  0.2877
 7309SOL    MW429004   6.307   4.583   0.521 -0.0246  0.0481  0.1665
 7310SOL     OW29005   2.185   0.885   0.399  0.6275 -0.2389  0.2068
 7310SOL    HW229006   2.099   0.855   0.369  0.6057  0.1599 -0.1362
 7310SOL    HW329007   2.234   0.804   0.413  0.4976 -0.4527 -0.4949
 7310SOL    MW429008   2.180   0.870   0.397  0.6075 -0.2145  0.0689
 7311SOL     OW29009   5.580   6.197   4.480  0.0875 -0.2943 -0.1507
 7311SOL    HW229010   5.548   6.184   4.391  1.0444 -2.9561 -0.1839
 7311SOL    HW329011   5.503   6.186   4.535 -0.5826  1.7134 -0.5832
 7311SOL    MW429012   5.566   6.194   4.476  0.1253 -0.3806 -0.2121
 7312SOL     OW29013   0.567   3.994   2.300  0.1314  0.6318 -0.4920
 7312SOL    HW229014   0.557   3.952   2.215  0.2007  1.8486 -1.1288
 7312SOL    HW329015   0.508   3.946   2.358  0.0206 -0.1571 -1.2439
 7312SOL    MW429016   0.558   3.982   2.296  0.1259  0.6882 -0.6752
 7313SOL     OW29017   6.211   2.949   5.675 -0.3911 -0.3446  0.2182
 7313SOL    HW229018   6.155   2.894   5.731 -2.4233  0.4845 -0.8632
 7313SOL    HW329019   6.283   2.976   5.731 -1.8653 -0.2599  2.1741
 7313SOL    MW429020   6.213   2.945   5.690 -0.8537 -0.2241  0.3336
 7314SOL     OW29021   3.617   4.615   1.634  0.5134  0.1997  0.5106
 7314SOL    HW229022   3.556   4.551   1.671  1.4353 -1.1685 -0.2624
 7314SOL    HW329023   3.588   4.699   1.669 -0.1052 -0.7524  2.3850
 7314SOL    MW429024   3.605   4.618   1.643  0.5534 -0.1064  0.6559
 7315SOL     OW29025   3.989   4.262   4.991  0.3873 -0.5585  0.3371
 7315SOL    HW229026   4.051   4.333   5.005  0.0922 -0.1080 -0.5859
 7315SOL    HW329027   4.015   4.223   4.908 -0.2261 -0.7150  0.2139
 7315SOL    MW429028   4.000   4.266   4.982  0.2675 -0.5197  0.1990
 7316SOL     OW29029   0.307   2.885   3.622 -0.4264 -0.1980  0.2131
 7316SOL    HW229030   0.342   2.882   3.533  0.1344  0.0078  0.4253
 7316SOL    HW329031   0.327   2.973   3.653 -0.3664 -0.3609  0.6437
 7316SOL    MW429032   0.314   2.896   3.614 -0.3445 -0.1923  0.2979
 7317SOL     OW29033   4.957   5.465   0.159  0.2775  0.4958  0.1825
 7317SOL    HW229034   4.895   5.519   0.208  0.5732  2.2085 -1.2441
 7317SOL    HW329035   5.043   5.493   0.191  0.4088 -0.4298  0.6914
 7317SOL    MW429036   4.961   5.476   0.170  0.3338  0.5996  0.0614
 7318SOL     OW29037   4.938   2.438   5.318 -0.3714 -0.0499 -0.3655
 7318SOL    HW229038   4.949   2.354   5.273 -2.8166 -0.7305  0.1612
 7318SOL    HW329039   4.845   2.458   5.308 -0.2725  1.5040  1.3891
 7318SOL    MW429040   4.927   2.429   5.311 -0.6810  0.0653 -0.0645
 7319SOL     OW29041   0.837   6.114   5.409 -0.7475  0.3709  0.1265
 7319SOL    HW229042   0.849   6.170   5.332 -0.4389 -0.3206 -0.3445
 7319SOL    HW329043   0.853   6.026   5.376 -0.0623  0.1164  1.1025
 7319SOL    MW429044   0.841   6.110   5.394 -0.6164  0.2461  0.1932
 7320SOL     OW29045   4.301   1.664   3.812  0.0640  0.0228 -0.1274
 7320SOL    HW229046   4.322   1.705   3.727  0.2752 -0.6803 -0.4218
 7320SOL    HW329047   4.251   1.731   3.859  1.1748  0.9552 -0.2393
 7320SOL    MW429048   4.297   1.678   3.807  0.2384  0.0530 -0.1810
 7321SOL     OW29049   0.510   5.297   6.420  0.0073 -0.5454  0.0406
 7321SOL    HW229050   0.579   5.299   6.353 -0.4547 -1.5080 -0.4779
 7321SOL    HW329051   0.556   5.281   6.502  0.4372 -0.7530 -0.2395
 7321SOL    MW429052   0.525   5.295   6.422  0.0031 -0.6998 -0.0648
 7322SOL     OW29053   2.882   3.490   0.853  0.1963  0.3245  0.0590
 7322SOL    HW229054   2.977   3.482   0.843  0.2045 -0.9163  0.8020
 7322SOL    HW329055   2.864   3.449   0.938 -1.0068  0.4883 -0.0985
 7322SOL    MW429056   2.892   3.483   0.863  0.0387  0.1824  0.1362
 7323SOL     OW29057   3.932   1.190   0.391 -0.5461  0.3493 -0.2640
 7323SOL    HW229058   3.902   1.187   0.300  2.2044 -1.2057 -1.2291
 7323SOL    HW329059   3.945   1.283   0.409 -2.0709  0.7508 -1.0885
 7323SOL    MW429060   3.930   1.202   0.381 -0.3844  0.1971 -0.5001
 7324SOL     OW29061   6.103   5.236   3.455  0.3939 -0.1497  0.1043
 7324SOL    HW229062   6.009   5.245   3.470  0.0894 -1.4247 -0.9549
 7324SOL    HW329063   6.127   5.153   3.495  1.2818  0.5633  1.1528
 7324SOL    MW429064   6.094   5.226   3.462  0.4708 -0.2239  0.1029
 7325SOL     OW29065   5.859   3.446   6.203 -0.3688 -0.2556  0.3151
 7325SOL    HW229066   5.911   3.500   6.263  0.9672 -0.6851 -0.4105
 7325SOL    HW329067   5.822   3.508   6.140 -1.4855  0.1549  1.3303
 7325SOL    MW429068   5.861   3.462   6.203 -0.3399 -0.2581  0.3533
 7326SOL     OW29069   1.644   3.295   5.252  0.0213 -0.5494 -0.3542
 7326SOL    HW229070   1.591   3.249   5.317  0.3342 -0.2306  0.1314
 7326SOL    HW329071   1.610   3.384   5.251 -0.9826 -0.9007 -1.7264
 7326SOL    MW429072   1.633   3.301   5.260 -0.0699 -0.5537 -0.4712
 7327SOL     OW29073   5.841   6.277   0.167 -0.1346  0.0734 -0.2552
 7327SOL    HW229074   5.936   6.272   0.176 -0.0360 -1.3225 -1.6512
 7327SOL    HW329075   5.819   6.205   0.108 -2.0388  0.5294 -0.1569
 7327SOL    MW429076   5.851   6.266   0.161 -0.3728 -0.0506 -0.4264
 7328SOL     OW29077   5.918   0.795   2.306 -0.3563 -0.7674 -0.2901
 7328SOL    HW229078   5.877   0.799   2.392 -0.2457 -1.7422 -0.1828
 7328SOL    HW329079   5.976   0.719   2.311  0.6835 -0.0194 -0.7764
 7328SOL    MW429080   5.920   0.785   2.318 -0.2046 -0.7973 -0.3401
 7329SOL     OW29081   3.414   4.169   1.781  0.1789  0.7000 -0.1392
 7329SOL    HW229082   3.478   4.178   1.851  0.3515  0.9132 -0.3199
 7329SOL    HW329083   3.329   4.182   1.823  0.2216  0.0063  0.1780
 7329SOL    MW429084   3.411   4.172   1.795  0.2073  0.6366 -0.1212
 7330SOL     OW29085   1.243   5.349   2.324  0.0153  0.0003  0.6337
 7330SOL    HW229086   1.331   5.321   2.349  0.5708  1.4065  0.3379
 7330SOL    HW329087   1.209   5.394   2.402  0.4280  1.3734  0.0529
 7330SOL    MW429088   1.250   5.351   2.338  0.1430  0.3670  0.5180
 7331SOL     OW29089   4.220   5.812   4.615  0.0875 -0.2129  0.2278
 7331SOL    HW229090   4.166   5.733   4.604  0.8780 -0.6023 -0.9988
 7331SOL    HW329091   4.185   5.874   4.552 -0.6240  0.5031  1.2890
 7331SOL    MW429092   4.208   5.810   4.606  0.0979 -0.1698  0.2060
 7332SOL     OW29093   2.512   0.145   2.729 -0.1218  0.0822  0.1395
 7332SOL    HW229094   2.449   0.216   2.738  1.7260  1.8470  0.0433
 7332SOL    HW329095   2.571   0.156   2.803  0.9891 -0.5088 -0.6236
 7332SOL    MW429096   2.512   0.156   2.740  0.2686  0.2371  0.0262
 7333SOL     OW29097   4.262   0.619   2.435 -0.2486 -0.2374  0.2657
 7333SOL    HW229098   4.189   0.625   2.373 -1.0543  0.2557  1.2263
 7333SOL    HW329099   4.317   0.550   2.401 -2.8430 -2.9940  1.2213
 7333SOL    MW429100   4.259   0.611   2.423 -0.6972 -0.5361  0.5185
 7334SOL     OW29101   2.102   4.960   0.971 -0.0457 -0.0928  0.6440
 7334SOL    HW229102   2.133   4.983   1.059 -0.1481 -1.4840  1.0723
 7334SOL    HW329103   2.030   4.898   0.987 -1.8078  1.5649 -0.3584
 7334SOL    MW429104   2.096   4.955   0.985 -0.2917 -0.0577  0.5683
 7335SOL     OW29105   2.861   2.710   2.045  0.4436  0.1913  0.3604
 7335SOL    HW229106   2.844   2.640   2.107  0.0546  0.4568  0.5576
 7335SOL    HW329107   2.951   2.737   2.063  1.0062 -1.0154 -0.4824
 7335SOL    MW429108   2.871   2.705   2.055  0.4665  0.0671  0.2752
 7336SOL     OW29109   3.806   5.634   6.218  0.6506 -0.6672  0.0631
 7336SOL    HW229110   3.761   5.707   6.261  1.9718 -1.0678  2.2986
 7336SOL    HW329111   3.860   5.676   6.150 -1.0193  0.0593 -0.8694
 7336SOL    MW429112   3.807   5.649   6.214  0.6046 -0.6242  0.2350
 7337SOL     OW29113   4.463   1.067   4.928 -0.3768 -0.3939 -0.0111
 7337SOL    HW229114   4.450   1.159   4.906 -0.1874  0.0787  1.6674
 7337SOL    HW329115   4.462   1.021   4.844  0.0950  1.2039 -0.9318
 7337SOL    MW429116   4.461   1.073   4.914 -0.2895 -0.1208  0.0889
 7338SOL     OW29117   0.899   3.891   3.992 -0.2386 -0.9000 -0.4647
 7338SOL    HW229118   0.831   3.829   4.020  1.3802 -3.4970 -1.8323
 7338SOL    HW329119   0.889   3.897   3.897  0.4586 -0.0707 -0.4987
 7338SOL    MW429120   0.889   3.883   3.983  0.0669 -1.1332 -0.6496
 7339SOL     OW29121   5.415   4.265   4.880 -0.3489  0.3359  0.0454
 7339SOL    HW229122   5.507   4.242   4.871  0.0689  1.9039  0.1358
 7339SOL    HW329123   5.370   4.181   4.884  1.0810 -0.4513  0.1452
 7339SOL    MW429124   5.421   4.251   4.879 -0.1051  0.4389  0.0705
 7340SOL     OW29125   0.432   4.562   2.668 -0.7758  0.6399  0.5385
 7340SOL    HW229126   0.371   4.630   2.640 -1.7803  0.0158  1.1370
 7340SOL    HW329127   0.418   4.490   2.606 -0.6796  0.4732  0.7107
 7340SOL    MW429128   0.422   4.562   2.656 -0.8956  0.5356  0.6402
 7341SOL     OW29129   4.038   1.991   1.480 -0.3204 -0.4330  0.2390
 7341SOL    HW229130   3.972   1.989   1.549  0.4226 -1.3161  0.9458
 7341SOL    HW329131   3.990   2.020   1.402 -0.7997  2.3415  1.4757
 7341SOL    MW429132   4.023   1.994   1.479 -0.2857 -0.1834  0.4954
 7342SOL     OW29133   2.559   3.851   0.376 -0.3206 -0.8624 -0.4252
 7342SOL    HW229134   2.603   3.854   0.291 -0.4267 -1.3477 -0.4942
 7342SOL    HW329135   2.512   3.935   0.381  1.5890  0.2544  0.1815
 7342SOL    MW429136   2.559   3.863   0.365 -0.0827 -0.7791 -0.3543
 7343SOL     OW29137   5.372   1.373   4.057 -0.2634 -0.5637 -0.0315
 7343SOL    HW229138   5.398   1.288   4.092  1.7415  0.5342  1.3878
 7343SOL    HW329139   5.413   1.377   3.971 -0.0351 -0.8873  0.0619
 7343SOL    MW429140   5.381   1.362   4.050  0.0313 -0.4616  0.1681
 7344SOL     OW29141   2.427   4.112   3.713 -0.1149  0.4152 -0.0657
 7344SOL    HW229142   2.348   4.057   3.706 -0.6851  1.1930  0.0908
 7344SOL    HW329143   2.493   4.054   3.750 -1.0827  0.1612  1.3530
 7344SOL    MW429144   2.425   4.097   3.717 -0.3178  0.4843  0.1421
 7345SOL     OW29145   1.477   0.681   1.697 -0.1674 -0.5172 -0.4165
 7345SOL    HW229146   1.501   0.759   1.747 -0.9793  0.3212 -1.2924
 7345SOL    HW329147   1.536   0.680   1.622 -0.9682 -0.0427 -1.0627
 7345SOL    MW429148   1.488   0.691   1.694 -0.3802 -0.3440 -0.6173
 7346SOL     OW29149   1.603   2.568   3.359 -0.1155  0.4920  0.5454
 7346SOL    HW229150   1.602   2.586   3.453 -1.4014 -1.5297  0.9902
 7346SOL    HW329151   1.651   2.485   3.351 -1.5240 -0.2762 -0.3365
 7346SOL    MW429152   1.609   2.559   3.371 -0.4710  0.1239  0.4878
 7347SOL     OW29153   1.956   0.090   2.859  0.1953  0.5454 -0.2892
 7347SOL    HW229154   2.018   0.109   2.929  0.5295  3.1219 -1.1641
 7347SOL    HW329155   1.987   0.141   2.784 -2.0656  0.6610 -1.2472
 7347SOL    MW429156   1.968   0.099   2.858 -0.0589  0.9006 -0.5310
 7348SOL     OW29157   2.102   5.603   2.125  0.2162  0.7167 -0.3018
 7348SOL    HW229158   2.182   5.550   2.125 -0.2964 -0.0645  0.3428
 7348SOL    HW329159   2.119   5.671   2.060  2.0040  1.4593  0.8505
 7348SOL    MW429160   2.115   5.605   2.116  0.3844  0.7116 -0.0647
 7349SOL     OW29161   5.406   0.029   4.501  0.3508 -0.1817  0.5598
 7349SOL    HW229162   5.396   0.037   4.596 -1.2664 -1.3981  0.5458
 7349SOL    HW329163   5.448  -0.056   4.489  0.1385 -0.2307  0.1709
 7349SOL    MW429164   5.410   0.019   4.512  0.1094 -0.3486  0.5066
 7350SOL     OW29165   6.355   2.472   0.566  0.0345 -0.3393 -0.2391
 7350SOL    HW229166   6.441   2.508   0.584 -0.4592  1.0120 -0.4652
 7350SOL    HW329167   6.323   2.441   0.651  0.4145 -0.1287 -0.0201
 7350SOL    MW429168   6.362   2.472   0.580  0.0195 -0.1332 -0.2400
 7351SOL     OW29169   1.740   4.934   1.137 -0.0617 -0.1574  0.1481
 7351SOL    HW229170   1.684   4.994   1.088  1.4355  1.5314  0.3861
 7351SOL    HW329171   1.773   4.987   1.210  0.4695 -1.6134  1.0079
 7351SOL    MW429172   1.737   4.949   1.140  0.2059 -0.1267  0.2929
 7352SOL     OW29173   3.103   5.959   1.816 -0.0409  0.3101  0.1666
 7352SOL    HW229174   3.185   5.994   1.851 -1.0040  1.0731  1.7933
 7352SOL    HW329175   3.094   5.872   1.857  0.3073 -0.0854 -0.5881
 7352SOL    MW429176   3.113   5.952   1.826 -0.1220  0.3586  0.2817
 7353SOL     OW29177   6.225   0.185   1.200  0.0297 -0.0502  0.4692
 7353SOL    HW229178   6.286   0.183   1.273  0.2633 -0.5890  0.2673
 7353SOL    HW329179   6.268   0.239   1.134 -0.0371  0.1732  0.6097
 7353SOL    MW429180   6.239   0.192   1.200  0.0517 -0.0918  0.4611
 7354SOL     OW29181   6.038   5.977   4.671 -0.5547 -0.0917  0.2553
 7354SOL    HW229182   6.051   5.930   4.590 -1.3380  1.5004 -0.8566
 7354SOL    HW329183   6.122   6.019   4.689 -0.0840 -1.2543  0.8390
 7354SOL    MW429184   6.050   5.977   4.663 -0.5960 -0.0351  0.1856
 7355SOL     OW29185   1.659   2.162   6.318 -0.3376 -0.2066  0.1370
 7355SOL    HW229186   1.569   2.135   6.298 -0.3022 -1.7186  1.7382
 7355SOL    HW329187   1.649   2.243   6.368 -0.9848 -1.2917  1.8626
 7355SOL    MW429188   1.646   2.169   6.322 -0.4183 -0.5492  0.5760
 7356SOL     OW29189   6.152   3.725   4.380  0.0904 -0.3538  1.1783
 7356SOL    HW229190   6.096   3.652   4.405  0.3183 -0.2488  2.0254
 7356SOL    HW329191   6.160   3.778   4.460 -0.5064  0.8840  0.4470
 7356SOL    MW429192   6.146   3.723   4.394  0.0417 -0.1766  1.1936
 7357SOL     OW29193   5.053   0.467   1.357 -0.1401 -0.0193 -0.5895
 7357SOL    HW229194   5.034   0.527   1.429  1.2405 -0.0371 -0.1720
 7357SOL    HW329195   5.102   0.396   1.398  0.0011 -0.4101 -1.4229
 7357SOL    MW429196   5.057   0.466   1.372  0.0607 -0.0732 -0.6444
 7358SOL     OW29197   2.171   2.144   3.767  0.2624  0.1219 -0.3381
 7358SOL    HW229198   2.192   2.237   3.760  1.9096 -0.1413  0.4885
 7358SOL    HW329199   2.132   2.135   3.854  2.1691 -0.2449  0.5425
 7358SOL    MW429200   2.169   2.155   3.777  0.7313  0.0387 -0.1129
 7359SOL     OW29201   2.923   0.773   3.488  0.1669 -0.5711 -0.5385
 7359SOL    HW229202   2.877   0.789   3.406  0.2114  1.0747 -0.2884
 7359SOL    HW329203   2.967   0.856   3.507  1.4177 -1.4105  0.3612
 7359SOL    MW429204   2.922   0.786   3.480  0.3378 -0.4647 -0.3868
 7360SOL     OW29205   3.612   2.043   2.846 -0.6795 -0.4642  0.4277
 7360SOL    HW229206   3.664   2.047   2.926 -0.2911 -0.3836  0.1797
 7360SOL    HW329207   3.527   2.010   2.873 -0.4921 -0.6103  0.8440
 7360SOL    MW429208   3.608   2.039   2.860 -0.6035 -0.4729  0.4499
 7361SOL     OW29209   2.296   1.777   2.311  0.1233  0.0963 -0.9498
 7361SOL    HW229210   2.210   1.778   2.270 -0.1075  0.9151 -0.4719
 7361SOL    HW329211   2.293   1.848   2.375  0.3639 -1.3289  0.7163
 7361SOL    MW429212   2.284   1.786   2.314  0.1246  0.0163 -0.6669
 7362SOL     OW29213   1.782   0.840   3.021 -0.6013  0.0520  0.1559
 7362SOL    HW229214   1.802   0.902   3.091  1.0687 -0.7698  0.4410
 7362SOL    HW329215   1.709   0.789   3.055 -0.0815 -0.0596  1.1335
 7362SOL    MW429216   1.775   0.842   3.035 -0.3124 -0.0712  0.3225
 7363SOL     OW29217   2.617  -0.020   3.100 -0.0299 -0.3342 -0.1290
 7363SOL    HW229218   2.600  -0.103   3.143 -0.3629  0.5483  1.5465
 7363SOL    HW329219   2.615   0.045   3.171  0.6610  1.0486 -1.3049
 7363SOL    MW429220   2.615  -0.022   3.115  0.0173 -0.0353 -0.0631
 7364SOL     OW29221   5.279   4.030   0.358 -0.5674  0.4861 -0.7325
 7364SOL    HW229222   5.343   4.090   0.321  0.7718 -1.0837 -1.0744
 7364SOL    HW329223   5.273   3.959   0.295 -1.7159 -0.0237 -0.0952
 7364SOL    MW429224   5.286   4.028   0.345 -0.5422  0.2117 -0.6935
 7365SOL     OW29225   3.553   4.896   3.729 -0.2589  0.0259 -0.0506
 7365SOL    HW229226   3.639   4.876   3.766  0.3666  0.8975 -0.9846
 7365SOL    HW329227   3.491   4.879   3.801  0.4346 -2.6882  0.0139
 7365SOL    MW429228   3.556   4.891   3.744 -0.0849 -0.2172 -0.1653
 7366SOL     OW29229   0.562   4.033   4.288 -0.3002  0.1829 -0.2348
 7366SOL    HW229230   0.540   3.977   4.362 -1.1861 -2.3128 -2.2537
 7366SOL    HW329231   0.656   4.050   4.299 -0.2513 -0.7189  1.0642
 7366SOL    MW429232   0.571   4.028   4.300 -0.4106 -0.2654 -0.3298
 7367SOL     OW29233   0.427   0.127   6.054  0.6608 -0.4768 -0.1462
 7367SOL    HW229234   0.459   0.143   6.143 -0.5949 -0.2460  0.2861
 7367SOL    HW329235   0.373   0.204   6.034 -0.9909 -1.6162 -0.1826
 7367SOL    MW429236   0.424   0.140   6.063  0.2772 -0.5967 -0.0939
 7368SOL     OW29237   1.970   5.102   4.200  0.2655 -0.0093 -0.0660
 7368SOL    HW229238   2.017   5.019   4.208  0.5156  0.2350  1.2382
 7368SOL    HW329239   1.982   5.128   4.109 -1.0676 -2.1228 -0.9089
 7368SOL    MW429240   1.978   5.094   4.189  0.1226 -0.2559 -0.0052
 7369SOL     OW29241   5.307   3.824   5.651 -0.3390 -0.4863  0.6099
 7369SOL    HW229242   5.376   3.767   5.617 -0.0133 -0.1774  0.7461
 7369SOL    HW329243   5.328   3.835   5.744 -1.9465 -2.3728  1.2537
 7369SOL    MW429244   5.319   3.818   5.659 -0.5081 -0.6944  0.7128
 7370SOL     OW29245   5.744   2.431   4.584  0.1478  0.4818  0.1291
 7370SOL    HW229246   5.670   2.371   4.590 -0.6595  1.4964  0.8351
 7370SOL    HW329247   5.733   2.489   4.660 -0.0006  2.4869 -1.3243
 7370SOL    MW429248   5.733   2.431   4.595  0.0217  0.8802  0.0305
 7371SOL     OW29249   4.892   0.699   0.382  0.2363  0.2762  0.1481
 7371SOL    HW229250   4.974   0.727   0.342  0.7676  0.6766  1.4674
 7371SOL    HW329251   4.911   0.696   0.476 -0.6562 -1.6288  0.3248
 7371SOL    MW429252   4.905   0.702   0.389  0.1886  0.0777  0.3455
 7372SOL     OW29253   1.002   1.332   3.979 -0.6140 -0.3519  0.8440
 7372SOL    HW229254   1.016   1.290   4.064  0.8415 -2.9419 -0.5700
 7372SOL    HW329255   0.984   1.424   4.001  0.2632 -0.7957  3.9162
 7372SOL    MW429256   1.002   1.339   3.993 -0.3062 -0.7522  1.0628
 7373SOL     OW29257   6.224   4.369   4.611  0.4162 -0.0204  0.2784
 7373SOL    HW229258   6.242   4.281   4.579  3.1886  0.9962 -1.3766
 7373SOL    HW329259   6.166   4.407   4.545 -1.7719 -0.9089  1.6152
 7373SOL    MW429260   6.219   4.363   4.598  0.4933 -0.0035  0.2364
 7374SOL     OW29261   3.285   2.528   4.492  0.8528 -0.0353  0.1020
 7374SOL    HW229262   3.216   2.583   4.530  0.4382 -0.6752  0.2786
 7374SOL    HW329263   3.312   2.470   4.563 -0.0660 -1.3726 -0.6006
 7374SOL    MW429264   3.279   2.528   4.506  0.6769 -0.2962  0.0326
 7375SOL     OW29265   4.567   6.125   5.801  0.1883 -0.2733 -0.5389
 7375SOL    HW229266   4.624   6.197   5.774  1.2611 -1.1498 -0.6782
 7375SOL    HW329267   4.480   6.148   5.768  0.0417  1.9649  1.1929
 7375SOL    MW429268   4.563   6.137   5.793  0.3105 -0.0936 -0.3288
 7376SOL     OW29269   3.161   2.458   3.065 -0.4895 -0.5321 -0.2513
 7376SOL    HW229270   3.216   2.429   2.992 -0.6402  0.5761 -0.8274
 7376SOL    HW329271   3.111   2.380   3.090 -1.1164 -0.7089 -1.9460
 7376SOL    MW429272   3.162   2.444   3.059 -0.5921 -0.4092 -0.5509
 7377SOL     OW29273   4.927   0.719   1.947 -0.2173  0.3260  0.0606
 7377SOL    HW229274   4.974   0.789   1.991 -0.6717 -0.0808  1.2453
 7377SOL    HW329275   4.943   0.734   1.854  0.2291  1.6076  0.3188
 7377SOL    MW429276   4.935   0.730   1.941 -0.2183  0.4414  0.2510
 7378SOL     OW29277   5.024   1.013   3.586 -0.1411 -0.2787 -0.3381
 7378SOL    HW229278   5.058   1.058   3.508 -0.8859  0.5546 -0.2064
 7378SOL    HW329279   5.076   1.047   3.658  1.7226 -2.3399 -0.6391
 7378SOL    MW429280   5.035   1.024   3.585  0.0065 -0.4407 -0.3605
 7379SOL     OW29281   0.965   0.005   0.934  1.1657  0.1376  0.3972
 7379SOL    HW229282   0.967  -0.059   1.005 -1.1286 -0.0085  0.3927
 7379SOL    HW329283   0.937   0.087   0.977 -1.2328 -0.1819 -0.4131
 7379SOL    MW429284   0.962   0.008   0.949  0.5466  0.0762  0.2897
 7380SOL     OW29285   3.793   6.168   0.009 -0.4223 -0.4184  0.4389
 7380SOL    HW229286   3.876   6.121   0.005  0.6647  1.3928  0.3532
 7380SOL    HW329287   3.769   6.166   0.102 -0.2013 -0.8177  0.4888
 7380SOL    MW429288   3.801   6.162   0.021 -0.2498 -0.2321  0.4342
 7381SOL     OW29289   5.746   4.410   0.211  0.8279 -0.8446 -0.6829
 7381SOL    HW229290   5.685   4.347   0.172  1.0347 -0.1368 -2.2261
 7381SOL    HW329291   5.704   4.495   0.200  1.9116 -0.3756 -1.4896
 7381SOL    MW429292   5.733   4.413   0.204  0.9982 -0.6893 -0.9930
 7382SOL     OW29293   5.734   4.830   5.538 -0.1989  0.0911  0.7631
 7382SOL    HW229294   5.787   4.755   5.564 -0.4457 -0.4614 -0.2658
 7382SOL    HW329295   5.796   4.902   5.529  0.0721 -0.0372  1.5331
 7382SOL    MW429296   5.749   4.829   5.541 -0.1957  0.0013  0.7289
 7383SOL     OW29297   4.752   2.644   4.126 -0.3732 -0.1661 -0.1436
 7383SOL    HW229298   4.745   2.634   4.031  1.2752 -3.7674 -0.0482
 7383SOL    HW329299   4.674   2.601   4.161 -0.2817 -0.1012  0.1474
 7383SOL    MW429300   4.741   2.637   4.118 -0.1436 -0.6327 -0.0926
 7384SOL     OW29301   3.203   1.219   4.260 -0.1116  0.1927 -0.1621
 7384SOL    HW229302   3.118   1.261   4.253 -0.2130 -0.2141 -1.9938
 7384SOL    HW329303   3.200   1.148   4.195  1.0398 -0.8621  0.8811
 7384SOL    MW429304   3.191   1.215   4.250  0.0269 -0.0001 -0.2661
 7385SOL     OW29305   5.195   5.821   1.158 -0.8733 -0.4746  0.1789
 7385SOL    HW229306   5.205   5.898   1.213  0.4759 -0.8410  0.4672
 7385SOL    HW329307   5.256   5.835   1.085  0.3440 -1.8342  0.8942
 7385SOL    MW429308   5.204   5.833   1.155 -0.5347 -0.7023  0.3113
 7386SOL     OW29309   2.529   2.149   2.876 -0.0312  0.0458  0.2065
 7386SOL    HW229310   2.583   2.227   2.882 -1.3677  1.1659 -1.3192
 7386SOL    HW329311   2.543   2.103   2.959  0.1006  2.3743  1.5580
 7386SOL    MW429312   2.538   2.153   2.888 -0.1902  0.5008  0.1835
 7387SOL     OW29313   4.098   4.980   1.377  0.3961  0.8342  0.3230
 7387SOL    HW229314   4.046   5.053   1.343 -0.2357  0.1025 -0.3439
 7387SOL    HW329315   4.038   4.905   1.374  1.5846 -0.1338 -0.8387
 7387SOL    MW429316   4.083   4.980   1.372  0.4696  0.6099  0.0818
 7388SOL     OW29317   0.482   5.194   4.212  0.2468  0.2117  0.3519
 7388SOL    HW229318   0.399   5.238   4.193  0.5412  0.1178 -1.2471
 7388SOL    HW329319   0.542   5.265   4.232  0.2355  0.4176 -0.3210
 7388SOL    MW429320   0.479   5.209   4.212  0.2841  0.2264  0.0522
 7389SOL     OW29321   4.526   5.825   5.672  0.0333 -0.2219  0.0250
 7389SOL    HW229322   4.560   5.890   5.734 -0.2348 -1.8593  2.0211
 7389SOL    HW329323   4.476   5.876   5.609  2.3897  1.8135 -0.3801
 7389SOL    MW429324   4.524   5.840   5.672  0.3088 -0.1694  0.2349
 7390SOL     OW29325   5.021   1.945   5.288 -0.2991 -0.0908 -0.6512
 7390SOL    HW229326   5.104   1.915   5.326  0.2363  2.1204  0.0882
 7390SOL    HW329327   4.955   1.919   5.352 -0.0069 -0.5506 -0.5254
 7390SOL    MW429328   5.023   1.937   5.301 -0.1899  0.1403 -0.5370
 7391SOL     OW29329   5.277   4.930   4.092 -0.0303 -0.2300 -0.5822
 7391SOL    HW229330   5.185   4.944   4.071 -0.0305  0.3026 -0.2317
 7391SOL    HW329331   5.325   4.956   4.014 -0.1732 -0.5058 -0.7639
 7391SOL    MW429332   5.271   4.935   4.079 -0.0492 -0.1961 -0.5599
 7392SOL     OW29333   5.601   5.677   1.172  0.0415  0.3958 -0.1575
 7392SOL    HW229334   5.608   5.597   1.119  0.8546  0.0198  0.4912
 7392SOL    HW329335   5.671   5.669   1.237  2.8235  3.5084 -2.4670
 7392SOL    MW429336   5.611   5.665   1.174  0.5159  0.7569 -0.3766
 7393SOL     OW29337   0.610   3.875   0.598  0.1746 -0.0592  0.4221
 7393SOL    HW229338   0.672   3.939   0.562  1.5883 -1.0555  1.0179
 7393SOL    HW329339   0.641   3.791   0.566 -0.9181 -0.5907  0.7055
 7393SOL    MW429340   0.622   3.872   0.589  0.2170 -0.2608  0.5381
 7394SOL     OW29341   2.994   2.447   0.680  0.0086 -0.5200  0.3176
 7394SOL    HW229342   2.906   2.415   0.697  0.3466 -1.2358  0.7706
 7394SOL    HW329343   3.033   2.382   0.622  0.5513 -0.7005  0.8793
 7394SOL    MW429344   2.988   2.434   0.675  0.1248 -0.6382  0.4515
 7395SOL     OW29345   3.941   0.918   3.675  0.3938 -0.0635  0.4374
 7395SOL    HW229346   3.987   0.923   3.592  0.6526 -1.3354  0.4778
 7395SOL    HW329347   3.916   1.008   3.695 -0.4538  0.1637 -1.4507
 7395SOL    MW429348   3.944   0.930   3.667  0.3161 -0.2013  0.1936
 7396SOL     OW29349   2.295   2.684   4.699  0.3060  0.4169  0.3963
 7396SOL    HW229350   2.372   2.709   4.750  0.9646 -0.4557 -0.1357
 7396SOL    HW329351   2.248   2.623   4.755  0.9592 -0.4378  0.0483
 7396SOL    MW429352   2.299   2.679   4.713  0.4791  0.1890  0.2802
 7397SOL     OW29353   0.303   0.826   3.757 -0.1246 -0.1303 -0.1710
 7397SOL    HW229354   0.324   0.763   3.826 -0.9528  0.1469  0.3491
 7397SOL    HW329355   0.229   0.876   3.792 -1.5889 -1.0055 -1.8898
 7397SOL    MW429356   0.296   0.824   3.771 -0.4270 -0.2092 -0.3291
 7398SOL     OW29357   0.049   4.706   4.701 -0.1543 -0.1067  0.5196
 7398SOL    HW229358  -0.027   4.657   4.733  0.4028 -2.2787 -1.2046
 7398SOL    HW329359   0.114   4.697   4.771  0.4391 -3.2666 -0.2619
 7398SOL    MW429360   0.047   4.698   4.714 -0.0025 -0.8102  0.1890
 7399SOL     OW29361   1.567   3.974   5.794 -0.0732 -0.2871  0.1925
 7399SOL    HW229362   1.650   3.934   5.769 -0.9010 -1.0657 -1.4184
 7399SOL    HW329363   1.527   4.001   5.712 -0.4140  2.1861  1.0801
 7399SOL    MW429364   1.573   3.973   5.780 -0.2274 -0.0635  0.0970
 7400SOL     OW29365   4.635   2.245   3.371  0.1391  0.3813  0.4876
 7400SOL    HW229366   4.589   2.327   3.387 -1.7574 -0.1731 -1.6967
 7400SOL    HW329367   4.646   2.241   3.276 -0.7848 -2.3716  0.4125
 7400SOL    MW429368   4.631   2.255   3.360 -0.2331 -0.0551  0.1895
 7401SOL     OW29369   4.979   5.942   6.255 -0.2286  0.3881 -0.1174
 7401SOL    HW229370   5.003   6.000   6.182  0.9897 -1.5241 -1.3405
 7401SOL    HW329371   5.063   5.921   6.297 -0.7787  0.4268  1.0483
 7401SOL    MW429372   4.994   5.947   6.251 -0.1405  0.1409 -0.1250
 7402SOL     OW29373   4.046   4.514   3.355 -0.7977  0.0075  0.3643
 7402SOL    HW229374   4.002   4.539   3.437  0.4844  0.4383  0.9609
 7402SOL    HW329375   4.131   4.479   3.384 -0.0771  0.7250 -0.8036
 7402SOL    MW429376   4.052   4.513   3.370 -0.5335  0.1590  0.2889
 7403SOL     OW29377   0.901   1.281   3.241  0.4343 -0.0986  0.0217
 7403SOL    HW229378   0.834   1.218   3.268 -2.0586  2.5554  0.5558
 7403SOL    HW329379   0.856   1.341   3.182  2.2661  1.9507  0.5500
 7403SOL    MW429380   0.886   1.281   3.237  0.3471  0.5219  0.1619
 7404SOL     OW29381   5.830   0.507   0.494 -0.3279  0.6027  0.1943
 7404SOL    HW229382   5.799   0.480   0.581 -0.6249 -1.4167 -0.4795
 7404SOL    HW329383   5.759   0.561   0.459 -0.6981  0.5130  0.7795
 7404SOL    MW429384   5.816   0.511   0.501 -0.4159  0.3244  0.1826
 7405SOL     OW29385   5.183   2.900   2.553  0.2034  0.2996 -0.5258
 7405SOL    HW229386   5.174   2.882   2.460 -2.1135  1.8118 -0.6781
 7405SOL    HW329387   5.209   2.992   2.557 -0.5234  0.4825  0.3037
 7405SOL    MW429388   5.185   2.910   2.541 -0.1982  0.5233 -0.4365
 7406SOL     OW29389   3.656   0.581   5.057 -0.1710 -0.1031 -0.5941
 7406SOL    HW229390   3.707   0.547   5.130 -0.4736 -1.5055 -0.9842
 7406SOL    HW329391   3.670   0.675   5.058  0.0111 -0.1251  1.1218
 7406SOL    MW429392   3.665   0.589   5.067 -0.1869 -0.2910 -0.4192
 7407SOL     OW29393   0.220   2.129   3.937  0.3376 -0.5956 -0.0004
 7407SOL    HW229394   0.267   2.204   3.975 -0.7902  0.0547  0.1634
 7407SOL    HW329395   0.165   2.097   4.008  1.7432 -2.4516  0.3470
 7407SOL    MW429396   0.219   2.135   3.951  0.3743 -0.7547  0.0670
 7408SOL     OW29397   4.626   6.123   3.411  0.4004 -0.0803 -0.1555
 7408SOL    HW229398   4.640   6.058   3.343  0.9574  0.2538 -0.3676
 7408SOL    HW329399   4.585   6.075   3.483  1.5304 -0.8361  0.0035
 7408SOL    MW429400   4.622   6.108   3.412  0.6230 -0.1359 -0.1625
 7409SOL     OW29401   6.083   2.445   0.144 -0.0207  0.1720  0.0328
 7409SOL    HW229402   6.175   2.463   0.124  0.1900  0.1819  0.9633
 7409SOL    HW329403   6.036   2.466   0.063  0.6440  1.3921 -0.0587
 7409SOL    MW429404   6.089   2.450   0.131  0.0948  0.3343  0.1435
 7410SOL     OW29405   5.013   3.684   5.819  0.1433  0.3576  0.6638
 7410SOL    HW229406   5.014   3.722   5.731 -0.2090  1.4857  1.1246
 7410SOL    HW329407   5.105   3.669   5.840  0.1391 -1.9790 -0.7257
 7410SOL    MW429408   5.025   3.687   5.810  0.0962  0.1982  0.5413
 7411SOL     OW29409   0.131   5.636   6.130 -0.4542  0.1991 -0.0102
 7411SOL    HW229410   0.213   5.625   6.178 -0.4553  1.1034  0.2240
 7411SOL    HW329411   0.155   5.624   6.038  0.0601  1.0108  0.0084
 7411SOL    MW429412   0.145   5.633   6.124 -0.3865  0.4255  0.0232
 7412SOL     OW29413   5.745   1.846   2.208  0.4675  0.3317  0.1027
 7412SOL    HW229414   5.730   1.865   2.115 -0.6929 -1.7992 -0.2190
 7412SOL    HW329415   5.702   1.762   2.222 -0.9931  1.4561  3.0624
 7412SOL    MW429416   5.738   1.837   2.197  0.1217  0.1989  0.4507
 7413SOL     OW29417   3.619   4.480   3.335 -0.2536  0.4286  0.6753
 7413SOL    HW229418   3.545   4.540   3.323  0.0121  0.4437 -1.3894
 7413SOL    HW329419   3.667   4.516   3.410 -1.2958  1.5252  0.8556
 7413SOL    MW429420   3.616   4.493   3.343 -0.3560  0.5753  0.4267
 7414SOL     OW29421   0.018   5.708   5.462  0.3875  0.3202  0.1682
 7414SOL    HW229422  -0.006   5.712   5.370  0.3310  0.1206  0.1749
 7414SOL    HW329423   0.087   5.642   5.467  0.2771  0.2144  0.2947
 7414SOL    MW429424   0.024   5.700   5.451  0.3655  0.2799  0.1857
 7415SOL     OW29425   0.995   3.166   2.030  0.2839 -0.0584  0.3566
 7415SOL    HW229426   0.907   3.131   2.045  0.2348 -0.7071 -1.2680
 7415SOL    HW329427   0.991   3.256   2.064 -1.3517  0.3042 -0.6699
 7415SOL    MW429428   0.982   3.174   2.036  0.0616 -0.0962  0.0068
 7416SOL     OW29429   2.651   3.806   0.657 -0.3764  0.5564  0.3119
 7416SOL    HW229430   2.639   3.837   0.567 -1.2390  1.6192  0.7566
 7416SOL    HW329431   2.568   3.827   0.700  0.5514  1.4906  1.7397
 7416SOL    MW429432   2.638   3.813   0.651 -0.3678  0.8199  0.5590
 7417SOL     OW29433   1.927   2.495   5.579  0.2660  0.3746  0.1338
 7417SOL    HW229434   1.992   2.468   5.644 -0.0788 -0.2141  0.2505
 7417SOL    HW329435   1.843   2.469   5.618  0.0577 -0.0076 -0.5583
 7417SOL    MW429436   1.924   2.488   5.593  0.1930  0.2465  0.0579
 7418SOL     OW29437   2.240   5.829   0.553  0.0801 -0.2049  0.2222
 7418SOL    HW229438   2.181   5.760   0.522  1.4596 -0.8223 -1.1987
 7418SOL    HW329439   2.280   5.864   0.473  1.1846  0.5924  1.0888
 7418SOL    MW429440   2.238   5.825   0.538  0.4079 -0.1811  0.1491
 7419SOL     OW29441   5.170   5.862   5.556  0.3415 -0.3594 -0.2280
 7419SOL    HW229442   5.220   5.904   5.487 -0.9898  1.5507 -0.0848
 7419SOL    HW329443   5.100   5.815   5.510  1.0147 -1.3433 -0.2947
 7419SOL    MW429444   5.167   5.861   5.541  0.2546 -0.2372 -0.2179
 7420SOL     OW29445   4.754   6.031   4.983 -0.4820 -0.4225  0.9871
 7420SOL    HW229446   4.750   6.080   4.902  0.2977  2.1532  2.3875
 7420SOL    HW329447   4.817   5.961   4.966 -0.0089  0.3306 -0.4994
 7420SOL    MW429448   4.762   6.028   4.970 -0.3167  0.0167  0.9757
 7421SOL     OW29449   2.985   0.932   4.729  0.1995  0.3827 -0.3555
 7421SOL    HW229450   2.953   0.889   4.809  0.5947 -0.2484 -0.5320
 7421SOL    HW329451   3.010   1.020   4.759 -0.3474  0.4066  0.0647
 7421SOL    MW429452   2.984   0.938   4.744  0.1795  0.3026 -0.3234
 7422SOL     OW29453   5.456   0.289   2.353  0.2675 -0.6141  0.2267
 7422SOL    HW229454   5.440   0.369   2.302  0.1943  0.2285  1.5201
 7422SOL    HW329455   5.493   0.227   2.290 -2.5211 -0.6305 -1.5253
 7422SOL    MW429456   5.459   0.292   2.338 -0.1101 -0.5051  0.1662
 7423SOL     OW29457   0.277   6.340   3.881 -0.0932  0.3930 -0.2185
 7423SOL    HW229458   0.206   6.322   3.820 -2.1123 -0.1062  2.1169
 7423SOL    HW329459   0.329   6.260   3.883 -1.5369 -0.5665  0.5767
 7423SOL    MW429460   0.274   6.327   3.873 -0.5501  0.2005  0.1946
 7424SOL     OW29461   1.758   2.721   3.162 -0.2538 -0.1752  0.4186
 7424SOL    HW229462   1.685   2.747   3.106 -0.2842 -1.8418 -0.3585
 7424SOL    HW329463   1.719   2.666   3.230  0.2688 -1.0412  0.0238
 7424SOL    MW429464   1.743   2.717   3.164 -0.1888 -0.5093  0.2640
 7425SOL     OW29465   3.452   6.139   1.040 -0.6243  0.0254  0.2267
 7425SOL    HW229466   3.375   6.099   1.080 -0.5329 -0.6118 -0.2203
 7425SOL    HW329467   3.423   6.226   1.014 -0.7857  0.3215  1.3462
 7425SOL    MW429468   3.438   6.145   1.042 -0.6335 -0.0196  0.3154
 7426SOL     OW29469   0.152   4.094   1.913 -0.0445  0.1015  0.4216
 7426SOL    HW229470   0.246   4.114   1.917  0.1382 -0.1529 -1.5812
 7426SOL    HW329471   0.129   4.105   1.820 -1.7072 -1.1124  0.6522
 7426SOL    MW429472   0.162   4.098   1.901 -0.2398 -0.0922  0.1878
 7427SOL     OW29473   3.136   6.260   5.828  0.6289 -0.2572  0.2642
 7427SOL    HW229474   3.178   6.176   5.813 -0.4314 -1.1602  2.0160
 7427SOL    HW329475   3.120   6.262   5.922 -3.3254 -0.0758 -0.2240
 7427SOL    MW429476   3.140   6.249   5.838 -0.0327 -0.3524  0.4309
 7428SOL     OW29477   4.333   4.756   4.047  0.2066 -0.5109  0.5280
 7428SOL    HW229478   4.424   4.728   4.053  0.9716  1.3647 -1.2319
 7428SOL    HW329479   4.338   4.850   4.031 -1.8769 -0.7994 -2.7170
 7428SOL    MW429480   4.346   4.765   4.045  0.0327 -0.3015 -0.1323
 7429SOL     OW29481   1.288   5.367   5.114  0.3605 -1.2259  0.5218
 7429SOL    HW229482   1.290   5.273   5.097 -0.6505 -1.0286 -0.8679
 7429SOL    HW329483   1.196   5.391   5.102  1.0111  0.3782 -1.9098
 7429SOL    MW429484   1.276   5.358   5.110  0.3129 -0.9882  0.0176
 7430SOL     OW29485   3.555   1.300   3.996 -0.7510  0.5038 -0.1855
 7430SOL    HW229486   3.571   1.266   4.084 -0.2877 -2.2167 -1.2107
 7430SOL    HW329487   3.642   1.313   3.958 -0.9435  0.3221 -0.7010
 7430SOL    MW429488   3.569   1.297   4.003 -0.7152  0.1209 -0.3888
 7431SOL     OW29489   2.607   2.193   3.288  0.3762 -0.4837 -0.1090
 7431SOL    HW229490   2.564   2.276   3.266 -0.7656 -1.1669 -0.5334
 7431SOL    HW329491   2.586   2.180   3.381  0.3906 -0.3848 -0.0919
 7431SOL    MW429492   2.598   2.202   3.297  0.2274 -0.5608 -0.1627
 7432SOL     OW29493   2.640   3.526   0.306  0.0264 -0.2700 -0.0131
 7432SOL    HW229494   2.582   3.534   0.382 -3.7617  1.3714 -2.7822
 7432SOL    HW329495   2.643   3.432   0.289 -2.9127 -0.3961 -0.3718
 7432SOL    MW429496   2.633   3.514   0.314 -0.8612 -0.0701 -0.4258
 7433SOL     OW29497   0.927   1.731   0.261  0.0524 -0.2883  0.3774
 7433SOL    HW229498   0.877   1.813   0.269  1.0429  0.3257  0.4456
 7433SOL    HW329499   0.870   1.665   0.301 -0.9460  0.2751 -0.0506
 7433SOL    MW429500   0.913   1.733   0.267  0.0513 -0.1330  0.3299
 7434SOL     OW29501   5.413   2.378   3.437 -0.5067  0.8176 -0.0771
 7434SOL    HW229502   5.329   2.344   3.467 -1.2580  1.9916 -0.7356
 7434SOL    HW329503   5.412   2.364   3.342 -0.6523  2.1770 -0.3039
 7434SOL    MW429504   5.401   2.372   3.428 -0.6251  1.1519 -0.1939
 7435SOL     OW29505   0.652   1.230   0.281  0.2372 -0.4843  0.1740
 7435SOL    HW229506   0.653   1.157   0.219  1.6883 -0.7047  0.4034
 7435SOL    HW329507   0.703   1.198   0.356  1.0860  0.8077  0.1843
 7435SOL    MW429508   0.659   1.216   0.283  0.5406 -0.3429  0.2056
 7436SOL     OW29509   0.603   0.079   1.041 -0.2497  0.3069 -0.1351
 7436SOL    HW229510   0.583   0.110   1.129 -2.4930 -0.0261 -0.4809
 7436SOL    HW329511   0.588  -0.015   1.044 -1.8376  0.4884 -1.2068
 7436SOL    MW429512   0.599   0.071   1.053 -0.7552  0.2869 -0.3221
 7437SOL     OW29513   4.901   2.114   3.381  0.4178 -0.1968 -0.1971
 7437SOL    HW229514   4.900   2.131   3.287 -0.0004  0.4459 -0.0797
 7437SOL    HW329515   4.815   2.143   3.413  1.5122  2.2990  0.8203
 7437SOL    MW429516   4.890   2.120   3.373  0.5070  0.2173 -0.0474
 7438SOL     OW29517   1.928   4.062   6.207 -0.3059  0.3631  0.3683
 7438SOL    HW229518   1.838   4.082   6.231  0.5934  3.4472  1.6358
 7438SOL    HW329519   1.938   4.097   6.119  0.1851  2.0793  1.0677
 7438SOL    MW429520   1.918   4.069   6.199 -0.1225  0.9964  0.6278
 7439SOL     OW29521   4.367   2.311   4.579 -0.5741 -0.3304  0.3356
 7439SOL    HW229522   4.387   2.303   4.486  1.3620 -2.0432  0.8335
 7439SOL    HW329523   4.287   2.259   4.590 -0.2901 -0.8897 -0.2069
 7439SOL    MW429524   4.359   2.303   4.568 -0.2812 -0.6302  0.3297
 7440SOL     OW29525   1.414   4.441   2.739  0.0707 -0.4906  0.3309
 7440SOL    HW229526   1.339   4.398   2.699 -0.4269  1.6409 -1.1790
 7440SOL    HW329527   1.385   4.463   2.828 -1.1888  0.3975 -0.2628
 7440SOL    MW429528   1.400   4.438   2.745 -0.1611 -0.0922  0.0533
 7441SOL     OW29529   2.575   4.731   2.537 -0.6219 -1.0059 -0.0865
 7441SOL    HW229530   2.599   4.651   2.585  0.2798 -1.2210 -0.8622
 7441SOL    HW329531   2.535   4.787   2.603  0.5540 -1.3003  0.9232
 7441SOL    MW429532   2.573   4.728   2.552 -0.3478 -1.0731 -0.0556
 7442SOL     OW29533   4.796   1.513   1.519  0.3735 -0.2126  0.3618
 7442SOL    HW229534   4.790   1.427   1.560 -0.6223 -1.0517 -1.4405
 7442SOL    HW329535   4.794   1.574   1.592 -3.0437 -1.5383  1.5911
 7442SOL    MW429536   4.795   1.510   1.534 -0.2087 -0.4982  0.2862
 7443SOL     OW29537   4.273   1.168   1.621  0.0374  0.1513  0.2297
 7443SOL    HW229538   4.243   1.115   1.695 -0.3193  0.5204  0.3565
 7443SOL    HW329539   4.214   1.145   1.549  0.1161  0.1015  0.1817
 7443SOL    MW429540   4.261   1.158   1.621  0.0008  0.1935  0.2401
 7444SOL     OW29541   1.430   1.451   5.403 -0.2680 -0.5543 -0.7053
 7444SOL    HW229542   1.463   1.484   5.320  0.7170  2.3591  0.6943
 7444SOL    HW329543   1.344   1.492   5.413  0.9783  1.9123  1.0702
 7444SOL    MW429544   1.423   1.461   5.394  0.0264  0.1556 -0.2864
 7445SOL     OW29545   4.289   2.006   2.032  0.1540 -0.4968 -0.7107
 7445SOL    HW229546   4.220   1.979   2.093 -0.1529 -0.0146 -0.8350
 7445SOL    HW329547   4.337   1.925   2.013  0.2856 -0.6464  0.2022
 7445SOL    MW429548   4.286   1.992   2.038  0.1308 -0.4530 -0.6067
 7446SOL     OW29549   5.258   5.760   1.592  0.1146 -0.3490  0.4967
 7446SOL    HW229550   5.300   5.747   1.507  0.4654  1.7288  0.2779
 7446SOL    HW329551   5.183   5.702   1.591  1.6438 -2.4189 -0.0736
 7446SOL    MW429552   5.254   5.751   1.580  0.3626 -0.3479  0.3926
 7447SOL     OW29553   1.598   6.216   1.834  0.8152  0.0535 -0.2642
 7447SOL    HW229554   1.637   6.174   1.757  0.4130  0.3490 -0.6331
 7447SOL    HW329555   1.645   6.177   1.908  0.1752 -1.3858 -0.5674
 7447SOL    MW429556   1.609   6.205   1.834  0.6777 -0.0974 -0.3529
 7448SOL     OW29557   3.387   4.804   0.815  0.2897  0.4278  0.2915
 7448SOL    HW229558   3.373   4.785   0.723 -0.0854  0.9068  0.2490
 7448SOL    HW329559   3.457   4.869   0.816  0.2984  0.4179  0.3474
 7448SOL    MW429560   3.394   4.810   0.803  0.2414  0.4897  0.2933
 7449SOL     OW29561   1.236   4.425   0.457  0.1744 -0.0432  0.0252
 7449SOL    HW229562   1.258   4.422   0.551 -1.4538 -1.5208  0.3956
 7449SOL    HW329563   1.273   4.344   0.421 -0.4841 -0.2098 -0.2930
 7449SOL    MW429564   1.244   4.414   0.465 -0.1273 -0.2601  0.0321
 7450SOL     OW29565   3.055   2.705   0.571 -0.5571  0.6725  0.0082
 7450SOL    HW229566   3.147   2.722   0.594 -0.9382  1.6293  0.8842
 7450SOL    HW329567   3.036   2.620   0.610 -0.2685  0.8422  0.5396
 7450SOL    MW429568   3.065   2.696   0.579 -0.5693  0.8211  0.1939
 7451SOL     OW29569   5.968   1.408   4.975  0.3581 -0.0924 -0.2010
 7451SOL    HW229570   5.909   1.353   4.922  0.3085 -0.0122 -0.2285
 7451SOL    HW329571   6.036   1.436   4.914  0.1522  0.2232 -0.2866
 7451SOL    MW429572   5.969   1.404   4.960  0.3244 -0.0402 -0.2159
 7452SOL     OW29573   1.385   0.113   0.620 -0.3218  0.2025  0.0580
 7452SOL    HW229574   1.395   0.200   0.659 -0.4556  0.4345 -0.4113
 7452SOL    HW329575   1.448   0.058   0.666  0.7824  0.8733 -0.6081
 7452SOL    MW429576   1.395   0.117   0.631 -0.1938  0.3216 -0.0918
 7453SOL     OW29577   1.399   2.817   4.082  0.2204  0.3236  0.1904
 7453SOL    HW229578   1.480   2.845   4.123 -0.5913  0.6624  1.6406
 7453SOL    HW329579   1.426   2.762   4.008  1.7696  1.7564 -0.3469
 7453SOL    MW429580   1.413   2.813   4.078  0.3177  0.5573  0.3109
 7454SOL     OW29581   4.959   0.116   5.060 -0.1923 -0.3686 -0.7437
 7454SOL    HW229582   4.926   0.164   5.136  0.2474  0.2839 -0.9629
 7454SOL    HW329583   4.958   0.024   5.088 -0.2317 -0.1543 -0.0200
 7454SOL    MW429584   4.955   0.110   5.074 -0.1395 -0.2542 -0.6771
 7455SOL     OW29585   6.191   3.205   1.064  0.1988  0.0373  0.3510
 7455SOL    HW229586   6.209   3.231   1.155 -4.8531 -2.1046  2.3735
 7455SOL    HW329587   6.132   3.274   1.032  0.8469  0.0505 -0.8374
 7455SOL    MW429588   6.185   3.218   1.072 -0.3822 -0.2435  0.4610
 7456SOL     OW29589   5.744   4.251   4.119 -0.2764  0.3551  0.1986
 7456SOL    HW229590   5.662   4.296   4.139 -0.6228 -0.7348  1.4355
 7456SOL    HW329591   5.761   4.197   4.196  1.5686  0.4720 -0.0703
 7456SOL    MW429592   5.736   4.249   4.132 -0.0787  0.2267  0.3263
 7457SOL     OW29593   2.150   0.115   3.080  0.4378 -0.0209  0.2296
 7457SOL    HW229594   2.179   0.026   3.098  1.0200  0.1051 -0.0646
 7457SOL    HW329595   2.187   0.167   3.151 -0.8235 -0.1707  1.0262
 7457SOL    MW429596   2.159   0.110   3.092  0.3482 -0.0241  0.2959
 7458SOL     OW29597   2.580   0.381   3.247  0.0542 -0.0882  0.0571
 7458SOL    HW229598   2.667   0.422   3.254  0.5153 -0.8570 -0.9167
 7458SOL    HW329599   2.519   0.449   3.275  0.7871  1.3277 -1.5916
 7458SOL    MW429600   2.584   0.396   3.252  0.2117 -0.0028 -0.2889
 7459SOL     OW29601   0.769   5.301   4.693 -0.1474  0.1933  0.0639
 7459SOL    HW229602   0.864   5.310   4.702 -0.2619  0.7826  0.7994
 7459SOL    HW329603   0.739   5.386   4.662 -0.6008  0.5426  1.3798
 7459SOL    MW429604   0.777   5.313   4.690 -0.2223  0.3171  0.3345
 7460SOL     OW29605   1.261  -0.009   2.414  0.4846 -0.4886 -0.2103
 7460SOL    HW229606   1.196  -0.078   2.428  0.3237 -0.3627 -0.3445
 7460SOL    HW329607   1.225   0.045   2.344  0.5374 -0.1763 -0.0008
 7460SOL    MW429608   1.248  -0.011   2.407  0.4704 -0.4308 -0.2003
 7461SOL     OW29609   0.273   4.683   5.328  0.0905  0.0911 -0.4055
 7461SOL    HW229610   0.178   4.686   5.343  0.0631 -0.9952 -0.2938
 7461SOL    HW329611   0.310   4.722   5.408 -0.1813 -2.4683  1.0563
 7461SOL    MW429612   0.265   4.689   5.341  0.0510 -0.3899 -0.1979
 7462SOL     OW29613   0.133   0.925   3.424 -0.2114  0.5146  0.4702
 7462SOL    HW229614   0.214   0.940   3.376 -0.3179  1.6177  0.6094
 7462SOL    HW329615   0.111   1.011   3.461 -2.1996  0.5837 -0.7311
 7462SOL    MW429616   0.141   0.938   3.423 -0.4878  0.6692  0.3301
 7463SOL     OW29617   2.748   0.485   1.321  0.2220 -0.4364 -0.9011
 7463SOL    HW229618   2.771   0.426   1.393 -0.2849  0.4705  0.0421
 7463SOL    HW329619   2.774   0.438   1.242  0.6400 -1.5378 -0.1388
 7463SOL    MW429620   2.755   0.471   1.320  0.2103 -0.4621 -0.6760
 7464SOL     OW29621   4.859   5.340   1.908 -0.1189 -0.0722 -0.2494
 7464SOL    HW229622   4.856   5.269   1.845 -1.2912  1.9477 -2.6061
 7464SOL    HW329623   4.890   5.416   1.858 -1.1336  1.6423  1.5822
 7464SOL    MW429624   4.863   5.341   1.893 -0.4074  0.4205 -0.3187
 7465SOL     OW29625   2.312   1.553   6.191  1.0099  0.3033  0.1434
 7465SOL    HW229626   2.326   1.543   6.285  1.0074  1.7011  0.3116
 7465SOL    HW329627   2.299   1.464   6.159 -0.8157 -0.0844  1.7652
 7465SOL    MW429628   2.312   1.540   6.199  0.7687  0.4366  0.3796
 7466SOL     OW29629   0.573   4.021   5.304  0.7364  0.8560 -0.0915
 7466SOL    HW229630   0.521   4.056   5.377  3.4769  1.0768  1.9124
 7466SOL    HW329631   0.522   3.946   5.273 -1.1757  1.5570  1.1230
 7466SOL    MW429632   0.559   4.016   5.309  0.8457  0.9777  0.3331
 7467SOL     OW29633   0.471   1.444   0.256  0.1664 -0.4233  0.0083
 7467SOL    HW229634   0.491   1.482   0.341  1.6731  0.4888 -0.6973
 7467SOL    HW329635   0.530   1.369   0.248  1.1057  0.3600 -0.7832
 7467SOL    MW429636   0.482   1.439   0.266  0.4891 -0.1996 -0.1893
 7468SOL     OW29637   5.400   0.526   0.011  0.3237  0.7078  0.3567
 7468SOL    HW229638   5.445   0.550   0.093  0.1785 -0.4671  0.7996
 7468SOL    HW329639   5.398   0.607  -0.040  2.6391  0.9053  0.4670
 7468SOL    MW429640   5.406   0.540   0.015  0.6100  0.5788  0.4297
 7469SOL     OW29641   1.905   2.627   6.304 -0.0661 -0.0283 -0.0606
 7469SOL    HW229642   1.867   2.710   6.334  0.9427  0.0251  1.1529
 7469SOL    HW329643   1.999   2.644   6.299  0.1069 -0.9820 -0.1952
 7469SOL    MW429644   1.912   2.640   6.307  0.0898 -0.1471  0.0818
 7470SOL     OW29645   2.732   4.221   3.094  0.2354 -0.5265  0.3115
 7470SOL    HW229646   2.776   4.262   3.019  0.2859 -2.7095 -0.9372
 7470SOL    HW329647   2.798   4.220   3.163  0.0959  1.7793  0.5389
 7470SOL    MW429648   2.747   4.226   3.093  0.2237 -0.5103  0.1768
 7471SOL     OW29649   5.073   1.222   4.555 -0.0764 -0.1506  0.1815
 7471SOL    HW229650   5.083   1.312   4.586 -0.4575  0.0432 -0.2326
 7471SOL    HW329651   4.978   1.209   4.549 -0.0223 -0.5929  0.2813
 7471SOL    MW429652   5.062   1.232   4.558 -0.1196 -0.1834  0.1400
 7472SOL     OW29653   0.885   5.938   1.635 -0.4198  0.0559  0.2573
 7472SOL    HW229654   0.975   5.965   1.615 -0.9440  1.7340 -0.0024
 7472SOL    HW329655   0.887   5.915   1.727  0.4587 -0.7860  0.0468
 7472SOL    MW429656   0.898   5.939   1.644 -0.3731  0.1663  0.1953
 7473SOL     OW29657   0.383   5.006   5.334  0.6541  0.0121 -0.4321
 7473SOL    HW229658   0.453   4.950   5.369 -0.9241 -2.4710 -0.9352
 7473SOL    HW329659   0.421   5.045   5.255  2.0983  0.3246  0.3989
 7473SOL    MW429660   0.397   5.004   5.328  0.6364 -0.2743 -0.3888
 7474SOL     OW29661   2.051   0.277   4.038 -0.0999 -0.4473 -0.0777
 7474SOL    HW229662   2.069   0.212   3.971 -0.3155  0.5671 -1.1573
 7474SOL    HW329663   2.132   0.328   4.046 -0.7101  0.7548 -1.1171
 7474SOL    MW429664   2.064   0.275   4.030 -0.2089 -0.1548 -0.3572
 7475SOL     OW29665   1.334   5.631   0.349 -0.0188  0.1997  0.3853
 7475SOL    HW229666   1.306   5.721   0.360 -1.4017 -0.3591  1.7614
 7475SOL    HW329667   1.325   5.614   0.255  1.0513  1.6993 -0.0288
 7475SOL    MW429668   1.329   5.640   0.338 -0.0601  0.3238  0.5122
 7476SOL     OW29669   0.824   2.432   0.409  1.1007 -0.3766  0.5116
 7476SOL    HW229670   0.749   2.413   0.465  1.5874 -0.5961  1.1038
 7476SOL    HW329671   0.816   2.525   0.388  0.7387 -0.3700  0.6822
 7476SOL    MW429672   0.813   2.442   0.414  1.1171 -0.4047  0.6123
 7477SOL     OW29673   1.350   4.261   2.211 -0.0603  0.2744 -0.1556
 7477SOL    HW229674   1.421   4.212   2.252  2.4569  2.5340 -1.5022
 7477SOL    HW329675   1.327   4.210   2.133 -0.5328 -0.8649  0.6960
 7477SOL    MW429676   1.356   4.248   2.206  0.2095  0.4222 -0.2209
 7478SOL     OW29677   4.303   6.201   5.702 -0.6262 -0.0557  0.0178
 7478SOL    HW229678   4.314   6.296   5.695 -1.3085  0.0408  0.1886
 7478SOL    HW329679   4.315   6.169   5.613 -0.2513  0.1677 -0.0177
 7478SOL    MW429680   4.306   6.210   5.689 -0.6667 -0.0135  0.0357
 7479SOL     OW29681   1.903   3.735   3.204  0.1965 -0.8433 -0.4116
 7479SOL    HW229682   1.929   3.667   3.142 -1.6847  0.4523 -2.7992
 7479SOL    HW329683   1.809   3.746   3.189  0.0799  0.9155  1.3017
 7479SOL    MW429684   1.894   3.727   3.194 -0.0671 -0.4403 -0.5006
 7480SOL     OW29685   2.558   1.697   4.261 -0.2548 -0.1786 -0.1057
 7480SOL    HW229686   2.653   1.694   4.250 -0.2913  0.6600 -0.7627
 7480SOL    HW329687   2.541   1.644   4.339  1.0345  1.9539  1.7418
 7480SOL    MW429688   2.568   1.689   4.270 -0.0895  0.2134  0.0514
 7481SOL     OW29689   2.498   3.411   3.503  0.1633  0.4677  0.2385
 7481SOL    HW229690   2.551   3.444   3.430  1.3873  0.4844  1.1210
 7481SOL    HW329691   2.468   3.325   3.473  2.8483 -0.7221  0.7101
 7481SOL    MW429692   2.501   3.404   3.489  0.6791  0.3129  0.4171
 7482SOL     OW29693   4.032   4.604   1.611 -0.5609  0.5160  0.0182
 7482SOL    HW229694   4.075   4.522   1.636 -1.7592  0.2171  1.2314
 7482SOL    HW329695   3.956   4.576   1.560 -0.7101  0.8905  0.0342
 7482SOL    MW429696   4.028   4.590   1.608 -0.7387  0.5259  0.1804
 7483SOL     OW29697   2.414   5.509   5.166  0.1005  0.4551 -0.1592
 7483SOL    HW229698   2.367   5.428   5.183 -0.9968  1.2077  0.5469
 7483SOL    HW329699   2.393   5.531   5.075 -1.8101  1.2889  0.4195
 7483SOL    MW429700   2.405   5.501   5.156 -0.2964  0.6644  0.0103
 7484SOL     OW29701   4.502   1.395   2.651 -0.4865  0.4159  0.2277
 7484SOL    HW229702   4.408   1.409   2.643 -1.0825 -2.9942 -0.3785
 7484SOL    HW329703   4.532   1.382   2.561  0.5767  1.4247  0.4203
 7484SOL    MW429704   4.494   1.395   2.638 -0.4249  0.0991  0.1732
 7485SOL     OW29705   0.714   0.755   0.376  0.3639  0.2006  0.3358
 7485SOL    HW229706   0.782   0.744   0.441  0.0845  1.2249  0.8313
 7485SOL    HW329707   0.698   0.667   0.342  2.6071  0.0568 -0.5064
 7485SOL    MW429708   0.721   0.742   0.380  0.6230  0.3168  0.2901
 7486SOL     OW29709   3.224   4.360   0.422  0.1006 -0.1303  0.4876
 7486SOL    HW229710   3.221   4.377   0.516 -1.3811 -0.8709  0.5996
 7486SOL    HW329711   3.294   4.294   0.413  1.6567  1.4128  0.7778
 7486SOL    MW429712   3.233   4.353   0.434  0.1104 -0.0244  0.5406
 7487SOL     OW29713   0.720   1.605   4.911 -0.0341 -0.1510 -0.2723
 7487SOL    HW229714   0.650   1.562   4.862 -0.1224  0.8009 -1.0117
 7487SOL    HW329715   0.700   1.586   5.003 -1.3357  0.2076 -0.4643
 7487SOL    MW429716   0.708   1.597   4.917 -0.2175  0.0219 -0.3952
 7488SOL     OW29717   0.864   5.073   0.374 -0.2977  0.1678 -0.4313
 7488SOL    HW229718   0.903   5.152   0.412 -2.6158  0.8011  0.8173
 7488SOL    HW329719   0.834   5.101   0.287  0.0782  0.2859 -0.5239
 7488SOL    MW429720   0.865   5.087   0.367 -0.5540  0.2670 -0.2787
 7489SOL     OW29721   6.170   1.647   5.373  0.4584  0.3176 -0.1579
 7489SOL    HW229722   6.242   1.669   5.432 -0.1838  4.1785 -0.5725
 7489SOL    HW329723   6.212   1.599   5.301  2.1499  0.2616  0.8031
 7489SOL    MW429724   6.185   1.644   5.372  0.5969  0.8196 -0.0858
 7490SOL     OW29725   5.957   6.208   1.969 -0.2832 -0.2200 -0.3291
 7490SOL    HW229726   5.993   6.245   1.888 -0.2682  1.1180  0.2615
 7490SOL    HW329727   5.876   6.165   1.943  0.0106 -0.2873 -1.1436
 7490SOL    MW429728   5.951   6.207   1.955 -0.2424 -0.0524 -0.3586
 7491SOL     OW29729   0.506   1.606   3.299 -0.2601 -0.5688 -0.7644
 7491SOL    HW229730   0.484   1.698   3.309 -1.8826 -1.0782  0.7631
 7491SOL    HW329731   0.585   1.594   3.352 -0.1492 -0.1094 -0.8208
 7491SOL    MW429732   0.514   1.616   3.307 -0.4595 -0.5754 -0.5703
 7492SOL     OW29733   3.286   3.066   4.531  0.0906  0.0448 -0.0999
 7492SOL    HW229734   3.351   3.128   4.562  0.4355  0.6554 -1.9108
 7492SOL    HW329735   3.224   3.119   4.481  0.9675 -1.1101 -2.5864
 7492SOL    MW429736   3.286   3.081   4.528  0.2518 -0.0270 -0.6669
 7493SOL     OW29737   2.383   1.335   1.686 -0.2182 -0.1465 -0.0456
 7493SOL    HW229738   2.450   1.278   1.648 -0.4920 -0.3687 -0.2027
 7493SOL    HW329739   2.376   1.306   1.777 -0.1149 -0.1324 -0.0323
 7493SOL    MW429740   2.391   1.324   1.693 -0.2407 -0.1739 -0.0646
 7494SOL     OW29741   5.073   3.114   4.418  0.1678 -0.1120  0.4534
 7494SOL    HW229742   5.158   3.076   4.396 -0.3888 -0.5739 -1.1206
 7494SOL    HW329743   5.092   3.203   4.446  1.0984  0.1906 -1.0277
 7494SOL    MW429744   5.087   3.120   4.419  0.2171 -0.1330  0.0503
 7495SOL     OW29745   5.937   3.957   1.940  0.3900  0.5238 -0.4489
 7495SOL    HW229746   5.853   3.981   1.902 -0.1678 -0.3380  0.2189
 7495SOL    HW329747   6.001   4.011   1.893 -0.6200  1.9210 -0.2732
 7495SOL    MW429748   5.935   3.967   1.929  0.1832  0.5944 -0.3376
 7496SOL     OW29749   0.496   0.521   4.909  0.1214  0.2854  0.3172
 7496SOL    HW229750   0.537   0.506   4.994  0.8621  1.5773  0.2286
 7496SOL    HW329751   0.441   0.598   4.922 -1.2758 -0.6493  0.0889
 7496SOL    MW429752   0.494   0.529   4.922  0.0348  0.3325  0.2754
 7497SOL     OW29753   4.613   3.130   5.199 -0.2978 -0.7618  0.5258
 7497SOL    HW229754   4.612   3.044   5.156 -1.4678 -0.3232 -0.3415
 7497SOL    HW329755   4.623   3.109   5.292 -3.6410 -2.0398  0.7142
 7497SOL    MW429756   4.614   3.116   5.206 -0.8932 -0.8725  0.4362
 7498SOL     OW29757   4.817   3.815   1.281  0.0382 -0.6145 -0.2042
 7498SOL    HW229758   4.865   3.735   1.301 -0.9751 -0.8219  1.5232
 7498SOL    HW329759   4.727   3.787   1.270 -0.2254  0.2058 -0.2058
 7498SOL    MW429760   4.812   3.801   1.282 -0.1303 -0.5336  0.0235
 7499SOL     OW29761   0.902   1.457   0.311 -0.4957  0.8384  0.5794
 7499SOL    HW229762   0.894   1.421   0.399 -1.8798  0.7317  0.4322
 7499SOL    HW329763   0.844   1.404   0.258  1.4547 -0.0670 -0.7458
 7499SOL    MW429764   0.893   1.445   0.316 -0.4210  0.7049  0.3851
 7500SOL     OW29765   5.776   4.099   0.423 -0.3112 -0.5457  0.0496
 7500SOL    HW229766   5.711   4.030   0.434 -0.8443  0.0423  0.6566
 7500SOL    HW329767   5.806   4.118   0.512 -1.6488  1.4071  0.1324
 7500SOL    MW429768   5.772   4.092   0.437 -0.5580 -0.2105  0.1406
 7501SOL     OW29769   3.183   6.350   3.420  0.4763 -0.5486  0.3759
 7501SOL    HW229770   3.276   6.354   3.400  0.6844  0.5548  1.4786
 7501SOL    HW329771   3.159   6.440   3.443 -1.2857 -0.4013 -1.6866
 7501SOL    MW429772   3.192   6.363   3.420  0.2713 -0.3836  0.2493
 7502SOL     OW29773   2.720   3.571   2.359 -0.1013  0.2025 -0.0633
 7502SOL    HW229774   2.798   3.562   2.412  0.0808  0.1918 -0.3288
 7502SOL    HW329775   2.651   3.595   2.420  0.3669  1.4377 -0.0033
 7502SOL    MW429776   2.721   3.573   2.374 -0.0155  0.3641 -0.0904
 7503SOL     OW29777   5.122   1.418   5.669  0.0406 -0.0701  0.1148
 7503SOL    HW229778   5.169   1.335   5.662 -2.3157 -1.8333  2.9659
 7503SOL    HW329779   5.121   1.438   5.763 -1.5063  1.9363 -0.2499
 7503SOL    MW429780   5.128   1.410   5.681 -0.4744 -0.0380  0.4428
 7504SOL     OW29781   6.243   3.644   6.126 -1.0614 -0.0566 -0.2765
 7504SOL    HW229782   6.338   3.646   6.118 -0.7316  0.7606  2.4828
 7504SOL    HW329783   6.225   3.706   6.198 -3.5916 -0.7942 -0.1993
 7504SOL    MW429784   6.253   3.653   6.135 -1.3517 -0.0461  0.0978
 7505SOL     OW29785   2.525   0.110   2.043 -0.1615 -0.1560 -0.2952
 7505SOL    HW229786   2.588   0.100   1.971 -1.8722 -1.9639 -1.6313
 7505SOL    HW329787   2.570   0.074   2.119  1.5543  1.4690 -0.4647
 7505SOL    MW429788   2.539   0.104   2.043 -0.1608 -0.1801 -0.4938
 7506SOL     OW29789   0.585   3.520   6.279  0.6956  0.1005 -0.0529
 7506SOL    HW229790   0.496   3.488   6.293  1.4400 -2.2972 -0.2895
 7506SOL    HW329791   0.574   3.606   6.239 -1.5048 -0.0929  0.0259
 7506SOL    MW429792   0.572   3.527   6.276  0.5035 -0.2414 -0.0738
 7507SOL     OW29793   1.163   1.228   3.251 -0.2891 -0.3945  0.7158
 7507SOL    HW229794   1.208   1.312   3.257 -0.7580  0.0909 -1.6373
 7507SOL    HW329795   1.070   1.250   3.251 -0.4506 -0.5085 -2.8739
 7507SOL    MW429796   1.157   1.242   3.252 -0.3723 -0.3455 -0.0683
 7508SOL     OW29797   4.730   0.855   1.680  0.1606 -0.7978 -0.1849
 7508SOL    HW229798   4.805   0.902   1.718  0.3861 -0.9844 -0.3972
 7508SOL    HW329799   4.666   0.923   1.661 -0.4295 -0.7950  1.5797
 7508SOL    MW429800   4.731   0.870   1.683  0.1125 -0.8220  0.0199
 7509SOL     OW29801   3.019   0.664   5.275 -0.3453 -0.1613  0.4569
 7509SOL    HW229802   3.077   0.643   5.202 -1.6411 -1.9097 -0.1374
 7509SOL    HW329803   3.054   0.746   5.310  2.3289 -1.0130  0.0130
 7509SOL    MW429804   3.031   0.672   5.270 -0.1634 -0.5044  0.3200
 7510SOL     OW29805   4.672   5.579   4.236 -0.4961  0.0988  0.2578
 7510SOL    HW229806   4.676   5.609   4.145 -0.8714  1.7982  0.7736
 7510SOL    HW329807   4.707   5.490   4.233  0.2557  0.4095 -1.4202
 7510SOL    MW429808   4.677   5.571   4.223 -0.4465  0.3640  0.1045
 7511SOL     OW29809   3.438   5.238   1.622 -0.3352 -0.3784  0.5018
 7511SOL    HW229810   3.411   5.328   1.637 -0.2472 -0.3784  0.6741
 7511SOL    HW329811   3.534   5.240   1.627 -0.1416 -0.0336 -2.0416
 7511SOL    MW429812   3.447   5.250   1.625 -0.2980 -0.3329  0.1890
 7512SOL     OW29813   1.737   4.803   5.180  0.0339  0.1136  0.0300
 7512SOL    HW229814   1.809   4.743   5.198  1.0432  1.3150  0.0833
 7512SOL    HW329815   1.702   4.825   5.267  1.0468  1.2425  0.1752
 7512SOL    MW429816   1.742   4.798   5.194  0.3007  0.4211  0.0562
 7513SOL     OW29817   1.971   2.300   1.013 -0.1768  0.9787 -0.2573
 7513SOL    HW229818   2.066   2.291   1.025 -0.1542  0.5915 -0.6987
 7513SOL    HW329819   1.933   2.260   1.091  0.0379  2.0055  0.3854
 7513SOL    MW429820   1.979   2.294   1.025 -0.1455  1.0631 -0.2307
 7514SOL     OW29821   2.721   3.915   2.576  0.1559  0.1066 -0.0929
 7514SOL    HW229822   2.756   3.852   2.640  2.2340 -0.4897 -1.7064
 7514SOL    HW329823   2.766   3.894   2.495 -1.8159  1.3710 -1.5917
 7514SOL    MW429824   2.732   3.904   2.574  0.1699  0.1947 -0.5035
 7515SOL     OW29825   3.656   0.902   4.746  0.4145 -0.0650  0.0349
 7515SOL    HW229826   3.579   0.857   4.710  0.0461  1.7493 -1.6361
 7515SOL    HW329827   3.704   0.933   4.669  1.8822  0.3724  1.0829
 7515SOL    MW429828   3.652   0.900   4.731  0.5595  0.2321 -0.0473
 7516SOL     OW29829   0.847   2.423   5.214 -0.9905  0.0119  0.2842
 7516SOL    HW229830   0.780   2.463   5.269 -1.2537  0.3898 -0.3068
 7516SOL    HW329831   0.924   2.416   5.272 -1.0632  1.0071  0.5148
 7516SOL    MW429832   0.849   2.428   5.229 -1.0349  0.1931  0.2367
 7517SOL     OW29833   4.142   5.606   5.504 -0.3945 -0.0313  0.1586
 7517SOL    HW229834   4.201   5.531   5.507 -1.9770 -1.3355 -0.3939
 7517SOL    HW329835   4.058   5.571   5.476 -1.4730  1.7702  0.9065
 7517SOL    MW429836   4.139   5.592   5.501 -0.7456  0.0343  0.1844
 7518SOL     OW29837   0.805   3.610   1.257 -0.1055 -0.5857  0.0539
 7518SOL    HW229838   0.768   3.692   1.227 -1.8061 -1.4897 -0.4750
 7518SOL    HW329839   0.892   3.607   1.219  0.7005  1.7503  1.5496
 7518SOL    MW429840   0.811   3.620   1.248 -0.2235 -0.3968  0.1815
 7519SOL     OW29841   6.162   6.043   2.082 -0.2185  0.0919 -0.0093
 7519SOL    HW229842   6.095   6.110   2.068  0.4877  0.8952  0.3509
 7519SOL    HW329843   6.206   6.035   1.997  0.4487  0.9411  0.2418
 7519SOL    MW429844   6.159   6.051   2.069 -0.0373  0.3099  0.0714
 7520SOL     OW29845   3.050   0.549   3.713  0.0038  0.0782  0.3349
 7520SOL    HW229846   2.998   0.614   3.761  0.4039  0.5835  0.0853
 7520SOL    HW329847   3.084   0.596   3.637  1.9533  0.1557  1.1958
 7520SOL    MW429848   3.047   0.563   3.710  0.3138  0.1551  0.4155
 7521SOL     OW29849   2.803   0.456   3.598 -0.2684  0.5554 -0.2479
 7521SOL    HW229850   2.826   0.450   3.506 -1.6733 -0.1895 -0.5727
 7521SOL    HW329851   2.885   0.482   3.641  1.0129 -1.3663 -1.3928
 7521SOL    MW429852   2.817   0.459   3.592 -0.2847  0.2036 -0.4418
 7522SOL     OW29853   3.467   1.792   5.983  0.5845 -1.2069 -0.2444
 7522SOL    HW229854   3.542   1.771   5.927  3.0155 -2.9771  3.2643
 7522SOL    HW329855   3.445   1.709   6.025 -1.8276 -0.2082  0.6252
 7522SOL    MW429856   3.474   1.778   5.981  0.5870 -1.3087  0.3333
 7523SOL     OW29857   0.969   6.341   4.492  0.2949 -0.3441 -0.8331
 7523SOL    HW229858   0.879   6.326   4.520  0.5790 -0.2871  0.1571
 7523SOL    HW329859   1.000   6.412   4.549  1.5573 -1.6321  0.1538
 7523SOL    MW429860   0.961   6.349   4.503  0.4990 -0.5065 -0.5723
 7524SOL     OW29861   5.196   2.748   4.953 -0.7126 -0.6063  0.0846
 7524SOL    HW229862   5.178   2.835   4.987 -0.2614 -0.3870 -0.2175
 7524SOL    HW329863   5.173   2.688   5.024  1.1654 -0.1099  1.1794
 7524SOL    MW429864   5.191   2.751   4.967 -0.4053 -0.5119  0.1892
 7525SOL     OW29865   3.946   2.732   2.342  0.2214 -0.1629  0.3466
 7525SOL    HW229866   3.887   2.799   2.375 -0.4664 -0.5034 -0.1741
 7525SOL    HW329867   3.889   2.664   2.306  0.8813 -1.3019  1.3596
 7525SOL    MW429868   3.931   2.732   2.341  0.2177 -0.3581  0.4116
 7526SOL     OW29869   0.084   3.057   4.899 -0.0879 -0.2547 -0.4224
 7526SOL    HW229870   0.046   2.969   4.895 -3.0971  0.8228  1.5099
 7526SOL    HW329871   0.046   3.103   4.824  0.9102 -0.3678 -1.0106
 7526SOL    MW429872   0.074   3.051   4.888 -0.3533 -0.1275 -0.2451
 7527SOL     OW29873   3.156   6.271   4.085  0.1765 -0.3697  0.0876
 7527SOL    HW229874   3.169   6.193   4.031 -0.2635 -0.7658  0.5328
 7527SOL    HW329875   3.148   6.343   4.022  0.1844 -0.7432 -0.3475
 7527SOL    MW429876   3.156   6.270   4.069  0.1195 -0.4712  0.0889
 7528SOL     OW29877   0.090   2.501   4.961 -0.1726 -0.4634  0.4888
 7528SOL    HW229878   0.124   2.494   4.872 -0.7349 -1.0294  0.3052
 7528SOL    HW329879   0.007   2.453   4.958  0.4836 -1.7553  1.6748
 7528SOL    MW429880   0.083   2.494   4.948 -0.1602 -0.7085  0.6211
 7529SOL     OW29881   5.989   2.076   5.741 -0.1472  0.8672  0.3176
 7529SOL    HW229882   5.975   2.094   5.834  0.8612  1.3191  0.3908
 7529SOL    HW329883   6.043   2.148   5.710  1.5691 -0.5157 -0.0543
 7529SOL    MW429884   5.994   2.088   5.749  0.2123  0.7443  0.2782
 7530SOL     OW29885   3.694   5.422   3.185  0.2407 -0.1730  0.3737
 7530SOL    HW229886   3.608   5.398   3.148  0.8535 -0.8244 -0.6742
 7530SOL    HW329887   3.718   5.502   3.140 -0.5175  0.9362  1.8396
 7530SOL    MW429888   3.686   5.429   3.174  0.2215 -0.1126  0.4288
 7531SOL     OW29889   5.789   4.926   3.799 -0.0590 -0.3013  0.1829
 7531SOL    HW229890   5.751   4.893   3.880 -0.7721 -1.1739 -0.4778
 7531SOL    HW329891   5.771   4.857   3.735  1.0540  0.0789 -0.5720
 7531SOL    MW429892   5.782   4.912   3.801 -0.0063 -0.3662 -0.0039
 7532SOL     OW29893   0.545   2.424   1.165 -0.5441  0.4763 -0.6172
 7532SOL    HW229894   0.576   2.337   1.142 -1.9901 -0.1313 -0.4201
 7532SOL    HW329895   0.549   2.426   1.261  0.2221  0.9296 -0.6512
 7532SOL    MW429896   0.549   2.413   1.175 -0.6338  0.4559 -0.5957
 7533SOL     OW29897   3.216   0.584   0.369  0.6371  0.0708 -0.6012
 7533SOL    HW229898   3.186   0.500   0.332  0.8713  0.0091 -0.6538
 7533SOL    HW329899   3.309   0.570   0.388  0.1730 -0.4482  1.5606
 7533SOL    MW429900   3.225   0.571   0.367  0.6068 -0.0058 -0.3229
 7534SOL     OW29901   3.217   4.016   6.084 -0.1692  0.1425 -0.3393
 7534SOL    HW229902   3.139   4.042   6.035 -0.6301  1.4220  1.0053
 7534SOL    HW329903   3.228   3.923   6.064 -3.1346 -0.5750  0.8347
 7534SOL    MW429904   3.208   4.007   6.075 -0.6212  0.2166 -0.0070
 7535SOL     OW29905   5.679   3.709   3.418  0.4935  0.0410  0.5104
 7535SOL    HW229906   5.717   3.658   3.490  4.4176  2.8855  0.7667
 7535SOL    HW329907   5.650   3.791   3.459  1.3927  1.0882 -0.8474
 7535SOL    MW429908   5.680   3.713   3.433  1.1299  0.5544  0.3651
 7536SOL     OW29909   2.286   2.168   6.123 -0.3681  0.0747 -0.0734
 7536SOL    HW229910   2.252   2.215   6.047  0.8005  0.3935 -0.4230
 7536SOL    HW329911   2.297   2.236   6.190  0.0304  0.0612 -0.1239
 7536SOL    MW429912   2.283   2.183   6.122 -0.1614  0.1150 -0.1262
 7537SOL     OW29913   0.491   2.112   2.664  0.2708 -0.3294 -0.4011
 7537SOL    HW229914   0.566   2.113   2.724  0.6889 -0.7439 -0.9082
 7537SOL    HW329915   0.516   2.050   2.595 -0.5221 -0.4379 -0.6000
 7537SOL    MW429916   0.504   2.104   2.663  0.2214 -0.3984 -0.4943
 7538SOL     OW29917   0.928   2.278   1.845  0.0097 -0.4448  0.2988
 7538SOL    HW229918   0.978   2.288   1.925 -1.5825  1.4995  1.1231
 7538SOL    HW329919   0.896   2.366   1.825 -2.2394 -1.4061 -0.6920
 7538SOL    MW429920   0.930   2.291   1.853 -0.4971 -0.3151  0.2768
 7539SOL     OW29921   0.727   0.476   3.246 -0.0877 -0.1822 -0.2054
 7539SOL    HW229922   0.687   0.401   3.290  2.3287 -1.4297  0.0389
 7539SOL    HW329923   0.686   0.477   3.159  0.3467 -2.3067 -0.4939
 7539SOL    MW429924   0.716   0.466   3.240  0.2884 -0.6271 -0.2112
 7540SOL     OW29925   4.449   2.435   4.067  0.0631 -0.3077  0.0939
 7540SOL    HW229926   4.491   2.362   4.022 -0.0014  0.2748 -0.9390
 7540SOL    HW329927   4.369   2.396   4.103  0.6441 -1.0294  0.6419
 7540SOL    MW429928   4.444   2.420   4.066  0.1313 -0.3261  0.0299
 7541SOL     OW29929   2.331   5.816   6.401 -0.2344  0.1840 -0.0544
 7541SOL    HW229930   2.335   5.912   6.393  0.1382  0.1652 -0.1103
 7541SOL    HW329931   2.393   5.784   6.336 -0.9108 -0.1222 -0.5626
 7541SOL    MW429932   2.339   5.825   6.392 -0.2745  0.1411 -0.1288
 7542SOL     OW29933   4.358   2.566   0.289  0.4674  0.1265 -0.1666
 7542SOL    HW229934   4.302   2.644   0.300 -2.2105 -1.5401 -0.9376
 7542SOL    HW329935   4.354   2.522   0.374 -1.6705 -1.3099 -0.9285
 7542SOL    MW429936   4.350   2.570   0.302 -0.1680 -0.2829 -0.3689
 7543SOL     OW29937   2.186   4.227   6.252  0.3379 -0.0155 -0.3915
 7543SOL    HW229938   2.104   4.176   6.252  0.1874  0.1214  1.9878
 7543SOL    HW329939   2.192   4.263   6.340  2.9788 -0.0130 -0.4887
 7543SOL    MW429940   2.176   4.225   6.263  0.6665  0.0029 -0.0904
 7544SOL     OW29941   4.841   4.590   5.720 -0.2231 -0.3166 -0.1565
 7544SOL    HW229942   4.752   4.569   5.747 -0.8282  0.9359 -1.0726
 7544SOL    HW329943   4.857   4.679   5.753  0.2258 -0.0552 -1.0276
 7544SOL    MW429944   4.832   4.599   5.728 -0.2437 -0.1169 -0.3923
 7545SOL     OW29945   2.340   1.295   3.597  0.5753 -0.1482  0.6052
 7545SOL    HW229946   2.344   1.236   3.522  0.7556  0.6751 -0.0417
 7545SOL    HW329947   2.252   1.281   3.634  0.2165 -0.0323 -0.1970
 7545SOL    MW429948   2.329   1.285   3.592  0.5517 -0.0243  0.4140
 7546SOL     OW29949   3.163   4.708   0.998 -0.0874 -0.4175  0.7121
 7546SOL    HW229950   3.229   4.755   0.948 -1.0271  0.0476 -0.1385
 7546SOL    HW329951   3.110   4.777   1.038 -0.5867 -0.7674  0.6608
 7546SOL    MW429952   3.164   4.723   0.996 -0.2773 -0.4023  0.5931
 7547SOL     OW29953   2.912   3.122   1.194 -0.1412  0.4890  0.6445
 7547SOL    HW229954   2.915   3.135   1.289 -1.0272  0.6351  0.6599
 7547SOL    HW329955   2.877   3.033   1.184 -0.6094  0.6965  0.4459
 7547SOL    MW429956   2.908   3.112   1.205 -0.3198  0.5356  0.6204
 7548SOL     OW29957   0.086   4.672   3.470 -0.2306 -0.0512  0.2431
 7548SOL    HW229958   0.109   4.589   3.430 -2.0792  0.8537 -3.0599
 7548SOL    HW329959   0.124   4.739   3.412 -0.9263  1.3901  1.3685
 7548SOL    MW429960   0.094   4.670   3.457 -0.5663  0.2583 -0.0442
 7549SOL     OW29961   2.240   4.477   3.367  0.0159 -0.3925  0.2612
 7549SOL    HW229962   2.234   4.519   3.453 -0.3912 -1.2670  0.6775
 7549SOL    HW329963   2.272   4.389   3.386  1.5574 -0.0583 -0.6721
 7549SOL    MW429964   2.243   4.471   3.381  0.1655 -0.4638  0.1930
 7550SOL     OW29965   1.837   3.785   0.023  0.1547 -0.5948  0.0396
 7550SOL    HW229966   1.868   3.761   0.110  1.3799  0.4909 -0.0724
 7550SOL    HW329967   1.916   3.794  -0.030 -0.5846 -1.4980 -1.2691
 7550SOL    MW429968   1.851   3.783   0.028  0.2188 -0.5707 -0.1478
 7551SOL     OW29969   4.990   5.280   0.912  0.2650  0.2342 -0.2471
 7551SOL    HW229970   5.049   5.354   0.929  0.7067  0.2229 -1.6042
 7551SOL    HW329971   4.998   5.225   0.990  1.3590  0.6984 -0.0072
 7551SOL    MW429972   4.999   5.283   0.924  0.4676  0.2939 -0.3945
 7552SOL     OW29973   3.104   0.013   0.790  0.2879  0.1412  0.9057
 7552SOL    HW229974   3.107  -0.082   0.780  3.5565  0.2867 -0.9903
 7552SOL    HW329975   3.011   0.034   0.801 -0.5550 -3.2016  0.9959
 7552SOL    MW429976   3.092   0.004   0.790  0.6079 -0.2807  0.6674
 7553SOL     OW29977   1.845   5.570   1.813 -0.3441  0.0007 -0.6933
 7553SOL    HW229978   1.929   5.527   1.800 -0.1133  0.5626 -1.1134
 7553SOL    HW329979   1.781   5.510   1.775 -0.0962 -0.2634 -0.6945
 7553SOL    MW429980   1.848   5.557   1.806 -0.2809  0.0400 -0.7489
 7554SOL     OW29981   1.528   3.116   5.424 -0.0618  0.0390  0.2584
 7554SOL    HW229982   1.488   3.036   5.390 -0.0384 -0.2155  0.8157
 7554SOL    HW329983   1.462   3.152   5.483  0.4987 -0.3575  1.1467
 7554SOL    MW429984   1.514   3.110   5.427  0.0152 -0.0469  0.4491
 7555SOL     OW29985   5.162   2.658   6.337  0.1266 -0.2407 -0.0939
 7555SOL    HW229986   5.185   2.710   6.260 -0.5998  0.3285  0.0587
 7555SOL    HW329987   5.089   2.706   6.377 -0.7164 -1.4929 -0.0680
 7555SOL    MW429988   5.155   2.671   6.332 -0.0805 -0.3308 -0.0703
 7556SOL     OW29989   5.245   2.490   5.886 -0.2568 -0.2642  0.4283
 7556SOL    HW229990   5.238   2.463   5.977 -0.7792  1.4499  0.9412
 7556SOL    HW329991   5.158   2.476   5.850 -0.6951  1.1770  0.8588
 7556SOL    MW429992   5.233   2.485   5.893 -0.3835  0.1521  0.5528
 7557SOL     OW29993   3.311   1.493   3.983 -0.1130 -0.1690  0.3011
 7557SOL    HW229994   3.356   1.413   4.010 -0.8062 -0.7211 -0.1513
 7557SOL    HW329995   3.381   1.552   3.956  0.5277 -0.0427  2.0904
 7557SOL    MW429996   3.326   1.490   3.983 -0.1199 -0.2252  0.4775
 7558SOL     OW29997   0.106   6.288   2.790  0.5932 -0.0687 -0.3994
 7558SOL    HW229998   0.060   6.210   2.758  1.5392 -1.1862  0.8448
 7558SOL    HW329999   0.117   6.272   2.884 -1.2266  2.6282  0.4074
 7558SOL    MW430000   0.101   6.275   2.798  0.4779  0.1397 -0.1288
 7559SOL     OW30001   6.006   2.668   0.283 -0.6143 -0.2818  0.0243
 7559SOL    HW230002   6.015   2.586   0.234 -3.5474 -1.4328  1.1967
 7559SOL    HW330003   6.080   2.669   0.343  0.1441 -1.4155 -0.8550
 7559SOL    MW430004   6.017   2.658   0.284 -0.9012 -0.5832  0.0630
 7560SOL     OW30005   5.766   3.021   5.980  0.4669 -0.2414  0.4720
 7560SOL    HW230006   5.755   2.951   5.915 -0.0687 -0.0567  0.3559
 7560SOL    HW330007   5.828   3.082   5.941  0.1697 -0.1473  0.1449
 7560SOL    MW430008   5.773   3.020   5.966  0.3570 -0.2046  0.4135
 7561SOL     OW30009   1.776   4.838   2.031  0.0487  0.5284  0.4960
 7561SOL    HW230010   1.804   4.917   1.985  0.9339 -0.3278 -0.4741
 7561SOL    HW330011   1.687   4.822   1.999  0.4272  0.2887 -0.4794
 7561SOL    MW430012   1.768   4.847   2.021  0.2154  0.3838  0.2393
 7562SOL     OW30013   3.945   3.620   1.846  0.2022  0.4282  0.5626
 7562SOL    HW230014   4.017   3.631   1.783  0.7171  0.1207  1.0878
 7562SOL    HW330015   3.870   3.662   1.804  0.0949 -1.2283 -0.9997
 7562SOL    MW430016   3.945   3.627   1.832  0.2560  0.1691  0.4257
 7563SOL     OW30017   6.223   3.877   4.632 -0.0966  0.1785 -0.7525
 7563SOL    HW230018   6.185   3.872   4.719 -0.2486  1.4089 -0.7332
 7563SOL    HW330019   6.305   3.828   4.639  0.0698  0.5610  0.1853
 7563SOL    MW430020   6.229   3.870   4.644 -0.0947  0.3913 -0.6262
 7564SOL     OW30021   2.865   0.404   1.088 -0.0115 -0.4211 -0.3915
 7564SOL    HW230022   2.869   0.348   1.010  1.4981 -0.7789 -0.0881
 7564SOL    HW330023   2.934   0.469   1.075 -0.1597 -0.1017  0.3605
 7564SOL    MW430024   2.875   0.405   1.076  0.1681 -0.4262 -0.2522
 7565SOL     OW30025   6.095   2.566   2.905  0.1223  0.5385  0.1310
 7565SOL    HW230026   6.027   2.500   2.907  0.4985  0.0575 -1.4094
 7565SOL    HW330027   6.172   2.522   2.941 -0.3344  1.0727  1.8412
 7565SOL    MW430028   6.096   2.552   2.910  0.1117  0.5455  0.1534
 7566SOL     OW30029   1.271   4.861   5.486 -0.6707 -0.0563  0.1333
 7566SOL    HW230030   1.294   4.933   5.428  0.7429  0.0380  0.7714
 7566SOL    HW330031   1.267   4.784   5.429  0.8753  0.0025 -0.0809
 7566SOL    MW430032   1.273   4.861   5.471 -0.2802 -0.0361  0.1893
 7567SOL     OW30033   0.464   4.269   4.324  0.3928 -0.2756  0.0076
 7567SOL    HW230034   0.368   4.273   4.326  0.3415 -0.0784 -1.3934
 7567SOL    HW330035   0.484   4.178   4.301  0.6257 -0.7621  1.9398
 7567SOL    MW430036   0.454   4.257   4.321  0.4167 -0.3138  0.0777
 7568SOL     OW30037   1.473   0.133   4.605  0.0305  0.1170  0.4103
 7568SOL    HW230038   1.445   0.051   4.564  1.4048  0.3420 -1.0747
 7568SOL    HW330039   1.405   0.196   4.582  0.3186  0.0139 -0.7728
 7568SOL    MW430040   1.460   0.130   4.597  0.2498  0.1331  0.0583
 7569SOL     OW30041   5.853   0.100   5.288  0.3440  0.2697 -0.2723
 7569SOL    HW230042   5.762   0.129   5.293 -0.0879 -1.0560 -0.0819
 7569SOL    HW330043   5.868   0.086   5.194  0.8614  1.9574 -0.4777
 7569SOL    MW430044   5.843   0.102   5.276  0.3553  0.3175 -0.2743
 7570SOL     OW30045   1.941   3.529   2.939  0.2572 -0.2342  0.2483
 7570SOL    HW230046   1.861   3.526   2.991 -0.8977 -0.7812 -1.4587
 7570SOL    HW330047   1.927   3.466   2.869  2.0868 -0.1428 -0.2678
 7570SOL    MW430048   1.929   3.520   2.937  0.3462 -0.2943 -0.0450
 7571SOL     OW30049   3.078   5.077   6.256 -0.5537 -0.4911 -0.5698
 7571SOL    HW230050   3.121   5.162   6.257  1.4562 -1.3636  2.6679
 7571SOL    HW330051   3.117   5.030   6.182  1.7803 -0.1246  0.3567
 7571SOL    MW430052   3.089   5.082   6.247  0.0194 -0.5579 -0.0204
 7572SOL     OW30053   3.780   5.723   4.495 -0.0893  0.1655 -0.0320
 7572SOL    HW230054   3.701   5.749   4.447 -0.7578  0.9741  1.4391
 7572SOL    HW330055   3.814   5.648   4.446 -3.5354 -2.2988  0.9552
 7572SOL    MW430056   3.774   5.716   4.482 -0.6321 -0.0530  0.2923
 7573SOL     OW30057   5.757   1.709   1.470  0.3223  0.7807  0.5316
 7573SOL    HW230058   5.662   1.705   1.457  0.0677 -1.9708  2.4140
 7573SOL    HW330059   5.792   1.649   1.404  0.2857 -1.4074  2.3513
 7573SOL    MW430060   5.749   1.701   1.459  0.2839  0.1290  1.0201
 7574SOL     OW30061   3.213   5.482   4.402  0.2010  0.4472  0.3749
 7574SOL    HW230062   3.268   5.437   4.466  1.0140  0.7638 -0.0921
 7574SOL    HW330063   3.148   5.416   4.376  0.6725 -0.0921  0.5415
 7574SOL    MW430064   3.212   5.467   4.407  0.3705  0.4178  0.3353
 7575SOL     OW30065   2.325   3.427   3.932 -0.1292  0.0916  0.0095
 7575SOL    HW230066   2.260   3.379   3.881 -0.0509 -0.2311  0.2100
 7575SOL    HW330067   2.290   3.427   4.021 -0.0408  0.2527  0.0447
 7575SOL    MW430068   2.312   3.421   3.937 -0.1072  0.0703  0.0406
 7576SOL     OW30069   5.709   0.865   6.332  0.0233  0.3383 -0.1918
 7576SOL    HW230070   5.783   0.907   6.376  0.3437 -1.2227  0.8313
 7576SOL    HW330071   5.658   0.938   6.296  1.2930  1.5097  0.2961
 7576SOL    MW430072   5.712   0.880   6.333  0.2331  0.2869  0.0075
 7577SOL     OW30073   2.133   4.634   3.594 -0.0951 -0.3728  0.3786
 7577SOL    HW230074   2.144   4.591   3.679  1.3892 -1.3320 -0.2690
 7577SOL    HW330075   2.208   4.693   3.587 -0.8272  0.5748  0.2046
 7577SOL    MW430076   2.144   4.636   3.604  0.0041 -0.3744  0.2702
 7578SOL     OW30077   1.580   3.850   4.282 -0.8510 -0.5437  0.2737
 7578SOL    HW230078   1.657   3.829   4.229  0.3538  1.0999  1.2730
 7578SOL    HW330079   1.535   3.918   4.233  0.0688  0.7197  1.1201
 7578SOL    MW430080   1.584   3.856   4.269 -0.5707 -0.1601  0.5172
 7579SOL     OW30081   3.381   3.481   1.532 -0.1024  0.5061  0.0087
 7579SOL    HW230082   3.308   3.423   1.552  0.8035 -0.6824 -0.0065
 7579SOL    HW330083   3.425   3.440   1.457  1.2443  0.5641  0.7348
 7579SOL    MW430084   3.377   3.468   1.525  0.1948  0.3569  0.1025
 7580SOL     OW30085   2.588   5.224   5.441  0.5036  0.1001  0.1573
 7580SOL    HW230086   2.681   5.242   5.452  0.1734  0.3044  3.9024
 7580SOL    HW330087   2.544   5.292   5.493 -1.7228 -0.5513 -0.7495
 7580SOL    MW430088   2.595   5.236   5.449  0.1663  0.0411  0.5318
 7581SOL     OW30089   4.538   3.911   4.024  0.0495 -0.4827  0.3848
 7581SOL    HW230090   4.445   3.892   4.019 -0.0461 -0.6289  2.1927
 7581SOL    HW330091   4.562   3.937   3.935 -1.3275 -2.1083 -0.5171
 7581SOL    MW430092   4.529   3.912   4.011 -0.1448 -0.7164  0.5044
 7582SOL     OW30093   2.517   1.043   1.579  0.5261  0.0258  0.1283
 7582SOL    HW230094   2.425   1.034   1.556  0.8392 -1.0520 -0.7508
 7582SOL    HW330095   2.565   1.012   1.502  1.6200 -1.1544  1.2351
 7582SOL    MW430096   2.511   1.038   1.566  0.7117 -0.2721  0.1583
 7583SOL     OW30097   2.283   4.524   0.278  0.7685  0.2176  0.1856
 7583SOL    HW230098   2.309   4.544   0.368  0.5111  2.1253 -0.1142
 7583SOL    HW330099   2.296   4.607   0.231 -1.3258 -0.0824 -1.0158
 7583SOL    MW430100   2.288   4.538   0.284  0.4582  0.4297 -0.0125
 7584SOL     OW30101   5.446   2.719   2.484  0.5438  0.8295 -0.2449
 7584SOL    HW230102   5.448   2.730   2.579 -0.3821  0.2263 -0.1439
 7584SOL    HW330103   5.421   2.805   2.450 -2.0414  0.3639  0.2601
 7584SOL    MW430104   5.443   2.732   2.492  0.0806  0.6885 -0.1650
 7585SOL     OW30105   4.406   6.124   3.988 -0.0065 -0.0622  0.0874
 7585SOL    HW230106   4.472   6.134   4.056  0.4977  0.9372 -0.5182
 7585SOL    HW330107   4.365   6.211   3.982 -1.2497 -0.6102  0.3190
 7585SOL    MW430108   4.409   6.137   3.997 -0.1040 -0.0026  0.0381
 7586SOL     OW30109   2.757   0.789   5.489 -0.1083 -0.8198 -0.1100
 7586SOL    HW230110   2.701   0.858   5.525 -0.0732 -0.8384 -0.0210
 7586SOL    HW330111   2.719   0.708   5.521  0.2073 -0.8127  0.2772
 7586SOL    MW430112   2.745   0.788   5.498 -0.0620 -0.8213 -0.0472
 7587SOL     OW30113   3.614   5.023   0.296  0.4500  0.4963  0.1388
 7587SOL    HW230114   3.552   4.963   0.337  0.3111  1.4958  1.4499
 7587SOL    HW330115   3.608   5.103   0.347  1.2030  1.3786 -1.0915
 7587SOL    MW430116   3.605   5.025   0.308  0.5310  0.7446  0.1495
 7588SOL     OW30117   2.523   2.804   4.803 -0.6954  0.5316 -0.4957
 7588SOL    HW230118   2.543   2.878   4.745  0.5465 -0.2478 -1.1254
 7588SOL    HW330119   2.511   2.843   4.889 -0.8421  1.5442 -0.9645
 7588SOL    MW430120   2.524   2.819   4.806 -0.5509  0.5624 -0.6406
 7589SOL     OW30121   2.888   0.004   6.094 -0.6495  0.0278 -0.4283
 7589SOL    HW230122   2.909   0.076   6.034 -0.8176 -0.4441 -1.0632
 7589SOL    HW330123   2.842  -0.059   6.039  1.5867 -1.6694 -0.4750
 7589SOL    MW430124   2.885   0.005   6.079 -0.3766 -0.2584 -0.5182
 7590SOL     OW30125   6.290   4.969   5.670  0.0376  0.2372  0.1511
 7590SOL    HW230126   6.359   4.910   5.699 -1.7019 -1.5363  0.9103
 7590SOL    HW330127   6.212   4.915   5.665 -1.2232  2.0409 -1.2131
 7590SOL    MW430128   6.289   4.954   5.674 -0.3582  0.2412  0.0713
 7591SOL     OW30129   2.042   4.427   1.791  0.2703 -0.1199  0.1286
 7591SOL    HW230130   2.043   4.508   1.842  0.1810 -0.2876  0.3953
 7591SOL    HW330131   2.105   4.443   1.721  1.4302 -0.3879  1.0697
 7591SOL    MW430132   2.051   4.440   1.788  0.4115 -0.1774  0.2879
 7592SOL     OW30133   0.963   6.008   3.865 -0.0408  0.0403  0.1178
 7592SOL    HW230134   0.923   5.925   3.893  0.6721 -0.4143 -0.2007
 7592SOL    HW330135   0.971   6.058   3.946 -0.9280  0.0056  0.2430
 7592SOL    MW430136   0.959   6.004   3.879 -0.0638 -0.0243  0.0923
 7593SOL     OW30137   0.278   1.946   0.570 -0.4609  0.4071 -0.0169
 7593SOL    HW230138   0.327   1.912   0.496  0.5398 -1.2337  1.3432
 7593SOL    HW330139   0.342   1.953   0.641 -1.7196  0.3070  1.1776
 7593SOL    MW430140   0.293   1.943   0.570 -0.4949  0.1774  0.3202
 7594SOL     OW30141   3.397   2.821   2.873 -0.4265 -0.2593 -0.3782
 7594SOL    HW230142   3.441   2.746   2.914  2.3866  1.2900 -0.3387
 7594SOL    HW330143   3.340   2.855   2.942 -0.4046 -1.3066  0.1866
 7594SOL    MW430144   3.396   2.816   2.887 -0.0525 -0.1931 -0.2985
 7595SOL     OW30145   1.199   6.348   0.523 -0.9077  0.0611 -0.2166
 7595SOL    HW230146   1.260   6.416   0.550  0.6282 -1.0636 -0.6915
 7595SOL    HW330147   1.142   6.391   0.460  0.2911  0.8455 -0.8124
 7595SOL    MW430148   1.200   6.363   0.518 -0.5469  0.0162 -0.3578
 7596SOL     OW30149   3.506   3.979   6.043 -0.0979  0.5801 -0.5892
 7596SOL    HW230150   3.421   4.020   6.030 -0.6954 -0.8425 -1.4084
 7596SOL    HW330151   3.487   3.885   6.051  1.3962  0.2199 -0.9287
 7596SOL    MW430152   3.493   3.972   6.042  0.0204  0.3449 -0.7421
 7597SOL     OW30153   5.845   4.751   0.817  0.4200  0.2598 -0.4253
 7597SOL    HW230154   5.780   4.821   0.812  0.5348  0.2924 -2.7216
 7597SOL    HW330155   5.817   4.687   0.752  1.7809 -0.5284 -0.2828
 7597SOL    MW430156   5.833   4.752   0.808  0.6147  0.1601 -0.7095
 7598SOL     OW30157   3.011   1.990   4.735 -0.0205 -0.6103 -0.2643
 7598SOL    HW230158   3.071   1.918   4.756  0.2203 -0.2798  0.1919
 7598SOL    HW330159   3.024   2.005   4.641 -0.0620 -1.1525 -0.3563
 7598SOL    MW430160   3.021   1.983   4.725  0.0058 -0.6382 -0.2163
 7599SOL     OW30161   6.415   3.785   5.388  0.1188  0.4357  0.1584
 7599SOL    HW230162   6.341   3.784   5.449 -0.2741  3.5916 -0.1001
 7599SOL    HW330163   6.374   3.801   5.303  0.7966 -2.3343 -0.7891
 7599SOL    MW430164   6.400   3.787   5.385  0.1564  0.4866 -0.0007
 7600SOL     OW30165   6.308   4.469   3.154 -0.2171  0.5380 -0.6301
 7600SOL    HW230166   6.309   4.398   3.090  2.3474 -0.5521  0.5017
 7600SOL    HW330167   6.296   4.549   3.102  0.1126 -0.4441 -2.2581
 7600SOL    MW430168   6.306   4.470   3.139  0.1647  0.2646 -0.6956
 7601SOL     OW30169   2.128   0.107   0.783 -0.1576 -0.0852  0.0479
 7601SOL    HW230170   2.181   0.028   0.797 -0.2102  0.0104  0.8451
 7601SOL    HW330171   2.171   0.152   0.710  1.7094  0.6914  1.5279
 7601SOL    MW430172   2.141   0.102   0.775  0.0818  0.0299  0.3484
 7602SOL     OW30173   1.254   0.128   2.157  0.3456  0.0205  0.0869
 7602SOL    HW230174   1.318   0.199   2.153  0.6194 -0.2686 -1.2338
 7602SOL    HW330175   1.300   0.051   2.123 -0.0198 -0.7413  1.2580
 7602SOL    MW430176   1.268   0.127   2.152  0.3335 -0.1182  0.0672
 7603SOL     OW30177   2.815   1.190   0.162  0.2201 -0.4634  0.6429
 7603SOL    HW230178   2.724   1.204   0.138  0.1203  1.3878  1.9304
 7603SOL    HW330179   2.812   1.153   0.250  0.7074  0.4106  1.0425
 7603SOL    MW430180   2.803   1.187   0.171  0.2712 -0.1038  0.8655
 7604SOL     OW30181   3.926   2.737   1.581 -0.0450  0.1319  0.0300
 7604SOL    HW230182   3.966   2.821   1.559  0.5697 -0.0485  0.4408
 7604SOL    HW330183   3.940   2.728   1.676 -1.1870  0.1276  0.2165
 7604SOL    MW430184   3.933   2.747   1.591 -0.1146  0.1075  0.1088
 7605SOL     OW30185   5.163   3.224   5.689 -0.4133  0.1332 -0.2315
 7605SOL    HW230186   5.083   3.276   5.699 -1.2479 -0.8866 -1.2080
 7605SOL    HW330187   5.226   3.284   5.649 -0.9348  0.7529 -0.1392
 7605SOL    MW430188   5.160   3.239   5.685 -0.5923  0.0804 -0.3482
 7606SOL     OW30189   4.521   3.304   1.759  0.3353  0.7906 -0.3068
 7606SOL    HW230190   4.516   3.352   1.676 -0.7076  0.6981 -0.3157
 7606SOL    HW330191   4.457   3.347   1.815  1.0814  0.8929  0.4883
 7606SOL    MW430192   4.512   3.316   1.755  0.2961  0.7919 -0.2031
 7607SOL     OW30193   3.546   1.284   5.139 -0.2818 -0.0086 -0.1329
 7607SOL    HW230194   3.595   1.244   5.067 -1.3586 -1.0062 -0.3561
 7607SOL    HW330195   3.568   1.230   5.215  1.0336  1.1831  0.3763
 7607SOL    MW430196   3.555   1.271   5.139 -0.2503  0.0170 -0.0952
 7608SOL     OW30197   1.820   5.743   5.286 -0.6433  0.0051 -0.4591
 7608SOL    HW230198   1.871   5.699   5.353 -2.4000 -1.6193 -0.0985
 7608SOL    HW330199   1.866   5.725   5.204  0.5938  0.5834  0.0890
 7608SOL    MW430200   1.833   5.735   5.284 -0.7119 -0.1329 -0.3392
 7609SOL     OW30201   3.224   1.164   3.681 -0.6007  0.3230 -0.3923
 7609SOL    HW230202   3.186   1.237   3.730  0.1819 -0.5016  1.5312
 7609SOL    HW330203   3.275   1.116   3.746  0.2554 -0.9994 -1.9873
 7609SOL    MW430204   3.225   1.168   3.696 -0.3845  0.0397 -0.3489
 7610SOL     OW30205   1.055   5.508   5.731  0.2087 -0.0533 -0.1081
 7610SOL    HW230206   1.137   5.458   5.737 -0.7652 -1.8061 -0.5463
 7610SOL    HW330207   0.986   5.441   5.735 -1.3617  1.5355  3.2049
 7610SOL    MW430208   1.056   5.492   5.732 -0.1270 -0.0750  0.2712
 7611SOL     OW30209   4.659   1.426   3.669  0.4555 -0.2259 -0.0335
 7611SOL    HW230210   4.651   1.423   3.765  1.8013 -1.9290  0.0809
 7611SOL    HW330211   4.697   1.342   3.646 -0.5481 -0.1577 -2.1802
 7611SOL    MW430212   4.663   1.415   3.679  0.5007 -0.4416 -0.3016
 7612SOL     OW30213   2.444   5.013   3.391 -0.4180  0.0645  0.2446
 7612SOL    HW230214   2.417   5.061   3.313 -1.2433  0.3880  0.7166
 7612SOL    HW330215   2.395   4.931   3.386 -1.0947  0.4256  0.8305
 7612SOL    MW430216   2.434   5.008   3.380 -0.6162  0.1548  0.3842
 7613SOL     OW30217   0.816   4.220   5.270 -0.1726 -0.0625 -0.0613
 7613SOL    HW230218   0.820   4.284   5.199  1.7076  0.5584  0.5517
 7613SOL    HW330219   0.789   4.138   5.228  0.2020  0.4604 -1.3495
 7613SOL    MW430220   0.813   4.218   5.255  0.1249  0.0884 -0.1504
 7614SOL     OW30221   4.210  -0.027   0.488 -0.7989 -0.4139 -0.1678
 7614SOL    HW230222   4.200  -0.031   0.584 -2.6362  0.6390 -0.2526
 7614SOL    HW330223   4.221  -0.118   0.462  0.3195 -0.6734  1.0882
 7614SOL    MW430224   4.210  -0.039   0.497 -0.8937 -0.3092 -0.0133
 7615SOL     OW30225   2.491   3.696   0.086  0.1146  0.2236  0.2153
 7615SOL    HW230226   2.540   3.675   0.165 -1.2334  1.4688  1.4427
 7615SOL    HW330227   2.425   3.626   0.079  1.5503 -1.0738 -1.0574
 7615SOL    MW430228   2.488   3.684   0.096  0.1262  0.2167  0.2094
 7616SOL     OW30229   3.405   4.589   2.515  0.1532  0.1019 -0.2992
 7616SOL    HW230230   3.377   4.502   2.488 -1.2506  0.5986 -0.5632
 7616SOL    HW330231   3.496   4.595   2.486 -0.4372 -0.4212 -2.4829
 7616SOL    MW430232   3.413   4.578   2.507 -0.1099  0.0984 -0.6221
 7617SOL     OW30233   1.978   0.397   1.624  0.2727  0.3437 -0.2463
 7617SOL    HW230234   2.055   0.373   1.675 -0.5092  1.5485  1.6153
 7617SOL    HW330235   2.013   0.449   1.551  1.2804  0.0717  0.0290
 7617SOL    MW430236   1.993   0.401   1.621  0.3025  0.4668  0.0356
 7618SOL     OW30237   0.869   4.062   0.820  0.6094 -0.1515  0.2528
 7618SOL    HW230238   0.920   4.131   0.778 -0.2213  0.7298  0.6466
 7618SOL    HW330239   0.781   4.098   0.826  0.4811 -0.6423  1.8192
 7618SOL    MW430240   0.864   4.076   0.815  0.4829 -0.1000  0.5114
 7619SOL     OW30241   6.014   4.612   1.271  0.3354 -0.3940 -0.5460
 7619SOL    HW230242   5.944   4.658   1.225 -0.4588  1.8997  2.6053
 7619SOL    HW330243   6.091   4.669   1.262  0.0500  0.3158  1.2025
 7619SOL    MW430244   6.015   4.626   1.264  0.1930  0.0023  0.1004
 7620SOL     OW30245   1.831   3.006   1.698  0.0142  0.6338  0.2908
 7620SOL    HW230246   1.810   3.091   1.737 -0.6860  0.7128 -0.2340
 7620SOL    HW330247   1.850   3.025   1.606 -1.7140  0.0593 -0.2318
 7620SOL    MW430248   1.831   3.019   1.691 -0.3062  0.5684  0.1526
 7621SOL     OW30249   3.157   5.406   1.124  0.3006  0.5235  0.0995
 7621SOL    HW230250   3.109   5.452   1.193  0.4361  2.4549 -1.0394
 7621SOL    HW330251   3.120   5.441   1.043 -1.4962 -3.3136 -0.9669
 7621SOL    MW430252   3.146   5.417   1.123  0.0814  0.2720 -0.1915
 7622SOL     OW30253   5.946   1.660   0.732 -0.5278 -0.2381  0.0598
 7622SOL    HW230254   5.994   1.641   0.813  1.5683  0.6441 -0.8929
 7622SOL    HW330255   5.976   1.594   0.670  0.4296  1.0380 -0.8967
 7622SOL    MW430256   5.956   1.649   0.735 -0.1249  0.0467 -0.1921
 7623SOL     OW30257   2.696   3.486   3.692 -0.6837 -0.2974 -0.8151
 7623SOL    HW230258   2.616   3.455   3.649 -0.3444  0.8356 -2.3733
 7623SOL    HW330259   2.664   3.538   3.766 -1.4483  0.4972 -1.6623
 7623SOL    MW430260   2.681   3.489   3.696 -0.7398 -0.0430 -1.1325
 7624SOL     OW30261   2.654   5.703   4.883  1.0964  0.4600 -0.3159
 7624SOL    HW230262   2.646   5.638   4.952 -0.9650  1.3988  0.4239
 7624SOL    HW330263   2.726   5.759   4.911  1.3214 -0.1094  0.2623
 7624SOL    MW430264   2.662   5.702   4.896  0.8541  0.5088 -0.1420
 7625SOL     OW30265   6.238   4.757   3.421 -0.1535 -0.2904 -0.0601
 7625SOL    HW230266   6.192   4.785   3.501  1.0957 -2.0681  1.3640
 7625SOL    HW330267   6.328   4.744   3.449  0.4105 -0.5322 -1.9002
 7625SOL    MW430268   6.244   4.759   3.435  0.0857 -0.5568 -0.1150
 7626SOL     OW30269   5.567   2.339   5.287  0.0197 -0.0532 -0.3903
 7626SOL    HW230270   5.578   2.404   5.218 -2.3506  0.3755 -0.4778
 7626SOL    HW330271   5.561   2.389   5.368 -0.9472 -0.1941 -0.3556
 7626SOL    MW430272   5.567   2.354   5.289 -0.4206 -0.0152 -0.3973
 7627SOL     OW30273   3.116   1.249   0.555  0.5067  0.0845 -0.1608
 7627SOL    HW230274   3.107   1.343   0.538  1.4407  0.0385 -1.0471
 7627SOL    HW330275   3.208   1.238   0.578  1.1282 -0.9655 -2.8168
 7627SOL    MW430276   3.127   1.260   0.556  0.7119 -0.0601 -0.6282
 7628SOL     OW30277   2.270   1.125   2.407  0.4042  0.3372 -0.2190
 7628SOL    HW230278   2.266   1.108   2.501 -0.2178 -0.0733 -0.3117
 7628SOL    HW330279   2.282   1.038   2.368  0.0586  0.4344 -0.5483
 7628SOL    MW430280   2.271   1.111   2.414  0.2765  0.2959 -0.2747
 7629SOL     OW30281   1.732   0.370   2.488  0.1437 -0.4684  0.4482
 7629SOL    HW230282   1.750   0.452   2.534 -3.1937 -0.0541  1.2452
 7629SOL    HW330283   1.720   0.305   2.557 -1.8843 -0.5215  0.1068
 7629SOL    MW430284   1.733   0.372   2.503 -0.5642 -0.4208  0.5083
 7630SOL     OW30285   5.704   2.914   0.139 -0.1532  0.6148  0.2941
 7630SOL    HW230286   5.647   2.990   0.154 -0.8989 -0.0547  0.9379
 7630SOL    HW330287   5.691   2.893   0.046 -0.7013  0.6784  0.3482
 7630SOL    MW430288   5.695   2.921   0.128 -0.3239  0.5348  0.3861
 7631SOL     OW30289   3.467   0.714   1.585 -0.1643  0.3229  0.0537
 7631SOL    HW230290   3.398   0.764   1.542 -0.2405 -0.7439 -1.1306
 7631SOL    HW330291   3.438   0.707   1.676 -1.5573  0.0272 -0.3805
 7631SOL    MW430292   3.454   0.719   1.591 -0.3581  0.1432 -0.1598
 7632SOL     OW30293   1.048   4.113   4.995 -0.2024 -0.3656  0.5624
 7632SOL    HW230294   1.126   4.080   5.041 -0.6537 -1.2251  0.7334
 7632SOL    HW330295   1.021   4.190   5.044  0.1574 -0.4444  0.8885
 7632SOL    MW430296   1.055   4.119   5.008 -0.2144 -0.4894  0.6280
 7633SOL     OW30297   5.623   5.070   2.948  0.1634 -0.3627 -0.0773
 7633SOL    HW230298   5.657   5.013   3.017 -0.4999 -1.7087 -0.8231
 7633SOL    HW330299   5.555   5.019   2.905  0.0199  0.7322 -1.2340
 7633SOL    MW430300   5.619   5.056   2.951  0.0569 -0.3959 -0.3283
 7634SOL     OW30301   3.088   3.426   1.715  0.4232 -0.2599 -0.1185
 7634SOL    HW230302   3.130   3.359   1.662 -1.0257 -0.8414 -0.5837
 7634SOL    HW330303   2.994   3.409   1.705  0.0462  1.4012  0.3231
 7634SOL    MW430304   3.081   3.415   1.707  0.1823 -0.1175 -0.1216
 7635SOL     OW30305   1.158   5.422   1.710 -0.2140 -0.4844 -0.0113
 7635SOL    HW230306   1.118   5.478   1.643  0.5547  1.5277  1.1145
 7635SOL    HW330307   1.085   5.389   1.761 -0.6437  1.2327  0.5705
 7635SOL    MW430308   1.143   5.425   1.708 -0.1693  0.0076  0.2140
 7636SOL     OW30309   1.833   5.806   1.311 -0.1759 -0.1454 -0.2009
 7636SOL    HW230310   1.806   5.749   1.384 -1.4938 -0.0928 -0.6247
 7636SOL    HW330311   1.927   5.818   1.324 -0.5536  0.8146  2.1730
 7636SOL    MW430312   1.842   5.800   1.322 -0.3996 -0.0118  0.0564
 7637SOL     OW30313   4.571   0.610   0.339  0.2119 -0.4338 -0.1169
 7637SOL    HW230314   4.539   0.700   0.325  0.1782 -0.6350 -1.5227
 7637SOL    HW330315   4.587   0.605   0.433 -0.4598  0.8238  0.0988
 7637SOL    MW430316   4.569   0.621   0.350  0.1188 -0.2944 -0.2739
 7638SOL     OW30317   0.068   6.293   1.569  0.2257  0.4011 -0.5726
 7638SOL    HW230318   0.057   6.324   1.479  1.5687  0.1163 -0.8473
 7638SOL    HW330319   0.111   6.365   1.615  0.0282  0.3402 -0.2832
 7638SOL    MW430320   0.072   6.306   1.564  0.3769  0.3555 -0.5707
 7639SOL     OW30321   2.672   4.733   3.656 -0.0520 -0.3594 -0.0612
 7639SOL    HW230322   2.659   4.771   3.569  0.6161 -2.7031 -1.2686
 7639SOL    HW330323   2.695   4.807   3.712  0.6778  1.0622 -2.1442
 7639SOL    MW430324   2.673   4.748   3.652  0.1324 -0.4811 -0.4953
 7640SOL     OW30325   2.771   0.784   1.617  0.4608 -0.6558 -0.0552
 7640SOL    HW230326   2.865   0.794   1.631  0.2313  2.3195 -0.0675
 7640SOL    HW330327   2.742   0.726   1.688  2.0646 -0.4767  0.7869
 7640SOL    MW430328   2.779   0.777   1.628  0.6421 -0.2396  0.0543
 7641SOL     OW30329   6.071   5.814   4.906 -0.8202  0.0208  0.0819
 7641SOL    HW230330   6.047   5.869   4.832 -0.4815 -2.4188 -1.9664
 7641SOL    HW330331   5.990   5.806   4.957 -1.6209  0.1595 -1.1229
 7641SOL    MW430332   6.057   5.820   4.903 -0.8812 -0.2828 -0.3473
 7642SOL     OW30333   0.068   4.904   0.647  0.2588  0.0171  0.1963
 7642SOL    HW230334   0.151   4.952   0.660 -0.5595  1.0719  1.8615
 7642SOL    HW330335   0.018   4.959   0.587  0.0470  0.3531  0.6691
 7642SOL    MW430336   0.073   4.917   0.641  0.1229  0.2006  0.4784
 7643SOL     OW30337   2.923   1.715   2.496  0.2830 -0.0186  0.3460
 7643SOL    HW230338   2.916   1.716   2.591 -0.9103  0.7925  0.2747
 7643SOL    HW330339   2.866   1.643   2.468  2.2723 -1.6790  0.3000
 7643SOL    MW430340   2.915   1.706   2.504  0.3880 -0.1307  0.3305
 7644SOL     OW30341   3.390   5.354   4.613 -0.2349  0.3169 -0.4139
 7644SOL    HW230342   3.434   5.284   4.565 -1.2950  0.1520 -1.1806
 7644SOL    HW330343   3.310   5.312   4.648  0.8907  0.1809  2.2656
 7644SOL    MW430344   3.385   5.339   4.612 -0.2263  0.2772 -0.1615
 7645SOL     OW30345   4.461   0.827   2.369  0.3852  0.1998 -0.3747
 7645SOL    HW230346   4.431   0.830   2.278 -0.3792  2.4822 -0.1029
 7645SOL    HW330347   4.410   0.756   2.409  3.4765 -3.6016 -2.5166
 7645SOL    MW430348   4.450   0.818   2.362  0.6922 -0.0006 -0.6214
 7646SOL     OW30349   2.437   4.879   2.723 -0.1686 -0.0168  0.1120
 7646SOL    HW230350   2.346   4.851   2.722 -0.7979  1.5874 -3.2434
 7646SOL    HW330351   2.437   4.963   2.676  2.9602  0.3457  0.5348
 7646SOL    MW430352   2.425   4.886   2.716  0.1612  0.2427 -0.2749
 7647SOL     OW30353   4.366   3.108   2.661 -0.8394 -0.5915  0.3223
 7647SOL    HW230354   4.355   3.196   2.624 -0.0372 -0.4538  0.3871
 7647SOL    HW330355   4.427   3.120   2.734  2.3337 -1.6870 -1.9005
 7647SOL    MW430356   4.373   3.121   2.666 -0.3149 -0.7179  0.0376
 7648SOL     OW30357   1.045   5.172   4.925  0.8815  0.3450 -0.2882
 7648SOL    HW230358   1.107   5.105   4.955  0.2053 -0.1462  0.0220
 7648SOL    HW330359   0.961   5.147   4.963 -0.3384 -1.0305 -3.5733
 7648SOL    MW430360   1.042   5.160   4.934  0.6313  0.0987 -0.6807
 7649SOL     OW30361   4.327  -0.040   3.397 -0.3193  0.7173 -0.0066
 7649SOL    HW230362   4.314   0.054   3.412 -0.1734  0.7572 -0.1227
 7649SOL    HW330363   4.246  -0.081   3.427 -0.5589  0.9231 -0.3735
 7649SOL    MW430364   4.315  -0.033   3.403 -0.3317  0.7497 -0.0703
 7650SOL     OW30365   4.035   2.331   1.038  0.9449  0.0125  0.0021
 7650SOL    HW230366   4.012   2.400   1.100  0.2348  0.2310 -0.4957
 7650SOL    HW330367   3.958   2.274   1.035  1.3647 -0.5697  0.0920
 7650SOL    MW430368   4.022   2.332   1.045  0.9066 -0.0355 -0.0517
 7651SOL     OW30369   2.905   5.985   4.258 -0.0246 -0.6418  0.1974
 7651SOL    HW230370   2.870   6.062   4.213  1.4966  0.4958  0.8781
 7651SOL    HW330371   2.863   5.987   4.344  0.9115  0.1504  0.6529
 7651SOL    MW430372   2.895   5.996   4.263  0.2996 -0.3872  0.3473
 7652SOL     OW30373   1.874   1.031   4.124  0.0151 -0.2497 -0.2006
 7652SOL    HW230374   1.790   1.059   4.160  0.9844  1.9013  0.6111
 7652SOL    HW330375   1.918   0.987   4.197  0.1726  0.0111 -0.1335
 7652SOL    MW430376   1.869   1.029   4.139  0.1638  0.0685 -0.0847
 7653SOL     OW30377   2.564   6.048   5.010  0.3396  0.2443 -0.3811
 7653SOL    HW230378   2.504   6.054   4.936  0.5220  0.1624 -0.5362
 7653SOL    HW330379   2.651   6.060   4.972  0.4426  0.0766 -0.2000
 7653SOL    MW430380   2.568   6.050   4.995  0.3772  0.2114 -0.3776
 7654SOL     OW30381   3.659   0.028   1.353  0.9110 -0.6160 -0.3174
 7654SOL    HW230382   3.577   0.017   1.401  0.4096  0.6434 -0.8565
 7654SOL    HW330383   3.661  -0.045   1.292 -0.3200 -0.1016 -1.0006
 7654SOL    MW430384   3.648   0.017   1.351  0.6824 -0.3819 -0.4787
 7655SOL     OW30385   3.873   5.435   2.836  0.6133  0.4506 -0.0575
 7655SOL    HW230386   3.839   5.462   2.750 -1.5908 -0.0410  0.5995
 7655SOL    HW330387   3.828   5.352   2.854 -1.0267  1.8073  2.6866
 7655SOL    MW430388   3.862   5.427   2.827  0.1061  0.5647  0.3912
 7656SOL     OW30389   4.198   2.086   4.499  0.0189  0.1580 -0.7392
 7656SOL    HW230390   4.161   2.133   4.424  0.6677 -0.7860 -1.6903
 7656SOL    HW330391   4.158   1.999   4.493 -0.7614  0.3986  0.6716
 7656SOL    MW430392   4.188   2.080   4.488  0.0016  0.0652 -0.6785
 7657SOL     OW30393   3.511   5.613   0.047 -0.7577  0.2580  0.6838
 7657SOL    HW230394   3.586   5.557   0.069  1.1309  1.6839 -1.6386
 7657SOL    HW330395   3.484   5.652   0.130  1.0341 -0.3547  1.6031
 7657SOL    MW430396   3.517   5.610   0.061 -0.2721  0.3653  0.4987
 7658SOL     OW30397   5.504   1.549   1.960  0.3926 -0.2493  0.2747
 7658SOL    HW230398   5.544   1.550   2.047  2.2606 -1.5914 -0.4942
 7658SOL    HW330399   5.555   1.485   1.911  0.9393  2.1214 -2.5253
 7658SOL    MW430400   5.516   1.541   1.965  0.7112 -0.1136 -0.1962
 7659SOL     OW30401   4.434   5.219   0.026 -0.0991  0.3415 -0.1564
 7659SOL    HW230402   4.355   5.226  -0.028 -0.0107 -0.6763 -0.4313
 7659SOL    HW330403   4.492   5.160  -0.023 -0.4116 -1.4265  1.5043
 7659SOL    MW430404   4.431   5.212   0.013 -0.1287 -0.0260  0.0264
 7660SOL     OW30405   1.052  -0.045   3.701 -0.2805 -0.1654 -0.3376
 7660SOL    HW230406   0.992   0.001   3.759  0.4976  0.1105  0.2733
 7660SOL    HW330407   1.010  -0.129   3.684 -0.2923 -0.4604  1.0428
 7660SOL    MW430408   1.039  -0.050   3.706 -0.1794 -0.1679 -0.0749
 7661SOL     OW30409   3.336   4.254   2.461  0.0298  0.3905 -0.1445
 7661SOL    HW230410   3.267   4.188   2.470 -0.0969  0.6480  0.8749
 7661SOL    HW330411   3.370   4.240   2.373  0.5267 -1.5355  0.3080
 7661SOL    MW430412   3.331   4.243   2.451  0.0786  0.1704  0.0497
 7662SOL     OW30413   0.654   0.708   5.446 -0.2210 -0.1209 -0.4050
 7662SOL    HW230414   0.613   0.731   5.362  1.8143  0.8944 -1.2141
 7662SOL    HW330415   0.713   0.636   5.425  0.3616  0.1888  0.1405
 7662SOL    MW430416   0.656   0.702   5.432  0.1244  0.0539 -0.4398
 7663SOL     OW30417   5.930   4.311   3.329 -0.2705  0.2418  0.3173
 7663SOL    HW230418   5.954   4.247   3.396  0.7259 -0.2722 -0.4981
 7663SOL    HW330419   5.994   4.381   3.339 -1.0657  0.8998  0.8918
 7663SOL    MW430420   5.942   4.312   3.339 -0.2440  0.2608  0.2855
 7664SOL     OW30421   5.261   3.986   2.413  0.1075 -0.1378 -0.2806
 7664SOL    HW230422   5.209   3.907   2.430 -0.2198  0.0461 -0.4052
 7664SOL    HW330423   5.349   3.954   2.394 -0.4516 -0.6061 -2.2227
 7664SOL    MW430424   5.266   3.971   2.413 -0.0094 -0.1754 -0.5533
 7665SOL     OW30425   0.655   5.956   0.056  0.0551  0.5052 -0.7724
 7665SOL    HW230426   0.570   5.982   0.090 -0.2862  0.4553 -1.5762
 7665SOL    HW330427   0.653   5.978  -0.037  1.6514  2.3579 -0.4332
 7665SOL    MW430428   0.644   5.962   0.048  0.2207  0.7430 -0.8337
 7666SOL     OW30429   4.302   4.809   5.883 -0.1310 -0.6903  0.1633
 7666SOL    HW230430   4.220   4.803   5.932 -0.9481 -0.2361 -1.1115
 7666SOL    HW330431   4.301   4.896   5.845  2.2605  0.4249  2.3201
 7666SOL    MW430432   4.291   4.820   5.885  0.0767 -0.4833  0.2797
 7667SOL     OW30433   1.410   4.744   5.902  0.6438  0.3973 -0.2025
 7667SOL    HW230434   1.433   4.785   5.819 -0.1979 -0.0055 -0.6494
 7667SOL    HW330435   1.494   4.729   5.945  1.4894 -2.6351 -2.5489
 7667SOL    MW430436   1.424   4.747   5.897  0.6443 -0.0559 -0.5710
 7668SOL     OW30437   3.965   0.268   3.171  0.3109  0.3353  0.7573
 7668SOL    HW230438   3.884   0.228   3.138 -0.0867 -0.2554  2.3711
 7668SOL    HW330439   3.963   0.251   3.265  2.0129  0.8797  0.9115
 7668SOL    MW430440   3.954   0.260   3.179  0.4830  0.3292  0.9905
 7669SOL     OW30441   1.111   0.814   1.548 -0.0018  0.4291  0.0086
 7669SOL    HW230442   1.077   0.875   1.613  0.1996 -0.9564  1.4936
 7669SOL    HW330443   1.037   0.795   1.490 -0.4452  0.9707  0.3942
 7669SOL    MW430444   1.097   0.819   1.549 -0.0337  0.3178  0.2554
 7670SOL     OW30445   1.269   1.530   3.656  1.1848 -0.3567 -0.6256
 7670SOL    HW230446   1.352   1.506   3.697  0.1867 -0.3416  1.5329
 7670SOL    HW330447   1.255   1.621   3.683 -0.2118 -0.8161  0.2517
 7670SOL    MW430448   1.278   1.539   3.665  0.8688 -0.4153 -0.2251
 7671SOL     OW30449   0.995   2.595   4.250  0.1313 -0.0732 -0.0569
 7671SOL    HW230450   1.024   2.517   4.202 -0.0384 -0.3272  0.2487
 7671SOL    HW330451   1.073   2.650   4.255  0.4427 -0.5378  0.3348
 7671SOL    MW430452   1.009   2.592   4.245  0.1500 -0.1680  0.0351
 7672SOL     OW30453   1.090   4.247   3.560 -0.3639 -0.0275  0.3374
 7672SOL    HW230454   1.057   4.336   3.574  0.6251  0.5472 -0.8100
 7672SOL    HW330455   1.151   4.255   3.487 -1.5176 -1.9606 -0.9168
 7672SOL    MW430456   1.094   4.260   3.553 -0.3856 -0.2068  0.0205
 7673SOL     OW30457   5.158   4.985   4.395 -0.1633 -0.8622  0.2915
 7673SOL    HW230458   5.238   4.935   4.381  0.6816  0.2845  0.7827
 7673SOL    HW330459   5.174   5.033   4.477 -0.1568  1.5792 -1.0304
 7673SOL    MW430460   5.170   4.985   4.404 -0.0510 -0.3888  0.1819
 7674SOL     OW30461   0.678   3.665   0.424  0.5121 -0.4349  0.5821
 7674SOL    HW230462   0.595   3.684   0.381 -0.1182 -1.3109  1.3626
 7674SOL    HW330463   0.723   3.605   0.364  0.5316 -0.0480  0.2100
 7674SOL    MW430464   0.673   3.659   0.411  0.4315 -0.4994  0.6359
 7675SOL     OW30465   5.185   4.997   1.281  0.5528 -0.0236 -0.2196
 7675SOL    HW230466   5.111   5.038   1.237 -0.0530 -1.0287 -0.1565
 7675SOL    HW330467   5.146   4.936   1.344  1.3878 -2.0277 -1.5331
 7675SOL    MW430468   5.170   4.994   1.283  0.5830 -0.4206 -0.3846
 7676SOL     OW30469   2.978   6.034   6.166 -0.0340 -0.2965  0.4799
 7676SOL    HW230470   3.021   6.117   6.148 -0.3565 -0.1814  0.2273
 7676SOL    HW330471   3.026   5.997   6.241  0.4620 -0.1459  0.2431
 7676SOL    MW430472   2.990   6.040   6.173 -0.0111 -0.2615  0.4153
 7677SOL     OW30473   5.431   5.708   6.373 -0.6434  0.0052 -0.0826
 7677SOL    HW230474   5.474   5.778   6.422  1.2922 -0.1492 -1.4695
 7677SOL    HW330475   5.430   5.633   6.434  0.1955  0.2953  0.3039
 7677SOL    MW430476   5.436   5.707   6.388 -0.2774  0.0231 -0.2146
 7678SOL     OW30477   1.502   5.567   3.993  0.1979  0.6634 -0.0560
 7678SOL    HW230478   1.499   5.523   4.077 -0.2287  1.2692  0.2543
 7678SOL    HW330479   1.486   5.498   3.929  0.5510  0.1954  0.3549
 7678SOL    MW430480   1.499   5.552   3.995  0.1882  0.6816  0.0392
 7679SOL     OW30481   1.417   3.093   4.082  0.0451 -0.1872 -0.3715
 7679SOL    HW230482   1.482   3.126   4.020  0.1997 -1.1265 -0.7387
 7679SOL    HW330483   1.403   3.002   4.055 -2.2414  0.2775 -0.9908
 7679SOL    MW430484   1.424   3.085   4.070 -0.2362 -0.2499 -0.5017
 7680SOL     OW30485   6.007   1.396   2.765 -0.5151  0.4218  0.2250
 7680SOL    HW230486   5.960   1.447   2.700 -0.4221 -3.2510 -3.0586
 7680SOL    HW330487   6.099   1.421   2.754 -0.7959  2.4046  1.6699
 7680SOL    MW430488   6.013   1.406   2.755 -0.5399  0.1988 -0.0176
 7681SOL     OW30489   0.325   6.234   6.366  0.0947 -0.0244  0.3553
 7681SOL    HW230490   0.325   6.330   6.367  0.4726  0.0083 -0.8057
 7681SOL    HW330491   0.360   6.211   6.280 -1.9455 -1.1910 -0.2301
 7681SOL    MW430492   0.329   6.244   6.355 -0.1246 -0.1740  0.1249
 7682SOL     OW30493   6.386   4.630   5.283 -0.1811 -0.3837 -0.4802
 7682SOL    HW230494   6.386   4.553   5.225  0.2869  0.6524 -1.9167
 7682SOL    HW330495   6.306   4.677   5.261 -0.4514 -0.4288  0.3755
 7682SOL    MW430496   6.376   4.626   5.273 -0.1550 -0.2530 -0.5568
 7683SOL     OW30497   1.089   3.796   3.403 -0.2137  0.4360  0.2539
 7683SOL    HW230498   1.109   3.715   3.451 -2.3233  0.2023  0.8236
 7683SOL    HW330499   1.163   3.807   3.344  0.1208 -1.9607  0.1149
 7683SOL    MW430500   1.101   3.787   3.402 -0.4479  0.0890  0.3107
 7684SOL     OW30501   1.123   1.912   1.258 -0.3644 -0.4655  0.5552
 7684SOL    HW230502   1.149   1.894   1.348  1.8107 -2.5127 -0.3867
 7684SOL    HW330503   1.187   1.865   1.204 -1.7227  0.4895 -2.0721
 7684SOL    MW430504   1.135   1.903   1.263 -0.2566 -0.6096  0.0843
 7685SOL     OW30505   6.431   0.059   3.094  0.0797 -0.0779  0.3989
 7685SOL    HW230506   6.368  -0.011   3.108 -0.7156  0.5660  0.1320
 7685SOL    HW330507   6.481   0.063   3.176 -1.3682  0.5235  1.3021
 7685SOL    MW430508   6.429   0.050   3.107 -0.2162  0.0864  0.4829
 7686SOL     OW30509   5.961   5.427   5.308 -0.7668  0.5400  0.2427
 7686SOL    HW230510   5.987   5.512   5.274  1.5311 -0.3662 -0.4940
 7686SOL    HW330511   5.924   5.380   5.233 -0.0728  0.1910  0.1038
 7686SOL    MW430512   5.959   5.432   5.294 -0.3720  0.3744  0.1272
 7687SOL     OW30513   1.998   6.078   1.500  0.3080  0.4025 -1.0031
 7687SOL    HW230514   1.945   6.051   1.574  1.5043 -0.4223 -0.4182
 7687SOL    HW330515   2.005   6.173   1.509 -1.7019  0.6350 -1.5574
 7687SOL    MW430516   1.992   6.087   1.511  0.2006  0.3243 -0.9990
 7688SOL     OW30517   5.177   3.618   4.839  0.4276 -0.1280 -0.3830
 7688SOL    HW230518   5.214   3.651   4.922  0.1023 -0.9536  0.1014
 7688SOL    HW330519   5.094   3.577   4.864 -1.5409  2.7935 -1.6084
 7688SOL    MW430520   5.171   3.617   4.854  0.1249  0.1485 -0.4808
 7689SOL     OW30521   4.687   0.609   0.669  0.6499 -0.1941 -0.1427
 7689SOL    HW230522   4.651   0.569   0.748 -1.0377  1.2391 -0.1288
 7689SOL    HW330523   4.709   0.534   0.612  1.5347 -1.2236  1.4764
 7689SOL    MW430524   4.685   0.594   0.672  0.5440 -0.1409  0.0728
 7690SOL     OW30525   3.147   3.456   6.096 -0.0000 -0.7154  0.4718
 7690SOL    HW230526   3.066   3.460   6.147  0.3900 -2.9718  1.3584
 7690SOL    HW330527   3.217   3.463   6.161  0.5055 -1.4022  0.0134
 7690SOL    MW430528   3.146   3.458   6.111  0.1181 -1.1037  0.5283
 7691SOL     OW30529   4.575   4.769   2.855 -0.3967 -0.2081  0.0571
 7691SOL    HW230530   4.597   4.724   2.936  0.6844 -0.3525 -0.3000
 7691SOL    HW330531   4.592   4.704   2.786 -0.2479  0.2684 -0.3602
 7691SOL    MW430532   4.580   4.754   2.856 -0.2344 -0.1643 -0.0450
 7692SOL     OW30533   3.062   1.507   5.591  0.0868 -1.0402 -0.4096
 7692SOL    HW230534   3.150   1.521   5.554 -0.4456 -1.1242 -1.7825
 7692SOL    HW330535   3.063   1.554   5.674  0.6229  1.1952 -1.6092
 7692SOL    MW430536   3.074   1.515   5.597  0.0873 -0.7563 -0.7490
 7693SOL     OW30537   4.501   4.954   1.187 -0.0248 -0.4335 -0.2391
 7693SOL    HW230538   4.414   4.960   1.147  0.4438  2.3625 -1.0478
 7693SOL    HW330539   4.491   4.995   1.273  0.1733 -1.5684  0.3426
 7693SOL    MW430540   4.488   4.960   1.193  0.0631 -0.2144 -0.2691
 7694SOL     OW30541   5.636   0.315   3.686  0.7157 -0.2115 -0.2248
 7694SOL    HW230542   5.654   0.272   3.603  0.4594  0.5005 -0.6656
 7694SOL    HW330543   5.663   0.406   3.672  0.1358  0.0449  0.2743
 7694SOL    MW430544   5.642   0.322   3.673  0.6054 -0.0837 -0.2171
 7695SOL     OW30545   1.423   5.736   5.612 -0.1386  0.0721 -0.4621
 7695SOL    HW230546   1.424   5.683   5.692 -0.1827  0.0930 -0.4475
 7695SOL    HW330547   1.337   5.719   5.574 -1.2868  2.2430  0.9697
 7695SOL    MW430548   1.412   5.727   5.617 -0.2959  0.3613 -0.2713
 7696SOL     OW30549   2.191   0.619   3.502 -0.0669 -0.9041 -0.3264
 7696SOL    HW230550   2.164   0.539   3.547  1.2082 -1.1762 -0.0014
 7696SOL    HW330551   2.171   0.689   3.564 -1.1630 -0.9509 -0.6012
 7696SOL    MW430552   2.185   0.617   3.516 -0.0433 -0.9462 -0.3197
 7697SOL     OW30553   4.143   5.873   0.606  0.6679  0.0098  0.4429
 7697SOL    HW230554   4.185   5.808   0.663  0.2637 -0.9777 -0.3568
 7697SOL    HW330555   4.059   5.891   0.648  0.8245  0.1023  0.7202
 7697SOL    MW430556   4.138   5.867   0.619  0.6353 -0.1083  0.3740
 7698SOL     OW30557   5.589   2.026   2.806  0.3002 -0.2020  0.0950
 7698SOL    HW230558   5.652   1.973   2.758 -0.9286 -0.0920 -1.7251
 7698SOL    HW330559   5.514   1.968   2.820  1.0217 -0.5878  2.9419
 7698SOL    MW430560   5.587   2.011   2.802  0.2333 -0.2384  0.2305
 7699SOL     OW30561   1.393   6.049   6.416  0.2667 -0.6439 -0.5300
 7699SOL    HW230562   1.375   6.008   6.331 -1.7164 -1.6210  0.2977
 7699SOL    HW330563   1.433   5.979   6.468  3.5685  0.5445 -1.2367
 7699SOL    MW430564   1.396   6.035   6.412  0.4407 -0.6161 -0.5140
 7700SOL     OW30565   3.240   0.225   1.806 -0.2631  0.3145  0.3217
 7700SOL    HW230566   3.305   0.295   1.804  0.6810 -0.3960  2.6256
 7700SOL    HW330567   3.179   0.251   1.874  0.2665 -1.1813  1.4304
 7700SOL    MW430568   3.241   0.237   1.815 -0.0686  0.0234  0.7719
 7701SOL     OW30569   1.071   3.263   1.410 -0.2254 -0.1531 -0.1327
 7701SOL    HW230570   1.104   3.350   1.387 -0.4759  0.2305  0.8974
 7701SOL    HW330571   1.129   3.202   1.363 -0.8327  0.5595 -1.9144
 7701SOL    MW430572   1.083   3.266   1.401 -0.3386 -0.0085 -0.2319
 7702SOL     OW30573   3.395   4.768   5.153 -0.5673 -0.6665  0.2887
 7702SOL    HW230574   3.406   4.789   5.246 -0.3727 -0.2663  0.1778
 7702SOL    HW330575   3.361   4.678   5.152 -1.7626 -0.2410  0.7924
 7702SOL    MW430576   3.392   4.759   5.165 -0.6993 -0.5576  0.3405
 7703SOL     OW30577   3.497   0.403   6.107  0.7432 -0.3120 -0.1741
 7703SOL    HW230578   3.577   0.406   6.160  1.6959  0.8626 -1.5897
 7703SOL    HW330579   3.518   0.343   6.035  0.8272  0.9167 -1.2150
 7703SOL    MW430580   3.511   0.395   6.104  0.8800  0.0051 -0.4982
 7704SOL     OW30581   3.237   0.818   5.446 -0.2662  0.2370  0.2234
 7704SOL    HW230582   3.218   0.726   5.462 -0.8464  0.3477  0.1853
 7704SOL    HW330583   3.170   0.866   5.496  0.8199  0.6731  1.3235
 7704SOL    MW430584   3.226   0.812   5.455 -0.1995  0.3092  0.3635
 7705SOL     OW30585   0.630   1.855   3.847  0.1788  0.2746 -0.5267
 7705SOL    HW230586   0.538   1.871   3.826 -0.1198 -0.5887  0.0627
 7705SOL    HW330587   0.636   1.761   3.860  1.0771  0.3616 -0.2240
 7705SOL    MW430588   0.619   1.845   3.846  0.2579  0.1722 -0.4090
 7706SOL     OW30589   4.874   0.268   2.790  0.1584  0.3468  0.4932
 7706SOL    HW230590   4.796   0.224   2.825 -0.8505  2.2049  0.7575
 7706SOL    HW330591   4.891   0.339   2.853  1.4465  0.6108 -0.1180
 7706SOL    MW430592   4.866   0.272   2.803  0.1952  0.6268  0.4475
 7707SOL     OW30593   1.592   4.063   0.586 -0.4228 -0.0847  0.0855
 7707SOL    HW230594   1.609   3.980   0.542 -0.5719 -0.8236  1.3696
 7707SOL    HW330595   1.561   4.038   0.673  0.9356  1.3197  1.0254
 7707SOL    MW430596   1.590   4.049   0.592 -0.2633  0.0031  0.3789
 7708SOL     OW30597   3.093   5.095   4.915  0.4317 -0.2246  0.0776
 7708SOL    HW230598   3.050   5.010   4.924  1.2531 -0.4913  1.7656
 7708SOL    HW330599   3.179   5.084   4.955  0.4771  1.4686  0.5458
 7708SOL    MW430600   3.099   5.083   4.921  0.5460 -0.0364  0.3621
 7709SOL     OW30601   0.493   3.780   5.137  0.8402 -0.1987 -0.2972
 7709SOL    HW230602   0.459   3.701   5.180  1.1053 -0.3052 -0.2807
 7709SOL    HW330603   0.450   3.780   5.051 -0.2354  0.3947  0.2149
 7709SOL    MW430604   0.483   3.769   5.132  0.7333 -0.1345 -0.2275
 7710SOL     OW30605   5.242   3.490   4.210 -0.4096  0.3636 -0.1731
 7710SOL    HW230606   5.262   3.583   4.221 -1.2091  0.3676  1.7019
 7710SOL    HW330607   5.147   3.487   4.199 -0.3788 -0.2259 -0.3441
 7710SOL    MW430608   5.232   3.502   4.210 -0.5110  0.2864  0.0517
 7711SOL     OW30609   2.449   5.955   5.252  0.2004  0.3543  0.1114
 7711SOL    HW230610   2.489   5.997   5.176  0.4586 -1.8079 -1.0409
 7711SOL    HW330611   2.494   5.993   5.328  1.6574  0.8233 -0.9484
 7711SOL    MW430612   2.460   5.965   5.252  0.4267  0.1309 -0.1805
 7712SOL     OW30613   2.724   0.693   1.064  0.0054  0.4971  0.0824
 7712SOL    HW230614   2.688   0.605   1.052 -0.4713  0.7112 -0.0767
 7712SOL    HW330615   2.778   0.686   1.142 -0.1134  0.0858  0.1297
 7712SOL    MW430616   2.727   0.680   1.073 -0.0731  0.4711  0.0677
 7713SOL     OW30617   1.814   1.949   1.547 -0.1085 -0.2186 -0.6909
 7713SOL    HW230618   1.840   2.041   1.547  1.6120 -0.6448  0.9681
 7713SOL    HW330619   1.804   1.926   1.639 -0.6390 -1.6867 -1.0727
 7713SOL    MW430620   1.816   1.958   1.559  0.0485 -0.4685 -0.5224
 7714SOL     OW30621   5.561   2.994   4.999  0.6172 -0.0057 -0.4654
 7714SOL    HW230622   5.568   3.013   4.906  1.1300  1.9303 -0.0882
 7714SOL    HW330623   5.511   3.067   5.035 -1.2229 -1.6534  0.5406
 7714SOL    MW430624   5.555   3.006   4.992  0.4421  0.0324 -0.2829
 7715SOL     OW30625   2.610   4.666   0.342  0.3927 -0.1258  0.1061
 7715SOL    HW230626   2.570   4.732   0.399 -0.3136 -0.8043  0.4215
 7715SOL    HW330627   2.689   4.638   0.389  1.1639  1.0693 -0.4211
 7715SOL    MW430628   2.615   4.671   0.356  0.4013 -0.0576  0.0782
 7716SOL     OW30629   1.949   0.032   1.860  0.0788  0.1965 -0.1435
 7716SOL    HW230630   1.951   0.128   1.863  1.0682  0.1946 -0.4532
 7716SOL    HW330631   2.041   0.005   1.869 -0.2673 -0.7594  0.7740
 7716SOL    MW430632   1.961   0.041   1.862  0.1637  0.0701 -0.0633
 7717SOL     OW30633   3.870   3.973   3.339  0.1215  0.0664 -0.3774
 7717SOL    HW230634   3.962   3.999   3.341  0.7837 -2.0348 -0.8119
 7717SOL    HW330635   3.853   3.938   3.427 -0.8564  2.1622  0.3229
 7717SOL    MW430636   3.880   3.972   3.351  0.0798  0.0657 -0.3423
 7718SOL     OW30637   1.152   2.847   4.233  0.0066  0.8216  0.1869
 7718SOL    HW230638   1.144   2.923   4.291  0.2585  1.3899 -0.5145
 7718SOL    HW330639   1.246   2.831   4.229  0.0522  1.2643 -0.6708
 7718SOL    MW430640   1.163   2.855   4.240  0.0458  0.9550 -0.0188
 7719SOL     OW30641   2.985   2.987   3.817  0.3583  0.2122  0.1589
 7719SOL    HW230642   2.958   3.074   3.844 -1.1255  0.0068 -0.5229
 7719SOL    HW330643   3.019   2.999   3.728 -0.3527  0.0246 -0.1419
 7719SOL    MW430644   2.986   3.000   3.808  0.0687  0.1604  0.0293
 7720SOL     OW30645   5.878   4.424   0.471  0.4850  0.2239  0.0241
 7720SOL    HW230646   5.839   4.391   0.390 -0.1875  0.1850  0.3568
 7720SOL    HW330647   5.909   4.345   0.516  1.9980  0.3382 -0.7535
 7720SOL    MW430648   5.877   4.409   0.466  0.5959  0.2339 -0.0346
 7721SOL     OW30649   4.787   3.033   4.835  0.2534  0.1654 -0.5530
 7721SOL    HW230650   4.827   2.978   4.767 -1.2416 -0.2867 -1.1039
 7721SOL    HW330651   4.856   3.094   4.860  0.8340  0.4002 -2.5517
 7721SOL    MW430652   4.801   3.034   4.829  0.1327  0.1367 -0.8894
 7722SOL     OW30653   4.192   1.722   2.426  0.3032  0.1408 -0.2834
 7722SOL    HW230654   4.281   1.754   2.409  0.6167  0.2244  1.3789
 7722SOL    HW330655   4.192   1.632   2.393  0.0400  1.0541 -3.0916
 7722SOL    MW430656   4.204   1.714   2.419  0.3098  0.2723 -0.4346
 7723SOL     OW30657   4.131   5.017   0.271 -0.1693  1.0605 -0.9727
 7723SOL    HW230658   4.220   5.041   0.295  0.5697 -1.5654 -0.8435
 7723SOL    HW330659   4.141   4.953   0.201 -1.9124  0.2029 -0.4932
 7723SOL    MW430660   4.144   5.012   0.265 -0.3018  0.6009 -0.8923
 7724SOL     OW30661   4.959   3.397   5.767  0.3603 -0.2318 -0.1647
 7724SOL    HW230662   4.864   3.406   5.778  0.6912  1.2025  2.0613
 7724SOL    HW330663   4.994   3.484   5.786  2.1411 -0.6509 -1.2456
 7724SOL    MW430664   4.951   3.410   5.771  0.6389 -0.0978 -0.0136
 7725SOL     OW30665   3.862   0.411   6.031  0.5300 -0.4752 -0.4929
 7725SOL    HW230666   3.829   0.474   5.966  0.0641 -0.2401 -0.0366
 7725SOL    HW330667   3.852   0.457   6.115  0.7340 -0.9369 -0.2185
 7725SOL    MW430668   3.856   0.426   6.033  0.4954 -0.5051 -0.3965
 7726SOL     OW30669   0.929   3.369   4.931 -0.1030 -0.9270  0.0723
 7726SOL    HW230670   0.970   3.409   5.008  0.3313 -0.2734 -0.4885
 7726SOL    HW330671   0.919   3.276   4.955 -0.1669 -0.6967  0.9868
 7726SOL    MW430672   0.933   3.362   4.944 -0.0541 -0.8104  0.1189
 7727SOL     OW30673   1.838   0.596   2.603 -0.0314 -0.3519 -0.7359
 7727SOL    HW230674   1.876   0.619   2.688  0.8136 -1.9150 -0.6564
 7727SOL    HW330675   1.760   0.651   2.597  0.2424  0.2685  0.7570
 7727SOL    MW430676   1.833   0.606   2.614  0.1162 -0.4763 -0.5284
 7728SOL     OW30677   0.222   3.775   0.727 -0.1974  0.0539  0.4133
 7728SOL    HW230678   0.278   3.831   0.674  2.4897 -2.8989 -0.1717
 7728SOL    HW330679   0.255   3.786   0.816 -0.1744 -0.0272  0.4147
 7728SOL    MW430680   0.234   3.784   0.732  0.1602 -0.3464  0.3363
 7729SOL     OW30681   4.107   4.512   5.440 -0.4037 -0.1532 -0.1205
 7729SOL    HW230682   4.152   4.571   5.501  0.0709  0.1630 -0.7692
 7729SOL    HW330683   4.171   4.443   5.423  0.4108  1.0000 -2.1075
 7729SOL    MW430684   4.122   4.511   5.446 -0.2336  0.0407 -0.4682
 7730SOL     OW30685   5.579   5.125   4.509 -0.5527  0.1251  0.0179
 7730SOL    HW230686   5.527   5.159   4.436 -1.6495 -0.6918  0.3910
 7730SOL    HW330687   5.565   5.031   4.506 -1.2566  0.1434  1.7548
 7730SOL    MW430688   5.570   5.117   4.499 -0.7902  0.0198  0.2963
 7731SOL     OW30689   3.996   2.429   5.597  0.2151  0.0808 -0.2446
 7731SOL    HW230690   3.986   2.400   5.506 -1.6904 -1.0881  0.2730
 7731SOL    HW330691   4.020   2.521   5.590  0.5537 -0.0965 -1.9355
 7731SOL    MW430692   3.998   2.437   5.584  0.0083 -0.0968 -0.3994
 7732SOL     OW30693   2.702   4.832   5.283  0.0497  0.2533 -0.2649
 7732SOL    HW230694   2.732   4.835   5.373 -1.1979  0.5878  0.1629
 7732SOL    HW330695   2.708   4.922   5.252  1.0115  0.0434 -0.7098
 7732SOL    MW430696   2.707   4.844   5.291  0.0120  0.2698 -0.2671
 7733SOL     OW30697   1.750   1.860   2.355 -0.7302 -0.0792 -0.4288
 7733SOL    HW230698   1.823   1.895   2.407 -1.7861  0.8319  0.4935
 7733SOL    HW330699   1.766   1.892   2.267 -0.2583  0.5206 -0.1315
 7733SOL    MW430700   1.762   1.869   2.350 -0.8072  0.1201 -0.2679
 7734SOL     OW30701   4.072   6.021   0.876 -0.5144  0.3519  0.1607
 7734SOL    HW230702   4.041   6.082   0.944  0.5678  0.9662  0.1114
 7734SOL    HW330703   4.164   6.044   0.863 -0.7843  0.4541 -1.7512
 7734SOL    MW430704   4.080   6.032   0.883 -0.4072  0.4465 -0.0981
 7735SOL     OW30705   3.126   4.301   3.792  0.0885 -0.0072 -0.2995
 7735SOL    HW230706   3.216   4.318   3.821  0.1193 -0.8069  0.0765
 7735SOL    HW330707   3.072   4.352   3.852  0.2645  0.1688 -0.2865
 7735SOL    MW430708   3.131   4.310   3.804  0.1158 -0.0895 -0.2482
 7736SOL     OW30709   1.592   2.347   4.822  0.0989 -0.2204  0.0391
 7736SOL    HW230710   1.664   2.343   4.760  0.6023 -0.6982  0.6368
 7736SOL    HW330711   1.526   2.401   4.779  1.6759  2.1010  0.3711
 7736SOL    MW430712   1.593   2.353   4.808  0.3734  0.0229  0.1618
 7737SOL     OW30713   6.030   5.154   0.317  0.2069  0.0734  0.5725
 7737SOL    HW230714   6.059   5.245   0.316  1.2026 -0.2241  1.2052
 7737SOL    HW330715   6.086   5.110   0.253 -1.0516  0.1095 -0.6039
 7737SOL    MW430716   6.041   5.160   0.309  0.1722  0.0389  0.5008
 7738SOL     OW30717   1.340   5.543   4.888 -0.1132 -0.1652 -0.2141
 7738SOL    HW230718   1.389   5.462   4.879  2.3992  0.9456  1.9924
 7738SOL    HW330719   1.292   5.532   4.970 -1.1535 -0.0573 -0.7955
 7738SOL    MW430720   1.340   5.531   4.898  0.0810 -0.0044  0.0003
 7739SOL     OW30721   2.171  -0.016   5.140 -0.3015 -0.2505 -0.3849
 7739SOL    HW230722   2.135   0.063   5.101 -0.7585 -0.4292 -0.3319
 7739SOL    HW330723   2.264  -0.013   5.120 -0.3717  0.1462 -0.6488
 7739SOL    MW430724   2.179  -0.005   5.132 -0.3710 -0.2217 -0.4128
 7740SOL     OW30725   3.988   3.943   0.653 -0.0286  0.4102 -0.2268
 7740SOL    HW230726   3.895   3.934   0.633  0.5179 -0.7645 -2.5120
 7740SOL    HW330727   4.013   4.026   0.611  0.0669  0.5141  0.0323
 7740SOL    MW430728   3.979   3.953   0.645  0.0561  0.2689 -0.4941
 7741SOL     OW30729   3.116   5.447   2.515  0.2684 -0.0700  0.0820
 7741SOL    HW230730   3.071   5.408   2.590 -0.2108 -0.4387 -0.3941
 7741SOL    HW330731   3.151   5.530   2.548  1.3072 -0.8904  1.1142
 7741SOL    MW430732   3.115   5.453   2.529  0.3423 -0.2269  0.1554
 7742SOL     OW30733   2.285   2.683   5.519  0.1937 -0.9269  0.1839
 7742SOL    HW230734   2.244   2.720   5.441 -0.7417 -0.9469  0.6489
 7742SOL    HW330735   2.264   2.746   5.589  0.4121 -1.2625  0.5542
 7742SOL    MW430736   2.277   2.696   5.518  0.0991 -0.9738  0.2941
 7743SOL     OW30737   1.239   3.971   0.724  0.1036 -0.4181 -0.3910
 7743SOL    HW230738   1.160   3.921   0.702  0.5978 -1.6921  0.6585
 7743SOL    HW330739   1.252   4.028   0.648 -1.8404 -0.1372 -0.5731
 7743SOL    MW430740   1.230   3.972   0.711 -0.0877 -0.5491 -0.2765
 7744SOL     OW30741   1.413   2.632   2.141  0.3689  0.1862  0.1883
 7744SOL    HW230742   1.341   2.691   2.163  0.0447 -0.5450  1.1232
 7744SOL    HW330743   1.482   2.691   2.109  0.3414  1.1794  1.8232
 7744SOL    MW430744   1.413   2.648   2.139  0.3225  0.2208  0.5274
 7745SOL     OW30745   5.539   2.575   4.304 -0.3333  0.1191 -0.7445
 7745SOL    HW230746   5.490   2.632   4.363  0.2890 -0.1971  0.0837
 7745SOL    HW330747   5.630   2.582   4.332 -0.3395 -1.9740 -0.0120
 7745SOL    MW430748   5.544   2.583   4.315 -0.2520 -0.1988 -0.5386
 7746SOL     OW30749   5.450   3.255   4.640 -0.2045  1.0962 -0.5828
 7746SOL    HW230750   5.421   3.286   4.554 -1.7857  0.5671 -0.2672
 7746SOL    HW330751   5.393   3.300   4.703 -0.2642  0.1478  0.0743
 7746SOL    MW430752   5.438   3.265   4.637 -0.4210  0.9013 -0.4545
 7747SOL     OW30753   4.761   5.022   2.016 -0.0941  0.3660  0.0528
 7747SOL    HW230754   4.835   5.027   2.077  0.3325 -0.6185 -0.3731
 7747SOL    HW330755   4.685   5.040   2.071  0.0107 -2.8044  1.4588
 7747SOL    MW430756   4.761   5.025   2.031 -0.0240 -0.1822  0.1821
 7748SOL     OW30757   1.071   3.662   3.798  0.2607 -0.4095 -0.2666
 7748SOL    HW230758   1.015   3.740   3.797 -0.3609 -0.8436 -0.1653
 7748SOL    HW330759   1.100   3.655   3.889  1.4953  0.5067 -0.5572
 7748SOL    MW430760   1.067   3.672   3.810  0.3416 -0.3459 -0.2916
 7749SOL     OW30761   2.377   0.930   5.436 -0.3347  0.2935 -0.8634
 7749SOL    HW230762   2.417   0.950   5.351 -1.0505  0.0454 -1.2641
 7749SOL    HW330763   2.313   1.000   5.450 -0.2125  0.3413 -0.5125
 7749SOL    MW430764   2.374   0.942   5.427 -0.4130  0.2670 -0.8700
 7750SOL     OW30765   3.595   4.111   2.007 -0.3268 -0.0062 -0.2716
 7750SOL    HW230766   3.549   4.100   2.091 -2.9600  1.0461 -1.4447
 7750SOL    HW330767   3.611   4.022   1.977 -2.3654 -0.4959 -0.1015
 7750SOL    MW430768   3.591   4.098   2.014 -0.9432  0.0680 -0.4039
 7751SOL     OW30769   1.206   3.825   4.479  0.0929 -0.7963 -0.7264
 7751SOL    HW230770   1.229   3.885   4.550 -3.2874 -1.4461  1.0920
 7751SOL    HW330771   1.290   3.786   4.453  1.9302  2.1194  0.3374
 7751SOL    MW430772   1.220   3.827   4.485 -0.1107 -0.4973 -0.3461
 7752SOL     OW30773   6.199   3.324   1.516  0.4994  0.1570 -0.0917
 7752SOL    HW230774   6.104   3.318   1.514  0.4771  0.6057 -2.2578
 7752SOL    HW330775   6.219   3.414   1.491  1.4990  0.2929  1.0828
 7752SOL    MW430776   6.189   3.335   1.513  0.6284  0.2341 -0.2225
 7753SOL     OW30777   4.967   0.243   6.303  0.3010 -0.4656 -0.4064
 7753SOL    HW230778   4.987   0.327   6.263  0.5998 -0.4344 -0.1942
 7753SOL    HW330779   5.016   0.179   6.252  1.5713 -0.3086  0.5816
 7753SOL    MW430780   4.976   0.245   6.291  0.5080 -0.4408 -0.2481
 7754SOL     OW30781   5.995   2.269   2.179  0.0889 -0.2458  0.5306
 7754SOL    HW230782   6.010   2.235   2.267  0.3639 -2.3500 -0.2894
 7754SOL    HW330783   5.934   2.342   2.192 -0.4537 -0.9686  2.3876
 7754SOL    MW430784   5.989   2.274   2.193  0.0536 -0.6188  0.6674
 7755SOL     OW30785   1.077   3.426   0.426 -0.2934 -0.3096  0.0545
 7755SOL    HW230786   1.132   3.427   0.348 -1.2336  2.0327 -0.6529
 7755SOL    HW330787   0.988   3.425   0.393 -0.7274 -1.7482  1.1622
 7755SOL    MW430788   1.073   3.426   0.412 -0.4747 -0.1904  0.1073
 7756SOL     OW30789   4.369   4.748   2.669  0.1097  0.2042 -0.2769
 7756SOL    HW230790   4.282   4.714   2.690  0.9987 -1.5862  0.6984
 7756SOL    HW330791   4.419   4.740   2.750  1.9590 -1.3320 -1.4795
 7756SOL    MW430792   4.364   4.743   2.682  0.4710 -0.2347 -0.3069
 7757SOL     OW30793   0.748   0.514   5.939 -0.8985 -0.1077  0.2800
 7757SOL    HW230794   0.698   0.530   5.859 -1.5604  0.3101  0.7582
 7757SOL    HW330795   0.714   0.431   5.972 -0.3435 -0.4803 -0.0757
 7757SOL    MW430796   0.737   0.505   5.933 -0.9126 -0.1017  0.2962
 7758SOL     OW30797   4.512   2.833   0.509  0.9369 -0.1555  0.2133
 7758SOL    HW230798   4.435   2.875   0.546 -0.4684 -3.5148  1.4436
 7758SOL    HW330799   4.578   2.837   0.578  1.5404  1.5362 -0.3752
 7758SOL    MW430800   4.511   2.839   0.523  0.8311 -0.3755  0.2980
 7759SOL     OW30801   0.332   3.122   1.963 -0.2124 -0.2992 -0.3113
 7759SOL    HW230802   0.288   3.182   2.023 -1.2543 -1.1471 -0.1907
 7759SOL    HW330803   0.332   3.038   2.009  1.9294 -0.2543 -0.1495
 7759SOL    MW430804   0.326   3.119   1.977 -0.0673 -0.4051 -0.2740
 7760SOL     OW30805   0.864   6.148   0.131  0.0092 -0.3113 -0.2447
 7760SOL    HW230806   0.814   6.075   0.095  1.1868 -1.4210  0.2934
 7760SOL    HW330807   0.955   6.126   0.111  0.4008  0.8640  0.2005
 7760SOL    MW430808   0.869   6.135   0.124  0.2162 -0.3027 -0.1150
 7761SOL     OW30809   5.350   3.960   1.687  0.3023  0.1725  0.0400
 7761SOL    HW230810   5.350   3.868   1.661 -0.2659  0.1354  0.1502
 7761SOL    HW330811   5.300   3.961   1.769  1.4230  0.3928  0.7400
 7761SOL    MW430812   5.343   3.948   1.695  0.3752  0.1967  0.1469
 7762SOL     OW30813   0.021   4.252   6.319  0.0183  0.0121 -0.7298
 7762SOL    HW230814   0.082   4.180   6.338  0.7930  0.9278  0.3879
 7762SOL    HW330815   0.007   4.294   6.403  0.0062  1.4947 -1.4400
 7762SOL    MW430816   0.028   4.248   6.333  0.1189  0.3285 -0.6760
 7763SOL     OW30817   4.051   3.166   0.855  0.1978 -0.0411  0.4852
 7763SOL    HW230818   4.124   3.215   0.818 -1.2419  1.3202 -0.6963
 7763SOL    HW330819   4.048   3.192   0.947  0.8975  0.2469  0.4356
 7763SOL    MW430820   4.060   3.176   0.862  0.1002  0.1765  0.3228
 7764SOL     OW30821   3.108   4.729   2.647 -0.3549  0.5117  0.1728
 7764SOL    HW230822   3.153   4.749   2.729 -0.2225  0.4685  0.1109
 7764SOL    HW330823   3.015   4.733   2.669 -0.3358  1.2658  0.1470
 7764SOL    MW430824   3.102   4.732   2.661 -0.3349  0.6055  0.1612
 7765SOL     OW30825   2.002   4.231   2.072  0.3627  0.1070  0.1291
 7765SOL    HW230826   2.061   4.156   2.084 -0.0136 -0.0318  1.2158
 7765SOL    HW330827   2.060   4.303   2.047  0.6624 -0.6595 -1.5103
 7765SOL    MW430828   2.018   4.230   2.070  0.3526 -0.0125  0.0562
 7766SOL     OW30829   5.758   6.145   5.546  0.2170  0.2419  0.0594
 7766SOL    HW230830   5.764   6.200   5.625  0.8381  1.5190 -0.8475
 7766SOL    HW330831   5.837   6.167   5.496 -2.1032  2.6560 -2.9107
 7766SOL    MW430832   5.769   6.155   5.550 -0.0071  0.7289 -0.4521
 7767SOL     OW30833   3.608   5.389   6.128  0.2226 -0.3297 -0.0297
 7767SOL    HW230834   3.641   5.317   6.182  0.3884  1.3589  2.2653
 7767SOL    HW330835   3.673   5.459   6.138 -1.0564  0.9622 -0.2933
 7767SOL    MW430836   3.621   5.389   6.136  0.0757  0.0635  0.2383
 7768SOL     OW30837   5.204   5.161   0.734  0.0082  0.2719 -0.6890
 7768SOL    HW230838   5.129   5.199   0.781 -0.5522  0.9037 -2.0258
 7768SOL    HW330839   5.264   5.234   0.723  1.4330 -0.4947  1.4247
 7768SOL    MW430840   5.202   5.176   0.739  0.1222  0.2541 -0.5865
 7769SOL     OW30841   0.911   5.469   0.879 -0.1268 -0.4630 -0.1506
 7769SOL    HW230842   1.005   5.476   0.861 -0.2663  0.1102 -0.7075
 7769SOL    HW330843   0.872   5.537   0.825 -0.5351  1.8060  2.7151
 7769SOL    MW430844   0.918   5.479   0.870 -0.1990 -0.0880  0.1540
 7770SOL     OW30845   3.750   3.740   1.413  0.3180  0.0412 -0.0930
 7770SOL    HW230846   3.740   3.706   1.502  0.5596  2.6034  0.9950
 7770SOL    HW330847   3.686   3.811   1.407  1.6860  1.2383 -1.2473
 7770SOL    MW430848   3.740   3.745   1.424  0.5304  0.5372 -0.1017
 7771SOL     OW30849   2.316   3.276   1.118  0.6812 -0.8905 -0.1800
 7771SOL    HW230850   2.260   3.350   1.094  1.2925 -0.7065 -1.1147
 7771SOL    HW330851   2.405   3.311   1.113  0.9303 -1.4306  0.3510
 7771SOL    MW430852   2.320   3.290   1.114  0.7947 -0.9375 -0.2333
 7772SOL     OW30853   2.687   2.308   4.356  0.0720 -0.1650 -0.4363
 7772SOL    HW230854   2.689   2.212   4.354  1.1585 -0.1719  0.2963
 7772SOL    HW330855   2.682   2.333   4.263 -0.8265 -0.9184 -0.6139
 7772SOL    MW430856   2.687   2.298   4.343  0.0968 -0.2653 -0.3631
 7773SOL     OW30857   3.061   1.055   0.357 -0.2763 -0.3266  0.5527
 7773SOL    HW230858   3.115   0.980   0.383  1.5516  1.2792  1.7199
 7773SOL    HW330859   3.067   1.115   0.431 -1.7279  0.9708 -0.3226
 7773SOL    MW430860   3.069   1.053   0.370 -0.2267  0.0564  0.5912
 7774SOL     OW30861   6.322   2.582   0.116 -0.8033 -0.0433  0.2935
 7774SOL    HW230862   6.377   2.504   0.123 -1.2880 -0.3643  0.6134
 7774SOL    HW330863   6.331   2.625   0.201 -0.5544  0.2403  0.1251
 7774SOL    MW430864   6.331   2.577   0.128 -0.8344 -0.0482  0.3135
 7775SOL     OW30865   2.601   3.342   5.307 -0.7215  0.4754  0.0042
 7775SOL    HW230866   2.602   3.345   5.403  1.2716  0.7356  0.0154
 7775SOL    HW330867   2.514   3.377   5.283 -0.9001  1.2882  1.6892
 7775SOL    MW430868   2.589   3.347   5.317 -0.4821  0.6169  0.2280
 7776SOL     OW30869   1.953   1.259   6.140  0.0026  1.0138  0.0337
 7776SOL    HW230870   2.011   1.333   6.155  1.3254  0.0913 -0.3397
 7776SOL    HW330871   1.865   1.297   6.137  0.7617  2.7905 -1.7669
 7776SOL    MW430872   1.949   1.273   6.141  0.2773  1.1265 -0.2531
 7777SOL     OW30873   4.725   1.814   1.649 -0.8376 -0.2518  0.1764
 7777SOL    HW230874   4.694   1.902   1.671  1.3155  1.5171 -3.0848
 7777SOL    HW330875   4.779   1.789   1.725  0.1767  2.1878  0.3609
 7777SOL    MW430876   4.728   1.822   1.662 -0.4197  0.3035 -0.2296
 7778SOL     OW30877   5.727   4.163   1.368  0.1077 -0.5897 -0.9260
 7778SOL    HW230878   5.633   4.182   1.363  0.1802  0.3388  0.6102
 7778SOL    HW330879   5.770   4.245   1.341  0.4238  0.1517  1.5455
 7778SOL    MW430880   5.720   4.176   1.363  0.1590 -0.3694 -0.3973
 7779SOL     OW30881   5.397   4.882   1.863  0.3897  0.1553 -0.1313
 7779SOL    HW230882   5.308   4.867   1.895  0.7363 -0.9367  0.3566
 7779SOL    HW330883   5.388   4.954   1.800 -0.9032 -0.2579 -0.4452
 7779SOL    MW430884   5.384   4.890   1.859  0.2649 -0.0433 -0.1084
 7780SOL     OW30885   1.140   3.503   5.583 -0.3292 -0.7708  0.1477
 7780SOL    HW230886   1.080   3.517   5.657  0.5738 -1.9018  1.1312
 7780SOL    HW330887   1.221   3.545   5.610 -0.3393 -0.1300 -0.7526
 7780SOL    MW430888   1.143   3.510   5.596 -0.2114 -0.8355  0.1587
 7781SOL     OW30889   1.109   6.145   6.156 -0.1644 -0.6031  0.0015
 7781SOL    HW230890   1.097   6.175   6.065 -1.1869 -1.0482 -0.0314
 7781SOL    HW330891   1.020   6.143   6.192  0.1665 -1.0616  0.8146
 7781SOL    MW430892   1.096   6.149   6.148 -0.2556 -0.7223  0.1044
 7782SOL     OW30893   1.935   5.618   0.272  0.0024  0.3415  0.4595
 7782SOL    HW230894   1.957   5.611   0.365 -0.6545 -1.1185  0.5300
 7782SOL    HW330895   1.935   5.713   0.255  1.3737  0.5906  1.6187
 7782SOL    MW430896   1.938   5.630   0.282  0.0966  0.1818  0.6217
 7783SOL     OW30897   4.876   2.849   4.647 -0.1603 -0.9580 -0.4274
 7783SOL    HW230898   4.960   2.804   4.657  1.2514  1.6563  0.3840
 7783SOL    HW330899   4.871   2.870   4.553  1.3801  1.0054 -0.1434
 7783SOL    MW430900   4.886   2.846   4.636  0.2292 -0.3541 -0.2829
 7784SOL     OW30901   1.332   5.952   6.158  0.8430  0.6311 -0.3373
 7784SOL    HW230902   1.279   5.903   6.220  2.1558  0.0091  0.3391
 7784SOL    HW330903   1.285   6.035   6.146 -1.5522 -0.8269 -1.7123
 7784SOL    MW430904   1.319   5.957   6.164  0.7002  0.3567 -0.4295
 7785SOL     OW30905   4.775   0.050   1.544  0.6957  0.0889  0.6003
 7785SOL    HW230906   4.697   0.106   1.545 -0.3197 -1.2114  3.2726
 7785SOL    HW330907   4.772   0.008   1.458 -0.4025  1.5273 -0.1265
 7785SOL    MW430908   4.764   0.052   1.533  0.4168  0.1071  0.8570
 7786SOL     OW30909   1.278   4.661   4.893 -0.6354  0.3748  0.5447
 7786SOL    HW230910   1.356   4.684   4.943 -1.0690  1.2726  0.8514
 7786SOL    HW330911   1.306   4.594   4.831  0.0629 -0.2784  1.5568
 7786SOL    MW430912   1.292   4.655   4.891 -0.6005  0.4071  0.7187
 7787SOL     OW30913   3.998   2.401   2.777  0.2145  0.6190 -0.4591
 7787SOL    HW230914   4.016   2.317   2.735  0.6499 -0.8346  2.3442
 7787SOL    HW330915   3.987   2.463   2.705  0.8484 -1.6317 -2.6215
 7787SOL    MW430916   3.999   2.398   2.762  0.3556  0.1303 -0.3746
 7788SOL     OW30917   2.849   2.762   3.159  0.1643  0.8758 -0.0639
 7788SOL    HW230918   2.766   2.807   3.171  1.1452  2.3913  1.4669
 7788SOL    HW330919   2.828   2.669   3.167 -1.5083  1.1813 -0.6678
 7788SOL    MW430920   2.836   2.755   3.161  0.0730  1.1161  0.0584
 7789SOL     OW30921   4.331   1.336   4.872  0.6085  0.1747 -0.3580
 7789SOL    HW230922   4.285   1.263   4.831  1.3967 -0.5499  0.0158
 7789SOL    HW330923   4.341   1.401   4.802 -0.2897  0.0331 -0.6361
 7789SOL    MW430924   4.326   1.335   4.858  0.5940  0.0604 -0.3454
 7790SOL     OW30925   0.851   2.802   5.706 -0.0991  1.1420  0.2957
 7790SOL    HW230926   0.916   2.792   5.776 -0.9015  1.6659  1.1316
 7790SOL    HW330927   0.773   2.835   5.750 -1.6279 -1.3639 -0.3448
 7790SOL    MW430928   0.850   2.805   5.721 -0.4067  0.8805  0.3215
 7791SOL     OW30929   4.977   6.162   2.666 -0.5612  0.0960 -0.4499
 7791SOL    HW230930   4.978   6.170   2.571  0.3770  0.2335 -0.4362
 7791SOL    HW330931   5.010   6.073   2.683 -0.1043  0.3014 -0.2392
 7791SOL    MW430932   4.982   6.151   2.656 -0.3771  0.1413 -0.4203
 7792SOL     OW30933   2.477   5.728   3.756 -0.0310 -0.0621  0.1678
 7792SOL    HW230934   2.505   5.666   3.823  3.0484  0.3050 -0.6344
 7792SOL    HW330935   2.440   5.802   3.805  3.4410  0.8679  1.7175
 7792SOL    MW430936   2.476   5.730   3.771  0.8334  0.1090  0.2664
 7793SOL     OW30937   4.382   5.640   1.754 -0.5540  0.1823 -0.5404
 7793SOL    HW230938   4.331   5.691   1.817 -1.2043 -0.3765 -0.6041
 7793SOL    HW330939   4.317   5.585   1.710  0.1321 -0.7098 -0.4585
 7793SOL    MW430940   4.366   5.640   1.757 -0.5493 -0.0091 -0.5380
 7794SOL     OW30941   6.098   4.881   4.700 -0.1403 -0.6289  0.2992
 7794SOL    HW230942   6.039   4.956   4.692  0.7246  0.0422  0.0106
 7794SOL    HW330943   6.167   4.912   4.760  0.1680 -1.2314  0.2579
 7794SOL    MW430944   6.100   4.895   4.707  0.0145 -0.6198  0.2557
 7795SOL     OW30945   5.655   0.250   1.388  0.8923 -0.8366 -0.0681
 7795SOL    HW230946   5.661   0.276   1.480 -1.1513 -1.8281  0.3991
 7795SOL    HW330947   5.646   0.332   1.340 -1.3582 -0.3997  0.9688
 7795SOL    MW430948   5.655   0.264   1.394  0.3258 -0.9097  0.1303
 7796SOL     OW30949   4.896   5.939   3.379  0.5578 -0.1613 -0.2874
 7796SOL    HW230950   4.922   6.031   3.370 -2.1860  1.1805  3.2500
 7796SOL    HW330951   4.975   5.895   3.411  1.0812  1.7346  1.2034
 7796SOL    MW430952   4.910   5.945   3.382  0.2648  0.2659  0.3760
 7797SOL     OW30953   6.059   1.427   5.565 -0.1956  0.0287  0.3979
 7797SOL    HW230954   5.983   1.384   5.524  0.1334 -0.6392  0.4733
 7797SOL    HW330955   6.085   1.495   5.502  0.6700 -1.3600 -0.8176
 7797SOL    MW430956   6.052   1.430   5.551 -0.0379 -0.2427  0.2474
 7798SOL     OW30957   4.118   4.837   0.032 -0.3318 -0.8279 -0.4861
 7798SOL    HW230958   4.143   4.906  -0.031  0.9468 -1.0391 -0.2355
 7798SOL    HW330959   4.188   4.773   0.025 -1.6770 -2.3010 -0.9588
 7798SOL    MW430960   4.131   4.838   0.023 -0.3406 -1.0501 -0.5154
 7799SOL     OW30961   5.752   3.146   5.540 -0.5672  0.6993 -0.2431
 7799SOL    HW230962   5.806   3.077   5.501 -0.2580  0.4721  0.5828
 7799SOL    HW330963   5.764   3.221   5.482  0.7946  0.7212  0.0340
 7799SOL    MW430964   5.760   3.146   5.527 -0.3467  0.6722 -0.0976
 7800SOL     OW30965   3.069   2.225   0.511  0.1848  0.0200 -0.0961
 7800SOL    HW230966   3.014   2.147   0.497 -0.3841  0.5200 -0.7160
 7800SOL    HW330967   3.032   2.290   0.452 -0.4133  1.3033  1.6060
 7800SOL    MW430968   3.057   2.223   0.501  0.0308  0.2553  0.0467
 7801SOL     OW30969   0.787   3.866   2.423  0.2413 -0.4205 -0.2637
 7801SOL    HW230970   0.725   3.914   2.368 -0.9022 -0.8518  0.6131
 7801SOL    HW330971   0.738   3.790   2.453  1.1250 -0.6411  0.6641
 7801SOL    MW430972   0.772   3.862   2.420  0.2070 -0.5065 -0.0256
 7802SOL     OW30973   0.829   3.053   3.650 -0.6471  0.3665  0.3496
 7802SOL    HW230974   0.920   3.082   3.640 -0.9308  0.8158 -1.3786
 7802SOL    HW330975   0.798   3.098   3.728  0.3191  1.0286  0.3777
 7802SOL    MW430976   0.837   3.063   3.659 -0.5570  0.5131  0.1253
 7803SOL     OW30977   4.856   1.708   2.772 -0.2238  0.2598 -0.3256
 7803SOL    HW230978   4.819   1.659   2.846  1.0951  0.3726  0.4264
 7803SOL    HW330979   4.790   1.700   2.703 -0.6671 -1.3745  0.2569
 7803SOL    MW430980   4.842   1.701   2.773 -0.1083  0.0591 -0.1495
 7804SOL     OW30981   1.164   3.093   5.367  0.5726 -0.1356 -0.0336
 7804SOL    HW230982   1.132   3.180   5.390  1.4444 -0.0863  1.1194
 7804SOL    HW330983   1.111   3.033   5.420 -1.0175 -0.4449 -1.9017
 7804SOL    MW430984   1.153   3.096   5.377  0.4778 -0.1699 -0.1279
 7805SOL     OW30985   0.240   0.073   3.280 -0.5541  0.1704  0.0825
 7805SOL    HW230986   0.255   0.066   3.374 -1.2316  1.4271  0.3057
 7805SOL    HW330987   0.277   0.158   3.256  1.6588 -1.0509 -1.2497
 7805SOL    MW430988   0.247   0.083   3.289 -0.3515  0.1751 -0.0638
 7806SOL     OW30989   1.151   4.314   4.620  0.3598 -0.3339 -0.2591
 7806SOL    HW230990   1.104   4.333   4.539 -1.1749 -0.9798  0.4273
 7806SOL    HW330991   1.137   4.220   4.633  1.3653 -0.4159  0.2908
 7806SOL    MW430992   1.143   4.304   4.611  0.2900 -0.4299 -0.0960
 7807SOL     OW30993   0.517   0.100   0.518  0.3956  0.2049  0.1371
 7807SOL    HW230994   0.444   0.053   0.560 -0.8458 -0.1942 -2.2824
 7807SOL    HW330995   0.565   0.140   0.591 -0.5624 -1.8861  2.0430
 7807SOL    MW430996   0.513   0.099   0.533  0.1054 -0.1236  0.0693
 7808SOL     OW30997   3.459   1.205   6.210  0.0260  0.2052  0.2621
 7808SOL    HW230998   3.420   1.282   6.251  0.4262  0.7790 -0.3983
 7808SOL    HW330999   3.534   1.240   6.161  0.5876 -0.6935  0.4646
 7808SOL    MW431000   3.464   1.220   6.209  0.1529  0.1623  0.2017
 7809SOL     OW31001   6.245   5.281   0.804  0.4907 -0.2041  0.1273
 7809SOL    HW231002   6.332   5.303   0.771 -0.5874  2.1202 -1.3836
 7809SOL    HW331003   6.232   5.190   0.777  2.6035 -0.7682  0.8316
 7809SOL    MW431004   6.255   5.272   0.796  0.6272  0.0281  0.0209
 7810SOL     OW31005   5.789   4.561   5.655 -0.6250 -0.2859 -0.8033
 7810SOL    HW231006   5.793   4.520   5.742 -1.0636  0.8324 -0.2403
 7810SOL    HW331007   5.867   4.529   5.610  1.3358  1.5536  1.0965
 7810SOL    MW431008   5.800   4.551   5.661 -0.4242  0.1044 -0.4783
 7811SOL     OW31009   5.515   4.659   1.593  0.1302 -0.0982 -0.2846
 7811SOL    HW231010   5.448   4.612   1.543 -0.7281  0.1459  0.5967
 7811SOL    HW331011   5.544   4.729   1.535  2.3901 -2.4010 -2.1464
 7811SOL    MW431012   5.510   4.662   1.579  0.3151 -0.3698 -0.4139
 7812SOL     OW31013   3.746   3.838   2.026  0.0774 -0.1851  0.1900
 7812SOL    HW231014   3.806   3.871   2.093  0.2557 -2.2628  1.1174
 7812SOL    HW331015   3.706   3.761   2.065 -3.9665  1.5347 -0.0318
 7812SOL    MW431016   3.749   3.832   2.040 -0.4326 -0.2323  0.2831
 7813SOL     OW31017   1.671   1.032   4.593  0.5289  0.0412  0.4495
 7813SOL    HW231018   1.729   0.956   4.590  0.1229 -0.2426 -0.2485
 7813SOL    HW331019   1.584   0.996   4.608  0.4975  0.4554  1.3265
 7813SOL    MW431020   1.667   1.018   4.595  0.4712  0.0584  0.4731
 7814SOL     OW31021   4.840   4.949   5.648  0.0757 -0.6759 -0.1608
 7814SOL    HW231022   4.918   4.918   5.601 -0.2022 -1.6101 -0.0115
 7814SOL    HW331023   4.869   4.959   5.739  0.4371  0.5089 -0.3848
 7814SOL    MW431024   4.854   4.946   5.654  0.0867 -0.6428 -0.1706
 7815SOL     OW31025   1.079   4.421   1.641 -0.2568  0.2860 -0.7223
 7815SOL    HW231026   1.132   4.419   1.561  0.1989  1.1609 -0.4494
 7815SOL    HW331027   1.039   4.508   1.641 -0.7337  0.0709 -0.2963
 7815SOL    MW431028   1.080   4.432   1.630 -0.2596  0.3730 -0.6301
 7816SOL     OW31029   5.990   1.760   2.358 -0.1492 -0.5405  0.1972
 7816SOL    HW231030   5.915   1.767   2.299  0.6043 -1.0760 -0.8544
 7816SOL    HW331031   6.030   1.847   2.357 -0.3611 -0.4416  0.2348
 7816SOL    MW431032   5.985   1.772   2.350 -0.0777 -0.5981  0.0634
 7817SOL     OW31033   2.569   0.377   1.810 -0.0439  0.1191  0.6269
 7817SOL    HW231034   2.491   0.426   1.836 -0.7080  0.1282 -1.2480
 7817SOL    HW331035   2.534   0.301   1.763  0.9934 -1.7776  2.7016
 7817SOL    MW431036   2.554   0.373   1.807  0.0053 -0.1299  0.6533
 7818SOL     OW31037   3.792   2.923   2.456 -0.0011 -0.4165 -0.0220
 7818SOL    HW231038   3.793   2.873   2.537 -2.2517  0.8453  0.8684
 7818SOL    HW331039   3.827   3.009   2.479 -0.3743 -0.1417 -0.4519
 7818SOL    MW431040   3.797   2.927   2.470 -0.3473 -0.2138  0.0388
 7819SOL     OW31041   1.220   4.690   3.535 -0.2483 -0.1877 -0.1460
 7819SOL    HW231042   1.181   4.763   3.487 -1.0072 -0.2921  0.3041
 7819SOL    HW331043   1.205   4.711   3.627  1.3270  0.0829  0.0901
 7819SOL    MW431044   1.213   4.703   3.541 -0.1406 -0.1658 -0.0555
 7820SOL     OW31045   4.286   3.673   2.071 -0.4302  0.0356  0.6465
 7820SOL    HW231046   4.338   3.691   2.149  2.2108 -0.9772 -0.7581
 7820SOL    HW331047   4.269   3.760   2.033  0.0639  0.4115  1.2649
 7820SOL    MW431048   4.291   3.687   2.076 -0.0166 -0.0484  0.5428
 7821SOL     OW31049   6.379   0.383   5.375  0.2675 -0.5974  0.0491
 7821SOL    HW231050   6.331   0.303   5.397  0.0179 -0.5534 -0.3314
 7821SOL    HW331051   6.317   0.435   5.324  0.4011 -0.1204  0.3677
 7821SOL    MW431052   6.364   0.379   5.371  0.2522 -0.5287  0.0410
 7822SOL     OW31053   3.367   1.931   2.873  0.0590  0.4463 -0.1899
 7822SOL    HW231054   3.362   1.897   2.784 -1.6761  1.4373 -0.5323
 7822SOL    HW331055   3.298   1.997   2.876  0.1778  0.5196  1.8612
 7822SOL    MW431056   3.357   1.935   2.861 -0.1543  0.5867  0.0355
 7823SOL     OW31057   0.123   4.027   4.513  1.0337 -0.1681  0.4297
 7823SOL    HW231058   0.117   3.946   4.463 -0.1342  0.6115 -0.7476
 7823SOL    HW331059   0.033   4.058   4.521  1.4996  1.2957  0.3880
 7823SOL    MW431060   0.110   4.020   4.508  0.9411  0.1279  0.2688
 7824SOL     OW31061   1.309   4.709   5.228 -0.3480 -0.6802 -0.0416
 7824SOL    HW231062   1.402   4.686   5.225 -0.3820 -1.0363  1.0441
 7824SOL    HW331063   1.264   4.627   5.206 -0.4272 -1.2453  1.9619
 7824SOL    MW431064   1.315   4.695   5.225 -0.3630 -0.8017  0.3659
 7825SOL     OW31065   5.476   2.978   3.261 -0.5053 -0.0632 -0.1755
 7825SOL    HW231066   5.414   3.050   3.251 -1.7207 -1.1177 -0.3525
 7825SOL    HW331067   5.562   3.021   3.257 -1.1991  1.4423  0.3049
 7825SOL    MW431068   5.479   2.993   3.259 -0.7572 -0.0037 -0.1355
 7826SOL     OW31069   0.689   4.841   4.768 -0.1649  0.1599 -0.6298
 7826SOL    HW231070   0.683   4.759   4.720  1.3634 -0.4484  0.1526
 7826SOL    HW331071   0.612   4.891   4.741 -2.1695 -2.2405  0.2586
 7826SOL    MW431072   0.678   4.837   4.758 -0.2277 -0.2370 -0.4093
 7827SOL     OW31073   5.057   5.961   4.299 -0.4591  0.1695  0.1795
 7827SOL    HW231074   5.006   5.881   4.307  0.1621 -0.5483 -2.1729
 7827SOL    HW331075   5.105   5.968   4.382  0.2471 -2.4584  0.0638
 7827SOL    MW431076   5.056   5.951   4.311 -0.2840 -0.2719 -0.1461
 7828SOL     OW31077   4.529   4.816   3.576 -0.3470 -0.5499 -0.1679
 7828SOL    HW231078   4.473   4.772   3.639 -1.4657 -1.3662 -1.6769
 7828SOL    HW331079   4.508   4.775   3.492  1.3178  0.2770 -1.0433
 7828SOL    MW431080   4.519   4.805   3.573 -0.2749 -0.5485 -0.4825
 7829SOL     OW31081   5.691   3.171   1.707  0.0990  0.4864 -0.2720
 7829SOL    HW231082   5.647   3.133   1.630 -0.4923  0.1977  0.1980
 7829SOL    HW331083   5.657   3.121   1.781 -0.7101  1.9206  0.3759
 7829SOL    MW431084   5.680   3.159   1.706 -0.0858  0.6375 -0.1245
 7830SOL     OW31085   0.938   4.524   0.646 -0.2985  0.7757 -0.1095
 7830SOL    HW231086   0.982   4.509   0.562  1.1383  3.3837  0.0765
 7830SOL    HW331087   0.993   4.587   0.691 -1.9109  0.7048  2.1387
 7830SOL    MW431088   0.951   4.530   0.640 -0.3217  1.1105  0.2116
 7831SOL     OW31089   5.905   0.085   4.766  0.0570  0.0808  0.1056
 7831SOL    HW231090   5.873   0.006   4.722 -0.1661  0.7466 -0.9699
 7831SOL    HW331091   5.912   0.060   4.858 -2.4165 -0.4493  0.2112
 7831SOL    MW431092   5.902   0.071   4.772 -0.2988  0.0987 -0.0223
 7832SOL     OW31093   2.658   4.293   1.180  0.2442 -0.1860  0.4876
 7832SOL    HW231094   2.731   4.234   1.196 -0.2986 -1.0887 -0.2679
 7832SOL    HW331095   2.699   4.378   1.164  1.2325 -0.9065 -1.0903
 7832SOL    MW431096   2.673   4.296   1.180  0.3030 -0.4001  0.1797
 7833SOL     OW31097   6.162   2.978   1.365 -0.3721  0.1674 -0.2889
 7833SOL    HW231098   6.094   2.981   1.434  0.6301  1.0366  0.7095
 7833SOL    HW331099   6.113   2.972   1.283 -1.6701  0.8323  0.4075
 7833SOL    MW431100   6.146   2.978   1.364 -0.4111  0.3698 -0.0653
 7834SOL     OW31101   6.001   3.671   1.523 -0.1958  0.0484 -0.3770
 7834SOL    HW231102   6.052   3.664   1.604  0.6535 -0.6646 -0.9589
 7834SOL    HW331103   5.940   3.597   1.527  0.8739 -0.8938 -1.0805
 7834SOL    MW431104   5.999   3.661   1.534  0.0574 -0.1700 -0.5466
 7835SOL     OW31105   3.528   6.133   1.444 -0.2680 -0.5384 -0.4463
 7835SOL    HW231106   3.623   6.135   1.435 -0.1213 -0.9619  0.8609
 7835SOL    HW331107   3.498   6.089   1.365  0.6757 -1.0311 -0.5453
 7835SOL    MW431108   3.537   6.128   1.432 -0.1241 -0.6593 -0.2869
 7836SOL     OW31109   6.154   0.662   1.213 -0.0970  0.0980 -0.1723
 7836SOL    HW231110   6.124   0.726   1.277  0.7037  1.6710 -1.2915
 7836SOL    HW331111   6.106   0.685   1.133  0.7008 -0.2614 -0.7644
 7836SOL    MW431112   6.144   0.674   1.211  0.1139  0.2582 -0.3981
 7837SOL     OW31113   2.323   4.071   0.480  0.4179 -0.5455  0.7806
 7837SOL    HW231114   2.409   4.077   0.523  0.1932 -0.8497  1.2805
 7837SOL    HW331115   2.283   3.993   0.517 -0.9073  0.6833  2.0798
 7837SOL    MW431116   2.329   4.062   0.491  0.2134 -0.4235  1.0179
 7838SOL     OW31117   0.134   3.520   1.676  0.3597 -0.4975 -0.0595
 7838SOL    HW231118   0.131   3.481   1.589  1.8178  0.7784 -0.7403
 7838SOL    HW331119   0.176   3.454   1.731 -1.9036 -1.8994  0.0601
 7838SOL    MW431120   0.139   3.506   1.672  0.2534 -0.5142 -0.1335
 7839SOL     OW31121   3.245   4.160   0.644 -0.5739 -0.2854 -0.2044
 7839SOL    HW231122   3.163   4.186   0.685  0.3379  1.9904  0.3359
 7839SOL    HW331123   3.219   4.110   0.567 -2.4108 -0.6599  0.5985
 7839SOL    MW431124   3.231   4.157   0.640 -0.6960 -0.0345 -0.0272
 7840SOL     OW31125   2.709   1.633   0.374  0.2319  0.6773 -0.4557
 7840SOL    HW231126   2.742   1.596   0.292  0.0164  0.1991 -0.3235
 7840SOL    HW331127   2.644   1.698   0.346 -1.6228 -1.1585 -0.6224
 7840SOL    MW431128   2.705   1.637   0.359 -0.0412  0.3720 -0.4603
 7841SOL     OW31129   2.199   1.768   6.395  0.0645  0.0875  0.7458
 7841SOL    HW231130   2.158   1.681   6.401  2.7290 -1.1869  3.0078
 7841SOL    HW331131   2.166   1.805   6.313 -2.8886 -2.1176  0.7957
 7841SOL    MW431132   2.189   1.761   6.385  0.0264 -0.3715  1.0508
 7842SOL     OW31133   5.095   4.556   1.389 -0.6654  0.2947  0.0053
 7842SOL    HW231134   5.111   4.543   1.295  1.3117  0.6344  0.2487
 7842SOL    HW331135   5.096   4.651   1.400  1.3215  0.2418  0.6616
 7842SOL    MW431136   5.097   4.567   1.378 -0.1424  0.3326  0.1240
 7843SOL     OW31137   0.658   5.986   3.983  0.0562 -0.0516 -0.0334
 7843SOL    HW231138   0.697   6.073   3.980 -1.2333  0.5433 -1.1860
 7843SOL    HW331139   0.676   5.949   3.896  3.8656 -2.5440  1.5822
 7843SOL    MW431140   0.665   5.992   3.971  0.3887 -0.3020  0.0277
 7844SOL     OW31141   0.183   5.739   3.553  0.3954  0.2983  0.0978
 7844SOL    HW231142   0.275   5.765   3.550 -0.0156  1.7150 -1.0976
 7844SOL    HW331143   0.145   5.773   3.472 -0.8431 -1.6590 -0.2138
 7844SOL    MW431144   0.190   5.747   3.542  0.1778  0.2270 -0.1010
 7845SOL     OW31145   4.087   4.322   1.636  0.4303  0.4806 -0.3148
 7845SOL    HW231146   4.132   4.280   1.709  2.6961  2.3810 -0.4868
 7845SOL    HW331147   4.128   4.286   1.558 -0.9676 -0.4509 -0.6669
 7845SOL    MW431148   4.098   4.312   1.635  0.5448  0.6085 -0.3840
 7846SOL     OW31149   6.255   2.730   3.595  0.2268 -0.1691 -0.3268
 7846SOL    HW231150   6.261   2.701   3.504  0.3015 -0.9088 -0.0928
 7846SOL    HW331151   6.322   2.798   3.603  0.4398 -0.3247 -0.7389
 7846SOL    MW431152   6.264   2.735   3.584  0.2647 -0.2872 -0.3503
 7847SOL     OW31153   6.221   0.644   0.011 -0.1537 -0.2979 -0.1714
 7847SOL    HW231154   6.135   0.640  -0.030 -0.1110 -1.0817 -0.1876
 7847SOL    HW331155   6.253   0.554   0.011 -0.0271 -0.2887  1.3254
 7847SOL    MW431156   6.214   0.632   0.006 -0.1314 -0.4001  0.0239
 7848SOL     OW31157   0.875   5.090   1.384  0.5533 -0.6493  0.1375
 7848SOL    HW231158   0.910   5.178   1.375  0.6845 -0.8633 -1.7860
 7848SOL    HW331159   0.887   5.050   1.298  0.2063 -2.4453  0.8734
 7848SOL    MW431160   0.881   5.096   1.371  0.5249 -0.9145 -0.0192
 7849SOL     OW31161   3.909   3.283   1.488  0.0319  0.3160 -0.0643
 7849SOL    HW231162   3.832   3.315   1.441 -0.0845 -1.7081 -1.3357
 7849SOL    HW331163   3.894   3.310   1.579 -1.9859  0.3204 -0.3530
 7849SOL    MW431164   3.896   3.291   1.494 -0.2497  0.0495 -0.2702
 7850SOL     OW31165   1.973   3.303   5.843 -0.4885 -0.0513 -0.1884
 7850SOL    HW231166   1.914   3.371   5.810 -0.4060 -0.4035 -1.0867
 7850SOL    HW331167   2.018   3.271   5.766  1.7624  0.9949  0.5909
 7850SOL    MW431168   1.971   3.308   5.829 -0.1807  0.0403 -0.2041
 7851SOL     OW31169   1.117   1.478   6.111 -0.3311  0.6008  0.2996
 7851SOL    HW231170   1.047   1.416   6.089 -1.0990  1.8444 -0.9433
 7851SOL    HW331171   1.165   1.489   6.029  1.2249 -0.0665  1.0831
 7851SOL    MW431172   1.114   1.471   6.097 -0.2272  0.6768  0.2390
 7852SOL     OW31173   2.407   1.311   4.256 -0.3890 -0.0390 -0.2899
 7852SOL    HW231174   2.427   1.322   4.163 -2.4681  0.7614 -0.6954
 7852SOL    HW331175   2.330   1.366   4.271  0.4564  0.6134  2.1548
 7852SOL    MW431176   2.400   1.319   4.246 -0.5518  0.1527 -0.0209
 7853SOL     OW31177   4.424   2.006   0.359  0.1422 -0.0714 -0.6376
 7853SOL    HW231178   4.485   2.080   0.366 -0.6116  0.5040 -0.0176
 7853SOL    HW331179   4.338   2.045   0.372 -0.5048 -0.6691 -2.7091
 7853SOL    MW431180   4.421   2.021   0.362 -0.0426 -0.0744 -0.8291
 7854SOL     OW31181   6.300   0.422   5.687 -0.8477 -0.1806  0.4515
 7854SOL    HW231182   6.364   0.351   5.695 -1.7910 -0.9760  1.2277
 7854SOL    HW331183   6.274   0.440   5.777  0.7730  2.5147  0.4735
 7854SOL    MW431184   6.305   0.415   5.700 -0.7583  0.0701  0.5568
 7855SOL     OW31185   4.372   5.135   3.717  0.1002  0.2441  0.3588
 7855SOL    HW231186   4.356   5.120   3.811 -2.1443  0.1732  0.0390
 7855SOL    HW331187   4.467   5.136   3.708  0.3772 -1.4516  2.3666
 7855SOL    MW431188   4.382   5.134   3.728 -0.1594  0.0110  0.5815
 7856SOL     OW31189   2.131   3.051   5.132  0.1553  0.3562  0.1768
 7856SOL    HW231190   2.050   3.090   5.164 -0.8977 -1.3655 -0.2373
 7856SOL    HW331191   2.162   3.112   5.065 -2.4797 -0.3565 -1.8761
 7856SOL    MW431192   2.124   3.064   5.128 -0.3313  0.0350 -0.1487
 7857SOL     OW31193   1.678   4.948   4.191 -0.0068  0.2624 -0.0694
 7857SOL    HW231194   1.596   4.914   4.155 -0.6742  1.3815  0.3593
 7857SOL    HW331195   1.652   4.991   4.272  0.9841  0.7777 -0.0197
 7857SOL    MW431196   1.664   4.949   4.197  0.0359  0.4781 -0.0063
 7858SOL     OW31197   2.478   0.702   2.869 -0.0922 -0.2721  0.0979
 7858SOL    HW231198   2.439   0.752   2.940  0.7324  1.6888 -0.7578
 7858SOL    HW331199   2.473   0.611   2.898 -2.1736  0.2061  1.4777
 7858SOL    MW431200   2.472   0.697   2.882 -0.2580  0.0497  0.1671
 7859SOL     OW31201   1.714   4.306   5.047  0.6505  0.4602  0.6865
 7859SOL    HW231202   1.780   4.356   5.094  1.9296 -0.5190 -0.0076
 7859SOL    HW331203   1.631   4.341   5.078  1.4181  0.2463  3.2424
 7859SOL    MW431204   1.712   4.317   5.057  0.9205  0.3028  0.9322
 7860SOL     OW31205   4.500   4.141   1.908  0.4601 -0.1653  0.0110
 7860SOL    HW231206   4.591   4.112   1.894  0.3154 -0.6202 -0.0092
 7860SOL    HW331207   4.504   4.195   1.987  0.6468 -0.6859  0.3630
 7860SOL    MW431208   4.513   4.144   1.916  0.4657 -0.2940  0.0548
 7861SOL     OW31209   5.119   5.119   5.723  0.1917  0.0650  0.3428
 7861SOL    HW231210   5.030   5.133   5.692  0.0704 -0.8374  0.2531
 7861SOL    HW331211   5.170   5.188   5.681 -0.3561  0.2202 -0.0802
 7861SOL    MW431212   5.114   5.130   5.713  0.1034 -0.0336  0.2752
 7862SOL     OW31213   3.839   3.304   3.610  0.0967  0.3985  0.3736
 7862SOL    HW231214   3.850   3.386   3.659  0.1731  0.5090  0.1748
 7862SOL    HW331215   3.749   3.307   3.577 -0.3304 -0.1907  1.4304
 7862SOL    MW431216   3.829   3.315   3.613  0.0504  0.3354  0.4868
 7863SOL     OW31217   0.160   1.720   0.264  0.1629 -0.3595  0.0281
 7863SOL    HW231218   0.074   1.744   0.300  0.4609  0.2375  0.3491
 7863SOL    HW331219   0.159   1.625   0.262 -0.1705 -0.3804  0.8544
 7863SOL    MW431220   0.148   1.711   0.268  0.1582 -0.2835  0.1795
 7864SOL     OW31221   1.710   1.808   4.284 -0.4142  0.1129 -0.1952
 7864SOL    HW231222   1.741   1.762   4.206 -0.3284 -0.1332 -0.0170
 7864SOL    HW331223   1.615   1.801   4.280 -0.3654 -1.7043  0.7895
 7864SOL    MW431224   1.702   1.801   4.273 -0.3965 -0.1593 -0.0418
 7865SOL     OW31225   3.835   5.720   4.764 -0.0691  0.1787 -0.2574
 7865SOL    HW231226   3.801   5.703   4.676 -1.3027  1.2561 -0.0235
 7865SOL    HW331227   3.875   5.807   4.758 -0.8472  0.6078  0.3909
 7865SOL    MW431228   3.836   5.729   4.752 -0.3345  0.3774 -0.1410
 7866SOL     OW31229   4.953   1.712   5.164  0.2942  0.5411  0.3315
 7866SOL    HW231230   4.931   1.656   5.238 -1.1438  0.7331  0.0805
 7866SOL    HW331231   4.979   1.796   5.203  1.4119  0.0630  0.6619
 7866SOL    MW431232   4.954   1.716   5.179  0.2520  0.5034  0.3419
 7867SOL     OW31233   3.845   1.598   2.362  0.4705  0.4127 -0.6325
 7867SOL    HW231234   3.788   1.670   2.334 -1.4526 -1.4645 -1.7943
 7867SOL    HW331235   3.914   1.595   2.296 -0.6812 -0.1831 -1.8283
 7867SOL    MW431236   3.847   1.607   2.350  0.0648  0.0864 -0.9436
 7868SOL     OW31237   1.356   3.517   6.399  0.2126  0.3212 -0.4964
 7868SOL    HW231238   1.351   3.461   6.477 -0.0906 -0.9324 -1.3752
 7868SOL    HW331239   1.449   3.537   6.389  0.1126  1.7628  1.0197
 7868SOL    MW431240   1.367   3.512   6.408  0.1594  0.3460 -0.4123
 7869SOL     OW31241   5.146   6.317   3.435  0.2472 -0.5172  0.5111
 7869SOL    HW231242   5.192   6.395   3.467 -0.9071  1.5022 -2.2641
 7869SOL    HW331243   5.214   6.252   3.423  1.4512  0.4298  1.8170
 7869SOL    MW431244   5.161   6.319   3.438  0.2538 -0.1259  0.3173
 7870SOL     OW31245   1.161   0.290   5.403 -0.5405  0.1460  0.3160
 7870SOL    HW231246   1.236   0.272   5.346 -0.2557 -0.9586  1.0158
 7870SOL    HW331247   1.100   0.219   5.385 -1.7818  1.4291 -0.7844
 7870SOL    MW431248   1.163   0.278   5.393 -0.6667  0.1696  0.2632
 7871SOL     OW31249   1.633   0.855   3.541 -0.1633  0.1861  0.1580
 7871SOL    HW231250   1.573   0.930   3.545  0.1213  0.4131  0.2352
 7871SOL    HW331251   1.598   0.800   3.471  0.0542  0.7659 -0.4143
 7871SOL    MW431252   1.620   0.858   3.532 -0.0970  0.2925  0.0927
 7872SOL     OW31253   1.133   4.825   5.905 -0.1431 -0.6950  0.2125
 7872SOL    HW231254   1.223   4.794   5.917 -0.3454 -0.8931  1.3907
 7872SOL    HW331255   1.080   4.767   5.960 -0.8911 -0.1078  0.1340
 7872SOL    MW431256   1.138   4.813   5.914 -0.2685 -0.6437  0.3576
 7873SOL     OW31257   5.852   0.652   3.993  0.3408  0.2870 -0.0320
 7873SOL    HW231258   5.942   0.666   3.963  0.4272  0.0417  0.1115
 7873SOL    HW331259   5.855   0.569   4.040 -0.6080 -1.4188 -2.7464
 7873SOL    MW431260   5.864   0.643   3.995  0.2270  0.0296 -0.3712
 7874SOL     OW31261   5.328   1.023   5.871  0.0569  0.1943  0.0496
 7874SOL    HW231262   5.350   0.942   5.824 -0.5210 -0.1873  0.4176
 7874SOL    HW331263   5.310   1.087   5.803 -0.4061 -0.2521 -0.2517
 7874SOL    MW431264   5.329   1.021   5.856 -0.0804  0.0851  0.0584
 7875SOL     OW31265   1.643   0.639   2.142 -0.2184  0.6879  0.4116
 7875SOL    HW231266   1.630   0.614   2.051  0.2475  1.2117  0.1928
 7875SOL    HW331267   1.564   0.686   2.166  0.0631  1.3936 -0.0277
 7875SOL    MW431268   1.631   0.642   2.133 -0.1198  0.8502  0.3248
 7876SOL     OW31269   2.400   5.436   3.264  0.4025 -0.6229 -0.6886
 7876SOL    HW231270   2.347   5.356   3.261 -0.6237  0.0627 -1.2202
 7876SOL    HW331271   2.390   5.468   3.354  0.1468 -0.6571 -0.7036
 7876SOL    MW431272   2.391   5.429   3.276  0.2334 -0.5370 -0.7607
 7877SOL     OW31273   0.795   5.133   4.354 -0.0484  0.3626 -0.0037
 7877SOL    HW231274   0.821   5.133   4.447 -0.6386  1.1010  0.1701
 7877SOL    HW331275   0.747   5.215   4.343 -1.4268 -0.4782 -0.5571
 7877SOL    MW431276   0.792   5.144   4.365 -0.3081  0.3491 -0.0538
 7878SOL     OW31277   1.811   1.869   2.886  0.4898  0.9558 -0.2496
 7878SOL    HW231278   1.803   1.955   2.843 -0.9000  0.9482 -0.0416
 7878SOL    HW331279   1.734   1.863   2.943 -0.4021 -1.1373 -1.5543
 7878SOL    MW431280   1.800   1.880   2.888  0.1888  0.6786 -0.3943
 7879SOL     OW31281   0.092   4.795   5.718 -0.0604  0.0851  0.5841
 7879SOL    HW231282   0.149   4.820   5.646 -1.6930  1.0266 -0.4505
 7879SOL    HW331283   0.120   4.707   5.742  2.0778  0.6727  0.4413
 7879SOL    MW431284   0.103   4.787   5.712  0.0063  0.2868  0.4288
 7880SOL     OW31285   4.910   0.794   5.442  0.4447 -0.3297 -0.1967
 7880SOL    HW231286   4.952   0.799   5.528  1.5897  1.2181 -0.7958
 7880SOL    HW331287   4.965   0.848   5.385 -0.6487 -0.7869 -1.7614
 7880SOL    MW431288   4.922   0.802   5.446  0.4515 -0.1858 -0.4822
 7881SOL     OW31289   2.370   0.836   2.619 -0.1982 -0.3718 -0.1474
 7881SOL    HW231290   2.276   0.818   2.618 -0.1375 -0.9548  1.3731
 7881SOL    HW331291   2.404   0.780   2.690  1.4544 -0.9609 -1.3289
 7881SOL    MW431292   2.362   0.826   2.628  0.0279 -0.5264 -0.1027
 7882SOL     OW31293   0.271   5.065   4.915 -0.9919 -0.9177 -0.4594
 7882SOL    HW231294   0.188   5.108   4.937 -0.0489  1.0682 -0.6127
 7882SOL    HW331295   0.285   5.003   4.987 -1.5565  0.2603  0.7152
 7882SOL    MW431296   0.262   5.062   4.927 -0.9420 -0.5003 -0.3247
 7883SOL     OW31297   2.192   4.223   3.203 -0.2588  0.3698  0.7405
 7883SOL    HW231298   2.212   4.184   3.117 -0.3543  0.3448  0.7295
 7883SOL    HW331299   2.097   4.234   3.203 -0.1212  1.6845  0.2839
 7883SOL    MW431300   2.182   4.219   3.192 -0.2532  0.5400  0.6788
 7884SOL     OW31301   2.516   0.931   0.217  0.1234  0.5027  0.2136
 7884SOL    HW231302   2.610   0.919   0.205 -0.0125  0.5678 -1.0787
 7884SOL    HW331303   2.476   0.865   0.160 -0.6240  0.1406  1.1245
 7884SOL    MW431304   2.523   0.920   0.207  0.0069  0.4635  0.1633
 7885SOL     OW31305   4.612   0.823   5.968 -0.3407 -0.2938 -0.3626
 7885SOL    HW231306   4.528   0.779   5.980 -0.1801 -0.2598  1.0307
 7885SOL    HW331307   4.611   0.894   6.032  0.6567 -0.1324 -0.5073
 7885SOL    MW431308   4.601   0.827   5.978 -0.1879 -0.2680 -0.1978
 7886SOL     OW31309   4.798   0.865   3.671  0.1608  0.0635  0.0066
 7886SOL    HW231310   4.819   0.820   3.752 -0.8689  0.1773  0.3472
 7886SOL    HW331311   4.870   0.928   3.659  0.8285 -0.6311  0.3022
 7886SOL    MW431312   4.811   0.868   3.680  0.1130 -0.0131  0.0906
 7887SOL     OW31313   4.663   2.708   5.673  0.3873 -0.0582 -0.0528
 7887SOL    HW231314   4.597   2.778   5.668  1.0203  0.5275 -0.3757
 7887SOL    HW331315   4.733   2.737   5.615  0.3717 -1.2933 -0.7256
 7887SOL    MW431316   4.663   2.721   5.665  0.4688 -0.1439 -0.1842
 7888SOL     OW31317   4.418   5.022   4.020 -0.0839 -0.0933  0.0439
 7888SOL    HW231318   4.426   5.104   4.068  0.7141 -1.8780  3.2777
 7888SOL    HW331319   4.500   5.013   3.972  0.2763  0.4960  0.5393
 7888SOL    MW431320   4.430   5.031   4.020  0.0689 -0.2510  0.5359
 7889SOL     OW31321   3.901   0.508   0.328 -0.2650 -0.5732  0.3425
 7889SOL    HW231322   3.906   0.492   0.423 -1.2206 -2.2550  0.1532
 7889SOL    HW331323   3.919   0.423   0.289 -1.5368 -0.2979 -0.9273
 7889SOL    MW431324   3.904   0.494   0.336 -0.5589 -0.7588  0.1499
 7890SOL     OW31325   5.469   6.245   0.745  0.5248 -0.0038 -0.2732
 7890SOL    HW231326   5.425   6.162   0.727  1.1753 -0.7745  1.5265
 7890SOL    HW331327   5.553   6.221   0.783  1.6088  1.4749 -1.6011
 7890SOL    MW431328   5.474   6.231   0.748  0.7537  0.0896 -0.2109
 7891SOL     OW31329   0.482   6.275   1.712  0.2468  0.2968  0.2782
 7891SOL    HW231330   0.546   6.239   1.650  1.1042 -2.8168  2.7097
 7891SOL    HW331331   0.401   6.230   1.690  0.1258  0.4826  0.3463
 7891SOL    MW431332   0.480   6.264   1.701  0.3439 -0.0895  0.6080
 7892SOL     OW31333   4.782   6.271   4.822  0.3256 -0.1241  0.1957
 7892SOL    HW231334   4.737   6.271   4.737  2.0673  0.3649 -0.7816
 7892SOL    HW331335   4.874   6.284   4.800  0.7633  0.5371  2.2174
 7892SOL    MW431336   4.788   6.273   4.807  0.6131  0.0277  0.3335
 7893SOL     OW31337   3.069   2.065   5.183  0.2521 -0.0352 -0.5525
 7893SOL    HW231338   3.096   1.977   5.158  2.0459  0.0209  1.0328
 7893SOL    HW331339   2.993   2.052   5.239 -0.1265 -0.4841 -1.1533
 7893SOL    MW431340   3.062   2.052   5.187  0.4388 -0.0870 -0.4226
 7894SOL     OW31341   2.767   2.927   5.121 -0.1106  0.4394  0.4124
 7894SOL    HW231342   2.677   2.938   5.153  0.1942 -0.8569  1.8150
 7894SOL    HW331343   2.767   2.842   5.077  0.3042  0.6929 -0.0959
 7894SOL    MW431344   2.755   2.917   5.119 -0.0157  0.3018  0.5304
 7895SOL     OW31345   0.546   3.761   5.641  0.3709 -0.2298 -0.5599
 7895SOL    HW231346   0.590   3.818   5.705  1.6915 -1.5851 -0.2008
 7895SOL    HW331347   0.600   3.768   5.562 -0.0030 -0.2731 -0.8229
 7895SOL    MW431348   0.559   3.770   5.639  0.4958 -0.4143 -0.5472
 7896SOL     OW31349   1.231   2.909   3.717  0.2707 -0.1880  0.3480
 7896SOL    HW231350   1.187   2.891   3.800 -1.6855  0.5250 -0.4602
 7896SOL    HW331351   1.188   2.988   3.684  1.0925 -0.3778 -1.2788
 7896SOL    MW431352   1.220   2.917   3.723  0.1210 -0.1190  0.0267
 7897SOL     OW31353   5.299   5.508   2.637 -0.0669  0.0621  0.7211
 7897SOL    HW231354   5.345   5.486   2.719 -1.5470  0.1895  1.6106
 7897SOL    HW331355   5.234   5.573   2.662 -1.5527 -0.9798 -0.2695
 7897SOL    MW431356   5.297   5.514   2.651 -0.4582 -0.0586  0.7077
 7898SOL     OW31357   0.221   4.270   3.415 -0.3581  0.8185 -0.5260
 7898SOL    HW231358   0.299   4.242   3.367 -0.4857 -1.0843  0.2522
 7898SOL    HW331359   0.191   4.348   3.369  1.6758  1.2860 -1.1765
 7898SOL    MW431360   0.227   4.276   3.402 -0.1066  0.6292 -0.5091
 7899SOL     OW31361   0.463   4.233   3.284 -0.1469 -0.5548 -0.4046
 7899SOL    HW231362   0.510   4.247   3.201  0.7506 -0.4180  0.1105
 7899SOL    HW331363   0.515   4.167   3.330  0.6766  0.9976  1.0161
 7899SOL    MW431364   0.476   4.226   3.279  0.0802 -0.3320 -0.1492
 7900SOL     OW31365   5.603   1.012   3.525 -0.1291  0.1161  0.2767
 7900SOL    HW231366   5.668   0.965   3.578  0.5653  0.9932  0.2294
 7900SOL    HW331367   5.647   1.093   3.499  0.8793 -1.6312 -4.5006
 7900SOL    MW431368   5.617   1.016   3.529  0.0956  0.0013 -0.3599
 7901SOL     OW31369   2.391   4.058   0.904 -0.2398  0.3055 -0.0898
 7901SOL    HW231370   2.345   4.123   0.852 -0.2490 -0.1333 -0.6377
 7901SOL    HW331371   2.479   4.094   0.915 -0.8273  1.3987  1.4142
 7901SOL    MW431372   2.397   4.072   0.899 -0.3186  0.3918  0.0363
 7902SOL     OW31373   4.391   4.417   1.203  0.0599 -0.9289  0.6104
 7902SOL    HW231374   4.467   4.371   1.167 -0.2463 -1.2933  0.4257
 7902SOL    HW331375   4.407   4.509   1.182  0.3165 -1.0324  0.3333
 7902SOL    MW431376   4.403   4.423   1.196  0.0534 -0.9906  0.5494
 7903SOL     OW31377   0.689   1.215   4.805  0.3521  0.5401 -0.2729
 7903SOL    HW231378   0.596   1.193   4.808  0.3792  0.3586 -0.7220
 7903SOL    HW331379   0.725   1.179   4.886  0.1030  0.2705 -0.2816
 7903SOL    MW431380   0.682   1.208   4.816  0.3228  0.4806 -0.3333
 7904SOL     OW31381   4.846   5.691   5.894 -0.5894 -0.1349 -0.3271
 7904SOL    HW231382   4.842   5.778   5.855  0.7046  0.3662  0.6051
 7904SOL    HW331383   4.758   5.678   5.932 -0.4491  1.2623  0.5350
 7904SOL    MW431384   4.834   5.701   5.894 -0.4002  0.1156 -0.0904
 7905SOL     OW31385   2.006   4.568   0.193  0.1433  0.0386 -0.3180
 7905SOL    HW231386   1.982   4.658   0.173 -1.8833 -0.4313 -0.2103
 7905SOL    HW331387   2.064   4.575   0.269  0.1638  1.2663 -0.4360
 7905SOL    MW431388   2.010   4.581   0.201 -0.1214  0.1386 -0.3194
 7906SOL     OW31389   5.858   3.421   3.202  0.0018  0.1144  0.4993
 7906SOL    HW231390   5.845   3.505   3.159  0.5018  0.0543  0.2108
 7906SOL    HW331391   5.817   3.357   3.144  0.3105  0.0792  0.3135
 7906SOL    MW431392   5.851   3.423   3.189  0.1085  0.1018  0.4367
 7907SOL     OW31393   2.213   4.211   1.494  0.3766  0.0921 -0.4761
 7907SOL    HW231394   2.243   4.134   1.445 -0.8057 -1.4285  1.0892
 7907SOL    HW331395   2.186   4.177   1.579  0.1804  2.3169  0.4182
 7907SOL    MW431396   2.213   4.196   1.498  0.1947  0.1850 -0.1516
 7908SOL     OW31397   1.933   4.431   3.451  0.5358 -0.4542 -0.3262
 7908SOL    HW231398   1.945   4.515   3.495  0.1339 -0.7161  0.2936
 7908SOL    HW331399   2.008   4.379   3.477 -0.6039 -1.2504  1.5890
 7908SOL    MW431400   1.944   4.435   3.460  0.3324 -0.5938  0.0083
 7909SOL     OW31401   1.442   4.669   3.808 -0.4025  0.2501 -0.4421
 7909SOL    HW231402   1.533   4.646   3.793 -0.0185  0.0250  1.7982
 7909SOL    HW331403   1.394   4.587   3.795 -0.3764  0.4573 -2.0150
 7909SOL    MW431404   1.447   4.655   3.804 -0.3484  0.2477 -0.3541
 7910SOL     OW31405   3.423   0.422   1.777 -0.2705 -0.2807 -0.0750
 7910SOL    HW231406   3.403   0.507   1.816 -1.5205 -0.8566  0.6080
 7910SOL    HW331407   3.440   0.441   1.685 -0.9297  0.6597 -0.0212
 7910SOL    MW431408   3.422   0.436   1.770 -0.5224 -0.2326  0.0222
 7911SOL     OW31409   6.375   5.584   1.949  0.1786  0.0601  0.1868
 7911SOL    HW231410   6.426   5.528   2.007 -0.9318 -0.7938  0.3873
 7911SOL    HW331411   6.349   5.526   1.877 -0.1062  0.5910 -0.1426
 7911SOL    MW431412   6.378   5.569   1.947 -0.0055  0.0175  0.1698
 7912SOL     OW31413   2.995   5.165   1.106 -0.5259 -0.5473 -0.1794
 7912SOL    HW231414   3.054   5.241   1.112  0.3941 -1.2073 -0.6196
 7912SOL    HW331415   2.908   5.201   1.119  0.0860  0.1857  2.8501
 7912SOL    MW431416   2.991   5.180   1.109 -0.3238 -0.5377  0.1623
 7913SOL     OW31417   5.755   5.257   1.496 -0.3867 -0.0813  0.1370
 7913SOL    HW231418   5.827   5.292   1.548 -2.0033  1.8154  1.2389
 7913SOL    HW331419   5.789   5.175   1.459  1.5261 -0.4577  2.5150
 7913SOL    MW431420   5.769   5.251   1.498 -0.3476  0.1193  0.5961
 7914SOL     OW31421   5.230   3.336   2.413  0.2919 -0.0190  0.2099
 7914SOL    HW231422   5.137   3.358   2.414  0.3016  0.0113  0.7511
 7914SOL    HW331423   5.272   3.407   2.460  0.7250  0.5254 -0.9603
 7914SOL    MW431424   5.223   3.348   2.419  0.3503  0.0568  0.1269
 7915SOL     OW31425   0.105   3.617   6.144  0.1672  0.1388 -0.4347
 7915SOL    HW231426   0.097   3.523   6.159 -0.3817  0.2745  0.1622
 7915SOL    HW331427   0.161   3.624   6.066  0.4343 -0.6696 -0.3292
 7915SOL    MW431428   0.112   3.606   6.136  0.1300  0.0500 -0.3421
 7916SOL     OW31429   1.322   5.129   5.383  0.3053  0.1709  0.2720
 7916SOL    HW231430   1.391   5.135   5.317  1.1525 -0.7550  1.0547
 7916SOL    HW331431   1.353   5.183   5.455  0.1051 -0.0507  0.5257
 7916SOL    MW431432   1.335   5.137   5.383  0.3907  0.0195  0.4088
 7917SOL     OW31433   3.601   1.043   4.445  0.2052  0.1196  1.2033
 7917SOL    HW231434   3.685   1.000   4.460  1.2654  2.3296  2.0337
 7917SOL    HW331435   3.537   0.988   4.492  1.1614 -1.5338  0.6460
 7917SOL    MW431436   3.604   1.030   4.454  0.4712  0.1930  1.2393
 7918SOL     OW31437   4.246   0.810   5.057 -0.3559  0.2560 -0.0000
 7918SOL    HW231438   4.280   0.888   5.099  1.4483 -0.9997  1.0273
 7918SOL    HW331439   4.323   0.766   5.021 -1.3806 -0.7791 -1.0327
 7918SOL    MW431440   4.261   0.814   5.058 -0.2531 -0.0463 -0.0007
 7919SOL     OW31441   1.538   4.321   2.505  0.0407 -0.0361  0.1048
 7919SOL    HW231442   1.483   4.278   2.571 -2.6581  1.7488 -0.7846
 7919SOL    HW331443   1.517   4.275   2.423 -1.4003  1.5909 -0.5051
 7919SOL    MW431444   1.528   4.309   2.503 -0.5055  0.4140 -0.0930
 7920SOL     OW31445   0.537   1.170   3.089  0.3108  0.1146 -0.3647
 7920SOL    HW231446   0.443   1.152   3.084  0.5419 -1.5161  0.5590
 7920SOL    HW331447   0.573   1.130   3.009  0.1105  1.8325 -1.3701
 7920SOL    MW431448   0.529   1.162   3.078  0.3149  0.1261 -0.3755
 7921SOL     OW31449   3.427   3.895   4.024  0.4751 -0.3358  0.0492
 7921SOL    HW231450   3.366   3.964   4.049  0.8628 -0.3895  1.2365
 7921SOL    HW331451   3.372   3.825   3.988 -0.1717 -0.3693  1.0652
 7921SOL    MW431452   3.412   3.895   4.023  0.4409 -0.3473  0.3399
 7922SOL     OW31453   2.433   0.299   3.871  0.3888 -0.1212  0.4163
 7922SOL    HW231454   2.387   0.377   3.901 -0.3147 -0.3015 -0.1743
 7922SOL    HW331455   2.420   0.298   3.776  0.2085 -1.0664  0.4409
 7922SOL    MW431456   2.425   0.309   3.862  0.2722 -0.2697  0.3416
 7923SOL     OW31457   5.126   0.636   5.238  0.4865  0.2516  0.8682
 7923SOL    HW231458   5.154   0.577   5.168  0.4356 -0.7245  1.6637
 7923SOL    HW331459   5.036   0.660   5.215  0.8456  0.8372  0.0168
 7923SOL    MW431460   5.118   0.632   5.226  0.5272  0.2001  0.8609
 7924SOL     OW31461   1.095   0.517   5.254  0.1481  0.2020  0.0138
 7924SOL    HW231462   1.039   0.488   5.181 -1.6091  1.3161  0.8454
 7924SOL    HW331463   1.095   0.443   5.315 -2.2559  0.9047  0.9815
 7924SOL    MW431464   1.087   0.503   5.252 -0.4009  0.4417  0.2512
 7925SOL     OW31465   2.097   5.842   1.408  0.0056  0.3381 -0.2482
 7925SOL    HW231466   2.071   5.931   1.433  0.8546  0.7391 -0.7398
 7925SOL    HW331467   2.141   5.807   1.485  0.4495  0.6741 -0.3438
 7925SOL    MW431468   2.099   5.849   1.421  0.1762  0.4354 -0.3257
 7926SOL     OW31469   4.451   5.098   1.456 -0.0659 -0.1637 -0.8202
 7926SOL    HW231470   4.528   5.129   1.502  0.1047 -0.5568 -0.8355
 7926SOL    HW331471   4.392   5.173   1.454 -0.5117 -0.4174  0.9703
 7926SOL    MW431472   4.453   5.112   1.462 -0.1022 -0.2491 -0.5860
 7927SOL     OW31473   5.343   0.674   1.572 -0.3375 -0.4090  0.4615
 7927SOL    HW231474   5.340   0.664   1.477  2.5438  1.2717  0.0906
 7927SOL    HW331475   5.253   0.659   1.601 -1.8398  1.4171 -2.7896
 7927SOL    MW431476   5.331   0.671   1.564 -0.1556  0.0537 -0.0164
 7928SOL     OW31477   2.981   1.716   1.107 -0.1862  0.2635  0.5783
 7928SOL    HW231478   2.931   1.644   1.068 -0.2513 -0.0896  1.2837
 7928SOL    HW331479   2.950   1.719   1.198  0.7806  0.3042  0.9150
 7928SOL    MW431480   2.970   1.707   1.114 -0.0673  0.2223  0.7158
 7929SOL     OW31481   2.105   1.649   3.816 -0.2910  0.3759  0.7477
 7929SOL    HW231482   2.077   1.600   3.893  1.6974  0.4464  1.5789
 7929SOL    HW331483   2.182   1.602   3.785 -1.4686 -0.0742 -1.6907
 7929SOL    MW431484   2.112   1.636   3.822 -0.1840  0.3258  0.5357
 7930SOL     OW31485   5.843   4.062   5.448  0.6263  0.7679 -0.2169
 7930SOL    HW231486   5.781   4.135   5.452  0.3251  0.5212 -0.2922
 7930SOL    HW331487   5.901   4.084   5.376 -0.5540  0.1035 -1.4218
 7930SOL    MW431488   5.842   4.074   5.439  0.4308  0.6477 -0.3858
 7931SOL     OW31489   2.454   6.341   0.179  0.6412  0.2055  0.0903
 7931SOL    HW231490   2.535   6.317   0.134  0.1598  1.0822 -1.3029
 7931SOL    HW331491   2.408   6.397   0.117 -1.0609 -0.3028  0.8416
 7931SOL    MW431492   2.459   6.345   0.165  0.3531  0.2541  0.0056
 7932SOL     OW31493   0.601   5.094   3.977  0.4105 -0.4240 -0.1198
 7932SOL    HW231494   0.644   5.009   3.990  0.3917 -0.3595  0.4057
 7932SOL    HW331495   0.585   5.126   4.066 -1.4343 -0.7925 -0.2916
 7932SOL    MW431496   0.605   5.087   3.991  0.1646 -0.4641 -0.0732
 7933SOL     OW31497   0.495   4.298   0.030 -0.5182  0.2529  0.5501
 7933SOL    HW231498   0.479   4.281   0.123 -0.9941  2.0262  0.8306
 7933SOL    HW331499   0.559   4.231   0.004 -1.7949 -1.4941  1.6467
 7933SOL    MW431500   0.501   4.287   0.039 -0.7494  0.2564  0.7318
 7934SOL     OW31501   2.591   2.955   5.462  0.8856  0.3021  0.4066
 7934SOL    HW231502   2.670   3.006   5.480  0.4184  0.7833  1.1462
 7934SOL    HW331503   2.549   3.000   5.389  0.4247  1.0584  1.1186
 7934SOL    MW431504   2.596   2.968   5.455  0.7632  0.4653  0.5981
 7935SOL     OW31505   2.215   3.827   0.578 -0.0203  0.2921 -0.5648
 7935SOL    HW231506   2.123   3.803   0.589  0.0981 -0.4695 -1.1654
 7935SOL    HW331507   2.248   3.766   0.513  1.5955 -1.1524  1.4952
 7935SOL    MW431508   2.207   3.816   0.571  0.2085  0.0010 -0.3722
 7936SOL     OW31509   1.217   3.107   1.222 -0.3264 -0.1440 -0.5213
 7936SOL    HW231510   1.204   3.017   1.254 -1.4247  0.1146 -0.1888
 7936SOL    HW331511   1.299   3.104   1.174 -0.2177 -1.2722 -0.2891
 7936SOL    MW431512   1.226   3.095   1.220 -0.4570 -0.2587 -0.4468
 7937SOL     OW31513   2.479   0.679   4.988  0.2684  0.2169  0.2371
 7937SOL    HW231514   2.512   0.591   4.969 -1.0827 -0.0182 -1.2258
 7937SOL    HW331515   2.396   0.684   4.941  1.5596  3.1954 -2.0348
 7937SOL    MW431516   2.473   0.668   4.979  0.2605  0.5789 -0.2557
 7938SOL     OW31517   2.489   1.594   1.871 -0.3370 -0.4148  0.1644
 7938SOL    HW231518   2.454   1.542   1.798  2.1696 -1.5493 -0.3794
 7938SOL    HW331519   2.549   1.534   1.915  1.2823  1.4666  0.6590
 7938SOL    MW431520   2.493   1.579   1.867  0.2073 -0.3162  0.1579
 7939SOL     OW31521   1.463   2.021   6.049  0.1862  0.3794 -0.1590
 7939SOL    HW231522   1.467   2.077   5.971 -1.4169  2.9260  1.4466
 7939SOL    HW331523   1.381   1.973   6.041 -0.0402  0.7372  0.0342
 7939SOL    MW431524   1.453   2.022   6.038 -0.0552  0.7626  0.0783
 7940SOL     OW31525   2.279   3.238   4.351 -0.3767  0.2020 -0.4472
 7940SOL    HW231526   2.309   3.154   4.387  0.8220  0.9253  0.3046
 7940SOL    HW331527   2.227   3.276   4.422 -0.7511  0.1837 -0.7125
 7940SOL    MW431528   2.276   3.232   4.365 -0.2679  0.2950 -0.3830
 7941SOL     OW31529   3.684   4.666   3.113  0.2195  1.0411  0.0547
 7941SOL    HW231530   3.689   4.573   3.134  1.1214  0.5785 -2.0124
 7941SOL    HW331531   3.736   4.709   3.181  1.0349 -0.1090  0.1681
 7941SOL    MW431532   3.691   4.659   3.125  0.4461  0.8283 -0.2030
 7942SOL     OW31533   2.345   1.950   3.669  0.2891  0.5837  0.1157
 7942SOL    HW231534   2.286   1.897   3.616  1.9188 -2.1456  0.8700
 7942SOL    HW331535   2.286   2.011   3.715 -1.6108 -0.1257 -1.2306
 7942SOL    MW431536   2.329   1.951   3.668  0.2534  0.1300  0.0376
 7943SOL     OW31537   1.718   1.651   0.666 -0.1398  0.1963  0.1783
 7943SOL    HW231538   1.712   1.595   0.744  0.3178 -0.3318 -0.1568
 7943SOL    HW331539   1.786   1.610   0.613 -0.5920  0.4309 -0.5922
 7943SOL    MW431540   1.726   1.638   0.669 -0.1391  0.1576  0.0324
 7944SOL     OW31541   5.974   3.869   0.024  0.3572 -0.4896 -0.5643
 7944SOL    HW231542   6.002   3.780   0.002  2.0990 -0.0692 -0.2312
 7944SOL    HW331543   5.960   3.866   0.119  1.0088 -0.2687 -0.4588
 7944SOL    MW431544   5.976   3.857   0.034  0.6730 -0.4050 -0.5064
 7945SOL     OW31545   3.632   5.874   2.782  0.0233 -0.1940  0.9237
 7945SOL    HW231546   3.556   5.822   2.756  0.7787  0.0895 -2.3284
 7945SOL    HW331547   3.607   5.965   2.762  0.5693  0.1224  1.6062
 7945SOL    MW431548   3.619   5.879   2.776  0.1950 -0.1149  0.5847
 7946SOL     OW31549   5.792   3.279   0.189  0.0543 -0.3340  0.3564
 7946SOL    HW231550   5.807   3.233   0.272 -1.1862  0.6172  1.1403
 7946SOL    HW331551   5.775   3.369   0.214  0.4979  0.1513 -1.0166
 7946SOL    MW431552   5.792   3.285   0.203 -0.0509 -0.1445  0.2787
 7947SOL     OW31553   1.402   3.779   2.719  0.0582  0.2420  0.3790
 7947SOL    HW231554   1.482   3.775   2.772 -1.7249  0.4977  3.2942
 7947SOL    HW331555   1.404   3.699   2.667  2.2467  0.2984  0.2873
 7947SOL    MW431556   1.413   3.768   2.719  0.1117  0.2832  0.7515
 7948SOL     OW31557   4.718   6.175   3.738  0.8100  0.3379  0.3084
 7948SOL    HW231558   4.649   6.238   3.720 -0.2169  0.1905  3.2326
 7948SOL    HW331559   4.798   6.228   3.743  1.1026  0.4937 -3.1803
 7948SOL    MW431560   4.720   6.190   3.736  0.7131  0.3390  0.2339
 7949SOL     OW31561   3.027   0.219   0.522 -0.1974  0.2852 -0.1935
 7949SOL    HW231562   2.932   0.213   0.529 -0.1886  1.5278  1.7721
 7949SOL    HW331563   3.056   0.128   0.514 -1.5349 -0.1085 -0.8233
 7949SOL    MW431564   3.018   0.206   0.522 -0.3727  0.3972 -0.0173
 7950SOL     OW31565   1.522   0.596   1.214 -0.1200  0.2411 -0.3924
 7950SOL    HW231566   1.608   0.564   1.188 -0.2315 -0.1741 -0.2752
 7950SOL    HW331567   1.481   0.625   1.133  0.2144  0.6584 -0.4163
 7950SOL    MW431568   1.528   0.595   1.200 -0.0906  0.2414 -0.3801
 7951SOL     OW31569   4.029   2.721   5.586  0.1954  0.5655  0.6057
 7951SOL    HW231570   3.969   2.769   5.528  0.3366 -1.3171 -1.2364
 7951SOL    HW331571   4.112   2.718   5.538  0.4471 -0.6703  1.0807
 7951SOL    MW431572   4.032   2.727   5.572  0.2473  0.1541  0.4254
 7952SOL     OW31573   1.504   5.950   5.396  0.5956  0.7051  0.1075
 7952SOL    HW231574   1.514   6.040   5.427 -0.6778  0.2579  1.9659
 7952SOL    HW331575   1.482   5.899   5.474  2.3731 -1.4661 -0.6842
 7952SOL    MW431576   1.502   5.955   5.410  0.6621  0.3596  0.2483
 7953SOL     OW31577   3.843   1.839   5.478 -0.5277 -0.1939 -0.5982
 7953SOL    HW231578   3.838   1.846   5.383 -1.9480  0.8535 -0.4760
 7953SOL    HW331579   3.819   1.926   5.510  1.1467 -0.1629  0.7200
 7953SOL    MW431580   3.839   1.851   5.470 -0.4942 -0.0516 -0.4082
 7954SOL     OW31581   2.993   2.251   3.190 -0.0064 -0.0021 -0.0798
 7954SOL    HW231582   2.949   2.261   3.274  0.8336 -0.2245  0.4044
 7954SOL    HW331583   2.975   2.161   3.163  0.1062 -0.0748  0.0884
 7954SOL    MW431584   2.985   2.240   3.198  0.1193 -0.0410  0.0063
 7955SOL     OW31585   0.235   2.474   1.373  0.8026 -0.0509 -0.1009
 7955SOL    HW231586   0.295   2.473   1.448  0.3146  0.0713  0.2950
 7955SOL    HW331587   0.248   2.560   1.333 -1.3934  1.3096  1.8710
 7955SOL    MW431588   0.245   2.485   1.377  0.4485  0.1447  0.2115
 7956SOL     OW31589   0.205   4.717   0.436  0.1738  0.5280  0.4450
 7956SOL    HW231590   0.191   4.623   0.427  0.3042  0.5608 -0.0863
 7956SOL    HW331591   0.133   4.746   0.493  1.0667 -0.1468  1.9810
 7956SOL    MW431592   0.194   4.709   0.442  0.3088  0.4433  0.5776
 7957SOL     OW31593   1.160   2.596   1.093 -0.2133  0.4278 -0.1615
 7957SOL    HW231594   1.179   2.596   1.187  0.6398 -0.3440 -0.3250
 7957SOL    HW331595   1.244   2.613   1.051  0.1304 -2.4612 -0.8734
 7957SOL    MW431596   1.173   2.598   1.100 -0.0554 -0.0552 -0.2770
 7958SOL     OW31597   3.090   5.718   1.962 -0.1018 -0.1892  0.0438
 7958SOL    HW231598   3.049   5.637   1.991  1.1111 -0.6200  0.6551
 7958SOL    HW331599   3.084   5.776   2.038 -0.1048 -0.0530 -0.0598
 7958SOL    MW431600   3.084   5.715   1.976  0.0579 -0.2281  0.1108
 7959SOL     OW31601   1.306   3.155   6.170 -0.0528 -0.4636 -0.4222
 7959SOL    HW231602   1.354   3.072   6.177  2.4695  1.0051  1.0002
 7959SOL    HW331603   1.374   3.222   6.173 -2.2130  1.8143  2.3744
 7959SOL    MW431604   1.321   3.153   6.171 -0.0050  0.0307  0.1344
 7960SOL     OW31605   1.509   5.945   2.452 -0.1737  0.3608  0.3850
 7960SOL    HW231606   1.493   6.035   2.482  1.0347  0.9240 -0.5511
 7960SOL    HW331607   1.583   5.953   2.391 -1.0633 -1.0399 -0.9583
 7960SOL    MW431608   1.517   5.958   2.448 -0.1316  0.2503  0.0842
 7961SOL     OW31609   0.847   0.931   1.546  0.0528 -0.0046 -0.1743
 7961SOL    HW231610   0.827   0.859   1.605  1.3207 -1.3644 -1.3251
 7961SOL    HW331611   0.776   0.929   1.481  0.2741 -0.4431 -0.4027
 7961SOL    MW431612   0.835   0.921   1.545  0.2493 -0.2419 -0.3562
 7962SOL     OW31613   1.039   4.283   3.022 -0.2089  0.1431  0.2771
 7962SOL    HW231614   1.030   4.256   2.930 -0.7108  0.5649  0.1913
 7962SOL    HW331615   1.021   4.204   3.072 -0.1519 -0.0404  0.0109
 7962SOL    MW431616   1.035   4.269   3.016 -0.2676  0.1745  0.2307
 7963SOL     OW31617   5.958   4.404   3.966  0.6018 -0.0966  0.4794
 7963SOL    HW231618   5.926   4.489   3.996  1.0691 -0.5277  2.2682
 7963SOL    HW331619   5.892   4.341   3.995  0.4134 -0.4058 -0.5639
 7963SOL    MW431620   5.945   4.407   3.974  0.6386 -0.1943  0.5778
 7964SOL     OW31621   6.137   5.493   6.374 -0.1273  0.4302 -0.6918
 7964SOL    HW231622   6.140   5.398   6.381  1.2065  0.4614 -0.4324
 7964SOL    HW331623   6.044   5.515   6.368 -0.4525 -0.8709 -0.5783
 7964SOL    MW431624   6.125   5.484   6.374  0.0058  0.2627 -0.6426
 7965SOL     OW31625   3.808   4.753   4.205  0.2852 -0.1133 -0.1626
 7965SOL    HW231626   3.718   4.787   4.202  0.4908  0.4981  0.4468
 7965SOL    HW331627   3.859   4.824   4.243  0.3071 -1.8801  3.5625
 7965SOL    MW431628   3.803   4.767   4.210  0.3152 -0.2658  0.4093
 7966SOL     OW31629   3.164   4.748   2.227 -0.8438 -0.1928  0.0190
 7966SOL    HW231630   3.206   4.808   2.289 -0.1541 -2.1504  1.5292
 7966SOL    HW331631   3.232   4.685   2.204 -1.7023 -0.7442 -1.1222
 7966SOL    MW431632   3.178   4.748   2.232 -0.8661 -0.5239  0.0676
 7967SOL     OW31633   5.478   3.698   1.666 -0.4254 -0.0707 -0.3974
 7967SOL    HW231634   5.478   3.602   1.664 -0.7997 -0.0790 -2.8740
 7967SOL    HW331635   5.567   3.722   1.639 -0.2026  0.2997  0.6449
 7967SOL    MW431636   5.490   3.688   1.662 -0.4454 -0.0229 -0.5866
 7968SOL     OW31637   5.446   3.394   4.038 -0.0325 -0.3883 -0.1874
 7968SOL    HW231638   5.476   3.305   4.054 -0.8467 -1.1083 -2.2657
 7968SOL    HW331639   5.403   3.420   4.119 -0.8875 -2.3864  0.0664
 7968SOL    MW431640   5.444   3.386   4.051 -0.2527 -0.7469 -0.4281
 7969SOL     OW31641   5.134   5.508   1.581  0.1824  0.4214 -0.4481
 7969SOL    HW231642   5.062   5.522   1.642 -1.5197 -1.5632 -1.8418
 7969SOL    HW331643   5.191   5.443   1.624  0.4103  0.9611  0.0756
 7969SOL    MW431644   5.132   5.501   1.595 -0.0121  0.2307 -0.5629
 7970SOL     OW31645   2.840   6.105   2.056  0.5912 -0.0889 -0.0273
 7970SOL    HW231646   2.767   6.150   2.097  1.9119  1.1077  1.1232
 7970SOL    HW331647   2.810   6.015   2.045 -0.0614 -0.3719  3.1253
 7970SOL    MW431648   2.827   6.099   2.060  0.6793  0.0316  0.5404
 7971SOL     OW31649   4.321   4.469   3.423 -0.0361 -0.4492  0.2518
 7971SOL    HW231650   4.315   4.425   3.508  0.5710  0.2510  0.6737
 7971SOL    HW331651   4.400   4.433   3.383 -0.2378 -0.6668  0.0496
 7971SOL    MW431652   4.331   4.459   3.429  0.0174 -0.3855  0.2808
 7972SOL     OW31653   5.318   1.024   6.410  0.2280 -0.6967 -0.3691
 7972SOL    HW231654   5.369   1.103   6.431 -1.6933  0.5601 -0.1740
 7972SOL    HW331655   5.291   1.038   6.319 -1.4427 -0.3420  0.1605
 7972SOL    MW431656   5.321   1.037   6.401 -0.2459 -0.4841 -0.2735
 7973SOL     OW31657   4.824   5.768   2.561  0.6340 -0.1828  0.3012
 7973SOL    HW231658   4.914   5.741   2.579  0.2743 -1.5239  0.2256
 7973SOL    HW331659   4.784   5.777   2.647  0.8948  0.6272  0.3402
 7973SOL    MW431660   4.831   5.765   2.575  0.6209 -0.2529  0.2964
 7974SOL     OW31661   2.651   1.043   3.152  0.3738  0.3256  0.2793
 7974SOL    HW231662   2.573   0.987   3.153  0.6224 -0.0310  0.1944
 7974SOL    HW331663   2.665   1.066   3.244  0.7323 -0.4208  0.4256
 7974SOL    MW431664   2.642   1.038   3.164  0.4539  0.1801  0.2874
 7975SOL     OW31665   4.570   2.023   2.883 -0.8541  0.3119 -0.0461
 7975SOL    HW231666   4.540   2.114   2.877 -0.5044  0.3530 -1.6662
 7975SOL    HW331667   4.661   2.026   2.855 -0.3838 -0.3545  1.3137
 7975SOL    MW431668   4.578   2.036   2.879 -0.7459  0.2294 -0.0805
 7976SOL     OW31669   0.415   3.192   1.524  0.0903 -0.5584 -0.1791
 7976SOL    HW231670   0.343   3.194   1.461 -0.2063 -0.5523  0.1586
 7976SOL    HW331671   0.394   3.119   1.582 -1.5283  1.6059  2.1324
 7976SOL    MW431672   0.403   3.182   1.523 -0.1624 -0.2720  0.1704
 7977SOL     OW31673   2.609   3.572   5.822  0.2986  0.3131  0.1865
 7977SOL    HW231674   2.659   3.521   5.885  0.6197  0.7153  0.2616
 7977SOL    HW331675   2.634   3.662   5.839  0.1455  0.4508 -0.3027
 7977SOL    MW431676   2.619   3.577   5.832  0.3208  0.3843  0.1319
 7978SOL     OW31677   0.458   5.799   0.462  0.0155  0.1758  0.5729
 7978SOL    HW231678   0.429   5.749   0.539 -2.2727 -0.0125 -0.3327
 7978SOL    HW331679   0.401   5.769   0.391  2.3073  0.0636 -1.3367
 7978SOL    MW431680   0.446   5.788   0.463  0.0160  0.1361  0.2015
 7979SOL     OW31681   1.398   3.735   1.519  1.0508  0.1880 -0.1349
 7979SOL    HW231682   1.396   3.831   1.524 -0.6002  0.1238  1.6190
 7979SOL    HW331683   1.484   3.715   1.482  1.2031  2.3484 -1.1239
 7979SOL    MW431684   1.409   3.745   1.514  0.8531  0.4646 -0.0340
 7980SOL     OW31685   5.501   5.617   0.382  0.2279 -0.6058  0.2962
 7980SOL    HW231686   5.586   5.586   0.351  0.0582 -1.1883  0.3870
 7980SOL    HW331687   5.521   5.671   0.458  0.5471 -0.3738  0.0466
 7980SOL    MW431688   5.515   5.620   0.388  0.2477 -0.6520  0.2753
 7981SOL     OW31689   1.933   1.527   4.375  0.0400 -0.1918  0.2501
 7981SOL    HW231690   1.916   1.599   4.436  1.0150 -1.7822  2.5239
 7981SOL    HW331691   1.876   1.456   4.405 -0.2175 -0.7073 -1.3583
 7981SOL    MW431692   1.923   1.527   4.387  0.1347 -0.4696  0.3379
 7982SOL     OW31693   0.201   2.517   5.195 -0.2898  0.2723  0.0164
 7982SOL    HW231694   0.228   2.431   5.228  2.7278  0.3233 -1.9221
 7982SOL    HW331695   0.170   2.499   5.106  1.7455  1.2666 -0.9519
 7982SOL    MW431696   0.201   2.503   5.188  0.3769  0.4102 -0.3671
 7983SOL     OW31697   4.887   1.285   5.023 -0.2092  0.5222 -0.0189
 7983SOL    HW231698   4.856   1.375   5.011 -0.1320  0.6645  0.8107
 7983SOL    HW331699   4.982   1.291   5.014 -0.1942  0.5455  0.1489
 7983SOL    MW431700   4.895   1.298   5.020 -0.1970  0.5441  0.1127
 7984SOL     OW31701   4.672   0.291   0.216 -0.0338 -0.1409  0.2157
 7984SOL    HW231702   4.650   0.229   0.286 -0.5625 -0.5056 -0.2592
 7984SOL    HW331703   4.731   0.242   0.159  0.0981  0.0248  0.2140
 7984SOL    MW431704   4.677   0.276   0.217 -0.0862 -0.1671  0.1528
 7985SOL     OW31705   5.710   3.857   2.709 -0.2320  0.2713 -0.2359
 7985SOL    HW231706   5.703   3.941   2.664 -1.0296 -0.2945 -1.1900
 7985SOL    HW331707   5.782   3.812   2.664  0.0053  0.3244  0.0872
 7985SOL    MW431708   5.719   3.863   2.697 -0.3059  0.2037 -0.3191
 7986SOL     OW31709   5.306   1.814   3.309  0.1911  0.4684 -0.2172
 7986SOL    HW231710   5.324   1.741   3.249  1.2837  0.2671  0.3441
 7986SOL    HW331711   5.210   1.822   3.308  0.0944 -0.5826 -0.7373
 7986SOL    MW431712   5.295   1.806   3.301  0.3225  0.3032 -0.2118
 7987SOL     OW31713   3.391   0.735   3.824 -0.0745  0.5564  0.1104
 7987SOL    HW231714   3.401   0.788   3.745  1.2817  0.2029  0.0075
 7987SOL    HW331715   3.481   0.716   3.851 -0.4565  1.5849  2.3815
 7987SOL    MW431716   3.404   0.740   3.817  0.0540  0.6454  0.3965
 7988SOL     OW31717   1.538   4.920   6.340 -0.0414 -0.7236  0.2742
 7988SOL    HW231718   1.536   4.902   6.434  0.9907 -2.4178  0.0004
 7988SOL    HW331719   1.455   4.887   6.308 -0.4766  0.0235  0.5900
 7988SOL    MW431720   1.527   4.914   6.348  0.0373 -0.8486  0.2797
 7989SOL     OW31721   4.789   2.983   1.952 -0.5374  0.4905  0.2494
 7989SOL    HW231722   4.723   2.924   1.989  1.4464 -0.6364  2.2382
 7989SOL    HW331723   4.870   2.932   1.952  0.6884  2.3119 -0.6591
 7989SOL    MW431724   4.791   2.968   1.957 -0.1139  0.5822  0.3919
 7990SOL     OW31725   4.421   1.294   4.396  0.3491 -0.5061 -0.5969
 7990SOL    HW231726   4.457   1.233   4.459 -0.7232 -0.3392  0.2025
 7990SOL    HW331727   4.365   1.241   4.339  1.7871 -0.7686 -1.8474
 7990SOL    MW431728   4.418   1.279   4.397  0.3973 -0.5187 -0.6564
 7991SOL     OW31729   1.126   6.067   0.144  0.2349  0.1266  0.6531
 7991SOL    HW231730   1.189   6.071   0.072  0.2805  1.7526  0.7481
 7991SOL    HW331731   1.127   5.975   0.171  2.0298 -0.0318  0.1904
 7991SOL    MW431732   1.134   6.055   0.138  0.4777  0.3202  0.6046
 7992SOL     OW31733   3.768   5.457   5.199  0.1326  0.5847  0.0017
 7992SOL    HW231734   3.824   5.384   5.226  1.6620  1.7926  0.2448
 7992SOL    HW331735   3.780   5.462   5.104 -0.3082  0.2656 -0.0739
 7992SOL    MW431736   3.777   5.448   5.190  0.2763  0.7020  0.0238
 7993SOL     OW31737   0.513   2.132   4.078  0.1586  0.0853  0.1994
 7993SOL    HW231738   0.593   2.086   4.105  1.1019  0.8662 -1.1309
 7993SOL    HW331739   0.537   2.224   4.080 -0.4144  0.2832 -1.0960
 7993SOL    MW431740   0.527   2.138   4.082  0.2075  0.2145 -0.1471
 7994SOL     OW31741   1.628   3.108   4.397  0.2896  0.4532 -0.2946
 7994SOL    HW231742   1.536   3.131   4.413  0.4314  0.9157 -0.1095
 7994SOL    HW331743   1.666   3.101   4.485  0.5582  0.8048 -0.3822
 7994SOL    MW431744   1.621   3.110   4.411  0.3437  0.5606 -0.2817
 7995SOL     OW31745   2.687   1.298   3.007 -0.2432  0.1712 -0.4532
 7995SOL    HW231746   2.628   1.232   3.044 -1.7913  2.2176  0.9948
 7995SOL    HW331747   2.708   1.266   2.920 -1.5683 -1.8188 -0.0979
 7995SOL    MW431748   2.682   1.285   3.001 -0.6223  0.1787 -0.2153
 7996SOL     OW31749   4.482   3.875   5.746  0.1323 -0.1502 -0.1295
 7996SOL    HW231750   4.439   3.799   5.708  1.4103 -0.5523 -0.8307
 7996SOL    HW331751   4.431   3.950   5.715 -1.9090 -0.7124  1.5796
 7996SOL    MW431752   4.469   3.875   5.737  0.0316 -0.2774  0.0035
 7997SOL     OW31753   5.368   2.754   1.415 -0.0215 -0.2573  0.1479
 7997SOL    HW231754   5.353   2.844   1.387  0.5448 -1.0475 -3.0698
 7997SOL    HW331755   5.286   2.708   1.394  0.0848 -0.7470  0.7454
 7997SOL    MW431756   5.355   2.760   1.409  0.0673 -0.4262 -0.1978
 7998SOL     OW31757   3.281   3.788   6.367  0.1168 -0.9271  0.0703
 7998SOL    HW231758   3.300   3.716   6.426 -0.5185  0.1237  1.6301
 7998SOL    HW331759   3.209   3.836   6.409 -0.3446 -0.1132 -1.5466
 7998SOL    MW431760   3.274   3.785   6.380 -0.0279 -0.6811  0.0628
 7999SOL     OW31761   3.395   4.002   3.604  0.1910 -0.7673  0.0512
 7999SOL    HW231762   3.316   4.026   3.652 -0.1941  0.1477 -1.0195
 7999SOL    HW331763   3.395   3.906   3.606 -2.1234 -0.8905 -1.7668
 7999SOL    MW431764   3.385   3.992   3.611 -0.1652 -0.6629 -0.3299
 8000SOL     OW31765   5.075   2.494   1.850 -0.1416 -0.4008  0.2170
 8000SOL    HW231766   5.119   2.495   1.765  2.1515  0.2589  1.3177
 8000SOL    HW331767   5.147   2.495   1.914 -1.7063 -3.1449  2.2238
 8000SOL    MW431768   5.090   2.494   1.847 -0.0455 -0.6758  0.6270
 8001SOL     OW31769   1.291   0.701   0.402 -0.5712 -0.1485 -0.5637
 8001SOL    HW231770   1.214   0.647   0.420 -0.7740 -0.3538 -1.9225
 8001SOL    HW331771   1.288   0.717   0.308 -0.4007  2.0899 -0.2388
 8001SOL    MW431772   1.281   0.696   0.392 -0.5755  0.1198 -0.7001
 8002SOL     OW31773   0.731   4.927   4.174 -0.1492  0.6756 -0.0199
 8002SOL    HW231774   0.814   4.881   4.181 -0.1591  0.4726 -1.0089
 8002SOL    HW331775   0.736   4.998   4.238  0.0563 -0.3929  1.1937
 8002SOL    MW431776   0.742   4.930   4.183 -0.1234  0.5078  0.0098
 8003SOL     OW31777   4.064   4.093   4.775  0.3766  0.0047 -0.0159
 8003SOL    HW231778   4.153   4.068   4.803  1.0938  1.7317 -0.6156
 8003SOL    HW331779   4.019   4.009   4.763  2.4525 -1.0250 -1.3745
 8003SOL    MW431780   4.070   4.079   4.777  0.7452  0.0967 -0.2743
 8004SOL     OW31781   0.136   4.442   2.116 -0.0123 -0.3672  0.2752
 8004SOL    HW231782   0.051   4.485   2.108 -0.2381 -0.6079  1.1891
 8004SOL    HW331783   0.157   4.412   2.028 -0.6033  0.2062 -0.0654
 8004SOL    MW431784   0.127   4.443   2.104 -0.1201 -0.3233  0.3508
 8005SOL     OW31785   0.692   4.278   3.724 -0.3803 -0.0534  0.5886
 8005SOL    HW231786   0.764   4.308   3.780  0.8781  1.0332 -1.4729
 8005SOL    HW331787   0.658   4.358   3.684 -0.6576 -0.8426 -0.8342
 8005SOL    MW431788   0.697   4.293   3.726 -0.2509 -0.0142  0.1289
 8006SOL     OW31789   0.721   3.465   2.046  1.0265  0.3022  0.2451
 8006SOL    HW231790   0.804   3.436   2.084  0.8740  1.3599  1.4543
 8006SOL    HW331791   0.654   3.437   2.108  0.4728 -0.4043 -0.6447
 8006SOL    MW431792   0.723   3.458   2.059  0.9333  0.3486  0.2872
 8007SOL     OW31793   0.673   3.231   5.439 -0.3986  0.7736 -0.2146
 8007SOL    HW231794   0.699   3.172   5.368 -0.4104 -0.4398  0.7819
 8007SOL    HW331795   0.582   3.207   5.458  0.2322 -0.3105  1.5780
 8007SOL    MW431796   0.664   3.220   5.432 -0.3169  0.4705  0.1534
 8008SOL     OW31797   1.736   5.907   4.639  0.5185 -0.1860  0.0274
 8008SOL    HW231798   1.781   5.910   4.554 -2.3003 -0.0364 -1.5668
 8008SOL    HW331799   1.700   5.819   4.644 -1.3332  0.5225 -0.0874
 8008SOL    MW431800   1.737   5.896   4.629 -0.0977 -0.0728 -0.1981
 8009SOL     OW31801   2.290   2.718   0.488  0.3328  0.3238  0.0374
 8009SOL    HW231802   2.273   2.672   0.570  0.7660 -0.4691 -0.3044
 8009SOL    HW331803   2.376   2.687   0.460 -1.0388 -1.8242 -2.2590
 8009SOL    MW431804   2.299   2.708   0.495  0.2090 -0.0642 -0.3107
 8010SOL     OW31805   0.240   5.182   0.205 -0.3929 -0.0230 -0.6010
 8010SOL    HW231806   0.331   5.154   0.200 -0.8322 -1.6860  0.0714
 8010SOL    HW331807   0.190   5.104   0.183 -1.6843  0.4671  0.4519
 8010SOL    MW431808   0.245   5.168   0.201 -0.6213 -0.1777 -0.3734
 8011SOL     OW31809   5.391   5.698   2.876 -0.0643 -0.2602  0.1360
 8011SOL    HW231810   5.462   5.733   2.930 -0.4386  1.3724 -0.3544
 8011SOL    HW331811   5.394   5.604   2.890  1.8222 -0.1770  0.5757
 8011SOL    MW431812   5.400   5.690   2.885  0.1352 -0.0338  0.1293
 8012SOL     OW31813   0.661   0.877   6.120 -0.7563  0.1016  0.3175
 8012SOL    HW231814   0.600   0.804   6.111 -0.7777  0.0410  0.9308
 8012SOL    HW331815   0.674   0.908   6.030 -1.7640  0.1856  0.1900
 8012SOL    MW431816   0.655   0.871   6.107 -0.8921  0.1047  0.3816
 8013SOL     OW31817   0.075   3.631   2.462 -0.4076  0.0570 -0.5359
 8013SOL    HW231818   0.046   3.722   2.470  0.8852  0.3488  1.8169
 8013SOL    HW331819   0.167   3.638   2.435 -0.5321 -0.5891 -1.1376
 8013SOL    MW431820   0.084   3.644   2.459 -0.2534  0.0103 -0.3049
 8014SOL     OW31821   0.913   2.383   6.150  0.5333 -0.3066  0.2968
 8014SOL    HW231822   0.888   2.434   6.074 -0.2244  1.7150  1.8145
 8014SOL    HW331823   0.840   2.323   6.164  0.5477 -0.4873 -0.3589
 8014SOL    MW431824   0.900   2.382   6.142  0.4353 -0.0637  0.4105
 8015SOL     OW31825   5.887   3.181   0.433  0.1305 -0.6076 -0.1875
 8015SOL    HW231826   5.972   3.137   0.425 -0.3749 -1.4367 -1.1453
 8015SOL    HW331827   5.840   3.129   0.499  0.2337 -0.3442  0.0979
 8015SOL    MW431828   5.892   3.168   0.441  0.0774 -0.6822 -0.2762
 8016SOL     OW31829   4.648   1.510   6.151  0.3820 -0.0041  0.0414
 8016SOL    HW231830   4.742   1.527   6.159  0.4542 -0.3843 -0.0066
 8016SOL    HW331831   4.607   1.595   6.171  0.6736 -0.1559  1.4302
 8016SOL    MW431832   4.655   1.524   6.155  0.4300 -0.0743  0.2183
 8017SOL     OW31833   2.304   5.408   2.051 -0.2480 -0.6318  0.7207
 8017SOL    HW231834   2.337   5.369   1.970  0.0729 -0.6699  0.8647
 8017SOL    HW331835   2.262   5.336   2.097 -3.0965 -0.0163 -0.7281
 8017SOL    MW431836   2.303   5.393   2.046 -0.5815 -0.5556  0.5486
 8018SOL     OW31837   3.321   1.738   5.738 -0.6212 -0.3882  0.1172
 8018SOL    HW231838   3.231   1.714   5.761 -0.8481  0.4596  0.1338
 8018SOL    HW331839   3.351   1.791   5.812 -1.0411  1.5923 -1.0618
 8018SOL    MW431840   3.313   1.742   5.751 -0.7066 -0.0150 -0.0362
 8019SOL     OW31841   3.626   1.142   4.882 -0.5487 -0.3611  0.3395
 8019SOL    HW231842   3.651   1.059   4.841  0.7004  0.4519 -0.6183
 8019SOL    HW331843   3.643   1.208   4.815  1.0891  0.9723  1.9712
 8019SOL    MW431844   3.631   1.140   4.868 -0.1678 -0.0779  0.4284
 8020SOL     OW31845   5.713   5.095   2.498 -0.1733 -0.1966  0.2346
 8020SOL    HW231846   5.683   5.183   2.473 -0.4807 -0.2164  0.5134
 8020SOL    HW331847   5.749   5.107   2.586  3.5930  0.4694 -1.1871
 8020SOL    MW431848   5.714   5.108   2.507  0.2831 -0.1113  0.0838
 8021SOL     OW31849   1.892   3.724   3.915  0.0507  0.2543  0.0707
 8021SOL    HW231850   1.806   3.697   3.884 -0.4258 -0.8409  2.1665
 8021SOL    HW331851   1.915   3.798   3.860 -1.0108 -1.0952 -2.3296
 8021SOL    MW431852   1.884   3.730   3.904 -0.1522 -0.0683  0.0305
 8022SOL     OW31853   5.992   1.560   3.396  0.9219 -0.0224  0.1468
 8022SOL    HW231854   6.044   1.639   3.408  2.8357 -0.9760 -1.3715
 8022SOL    HW331855   5.942   1.576   3.315 -0.8683  0.6889  1.3281
 8022SOL    MW431856   5.992   1.572   3.387  0.9382 -0.0544  0.1023
 8023SOL     OW31857   0.096   4.966   0.073  0.1664  0.6145  0.0658
 8023SOL    HW231858   0.059   4.986  -0.013 -0.1324 -0.7363 -0.1374
 8023SOL    HW331859   0.056   4.882   0.098  0.7426  0.6628  1.2339
 8023SOL    MW431860   0.086   4.958   0.065  0.2030  0.4426  0.1931
 8024SOL     OW31861   3.843   1.472   4.974  0.3783 -0.2267  0.0128
 8024SOL    HW231862   3.748   1.480   4.979  0.3007 -0.2818 -1.1058
 8024SOL    HW331863   3.861   1.457   4.881  1.5793  1.2413 -0.0317
 8024SOL    MW431864   3.833   1.471   4.962  0.5265 -0.0403 -0.1407
 8025SOL     OW31865   0.502   2.874   4.586 -0.0398  0.2498  0.1951
 8025SOL    HW231866   0.418   2.874   4.632  0.6753 -0.1485  1.5395
 8025SOL    HW331867   0.512   2.784   4.554 -0.9601  0.7425 -1.6005
 8025SOL    MW431868   0.492   2.862   4.588 -0.0669  0.2623  0.1355
 8026SOL     OW31869   2.111   0.169   5.364  0.4123 -0.1521  0.4907
 8026SOL    HW231870   2.113   0.199   5.455 -0.5699 -2.0083  1.1656
 8026SOL    HW331871   2.196   0.127   5.351  0.3508 -0.3470  0.7187
 8026SOL    MW431872   2.123   0.168   5.374  0.2746 -0.4228  0.6098
 8027SOL     OW31873   1.919   2.085   2.718 -0.4344  0.2790  0.1401
 8027SOL    HW231874   1.977   2.160   2.736  0.4589 -0.1297 -0.9044
 8027SOL    HW331875   1.912   2.083   2.623 -1.7463 -0.0252  0.2289
 8027SOL    MW431876   1.926   2.095   2.708 -0.4897  0.1849  0.0140
 8028SOL     OW31877   4.193   3.287   1.718 -0.5517  0.1753 -0.1598
 8028SOL    HW231878   4.102   3.259   1.726  0.1561 -1.9294  1.6023
 8028SOL    HW331879   4.240   3.208   1.691  0.9270  0.8855  0.2199
 8028SOL    MW431880   4.187   3.273   1.715 -0.2632 -0.0087  0.1228
 8029SOL     OW31881   0.083   4.271   5.335  1.0178  0.5731  0.3413
 8029SOL    HW231882   0.165   4.302   5.372  1.0092  0.0527  0.8110
 8029SOL    HW331883   0.108   4.197   5.279  1.1297  1.8329 -1.3769
 8029SOL    MW431884   0.097   4.265   5.332  1.0314  0.6707  0.1766
 8030SOL     OW31885   3.932   4.212   1.963  0.5359 -0.3074 -0.7934
 8030SOL    HW231886   3.856   4.269   1.964 -0.0778 -1.0464 -2.0845
 8030SOL    HW331887   3.909   4.142   1.902  2.1522 -0.6814 -1.0423
 8030SOL    MW431888   3.919   4.210   1.955  0.6682 -0.4542 -0.9966
 8031SOL     OW31889   5.551   5.672   5.684  0.1408  0.1710  0.8582
 8031SOL    HW231890   5.573   5.625   5.764  2.4731 -0.2836  0.0391
 8031SOL    HW331891   5.612   5.637   5.618 -0.2807  1.9846 -0.5945
 8031SOL    MW431892   5.562   5.661   5.686  0.3929  0.3503  0.5585
 8032SOL     OW31893   5.831   5.647   4.121 -0.2196  0.5118  0.3068
 8032SOL    HW231894   5.767   5.650   4.191 -0.3211  1.0958  0.1891
 8032SOL    HW331895   5.780   5.650   4.041 -0.1397 -0.7548  0.1905
 8032SOL    MW431896   5.816   5.648   4.120 -0.2224  0.4218  0.2759
 8033SOL     OW31897   1.820   0.281   5.512  0.0027 -0.2003 -0.3959
 8033SOL    HW231898   1.799   0.305   5.422  1.1215 -0.9282 -0.8626
 8033SOL    HW331899   1.843   0.188   5.509 -0.7153 -0.4453  0.7800
 8033SOL    MW431900   1.820   0.272   5.500  0.0556 -0.3287 -0.3024
 8034SOL     OW31901   1.512   3.935   4.969  0.5607  0.7029  0.2953
 8034SOL    HW231902   1.460   3.867   4.926  1.0971 -0.0865  0.8761
 8034SOL    HW331903   1.576   3.962   4.903  0.5592  0.4176  0.1773
 8034SOL    MW431904   1.514   3.930   4.955  0.6313  0.5611  0.3563
 8035SOL     OW31905   1.074   2.100   6.306  0.1082  0.0951  0.1674
 8035SOL    HW231906   1.059   2.149   6.387  0.6269  0.0566  0.2915
 8035SOL    HW331907   1.104   2.014   6.335 -1.0262 -0.3856 -0.0479
 8035SOL    MW431908   1.076   2.095   6.321  0.0270  0.0266  0.1553
 8036SOL     OW31909   0.208   5.437   2.547  0.5152 -0.1073  0.1739
 8036SOL    HW231910   0.135   5.441   2.485 -0.5240 -1.5844  1.2485
 8036SOL    HW331911   0.286   5.433   2.491 -0.2580  0.6157 -1.0066
 8036SOL    MW431912   0.209   5.437   2.531  0.2761 -0.2068  0.1599
 8037SOL     OW31913   4.217   5.795   1.219  0.3192  0.1276  0.3625
 8037SOL    HW231914   4.192   5.848   1.295  0.6179  0.3354  0.3168
 8037SOL    HW331915   4.136   5.790   1.167  0.2949  0.5717  0.3494
 8037SOL    MW431916   4.203   5.801   1.222  0.3554  0.2136  0.3547
 8038SOL     OW31917   3.991   5.588   4.079 -0.3404 -0.2434  0.6354
 8038SOL    HW231918   3.922   5.649   4.104  1.5880  2.4968 -0.2074
 8038SOL    HW331919   4.046   5.638   4.018  1.8003 -2.6126  0.4544
 8038SOL    MW431920   3.989   5.603   4.074  0.1965 -0.1945  0.5003
 8039SOL     OW31921   4.310   4.940   4.964  0.0365 -0.4882  0.1980
 8039SOL    HW231922   4.306   4.853   4.925  1.8446  0.4089 -2.1921
 8039SOL    HW331923   4.390   4.979   4.929 -1.2982  2.5789  0.2435
 8039SOL    MW431924   4.320   4.934   4.954  0.0990  0.0348 -0.1113
 8040SOL     OW31925   2.854   1.988   5.340  0.2802  0.5915 -0.6975
 8040SOL    HW231926   2.762   2.013   5.343  0.1979  0.4728 -1.7467
 8040SOL    HW331927   2.871   1.948   5.425 -1.7897 -3.3146 -1.8681
 8040SOL    MW431928   2.844   1.986   5.351 -0.0038  0.0605 -0.9904
 8041SOL     OW31929   4.930   0.482   5.433  0.1872 -0.1162  0.0015
 8041SOL    HW231930   4.950   0.575   5.438  0.2926 -0.1175 -0.3762
 8041SOL    HW331931   4.872   0.466   5.508 -0.6559  0.4688 -0.5006
 8041SOL    MW431932   4.925   0.492   5.443  0.0899 -0.0392 -0.1145
 8042SOL     OW31933   0.425   2.165   5.786 -0.2494 -0.0329  0.8424
 8042SOL    HW231934   0.459   2.087   5.830  1.0308  1.5116  2.7720
 8042SOL    HW331935   0.374   2.211   5.854  1.1958  2.0800  0.6049
 8042SOL    MW431936   0.423   2.161   5.801  0.1102  0.4497  1.0656
 8043SOL     OW31937   4.248   1.669   1.991 -0.7562  0.1968  0.0046
 8043SOL    HW231938   4.283   1.714   2.067  0.2240 -0.7399  0.1313
 8043SOL    HW331939   4.277   1.722   1.916  0.2182 -0.0965  0.1633
 8043SOL    MW431940   4.257   1.682   1.991 -0.4983  0.0345  0.0422
 8044SOL     OW31941   0.746   5.514   0.388  0.1335  0.6541 -0.2585
 8044SOL    HW231942   0.718   5.539   0.477  0.6881  0.3179  0.0175
 8044SOL    HW331943   0.828   5.466   0.402 -0.3793 -0.4103 -0.8662
 8044SOL    MW431944   0.753   5.511   0.402  0.1390  0.4693 -0.3023
 8045SOL     OW31945   1.981   3.104   4.311  0.1639 -0.4476  0.9721
 8045SOL    HW231946   2.055   3.105   4.251  0.0417 -0.5138  0.8169
 8045SOL    HW331947   1.911   3.148   4.263  0.1512 -0.2376  1.1824
 8045SOL    MW431948   1.981   3.110   4.297  0.1461 -0.4286  0.9793
 8046SOL     OW31949   2.916   2.813   0.130 -0.0873 -0.2217 -0.4310
 8046SOL    HW231950   2.918   2.808   0.034 -1.6401 -0.4707 -0.4779
 8046SOL    HW331951   2.921   2.907   0.148  2.8342 -0.2569 -0.6047
 8046SOL    MW431952   2.917   2.825   0.120  0.0933 -0.2592 -0.4601
 8047SOL     OW31953   4.266   5.956   4.841  0.0047 -0.2285 -0.4578
 8047SOL    HW231954   4.251   5.906   4.760 -0.7401 -0.0737 -0.4212
 8047SOL    HW331955   4.187   5.942   4.893 -0.2054  0.9433 -0.4249
 8047SOL    MW431956   4.254   5.948   4.837 -0.1213 -0.0535 -0.4486
 8048SOL     OW31957   5.797   5.178   0.973  0.0424  0.8581 -0.6386
 8048SOL    HW231958   5.804   5.188   0.878  1.3847  0.0317 -0.6393
 8048SOL    HW331959   5.886   5.163   1.003 -0.3109  1.4548  0.8179
 8048SOL    MW431960   5.809   5.178   0.964  0.1729  0.8278 -0.4465
 8049SOL     OW31961   2.608   2.850   1.475 -0.0953  0.2121  0.5070
 8049SOL    HW231962   2.596   2.922   1.414  1.1356 -0.5152 -0.6477
 8049SOL    HW331963   2.693   2.866   1.516  0.3186 -0.6931  0.0432
 8049SOL    MW431964   2.617   2.861   1.472  0.1217 -0.0033  0.2935
 8050SOL     OW31965   5.955   5.364   1.644  0.0876  0.8044 -1.4527
 8050SOL    HW231966   5.894   5.404   1.705  0.6042  1.0654 -1.0998
 8050SOL    HW331967   5.997   5.439   1.601  0.9441  0.6426 -0.9052
 8050SOL    MW431968   5.952   5.379   1.646  0.2688  0.8175 -1.3339
 8051SOL     OW31969   0.484   0.905   5.342  0.0767  0.5173 -0.2558
 8051SOL    HW231970   0.410   0.903   5.282  0.0315  0.2638 -0.1902
 8051SOL    HW331971   0.450   0.868   5.424  0.5263 -0.4600 -0.4972
 8051SOL    MW431972   0.470   0.900   5.345  0.1301  0.3549 -0.2790
 8052SOL     OW31973   0.342   6.072   4.346  0.0997 -0.0004 -0.6048
 8052SOL    HW231974   0.276   6.066   4.416  0.0234 -4.5944 -0.8301
 8052SOL    HW331975   0.292   6.101   4.269 -0.4016  2.1475  0.4402
 8052SOL    MW431976   0.327   6.075   4.345  0.0235 -0.3231 -0.4967
 8053SOL     OW31977   3.994   3.568   2.124 -0.4840  0.4321 -0.7526
 8053SOL    HW231978   3.964   3.599   2.039  2.7814 -1.6601 -2.8965
 8053SOL    HW331979   4.084   3.540   2.109 -0.7988 -3.2469  2.5216
 8053SOL    MW431980   4.002   3.568   2.111 -0.0947 -0.3294 -0.6035
 8054SOL     OW31981   2.551   3.152   0.968 -0.4973 -0.0662  0.5728
 8054SOL    HW231982   2.549   3.086   1.037 -0.9574 -0.9940 -0.2945
 8054SOL    HW331983   2.459   3.164   0.944 -0.2101 -1.4568 -1.4207
 8054SOL    MW431984   2.538   3.145   0.974 -0.5201 -0.3721  0.1954
 8055SOL     OW31985   3.160   0.012   2.076 -0.3283  0.0649 -0.0721
 8055SOL    HW231986   3.128  -0.069   2.115  0.7261 -0.2497  0.1796
 8055SOL    HW331987   3.099   0.030   2.004 -1.3325 -0.2316  0.6804
 8055SOL    MW431988   3.148   0.004   2.072 -0.3217 -0.0157  0.0604
 8056SOL     OW31989   4.416   3.217   1.106  0.6723  0.6769  0.2955
 8056SOL    HW231990   4.463   3.208   1.023  1.6176  0.1688  0.8636
 8056SOL    HW331991   4.374   3.132   1.119 -1.6483  1.5538 -0.8956
 8056SOL    MW431992   4.416   3.204   1.097  0.4909  0.7255  0.2133
 8057SOL     OW31993   1.920   5.112   5.518 -0.0255  0.4015 -0.3060
 8057SOL    HW231994   1.947   5.137   5.606  1.6055  1.3846 -1.0333
 8057SOL    HW331995   1.824   5.107   5.522  0.0734 -2.5834  2.2440
 8057SOL    MW431996   1.911   5.114   5.530  0.2028  0.1374 -0.0655
 8058SOL     OW31997   3.013   2.804   3.418 -0.2777 -0.3955  0.3009
 8058SOL    HW231998   3.011   2.777   3.326  1.9719 -1.0153  0.3639
 8058SOL    HW331999   3.071   2.740   3.460 -0.1537  0.6769  1.8535
 8058SOL    MW432000   3.021   2.792   3.411  0.0355 -0.3358  0.5141
 8059SOL     OW32001   4.833   3.485   0.571  0.1101 -0.4044  0.5427
 8059SOL    HW232002   4.754   3.443   0.605 -1.8071  1.4965 -1.2769
 8059SOL    HW332003   4.872   3.419   0.513 -1.8909 -0.3735 -0.9434
 8059SOL    MW432004   4.828   3.471   0.568 -0.4069 -0.1495  0.1065
 8060SOL     OW32005   4.834   5.091   1.739 -0.5281  0.2988  0.0222
 8060SOL    HW232006   4.928   5.096   1.756 -0.6708 -0.0590  0.9329
 8060SOL    HW332007   4.796   5.065   1.822 -1.4632  0.6800 -0.2781
 8060SOL    MW432008   4.842   5.089   1.752 -0.6703  0.3019  0.1028
 8061SOL     OW32009   3.160   0.068   5.692  0.0286  0.1174  0.2631
 8061SOL    HW232010   3.131   0.051   5.602 -1.5091 -1.3959  0.9716
 8061SOL    HW332011   3.159  -0.018   5.734  2.9918  0.4228  1.1538
 8061SOL    MW432012   3.156   0.054   5.686  0.2167 -0.0420  0.4741
 8062SOL     OW32013   4.185   5.780   5.242  0.1798  0.7142  0.0340
 8062SOL    HW232014   4.277   5.751   5.243 -0.6145 -2.1012  0.0146
 8062SOL    HW332015   4.170   5.813   5.331  0.4157 -1.8503  1.1124
 8062SOL    MW432016   4.195   5.780   5.254  0.1062  0.0044  0.1737
 8063SOL     OW32017   1.099   3.861   2.000  1.0120 -0.6688  0.0096
 8063SOL    HW232018   1.146   3.928   1.951  0.8886 -0.5467  0.0578
 8063SOL    HW332019   1.130   3.869   2.090  0.6866 -0.3920  0.1012
 8063SOL    MW432020   1.109   3.871   2.005  0.9528 -0.6162  0.0280
 8064SOL     OW32021   1.865   2.252   1.982 -0.0488  0.7758  0.6385
 8064SOL    HW232022   1.910   2.185   1.931  0.5705  1.3219  0.4614
 8064SOL    HW332023   1.817   2.304   1.917  1.0454  1.7096  0.5294
 8064SOL    MW432024   1.865   2.250   1.967  0.1773  0.9711  0.6008
 8065SOL     OW32025   4.758   0.499   6.105 -0.0472 -0.3506  0.5181
 8065SOL    HW232026   4.732   0.411   6.081  1.5509 -0.3518 -1.4731
 8065SOL    HW332027   4.686   0.532   6.158 -0.8524 -2.6853  0.9671
 8065SOL    MW432028   4.745   0.492   6.109  0.0574 -0.6588  0.3147
 8066SOL     OW32029   2.163   0.878   3.204 -0.1913  0.3464 -0.3120
 8066SOL    HW232030   2.108   0.808   3.239  3.8542 -1.7483  2.6724
 8066SOL    HW332031   2.143   0.954   3.260 -0.3828 -0.2499  0.4437
 8066SOL    MW432032   2.153   0.879   3.216  0.3172 -0.0087  0.1814
 8067SOL     OW32033   1.829   0.265   4.906 -0.0115  0.1302 -0.0988
 8067SOL    HW232034   1.791   0.189   4.950 -1.2632  0.9606  0.2794
 8067SOL    HW332035   1.818   0.337   4.967 -0.0459  0.9049 -0.9929
 8067SOL    MW432036   1.823   0.264   4.919 -0.1812  0.3419 -0.1669
 8068SOL     OW32037   3.256   4.082   0.156 -0.1421 -0.3252  0.8147
 8068SOL    HW232038   3.264   4.128   0.072 -0.2527  0.4077  1.1999
 8068SOL    HW332039   3.345   4.078   0.190  0.1598 -2.0481 -0.0627
 8068SOL    MW432040   3.269   4.087   0.149 -0.1169 -0.4558  0.7497
 8069SOL     OW32041   4.126   5.860   5.655 -0.0040  0.2562 -0.4211
 8069SOL    HW232042   4.163   5.834   5.739  1.3477  0.4118 -0.9407
 8069SOL    HW332043   4.098   5.778   5.615  0.7277 -0.0032 -0.4307
 8069SOL    MW432044   4.127   5.846   5.661  0.2709  0.2425 -0.4909
 8070SOL     OW32045   2.215   1.268   5.232  0.7780  0.8271  0.4353
 8070SOL    HW232046   2.154   1.341   5.222  0.3967  0.3309 -1.3146
 8070SOL    HW332047   2.195   1.231   5.317 -1.5663  0.5515 -0.1635
 8070SOL    MW432048   2.204   1.273   5.242  0.4184  0.7253  0.1254
 8071SOL     OW32049   5.354   6.205   4.623 -0.0789  0.0559  0.1619
 8071SOL    HW232050   5.383   6.187   4.713 -1.5417  0.6503  0.7837
 8071SOL    HW332051   5.283   6.143   4.608 -1.2162  1.2930  0.1959
 8071SOL    MW432052   5.348   6.195   4.633 -0.4219  0.2975  0.2485
 8072SOL     OW32053   1.976   2.835   4.369 -0.0820 -0.2188 -0.2072
 8072SOL    HW232054   1.930   2.833   4.453 -0.2529 -0.7813 -0.3143
 8072SOL    HW332055   1.976   2.928   4.345 -1.7892 -0.2827 -0.5540
 8072SOL    MW432056   1.970   2.847   4.377 -0.3298 -0.3014 -0.2671
 8073SOL     OW32057   0.196   5.886   3.950  0.2353  0.0873  0.2019
 8073SOL    HW232058   0.215   5.794   3.965  0.0896 -0.0236 -0.2708
 8073SOL    HW332059   0.137   5.887   3.874  1.8603  0.6772 -1.1166
 8073SOL    MW432060   0.190   5.874   3.942  0.4304  0.1505 -0.0345
 8074SOL     OW32061   5.169   1.512   5.157 -0.2785  0.5412 -0.2203
 8074SOL    HW232062   5.113   1.590   5.153 -1.5532 -0.4008 -1.9453
 8074SOL    HW332063   5.257   1.546   5.142 -0.7747  1.6882 -0.7336
 8074SOL    MW432064   5.173   1.527   5.155 -0.5122  0.5683 -0.5156
 8075SOL     OW32065   0.363   1.581   1.845  0.0591 -0.2291 -0.1705
 8075SOL    HW232066   0.274   1.611   1.864  0.0703 -0.8203  0.8790
 8075SOL    HW332067   0.363   1.564   1.751 -1.0273 -0.5315 -0.1251
 8075SOL    MW432068   0.351   1.583   1.836 -0.0828 -0.3470 -0.0261
 8076SOL     OW32069   5.203   2.572   3.903 -0.2601 -0.1181 -0.1712
 8076SOL    HW232070   5.170   2.488   3.873  0.1593 -0.7320  1.0056
 8076SOL    HW332071   5.169   2.581   3.992 -0.1940  0.8989 -0.2298
 8076SOL    MW432072   5.194   2.562   3.911 -0.1961 -0.0649 -0.0237
 8077SOL     OW32073   1.380   1.715   6.220 -0.0353 -0.3992 -0.1845
 8077SOL    HW232074   1.403   1.715   6.128 -1.2255 -1.0796 -0.5052
 8077SOL    HW332075   1.343   1.628   6.235 -0.8500  0.0750  0.6684
 8077SOL    MW432076   1.378   1.703   6.210 -0.2999 -0.4264 -0.1143
 8078SOL     OW32077   6.321   0.714   2.806 -0.1935 -0.6608 -0.4277
 8078SOL    HW232078   6.414   0.701   2.787  0.3886  0.4216  1.4127
 8078SOL    HW332079   6.292   0.629   2.840  0.7669 -0.3806  1.2173
 8078SOL    MW432080   6.330   0.701   2.808  0.0100 -0.4810  0.0321
 8079SOL     OW32081   5.645   3.657   4.284  0.0039 -0.5800  0.6212
 8079SOL    HW232082   5.658   3.562   4.288  0.8120 -0.5956 -1.2583
 8079SOL    HW332083   5.707   3.687   4.218  0.7938  1.4903  2.1996
 8079SOL    MW432084   5.655   3.648   4.276  0.2148 -0.3089  0.5815
 8080SOL     OW32085   1.645   3.116   5.049 -0.3423 -0.4198 -0.2791
 8080SOL    HW232086   1.654   3.176   5.123  2.3482  0.3915 -1.1416
 8080SOL    HW332087   1.572   3.059   5.073 -0.1722  0.4080  2.5734
 8080SOL    MW432088   1.637   3.116   5.062  0.0351 -0.2035 -0.0165
 8081SOL     OW32089   0.560   2.223   3.803 -0.2818  0.1948 -0.5578
 8081SOL    HW232090   0.508   2.165   3.747  0.8411 -1.1643 -0.2360
 8081SOL    HW332091   0.559   2.182   3.889  1.2573  0.1666 -0.5248
 8081SOL    MW432092   0.553   2.210   3.807  0.0694  0.0118 -0.5110
 8082SOL     OW32093   1.639   3.565   4.554 -0.3370  0.0490 -0.4354
 8082SOL    HW232094   1.704   3.500   4.579  0.7424  0.8828 -1.0146
 8082SOL    HW332095   1.680   3.649   4.572 -2.1293  0.6154  1.3947
 8082SOL    MW432096   1.653   3.568   4.560 -0.4311  0.2337 -0.2703
 8083SOL     OW32097   1.278   5.398   5.956  0.0789  0.2204  0.3263
 8083SOL    HW232098   1.262   5.316   5.909 -0.8541  1.2813 -1.2981
 8083SOL    HW332099   1.192   5.425   5.988  0.2039  1.0521 -0.0083
 8083SOL    MW432100   1.265   5.391   5.954 -0.0277  0.4701  0.0678
 8084SOL     OW32101   0.036   5.465   0.697 -0.1329  0.1510 -0.2193
 8084SOL    HW232102   0.029   5.504   0.609  0.8767 -2.5144 -1.6102
 8084SOL    HW332103   0.130   5.460   0.713 -0.3135  1.5579  1.5542
 8084SOL    MW432104   0.047   5.469   0.687 -0.0235 -0.0151 -0.1688
 8085SOL     OW32105   4.867   3.698   0.140 -0.8555  0.0319 -0.3064
 8085SOL    HW232106   4.826   3.732   0.219  0.2927  1.9352 -0.4780
 8085SOL    HW332107   4.908   3.774   0.099  0.3267 -1.2697 -1.6530
 8085SOL    MW432108   4.867   3.712   0.145 -0.5480  0.1113 -0.5067
 8086SOL     OW32109   2.013   0.668   4.371 -0.4606 -0.2153 -0.0049
 8086SOL    HW232110   2.067   0.719   4.431 -0.3998  0.5695 -0.7106
 8086SOL    HW332111   1.998   0.584   4.417  1.8149 -0.6798 -0.0215
 8086SOL    MW432112   2.018   0.663   4.385 -0.1523 -0.1731 -0.1002
 8087SOL     OW32113   0.389   1.099   2.743 -0.2428  0.1059  0.5066
 8087SOL    HW232114   0.481   1.076   2.748  0.1489  1.5263  0.3046
 8087SOL    HW332115   0.387   1.180   2.691 -1.4703  0.6859  1.4022
 8087SOL    MW432116   0.401   1.107   2.737 -0.3531  0.3698  0.5981
 8088SOL     OW32117   2.484   2.339   6.351  0.1246  0.1835  0.0790
 8088SOL    HW232118   2.494   2.411   6.414  0.0167 -0.2637  0.6171
 8088SOL    HW332119   2.482   2.260   6.405 -1.2948 -0.1275 -0.3848
 8088SOL    MW432120   2.485   2.338   6.367 -0.0769  0.0835  0.0888
 8089SOL     OW32121   1.616   5.096   5.505 -0.0245 -0.4791 -0.2530
 8089SOL    HW232122   1.627   5.151   5.427  3.2367 -0.6588 -0.0390
 8089SOL    HW332123   1.584   5.013   5.471  0.8982 -0.4011 -1.3714
 8089SOL    MW432124   1.613   5.093   5.490  0.5275 -0.4925 -0.3724
 8090SOL     OW32125   0.155   0.592   2.363 -0.1050 -1.3240  0.2235
 8090SOL    HW232126   0.066   0.580   2.331  0.2009 -1.6726 -0.5228
 8090SOL    HW332127   0.173   0.685   2.350 -0.2446 -1.3187  0.0728
 8090SOL    MW432128   0.145   0.603   2.357 -0.0831 -1.3693  0.1052
 8091SOL     OW32129   0.319   4.234   0.798  0.0170  0.1337 -0.1255
 8091SOL    HW232130   0.285   4.163   0.743 -0.4358 -0.9143  1.4524
 8091SOL    HW332131   0.281   4.314   0.760  0.5798 -0.4281 -1.9626
 8091SOL    MW432132   0.310   4.235   0.785  0.0315 -0.0787 -0.1597
 8092SOL     OW32133   2.705   1.621   1.599 -0.0429  0.0122 -0.3257
 8092SOL    HW232134   2.717   1.706   1.640 -5.0497 -0.0053  1.9418
 8092SOL    HW332135   2.745   1.558   1.659  1.0674  0.5167 -0.5132
 8092SOL    MW432136   2.712   1.624   1.612 -0.5570  0.0765 -0.0513
 8093SOL     OW32137   5.818   4.822   4.553 -0.0945 -0.0861  0.0898
 8093SOL    HW232138   5.753   4.763   4.592  0.1656 -0.1010  0.5066
 8093SOL    HW332139   5.859   4.769   4.484 -2.0111  0.6144 -1.6748
 8093SOL    MW432140   5.815   4.807   4.549 -0.3131  0.0043 -0.0880
 8094SOL     OW32141   4.223   5.464   1.601 -0.0270  0.4801 -0.1784
 8094SOL    HW232142   4.173   5.487   1.523 -1.1706  3.2844  1.2559
 8094SOL    HW332143   4.202   5.372   1.616 -2.1383  0.6696 -1.4992
 8094SOL    MW432144   4.214   5.455   1.593 -0.4565  0.8751 -0.1634
 8095SOL     OW32145   4.965   2.052   3.804  0.6809 -0.5019  0.4607
 8095SOL    HW232146   4.897   2.016   3.861 -0.6523  0.7265 -0.2696
 8095SOL    HW332147   4.917   2.088   3.729  2.0193  1.2968  0.3831
 8095SOL    MW432148   4.950   2.052   3.802  0.6816 -0.1025  0.3541
 8096SOL     OW32149   1.172   4.753   1.232  0.4699  0.9233  0.0815
 8096SOL    HW232150   1.127   4.731   1.313  1.2641  1.3656  0.6607
 8096SOL    HW332151   1.248   4.804   1.260  0.7708  1.0607 -0.9398
 8096SOL    MW432152   1.176   4.756   1.246  0.6144  0.9998  0.0232
 8097SOL     OW32153   2.652   5.669   2.347  0.4397  0.3555 -0.0187
 8097SOL    HW232154   2.631   5.751   2.392 -0.8026 -0.1606  0.3907
 8097SOL    HW332155   2.671   5.696   2.257 -0.6197  1.0434 -0.0556
 8097SOL    MW432156   2.652   5.683   2.341  0.1360  0.3782  0.0305
 8098SOL     OW32157   2.628   6.040   5.500 -0.1636 -0.4486 -0.1376
 8098SOL    HW232158   2.566   6.103   5.538  0.3044 -0.4441  0.6520
 8098SOL    HW332159   2.698   6.094   5.463 -0.0352 -0.4815  0.0531
 8098SOL    MW432160   2.629   6.055   5.500 -0.0849 -0.4523 -0.0083
 8099SOL     OW32161   5.139   2.580   1.338 -0.2915 -0.1525  0.4691
 8099SOL    HW232162   5.074   2.633   1.385  0.1170  0.7668  0.0268
 8099SOL    HW332163   5.088   2.530   1.275 -0.6925 -0.3160  0.9195
 8099SOL    MW432164   5.124   2.581   1.336 -0.2905 -0.0528  0.4702
 8100SOL     OW32165   2.404   0.365   1.237  0.1752  0.4304  0.6579
 8100SOL    HW232166   2.485   0.363   1.186 -0.1853  1.2058  0.0182
 8100SOL    HW332167   2.346   0.423   1.187 -0.4800  0.5578  1.5385
 8100SOL    MW432168   2.407   0.373   1.224  0.0412  0.5495  0.6897
 8101SOL     OW32169   2.949   3.817   4.425  0.2678 -0.6659  0.6080
 8101SOL    HW232170   3.014   3.813   4.355 -0.9019 -0.1052 -0.5585
 8101SOL    HW332171   2.952   3.731   4.467  1.4637 -0.7757  0.3176
 8101SOL    MW432172   2.958   3.805   4.421  0.2713 -0.6064  0.4158
 8102SOL     OW32173   0.434   4.247   3.854  0.5637 -0.1472 -0.8363
 8102SOL    HW232174   0.504   4.209   3.800 -0.4081 -1.2417 -1.3687
 8102SOL    HW332175   0.476   4.264   3.938  1.0060 -2.7408 -0.4548
 8102SOL    MW432176   0.449   4.244   3.858  0.4939 -0.6338 -0.8562
 8103SOL     OW32177   2.657   0.461   5.089  0.5431  0.3199  0.3996
 8103SOL    HW232178   2.699   0.496   5.168  1.1848  0.5048 -0.0133
 8103SOL    HW332179   2.729   0.449   5.027 -0.1111  1.5017 -0.6408
 8103SOL    MW432180   2.672   0.464   5.092  0.5414  0.5002  0.2078
 8104SOL     OW32181   3.388   5.020   3.037 -0.0675  0.3326  0.1548
 8104SOL    HW232182   3.483   5.016   3.048  0.3765  1.5134 -2.4336
 8104SOL    HW332183   3.366   5.112   3.053 -0.4829  0.4219 -0.8408
 8104SOL    MW432184   3.398   5.032   3.041 -0.0637  0.5002 -0.3180
 8105SOL     OW32185   5.056   1.622   4.839 -0.4049  0.2049 -0.4640
 8105SOL    HW232186   4.976   1.588   4.879 -1.0887  1.8793 -0.3009
 8105SOL    HW332187   5.035   1.713   4.817  1.1110  0.3717 -1.4136
 8105SOL    MW432188   5.043   1.630   4.841 -0.2951  0.4478 -0.5678
 8106SOL     OW32189   0.953   4.182   0.332  0.4137  0.3365 -0.2165
 8106SOL    HW232190   0.958   4.277   0.342 -0.0699  0.3377  0.0308
 8106SOL    HW332191   0.915   4.168   0.246 -1.5242  0.4022  0.5833
 8106SOL    MW432192   0.949   4.192   0.322  0.0942  0.3453 -0.0784
 8107SOL     OW32193   3.918   5.395   6.330 -0.2291  0.1118  0.1650
 8107SOL    HW232194   3.858   5.325   6.302  1.1190 -0.0555 -2.6579
 8107SOL    HW332195   3.904   5.465   6.267  0.5750  1.1903  1.1456
 8107SOL    MW432196   3.908   5.395   6.318  0.0548  0.2320 -0.0781
 8108SOL     OW32197   2.344   0.495   0.025  0.3224  0.4909  0.0598
 8108SOL    HW232198   2.428   0.502   0.070  1.5341 -0.3299 -1.9422
 8108SOL    HW332199   2.364   0.514  -0.066 -1.3371 -1.3448 -0.7644
 8108SOL    MW432200   2.358   0.499   0.019  0.2634  0.1404 -0.3131
 8109SOL     OW32201   0.668   5.376   4.303 -0.1482  0.2727  0.3942
 8109SOL    HW232202   0.590   5.411   4.346 -0.5388 -0.6411  0.4609
 8109SOL    HW332203   0.741   5.419   4.347 -0.6173  1.2407  0.2358
 8109SOL    MW432204   0.667   5.386   4.315 -0.2617  0.2799  0.3821
 8110SOL     OW32205   2.688   2.244   1.868  0.1704 -0.0057  0.1959
 8110SOL    HW232206   2.762   2.248   1.929 -1.5687  1.2583  2.3641
 8110SOL    HW332207   2.694   2.326   1.819  0.7264 -0.3484 -0.3265
 8110SOL    MW432208   2.699   2.255   1.870  0.0143  0.1159  0.4131
 8111SOL     OW32209   2.597   5.728   5.186 -0.1195 -0.1009 -0.3471
 8111SOL    HW232210   2.539   5.654   5.169 -0.0210 -0.3175  0.2200
 8111SOL    HW332211   2.539   5.803   5.192 -0.1721 -0.0308 -1.4579
 8111SOL    MW432212   2.582   5.728   5.185 -0.1135 -0.1202 -0.4188
 8112SOL     OW32213   3.853   3.203   0.177 -0.0950  0.1787  0.4763
 8112SOL    HW232214   3.912   3.230   0.247  3.3034 -0.2103 -1.9695
 8112SOL    HW332215   3.864   3.269   0.109 -1.3229 -0.7718 -0.7013
 8112SOL    MW432216   3.862   3.215   0.177  0.1914  0.0020 -0.0018
 8113SOL     OW32217   3.468   5.861   0.558  0.1120 -0.1979 -0.4706
 8113SOL    HW232218   3.526   5.803   0.606 -0.5008 -0.3389  0.1054
 8113SOL    HW332219   3.394   5.875   0.616  0.6443  1.8765 -0.2084
 8113SOL    MW432220   3.466   5.855   0.572  0.1014  0.0572 -0.3600
 8114SOL     OW32221   4.361   4.125   3.054  0.0192 -0.1315 -0.9652
 8114SOL    HW232222   4.424   4.119   3.126 -0.6237 -1.3154 -0.4791
 8114SOL    HW332223   4.302   4.196   3.079  0.2643 -0.0172 -0.7048
 8114SOL    MW432224   4.362   4.134   3.066 -0.0333 -0.2727 -0.8667
 8115SOL     OW32225   1.574   0.144   3.959  0.3754 -0.2036  0.5820
 8115SOL    HW232226   1.639   0.182   4.018 -0.6000 -0.7864  2.1100
 8115SOL    HW332227   1.592   0.050   3.962  1.6332 -0.1047 -1.7562
 8115SOL    MW432228   1.585   0.136   3.967  0.4127 -0.2674  0.4751
 8116SOL     OW32229   2.982   4.744   5.897  0.3976  0.0154  0.4474
 8116SOL    HW232230   2.895   4.726   5.934  0.2855 -1.4902 -0.4827
 8116SOL    HW332231   2.983   4.699   5.813  2.9585 -2.2609  1.5262
 8116SOL    MW432232   2.971   4.736   5.891  0.7207 -0.4836  0.4670
 8117SOL     OW32233   4.156   5.735   3.907 -0.0918 -0.4034 -0.4056
 8117SOL    HW232234   4.236   5.704   3.865 -0.2299  0.6944 -1.5384
 8117SOL    HW332235   4.128   5.809   3.853 -2.3812 -1.3312 -0.5915
 8117SOL    MW432236   4.163   5.741   3.895 -0.4121 -0.3809 -0.5796
 8118SOL     OW32237   4.203   1.185   3.216 -0.2280 -0.0565  0.4513
 8118SOL    HW232238   4.264   1.115   3.194  0.6191  0.3410  1.4427
 8118SOL    HW332239   4.259   1.255   3.251 -1.1809  0.5833  0.7269
 8118SOL    MW432240   4.218   1.185   3.218 -0.2420  0.0804  0.6185
 8119SOL     OW32241   5.044   3.498   5.210  0.2510  0.3869 -0.2101
 8119SOL    HW232242   5.071   3.508   5.302  0.2902 -0.9566 -0.0529
 8119SOL    HW332243   4.956   3.460   5.215 -0.4686  1.9105 -0.7388
 8119SOL    MW432244   5.036   3.494   5.223  0.1612  0.4107 -0.2591
 8120SOL     OW32245   0.557   4.571   4.024  0.4626 -0.3491 -0.4972
 8120SOL    HW232246   0.603   4.617   3.954  1.2501 -1.0786 -0.4878
 8120SOL    HW332247   0.482   4.627   4.046  0.7295  0.3285 -1.2828
 8120SOL    MW432248   0.553   4.584   4.018  0.6017 -0.3559 -0.5996
 8121SOL     OW32249   1.583   5.690   0.740 -0.5189  0.1558 -0.3518
 8121SOL    HW232250   1.503   5.703   0.790  0.1120  1.6538  0.3303
 8121SOL    HW332251   1.578   5.599   0.710 -3.9720  1.0364 -3.0749
 8121SOL    MW432252   1.572   5.680   0.743 -0.8912  0.4696 -0.6211
 8122SOL     OW32253   5.366   0.243   1.614  0.0119  0.3784 -0.0357
 8122SOL    HW232254   5.316   0.324   1.631  1.0031  0.7382  1.3069
 8122SOL    HW332255   5.454   0.274   1.591  0.0943 -0.3042 -0.6621
 8122SOL    MW432256   5.371   0.258   1.613  0.1536  0.3358  0.0588
 8123SOL     OW32257   0.674   0.474   0.283 -0.7106  0.0782  0.7659
 8123SOL    HW232258   0.639   0.496   0.197 -1.1256  0.5401  1.0479
 8123SOL    HW332259   0.766   0.453   0.267 -0.6862  0.5615  0.2700
 8123SOL    MW432260   0.682   0.474   0.269 -0.7621  0.2029  0.7377
 8124SOL     OW32261   4.039   2.172   2.631 -0.5379 -0.7405  0.4844
 8124SOL    HW232262   4.075   2.124   2.706  0.7366  0.1290  0.4613
 8124SOL    HW332263   3.944   2.162   2.639 -0.3585 -2.1602  1.1995
 8124SOL    MW432264   4.031   2.164   2.642 -0.3461 -0.8131  0.5757
 8125SOL     OW32265   5.459   1.957   5.136  0.0911 -0.1365 -0.8642
 8125SOL    HW232266   5.416   1.998   5.211  0.9993  1.7681 -1.3253
 8125SOL    HW332267   5.508   2.028   5.094 -0.2380 -1.1656 -3.1768
 8125SOL    MW432268   5.460   1.972   5.140  0.1675 -0.0210 -1.2301
 8126SOL     OW32269   0.477   0.484   0.050  0.3685  0.1810  0.4218
 8126SOL    HW232270   0.411   0.415   0.047  1.4315 -1.0667  2.7221
 8126SOL    HW332271   0.431   0.562   0.021 -2.1944 -0.5867  2.0776
 8126SOL    MW432272   0.462   0.485   0.046  0.1706 -0.0849  0.9438
 8127SOL     OW32273   5.198   0.370   0.450 -0.5893  0.0516  0.8528
 8127SOL    HW232274   5.168   0.285   0.484 -0.9028  0.5414  1.8408
 8127SOL    HW332275   5.290   0.355   0.429 -0.6833 -0.5866  0.8520
 8127SOL    MW432276   5.206   0.357   0.452 -0.6430  0.0320  0.9831
 8128SOL     OW32277   2.235   1.105   0.098  0.5050 -0.0679  0.4455
 8128SOL    HW232278   2.242   1.020   0.054  2.3560 -0.4542  1.3696
 8128SOL    HW332279   2.234   1.083   0.192 -0.6734  0.8744  0.6901
 8128SOL    MW432280   2.236   1.091   0.105  0.5937  0.0054  0.5997
 8129SOL     OW32281   6.267   4.810   0.321  0.0267  0.0651  1.0417
 8129SOL    HW232282   6.276   4.735   0.381  0.9135 -0.5847  0.1301
 8129SOL    HW332283   6.288   4.886   0.375 -1.6397 -0.2274  2.1899
 8129SOL    MW432284   6.271   4.810   0.336 -0.0761 -0.0592  1.0729
 8130SOL     OW32285   6.083   0.918   3.715 -0.1730  0.3016 -0.1419
 8130SOL    HW232286   6.153   0.959   3.664 -1.2710  2.1897 -0.2209
 8130SOL    HW332287   6.020   0.889   3.649  0.1554 -0.6810 -0.0312
 8130SOL    MW432288   6.084   0.920   3.699 -0.2746  0.4210 -0.1377
 8131SOL     OW32289   0.722   5.872   4.655  0.4204 -0.4261 -0.5642
 8131SOL    HW232290   0.790   5.937   4.668  2.0132 -2.0702 -0.3329
 8131SOL    HW332291   0.769   5.789   4.646 -1.6225 -2.0828  2.4048
 8131SOL    MW432292   0.737   5.869   4.656  0.3610 -0.8616 -0.1420
 8132SOL     OW32293   2.970   3.133   1.474  0.4238  0.3980 -0.1346
 8132SOL    HW232294   2.988   3.039   1.484 -0.6563 -0.3028 -3.3880
 8132SOL    HW332295   2.896   3.150   1.533 -1.5111 -1.6700 -1.7810
 8132SOL    MW432296   2.962   3.123   1.483  0.0260  0.0327 -0.7811
 8133SOL     OW32297   3.112   4.441   0.924 -0.2381 -0.7333 -0.2239
 8133SOL    HW232298   3.133   4.534   0.930 -1.8748 -0.3672  0.7147
 8133SOL    HW332299   3.123   4.408   1.014 -0.0440 -1.3430 -0.4665
 8133SOL    MW432300   3.116   4.449   0.937 -0.4284 -0.7655 -0.1320
 8134SOL     OW32301   6.136   3.237   5.663  0.2346 -0.1441  0.4471
 8134SOL    HW232302   6.137   3.250   5.569  0.0984 -0.8811  0.3326
 8134SOL    HW332303   6.175   3.150   5.675 -1.3361 -0.8033  0.9273
 8134SOL    MW432304   6.142   3.227   5.652  0.0094 -0.3283  0.4954
 8135SOL     OW32305   2.199   4.420   0.897 -0.1807  0.3350 -0.1734
 8135SOL    HW232306   2.112   4.457   0.890  0.4353  1.6821 -1.0897
 8135SOL    HW332307   2.209   4.366   0.819 -0.7961 -1.2305  0.7832
 8135SOL    MW432308   2.189   4.417   0.886 -0.1806  0.3062 -0.1681
 8136SOL     OW32309   1.548   1.797   3.426  0.0460  0.4291 -0.5060
 8136SOL    HW232310   1.586   1.866   3.480 -2.4498  0.5489  1.3105
 8136SOL    HW332311   1.481   1.841   3.374  0.0700 -0.2408 -1.1134
 8136SOL    MW432312   1.544   1.812   3.427 -0.2802  0.3565 -0.3464
 8137SOL     OW32313   3.175   0.708   3.508  0.5036 -0.1038  0.5662
 8137SOL    HW232314   3.204   0.798   3.495 -1.9020  0.8184  1.0886
 8137SOL    HW332315   3.088   0.705   3.468  1.7280 -3.1148 -2.3006
 8137SOL    MW432316   3.167   0.720   3.501  0.3477 -0.3794  0.2569
 8138SOL     OW32317   0.435   3.313   1.758 -0.1527  0.5353  0.1867
 8138SOL    HW232318   0.388   3.247   1.810  0.0482  0.5383  0.3710
 8138SOL    HW332319   0.420   3.285   1.667 -0.6576  0.6363  0.2351
 8138SOL    MW432320   0.427   3.300   1.753 -0.1928  0.5490  0.2174
 8139SOL     OW32321   3.907   3.648   2.860  0.0204  0.3527 -0.1193
 8139SOL    HW232322   3.821   3.614   2.882 -0.4981  2.4155  1.3840
 8139SOL    HW332323   3.969   3.591   2.905 -0.8366  1.5658  2.7911
 8139SOL    MW432324   3.904   3.636   2.869 -0.1610  0.7849  0.4630
 8140SOL     OW32325   4.662   3.423   4.343 -0.1820  0.0484  0.2406
 8140SOL    HW232326   4.675   3.454   4.253  2.3112  0.1750  0.5832
 8140SOL    HW332327   4.651   3.503   4.394 -0.7088  0.0170  0.1807
 8140SOL    MW432328   4.662   3.438   4.338  0.0774  0.0610  0.2779
 8141SOL     OW32329   2.647   4.261   5.263 -0.2844 -0.6167 -0.3172
 8141SOL    HW232330   2.723   4.307   5.299  1.5334 -1.4316 -2.7455
 8141SOL    HW332331   2.581   4.328   5.251  0.4874  0.3688  0.7986
 8141SOL    MW432332   2.648   4.276   5.266  0.0573 -0.5942 -0.4904
 8142SOL     OW32333   0.382   0.347   2.682 -0.7291  0.3012  0.0115
 8142SOL    HW232334   0.288   0.339   2.671 -0.6645 -0.8247  0.1122
 8142SOL    HW332335   0.406   0.273   2.739  0.1803  0.6895  0.1566
 8142SOL    MW432336   0.373   0.336   2.688 -0.6006  0.2039  0.0439
 8143SOL     OW32337   0.682   5.805   0.796  0.4852  0.0471  0.5047
 8143SOL    HW232338   0.681   5.748   0.872  0.7667 -0.4490  0.1422
 8143SOL    HW332339   0.611   5.867   0.811 -0.8840 -1.3669  0.1702
 8143SOL    MW432340   0.672   5.806   0.808  0.3417 -0.2049  0.4128
 8144SOL     OW32341   2.770   5.937   2.358 -0.3376 -0.1402 -0.1935
 8144SOL    HW232342   2.719   6.014   2.334 -0.5583 -0.1165  0.3509
 8144SOL    HW332343   2.789   5.894   2.274 -1.0093 -0.0019 -0.4211
 8144SOL    MW432344   2.766   5.941   2.344 -0.4553 -0.1189 -0.1517
 8145SOL     OW32345   1.329   0.621   0.100 -0.5141  0.2614 -0.3432
 8145SOL    HW232346   1.423   0.608   0.108 -0.6131 -0.5331 -0.4295
 8145SOL    HW332347   1.319   0.684   0.029 -0.0083  1.1335  0.3296
 8145SOL    MW432348   1.340   0.628   0.092 -0.4604  0.2716 -0.2658
 8146SOL     OW32349   6.068   0.543   2.345 -0.4418  0.3206 -0.0322
 8146SOL    HW232350   6.063   0.501   2.430 -1.2054 -0.8473 -0.6223
 8146SOL    HW332351   6.007   0.493   2.290 -0.2403  1.2694 -1.1644
 8146SOL    MW432352   6.059   0.531   2.349 -0.5159  0.2917 -0.2594
 8147SOL     OW32353   0.247   4.119   0.159  0.2425 -0.4025 -0.6280
 8147SOL    HW232354   0.269   4.031   0.189 -3.2165 -1.3537 -0.4512
 8147SOL    HW332355   0.227   4.108   0.066  0.8240  0.4255 -0.8575
 8147SOL    MW432356   0.247   4.106   0.151 -0.1371 -0.4187 -0.6350
 8148SOL     OW32357   2.118   3.833   5.415  0.1211  0.7338 -0.8450
 8148SOL    HW232358   2.166   3.915   5.426  1.0913  0.0151  0.5510
 8148SOL    HW332359   2.185   3.769   5.392 -0.4572  0.0801 -0.7211
 8148SOL    MW432360   2.133   3.836   5.413  0.1728  0.5527 -0.6444
 8149SOL     OW32361   5.734   2.158   2.154  0.5712 -0.1711  0.2534
 8149SOL    HW232362   5.827   2.175   2.165  0.1173  1.4380  2.0858
 8149SOL    HW332363   5.691   2.243   2.167 -1.2885 -1.2414  1.8068
 8149SOL    MW432364   5.740   2.171   2.157  0.2659 -0.1000  0.7001
 8150SOL     OW32365   3.470   0.094   0.501  0.0248  0.3035 -0.4475
 8150SOL    HW232366   3.429   0.140   0.575 -0.0878  0.0583 -0.3556
 8150SOL    HW332367   3.399   0.081   0.439 -0.1339 -0.4945 -0.1072
 8150SOL    MW432368   3.455   0.098   0.503 -0.0110  0.1659 -0.3905
 8151SOL     OW32369   4.701   1.402   5.897 -0.1801 -0.0124  0.5563
 8151SOL    HW232370   4.668   1.439   5.978 -2.6339  0.9009 -0.7568
 8151SOL    HW332371   4.755   1.471   5.858  0.7110 -0.3268  1.1889
 8151SOL    MW432372   4.704   1.416   5.903 -0.3863  0.0666  0.4665
 8152SOL     OW32373   3.308   3.846   3.290  0.0534  0.5730  0.7619
 8152SOL    HW232374   3.390   3.854   3.241  0.1459  0.1229  0.8369
 8152SOL    HW332375   3.329   3.789   3.364 -0.7460 -1.0675 -0.2008
 8152SOL    MW432376   3.321   3.839   3.293 -0.0399  0.2971  0.6447
 8153SOL     OW32377   1.609   2.982   3.368  0.7546 -0.1695  0.0424
 8153SOL    HW232378   1.578   2.951   3.453  0.8526  0.6896  0.4034
 8153SOL    HW332379   1.540   2.957   3.306 -0.0370  0.5197  0.6235
 8153SOL    MW432380   1.595   2.975   3.371  0.6631  0.0348  0.1667
 8154SOL     OW32381   5.220   2.987   2.990 -0.1255 -0.4697  0.2609
 8154SOL    HW232382   5.297   3.043   2.984 -0.3119 -0.3204 -0.8550
 8154SOL    HW332383   5.230   2.923   2.919 -0.7559 -0.7931  0.4491
 8154SOL    MW432384   5.231   2.986   2.980 -0.2333 -0.4927  0.1385
 8155SOL     OW32385   5.352   5.315   1.046 -0.5215 -0.2312 -0.1959
 8155SOL    HW232386   5.390   5.339   1.131 -2.3230  0.4283  0.4808
 8155SOL    HW332387   5.418   5.340   0.982  1.4126 -1.8352  1.0329
 8155SOL    MW432388   5.365   5.321   1.049 -0.5040 -0.3558  0.0555
 8156SOL     OW32389   6.228   0.294   0.415 -0.0971  0.0635  0.1424
 8156SOL    HW232390   6.315   0.268   0.387  0.0751 -0.4229  1.0999
 8156SOL    HW332391   6.196   0.350   0.344  0.0612 -1.6304 -1.3289
 8156SOL    MW432392   6.235   0.298   0.402 -0.0535 -0.2242  0.0746
 8157SOL     OW32393   6.199   3.775   5.568  0.8743  0.2422  0.5294
 8157SOL    HW232394   6.252   3.724   5.628  0.1784 -1.4574 -0.2365
 8157SOL    HW332395   6.109   3.758   5.595  0.6267  1.3383  0.4470
 8157SOL    MW432396   6.194   3.766   5.579  0.7498  0.1626  0.4175
 8158SOL     OW32397   1.020   2.931   4.655  0.1526 -0.1312  0.2128
 8158SOL    HW232398   0.927   2.953   4.650 -0.4428 -1.9063  2.2663
 8158SOL    HW332399   1.042   2.942   4.747  1.1760 -2.6252  0.3382
 8158SOL    MW432400   1.010   2.936   4.666  0.2091 -0.6945  0.5003
 8159SOL     OW32401   0.661   3.577   3.457  0.6115  0.0526 -0.4472
 8159SOL    HW232402   0.704   3.566   3.542  0.3122 -0.4455 -0.3591
 8159SOL    HW332403   0.569   3.590   3.478  0.3707 -1.1319 -0.7441
 8159SOL    MW432404   0.655   3.578   3.471  0.5402 -0.1694 -0.4747
 8160SOL     OW32405   3.946   0.978   5.450  0.2909  0.2639 -0.3297
 8160SOL    HW232406   3.879   1.006   5.387 -1.0534  2.0897  1.7429
 8160SOL    HW332407   4.029   0.987   5.403 -0.7547 -0.7518 -2.5506
 8160SOL    MW432408   3.948   0.983   5.435 -0.0244  0.3708 -0.3493
 8161SOL     OW32409   2.710   5.449   0.524  0.2516  0.0068 -0.1777
 8161SOL    HW232410   2.684   5.369   0.569  0.7736  0.4642  1.0019
 8161SOL    HW332411   2.655   5.517   0.563  1.0331  0.4863  0.1245
 8161SOL    MW432412   2.700   5.448   0.535  0.4236  0.1304  0.0178
 8162SOL     OW32413   5.741   1.946   6.197  0.1404  0.8094  0.0758
 8162SOL    HW232414   5.805   1.934   6.267 -0.7479  1.3171  1.0027
 8162SOL    HW332415   5.751   1.868   6.142  1.0489  0.5406  0.5989
 8162SOL    MW432416   5.751   1.934   6.199  0.1431  0.8409  0.2671
 8163SOL     OW32417   6.304   6.159   0.509  0.0726  0.2899  0.0965
 8163SOL    HW232418   6.382   6.197   0.548 -0.0705 -0.1708  0.8580
 8163SOL    HW332419   6.254   6.126   0.584  1.6829 -4.3844 -0.5569
 8163SOL    MW432420   6.307   6.160   0.524  0.2662 -0.3876  0.1108
 8164SOL     OW32421   5.773   3.609   3.002 -0.2743 -0.1836 -0.3853
 8164SOL    HW232422   5.825   3.687   2.983 -0.8128 -0.2482 -2.3057
 8164SOL    HW332423   5.701   3.641   3.057 -1.2815  0.9977 -2.2935
 8164SOL    MW432424   5.770   3.623   3.007 -0.4782 -0.0362 -0.8904
 8165SOL     OW32425   2.376   0.024   3.649  0.1407 -0.2722 -0.0487
 8165SOL    HW232426   2.447  -0.028   3.687  0.4413 -0.3811 -0.7294
 8165SOL    HW332427   2.357  -0.019   3.566 -1.0896 -0.5413  0.3607
 8165SOL    MW432428   2.383   0.011   3.643  0.0180 -0.3221 -0.0845
 8166SOL     OW32429   0.611   0.403   2.962  0.0088  0.6216  0.6378
 8166SOL    HW232430   0.694   0.410   2.916  0.1866 -0.4191  0.7768
 8166SOL    HW332431   0.581   0.314   2.945 -1.7071  1.3525 -0.4639
 8166SOL    MW432432   0.618   0.392   2.954 -0.1941  0.5807  0.5108
 8167SOL     OW32433   4.533   1.153   5.853  0.1426  0.0163 -0.1907
 8167SOL    HW232434   4.580   1.232   5.827  0.6341 -0.5053 -0.9045
 8167SOL    HW332435   4.592   1.081   5.830  0.3141 -0.5140  1.7193
 8167SOL    MW432436   4.547   1.154   5.847  0.2301 -0.1225 -0.0329
 8168SOL     OW32437   6.334   4.037   0.941 -0.4464 -0.1832 -0.4522
 8168SOL    HW232438   6.338   3.972   1.011 -1.6198 -1.1930 -1.2830
 8168SOL    HW332439   6.403   4.100   0.963 -0.0297 -1.0884  0.9792
 8168SOL    MW432440   6.344   4.036   0.953 -0.5462 -0.4359 -0.3730
 8169SOL     OW32441   0.356   0.818   5.580 -0.7466 -0.0293  0.0148
 8169SOL    HW232442   0.316   0.904   5.579  0.3505  0.5204  0.9949
 8169SOL    HW332443   0.381   0.803   5.671  1.5593 -0.1621 -0.5661
 8169SOL    MW432444   0.354   0.827   5.592 -0.2976  0.0257  0.0674
 8170SOL     OW32445   5.191   1.070   3.802 -0.1679  0.0452  0.2776
 8170SOL    HW232446   5.215   0.984   3.836 -0.5512 -0.5750 -0.9585
 8170SOL    HW332447   5.128   1.104   3.865  0.3287 -0.3681  1.0188
 8170SOL    MW432448   5.186   1.063   3.815 -0.1530 -0.0912  0.2123
 8171SOL     OW32449   4.061   3.604   4.603  0.4631  0.1471 -0.0094
 8171SOL    HW232450   4.034   3.580   4.514  0.7324  2.3319 -0.7379
 8171SOL    HW332451   4.153   3.626   4.594  0.7690 -0.6377  1.0623
 8171SOL    MW432452   4.069   3.604   4.590  0.5390  0.3318  0.0359
 8172SOL     OW32453   2.111   3.922   0.815 -0.6095  0.1697 -0.2523
 8172SOL    HW232454   2.178   3.904   0.749 -0.3524  1.1158 -0.2550
 8172SOL    HW332455   2.046   3.976   0.770 -1.3283 -0.6317 -0.2143
 8172SOL    MW432456   2.111   3.927   0.800 -0.6704  0.1888 -0.2477
 8173SOL     OW32457   0.106   3.817   4.327  0.6119 -0.2041  0.6376
 8173SOL    HW232458   0.052   3.864   4.264 -0.3193 -1.1435  0.6994
 8173SOL    HW332459   0.064   3.731   4.335  1.8473 -0.7988  1.0589
 8173SOL    MW432460   0.093   3.812   4.320  0.6520 -0.4065  0.7013
 8174SOL     OW32461   6.263   5.963   0.068  0.4881  0.0182  0.1250
 8174SOL    HW232462   6.315   6.031   0.112 -1.0813  0.8716  0.7182
 8174SOL    HW332463   6.295   5.963  -0.022  0.3513  1.7272  0.0518
 8174SOL    MW432464   6.274   5.972   0.062  0.2629  0.3563  0.1936
 8175SOL     OW32465   5.642   5.964   1.098 -0.1245  0.8854  0.0053
 8175SOL    HW232466   5.647   5.869   1.108 -0.9099  0.7081 -1.1568
 8175SOL    HW332467   5.659   5.998   1.186  0.3387 -0.3169  0.4009
 8175SOL    MW432468   5.645   5.956   1.111 -0.1670  0.7034 -0.0958
 8176SOL     OW32469   5.492   4.187   0.570  0.2346  0.6188 -0.0004
 8176SOL    HW232470   5.401   4.213   0.582  0.8775  2.8349  0.4842
 8176SOL    HW332471   5.504   4.183   0.475 -0.0667  1.4972 -0.0766
 8176SOL    MW432472   5.482   4.190   0.559  0.2796  1.0271  0.0535
 8177SOL     OW32473   0.124   2.438   0.044  0.3800 -0.0288 -0.5524
 8177SOL    HW232474   0.148   2.388   0.123  1.3929 -1.0170 -1.4463
 8177SOL    HW332475   0.190   2.507   0.040 -0.7714  1.1953  0.4490
 8177SOL    MW432476   0.136   2.440   0.054  0.3617  0.0023 -0.5382
 8178SOL     OW32477   0.834   4.197   0.084 -0.3528  0.0330  0.9029
 8178SOL    HW232478   0.768   4.172   0.019 -0.0929  0.5650  0.4274
 8178SOL    HW332479   0.866   4.282   0.054 -0.8578  0.7087  2.2041
 8178SOL    MW432480   0.829   4.205   0.071 -0.3852  0.1923  1.0118
 8179SOL     OW32481   4.996   2.137   4.611 -0.3089  0.3553  0.0240
 8179SOL    HW232482   4.989   2.226   4.647 -0.4285  0.5589 -0.5038
 8179SOL    HW332483   5.072   2.140   4.554 -0.2106  0.0680  0.1376
 8179SOL    MW432484   5.005   2.149   4.609 -0.3117  0.3442 -0.0306
 8180SOL     OW32485   2.520   5.974   1.963  0.0516 -0.1137 -0.1356
 8180SOL    HW232486   2.490   6.055   2.003  1.0678 -0.0795  0.6067
 8180SOL    HW332487   2.529   5.996   1.870 -2.6970 -0.3089 -0.5285
 8180SOL    MW432488   2.518   5.988   1.956 -0.1770 -0.1350 -0.0895
 8181SOL     OW32489   2.110   4.520   3.098 -0.6831  0.7022 -0.4529
 8181SOL    HW232490   2.042   4.576   3.136 -1.4200  0.8922 -1.9536
 8181SOL    HW332491   2.144   4.469   3.171 -1.6581  1.4201  0.5270
 8181SOL    MW432492   2.106   4.521   3.112 -0.9090  0.8220 -0.5216
 8182SOL     OW32493   1.945   4.745   1.038 -0.0374  0.1463 -0.4332
 8182SOL    HW232494   2.003   4.708   1.105  0.3157  1.3461 -0.0678
 8182SOL    HW332495   1.872   4.783   1.087  0.0353  0.7041 -0.7521
 8182SOL    MW432496   1.943   4.745   1.053  0.0188  0.3782 -0.4271
 8183SOL     OW32497   1.813   2.177   1.207  0.0620 -0.4444 -0.8701
 8183SOL    HW232498   1.756   2.139   1.140 -0.6030 -0.6528 -0.1981
 8183SOL    HW332499   1.864   2.103   1.239 -0.6696 -0.6325 -0.1184
 8183SOL    MW432500   1.812   2.162   1.202 -0.1222 -0.4967 -0.6822
 8184SOL     OW32501   3.775   5.357   1.096 -0.4062 -0.2062 -0.1115
 8184SOL    HW232502   3.816   5.304   1.027 -1.2816  2.5675 -2.9628
 8184SOL    HW332503   3.699   5.306   1.123  0.8890 -2.1404  0.1738
 8184SOL    MW432504   3.771   5.343   1.090 -0.3508 -0.0954 -0.4501
 8185SOL     OW32505   4.484   3.701   2.940 -0.9487 -0.2748  0.3768
 8185SOL    HW232506   4.473   3.784   2.893 -0.0896 -0.5263 -0.3186
 8185SOL    HW332507   4.576   3.701   2.968 -1.3336 -0.3300  1.7062
 8185SOL    MW432508   4.495   3.712   2.937 -0.8862 -0.3153  0.4604
 8186SOL     OW32509   4.841   3.321   0.910  0.4056  0.2711  0.1226
 8186SOL    HW232510   4.783   3.255   0.870 -0.2000  2.4801 -2.9928
 8186SOL    HW332511   4.785   3.367   0.972 -0.1253  0.0395 -0.1712
 8186SOL    MW432512   4.826   3.318   0.913  0.2557  0.5320 -0.3272
 8187SOL     OW32513   5.620   1.466   6.147 -0.4098 -0.4054 -0.1945
 8187SOL    HW232514   5.578   1.394   6.100 -0.3945 -1.3708  1.2255
 8187SOL    HW332515   5.684   1.424   6.205  1.8184  0.9436 -1.5038
 8187SOL    MW432516   5.623   1.451   6.149 -0.1138 -0.3548 -0.1799
 8188SOL     OW32517   3.036   3.807   2.074  0.5632 -0.3782 -0.1252
 8188SOL    HW232518   3.109   3.745   2.073  1.0681  0.2011 -1.1549
 8188SOL    HW332519   2.958   3.752   2.072  0.9609 -1.0010  0.6228
 8188SOL    MW432520   3.036   3.792   2.074  0.6823 -0.3839 -0.1624
 8189SOL     OW32521   1.404   3.563   0.469 -0.3173  0.4036 -0.3913
 8189SOL    HW232522   1.320   3.589   0.508 -0.7692 -0.4637 -0.7505
 8189SOL    HW332523   1.420   3.475   0.505  1.0639  1.0479  0.6515
 8189SOL    MW432524   1.395   3.555   0.479 -0.1947  0.3742 -0.3011
 8190SOL     OW32525   1.256   1.802   3.682 -0.0453 -0.0127  0.2138
 8190SOL    HW232526   1.189   1.868   3.703 -1.6009 -1.5826  0.4497
 8190SOL    HW332527   1.279   1.819   3.591  1.1017  2.0876  0.8350
 8190SOL    MW432528   1.250   1.813   3.673 -0.0992  0.0573  0.3269
 8191SOL     OW32529   1.746   3.230   1.859 -0.5315  0.8794  0.2392
 8191SOL    HW232530   1.665   3.265   1.824 -0.5410  2.7111  1.9219
 8191SOL    HW332531   1.795   3.307   1.888  1.0815 -0.2892  0.7548
 8191SOL    MW432532   1.742   3.245   1.858 -0.3200  0.9669  0.5292
 8192SOL     OW32533   2.314   5.476   5.907 -0.1841  0.4867 -0.0546
 8192SOL    HW232534   2.308   5.517   5.821  0.7114 -0.0037 -0.3664
 8192SOL    HW332535   2.358   5.393   5.891 -1.2157 -0.2306  0.6880
 8192SOL    MW432536   2.319   5.470   5.894 -0.2021  0.3274  0.0022
 8193SOL     OW32537   2.939   3.509   2.518  0.3886  0.1816 -0.3166
 8193SOL    HW232538   2.962   3.428   2.471  0.5252 -0.4977  0.8847
 8193SOL    HW332539   3.020   3.536   2.561  0.1196  0.4587  0.0232
 8193SOL    MW432540   2.953   3.502   2.517  0.3711  0.1286 -0.1133
 8194SOL     OW32541   1.950   3.122   6.407  0.0201 -0.1400 -0.2815
 8194SOL    HW232542   1.900   3.199   6.380  1.4642  0.9335  0.0189
 8194SOL    HW332543   1.909   3.095   6.489 -0.9921 -0.1941 -0.7876
 8194SOL    MW432544   1.938   3.129   6.414  0.0770 -0.0055 -0.3086
 8195SOL     OW32545   4.386   3.109   6.360  0.4018 -0.4818  0.5993
 8195SOL    HW232546   4.311   3.050   6.367  1.2738 -1.7315 -0.1377
 8195SOL    HW332547   4.397   3.144   6.448 -0.4819 -0.9803  0.9267
 8195SOL    MW432548   4.378   3.105   6.373  0.4003 -0.7125  0.5452
 8196SOL     OW32549   0.346   2.577   6.409  0.3318 -0.1284 -0.0407
 8196SOL    HW232550   0.421   2.636   6.406 -0.4290  0.8520 -3.0259
 8196SOL    HW332551   0.380   2.494   6.378  0.6367 -0.3356  0.8111
 8196SOL    MW432552   0.360   2.574   6.404  0.2716 -0.0264 -0.3222
 8197SOL     OW32553   4.594   4.579   2.670 -0.0111  0.0683  0.2595
 8197SOL    HW232554   4.516   4.591   2.616 -0.3782 -0.3313  0.6920
 8197SOL    HW332555   4.668   4.596   2.611 -0.3963 -0.6140 -0.4256
 8197SOL    MW432556   4.594   4.583   2.655 -0.1104 -0.0745  0.2262
 8198SOL     OW32557   4.318   1.908   5.358  0.8091  0.4214  0.1437
 8198SOL    HW232558   4.284   1.856   5.430 -0.8220 -0.6263 -1.3084
 8198SOL    HW332559   4.339   1.993   5.397 -2.9879  0.9871  1.3260
 8198SOL    MW432560   4.317   1.912   5.372  0.0929  0.3578  0.1081
 8199SOL     OW32561   4.507   6.357   4.322  0.0955  0.3030 -0.3899
 8199SOL    HW232562   4.506   6.448   4.350 -0.1209 -0.2387  1.5519
 8199SOL    HW332563   4.415   6.333   4.313  0.1195  0.0677 -0.0574
 8199SOL    MW432564   4.495   6.366   4.325  0.0701  0.2005 -0.0898
 8200SOL     OW32565   4.817   4.935   1.075  0.5275 -0.0079  0.0831
 8200SOL    HW232566   4.826   4.858   1.131 -0.0422 -0.9125 -1.0232
 8200SOL    HW332567   4.724   4.938   1.052  0.8716 -0.1461 -1.4388
 8200SOL    MW432568   4.806   4.925   1.079  0.4977 -0.1455 -0.2636
 8201SOL     OW32569   3.060   5.064   2.345 -0.1125  0.5677  0.2012
 8201SOL    HW232570   2.969   5.035   2.342 -0.0836  0.5162 -1.5589
 8201SOL    HW332571   3.077   5.084   2.437 -1.5945 -0.3691  0.7001
 8201SOL    MW432572   3.050   5.063   2.357 -0.3042  0.4373  0.0348
 8202SOL     OW32573   6.146   1.317   5.975 -0.3817 -0.5900 -0.0585
 8202SOL    HW232574   6.166   1.243   5.917  1.1475 -0.9507  0.8651
 8202SOL    HW332575   6.184   1.393   5.931  1.6907 -1.0136  0.8617
 8202SOL    MW432576   6.153   1.317   5.962  0.0935 -0.6935  0.1848
 8203SOL     OW32577   0.510   6.115   5.088 -0.2846 -0.1176  0.1723
 8203SOL    HW232578   0.501   6.207   5.114 -2.4187 -0.5295  1.1893
 8203SOL    HW332579   0.452   6.106   5.012  1.3459 -0.2530 -1.1016
 8203SOL    MW432580   0.501   6.126   5.082 -0.3511 -0.1898  0.1384
 8204SOL     OW32581   2.042   1.735   2.501  0.1791 -0.3812 -0.0375
 8204SOL    HW232582   2.074   1.795   2.568  1.1871 -0.2045 -0.6559
 8204SOL    HW332583   2.109   1.667   2.495  0.0459 -0.4582 -0.7692
 8204SOL    MW432584   2.055   1.734   2.509  0.2945 -0.3680 -0.2156
 8205SOL     OW32585   5.033   1.562   4.322  0.1937 -0.3308  0.2275
 8205SOL    HW232586   5.050   1.609   4.240 -1.0846  0.4456  0.3747
 8205SOL    HW332587   5.008   1.630   4.384 -2.6776 -1.1965  0.1905
 8205SOL    MW432588   5.032   1.577   4.319 -0.3538 -0.3426  0.2420
 8206SOL     OW32589   0.529   2.744   0.472  0.2930  0.5325 -0.0930
 8206SOL    HW232590   0.599   2.781   0.525 -0.0552 -2.1054  2.4619
 8206SOL    HW332591   0.476   2.694   0.534 -0.1448 -2.8561 -2.9020
 8206SOL    MW432592   0.531   2.743   0.487  0.1893 -0.2626 -0.1266
 8207SOL     OW32593   5.926   3.566   0.245 -0.4017 -0.2270  0.2910
 8207SOL    HW232594   5.905   3.647   0.292 -0.5397  0.3060 -0.6688
 8207SOL    HW332595   5.984   3.518   0.305  1.4085  1.5220  0.0594
 8207SOL    MW432596   5.931   3.571   0.259 -0.1811  0.0741  0.1338
 8208SOL     OW32597   4.894   2.787   0.352 -0.2244 -0.2693 -0.4579
 8208SOL    HW232598   4.811   2.739   0.356  0.3288 -1.1922  0.6528
 8208SOL    HW332599   4.959   2.723   0.381  0.5002  1.2275  1.3754
 8208SOL    MW432600   4.891   2.772   0.356 -0.0558 -0.1936 -0.0695
 8209SOL     OW32601   2.767   1.966   6.049 -0.5229  0.3819 -0.3095
 8209SOL    HW232602   2.693   2.011   6.089  0.5337 -0.3726  2.7563
 8209SOL    HW332603   2.826   2.036   6.022 -0.4543  0.9546  1.2228
 8209SOL    MW432604   2.765   1.981   6.051 -0.3745  0.3579  0.2971
 8210SOL     OW32605   5.713   6.262   1.331  0.4106  0.4427  0.0004
 8210SOL    HW232606   5.755   6.337   1.373  0.9847  1.7229 -2.6192
 8210SOL    HW332607   5.624   6.292   1.311  0.7909  0.6716 -1.4928
 8210SOL    MW432608   5.706   6.276   1.334  0.5366  0.6418 -0.5422
 8211SOL     OW32609   3.530   0.208   5.919 -0.0775  0.1794  0.5129
 8211SOL    HW232610   3.574   0.137   5.965  3.6304  2.6129  1.1578
 8211SOL    HW332611   3.519   0.176   5.830  2.1161 -1.0202  0.6120
 8211SOL    MW432612   3.534   0.194   5.914  0.7011  0.3422  0.6111
 8212SOL     OW32613   5.083   4.513   4.921 -0.6176 -0.9357  0.3051
 8212SOL    HW232614   5.064   4.559   5.003 -1.7379  0.1282 -0.5267
 8212SOL    HW332615   5.017   4.544   4.859  0.3109 -1.5820 -1.0727
 8212SOL    MW432616   5.072   4.523   4.924 -0.6429 -0.8806  0.0135
 8213SOL     OW32617   6.143   4.401   0.289 -0.1960 -0.3569  0.6220
 8213SOL    HW232618   6.149   4.442   0.375  0.4458 -1.0751  0.9326
 8213SOL    HW332619   6.090   4.322   0.303  0.2220 -0.6731  0.4335
 8213SOL    MW432620   6.136   4.396   0.302 -0.0562 -0.4934  0.6381
 8214SOL     OW32621   5.496   0.953   0.673  0.0187  0.0504 -0.0225
 8214SOL    HW232622   5.566   1.018   0.668  1.8062 -1.7356  0.5495
 8214SOL    HW332623   5.479   0.942   0.766 -0.8910  0.2872 -0.1455
 8214SOL    MW432624   5.503   0.960   0.684  0.1345 -0.1540  0.0367
 8215SOL     OW32625   3.382   2.859   3.440  0.5494  0.6711  1.0041
 8215SOL    HW232626   3.452   2.816   3.489  0.0888 -0.9013  0.3471
 8215SOL    HW332627   3.349   2.792   3.381 -1.0071  1.6069  0.7442
 8215SOL    MW432628   3.387   2.845   3.438  0.2832  0.5871  0.8831
 8216SOL     OW32629   2.306   0.336   4.928  0.5249  0.3649 -0.4239
 8216SOL    HW232630   2.296   0.355   5.021  0.2623 -1.2186 -0.1067
 8216SOL    HW332631   2.312   0.422   4.887  0.0212  1.1007  0.9773
 8216SOL    MW432632   2.306   0.350   4.935  0.4238  0.2531 -0.1972
 8217SOL     OW32633   2.993   2.626   0.301 -0.1831 -0.2072  0.2881
 8217SOL    HW232634   2.983   2.680   0.379  3.6405 -0.4731  1.1265
 8217SOL    HW332635   2.971   2.685   0.229  0.5014  1.4293  1.3626
 8217SOL    MW432636   2.989   2.641   0.302  0.4117 -0.0263  0.5405
 8218SOL     OW32637   4.405   4.870   6.196 -0.4169 -0.1860 -0.4852
 8218SOL    HW232638   4.380   4.779   6.214  0.5127 -0.1790  0.9309
 8218SOL    HW332639   4.326   4.920   6.216 -0.2563 -0.4716  0.9987
 8218SOL    MW432640   4.391   4.864   6.201 -0.2731 -0.2228 -0.1026
 8219SOL     OW32641   2.155   1.101   5.514  0.3667 -0.9363  0.1861
 8219SOL    HW232642   2.210   1.122   5.589 -0.3274 -0.2274  0.5114
 8219SOL    HW332643   2.087   1.044   5.549 -0.6579  0.3608  0.3754
 8219SOL    MW432644   2.154   1.096   5.528  0.1400 -0.6716  0.2540
 8220SOL     OW32645   3.531   3.775   4.251 -0.2532 -0.2022 -0.0488
 8220SOL    HW232646   3.625   3.755   4.245 -0.2546 -0.4839  0.7320
 8220SOL    HW332647   3.508   3.806   4.164  0.6940  0.4034 -0.1017
 8220SOL    MW432648   3.540   3.776   4.239 -0.1284 -0.1594  0.0473
 8221SOL     OW32649   1.061   1.205   5.015 -0.3856  0.1499 -0.3103
 8221SOL    HW232650   1.055   1.281   4.958  0.6583  0.2383 -0.3316
 8221SOL    HW332651   1.117   1.233   5.088 -0.5595 -0.3837  0.0427
 8221SOL    MW432652   1.068   1.218   5.017 -0.2708  0.0912 -0.2666
 8222SOL     OW32653   6.106   0.408   2.593  0.2796 -0.6484 -0.3027
 8222SOL    HW232654   6.188   0.377   2.631  0.1677  1.6066  2.0149
 8222SOL    HW332655   6.041   0.395   2.662 -1.0883 -1.1741 -1.6255
 8222SOL    MW432656   6.108   0.402   2.607  0.0843 -0.4203 -0.1715
 8223SOL     OW32657   3.238   0.935   4.355 -0.0528 -0.0498  0.4900
 8223SOL    HW232658   3.167   0.992   4.327 -0.1785 -0.5143 -0.1426
 8223SOL    HW332659   3.266   0.971   4.439 -0.5464  0.5680  0.3913
 8223SOL    MW432660   3.232   0.947   4.363 -0.1345 -0.0296  0.3935
 8224SOL     OW32661   2.126   1.332   4.890 -0.3934 -0.5013  0.0998
 8224SOL    HW232662   2.050   1.383   4.917  0.3279  0.0402  1.2236
 8224SOL    HW332663   2.200   1.391   4.905  0.1648 -0.6066 -2.0358
 8224SOL    MW432664   2.126   1.347   4.896 -0.2246 -0.4437 -0.0337
 8225SOL     OW32665   1.858   2.046   6.146 -0.1704  0.0623  0.0939
 8225SOL    HW232666   1.817   2.013   6.066  1.1410 -0.7993 -0.2616
 8225SOL    HW332667   1.785   2.069   6.203 -1.1277 -0.0730 -1.0453
 8225SOL    MW432668   1.843   2.044   6.143 -0.1237 -0.0692 -0.1033
 8226SOL     OW32669   5.344   5.647   5.268  0.3001  0.1647  0.2312
 8226SOL    HW232670   5.376   5.562   5.240  2.1914  0.5695  0.9862
 8226SOL    HW332671   5.317   5.634   5.359 -1.6450 -0.1356 -0.3535
 8226SOL    MW432672   5.345   5.634   5.277  0.2930  0.1785  0.2537
 8227SOL     OW32673   5.672   4.112   3.893 -0.1111  0.4486  0.1971
 8227SOL    HW232674   5.699   4.173   3.962 -0.8931  1.5023 -0.3881
 8227SOL    HW332675   5.577   4.102   3.906 -0.4393  1.3983 -1.2546
 8227SOL    MW432676   5.663   4.119   3.904 -0.2576  0.7129 -0.0717
 8228SOL     OW32677   5.992   4.015   2.201 -1.0355 -0.3116 -0.3426
 8228SOL    HW232678   5.965   4.018   2.109 -2.8502 -0.5426  0.1539
 8228SOL    HW332679   5.973   4.102   2.235  2.1096  0.6629 -0.7760
 8228SOL    MW432680   5.986   4.027   2.193 -0.8600 -0.2135 -0.3343
 8229SOL     OW32681   2.632   0.885   4.871 -0.2149 -0.2084  0.1289
 8229SOL    HW232682   2.710   0.840   4.903 -0.7144 -1.2065 -0.0185
 8229SOL    HW332683   2.561   0.824   4.887 -0.7216 -0.0323 -1.2960
 8229SOL    MW432684   2.633   0.871   4.877 -0.3476 -0.3169 -0.0785
 8230SOL     OW32685   3.472   4.167   2.908 -0.4098  0.1037  0.0444
 8230SOL    HW232686   3.567   4.165   2.906 -0.3195  0.4458  2.0540
 8230SOL    HW332687   3.445   4.104   2.841  1.1885  0.5169 -1.0408
 8230SOL    MW432688   3.481   4.159   2.899 -0.1870  0.2034  0.1663
 8231SOL     OW32689   4.839   0.033   3.816  0.4411 -0.3119 -0.3263
 8231SOL    HW232690   4.814   0.125   3.817 -0.4446 -0.5355  1.1885
 8231SOL    HW332691   4.823   0.003   3.905 -0.6049 -2.2881 -1.1237
 8231SOL    MW432692   4.834   0.041   3.828  0.1862 -0.6021 -0.2316
 8232SOL     OW32693   6.258   5.926   5.279  0.2971  0.2046 -0.3547
 8232SOL    HW232694   6.303   5.973   5.349  0.0797  2.4276 -1.6220
 8232SOL    HW332695   6.166   5.945   5.293  0.1901  0.0269 -0.8097
 8232SOL    MW432696   6.252   5.934   5.290  0.2543  0.4744 -0.5819
 8233SOL     OW32697   2.035   3.579   5.613  0.1834 -0.0601 -0.0223
 8233SOL    HW232698   2.028   3.633   5.692  2.2002  0.1088  0.0867
 8233SOL    HW332699   2.064   3.640   5.545  0.6291 -0.6382 -0.3598
 8233SOL    MW432700   2.038   3.594   5.614  0.5083 -0.1141 -0.0525
 8234SOL     OW32701   4.350   5.967   3.006  0.2115 -0.4861  0.6031
 8234SOL    HW232702   4.405   6.044   2.992 -0.7497  0.1751  0.3983
 8234SOL    HW332703   4.269   6.002   3.043  0.1332 -1.5055  1.4522
 8234SOL    MW432704   4.347   5.982   3.009  0.0743 -0.5334  0.6881
 8235SOL     OW32705   4.911   5.520   2.441 -0.0349  0.4080  0.2989
 8235SOL    HW232706   4.835   5.572   2.468  0.4539  0.8887  0.7541
 8235SOL    HW332707   4.873   5.438   2.409 -0.7313  0.5247  0.8035
 8235SOL    MW432708   4.896   5.516   2.440 -0.0623  0.4868  0.4256
 8236SOL     OW32709   2.578   3.860   6.188 -0.3245  0.3627 -0.0964
 8236SOL    HW232710   2.635   3.866   6.112  1.0759  1.1872  0.9893
 8236SOL    HW332711   2.539   3.947   6.196  0.2473  0.5544  0.6623
 8236SOL    MW432712   2.580   3.872   6.179 -0.0643  0.4968  0.1469
 8237SOL     OW32713   0.440   5.447   4.431  0.2272 -0.7836 -0.1697
 8237SOL    HW232714   0.429   5.370   4.487 -0.3897 -0.3520  0.3122
 8237SOL    HW332715   0.381   5.430   4.357 -0.2614 -0.5665  0.1661
 8237SOL    MW432716   0.431   5.435   4.428  0.0813 -0.6980 -0.0618
 8238SOL     OW32717   2.000   5.449   3.579  0.0399  0.2193 -0.1750
 8238SOL    HW232718   1.927   5.405   3.621  2.0550 -1.7006  1.6024
 8238SOL    HW332719   1.975   5.455   3.487 -3.4797  2.2604  0.7545
 8238SOL    MW432720   1.987   5.444   3.572 -0.1586  0.2353  0.1821
 8239SOL     OW32721   1.638   3.123   3.903 -0.1828  0.0328 -0.5867
 8239SOL    HW232722   1.663   3.034   3.877  1.6834  0.3574 -0.0398
 8239SOL    HW332723   1.711   3.178   3.873 -0.5949  1.1640  0.4231
 8239SOL    MW432724   1.651   3.118   3.895  0.0091  0.2249 -0.3813
 8240SOL     OW32725   2.103   1.936   0.837 -0.2295 -0.6319  0.2817
 8240SOL    HW232726   2.012   1.910   0.840 -1.0314  1.9812  1.4028
 8240SOL    HW332727   2.129   1.947   0.928  0.0558  2.0003 -0.0274
 8240SOL    MW432728   2.095   1.934   0.849 -0.2977  0.0602  0.3888
 8241SOL     OW32729   4.373   3.705   5.249  0.4776  0.2390 -0.0548
 8241SOL    HW232730   4.361   3.623   5.201  0.6386 -0.2961  0.7904
 8241SOL    HW332731   4.300   3.706   5.311  2.6799 -1.3829  2.8372
 8241SOL    MW432732   4.362   3.694   5.251  0.7894 -0.0456  0.4383
 8242SOL     OW32733   5.005   2.787   5.513 -0.8524  0.2273  0.0273
 8242SOL    HW232734   5.053   2.709   5.543 -1.6713 -0.6422 -0.8550
 8242SOL    HW332735   5.013   2.849   5.585  5.2212  1.9137 -1.4339
 8242SOL    MW432736   5.013   2.785   5.526 -0.1591  0.3351 -0.2819
 8243SOL     OW32737   1.672   3.765   1.872  0.7069  0.2409  0.1307
 8243SOL    HW232738   1.634   3.708   1.805  1.1005  0.2732 -0.1210
 8243SOL    HW332739   1.762   3.779   1.844  1.3767 -1.0168  1.4840
 8243SOL    MW432740   1.679   3.759   1.860  0.8472  0.0793  0.2761
 8244SOL     OW32741   5.850   5.275   0.114 -0.5086  0.2117 -0.1257
 8244SOL    HW232742   5.767   5.279   0.162 -1.0631  0.7699 -1.0883
 8244SOL    HW332743   5.901   5.208   0.159 -0.9768  0.7614  1.2602
 8244SOL    MW432744   5.846   5.266   0.126 -0.6436  0.3579 -0.0698
 8245SOL     OW32745   3.846   4.630   0.186 -0.3240 -0.3009 -0.4034
 8245SOL    HW232746   3.831   4.700   0.124 -3.0311 -0.5134 -0.1169
 8245SOL    HW332747   3.832   4.670   0.272 -0.6129 -0.8935 -0.1668
 8245SOL    MW432748   3.843   4.644   0.189 -0.7193 -0.4071 -0.3344
 8246SOL     OW32749   0.191   2.475   0.539  0.1657 -0.3476 -0.4632
 8246SOL    HW232750   0.201   2.380   0.530  2.0188 -0.0860 -1.6831
 8246SOL    HW332751   0.214   2.510   0.453 -2.6510  1.1463 -0.7478
 8246SOL    MW432752   0.195   2.467   0.527  0.0385 -0.1160 -0.6617
 8247SOL     OW32753   3.105   5.534   1.629  0.3307  0.4194  0.0245
 8247SOL    HW232754   3.198   5.532   1.648  0.6078  0.6318 -1.2111
 8247SOL    HW332755   3.086   5.626   1.611  0.1459  0.2042 -0.9178
 8247SOL    MW432756   3.115   5.546   1.629  0.3429  0.4190 -0.2629
 8248SOL     OW32757   2.342   6.121   2.144 -0.1402  0.3204  0.6681
 8248SOL    HW232758   2.275   6.055   2.126  0.7091 -0.7568  1.4107
 8248SOL    HW332759   2.293   6.204   2.144 -1.2329 -0.2916 -0.1833
 8248SOL    MW432760   2.327   6.124   2.142 -0.1723  0.0976  0.6537
 8249SOL     OW32761   0.699   4.179   2.678 -0.4272 -0.3142 -0.3872
 8249SOL    HW232762   0.725   4.267   2.704  1.9649 -2.0378  4.0450
 8249SOL    HW332763   0.770   4.148   2.622 -0.2189 -0.1685 -0.2028
 8249SOL    MW432764   0.711   4.187   2.674 -0.0841 -0.5224  0.2219
 8250SOL     OW32765   2.220   5.809   4.044 -0.1481 -0.2693  0.1594
 8250SOL    HW232766   2.166   5.761   3.981  0.1013 -0.3397 -0.0020
 8250SOL    HW332767   2.233   5.748   4.116 -0.0393 -0.3615  0.0646
 8250SOL    MW432768   2.215   5.795   4.045 -0.1009 -0.2907  0.1256
 8251SOL     OW32769   0.679   1.304   2.461  0.5096  0.0256 -0.2446
 8251SOL    HW232770   0.761   1.337   2.497  1.4770 -0.7498 -1.6643
 8251SOL    HW332771   0.673   1.345   2.375 -1.2885  1.1175  0.3516
 8251SOL    MW432772   0.689   1.314   2.455  0.4000  0.0674 -0.3532
 8252SOL     OW32773   1.737   0.541   1.015  0.3085 -0.4287 -0.8116
 8252SOL    HW232774   1.729   0.461   1.067 -1.5964 -0.5169 -1.1631
 8252SOL    HW332775   1.831   0.553   1.004  0.6736 -1.9208  0.3094
 8252SOL    MW432776   1.748   0.532   1.021  0.1053 -0.6372 -0.7100
 8253SOL     OW32777   1.180   5.083   5.883 -0.2174  0.0291  0.2131
 8253SOL    HW232778   1.252   5.083   5.820  0.7816  0.2606  1.3330
 8253SOL    HW332779   1.171   4.991   5.909 -0.2704  0.0161  0.1506
 8253SOL    MW432780   1.188   5.071   5.878 -0.0926  0.0580  0.3526
 8254SOL     OW32781   5.560   5.870   0.152 -0.2858  0.4616 -0.4206
 8254SOL    HW232782   5.545   5.962   0.131  0.8560  0.1174 -3.3257
 8254SOL    HW332783   5.655   5.863   0.162 -0.5292 -0.0677  2.0078
 8254SOL    MW432784   5.571   5.881   0.150 -0.1673  0.3464 -0.4835
 8255SOL     OW32785   3.618   4.507   0.064  0.0356 -0.4341 -0.0028
 8255SOL    HW232786   3.711   4.519   0.083 -0.3147 -0.2977  1.8210
 8255SOL    HW332787   3.604   4.413   0.070 -0.1705 -0.3488  0.9552
 8255SOL    MW432788   3.628   4.496   0.067 -0.0378 -0.4049  0.3642
 8256SOL     OW32789   3.669   3.087   4.666  0.3715  0.4144 -0.5391
 8256SOL    HW232790   3.698   3.003   4.701 -1.0864  0.5090  1.0310
 8256SOL    HW332791   3.705   3.152   4.726 -0.6375  0.7096 -0.2271
 8256SOL    MW432792   3.678   3.085   4.679  0.0460  0.4658 -0.2908
 8257SOL     OW32793   3.508   3.864   1.079 -0.8807 -0.5911 -0.4922
 8257SOL    HW232794   3.510   3.900   1.168 -1.2715 -0.3972 -0.5560
 8257SOL    HW332795   3.417   3.836   1.067 -0.1911 -3.4284  0.2562
 8257SOL    MW432796   3.496   3.865   1.089 -0.8413 -0.9399 -0.4019
 8258SOL     OW32797   1.649   6.337   3.319  0.7795 -0.4739 -0.3483
 8258SOL    HW232798   1.595   6.355   3.397 -0.9270 -0.7130 -1.4206
 8258SOL    HW332799   1.665   6.423   3.281  0.3811 -0.4680 -0.5088
 8258SOL    MW432800   1.644   6.351   3.324  0.5018 -0.5047 -0.5110
 8259SOL     OW32801   0.719   1.985   5.116  0.3288 -0.2787 -0.3657
 8259SOL    HW232802   0.685   1.974   5.027  0.0680 -2.1872 -0.0795
 8259SOL    HW332803   0.663   2.052   5.155  1.1178  1.3774 -1.9233
 8259SOL    MW432804   0.707   1.992   5.110  0.3985 -0.3120 -0.5335
 8260SOL     OW32805   5.020   4.370   5.992 -0.3396 -0.2847 -0.5804
 8260SOL    HW232806   5.018   4.460   6.022  1.0486  0.6858 -3.0621
 8260SOL    HW332807   4.936   4.358   5.947  0.1848  0.4571 -1.8320
 8260SOL    MW432808   5.009   4.380   5.990 -0.0872 -0.0588 -1.0729
 8261SOL     OW32809   0.221   5.649   1.852 -0.0546 -0.6780  0.3510
 8261SOL    HW232810   0.250   5.562   1.824  0.9365 -0.1735 -0.2768
 8261SOL    HW332811   0.133   5.635   1.887  0.3823 -2.0498  0.9726
 8261SOL    MW432812   0.213   5.636   1.853  0.1338 -0.7924  0.3502
 8262SOL     OW32813   2.933   3.923   3.133 -0.1511 -0.4844 -0.1840
 8262SOL    HW232814   2.987   3.952   3.060  0.5009  0.2788  0.5919
 8262SOL    HW332815   2.959   3.978   3.207 -1.2598 -0.7957  0.4708
 8262SOL    MW432816   2.943   3.934   3.133 -0.2114 -0.4248  0.0047
 8263SOL     OW32817   0.194   2.158   0.978  0.2742 -0.0782 -0.4054
 8263SOL    HW232818   0.237   2.074   0.990  0.4274  0.0276 -0.2093
 8263SOL    HW332819   0.160   2.181   1.065 -0.9202 -0.5573 -0.7172
 8263SOL    MW432820   0.195   2.150   0.991  0.1368 -0.1274 -0.4207
 8264SOL     OW32821   1.352   6.318   2.054 -0.1946  0.2853 -0.4781
 8264SOL    HW232822   1.283   6.252   2.058 -0.9436  1.0536 -0.5548
 8264SOL    HW332823   1.381   6.316   1.963  0.1035 -0.2557 -0.3743
 8264SOL    MW432824   1.347   6.309   2.042 -0.2541  0.3153 -0.4745
 8265SOL     OW32825   1.487   2.250   1.993 -0.0370  0.5706 -0.3385
 8265SOL    HW232826   1.538   2.218   1.919  0.3472 -0.0461  0.1917
 8265SOL    HW332827   1.419   2.305   1.953 -1.5677 -1.9177 -1.4311
 8265SOL    MW432828   1.485   2.253   1.978 -0.1882  0.1610 -0.4127
 8266SOL     OW32829   3.275   6.290   2.993  0.2386  0.2652 -0.2371
 8266SOL    HW232830   3.261   6.275   3.086  0.9798 -1.5173 -0.3829
 8266SOL    HW332831   3.349   6.350   2.989 -0.0381  0.6572  0.3126
 8266SOL    MW432832   3.283   6.296   3.005  0.2999  0.0818 -0.1838
 8267SOL     OW32833   3.156   5.629   1.318  0.4272  0.8478 -0.0985
 8267SOL    HW232834   3.168   5.699   1.382  1.1481  0.2384  0.4566
 8267SOL    HW332835   3.077   5.583   1.347  0.0031  1.3585 -0.4147
 8267SOL    MW432836   3.147   5.632   1.330  0.4663  0.8348 -0.0670
 8268SOL     OW32837   0.735   3.236   3.334 -0.9312 -0.6999  0.0998
 8268SOL    HW232838   0.740   3.141   3.344 -0.8268 -0.7113 -0.0569
 8268SOL    HW332839   0.662   3.262   3.389 -0.3262 -0.7519  0.9540
 8268SOL    MW432840   0.726   3.227   3.343 -0.8376 -0.7083  0.1919
 8269SOL     OW32841   3.257   1.780   1.127 -0.2913 -0.3767 -0.7287
 8269SOL    HW232842   3.266   1.727   1.047  0.3207  0.4892 -1.2482
 8269SOL    HW332843   3.174   1.752   1.165  0.6243 -2.6611 -0.2667
 8269SOL    MW432844   3.247   1.769   1.121 -0.0897 -0.5639 -0.7363
 8270SOL     OW32845   3.961   5.947   0.043  0.1539 -0.4532  0.3796
 8270SOL    HW232846   4.001   5.863   0.018  0.0626 -1.0467  2.0720
 8270SOL    HW332847   3.886   5.922   0.097 -1.3594  0.6941 -1.0855
 8270SOL    MW432848   3.956   5.932   0.047 -0.0578 -0.3801  0.4096
 8271SOL     OW32849   0.652   0.404   1.975 -0.1331 -0.2233 -0.3252
 8271SOL    HW232850   0.588   0.333   1.984 -2.4767  1.7369 -0.6920
 8271SOL    HW332851   0.651   0.425   1.882 -0.1777  0.9097 -0.0764
 8271SOL    MW432852   0.643   0.397   1.964 -0.4482  0.1849 -0.3408
 8272SOL     OW32853   1.650   3.571   6.356 -0.5250  0.0378  0.1584
 8272SOL    HW232854   1.695   3.655   6.360  0.3544 -0.3825 -0.5476
 8272SOL    HW332855   1.720   3.506   6.350 -1.1248 -0.8677  2.1017
 8272SOL    MW432856   1.665   3.574   6.356 -0.4881 -0.1372  0.3216
 8273SOL     OW32857   0.077   4.646   3.964  0.5294  0.5080  0.2245
 8273SOL    HW232858   0.158   4.678   4.003  1.1411  0.6749 -1.1162
 8273SOL    HW332859   0.014   4.646   4.036  1.5091  1.1218  1.1154
 8273SOL    MW432860   0.079   4.650   3.979  0.7394  0.6110  0.1651
 8274SOL     OW32861   1.458   2.990   1.066  0.4709  0.0643 -0.0798
 8274SOL    HW232862   1.540   2.996   1.116 -0.0485  0.8437  0.7041
 8274SOL    HW332863   1.470   3.051   0.993  1.0830 -0.7890 -0.7038
 8274SOL    MW432864   1.471   2.999   1.063  0.4831  0.0546 -0.0587
 8275SOL     OW32865   2.014   3.507   3.802 -0.1301  0.0170 -0.2134
 8275SOL    HW232866   2.022   3.455   3.882 -0.0465 -0.0861 -0.2888
 8275SOL    HW332867   1.963   3.584   3.828  1.2776  0.8167  0.3363
 8275SOL    MW432868   2.008   3.511   3.816  0.0667  0.1089 -0.1508
 8276SOL     OW32869   4.021   6.338   1.497  0.1177  1.0740 -0.7592
 8276SOL    HW232870   3.955   6.275   1.468  0.1792  1.1227 -1.0114
 8276SOL    HW332871   3.989   6.423   1.466  1.6527  0.7976 -3.4004
 8276SOL    MW432872   4.008   6.341   1.489  0.3283  1.0440 -1.1409
 8277SOL     OW32873   2.119   4.387   4.782 -0.2614 -0.1567 -0.1555
 8277SOL    HW232874   2.149   4.476   4.802 -1.3452 -0.0490  1.0715
 8277SOL    HW332875   2.192   4.331   4.808  0.2453  0.3317 -0.4982
 8277SOL    MW432876   2.133   4.391   4.788 -0.3375 -0.0780 -0.0388
 8278SOL     OW32877   0.445   4.820   0.358  0.2041  0.0846  0.2234
 8278SOL    HW232878   0.357   4.783   0.364  0.1510  0.4472  2.3644
 8278SOL    HW332879   0.501   4.746   0.332 -0.5007 -0.5067  0.3762
 8278SOL    MW432880   0.441   4.805   0.355  0.1041  0.0544  0.5260
 8279SOL     OW32881   2.100   5.667   4.414  0.6947 -0.1059 -0.1891
 8279SOL    HW232882   2.123   5.738   4.475  1.3744  0.8045 -1.4534
 8279SOL    HW332883   2.182   5.647   4.369 -0.2989  1.2691 -2.8400
 8279SOL    MW432884   2.114   5.674   4.416  0.6533  0.1956 -0.7057
 8280SOL     OW32885   2.587   4.990   2.113  0.1609  0.1954  0.3745
 8280SOL    HW232886   2.661   4.958   2.061 -1.0556 -1.7443 -0.3066
 8280SOL    HW332887   2.546   4.910   2.147 -1.9363  1.1562  0.2594
 8280SOL    MW432888   2.591   4.975   2.111 -0.2763  0.0662  0.2694
 8281SOL     OW32889   6.363   1.684   3.333 -0.1693 -0.3483 -0.0926
 8281SOL    HW232890   6.411   1.766   3.345 -2.1639  0.8552 -0.0803
 8281SOL    HW332891   6.293   1.687   3.398 -2.7415 -0.1627 -2.7253
 8281SOL    MW432892   6.360   1.695   3.343 -0.7718 -0.1650 -0.4383
 8282SOL     OW32893   0.451   1.098   4.866 -0.6506 -0.0738  1.2751
 8282SOL    HW232894   0.502   1.019   4.885  0.0761  0.2655  0.7778
 8282SOL    HW332895   0.433   1.093   4.772  1.9792  1.7875  0.5702
 8282SOL    MW432896   0.455   1.087   4.856 -0.2078  0.2166  1.1165
 8283SOL     OW32897   0.798   5.480   4.018 -0.1948  0.2782 -0.0296
 8283SOL    HW232898   0.871   5.534   4.049  0.6149 -1.4504  1.2202
 8283SOL    HW332899   0.752   5.453   4.098  1.2751 -3.3814 -0.2371
 8283SOL    MW432900   0.801   5.483   4.032  0.1060 -0.4327  0.1079
 8284SOL     OW32901   2.320   2.989   4.468  0.0657 -0.6072 -0.2192
 8284SOL    HW232902   2.324   2.925   4.397  0.5938 -0.4212 -0.3642
 8284SOL    HW332903   2.236   2.974   4.510 -0.6267 -0.1726 -1.4055
 8284SOL    MW432904   2.310   2.979   4.464  0.0440 -0.5253 -0.3948
 8285SOL     OW32905   0.818   2.918   1.809  0.0060 -0.9793  0.4570
 8285SOL    HW232906   0.777   3.005   1.807 -0.4100 -1.1794  0.0650
 8285SOL    HW332907   0.758   2.862   1.759  1.1883 -1.0888 -0.9295
 8285SOL    MW432908   0.805   2.922   1.802  0.1071 -1.0202  0.2224
 8286SOL     OW32909   2.539   5.937   1.015 -0.4060 -0.2794  0.0933
 8286SOL    HW232910   2.497   5.977   0.939 -1.9479  0.8711  1.4467
 8286SOL    HW332911   2.502   5.849   1.020 -1.8652  0.3293  0.5999
 8286SOL    MW432912   2.528   5.931   1.006 -0.8020 -0.0473  0.3387
 8287SOL     OW32913   5.757   3.570   3.633 -0.1178  0.5916 -0.0932
 8287SOL    HW232914   5.720   3.592   3.718 -0.8987 -0.6922 -0.0667
 8287SOL    HW332915   5.767   3.475   3.635  0.3564  0.5982 -1.2366
 8287SOL    MW432916   5.754   3.561   3.644 -0.1583  0.4231 -0.2406
 8288SOL     OW32917   0.629   1.737   2.256  0.4473  0.0087  0.0642
 8288SOL    HW232918   0.680   1.656   2.248 -0.1396 -0.5153  1.2976
 8288SOL    HW332919   0.664   1.794   2.188  1.8383 -0.7727  0.0714
 8288SOL    MW432920   0.640   1.734   2.246  0.5534 -0.1635  0.2279
 8289SOL     OW32921   3.568   0.651   4.619  0.4630 -0.0328 -0.3471
 8289SOL    HW232922   3.553   0.580   4.681  0.4949  2.2106  2.4499
 8289SOL    HW332923   3.663   0.663   4.618  0.4801 -0.1778 -1.0166
 8289SOL    MW432924   3.578   0.643   4.627  0.4695  0.2441 -0.0664
 8290SOL     OW32925   5.896   5.037   0.530 -0.5032 -0.2633 -0.4539
 8290SOL    HW232926   5.934   5.077   0.451  1.0047 -2.9008 -1.1697
 8290SOL    HW332927   5.885   4.945   0.507 -1.7678 -0.7607  1.8513
 8290SOL    MW432928   5.899   5.030   0.516 -0.4711 -0.6769 -0.2442
 8291SOL     OW32929   0.885   6.236   0.392 -0.2706 -0.1926  0.1717
 8291SOL    HW232930   0.931   6.319   0.398  0.6591 -0.5303 -1.6741
 8291SOL    HW332931   0.881   6.217   0.298 -2.9020 -0.9031  0.3526
 8291SOL    MW432932   0.890   6.244   0.381 -0.4951 -0.3309 -0.0480
 8292SOL     OW32933   6.126   1.464   4.762  0.4552  0.7433 -0.2674
 8292SOL    HW232934   6.111   1.453   4.668 -0.2847  0.2354 -0.1025
 8292SOL    HW332935   6.208   1.418   4.779  1.3835  2.0921 -0.9042
 8292SOL    MW432936   6.135   1.456   4.752  0.4801  0.8543 -0.3296
 8293SOL     OW32937   3.543   3.076   3.667  0.1777 -0.1166  0.2451
 8293SOL    HW232938   3.554   2.984   3.643  1.6444  0.2401 -0.5301
 8293SOL    HW332939   3.476   3.074   3.736  0.4396 -1.7965  0.5107
 8293SOL    MW432940   3.536   3.063   3.673  0.4058 -0.2912  0.1779
 8294SOL     OW32941   1.413   0.245   5.166 -0.8326 -0.1698 -0.3496
 8294SOL    HW232942   1.467   0.311   5.210 -1.2225 -0.1869  0.1690
 8294SOL    HW332943   1.437   0.162   5.209  1.0370 -0.7041 -2.2586
 8294SOL    MW432944   1.423   0.243   5.178 -0.6374 -0.2426 -0.5330
 8295SOL     OW32945   4.317   4.998   2.540 -0.2815 -0.2938  0.8382
 8295SOL    HW232946   4.234   5.023   2.582  0.1242 -1.4034  2.4075
 8295SOL    HW332947   4.335   4.910   2.574  0.8940 -0.6015 -0.5019
 8295SOL    MW432948   4.308   4.990   2.550 -0.0729 -0.4808  0.8684
 8296SOL     OW32949   1.643   1.181   3.948  0.5727  0.0889  0.2722
 8296SOL    HW232950   1.661   1.091   3.921  0.0561  0.4318 -1.3365
 8296SOL    HW332951   1.705   1.198   4.019  1.4500 -1.1643 -0.1610
 8296SOL    MW432952   1.653   1.172   3.954  0.6203 -0.0312  0.0028
 8297SOL     OW32953   5.045   0.048   2.834  0.6602  0.8247  0.1401
 8297SOL    HW232954   5.006   0.132   2.809 -1.1607 -0.3102 -1.0197
 8297SOL    HW332955   4.980  -0.017   2.809  1.5664 -0.8861  2.0189
 8297SOL    MW432956   5.031   0.051   2.827  0.5395  0.4492  0.2350
 8298SOL     OW32957   6.142   5.594   4.119  0.0163 -0.0047  0.1008
 8298SOL    HW232958   6.053   5.597   4.086 -0.8168  0.7218  2.2128
 8298SOL    HW332959   6.139   5.643   4.202  2.1630 -0.7566  0.7110
 8298SOL    MW432960   6.130   5.601   4.126  0.1896 -0.0080  0.4600
 8299SOL     OW32961   5.087   6.322   5.692  0.6716  0.3369 -0.2777
 8299SOL    HW232962   5.118   6.232   5.699  1.0676  0.4773 -0.1978
 8299SOL    HW332963   5.019   6.319   5.625 -0.1245 -0.2337  0.5403
 8299SOL    MW432964   5.082   6.310   5.684  0.6188  0.2802 -0.1592
 8300SOL     OW32965   4.111   0.905   5.722 -0.0167 -0.1281 -0.3489
 8300SOL    HW232966   4.199   0.901   5.685  0.4613  0.3560  0.7052
 8300SOL    HW332967   4.124   0.932   5.813 -1.1504 -1.4837  0.2564
 8300SOL    MW432968   4.124   0.908   5.729 -0.1032 -0.2431 -0.1300
 8301SOL     OW32969   4.627   6.322   6.425  0.3915  0.0343 -0.3991
 8301SOL    HW232970   4.718   6.320   6.395  0.2194  0.9556 -1.0085
 8301SOL    HW332971   4.600   6.413   6.414 -0.8051 -0.3595 -0.8050
 8301SOL    MW432972   4.635   6.334   6.420  0.2109  0.1039 -0.5331
 8302SOL     OW32973   2.578   2.865   0.049  0.4800  0.0551 -0.6444
 8302SOL    HW232974   2.532   2.781   0.041  0.5701 -0.0160 -0.4298
 8302SOL    HW332975   2.610   2.866   0.139  0.0306  0.5554 -0.4905
 8302SOL    MW432976   2.576   2.854   0.059  0.4326  0.1118 -0.5958
 8303SOL     OW32977   4.065   5.627   4.952  0.2760 -0.1277 -0.2478
 8303SOL    HW232978   4.067   5.721   4.971 -0.6341 -0.0551 -0.5172
 8303SOL    HW332979   3.978   5.610   4.916  0.1086 -1.2308  0.5978
 8303SOL    MW432980   4.054   5.637   4.950  0.1339 -0.2637 -0.1718
 8304SOL     OW32981   6.425   3.657   3.674 -0.1184 -0.1965  0.2659
 8304SOL    HW232982   6.345   3.623   3.633  1.0288 -2.2428 -0.3873
 8304SOL    HW332983   6.427   3.749   3.646 -0.6266 -0.8848 -2.4005
 8304SOL    MW432984   6.414   3.665   3.665 -0.0341 -0.5573 -0.1721
 8305SOL     OW32985   5.205   0.616   5.959  0.2471  0.0330 -0.3766
 8305SOL    HW232986   5.298   0.634   5.946  0.0472  2.2828  0.7667
 8305SOL    HW332987   5.173   0.594   5.872  1.6001  0.5828 -1.0486
 8305SOL    MW432988   5.213   0.616   5.946  0.3992  0.4024 -0.3144
 8306SOL     OW32989   0.169   1.954   4.774 -0.1272 -0.0137  0.3142
 8306SOL    HW232990   0.101   1.929   4.712 -0.7173  1.8566  0.1261
 8306SOL    HW332991   0.144   1.912   4.856 -1.4717  0.5752  0.2209
 8306SOL    MW432992   0.157   1.945   4.777 -0.3824  0.3108  0.2771
 8307SOL     OW32993   5.456  -0.023   6.380 -0.1483  0.3720  0.1034
 8307SOL    HW232994   5.438   0.064   6.413  1.8411  1.1982 -0.8237
 8307SOL    HW332995   5.498  -0.009   6.295  1.4000 -1.4003  0.4897
 8307SOL    MW432996   5.460  -0.010   6.373  0.3185  0.2472  0.0320
 8308SOL     OW32997   3.710   5.049   5.539 -0.5680  0.7716  0.6017
 8308SOL    HW232998   3.755   5.131   5.560 -2.9802  1.9855  1.3799
 8308SOL    HW332999   3.723   5.038   5.445  0.5034  1.5835  0.6316
 8308SOL    MW433000   3.718   5.058   5.529 -0.7449  1.0389  0.7083
 8309SOL     OW33001   2.941   3.796   5.512  0.1516 -0.4646  0.3533
 8309SOL    HW233002   2.890   3.876   5.525 -0.1288 -0.6288  0.2659
 8309SOL    HW333003   2.996   3.815   5.436 -0.1821 -0.4861  0.1034
 8309SOL    MW433004   2.942   3.809   5.504  0.0706 -0.4891  0.3088
 8310SOL     OW33005   3.843   3.998   1.809 -1.1938 -0.3671  0.8550
 8310SOL    HW233006   3.896   3.936   1.758  0.6065  0.8444  1.1631
 8310SOL    HW333007   3.788   3.942   1.864 -0.6433 -1.6863  0.1345
 8310SOL    MW433008   3.842   3.982   1.809 -0.8837 -0.3813  0.8006
 8311SOL     OW33009   2.411   3.652   6.095 -0.2827  0.3670 -0.3691
 8311SOL    HW233010   2.459   3.599   6.032  1.0458 -0.1544  1.0014
 8311SOL    HW333011   2.470   3.723   6.117 -0.5779  0.3461  0.5380
 8311SOL    MW433012   2.425   3.655   6.090 -0.1464  0.2955 -0.0686
 8312SOL     OW33013   4.616  -0.034   4.055  0.1854  0.1329 -0.4263
 8312SOL    HW233014   4.575  -0.056   4.139 -0.4863  0.5209 -0.6382
 8312SOL    HW333015   4.708  -0.055   4.066  0.6614  2.7489  1.3635
 8312SOL    MW433016   4.623  -0.040   4.067  0.1596  0.5293 -0.2181
 8313SOL     OW33017   4.303   4.178   5.851 -0.4618  0.2504 -0.0530
 8313SOL    HW233018   4.341   4.114   5.910 -0.0100  0.3976 -0.1762
 8313SOL    HW333019   4.314   4.140   5.764 -1.7493 -0.2853 -0.0084
 8313SOL    MW433020   4.309   4.165   5.847 -0.5720  0.1991 -0.0634
 8314SOL     OW33021   5.512   4.592   5.572 -0.2745 -0.5289 -0.0955
 8314SOL    HW233022   5.604   4.564   5.575  0.3569  1.2143 -1.2615
 8314SOL    HW333023   5.463   4.519   5.609  1.7419 -0.7171  2.4849
 8314SOL    MW433024   5.518   4.579   5.577  0.0748 -0.3237  0.0911
 8315SOL     OW33025   4.532   1.969   5.628  0.0484 -0.2636  0.1793
 8315SOL    HW233026   4.607   1.986   5.685  2.0756 -2.3396 -1.6730
 8315SOL    HW333027   4.538   2.036   5.560 -0.5232  0.3057  0.6794
 8315SOL    MW433028   4.543   1.980   5.626  0.2405 -0.4624  0.0009
 8316SOL     OW33029   1.855   0.223   2.283 -0.1329 -0.1671 -0.2752
 8316SOL    HW233030   1.800   0.251   2.210  1.1279  0.2828 -1.0913
 8316SOL    HW333031   1.819   0.270   2.358 -0.0848  1.1380 -1.0300
 8316SOL    MW433032   1.843   0.233   2.283  0.0398  0.0645 -0.4825
 8317SOL     OW33033   2.705   1.370   0.447  0.4013  0.0702  0.2690
 8317SOL    HW233034   2.669   1.456   0.427 -1.7216 -0.7388  0.3167
 8317SOL    HW333035   2.794   1.387   0.478  0.8766  2.0270 -1.9299
 8317SOL    MW433036   2.712   1.383   0.448  0.1839  0.2216 -0.0148
 8318SOL     OW33037   1.424   1.911   4.285  0.0240 -0.3593  0.1740
 8318SOL    HW233038   1.350   1.850   4.289 -0.8575  0.7202  3.5749
 8318SOL    HW333039   1.392   1.984   4.232 -1.5670  0.2282  1.8460
 8318SOL    MW433040   1.410   1.913   4.278 -0.3022 -0.1393  0.8433
 8319SOL     OW33041   1.499   2.097   4.520  0.1376 -0.2685  0.0396
 8319SOL    HW233042   1.467   2.043   4.448 -2.2287 -0.6773  1.2637
 8319SOL    HW333043   1.511   2.035   4.592  2.2058  0.1634  0.1187
 8319SOL    MW433044   1.496   2.081   4.520  0.0983 -0.2654  0.2115
 8320SOL     OW33045   4.280   1.949   4.828  0.1930 -0.1345 -0.8599
 8320SOL    HW233046   4.206   2.008   4.812  0.7175  0.4873 -1.0033
 8320SOL    HW333047   4.239   1.863   4.841 -0.4668 -0.1300 -2.6256
 8320SOL    MW433048   4.265   1.946   4.827  0.1752 -0.0519 -1.1118
 8321SOL     OW33049   3.494   3.954   0.832 -1.0197 -0.0865  0.0821
 8321SOL    HW233050   3.513   3.927   0.921 -1.7302  1.5577  0.7813
 8321SOL    HW333051   3.429   3.891   0.801  0.8806 -2.0361 -0.1437
 8321SOL    MW433052   3.488   3.942   0.839 -0.8627 -0.1268  0.1445
 8322SOL     OW33053   4.580   4.853   0.820 -0.1554 -0.0901 -0.1342
 8322SOL    HW233054   4.588   4.941   0.856 -0.7050 -0.0749 -0.0397
 8322SOL    HW333055   4.513   4.861   0.752 -0.7860 -0.5903  0.4124
 8322SOL    MW433056   4.572   4.865   0.816 -0.3111 -0.1541 -0.0496
 8323SOL     OW33057   0.163   0.533   0.235 -0.6758  1.1453 -0.0645
 8323SOL    HW233058   0.082   0.533   0.286 -1.4258  4.3063 -0.9794
 8323SOL    HW333059   0.136   0.511   0.146 -0.0152 -0.4873  0.1022
 8323SOL    MW433060   0.149   0.530   0.230 -0.6876  1.3470 -0.1632
 8324SOL     OW33061   1.595   4.661   1.360  0.5003 -0.1560 -0.1934
 8324SOL    HW233062   1.629   4.619   1.281  0.3073 -0.5569 -0.0640
 8324SOL    HW333063   1.521   4.607   1.387  0.2215  0.2862 -0.0466
 8324SOL    MW433064   1.590   4.649   1.353  0.4381 -0.1506 -0.1570
 8325SOL     OW33065   1.121   2.789   1.876 -0.3245  0.3221 -0.3530
 8325SOL    HW233066   1.206   2.833   1.874  0.6855 -1.5422 -1.2720
 8325SOL    HW333067   1.076   2.822   1.798  0.2577  0.0509 -0.8134
 8325SOL    MW433068   1.126   2.799   1.865 -0.1145  0.0404 -0.5350
 8326SOL     OW33069   5.236   3.105   3.305  0.0330  0.0656 -0.5139
 8326SOL    HW233070   5.182   3.181   3.287  0.2031  0.1631 -0.6090
 8326SOL    HW333071   5.198   3.035   3.252  0.8235  0.4654 -1.6267
 8326SOL    MW433072   5.224   3.106   3.296  0.1598  0.1312 -0.6733
 8327SOL     OW33073   5.884   5.917   4.227  0.0647 -0.0493 -0.2189
 8327SOL    HW233074   5.857   5.832   4.193 -1.4119 -0.9178  2.7546
 8327SOL    HW333075   5.803   5.968   4.229  0.0147 -0.1323  2.0295
 8327SOL    MW433076   5.870   5.913   4.222 -0.1367 -0.1749  0.4701
 8328SOL     OW33077   2.656   4.168   0.928  0.0089  0.2964  0.1982
 8328SOL    HW233078   2.710   4.099   0.966 -1.2889 -0.9589 -0.1412
 8328SOL    HW333079   2.650   4.235   0.996  0.5285 -0.3579  0.8919
 8328SOL    MW433080   2.662   4.168   0.942 -0.0938  0.0445  0.2449
 8329SOL     OW33081   1.528   1.025   0.670 -0.2888 -0.3228  0.4768
 8329SOL    HW233082   1.442   1.016   0.630 -0.7371 -0.5333  1.4597
 8329SOL    HW333083   1.528   0.961   0.742  2.2030 -3.4613 -2.0048
 8329SOL    MW433084   1.517   1.015   0.675 -0.0192 -0.7647  0.2791
 8330SOL     OW33085   4.706   4.814   4.247  0.8093  0.2072  0.3405
 8330SOL    HW233086   4.658   4.756   4.305 -1.2007  1.4301 -0.0094
 8330SOL    HW333087   4.685   4.784   4.159 -0.3847  1.4675  0.1491
 8330SOL    MW433088   4.697   4.803   4.243  0.3866  0.5348  0.2691
 8331SOL     OW33089   0.731   1.900   3.302 -0.1181 -0.1675 -0.4043
 8331SOL    HW233090   0.745   1.934   3.213 -0.4836 -2.8294 -1.5856
 8331SOL    HW333091   0.636   1.908   3.316 -0.1287 -0.1957 -0.4591
 8331SOL    MW433092   0.720   1.906   3.292 -0.1678 -0.5224 -0.5674
 8332SOL     OW33093   1.182   5.434   0.877 -0.3049 -0.1696  0.4758
 8332SOL    HW233094   1.255   5.439   0.938 -0.1250 -1.5387  0.3967
 8332SOL    HW333095   1.201   5.358   0.822  0.2854  1.7908 -2.2761
 8332SOL    MW433096   1.194   5.425   0.877 -0.2033 -0.0916  0.1023
 8333SOL     OW33097   2.822   1.495   1.008 -0.0428 -1.1528 -0.0715
 8333SOL    HW233098   2.750   1.502   1.071  1.1030 -1.1211  1.2752
 8333SOL    HW333099   2.833   1.401   0.993 -1.5307 -1.1164 -1.7212
 8333SOL    MW433100   2.814   1.484   1.015 -0.0879 -1.1438 -0.1115
 8334SOL     OW33101   5.492   1.812   2.979 -0.2930  0.1219 -0.1752
 8334SOL    HW233102   5.482   1.720   2.956  1.7873 -0.6588  1.6558
 8334SOL    HW333103   5.406   1.851   2.964 -0.5039 -1.4188 -3.7214
 8334SOL    MW433104   5.480   1.805   2.974 -0.0464 -0.1844 -0.4015
 8335SOL     OW33105   2.798   3.212   3.482 -0.8240 -0.3415  0.3386
 8335SOL    HW233106   2.842   3.292   3.513 -0.9647 -0.1469  0.0436
 8335SOL    HW333107   2.868   3.157   3.449 -0.8374  0.1367 -0.5056
 8335SOL    MW433108   2.813   3.216   3.482 -0.8443 -0.2527  0.1883
 8336SOL     OW33109   1.110   0.831   5.740  0.3117  0.3658 -0.1614
 8336SOL    HW233110   1.124   0.776   5.817  0.6845  1.6504  0.7101
 8336SOL    HW333111   1.144   0.917   5.764  3.2513  0.1054 -2.7861
 8336SOL    MW433112   1.116   0.835   5.753  0.7487  0.5009 -0.3927
 8337SOL     OW33113   5.487   1.884   5.583 -0.5700  0.1250  0.0556
 8337SOL    HW233114   5.569   1.934   5.588  1.1661 -2.6265  2.2844
 8337SOL    HW333115   5.443   1.902   5.666 -0.3849 -1.2471  0.4685
 8337SOL    MW433116   5.492   1.893   5.595 -0.3165 -0.4190  0.4041
 8338SOL     OW33117   4.036   0.002   3.951  0.0682  0.3135 -0.1635
 8338SOL    HW233118   4.109   0.041   4.000  0.9022 -0.4835 -0.7221
 8338SOL    HW333119   4.047  -0.092   3.964 -1.1109  0.1997  0.0612
 8338SOL    MW433120   4.047  -0.005   3.959  0.0227  0.1933 -0.2075
 8339SOL     OW33121   0.576   4.306   4.075 -0.5419  0.1835 -0.5435
 8339SOL    HW233122   0.533   4.289   4.159  0.2779  0.1658 -0.1164
 8339SOL    HW333123   0.572   4.401   4.065  0.4572  0.3124  0.1326
 8339SOL    MW433124   0.570   4.316   4.085 -0.3019  0.1982 -0.3980
 8340SOL     OW33125   0.122   2.798   4.039  0.2608 -0.0206  0.5417
 8340SOL    HW233126   0.135   2.734   4.109  0.0768 -0.0594  0.5410
 8340SOL    HW333127   0.210   2.819   4.009  0.4681  1.3717  2.0174
 8340SOL    MW433128   0.135   2.792   4.044  0.2638  0.1580  0.7363
 8341SOL     OW33129   4.032   1.726   0.630 -0.4045  0.5348  0.2314
 8341SOL    HW233130   4.086   1.649   0.613  0.3206  0.9358  0.6805
 8341SOL    HW333131   3.973   1.731   0.555 -1.2187 -1.1002  0.7209
 8341SOL    MW433132   4.031   1.716   0.618 -0.4162  0.3720  0.3552
 8342SOL     OW33133   2.818   5.839   3.023 -0.0558 -0.1709 -0.4047
 8342SOL    HW233134   2.746   5.876   3.073  0.6263  1.0570 -0.3078
 8342SOL    HW333135   2.807   5.744   3.032  0.6151 -0.0521  2.9352
 8342SOL    MW433136   2.807   5.831   3.030  0.1227  0.0068  0.0487
 8343SOL     OW33137   5.551   3.730   5.153 -0.2086  0.1111 -0.0649
 8343SOL    HW233138   5.543   3.816   5.194 -1.5938 -0.0043 -0.0419
 8343SOL    HW333139   5.571   3.748   5.061  0.7225  0.4123  0.1822
 8343SOL    MW433140   5.553   3.744   5.147 -0.2685  0.1356 -0.0293
 8344SOL     OW33141   2.442   1.869   1.623  0.4615  0.1431  0.2515
 8344SOL    HW233142   2.495   1.883   1.702  0.0043  2.2329  0.2430
 8344SOL    HW333143   2.480   1.928   1.558 -0.7195  0.3045 -0.3167
 8344SOL    MW433144   2.454   1.879   1.625  0.2453  0.4401  0.1754
 8345SOL     OW33145   2.736   2.647   2.731 -0.0368  0.0330 -0.0722
 8345SOL    HW233146   2.804   2.690   2.782  0.8329 -0.4835 -0.7845
 8345SOL    HW333147   2.751   2.677   2.641 -0.7717 -0.0579 -0.2326
 8345SOL    MW433148   2.747   2.657   2.726 -0.0190 -0.0472 -0.1873
 8346SOL     OW33149   3.150   5.348   2.260  0.8222  0.2865 -0.5722
 8346SOL    HW233150   3.137   5.381   2.349  1.2930 -0.3323 -0.2633
 8346SOL    HW333151   3.130   5.254   2.266 -0.5158  0.4894 -1.4306
 8346SOL    MW433152   3.146   5.340   2.272  0.7077  0.2316 -0.6447
 8347SOL     OW33153   4.245   1.523   4.200 -0.5709  0.4540  0.3000
 8347SOL    HW233154   4.324   1.508   4.149  0.1629 -0.2154  1.5857
 8347SOL    HW333155   4.234   1.618   4.201  2.4237  0.9498  3.1935
 8347SOL    MW433156   4.254   1.534   4.193 -0.0790  0.4311  0.8514
 8348SOL     OW33157   0.115   5.442   1.403  0.6282 -0.4603  0.0210
 8348SOL    HW233158   0.126   5.531   1.438 -0.1765  0.3666 -1.7506
 8348SOL    HW333159   0.023   5.422   1.418  0.2659 -0.0919 -1.5362
 8348SOL    MW433160   0.105   5.451   1.410  0.4742 -0.3026 -0.4182
 8349SOL     OW33161   6.051   2.097   4.811 -0.2849 -0.3642 -0.2914
 8349SOL    HW233162   5.999   2.151   4.872 -2.3853 -3.6481  1.1394
 8349SOL    HW333163   5.998   2.095   4.731  0.1908  0.2910 -0.6291
 8349SOL    MW433164   6.037   2.104   4.809 -0.4992 -0.7110 -0.1472
 8350SOL     OW33165   2.487   5.473   6.141 -0.2542  0.2970  0.2394
 8350SOL    HW233166   2.430   5.472   6.064 -0.7308  0.0100  0.5948
 8350SOL    HW333167   2.531   5.559   6.137  1.4883 -0.5780 -1.6250
 8350SOL    MW433168   2.486   5.484   6.130 -0.0872  0.1437  0.0403
 8351SOL     OW33169   5.636   3.658   1.225  0.0168 -0.0649  0.4326
 8351SOL    HW233170   5.633   3.747   1.191  0.4834 -0.2263 -0.0301
 8351SOL    HW333171   5.728   3.633   1.220 -0.2421 -0.9130 -0.3201
 8351SOL    MW433172   5.647   3.666   1.220  0.0442 -0.1981  0.2722
 8352SOL     OW33173   1.012   4.721   6.132  0.1188  0.1840 -0.0500
 8352SOL    HW233174   0.974   4.638   6.102  0.4749  0.7290 -2.1934
 8352SOL    HW333175   0.949   4.754   6.196 -1.7463 -0.2046 -1.5679
 8352SOL    MW433176   0.998   4.714   6.136 -0.0803  0.2046 -0.5331
 8353SOL     OW33177   2.960   4.017   5.967 -0.5988  0.0689  0.2497
 8353SOL    HW233178   2.969   3.968   5.886 -1.4970 -1.7422  1.1759
 8353SOL    HW333179   2.886   4.076   5.952 -1.8238 -1.4041  0.2331
 8353SOL    MW433180   2.952   4.018   5.954 -0.8789 -0.3644  0.3697
 8354SOL     OW33181   0.524   2.658   1.018  0.8406  0.2198  0.5413
 8354SOL    HW233182   0.610   2.701   1.014  0.5840  0.6645 -0.7338
 8354SOL    HW333183   0.537   2.584   1.078  2.0796  0.3555  0.4714
 8354SOL    MW433184   0.537   2.654   1.025  0.9702  0.2964  0.3638
 8355SOL     OW33185   5.918   0.871   4.536 -0.4608 -0.1126  0.9596
 8355SOL    HW233186   5.901   0.784   4.502  0.2496 -0.0449  0.3979
 8355SOL    HW333187   6.012   0.872   4.556 -0.3713  0.6427  0.5729
 8355SOL    MW433188   5.928   0.860   4.535 -0.3552 -0.0040  0.8345
 8356SOL     OW33189   0.307   1.786   4.391  0.2142 -0.0793  0.0076
 8356SOL    HW233190   0.294   1.879   4.372 -0.7603 -0.0642  0.7031
 8356SOL    HW333191   0.347   1.785   4.478 -0.8131 -0.3365  0.4867
 8356SOL    MW433192   0.311   1.798   4.400 -0.0499 -0.1112  0.1626
 8357SOL     OW33193   6.051   1.681   1.625  0.2430  0.2221  0.3712
 8357SOL    HW233194   6.123   1.677   1.688  1.2964 -1.5818 -0.8388
 8357SOL    HW333195   5.973   1.660   1.677  0.7813  0.8296  1.4498
 8357SOL    MW433196   6.050   1.678   1.641  0.4530  0.0643  0.3539
 8358SOL     OW33197   1.296   0.861   2.989 -0.1622 -0.2796 -0.3054
 8358SOL    HW233198   1.201   0.850   2.994 -0.0965 -0.2304  3.7448
 8358SOL    HW333199   1.308   0.955   2.978 -0.5334 -0.3425 -1.4129
 8358SOL    MW433200   1.285   0.872   2.988 -0.2025 -0.2814  0.0828
 8359SOL     OW33201   3.769   0.032   2.505 -0.0226  0.2144 -0.0075
 8359SOL    HW233202   3.848  -0.018   2.522 -0.3194  0.5614  2.7847
 8359SOL    HW333203   3.701  -0.034   2.493  0.6885 -0.1249 -3.3399
 8359SOL    MW433204   3.770   0.017   2.506  0.0320  0.2154 -0.0788
 8360SOL     OW33205   1.424   5.482   6.210 -0.5937 -0.5064 -0.0374
 8360SOL    HW233206   1.359   5.461   6.143 -1.6483  0.9483  0.4938
 8360SOL    HW333207   1.442   5.575   6.198  1.0086 -0.7506  0.1831
 8360SOL    MW433208   1.418   5.491   6.200 -0.5214 -0.3467  0.0618
 8361SOL     OW33209   3.886   5.014   2.264 -0.0399 -0.7738  0.1137
 8361SOL    HW233210   3.958   5.026   2.203 -0.2702  1.0854  0.1467
 8361SOL    HW333211   3.878   4.919   2.274  3.3305 -1.0444  1.2633
 8361SOL    MW433212   3.894   5.003   2.257  0.3744 -0.5642  0.2697
 8362SOL     OW33213   6.329   3.746   3.978 -0.9674  0.3992  0.3117
 8362SOL    HW233214   6.293   3.784   3.897 -0.8772  0.5998  0.3634
 8362SOL    HW333215   6.366   3.822   4.025  0.0557  0.1249 -0.0161
 8362SOL    MW433216   6.329   3.761   3.973 -0.8205  0.3895  0.2753
 8363SOL     OW33217   0.513   0.594   6.107  0.1743  0.2852  0.0217
 8363SOL    HW233218   0.567   0.534   6.157  0.5119 -1.1750 -1.9570
 8363SOL    HW333219   0.460   0.639   6.172  1.8711 -0.1481  1.8026
 8363SOL    MW433220   0.513   0.592   6.122  0.4427  0.0353 -0.0044
 8364SOL     OW33221   3.626   4.966   4.666  0.2193  0.0329 -0.5498
 8364SOL    HW233222   3.690   4.942   4.599  0.9898 -0.4310  0.3301
 8364SOL    HW333223   3.679   4.993   4.742 -0.6104 -0.4894  0.2402
 8364SOL    MW433224   3.641   4.966   4.667  0.2115 -0.0972 -0.3295
 8365SOL     OW33225   0.475   6.332   5.290 -0.3412  0.4450 -0.4389
 8365SOL    HW233226   0.384   6.301   5.284 -0.7783  1.2437  1.2628
 8365SOL    HW333227   0.467   6.423   5.317  0.9172 -0.2778  2.8102
 8365SOL    MW433228   0.462   6.340   5.293 -0.2328  0.4550  0.2143
 8366SOL     OW33229   4.959   1.890   4.753  0.2221 -0.0254  0.5119
 8366SOL    HW233230   4.873   1.917   4.783  1.2475  2.6922  1.2500
 8366SOL    HW333231   4.995   1.966   4.707  1.6636 -1.5872 -1.1158
 8366SOL    MW433232   4.953   1.903   4.751  0.5476  0.1271  0.3945
 8367SOL     OW33233   3.526   3.488   5.253  0.0682  0.4488 -0.0293
 8367SOL    HW233234   3.534   3.496   5.158  1.0735  1.0561  0.0930
 8367SOL    HW333235   3.437   3.517   5.272 -1.0176 -1.9765 -1.0070
 8367SOL    MW433236   3.516   3.493   5.243  0.0575  0.2089 -0.1422
 8368SOL     OW33237   6.398   1.686   5.504  0.6526 -0.9754  0.2442
 8368SOL    HW233238   6.485   1.679   5.466  1.1050  0.8011  0.8693
 8368SOL    HW333239   6.407   1.751   5.573 -0.9498 -1.5093  1.0131
 8368SOL    MW433240   6.411   1.693   5.508  0.5008 -0.8115  0.4281
 8369SOL     OW33241   1.003   4.457   5.515 -0.0081  0.4845 -0.0780
 8369SOL    HW233242   1.067   4.522   5.545  1.4671 -1.4336  1.2956
 8369SOL    HW333243   1.033   4.432   5.428 -0.0531  1.0118 -0.2446
 8369SOL    MW433244   1.016   4.462   5.508  0.1806  0.3010  0.0813
 8370SOL     OW33245   0.028   5.555   0.410 -0.2009  0.4195  0.2347
 8370SOL    HW233246  -0.040   5.590   0.352 -0.8061 -0.6104  0.2889
 8370SOL    HW333247   0.109   5.593   0.378 -0.7828  1.5313  0.0529
 8370SOL    MW433248   0.030   5.564   0.398 -0.3575  0.4303  0.2178
 8371SOL     OW33249   1.575   3.807   3.871 -0.1901  0.3352  0.0583
 8371SOL    HW233250   1.497   3.802   3.925 -0.9983 -0.2246 -1.1129
 8371SOL    HW333251   1.547   3.774   3.786  1.1145  0.8970 -0.6177
 8371SOL    MW433252   1.561   3.802   3.867 -0.1246  0.3355 -0.1854
 8372SOL     OW33253   2.235   0.761   5.878  0.5496  0.0573  0.9323
 8372SOL    HW233254   2.233   0.746   5.784  0.6329 -0.9554  1.0819
 8372SOL    HW333255   2.163   0.822   5.895  0.1418 -0.2427  0.2962
 8372SOL    MW433256   2.225   0.767   5.868  0.5068 -0.1159  0.8681
 8373SOL     OW33257   2.887   5.070   3.700 -0.4685 -0.2662 -0.2926
 8373SOL    HW233258   2.893   4.987   3.654  0.9452 -1.0055  1.1274
 8373SOL    HW333259   2.926   5.134   3.640  1.0116 -1.1366 -0.3071
 8373SOL    MW433260   2.893   5.068   3.686 -0.0867 -0.4786 -0.1072
 8374SOL     OW33261   3.766   3.103   3.327 -0.2267  0.4684 -0.2645
 8374SOL    HW233262   3.792   3.144   3.245 -0.2537  0.5986 -0.2087
 8374SOL    HW333263   3.737   3.015   3.302  0.0550  0.4018 -0.3542
 8374SOL    MW433264   3.765   3.097   3.313 -0.1931  0.4768 -0.2690
 8375SOL     OW33265   1.613   0.351   4.359  0.2951 -0.2588 -0.0576
 8375SOL    HW233266   1.686   0.333   4.299  0.8081  0.4747  0.3346
 8375SOL    HW333267   1.595   0.267   4.402 -1.3741 -1.3532 -2.5916
 8375SOL    MW433268   1.620   0.337   4.357  0.1426 -0.3064 -0.3402
 8376SOL     OW33269   2.545   2.205   5.939 -0.7825  0.5097  0.9491
 8376SOL    HW233270   2.551   2.300   5.951 -0.3397  0.1481  4.3748
 8376SOL    HW333271   2.507   2.173   6.020  0.4764 -2.4031  0.5014
 8376SOL    MW433272   2.541   2.213   5.951 -0.5580  0.0777  1.3420
 8377SOL     OW33273   2.232   4.854   5.320  0.0320 -0.3630  0.4108
 8377SOL    HW233274   2.254   4.945   5.339  0.1998 -0.0796 -1.0350
 8377SOL    HW333275   2.171   4.829   5.390  0.6990  0.5503  1.3537
 8377SOL    MW433276   2.227   4.862   5.332  0.1421 -0.2051  0.3445
 8378SOL     OW33277   5.934   4.798   0.047 -0.3749 -0.5162  0.1062
 8378SOL    HW233278   5.942   4.704   0.064 -1.7041 -1.0026 -1.6835
 8378SOL    HW333279   5.989   4.813  -0.030 -0.1439  0.1886  0.4011
 8378SOL    MW433280   5.943   4.787   0.039 -0.5198 -0.4874 -0.0910
 8379SOL     OW33281   3.608   2.716   0.537  0.1810  0.0271 -0.2653
 8379SOL    HW233282   3.627   2.798   0.492  0.2895  0.1229 -0.0466
 8379SOL    HW333283   3.691   2.690   0.575  0.0122  0.1251  0.1714
 8379SOL    MW433284   3.621   2.723   0.536  0.1730  0.0527 -0.1788
 8380SOL     OW33285   2.899   0.091   2.352  0.2307 -0.2072 -0.0422
 8380SOL    HW233286   2.869   0.160   2.411  1.3807 -1.0154  1.5807
 8380SOL    HW333287   2.893   0.129   2.265 -0.0354  1.5998  0.7302
 8380SOL    MW433288   2.894   0.105   2.349  0.3473 -0.0754  0.2739
 8381SOL     OW33289   1.881   0.789   3.585 -0.6183  0.1212  0.5311
 8381SOL    HW233290   1.796   0.826   3.563 -0.4654  0.0697 -0.1886
 8381SOL    HW333291   1.923   0.774   3.500  0.7841  1.7065  0.8947
 8381SOL    MW433292   1.875   0.792   3.571 -0.4131  0.3236  0.4841
 8382SOL     OW33293   4.017   4.689   3.919  0.5398  0.4124  0.5302
 8382SOL    HW233294   4.021   4.647   4.005  0.5711  0.1211  0.3889
 8382SOL    HW333295   4.096   4.743   3.914  0.7723  0.0740  0.5051
 8382SOL    MW433296   4.028   4.690   3.929  0.5746  0.3293  0.5083
 8383SOL     OW33297   2.780   5.016   2.346  0.3111  0.3962  0.1736
 8383SOL    HW233298   2.773   5.111   2.337  1.1278  0.3593 -1.3392
 8383SOL    HW333299   2.720   4.981   2.280  2.0768 -0.0560 -1.2803
 8383SOL    MW433300   2.771   5.024   2.336  0.6518  0.3316 -0.2178
 8384SOL     OW33301   0.773   6.337   6.192  0.2953  0.1964  0.2467
 8384SOL    HW233302   0.808   6.352   6.280  1.5358 -0.5401 -0.0900
 8384SOL    HW333303   0.806   6.410   6.140  0.1276  0.2656  0.2349
 8384SOL    MW433304   0.782   6.348   6.197  0.4369  0.1084  0.2007
 8385SOL     OW33305   1.028   0.826   2.990  0.1936 -0.8713 -0.9968
 8385SOL    HW233306   1.023   0.807   3.083  0.0491 -1.4187 -1.1122
 8385SOL    HW333307   1.013   0.921   2.984 -4.0345 -1.3123 -0.7622
 8385SOL    MW433308   1.025   0.836   3.001 -0.3833 -1.0017 -0.9810
 8386SOL     OW33309   0.315   2.935   0.647 -0.3106  0.1569  0.0565
 8386SOL    HW233310   0.245   2.915   0.710  0.8921  0.8396  1.6938
 8386SOL    HW333311   0.360   2.851   0.635 -1.1387 -0.1927 -0.6778
 8386SOL    MW433312   0.312   2.921   0.654 -0.2612  0.2009  0.1756
 8387SOL     OW33313   1.687   0.934   2.343 -0.0965 -0.1403 -0.2055
 8387SOL    HW233314   1.740   0.985   2.405 -1.2389 -0.2862  0.9227
 8387SOL    HW333315   1.667   0.853   2.390  0.3030 -0.9328 -1.3578
 8387SOL    MW433316   1.692   0.930   2.358 -0.1945 -0.2641 -0.2087
 8388SOL     OW33317   0.089   6.072   0.849 -0.0349 -0.5232 -0.3004
 8388SOL    HW233318   0.005   6.107   0.877 -0.0859 -0.6845 -0.2498
 8388SOL    HW333319   0.151   6.103   0.916 -0.2198 -1.2344  0.2178
 8388SOL    MW433320   0.086   6.081   0.862 -0.0660 -0.6383 -0.2254
 8389SOL     OW33321   1.951   4.520   0.866 -0.2655 -0.5588  0.1575
 8389SOL    HW233322   1.959   4.599   0.919  1.2703 -0.9206  0.5160
 8389SOL    HW333323   1.942   4.552   0.776 -1.3105  0.0259  0.4526
 8389SOL    MW433324   1.951   4.535   0.861 -0.2007 -0.5294  0.2437
 8390SOL     OW33325   3.842   5.330   2.149 -0.0911  0.2789 -0.7224
 8390SOL    HW233326   3.892   5.304   2.071  0.1012  1.5850 -1.0555
 8390SOL    HW333327   3.903   5.381   2.201 -0.8460  1.2766 -0.7832
 8390SOL    MW433328   3.856   5.333   2.146 -0.1653  0.5828 -0.7744
 8391SOL     OW33329   1.697   1.413   6.121  0.1967 -0.1879 -0.7074
 8391SOL    HW233330   1.630   1.401   6.053 -0.8723  0.8055  0.1474
 8391SOL    HW333331   1.737   1.497   6.101 -1.6960  1.2466  1.1511
 8391SOL    MW433332   1.694   1.422   6.109 -0.1940  0.1324 -0.3494
 8392SOL     OW33333   4.767   3.377   0.268 -1.2782 -0.0117  0.1244
 8392SOL    HW233334   4.831   3.317   0.229 -1.6548 -0.0936 -0.3812
 8392SOL    HW333335   4.809   3.463   0.263 -0.0274 -0.4110  2.3645
 8392SOL    MW433336   4.781   3.380   0.262 -1.1629 -0.0752  0.3533
 8393SOL     OW33337   1.753   4.294   3.001 -0.8176  0.0164  0.4837
 8393SOL    HW233338   1.817   4.285   3.072  0.9777 -0.6312 -1.1147
 8393SOL    HW333339   1.716   4.206   2.991 -1.0073  0.0875  0.5622
 8393SOL    MW433340   1.757   4.281   3.009 -0.6058 -0.0596  0.2832
 8394SOL     OW33341   5.376   2.311   3.158  0.6789  0.1535  0.1100
 8394SOL    HW233342   5.405   2.220   3.164 -0.7960 -0.2687  1.6089
 8394SOL    HW333343   5.440   2.352   3.099 -0.0995 -2.4261 -2.8311
 8394SOL    MW433344   5.389   2.304   3.151  0.3816 -0.2426 -0.0803
 8395SOL     OW33345   2.229   2.632   5.162  0.6953 -0.0071 -0.3151
 8395SOL    HW233346   2.318   2.641   5.196  0.9897 -0.3610 -0.9612
 8395SOL    HW333347   2.221   2.538   5.143  0.7864  0.2688 -1.8304
 8395SOL    MW433348   2.240   2.621   5.164  0.7462 -0.0174 -0.6003
 8396SOL     OW33349   2.676   0.012   4.630  0.1843 -1.0197  0.1980
 8396SOL    HW233350   2.761  -0.006   4.671  1.1356 -0.3350 -1.3629
 8396SOL    HW333351   2.649   0.096   4.666  0.8353 -0.5913 -0.2923
 8396SOL    MW433352   2.684   0.020   4.640  0.3957 -0.8728 -0.0727
 8397SOL     OW33353   3.573   0.606   1.343 -0.4616  0.2122  0.8667
 8397SOL    HW233354   3.561   0.645   1.430  0.3940  0.5748  0.8301
 8397SOL    HW333355   3.667   0.607   1.330 -0.6597  3.0528 -1.3701
 8397SOL    MW433356   3.584   0.611   1.353 -0.3748  0.6349  0.5668
 8398SOL     OW33357   1.674   1.303   2.494 -0.2147  0.1891  0.0236
 8398SOL    HW233358   1.585   1.270   2.482 -0.8893  0.9307  2.4599
 8398SOL    HW333359   1.725   1.226   2.518  0.0588 -0.3971 -2.2304
 8398SOL    MW433360   1.669   1.289   2.496 -0.2676  0.2096  0.0477
 8399SOL     OW33361   0.187   2.943   2.363  0.5342 -0.1263  0.2357
 8399SOL    HW233362   0.193   2.855   2.401  0.8825 -1.1260 -2.0022
 8399SOL    HW333363   0.094   2.955   2.346  0.5387 -0.2353  0.1349
 8399SOL    MW433364   0.176   2.933   2.366  0.5807 -0.2726 -0.0728
 8400SOL     OW33365   2.355   3.054   3.140  0.7531 -0.1008 -0.3602
 8400SOL    HW233366   2.351   3.022   3.050  3.6186 -1.1104 -0.2482
 8400SOL    HW333367   2.349   2.975   3.194  2.0306  0.1430  0.1704
 8400SOL    MW433368   2.354   3.039   3.135  1.2998 -0.2018 -0.2754
 8401SOL     OW33369   0.063   1.007   3.001  0.4423  0.1698 -0.3788
 8401SOL    HW233370   0.131   1.073   3.007  0.7381 -0.0903 -0.8502
 8401SOL    HW333371   0.092   0.947   2.932 -0.3373  0.1496 -0.7083
 8401SOL    MW433372   0.076   1.008   2.993  0.3785  0.1328 -0.4845
 8402SOL     OW33373   4.125   0.977   1.776  0.2583  0.1988 -0.2872
 8402SOL    HW233374   4.064   1.016   1.714 -0.3824 -1.7756 -0.9992
 8402SOL    HW333375   4.125   0.884   1.753  1.7694 -0.2199  1.2161
 8402SOL    MW433376   4.117   0.970   1.765  0.3732 -0.1169 -0.1828
 8403SOL     OW33377   5.534   2.247   2.421 -0.2002  0.5344  0.4651
 8403SOL    HW233378   5.609   2.188   2.427 -0.3937  0.3594  1.3654
 8403SOL    HW333379   5.468   2.208   2.480  0.2968  2.5726  2.5285
 8403SOL    MW433380   5.535   2.234   2.430 -0.1602  0.7802  0.8561
 8404SOL     OW33381   3.320   6.162   4.462 -0.3648  0.4304 -0.5059
 8404SOL    HW233382   3.383   6.101   4.500 -0.6794 -0.2415 -1.0346
 8404SOL    HW333383   3.291   6.120   4.381 -2.3460  0.1446  0.2788
 8404SOL    MW433384   3.324   6.148   4.457 -0.6677  0.3041 -0.4721
 8405SOL     OW33385   0.813   2.002   1.552  0.8355  0.2973  0.0250
 8405SOL    HW233386   0.803   2.003   1.647  1.3192 -0.4910  0.0918
 8405SOL    HW333387   0.784   2.089   1.524  0.0255  0.3032  0.8210
 8405SOL    MW433388   0.808   2.014   1.560  0.7925  0.1941  0.1388
 8406SOL     OW33389   1.908   3.209   3.784  0.0015 -0.1605  0.3728
 8406SOL    HW233390   1.929   3.123   3.748  1.0641  0.7493 -1.3030
 8406SOL    HW333391   1.895   3.265   3.708 -0.5989  1.1967  1.4274
 8406SOL    MW433392   1.909   3.205   3.769  0.0625  0.1386  0.2909
 8407SOL     OW33393   1.997   5.401   1.478 -0.1584  0.0918  0.2286
 8407SOL    HW233394   1.927   5.338   1.466 -1.2809  1.5710 -1.2746
 8407SOL    HW333395   2.040   5.407   1.393  1.4049 -0.2755  0.9405
 8407SOL    MW433396   1.994   5.393   1.465 -0.1002  0.2385  0.1242
 8408SOL     OW33397   0.720   2.187   6.168  0.3917 -0.1635 -0.3250
 8408SOL    HW233398   0.653   2.208   6.103 -0.1495 -1.3526 -0.1732
 8408SOL    HW333399   0.675   2.196   6.252 -0.0593 -2.4379 -0.2683
 8408SOL    MW433400   0.705   2.191   6.171  0.2608 -0.6205 -0.2975
 8409SOL     OW33401   6.190   4.361   5.934  0.1055  0.0776  0.2263
 8409SOL    HW233402   6.269   4.327   5.975  0.4999  0.3291 -0.3132
 8409SOL    HW333403   6.208   4.454   5.922 -0.6022  0.3037  0.8548
 8409SOL    MW433404   6.203   4.369   5.938  0.0642  0.1406  0.2380
 8410SOL     OW33405   2.738   3.787   1.706  0.2960 -0.4000 -0.2066
 8410SOL    HW233406   2.818   3.784   1.760  0.1511 -0.1109  0.0305
 8410SOL    HW333407   2.765   3.755   1.620  0.4422 -1.2564  0.1486
 8410SOL    MW433408   2.752   3.782   1.702  0.2962 -0.4748 -0.1285
 8411SOL     OW33409   1.560   1.521   5.635 -0.5387 -0.2300  0.5460
 8411SOL    HW233410   1.520   1.482   5.557 -0.1829  0.7871 -0.1507
 8411SOL    HW333411   1.650   1.489   5.635 -0.5814 -0.3533  0.6343
 8411SOL    MW433412   1.566   1.511   5.625 -0.4974 -0.1121  0.4657
 8412SOL     OW33413   4.135   0.110   5.506  0.3021 -0.3385  0.1781
 8412SOL    HW233414   4.090   0.082   5.586  0.9667 -1.0503  0.3058
 8412SOL    HW333415   4.088   0.065   5.435  0.5340 -0.7432  0.2775
 8412SOL    MW433416   4.123   0.101   5.507  0.4204 -0.4858  0.2081
 8413SOL     OW33417   4.138   2.767   1.191  0.5359  0.4845 -0.2710
 8413SOL    HW233418   4.122   2.772   1.097 -0.1775 -2.3915 -0.4049
 8413SOL    HW333419   4.064   2.814   1.230 -0.0102  0.3791 -1.1344
 8413SOL    MW433420   4.126   2.774   1.184  0.3697  0.0911 -0.4026
 8414SOL     OW33421   6.158   4.985   3.571 -0.0387  0.1164 -0.1513
 8414SOL    HW233422   6.253   4.990   3.572 -0.0920  2.7156 -1.3005
 8414SOL    HW333423   6.131   5.019   3.657  0.0724  1.3508 -0.5820
 8414SOL    MW433424   6.167   4.990   3.583 -0.0311  0.6222 -0.3597
 8415SOL     OW33425   5.680   4.210   4.802 -0.1583 -0.2350 -0.5955
 8415SOL    HW233426   5.756   4.239   4.852 -0.8185  1.2374 -0.4083
 8415SOL    HW333427   5.693   4.116   4.791  2.4546  0.2042 -1.9298
 8415SOL    MW433428   5.692   4.201   4.807  0.0993  0.0172 -0.7468
 8416SOL     OW33429   0.860   1.745   1.207  0.6681 -0.3384  0.1905
 8416SOL    HW233430   0.949   1.760   1.239  0.1786  1.2085  0.9289
 8416SOL    HW333431   0.806   1.744   1.285 -0.0130 -0.9770 -0.2745
 8416SOL    MW433432   0.864   1.747   1.221  0.5136 -0.2185  0.2266
 8417SOL     OW33433   4.916   5.337   4.864 -0.0705  0.5110 -0.5032
 8417SOL    HW233434   4.856   5.269   4.836 -1.3415  1.9853 -1.5574
 8417SOL    HW333435   4.861   5.414   4.878  1.4460  1.6820 -0.6207
 8417SOL    MW433436   4.901   5.338   4.862 -0.0381  0.8600 -0.6578
 8418SOL     OW33437   4.395   3.009   1.763 -0.4379 -0.0755  0.1904
 8418SOL    HW233438   4.466   3.009   1.700 -0.6697  0.5183 -0.0756
 8418SOL    HW333439   4.336   2.940   1.733 -0.4295  0.0492 -0.1106
 8418SOL    MW433440   4.396   3.000   1.751 -0.4674  0.0193  0.1156
 8419SOL     OW33441   0.399   3.545   3.578 -0.1779 -0.5039  0.2689
 8419SOL    HW233442   0.386   3.621   3.635 -0.9499  0.6655 -1.3985
 8419SOL    HW333443   0.318   3.538   3.528  1.3726  0.1300 -2.5067
 8419SOL    MW433444   0.387   3.554   3.579 -0.0752 -0.2660 -0.3173
 8420SOL     OW33445   2.237   3.922   3.667  0.0906  0.0238 -0.3692
 8420SOL    HW233446   2.227   3.836   3.709 -3.3228  0.9861  1.0748
 8420SOL    HW333447   2.248   3.901   3.574 -0.0594 -1.9689  0.0053
 8420SOL    MW433448   2.237   3.908   3.660 -0.3795 -0.1122 -0.1293
 8421SOL     OW33449   3.145   1.117   0.099  0.5326 -0.2662  0.1315
 8421SOL    HW233450   3.113   1.110   0.189  0.1258  0.1387  0.0259
 8421SOL    HW333451   3.066   1.107   0.045  0.8951 -1.3927 -0.2206
 8421SOL    MW433452   3.130   1.115   0.104  0.5267 -0.3614  0.0711
 8422SOL     OW33453   4.669   0.968   0.653 -0.3228 -0.5784  0.6261
 8422SOL    HW233454   4.757   0.996   0.679  0.1048 -1.5657  0.2723
 8422SOL    HW333455   4.618   0.971   0.734  0.1353 -0.4070  0.9161
 8422SOL    MW433456   4.674   0.972   0.667 -0.2060 -0.6860  0.6177
 8423SOL     OW33457   4.816   2.481   6.399 -0.2335  0.7523  0.1545
 8423SOL    HW233458   4.852   2.400   6.362  0.6227  2.1319 -2.2784
 8423SOL    HW333459   4.882   2.509   6.463  0.3125  0.4109 -0.2475
 8423SOL    MW433460   4.830   2.474   6.402 -0.0485  0.8892 -0.2195
 8424SOL     OW33461   5.316   5.997   0.728  0.0370 -0.0991  0.5122
 8424SOL    HW233462   5.297   5.933   0.660  0.2432 -0.1759  0.5258
 8424SOL    HW333463   5.230   6.028   0.757 -0.0691 -0.6252  0.7540
 8424SOL    MW433464   5.302   5.993   0.723  0.0502 -0.1786  0.5459
 8425SOL     OW33465   5.087   5.311   4.113  0.6540 -0.3222 -0.9252
 8425SOL    HW233466   5.084   5.394   4.159  0.2154 -0.5279 -0.5723
 8425SOL    HW333467   5.141   5.254   4.168  0.6453 -0.3829 -0.9788
 8425SOL    MW433468   5.094   5.314   4.126  0.5950 -0.3574 -0.8857
 8426SOL     OW33469   3.335   3.365   0.473 -0.2325 -0.2572  0.3291
 8426SOL    HW233470   3.316   3.319   0.554  0.6946 -0.5508  0.3928
 8426SOL    HW333471   3.250   3.377   0.431 -0.8915  1.1198  1.9748
 8426SOL    MW433472   3.322   3.360   0.478 -0.1972 -0.1142  0.5546
 8427SOL     OW33473   0.714   5.879   0.492 -0.6467 -0.1229  0.0682
 8427SOL    HW233474   0.719   5.875   0.588 -0.4278  0.2143  0.0724
 8427SOL    HW333475   0.623   5.855   0.472 -0.0350 -2.8843  0.1881
 8427SOL    MW433476   0.702   5.875   0.502 -0.5371 -0.4427  0.0846
 8428SOL     OW33477   1.513   2.218   5.848 -0.8196  0.0548  0.1740
 8428SOL    HW233478   1.596   2.220   5.800 -0.8096 -1.6696  0.0597
 8428SOL    HW333479   1.524   2.283   5.917 -0.2377  1.4728 -1.1752
 8428SOL    MW433480   1.526   2.227   5.851 -0.7415  0.0144 -0.0191
 8429SOL     OW33481   2.526   1.986   1.022  0.3492 -0.7287 -0.4017
 8429SOL    HW233482   2.579   2.064   1.036  1.1077 -1.5611  1.6539
 8429SOL    HW333483   2.439   2.020   1.001  0.1382  0.7543  2.3727
 8429SOL    MW433484   2.522   2.001   1.021  0.4214 -0.6429  0.2356
 8430SOL     OW33485   0.395   1.820   0.368  0.1652  0.0177 -0.3384
 8430SOL    HW233486   0.433   1.880   0.304 -0.4348  0.9664  0.1693
 8430SOL    HW333487   0.313   1.791   0.328  0.3200 -0.2569 -0.4625
 8430SOL    MW433488   0.389   1.824   0.354  0.1065  0.1067 -0.2878
 8431SOL     OW33489   3.784   2.225   1.002  0.5083  0.4337 -0.4644
 8431SOL    HW233490   3.758   2.268   0.921 -0.4112  0.0402 -0.3922
 8431SOL    HW333491   3.742   2.277   1.071  0.7690  0.3988 -0.2791
 8431SOL    MW433492   3.775   2.238   1.000  0.4214  0.3771 -0.4304
 8432SOL     OW33493   1.199   3.945   2.856 -0.2526  0.5249  0.3221
 8432SOL    HW233494   1.175   3.907   2.941  0.7681  1.3632  0.9972
 8432SOL    HW333495   1.259   3.881   2.818 -0.1720  0.4805  0.5245
 8432SOL    MW433496   1.204   3.931   2.862 -0.1073  0.6297  0.4378
 8433SOL     OW33497   2.211   2.416   5.639 -0.6389 -0.0330  0.3307
 8433SOL    HW233498   2.293   2.375   5.611  1.0688  2.1465  1.8057
 8433SOL    HW333499   2.215   2.505   5.602 -1.2276  0.8597  2.3053
 8433SOL    MW433500   2.222   2.423   5.630 -0.4912  0.3724  0.7858
 8434SOL     OW33501   2.896   1.695   4.785  0.0598 -0.3038  0.5592
 8434SOL    HW233502   2.897   1.610   4.742  1.2108  0.9378 -2.0961
 8434SOL    HW333503   2.803   1.718   4.790 -0.1244 -0.0320 -2.4624
 8434SOL    MW433504   2.884   1.687   4.780  0.1874 -0.1042 -0.1898
 8435SOL     OW33505   1.171   1.017   3.437 -0.1853  0.3046  0.2582
 8435SOL    HW233506   1.155   1.096   3.385 -2.8064  0.2112  0.7945
 8435SOL    HW333507   1.095   1.010   3.495 -0.1489 -2.7012  0.1215
 8435SOL    MW433508   1.159   1.027   3.438 -0.5263 -0.1043  0.3109
 8436SOL     OW33509   3.243   3.775   2.825  0.1450 -0.1704  0.2586
 8436SOL    HW233510   3.178   3.844   2.836  0.8227  0.6051 -0.4536
 8436SOL    HW333511   3.227   3.715   2.898 -0.2707  0.8888  1.0697
 8436SOL    MW433512   3.233   3.776   2.836  0.1795  0.0717  0.2716
 8437SOL     OW33513   5.564   2.322   1.174  0.2805 -0.6136 -0.8067
 8437SOL    HW233514   5.601   2.238   1.198 -0.0937 -1.1971 -2.1556
 8437SOL    HW333515   5.602   2.341   1.088 -1.6908 -0.7385 -1.7594
 8437SOL    MW433516   5.574   2.314   1.166 -0.0289 -0.7071 -1.1103
 8438SOL     OW33517   1.440   3.867   6.318 -0.4686 -0.2810 -0.1138
 8438SOL    HW233518   1.526   3.894   6.350 -1.9756  1.4665  2.9520
 8438SOL    HW333519   1.379   3.926   6.362 -3.3248 -2.1442 -1.3129
 8438SOL    MW433520   1.443   3.878   6.328 -1.0442 -0.2963  0.1325
 8439SOL     OW33521   1.910   5.756   4.240 -0.0694 -0.2145  0.2497
 8439SOL    HW233522   1.974   5.721   4.302 -0.9977 -3.3641 -0.4309
 8439SOL    HW333523   1.828   5.711   4.262 -1.6577  2.2540 -0.1705
 8439SOL    MW433524   1.908   5.746   4.251 -0.4014 -0.3044  0.1045
 8440SOL     OW33525   5.783   5.567   0.374 -0.3810 -0.6548  0.0520
 8440SOL    HW233526   5.772   5.574   0.469  0.6707  1.1851  0.0942
 8440SOL    HW333527   5.865   5.518   0.364  1.2493  1.7960  0.2691
 8440SOL    MW433528   5.793   5.562   0.386 -0.0271 -0.0887  0.0862
 8441SOL     OW33529   1.202   5.894   3.244 -0.0188 -0.3029  0.6598
 8441SOL    HW233530   1.136   5.851   3.298  0.2888  1.0373  2.2193
 8441SOL    HW333531   1.225   5.973   3.294  0.8034  0.6619 -1.1312
 8441SOL    MW433532   1.196   5.899   3.258  0.1303  0.0012  0.6293
 8442SOL     OW33533   0.903   4.732   3.920 -0.2680  0.6480  0.2344
 8442SOL    HW233534   0.935   4.788   3.849 -1.2476 -0.3815 -1.0730
 8442SOL    HW333535   0.922   4.781   4.000  2.2011  1.2093 -0.6020
 8442SOL    MW433536   0.910   4.746   3.921 -0.0715  0.5863 -0.0485
 8443SOL     OW33537   5.064   1.303   1.790  0.3453 -0.4314 -0.2215
 8443SOL    HW233538   5.131   1.369   1.807 -0.9881  1.3459 -1.4639
 8443SOL    HW333539   5.044   1.266   1.877  1.1546  0.7625  0.5031
 8443SOL    MW433540   5.070   1.307   1.804  0.2762 -0.0394 -0.2898
 8444SOL     OW33541   2.254   5.292   5.222  0.3555  0.2574  0.2670
 8444SOL    HW233542   2.166   5.302   5.257  0.3743 -0.1833  0.4531
 8444SOL    HW333543   2.291   5.219   5.272 -0.0995 -1.3309 -1.6175
 8444SOL    MW433544   2.247   5.283   5.233  0.2980 -0.0103  0.0429
 8445SOL     OW33545   4.207   5.585   6.239 -0.3262 -0.1650 -0.3677
 8445SOL    HW233546   4.217   5.680   6.245  1.5528 -0.1812 -2.1254
 8445SOL    HW333547   4.277   5.550   6.293  0.0843 -0.5138 -1.1119
 8445SOL    MW433548   4.217   5.593   6.247 -0.0242 -0.2131 -0.6978
 8446SOL     OW33549   4.263   2.983   4.581 -0.1144  0.7608  0.1542
 8446SOL    HW233550   4.268   2.902   4.633  1.6117  1.1662  0.6576
 8446SOL    HW333551   4.236   2.953   4.494 -1.6347 -0.0881  0.8551
 8446SOL    MW433552   4.260   2.968   4.576 -0.0873  0.7023  0.3131
 8447SOL     OW33553   2.934   2.354   0.294 -0.5013  0.1019  0.4824
 8447SOL    HW233554   2.911   2.327   0.205 -1.7487 -0.4743  0.9522
 8447SOL    HW333555   2.965   2.444   0.285  2.3279 -0.8893 -0.9246
 8447SOL    MW433556   2.935   2.362   0.281 -0.2926 -0.1049  0.3588
 8448SOL     OW33557   6.113   0.252   5.590  0.4300  0.0330  0.1262
 8448SOL    HW233558   6.167   0.328   5.613  0.1435  0.0225  0.8741
 8448SOL    HW333559   6.175   0.186   5.561  0.7465  0.2988  0.1884
 8448SOL    MW433560   6.128   0.254   5.590  0.4340  0.0667  0.2331
 8449SOL     OW33561   2.177   3.231   3.812  0.1874 -0.0482  0.1003
 8449SOL    HW233562   2.156   3.179   3.890  0.5985 -1.2207 -0.5402
 8449SOL    HW333563   2.092   3.256   3.776 -0.0377 -0.6362  0.2036
 8449SOL    MW433564   2.163   3.227   3.818  0.2119 -0.2804  0.0295
 8450SOL     OW33565   3.941   6.189   6.065  0.6300  0.3452  0.1173
 8450SOL    HW233566   3.975   6.108   6.103  0.0173  0.1532  0.2561
 8450SOL    HW333567   3.974   6.189   5.975 -0.2413 -0.5859 -0.2150
 8450SOL    MW433568   3.950   6.179   6.058  0.4342  0.1970  0.0918
 8451SOL     OW33569   1.687   0.096   1.324 -0.3523  0.0534  1.0605
 8451SOL    HW233570   1.683   0.048   1.406 -0.2188 -0.6846  0.6442
 8451SOL    HW333571   1.602   0.080   1.283  0.5149 -1.7722 -0.1357
 8451SOL    MW433572   1.675   0.088   1.329 -0.2202 -0.2848  0.8478
 8452SOL     OW33573   1.039   5.434   6.078  0.2094  0.4338  0.0100
 8452SOL    HW233574   1.026   5.523   6.111 -0.0930  0.8678 -1.2426
 8452SOL    HW333575   0.958   5.414   6.030  0.4622 -0.3392 -0.1083
 8452SOL    MW433576   1.026   5.443   6.076  0.2028  0.3891 -0.1709
 8453SOL     OW33577   6.306   0.981   1.256  0.0217  0.6803  0.1304
 8453SOL    HW233578   6.265   0.942   1.334  0.7370  0.0996  0.2221
 8453SOL    HW333579   6.232   1.016   1.206 -0.6491 -0.7747  0.0581
 8453SOL    MW433580   6.291   0.981   1.260  0.0276  0.4117  0.1329
 8454SOL     OW33581   3.514   6.106   2.681 -0.1119  0.5317  0.0570
 8454SOL    HW233582   3.421   6.101   2.702 -0.1311 -1.3656 -0.3219
 8454SOL    HW333583   3.517   6.122   2.587 -0.0888 -1.0531 -0.2314
 8454SOL    MW433584   3.502   6.108   2.671 -0.1114  0.0723 -0.0310
 8455SOL     OW33585   6.327   4.701   2.357 -0.4023 -0.1316 -0.1897
 8455SOL    HW233586   6.329   4.652   2.274  0.9808  1.0113 -0.8785
 8455SOL    HW333587   6.379   4.648   2.417 -2.3367 -1.5347  0.3354
 8455SOL    MW433588   6.334   4.688   2.354 -0.4751 -0.1660 -0.2113
 8456SOL     OW33589   3.950   5.295   5.302 -0.2145  0.6863 -0.7869
 8456SOL    HW233590   3.993   5.211   5.284 -0.3465  0.7422 -1.4006
 8456SOL    HW333591   4.014   5.361   5.276  0.8141  0.8339  1.8618
 8456SOL    MW433592   3.964   5.292   5.296 -0.0962  0.7131 -0.5185
 8457SOL     OW33593   5.015   5.459   2.826  0.9572  0.1426 -0.1618
 8457SOL    HW233594   5.069   5.395   2.871  1.3527 -0.4379 -1.4017
 8457SOL    HW333595   4.965   5.407   2.762 -0.5984  0.7462  0.5107
 8457SOL    MW433596   5.015   5.444   2.823  0.8042  0.1457 -0.2367
 8458SOL     OW33597   4.988   4.214   5.555  0.1329 -0.0387 -0.2349
 8458SOL    HW233598   5.002   4.301   5.594  2.4036 -0.3894 -0.0901
 8458SOL    HW333599   5.077   4.180   5.542 -0.6303 -1.3379 -2.6192
 8458SOL    MW433600   5.002   4.221   5.559  0.3318 -0.2564 -0.5304
 8459SOL     OW33601   1.314   4.125   1.987  0.0827 -0.1623  0.7709
 8459SOL    HW233602   1.390   4.092   1.941  2.2611  2.2202  2.3922
 8459SOL    HW333603   1.291   4.206   1.943 -0.3965  0.0477  1.3786
 8459SOL    MW433604   1.321   4.131   1.975  0.3069  0.1798  1.0650
 8460SOL     OW33605   1.592   3.251   3.030 -0.0979  0.0862  0.1026
 8460SOL    HW233606   1.519   3.196   3.058 -0.6510  0.3392 -0.7923
 8460SOL    HW333607   1.659   3.238   3.097  0.1318 -2.3481 -0.4950
 8460SOL    MW433608   1.591   3.242   3.043 -0.1405 -0.2016 -0.0943
 8461SOL     OW33609   6.204   1.727   4.772  0.0633  0.0908 -0.4535
 8461SOL    HW233610   6.198   1.633   4.756 -0.4382 -0.0567  0.4873
 8461SOL    HW333611   6.114   1.753   4.793  0.5288  0.3173  1.5412
 8461SOL    MW433612   6.191   1.718   4.773  0.0586  0.1012 -0.0662
 8462SOL     OW33613   4.784   4.386   3.387  0.3617  0.2355  0.2710
 8462SOL    HW233614   4.837   4.373   3.309 -0.1329  0.2813 -0.0788
 8462SOL    HW333615   4.694   4.377   3.356  0.1572  0.4209  0.8044
 8462SOL    MW433616   4.779   4.383   3.373  0.2695  0.2660  0.2952
 8463SOL     OW33617   3.060   0.602   1.828  0.6563  0.2558  0.0514
 8463SOL    HW233618   3.058   0.522   1.775 -1.6069  0.5661 -0.3950
 8463SOL    HW333619   2.970   0.615   1.856  1.1276  2.2335  0.7847
 8463SOL    MW433620   3.048   0.593   1.825  0.4199  0.5577  0.0893
 8464SOL     OW33621   5.992   2.244   3.959  0.0774  0.4095  0.3895
 8464SOL    HW233622   6.087   2.237   3.959  0.1712  0.8719 -1.9483
 8464SOL    HW333623   5.974   2.337   3.969 -0.0661  0.4663 -0.3102
 8464SOL    MW433624   6.002   2.255   3.960  0.0708  0.4780 -0.0112
 8465SOL     OW33625   3.646   2.791   6.404  0.1703  0.4963 -0.4272
 8465SOL    HW233626   3.557   2.826   6.393  0.0316  0.0774 -0.6347
 8465SOL    HW333627   3.685   2.847   6.472 -0.6999 -0.1332  0.6351
 8465SOL    MW433628   3.639   2.803   6.412  0.0372  0.3580 -0.3144
 8466SOL     OW33629   1.788   6.076   6.245 -0.0634 -0.6011  0.1540
 8466SOL    HW233630   1.790   6.019   6.323 -0.6182 -1.4356 -0.4261
 8466SOL    HW333631   1.761   6.018   6.174 -0.5736  0.3836 -0.4732
 8466SOL    MW433632   1.785   6.061   6.246 -0.2039 -0.5813 -0.0053
 8467SOL     OW33633   4.759   1.493   4.522 -0.1279  0.8185  0.0981
 8467SOL    HW233634   4.691   1.497   4.454  1.9304 -1.7443 -2.3660
 8467SOL    HW333635   4.711   1.488   4.604 -2.8567  0.9928 -1.3785
 8467SOL    MW433636   4.744   1.493   4.524 -0.2164  0.5034 -0.4219
 8468SOL     OW33637   3.037   0.217   6.328  0.6433  0.4034  0.6358
 8468SOL    HW233638   3.097   0.251   6.263  2.6221 -3.1150  0.4013
 8468SOL    HW333639   2.950   0.227   6.289  1.4679  1.5492 -0.9691
 8468SOL    MW433640   3.033   0.223   6.315  1.0132  0.0903  0.3931
 8469SOL     OW33641   0.470   4.791   2.379 -0.0781 -0.6942  0.1536
 8469SOL    HW233642   0.514   4.799   2.294 -1.4731 -1.9187 -0.7492
 8469SOL    HW333643   0.392   4.738   2.360 -2.3430  1.9122  1.4846
 8469SOL    MW433644   0.465   4.785   2.365 -0.5610 -0.5119  0.2101
 8470SOL     OW33645   2.447   4.412   0.071 -0.0113 -0.5495  0.0376
 8470SOL    HW233646   2.418   4.460   0.148 -0.6792 -2.8405  1.3293
 8470SOL    HW333647   2.425   4.468  -0.003 -0.2773  1.2837  1.4501
 8470SOL    MW433648   2.441   4.426   0.071 -0.1345 -0.6099  0.3944
 8471SOL     OW33649   4.982   0.397   4.674  0.5442  0.6376  0.1392
 8471SOL    HW233650   4.908   0.356   4.720 -0.4451  2.0455 -0.1181
 8471SOL    HW333651   4.998   0.339   4.600  0.7943 -0.5571  1.0944
 8471SOL    MW433652   4.974   0.384   4.671  0.4466  0.6658  0.2313
 8472SOL     OW33653   2.509   5.267   0.600 -0.1811 -0.5799 -0.4163
 8472SOL    HW233654   2.468   5.353   0.612 -0.1159 -0.4732 -0.9367
 8472SOL    HW333655   2.458   5.208   0.655 -0.5410 -0.3028 -0.4491
 8472SOL    MW433656   2.497   5.271   0.609 -0.2200 -0.5293 -0.4893
 8473SOL     OW33657   3.029   3.518   3.868 -0.5183  0.3142 -0.4903
 8473SOL    HW233658   3.036   3.460   3.792 -1.3669 -0.6983  0.1758
 8473SOL    HW333659   3.071   3.469   3.938 -0.1759  1.0356 -0.1881
 8473SOL    MW433660   3.036   3.504   3.867 -0.5851  0.2758 -0.3625
 8474SOL     OW33661   6.115   3.672   5.131  0.3878 -0.3333 -0.0807
 8474SOL    HW233662   6.154   3.754   5.160  0.6651  0.8815 -3.3808
 8474SOL    HW333663   6.189   3.613   5.117  0.3055 -0.6971  0.9148
 8474SOL    MW433664   6.130   3.675   5.133  0.4135 -0.2210 -0.3848
 8475SOL     OW33665   0.958   5.773   4.522 -0.0180  0.0328  0.2649
 8475SOL    HW233666   1.004   5.797   4.442  0.5091  1.2289  0.8900
 8475SOL    HW333667   1.012   5.810   4.592 -0.4126 -1.0837  1.1811
 8475SOL    MW433668   0.971   5.781   4.521 -0.0005  0.0433  0.4683
 8476SOL     OW33669   1.902   1.239   0.827  0.6191  0.2142  0.6122
 8476SOL    HW233670   1.901   1.175   0.756  1.0109  0.0256  0.7701
 8476SOL    HW333671   1.991   1.234   0.862  0.0389 -0.7231  2.0421
 8476SOL    MW433672   1.914   1.230   0.823  0.5942  0.0656  0.8217
 8477SOL     OW33673   0.743   6.314   3.682  0.1091  0.0998  0.0120
 8477SOL    HW233674   0.674   6.273   3.630 -2.5869  1.2839  2.4012
 8477SOL    HW333675   0.778   6.383   3.625 -1.1891 -0.0556 -1.0173
 8477SOL    MW433676   0.739   6.317   3.667 -0.4179  0.2355  0.1914
 8478SOL     OW33677   5.756   4.368   0.817 -0.1070 -0.8939 -0.3546
 8478SOL    HW233678   5.707   4.371   0.899  0.0703 -1.0445 -0.2430
 8478SOL    HW333679   5.745   4.456   0.779  1.0140 -0.3529  0.5293
 8478SOL    MW433680   5.748   4.380   0.823  0.0643 -0.8424 -0.2232
 8479SOL     OW33681   0.745  -0.011   0.689 -1.6885 -0.5016  0.0597
 8479SOL    HW233682   0.790  -0.095   0.695  2.1054  1.3667  0.7231
 8479SOL    HW333683   0.735   0.018   0.779 -1.8760  0.2717 -0.1995
 8479SOL    MW433684   0.750  -0.018   0.701 -1.2127 -0.1530  0.1130
 8480SOL     OW33685   3.014   1.790   0.190  0.2798  0.0015 -0.1013
 8480SOL    HW233686   3.003   1.864   0.130 -0.5224  1.1402  1.3609
 8480SOL    HW333687   3.047   1.830   0.271  0.7055 -1.3743  0.4286
 8480SOL    MW433688   3.017   1.805   0.193  0.2301 -0.0297  0.1616
 8481SOL     OW33689   1.644   3.815   2.922 -0.0585  0.0268 -0.3865
 8481SOL    HW233690   1.636   3.890   2.981 -1.3476 -1.5151  1.4983
 8481SOL    HW333691   1.656   3.740   2.980  0.9706 -1.3054 -2.2109
 8481SOL    MW433692   1.645   3.815   2.937 -0.0928 -0.3524 -0.3785
 8482SOL     OW33693   4.354   1.046   0.654  0.3404 -0.1408  0.0929
 8482SOL    HW233694   4.294   1.029   0.581 -1.6683 -0.2330  1.6547
 8482SOL    HW333695   4.397   0.963   0.671  1.1123 -0.0261 -1.1835
 8482SOL    MW433696   4.351   1.033   0.646  0.1772 -0.1378  0.1305
 8483SOL     OW33697   1.789   4.484   2.120 -0.1706 -0.0769  0.2693
 8483SOL    HW233698   1.850   4.517   2.053  0.6059  1.5723  1.7124
 8483SOL    HW333699   1.743   4.412   2.076 -0.2963  1.4347 -2.3281
 8483SOL    MW433700   1.791   4.479   2.105 -0.0847  0.3402  0.1170
 8484SOL     OW33701   6.174   2.491   2.259 -0.2201 -0.0486  0.1270
 8484SOL    HW233702   6.255   2.456   2.296  0.1408 -0.2654 -0.8551
 8484SOL    HW333703   6.123   2.413   2.235 -0.1631  0.0919 -0.4542
 8484SOL    MW433704   6.178   2.476   2.261 -0.1650 -0.0587 -0.0793
 8485SOL     OW33705   5.243   4.081   5.562  0.3769  0.3278 -0.0789
 8485SOL    HW233706   5.332   4.088   5.526  0.2362 -0.1241 -0.5357
 8485SOL    HW333707   5.238   3.991   5.594 -0.1869  0.0816 -0.8180
 8485SOL    MW433708   5.254   4.070   5.561  0.2839  0.2357 -0.2367
 8486SOL     OW33709   4.850   4.052   5.928  0.2929 -0.3326  0.4330
 8486SOL    HW233710   4.787   3.980   5.939  0.4946 -0.5581  0.1562
 8486SOL    HW333711   4.881   4.042   5.838 -2.5131  2.3942 -1.0230
 8486SOL    MW433712   4.846   4.041   5.917 -0.0507 -0.0026  0.2043
 8487SOL     OW33713   2.586   2.432   5.045  0.0670  0.2418 -0.4049
 8487SOL    HW233714   2.576   2.400   4.955 -0.0022 -1.2999  0.1361
 8487SOL    HW333715   2.644   2.369   5.087  1.5899  1.9275  0.1637
 8487SOL    MW433716   2.593   2.420   5.038  0.2588  0.2608 -0.2585
 8488SOL     OW33717   2.061   4.196   0.349  0.0570 -0.0124  0.3628
 8488SOL    HW233718   2.153   4.187   0.372 -0.3124  0.9936  2.4392
 8488SOL    HW333719   2.037   4.112   0.311  1.6198 -0.5600  0.5428
 8488SOL    MW433720   2.070   4.184   0.347  0.2144  0.0481  0.6605
 8489SOL     OW33721   5.485   3.556   3.815 -0.0235  0.0771  0.1701
 8489SOL    HW233722   5.519   3.643   3.830 -2.0751  0.7766  1.0596
 8489SOL    HW333723   5.465   3.521   3.902 -0.7779 -0.6096 -0.2565
 8489SOL    MW433724   5.487   3.563   3.828 -0.3937  0.0788  0.2311
 8490SOL     OW33725   6.346   1.820   0.922  0.1161 -0.0021 -0.1525
 8490SOL    HW233726   6.379   1.877   0.853  0.9668 -0.5257 -0.1854
 8490SOL    HW333727   6.282   1.874   0.969 -2.7018 -0.4765 -3.0404
 8490SOL    MW433728   6.342   1.835   0.919 -0.1435 -0.1338 -0.5378
 8491SOL     OW33729   5.843   1.382   3.585  1.2993  0.1435  0.4990
 8491SOL    HW233730   5.885   1.466   3.566  0.1442  1.0116  1.6364
 8491SOL    HW333731   5.885   1.352   3.666  1.8625 -0.5055 -0.0191
 8491SOL    MW433732   5.854   1.389   3.593  1.2212  0.1724  0.5807
 8492SOL     OW33733   3.347   4.420   4.229  0.2229  0.1903 -0.0962
 8492SOL    HW233734   3.381   4.348   4.176  0.4494  0.0141  0.2782
 8492SOL    HW333735   3.262   4.390   4.261 -0.7179  0.9720 -1.7402
 8492SOL    MW433736   3.341   4.407   4.226  0.1287  0.2702 -0.2637
 8493SOL     OW33737   4.922   1.564   6.167  0.6276  0.2040 -0.0915
 8493SOL    HW233738   4.948   1.557   6.075 -0.9480  1.3672 -0.6541
 8493SOL    HW333739   4.963   1.645   6.198 -0.5733  0.9562 -0.4054
 8493SOL    MW433740   4.931   1.574   6.159  0.2613  0.4567 -0.2072
 8494SOL     OW33741   4.166   3.050   3.498 -0.3867  0.5910 -0.4818
 8494SOL    HW233742   4.077   3.028   3.525  0.7229 -0.5786  2.8545
 8494SOL    HW333743   4.173   3.144   3.509 -1.3963  0.8062 -1.5466
 8494SOL    MW433744   4.155   3.059   3.503 -0.3735  0.4651 -0.1821
 8495SOL     OW33745   0.379   5.663   0.683 -0.2147 -0.1540  0.2371
 8495SOL    HW233746   0.294   5.688   0.647 -0.4936 -3.0839 -1.4621
 8495SOL    HW333747   0.378   5.698   0.772 -2.5058  1.2685 -0.2444
 8495SOL    MW433748   0.368   5.671   0.690 -0.5538 -0.3529 -0.0506
 8496SOL     OW33749   0.403   2.173   4.482 -0.3996 -0.1025  0.0416
 8496SOL    HW233750   0.481   2.227   4.498 -0.9346  0.5908  0.4049
 8496SOL    HW333751   0.349   2.187   4.560 -0.2362 -1.7446  0.4678
 8496SOL    MW433752   0.406   2.182   4.495 -0.4487 -0.2277  0.1458
 8497SOL     OW33753   2.791   1.317   4.446  0.6865  0.6271  0.0777
 8497SOL    HW233754   2.842   1.333   4.367 -0.7286 -0.0574 -1.0040
 8497SOL    HW333755   2.708   1.361   4.431 -0.1292 -0.6908  0.5690
 8497SOL    MW433756   2.787   1.325   4.434  0.3922  0.3629 -0.0002
 8498SOL     OW33757   1.440   6.157   3.584  0.3920 -0.0520  0.0703
 8498SOL    HW233758   1.419   6.141   3.677 -1.0457 -2.8681 -0.6105
 8498SOL    HW333759   1.416   6.248   3.570 -0.0509  0.2561  2.3067
 8498SOL    MW433760   1.434   6.167   3.595  0.1439 -0.3829  0.2756
 8499SOL     OW33761   3.706   2.142   3.946 -0.1420 -0.0443 -0.1801
 8499SOL    HW233762   3.779   2.158   3.887  0.6336 -0.3371  0.6617
 8499SOL    HW333763   3.637   2.104   3.891  0.3932  0.1056 -0.9600
 8499SOL    MW433764   3.706   2.139   3.931  0.0310 -0.0632 -0.1719
 8500SOL     OW33765   2.752   6.267   5.935  0.3887 -0.3753 -0.6008
 8500SOL    HW233766   2.800   6.248   5.854  0.0378 -0.1447 -0.8672
 8500SOL    HW333767   2.713   6.184   5.960  0.2029 -0.3673 -0.8646
 8500SOL    MW433768   2.753   6.253   5.928  0.3179 -0.3438 -0.6708
 8501SOL     OW33769   0.244   2.129   0.010 -0.2422  0.0886 -0.1486
 8501SOL    HW233770   0.233   2.160   0.100  0.3784  0.5385 -0.2247
 8501SOL    HW333771   0.250   2.034   0.019  0.4206  0.1689  0.3581
 8501SOL    MW433772   0.244   2.120   0.023 -0.0729  0.1586 -0.0918
 8502SOL     OW33773   5.329   5.311   4.451 -0.2130 -0.4779  0.3958
 8502SOL    HW233774   5.331   5.254   4.374 -0.6856  1.7900 -1.4054
 8502SOL    HW333775   5.321   5.251   4.525  0.7189 -2.7943 -1.2537
 8502SOL    MW433776   5.328   5.295   4.450 -0.1524 -0.4843 -0.0595
 8503SOL     OW33777   3.695   3.699   3.806 -0.1570 -0.2239 -0.0497
 8503SOL    HW233778   3.713   3.727   3.716  2.3592  0.5624  0.6139
 8503SOL    HW333779   3.750   3.622   3.819  1.5510  1.1530  1.5264
 8503SOL    MW433780   3.704   3.692   3.796  0.4003  0.0615  0.2458
 8504SOL     OW33781   4.536   4.167   0.754  0.1353  0.4973 -0.5390
 8504SOL    HW233782   4.498   4.228   0.817  0.3108 -0.1276  0.1926
 8504SOL    HW333783   4.507   4.081   0.785  0.5258  0.1593 -1.1065
 8504SOL    MW433784   4.527   4.163   0.767  0.2099  0.3702 -0.5174
 8505SOL     OW33785   0.092   0.310   4.826 -0.0374 -0.3069 -0.3897
 8505SOL    HW233786   0.064   0.303   4.735 -0.8023 -1.2638 -0.1028
 8505SOL    HW333787   0.175   0.358   4.822  0.4362 -1.1796 -1.6690
 8505SOL    MW433788   0.099   0.316   4.813 -0.0759 -0.5483 -0.5206
 8506SOL     OW33789   4.542   1.596   4.710  0.2163  0.2348  0.7854
 8506SOL    HW233790   4.552   1.606   4.804  1.0523  0.5477  0.6731
 8506SOL    HW333791   4.532   1.685   4.677  1.1177  0.2308  0.4664
 8506SOL    MW433792   4.542   1.609   4.718  0.4456  0.2755  0.7285
 8507SOL     OW33793   2.144   3.043   4.070 -0.3476 -0.5537 -0.2086
 8507SOL    HW233794   2.231   3.009   4.092 -0.7396 -1.1074  0.4961
 8507SOL    HW333795   2.085   2.970   4.085 -0.8254 -0.5203 -1.7234
 8507SOL    MW433796   2.148   3.029   4.075 -0.4623 -0.6223 -0.3155
 8508SOL     OW33797   5.526   5.534   1.917  0.6073 -0.6700 -0.0563
 8508SOL    HW233798   5.616   5.537   1.882  0.1941 -1.0269 -1.2138
 8508SOL    HW333799   5.502   5.441   1.912 -0.6598 -0.2924 -2.0563
 8508SOL    MW433800   5.535   5.522   1.912  0.3856 -0.6672 -0.4729
 8509SOL     OW33801   2.914   3.421   4.282  0.0964 -0.3337  0.5415
 8509SOL    HW233802   2.831   3.469   4.277  0.3182 -0.0446 -0.8429
 8509SOL    HW333803   2.899   3.343   4.227  0.7422 -0.2538  0.2476
 8509SOL    MW433804   2.901   3.417   4.274  0.2109 -0.2850  0.3200
 8510SOL     OW33805   3.349   4.471   3.011  0.2181 -0.7540 -0.0913
 8510SOL    HW233806   3.255   4.465   3.029  0.0459 -1.4052 -1.1128
 8510SOL    HW333807   3.385   4.517   3.086 -0.6908 -1.8922  1.0823
 8510SOL    MW433808   3.342   4.476   3.023  0.0754 -0.9901 -0.0712
 8511SOL     OW33809   4.593   4.736   1.493 -0.1013 -0.7372 -0.3242
 8511SOL    HW233810   4.618   4.654   1.536 -1.2148 -0.9502 -0.0616
 8511SOL    HW333811   4.589   4.800   1.564  0.7310 -0.4610 -0.5239
 8511SOL    MW433812   4.596   4.734   1.508 -0.1384 -0.7288 -0.3159
 8512SOL     OW33813   5.375   0.513   1.051 -0.0747  0.1442  0.0754
 8512SOL    HW233814   5.354   0.597   1.011  0.7380  0.6428  0.6603
 8512SOL    HW333815   5.451   0.482   1.003  0.5181  0.4492  0.7873
 8512SOL    MW433816   5.382   0.520   1.040  0.1107  0.2502  0.2465
 8513SOL     OW33817   6.174   1.029   2.091 -0.5508  0.3176  0.3616
 8513SOL    HW233818   6.257   1.064   2.059 -0.8897 -0.3219 -1.3250
 8513SOL    HW333819   6.196   0.987   2.174  0.6986  0.6088  0.2002
 8513SOL    MW433820   6.188   1.028   2.098 -0.4306  0.2716  0.1178
 8514SOL     OW33821   0.763   2.974   4.553  0.0029  0.4248 -0.1306
 8514SOL    HW233822   0.769   2.908   4.483 -0.6112  0.8749 -0.6219
 8514SOL    HW333823   0.675   2.964   4.588  0.5560 -0.3044  1.1100
 8514SOL    MW433824   0.752   2.964   4.548 -0.0052  0.3880 -0.0318
 8515SOL     OW33825   1.785   2.867   0.688  0.2151 -0.0643 -0.3934
 8515SOL    HW233826   1.702   2.871   0.736 -0.5080  0.7237 -1.6563
 8515SOL    HW333827   1.773   2.798   0.624  0.6230 -0.1083 -0.4281
 8515SOL    MW433828   1.773   2.859   0.686  0.1735  0.0339 -0.5646
 8516SOL     OW33829   1.573   4.960   2.280 -0.4822 -0.3553  0.6177
 8516SOL    HW233830   1.547   4.954   2.372 -1.3793 -1.0351  0.3357
 8516SOL    HW333831   1.572   4.870   2.249  1.6578 -0.3536  0.4068
 8516SOL    MW433832   1.570   4.948   2.288 -0.3182 -0.4447  0.5527
 8517SOL     OW33833   2.928   3.634   0.156  0.1741 -0.0890 -0.3552
 8517SOL    HW233834   2.833   3.637   0.146  0.2205  0.0514 -0.7505
 8517SOL    HW333835   2.958   3.719   0.123  0.3191  0.4409  1.0801
 8517SOL    MW433836   2.919   3.646   0.150  0.1993 -0.0006 -0.2180
 8518SOL     OW33837   3.005   4.452   4.688 -0.2456  0.3311 -0.6637
 8518SOL    HW233838   3.066   4.433   4.616 -1.9053 -0.0003 -2.0286
 8518SOL    HW333839   2.969   4.538   4.666 -2.0449 -0.5191 -1.1817
 8518SOL    MW433840   3.009   4.461   4.675 -0.7020  0.1752 -0.9121
 8519SOL     OW33841   6.426   0.301   0.773  0.1915 -0.0273  0.3636
 8519SOL    HW233842   6.346   0.255   0.747  0.2480  0.4907 -0.7697
 8519SOL    HW333843   6.413   0.321   0.866 -1.5608  1.1446 -0.0879
 8519SOL    MW433844   6.414   0.297   0.782 -0.0323  0.1956  0.1545
 8520SOL     OW33845   6.071   5.244   2.863 -0.2204 -0.7346 -0.6183
 8520SOL    HW233846   6.039   5.283   2.945 -0.9434 -2.0287 -0.2495
 8520SOL    HW333847   6.161   5.218   2.883  0.1323  0.3354 -0.7426
 8520SOL    MW433848   6.079   5.246   2.877 -0.2693 -0.7641 -0.5860
 8521SOL     OW33849   1.720   5.434   5.738  0.0122 -0.6439  0.7573
 8521SOL    HW233850   1.708   5.475   5.652 -0.5913  0.2675  1.2613
 8521SOL    HW333851   1.637   5.390   5.755 -0.0789 -0.3259  1.1312
 8521SOL    MW433852   1.707   5.434   5.729 -0.0794 -0.4817  0.8731
 8522SOL     OW33853   5.326   1.934   0.295 -0.5233 -0.3890 -0.3336
 8522SOL    HW233854   5.263   1.885   0.347  0.3244 -0.9344  0.2051
 8522SOL    HW333855   5.394   1.960   0.357 -0.1429  0.0543 -0.9235
 8522SOL    MW433856   5.327   1.931   0.310 -0.3612 -0.4025 -0.3403
 8523SOL     OW33857   3.395   1.824   1.899  0.0036  0.2526  0.7091
 8523SOL    HW233858   3.373   1.746   1.848  1.3471  0.5376 -0.3773
 8523SOL    HW333859   3.325   1.886   1.879  1.5802  1.1832 -2.7117
 8523SOL    MW433860   3.383   1.822   1.889  0.3888  0.4130  0.1144
 8524SOL     OW33861   2.977   4.851   0.389  0.3489  0.2403  0.8392
 8524SOL    HW233862   2.978   4.804   0.306  0.0041 -1.0311  1.5291
 8524SOL    HW333863   3.032   4.799   0.447  0.1233  0.7940  1.5622
 8524SOL    MW433864   2.984   4.838   0.385  0.2737  0.1456  1.0256
 8525SOL     OW33865   4.110   1.600   5.777  0.2608 -0.2638  0.4916
 8525SOL    HW233866   4.035   1.552   5.813  1.2520 -0.1660  2.8738
 8525SOL    HW333867   4.176   1.533   5.761  0.8650  0.0155  1.7207
 8525SOL    MW433868   4.109   1.585   5.779  0.4713 -0.2141  0.9681
 8526SOL     OW33869   3.605   0.972   1.496  0.1501 -0.3362 -0.1859
 8526SOL    HW233870   3.576   0.890   1.537  1.8216 -1.0945 -0.4373
 8526SOL    HW333871   3.526   1.008   1.457 -1.1162 -0.5583  2.0375
 8526SOL    MW433872   3.591   0.966   1.496  0.2036 -0.4655  0.0743
 8527SOL     OW33873   4.747   2.782   5.379 -0.2511  0.1885 -0.1858
 8527SOL    HW233874   4.834   2.795   5.417 -0.8961  0.9638  1.1149
 8527SOL    HW333875   4.699   2.862   5.401 -0.9034  0.3669 -2.0619
 8527SOL    MW433876   4.752   2.794   5.387 -0.4223  0.3143 -0.2618
 8528SOL     OW33877   0.298   3.423   4.304 -0.8200  0.2634  0.1344
 8528SOL    HW233878   0.237   3.410   4.231 -0.9462  0.2760  0.2364
 8528SOL    HW333879   0.288   3.516   4.327 -1.1120  0.1579  0.4568
 8528SOL    MW433880   0.288   3.434   4.298 -0.8752  0.2512  0.1904
 8529SOL     OW33881   0.845   0.419   3.699 -0.2733  0.3601  0.4155
 8529SOL    HW233882   0.776   0.394   3.638 -0.8542  0.6470  0.9399
 8529SOL    HW333883   0.826   0.368   3.778  0.5272 -0.0819  0.3295
 8529SOL    MW433884   0.833   0.409   3.701 -0.2443  0.3396  0.4734
 8530SOL     OW33885   3.797   4.955   4.941  0.1338 -0.3958  0.3328
 8530SOL    HW233886   3.858   4.914   4.879  0.8486  0.1855  0.6440
 8530SOL    HW333887   3.801   4.900   5.019  2.1615  0.9952  1.2781
 8530SOL    MW433888   3.805   4.942   4.943  0.4956 -0.1356  0.4986
 8531SOL     OW33889   4.227   2.116   1.076 -0.4653 -0.4439 -0.2491
 8531SOL    HW233890   4.272   2.157   1.002  0.8026  0.1373  0.8161
 8531SOL    HW333891   4.148   2.169   1.088  0.7572  1.2695  0.6081
 8531SOL    MW433892   4.222   2.129   1.067 -0.1367 -0.1411  0.0045
 8532SOL     OW33893   5.125   5.143   3.906 -0.1688  0.5374 -0.4408
 8532SOL    HW233894   5.134   5.175   3.816  0.5378  0.1286 -0.5236
 8532SOL    HW333895   5.118   5.223   3.958  1.1231  0.8328 -0.6928
 8532SOL    MW433896   5.125   5.158   3.901  0.0949  0.5225 -0.4850
 8533SOL     OW33897   0.338   0.045   3.565  0.2154 -0.2239  0.4721
 8533SOL    HW233898   0.311   0.094   3.642 -1.9742  1.4371 -1.2086
 8533SOL    HW333899   0.406  -0.015   3.596 -0.5856  0.3597  3.6347
 8533SOL    MW433900   0.343   0.043   3.579 -0.1792  0.0723  0.6676
 8534SOL     OW33901   3.587   1.086   2.145 -0.3055 -0.0849 -0.0036
 8534SOL    HW233902   3.658   1.131   2.098  1.0031 -2.2790 -0.2589
 8534SOL    HW333903   3.632   1.026   2.205 -1.9707  0.0965  1.5140
 8534SOL    MW433904   3.602   1.084   2.147 -0.3526 -0.3504  0.1629
 8535SOL     OW33905   2.969   5.476   2.044  0.3476 -0.1171 -0.0913
 8535SOL    HW233906   2.979   5.491   2.138  1.1905 -0.3562 -0.1381
 8535SOL    HW333907   3.052   5.439   2.016 -0.0216 -0.3915 -0.8707
 8535SOL    MW433908   2.981   5.473   2.053  0.4101 -0.1849 -0.2003
 8536SOL     OW33909   4.421   3.930   5.107  0.3752 -0.2298  0.1455
 8536SOL    HW233910   4.399   3.854   5.161  0.4684 -0.2357  0.1752
 8536SOL    HW333911   4.457   3.994   5.168 -0.7116  0.2558  0.2993
 8536SOL    MW433912   4.423   3.928   5.122  0.2441 -0.1665  0.1697
 8537SOL     OW33913   3.917   2.318   1.616  0.3008 -0.3759 -0.2240
 8537SOL    HW233914   4.003   2.352   1.593  0.0012  0.4117 -0.2118
 8537SOL    HW333915   3.856   2.374   1.567 -0.1673 -1.5464 -1.0212
 8537SOL    MW433916   3.920   2.330   1.606  0.1995 -0.4264 -0.3276
 8538SOL     OW33917   5.335   4.471   1.481 -0.1426 -0.0664  0.4785
 8538SOL    HW233918   5.253   4.513   1.455 -0.8100 -2.2568 -1.3288
 8538SOL    HW333919   5.307   4.391   1.527  1.0122 -0.0127  1.3037
 8538SOL    MW433920   5.320   4.466   1.484 -0.0783 -0.3483  0.3489
 8539SOL     OW33921   4.411   4.704   4.595  0.7846  0.1192  0.3321
 8539SOL    HW233922   4.444   4.676   4.510 -0.0639  0.1284 -0.0108
 8539SOL    HW333923   4.373   4.790   4.579 -0.3893 -0.3590  0.4643
 8539SOL    MW433924   4.411   4.711   4.582  0.5178  0.0573  0.3043
 8540SOL     OW33925   0.746   4.631   5.826 -0.0654  0.0289  0.6169
 8540SOL    HW233926   0.757   4.723   5.851  1.2500 -0.1611  0.8510
 8540SOL    HW333927   0.764   4.629   5.732 -0.0556  0.0069  0.6192
 8540SOL    MW433928   0.750   4.643   5.817  0.1095  0.0009  0.6481
 8541SOL     OW33929   6.053   4.449   2.207 -0.3448 -0.4000  0.5493
 8541SOL    HW233930   5.989   4.511   2.244 -0.0249  0.3368 -0.0906
 8541SOL    HW333931   6.000   4.389   2.154 -0.7242 -1.0320  1.6250
 8541SOL    MW433932   6.037   4.450   2.205 -0.3527 -0.3862  0.6068
 8542SOL     OW33933   1.426   3.812   0.179  0.8206  0.6508  0.5087
 8542SOL    HW233934   1.418   3.797   0.085 -2.6877  0.6772  0.6672
 8542SOL    HW333935   1.493   3.751   0.207  0.6111 -0.7343 -1.7510
 8542SOL    MW433936   1.434   3.802   0.170  0.3301  0.4715  0.2315
 8543SOL     OW33937   5.916   1.681   3.681  0.0560  0.0980  0.2949
 8543SOL    HW233938   5.971   1.703   3.606  0.5438  0.8055  0.8419
 8543SOL    HW333939   5.971   1.625   3.735  0.2898  0.8624  0.8786
 8543SOL    MW433940   5.931   1.677   3.678  0.1512  0.2922  0.4441
 8544SOL     OW33941   0.210   2.494   3.614 -0.0352 -0.3694 -0.5287
 8544SOL    HW233942   0.224   2.411   3.567 -0.8544 -1.0482  0.3942
 8544SOL    HW333943   0.273   2.491   3.686  0.6443  0.2988 -1.0687
 8544SOL    MW433944   0.220   2.483   3.617 -0.0536 -0.3708 -0.4782
 8545SOL     OW33945   5.420   2.203   6.240 -0.0927  0.0607  0.0946
 8545SOL    HW233946   5.473   2.146   6.296  0.8019  1.2342  0.5088
 8545SOL    HW333947   5.416   2.158   6.156  1.5160 -0.1112  0.0765
 8545SOL    MW433948   5.427   2.190   6.237  0.2376  0.1929  0.1468
 8546SOL     OW33949   0.219   5.603   3.098 -0.2029 -0.6163  0.0834
 8546SOL    HW233950   0.228   5.675   3.160 -0.6758 -0.8682  0.4547
 8546SOL    HW333951   0.307   5.568   3.088 -0.1117 -0.5184  0.5491
 8546SOL    MW433952   0.232   5.608   3.105 -0.2532 -0.6366  0.1938
 8547SOL     OW33953   2.018   5.019   0.558  0.0804  0.2802  0.0673
 8547SOL    HW233954   2.069   4.962   0.615 -1.1569 -0.1129  0.8178
 8547SOL    HW333955   1.927   4.997   0.577 -0.4054  1.7067 -0.4599
 8547SOL    MW433956   2.013   5.009   0.568 -0.1469  0.4166  0.0968
 8548SOL     OW33957   0.161   3.466   5.159  0.0105 -0.1159 -0.2344
 8548SOL    HW233958   0.200   3.508   5.236 -1.4366  0.5852  0.1444
 8548SOL    HW333959   0.217   3.390   5.142  0.3935 -0.2397  1.4618
 8548SOL    MW433960   0.174   3.461   5.167 -0.1299 -0.0397  0.0394
 8549SOL     OW33961   0.526   4.515   3.645 -0.2593  0.1775 -0.0472
 8549SOL    HW233962   0.537   4.500   3.551 -0.0548 -1.9381  0.2526
 8549SOL    HW333963   0.435   4.543   3.654 -0.6828 -0.8804 -0.7699
 8549SOL    MW433964   0.515   4.517   3.633 -0.2882 -0.2412 -0.1030
 8550SOL     OW33965   4.546   0.617   2.717 -0.1129 -0.1354  0.1697
 8550SOL    HW233966   4.491   0.633   2.793  1.6832  1.6332  1.1888
 8550SOL    HW333967   4.598   0.697   2.707  1.4872 -1.2741 -1.3837
 8550SOL    MW433968   4.546   0.630   2.726  0.3352 -0.0523  0.0992
 8551SOL     OW33969   1.909   3.949   3.736 -0.4782  0.5012 -0.3528
 8551SOL    HW233970   1.987   3.937   3.682 -1.7584 -0.0509 -2.1584
 8551SOL    HW333971   1.837   3.915   3.683 -2.1432  2.0992  0.7485
 8551SOL    MW433972   1.910   3.943   3.722 -0.8668  0.6392 -0.4457
 8552SOL     OW33973   6.195   4.811   2.036  0.4714  0.0799 -0.2004
 8552SOL    HW233974   6.250   4.889   2.032  1.0206 -0.3361 -1.4503
 8552SOL    HW333975   6.197   4.776   1.947 -2.5991  0.5619 -0.5594
 8552SOL    MW433976   6.203   4.817   2.024  0.1388  0.0886 -0.4126
 8553SOL     OW33977   2.815   6.223   5.400 -0.5854  0.3281  0.2377
 8553SOL    HW233978   2.910   6.229   5.392 -0.6821  1.2071 -0.4391
 8553SOL    HW333979   2.783   6.310   5.373 -1.6046 -0.1295 -0.1001
 8553SOL    MW433980   2.823   6.235   5.395 -0.7327  0.3837  0.1038
 8554SOL     OW33981   2.589   1.408   2.050  0.0441 -0.1653  0.0430
 8554SOL    HW233982   2.499   1.375   2.049 -0.8594  2.1708 -0.2575
 8554SOL    HW333983   2.589   1.480   2.112  1.7710 -0.2049  0.1585
 8554SOL    MW433984   2.577   1.413   2.058  0.1527  0.1377  0.0186
 8555SOL     OW33985   2.048   1.317   2.637  0.6881  0.0103  0.1855
 8555SOL    HW233986   2.034   1.396   2.690 -0.8154 -0.0074 -0.1310
 8555SOL    HW333987   2.123   1.274   2.677 -0.3542  0.0166  2.2991
 8555SOL    MW433988   2.056   1.322   2.649  0.3522  0.0088  0.4226
 8556SOL     OW33989   0.334   0.439   2.199 -0.1822  0.6739 -0.2243
 8556SOL    HW233990   0.322   0.364   2.258  0.9137  0.8108  0.1899
 8556SOL    HW333991   0.267   0.502   2.226 -2.2454 -0.7799 -1.6553
 8556SOL    MW433992   0.323   0.437   2.210 -0.3098  0.5002 -0.3585
 8557SOL     OW33993   3.876   2.835   2.955  0.0402 -0.0049 -0.1164
 8557SOL    HW233994   3.906   2.744   2.964  1.8600  0.7045  1.8566
 8557SOL    HW333995   3.944   2.887   2.999 -1.5741  2.2067 -0.0837
 8557SOL    MW433996   3.889   2.830   2.962  0.0673  0.3805  0.1483
 8558SOL     OW33997   5.211   4.109   3.071 -0.6614  0.3797  0.2824
 8558SOL    HW233998   5.128   4.071   3.100 -1.0480  1.0036  0.0220
 8558SOL    HW333999   5.192   4.144   2.984  0.0812 -0.1475 -0.0986
 8558SOL    MW434000   5.197   4.109   3.063 -0.6144  0.3925  0.1978
 8559SOL     OW34001   4.008   0.027   5.288  0.3530  0.3519 -0.5457
 8559SOL    HW234002   4.024   0.031   5.194  0.5417  0.7022 -0.5019
 8559SOL    HW334003   3.927   0.075   5.300  1.6520  2.6288 -0.2380
 8559SOL    MW434004   4.000   0.034   5.277  0.5493  0.6985 -0.4993
 8560SOL     OW34005   4.158   1.049   5.969  0.6554  0.0179 -0.4348
 8560SOL    HW234006   4.206   1.126   5.939 -0.3442  0.4040 -1.0972
 8560SOL    HW334007   4.073   1.083   5.995 -0.0936 -0.9692 -1.5291
 8560SOL    MW434008   4.153   1.064   5.968  0.4247 -0.0614 -0.6666
 8561SOL     OW34009   3.178   3.598   2.616  0.0681 -0.1800  0.1308
 8561SOL    HW234010   3.250   3.536   2.619 -0.9868 -1.4493  0.1730
 8561SOL    HW334011   3.191   3.653   2.693  1.0112 -0.3448  0.1004
 8561SOL    MW434012   3.189   3.597   2.627  0.0534 -0.3692  0.1324
 8562SOL     OW34013   2.440   0.425   4.277  0.7833 -0.5618  0.4054
 8562SOL    HW234014   2.535   0.432   4.265  0.5543 -0.1740 -1.4821
 8562SOL    HW334015   2.423   0.467   4.361  2.1087  0.9984 -0.0594
 8562SOL    MW434016   2.450   0.432   4.286  0.9279 -0.3048  0.0950
 8563SOL     OW34017   3.288   6.040   2.354  0.2973  0.3205  0.3865
 8563SOL    HW234018   3.379   6.050   2.382 -0.1867  0.4001  2.0606
 8563SOL    HW334019   3.238   6.048   2.435 -1.1518 -0.5055 -0.3957
 8563SOL    MW434020   3.294   6.043   2.369  0.0423  0.2220  0.5042
 8564SOL     OW34021   2.355   4.604   1.294 -0.5669  0.0018  0.0774
 8564SOL    HW234022   2.389   4.517   1.315 -0.6243 -0.7074 -2.4532
 8564SOL    HW334023   2.378   4.658   1.370  2.5063 -1.4068  0.2619
 8564SOL    MW434024   2.362   4.600   1.307 -0.1690 -0.2776 -0.2321
 8565SOL     OW34025   5.788   2.814   3.543  1.1864 -0.0283  0.1806
 8565SOL    HW234026   5.720   2.854   3.597  0.2838  0.0777 -0.9768
 8565SOL    HW334027   5.742   2.747   3.493  1.7389  0.6177 -1.2492
 8565SOL    MW434028   5.773   2.811   3.543  1.1402  0.0709 -0.1608
 8566SOL     OW34029   1.719   0.984   2.054  0.0630  0.1841 -0.3469
 8566SOL    HW234030   1.715   0.996   2.149 -0.5870 -1.6342 -0.1048
 8566SOL    HW334031   1.797   0.931   2.040  0.8820  1.5026 -0.9912
 8566SOL    MW434032   1.729   0.979   2.065  0.0853  0.1181 -0.4000
 8567SOL     OW34033   5.801   2.110   3.017  0.3538 -0.1549  0.3945
 8567SOL    HW234034   5.795   2.044   3.086  1.4665 -1.2262 -0.5126
 8567SOL    HW334035   5.732   2.087   2.956  0.6761 -0.4144  0.1291
 8567SOL    MW434036   5.791   2.098   3.018  0.5431 -0.3305  0.2398
 8568SOL     OW34037   5.653   5.818   2.630  0.1023  0.2848  0.2367
 8568SOL    HW234038   5.588   5.835   2.562 -0.7874  0.6314  1.1550
 8568SOL    HW334039   5.737   5.824   2.585 -0.4992 -0.4594 -1.0322
 8568SOL    MW434040   5.656   5.821   2.615 -0.0944  0.2323  0.1904
 8569SOL     OW34041   4.729   4.452   4.556 -0.4154 -0.4075  0.4915
 8569SOL    HW234042   4.741   4.389   4.485 -1.4391 -1.7159  1.4312
 8569SOL    HW334043   4.818   4.470   4.587  0.0189 -0.0921 -0.8489
 8569SOL    MW434044   4.742   4.446   4.550 -0.4932 -0.5385  0.4386
 8570SOL     OW34045   0.538   5.760   4.133 -0.0027 -0.2901  0.2626
 8570SOL    HW234046   0.551   5.776   4.227 -0.6186  0.5610  0.2114
 8570SOL    HW334047   0.572   5.838   4.090 -1.2999  0.0958 -0.1159
 8570SOL    MW434048   0.544   5.772   4.140 -0.2551 -0.1269  0.2059
 8571SOL     OW34049   0.640   3.247   2.619  0.4096  0.5339  0.5836
 8571SOL    HW234050   0.549   3.248   2.646 -0.2572  2.1252 -1.4516
 8571SOL    HW334051   0.679   3.324   2.660 -0.0081  1.6119 -0.9441
 8571SOL    MW434052   0.633   3.257   2.628  0.2665  0.8861  0.1135
 8572SOL     OW34053   1.425   0.183   2.545  0.4068 -0.3995  0.2191
 8572SOL    HW234054   1.520   0.169   2.545  0.2789 -1.6709 -1.9682
 8572SOL    HW334055   1.389   0.104   2.505 -1.3654  1.2050 -1.5453
 8572SOL    MW434056   1.433   0.171   2.540  0.1561 -0.3556 -0.3023
 8573SOL     OW34057   0.127   4.239   3.075  0.3075  0.0813  0.1240
 8573SOL    HW234058   0.134   4.326   3.114  1.7659  0.1968 -0.3257
 8573SOL    HW334059   0.213   4.224   3.035 -0.8851 -0.2688 -2.4936
 8573SOL    MW434060   0.140   4.248   3.075  0.3425  0.0504 -0.2807
 8574SOL     OW34061   6.180   0.194   3.081  0.3011 -0.4086 -0.4304
 8574SOL    HW234062   6.200   0.277   3.038  0.2144 -1.2088 -2.1171
 8574SOL    HW334063   6.266   0.153   3.095  0.2896 -0.4867 -0.5797
 8574SOL    MW434064   6.194   0.199   3.077  0.2882 -0.5245 -0.6726
 8575SOL     OW34065   6.398   5.897   4.108 -0.0830 -0.5156  0.3339
 8575SOL    HW234066   6.380   5.991   4.100 -0.9009 -0.4572  2.3755
 8575SOL    HW334067   6.477   5.883   4.056  0.3297  1.3892  0.3952
 8575SOL    MW434068   6.406   5.907   4.100 -0.1365 -0.2566  0.6114
 8576SOL     OW34069   6.414   6.293   4.743 -0.3631  0.5936  0.3663
 8576SOL    HW234070   6.377   6.357   4.682  0.3296  1.3272  0.6960
 8576SOL    HW334071   6.376   6.209   4.716  0.3518  0.7985 -1.4528
 8576SOL    MW434072   6.404   6.290   4.731 -0.1774  0.7174  0.1698
 8577SOL     OW34073   3.733   0.130   3.149  0.4479 -0.3272 -0.2196
 8577SOL    HW234074   3.736   0.038   3.176 -0.1006 -0.4692 -0.6250
 8577SOL    HW334075   3.676   0.130   3.072  0.9404  0.2640 -0.5937
 8577SOL    MW434076   3.726   0.118   3.142  0.4405 -0.2679 -0.3224
 8578SOL     OW34077   1.062   3.852   2.297 -0.0336  0.2467 -0.1342
 8578SOL    HW234078   1.109   3.844   2.380  1.2698  1.4394 -0.7207
 8578SOL    HW334079   0.972   3.827   2.319  0.6927 -1.5046  1.1607
 8578SOL    MW434080   1.057   3.848   2.311  0.2342  0.1730 -0.0407
 8579SOL     OW34081   2.108   5.049   1.485 -0.0255  0.6620  0.1386
 8579SOL    HW234082   2.033   5.104   1.461 -0.7440  0.3654  1.6012
 8579SOL    HW334083   2.171   5.110   1.523 -0.4118  0.6307  0.8453
 8579SOL    MW434084   2.106   5.064   1.487 -0.1713  0.6187  0.4248
 8580SOL     OW34085   2.175   5.940   3.176  0.4449 -0.0682 -0.4143
 8580SOL    HW234086   2.201   5.993   3.100 -0.0344  0.4955 -0.1965
 8580SOL    HW334087   2.183   6.000   3.250  1.6704 -0.8462  0.0994
 8580SOL    MW434088   2.180   5.955   3.175  0.5434 -0.0965 -0.3178
 8581SOL     OW34089   4.064   3.443   0.550  0.1671  0.3733  0.2745
 8581SOL    HW234090   3.984   3.448   0.601 -1.0069 -1.3394 -1.2625
 8581SOL    HW334091   4.123   3.389   0.603 -1.3212 -2.0620 -0.3724
 8581SOL    MW434092   4.061   3.436   0.564 -0.1841 -0.1740 -0.0136
 8582SOL     OW34093   1.447   4.827   4.040 -0.2802 -0.4989  0.2447
 8582SOL    HW234094   1.433   4.786   3.955  1.2957  0.3535 -0.4567
 8582SOL    HW334095   1.385   4.900   4.041 -0.3360 -0.5384 -0.1529
 8582SOL    MW434096   1.437   4.832   4.029 -0.0797 -0.3916  0.0997
 8583SOL     OW34097   5.743   2.863   1.628 -0.0817 -0.4510  0.3023
 8583SOL    HW234098   5.672   2.918   1.594  0.2291 -0.1190  0.1872
 8583SOL    HW334099   5.746   2.788   1.569 -1.9538 -1.7377  1.6808
 8583SOL    MW434100   5.734   2.860   1.616 -0.2877 -0.5769  0.4690
 8584SOL     OW34101   6.336   2.861   1.625 -0.5267 -0.1521  0.0258
 8584SOL    HW234102   6.355   2.848   1.532 -3.0494 -1.0822 -0.4175
 8584SOL    HW334103   6.328   2.956   1.634 -0.6567 -0.0722 -0.8013
 8584SOL    MW434104   6.338   2.872   1.614 -0.8767 -0.2642 -0.1418
 8585SOL     OW34105   2.909   2.826   6.252  0.3063  0.0109 -0.2116
 8585SOL    HW234106   2.928   2.888   6.182 -1.4173 -1.4047 -2.0474
 8585SOL    HW334107   2.992   2.784   6.271  1.0576  1.3394 -0.4382
 8585SOL    MW434108   2.922   2.829   6.245  0.1780 -0.0006 -0.4837
 8586SOL     OW34109   2.588   2.068   5.382  0.3053  0.0646 -0.5987
 8586SOL    HW234110   2.529   2.010   5.430  0.9999  0.1430  0.3706
 8586SOL    HW334111   2.542   2.085   5.299 -0.7859 -0.2981 -0.0919
 8586SOL    MW434112   2.574   2.062   5.377  0.2530  0.0271 -0.4039
 8587SOL     OW34113   3.899   1.378   6.391 -0.2834 -1.1650 -0.1712
 8587SOL    HW234114   3.933   1.332   6.468  0.7631 -0.1163  0.0233
 8587SOL    HW334115   3.899   1.470   6.416 -0.8323 -0.8935 -1.1078
 8587SOL    MW434116   3.903   1.384   6.405 -0.2177 -0.9908 -0.2691
 8588SOL     OW34117   1.906   5.975   3.227 -0.1578 -0.1748 -0.0286
 8588SOL    HW234118   1.905   6.056   3.279 -1.1008 -0.8603  1.0740
 8588SOL    HW334119   1.999   5.958   3.212  0.0550  1.0866 -0.2550
 8588SOL    MW434120   1.918   5.984   3.232 -0.2542 -0.0988  0.0870
 8589SOL     OW34121   3.048   1.620   3.265 -0.1057  0.2245  0.2085
 8589SOL    HW234122   3.081   1.625   3.354  0.0495 -0.3196  0.1872
 8589SOL    HW334123   3.123   1.592   3.213 -0.0936  0.9134 -0.1582
 8589SOL    MW434124   3.062   1.617   3.270 -0.0836  0.2436  0.1573
 8590SOL     OW34125   2.263   0.262   4.617  0.1319  0.1170 -0.0835
 8590SOL    HW234126   2.222   0.201   4.556  0.0224 -0.4920  0.5916
 8590SOL    HW334127   2.243   0.227   4.704 -0.2504  1.3135  0.3299
 8590SOL    MW434128   2.255   0.250   4.620  0.0670  0.1945  0.0601
 8591SOL     OW34129   1.757   1.661   6.026  0.7185 -0.6124 -0.0567
 8591SOL    HW234130   1.752   1.748   5.985  0.1350 -1.1235 -1.1189
 8591SOL    HW334131   1.823   1.614   5.974 -0.2652 -1.3759 -0.6424
 8591SOL    MW434132   1.765   1.666   6.014  0.5117 -0.7806 -0.2741
 8592SOL     OW34133   3.873   2.157   2.111  0.2800  0.3126  0.4669
 8592SOL    HW234134   3.947   2.171   2.170 -0.0354 -1.6861  1.4313
 8592SOL    HW334135   3.799   2.199   2.156  0.6632  1.7565 -0.1946
 8592SOL    MW434136   3.873   2.164   2.125  0.2890  0.2394  0.5069
 8593SOL     OW34137   3.064   3.167   4.808  0.5200 -0.7685  0.2445
 8593SOL    HW234138   3.160   3.169   4.812  0.4664 -0.3346  2.0724
 8593SOL    HW334139   3.036   3.217   4.884 -1.1873 -0.0134 -0.8124
 8593SOL    MW434140   3.073   3.174   4.818  0.2877 -0.6116  0.3462
 8594SOL     OW34141   1.514   5.662   5.289  0.3654  0.1871  0.7733
 8594SOL    HW234142   1.558   5.642   5.207 -0.6029  1.6811 -0.1552
 8594SOL    HW334143   1.511   5.758   5.292  0.2606  0.1707  2.4998
 8594SOL    MW434144   1.520   5.672   5.279  0.2238  0.3820  0.8786
 8595SOL     OW34145   0.982   1.833   2.327  0.1341  0.1847  0.2838
 8595SOL    HW234146   0.985   1.771   2.255 -1.2339  1.3123 -0.8227
 8595SOL    HW334147   1.073   1.850   2.349  0.5444 -1.1740 -0.2924
 8595SOL    MW434148   0.994   1.827   2.320  0.0077  0.1542  0.0618
 8596SOL     OW34149   2.406   0.051   5.704  0.0863  0.0066 -0.0524
 8596SOL    HW234150   2.460   0.107   5.760 -0.0628  0.6465 -0.5406
 8596SOL    HW334151   2.331   0.105   5.681 -0.8756 -0.9448  0.7787
 8596SOL    MW434152   2.403   0.066   5.708 -0.0603 -0.0345 -0.0072
 8597SOL     OW34153   6.126   0.330   1.946  0.5563 -0.1054  0.2241
 8597SOL    HW234154   6.164   0.298   2.028  2.3469 -0.5502 -0.7238
 8597SOL    HW334155   6.152   0.266   1.880 -2.5374 -0.8471 -0.4453
 8597SOL    MW434156   6.135   0.318   1.948  0.3843 -0.2619  0.0107
 8598SOL     OW34157   0.489   4.546   0.226  0.3572  0.4706  0.6109
 8598SOL    HW234158   0.511   4.475   0.166  0.7907 -0.8447  2.2333
 8598SOL    HW334159   0.394   4.554   0.220  0.5200  1.5125 -1.4226
 8598SOL    MW434160   0.480   4.538   0.217  0.4359  0.4346  0.5567
 8599SOL     OW34161   2.531   3.771   2.957  0.7893 -0.3314  0.6817
 8599SOL    HW234162   2.478   3.768   2.878  2.6322 -3.7821 -0.5992
 8599SOL    HW334163   2.483   3.717   3.020 -0.2453  1.7166  1.7460
 8599SOL    MW434164   2.517   3.764   2.955  0.8960 -0.5165  0.6532
 8600SOL     OW34165   2.407   1.664   5.538 -0.2260 -0.1538 -0.2093
 8600SOL    HW234166   2.337   1.722   5.509 -1.0302 -1.1954 -0.3886
 8600SOL    HW334167   2.415   1.681   5.632  1.1069  1.8640 -0.6213
 8600SOL    MW434168   2.399   1.674   5.547 -0.1562 -0.0250 -0.2873
 8601SOL     OW34169   2.575   3.226   6.374  0.2828  0.1837 -0.0188
 8601SOL    HW234170   2.640   3.296   6.374 -0.4161  0.8477  0.2901
 8601SOL    HW334171   2.496   3.267   6.339  0.3467 -0.9318 -1.6057
 8601SOL    MW434172   2.573   3.241   6.369  0.1990  0.1241 -0.1874
 8602SOL     OW34173   6.006   1.482   0.531 -0.0997 -0.8568  0.1794
 8602SOL    HW234174   5.968   1.395   0.523  1.1240 -1.3596 -0.4884
 8602SOL    HW334175   6.088   1.477   0.481 -0.5417  0.9909 -0.8168
 8602SOL    MW434176   6.012   1.470   0.523  0.0035 -0.6794 -0.0402
 8603SOL     OW34177   3.031   5.045   4.490  1.0547 -0.1655 -0.3363
 8603SOL    HW234178   3.025   5.121   4.432 -1.7216  1.2211  1.5444
 8603SOL    HW334179   2.963   4.985   4.457  0.8987 -0.2946  0.2155
 8603SOL    MW434180   3.021   5.047   4.478  0.6678  0.0004 -0.0154
 8604SOL     OW34181   3.120   6.167   3.649  0.2991  0.0635  0.1842
 8604SOL    HW234182   3.027   6.187   3.659 -0.2483 -1.2182 -1.7116
 8604SOL    HW334183   3.157   6.244   3.605  0.2642  0.7776  1.3715
 8604SOL    MW434184   3.113   6.180   3.644  0.2222 -0.0114  0.0907
 8605SOL     OW34185   3.666   1.915   0.865 -0.2095  0.2038  0.1813
 8605SOL    HW234186   3.697   1.994   0.822 -1.8758  0.8852  0.1545
 8605SOL    HW334187   3.745   1.873   0.900  1.2102 -0.2728 -3.2581
 8605SOL    MW434188   3.680   1.920   0.864 -0.2420  0.2308 -0.2760
 8606SOL     OW34189   5.199   4.241   2.829 -0.1793  0.5716  0.2994
 8606SOL    HW234190   5.143   4.294   2.772  1.5756  0.7136 -1.4031
 8606SOL    HW334191   5.225   4.167   2.775  0.0264 -0.3025  1.5681
 8606SOL    MW434192   5.195   4.239   2.814  0.0794  0.4750  0.2422
 8607SOL     OW34193   2.720   2.777   4.380  0.3300 -0.3757 -0.1468
 8607SOL    HW234194   2.661   2.741   4.445 -1.0416  0.0666 -1.0944
 8607SOL    HW334195   2.807   2.770   4.419 -0.4999  0.4745  2.0086
 8607SOL    MW434196   2.724   2.772   4.394  0.0395 -0.2051  0.0125
 8608SOL     OW34197   2.611   1.073   1.297 -0.1851  0.0246  0.2549
 8608SOL    HW234198   2.606   1.166   1.275 -0.6531  0.1557  0.8902
 8608SOL    HW334199   2.688   1.041   1.248 -0.6446  0.4979 -0.8163
 8608SOL    MW434200   2.621   1.081   1.287 -0.3075  0.1044  0.1974
 8609SOL     OW34201   1.701   1.262   2.064  0.4018 -0.4413  0.2889
 8609SOL    HW234202   1.719   1.169   2.055  1.0173 -0.2480 -0.6709
 8609SOL    HW334203   1.657   1.286   1.982  0.2328  0.1088  0.5322
 8609SOL    MW434204   1.697   1.253   2.052  0.4607 -0.3432  0.1944
 8610SOL     OW34205   2.569   0.254   4.734  0.5427  0.5626 -0.7658
 8610SOL    HW234206   2.501   0.269   4.800  1.3580  0.1517  0.2067
 8610SOL    HW334207   2.617   0.337   4.731  2.6690 -0.4172  1.7930
 8610SOL    MW434208   2.566   0.267   4.743  0.9308  0.3791 -0.2999
 8611SOL     OW34209   0.610   5.027   1.064 -0.3268  0.0059 -0.8517
 8611SOL    HW234210   0.583   4.984   1.145 -0.0743 -1.5327 -1.5488
 8611SOL    HW334211   0.706   5.029   1.069 -0.3517  1.2905 -0.4554
 8611SOL    MW434212   0.619   5.022   1.075 -0.2968 -0.0276 -0.8913
 8612SOL     OW34213   5.298   1.550   3.633  0.2322 -0.0736 -0.4059
 8612SOL    HW234214   5.353   1.626   3.618  0.0512 -0.1844 -1.7195
 8612SOL    HW334215   5.349   1.494   3.692  0.3753  1.0317  0.5458
 8612SOL    MW434216   5.312   1.553   3.639  0.2272  0.0576 -0.4537
 8613SOL     OW34217   4.744   4.193   5.426  0.1037  0.2370  0.3122
 8613SOL    HW234218   4.824   4.190   5.478  0.1606 -1.3770  0.1747
 8613SOL    HW334219   4.681   4.241   5.481  0.4089 -0.7187  1.5347
 8613SOL    MW434220   4.746   4.199   5.440  0.1515 -0.1021  0.4553
 8614SOL     OW34221   5.227   6.344   5.956  0.0616  0.0024 -0.2898
 8614SOL    HW234222   5.190   6.359   5.869  0.7977 -2.0057 -1.0037
 8614SOL    HW334223   5.309   6.298   5.940  0.6302  0.3194  1.4486
 8614SOL    MW434224   5.233   6.340   5.943  0.2337 -0.2207 -0.1546
 8615SOL     OW34225   6.228   5.886   3.630 -0.3554 -0.3504 -0.4404
 8615SOL    HW234226   6.185   5.827   3.568  0.1935  1.5392 -2.7769
 8615SOL    HW334227   6.185   5.868   3.714 -2.9183 -1.3370 -1.8292
 8615SOL    MW434228   6.216   5.876   3.633 -0.6211 -0.2312 -0.9319
 8616SOL     OW34229   3.930   0.191   4.575 -0.5187 -0.6856  0.0553
 8616SOL    HW234230   3.947   0.156   4.488  0.3790 -0.5722  0.1832
 8616SOL    HW334231   3.978   0.134   4.634  0.7830  0.5976  0.2800
 8616SOL    MW434232   3.938   0.179   4.571 -0.2285 -0.5013  0.1019
 8617SOL     OW34233   2.329   3.106   5.975  0.4974  0.2089  0.3476
 8617SOL    HW234234   2.313   3.037   6.040  0.8162 -0.8045 -0.6094
 8617SOL    HW334235   2.375   3.061   5.904  0.3578  1.3324 -0.4768
 8617SOL    MW434236   2.333   3.091   5.974  0.5211  0.2234  0.1126
 8618SOL     OW34237   3.206   2.784   0.870  0.1411 -0.9185  0.1045
 8618SOL    HW234238   3.254   2.777   0.787 -0.3434 -1.0280 -0.1689
 8618SOL    HW334239   3.181   2.876   0.875  1.3639 -0.5965  0.8110
 8618SOL    MW434240   3.209   2.795   0.860  0.2385 -0.8904  0.1617
 8619SOL     OW34241   0.370   4.859   6.123  0.0160  0.3225  0.5390
 8619SOL    HW234242   0.419   4.939   6.140  0.2413 -0.1546  2.3315
 8619SOL    HW334243   0.290   4.889   6.080 -0.0649  1.5642  1.4906
 8619SOL    MW434244   0.366   4.874   6.120  0.0350  0.4234  0.9011
 8620SOL     OW34245   4.029   0.187   1.434 -0.4963  0.5366  0.5450
 8620SOL    HW234246   3.946   0.227   1.408 -1.5952 -0.7133  1.9720
 8620SOL    HW334247   4.067   0.156   1.351 -1.5374  0.9414 -0.1099
 8620SOL    MW434248   4.023   0.188   1.419 -0.7786  0.4251  0.6469
 8621SOL     OW34249   4.828   0.978   2.180 -0.4532 -0.2997 -0.0288
 8621SOL    HW234250   4.905   1.006   2.228  0.5612 -1.2611 -1.0404
 8621SOL    HW334251   4.763   1.046   2.197  0.1274 -0.1932  1.9935
 8621SOL    MW434252   4.829   0.990   2.188 -0.2428 -0.4125  0.1046
 8622SOL     OW34253   1.705   5.955   5.983  0.1065  0.6063 -0.0159
 8622SOL    HW234254   1.705   5.862   5.961  0.2468  0.9266 -1.4340
 8622SOL    HW334255   1.748   5.997   5.909 -0.3748  1.8581  0.3963
 8622SOL    MW434256   1.711   5.948   5.970  0.0615  0.8137 -0.1486
 8623SOL     OW34257   6.089   4.642   3.688  0.4396 -0.5381  0.3009
 8623SOL    HW234258   6.180   4.658   3.710  0.6343 -1.8272  0.4938
 8623SOL    HW334259   6.092   4.575   3.620 -0.3723 -0.9609  0.6658
 8623SOL    MW434260   6.101   4.635   3.682  0.3582 -0.7640  0.3745
 8624SOL     OW34261   5.939   0.644   4.789 -0.4273  0.2673  0.7553
 8624SOL    HW234262   5.996   0.719   4.771  1.7458 -1.3475  0.4943
 8624SOL    HW334263   5.954   0.624   4.881 -0.4598 -0.2557  0.6495
 8624SOL    MW434264   5.949   0.651   4.799 -0.1449 -0.0148  0.7069
 8625SOL     OW34265   1.995   5.532   5.423  0.0803  0.6254 -0.1822
 8625SOL    HW234266   2.073   5.569   5.382 -1.2821  1.4706 -2.1854
 8625SOL    HW334267   1.981   5.449   5.378  0.0048  0.3099  0.4126
 8625SOL    MW434268   2.003   5.526   5.412 -0.1094  0.6953 -0.3680
 8626SOL     OW34269   5.721   2.741   3.951  0.5840  0.3659 -0.1318
 8626SOL    HW234270   5.631   2.712   3.969  1.8577 -5.6885 -1.4085
 8626SOL    HW334271   5.718   2.774   3.861 -0.6096  2.7068  0.6703
 8626SOL    MW434272   5.709   2.742   3.942  0.5946 -0.1241 -0.1944
 8627SOL     OW34273   2.777   3.126   4.928 -0.1834  0.3840  0.1709
 8627SOL    HW234274   2.861   3.171   4.940  1.4101 -1.8318 -1.7202
 8627SOL    HW334275   2.769   3.069   5.004  0.2437  0.3161  0.1671
 8627SOL    MW434276   2.787   3.124   4.939  0.0832  0.0827 -0.0791
 8628SOL     OW34277   4.654   2.784   2.383  0.3521 -0.2524  0.0740
 8628SOL    HW234278   4.606   2.854   2.338  1.6539 -0.0042 -0.9966
 8628SOL    HW334279   4.641   2.802   2.476  0.9255  1.6458 -0.1726
 8628SOL    MW434280   4.646   2.796   2.390  0.5995  0.0308 -0.0998
 8629SOL     OW34281   2.643   4.483   4.044 -0.1413 -0.5491  0.5523
 8629SOL    HW234282   2.613   4.488   3.953 -0.0292  0.0941  0.5414
 8629SOL    HW334283   2.614   4.566   4.082  0.3107 -0.5751  0.9503
 8629SOL    MW434284   2.635   4.495   4.037 -0.0669 -0.4676  0.6034
 8630SOL     OW34285   5.718   2.411   5.619  0.6256  0.3167 -0.0774
 8630SOL    HW234286   5.673   2.352   5.680  0.3734  1.1120  0.5192
 8630SOL    HW334287   5.767   2.352   5.561  0.5443 -0.4733  0.6340
 8630SOL    MW434288   5.719   2.395   5.619  0.5816  0.3174  0.0952
 8631SOL     OW34289   0.942   3.199   4.244  0.4816  0.0089 -0.2102
 8631SOL    HW234290   0.982   3.185   4.330 -1.5605 -0.0120  0.8094
 8631SOL    HW334291   1.006   3.167   4.181  1.0021 -2.4282  1.4299
 8631SOL    MW434292   0.955   3.193   4.247  0.2808 -0.3154  0.1408
 8632SOL     OW34293   0.427   5.135   5.960  0.8262 -0.3030  0.0438
 8632SOL    HW234294   0.340   5.095   5.959  0.2705  0.8582  0.0949
 8632SOL    HW334295   0.453   5.139   5.868  0.3811  0.2438 -0.0676
 8632SOL    MW434296   0.419   5.130   5.948  0.6942 -0.0776  0.0358
 8633SOL     OW34297   4.309   0.082   2.914  0.1437  0.0925 -0.2019
 8633SOL    HW234298   4.224   0.084   2.871  0.6006 -0.6675 -1.1849
 8633SOL    HW334299   4.346   0.169   2.897  0.0825 -0.0072 -0.8892
 8633SOL    MW434300   4.303   0.094   2.906  0.1959 -0.0209 -0.4223
 8634SOL     OW34301   0.533   0.555   3.461  0.1610 -0.0947 -0.2575
 8634SOL    HW234302   0.452   0.602   3.441  0.3735 -0.3191 -1.7281
 8634SOL    HW334303   0.595   0.586   3.395  1.0659 -0.4747  0.4021
 8634SOL    MW434304   0.530   0.565   3.450  0.3085 -0.1744 -0.3645
 8635SOL     OW34305   3.823   6.020   3.429  0.0645  0.2505  0.7847
 8635SOL    HW234306   3.883   6.049   3.360 -0.2350 -0.6037  0.1396
 8635SOL    HW334307   3.741   6.064   3.409 -0.5576 -1.3772 -0.5364
 8635SOL    MW434308   3.820   6.029   3.417 -0.0571 -0.0770  0.5253
 8636SOL     OW34309   5.751   1.028   1.895  0.1120 -0.1304  0.6612
 8636SOL    HW234310   5.826   1.080   1.925  0.8906 -1.1484  0.5172
 8636SOL    HW334311   5.790   0.949   1.857 -1.0406 -0.7230  0.6748
 8636SOL    MW434312   5.766   1.025   1.894  0.0627 -0.3429  0.6440
 8637SOL     OW34313   1.578   0.758   6.239  0.1895  0.0946  0.0562
 8637SOL    HW234314   1.590   0.774   6.146 -0.4259 -1.7824 -0.4005
 8637SOL    HW334315   1.593   0.663   6.249 -2.5023 -0.2869  1.3434
 8637SOL    MW434316   1.582   0.747   6.228 -0.2468 -0.2034  0.1658
 8638SOL     OW34317   1.170   5.958   2.638 -0.0664  0.1187 -0.5702
 8638SOL    HW234318   1.165   5.885   2.699  0.2188 -0.2637 -1.0033
 8638SOL    HW334319   1.202   5.920   2.557 -2.4739  0.1989 -1.6421
 8638SOL    MW434320   1.173   5.944   2.635 -0.3464  0.0788 -0.7687
 8639SOL     OW34321   6.006   4.935   5.313  0.0742 -0.1693 -0.0529
 8639SOL    HW234322   5.924   4.985   5.308 -1.8534 -3.1991 -1.4042
 8639SOL    HW334323   6.071   4.995   5.277 -1.3916  2.4968  1.3742
 8639SOL    MW434324   6.003   4.950   5.307 -0.3735 -0.2173 -0.0429
 8640SOL     OW34325   1.581   3.709   3.362 -0.1190 -0.3732 -0.0835
 8640SOL    HW234326   1.513   3.767   3.395  0.9831  1.4175 -0.8380
 8640SOL    HW334327   1.586   3.639   3.427 -3.6650 -1.4264 -0.7439
 8640SOL    MW434328   1.573   3.707   3.375 -0.4414 -0.2759 -0.2702
 8641SOL     OW34329   4.960   4.910   5.201  0.3525  0.3520 -0.1358
 8641SOL    HW234330   4.989   4.825   5.169  1.3378  0.2988  0.8527
 8641SOL    HW334331   4.950   4.898   5.295 -1.1192  0.8893 -0.1915
 8641SOL    MW434332   4.962   4.897   5.209  0.2883  0.4159 -0.0127
 8642SOL     OW34333   2.799   5.927   5.158 -0.3165 -0.4168 -0.4828
 8642SOL    HW234334   2.739   5.861   5.194  1.4914 -1.1001  1.5016
 8642SOL    HW334335   2.877   5.921   5.213  1.2208  1.1063 -2.3406
 8642SOL    MW434336   2.801   5.917   5.170  0.1249 -0.3060 -0.4661
 8643SOL     OW34337   0.786   4.274   4.581 -0.3350  0.1449  0.5763
 8643SOL    HW234338   0.831   4.301   4.661 -0.9891  3.2159  0.0319
 8643SOL    HW334339   0.696   4.258   4.608 -0.1189 -0.7454  0.7745
 8643SOL    MW434340   0.780   4.276   4.595 -0.3928  0.4326  0.5306
 8644SOL     OW34341   3.345   4.973   4.750 -0.3660 -0.5045 -0.2582
 8644SOL    HW234342   3.439   4.982   4.735 -0.2142  1.8984  1.4057
 8644SOL    HW334343   3.334   4.990   4.843 -2.5365  0.3668 -0.6005
 8644SOL    MW434344   3.356   4.977   4.760 -0.6323 -0.0725 -0.0838
 8645SOL     OW34345   1.425   2.586   3.869  0.6516  0.6222 -0.3697
 8645SOL    HW234346   1.421   2.535   3.950  0.0874 -0.0570 -0.8178
 8645SOL    HW334347   1.335   2.588   3.838  0.4444  2.8747  0.2147
 8645SOL    MW434348   1.413   2.579   3.876  0.5498  0.8298 -0.3517
 8646SOL     OW34349   4.011   4.177   3.796 -0.8719 -0.2247 -0.5080
 8646SOL    HW234350   4.069   4.218   3.731  0.2902 -0.8090  0.1157
 8646SOL    HW334351   3.934   4.232   3.798 -0.0564  0.9675 -0.9122
 8646SOL    MW434352   4.009   4.189   3.788 -0.6110 -0.1445 -0.4791
 8647SOL     OW34353   2.987   2.887   4.844  0.0095  1.4112 -0.7228
 8647SOL    HW234354   3.026   2.837   4.772 -0.7928  0.8993 -0.8137
 8647SOL    HW334355   2.994   2.978   4.816  0.7771  1.2971 -0.9117
 8647SOL    MW434356   2.993   2.892   4.831  0.0049  1.3286 -0.7597
 8648SOL     OW34357   5.356   1.956   1.037 -0.2364 -0.6875 -0.0237
 8648SOL    HW234358   5.303   1.880   1.012  0.0984 -1.4334  1.4313
 8648SOL    HW334359   5.297   2.011   1.088  0.1911 -1.2331  1.0947
 8648SOL    MW434360   5.341   1.953   1.041 -0.1358 -0.8579  0.3158
 8649SOL     OW34361   2.347   4.695   3.950  0.0303 -0.0643  0.3736
 8649SOL    HW234362   2.317   4.785   3.940  2.1127  0.5718 -0.6083
 8649SOL    HW334363   2.397   4.695   4.032  0.6167 -0.1607  0.0179
 8649SOL    MW434364   2.349   4.707   3.960  0.3824  0.0069  0.1971
 8650SOL     OW34365   3.894   2.949   4.444  0.1403  0.1047 -0.1487
 8650SOL    HW234366   3.932   2.992   4.520 -2.3226  3.0594 -0.4056
 8650SOL    HW334367   3.965   2.949   4.379  1.2151  0.8178  0.9751
 8650SOL    MW434368   3.908   2.955   4.445 -0.0429  0.5887 -0.0344
 8651SOL     OW34369   2.595   0.859   2.018  0.3391 -0.5420 -0.3707
 8651SOL    HW234370   2.526   0.836   1.956  0.9434  1.8492 -2.0683
 8651SOL    HW334371   2.674   0.869   1.965  1.4011 -0.6020  1.1248
 8651SOL    MW434372   2.596   0.857   2.003  0.5590 -0.2344 -0.3973
 8652SOL     OW34373   4.984   5.730   2.064 -0.8190 -0.0381 -0.0657
 8652SOL    HW234374   5.036   5.797   2.019  0.1109 -0.8786 -0.2754
 8652SOL    HW334375   4.894   5.750   2.040 -0.5723  1.2016 -0.0375
 8652SOL    MW434376   4.979   5.742   2.055 -0.6638  0.0146 -0.0896
 8653SOL     OW34377   1.889   2.064   3.739 -0.0747 -0.2353 -0.1327
 8653SOL    HW234378   1.984   2.061   3.749 -0.0020 -0.1180 -0.7351
 8653SOL    HW334379   1.856   2.092   3.824  0.5535  1.7075 -0.4873
 8653SOL    MW434380   1.897   2.067   3.751  0.0178  0.0365 -0.2590
 8654SOL     OW34381   4.140   4.340   1.311 -0.3879 -0.0973  0.7675
 8654SOL    HW234382   4.232   4.352   1.289 -0.4713  3.9841  1.8307
 8654SOL    HW334383   4.093   4.374   1.235 -1.0657 -1.2612  0.6377
 8654SOL    MW434384   4.146   4.346   1.298 -0.4883  0.2876  0.8907
 8655SOL     OW34385   3.044   1.233   5.664  0.0627  0.2844 -0.9719
 8655SOL    HW234386   2.997   1.228   5.747  2.7742 -0.5253  0.6766
 8655SOL    HW334387   3.026   1.321   5.631  0.2479  1.2846  1.3847
 8655SOL    MW434388   3.036   1.244   5.670  0.4449  0.3096 -0.4435
 8656SOL     OW34389   0.277   1.184   3.019  0.4625  0.0717  0.3195
 8656SOL    HW234390   0.297   1.176   2.926  0.2309  0.0471  0.2714
 8656SOL    HW334391   0.241   1.273   3.028 -2.1700 -0.8714 -0.1113
 8656SOL    MW434392   0.275   1.195   3.008  0.0846 -0.0560  0.2563
 8657SOL     OW34393   5.824   6.025   0.017  0.0086  0.3258 -0.6912
 8657SOL    HW234394   5.903   6.002  -0.033 -0.3549 -1.3234 -0.5604
 8657SOL    HW334395   5.827   5.968   0.094 -1.7390 -0.4162 -1.1234
 8657SOL    MW434396   5.835   6.014   0.020 -0.2699  0.0103 -0.7309
 8658SOL     OW34397   4.650   4.716   3.127  0.4050  0.4890 -0.3635
 8658SOL    HW234398   4.587   4.705   3.198  1.0497 -0.2028  0.1286
 8658SOL    HW334399   4.733   4.733   3.171  1.1158 -1.4224 -0.8463
 8658SOL    MW434400   4.652   4.716   3.143  0.5838  0.1456 -0.3623
 8659SOL     OW34401   4.456   6.161   4.910  0.3695 -0.0966  0.2839
 8659SOL    HW234402   4.433   6.076   4.874  2.5782  0.1926 -2.0934
 8659SOL    HW334403   4.545   6.150   4.944  0.4968  1.1246  0.4080
 8659SOL    MW434404   4.464   6.149   4.910  0.6777  0.1027 -0.0134
 8660SOL     OW34405   4.598   0.498   0.921 -0.0196 -0.3112 -0.1755
 8660SOL    HW234406   4.561   0.420   0.880  0.1167  0.2356 -1.3985
 8660SOL    HW334407   4.526   0.562   0.921  0.4745  0.2880 -1.2724
 8660SOL    MW434408   4.583   0.497   0.915  0.0636 -0.1600 -0.4816
 8661SOL     OW34409   5.545   1.965   4.350 -1.2484 -0.1383 -0.3210
 8661SOL    HW234410   5.549   2.035   4.415  0.3033 -1.6526  1.3182
 8661SOL    HW334411   5.564   2.009   4.267 -0.8278  1.4571  0.5700
 8661SOL    MW434412   5.548   1.980   4.347 -0.9882 -0.1276  0.0128
 8662SOL     OW34413   3.367   2.208   5.870  0.0452  0.1181  0.9133
 8662SOL    HW234414   3.403   2.202   5.781 -0.7497  2.3217  0.3904
 8662SOL    HW334415   3.437   2.249   5.921  0.3596 -0.8122  1.2661
 8662SOL    MW434416   3.381   2.213   5.865 -0.0182  0.2861  0.8909
 8663SOL     OW34417   2.740   2.532   3.661 -0.5868 -0.4024  0.1118
 8663SOL    HW234418   2.742   2.625   3.637 -0.4601 -0.4829 -0.1924
 8663SOL    HW334419   2.758   2.531   3.755  0.8758 -0.2135 -0.1417
 8663SOL    MW434420   2.743   2.544   3.670 -0.3771 -0.3881  0.0382
 8664SOL     OW34421   0.682   0.625   3.800  0.0276 -0.0275 -0.2051
 8664SOL    HW234422   0.693   0.693   3.734 -0.0432 -0.4087 -0.6144
 8664SOL    HW334423   0.714   0.545   3.758 -0.6397 -0.4006 -0.0271
 8664SOL    MW434424   0.687   0.624   3.786 -0.0698 -0.1270 -0.2356
 8665SOL     OW34425   2.416   5.946   3.898 -0.5095 -0.1229 -0.0557
 8665SOL    HW234426   2.350   5.924   3.964  0.0338  0.6116  0.7468
 8665SOL    HW334427   2.487   5.985   3.947  1.2002 -2.2330 -0.7012
 8665SOL    MW434428   2.416   5.948   3.913 -0.2122 -0.3044 -0.0350
 8666SOL     OW34429   4.992   3.460   1.168  0.1022 -0.2951 -0.1929
 8666SOL    HW234430   5.041   3.540   1.150  0.1349  0.0229  1.2148
 8666SOL    HW334431   5.054   3.402   1.212 -0.0239 -0.9696 -0.8801
 8666SOL    MW434432   5.006   3.463   1.171  0.0899 -0.3421 -0.0979
 8667SOL     OW34433   4.410   0.245   2.632  0.0117 -0.3038 -0.2419
 8667SOL    HW234434   4.481   0.303   2.604 -2.0947  2.4196 -0.4029
 8667SOL    HW334435   4.347   0.249   2.560 -0.8907 -1.6106  0.4366
 8667SOL    MW434436   4.411   0.253   2.618 -0.3853 -0.1169 -0.1736
 8668SOL     OW34437   2.809  -0.023   0.751 -1.0918 -0.2558 -0.2921
 8668SOL    HW234438   2.782   0.036   0.681 -2.5615 -0.4769  0.0565
 8668SOL    HW334439   2.829  -0.106   0.707  0.9963  0.4594 -0.7843
 8668SOL    MW434440   2.808  -0.026   0.736 -1.0102 -0.1906 -0.3110
 8669SOL     OW34441   0.901   5.484   2.020  0.4000 -0.2276  0.1400
 8669SOL    HW234442   0.910   5.433   2.100  0.6127  0.1055  0.3311
 8669SOL    HW334443   0.918   5.421   1.950  0.0871 -0.5475  0.3503
 8669SOL    MW434444   0.904   5.469   2.021  0.3868 -0.2259  0.1929
 8670SOL     OW34445   4.371   0.983   3.096 -0.1506 -0.0562  0.2404
 8670SOL    HW234446   4.422   0.942   3.166 -1.5942 -1.5530  0.4666
 8670SOL    HW334447   4.434   1.039   3.050  1.5514 -1.3781  0.8548
 8670SOL    MW434448   4.386   0.985   3.099 -0.1165 -0.4281  0.3513
 8671SOL     OW34449   1.832   1.871   0.855  0.0300 -0.5800 -0.3373
 8671SOL    HW234450   1.772   1.895   0.926 -2.1085 -0.4363 -2.0785
 8671SOL    HW334451   1.776   1.828   0.790  1.1228  2.2043 -3.4295
 8671SOL    MW434452   1.817   1.868   0.856 -0.1080 -0.1937 -0.9750
 8672SOL     OW34453   1.602   0.668   0.157  0.2024 -1.1502  0.0261
 8672SOL    HW234454   1.628   0.576   0.157  0.0507 -1.2118 -1.2943
 8672SOL    HW334455   1.590   0.689   0.250  1.7058 -2.0303  0.4729
 8672SOL    MW434456   1.604   0.659   0.170  0.3808 -1.2745 -0.0892
 8673SOL     OW34457   6.078   3.228   5.376 -0.2300  0.3080  0.2053
 8673SOL    HW234458   6.024   3.205   5.300 -0.3302 -0.0536  0.3868
 8673SOL    HW334459   6.156   3.269   5.338 -0.3395  0.2467 -0.0888
 8673SOL    MW434460   6.081   3.231   5.361 -0.2576  0.2522  0.1904
 8674SOL     OW34461   6.305   0.543   1.405 -0.8319  0.0204 -0.5391
 8674SOL    HW234462   6.271   0.590   1.329 -2.3747  0.1332  0.1741
 8674SOL    HW334463   6.228   0.523   1.457  0.0777 -1.0180  0.4687
 8674SOL    MW434464   6.291   0.547   1.402 -0.9155 -0.1017 -0.3120
 8675SOL     OW34465   3.154   0.328   2.979  0.1045 -0.5212  0.3908
 8675SOL    HW234466   3.078   0.384   2.963 -0.5092 -1.1509  1.0153
 8675SOL    HW334467   3.228   0.378   2.945 -0.4554  0.5543  0.6872
 8675SOL    MW434468   3.154   0.342   2.973 -0.0504 -0.4624  0.5123
 8676SOL     OW34469   2.936   1.340   5.939 -0.7535 -0.0732  0.1660
 8676SOL    HW234470   2.906   1.264   5.988 -0.2625  0.2615  1.0128
 8676SOL    HW334471   2.865   1.404   5.948  0.0751  0.6552  2.0184
 8676SOL    MW434472   2.923   1.339   5.946 -0.5794  0.0671  0.5221
 8677SOL     OW34473   5.609   0.901   3.243 -0.2592 -0.1340 -0.4916
 8677SOL    HW234474   5.636   0.953   3.319 -0.9838 -0.3220 -0.0956
 8677SOL    HW334475   5.574   0.964   3.181 -0.3202 -0.0594 -0.3804
 8677SOL    MW434476   5.608   0.916   3.245 -0.3629 -0.1490 -0.4247
 8678SOL     OW34477   5.666   0.289   5.995  0.0708  0.0111 -0.9123
 8678SOL    HW234478   5.693   0.360   6.054 -0.7287  0.5799 -1.2070
 8678SOL    HW334479   5.746   0.262   5.952  0.5878 -0.0913  0.0969
 8678SOL    MW434480   5.680   0.295   5.997  0.0335  0.0727 -0.8180
 8679SOL     OW34481   5.119   3.729   1.181  0.3208 -0.2030 -0.3831
 8679SOL    HW234482   5.213   3.722   1.167 -0.1583 -0.9372 -4.3021
 8679SOL    HW334483   5.095   3.813   1.141 -0.8400 -0.5376 -0.4264
 8679SOL    MW434484   5.128   3.739   1.174  0.1045 -0.3440 -0.9059
 8680SOL     OW34485   2.247   1.843   5.968 -0.1205  0.0275 -0.0734
 8680SOL    HW234486   2.219   1.859   6.058  1.0015  0.2377  0.2550
 8680SOL    HW334487   2.166   1.825   5.921 -0.5941 -1.7268  1.2928
 8680SOL    MW434488   2.232   1.843   5.974 -0.0350 -0.1762  0.1502
 8681SOL     OW34489   3.186   5.275   0.646  0.1860  0.0815  0.2258
 8681SOL    HW234490   3.257   5.339   0.638 -0.0758  0.2969 -0.3652
 8681SOL    HW334491   3.113   5.313   0.599 -0.4556  0.0301  1.1559
 8681SOL    MW434492   3.186   5.288   0.639  0.0668  0.1032  0.2705
 8682SOL     OW34493   3.347  -0.033   0.977 -0.4518 -0.1540 -0.1772
 8682SOL    HW234494   3.313  -0.020   1.066  0.7333 -0.3200  0.3194
 8682SOL    HW334495   3.273  -0.012   0.920 -1.3865 -0.5259  0.8564
 8682SOL    MW434496   3.333  -0.028   0.982 -0.4187 -0.2250  0.0247
 8683SOL     OW34497   0.169   4.214   4.240 -0.2195  0.0018 -0.1116
 8683SOL    HW234498   0.166   4.252   4.152 -0.2522  2.8591  1.0201
 8683SOL    HW334499   0.180   4.120   4.225 -2.6391  0.0525 -3.1750
 8683SOL    MW434500   0.170   4.207   4.227 -0.5431  0.3855 -0.3665
 8684SOL     OW34501   1.523   2.630   2.968 -0.4687 -0.2044  0.0173
 8684SOL    HW234502   1.485   2.628   3.056 -0.1963  2.0011  0.2414
 8684SOL    HW334503   1.464   2.685   2.917  0.4115  0.1619 -0.6455
 8684SOL    MW434504   1.510   2.637   2.973 -0.3166  0.1349 -0.0406
 8685SOL     OW34505   0.289   5.585   2.231 -0.2876 -0.2354 -0.6736
 8685SOL    HW234506   0.338   5.624   2.158  1.3030  0.7829  0.8544
 8685SOL    HW334507   0.354   5.535   2.280 -1.2475 -0.6391  0.2381
 8685SOL    MW434508   0.304   5.584   2.228 -0.2044 -0.1543 -0.3517
 8686SOL     OW34509   5.770   1.905   3.784  0.3726 -0.9507  0.5027
 8686SOL    HW234510   5.797   1.826   3.738  0.8291 -0.0565 -0.8217
 8686SOL    HW334511   5.840   1.967   3.769 -0.1458 -0.1656  1.2210
 8686SOL    MW434512   5.783   1.903   3.776  0.3645 -0.7292  0.4227
 8687SOL     OW34513   0.846   1.255   5.413 -0.2083  0.6293 -0.2504
 8687SOL    HW234514   0.770   1.200   5.391  0.1816  0.5087 -1.3523
 8687SOL    HW334515   0.908   1.195   5.454 -1.1833  0.9732  1.8833
 8687SOL    MW434516   0.844   1.240   5.416 -0.2855  0.6588 -0.1142
 8688SOL     OW34517   3.547   3.048   0.678 -0.1025 -0.2982 -0.3261
 8688SOL    HW234518   3.572   3.137   0.652  0.5432 -0.3558  0.0708
 8688SOL    HW334519   3.589   2.991   0.614  0.3236 -0.3663  0.0103
 8688SOL    MW434520   3.556   3.053   0.666  0.0389 -0.3148 -0.2293
 8689SOL     OW34521   3.535   1.682   4.622 -0.7630  0.0282 -0.2042
 8689SOL    HW234522   3.555   1.707   4.713 -0.9423  1.4021 -0.5316
 8689SOL    HW334523   3.460   1.735   4.598 -1.5957 -1.3322 -0.7221
 8689SOL    MW434524   3.528   1.692   4.631 -0.8965  0.0300 -0.3157
 8690SOL     OW34525   5.132   0.559   2.977  0.2433 -0.1577  0.0003
 8690SOL    HW234526   5.066   0.527   3.038  0.5228 -1.4208 -0.3309
 8690SOL    HW334527   5.201   0.492   2.979  0.6901  0.2589 -0.9699
 8690SOL    MW434528   5.132   0.546   2.985  0.3392 -0.2694 -0.1714
 8691SOL     OW34529   0.322   5.104   1.055  0.5930  0.0001 -0.8319
 8691SOL    HW234530   0.406   5.072   1.021  0.9326 -0.7658  0.6530
 8691SOL    HW334531   0.319   5.072   1.145 -0.7487  1.0664 -0.4691
 8691SOL    MW434532   0.333   5.096   1.062  0.4608  0.0397 -0.5881
 8692SOL     OW34533   1.915   5.225   1.087 -0.0826 -0.4861  0.1119
 8692SOL    HW234534   1.945   5.138   1.061  0.8925  0.5083 -2.3212
 8692SOL    HW334535   1.910   5.275   1.006 -0.2480  1.8737  1.4662
 8692SOL    MW434536   1.918   5.220   1.073  0.0243 -0.0435 -0.0304
 8693SOL     OW34537   4.167   2.807   0.303 -0.9501  0.5655  0.4772
 8693SOL    HW234538   4.075   2.801   0.276 -0.8099 -0.7074  0.1873
 8693SOL    HW334539   4.196   2.892   0.271 -1.4967  0.1588 -1.1955
 8693SOL    MW434540   4.159   2.817   0.295 -1.0037  0.3439  0.2183
 8694SOL     OW34541   2.896   3.771   3.838 -0.0889 -0.2665  0.1240
 8694SOL    HW234542   2.936   3.813   3.762 -0.8899  0.6719  0.2142
 8694SOL    HW334543   2.945   3.689   3.847  1.0640  0.3225 -0.4444
 8694SOL    MW434544   2.908   3.765   3.829 -0.0425 -0.0650  0.0609
 8695SOL     OW34545   2.454   2.434   3.177  0.1689  0.4014  0.4682
 8695SOL    HW234546   2.402   2.370   3.130  0.0250 -0.3998  1.6587
 8695SOL    HW334547   2.461   2.509   3.118 -1.1563 -0.0200 -0.2529
 8695SOL    MW434548   2.448   2.436   3.163 -0.0249  0.2401  0.5301
 8696SOL     OW34549   2.405   4.216   1.931  0.1734  0.2186  0.0525
 8696SOL    HW234550   2.470   4.155   1.899 -1.0522 -0.2169 -1.7712
 8696SOL    HW334551   2.360   4.170   2.002 -1.9563 -1.8902 -2.4476
 8696SOL    MW434552   2.407   4.202   1.937 -0.2693 -0.1171 -0.5180
 8697SOL     OW34553   1.140   2.980   4.906 -0.2176  0.0405 -0.2563
 8697SOL    HW234554   1.088   3.005   4.982 -0.8971 -0.2710 -0.6067
 8697SOL    HW334555   1.202   3.052   4.895 -0.1126  0.0910  0.5815
 8697SOL    MW434556   1.141   2.992   4.915 -0.2934  0.0061 -0.1920
 8698SOL     OW34557   2.157   5.209   0.821  0.4298 -0.1897 -0.2678
 8698SOL    HW234558   2.153   5.126   0.869 -3.2014 -0.0873 -0.1384
 8698SOL    HW334559   2.210   5.188   0.743  1.0700 -2.1146  0.6184
 8698SOL    MW434560   2.164   5.195   0.817  0.0352 -0.4302 -0.1338
 8699SOL     OW34561   1.747   6.081   3.568 -0.7004  0.2215 -0.0040
 8699SOL    HW234562   1.674   6.135   3.597 -0.2605  1.0988 -0.4576
 8699SOL    HW334563   1.772   6.030   3.645 -1.0137  0.8153  0.5015
 8699SOL    MW434564   1.741   6.082   3.582 -0.6837  0.4156  0.0028
 8700SOL     OW34565   5.686   4.828   2.537 -0.1466 -0.4132 -0.2623
 8700SOL    HW234566   5.701   4.781   2.455  0.1110  0.0705 -0.4957
 8700SOL    HW334567   5.691   4.921   2.513 -0.9067 -0.2597  0.1466
 8700SOL    MW434568   5.688   4.834   2.523 -0.2129 -0.3291 -0.2392
 8701SOL     OW34569   1.385   4.221   4.856  0.3730  0.0653  0.2021
 8701SOL    HW234570   1.357   4.312   4.868 -1.7652 -0.6047  0.8818
 8701SOL    HW334571   1.424   4.196   4.939  0.3412  0.1815  0.2514
 8701SOL    MW434572   1.386   4.229   4.869  0.0867 -0.0078  0.2983
 8702SOL     OW34573   6.433   0.814   0.919 -0.3750  0.3206 -0.6504
 8702SOL    HW234574   6.345   0.785   0.896  0.3310  0.2597 -3.7308
 8702SOL    HW334575   6.435   0.906   0.894  0.7702 -0.0086 -1.9017
 8702SOL    MW434576   6.422   0.822   0.913 -0.1308  0.2691 -1.2219
 8703SOL     OW34577   5.630   2.118   4.109 -0.2650  0.7527 -0.1078
 8703SOL    HW234578   5.630   2.211   4.086 -0.6366  1.0252  0.9327
 8703SOL    HW334579   5.619   2.072   4.026  0.1086  1.6304 -0.6533
 8703SOL    MW434580   5.629   2.124   4.095 -0.2647  0.9044 -0.0425
 8704SOL     OW34581   2.080   2.859   0.768 -0.0257  1.1328  0.3290
 8704SOL    HW234582   2.167   2.888   0.741 -0.0377  0.0575 -1.0017
 8704SOL    HW334583   2.020   2.896   0.703 -0.2039 -0.5160 -0.5024
 8704SOL    MW434584   2.083   2.867   0.756 -0.0508  0.7734  0.0438
 8705SOL     OW34585   1.499   3.089   2.755 -0.3603 -0.2731  0.2802
 8705SOL    HW234586   1.425   3.116   2.699  0.9709  0.9602 -0.9705
 8705SOL    HW334587   1.508   3.160   2.819  2.3276  1.9067 -2.2160
 8705SOL    MW434588   1.490   3.102   2.756  0.1700  0.1773 -0.2142
 8706SOL     OW34589   2.299   4.173   6.002  0.3287  0.0397 -0.3457
 8706SOL    HW234590   2.306   4.079   5.987  2.7157 -0.1112  1.2965
 8706SOL    HW334591   2.253   4.181   6.086 -0.1446  0.3596 -0.6300
 8706SOL    MW434592   2.294   4.162   6.011  0.5812  0.0620 -0.1665
 8707SOL     OW34593   2.939   3.578   0.429 -0.8848  0.8109  0.6009
 8707SOL    HW234594   2.927   3.600   0.337 -1.2393 -0.0844  0.4182
 8707SOL    HW334595   2.852   3.549   0.458 -0.8798  1.4826  1.3356
 8707SOL    MW434596   2.926   3.577   0.421 -0.9309  0.7814  0.6737
 8708SOL     OW34597   4.557   3.834   1.926  0.3219 -0.4217 -0.1886
 8708SOL    HW234598   4.626   3.877   1.875  0.3981  1.5450  1.4148
 8708SOL    HW334599   4.476   3.860   1.884  0.4755 -0.7927 -0.7123
 8708SOL    MW434600   4.555   3.843   1.914  0.3522 -0.2112 -0.0462
 8709SOL     OW34601   5.205   4.019   4.580 -0.2847 -0.1920  0.5865
 8709SOL    HW234602   5.157   4.101   4.589 -2.7806 -1.6235  1.6537
 8709SOL    HW334603   5.180   3.986   4.494  0.5365  0.0409  0.2517
 8709SOL    MW434604   5.195   4.025   4.570 -0.5056 -0.3502  0.6831
 8710SOL     OW34605   3.859   4.178   0.142  0.3542 -0.2422  0.0296
 8710SOL    HW234606   3.845   4.186   0.237  0.6979 -0.3904  0.0943
 8710SOL    HW334607   3.953   4.168   0.133  0.2269 -1.2598 -0.2566
 8710SOL    MW434608   3.869   4.178   0.153  0.3827 -0.3961  0.0003
 8711SOL     OW34609   6.050   1.853   0.391 -0.4877  0.3133  0.1129
 8711SOL    HW234610   5.956   1.837   0.381 -0.4349 -0.3017  0.5483
 8711SOL    HW334611   6.063   1.863   0.485 -0.0644  0.0590  0.0831
 8711SOL    MW434612   6.039   1.852   0.402 -0.4249  0.1986  0.1664
 8712SOL     OW34613   4.719   5.665   0.737 -0.0456 -0.1734 -0.2157
 8712SOL    HW234614   4.634   5.709   0.733  0.3440  0.5551 -0.5511
 8712SOL    HW334615   4.733   5.650   0.831 -0.4752 -0.1682 -0.1479
 8712SOL    MW434616   4.709   5.668   0.749 -0.0509 -0.0766 -0.2510
 8713SOL     OW34617   4.397   5.490   6.401 -0.2419 -0.0418  0.1747
 8713SOL    HW234618   4.418   5.404   6.438  0.4440 -1.1244 -2.4606
 8713SOL    HW334619   4.474   5.513   6.348 -1.6299  0.7269 -1.6027
 8713SOL    MW434620   4.410   5.482   6.399 -0.3345 -0.0832 -0.4075
 8714SOL     OW34621   3.383   4.849   5.448  0.0241 -0.4011 -0.5097
 8714SOL    HW234622   3.332   4.924   5.416  0.0000 -0.3384 -0.3252
 8714SOL    HW334623   3.406   4.873   5.538  2.0937  0.4686 -1.2199
 8714SOL    MW434624   3.379   4.862   5.456  0.2940 -0.2781 -0.5790
 8715SOL     OW34625   5.404  -0.015   1.498 -0.2587 -0.0623 -0.3828
 8715SOL    HW234626   5.438  -0.074   1.565  0.1422  0.3243 -0.2400
 8715SOL    HW334627   5.393   0.069   1.543  0.3061  0.2812 -0.8779
 8715SOL    MW434628   5.407  -0.012   1.513 -0.1313  0.0340 -0.4293
 8716SOL     OW34629   4.774   4.704   2.468  0.1960  0.3326 -0.4212
 8716SOL    HW234630   4.820   4.782   2.497  2.0641 -0.1087 -2.0052
 8716SOL    HW334631   4.731   4.730   2.386  1.8770 -0.5772 -1.6370
 8716SOL    MW434632   4.774   4.718   2.461  0.6642  0.1544 -0.7906
 8717SOL     OW34633   3.769   3.381   2.788  0.2113 -0.1034 -0.0252
 8717SOL    HW234634   3.684   3.345   2.764  1.9768 -3.4886 -1.9974
 8717SOL    HW334635   3.791   3.442   2.717 -1.3841  2.7187  1.6853
 8717SOL    MW434636   3.761   3.384   2.776  0.2338 -0.1777 -0.0598
 8718SOL     OW34637   0.446   4.098   5.533  0.1647  0.3523  0.0542
 8718SOL    HW234638   0.387   4.043   5.583  0.1936 -0.6556 -0.9787
 8718SOL    HW334639   0.393   4.173   5.507 -0.7996 -0.6979 -1.1445
 8718SOL    MW434640   0.431   4.101   5.536  0.0413  0.0807 -0.2403
 8719SOL     OW34641   5.766   2.677   5.968 -0.1400  0.2876  0.3445
 8719SOL    HW234642   5.752   2.588   5.935 -1.6088 -0.3751  2.5640
 8719SOL    HW334643   5.678   2.715   5.972  0.5820  2.5877 -2.2397
 8719SOL    MW434644   5.752   2.670   5.964 -0.2386  0.5037  0.2964
 8720SOL     OW34645   2.948   1.544   2.023  0.2733  0.1716  0.1817
 8720SOL    HW234646   3.041   1.549   2.043  0.4028  1.6510 -0.6903
 8720SOL    HW334647   2.906   1.523   2.107  1.4395 -1.5462  0.3895
 8720SOL    MW434648   2.954   1.542   2.037  0.4443  0.1401  0.0940
 8721SOL     OW34649   2.976   2.533   4.225 -0.0363 -0.5200 -0.0166
 8721SOL    HW234650   2.933   2.482   4.156 -0.2110  0.5954 -0.7493
 8721SOL    HW334651   2.916   2.605   4.243  2.2932  2.3741 -2.6003
 8721SOL    MW434652   2.963   2.536   4.218  0.2480  0.0090 -0.4541
 8722SOL     OW34653   1.735   0.230   0.323  0.3415 -0.7722  0.0094
 8722SOL    HW234654   1.815   0.180   0.338  0.5414 -0.3941  0.2298
 8722SOL    HW334655   1.666   0.179   0.365  0.9449  0.4842  2.7368
 8722SOL    MW434656   1.736   0.217   0.330  0.4474 -0.5566  0.3983
 8723SOL     OW34657   3.618   5.844   6.301  0.2471 -0.5048 -0.5644
 8723SOL    HW234658   3.607   5.812   6.390  0.5001 -0.0852 -0.3804
 8723SOL    HW334659   3.605   5.938   6.307 -0.8048 -0.5966 -1.1581
 8723SOL    MW434660   3.615   5.852   6.313  0.1417 -0.4615 -0.6185
 8724SOL     OW34661   1.236   2.710   0.018 -0.1327  0.2302 -0.5008
 8724SOL    HW234662   1.155   2.658   0.017 -0.6946  1.0784 -0.0797
 8724SOL    HW334663   1.300   2.655  -0.026 -0.4810 -1.1926  0.7001
 8724SOL    MW434664   1.233   2.696   0.012 -0.2528  0.1544 -0.2868
 8725SOL     OW34665   3.437   5.231   0.906  0.2356  0.1524 -0.4883
 8725SOL    HW234666   3.477   5.145   0.914 -0.0542  0.0342 -0.2866
 8725SOL    HW334667   3.343   5.214   0.906  0.1766  0.4645 -0.4887
 8725SOL    MW434668   3.430   5.217   0.907  0.1895  0.1780 -0.4618
 8726SOL     OW34669   2.345   5.104   5.408 -0.3169  0.0051  0.1512
 8726SOL    HW234670   2.436   5.125   5.429 -0.9167  0.3721  2.7599
 8726SOL    HW334671   2.294   5.163   5.463 -2.1358 -1.0450 -0.3466
 8726SOL    MW434672   2.350   5.114   5.418 -0.6360 -0.0850  0.4297
 8727SOL     OW34673   0.575   4.515   5.332  0.1776  0.3838 -0.3445
 8727SOL    HW234674   0.645   4.515   5.397  0.2519  0.7566 -0.4186
 8727SOL    HW334675   0.543   4.606   5.332 -0.7394  0.0737  0.1595
 8727SOL    MW434676   0.580   4.527   5.341  0.0664  0.3921 -0.2878
 8728SOL     OW34677   1.149   5.593   4.687 -0.1334  0.3974  0.4184
 8728SOL    HW234678   1.218   5.563   4.747 -1.2018 -0.1631  1.4015
 8728SOL    HW334679   1.089   5.519   4.680 -1.9920  1.6970  1.6457
 8728SOL    MW434680   1.151   5.579   4.694 -0.5196  0.4949  0.7100
 8729SOL     OW34681   5.213   2.383   2.745 -0.5578  0.3529 -0.3965
 8729SOL    HW234682   5.184   2.308   2.796 -1.5806  2.2219  1.9925
 8729SOL    HW334683   5.301   2.402   2.778 -1.3356  1.7468  1.0120
 8729SOL    MW434684   5.221   2.376   2.756 -0.7954  0.7834  0.1045
 8730SOL     OW34685   0.873   3.847   5.962  0.4098  0.1188 -0.1429
 8730SOL    HW234686   0.917   3.832   5.879  2.1056 -0.9262  0.8928
 8730SOL    HW334687   0.932   3.905   6.011 -1.1639  1.7825 -0.1069
 8730SOL    MW434688   0.887   3.853   5.958  0.4259  0.2005 -0.0015
 8731SOL     OW34689   5.210   0.139   3.073 -0.2149 -0.1122  0.5540
 8731SOL    HW234690   5.158   0.109   2.999  0.0415  0.5931  0.0760
 8731SOL    HW334691   5.146   0.153   3.143 -0.4935 -0.5141  0.3795
 8731SOL    MW434692   5.195   0.137   3.072 -0.2178 -0.0722  0.4679
 8732SOL     OW34693   1.934   3.062   2.909  0.1066 -1.0808 -0.1837
 8732SOL    HW234694   1.940   3.148   2.869  0.1432 -1.0803 -0.1775
 8732SOL    HW334695   1.843   3.036   2.897 -0.3791 -0.2599  1.4204
 8732SOL    MW434696   1.923   3.070   2.902  0.0473 -0.9725  0.0287
 8733SOL     OW34697   2.105   4.943   2.376 -0.2225 -0.0296  0.4940
 8733SOL    HW234698   2.135   4.866   2.425  0.7661  1.1935  1.9052
 8733SOL    HW334699   2.132   5.017   2.430 -2.1199  1.2974 -0.3000
 8733SOL    MW434700   2.113   4.942   2.389 -0.3424  0.3068  0.5754
 8734SOL     OW34701   2.879   4.320   2.655  0.0997 -0.0144 -0.6911
 8734SOL    HW234702   2.851   4.339   2.745  1.6018  0.7004 -0.3390
 8734SOL    HW334703   2.970   4.351   2.651  0.6989 -1.7678 -1.9103
 8734SOL    MW434704   2.888   4.327   2.666  0.3769 -0.1514 -0.8055
 8735SOL     OW34705   1.061   6.197   1.076  0.2373 -0.2380 -0.3355
 8735SOL    HW234706   1.024   6.134   1.014 -0.7902 -1.8009  1.7658
 8735SOL    HW334707   1.147   6.160   1.099  0.4691  0.1636 -0.5340
 8735SOL    MW434708   1.068   6.184   1.071  0.1323 -0.3912 -0.0844
 8736SOL     OW34709   6.134   4.226   1.357 -0.0338  0.1136  0.2814
 8736SOL    HW234710   6.204   4.241   1.293  0.1507 -0.1717  0.4192
 8736SOL    HW334711   6.057   4.269   1.318 -0.1107 -0.7060 -0.4877
 8736SOL    MW434712   6.133   4.234   1.343 -0.0196 -0.0322  0.1981
 8737SOL     OW34713   0.272   4.289   1.344  0.5607 -0.3346 -0.0016
 8737SOL    HW234714   0.359   4.329   1.341  1.1398 -1.5303  0.3864
 8737SOL    HW334715   0.286   4.198   1.321 -0.4684 -0.7350  0.8579
 8737SOL    MW434716   0.285   4.282   1.341  0.5013 -0.5452  0.1630
 8738SOL     OW34717   4.762   0.574   4.361  0.3658 -0.0192  0.0470
 8738SOL    HW234718   4.685   0.631   4.369 -0.7255 -1.2679 -0.9293
 8738SOL    HW334719   4.815   0.593   4.438 -2.1581 -0.8934  2.1441
 8738SOL    MW434720   4.759   0.584   4.372 -0.1112 -0.2993  0.1949
 8739SOL     OW34721   3.131   0.324   3.490 -1.1605  0.2816 -0.0705
 8739SOL    HW234722   3.144   0.271   3.569 -0.4543  0.7930  0.1669
 8739SOL    HW334723   3.215   0.368   3.477 -1.5152  0.7887 -0.6784
 8739SOL    MW434724   3.144   0.323   3.499 -1.1142  0.4159 -0.1194
 8740SOL     OW34725   3.224   2.778   5.951 -0.0801 -0.0933  0.3791
 8740SOL    HW234726   3.223   2.693   5.996  0.9090  0.5976  1.7500
 8740SOL    HW334727   3.243   2.842   6.019 -1.3825  1.3371 -0.5303
 8740SOL    MW434728   3.226   2.775   5.966 -0.1214  0.1866  0.4400
 8741SOL     OW34729   3.373   5.309   5.970 -0.5964  0.1990  0.1246
 8741SOL    HW234730   3.458   5.335   6.005 -0.2779  0.2572 -0.6592
 8741SOL    HW334731   3.391   5.286   5.879 -1.6188  1.4356 -0.4267
 8741SOL    MW434732   3.387   5.310   5.963 -0.6893  0.3698 -0.0516
 8742SOL     OW34733   6.370   6.176   0.229 -0.4037 -0.4047 -0.0770
 8742SOL    HW234734   6.443   6.238   0.221 -1.8352  1.4402  0.6442
 8742SOL    HW334735   6.352   6.172   0.323 -0.7702 -1.4114 -0.1808
 8742SOL    MW434736   6.377   6.184   0.241 -0.6409 -0.2941  0.0044
 8743SOL     OW34737   4.664   2.440   5.113  0.4382  0.3611  0.5635
 8743SOL    HW234738   4.639   2.348   5.125 -0.0649  0.2585 -1.0459
 8743SOL    HW334739   4.749   2.436   5.070 -0.8819  0.5508 -2.2396
 8743SOL    MW434740   4.672   2.427   5.109  0.1977  0.3726 -0.0187
 8744SOL     OW34741   4.627   3.009   5.450 -1.0510 -0.1307  0.1006
 8744SOL    HW234742   4.680   3.071   5.501  1.6340 -2.9997  1.0915
 8744SOL    HW334743   4.541   3.010   5.493 -1.6711  3.8292 -0.8429
 8744SOL    MW434744   4.623   3.018   5.462 -0.7786  0.0133  0.1069
 8745SOL     OW34745   1.979   5.019   3.708 -0.1773  0.3058  0.7381
 8745SOL    HW234746   1.979   4.927   3.734  0.7981  0.8150  2.6919
 8745SOL    HW334747   2.062   5.031   3.662 -1.1556 -0.1853 -1.3048
 8745SOL    MW434748   1.990   5.008   3.705 -0.1777  0.3082  0.7264
 8746SOL     OW34749   5.062   3.151   4.137  0.2637 -0.1652 -0.4068
 8746SOL    HW234750   5.068   3.151   4.233  1.6455 -0.2413 -0.4673
 8746SOL    HW334751   4.970   3.133   4.118 -0.3117  1.2065  0.9098
 8746SOL    MW434752   5.051   3.149   4.147  0.3701  0.0057 -0.2411
 8747SOL     OW34753   1.517   0.525   2.362  0.0391  0.2297 -0.5745
 8747SOL    HW234754   1.552   0.453   2.415 -1.6788 -1.4423 -1.5638
 8747SOL    HW334755   1.589   0.551   2.305  0.5717 -1.0495 -0.5153
 8747SOL    MW434756   1.531   0.519   2.361 -0.1173 -0.1596 -0.6972
 8748SOL     OW34757   4.819   5.023   2.418 -0.0927  0.4890 -0.1654
 8748SOL    HW234758   4.733   5.058   2.441 -0.5966 -0.6105 -0.3353
 8748SOL    HW334759   4.871   5.031   2.498 -0.3260  1.2131 -0.0807
 8748SOL    MW434760   4.815   5.029   2.431 -0.1900  0.4395 -0.1766
 8749SOL     OW34761   2.184   4.980   1.229 -0.0857 -0.5171  0.2811
 8749SOL    HW234762   2.159   5.000   1.319  0.3839 -1.3962  0.6128
 8749SOL    HW334763   2.274   4.949   1.234  0.9662  2.0212 -0.8366
 8749SOL    MW434764   2.192   4.979   1.241  0.1150 -0.2982  0.1774
 8750SOL     OW34765   1.466   1.156   5.420 -0.0849 -0.2488  0.3064
 8750SOL    HW234766   1.447   1.248   5.401  0.2163 -0.2081  0.1976
 8750SOL    HW334767   1.559   1.147   5.402  0.5329  0.0986  2.9147
 8750SOL    MW434768   1.476   1.167   5.415  0.0364 -0.1976  0.6362
 8751SOL     OW34769   3.236   2.342   1.421 -0.0964  0.3491  0.1110
 8751SOL    HW234770   3.171   2.409   1.399 -0.7183 -0.5826 -1.0528
 8751SOL    HW334771   3.279   2.322   1.338  0.4845 -0.2654  0.5481
 8751SOL    MW434772   3.233   2.348   1.407 -0.1018  0.1451  0.0151
 8752SOL     OW34773   3.050   6.165   1.324  0.1647 -0.3879 -0.7276
 8752SOL    HW234774   3.090   6.233   1.378 -0.0340 -0.8972  0.0789
 8752SOL    HW334775   2.992   6.118   1.383  0.1311 -1.1196 -1.3224
 8752SOL    MW434776   3.048   6.167   1.339  0.1341 -0.5517 -0.6996
 8753SOL     OW34777   0.188   0.581   1.749  0.3746 -0.2698  0.0632
 8753SOL    HW234778   0.245   0.566   1.824 -0.1266  1.3848  0.8305
 8753SOL    HW334779   0.130   0.652   1.777  0.2548  0.4923 -1.9391
 8753SOL    MW434780   0.188   0.588   1.762  0.2927  0.0490 -0.0997
 8754SOL     OW34781   3.648   1.177   5.605 -0.2582 -0.1467  0.3937
 8754SOL    HW234782   3.624   1.119   5.533 -0.6572 -0.4374  0.7582
 8754SOL    HW334783   3.708   1.125   5.658 -1.1101 -0.4635  1.0672
 8754SOL    MW434784   3.653   1.163   5.602 -0.4233 -0.2269  0.5306
 8755SOL     OW34785   1.651   1.986   2.600 -0.3136  0.1611 -0.0437
 8755SOL    HW234786   1.588   2.056   2.582 -0.9430  0.1455  1.9280
 8755SOL    HW334787   1.685   1.963   2.514 -1.9509  1.1585 -1.0215
 8755SOL    MW434788   1.647   1.992   2.586 -0.6126  0.2906  0.0874
 8756SOL     OW34789   5.946   5.202   2.367  0.7607  0.3292 -0.0513
 8756SOL    HW234790   5.916   5.291   2.386  2.0045  0.8498 -0.3770
 8756SOL    HW334791   5.880   5.145   2.405 -0.5929  1.3968 -0.6924
 8756SOL    MW434792   5.933   5.206   2.374  0.7462  0.5387 -0.1789
 8757SOL     OW34793   0.349   3.302   0.859 -0.7010 -0.5571 -0.1924
 8757SOL    HW234794   0.331   3.375   0.799  0.4344 -0.3901 -0.3620
 8757SOL    HW334795   0.403   3.243   0.807 -0.3105 -0.7608  0.4420
 8757SOL    MW434796   0.354   3.304   0.844 -0.4997 -0.5620 -0.1311
 8758SOL     OW34797   5.544   3.893   1.906  0.6722  0.1949 -0.1460
 8758SOL    HW234798   5.515   3.864   1.819  1.1981 -2.4007  0.4738
 8758SOL    HW334799   5.467   3.882   1.961  0.6972  0.6586 -0.0124
 8758SOL    MW434800   5.530   3.888   1.902  0.7449 -0.0864 -0.0466
 8759SOL     OW34801   4.883   1.856   2.350  0.3076 -0.7008  0.3572
 8759SOL    HW234802   4.883   1.760   2.353 -0.3910 -0.6915  0.7039
 8759SOL    HW334803   4.857   1.876   2.260 -0.0623 -0.8376  0.4305
 8759SOL    MW434804   4.880   1.846   2.338  0.1666 -0.7176  0.4126
 8760SOL     OW34805   1.835   5.461   2.099  0.1299  0.1257 -0.3320
 8760SOL    HW234806   1.764   5.518   2.069  0.2803  0.4056 -0.1616
 8760SOL    HW334807   1.914   5.514   2.090  0.4907 -0.5806 -1.6469
 8760SOL    MW434808   1.836   5.475   2.094  0.1974  0.0695 -0.4830
 8761SOL     OW34809   2.432   3.438   2.989  0.0779  0.9168 -0.1425
 8761SOL    HW234810   2.522   3.406   2.996  0.1340  0.8875 -0.9459
 8761SOL    HW334811   2.422   3.498   3.064 -0.2621 -1.4542  1.8575
 8761SOL    MW434812   2.442   3.442   3.000  0.0405  0.6001  0.0154
 8762SOL     OW34813   0.398   3.952   6.173  0.2461  0.2655 -0.4759
 8762SOL    HW234814   0.356   3.937   6.089 -2.1129 -0.0805  0.6951
 8762SOL    HW334815   0.433   4.040   6.167 -0.4078  0.4692 -1.6098
 8762SOL    MW434816   0.397   3.961   6.161 -0.1514  0.2468 -0.4710
 8763SOL     OW34817   4.207   5.467   4.355  0.0441 -0.0038  0.2656
 8763SOL    HW234818   4.236   5.551   4.320  1.2898 -0.6404 -0.2941
 8763SOL    HW334819   4.181   5.487   4.445  1.7120  0.7508  0.6258
 8763SOL    MW434820   4.207   5.481   4.363  0.4285  0.0117  0.2393
 8764SOL     OW34821   2.270   0.975   1.399 -0.3231  0.0137  0.2495
 8764SOL    HW234822   2.194   0.920   1.381 -0.5021  0.3650 -0.1180
 8764SOL    HW334823   2.320   0.973   1.317 -0.3771  0.4548  0.2011
 8764SOL    MW434824   2.267   0.968   1.386 -0.3538  0.1182  0.1946
 8765SOL     OW34825   0.585   0.958   0.539 -0.4167  0.6299  0.0106
 8765SOL    HW234826   0.601   0.871   0.502  0.7757  0.0932  1.7069
 8765SOL    HW334827   0.670   1.002   0.534 -0.6846  1.2018  0.4264
 8765SOL    MW434828   0.598   0.953   0.533 -0.2947  0.6346  0.2893
 8766SOL     OW34829   2.478   3.117   3.461 -0.9587 -0.4648  0.4883
 8766SOL    HW234830   2.515   3.120   3.373 -0.5666  2.6367  0.6595
 8766SOL    HW334831   2.545   3.075   3.514  0.4503  0.9978 -0.0582
 8766SOL    MW434832   2.492   3.112   3.457 -0.7210  0.1374  0.4388
 8767SOL     OW34833   0.238   0.765   4.255  0.2407 -0.5213 -0.3686
 8767SOL    HW234834   0.211   0.711   4.181 -0.3214  1.6648 -1.8556
 8767SOL    HW334835   0.188   0.847   4.245 -0.0534 -0.2066  2.5731
 8767SOL    MW434836   0.228   0.769   4.244  0.1277 -0.1914 -0.1767
 8768SOL     OW34837   1.364   1.675   0.165 -0.2449  0.0057  0.2064
 8768SOL    HW234838   1.438   1.640   0.214  0.7142  0.7649 -0.6523
 8768SOL    HW334839   1.287   1.654   0.218  0.5000 -1.5125  0.7176
 8768SOL    MW434840   1.363   1.668   0.178 -0.0201 -0.0945  0.1606
 8769SOL     OW34841   0.763   2.841   2.063 -0.1750 -0.2038  0.1294
 8769SOL    HW234842   0.691   2.778   2.056 -0.7178  0.5488 -1.5707
 8769SOL    HW334843   0.794   2.851   1.973  1.0167  0.6885  0.6221
 8769SOL    MW434844   0.758   2.834   2.051 -0.0894  0.0132 -0.0299
 8770SOL     OW34845   2.165   1.801   3.502 -0.2000  0.0096 -0.1683
 8770SOL    HW234846   2.135   1.862   3.435  0.0592  1.3172  0.8672
 8770SOL    HW334847   2.089   1.744   3.518 -1.2814  1.5672  0.4966
 8770SOL    MW434848   2.151   1.801   3.496 -0.3085  0.3876  0.0560
 8771SOL     OW34849   2.802   3.058   2.588  0.2945  0.4070  0.2362
 8771SOL    HW234850   2.843   3.117   2.651  0.0444  0.3206  0.4857
 8771SOL    HW334851   2.708   3.076   2.596  0.3090  0.8378 -0.5716
 8771SOL    MW434852   2.795   3.068   2.598  0.2634  0.4525  0.1626
 8772SOL     OW34853   2.495   4.115   6.254  0.1427  0.2086 -0.3269
 8772SOL    HW234854   2.406   4.148   6.267  0.2906  0.2500  0.6447
 8772SOL    HW334855   2.540   4.132   6.338  0.9220 -0.2538 -0.6381
 8772SOL    MW434856   2.489   4.122   6.267  0.2650  0.1530 -0.2398
 8773SOL     OW34857   3.896   3.612   5.549 -0.2161 -0.0192 -0.3415
 8773SOL    HW234858   3.907   3.568   5.634  0.3307 -0.4438 -0.6318
 8773SOL    HW334859   3.836   3.555   5.501 -1.0506  0.5518 -0.0174
 8773SOL    MW434860   3.889   3.598   5.554 -0.2541  0.0001 -0.3370
 8774SOL     OW34861   3.294   6.026   5.807  0.2682  0.1989 -0.8885
 8774SOL    HW234862   3.352   6.044   5.882 -0.3638  1.1158 -0.5940
 8774SOL    HW334863   3.225   5.971   5.844  1.6350 -2.0607 -1.5487
 8774SOL    MW434864   3.293   6.021   5.822  0.3651  0.0218 -0.9367
 8775SOL     OW34865   1.427   0.927   3.842  0.9193  0.6005 -0.4985
 8775SOL    HW234866   1.413   0.894   3.754  0.9796  1.8992 -1.0155
 8775SOL    HW334867   1.370   0.873   3.897  0.1084  0.4415 -1.4683
 8775SOL    MW434868   1.418   0.915   3.838  0.8203  0.7509 -0.6947
 8776SOL     OW34869   4.022   0.135   2.342  0.4208 -0.7713  0.1956
 8776SOL    HW234870   3.939   0.105   2.379  0.9894 -0.1579  2.0957
 8776SOL    HW334871   4.069   0.055   2.320 -0.7938 -1.1288 -1.2852
 8776SOL    MW434872   4.017   0.121   2.344  0.3356 -0.7376  0.2509
 8777SOL     OW34873   0.583   4.508   3.379 -0.0778  0.1320  1.2009
 8777SOL    HW234874   0.573   4.420   3.344 -0.6890  0.3890  0.7108
 8777SOL    HW334875   0.676   4.527   3.371  0.1910 -0.7698  2.0488
 8777SOL    MW434876   0.594   4.499   3.373 -0.1230  0.0469  1.2481
 8778SOL     OW34877   5.058   0.246   3.284  0.0865  0.3142  0.5572
 8778SOL    HW234878   5.049   0.331   3.239  0.9048  0.5555  0.8272
 8778SOL    HW334879   5.125   0.262   3.350  0.6611 -0.7033  0.2332
 8778SOL    MW434880   5.066   0.260   3.287  0.2703  0.2118  0.5501
 8779SOL     OW34881   5.090   5.136   1.802  0.2510 -0.3253 -0.7719
 8779SOL    HW234882   5.142   5.200   1.850 -0.9018 -1.0763  1.6558
 8779SOL    HW334883   5.155   5.077   1.763  1.2696 -0.4164  0.9686
 8779SOL    MW434884   5.105   5.136   1.803  0.2333 -0.4364 -0.2220
 8780SOL     OW34885   0.692   6.290   5.677 -0.6369 -0.0157 -0.4488
 8780SOL    HW234886   0.663   6.251   5.595 -1.2742 -0.2085 -0.1374
 8780SOL    HW334887   0.632   6.255   5.743  2.6060 -3.7491  0.9663
 8780SOL    MW434888   0.680   6.280   5.675 -0.2931 -0.5337 -0.2210
 8781SOL     OW34889   3.215   4.467   0.672 -0.2149 -0.0899 -0.2926
 8781SOL    HW234890   3.158   4.539   0.645 -1.3121 -0.9398 -0.2656
 8781SOL    HW334891   3.202   4.460   0.767  2.3355  1.7563  0.3071
 8781SOL    MW434892   3.206   4.476   0.681 -0.0232  0.0415 -0.2099
 8782SOL     OW34893   0.085   3.173   0.658 -0.4791  0.7870  0.2756
 8782SOL    HW234894   0.017   3.106   0.647 -0.1495  0.3081  1.0316
 8782SOL    HW334895   0.045   3.238   0.715 -0.6413  1.0036 -0.0842
 8782SOL    MW434896   0.071   3.173   0.665 -0.4570  0.7524  0.3278
 8783SOL     OW34897   0.078   2.466   4.642 -0.0739  0.2793 -0.1603
 8783SOL    HW234898   0.088   2.474   4.547 -0.2983 -2.0374 -0.4349
 8783SOL    HW334899   0.130   2.390   4.666 -2.0936 -0.7968  1.1410
 8783SOL    MW434900   0.086   2.457   4.632 -0.3700 -0.1684 -0.0249
 8784SOL     OW34901   5.891   2.107   5.995 -0.2619  0.2195 -0.4899
 8784SOL    HW234902   5.922   2.144   6.078 -0.0338 -0.4650 -0.2574
 8784SOL    HW334903   5.826   2.042   6.021  0.8777 -1.0573 -0.7355
 8784SOL    MW434904   5.887   2.103   6.010 -0.0814 -0.0393 -0.4916
 8785SOL     OW34905   1.198   4.427   5.221 -0.0063 -0.1152 -0.2437
 8785SOL    HW234906   1.178   4.345   5.268 -0.5873 -1.2930 -2.4086
 8785SOL    HW334907   1.258   4.401   5.152  2.3277  1.9099  0.8769
 8785SOL    MW434908   1.203   4.413   5.218  0.2250 -0.0034 -0.3815
 8786SOL     OW34909   2.859   4.748   4.169  0.3017  0.0207  0.8606
 8786SOL    HW234910   2.904   4.752   4.084 -0.3514  0.7796  0.5338
 8786SOL    HW334911   2.847   4.655   4.186 -0.4092 -0.1301 -0.3494
 8786SOL    MW434912   2.863   4.736   4.160  0.1218  0.1009  0.6578
 8787SOL     OW34913   3.494   6.328   5.835 -0.0738  0.2027  0.4215
 8787SOL    HW234914   3.560   6.259   5.839 -0.9471 -0.7360 -0.5937
 8787SOL    HW334915   3.462   6.335   5.925  0.8235  0.1007  0.7597
 8787SOL    MW434916   3.498   6.320   5.848 -0.0706  0.0654  0.3322
 8788SOL     OW34917   2.479   4.466   1.600 -0.7231 -0.8025 -0.3328
 8788SOL    HW234918   2.517   4.387   1.563 -0.7404 -1.0947  0.2565
 8788SOL    HW334919   2.511   4.469   1.690 -1.6481 -0.7645  0.0126
 8788SOL    MW434920   2.488   4.456   1.607 -0.8474 -0.8361 -0.2095
 8789SOL     OW34921   3.297   4.798   0.193 -0.1267 -0.1693  0.5259
 8789SOL    HW234922   3.287   4.893   0.186 -0.7479 -0.1994  0.8979
 8789SOL    HW334923   3.345   4.773   0.114  0.1664  0.4709  0.4987
 8789SOL    MW434924   3.302   4.807   0.182 -0.1700 -0.0888  0.5714
 8790SOL     OW34925   2.873   0.204   2.100  0.6124  0.0871  0.1709
 8790SOL    HW234926   2.860   0.152   2.021  0.5857  0.2028  0.0983
 8790SOL    HW334927   2.925   0.279   2.072  0.5786  0.1438  0.2570
 8790SOL    MW434928   2.878   0.207   2.086  0.6044  0.1099  0.1727
 8791SOL     OW34929   4.062   6.006   4.431  0.3867 -0.1678 -0.0624
 8791SOL    HW234930   4.043   5.964   4.347 -0.9506  0.0450  0.1147
 8791SOL    HW334931   4.025   6.094   4.424  0.5858 -0.0170  0.6285
 8791SOL    MW434932   4.055   6.012   4.419  0.2365 -0.1199  0.0521
 8792SOL     OW34933   6.283   4.199   0.502  0.4189 -0.6990 -0.0799
 8792SOL    HW234934   6.350   4.263   0.478 -0.8514  0.5137 -0.5290
 8792SOL    HW334935   6.280   4.138   0.428  1.2667 -0.9902  0.1129
 8792SOL    MW434936   6.291   4.199   0.489  0.3632 -0.5774 -0.1137
 8793SOL     OW34937   4.421   5.553   0.302  0.6218  0.2768  0.0982
 8793SOL    HW234938   4.472   5.622   0.345  0.9202  0.0453  0.1256
 8793SOL    HW334939   4.412   5.485   0.369 -0.3482  0.6172  0.3225
 8793SOL    MW434940   4.427   5.553   0.316  0.5332  0.2911  0.1314
 8794SOL     OW34941   0.059   1.252   2.154  0.0725 -0.0248 -0.4478
 8794SOL    HW234942   0.131   1.306   2.186 -0.1424  0.2679 -0.4579
 8794SOL    HW334943   0.102   1.177   2.111  0.3688  0.1782 -0.5057
 8794SOL    MW434944   0.074   1.249   2.152  0.0832  0.0406 -0.4567
 8795SOL     OW34945   1.143   1.694   5.683 -0.3967  0.0950  0.3200
 8795SOL    HW234946   1.162   1.615   5.733 -2.2443 -1.6760 -1.5467
 8795SOL    HW334947   1.226   1.741   5.679  1.3404 -2.7744 -0.1737
 8795SOL    MW434948   1.156   1.690   5.689 -0.4113 -0.5173  0.0086
 8796SOL     OW34949   0.299   1.963   5.608  0.2145 -0.0641 -0.0843
 8796SOL    HW234950   0.382   1.917   5.600 -0.1592 -0.3894 -3.1055
 8796SOL    HW334951   0.313   2.026   5.679  2.6347 -0.8631  0.2272
 8796SOL    MW434952   0.312   1.965   5.616  0.4845 -0.2124 -0.4418
 8797SOL     OW34953   1.125   5.536   3.237 -0.5905  0.4045 -0.5114
 8797SOL    HW234954   1.217   5.541   3.211 -0.0755 -0.8244  1.0045
 8797SOL    HW334955   1.099   5.446   3.218 -1.8566  1.0320 -2.0073
 8797SOL    MW434956   1.133   5.525   3.231 -0.6896  0.3251 -0.5087
 8798SOL     OW34957   3.416   2.655   4.741 -0.1218  0.6235  0.6821
 8798SOL    HW234958   3.385   2.744   4.754 -0.9689  0.6560 -1.2529
 8798SOL    HW334959   3.337   2.606   4.717  0.8803  0.2320 -2.1438
 8798SOL    MW434960   3.401   2.660   4.739 -0.1014  0.5761  0.0539
 8799SOL     OW34961   4.512   2.986   4.427 -0.2092  0.1781  0.2541
 8799SOL    HW234962   4.537   2.893   4.425 -0.9216 -0.0179  0.2383
 8799SOL    HW334963   4.425   2.987   4.467 -0.8402  0.6832 -1.0673
 8799SOL    MW434964   4.504   2.974   4.432 -0.3865  0.2189  0.0777
 8800SOL     OW34965   0.994   5.733   5.887 -0.2603 -0.2388 -0.1118
 8800SOL    HW234966   0.985   5.651   5.837  1.0021 -0.4941  0.0386
 8800SOL    HW334967   1.086   5.733   5.915 -1.0920 -0.5167  2.9244
 8800SOL    MW434968   1.005   5.722   5.884 -0.2035 -0.3092  0.3087
 8801SOL     OW34969   4.349   1.683   0.357 -0.2198 -0.1010  0.1710
 8801SOL    HW234970   4.370   1.618   0.290  1.1172  1.9203 -1.5014
 8801SOL    HW334971   4.396   1.761   0.329 -0.5192  1.1514  2.9311
 8801SOL    MW434972   4.358   1.685   0.344 -0.0829  0.3309  0.3145
 8802SOL     OW34973   4.861   2.921   4.375  0.0829  0.1516 -0.1618
 8802SOL    HW234974   4.809   2.956   4.303  0.4298 -0.5087 -0.7413
 8802SOL    HW334975   4.922   2.991   4.397 -0.8715  0.8461  0.3638
 8802SOL    MW434976   4.862   2.935   4.369  0.0027  0.1561 -0.1689
 8803SOL     OW34977   4.542   3.471   2.329  0.3476 -0.3020 -0.0517
 8803SOL    HW234978   4.461   3.430   2.359  1.9429 -2.3004  1.8043
 8803SOL    HW334979   4.557   3.433   2.242  0.2016 -1.2805  0.3419
 8803SOL    MW434980   4.533   3.460   2.321  0.5388 -0.6948  0.2451
 8804SOL     OW34981   0.841   5.836   5.332 -0.0150 -0.0895 -0.4164
 8804SOL    HW234982   0.758   5.839   5.381  0.1331 -0.7327 -0.1199
 8804SOL    HW334983   0.868   5.744   5.336  0.7314  0.1206 -0.4826
 8804SOL    MW434984   0.833   5.824   5.339  0.1030 -0.1467 -0.3860
 8805SOL     OW34985   2.107   4.570   6.306  0.0733  0.3404 -0.5277
 8805SOL    HW234986   2.142   4.614   6.384  0.6004 -0.4455 -0.3098
 8805SOL    HW334987   2.076   4.486   6.339  0.9784 -0.3045 -1.2794
 8805SOL    MW434988   2.108   4.565   6.321  0.2623  0.1516 -0.5981
 8806SOL     OW34989   0.783   2.007   5.843 -0.1612 -0.0551 -0.1311
 8806SOL    HW234990   0.739   2.027   5.761  0.0630 -0.2175 -0.2922
 8806SOL    HW334991   0.851   1.944   5.819 -1.2038 -1.4680  0.4448
 8806SOL    MW434992   0.786   2.001   5.829 -0.2692 -0.2629 -0.0764
 8807SOL     OW34993   4.880   6.360   4.071 -0.0300 -0.0724  0.1845
 8807SOL    HW234994   4.888   6.265   4.065 -2.1504 -0.2554 -0.4075
 8807SOL    HW334995   4.878   6.378   4.165  2.1356 -0.3816  0.3465
 8807SOL    MW434996   4.881   6.350   4.083 -0.0241 -0.1373  0.1278
 8808SOL     OW34997   1.027   1.353   2.822  0.7928 -0.5289  0.4286
 8808SOL    HW234998   1.100   1.406   2.789 -0.1049 -0.3107 -1.3352
 8808SOL    HW334999   0.977   1.412   2.877  1.7446 -0.5860  1.3809
 8808SOL    MW435000   1.030   1.368   2.825  0.7999 -0.5076  0.3215
 8809SOL     OW35001   3.848   4.839   1.384  0.0919  0.1825  0.0867
 8809SOL    HW235002   3.835   4.745   1.397  3.2803 -0.4498 -0.4565
 8809SOL    HW335003   3.836   4.877   1.471 -2.3194 -0.4714  0.1271
 8809SOL    MW435004   3.844   4.832   1.397  0.1944  0.0128  0.0204
 8810SOL     OW35005   0.797   4.001   5.499 -0.4043  0.5393  0.2063
 8810SOL    HW235006   0.864   4.063   5.528 -1.2110  1.7254 -0.3937
 8810SOL    HW335007   0.736   4.053   5.447 -1.0943 -0.7734 -0.3605
 8810SOL    MW435008   0.798   4.016   5.496 -0.6018  0.5226  0.0524
 8811SOL     OW35009   5.750   0.221   2.438 -0.7560  0.0063 -0.6737
 8811SOL    HW235010   5.771   0.274   2.360  2.0156 -1.0804 -0.7697
 8811SOL    HW335011   5.720   0.285   2.502 -0.1212  1.3704 -1.6667
 8811SOL    MW435012   5.749   0.237   2.436 -0.3066  0.0429 -0.8174
 8812SOL     OW35013   1.939   1.257   5.431 -0.1481  0.2044  0.0258
 8812SOL    HW235014   2.019   1.218   5.467 -0.1017  0.3833  0.1216
 8812SOL    HW335015   1.878   1.184   5.421  0.6367 -0.2402 -1.7563
 8812SOL    MW435016   1.941   1.243   5.435 -0.0384  0.1693 -0.1967
 8813SOL     OW35017   0.855   2.166   0.842  0.0142  0.5421 -0.3899
 8813SOL    HW235018   0.802   2.243   0.863 -1.1134 -0.4320  0.4881
 8813SOL    HW335019   0.802   2.092   0.871  0.7402 -0.6220 -1.8967
 8813SOL    MW435020   0.841   2.166   0.849 -0.0388  0.2600 -0.4729
 8814SOL     OW35021   3.201   2.878   3.970  0.3800  0.2977  0.4669
 8814SOL    HW235022   3.131   2.912   3.915 -0.5443 -0.4350  1.1408
 8814SOL    HW335023   3.276   2.935   3.953 -0.1388  0.6269 -0.8577
 8814SOL    MW435024   3.202   2.890   3.960  0.1896  0.2445  0.3810
 8815SOL     OW35025   2.044   1.016   6.273  0.2068 -0.3508 -0.5199
 8815SOL    HW235026   1.991   0.938   6.257 -0.9558  0.5319 -1.0943
 8815SOL    HW335027   1.996   1.088   6.231  1.9449  0.4696 -1.2369
 8815SOL    MW435028   2.031   1.015   6.265  0.2827 -0.1261 -0.6903
 8816SOL     OW35029   5.090   5.595   4.211  0.3046 -0.1462 -0.1148
 8816SOL    HW235030   5.161   5.658   4.199 -0.1489  0.8822  2.1064
 8816SOL    HW335031   5.018   5.646   4.248 -1.0838 -1.4686 -0.8520
 8816SOL    MW435032   5.090   5.610   4.214  0.0616 -0.1850  0.0810
 8817SOL     OW35033   6.100   0.933   0.616 -0.0540 -0.1280  0.2215
 8817SOL    HW235034   6.056   0.907   0.697 -0.2916 -1.4202 -0.3133
 8817SOL    HW335035   6.047   0.896   0.546  1.2619 -0.7563 -0.4659
 8817SOL    MW435036   6.087   0.925   0.618  0.0882 -0.3814  0.0602
 8818SOL     OW35037   3.398   5.895   4.596 -0.1191 -0.2524  0.7597
 8818SOL    HW235038   3.326   5.833   4.590 -0.2768 -0.0426  0.4453
 8818SOL    HW335039   3.401   5.920   4.688  0.0652 -0.8662  0.9240
 8818SOL    MW435040   3.389   5.890   4.607 -0.1156 -0.3057  0.7399
 8819SOL     OW35041   1.066   2.354   4.075 -0.8819 -0.5628  0.6493
 8819SOL    HW235042   1.109   2.276   4.110 -0.0993  0.0651  1.1137
 8819SOL    HW335043   1.018   2.322   3.998  0.0759 -1.3601  0.3606
 8819SOL    MW435044   1.065   2.339   4.069 -0.6523 -0.5852  0.6725
 8820SOL     OW35045   4.210   1.874   6.168  0.3521 -0.9582  0.1780
 8820SOL    HW235046   4.287   1.822   6.190  0.8064 -0.1247  0.5871
 8820SOL    HW335047   4.145   1.849   6.234  1.2085  0.3929  1.6118
 8820SOL    MW435048   4.211   1.864   6.180  0.5250 -0.6700  0.4211
 8821SOL     OW35049   5.349   5.175   4.212  0.7197  0.1224  0.0234
 8821SOL    HW235050   5.311   5.094   4.180  1.5112 -0.0811 -0.4276
 8821SOL    HW335051   5.440   5.173   4.182  1.3659  0.1644  1.8113
 8821SOL    MW435052   5.356   5.164   4.204  0.9094  0.1011  0.1998
 8822SOL     OW35053   3.410   4.021   2.209  0.3495 -0.7626 -0.0607
 8822SOL    HW235054   3.325   4.035   2.167  1.0958  1.6490 -0.9177
 8822SOL    HW335055   3.388   3.986   2.295 -1.4063 -1.8167 -0.8668
 8822SOL    MW435056   3.396   4.018   2.215  0.2163 -0.5835 -0.2801
 8823SOL     OW35057   1.836   1.375   0.026 -0.0288  0.3558  0.4276
 8823SOL    HW235058   1.879   1.290   0.038  0.0651  0.5432  1.5334
 8823SOL    HW335059   1.907   1.439   0.027 -0.2421  0.6016  1.5400
 8823SOL    MW435060   1.851   1.372   0.028 -0.0446  0.4129  0.7202
 8824SOL     OW35061   3.705   5.047   5.250  0.1526  0.3737 -0.0342
 8824SOL    HW235062   3.747   5.090   5.176  4.3286 -2.1453  0.5342
 8824SOL    HW335063   3.684   4.959   5.218  0.7079 -0.2754  1.2973
 8824SOL    MW435064   3.708   5.041   5.236  0.7768 -0.0443  0.2164
 8825SOL     OW35065   5.220   0.358   5.502  0.8534  0.3629  0.1365
 8825SOL    HW235066   5.129   0.383   5.490  0.8700  0.3029 -0.1470
 8825SOL    HW335067   5.218   0.290   5.569  0.6392  0.0699 -0.1604
 8825SOL    MW435068   5.208   0.352   5.509  0.8274  0.3163  0.0600
 8826SOL     OW35069   3.660   1.935   6.222  0.6905 -0.4123 -0.0979
 8826SOL    HW235070   3.646   1.989   6.144 -0.0746 -0.7513 -0.2021
 8826SOL    HW335071   3.662   1.845   6.188  1.0541 -0.5153  0.1898
 8826SOL    MW435072   3.659   1.930   6.207  0.6375 -0.4706 -0.0737
 8827SOL     OW35073   4.051   6.155   5.803  0.1967 -0.4340  0.8344
 8827SOL    HW235074   3.989   6.132   5.734 -0.5592 -0.4404  1.5024
 8827SOL    HW335075   4.132   6.178   5.756 -0.9842  1.9353 -0.2448
 8827SOL    MW435076   4.054   6.155   5.787 -0.0589 -0.1222  0.7801
 8828SOL     OW35077   0.652   1.669   0.419 -0.0189 -0.3555  0.5387
 8828SOL    HW235078   0.579   1.723   0.387 -0.2275 -0.9174  0.0492
 8828SOL    HW335079   0.713   1.732   0.457 -0.6307  0.1523  0.7039
 8828SOL    MW435080   0.650   1.684   0.419 -0.1272 -0.3627  0.4959
 8829SOL     OW35081   5.832   0.218   0.428 -0.4696 -0.2473 -0.4626
 8829SOL    HW235082   5.854   0.299   0.474 -1.0434 -1.1568  1.5517
 8829SOL    HW335083   5.799   0.160   0.497 -3.3937 -1.0225 -2.3475
 8829SOL    MW435084   5.831   0.221   0.443 -0.9311 -0.4696 -0.4455
 8830SOL     OW35085   4.762   0.528   4.973 -0.6129  0.1993  0.0116
 8830SOL    HW235086   4.816   0.598   5.011 -0.3109  0.4912 -0.9321
 8830SOL    HW335087   4.710   0.496   5.046  1.7246 -0.9675  1.2806
 8830SOL    MW435088   4.762   0.533   4.988 -0.2647  0.0839  0.0545
 8831SOL     OW35089   4.757   2.326   2.860 -0.1207 -0.4242  0.4978
 8831SOL    HW235090   4.687   2.308   2.922 -0.6144 -1.0742 -0.2286
 8831SOL    HW335091   4.719   2.387   2.797 -0.5991 -1.9926 -0.8175
 8831SOL    MW435092   4.743   2.332   2.860 -0.2490 -0.7169  0.2284
 8832SOL     OW35093   2.922   0.526   2.926  0.1742  0.2270 -0.5426
 8832SOL    HW235094   2.935   0.612   2.886 -1.4340 -0.9262 -3.8773
 8832SOL    HW335095   2.828   0.518   2.937  0.1678 -1.5720 -1.5438
 8832SOL    MW435096   2.912   0.537   2.923 -0.0388 -0.1625 -1.1146
 8833SOL     OW35097   5.814   5.563   4.879  0.0301 -0.7416 -0.0922
 8833SOL    HW235098   5.826   5.654   4.906 -0.2087 -0.3612 -1.2087
 8833SOL    HW335099   5.897   5.520   4.901  0.4375 -0.0635 -0.2784
 8833SOL    MW435100   5.827   5.569   4.885  0.0523 -0.6019 -0.2641
 8834SOL     OW35101   0.629   3.249   4.773 -0.2438  0.4556  0.0974
 8834SOL    HW235102   0.658   3.234   4.682  0.5533  1.2560  0.2007
 8834SOL    HW335103   0.699   3.212   4.826 -0.3842  0.5956  0.3790
 8834SOL    MW435104   0.642   3.242   4.768 -0.1572  0.5797  0.1482
 8835SOL     OW35105   2.074   0.592   1.464 -0.6116  0.5634  0.2684
 8835SOL    HW235106   2.170   0.587   1.465 -0.6790 -1.5733  0.6189
 8835SOL    HW335107   2.049   0.554   1.380 -1.1879 -0.8118  1.0307
 8835SOL    MW435108   2.083   0.587   1.453 -0.6966  0.1001  0.4152
 8836SOL     OW35109   0.070   5.044   5.295 -0.1728  0.0210  0.4525
 8836SOL    HW235110   0.046   5.075   5.382  4.3178 -0.1096  1.9811
 8836SOL    HW335111   0.165   5.043   5.295  0.0490 -1.5139 -3.9972
 8836SOL    MW435112   0.079   5.048   5.307  0.4489 -0.1987  0.0671
 8837SOL     OW35113   1.115   2.792   5.888  0.0550  0.9186  0.2724
 8837SOL    HW235114   1.191   2.825   5.839 -0.4412  2.2567  0.3780
 8837SOL    HW335115   1.132   2.817   5.979  0.9895 -1.5913  0.8595
 8837SOL    MW435116   1.128   2.800   5.893  0.1128  0.7640  0.3638
 8838SOL     OW35117   4.334   1.141   2.312  0.6488  0.0409 -0.4144
 8838SOL    HW235118   4.375   1.097   2.386 -0.5122 -0.6632 -0.1709
 8838SOL    HW335119   4.272   1.077   2.276 -0.5742  1.2082 -0.4823
 8838SOL    MW435120   4.331   1.127   2.317  0.3343  0.1020 -0.3913
 8839SOL     OW35121   6.109   4.471   6.202  0.1358  0.6491 -0.1670
 8839SOL    HW235122   6.087   4.459   6.110  0.5324 -1.8239  0.0018
 8839SOL    HW335123   6.032   4.512   6.240 -0.2948  1.0868 -1.4660
 8839SOL    MW435124   6.096   4.475   6.195  0.1313  0.3806 -0.3161
 8840SOL     OW35125   5.867   0.019   6.376 -0.0885  0.5553  0.5949
 8840SOL    HW235126   5.783   0.009   6.331  0.5644  0.8819 -0.7486
 8840SOL    HW335127   5.854  -0.023   6.461 -1.3080 -0.2956  0.0173
 8840SOL    MW435128   5.854   0.012   6.381 -0.1633  0.4861  0.3414
 8841SOL     OW35129   4.112   0.455   1.019  0.3034  0.4723 -0.3265
 8841SOL    HW235130   4.042   0.438   1.083 -0.2357 -0.4375 -1.1400
 8841SOL    HW335131   4.080   0.529   0.968  0.2875  0.5535 -0.2006
 8841SOL    MW435132   4.098   0.462   1.021  0.2302  0.3630 -0.4173
 8842SOL     OW35133   1.371   4.472   3.299  0.1207 -0.2436  0.3618
 8842SOL    HW235134   1.458   4.447   3.265 -0.1269  0.2675 -0.7004
 8842SOL    HW335135   1.381   4.563   3.326 -0.1122 -0.1491  0.1305
 8842SOL    MW435136   1.384   4.481   3.298  0.0573 -0.1637  0.1911
 8843SOL     OW35137   3.554   3.499   4.964  0.5262  0.2625 -1.0227
 8843SOL    HW235138   3.522   3.481   4.876  1.4498  0.5719 -1.4378
 8843SOL    HW335139   3.611   3.575   4.954  1.2736 -0.1846 -0.3049
 8843SOL    MW435140   3.557   3.507   4.951  0.7467  0.2443 -0.9828
 8844SOL     OW35141   3.062   2.087   5.649  0.2125  0.2690 -0.2743
 8844SOL    HW235142   3.068   2.157   5.715  0.5203  0.0380 -0.0534
 8844SOL    HW335143   3.144   2.093   5.601 -0.0075  0.4300 -0.6346
 8844SOL    MW435144   3.074   2.097   5.652  0.2241  0.2598 -0.2927
 8845SOL     OW35145   2.506   0.270   5.242  0.2100 -0.0419 -0.0812
 8845SOL    HW235146   2.555   0.319   5.176 -1.1507  0.8163 -0.4970
 8845SOL    HW335147   2.548   0.292   5.325  0.0787  1.2860 -0.3460
 8845SOL    MW435148   2.518   0.279   5.244  0.0132  0.2466 -0.1710
 8846SOL     OW35149   3.482   4.238   3.251  0.1607 -0.4362 -0.1424
 8846SOL    HW235150   3.520   4.316   3.291 -0.9657 -0.3271  0.7675
 8846SOL    HW335151   3.478   4.259   3.157  1.0387  0.0819 -0.0753
 8846SOL    MW435152   3.487   4.251   3.244  0.1279 -0.3534 -0.0135
 8847SOL     OW35153   2.244   3.034   0.990 -1.1006  0.0777  0.2024
 8847SOL    HW235154   2.154   3.040   0.957 -1.1225  0.0742  0.2612
 8847SOL    HW335155   2.261   3.119   1.030 -2.0799 -0.8127  2.7282
 8847SOL    MW435156   2.234   3.046   0.991 -1.2327 -0.0402  0.5434
 8848SOL     OW35157   2.142   1.238   0.955  0.8134  0.3010 -0.1943
 8848SOL    HW235158   2.113   1.251   1.045  0.7303 -1.3732  0.0573
 8848SOL    HW335159   2.228   1.197   0.963  1.1217  0.7906 -0.8963
 8848SOL    MW435160   2.149   1.234   0.968  0.8431  0.1447 -0.2537
 8849SOL     OW35161   1.949   1.625   3.585 -0.1947 -0.0531 -0.3014
 8849SOL    HW235162   1.866   1.667   3.608 -0.8817 -1.4874 -0.0953
 8849SOL    HW335163   1.995   1.617   3.668 -0.8368 -1.3125 -0.0470
 8849SOL    MW435164   1.944   1.629   3.599 -0.3700 -0.4085 -0.2406
 8850SOL     OW35165   3.801   4.117   2.775  0.3711  0.0797 -0.1000
 8850SOL    HW235166   3.785   4.211   2.786  1.2062  0.2704 -0.3535
 8850SOL    HW335167   3.858   4.094   2.849 -0.0838 -0.3031  0.1362
 8850SOL    MW435168   3.807   4.126   2.786  0.4212  0.0544 -0.1023
 8851SOL     OW35169   0.747   1.402   1.930  0.4853 -0.0885 -0.0206
 8851SOL    HW235170   0.686   1.382   1.858 -0.4182  0.2988  0.6117
 8851SOL    HW335171   0.747   1.323   1.983 -1.5514  0.7580  1.4003
 8851SOL    MW435172   0.739   1.389   1.928  0.0974  0.0743  0.2503
 8852SOL     OW35173   2.790   1.215   1.919 -0.5300 -0.6477 -0.2748
 8852SOL    HW235174   2.760   1.133   1.880 -0.0084 -0.4592 -1.0972
 8852SOL    HW335175   2.715   1.247   1.968 -0.8372 -1.4596 -0.2010
 8852SOL    MW435176   2.776   1.209   1.920 -0.5017 -0.7300 -0.3736
 8853SOL     OW35177   3.391   4.617   2.122  0.1936  0.4304 -0.0604
 8853SOL    HW235178   3.455   4.679   2.158  1.3965  0.4027 -2.0237
 8853SOL    HW335179   3.365   4.656   2.038 -1.1801 -0.3489 -0.0135
 8853SOL    MW435180   3.396   4.630   2.116  0.1711  0.3239 -0.3132
 8854SOL     OW35181   1.474   4.814   0.157  0.2310  0.1834 -0.0454
 8854SOL    HW235182   1.402   4.801   0.219 -1.1805  0.2757 -1.5730
 8854SOL    HW335183   1.505   4.726   0.136 -1.8265 -0.1707 -1.9782
 8854SOL    MW435184   1.468   4.801   0.162 -0.2267  0.1489 -0.5020
 8855SOL     OW35185   1.370   3.259   5.600 -0.1176 -0.2353 -0.0344
 8855SOL    HW235186   1.295   3.230   5.652  0.6183  0.0677  1.2384
 8855SOL    HW335187   1.335   3.328   5.543 -1.0451 -0.9188 -0.3135
 8855SOL    MW435188   1.355   3.264   5.599 -0.1428 -0.2855  0.0967
 8856SOL     OW35189   0.547   1.127   2.209 -0.3230  0.1869 -0.5986
 8856SOL    HW235190   0.520   1.057   2.268 -3.4713  1.2799 -0.5611
 8856SOL    HW335191   0.642   1.134   2.223 -0.0125 -3.3627  0.0473
 8856SOL    MW435192   0.556   1.119   2.219 -0.6974 -0.1372 -0.5084
 8857SOL     OW35193   3.111   5.466   5.392  0.1900 -0.5639  0.1923
 8857SOL    HW235194   3.029   5.420   5.371  0.2188 -1.5901  2.0948
 8857SOL    HW335195   3.150   5.413   5.461  1.1915  1.3236  1.1348
 8857SOL    MW435196   3.105   5.453   5.399  0.3259 -0.4503  0.5677
 8858SOL     OW35197   0.053   5.915   0.428  0.4469 -0.0439 -0.1236
 8858SOL    HW235198   0.073   5.869   0.509  2.4359 -0.7559 -0.9658
 8858SOL    HW335199   0.044   6.007   0.454 -0.9206 -0.5067  1.1685
 8858SOL    MW435200   0.054   5.921   0.442  0.5289 -0.1989 -0.0642
 8859SOL     OW35201   1.945   3.711   0.268 -0.2671 -0.4819  0.1473
 8859SOL    HW235202   1.933   3.794   0.314  0.3761 -0.3649  0.1037
 8859SOL    HW335203   1.880   3.652   0.308  0.7110 -0.5832  1.6723
 8859SOL    MW435204   1.935   3.714   0.279 -0.0532 -0.4798  0.3427
 8860SOL     OW35205   4.687   5.489   0.294 -0.0186 -0.2812 -0.5881
 8860SOL    HW235206   4.593   5.481   0.305  0.0908 -0.3676  0.3250
 8860SOL    HW335207   4.720   5.399   0.298  0.0276 -0.3500 -1.8289
 8860SOL    MW435208   4.679   5.476   0.296  0.0019 -0.3017 -0.6314
 8861SOL     OW35209   1.664   4.046   3.113 -0.2779  0.7127 -0.0376
 8861SOL    HW235210   1.709   4.045   3.198  0.1710  1.7571 -0.2415
 8861SOL    HW335211   1.572   4.030   3.135  0.1562 -1.4651  0.3841
 8861SOL    MW435212   1.658   4.044   3.127 -0.1614  0.5632 -0.0089
 8862SOL     OW35213   4.512   2.329   3.099 -0.0104 -0.4179  0.1286
 8862SOL    HW235214   4.468   2.413   3.106 -1.4172 -1.1877  0.9505
 8862SOL    HW335215   4.441   2.264   3.099  1.0850 -1.6717  0.7743
 8862SOL    MW435216   4.497   2.331   3.100 -0.0515 -0.6849  0.3223
 8863SOL     OW35217   0.025   5.659   0.902  0.1243  0.2512  0.0612
 8863SOL    HW235218  -0.013   5.593   0.843  0.6786 -0.5977  0.6250
 8863SOL    HW335219   0.028   5.615   0.987  1.0330  0.8086  0.3271
 8863SOL    MW435220   0.020   5.644   0.906  0.3174  0.2128  0.1707
 8864SOL     OW35221   3.367   2.443   0.080  0.0396 -0.2392 -0.4547
 8864SOL    HW235222   3.454   2.478   0.060 -0.5637  1.2029 -0.6882
 8864SOL    HW335223   3.379   2.395   0.161  1.0164  0.1447 -0.3490
 8864SOL    MW435224   3.380   2.442   0.088  0.0889  0.0018 -0.4716
 8865SOL     OW35225   2.634   1.058   3.431  0.2030 -0.6611 -0.1476
 8865SOL    HW235226   2.627   0.996   3.504  0.0808  1.9653  2.2778
 8865SOL    HW335227   2.706   1.116   3.455 -1.1273  1.5262 -1.0434
 8865SOL    MW435228   2.642   1.057   3.444  0.0114 -0.0260  0.0542
 8866SOL     OW35229   1.904   0.664   0.076 -0.0770 -0.2240  0.3155
 8866SOL    HW235230   1.834   0.606   0.105 -1.3136  0.7911 -0.5282
 8866SOL    HW335231   1.984   0.621   0.106 -0.8859 -2.5517 -0.6033
 8866SOL    MW435232   1.905   0.651   0.084 -0.3469 -0.3972  0.0830
 8867SOL     OW35233   1.752   5.879   3.803 -0.2232  0.9245  0.8569
 8867SOL    HW235234   1.805   5.814   3.757 -1.4444 -0.9092  1.9244
 8867SOL    HW335235   1.807   5.906   3.877 -0.3653 -0.2611  1.4238
 8867SOL    MW435236   1.766   5.874   3.806 -0.4030  0.5261  1.0726
 8868SOL     OW35237   1.056   4.114   4.040  0.1073  0.1747  0.3167
 8868SOL    HW235238   1.000   4.190   4.052  0.4047  0.1813  1.8608
 8868SOL    HW335239   0.996   4.040   4.035 -0.3104  0.5934 -2.9234
 8868SOL    MW435240   1.041   4.114   4.041  0.0914  0.2308  0.0929
 8869SOL     OW35241   5.082   5.911   2.835 -0.3933  0.2367 -0.2536
 8869SOL    HW235242   5.080   5.933   2.928  1.2035  3.2120 -0.7876
 8869SOL    HW335243   5.175   5.914   2.812 -0.6582 -1.4255 -1.7895
 8869SOL    MW435244   5.094   5.914   2.844 -0.2176  0.4100 -0.5267
 8870SOL     OW35245   3.209   5.037   4.149  0.0178  0.1798  0.2089
 8870SOL    HW235246   3.183   5.043   4.057 -1.6147 -0.7105  0.5885
 8870SOL    HW335247   3.230   4.945   4.162 -1.8964 -0.1575  1.2464
 8870SOL    MW435248   3.209   5.026   4.138 -0.4501  0.0178  0.3959
 8871SOL     OW35249   2.896   1.861   5.672 -0.4879 -0.3377 -0.0779
 8871SOL    HW235250   2.946   1.940   5.653 -0.2623 -0.4167  0.1767
 8871SOL    HW335251   2.885   1.818   5.587  1.0495 -1.0140  0.0359
 8871SOL    MW435252   2.901   1.866   5.658 -0.2553 -0.4374 -0.0293
 8872SOL     OW35253   5.764   5.352   4.631  0.0543 -0.0893  0.1290
 8872SOL    HW235254   5.763   5.261   4.660  1.6317 -0.3949 -0.6658
 8872SOL    HW335255   5.689   5.359   4.572 -0.4834 -0.6862  0.7341
 8872SOL    MW435256   5.754   5.341   4.627  0.1915 -0.2084  0.1040
 8873SOL     OW35257   1.013   3.331   5.414 -0.0752 -0.0496  0.0370
 8873SOL    HW235258   1.061   3.380   5.481  0.3099 -0.1172 -0.1854
 8873SOL    HW335259   0.933   3.302   5.458  1.6806 -3.0701  1.5797
 8873SOL    MW435260   1.008   3.334   5.429  0.2073 -0.4570  0.2112
 8874SOL     OW35261   5.716   5.942   4.592 -0.2827  0.4617  0.0025
 8874SOL    HW235262   5.649   5.979   4.536 -1.0315  0.4316  0.8583
 8874SOL    HW335263   5.753   6.017   4.638  0.4109  0.5005 -0.5951
 8874SOL    MW435264   5.712   5.957   4.591 -0.2900  0.4628  0.0366
 8875SOL     OW35265   1.420   0.179   3.008 -0.0405  0.3579 -0.0016
 8875SOL    HW235266   1.503   0.155   2.966 -0.5392 -0.2520 -0.6561
 8875SOL    HW335267   1.376   0.095   3.024 -1.0771  0.7228 -0.8021
 8875SOL    MW435268   1.425   0.165   3.004 -0.2430  0.3255 -0.1935
 8876SOL     OW35269   0.218   6.207   1.974  0.1378 -0.2725 -0.1927
 8876SOL    HW235270   0.210   6.117   2.003 -0.3648  0.3492  1.7181
 8876SOL    HW335271   0.129   6.242   1.980  0.1851  0.1821 -1.6075
 8876SOL    MW435272   0.205   6.200   1.978  0.0777 -0.1305 -0.1272
 8877SOL     OW35273   2.283   6.039   1.674  0.3059 -0.5967 -0.0016
 8877SOL    HW235274   2.370   6.002   1.690  0.6521  1.0354  2.4804
 8877SOL    HW335275   2.283   6.060   1.581  2.2793 -1.3122 -0.2284
 8877SOL    MW435276   2.295   6.037   1.664  0.6120 -0.4758  0.2959
 8878SOL     OW35277   3.006   2.151   1.812 -0.2825 -0.3085  0.3160
 8878SOL    HW235278   2.983   2.220   1.874  0.3510  0.6078 -0.4489
 8878SOL    HW335279   2.982   2.186   1.726  0.5229 -0.8236 -0.1377
 8878SOL    MW435280   3.000   2.165   1.809 -0.0926 -0.2556  0.1552
 8879SOL     OW35281   4.357   5.314   6.065  0.6450  0.2427 -0.4283
 8879SOL    HW235282   4.303   5.331   5.987 -0.2140 -2.1397 -0.4525
 8879SOL    HW335283   4.412   5.239   6.040 -1.2026 -2.0605  1.8425
 8879SOL    MW435284   4.357   5.306   6.051  0.2879 -0.3755 -0.1319
 8880SOL     OW35285   4.632   2.068   1.756 -0.4078 -0.1862 -0.1586
 8880SOL    HW235286   4.694   2.128   1.714  2.2859 -2.0514  0.9292
 8880SOL    HW335287   4.632   2.094   1.848  0.9098 -1.8549  0.3565
 8880SOL    MW435288   4.640   2.080   1.762  0.1215 -0.6525  0.0529
 8881SOL     OW35289   1.075   5.755   0.135 -0.6064  0.2921 -0.5937
 8881SOL    HW235290   0.982   5.778   0.142 -0.9357 -0.7694 -1.3239
 8881SOL    HW335291   1.104   5.744   0.226 -0.6710  2.5364 -0.2406
 8881SOL    MW435292   1.066   5.757   0.148 -0.6584  0.4481 -0.6435
 8882SOL     OW35293   0.344   0.956   1.301  0.0948 -0.0863 -0.3248
 8882SOL    HW235294   0.264   0.913   1.268  0.0242  0.5319 -0.9822
 8882SOL    HW335295   0.347   1.040   1.255  0.4267  0.4698  0.6844
 8882SOL    MW435296   0.334   0.961   1.290  0.1293  0.0686 -0.2784
 8883SOL     OW35297   2.308   4.713   3.061 -0.3075 -1.0191 -0.3955
 8883SOL    HW235298   2.233   4.656   3.076  0.1778 -1.1625  1.9115
 8883SOL    HW335299   2.351   4.719   3.147 -0.0268  2.3740 -0.6351
 8883SOL    MW435300   2.304   4.706   3.074 -0.2064 -0.5903 -0.1228
 8884SOL     OW35301   5.911   0.774   2.761 -0.3499  0.2135 -0.4543
 8884SOL    HW235302   5.869   0.702   2.808 -1.0586  0.4416 -0.7250
 8884SOL    HW335303   5.842   0.841   2.753  0.4038  1.0831  0.1332
 8884SOL    MW435304   5.896   0.773   2.766 -0.3440  0.3583 -0.4125
 8885SOL     OW35305   5.086   5.529   3.679  0.7337 -0.3447 -0.7221
 8885SOL    HW235306   5.078   5.512   3.585 -0.3539 -0.9606 -0.5261
 8885SOL    HW335307   5.009   5.489   3.718 -0.3924  2.3871  0.1189
 8885SOL    MW435308   5.075   5.522   3.671  0.4416 -0.0655 -0.5853
 8886NA      NA35309   1.638   1.357   6.345  0.3118  0.2189  0.1078
 8887NA      NA35310   3.545   1.811   2.095 -0.5183 -0.0707  0.4285
 8888NA      NA35311   2.421   1.580   2.365 -0.1739  0.2091  0.0654
 8889NA      NA35312   4.773   0.501   0.277 -0.0670 -0.1371 -0.0818
 8890NA      NA35313   3.699   5.817   3.010  0.1143  0.3180 -0.2141
 8891NA      NA35314   0.046   3.603   3.904  0.0702  0.2478 -0.0710
 8892NA      NA35315   4.933   0.438   1.141 -0.3054 -0.2178  0.5490
   6.42920   6.42920   6.42920
