A-SYNC WITH FASUDIL
35315
  121NASP     N    1   1.586   0.985   2.332 -0.0734 -0.2707 -0.5879
  121NASP    H1    2   1.668   0.947   2.377 -0.5501  1.2957  1.8438
  121NASP    H2    3   1.558   1.064   2.389 -1.2842 -1.6037  0.7528
  121NASP    H3    4   1.593   1.019   2.237 -2.9125  2.5305  0.0142
  121NASP    CA    5   1.469   0.896   2.326 -0.0576 -0.0986 -0.4663
  121NASP    HA    6   1.386   0.954   2.286 -1.1833 -1.5454 -0.3389
  121NASP    CB    7   1.481   0.791   2.216 -0.3355 -0.6211  0.2390
  121NASP   HB1    8   1.463   0.855   2.130  1.7765  0.9194  0.8692
  121NASP   HB2    9   1.419   0.702   2.227 -0.4023 -0.5033  0.8486
  121NASP    CG   10   1.620   0.725   2.195 -0.5209  0.5374 -0.0733
  121NASP   OD1   11   1.623   0.634   2.107 -0.5461 -0.1544  0.4173
  121NASP   OD2   12   1.716   0.755   2.267  0.6435  0.4134  0.0269
  121NASP     C   13   1.437   0.833   2.461 -0.6605  0.1169 -0.0097
  121NASP     O   14   1.533   0.817   2.540  0.6578  0.1401  0.8850
  122ASN      N   15   1.315   0.799   2.490  0.1674  0.2655 -0.1509
  122ASN      H   16   1.246   0.820   2.419 -0.4141  0.1648  0.3737
  122ASN     CA   17   1.270   0.719   2.605 -0.5996  0.3002  0.3424
  122ASN     HA   18   1.335   0.742   2.689  0.1044  3.0002 -0.8429
  122ASN     CB   19   1.123   0.750   2.638 -0.7600 -0.0620 -0.0867
  122ASN    HB1   20   1.090   0.686   2.719 -1.6962 -0.9868 -1.1728
  122ASN    HB2   21   1.063   0.734   2.549 -0.6684  1.4736 -0.4623
  122ASN     CG   22   1.094   0.895   2.674  0.0733  0.7909 -0.1858
  122ASN    OD1   23   1.179   0.979   2.706 -0.4861 -0.2292  0.7176
  122ASN    ND2   24   0.966   0.925   2.666 -0.1837  0.3544 -0.4202
  122ASN   HD21   25   0.932   1.013   2.703  0.5226 -0.0886  1.4055
  122ASN   HD22   26   0.897   0.858   2.634  0.2970  0.2492 -1.2453
  122ASN      C   27   1.296   0.561   2.597 -0.6828 -0.4562  0.3734
  122ASN      O   28   1.346   0.511   2.495  0.0332  0.3176  0.4367
  123GLU      N   29   1.269   0.493   2.709 -0.0387 -0.0230 -0.4930
  123GLU      H   30   1.220   0.545   2.779  1.5079 -1.2159  1.5815
  123GLU     CA   31   1.279   0.341   2.729  0.7598 -0.1527  0.9831
  123GLU     HA   32   1.363   0.308   2.668 -0.1531 -0.8582  0.0660
  123GLU     CB   33   1.309   0.305   2.876 -0.4550  0.5178 -0.1648
  123GLU    HB1   34   1.220   0.314   2.937  0.7497  0.2210  1.7028
  123GLU    HB2   35   1.372   0.383   2.919 -2.1042  0.8656  1.7418
  123GLU     CG   36   1.366   0.169   2.908  0.1571  0.5572 -0.6374
  123GLU    HG1   37   1.457   0.171   2.849  0.3114  0.7086 -0.3914
  123GLU    HG2   38   1.298   0.087   2.882  1.7385 -1.1571  0.3852
  123GLU     CD   39   1.403   0.157   3.055 -0.5083 -0.3873 -0.8798
  123GLU    OE1   40   1.525   0.150   3.100 -1.1611  0.1521  0.6114
  123GLU    OE2   41   1.315   0.159   3.145  0.0162 -0.2208 -0.1854
  123GLU      C   42   1.159   0.272   2.662  0.9138 -0.4942  0.2861
  123GLU      O   43   1.044   0.310   2.688 -0.2021  0.2720  0.0890
  124ALA      N   44   1.183   0.163   2.584  0.0548  0.3871 -0.5522
  124ALA      H   45   1.277   0.126   2.583 -0.7495 -2.6239  4.0932
  124ALA     CA   46   1.085   0.087   2.508  0.1647  0.2823 -0.5101
  124ALA     HA   47   1.004   0.156   2.484 -1.2476 -0.6807  1.3006
  124ALA     CB   48   1.160   0.032   2.386 -0.0945  0.4188  0.2442
  124ALA    HB1   49   1.090  -0.009   2.314  1.2483 -0.6616 -0.4885
  124ALA    HB2   50   1.229  -0.046   2.421  1.1411  0.8021 -1.2295
  124ALA    HB3   51   1.222   0.108   2.338  0.0237 -0.3231 -0.8056
  124ALA      C   52   1.022  -0.020   2.597 -0.2420 -0.5725  0.4393
  124ALA      O   53   1.002  -0.134   2.557 -0.0209 -0.6913  0.5253
  125TYR      N   54   0.977   0.024   2.721  0.1920  0.4053  0.6958
  125TYR      H   55   0.979   0.125   2.726  1.0172  0.3609  1.4095
  125TYR     CA   56   0.933  -0.057   2.839  0.3475 -0.1253  0.4373
  125TYR     HA   57   0.917  -0.160   2.808  2.4938 -0.7148  1.1057
  125TYR     CB   58   1.039  -0.067   2.948 -0.1431 -0.4560 -0.0047
  125TYR    HB1   59   1.053   0.036   2.982 -1.9070 -0.5387  1.0734
  125TYR    HB2   60   1.128  -0.099   2.893 -0.3650  0.3836 -0.8921
  125TYR     CG   61   1.016  -0.159   3.065  0.4656 -0.1154 -0.4865
  125TYR    CD1   62   0.974  -0.289   3.043  0.0546 -0.1493 -0.1150
  125TYR    HD1   63   0.960  -0.313   2.939  1.4944  0.4114 -0.4687
  125TYR    CE1   64   0.963  -0.383   3.150 -0.2925 -0.3599  0.4786
  125TYR    HE1   65   0.942  -0.485   3.123  0.5758 -0.5288  0.4248
  125TYR     CZ   66   0.995  -0.343   3.281 -0.2015  0.2339  0.4619
  125TYR     OH   67   0.996  -0.426   3.385 -0.5370 -0.1506  0.2669
  125TYR     HH   68   0.981  -0.518   3.362 -1.3338  0.2077 -0.7516
  125TYR    CE2   69   1.023  -0.208   3.305  0.6928  0.7632  0.0617
  125TYR    HE2   70   1.048  -0.185   3.408  0.1635  0.7726  0.1873
  125TYR    CD2   71   1.035  -0.116   3.199 -0.2573 -0.5402  0.7177
  125TYR    HD2   72   1.066  -0.015   3.219  0.2623 -0.2521 -1.2962
  125TYR      C   73   0.796  -0.006   2.884 -0.3116 -0.6502 -0.0512
  125TYR      O   74   0.750   0.107   2.865  0.3548  0.0807  0.0348
  126GLU      N   75   0.726  -0.099   2.945 -0.3393 -0.2275 -0.1140
  126GLU      H   76   0.772  -0.189   2.946  0.9591  0.4116 -0.1484
  126GLU     CA   77   0.584  -0.085   3.004 -0.4263 -0.0355 -0.0519
  126GLU     HA   78   0.522  -0.023   2.939  0.6684 -0.2013 -1.2830
  126GLU     CB   79   0.517  -0.221   3.016  0.1892 -0.9112  0.2088
  126GLU    HB1   80   0.424  -0.214   3.072  0.9586  2.7649  1.2676
  126GLU    HB2   81   0.590  -0.289   3.059  0.3118 -0.4354  0.7538
  126GLU     CG   82   0.480  -0.269   2.869 -0.6785  0.0378  0.4663
  126GLU    HG1   83   0.436  -0.368   2.882 -0.9676  0.1814  0.5945
  126GLU    HG2   84   0.576  -0.277   2.817 -0.9078  2.0986 -0.3924
  126GLU     CD   85   0.379  -0.186   2.793  0.1690  0.0968  0.2934
  126GLU    OE1   86   0.305  -0.101   2.845 -0.1382 -0.7732  0.3978
  126GLU    OE2   87   0.370  -0.213   2.675 -0.5242  0.9071  0.5657
  126GLU      C   88   0.573  -0.013   3.137  0.6680 -0.1404 -0.0887
  126GLU      O   89   0.460   0.010   3.174  0.0881 -0.1673  0.0778
  127MET      N   90   0.682   0.011   3.209  0.6213 -0.2410  0.5080
  127MET      H   91   0.773  -0.004   3.168  0.0952 -2.0001 -0.0754
  127MET     CA   92   0.677   0.075   3.340  0.3806  0.2409 -0.2640
  127MET     HA   93   0.578   0.111   3.367  0.1652 -0.8372  0.4454
  127MET     CB   94   0.711  -0.030   3.446 -0.2178 -0.0804  0.7655
  127MET    HB1   95   0.689   0.004   3.547  0.3260 -0.6232  1.0724
  127MET    HB2   96   0.818  -0.049   3.458 -0.4684 -1.5783  0.7983
  127MET     CG   97   0.635  -0.162   3.428  0.6024 -0.6752 -0.2985
  127MET    HG1   98   0.691  -0.231   3.365  0.1395 -0.0506 -1.4133
  127MET    HG2   99   0.543  -0.139   3.375  2.0150  1.0168 -2.1741
  127MET     SD  100   0.608  -0.250   3.586 -0.0631 -0.0859  0.0275
  127MET     CE  101   0.563  -0.405   3.516 -0.3510  0.6025 -0.2067
  127MET    HE1  102   0.545  -0.475   3.598 -0.8222 -1.1280 -1.7328
  127MET    HE2  103   0.649  -0.447   3.465 -0.7266 -0.2345 -0.1678
  127MET    HE3  104   0.470  -0.389   3.462 -1.1144 -0.0631  0.8532
  127MET      C  105   0.780   0.189   3.347  0.5138  0.4258  0.1325
  127MET      O  106   0.885   0.183   3.278  0.5483 -0.1219 -0.0493
  128PRO      N  107   0.762   0.295   3.435  0.6642 -0.6340  0.1522
  128PRO     CD  108   0.647   0.322   3.523 -0.5079  0.1293 -0.0446
  128PRO    HD1  109   0.627   0.241   3.592 -0.9103 -1.1723 -1.6401
  128PRO    HD2  110   0.558   0.338   3.462 -0.5880  0.7539  0.2289
  128PRO     CG  111   0.674   0.457   3.596  0.0717 -0.1236 -0.1283
  128PRO    HG1  112   0.722   0.436   3.692  0.9677 -0.3658 -0.6136
  128PRO    HG2  113   0.587   0.521   3.606  0.5204  0.3067  1.1859
  128PRO     CB  114   0.775   0.528   3.510 -0.4400  0.2231  0.1284
  128PRO    HB1  115   0.729   0.574   3.423  1.5083 -0.0690 -1.1333
  128PRO    HB2  116   0.834   0.595   3.573  0.0548  0.7660 -0.8868
  128PRO     CA  117   0.859   0.406   3.462 -0.2564 -0.0310  0.2025
  128PRO     HA  118   0.910   0.428   3.368  0.9219 -0.5173  0.7085
  128PRO      C  119   0.964   0.352   3.550 -0.8956  0.0175 -0.2350
  128PRO      O  120   0.956   0.236   3.604 -0.3094 -0.2416  0.0132
  129SER      N  121   1.072   0.431   3.567  0.2741  0.3776  0.2868
  129SER      H  122   1.078   0.518   3.517  1.0714  1.6232  2.3797
  129SER     CA  123   1.183   0.412   3.663  0.1315 -0.0415 -0.4225
  129SER     HA  124   1.213   0.308   3.648 -0.2136 -0.1191 -0.5846
  129SER     CB  125   1.285   0.515   3.620 -0.6139  0.5963  0.4062
  129SER    HB1  126   1.301   0.496   3.514 -0.0479  1.0412  0.4076
  129SER    HB2  127   1.377   0.498   3.676  1.5325 -0.6853 -3.2144
  129SER     OG  128   1.228   0.648   3.631 -1.1140  0.5260 -0.3741
  129SER    HG1  129   1.297   0.705   3.597  0.7075 -1.7170 -0.7179
  129SER      C  130   1.155   0.424   3.811 -0.6573  0.4180  0.0164
  129SER      O  131   1.255   0.428   3.885  1.1342  0.3165  0.2476
  130GLU      N  132   1.031   0.443   3.855  0.7562 -0.1732 -0.0822
  130GLU      H  133   0.957   0.430   3.787  0.9358  1.5812 -0.6668
  130GLU     CA  134   0.992   0.478   3.995  0.5005 -0.0714 -0.5264
  130GLU     HA  135   1.053   0.561   4.030  2.2778 -0.7535 -1.8750
  130GLU     CB  136   0.847   0.524   3.997 -0.3246 -0.2961 -0.5060
  130GLU    HB1  137   0.826   0.540   4.102 -0.9476  0.8103 -0.7790
  130GLU    HB2  138   0.778   0.448   3.959 -1.2501 -0.7538  1.9108
  130GLU     CG  139   0.829   0.655   3.919  1.4549 -0.7907  0.4398
  130GLU    HG1  140   0.865   0.653   3.816 -1.1564  0.5461 -0.6080
  130GLU    HG2  141   0.893   0.732   3.962 -0.5718  1.2036  0.0904
  130GLU     CD  142   0.685   0.708   3.914  0.7264 -0.1922  0.3709
  130GLU    OE1  143   0.660   0.817   3.856  0.0587 -0.1371  0.6193
  130GLU    OE2  144   0.602   0.653   3.990  0.5274  0.3352  0.4950
  130GLU      C  145   1.026   0.359   4.090 -0.5817  0.1553  0.9242
  130GLU      O  146   1.016   0.240   4.054 -0.4612  0.1634 -0.2595
  131GLU      N  147   1.070   0.394   4.211 -0.6436 -0.0320 -0.3724
  131GLU      H  148   1.085   0.494   4.221  2.6236 -0.0202 -3.3046
  131GLU     CA  149   1.085   0.294   4.315 -0.8428  0.2600 -0.3301
  131GLU     HA  150   1.169   0.229   4.290  0.1567  0.5846  1.9167
  131GLU     CB  151   1.141   0.362   4.438  0.6126  0.2667 -0.5638
  131GLU    HB1  152   1.135   0.301   4.528 -1.8919  0.6102 -0.4346
  131GLU    HB2  153   1.078   0.447   4.461  1.1943 -0.0147  2.4310
  131GLU     CG  154   1.287   0.405   4.412  0.0538  1.0552  0.0497
  131GLU    HG1  155   1.282   0.486   4.339 -1.9646  1.0541  0.1439
  131GLU    HG2  156   1.344   0.330   4.356 -0.4663  1.0461 -0.4825
  131GLU     CD  157   1.364   0.451   4.540 -0.3440  0.2367 -0.5144
  131GLU    OE1  158   1.365   0.380   4.645 -0.1248 -0.4639  0.1989
  131GLU    OE2  159   1.421   0.562   4.536 -0.0458  0.3670 -0.0540
  131GLU      C  160   0.963   0.210   4.334  0.1310 -0.2216 -0.3998
  131GLU      O  161   0.849   0.252   4.327 -0.6469 -0.0104  0.3367
  132GLY      N  162   0.980   0.082   4.366  0.6512  0.0690 -0.0556
  132GLY      H  163   1.074   0.051   4.386  0.8134  0.6836  0.1517
  132GLY     CA  164   0.861  -0.012   4.365  0.5599 -0.3105  0.2906
  132GLY    HA1  165   0.769   0.037   4.395  0.6723  0.0491  0.0617
  132GLY    HA2  166   0.886  -0.089   4.438  3.6293 -0.0990 -0.3852
  132GLY      C  167   0.843  -0.087   4.239 -0.2394  0.9426  0.7134
  132GLY      O  168   0.805  -0.207   4.250  0.2873 -0.3076  0.4185
  133TYR      N  169   0.868  -0.037   4.117  0.5126  0.2234 -0.4282
  133TYR      H  170   0.901   0.058   4.111 -0.5905  0.5943 -0.8948
  133TYR     CA  171   0.839  -0.108   3.986 -0.3152 -0.4026  0.5868
  133TYR     HA  172   0.747  -0.166   3.991  0.3245 -1.4099  0.9891
  133TYR     CB  173   0.813  -0.011   3.870 -0.5886 -0.3639 -0.1991
  133TYR    HB1  174   0.799  -0.071   3.780 -1.0958  0.7869 -0.9144
  133TYR    HB2  175   0.901   0.049   3.846 -1.3742  0.6389 -0.6603
  133TYR     CG  176   0.685   0.080   3.886  0.7808 -0.2991  0.1088
  133TYR    CD1  177   0.680   0.195   3.970  0.3078  0.4403  0.3143
  133TYR    HD1  178   0.766   0.213   4.033 -0.9066  0.2439  2.1017
  133TYR    CE1  179   0.564   0.278   3.984 -0.9841 -0.2353 -0.0947
  133TYR    HE1  180   0.569   0.356   4.059  1.2091  1.1648 -1.5895
  133TYR     CZ  181   0.456   0.262   3.900 -0.2839 -0.2646  0.5805
  133TYR     OH  182   0.341   0.332   3.897 -0.2106 -0.0249  0.0171
  133TYR     HH  183   0.351   0.396   3.968  0.3769 -1.1515  1.0116
  133TYR    CE2  184   0.462   0.146   3.818  0.3854  0.3203  0.0145
  133TYR    HE2  185   0.376   0.114   3.760  0.1290  1.4490 -0.2353
  133TYR    CD2  186   0.566   0.048   3.814 -0.1756  0.4285 -0.9581
  133TYR    HD2  187   0.557  -0.040   3.752 -1.8623 -0.0061 -0.1754
  133TYR      C  188   0.951  -0.212   3.954 -0.5990 -0.4971 -0.3653
  133TYR      O  189   1.068  -0.179   3.972 -0.0219 -0.0874 -0.0368
  134GLN      N  190   0.918  -0.313   3.880 -0.3214  0.2773 -1.1552
  134GLN      H  191   0.820  -0.320   3.856 -0.3452 -0.4823 -0.8536
  134GLN     CA  192   1.010  -0.405   3.815  0.2580  0.3285 -0.0642
  134GLN     HA  193   1.068  -0.454   3.893  1.1868  2.3113  0.5373
  134GLN     CB  194   0.923  -0.513   3.756  0.2668  0.3951 -0.1051
  134GLN    HB1  195   0.985  -0.570   3.687  0.4740 -0.2993  0.6349
  134GLN    HB2  196   0.851  -0.469   3.687 -0.6956 -1.3975 -0.3027
  134GLN     CG  197   0.860  -0.608   3.858  0.0586 -0.3110  0.2565
  134GLN    HG1  198   0.943  -0.646   3.918  2.1077  0.1030 -2.1506
  134GLN    HG2  199   0.816  -0.689   3.800 -0.0401 -1.4935  1.9096
  134GLN     CD  200   0.746  -0.548   3.939  0.0738 -0.2026 -0.5792
  134GLN    OE1  201   0.646  -0.501   3.886  0.0109 -0.3348  0.2299
  134GLN    NE2  202   0.749  -0.549   4.072  0.2290  0.0890 -0.0730
  134GLN   HE21  203   0.681  -0.497   4.126  0.6710  0.4037  0.1873
  134GLN   HE22  204   0.828  -0.581   4.125 -1.7836 -2.8711  1.4849
  134GLN      C  205   1.096  -0.322   3.709  0.0403  0.0540 -0.0711
  134GLN      O  206   1.064  -0.212   3.671  0.3763  0.1069 -0.1296
  135ASP      N  207   1.212  -0.375   3.665 -0.0328 -0.2500  0.0788
  135ASP      H  208   1.240  -0.471   3.676  0.4524 -0.3743 -1.8289
  135ASP     CA  209   1.311  -0.303   3.577 -0.6214  0.2961 -0.1943
  135ASP     HA  210   1.276  -0.205   3.547 -1.6167 -0.2281 -0.7817
  135ASP     CB  211   1.444  -0.276   3.643 -0.7074 -0.5134 -0.2973
  135ASP    HB1  212   1.427  -0.197   3.717 -1.5058 -1.6322  0.7453
  135ASP    HB2  213   1.513  -0.235   3.568 -0.3394 -0.1020  0.2522
  135ASP     CG  214   1.516  -0.394   3.723 -0.0672  0.0687 -0.1040
  135ASP    OD1  215   1.629  -0.367   3.774  0.1277 -0.9437 -0.0948
  135ASP    OD2  216   1.466  -0.507   3.730 -0.4932  0.8648  0.2450
  135ASP      C  217   1.336  -0.382   3.451 -0.0285 -0.0264 -0.1141
  135ASP      O  218   1.324  -0.507   3.458  0.3955  0.3262  0.6607
  136TYR      N  219   1.364  -0.309   3.341 -0.2915 -0.4453  0.1098
  136TYR      H  220   1.361  -0.208   3.344  0.2742 -0.4085 -0.3751
  136TYR     CA  221   1.362  -0.369   3.208 -0.1021 -0.6413  0.3777
  136TYR     HA  222   1.267  -0.417   3.183  0.7226 -2.6376  0.9748
  136TYR     CB  223   1.377  -0.248   3.107  0.3504  0.3144 -0.0733
  136TYR    HB1  224   1.469  -0.194   3.124  0.0618  0.8852 -0.3023
  136TYR    HB2  225   1.300  -0.180   3.143  1.6206  2.9211 -1.9701
  136TYR     CG  226   1.364  -0.276   2.955 -0.8610  0.1100 -0.2348
  136TYR    CD1  227   1.270  -0.370   2.905  0.0991 -0.5179 -0.2448
  136TYR    HD1  228   1.222  -0.433   2.979 -1.3680 -0.7585 -1.3344
  136TYR    CE1  229   1.238  -0.370   2.763 -0.2346 -0.8094  0.0569
  136TYR    HE1  230   1.167  -0.438   2.718 -0.6760 -1.2710  1.3888
  136TYR     CZ  231   1.307  -0.277   2.676 -0.0496 -0.3522 -0.8322
  136TYR     OH  232   1.289  -0.288   2.543  0.8021  0.1221 -0.3364
  136TYR     HH  233   1.343  -0.231   2.486  1.6369 -1.4001 -1.1264
  136TYR    CE2  234   1.418  -0.196   2.729  0.1772  0.6963  0.4851
  136TYR    HE2  235   1.480  -0.136   2.664 -1.0442  0.7654 -0.6620
  136TYR    CD2  236   1.444  -0.202   2.867 -0.5564  0.0046 -0.5046
  136TYR    HD2  237   1.527  -0.139   2.896 -1.6604  2.0750 -1.5820
  136TYR      C  238   1.480  -0.465   3.207  0.6500  0.5940  0.3378
  136TYR      O  239   1.574  -0.471   3.284  0.1913  0.4255 -0.4430
  137GLU      N  240   1.469  -0.551   3.105 -0.1095  0.4147 -0.2551
  137GLU      H  241   1.395  -0.532   3.040 -0.3373  1.7041  0.3502
  137GLU     CA  242   1.567  -0.659   3.084 -0.2474 -0.0032 -0.4942
  137GLU     HA  243   1.576  -0.712   3.178  1.3656  0.5652 -0.2928
  137GLU     CB  244   1.503  -0.744   2.975 -0.2820 -0.1505 -0.4422
  137GLU    HB1  245   1.511  -0.691   2.879 -2.5900  1.3141  0.1024
  137GLU    HB2  246   1.399  -0.758   3.004  0.5693  0.6315  3.4612
  137GLU     CG  247   1.568  -0.879   2.962 -0.8098  0.2810 -0.6709
  137GLU    HG1  248   1.590  -0.922   3.060  0.5213  2.0843 -0.1335
  137GLU    HG2  249   1.667  -0.870   2.916 -0.5827 -2.4676 -0.8793
  137GLU     CD  250   1.476  -0.971   2.874  0.2017  0.3841 -0.3770
  137GLU    OE1  251   1.441  -0.932   2.758  0.0344 -0.2541  0.3477
  137GLU    OE2  252   1.428  -1.068   2.936 -0.4158 -0.0549 -0.4226
  137GLU      C  253   1.698  -0.601   3.037 -0.0743 -0.3105  0.8032
  137GLU      O  254   1.705  -0.502   2.955 -0.0205  0.1081 -0.5040
  138PRO      N  255   1.811  -0.657   3.082  0.0014 -0.2209  0.2460
  138PRO     CD  256   1.826  -0.765   3.177 -0.0808  0.2916  0.7221
  138PRO    HD1  257   1.829  -0.862   3.126 -0.1380 -1.7715  4.2962
  138PRO    HD2  258   1.746  -0.767   3.251 -1.3221 -0.6235 -0.5848
  138PRO     CG  259   1.961  -0.740   3.244 -0.0307  0.1243  0.2763
  138PRO    HG1  260   1.989  -0.833   3.292 -0.6438 -0.3069 -0.1828
  138PRO    HG2  261   1.950  -0.651   3.307 -0.9847 -0.0100  0.3155
  138PRO     CB  262   2.044  -0.698   3.123 -0.2877  0.2551  0.7024
  138PRO    HB1  263   2.139  -0.652   3.151  0.3006 -1.5651  1.8723
  138PRO    HB2  264   2.069  -0.789   3.068 -2.3935  1.2336 -2.1125
  138PRO     CA  265   1.946  -0.609   3.044 -0.8323 -0.8577  0.0429
  138PRO     HA  266   1.954  -0.507   3.081 -0.4820 -0.9558  0.2354
  138PRO      C  267   1.974  -0.612   2.891  0.1949  0.0006 -0.3337
  138PRO      O  268   1.936  -0.705   2.824 -0.3826 -0.2365 -0.6606
  139GLU      N  269   2.027  -0.503   2.835 -0.7426  0.5583 -0.0510
  139GLU      H  270   2.059  -0.432   2.899 -0.4421 -1.3201  2.0125
  139GLU     CA  271   2.063  -0.477   2.698 -0.4589  0.0512 -0.1521
  139GLU     HA  272   1.972  -0.500   2.642  0.2312 -1.4978 -0.7012
  139GLU     CB  273   2.093  -0.330   2.685  0.2561  0.0821 -0.3314
  139GLU    HB1  274   2.144  -0.310   2.591  0.9613 -2.9105 -0.6953
  139GLU    HB2  275   2.167  -0.306   2.761 -2.1856 -0.5683  2.4034
  139GLU     CG  276   1.973  -0.233   2.704  0.0930  0.1786 -0.2831
  139GLU    HG1  277   1.934  -0.244   2.805 -1.2529 -1.0499 -0.9095
  139GLU    HG2  278   1.897  -0.269   2.634  2.1866  0.5401 -2.9168
  139GLU     CD  279   2.015  -0.091   2.674 -0.8879  0.1506  0.6952
  139GLU    OE1  280   1.946  -0.027   2.592  0.3980 -0.0012 -0.1593
  139GLU    OE2  281   2.132  -0.056   2.703 -0.6082  0.6052  0.3828
  139GLU      C  282   2.168  -0.570   2.647  0.0452 -0.0053  0.4809
  139GLU      O  283   2.268  -0.602   2.720 -0.0233  0.1598  0.1998
  140CALA     N  284   2.151  -0.610   2.518 -0.6010  0.0360 -1.5564
  140CALA     H  285   2.078  -0.560   2.469  0.5577  2.6025 -0.7754
  140CALA    CA  286   2.237  -0.706   2.439  0.3124 -0.1978  0.1703
  140CALA    HA  287   2.341  -0.703   2.471  0.1988  3.0115  0.6088
  140CALA    CB  288   2.191  -0.856   2.457  0.5637 -0.4090  0.0678
  140CALA   HB1  289   2.084  -0.871   2.441  0.1751  1.7298  0.4219
  140CALA   HB2  290   2.199  -0.883   2.563 -1.2194 -0.2026  0.2849
  140CALA   HB3  291   2.255  -0.930   2.410  0.0378 -0.2256 -0.9546
  140CALA     C  292   2.226  -0.658   2.292 -0.1645  0.2639  0.0245
  140CALA   OC1  293   2.156  -0.730   2.218  0.7899 -0.0648  0.0928
  140CALA   OC2  294   2.267  -0.542   2.259 -0.1062 -0.3496  0.6977
  141FAS      C  295   5.346   3.130   3.246  0.0256  0.1593 -0.3851
  141FAS     C1  296   5.198   3.096   3.283 -0.2045  0.4987  0.5323
  141FAS      N  297   5.141   2.989   3.193 -0.0505  0.2118  0.2040
  141FAS     C2  298   5.121   3.034   3.046  0.3163 -0.4322  0.2363
  141FAS     C3  299   5.237   3.029   2.951  0.1917 -0.0816  0.4211
  141FAS     N1  300   5.364   3.070   3.007 -0.0856 -0.1197 -0.3829
  141FAS     C4  301   5.360   3.188   3.102 -0.1699  0.4039  0.9461
  141FAS      S  302   5.496   3.067   2.904  0.3925 -0.0652 -0.5339
  141FAS      O  303   5.462   3.160   2.797 -0.2800  0.1791  0.9624
  141FAS     O1  304   5.602   3.081   3.004  0.1520  0.1182  0.4674
  141FAS     C5  305   5.494   2.886   2.862 -0.1406  0.1444 -0.2825
  141FAS     C6  306   5.537   2.801   2.963  0.4978  0.3315  0.2346
  141FAS     C7  307   5.543   2.666   2.942  1.3651  0.5724 -0.1139
  141FAS     C8  308   5.518   2.611   2.815  1.0122  0.2138  0.7156
  141FAS     C9  309   5.477   2.696   2.709 -0.3310 -0.0888  0.1616
  141FAS    C10  310   5.466   2.836   2.732  0.4566 -0.5443  0.7347
  141FAS    C11  311   5.425   2.912   2.620 -0.8489 -0.3703  0.2886
  141FAS    C12  312   5.399   2.852   2.497  0.2306 -0.5729 -0.1071
  141FAS     N2  313   5.406   2.724   2.480 -0.5350  0.1884  0.5248
  141FAS    C13  314   5.451   2.652   2.582 -0.6312  0.0622  0.6665
  141FAS      H  315   5.423   3.056   3.270  1.1496  2.0863  2.5842
  141FAS     H1  316   5.381   3.207   3.316 -0.4347  1.2136 -1.2784
  141FAS     H2  317   5.141   3.188   3.270  1.6028  1.4813 -0.8660
  141FAS     H3  318   5.188   3.063   3.386  1.3083 -0.7926  0.2980
  141FAS     H4  319   5.205   2.908   3.203 -1.5177 -1.0654 -0.4620
  141FAS     H5  320   5.090   3.139   3.045  2.2329  0.1757 -1.5192
  141FAS     H6  321   5.041   2.975   3.002  1.4959 -2.5690  0.8469
  141FAS     H7  322   5.200   3.087   2.865 -2.2911 -0.9144  0.8433
  141FAS     H8  323   5.243   2.925   2.917 -0.0314 -0.2787  0.9769
  141FAS     H9  324   5.280   3.260   3.080  0.0526  0.0268 -1.4580
  141FAS    H10  325   5.452   3.247   3.095 -0.0536  0.1021 -0.4210
  141FAS    H11  326   5.571   2.837   3.060  1.2633 -0.9067  0.4509
  141FAS    H12  327   5.573   2.597   3.020 -0.2536  1.1679  1.0850
  141FAS    H13  328   5.531   2.504   2.797  1.6199  0.4706 -0.4630
  141FAS    H14  329   5.416   3.020   2.617 -0.0665 -0.3006  0.0452
  141FAS    H15  330   5.374   2.908   2.407 -1.6922 -1.8148 -0.4161
  141FAS    H16  331   5.452   2.544   2.565  1.6188  0.0326  0.7174
  141FAS    H17  332   5.057   2.953   3.239  0.3844  2.1181  2.7131
  142SOL     OW  333   3.154   0.754   3.810 -0.1279 -1.3399 -0.1481
  142SOL    HW2  334   3.141   0.821   3.743  1.7515 -0.2850  0.4752
  142SOL    HW3  335   3.238   0.775   3.850 -1.3643 -1.5899  2.9104
  142SOL    MW4  336   3.163   0.766   3.806 -0.0431 -1.2337  0.3377
  143SOL     OW  337   3.899   0.388   0.377 -0.4661 -0.0758  0.5846
  143SOL    HW2  338   3.974   0.331   0.391  0.0852  0.7605  1.0824
  143SOL    HW3  339   3.904   0.453   0.447 -0.6445  1.0446 -0.4169
  143SOL    MW4  340   3.909   0.389   0.388 -0.4169  0.1824  0.5182
  144SOL     OW  341   5.566   1.984   6.153  0.0928 -0.6660 -0.2890
  144SOL    HW2  342   5.578   2.063   6.101 -1.4060 -0.7284 -0.7802
  144SOL    HW3  343   5.503   2.010   6.221 -0.0333 -1.2970 -0.1607
  144SOL    MW4  344   5.559   1.998   6.155 -0.1216 -0.7575 -0.3369
  145SOL     OW  345   6.314   1.561   2.645  0.0261 -0.4136  0.3669
  145SOL    HW2  346   6.376   1.494   2.674 -0.1250 -0.2734  1.0345
  145SOL    HW3  347   6.236   1.546   2.700  0.1677  0.6098  0.8525
  145SOL    MW4  348   6.312   1.550   2.656  0.0249 -0.2601  0.5191
  146SOL     OW  349   1.862   5.845   2.369  0.2931  0.2168 -0.6318
  146SOL    HW2  350   1.875   5.757   2.334 -0.5213  0.0488 -0.5240
  146SOL    HW3  351   1.814   5.832   2.451 -3.3118  0.9044 -2.4172
  146SOL    MW4  352   1.858   5.832   2.375 -0.2899  0.2854 -0.8531
  147SOL     OW  353   0.176   3.104   0.330 -0.3029  0.2610 -0.3377
  147SOL    HW2  354   0.261   3.146   0.314 -0.9326  1.4873 -0.5625
  147SOL    HW3  355   0.158   3.055   0.249 -0.8176  1.8119 -1.2150
  147SOL    MW4  356   0.185   3.103   0.317 -0.4539  0.6274 -0.4831
  148SOL     OW  357   3.875   3.328   6.170  0.2510 -0.0841 -0.3884
  148SOL    HW2  358   3.869   3.381   6.090  2.5533  0.5056 -0.2312
  148SOL    HW3  359   3.785   3.326   6.204 -0.6536  0.2368 -2.5930
  148SOL    MW4  360   3.862   3.334   6.164  0.4354  0.0361 -0.6586
  149SOL     OW  361   0.199   4.062   3.808  0.6508  0.2798  0.7433
  149SOL    HW2  362   0.289   4.094   3.813  0.6612  0.2102  1.0427
  149SOL    HW3  363   0.187   4.039   3.716  1.0547 -0.0354  0.7639
  149SOL    MW4  364   0.210   4.063   3.796  0.7055  0.2290  0.7856
  150SOL     OW  365   3.467   3.372   4.002 -0.2115  0.3409  0.1006
  150SOL    HW2  366   3.528   3.356   3.930  0.2899  1.1177  0.3425
  150SOL    HW3  367   3.381   3.359   3.963  0.0739 -3.1858  0.3239
  150SOL    MW4  368   3.464   3.368   3.988 -0.1077 -0.0219  0.1620
  151SOL     OW  369   5.924   1.223   3.203  0.3459  0.3546  0.4225
  151SOL    HW2  370   6.013   1.252   3.185  0.4246  0.5444  1.0829
  151SOL    HW3  371   5.922   1.210   3.298 -0.5697  1.1896  0.5340
  151SOL    MW4  372   5.935   1.225   3.213  0.2355  0.4898  0.5243
  152SOL     OW  373   6.314   5.990   3.526  0.0952  0.4153 -0.3562
  152SOL    HW2  374   6.225   6.006   3.494  0.3103  1.5098 -0.4648
  152SOL    HW3  375   6.334   6.067   3.579  1.8288  1.3541 -2.2202
  152SOL    MW4  376   6.305   6.002   3.529  0.3523  0.6836 -0.6165
  153SOL     OW  377   5.423   6.199   5.854 -0.7671 -0.1272  0.0446
  153SOL    HW2  378   5.464   6.158   5.931  0.2236  2.5291  1.0357
  153SOL    HW3  379   5.493   6.202   5.789 -1.0415 -0.5989 -0.2792
  153SOL    MW4  380   5.438   6.194   5.856 -0.6726  0.1610  0.1326
  154SOL     OW  381   1.739   1.584   3.157 -0.0183 -0.4307  0.3538
  154SOL    HW2  382   1.734   1.544   3.244 -1.0643 -0.5856  0.2347
  154SOL    HW3  383   1.832   1.580   3.134  0.1688 -1.0110  1.1718
  154SOL    MW4  384   1.750   1.578   3.165 -0.1316 -0.5277  0.4460
  155SOL     OW  385   1.038   2.613   4.151 -0.5884 -0.2911  0.9843
  155SOL    HW2  386   0.986   2.539   4.120 -0.6410 -0.0828  0.5707
  155SOL    HW3  387   1.128   2.585   4.139 -0.6080 -0.1707  0.5377
  155SOL    MW4  388   1.043   2.599   4.145 -0.5979 -0.2477  0.8708
  156SOL     OW  389   2.983   1.117   4.955  0.3899  0.2553 -0.2245
  156SOL    HW2  390   2.941   1.142   5.037  0.4527 -2.9543  0.9164
  156SOL    HW3  391   2.922   1.144   4.887 -0.0538  2.2382  0.8921
  156SOL    MW4  392   2.970   1.124   4.957  0.3396  0.0935  0.0734
  157SOL     OW  393   2.053   1.295   6.308  0.0933  0.4191 -0.1881
  157SOL    HW2  394   2.010   1.321   6.389  0.6908 -0.4105  0.4157
  157SOL    HW3  395   2.040   1.369   6.248 -3.4978 -0.3721 -0.6028
  157SOL    MW4  396   2.046   1.308   6.310 -0.3017  0.2053 -0.1631
  158SOL     OW  397   5.402   5.723   4.820  0.0292  0.0661 -0.0670
  158SOL    HW2  398   5.335   5.720   4.888  1.1861  1.4585  1.1851
  158SOL    HW3  399   5.407   5.633   4.788 -0.2963 -0.7212  1.9587
  158SOL    MW4  400   5.394   5.710   4.824  0.1389  0.1459  0.3655
  159SOL     OW  401   5.596   2.899   1.760 -0.0206  0.5431  0.0114
  159SOL    HW2  402   5.681   2.876   1.721 -0.2764  2.1983 -1.6698
  159SOL    HW3  403   5.537   2.830   1.728  0.1396  0.9212 -1.1684
  159SOL    MW4  404   5.600   2.887   1.750 -0.0332  0.8113 -0.3661
  160SOL     OW  405   5.013   2.563   4.410  0.5393 -0.1034 -0.1740
  160SOL    HW2  406   4.984   2.654   4.396  0.6784 -0.4807 -4.1264
  160SOL    HW3  407   4.972   2.537   4.493 -0.7026  3.0748  0.3536
  160SOL    MW4  408   5.004   2.572   4.419  0.3938  0.2662 -0.6258
  161SOL     OW  409   1.860   4.382   2.288 -0.4463  0.2607  0.0424
  161SOL    HW2  410   1.818   4.312   2.337  0.1455  0.1756  0.4339
  161SOL    HW3  411   1.858   4.353   2.197 -0.9052  0.0939  0.1045
  161SOL    MW4  412   1.854   4.369   2.282 -0.4288  0.2274  0.1022
  162SOL     OW  413   3.486   2.522   4.405 -0.1317 -0.3446 -0.5280
  162SOL    HW2  414   3.522   2.564   4.327 -0.0261  1.4727  0.4614
  162SOL    HW3  415   3.562   2.509   4.463  0.3641 -4.3389 -1.7270
  162SOL    MW4  416   3.501   2.526   4.403 -0.0523 -0.6318 -0.5557
  163SOL     OW  417   2.155   4.707   3.886 -0.1611 -0.8999  0.5927
  163SOL    HW2  418   2.070   4.751   3.887  0.1628 -0.0164 -2.1930
  163SOL    HW3  419   2.135   4.615   3.903 -1.4176 -0.4465  1.7623
  163SOL    MW4  420   2.141   4.701   3.888 -0.2841 -0.7235  0.3795
  164SOL     OW  421   2.891   3.855   4.012  0.0966  0.0380 -0.1245
  164SOL    HW2  422   2.826   3.841   4.081 -0.6134  0.9856 -0.5751
  164SOL    HW3  423   2.839   3.881   3.936  0.9372 -0.1125 -0.7662
  164SOL    MW4  424   2.875   3.856   4.011  0.1138  0.1431 -0.2686
  165SOL     OW  425   1.546   5.976   0.769  0.4414  0.2211 -0.0058
  165SOL    HW2  426   1.515   5.920   0.698 -0.7252  0.8864 -0.0410
  165SOL    HW3  427   1.629   6.011   0.738  0.6058 -0.5497 -0.4652
  165SOL    MW4  428   1.553   5.973   0.756  0.3092  0.2072 -0.0711
  166SOL     OW  429   1.580   5.048   0.187 -0.5321 -0.2983 -0.4713
  166SOL    HW2  430   1.635   5.094   0.124 -1.0847  1.3946  0.2343
  166SOL    HW3  431   1.641   4.990   0.234 -0.1077 -1.5663 -2.4546
  166SOL    MW4  432   1.596   5.046   0.185 -0.5490 -0.2422 -0.6399
  167SOL     OW  433   5.870   4.681   0.532  0.9178  0.0799  0.0831
  167SOL    HW2  434   5.863   4.593   0.493 -0.9827  0.3834 -0.3218
  167SOL    HW3  435   5.963   4.689   0.554  1.3633 -1.5524 -0.9992
  167SOL    MW4  436   5.882   4.670   0.530  0.7258 -0.0954 -0.1131
  168SOL     OW  437   0.248   3.687   5.673 -0.3799 -0.3852 -0.3319
  168SOL    HW2  438   0.234   3.781   5.660  0.0059 -0.4003 -0.9076
  168SOL    HW3  439   0.336   3.672   5.638 -0.1304 -0.8195  0.4627
  168SOL    MW4  440   0.258   3.698   5.667 -0.2961 -0.4445 -0.3030
  169SOL     OW  441   4.225   4.351   2.555  0.6560 -0.4709  0.2872
  169SOL    HW2  442   4.157   4.401   2.600 -0.0443 -1.7248  0.6939
  169SOL    HW3  443   4.181   4.315   2.477  0.6138 -1.8818  0.9283
  169SOL    MW4  444   4.210   4.353   2.550  0.5580 -0.8225  0.4254
  170SOL     OW  445   0.094   1.653   3.690 -0.1678 -0.0620  0.7724
  170SOL    HW2  446   0.136   1.737   3.709  1.7796 -0.4127 -1.4797
  170SOL    HW3  447   0.004   1.676   3.666 -0.1415  1.1860  1.7705
  170SOL    MW4  448   0.088   1.667   3.689  0.0926  0.0564  0.6069
  171SOL     OW  449   4.193   3.250   0.039 -0.0065  0.0814  0.3606
  171SOL    HW2  450   4.141   3.246   0.119  0.8451 -1.7171  0.8743
  171SOL    HW3  451   4.268   3.304   0.062  0.0708 -0.1607  0.6820
  171SOL    MW4  452   4.196   3.257   0.053  0.1160 -0.1879  0.4708
  172SOL     OW  453   0.446   1.077   4.202  0.4585  0.2842  0.2351
  172SOL    HW2  454   0.458   1.001   4.260 -1.8368  0.7207  1.4046
  172SOL    HW3  455   0.354   1.072   4.174  0.6017  1.9455 -0.6908
  172SOL    MW4  456   0.435   1.066   4.206  0.1746  0.5610  0.2673
  173SOL     OW  457   1.125   0.817   3.838  0.5063 -0.1057  0.1470
  173SOL    HW2  458   1.152   0.739   3.789  1.2716  0.2337  0.0153
  173SOL    HW3  459   1.207   0.860   3.862  0.0890  0.7667  0.0439
  173SOL    MW4  460   1.139   0.812   3.834  0.5522  0.0542  0.1160
  174SOL     OW  461   5.927   0.507   2.256  0.2317  0.0879 -0.4997
  174SOL    HW2  462   5.996   0.562   2.294 -1.3971 -0.0613  3.1120
  174SOL    HW3  463   5.868   0.569   2.214  0.6745  0.6355 -0.3296
  174SOL    MW4  464   5.928   0.523   2.256  0.0752  0.1404 -0.0008
  175SOL     OW  465   2.795   2.781   1.592 -0.4240  0.5706 -0.1657
  175SOL    HW2  466   2.736   2.706   1.598 -0.6034  0.6662 -0.6804
  175SOL    HW3  467   2.738   2.854   1.569  0.1039  0.3422 -2.3787
  175SOL    MW4  468   2.780   2.781   1.590 -0.3780  0.5531 -0.5256
  176SOL     OW  469   4.882   1.896   0.908  0.6836  0.3855 -0.5277
  176SOL    HW2  470   4.849   1.941   0.986 -0.2582  0.8801 -1.1902
  176SOL    HW3  471   4.953   1.841   0.940  1.4902  1.9183  0.4142
  176SOL    MW4  472   4.887   1.895   0.922  0.6657  0.6530 -0.4909
  177SOL     OW  473   3.481   0.518   4.595 -0.0556  0.5297 -0.1150
  177SOL    HW2  474   3.569   0.538   4.628  0.2226  0.6309 -0.9001
  177SOL    HW3  475   3.447   0.453   4.656  0.6590  0.3109  0.0619
  177SOL    MW4  476   3.488   0.512   4.608  0.0754  0.5142 -0.1952
  178SOL     OW  477   4.733   5.491   5.624 -0.3861 -0.3933 -0.3192
  178SOL    HW2  478   4.715   5.446   5.542  1.7428 -0.4964 -0.7821
  178SOL    HW3  479   4.732   5.584   5.601  0.2223 -0.4226 -0.4726
  178SOL    MW4  480   4.730   5.497   5.610 -0.0249 -0.4107 -0.4005
  179SOL     OW  481   0.792   3.210   1.853 -0.1685 -0.6311  0.0237
  179SOL    HW2  482   0.879   3.231   1.819 -0.2657 -0.3367 -0.0490
  179SOL    HW3  483   0.788   3.115   1.853 -1.1252 -0.7327 -3.3073
  179SOL    MW4  484   0.803   3.200   1.848 -0.3075 -0.6057 -0.4254
  180SOL     OW  485   1.564   4.400   0.969 -0.9115  0.2993 -0.2661
  180SOL    HW2  486   1.546   4.454   0.892 -0.2176 -0.0450 -0.6823
  180SOL    HW3  487   1.649   4.360   0.951 -0.8527  0.0188  0.5742
  180SOL    MW4  488   1.573   4.402   0.956 -0.8122  0.2168 -0.2102
  181SOL     OW  489   4.068   1.150   3.015 -0.9076 -1.2940 -0.4079
  181SOL    HW2  490   4.020   1.112   3.088  0.7681 -4.0518 -0.5717
  181SOL    HW3  491   4.155   1.109   3.020 -0.0464  0.0729 -2.6787
  181SOL    MW4  492   4.073   1.140   3.025 -0.5729 -1.4775 -0.7291
  182SOL     OW  493   2.560   6.127   4.865  0.8094 -0.1480 -0.2662
  182SOL    HW2  494   2.604   6.166   4.789  0.4995 -0.8387 -0.8083
  182SOL    HW3  495   2.522   6.202   4.911  2.5632  0.4843  0.2557
  182SOL    MW4  496   2.561   6.142   4.861  0.9999 -0.1557 -0.2689
  183SOL     OW  497   1.807   0.527   2.366  0.5290  0.3642  0.0064
  183SOL    HW2  498   1.773   0.600   2.314 -1.7726 -1.4321 -1.2054
  183SOL    HW3  499   1.891   0.506   2.326 -0.4371  0.0970 -1.9956
  183SOL    MW4  500   1.813   0.534   2.354  0.0979  0.0919 -0.4176
  184SOL     OW  501   6.095   5.978   1.656  0.6796 -0.4800  0.4688
  184SOL    HW2  502   6.070   5.927   1.579 -0.7558  0.6857  0.1018
  184SOL    HW3  503   6.139   5.916   1.713 -0.3975 -1.9707 -0.2490
  184SOL    MW4  504   6.097   5.963   1.653  0.3481 -0.5229  0.3257
  185SOL     OW  505   3.505   0.821   2.816 -0.0891 -0.5069  0.1122
  185SOL    HW2  506   3.419   0.804   2.856 -0.5474  0.9961 -0.1874
  185SOL    HW3  507   3.511   0.756   2.746  0.1442 -2.2946  1.6832
  185SOL    MW4  508   3.494   0.810   2.812 -0.1188 -0.5445  0.2800
  186SOL     OW  509   0.746   4.385   4.406  0.4760 -0.4288  0.1387
  186SOL    HW2  510   0.699   4.329   4.345 -0.4509  1.3351 -0.8339
  186SOL    HW3  511   0.808   4.433   4.351 -1.9624  2.9382 -0.0028
  186SOL    MW4  512   0.748   4.384   4.391  0.0320  0.2481 -0.0083
  187SOL     OW  513   5.599   1.318   6.108  0.0814  0.1163 -0.0657
  187SOL    HW2  514   5.662   1.246   6.108  2.0822  1.6969  1.8745
  187SOL    HW3  515   5.524   1.286   6.158  0.8034 -0.7187  0.4993
  187SOL    MW4  516   5.598   1.305   6.115  0.4406  0.2147  0.2648
  188SOL     OW  517   2.623   6.205   1.971 -0.1118  0.3437  0.0946
  188SOL    HW2  518   2.544   6.160   1.940 -0.5911  2.0246 -1.2968
  188SOL    HW3  519   2.695   6.159   1.928 -0.6687  1.5335 -2.2769
  188SOL    MW4  520   2.622   6.193   1.961 -0.2485  0.7225 -0.4018
  189SOL     OW  521   0.206   4.846   4.397  0.6085  0.2869  0.0922
  189SOL    HW2  522   0.184   4.754   4.415  1.8402 -0.0527  0.0311
  189SOL    HW3  523   0.206   4.852   4.301 -1.0159  0.7763  0.1068
  189SOL    MW4  524   0.203   4.834   4.387  0.5567  0.3066  0.0861
  190SOL     OW  525   2.020   0.204   5.399 -0.0232  0.1905 -0.1750
  190SOL    HW2  526   1.936   0.249   5.410 -0.4259 -0.9390  1.6335
  190SOL    HW3  527   2.083   0.259   5.446  0.2927  0.9785 -1.4390
  190SOL    MW4  528   2.017   0.217   5.406 -0.0346  0.1454 -0.1031
  191SOL     OW  529   0.325   1.606   0.721 -0.0183  0.0904 -0.3016
  191SOL    HW2  530   0.245   1.565   0.688  0.1576  0.0669 -0.7119
  191SOL    HW3  531   0.395   1.551   0.686  0.2259  0.7835 -0.9385
  191SOL    MW4  532   0.324   1.593   0.712  0.0372  0.1787 -0.4397
  192SOL     OW  533   1.261   5.684   4.022  0.3613  0.0272  0.0429
  192SOL    HW2  534   1.220   5.706   3.939  0.3521  2.0886  0.5439
  192SOL    HW3  535   1.323   5.755   4.038 -0.8431  0.6304  2.5745
  192SOL    MW4  536   1.264   5.696   4.014  0.2012  0.3788  0.4430
  193SOL     OW  537   0.694   0.785   2.964 -0.6121 -0.3559 -0.0015
  193SOL    HW2  538   0.710   0.758   2.873  1.2361  0.7693 -0.0662
  193SOL    HW3  539   0.696   0.704   3.014 -2.4463 -1.0888 -1.0159
  193SOL    MW4  540   0.697   0.771   2.959 -0.6103 -0.3042 -0.1439
  194SOL     OW  541   1.995   4.836   0.676  0.0655  0.9179  0.2245
  194SOL    HW2  542   1.900   4.825   0.677  0.3324 -4.4675 -1.8349
  194SOL    HW3  543   2.021   4.820   0.767 -0.9158  0.3574  0.4284
  194SOL    MW4  544   1.986   4.832   0.688 -0.0287  0.1334 -0.0203
  195SOL     OW  545   5.277   2.564   2.256 -0.5294 -0.1321  0.1815
  195SOL    HW2  546   5.320   2.637   2.300  0.0077 -0.2503 -0.1395
  195SOL    HW3  547   5.348   2.515   2.214 -1.0802  0.4084 -1.4738
  195SOL    MW4  548   5.292   2.567   2.256 -0.5312 -0.0764 -0.0793
  196SOL     OW  549   4.515   0.243   0.938  0.4620 -0.5532  0.2359
  196SOL    HW2  550   4.581   0.184   0.976  1.5646 -0.2750 -1.1448
  196SOL    HW3  551   4.565   0.319   0.909 -0.8596  0.8599  1.4621
  196SOL    MW4  552   4.531   0.245   0.939  0.4331 -0.3300  0.2155
  197SOL     OW  553   4.436   5.905   0.090 -0.8338 -0.2147  0.1800
  197SOL    HW2  554   4.446   5.842   0.018  3.0609 -0.7273  0.9377
  197SOL    HW3  555   4.463   5.989   0.052 -1.5852  0.1049  0.3374
  197SOL    MW4  556   4.441   5.908   0.075 -0.4191 -0.2401  0.3007
  198SOL     OW  557   5.854   1.940   0.869 -0.5803 -0.5137 -0.1604
  198SOL    HW2  558   5.901   1.932   0.952  1.7281  1.2024 -1.1611
  198SOL    HW3  559   5.821   2.030   0.869 -1.1749 -0.7256 -0.7849
  198SOL    MW4  560   5.856   1.951   0.880 -0.3542 -0.3152 -0.3748
  199SOL     OW  561   1.011   3.656   0.222  0.3772  0.2418  0.3413
  199SOL    HW2  562   1.066   3.657   0.301 -1.4489  0.3461  1.6763
  199SOL    HW3  563   0.997   3.749   0.202 -0.5784  0.2419  0.9583
  199SOL    MW4  564   1.017   3.669   0.230  0.0102  0.2556  0.5988
  200SOL     OW  565   1.557   2.860   2.514 -0.2623 -0.8287 -0.6750
  200SOL    HW2  566   1.461   2.860   2.525 -0.2670  1.8046  0.1487
  200SOL    HW3  567   1.576   2.944   2.472  1.8458  0.0125  1.6900
  200SOL    MW4  568   1.547   2.871   2.510  0.0153 -0.3703 -0.2543
  201SOL     OW  569   4.291   4.211   0.213  0.1650  0.2772 -0.1421
  201SOL    HW2  570   4.355   4.164   0.159 -0.4841 -2.2882  1.1754
  201SOL    HW3  571   4.207   4.192   0.172 -0.3027 -1.4517  1.4995
  201SOL    MW4  572   4.288   4.203   0.200  0.0176 -0.2894  0.2483
  202SOL     OW  573   2.019   1.073   4.860  0.2134 -0.3363 -0.9297
  202SOL    HW2  574   1.947   1.029   4.815 -0.1658 -0.1679 -0.4947
  202SOL    HW3  575   2.020   1.035   4.948 -1.2269  1.6753  0.0322
  202SOL    MW4  576   2.010   1.062   4.866 -0.0266 -0.0487 -0.7454
  203SOL     OW  577   4.439   2.740   4.520  0.1327 -0.0888  0.1330
  203SOL    HW2  578   4.530   2.749   4.547 -0.2972  2.6585  0.9757
  203SOL    HW3  579   4.389   2.751   4.601 -0.9986  1.1891 -0.6941
  203SOL    MW4  580   4.444   2.743   4.534 -0.0733  0.4422  0.1351
  204SOL     OW  581   6.285   2.200   0.205 -0.3361 -0.3987  0.0520
  204SOL    HW2  582   6.377   2.208   0.181  0.2049 -2.2437  1.3058
  204SOL    HW3  583   6.244   2.157   0.129 -0.3338  0.9832 -0.7626
  204SOL    MW4  584   6.291   2.195   0.191 -0.2644 -0.4598  0.1099
  205SOL     OW  585   3.346   4.929   1.762 -0.2186  0.3214 -1.0318
  205SOL    HW2  586   3.251   4.934   1.773 -0.2336  1.4045 -1.5317
  205SOL    HW3  587   3.380   4.999   1.817  0.2429  0.3928 -1.4047
  205SOL    MW4  588   3.338   4.939   1.770 -0.1597  0.4737 -1.1470
  206SOL     OW  589   2.702   2.509   1.652 -0.1017  0.0275 -0.0358
  206SOL    HW2  590   2.618   2.490   1.610  1.0454 -1.3002 -1.9254
  206SOL    HW3  591   2.735   2.424   1.679  1.0982  0.3857 -0.3120
  206SOL    MW4  592   2.695   2.495   1.650  0.2079 -0.1004 -0.3216
  207SOL     OW  593   0.650   1.722   4.618 -0.2388 -0.0975 -0.9526
  207SOL    HW2  594   0.686   1.709   4.705 -0.9140 -1.5613 -0.8556
  207SOL    HW3  595   0.679   1.810   4.592 -0.0989  0.3906  0.7613
  207SOL    MW4  596   0.658   1.732   4.626 -0.3094 -0.2262 -0.7137
  208SOL     OW  597   4.229   2.044   6.209 -0.0284  0.3315  0.4336
  208SOL    HW2  598   4.231   2.115   6.145 -0.2570  0.9119  1.0526
  208SOL    HW3  599   4.145   2.054   6.254  0.4108  0.3566  1.2778
  208SOL    MW4  600   4.218   2.054   6.207 -0.0006  0.4114  0.6267
  209SOL     OW  601   2.484   4.737   1.135 -0.1451 -0.1157 -0.2708
  209SOL    HW2  602   2.485   4.656   1.083 -0.3722 -0.2164 -0.1218
  209SOL    HW3  603   2.574   4.768   1.133  0.7970 -2.2192  2.5192
  209SOL    MW4  604   2.496   4.730   1.128 -0.0508 -0.4065  0.1170
  210SOL     OW  605   0.555   6.033   5.641 -0.6434  0.8601 -0.2749
  210SOL    HW2  606   0.640   6.077   5.649 -0.3281  0.1517  0.3412
  210SOL    HW3  607   0.516   6.042   5.728 -0.6609  0.1021 -0.1994
  210SOL    MW4  608   0.561   6.040   5.654 -0.6041  0.6667 -0.1837
  211SOL     OW  609   5.323   2.479   0.349  0.6354  0.1653 -0.1755
  211SOL    HW2  610   5.303   2.572   0.354  0.2696  0.0775  0.0416
  211SOL    HW3  611   5.277   2.449   0.270  1.0445  0.2398 -0.4429
  211SOL    MW4  612   5.314   2.487   0.339  0.6411  0.1635 -0.1821
  212SOL     OW  613   3.605   0.265   1.682 -0.2027 -0.5321 -0.1636
  212SOL    HW2  614   3.670   0.200   1.656 -0.6934 -0.2565 -2.2610
  212SOL    HW3  615   3.557   0.284   1.601 -0.7154  1.7158  0.6129
  212SOL    MW4  616   3.607   0.259   1.668 -0.3351 -0.1991 -0.3379
  213SOL     OW  617   2.464   3.045   2.291  0.0915  0.5770 -0.0041
  213SOL    HW2  618   2.513   3.022   2.370 -0.4580 -0.0721  0.1513
  213SOL    HW3  619   2.376   3.066   2.322  0.0611  0.9949 -0.3664
  213SOL    MW4  620   2.459   3.045   2.305  0.0150  0.5465 -0.0314
  214SOL     OW  621   6.110   1.515   3.992  0.1637  0.0273 -0.1519
  214SOL    HW2  622   6.059   1.588   4.027 -1.0386 -0.2016 -1.3589
  214SOL    HW3  623   6.104   1.447   4.059  1.5945  1.1140  1.1513
  214SOL    MW4  624   6.103   1.516   4.006  0.1939  0.1405 -0.1392
  215SOL     OW  625   4.303   0.192   4.746  0.3770  0.3531  0.6004
  215SOL    HW2  626   4.263   0.112   4.710  1.5334 -2.1693  4.2963
  215SOL    HW3  627   4.389   0.196   4.705 -0.8410  1.7407 -2.0610
  215SOL    MW4  628   4.309   0.182   4.736  0.3688  0.2034  0.7369
  216SOL     OW  629   1.863   2.620   2.823 -0.5487  0.2576 -0.1988
  216SOL    HW2  630   1.842   2.691   2.762 -0.8772  0.6017  0.3133
  216SOL    HW3  631   1.788   2.561   2.817 -0.5599  0.2681 -0.1585
  216SOL    MW4  632   1.850   2.621   2.814 -0.5935  0.3044 -0.1259
  217SOL     OW  633   3.882   0.727   1.810  0.1406 -0.2570  0.6643
  217SOL    HW2  634   3.819   0.655   1.805 -2.1815  1.6002  1.1908
  217SOL    HW3  635   3.878   0.769   1.724 -0.6444  0.8482  1.2127
  217SOL    MW4  636   3.873   0.723   1.798 -0.2693  0.1338  0.8061
  218SOL     OW  637   0.721   0.389   0.948 -0.1978 -0.0862  0.0032
  218SOL    HW2  638   0.768   0.358   1.025  1.8624 -1.1142 -1.5923
  218SOL    HW3  639   0.750   0.480   0.937 -0.0477 -0.1227  0.1005
  218SOL    MW4  640   0.731   0.397   0.957  0.0938 -0.2266 -0.1945
  219SOL     OW  641   1.060   0.169   1.416  0.6474 -0.0455  0.1045
  219SOL    HW2  642   1.066   0.074   1.406  1.2384  0.0558 -0.5266
  219SOL    HW3  643   1.113   0.205   1.345 -0.8743  0.7874 -0.6604
  219SOL    MW4  644   1.067   0.161   1.406  0.5246  0.0778 -0.0797
  220SOL     OW  645   0.042   6.056   4.760 -0.0251 -0.2659 -0.3030
  220SOL    HW2  646   0.061   6.134   4.708  2.5870 -0.8752 -0.3887
  220SOL    HW3  647   0.021   6.090   4.847  2.4709  0.5928  0.0589
  220SOL    MW4  648   0.042   6.071   4.764  0.6488 -0.2330 -0.2665
  221SOL     OW  649   0.079   3.438   0.132  0.1887 -0.5164 -0.2988
  221SOL    HW2  650   0.096   3.371   0.065 -2.5943 -0.8702 -0.7729
  221SOL    HW3  651   0.006   3.403   0.183 -0.2884  1.4737  0.4715
  221SOL    MW4  652   0.072   3.425   0.130 -0.2414 -0.3005 -0.2598
  222SOL     OW  653   2.247   6.337   3.072  0.2069 -0.6298  0.2236
  222SOL    HW2  654   2.290   6.350   2.987 -2.4518 -0.6150 -1.2450
  222SOL    HW3  655   2.175   6.401   3.071  0.3647 -0.3369  2.7241
  222SOL    MW4  656   2.243   6.347   3.060 -0.1231 -0.5892  0.3597
  223SOL     OW  657   3.057   2.504   2.467  0.0531  0.2308 -0.0442
  223SOL    HW2  658   2.963   2.509   2.451  0.0874  1.1622  0.0120
  223SOL    HW3  659   3.070   2.545   2.552  0.4400 -0.4700  0.2408
  223SOL    MW4  660   3.047   2.510   2.476  0.1086  0.2612  0.0008
  224SOL     OW  661   5.986   5.524   4.511 -0.7002  0.2009  0.1543
  224SOL    HW2  662   5.927   5.598   4.524 -0.3041  0.7381 -0.9925
  224SOL    HW3  663   5.928   5.449   4.498 -1.1265  0.6374 -0.4893
  224SOL    MW4  664   5.971   5.524   4.511 -0.7042  0.3294 -0.0820
  225SOL     OW  665   4.046   4.055   4.872 -0.1861 -0.8440  0.6567
  225SOL    HW2  666   3.978   3.993   4.897 -1.6813  0.9805  1.2659
  225SOL    HW3  667   4.045   4.122   4.940 -0.2821  1.1164 -1.1762
  225SOL    MW4  668   4.037   4.055   4.884 -0.3961 -0.3446  0.4953
  226SOL     OW  669   2.752   1.587   1.899 -0.3162 -0.2652 -0.3656
  226SOL    HW2  670   2.757   1.640   1.820 -2.4566  2.6236  1.2736
  226SOL    HW3  671   2.661   1.593   1.927  0.3034 -1.4143  2.1777
  226SOL    MW4  672   2.741   1.595   1.892 -0.5168 -0.0356  0.1862
  227SOL     OW  673   2.148   4.751   3.435 -0.7012  0.4143  0.5092
  227SOL    HW2  674   2.120   4.777   3.347 -1.4089  1.8588  1.1328
  227SOL    HW3  675   2.147   4.832   3.485  0.1631 -0.3086  1.7435
  227SOL    MW4  676   2.144   4.765   3.430 -0.6806  0.5095  0.7543
  228SOL     OW  677   1.694   3.874   2.544  0.1908  0.4154  0.4496
  228SOL    HW2  678   1.756   3.804   2.561 -0.5404  0.2978  3.0820
  228SOL    HW3  679   1.608   3.837   2.567 -0.3719  1.7059  0.5545
  228SOL    MW4  680   1.691   3.860   2.550  0.0201  0.5701  0.8108
  229SOL     OW  681   5.904   3.378   2.533  0.1048 -0.0941 -0.3453
  229SOL    HW2  682   5.903   3.353   2.440 -0.2523 -0.4886 -0.2396
  229SOL    HW3  683   5.822   3.426   2.546  1.6157  2.8566 -0.9819
  229SOL    MW4  684   5.893   3.381   2.522  0.2570  0.2431 -0.4153
  230SOL     OW  685   4.314   2.562   3.463  0.1646  0.4548  0.8964
  230SOL    HW2  686   4.374   2.529   3.397 -1.1673 -0.3779  0.0549
  230SOL    HW3  687   4.366   2.566   3.543  1.0953 -1.1753  0.4202
  230SOL    MW4  688   4.328   2.558   3.465  0.1117  0.1298  0.7225
  231SOL     OW  689   1.597   0.143   5.478  0.2636 -0.1244 -0.0225
  231SOL    HW2  690   1.683   0.101   5.473  0.6923  0.8353 -0.8448
  231SOL    HW3  691   1.568   0.125   5.567  1.6004  0.0849  0.4828
  231SOL    MW4  692   1.605   0.135   5.489  0.4966  0.0299 -0.0643
  232SOL     OW  693   0.297   0.273   4.503 -0.3830  0.2961 -0.5176
  232SOL    HW2  694   0.282   0.207   4.434 -0.1000 -0.2281 -0.0844
  232SOL    HW3  695   0.386   0.257   4.533 -0.3490  0.8165 -0.3301
  232SOL    MW4  696   0.306   0.262   4.498 -0.3412  0.2956 -0.4357
  233SOL     OW  697   5.550   4.299   5.377  0.4870 -0.5312 -0.6290
  233SOL    HW2  698   5.601   4.298   5.459  0.4516 -1.5774 -0.6075
  233SOL    HW3  699   5.598   4.241   5.318 -0.1777 -0.7821 -0.9272
  233SOL    MW4  700   5.563   4.291   5.380  0.3946 -0.7023 -0.6655
  234SOL     OW  701   0.701   6.309   6.169 -1.0076  0.2661  0.3295
  234SOL    HW2  702   0.708   6.396   6.129 -1.6153 -0.1109 -0.6542
  234SOL    HW3  703   0.735   6.320   6.257 -0.1419  1.2744 -0.1072
  234SOL    MW4  704   0.706   6.322   6.175 -0.9735  0.3494  0.1421
  235SOL     OW  705   1.305   2.037   1.403  0.0092  0.1312 -0.2115
  235SOL    HW2  706   1.338   1.967   1.460 -0.1940  0.3304  0.1524
  235SOL    HW3  707   1.357   2.114   1.428  1.8910 -0.4090 -2.2234
  235SOL    MW4  708   1.316   2.038   1.414  0.2307  0.0862 -0.4289
  236SOL     OW  709   3.973   0.448   2.694  0.6544 -0.0552 -0.3392
  236SOL    HW2  710   3.951   0.464   2.603  0.7455  0.3056 -0.2966
  236SOL    HW3  711   3.997   0.533   2.729 -0.5460  0.0275  0.3364
  236SOL    MW4  712   3.973   0.461   2.687  0.5081  0.0033 -0.2445
  237SOL     OW  713   6.155   3.403   0.190 -0.7407 -0.5645 -0.2974
  237SOL    HW2  714   6.203   3.470   0.238  0.3086  0.5633 -2.8037
  237SOL    HW3  715   6.193   3.320   0.220  0.8727  0.1758 -0.2335
  237SOL    MW4  716   6.166   3.401   0.201 -0.3894 -0.3180 -0.6197
  238SOL     OW  717   2.977   0.226   5.178  0.1791 -0.2606 -0.4199
  238SOL    HW2  718   3.073   0.229   5.173  0.2659 -0.8241  0.6894
  238SOL    HW3  719   2.949   0.223   5.087  1.1927  0.4809 -0.7764
  238SOL    MW4  720   2.986   0.226   5.165  0.3243 -0.2371 -0.3206
  239SOL     OW  721   2.179   5.447   2.918  0.1673 -0.2450 -0.4262
  239SOL    HW2  722   2.262   5.478   2.881  0.0602  0.9704  0.2994
  239SOL    HW3  723   2.204   5.383   2.984  0.5035 -0.2854 -0.5936
  239SOL    MW4  724   2.193   5.443   2.921  0.1975 -0.0900 -0.3525
  240SOL     OW  725   3.989   3.168   2.372  0.3154 -0.6316  0.3111
  240SOL    HW2  726   3.952   3.155   2.460 -3.7610  0.2756 -1.0781
  240SOL    HW3  727   4.008   3.080   2.341 -0.5536 -1.1574  1.2138
  240SOL    MW4  728   3.987   3.155   2.380 -0.3371 -0.5813  0.2469
  241SOL     OW  729   1.660   4.415   1.730 -0.0145  1.0052  0.0177
  241SOL    HW2  730   1.629   4.504   1.719  0.1581  1.0887  0.2167
  241SOL    HW3  731   1.751   4.417   1.702 -0.0222  0.8833 -0.0181
  241SOL    MW4  732   1.668   4.427   1.725  0.0073  1.0001  0.0392
  242SOL     OW  733   0.350   4.659   3.979  0.0504 -0.0438  0.1445
  242SOL    HW2  734   0.432   4.707   3.996  0.1205 -0.1168  0.0131
  242SOL    HW3  735   0.316   4.698   3.899  0.1801 -0.3083 -0.0414
  242SOL    MW4  736   0.357   4.670   3.971  0.0768 -0.0883  0.1026
  243SOL     OW  737   1.771   5.117   6.144 -0.0477 -0.3682 -0.1457
  243SOL    HW2  738   1.817   5.037   6.119  0.6442 -0.2603  0.7402
  243SOL    HW3  739   1.824   5.188   6.108  0.3456 -0.2514  0.6584
  243SOL    MW4  740   1.784   5.116   6.136  0.0955 -0.3386  0.0773
  244SOL     OW  741   0.159   4.782   4.131  0.2726 -0.4159  0.0526
  244SOL    HW2  742   0.173   4.871   4.098 -0.5961 -0.2606  0.0649
  244SOL    HW3  743   0.213   4.726   4.075  0.1447  0.0350 -0.5304
  244SOL    MW4  744   0.168   4.786   4.119  0.1411 -0.3359 -0.0227
  245SOL     OW  745   5.728   0.325   3.560  0.4515  0.0306 -0.5088
  245SOL    HW2  746   5.633   0.336   3.554  0.3435 -1.4201 -2.1375
  245SOL    HW3  747   5.759   0.407   3.599 -1.4939  0.3425  0.4774
  245SOL    MW4  748   5.720   0.338   3.564  0.1806 -0.1196 -0.5936
  246SOL     OW  749   2.283   2.054   4.649  0.4762 -0.6485 -0.0609
  246SOL    HW2  750   2.339   2.127   4.675  0.7691 -0.3482 -1.4780
  246SOL    HW3  751   2.339   1.998   4.595  0.2582 -1.9468  1.0078
  246SOL    MW4  752   2.297   2.056   4.645  0.4861 -0.7802 -0.1068
  247SOL     OW  753   0.858   4.553   6.237  0.3623  0.3755  0.1633
  247SOL    HW2  754   0.948   4.571   6.265  0.7952 -0.3404 -0.6998
  247SOL    HW3  755   0.849   4.603   6.155  0.7795 -1.3630 -0.9916
  247SOL    MW4  756   0.869   4.562   6.230  0.4745  0.0517 -0.1030
  248SOL     OW  757   1.282   5.313   4.328  0.3011 -0.0853  0.0143
  248SOL    HW2  758   1.217   5.248   4.355  0.3565 -0.8708 -1.5772
  248SOL    HW3  759   1.239   5.397   4.338 -0.2834 -0.4690  0.7704
  248SOL    MW4  760   1.268   5.315   4.333  0.2313 -0.2396 -0.0959
  249SOL     OW  761   0.304   5.230   6.275 -0.5867 -0.2352 -0.0962
  249SOL    HW2  762   0.267   5.161   6.220  0.0039 -0.2707 -0.4510
  249SOL    HW3  763   0.312   5.305   6.217 -0.6752 -0.0444  0.1373
  249SOL    MW4  764   0.300   5.231   6.260 -0.5205 -0.2147 -0.1122
  250SOL     OW  765   2.028   1.656   5.237 -0.1608  0.1585  0.3980
  250SOL    HW2  766   1.941   1.694   5.249 -1.1822 -2.5136  2.5246
  250SOL    HW3  767   2.084   1.705   5.297 -0.4657  1.0311 -0.0101
  250SOL    MW4  768   2.024   1.667   5.246 -0.3358 -0.0789  0.6247
  251SOL     OW  769   4.774   1.583   4.651 -0.1377  0.5124  0.2250
  251SOL    HW2  770   4.840   1.640   4.612 -0.3080  1.9470  1.8800
  251SOL    HW3  771   4.691   1.622   4.626 -0.3725 -0.7503 -1.0738
  251SOL    MW4  772   4.772   1.596   4.643 -0.1912  0.5351  0.2720
  252SOL     OW  773   2.153   2.405   2.045 -0.5315 -0.0361  0.0754
  252SOL    HW2  774   2.147   2.495   2.077 -2.8611 -0.4046  0.8298
  252SOL    HW3  775   2.222   2.365   2.098  0.6461  1.3042 -0.3845
  252SOL    MW4  776   2.161   2.411   2.056 -0.6835  0.0921  0.1143
  253SOL     OW  777   3.373   1.184   1.195  0.2625  0.4002  0.2813
  253SOL    HW2  778   3.392   1.225   1.110 -0.1447 -0.5013 -0.2594
  253SOL    HW3  779   3.459   1.168   1.234  0.5626 -0.9821 -0.8542
  253SOL    MW4  780   3.387   1.187   1.189  0.2484  0.0989  0.0602
  254SOL     OW  781   4.074   2.232   1.324  0.2732 -0.3149  0.0211
  254SOL    HW2  782   3.982   2.203   1.323  0.6862 -1.7519 -1.3472
  254SOL    HW3  783   4.079   2.299   1.255 -0.0098  0.7516  1.0150
  254SOL    MW4  784   4.062   2.237   1.314  0.2903 -0.3638 -0.0283
  255SOL     OW  785   4.618   1.481   5.753 -0.6606  0.0374 -0.4924
  255SOL    HW2  786   4.569   1.434   5.686 -1.0366 -0.8953  0.4172
  255SOL    HW3  787   4.691   1.424   5.775  0.1173  0.8452 -0.9030
  255SOL    MW4  788   4.621   1.467   5.747 -0.6076  0.0209 -0.4266
  256SOL     OW  789   5.802   3.630   2.675 -0.5324 -0.3043 -0.7390
  256SOL    HW2  790   5.800   3.571   2.750  0.0095 -1.6558 -1.7430
  256SOL    HW3  791   5.734   3.596   2.616 -0.0974 -0.0473 -1.4040
  256SOL    MW4  792   5.793   3.617   2.677 -0.4035 -0.4487 -0.9592
  257SOL     OW  793   4.318   3.458   1.085 -0.0598 -0.6439 -0.0036
  257SOL    HW2  794   4.276   3.379   1.120  1.1834 -0.4198  2.1713
  257SOL    HW3  795   4.288   3.529   1.141  0.3851  0.1219 -0.7076
  257SOL    MW4  796   4.309   3.457   1.097  0.1629 -0.5133  0.1905
  258SOL     OW  797   1.983   4.160   4.379 -0.0726 -0.7067  0.5948
  258SOL    HW2  798   1.992   4.164   4.284  1.4500 -2.3283  0.6096
  258SOL    HW3  799   1.932   4.081   4.395  0.7342 -1.1305  1.1426
  258SOL    MW4  800   1.977   4.150   4.368  0.2347 -0.9765  0.6691
  259SOL     OW  801   0.899   6.222   1.572 -0.3047  0.0077 -0.4951
  259SOL    HW2  802   0.814   6.254   1.544 -1.7480 -2.4242  0.7222
  259SOL    HW3  803   0.926   6.282   1.642 -1.6473  0.1043 -0.0248
  259SOL    MW4  804   0.891   6.234   1.577 -0.6723 -0.3004 -0.2724
  260SOL     OW  805   0.355   3.383   0.587  0.1954  0.7767  0.0414
  260SOL    HW2  806   0.331   3.447   0.520 -0.2484  1.4046  0.7749
  260SOL    HW3  807   0.279   3.381   0.645  1.1971  1.4802  1.4318
  260SOL    MW4  808   0.342   3.391   0.586  0.2690  0.9524  0.3216
  261SOL     OW  809   5.474   5.582   1.433 -0.2871 -0.2455 -0.1958
  261SOL    HW2  810   5.459   5.492   1.404 -1.0894  0.1035 -0.9218
  261SOL    HW3  811   5.546   5.576   1.495 -0.4981 -1.4241 -0.0433
  261SOL    MW4  812   5.481   5.570   1.437 -0.4208 -0.3550 -0.2715
  262SOL     OW  813   1.808   4.058   3.587  0.1502 -0.1914 -0.4270
  262SOL    HW2  814   1.790   3.985   3.529 -0.2149  0.7534 -1.5360
  262SOL    HW3  815   1.823   4.132   3.529  1.3705  0.4525  0.6380
  262SOL    MW4  816   1.808   4.058   3.572  0.2630  0.0182 -0.4328
  263SOL     OW  817   4.417   2.635   1.152 -0.0817 -0.1156 -0.3468
  263SOL    HW2  818   4.385   2.594   1.232  1.5410 -0.3574  0.2235
  263SOL    HW3  819   4.416   2.729   1.171  2.7022 -0.2612  1.0045
  263SOL    MW4  820   4.413   2.642   1.165  0.4997 -0.1667 -0.0933
  264SOL     OW  821   4.846   2.658   5.179  0.1895 -1.0228  0.2925
  264SOL    HW2  822   4.755   2.653   5.207  0.4123 -0.9321  1.0688
  264SOL    HW3  823   4.884   2.728   5.232  0.3284  0.0320 -1.1605
  264SOL    MW4  824   4.839   2.666   5.190  0.2372 -0.8717  0.2032
  265SOL     OW  825   6.202   0.859   6.078  0.6320  0.0614 -0.6267
  265SOL    HW2  826   6.152   0.939   6.058 -0.6047 -1.0751 -2.3291
  265SOL    HW3  827   6.186   0.844   6.171 -1.4743  0.2766 -0.9011
  265SOL    MW4  828   6.193   0.868   6.088  0.1909 -0.0601 -0.8875
  266SOL     OW  829   4.872   6.396   6.158  0.1626  0.1751  0.0913
  266SOL    HW2  830   4.914   6.477   6.187 -0.1988  0.0875  0.8760
  266SOL    HW3  831   4.944   6.341   6.127  0.2610  1.6003 -2.5900
  266SOL    MW4  832   4.887   6.399   6.157  0.1279  0.3516 -0.1590
  267SOL     OW  833   1.750   3.190   3.724 -0.0121  0.3694 -0.3950
  267SOL    HW2  834   1.718   3.178   3.813 -1.8505 -0.4919 -1.1173
  267SOL    HW3  835   1.797   3.109   3.705 -3.4777 -1.5921 -1.6528
  267SOL    MW4  836   1.752   3.178   3.733 -0.7119 -0.0030 -0.6562
  268SOL     OW  837   0.031   3.335   3.255  0.4316 -0.2427 -0.4766
  268SOL    HW2  838   0.041   3.305   3.165  1.0704  0.7356 -0.7377
  268SOL    HW3  839  -0.001   3.425   3.247  0.2638 -0.2288  0.2807
  268SOL    MW4  840   0.028   3.343   3.242  0.4937 -0.1118 -0.4111
  269SOL     OW  841   3.301   5.194   2.988 -0.1228  0.1762 -0.1774
  269SOL    HW2  842   3.246   5.272   2.983  0.6303  0.8746  1.5986
  269SOL    HW3  843   3.252   5.133   3.044 -0.0357 -0.0245 -0.3176
  269SOL    MW4  844   3.287   5.196   2.995 -0.0120  0.2419  0.0384
  270SOL     OW  845   4.676   6.153   3.127  0.5319  0.0117  0.0519
  270SOL    HW2  846   4.618   6.088   3.164  1.0973 -0.3036  0.4017
  270SOL    HW3  847   4.722   6.190   3.202  1.3073 -0.2686 -0.2719
  270SOL    MW4  848   4.675   6.149   3.141  0.7088 -0.0669  0.0553
  271SOL     OW  849   2.690   4.078   2.991  0.2379 -0.4382  0.3502
  271SOL    HW2  850   2.666   4.124   3.072 -2.0112  0.7228 -0.8690
  271SOL    HW3  851   2.682   3.985   3.013 -1.6678 -0.1331  1.1441
  271SOL    MW4  852   2.686   4.072   3.005 -0.3103 -0.2448  0.2941
  272SOL     OW  853   1.328   4.374   3.812 -0.8170  0.2802  0.3543
  272SOL    HW2  854   1.340   4.377   3.907  1.2361 -0.1448  0.1530
  272SOL    HW3  855   1.344   4.464   3.784  1.3695 -0.1063  0.1844
  272SOL    MW4  856   1.331   4.387   3.821 -0.2576  0.1731  0.3053
  273SOL     OW  857   1.738   0.030   2.984 -0.0183 -0.4820  0.1830
  273SOL    HW2  858   1.730  -0.062   3.008 -0.4117 -0.3092  0.7268
  273SOL    HW3  859   1.669   0.074   3.033  0.9949  0.2927  0.9724
  273SOL    MW4  860   1.728   0.023   2.993  0.0635 -0.3570  0.3589
  274SOL     OW  861   3.699   2.243   4.489  0.1859  0.5680  0.1841
  274SOL    HW2  862   3.781   2.282   4.520  1.0873 -0.6395 -0.5815
  274SOL    HW3  863   3.689   2.275   4.400  1.1508 -1.1589 -0.6033
  274SOL    MW4  864   3.708   2.252   4.481  0.4321  0.1808 -0.0208
  275SOL     OW  865   2.337   0.232   4.172  0.3061 -0.4166 -0.2261
  275SOL    HW2  866   2.362   0.154   4.122  1.8398  0.2951 -0.6270
  275SOL    HW3  867   2.420   0.268   4.203 -0.2794  1.5466 -0.7927
  275SOL    MW4  868   2.351   0.226   4.170  0.4312 -0.0637 -0.3538
  276SOL     OW  869   2.180   4.924   4.725  0.2345  0.1813 -0.0598
  276SOL    HW2  870   2.212   5.012   4.707  0.9559 -0.2982 -1.2634
  276SOL    HW3  871   2.109   4.910   4.663 -0.9801  0.4812  1.2159
  276SOL    MW4  872   2.175   4.934   4.714  0.1694  0.1576 -0.0503
  277SOL     OW  873   5.327   5.732   1.153  0.4176 -0.6658  0.1571
  277SOL    HW2  874   5.291   5.670   1.090  2.0095 -1.9477  0.4510
  277SOL    HW3  875   5.309   5.692   1.238 -1.4414  0.9033  0.5768
  277SOL    MW4  876   5.320   5.719   1.156  0.3824 -0.6279  0.2512
  278SOL     OW  877   4.553   6.305   1.413 -0.0039 -0.3529 -0.3859
  278SOL    HW2  878   4.504   6.321   1.332 -1.1209 -0.0185  0.3380
  278SOL    HW3  879   4.603   6.386   1.426 -1.9320  0.7548  0.6782
  278SOL    MW4  880   4.553   6.318   1.404 -0.4057 -0.1626 -0.1500
  279SOL     OW  881   3.020   4.070   5.710  0.2622  0.0307  0.1457
  279SOL    HW2  882   3.054   4.123   5.638  1.2061 -1.1625 -0.3288
  279SOL    HW3  883   3.021   4.128   5.785  0.1172  1.0397 -0.6117
  279SOL    MW4  884   3.025   4.085   5.710  0.3676  0.0064 -0.0169
  280SOL     OW  885   0.729   0.343   0.505  0.4920 -0.3246 -0.0452
  280SOL    HW2  886   0.674   0.300   0.440 -0.3230 -0.0973  0.4757
  280SOL    HW3  887   0.737   0.279   0.576  0.3218 -0.0881  0.1866
  280SOL    MW4  888   0.723   0.329   0.506  0.3620 -0.2634  0.0541
  281SOL     OW  889   1.349   5.656   4.787  0.9788 -0.1472  0.8482
  281SOL    HW2  890   1.311   5.710   4.855  3.3718 -0.4851  2.5748
  281SOL    HW3  891   1.440   5.686   4.780  1.8259 -2.5795  0.4676
  281SOL    MW4  892   1.356   5.667   4.795  1.4063 -0.5127  1.0258
  282SOL     OW  893   4.724   0.366   1.463  0.2177 -0.2550  0.2103
  282SOL    HW2  894   4.667   0.337   1.392  1.7365 -0.4612 -0.9872
  282SOL    HW3  895   4.780   0.290   1.482  1.6289  0.6316 -0.2671
  282SOL    MW4  896   4.724   0.352   1.456  0.6043 -0.1652 -0.0107
  283SOL     OW  897   4.481   1.678   0.682 -0.3023  0.3496 -0.2559
  283SOL    HW2  898   4.564   1.726   0.684 -0.3169  0.3420  0.9161
  283SOL    HW3  899   4.506   1.589   0.657  0.3062 -0.1070  1.7665
  283SOL    MW4  900   4.496   1.673   0.679 -0.2239  0.2884  0.1656
  284SOL     OW  901   0.885   5.502   3.637  0.1597 -0.7008  0.0573
  284SOL    HW2  902   0.797   5.522   3.603  0.5884  0.9519 -0.1950
  284SOL    HW3  903   0.943   5.554   3.582  1.2435 -1.2487  0.6639
  284SOL    MW4  904   0.881   5.512   3.625  0.3593 -0.5550  0.1041
  285SOL     OW  905   5.324   5.815   4.384  0.0178 -0.1592  0.1326
  285SOL    HW2  906   5.353   5.874   4.453  1.7628 -0.0997 -0.6023
  285SOL    HW3  907   5.251   5.860   4.343  1.0151  1.2848 -0.1156
  285SOL    MW4  908   5.318   5.829   4.388  0.3796  0.0392  0.0029
  286SOL     OW  909   0.788   5.738   3.382 -0.2904  0.0984  0.3942
  286SOL    HW2  910   0.706   5.729   3.334 -0.7376 -0.3791  1.2253
  286SOL    HW3  911   0.846   5.673   3.343 -0.6651 -0.3144  0.5110
  286SOL    MW4  912   0.785   5.729   3.371 -0.3988 -0.0190  0.5193
  287SOL     OW  913   0.079   0.446   4.586  0.3873  0.4840  0.1409
  287SOL    HW2  914   0.148   0.383   4.566 -1.8594 -1.4679 -2.2706
  287SOL    HW3  915   0.061   0.489   4.502 -1.5718  0.5901  0.5598
  287SOL    MW4  916   0.085   0.444   4.572 -0.1676  0.2405 -0.1220
  288SOL     OW  917   1.532   5.608   0.818  0.1613  0.0427  0.4713
  288SOL    HW2  918   1.532   5.654   0.902 -2.2085 -0.2269  0.6871
  288SOL    HW3  919   1.469   5.536   0.830  1.9566 -1.8304 -0.6197
  288SOL    MW4  920   1.524   5.604   0.831  0.0855 -0.2400  0.3558
  289SOL     OW  921   2.266   4.724   0.280 -0.1365 -0.0890  0.1406
  289SOL    HW2  922   2.194   4.683   0.233 -0.6679  1.0269 -0.0502
  289SOL    HW3  923   2.327   4.653   0.298 -0.8268 -0.8695 -0.5524
  289SOL    MW4  924   2.264   4.710   0.276 -0.2977 -0.0447  0.0240
  290SOL     OW  925   5.834   5.563   6.246  0.2282 -0.1153  0.1368
  290SOL    HW2  926   5.757   5.553   6.191 -1.0373  0.7474  1.6585
  290SOL    HW3  927   5.899   5.504   6.208 -1.3481 -1.2782 -0.8752
  290SOL    MW4  928   5.832   5.554   6.234 -0.1467 -0.1549  0.2041
  291SOL     OW  929   5.601   6.029   6.350  0.1210 -0.8845  0.7487
  291SOL    HW2  930   5.600   6.020   6.255  0.3276  0.3559  0.6161
  291SOL    HW3  931   5.688   5.999   6.376  1.2936  1.7191  0.1810
  291SOL    MW4  932   5.613   6.024   6.341  0.3030 -0.3773  0.6563
  292SOL     OW  933   6.386   5.807   3.953  0.8504 -0.3312  0.5175
  292SOL    HW2  934   6.332   5.881   3.923  0.3842 -0.5502  0.7918
  292SOL    HW3  935   6.325   5.753   4.003  1.1788 -0.9228  0.2882
  292SOL    MW4  936   6.371   5.809   3.955  0.8322 -0.4381  0.5235
  293SOL     OW  937   5.376   5.482   5.103  0.2434 -0.1445  0.4994
  293SOL    HW2  938   5.469   5.502   5.101  0.3035 -0.4703 -0.3736
  293SOL    HW3  939   5.342   5.517   5.021  0.2604 -3.0218 -0.8772
  293SOL    MW4  940   5.384   5.489   5.092  0.2535 -0.5671  0.2026
  294SOL     OW  941   5.024   1.740   0.439  0.0942  0.3156 -0.2154
  294SOL    HW2  942   5.076   1.819   0.427 -0.5837  0.4426 -3.0160
  294SOL    HW3  943   5.089   1.672   0.460  1.0940  0.9934 -0.9825
  294SOL    MW4  944   5.040   1.741   0.440  0.1367  0.4217 -0.6861
  295SOL     OW  945   6.247   0.525   3.972  0.1123 -0.0788 -0.0364
  295SOL    HW2  946   6.233   0.565   4.057 -1.8175 -1.0918  0.1570
  295SOL    HW3  947   6.294   0.444   3.991 -0.0236 -0.1414  0.0337
  295SOL    MW4  948   6.252   0.519   3.985 -0.1603 -0.2207 -0.0017
  296SOL     OW  949   2.376   0.049   1.148 -0.0750 -1.0029  0.3703
  296SOL    HW2  950   2.293   0.001   1.150 -1.6366  1.4311 -0.6846
  296SOL    HW3  951   2.394   0.062   1.055 -0.8547  2.0517  0.5144
  296SOL    MW4  952   2.367   0.045   1.136 -0.3839 -0.2787  0.2502
  297SOL     OW  953   3.216   4.811   5.155 -0.8340  0.3925 -0.0404
  297SOL    HW2  954   3.175   4.726   5.171  0.5803 -0.4101 -0.5413
  297SOL    HW3  955   3.142   4.872   5.150 -1.8415 -0.6756  0.9748
  297SOL    MW4  956   3.201   4.808   5.157 -0.7803  0.1457  0.0274
  298SOL     OW  957   3.509   5.619   1.257 -0.2455 -0.0229 -0.1687
  298SOL    HW2  958   3.511   5.701   1.306 -0.9393 -0.2114  0.1961
  298SOL    HW3  959   3.417   5.609   1.230 -0.2454 -0.8518  0.1029
  298SOL    MW4  960   3.497   5.629   1.260 -0.3370 -0.1571 -0.0847
  299SOL     OW  961   5.345   2.621   5.077 -0.1145  0.1280 -0.1747
  299SOL    HW2  962   5.340   2.525   5.083 -0.5899  0.1801  0.3088
  299SOL    HW3  963   5.310   2.641   4.990  1.4081 -0.2309 -0.9075
  299SOL    MW4  964   5.340   2.611   5.066  0.0237  0.0875 -0.2076
  300SOL     OW  965   4.899   0.593   4.248  0.1849  0.5433 -0.0341
  300SOL    HW2  966   4.963   0.541   4.297  0.1470 -0.2824 -0.8325
  300SOL    HW3  967   4.828   0.609   4.310  1.3207  1.8264  1.0037
  300SOL    MW4  968   4.898   0.588   4.263  0.3297  0.6037 -0.0025
  301SOL     OW  969   4.785   0.088   1.505  0.6010  0.1970 -0.1722
  301SOL    HW2  970   4.820   0.093   1.416  0.5104  0.6434 -0.1827
  301SOL    HW3  971   4.819   0.006   1.539  0.5087 -0.0546 -0.6736
  301SOL    MW4  972   4.794   0.078   1.497  0.5769  0.2227 -0.2397
  302SOL     OW  973   6.331   2.713   4.325  0.3935 -0.3715 -0.4992
  302SOL    HW2  974   6.353   2.801   4.355 -0.8384 -0.0447 -0.4961
  302SOL    HW3  975   6.370   2.654   4.391  1.0479  0.1703 -0.3950
  302SOL    MW4  976   6.339   2.717   4.338  0.3173 -0.2569 -0.4850
  303SOL     OW  977   1.567   2.327   1.086 -0.8181 -0.1608  0.1933
  303SOL    HW2  978   1.591   2.392   1.152  0.2634 -0.5107  0.1586
  303SOL    HW3  979   1.541   2.380   1.010 -0.3255  0.2393  0.2971
  303SOL    MW4  980   1.567   2.343   1.084 -0.6104 -0.1542  0.2024
  304SOL     OW  981   1.431   1.891   0.576  0.3150  0.4498  0.2724
  304SOL    HW2  982   1.416   1.849   0.660  0.1850 -0.9794 -0.4388
  304SOL    HW3  983   1.407   1.825   0.511 -0.5834  1.8794 -0.9036
  304SOL    MW4  984   1.426   1.877   0.579  0.1793  0.4499  0.0234
  305SOL     OW  985   0.735   5.144   3.422 -0.1287 -0.3923 -0.3024
  305SOL    HW2  986   0.768   5.120   3.336 -0.8328 -2.0814 -0.1426
  305SOL    HW3  987   0.813   5.170   3.471  0.2198  1.1135 -1.5700
  305SOL    MW4  988   0.749   5.145   3.417 -0.1756 -0.4165 -0.4485
  306SOL     OW  989   0.154   4.789   6.034  0.3323 -0.2177  0.1627
  306SOL    HW2  990   0.091   4.738   5.982 -2.9060  4.1045 -0.6732
  306SOL    HW3  991   0.218   4.821   5.970  2.6988 -3.2547  0.7678
  306SOL    MW4  992   0.154   4.786   6.018  0.2173 -0.0482  0.1322
  307SOL     OW  993   1.803   0.788   4.719  0.8168  0.1093  0.7170
  307SOL    HW2  994   1.790   0.852   4.648  1.7467  0.2624  0.6710
  307SOL    HW3  995   1.776   0.705   4.680  2.0560  0.0560 -0.1128
  307SOL    MW4  996   1.798   0.786   4.704  1.1030  0.1225  0.6014
  308SOL     OW  997   2.518   4.573   5.169 -0.2540 -0.5652  0.2211
  308SOL    HW2  998   2.461   4.625   5.112  0.7925 -1.4433 -1.7337
  308SOL    HW3  999   2.463   4.500   5.197  0.0255 -1.8949 -2.3618
  308SOL    MW4 1000   2.503   4.570   5.165 -0.0790 -0.8565 -0.3776
  309SOL     OW 1001   3.976   3.825   3.565  0.3481 -0.2331 -0.4191
  309SOL    HW2 1002   4.055   3.871   3.592 -0.3260  0.6933  0.0800
  309SOL    HW3 1003   3.994   3.796   3.476  2.0924 -2.0815  0.4728
  309SOL    MW4 1004   3.988   3.827   3.557  0.4893 -0.3547 -0.2356
  310SOL     OW 1005   2.978   2.565   5.035 -0.0349 -0.3801 -0.4949
  310SOL    HW2 1006   2.998   2.638   5.094  0.7617  1.0288 -2.4031
  310SOL    HW3 1007   3.059   2.515   5.030  0.3154  0.2570 -1.3804
  310SOL    MW4 1008   2.991   2.568   5.042  0.1164 -0.1102 -0.8635
  311SOL     OW 1009   2.597   1.693   2.627 -0.4518 -0.4645 -0.4774
  311SOL    HW2 1010   2.511   1.734   2.617 -0.8546 -1.0699  0.3974
  311SOL    HW3 1011   2.658   1.766   2.635 -0.9607 -0.0292 -0.5075
  311SOL    MW4 1012   2.594   1.708   2.627 -0.5721 -0.4869 -0.3659
  312SOL     OW 1013   0.072   0.520   2.011 -0.2296 -0.2147 -0.0085
  312SOL    HW2 1014   0.111   0.590   1.958 -2.2514  2.0669  1.3124
  312SOL    HW3 1015   0.091   0.546   2.102 -0.9413 -1.4693  0.5200
  312SOL    MW4 1016   0.080   0.533   2.016 -0.5903 -0.0792  0.2355
  313SOL     OW 1017   2.924   0.246   0.300  0.1872  0.0789  0.2346
  313SOL    HW2 1018   2.841   0.262   0.345  0.4618  0.3855  0.6426
  313SOL    HW3 1019   2.953   0.160   0.332  0.4850  0.3889  0.8135
  313SOL    MW4 1020   2.917   0.237   0.310  0.2627  0.1603  0.3648
  314SOL     OW 1021   3.031   1.336   3.474 -0.2111 -0.7073  0.3597
  314SOL    HW2 1022   3.101   1.401   3.478 -0.6200 -0.2802  0.6954
  314SOL    HW3 1023   3.010   1.318   3.566  0.4267 -1.9040  0.2953
  314SOL    MW4 1024   3.037   1.342   3.487 -0.1809 -0.8089  0.3955
  315SOL     OW 1025   1.566   5.489   0.244  0.0330 -0.2629  0.1436
  315SOL    HW2 1026   1.594   5.479   0.153  0.8788  2.3197  0.0325
  315SOL    HW3 1027   1.632   5.444   0.296 -0.2945 -1.4904 -0.4752
  315SOL    MW4 1028   1.578   5.482   0.239  0.1014 -0.0841  0.0473
  316SOL     OW 1029   4.269   3.411   5.990 -0.1864 -0.5871  0.6497
  316SOL    HW2 1030   4.334   3.443   6.053 -0.9454  0.3235  0.9875
  316SOL    HW3 1031   4.206   3.363   6.043 -0.1379 -0.9335  0.3999
  316SOL    MW4 1032   4.269   3.408   6.005 -0.2801 -0.5127  0.6613
  317SOL     OW 1033   1.898   0.077   4.015  0.3485 -0.0060  0.0327
  317SOL    HW2 1034   1.912   0.048   3.924  0.7966 -2.0981  0.7239
  317SOL    HW3 1035   1.807   0.104   4.018  0.0728 -0.7806 -0.8365
  317SOL    MW4 1036   1.888   0.077   4.003  0.3713 -0.3842  0.0092
  318SOL     OW 1037   0.956   5.644   0.048 -0.0157 -0.1413  0.3033
  318SOL    HW2 1038   1.030   5.692   0.083  0.1536  0.4311 -0.7891
  318SOL    HW3 1039   0.912   5.706  -0.010 -0.2484 -1.0507 -0.5251
  318SOL    MW4 1040   0.960   5.658   0.045 -0.0241 -0.1858  0.0499
  319SOL     OW 1041   5.532   3.383   1.288 -0.3147  0.5003 -0.4593
  319SOL    HW2 1042   5.525   3.397   1.382  0.6302  0.4182 -0.3705
  319SOL    HW3 1043   5.617   3.341   1.276 -1.6124 -2.2494 -1.0253
  319SOL    MW4 1044   5.542   3.379   1.299 -0.3612  0.1266 -0.5222
  320SOL     OW 1045   5.238   1.612   4.466 -0.4855  0.4306 -0.0121
  320SOL    HW2 1046   5.240   1.694   4.417  0.3018  0.6275  0.3288
  320SOL    HW3 1047   5.321   1.568   4.444 -0.5740  0.0645  0.3592
  320SOL    MW4 1048   5.249   1.617   4.457 -0.3933  0.4083  0.0818
  321SOL     OW 1049   2.652   4.865   2.396  0.4165  0.2570  0.4193
  321SOL    HW2 1050   2.595   4.925   2.445 -0.5758  0.8494 -1.3811
  321SOL    HW3 1051   2.627   4.778   2.427  1.4900  0.6482  2.6584
  321SOL    MW4 1052   2.641   4.862   2.407  0.4272  0.3868  0.4771
  322SOL     OW 1053   4.872   5.269   2.805  0.3533  0.3287 -0.0780
  322SOL    HW2 1054   4.832   5.197   2.853 -1.7375  0.6030 -1.2824
  322SOL    HW3 1055   4.945   5.229   2.758 -1.0532 -1.1708 -1.1048
  322SOL    MW4 1056   4.876   5.254   2.805 -0.1081  0.1670 -0.3724
  323SOL     OW 1057   1.727   1.959   1.781  0.2655 -0.0994  0.1219
  323SOL    HW2 1058   1.652   1.901   1.767  0.6993 -0.5558 -0.3269
  323SOL    HW3 1059   1.689   2.047   1.784 -0.1742 -0.2384 -1.1340
  323SOL    MW4 1060   1.712   1.963   1.780  0.2647 -0.1780 -0.1030
  324SOL     OW 1061   3.739   2.856   2.282 -0.0914  0.3199  0.3831
  324SOL    HW2 1062   3.708   2.916   2.350 -3.8071 -0.2645 -0.5225
  324SOL    HW3 1063   3.731   2.769   2.322 -0.5678  0.0959 -0.1766
  324SOL    MW4 1064   3.734   2.853   2.296 -0.6445  0.2133  0.1898
  325SOL     OW 1065   5.082   2.026   0.716 -0.0567 -0.2831 -0.0894
  325SOL    HW2 1066   5.154   1.968   0.689  0.1711 -0.2696  0.4652
  325SOL    HW3 1067   5.014   1.966   0.747 -0.6036 -0.3296 -1.3417
  325SOL    MW4 1068   5.083   2.010   0.717 -0.0988 -0.2875 -0.1814
  326SOL     OW 1069   2.896   6.170   0.011  0.1254 -0.3211 -0.1801
  326SOL    HW2 1070   2.830   6.197   0.074 -1.3215 -2.8916 -0.4508
  326SOL    HW3 1071   2.866   6.207  -0.072  0.6883  0.9840  0.1715
  326SOL    MW4 1072   2.883   6.178   0.008  0.0088 -0.4880 -0.1694
  327SOL     OW 1073   5.692   2.120   3.148  0.6661  0.7396  0.3274
  327SOL    HW2 1074   5.776   2.147   3.185  0.8249  0.6504  0.0372
  327SOL    HW3 1075   5.653   2.201   3.115  0.8245  0.7174  0.0885
  327SOL    MW4 1076   5.698   2.134   3.149  0.7080  0.7249  0.2576
  328SOL     OW 1077   5.724   2.739   6.313 -0.3672 -0.1873 -0.4086
  328SOL    HW2 1078   5.745   2.777   6.398 -0.4346  2.1097 -1.3227
  328SOL    HW3 1079   5.807   2.737   6.266 -0.6412  0.4539 -0.9461
  328SOL    MW4 1080   5.738   2.744   6.318 -0.4123  0.2003 -0.6001
  329SOL     OW 1081   5.652   2.201   4.661  0.2602  0.2999  0.4779
  329SOL    HW2 1082   5.745   2.180   4.674  0.3769  0.1476 -0.5138
  329SOL    HW3 1083   5.605   2.131   4.707  0.6283  0.4698  1.1289
  329SOL    MW4 1084   5.658   2.189   4.669  0.3242  0.3023  0.4330
  330SOL     OW 1085   0.697   2.182   1.639 -0.4055 -0.4992 -0.1304
  330SOL    HW2 1086   0.783   2.152   1.610  0.2670  1.0990  0.0737
  330SOL    HW3 1087   0.636   2.149   1.572  0.3402 -1.6720 -0.2663
  330SOL    MW4 1088   0.700   2.174   1.626 -0.2184 -0.4431 -0.1214
  331SOL     OW 1089   2.798   5.861   0.554  0.7516  0.4636  0.3625
  331SOL    HW2 1090   2.856   5.896   0.621  3.4100 -1.4283 -0.8041
  331SOL    HW3 1091   2.856   5.830   0.484 -1.8190  1.4350 -2.4484
  331SOL    MW4 1092   2.813   5.861   0.554  0.7632  0.3421 -0.1623
  332SOL     OW 1093   2.398   3.865   6.313 -0.0006 -0.3103 -0.0840
  332SOL    HW2 1094   2.420   3.913   6.233  0.4405 -0.9745 -0.3730
  332SOL    HW3 1095   2.394   3.774   6.285  0.8141 -0.6261  0.7833
  332SOL    MW4 1096   2.400   3.859   6.298  0.1651 -0.4396 -0.0077
  333SOL     OW 1097   1.091   1.247   5.083  0.6428 -0.1837 -0.8884
  333SOL    HW2 1098   1.048   1.231   4.999 -1.8991 -0.5679  0.3851
  333SOL    HW3 1099   1.105   1.160   5.120  0.6714  0.0113 -0.4365
  333SOL    MW4 1100   1.087   1.234   5.077  0.3112 -0.2087 -0.6607
  334SOL     OW 1101   5.595   1.476   0.023 -0.2037  0.2304 -0.2348
  334SOL    HW2 1102   5.678   1.463  -0.022 -0.5167 -3.9536 -0.0064
  334SOL    HW3 1103   5.536   1.511  -0.044  1.0799  0.8292 -1.0762
  334SOL    MW4 1104   5.598   1.479   0.008 -0.0756 -0.2426 -0.3157
  335SOL     OW 1105   4.006   2.762   0.326  0.3157  0.1006  0.0574
  335SOL    HW2 1106   3.929   2.708   0.345 -0.4418  0.6990 -1.2025
  335SOL    HW3 1107   4.063   2.704   0.276  0.0968  0.0378 -0.1260
  335SOL    MW4 1108   4.003   2.747   0.322  0.1868  0.1712 -0.1330
  336SOL     OW 1109   4.340   2.593   5.901  0.1114  0.0027  0.1890
  336SOL    HW2 1110   4.269   2.657   5.906  0.1365  0.0685 -0.2386
  336SOL    HW3 1111   4.327   2.550   5.816 -1.0958 -1.9529  1.2968
  336SOL    MW4 1112   4.329   2.595   5.890 -0.0446 -0.2466  0.2787
  337SOL     OW 1113   2.604   2.954   4.102 -0.5415 -0.3588  0.3438
  337SOL    HW2 1114   2.672   2.980   4.163  1.2713  1.1054 -2.1269
  337SOL    HW3 1115   2.558   3.036   4.080 -0.1706 -0.5566 -1.3146
  337SOL    MW4 1116   2.607   2.968   4.107 -0.2534 -0.1917 -0.2010
  338SOL     OW 1117   0.981   1.298   5.649 -0.0864 -0.2507  0.0175
  338SOL    HW2 1118   1.013   1.255   5.570  0.8676 -0.1554  0.3388
  338SOL    HW3 1119   0.929   1.372   5.616  0.3149 -0.1987 -0.5167
  338SOL    MW4 1120   0.978   1.302   5.634  0.0924 -0.2313 -0.0106
  339SOL     OW 1121   5.236   4.980   4.871  0.0681  0.0053  0.2520
  339SOL    HW2 1122   5.276   5.046   4.928 -0.0501  0.3988 -0.1105
  339SOL    HW3 1123   5.280   4.991   4.787  0.4474 -0.7733  0.3461
  339SOL    MW4 1124   5.247   4.990   4.868  0.1026 -0.0455  0.2166
  340SOL     OW 1125   4.060   2.681   2.560 -0.4908 -0.7676  0.1293
  340SOL    HW2 1126   4.082   2.687   2.467  0.8502  1.5551  0.5238
  340SOL    HW3 1127   4.131   2.629   2.598 -0.1116 -0.2664  0.1122
  340SOL    MW4 1128   4.073   2.675   2.552 -0.2638 -0.3950  0.1791
  341SOL     OW 1129   5.648   0.397   4.300 -0.2626 -0.1314  0.0521
  341SOL    HW2 1130   5.668   0.468   4.361  0.3775 -0.5928  0.3949
  341SOL    HW3 1131   5.698   0.419   4.221 -0.1061 -0.1635  0.1401
  341SOL    MW4 1132   5.658   0.410   4.298 -0.1575 -0.1965  0.1089
  342SOL     OW 1133   0.798   3.818   4.023 -0.3345  0.0387  0.0981
  342SOL    HW2 1134   0.834   3.772   4.098 -1.7097  2.0058  2.1107
  342SOL    HW3 1135   0.704   3.796   4.024 -1.1463  3.0268  1.4418
  342SOL    MW4 1136   0.790   3.809   4.033 -0.6230  0.6925  0.5409
  343SOL     OW 1137   3.884   0.507   0.627  0.5862  0.4381 -0.0525
  343SOL    HW2 1138   3.817   0.440   0.640 -0.3806  1.5436  0.9210
  343SOL    HW3 1139   3.957   0.480   0.683  0.8348 -0.5890 -0.8479
  343SOL    MW4 1140   3.885   0.495   0.636  0.4915  0.4484 -0.0290
  344SOL     OW 1141   0.483   4.598   3.203 -0.2793  0.0336  0.1330
  344SOL    HW2 1142   0.575   4.617   3.222 -0.1396 -0.8835  0.4059
  344SOL    HW3 1143   0.434   4.646   3.270  0.0142  0.2143  0.2178
  344SOL    MW4 1144   0.489   4.607   3.214 -0.2221 -0.0636  0.1802
  345SOL     OW 1145   3.235   4.188   4.169 -0.0771 -0.2863 -0.0835
  345SOL    HW2 1146   3.270   4.111   4.215 -0.6982 -1.4669 -1.5195
  345SOL    HW3 1147   3.307   4.217   4.113  0.1406  0.1900  0.4218
  345SOL    MW4 1148   3.249   4.182   4.168 -0.1303 -0.3792 -0.2063
  346SOL     OW 1149   0.114   1.173   0.144  0.0176 -0.1115 -0.6301
  346SOL    HW2 1150   0.053   1.153   0.073  0.7657 -1.6249 -0.9024
  346SOL    HW3 1151   0.188   1.216   0.101 -0.3540  0.6826 -0.4763
  346SOL    MW4 1152   0.116   1.176   0.129  0.0673 -0.2064 -0.6457
  347SOL     OW 1153   5.438   0.579   1.119  0.0647 -0.0456  0.2436
  347SOL    HW2 1154   5.343   0.584   1.130  0.1286 -1.8417  2.1060
  347SOL    HW3 1155   5.469   0.527   1.193  2.5581  0.7279 -0.1483
  347SOL    MW4 1156   5.429   0.573   1.130  0.4021 -0.1805  0.4376
  348SOL     OW 1157   6.397   2.747   6.074  0.0035 -0.3842  0.1668
  348SOL    HW2 1158   6.426   2.666   6.115  1.7168 -0.4475 -1.0757
  348SOL    HW3 1159   6.443   2.816   6.121 -0.1366 -0.2530  0.1121
  348SOL    MW4 1160   6.407   2.745   6.085  0.2111 -0.3752 -0.0044
  349SOL     OW 1161   4.693   4.988   3.202  0.2054 -0.0073  0.5574
  349SOL    HW2 1162   4.608   4.999   3.245  0.1727 -2.0436  1.1041
  349SOL    HW3 1163   4.717   4.897   3.219  2.5340  0.5288  0.4511
  349SOL    MW4 1164   4.685   4.978   3.210  0.5084 -0.2052  0.6155
  350SOL     OW 1165   5.314   1.750   1.548 -0.2014 -0.2800  0.3818
  350SOL    HW2 1166   5.293   1.825   1.603 -0.0564 -0.5212  0.7666
  350SOL    HW3 1167   5.357   1.687   1.607  2.4100  0.5136 -0.5093
  350SOL    MW4 1168   5.317   1.751   1.563  0.1623 -0.2071  0.3150
  351SOL     OW 1169   4.883   3.247   4.442  0.0689 -0.0250  0.1754
  351SOL    HW2 1170   4.923   3.320   4.488  0.0705  0.5360 -0.6926
  351SOL    HW3 1171   4.791   3.249   4.467 -0.5193  1.9284 -1.8475
  351SOL    MW4 1172   4.876   3.257   4.451 -0.0085  0.3067 -0.2060
  352SOL     OW 1173   0.306   4.876   2.881 -0.0480 -0.0564 -0.3997
  352SOL    HW2 1174   0.355   4.796   2.862 -0.4471 -0.9083  1.8573
  352SOL    HW3 1175   0.364   4.927   2.937 -0.3306  0.6448 -0.7265
  352SOL    MW4 1176   0.320   4.872   2.886 -0.1380 -0.0763 -0.1450
  353SOL     OW 1177   5.242   5.323   4.001  0.3639 -0.2677 -0.4561
  353SOL    HW2 1178   5.208   5.406   4.033 -0.1267 -1.0549  1.1404
  353SOL    HW3 1179   5.259   5.338   3.908  0.2746  1.5992 -0.1987
  353SOL    MW4 1180   5.240   5.336   3.993  0.2874 -0.1253 -0.2115
  354SOL     OW 1181   2.667   5.533   5.858 -0.2081 -0.4928 -0.7458
  354SOL    HW2 1182   2.637   5.471   5.925 -0.8759 -0.1249 -0.7011
  354SOL    HW3 1183   2.756   5.557   5.887  0.4365 -2.1085 -1.2550
  354SOL    MW4 1184   2.675   5.528   5.871 -0.2111 -0.6574 -0.8071
  355SOL     OW 1185   4.092   1.909   5.549  0.4324  0.6363  0.3400
  355SOL    HW2 1186   4.136   1.850   5.488  1.6443  1.8643 -0.0441
  355SOL    HW3 1187   4.052   1.852   5.614 -1.1548 -0.7442 -1.7387
  355SOL    MW4 1188   4.093   1.894   5.549  0.3829  0.6162  0.0151
  356SOL     OW 1189   2.486   3.208   4.088 -0.0105 -0.3090  0.1306
  356SOL    HW2 1190   2.482   3.303   4.097 -1.6924 -0.3830  0.3701
  356SOL    HW3 1191   2.411   3.176   4.137 -0.3419 -1.6740 -1.1916
  356SOL    MW4 1192   2.476   3.216   4.096 -0.2761 -0.4988 -0.0123
  357SOL     OW 1193   5.338   4.519   0.894 -0.4030 -0.6722  0.6064
  357SOL    HW2 1194   5.384   4.474   0.823 -0.4644 -0.4089  0.4007
  357SOL    HW3 1195   5.272   4.456   0.923  2.0758 -2.3987  3.0622
  357SOL    MW4 1196   5.335   4.504   0.888 -0.0840 -0.8652  0.9033
  358SOL     OW 1197   1.749   0.589   4.225  0.2356 -0.4041 -0.0553
  358SOL    HW2 1198   1.695   0.514   4.197  0.7311 -0.8966  0.2800
  358SOL    HW3 1199   1.773   0.633   4.144 -2.2614  0.9780 -0.1408
  358SOL    MW4 1200   1.745   0.585   4.210 -0.0284 -0.2867 -0.0224
  359SOL     OW 1201   4.668   2.204   0.327  0.5380  0.2031 -0.4925
  359SOL    HW2 1202   4.683   2.174   0.417  1.0719  0.3339 -0.5353
  359SOL    HW3 1203   4.606   2.276   0.335  0.5396  0.1755 -0.2335
  359SOL    MW4 1204   4.662   2.209   0.340  0.6087  0.2167 -0.4640
  360SOL     OW 1205   2.795   0.564   5.431  0.2348  0.5617  0.6001
  360SOL    HW2 1206   2.769   0.475   5.405 -2.6492  0.9859  1.6649
  360SOL    HW3 1207   2.854   0.550   5.506  0.9993 -0.4506 -0.1585
  360SOL    MW4 1208   2.799   0.550   5.438 -0.0448  0.4841  0.6405
  361SOL     OW 1209   6.087   4.431   0.209 -0.0732 -0.1647  0.1738
  361SOL    HW2 1210   6.120   4.347   0.242 -0.4697 -1.4742 -2.4897
  361SOL    HW3 1211   6.163   4.490   0.214  1.9591 -2.2483 -2.9257
  361SOL    MW4 1212   6.101   4.428   0.214  0.1426 -0.6124 -0.5866
  362SOL     OW 1213   5.369   6.285   4.030 -0.0175 -0.3516  0.2336
  362SOL    HW2 1214   5.317   6.316   3.956  1.6645 -0.3684 -1.0155
  362SOL    HW3 1215   5.327   6.203   4.056 -0.7712 -0.2349 -0.5787
  362SOL    MW4 1216   5.357   6.278   4.023  0.1050 -0.3384 -0.0384
  363SOL     OW 1217   2.212   2.173   3.806 -0.3476  0.0371 -0.1198
  363SOL    HW2 1218   2.155   2.097   3.800 -1.0657  0.4152  1.3281
  363SOL    HW3 1219   2.232   2.180   3.900  2.3724 -0.2849 -0.5874
  363SOL    MW4 1220   2.207   2.164   3.818 -0.0835  0.0445  0.0095
  364SOL     OW 1221   1.543   6.227   3.976 -0.3462 -0.1525  0.0061
  364SOL    HW2 1222   1.469   6.186   4.021  0.9539 -2.4637  0.2009
  364SOL    HW3 1223   1.565   6.166   3.906  0.4056  1.2751 -1.0464
  364SOL    MW4 1224   1.536   6.214   3.973 -0.0755 -0.2691 -0.1071
  365SOL     OW 1225   4.155   0.974   5.540 -0.1869  0.3449 -0.2550
  365SOL    HW2 1226   4.153   0.933   5.454  0.0886 -0.6711  0.2099
  365SOL    HW3 1227   4.063   0.987   5.563 -0.2791 -0.0295 -0.4063
  365SOL    MW4 1228   4.143   0.970   5.532 -0.1628  0.1615 -0.2136
  366SOL     OW 1229   6.142   1.632   0.853 -0.0632 -0.4664  0.3585
  366SOL    HW2 1230   6.196   1.696   0.806  0.0189 -1.0603 -0.3808
  366SOL    HW3 1231   6.158   1.651   0.945 -1.9686  2.1917  0.2357
  366SOL    MW4 1232   6.152   1.643   0.859 -0.3037 -0.1941  0.2448
  367SOL     OW 1233   4.948   0.216   5.581  0.0036  0.0393  0.2529
  367SOL    HW2 1234   4.907   0.137   5.616 -0.6873 -0.4468 -1.5572
  367SOL    HW3 1235   4.904   0.231   5.497 -0.6119  2.9427  0.9682
  367SOL    MW4 1236   4.937   0.208   5.575 -0.1687  0.3582  0.1084
  368SOL     OW 1237   5.838   3.168   3.022 -0.1858 -0.6091 -0.2536
  368SOL    HW2 1238   5.754   3.128   3.043 -0.4422 -0.1119 -0.3190
  368SOL    HW3 1239   5.871   3.118   2.948 -0.9594 -0.0989 -0.9678
  368SOL    MW4 1240   5.832   3.156   3.015 -0.3217 -0.4762 -0.3564
  369SOL     OW 1241   0.250   5.419   3.786 -0.4741 -0.2898 -0.0947
  369SOL    HW2 1242   0.193   5.383   3.718  0.8323 -2.2140 -0.2276
  369SOL    HW3 1243   0.259   5.512   3.762 -0.9488 -0.6728 -1.8991
  369SOL    MW4 1244   0.243   5.427   3.774 -0.3644 -0.5942 -0.3503
  370SOL     OW 1245   2.008   5.278   0.587  0.5423 -0.4356  0.1484
  370SOL    HW2 1246   2.019   5.198   0.537 -0.5472 -0.2999 -0.3428
  370SOL    HW3 1247   1.959   5.252   0.665 -1.4589 -0.0045 -0.8836
  370SOL    MW4 1248   2.003   5.264   0.591  0.1346 -0.3608 -0.0526
  371SOL     OW 1249   3.072   6.188   1.704 -0.1955 -0.3282  0.3424
  371SOL    HW2 1250   3.138   6.180   1.636 -0.8132 -0.3502 -0.2701
  371SOL    HW3 1251   3.062   6.283   1.716 -1.0622 -0.2713 -0.6026
  371SOL    MW4 1252   3.079   6.199   1.696 -0.3913 -0.3236  0.1369
  372SOL     OW 1253   3.567   2.763   2.786 -0.7256 -0.2796 -0.1402
  372SOL    HW2 1254   3.568   2.760   2.882  2.1360  1.5405  0.0147
  372SOL    HW3 1255   3.651   2.726   2.760  0.1999  2.5798 -1.6405
  372SOL    MW4 1256   3.578   2.758   2.795 -0.2259  0.3378 -0.3177
  373SOL     OW 1257   0.327   0.126   0.151 -0.1608  0.4457  0.9923
  373SOL    HW2 1258   0.390   0.083   0.092  0.8801  0.0184  2.3469
  373SOL    HW3 1259   0.242   0.093   0.123  0.2918  0.3192 -0.3111
  373SOL    MW4 1260   0.324   0.116   0.140  0.0362  0.3726  0.9990
  374SOL     OW 1261   1.212   3.876   5.393 -0.4362 -0.0552 -1.3676
  374SOL    HW2 1262   1.216   3.854   5.486 -0.1859  1.4808 -0.9854
  374SOL    HW3 1263   1.162   3.804   5.353 -0.3279 -0.8571 -0.0965
  374SOL    MW4 1264   1.206   3.864   5.400 -0.3889  0.0416 -1.1495
  375SOL     OW 1265   0.493   5.327   5.022 -0.1584  0.3636  0.2611
  375SOL    HW2 1266   0.579   5.365   5.004  0.4579 -1.3216 -0.6175
  375SOL    HW3 1267   0.506   5.233   5.012 -1.7695 -0.0551  1.6529
  375SOL    MW4 1268   0.506   5.320   5.018 -0.2897  0.0860  0.3288
  376SOL     OW 1269   4.328   5.087   1.355 -0.2264  0.0095  0.2543
  376SOL    HW2 1270   4.297   5.127   1.274 -0.5654  0.9065  0.8111
  376SOL    HW3 1271   4.248   5.061   1.401 -0.0124 -1.4490 -0.1471
  376SOL    MW4 1272   4.313   5.089   1.350 -0.2429 -0.0646  0.2748
  377SOL     OW 1273   3.289   5.106   3.685  0.2748 -0.7481 -0.1912
  377SOL    HW2 1274   3.243   5.070   3.609 -4.0271  2.4826  0.4851
  377SOL    HW3 1275   3.261   5.051   3.758  0.5139 -1.0228 -0.3078
  377SOL    MW4 1276   3.279   5.094   3.685 -0.2612 -0.3581 -0.1173
  378SOL     OW 1277   1.339   6.098   1.863 -0.5692  0.0415  0.4970
  378SOL    HW2 1278   1.249   6.081   1.834  0.0485 -3.1196  0.0743
  378SOL    HW3 1279   1.373   6.013   1.889  2.2660  1.1526  0.8635
  378SOL    MW4 1280   1.332   6.085   1.862 -0.1136 -0.2290  0.4895
  379SOL     OW 1281   1.490   2.468   3.482 -0.5350  0.2950 -0.1402
  379SOL    HW2 1282   1.433   2.462   3.558 -0.3952 -0.0177 -0.0578
  379SOL    HW3 1283   1.491   2.561   3.460 -0.8431  0.3413  0.0346
  379SOL    MW4 1284   1.483   2.479   3.489 -0.5572  0.2599 -0.1063
  380SOL     OW 1285   2.480   0.292   2.442  0.3051  0.4571 -0.5684
  380SOL    HW2 1286   2.529   0.374   2.449 -0.4958  0.8000  1.8132
  380SOL    HW3 1287   2.542   0.231   2.401  2.2003  1.2934  0.8951
  380SOL    MW4 1288   2.495   0.295   2.437  0.4495  0.6127 -0.0611
  381SOL     OW 1289   0.945   1.263   0.030 -0.1203  0.1644 -0.4720
  381SOL    HW2 1290   0.990   1.179   0.030  1.1694  0.8024  0.8821
  381SOL    HW3 1291   0.852   1.241   0.026  0.1933 -1.3284 -0.0061
  381SOL    MW4 1292   0.938   1.249   0.029  0.0913  0.0516 -0.2319
  382SOL     OW 1293   4.761   2.867   0.759 -0.1771 -0.2574 -0.0348
  382SOL    HW2 1294   4.827   2.925   0.722  0.0092 -0.6513 -0.3241
  382SOL    HW3 1295   4.737   2.808   0.687 -0.7747 -0.1763  0.0952
  382SOL    MW4 1296   4.766   2.867   0.745 -0.2313 -0.2987 -0.0558
  383SOL     OW 1297   4.673   3.870   0.165  0.2273 -0.1572  0.1999
  383SOL    HW2 1298   4.659   3.778   0.187  0.1548 -0.2932 -0.3954
  383SOL    HW3 1299   4.666   3.916   0.248  0.0427 -0.6671  0.4692
  383SOL    MW4 1300   4.670   3.864   0.179  0.1934 -0.2424  0.1569
  384SOL     OW 1301   3.196   6.269   2.747  0.0494  0.3362 -0.5771
  384SOL    HW2 1302   3.200   6.290   2.654 -0.9302  0.3909 -0.6242
  384SOL    HW3 1303   3.166   6.178   2.749  0.4954  0.1953 -0.3243
  384SOL    MW4 1304   3.192   6.260   2.735 -0.0210  0.3248 -0.5500
  385SOL     OW 1305   4.222   2.402   6.064  0.5571  0.4154 -0.0878
  385SOL    HW2 1306   4.215   2.458   6.141  0.9628 -0.6126  0.7228
  385SOL    HW3 1307   4.256   2.460   5.996  2.1016  0.9010  1.0408
  385SOL    MW4 1308   4.226   2.417   6.065  0.8144  0.3439  0.1680
  386SOL     OW 1309   0.966   3.643   4.239  0.2118 -0.1818 -0.0568
  386SOL    HW2 1310   0.923   3.563   4.267  1.5485 -0.2232  2.1008
  386SOL    HW3 1311   1.056   3.636   4.273  0.2247  2.4287  0.7307
  386SOL    MW4 1312   0.973   3.632   4.247  0.3899  0.1572  0.3317
  387SOL     OW 1313   4.782   1.278   1.661  0.1706 -0.3951  0.5629
  387SOL    HW2 1314   4.723   1.309   1.730 -0.0311 -0.7272  0.5392
  387SOL    HW3 1315   4.808   1.358   1.615 -0.3558 -0.2550  0.5004
  387SOL    MW4 1316   4.778   1.293   1.664  0.0745 -0.4204  0.5515
  388SOL     OW 1317   0.728   2.129   2.041 -0.0110  0.5541  0.3824
  388SOL    HW2 1318   0.744   2.036   2.054 -0.3026 -0.0284 -2.5810
  388SOL    HW3 1319   0.813   2.165   2.018 -0.4385  0.1904 -2.0731
  388SOL    MW4 1320   0.741   2.121   2.039 -0.1059  0.4293 -0.3325
  389SOL     OW 1321   0.332   1.291   5.853 -0.0416 -0.4348  0.1301
  389SOL    HW2 1322   0.401   1.351   5.881 -0.0153 -0.7555  0.7588
  389SOL    HW3 1323   0.361   1.259   5.768 -1.2075  2.3142 -1.4369
  389SOL    MW4 1324   0.345   1.295   5.845 -0.1919 -0.1144  0.0063
  390SOL     OW 1325   2.897   1.484   2.144  0.3899  0.3091 -0.6680
  390SOL    HW2 1326   2.851   1.534   2.211  1.6208 -0.9160  1.1652
  390SOL    HW3 1327   2.861   1.516   2.061 -0.9145  2.1246  0.5402
  390SOL    MW4 1328   2.886   1.495   2.142  0.3802  0.3870 -0.2667
  391SOL     OW 1329   2.048   5.714   5.785 -0.1986 -0.6728 -0.0729
  391SOL    HW2 1330   2.049   5.770   5.708  0.9317 -0.8769 -0.2253
  391SOL    HW3 1331   2.036   5.625   5.751  0.3719 -0.7706 -0.0185
  391SOL    MW4 1332   2.046   5.710   5.771  0.0258 -0.7126 -0.0859
  392SOL     OW 1333   5.736   5.932   3.219  0.3300  0.0143 -0.2607
  392SOL    HW2 1334   5.812   5.888   3.255 -0.1563  0.0197  0.8045
  392SOL    HW3 1335   5.742   6.021   3.251  0.9435  0.5870 -1.8520
  392SOL    MW4 1336   5.746   5.938   3.228  0.3468  0.0906 -0.3301
  393SOL     OW 1337   4.860   2.541   0.192 -0.0128 -0.3561 -0.1830
  393SOL    HW2 1338   4.880   2.540   0.286 -1.5287 -1.0108  0.1709
  393SOL    HW3 1339   4.944   2.557   0.150  0.3428  2.5772  1.3682
  393SOL    MW4 1340   4.873   2.543   0.199 -0.1659 -0.0555  0.0684
  394SOL     OW 1341   5.442   2.491   3.240 -0.0734 -0.3193 -0.4833
  394SOL    HW2 1342   5.377   2.423   3.255 -0.1283 -0.1836 -0.0910
  394SOL    HW3 1343   5.501   2.485   3.316 -0.3972  0.4283 -0.1641
  394SOL    MW4 1344   5.441   2.481   3.252 -0.1234 -0.2028 -0.3894
  395SOL     OW 1345   1.194   4.167   3.613 -0.4009 -0.2323 -0.4663
  395SOL    HW2 1346   1.190   4.255   3.651 -2.4039  0.1317 -1.3366
  395SOL    HW3 1347   1.129   4.117   3.663 -0.2756 -0.8084 -0.8784
  395SOL    MW4 1348   1.185   4.172   3.625 -0.6487 -0.2603 -0.6355
  396SOL     OW 1349   1.156   3.030   5.411 -0.4351 -0.0719 -0.1516
  396SOL    HW2 1350   1.108   2.958   5.451  0.5759 -0.8744 -0.3367
  396SOL    HW3 1351   1.089   3.095   5.391 -1.3237 -0.8117  0.3199
  396SOL    MW4 1352   1.141   3.029   5.414 -0.4189 -0.2753 -0.1138
  397SOL     OW 1353   1.733   5.398   1.153 -0.2585  0.0001  0.0563
  397SOL    HW2 1354   1.752   5.445   1.072  0.3621  1.7515  1.1529
  397SOL    HW3 1355   1.819   5.390   1.196 -0.6082 -0.7262  0.6415
  397SOL    MW4 1356   1.747   5.403   1.148 -0.2228  0.1354  0.2782
  398SOL     OW 1357   0.687   3.642   3.327 -0.8928 -0.1022 -0.1006
  398SOL    HW2 1358   0.702   3.576   3.394  1.2064  0.0280 -0.3783
  398SOL    HW3 1359   0.718   3.724   3.367 -0.3431  0.1086 -0.9273
  398SOL    MW4 1360   0.693   3.644   3.341 -0.5433 -0.0573 -0.2463
  399SOL     OW 1361   2.369   4.013   1.571  0.0968  0.2401 -0.0971
  399SOL    HW2 1362   2.293   3.966   1.604 -0.0390  1.2740  1.1282
  399SOL    HW3 1363   2.428   3.945   1.539 -0.8645 -0.6378 -0.0322
  399SOL    MW4 1364   2.367   3.998   1.571 -0.0479  0.2607  0.0731
  400SOL     OW 1365   5.805   1.269   5.537  0.7103 -0.1290  0.3219
  400SOL    HW2 1366   5.806   1.174   5.526  0.0078 -0.1899  0.7211
  400SOL    HW3 1367   5.821   1.304   5.450 -0.0126 -0.6088 -0.0102
  400SOL    MW4 1368   5.807   1.261   5.524  0.5222 -0.2004  0.3308
  401SOL     OW 1369   5.057   6.323   4.165  0.0396 -0.1594  0.0542
  401SOL    HW2 1370   5.016   6.404   4.134  0.2146  0.0484  0.3549
  401SOL    HW3 1371   5.018   6.254   4.112 -1.2368 -0.0601  0.8067
  401SOL    MW4 1372   5.046   6.325   4.154 -0.1057 -0.1189  0.1932
  402SOL     OW 1373   4.804   1.353   4.219 -0.1042 -0.7518 -0.1546
  402SOL    HW2 1374   4.776   1.277   4.270  0.7973 -0.5839  0.6306
  402SOL    HW3 1375   4.751   1.350   4.139  0.9993 -3.1209 -0.9016
  402SOL    MW4 1376   4.794   1.343   4.215  0.1603 -1.0422 -0.1495
  403SOL     OW 1377   4.133   2.681   1.251  0.1035  0.3545  0.2894
  403SOL    HW2 1378   4.109   2.684   1.344  1.0602 -1.1134  0.6122
  403SOL    HW3 1379   4.091   2.601   1.219 -1.2773  1.4913 -0.8982
  403SOL    MW4 1380   4.124   2.671   1.259  0.0476  0.3108  0.1753
  404SOL     OW 1381   3.755   5.307   1.620  0.1648  0.4376  0.1840
  404SOL    HW2 1382   3.695   5.361   1.568  1.5777  2.4929  0.5950
  404SOL    HW3 1383   3.788   5.242   1.557 -2.2365 -0.6043 -0.1033
  404SOL    MW4 1384   3.752   5.306   1.605  0.0344  0.5714  0.2003
  405SOL     OW 1385   6.321   5.538   3.421 -0.4758 -0.1290  0.2391
  405SOL    HW2 1386   6.380   5.611   3.439  2.0686 -1.4056 -2.1779
  405SOL    HW3 1387   6.273   5.564   3.343  0.8684 -1.1507 -0.9924
  405SOL    MW4 1388   6.322   5.551   3.413  0.0373 -0.4322 -0.2423
  406SOL     OW 1389   4.425   4.223   5.426  0.1251  0.2042  0.4053
  406SOL    HW2 1390   4.407   4.224   5.520  0.2399  2.0120  0.4445
  406SOL    HW3 1391   4.459   4.135   5.408 -0.9926 -0.5417  1.8261
  406SOL    MW4 1392   4.427   4.211   5.436 -0.0073  0.3443  0.5980
  407SOL     OW 1393   3.984   5.463   5.478 -0.0204  0.0348 -0.1225
  407SOL    HW2 1394   4.028   5.396   5.426 -0.2754  0.5110 -0.9639
  407SOL    HW3 1395   3.900   5.423   5.501 -0.7657  0.5556 -1.8063
  407SOL    MW4 1396   3.978   5.449   5.474 -0.1524  0.1663 -0.4557
  408SOL     OW 1397   5.443   0.749   3.477 -0.4128  0.1926 -0.4236
  408SOL    HW2 1398   5.502   0.737   3.403 -0.1464  1.5239 -0.4625
  408SOL    HW3 1399   5.497   0.729   3.554 -0.8251 -1.6702 -0.5672
  408SOL    MW4 1400   5.458   0.745   3.477 -0.4321  0.1225 -0.4477
  409SOL     OW 1401   2.326   3.360   0.605 -0.5635  0.4192  0.5290
  409SOL    HW2 1402   2.303   3.279   0.559 -0.8820  0.3393  0.8216
  409SOL    HW3 1403   2.412   3.383   0.571 -0.4770 -0.0355  0.4265
  409SOL    MW4 1404   2.334   3.352   0.594 -0.5941  0.3486  0.5541
  410SOL     OW 1405   1.480   5.332   4.947 -0.5664  0.4838 -0.3447
  410SOL    HW2 1406   1.562   5.359   4.906 -0.8476  0.7027 -0.7735
  410SOL    HW3 1407   1.421   5.406   4.934 -0.8431  0.3138 -0.0770
  410SOL    MW4 1408   1.483   5.345   4.940 -0.6400  0.4903 -0.3660
  411SOL     OW 1409   5.301   3.362   4.721 -0.1787  0.4501 -0.3886
  411SOL    HW2 1410   5.393   3.381   4.740 -0.7647  1.9649  1.1868
  411SOL    HW3 1411   5.301   3.272   4.691  1.5631 -0.4316  1.9578
  411SOL    MW4 1412   5.313   3.353   4.719 -0.0262  0.5336  0.1288
  412SOL     OW 1413   1.946   1.925   2.882  0.1767 -0.5545 -0.0476
  412SOL    HW2 1414   1.935   1.975   2.801  0.0745 -1.0363 -0.3355
  412SOL    HW3 1415   2.004   1.979   2.936 -2.7140  1.6796  1.1360
  412SOL    MW4 1416   1.952   1.939   2.878 -0.2181 -0.3233  0.0706
  413SOL     OW 1417   0.221   1.452   3.519 -0.2558  0.1121 -0.4224
  413SOL    HW2 1418   0.268   1.524   3.562  0.3304  0.9195 -2.3085
  413SOL    HW3 1419   0.285   1.381   3.513  0.1027  0.4870 -1.1604
  413SOL    MW4 1420   0.236   1.452   3.524 -0.1311  0.2681 -0.7686
  414SOL     OW 1421   0.159   5.496   4.271 -0.0007  0.1466 -0.1761
  414SOL    HW2 1422   0.218   5.426   4.245  1.0032  0.9480 -0.1317
  414SOL    HW3 1423   0.200   5.576   4.238 -0.6838  0.8008  0.5051
  414SOL    MW4 1424   0.172   5.498   4.263  0.0416  0.3386 -0.0804
  415SOL     OW 1425   1.245   4.888   4.599  0.2379  0.3267  1.1209
  415SOL    HW2 1426   1.275   4.798   4.593  1.9232  0.9394 -1.4483
  415SOL    HW3 1427   1.311   4.932   4.651  2.2146  0.9643 -1.6862
  415SOL    MW4 1428   1.257   4.882   4.605  0.7211  0.4917  0.4116
  416SOL     OW 1429   1.212   4.401   4.717 -0.1710 -0.7205  0.2944
  416SOL    HW2 1430   1.214   4.309   4.688  3.3573 -0.6913  0.0122
  416SOL    HW3 1431   1.270   4.403   4.793 -0.4701  1.2271  0.5169
  416SOL    MW4 1432   1.220   4.389   4.723  0.2550 -0.4597  0.2865
  417SOL     OW 1433   4.674   2.125   3.719  0.2889  0.5161  0.2966
  417SOL    HW2 1434   4.675   2.037   3.758  0.2663  0.9507  1.2943
  417SOL    HW3 1435   4.710   2.182   3.787  1.0846  1.1623 -0.6546
  417SOL    MW4 1436   4.679   2.121   3.733  0.3909  0.6587  0.3027
  418SOL     OW 1437   2.414   0.903   4.810 -0.0282  0.1899  0.2943
  418SOL    HW2 1438   2.505   0.873   4.815  0.2980  0.9422 -0.7738
  418SOL    HW3 1439   2.363   0.822   4.805  0.5338 -0.2504  1.3669
  418SOL    MW4 1440   2.419   0.888   4.810  0.0890  0.2311  0.2949
  419SOL     OW 1441   2.923   4.490   5.422  0.0439 -0.4452 -0.2078
  419SOL    HW2 1442   2.869   4.513   5.347  1.4058  0.3438 -0.9860
  419SOL    HW3 1443   2.906   4.560   5.486  0.7213  0.2554 -0.7702
  419SOL    MW4 1444   2.914   4.502   5.421  0.3129 -0.2486 -0.3847
  420SOL     OW 1445   4.408   1.414   1.988  0.2725  0.1963 -0.6212
  420SOL    HW2 1446   4.357   1.333   1.988 -1.2560  1.0251  1.9473
  420SOL    HW3 1447   4.392   1.452   1.901  0.5188 -1.8816 -1.6398
  420SOL    MW4 1448   4.399   1.409   1.977  0.1034  0.0315 -0.4167
  421SOL     OW 1449   3.375   5.995   4.166  0.8588  0.0330 -0.2500
  421SOL    HW2 1450   3.397   6.016   4.256 -1.6965 -0.8265  0.6593
  421SOL    HW3 1451   3.355   5.901   4.168 -3.5355  0.7494 -0.6107
  421SOL    MW4 1452   3.375   5.985   4.178 -0.0581  0.0141 -0.1776
  422SOL     OW 1453   4.798   4.106   3.393  0.4259 -0.3671 -0.1277
  422SOL    HW2 1454   4.871   4.060   3.433  1.1567 -0.0550 -1.0737
  422SOL    HW3 1455   4.823   4.198   3.394  0.4464 -0.3392 -1.2066
  422SOL    MW4 1456   4.811   4.112   3.398  0.5251 -0.3222 -0.3948
  423SOL     OW 1457   2.462   2.062   0.994 -0.0297 -0.4363  0.5878
  423SOL    HW2 1458   2.481   2.130   1.058 -0.0438 -0.4124  0.5662
  423SOL    HW3 1459   2.389   2.096   0.943  0.2950 -0.2504  0.2429
  423SOL    MW4 1460   2.455   2.075   0.996  0.0113 -0.4086  0.5395
  424SOL     OW 1461   4.690   5.487   2.916  0.3896 -0.5171  0.0454
  424SOL    HW2 1462   4.750   5.440   2.857 -0.6815 -1.3624 -0.4087
  424SOL    HW3 1463   4.650   5.554   2.861 -1.3591 -1.9476 -0.5142
  424SOL    MW4 1464   4.693   5.490   2.901  0.0175 -0.8174 -0.0883
  425SOL     OW 1465   0.093   4.773   2.398 -0.3353  0.2411  0.3040
  425SOL    HW2 1466   0.112   4.728   2.316  1.3972  0.5416  0.5104
  425SOL    HW3 1467   0.103   4.866   2.378  1.0388  0.2765  1.0609
  425SOL    MW4 1468   0.097   4.779   2.384  0.0746  0.2854  0.4311
  426SOL     OW 1469   5.541   0.530   0.831  0.2721  0.0723  0.8331
  426SOL    HW2 1470   5.516   0.607   0.781 -0.1016 -0.1271  0.7126
  426SOL    HW3 1471   5.501   0.543   0.917 -2.1291 -1.2704 -0.0142
  426SOL    MW4 1472   5.533   0.542   0.836 -0.0940 -0.1312  0.7054
  427SOL     OW 1473   3.462   1.281   4.160 -0.3378  0.4346 -0.4420
  427SOL    HW2 1474   3.496   1.193   4.177  0.7280  1.3618  2.9752
  427SOL    HW3 1475   3.531   1.324   4.109 -0.6131 -0.5012 -1.6352
  427SOL    MW4 1476   3.476   1.275   4.156 -0.2335  0.4335 -0.1486
  428SOL     OW 1477   1.603   4.088   3.049  0.1538  0.2377  0.5026
  428SOL    HW2 1478   1.574   4.177   3.027  0.4919  0.2525  0.0942
  428SOL    HW3 1479   1.623   4.048   2.964  1.0901  0.1537  0.7576
  428SOL    MW4 1480   1.602   4.095   3.035  0.3220  0.2286  0.4823
  429SOL     OW 1481   0.131   4.661   0.486  0.2727  0.1009 -0.0694
  429SOL    HW2 1482   0.163   4.651   0.396  1.0470  0.0832  0.2019
  429SOL    HW3 1483   0.139   4.754   0.504  4.2549 -0.3381  1.4298
  429SOL    MW4 1484   0.136   4.672   0.476  0.9003  0.0407  0.1642
  430SOL     OW 1485   3.842   0.177   5.044  0.4206  0.4067 -0.1864
  430SOL    HW2 1486   3.758   0.143   5.077  0.2829 -0.3303 -1.2656
  430SOL    HW3 1487   3.893   0.193   5.123 -0.3830 -0.0530  0.4491
  430SOL    MW4 1488   3.837   0.175   5.059  0.2964  0.2488 -0.2450
  431SOL     OW 1489   4.642   0.229   0.054 -0.4199 -0.0561 -0.0925
  431SOL    HW2 1490   4.658   0.311   0.099  0.4766 -0.0208 -0.4557
  431SOL    HW3 1491   4.600   0.254  -0.028  1.6475  0.2333 -1.1167
  431SOL    MW4 1492   4.639   0.243   0.049 -0.0289 -0.0132 -0.2756
  432SOL     OW 1493   0.919   5.742   0.995  0.1344  0.2397 -0.5161
  432SOL    HW2 1494   0.974   5.777   0.926  1.2793  1.2048  0.8256
  432SOL    HW3 1495   0.895   5.818   1.048 -1.4010 -0.3553 -0.2958
  432SOL    MW4 1496   0.923   5.757   0.993  0.0829  0.2885 -0.3100
  433SOL     OW 1497   4.156   0.943   5.874 -0.3448  0.3856 -0.3260
  433SOL    HW2 1498   4.192   1.032   5.876 -1.6777  1.0094 -1.8458
  433SOL    HW3 1499   4.097   0.943   5.798 -1.5034 -1.3543  0.5202
  433SOL    MW4 1500   4.153   0.955   5.864 -0.6735  0.2383 -0.4149
  434SOL     OW 1501   5.584   2.603   1.992 -0.7051 -0.4161 -0.1831
  434SOL    HW2 1502   5.538   2.687   1.996 -0.8350 -0.4814 -0.3488
  434SOL    HW3 1503   5.566   2.569   1.905  0.0977 -0.1903 -0.4523
  434SOL    MW4 1504   5.576   2.610   1.981 -0.6164 -0.3949 -0.2405
  435SOL     OW 1505   1.320   6.036   5.334 -0.9447  0.0978 -0.4086
  435SOL    HW2 1506   1.389   6.055   5.271 -0.9272 -0.0900 -0.4477
  435SOL    HW3 1507   1.239   6.048   5.285 -1.0528  2.6180  0.2379
  435SOL    MW4 1508   1.318   6.040   5.319 -0.9567  0.4055 -0.3285
  436SOL     OW 1509   4.583   3.394   0.608  0.3902 -0.5315 -0.0711
  436SOL    HW2 1510   4.600   3.300   0.608 -1.2389 -0.8489 -0.6696
  436SOL    HW3 1511   4.547   3.412   0.694  1.0188 -0.3668  0.1688
  436SOL    MW4 1512   4.581   3.384   0.619  0.2582 -0.5516 -0.1184
  437SOL     OW 1513   5.411   4.079   0.888 -0.5723 -0.6348 -0.1698
  437SOL    HW2 1514   5.371   4.001   0.849 -1.9031 -0.1260  0.1201
  437SOL    HW3 1515   5.353   4.103   0.960 -0.2791  0.7039 -0.3416
  437SOL    MW4 1516   5.398   4.072   0.892 -0.7092 -0.3910 -0.1542
  438SOL     OW 1517   2.822   6.176   2.340  0.1790  0.2417  0.0562
  438SOL    HW2 1518   2.891   6.177   2.274 -0.1552 -0.6204 -0.3177
  438SOL    HW3 1519   2.747   6.216   2.297 -0.4148 -1.4600 -0.5199
  438SOL    MW4 1520   2.821   6.182   2.326  0.0565 -0.0966 -0.0691
  439SOL     OW 1521   3.853   3.819   5.956  0.0467 -0.0822 -0.1469
  439SOL    HW2 1522   3.913   3.868   5.901  1.0355  0.4427  1.3463
  439SOL    HW3 1523   3.766   3.849   5.929  0.4627 -0.1284 -1.6528
  439SOL    MW4 1524   3.849   3.829   5.945  0.2321 -0.0190 -0.1485
  440SOL     OW 1525   3.867   6.303   0.699  0.6565  0.5003  0.5214
  440SOL    HW2 1526   3.888   6.386   0.656 -0.0070  0.8127  0.7858
  440SOL    HW3 1527   3.774   6.309   0.719  0.7732  0.0157  1.2626
  440SOL    MW4 1528   3.858   6.315   0.696  0.5844  0.4776  0.6541
  441SOL     OW 1529   0.257   0.786   6.069 -0.0087 -0.1017  0.2917
  441SOL    HW2 1530   0.197   0.823   6.005 -1.3395 -0.5994  1.2218
  441SOL    HW3 1531   0.265   0.853   6.137  2.2919  0.9122 -0.8411
  441SOL    MW4 1532   0.250   0.800   6.070  0.1192 -0.0336  0.2650
  442SOL     OW 1533   5.541   6.321   1.197  0.3004  0.2280 -0.7014
  442SOL    HW2 1534   5.563   6.299   1.288  1.2162  1.4934 -0.5900
  442SOL    HW3 1535   5.567   6.244   1.147  0.9880  0.0146 -0.0376
  442SOL    MW4 1536   5.547   6.308   1.203  0.5119  0.3668 -0.5991
  443SOL     OW 1537   4.657   1.553   0.330  0.1083  0.4168 -0.4105
  443SOL    HW2 1538   4.704   1.541   0.248 -0.1445  1.2812 -0.6947
  443SOL    HW3 1539   4.588   1.617   0.309 -0.1248  0.4472  0.4073
  443SOL    MW4 1540   4.654   1.560   0.317  0.0442  0.5349 -0.3401
  444SOL     OW 1541   5.317   1.361   4.785  0.0695 -0.3050  0.1983
  444SOL    HW2 1542   5.382   1.299   4.818 -0.8732 -0.9131  0.9735
  444SOL    HW3 1543   5.272   1.314   4.715  1.2136  0.5299 -1.1405
  444SOL    MW4 1544   5.320   1.347   4.780  0.0961 -0.2751  0.1240
  445SOL     OW 1545   0.009   3.597   2.321  0.1936  0.3035  0.1975
  445SOL    HW2 1546  -0.050   3.640   2.384 -1.6687 -0.9419 -0.6038
  445SOL    HW3 1547  -0.037   3.517   2.296  1.3990  0.1998 -1.8939
  445SOL    MW4 1548  -0.005   3.592   2.326  0.1070  0.1255 -0.1842
  446SOL     OW 1549   3.214   1.320   4.045 -0.3630 -0.1268  0.3351
  446SOL    HW2 1550   3.213   1.266   3.965  0.6529 -1.0961  0.9475
  446SOL    HW3 1551   3.302   1.307   4.081 -0.3133  1.4652  0.8460
  446SOL    MW4 1552   3.226   1.311   4.039 -0.2224 -0.0447  0.4833
  447SOL     OW 1553   1.036   1.900   4.629  0.3136 -0.5174 -0.4147
  447SOL    HW2 1554   0.945   1.922   4.611  0.9336  1.5171 -1.3893
  447SOL    HW3 1555   1.044   1.905   4.725 -1.3056 -4.1033  0.0459
  447SOL    MW4 1556   1.025   1.904   4.639  0.1818 -0.7221 -0.4825
  448SOL     OW 1557   0.107   6.169   5.042 -0.5713 -0.5245  0.2564
  448SOL    HW2 1558   0.058   6.098   5.085 -1.2393  0.3789  1.0367
  448SOL    HW3 1559   0.054   6.247   5.058 -0.6233 -0.0825 -1.8995
  448SOL    MW4 1560   0.094   6.170   5.050 -0.6663 -0.3470  0.0749
  449SOL     OW 1561   4.128   5.387   2.360  0.0224 -0.4131  0.1916
  449SOL    HW2 1562   4.180   5.436   2.296 -0.7708  0.3457  0.1110
  449SOL    HW3 1563   4.042   5.428   2.357 -0.3332 -1.0840  0.9618
  449SOL    MW4 1564   4.123   5.399   2.351 -0.1292 -0.4015  0.2826
  450SOL     OW 1565   6.216   1.965   1.896 -0.7463  0.1356  0.6367
  450SOL    HW2 1566   6.234   1.951   1.988  1.5263  0.2446  0.2720
  450SOL    HW3 1567   6.221   1.878   1.856 -1.2568  0.1494  0.5286
  450SOL    MW4 1568   6.219   1.952   1.903 -0.5138  0.1518  0.5743
  451SOL     OW 1569   4.976   5.414   1.999 -0.1828  0.5503 -1.3459
  451SOL    HW2 1570   4.882   5.419   2.018  0.1219  0.8498  0.1710
  451SOL    HW3 1571   4.991   5.483   1.935 -0.5846  2.1317  0.2092
  451SOL    MW4 1572   4.965   5.423   1.993 -0.1956  0.7985 -0.9406
  452SOL     OW 1573   1.620   1.125   3.471 -0.0285 -0.1007 -0.2361
  452SOL    HW2 1574   1.658   1.041   3.446 -0.7483 -0.3909 -0.3772
  452SOL    HW3 1575   1.594   1.114   3.563  2.6789  0.9861  0.7574
  452SOL    MW4 1576   1.621   1.113   3.480  0.2337  0.0044 -0.1236
  453SOL     OW 1577   3.239   3.005   1.040 -0.2164 -0.0755  0.0658
  453SOL    HW2 1578   3.219   2.946   0.967  0.1910  1.1806 -1.0884
  453SOL    HW3 1579   3.329   2.981   1.065  0.9124  1.6720 -2.0630
  453SOL    MW4 1580   3.249   2.994   1.034 -0.0137  0.3208 -0.3674
  454SOL     OW 1581   2.298   2.628   3.448  0.3833 -0.5808 -0.5943
  454SOL    HW2 1582   2.305   2.714   3.490  1.9532 -0.3350 -1.2920
  454SOL    HW3 1583   2.240   2.578   3.505 -1.6878  1.3410 -0.8832
  454SOL    MW4 1584   2.291   2.632   3.461  0.3172 -0.2948 -0.7245
  455SOL     OW 1585   1.794   6.302   2.414  0.0609 -0.1658 -0.4907
  455SOL    HW2 1586   1.827   6.329   2.328  1.5074 -0.3039 -0.0104
  455SOL    HW3 1587   1.843   6.356   2.476 -0.3761 -0.6430  0.2845
  455SOL    MW4 1588   1.805   6.313   2.411  0.1941 -0.2470 -0.3250
  456SOL     OW 1589   5.256   1.234   2.145 -0.3727 -0.5411  0.2854
  456SOL    HW2 1590   5.279   1.279   2.064 -0.9265 -0.0254  0.4103
  456SOL    HW3 1591   5.262   1.302   2.212  1.8307 -1.3364  0.9940
  456SOL    MW4 1592   5.260   1.249   2.143 -0.1551 -0.5780  0.3953
  457SOL     OW 1593   0.003   4.089   4.018 -0.2946 -0.0883  0.2622
  457SOL    HW2 1594   0.065   4.103   4.090 -0.1825  0.3538  0.0806
  457SOL    HW3 1595   0.058   4.087   3.939 -0.3698 -0.9811  0.2180
  457SOL    MW4 1596   0.019   4.090   4.017 -0.2897 -0.1477  0.2324
  458SOL     OW 1597   1.224   4.119   4.174 -0.3962  0.4583 -0.4582
  458SOL    HW2 1598   1.181   4.148   4.093 -3.2639 -0.4230  0.6570
  458SOL    HW3 1599   1.183   4.170   4.243  0.6056 -0.2083  0.6755
  458SOL    MW4 1600   1.213   4.130   4.172 -0.6424  0.2541 -0.1615
  459SOL     OW 1601   6.158   5.932   3.097 -0.5171  0.0014 -0.8495
  459SOL    HW2 1602   6.212   5.908   3.021  0.1662  0.1107 -0.4017
  459SOL    HW3 1603   6.218   5.977   3.156 -0.5820 -1.7077  0.5952
  459SOL    MW4 1604   6.173   5.934   3.094 -0.4355 -0.2097 -0.5998
  460SOL     OW 1605   4.838   5.467   4.151  0.1609 -0.6986 -0.4782
  460SOL    HW2 1606   4.816   5.512   4.233 -2.1394  0.1187 -1.4402
  460SOL    HW3 1607   4.859   5.378   4.177  0.2988 -0.2278  1.0864
  460SOL    MW4 1608   4.838   5.461   4.165 -0.1244 -0.5286 -0.3987
  461SOL     OW 1609   0.337   0.596   4.034  0.2859  0.2005  0.0960
  461SOL    HW2 1610   0.308   0.653   3.963  0.4321 -0.2572 -0.3302
  461SOL    HW3 1611   0.432   0.593   4.025  0.2203 -0.7277 -0.3592
  461SOL    MW4 1612   0.346   0.603   4.024  0.2965  0.0177 -0.0203
  462SOL     OW 1613   0.462   3.870   3.757 -0.4618  0.7618  0.2112
  462SOL    HW2 1614   0.432   3.782   3.733  0.1166  0.4656  0.5494
  462SOL    HW3 1615   0.431   3.926   3.687 -1.4599  0.4020  0.3413
  462SOL    MW4 1616   0.454   3.866   3.745 -0.5172  0.6752  0.2730
  463SOL     OW 1617   1.525   0.819   4.009 -0.1244  0.1130  0.5516
  463SOL    HW2 1618   1.485   0.732   4.009 -0.5612  0.3102  0.3726
  463SOL    HW3 1619   1.559   0.830   4.097  1.8554 -1.1036  0.0018
  463SOL    MW4 1620   1.525   0.809   4.020  0.0792 -0.0215  0.4555
  464SOL     OW 1621   1.012   1.999   1.753  0.5704  0.1795  0.2383
  464SOL    HW2 1622   1.012   1.904   1.765 -1.9447  0.2391  1.3808
  464SOL    HW3 1623   0.972   2.033   1.833 -0.9922  1.9896 -1.2125
  464SOL    MW4 1624   1.007   1.991   1.765  0.0324  0.4262  0.1976
  465SOL     OW 1625   6.236   5.866   0.844  0.0180  0.0189  0.1117
  465SOL    HW2 1626   6.298   5.816   0.791 -0.0062 -0.1714  0.2609
  465SOL    HW3 1627   6.273   5.954   0.846 -0.8659  0.4823 -1.6554
  465SOL    MW4 1628   6.249   5.871   0.837 -0.1018  0.0550 -0.1018
  466SOL     OW 1629   4.182   3.111   4.707 -0.0505  0.2923 -0.2480
  466SOL    HW2 1630   4.197   3.203   4.730 -0.7868  0.8397 -1.8569
  466SOL    HW3 1631   4.163   3.112   4.613  3.8959 -1.9324 -1.2784
  466SOL    MW4 1632   4.182   3.123   4.698  0.3730  0.0710 -0.5962
  467SOL     OW 1633   1.254   4.372   1.082  0.2926  0.3069 -0.0856
  467SOL    HW2 1634   1.216   4.447   1.036 -0.1646 -0.9075 -1.7931
  467SOL    HW3 1635   1.348   4.379   1.068  0.5835  1.9884  2.0933
  467SOL    MW4 1636   1.262   4.383   1.074  0.2706  0.3685 -0.0234
  468SOL     OW 1637   5.053   5.472   1.446  0.1099 -0.0841  0.0895
  468SOL    HW2 1638   5.042   5.406   1.514  0.6277 -0.4909 -0.2135
  468SOL    HW3 1639   4.970   5.519   1.445  0.6601  1.0541  2.1635
  468SOL    MW4 1640   5.041   5.469   1.455  0.2508  0.0124  0.3232
  469SOL     OW 1641   4.022   1.536   0.242 -0.7147  0.2988 -0.3257
  469SOL    HW2 1642   4.102   1.485   0.253 -0.7056 -0.1475 -2.1466
  469SOL    HW3 1643   3.988   1.548   0.331  0.1521 -1.4546  0.2732
  469SOL    MW4 1644   4.028   1.531   0.255 -0.5992  0.0086 -0.4869
  470SOL     OW 1645   2.332   4.931   0.713 -0.3878 -0.2933  0.6377
  470SOL    HW2 1646   2.310   5.007   0.766 -2.1652  1.0147 -1.7887
  470SOL    HW3 1647   2.266   4.865   0.735 -0.7647  0.0234  0.4403
  470SOL    MW4 1648   2.321   4.932   0.723 -0.6720 -0.0790  0.2915
  471SOL     OW 1649   0.593   5.163   2.275 -0.0685 -0.4841  0.0781
  471SOL    HW2 1650   0.587   5.194   2.365 -0.5047  3.5014 -1.1410
  471SOL    HW3 1651   0.531   5.090   2.270 -3.3436  1.9385  2.0403
  471SOL    MW4 1652   0.584   5.157   2.286 -0.5582  0.3614  0.1762
  472SOL     OW 1653   0.680   5.747   2.983 -0.3473 -0.5859 -0.6359
  472SOL    HW2 1654   0.593   5.721   2.952 -1.5042  1.3925  0.7082
  472SOL    HW3 1655   0.707   5.815   2.921  0.2958 -1.2292 -1.0774
  472SOL    MW4 1656   0.672   5.753   2.970 -0.4151 -0.4097 -0.5168
  473SOL     OW 1657   2.362   4.734   4.378  0.1190  0.0293  0.1877
  473SOL    HW2 1658   2.360   4.829   4.390  0.9515  0.1184 -0.3024
  473SOL    HW3 1659   2.400   4.700   4.458 -0.3151  0.0903  0.4241
  473SOL    MW4 1660   2.366   4.742   4.390  0.1716  0.0491  0.1542
  474SOL     OW 1661   2.568   6.192   3.914 -0.4054  0.5830  0.3517
  474SOL    HW2 1662   2.555   6.186   3.819 -1.7155  1.0838  0.4717
  474SOL    HW3 1663   2.490   6.151   3.951  1.1633 -1.7874  1.2759
  474SOL    MW4 1664   2.556   6.186   3.906 -0.3713  0.3363  0.4895
  475SOL     OW 1665   2.387   4.634   0.711  0.0758 -0.4504 -0.0910
  475SOL    HW2 1666   2.446   4.689   0.659  0.1017 -1.3066 -0.9999
  475SOL    HW3 1667   2.444   4.595   0.778  0.4683 -0.9009 -0.6702
  475SOL    MW4 1668   2.402   4.636   0.713  0.1310 -0.6228 -0.2873
  476SOL     OW 1669   0.846   5.277   4.624 -0.1499 -0.3698 -0.5482
  476SOL    HW2 1670   0.824   5.309   4.712  0.9173 -1.1530  0.0337
  476SOL    HW3 1671   0.778   5.313   4.568 -0.3988  0.8364  0.4670
  476SOL    MW4 1672   0.834   5.286   4.629 -0.0419 -0.3140 -0.3375
  477SOL     OW 1673   3.401   2.388   2.435 -0.2040  0.3511 -0.2143
  477SOL    HW2 1674   3.400   2.447   2.510 -1.7219  0.9697 -0.6902
  477SOL    HW3 1675   3.418   2.301   2.472 -0.2024  0.7592  0.7505
  477SOL    MW4 1676   3.403   2.384   2.450 -0.4041  0.4865 -0.1498
  478SOL     OW 1677   6.124   3.212   3.093 -0.6173  0.3110 -0.7099
  478SOL    HW2 1678   6.029   3.202   3.085 -0.7616  1.0514 -0.0800
  478SOL    HW3 1679   6.147   3.277   3.027 -0.7595  1.1076 -0.0037
  478SOL    MW4 1680   6.115   3.220   3.084 -0.6551  0.5138 -0.5336
  479SOL     OW 1681   0.251   2.385   2.155 -0.7223  0.3066 -0.2994
  479SOL    HW2 1682   0.228   2.410   2.066  0.9587  0.4003 -0.7469
  479SOL    HW3 1683   0.200   2.444   2.211 -0.2310  1.6893 -1.2512
  479SOL    MW4 1684   0.242   2.396   2.151 -0.4357  0.5014 -0.4840
  480SOL     OW 1685   4.755   1.104   4.028  0.4783 -0.2515 -0.4364
  480SOL    HW2 1686   4.817   1.128   4.097  0.2917 -0.4156 -0.2064
  480SOL    HW3 1687   4.716   1.022   4.059 -0.8202  0.5263  0.0722
  480SOL    MW4 1688   4.758   1.096   4.041  0.2823 -0.1705 -0.3389
  481SOL     OW 1689   2.373   3.583   6.206  0.7418 -0.3532  0.2539
  481SOL    HW2 1690   2.440   3.535   6.158 -0.4831 -0.1097 -1.7960
  481SOL    HW3 1691   2.311   3.516   6.234  1.8850 -0.6172  2.4020
  481SOL    MW4 1692   2.374   3.568   6.204  0.7310 -0.3559  0.2668
  482SOL     OW 1693   0.464   1.006   0.389  0.5133  0.3980  0.0688
  482SOL    HW2 1694   0.372   1.033   0.383 -0.0179 -1.5298 -1.3356
  482SOL    HW3 1695   0.477   0.984   0.481 -1.0010 -1.1178 -0.0518
  482SOL    MW4 1696   0.454   1.007   0.400  0.2434 -0.0563 -0.1324
  483SOL     OW 1697   0.145   2.477   1.375  0.0936  0.0939  0.1923
  483SOL    HW2 1698   0.125   2.522   1.293  2.4418 -0.2435 -0.6511
  483SOL    HW3 1699   0.103   2.391   1.367 -1.7805  0.9394  0.4704
  483SOL    MW4 1700   0.137   2.471   1.363  0.1562  0.1610  0.1177
  484SOL     OW 1701   5.882   0.942   4.399  0.1061 -0.4169 -0.2416
  484SOL    HW2 1702   5.968   0.978   4.377  0.1122 -1.2442 -1.6568
  484SOL    HW3 1703   5.833   0.944   4.318 -1.1109 -0.2726  0.4816
  484SOL    MW4 1704   5.887   0.947   4.386 -0.0537 -0.5070 -0.3329
  485SOL     OW 1705   4.490   2.842   1.542 -0.7845 -0.2451  0.0183
  485SOL    HW2 1706   4.506   2.828   1.636 -0.1925 -0.5442 -0.1245
  485SOL    HW3 1707   4.576   2.862   1.506 -0.5159 -2.6686 -0.9025
  485SOL    MW4 1708   4.503   2.843   1.550 -0.6709 -0.6043 -0.1220
  486SOL     OW 1709   1.351   2.148   0.626 -0.6587 -0.7023 -0.1682
  486SOL    HW2 1710   1.361   2.200   0.546  2.8524  0.7592  1.0625
  486SOL    HW3 1711   1.346   2.057   0.594  1.8067 -0.2665 -2.0919
  486SOL    MW4 1712   1.351   2.143   0.611  0.1298 -0.4520 -0.2597
  487SOL     OW 1713   4.012   6.230   3.890  0.0345  0.0901 -0.1217
  487SOL    HW2 1714   3.977   6.287   3.822  1.3499  1.0162 -0.0710
  487SOL    HW3 1715   4.013   6.143   3.850  0.9374  0.6419 -1.3773
  487SOL    MW4 1716   4.008   6.226   3.876  0.3272  0.2851 -0.2807
  488SOL     OW 1717   3.486   3.452   2.572 -0.0030  0.0324  0.6961
  488SOL    HW2 1718   3.531   3.534   2.591  1.7029 -0.3412 -1.3795
  488SOL    HW3 1719   3.417   3.475   2.511 -1.1161  0.2499  2.0087
  488SOL    MW4 1720   3.483   3.466   2.567  0.0752  0.0118  0.5955
  489SOL     OW 1721   2.197   5.402   3.832 -0.3386 -0.2313  0.1181
  489SOL    HW2 1722   2.120   5.458   3.828 -1.1367 -1.3437 -1.0431
  489SOL    HW3 1723   2.257   5.438   3.766 -1.4635 -1.5431 -1.7057
  489SOL    MW4 1724   2.195   5.414   3.823 -0.5923 -0.5511 -0.2757
  490SOL     OW 1725   1.813   5.822   0.254  0.2352  0.0355  0.5154
  490SOL    HW2 1726   1.720   5.796   0.248 -0.3780  1.5979  2.4115
  490SOL    HW3 1727   1.841   5.828   0.162 -1.5107 -0.4974 -0.1055
  490SOL    MW4 1728   1.804   5.819   0.241 -0.0761  0.1713  0.6837
  491SOL     OW 1729   4.861   5.362   3.658  0.4647  0.0720 -0.6541
  491SOL    HW2 1730   4.805   5.310   3.716 -0.3044  1.6122  0.0216
  491SOL    HW3 1731   4.805   5.385   3.584 -0.1872  2.4240  0.4718
  491SOL    MW4 1732   4.847   5.358   3.656  0.2772  0.5855 -0.4164
  492SOL     OW 1733   4.130   3.267   1.203 -0.1169 -0.4814 -0.6539
  492SOL    HW2 1734   4.162   3.321   1.276 -0.4720  0.3702 -1.1043
  492SOL    HW3 1735   4.103   3.185   1.244 -1.8983  0.5876  0.4867
  492SOL    MW4 1736   4.130   3.263   1.218 -0.3988 -0.2280 -0.5629
  493SOL     OW 1737   4.890   5.187   2.247  0.0449 -0.1970  0.0841
  493SOL    HW2 1738   4.905   5.148   2.162  0.6106 -0.4287  0.2829
  493SOL    HW3 1739   4.830   5.127   2.292  0.4118 -0.5117  0.1573
  493SOL    MW4 1740   4.884   5.174   2.242  0.1680 -0.2691  0.1200
  494SOL     OW 1741   1.739   4.129   2.441 -0.1947 -0.1134  0.2142
  494SOL    HW2 1742   1.723   4.039   2.467  2.0462 -0.8446 -0.7110
  494SOL    HW3 1743   1.697   4.182   2.509 -2.5094 -1.8034  0.1719
  494SOL    MW4 1744   1.732   4.124   2.453 -0.2044 -0.4328  0.0866
  495SOL     OW 1745   1.607   0.057   3.960  0.1776  0.1852  0.3011
  495SOL    HW2 1746   1.589  -0.036   3.954  0.5513  0.0493  1.0965
  495SOL    HW3 1747   1.578   0.093   3.876  1.3968 -0.8647 -0.6164
  495SOL    MW4 1748   1.601   0.050   3.948  0.3877  0.0287  0.2850
  496SOL     OW 1749   2.620   6.071   5.412 -0.0470  0.1322 -0.1389
  496SOL    HW2 1750   2.666   6.057   5.494  0.7183  0.0622 -0.5761
  496SOL    HW3 1751   2.658   6.008   5.351  0.6039  1.3374 -1.0128
  496SOL    MW4 1752   2.631   6.061   5.415  0.1398  0.2820 -0.3118
  497SOL     OW 1753   1.466   5.465   4.081  0.2151  0.2492 -0.2685
  497SOL    HW2 1754   1.378   5.504   4.084  0.6261  1.1792  0.8787
  497SOL    HW3 1755   1.460   5.388   4.138  0.0884  0.2046 -0.3434
  497SOL    MW4 1756   1.454   5.460   4.089  0.2526  0.3660 -0.1270
  498SOL     OW 1757   1.953   6.241   0.848 -0.2949  0.3131  0.4547
  498SOL    HW2 1758   1.905   6.289   0.915 -0.2793 -0.6655  1.1876
  498SOL    HW3 1759   1.969   6.155   0.887  2.9691  0.9015  0.6892
  498SOL    MW4 1760   1.949   6.236   0.862  0.1378  0.2616  0.5823
  499SOL     OW 1761   5.439   0.310   6.374  0.2833  0.1659  0.1573
  499SOL    HW2 1762   5.365   0.266   6.417  0.5316 -1.8672 -1.3551
  499SOL    HW3 1763   5.414   0.315   6.282  1.6578  0.2094 -0.2400
  499SOL    MW4 1764   5.426   0.305   6.368  0.4974 -0.0966 -0.0947
  500SOL     OW 1765   3.205   5.147   4.845 -0.1130  0.0368  0.1842
  500SOL    HW2 1766   3.206   5.212   4.915 -0.2813 -0.7530  0.9441
  500SOL    HW3 1767   3.121   5.160   4.801  0.0759  0.6650  0.0076
  500SOL    MW4 1768   3.194   5.157   4.848 -0.1103  0.0155  0.2612
  501SOL     OW 1769   1.035   5.922   5.420 -0.0661  0.3016  0.1852
  501SOL    HW2 1770   1.002   5.891   5.505 -0.7377  1.2408  0.2788
  501SOL    HW3 1771   1.075   5.844   5.381 -1.7396 -0.7292  0.3860
  501SOL    MW4 1772   1.036   5.907   5.426 -0.3755  0.2895  0.2240
  502SOL     OW 1773   0.153   3.128   1.146 -0.5738  0.9814 -0.0525
  502SOL    HW2 1774   0.225   3.181   1.111 -1.9806  2.3219 -1.0328
  502SOL    HW3 1775   0.142   3.058   1.081 -0.1834  0.7781  0.0945
  502SOL    MW4 1776   0.161   3.125   1.133 -0.7079  1.1315 -0.1624
  503SOL     OW 1777   5.628   2.650   5.027  0.6782 -0.1604  0.0871
  503SOL    HW2 1778   5.639   2.562   4.992  2.4282  0.1917 -0.3530
  503SOL    HW3 1779   5.533   2.659   5.040  0.1567 -1.1252 -2.3951
  503SOL    MW4 1780   5.617   2.640   5.024  0.8403 -0.2412 -0.2985
  504SOL     OW 1781   4.203   6.290   6.192  0.3685 -0.0375  0.0690
  504SOL    HW2 1782   4.247   6.271   6.109  1.6434 -1.8273  1.0914
  504SOL    HW3 1783   4.190   6.205   6.232  2.0262  0.8724  2.8068
  504SOL    MW4 1784   4.207   6.276   6.186  0.7554 -0.1536  0.5651
  505SOL     OW 1785   1.496   3.125   2.195 -0.4877  0.1046  0.6046
  505SOL    HW2 1786   1.442   3.132   2.274  1.7065  1.2491  2.1331
  505SOL    HW3 1787   1.490   3.211   2.154 -0.8074 -0.1701  0.0560
  505SOL    MW4 1788   1.488   3.137   2.200 -0.2404  0.2193  0.7338
  506SOL     OW 1789   3.141   1.917   0.084 -0.1135 -0.3602  0.0132
  506SOL    HW2 1790   3.157   1.902   0.177  2.5743  0.3907 -0.2362
  506SOL    HW3 1791   3.100   2.004   0.081 -0.2453 -0.4009  0.4804
  506SOL    MW4 1792   3.137   1.927   0.096  0.2237 -0.2665  0.0419
  507SOL     OW 1793   4.084   4.951   1.442  0.2095  0.1077  0.0390
  507SOL    HW2 1794   4.008   5.007   1.425 -0.4070 -0.4902  0.7844
  507SOL    HW3 1795   4.080   4.883   1.374 -1.6430 -1.6530  1.7872
  507SOL    MW4 1796   4.074   4.949   1.431 -0.1162 -0.2035  0.3680
  508SOL     OW 1797   5.935   0.143   1.951  0.5874  0.0092 -0.1700
  508SOL    HW2 1798   5.982   0.211   1.903 -1.2068  1.5471  0.1242
  508SOL    HW3 1799   5.996   0.070   1.956  2.0294  1.0354 -1.8498
  508SOL    MW4 1800   5.949   0.142   1.946  0.5409  0.3475 -0.3528
  509SOL     OW 1801   2.535   3.044   0.977 -0.0970 -0.2435  0.1502
  509SOL    HW2 1802   2.447   3.015   0.953  0.5568 -0.8802 -1.6592
  509SOL    HW3 1803   2.575   2.968   1.019 -0.7401  0.3922  1.9831
  509SOL    MW4 1804   2.529   3.030   0.979 -0.0956 -0.2436  0.1533
  510SOL     OW 1805   4.338   5.479   2.841 -0.1161  0.6941 -0.5519
  510SOL    HW2 1806   4.375   5.568   2.837  0.9357  0.3303  0.3719
  510SOL    HW3 1807   4.376   5.442   2.921 -2.7336  0.3591  0.6350
  510SOL    MW4 1808   4.348   5.486   2.851 -0.3227  0.6019 -0.2734
  511SOL     OW 1809   3.794   1.834   6.061 -0.6090 -0.1198 -0.0593
  511SOL    HW2 1810   3.879   1.869   6.087 -0.5248 -0.5143  0.2067
  511SOL    HW3 1811   3.731   1.883   6.114 -0.4931 -0.3641  0.3067
  511SOL    MW4 1812   3.797   1.845   6.071 -0.5826 -0.2041  0.0240
  512SOL     OW 1813   6.162   5.107   2.196  0.0544 -0.7182  0.2303
  512SOL    HW2 1814   6.138   5.094   2.288 -0.6346  0.7410  0.2831
  512SOL    HW3 1815   6.078   5.117   2.151  0.4112 -0.8014 -0.4564
  512SOL    MW4 1816   6.148   5.107   2.202  0.0106 -0.5366  0.1466
  513SOL     OW 1817   4.308   0.115   3.934 -0.1615 -0.1386  0.7046
  513SOL    HW2 1818   4.218   0.140   3.954 -0.6466 -1.8869  0.8793
  513SOL    HW3 1819   4.339   0.072   4.014  1.1800  1.2782  0.9935
  513SOL    MW4 1820   4.300   0.112   3.948 -0.0485 -0.1824  0.7658
  514SOL     OW 1821   2.681   0.676   3.902 -0.2692  0.1962 -0.1312
  514SOL    HW2 1822   2.649   0.622   3.974  1.7484 -0.8830  0.0503
  514SOL    HW3 1823   2.700   0.613   3.832 -0.7475  1.0534 -1.0544
  514SOL    MW4 1824   2.679   0.660   3.902 -0.0661  0.1669 -0.2291
  515SOL     OW 1825   1.251   0.616   0.956 -0.0343 -0.1798  0.1833
  515SOL    HW2 1826   1.317   0.645   1.020 -1.4007  0.5194  1.3453
  515SOL    HW3 1827   1.279   0.654   0.873  0.1155  1.5669  1.0007
  515SOL    MW4 1828   1.263   0.625   0.954 -0.1948  0.1429  0.4444
  516SOL     OW 1829   1.875   4.011   5.101  0.1949  0.1184  0.1510
  516SOL    HW2 1830   1.795   3.967   5.129 -0.2644  0.4678 -0.5856
  516SOL    HW3 1831   1.942   3.943   5.100  0.0528 -0.0631  1.3348
  516SOL    MW4 1832   1.873   3.997   5.105  0.1156  0.1405  0.2100
  517SOL     OW 1833   2.751   5.137   4.937  0.0392 -0.2912 -0.1550
  517SOL    HW2 1834   2.841   5.134   4.970  0.5050  0.4894 -1.3026
  517SOL    HW3 1835   2.711   5.208   4.987 -0.4562 -1.6607  1.5044
  517SOL    MW4 1836   2.758   5.146   4.948  0.0353 -0.3689 -0.0875
  518SOL     OW 1837   4.165   5.223   6.315 -0.0906  0.2440  0.4851
  518SOL    HW2 1838   4.169   5.166   6.391  0.5587  1.2867  1.2526
  518SOL    HW3 1839   4.239   5.195   6.260 -0.8608 -0.8455 -0.0393
  518SOL    MW4 1840   4.176   5.212   6.318 -0.1066  0.2378  0.5172
  519SOL     OW 1841   0.378   4.294   4.338  0.7388 -0.0250 -0.2206
  519SOL    HW2 1842   0.418   4.372   4.300  0.4263  1.2613  1.9150
  519SOL    HW3 1843   0.354   4.320   4.427  0.1768 -2.4214  0.4131
  519SOL    MW4 1844   0.380   4.308   4.345  0.6234 -0.1714  0.1448
  520SOL     OW 1845   2.243   5.144   0.297  0.4847 -0.1169 -0.1883
  520SOL    HW2 1846   2.172   5.105   0.348  2.1837 -0.5880  1.9576
  520SOL    HW3 1847   2.321   5.095   0.323  1.9535  1.7633 -0.8316
  520SOL    MW4 1848   2.243   5.132   0.307  0.9027  0.0691  0.0099
  521SOL     OW 1849   2.643   5.939   2.842 -0.4182  0.2868 -0.3167
  521SOL    HW2 1850   2.638   5.845   2.823 -1.2015  0.3432 -0.4321
  521SOL    HW3 1851   2.664   5.980   2.759  0.6536  0.1577 -0.1188
  521SOL    MW4 1852   2.645   5.932   2.829 -0.3802  0.2772 -0.3058
  522SOL     OW 1853   4.539   2.251   4.106  0.3410 -0.3838 -0.0257
  522SOL    HW2 1854   4.630   2.230   4.089  0.4358 -0.6344  0.7442
  522SOL    HW3 1855   4.520   2.209   4.191 -0.6004 -0.6985 -0.3729
  522SOL    MW4 1856   4.548   2.243   4.115  0.2293 -0.4584  0.0301
  523SOL     OW 1857   5.653   2.964   5.401  0.0703  0.6056  0.3350
  523SOL    HW2 1858   5.606   2.882   5.389 -0.3099  0.9540 -0.7154
  523SOL    HW3 1859   5.734   2.952   5.349 -0.6645  1.4077 -1.0614
  523SOL    MW4 1860   5.658   2.952   5.392 -0.0768  0.7574  0.0122
  524SOL     OW 1861   3.124   6.090   6.037  0.2194 -0.1508  0.3519
  524SOL    HW2 1862   3.033   6.092   6.067  0.4235 -0.5386  1.0138
  524SOL    HW3 1863   3.151   6.182   6.035 -0.0705 -0.0611  0.5258
  524SOL    MW4 1864   3.116   6.103   6.041  0.2081 -0.1902  0.4621
  525SOL     OW 1865   1.355   0.296   1.918 -0.1311  0.0992  0.0719
  525SOL    HW2 1866   1.429   0.265   1.865 -0.4608 -1.4476  0.4736
  525SOL    HW3 1867   1.363   0.248   2.000 -2.4980 -1.3844 -0.4798
  525SOL    MW4 1868   1.366   0.286   1.922 -0.4869 -0.3007  0.0521
  526SOL     OW 1869   2.935   3.101   3.354 -0.5210 -0.3954 -0.3897
  526SOL    HW2 1870   3.012   3.050   3.333 -1.4098 -1.9076 -0.0943
  526SOL    HW3 1871   2.862   3.039   3.351 -1.9696  1.2498 -2.1172
  526SOL    MW4 1872   2.935   3.086   3.351 -0.8294 -0.3779 -0.5787
  527SOL     OW 1873   2.277   5.032   1.984 -0.3840  0.3165  0.3950
  527SOL    HW2 1874   2.261   5.125   1.964 -0.7592 -0.0308 -1.0114
  527SOL    HW3 1875   2.297   4.992   1.900  0.1836 -0.8170  1.0466
  527SOL    MW4 1876   2.277   5.039   1.971 -0.3586  0.1211  0.2954
  528SOL     OW 1877   3.987   3.964   1.764  0.1066  0.3618  0.3815
  528SOL    HW2 1878   3.990   3.970   1.860  1.3666  3.0831  0.2715
  528SOL    HW3 1879   3.912   4.019   1.739  0.5025  0.6265 -0.2358
  528SOL    MW4 1880   3.977   3.972   1.773  0.3250  0.7558  0.2856
  529SOL     OW 1881   1.432   2.341   6.201 -0.2390 -0.0581 -0.0735
  529SOL    HW2 1882   1.414   2.252   6.231  0.4458 -0.4152 -0.7125
  529SOL    HW3 1883   1.414   2.396   6.278  0.2542 -0.8383  0.6127
  529SOL    MW4 1884   1.427   2.337   6.215 -0.0836 -0.2082 -0.0673
  530SOL     OW 1885   1.517   3.028   5.150  0.0663 -0.2988 -0.4742
  530SOL    HW2 1886   1.594   3.084   5.156  0.0373 -0.3920  1.1942
  530SOL    HW3 1887   1.448   3.085   5.115  1.1398 -0.5429 -3.2101
  530SOL    MW4 1888   1.518   3.043   5.146  0.2042 -0.3433 -0.6150
  531SOL     OW 1889   4.727   2.799   5.817  0.2420 -0.0120  0.1928
  531SOL    HW2 1890   4.753   2.712   5.785 -1.3051 -1.0166  1.4943
  531SOL    HW3 1891   4.637   2.810   5.785  0.3670  1.0422  0.1785
  531SOL    MW4 1892   4.719   2.789   5.808  0.0544 -0.0054  0.3626
  532SOL     OW 1893   2.626   6.304   3.643 -0.1900 -0.1807 -0.3875
  532SOL    HW2 1894   2.703   6.345   3.682 -0.1272 -0.0822 -0.6152
  532SOL    HW3 1895   2.652   6.283   3.554 -0.7899  0.8959 -0.8331
  532SOL    MW4 1896   2.639   6.307   3.637 -0.2609 -0.0256 -0.4763
  533SOL     OW 1897   5.842   2.311   6.190  0.3345  0.2932  0.0461
  533SOL    HW2 1898   5.883   2.281   6.271 -0.6018 -0.4202  0.2762
  533SOL    HW3 1899   5.821   2.230   6.143 -0.5545  0.6402 -0.1797
  533SOL    MW4 1900   5.845   2.296   6.194  0.0937  0.2449  0.0466
  534SOL     OW 1901   3.389   3.414   0.266 -0.0977 -0.2700 -0.3071
  534SOL    HW2 1902   3.334   3.435   0.342  0.4094 -0.9887  0.2638
  534SOL    HW3 1903   3.331   3.367   0.206 -0.2157 -0.6443  0.1033
  534SOL    MW4 1904   3.374   3.411   0.268 -0.0463 -0.4142 -0.1776
  535SOL     OW 1905   0.978   3.527   3.206 -0.3341 -0.6592  0.4370
  535SOL    HW2 1906   0.895   3.571   3.192 -1.1080 -2.0807  0.3541
  535SOL    HW3 1907   1.044   3.585   3.167 -1.3066  0.3773  0.3137
  535SOL    MW4 1908   0.976   3.540   3.199 -0.5645 -0.7100  0.4098
  536SOL     OW 1909   1.530   4.009   0.378  0.6488 -0.8910  0.1704
  536SOL    HW2 1910   1.534   4.022   0.283  1.2811  1.1050  0.4032
  536SOL    HW3 1911   1.619   4.029   0.407 -0.1391  1.0370  1.4071
  536SOL    MW4 1912   1.543   4.014   0.369  0.6283 -0.3732  0.3643
  537SOL     OW 1913   0.229   3.526   0.372 -0.0840  0.4037 -0.5387
  537SOL    HW2 1914   0.194   3.470   0.302 -1.7634  0.1571  0.4381
  537SOL    HW3 1915   0.188   3.611   0.357 -0.3592  0.3812  0.0744
  537SOL    MW4 1916   0.219   3.530   0.361 -0.3419  0.3682 -0.3289
  538SOL     OW 1917   3.933   4.689   6.013 -0.6377 -0.4154  0.9877
  538SOL    HW2 1918   3.858   4.738   6.045 -0.1795 -0.2161  1.7641
  538SOL    HW3 1919   3.923   4.601   6.050 -0.7860 -0.5492  0.6330
  538SOL    MW4 1920   3.922   4.684   6.022 -0.5968 -0.4068  1.0433
  539SOL     OW 1921   3.009   2.293   5.941  0.1160  0.9833  0.3712
  539SOL    HW2 1922   3.015   2.199   5.925  2.4686  1.4564 -2.2714
  539SOL    HW3 1923   3.099   2.322   5.953 -0.5555  2.9372  1.2074
  539SOL    MW4 1924   3.022   2.285   5.940  0.3378  1.3035  0.1329
  540SOL     OW 1925   5.220   1.549   0.446  0.1159 -0.3341  0.2419
  540SOL    HW2 1926   5.250   1.504   0.525  1.6227  0.5545  0.2146
  540SOL    HW3 1927   5.285   1.526   0.380 -0.3541  0.0677 -0.3656
  540SOL    MW4 1928   5.233   1.540   0.448  0.2527 -0.1639  0.1581
  541SOL     OW 1929   3.617   4.419   4.314  0.0691  0.0832 -0.6023
  541SOL    HW2 1930   3.576   4.496   4.275  2.0070  0.6500 -1.6011
  541SOL    HW3 1931   3.625   4.357   4.241  0.8121 -0.0779 -0.3919
  541SOL    MW4 1932   3.612   4.421   4.299  0.4228  0.1368 -0.7063
  542SOL     OW 1933   4.300   6.244   0.446 -0.0529 -0.1113  0.2833
  542SOL    HW2 1934   4.389   6.240   0.410  0.1641 -1.6088  0.9161
  542SOL    HW3 1935   4.310   6.216   0.537 -1.4114 -2.1135 -0.1369
  542SOL    MW4 1936   4.313   6.240   0.453 -0.2035 -0.5730  0.3114
  543SOL     OW 1937   0.568   1.830   3.435 -0.2330  0.3634 -0.8987
  543SOL    HW2 1938   0.642   1.797   3.384  1.5478  1.2078  1.0137
  543SOL    HW3 1939   0.586   1.923   3.445 -0.6820  0.2780  0.9883
  543SOL    MW4 1940   0.580   1.838   3.429 -0.0572  0.4635 -0.3974
  544SOL     OW 1941   0.706   0.369   5.060  0.0273 -0.6340  0.2889
  544SOL    HW2 1942   0.797   0.365   5.089 -0.1195 -0.7378  0.7444
  544SOL    HW3 1943   0.655   0.374   5.141 -0.3322  0.2636  0.0209
  544SOL    MW4 1944   0.711   0.369   5.075 -0.0395 -0.5293  0.3136
  545SOL     OW 1945   4.201   0.151   1.841  0.1720 -0.1506  0.3004
  545SOL    HW2 1946   4.264   0.205   1.794  0.3929  0.8823  1.6851
  545SOL    HW3 1947   4.221   0.061   1.814  1.3918  0.2613 -0.2650
  545SOL    MW4 1948   4.212   0.146   1.832  0.3621  0.0400  0.4085
  546SOL     OW 1949   6.425   3.413   5.241 -0.2599  1.0436 -0.4516
  546SOL    HW2 1950   6.462   3.422   5.153  1.8502 -1.1149  0.1058
  546SOL    HW3 1951   6.456   3.328   5.271 -1.8049  1.2625  2.0114
  546SOL    MW4 1952   6.434   3.403   5.233 -0.1853  0.7877 -0.0531
  547SOL     OW 1953   2.428   3.928   2.138  0.1913  0.1129  0.0393
  547SOL    HW2 1954   2.371   3.858   2.108 -2.0266  1.8440 -0.0171
  547SOL    HW3 1955   2.511   3.912   2.093 -0.2999 -2.2666 -0.1854
  547SOL    MW4 1956   2.431   3.917   2.128 -0.1662  0.0273  0.0022
  548SOL     OW 1957   0.083   5.381   3.562 -0.0858 -0.6245  0.4661
  548SOL    HW2 1958   0.019   5.428   3.509 -0.7919  0.0228  1.8215
  548SOL    HW3 1959   0.134   5.330   3.499 -1.1349 -0.2067 -0.7743
  548SOL    MW4 1960   0.081   5.380   3.547 -0.3174 -0.4839  0.4813
  549SOL     OW 1961   6.082   0.743   2.269 -0.1305  0.2400  0.2520
  549SOL    HW2 1962   6.176   0.724   2.270  0.2469  1.9109  0.2950
  549SOL    HW3 1963   6.058   0.742   2.176  0.2726  1.2295  0.1248
  549SOL    MW4 1964   6.091   0.740   2.257 -0.0275  0.5910  0.2409
  550SOL     OW 1965   2.994   5.760   4.594  0.2788  0.2190 -0.3875
  550SOL    HW2 1966   3.064   5.715   4.642 -0.0420 -1.7573 -1.6570
  550SOL    HW3 1967   2.948   5.811   4.660  0.9605 -0.9783  1.0626
  550SOL    MW4 1968   2.997   5.760   4.609  0.3264 -0.1998 -0.3636
  551SOL     OW 1969   4.191   6.276   1.301 -0.2418  0.4321 -0.0810
  551SOL    HW2 1970   4.215   6.353   1.352 -1.5816  1.5573 -1.0626
  551SOL    HW3 1971   4.214   6.299   1.211  0.3479 -0.7582 -0.2487
  551SOL    MW4 1972   4.197   6.289   1.296 -0.3408  0.4235 -0.2327
  552SOL     OW 1973   3.278   6.276   0.536  0.0294 -0.1964  0.4212
  552SOL    HW2 1974   3.356   6.224   0.515 -0.4773 -0.4842 -0.8227
  552SOL    HW3 1975   3.207   6.212   0.537 -0.4273  0.3045  0.0135
  552SOL    MW4 1976   3.279   6.261   0.534 -0.0977 -0.1682  0.2033
  553SOL     OW 1977   0.744   1.516   2.600  0.3621 -0.3969  0.1632
  553SOL    HW2 1978   0.825   1.541   2.554 -0.5376  2.9513  0.1713
  553SOL    HW3 1979   0.770   1.507   2.691  1.3903 -3.2655 -0.2980
  553SOL    MW4 1980   0.758   1.518   2.606  0.3790 -0.3337  0.1034
  554SOL     OW 1981   0.927   4.694   0.619 -0.2347 -0.3494  0.3030
  554SOL    HW2 1982   0.876   4.616   0.640 -1.4818  0.7234  1.3907
  554SOL    HW3 1983   0.862   4.758   0.590  0.7000  0.4895  0.0175
  554SOL    MW4 1984   0.912   4.692   0.618 -0.2759 -0.0972  0.4088
  555SOL     OW 1985   6.083   4.554   1.729  0.6035 -0.7155 -0.1590
  555SOL    HW2 1986   6.076   4.551   1.825 -0.0121 -0.7810 -0.2005
  555SOL    HW3 1987   6.174   4.579   1.712  0.4321  0.3984  0.4665
  555SOL    MW4 1988   6.094   4.557   1.740  0.4996 -0.5772 -0.0819
  556SOL     OW 1989   3.051   4.612   1.964  0.1058 -0.2921 -0.5573
  556SOL    HW2 1990   3.032   4.582   1.875  0.4347 -0.4043 -0.5903
  556SOL    HW3 1991   2.979   4.671   1.985  0.9442  1.1650 -1.5745
  556SOL    MW4 1992   3.039   4.616   1.955  0.2598 -0.1147 -0.6958
  557SOL     OW 1993   3.693   4.824   6.096 -0.0179  0.0158  0.1828
  557SOL    HW2 1994   3.668   4.845   6.186  2.3229  2.2279  0.4371
  557SOL    HW3 1995   3.656   4.896   6.044 -1.0075 -1.0279 -0.5968
  557SOL    MW4 1996   3.685   4.836   6.101  0.1604  0.1699  0.1135
  558SOL     OW 1997   4.179   5.491   4.304  0.1574  0.2968  0.2106
  558SOL    HW2 1998   4.260   5.445   4.280  0.6658  0.4841  1.4857
  558SOL    HW3 1999   4.109   5.431   4.276  0.7348  0.0075 -0.6600
  558SOL    MW4 2000   4.180   5.477   4.297  0.3006  0.2834  0.2639
  559SOL     OW 2001   3.204   6.302   6.325 -0.4550 -0.5338  0.4474
  559SOL    HW2 2002   3.290   6.266   6.305 -0.3609 -1.1992  1.9453
  559SOL    HW3 2003   3.157   6.230   6.367 -1.6834 -0.1263 -0.1798
  559SOL    MW4 2004   3.209   6.288   6.328 -0.6046 -0.5678  0.5623
  560SOL     OW 2005   2.696   0.574   4.889  0.0760  0.6919  0.2208
  560SOL    HW2 2006   2.610   0.537   4.868  0.8915 -0.7623 -0.7001
  560SOL    HW3 2007   2.694   0.661   4.850 -1.8440  1.7009  2.3337
  560SOL    MW4 2008   2.685   0.580   4.881 -0.0697  0.6332  0.3781
  561SOL     OW 2009   4.005   2.027   0.992  0.0112  0.1420  0.3866
  561SOL    HW2 2010   3.930   2.085   0.997 -1.0630 -1.2448  1.1510
  561SOL    HW3 2011   4.023   2.020   0.898  0.6584  2.2331  0.2993
  561SOL    MW4 2012   3.998   2.034   0.980 -0.0452  0.2349  0.4760
  562SOL     OW 2013   2.242   3.655   2.907  0.1765 -0.3796  0.1478
  562SOL    HW2 2014   2.330   3.628   2.880  0.4429  0.5257  0.0847
  562SOL    HW3 2015   2.231   3.617   2.995  1.3690  1.0043  0.9496
  562SOL    MW4 2016   2.252   3.647   2.915  0.3690 -0.0776  0.2452
  563SOL     OW 2017   1.741   2.858   1.337 -0.2107 -0.8012 -0.2636
  563SOL    HW2 2018   1.805   2.920   1.373 -1.4457  0.5006 -0.1983
  563SOL    HW3 2019   1.707   2.811   1.413 -1.0051  0.1835  0.0223
  563SOL    MW4 2020   1.745   2.860   1.352 -0.4784 -0.4995 -0.2172
  564SOL     OW 2021   0.864   1.314   0.309  0.0072 -0.0068 -0.0328
  564SOL    HW2 2022   0.877   1.387   0.368 -0.3650  1.2082 -1.3931
  564SOL    HW3 2023   0.949   1.304   0.265 -0.4539  0.8448 -1.1631
  564SOL    MW4 2024   0.877   1.322   0.311 -0.1027  0.2659 -0.3614
  565SOL     OW 2025   5.170   5.125   6.025 -0.5999  0.2054 -0.7448
  565SOL    HW2 2026   5.077   5.116   6.044 -0.8401  0.8573 -1.5453
  565SOL    HW3 2027   5.202   5.035   6.017 -0.6498 -0.1118  1.7390
  565SOL    MW4 2028   5.162   5.112   6.026 -0.6382  0.2495 -0.5227
  566SOL     OW 2029   0.780   4.597   1.578 -0.3964  0.9799  0.0765
  566SOL    HW2 2030   0.797   4.688   1.604  1.6940  0.4034  1.0258
  566SOL    HW3 2031   0.814   4.545   1.651  1.5890 -0.6276 -1.8490
  566SOL    MW4 2032   0.787   4.602   1.591  0.1414  0.6918 -0.0523
  567SOL     OW 2033   3.697   4.477   1.686 -0.6080  0.4894 -0.1016
  567SOL    HW2 2034   3.769   4.435   1.733 -0.2130 -0.8361 -1.7945
  567SOL    HW3 2035   3.622   4.420   1.702 -0.4429 -0.0383 -1.1051
  567SOL    MW4 2036   3.697   4.464   1.695 -0.5341  0.2449 -0.4574
  568SOL     OW 2037   5.743   4.274   5.571  0.0351 -0.0493  0.0589
  568SOL    HW2 2038   5.766   4.181   5.566 -0.2064 -0.1835  1.1534
  568SOL    HW3 2039   5.802   4.317   5.508  0.6499 -0.8570  0.0686
  568SOL    MW4 2040   5.754   4.268   5.562  0.0844 -0.1736  0.2046
  569SOL     OW 2041   1.825   1.624   2.171  0.1628 -0.4832 -0.0436
  569SOL    HW2 2042   1.812   1.692   2.104 -0.1589 -2.1180 -1.7297
  569SOL    HW3 2043   1.738   1.608   2.206  0.0171 -0.9583 -0.6131
  569SOL    MW4 2044   1.812   1.631   2.167  0.1011 -0.7616 -0.3412
  570SOL     OW 2045   5.883   3.309   0.247 -0.5687 -0.5248 -0.4178
  570SOL    HW2 2046   5.875   3.244   0.177 -1.3604 -0.8873 -0.0077
  570SOL    HW3 2047   5.968   3.349   0.233  1.3582 -3.6666  1.0155
  570SOL    MW4 2048   5.893   3.305   0.236 -0.4189 -0.9872 -0.1746
  571SOL     OW 2049   3.893   2.748   5.416 -0.6607  0.5044 -0.1999
  571SOL    HW2 2050   3.925   2.756   5.505  1.5606 -0.8856 -0.8080
  571SOL    HW3 2051   3.909   2.834   5.377  3.2181 -0.2366 -0.6560
  571SOL    MW4 2052   3.899   2.761   5.422  0.1441  0.2232 -0.3403
  572SOL     OW 2053   5.270   2.652   0.997 -0.1241  0.2080  0.1322
  572SOL    HW2 2054   5.294   2.659   1.089 -0.1478  0.5990  0.1090
  572SOL    HW3 2055   5.237   2.739   0.973 -3.0383 -0.6555  0.5815
  572SOL    MW4 2056   5.269   2.664   1.006 -0.5117  0.1456  0.1884
  573SOL     OW 2057   3.109   2.094   1.220  0.0245  0.0064  0.0834
  573SOL    HW2 2058   3.015   2.112   1.223 -0.0127 -0.2946  0.7634
  573SOL    HW3 2059   3.129   2.057   1.306  1.0370  1.4056  0.4943
  573SOL    MW4 2060   3.099   2.092   1.232  0.1532  0.1513  0.2273
  574SOL     OW 2061   3.234   2.555   0.020 -0.0571 -0.7457  0.6172
  574SOL    HW2 2062   3.272   2.519  -0.060  0.9990 -1.8244  1.5651
  574SOL    HW3 2063   3.150   2.511   0.029 -0.0345 -0.8603  0.2612
  574SOL    MW4 2064   3.228   2.544   0.011  0.0852 -0.9031  0.6953
  575SOL     OW 2065   6.209   3.451   4.832  0.4188 -1.0570 -0.2012
  575SOL    HW2 2066   6.231   3.408   4.749 -0.0558 -2.6163  0.4450
  575SOL    HW3 2067   6.228   3.385   4.899  0.9785  0.2476  0.9571
  575SOL    MW4 2068   6.214   3.436   4.830  0.4300 -1.0906  0.0369
  576SOL     OW 2069   4.381   5.427   1.684 -0.3179  0.0961 -0.0699
  576SOL    HW2 2070   4.418   5.364   1.622  0.2228  0.9605 -0.6472
  576SOL    HW3 2071   4.432   5.507   1.670 -0.3882  0.4003  1.2786
  576SOL    MW4 2072   4.393   5.429   1.674 -0.2558  0.2503  0.0318
  577SOL     OW 2073   1.949   5.190   4.433 -0.3223  0.2956  0.0991
  577SOL    HW2 2074   1.969   5.110   4.385 -0.0011  0.5507 -0.1942
  577SOL    HW3 2075   2.002   5.258   4.391 -0.1077  0.5394  0.7520
  577SOL    MW4 2076   1.958   5.189   4.421 -0.2516  0.3614  0.1466
  578SOL     OW 2077   1.013   4.575   3.735  0.3591 -0.0964  0.1336
  578SOL    HW2 2078   0.994   4.666   3.714  0.1643 -0.6073 -2.2270
  578SOL    HW3 2079   0.927   4.535   3.749  0.4629  0.1324  1.5245
  578SOL    MW4 2080   0.999   4.582   3.734  0.3471 -0.1336  0.0057
  579SOL     OW 2081   4.499   2.610   0.497  0.6450 -0.2741 -0.2193
  579SOL    HW2 2082   4.507   2.545   0.567 -1.8862  0.4323  0.8428
  579SOL    HW3 2083   4.581   2.659   0.499  0.6329 -0.2573  2.3188
  579SOL    MW4 2084   4.511   2.608   0.506  0.3094 -0.1787  0.2557
  580SOL     OW 2085   3.351   0.072   4.599  0.0043  0.1802 -0.4032
  580SOL    HW2 2086   3.327   0.149   4.548 -2.7477 -1.0270 -1.1231
  580SOL    HW3 2087   3.404   0.019   4.540 -0.8930  0.0329 -1.1015
  580SOL    MW4 2088   3.355   0.076   4.585 -0.4771  0.0015 -0.5903
  581SOL     OW 2089   0.707   3.316   5.403 -0.0078  0.2603  0.3667
  581SOL    HW2 2090   0.697   3.288   5.494  3.0718 -0.9827  0.4470
  581SOL    HW3 2091   0.670   3.244   5.352  0.3734 -0.1199  0.6205
  581SOL    MW4 2092   0.701   3.303   5.409  0.4488  0.0461  0.4107
  582SOL     OW 2093   5.093   0.882   4.212  0.1333 -0.1339  1.2758
  582SOL    HW2 2094   5.178   0.848   4.182  0.5172  1.7083  0.1306
  582SOL    HW3 2095   5.043   0.803   4.235  1.1620 -1.4356 -0.6618
  582SOL    MW4 2096   5.098   0.867   4.211  0.3197 -0.0626  0.8691
  583SOL     OW 2097   5.380   3.970   1.325  0.1665  0.2226  0.0074
  583SOL    HW2 2098   5.410   3.884   1.296  0.5253  0.8408 -1.5397
  583SOL    HW3 2099   5.459   4.023   1.327 -0.0651  0.5621  0.9007
  583SOL    MW4 2100   5.394   3.965   1.322  0.1833  0.3490 -0.0788
  584SOL     OW 2101   4.238   1.564   3.408 -0.2647  0.4008 -0.0643
  584SOL    HW2 2102   4.199   1.527   3.487 -1.2806  0.8892 -0.3324
  584SOL    HW3 2103   4.164   1.579   3.349  0.5106 -0.2728 -1.2435
  584SOL    MW4 2104   4.223   1.561   3.411 -0.2964  0.3764 -0.2552
  585SOL     OW 2105   6.398   3.141   1.646  0.5077 -0.3860 -0.6794
  585SOL    HW2 2106   6.340   3.170   1.575  1.8324 -1.0987 -2.1094
  585SOL    HW3 2107   6.426   3.053   1.621 -0.5023 -1.4877  1.7342
  585SOL    MW4 2108   6.394   3.133   1.633  0.5492 -0.6254 -0.5496
  586SOL     OW 2109   0.707   2.108   4.822 -0.0752  0.2574  0.0172
  586SOL    HW2 2110   0.757   2.039   4.867  0.2029 -0.3618 -1.1920
  586SOL    HW3 2111   0.752   2.189   4.845 -1.2280  0.2671  2.6057
  586SOL    MW4 2112   0.720   2.110   4.831 -0.1906  0.1770  0.1992
  587SOL     OW 2113   4.967   0.654   1.402 -0.0857 -0.3145 -0.2393
  587SOL    HW2 2114   5.052   0.678   1.364 -1.1885  0.8443 -2.1304
  587SOL    HW3 2115   4.920   0.612   1.330 -2.1370  1.6625 -0.1457
  587SOL    MW4 2116   4.972   0.652   1.387 -0.5019  0.0993 -0.4764
  588SOL     OW 2117   4.914   0.651   0.070 -0.1983 -0.3912  0.0655
  588SOL    HW2 2118   4.996   0.602   0.080  0.5606  0.5897 -1.0547
  588SOL    HW3 2119   4.893   0.644  -0.023 -0.3115  1.0167 -0.0338
  588SOL    MW4 2120   4.922   0.643   0.059 -0.1131 -0.0760 -0.0954
  589SOL     OW 2121   0.734   1.044   2.393  0.2766 -0.0722 -0.3504
  589SOL    HW2 2122   0.777   0.959   2.392 -0.8851 -0.6848 -1.4926
  589SOL    HW3 2123   0.711   1.058   2.485 -2.2032 -2.4680 -0.4668
  589SOL    MW4 2124   0.737   1.035   2.405 -0.2039 -0.4691 -0.5165
  590SOL     OW 2125   0.628   4.639   4.837 -0.0881  0.6954  0.0853
  590SOL    HW2 2126   0.700   4.697   4.862  0.3819  0.8163 -1.4315
  590SOL    HW3 2127   0.549   4.693   4.846  0.1347  0.9382  0.5970
  590SOL    MW4 2128   0.627   4.654   4.842  0.0033  0.7434 -0.0473
  591SOL     OW 2129   0.959   5.121   4.880 -0.5321  0.5125 -0.1265
  591SOL    HW2 2130   0.964   5.059   4.808  1.0826  1.5327 -0.9649
  591SOL    HW3 2131   1.051   5.137   4.904 -0.9019  2.2442  0.3237
  591SOL    MW4 2132   0.972   5.115   4.874 -0.3678  0.8756 -0.1777
  592SOL     OW 2133   3.699   1.038   6.100 -0.1630 -0.4016 -0.0873
  592SOL    HW2 2134   3.634   0.971   6.120 -0.6764  0.1283  0.0548
  592SOL    HW3 2135   3.733   1.064   6.185 -0.7278  0.2585 -0.0523
  592SOL    MW4 2136   3.695   1.033   6.114 -0.3052 -0.2446 -0.0640
  593SOL     OW 2137   6.294   1.151   6.406 -0.6183 -0.3016  0.3520
  593SOL    HW2 2138   6.326   1.211   6.339  0.1828 -0.1510  0.8565
  593SOL    HW3 2139   6.229   1.202   6.454 -2.0691 -0.7877 -1.0281
  593SOL    MW4 2140   6.290   1.166   6.404 -0.7040 -0.3458  0.2365
  594SOL     OW 2141   3.129   0.471   1.088 -0.6213 -0.0179 -0.1051
  594SOL    HW2 2142   3.125   0.377   1.069 -0.8778  0.2774 -1.6111
  594SOL    HW3 2143   3.131   0.476   1.184 -0.4804 -1.5571 -0.0048
  594SOL    MW4 2144   3.129   0.459   1.098 -0.6366 -0.1820 -0.2906
  595SOL     OW 2145   1.031   0.919   3.603 -0.1775 -0.4137 -0.2007
  595SOL    HW2 2146   1.055   1.011   3.596  0.1309 -0.5920 -1.9572
  595SOL    HW3 2147   1.069   0.890   3.685 -3.0028  1.7812  2.0963
  595SOL    MW4 2148   1.039   0.927   3.613 -0.5096 -0.1476 -0.1294
  596SOL     OW 2149   3.752   2.948   0.778 -0.5936 -0.0967  0.5153
  596SOL    HW2 2150   3.838   2.958   0.818 -0.5495  1.5958  0.0741
  596SOL    HW3 2151   3.738   3.030   0.730 -2.6268 -0.1266  0.9558
  596SOL    MW4 2152   3.761   2.960   0.777 -0.8560  0.1226  0.5152
  597SOL     OW 2153   1.583   5.151   5.167  0.3538  0.2375  0.1246
  597SOL    HW2 2154   1.664   5.178   5.122  0.3120 -1.9443 -1.4676
  597SOL    HW3 2155   1.519   5.218   5.144  0.8253  0.1284 -1.6758
  597SOL    MW4 2156   1.585   5.163   5.158  0.4105 -0.0648 -0.3230
  598SOL     OW 2157   5.888   2.371   4.158  0.2680  0.1520  0.3788
  598SOL    HW2 2158   5.955   2.304   4.168 -0.3958 -0.4399  0.8986
  598SOL    HW3 2159   5.840   2.370   4.240  0.1831  1.1989  0.3580
  598SOL    MW4 2160   5.890   2.362   4.170  0.1692  0.2120  0.4446
  599SOL     OW 2161   5.904   4.647   6.026 -0.4720 -0.2059  0.5376
  599SOL    HW2 2162   5.860   4.732   6.032 -1.3347 -0.5254 -0.7198
  599SOL    HW3 2163   5.896   4.623   5.934  1.3434 -0.8403  0.5052
  599SOL    MW4 2164   5.897   4.655   6.015 -0.3463 -0.3317  0.3675
  600SOL     OW 2165   2.055   3.635   6.370  0.0094  0.0869 -0.2344
  600SOL    HW2 2166   2.039   3.729   6.368 -0.8563 -0.0524 -0.4459
  600SOL    HW3 2167   2.136   3.625   6.420 -0.2185  0.9023  0.3178
  600SOL    MW4 2168   2.063   3.646   6.376 -0.1349  0.1761 -0.1895
  601SOL     OW 2169   4.198   1.726   0.904 -0.5088  0.0652  0.4507
  601SOL    HW2 2170   4.229   1.796   0.848  2.1267 -1.4302 -0.1034
  601SOL    HW3 2171   4.188   1.651   0.846 -1.3667 -0.5542  1.3570
  601SOL    MW4 2172   4.201   1.725   0.889 -0.2743 -0.2138  0.4972
  602SOL     OW 2173   2.562   1.366   1.005  0.4557  0.2566 -0.0180
  602SOL    HW2 2174   2.646   1.338   1.041  0.4645  0.5375  0.1851
  602SOL    HW3 2175   2.560   1.330   0.917 -0.1068 -1.4973  0.6814
  602SOL    MW4 2176   2.573   1.358   0.998  0.3827  0.0623  0.1011
  603SOL     OW 2177   4.958   6.262   5.901  0.1490 -0.3192 -0.4692
  603SOL    HW2 2178   5.012   6.186   5.881 -0.7831 -0.5770 -2.1443
  603SOL    HW3 2179   4.878   6.225   5.940  0.6967 -0.0060  1.0202
  603SOL    MW4 2180   4.954   6.247   5.904  0.0983 -0.3119 -0.4937
  604SOL     OW 2181   0.464   1.692   4.952 -0.3220 -0.2291  0.1079
  604SOL    HW2 2182   0.394   1.756   4.949  0.0936  0.2309  0.1376
  604SOL    HW3 2183   0.423   1.613   4.987 -0.9853 -0.1796 -0.5203
  604SOL    MW4 2184   0.450   1.690   4.956 -0.3547 -0.1619  0.0289
  605SOL     OW 2185   6.313   2.635   3.680 -0.4410  0.1398 -0.1975
  605SOL    HW2 2186   6.224   2.666   3.691 -0.7113 -0.4932 -0.5755
  605SOL    HW3 2187   6.365   2.715   3.668 -1.1991  0.4336 -1.6951
  605SOL    MW4 2188   6.308   2.650   3.680 -0.5767  0.0950 -0.4449
  606SOL     OW 2189   4.473   5.094   2.159  0.1949 -0.1786 -0.9794
  606SOL    HW2 2190   4.403   5.045   2.202  3.0179 -1.9384  2.0979
  606SOL    HW3 2191   4.448   5.186   2.171 -2.2839 -0.7146 -1.4425
  606SOL    MW4 2192   4.460   5.100   2.166  0.2403 -0.4815 -0.6345
  607SOL     OW 2193   5.685   5.241   6.315  0.5880  0.5175  0.3087
  607SOL    HW2 2194   5.698   5.323   6.362 -0.4523  2.4628 -2.5498
  607SOL    HW3 2195   5.591   5.227   6.317  0.8260 -1.1960  1.5717
  607SOL    MW4 2196   5.675   5.250   6.321  0.4821  0.5481  0.0982
  608SOL     OW 2197   0.997   6.021   0.862 -0.3339 -0.2616  0.1185
  608SOL    HW2 2198   0.927   6.083   0.882 -0.3980  0.0121 -0.9043
  608SOL    HW3 2199   1.077   6.063   0.896 -0.6307 -0.5541  1.2412
  608SOL    MW4 2200   0.998   6.034   0.869 -0.3815 -0.2641  0.1317
  609SOL     OW 2201   4.149   2.385   1.519 -0.2152 -0.5518  0.5147
  609SOL    HW2 2202   4.099   2.466   1.518  0.6214 -0.0272  0.5976
  609SOL    HW3 2203   4.107   2.330   1.453  0.1580  0.5342 -0.6795
  609SOL    MW4 2204   4.137   2.388   1.510 -0.0556 -0.3393  0.3680
  610SOL     OW 2205   5.200   4.727   0.584 -0.0054 -0.4930 -0.1692
  610SOL    HW2 2206   5.163   4.815   0.593 -1.2942 -0.6679 -2.6798
  610SOL    HW3 2207   5.271   4.724   0.648 -1.4362  1.5027  1.6836
  610SOL    MW4 2208   5.204   4.738   0.593 -0.3642 -0.2528 -0.2560
  611SOL     OW 2209   0.856   4.432   0.676  0.1779  0.1622 -0.5414
  611SOL    HW2 2210   0.947   4.412   0.695  0.2782  1.0001 -0.1099
  611SOL    HW3 2211   0.838   4.386   0.594  0.6024 -1.0579  0.0337
  611SOL    MW4 2212   0.866   4.424   0.668  0.2472  0.1118 -0.4086
  612SOL     OW 2213   2.146   2.264   1.464 -0.1308  0.0494 -0.3384
  612SOL    HW2 2214   2.111   2.259   1.375  1.8562  0.3675 -1.2009
  612SOL    HW3 2215   2.224   2.208   1.463  0.4818  0.8236  0.9055
  612SOL    MW4 2216   2.152   2.256   1.452  0.2122  0.1936 -0.2881
  613SOL     OW 2217   1.782   5.973   2.134 -0.2727  0.0515 -0.2729
  613SOL    HW2 2218   1.826   5.929   2.207  0.5337  0.3272 -0.5830
  613SOL    HW3 2219   1.692   5.985   2.164  0.1275  0.4635  0.8104
  613SOL    MW4 2220   1.776   5.969   2.148 -0.1135  0.1422 -0.1709
  614SOL     OW 2221   5.020   3.899   2.439 -0.0583 -0.9975  0.8445
  614SOL    HW2 2222   5.034   3.970   2.376 -2.3920 -0.7874  0.5058
  614SOL    HW3 2223   5.106   3.887   2.480  0.7431  1.0394 -0.0996
  614SOL    MW4 2224   5.034   3.907   2.436 -0.2604 -0.7010  0.6753
  615SOL     OW 2225   1.147   5.247   0.309  0.1996 -0.6872 -0.0769
  615SOL    HW2 2226   1.120   5.337   0.295 -1.8547 -1.2974 -0.3520
  615SOL    HW3 2227   1.102   5.220   0.389  0.0148 -1.7482 -0.5166
  615SOL    MW4 2228   1.137   5.255   0.318 -0.0958 -0.9077 -0.1712
  616SOL     OW 2229   2.013   5.058   1.060 -0.1371 -0.3980 -0.2998
  616SOL    HW2 2230   1.942   5.062   1.124  0.4857 -2.1661  0.5492
  616SOL    HW3 2231   1.974   5.092   0.979 -0.8855  2.0700  1.0068
  616SOL    MW4 2232   1.998   5.063   1.057 -0.1537 -0.3057 -0.0154
  617SOL     OW 2233   4.497   3.015   5.228  0.0939 -0.0799 -0.0013
  617SOL    HW2 2234   4.579   3.061   5.247  0.8427 -1.5839  0.5523
  617SOL    HW3 2235   4.456   3.003   5.314 -0.4594  0.1950 -0.2207
  617SOL    MW4 2236   4.502   3.020   5.242  0.1197 -0.2421  0.0428
  618SOL     OW 2237   5.253   1.056   4.037  0.4289 -0.7016  0.5096
  618SOL    HW2 2238   5.166   1.078   4.071  0.4215  0.7545 -0.3600
  618SOL    HW3 2239   5.309   1.058   4.114 -0.3694 -2.1302  1.1602
  618SOL    MW4 2240   5.249   1.059   4.052  0.3226 -0.6980  0.4807
  619SOL     OW 2241   0.400   2.746   3.065  0.3692 -0.0346 -0.3962
  619SOL    HW2 2242   0.310   2.739   3.033  0.1941  0.3528 -0.0020
  619SOL    HW3 2243   0.391   2.748   3.160  0.8506 -0.6972 -0.3370
  619SOL    MW4 2244   0.387   2.745   3.073  0.4096 -0.0709 -0.3364
  620SOL     OW 2245   0.109   4.422   5.629 -0.3132 -0.0608 -0.0079
  620SOL    HW2 2246   0.100   4.515   5.649  0.6506 -0.0702  0.5473
  620SOL    HW3 2247   0.192   4.416   5.582  2.1511 -1.1445  3.9804
  620SOL    MW4 2248   0.119   4.434   5.625  0.1391 -0.2050  0.5916
  621SOL     OW 2249   3.118   0.429   4.029 -0.4295 -0.3951  0.4343
  621SOL    HW2 2250   3.193   0.478   3.997  0.4833 -1.2687  1.1729
  621SOL    HW3 2251   3.091   0.475   4.108  0.7434 -1.3023  1.4139
  621SOL    MW4 2252   3.124   0.441   4.035 -0.1543 -0.6300  0.6610
  622SOL     OW 2253   1.442   4.882   1.192 -0.0912  0.0096  0.4600
  622SOL    HW2 2254   1.469   4.874   1.101 -0.7853  1.1719  0.1346
  622SOL    HW3 2255   1.518   4.854   1.242  1.4445  2.3337 -0.4395
  622SOL    MW4 2256   1.455   4.877   1.187  0.0198  0.4696  0.2984
  623SOL     OW 2257   3.302   5.821   2.589 -0.3962 -0.3812  0.3098
  623SOL    HW2 2258   3.379   5.866   2.553 -1.1294  0.0902 -0.7254
  623SOL    HW3 2259   3.228   5.867   2.551 -1.1929 -1.0876  0.9782
  623SOL    MW4 2260   3.303   5.833   2.579 -0.5981 -0.4122  0.2614
  624SOL     OW 2261   3.477   0.549   5.843  0.2237  0.4180 -0.2170
  624SOL    HW2 2262   3.403   0.549   5.783  0.5830  0.0599 -0.6777
  624SOL    HW3 2263   3.448   0.498   5.918 -0.8830  2.4331  0.7708
  624SOL    MW4 2264   3.464   0.542   5.845  0.1251  0.6367 -0.1475
  625SOL     OW 2265   1.536   0.133   5.038  0.4175 -0.1760 -0.1597
  625SOL    HW2 2266   1.521   0.071   4.968  0.5937 -0.7232  0.2815
  625SOL    HW3 2267   1.632   0.143   5.043  0.3586  1.3283 -1.2525
  625SOL    MW4 2268   1.547   0.126   5.030  0.4330 -0.0497 -0.2457
  626SOL     OW 2269   3.752   5.299   5.943 -0.1432  0.4872  1.1022
  626SOL    HW2 2270   3.838   5.270   5.910 -0.1260 -0.6261  2.0627
  626SOL    HW3 2271   3.707   5.331   5.865  0.3367 -0.9757  0.1657
  626SOL    MW4 2272   3.758   5.299   5.928 -0.0776  0.1473  1.1054
  627SOL     OW 2273   3.224   6.081   5.242  0.1137  0.0959  0.2279
  627SOL    HW2 2274   3.252   6.008   5.186 -1.1904  0.3483 -0.7991
  627SOL    HW3 2275   3.249   6.159   5.192  2.1756  0.4285  1.6469
  627SOL    MW4 2276   3.231   6.082   5.228  0.2137  0.1731  0.2796
  628SOL     OW 2277   0.731   0.794   3.278 -0.3558  0.2325 -0.1718
  628SOL    HW2 2278   0.744   0.707   3.239 -0.4829  0.4035 -0.6066
  628SOL    HW3 2279   0.820   0.823   3.300  0.0899  1.2849 -2.8995
  628SOL    MW4 2280   0.744   0.787   3.276 -0.3138  0.3939 -0.5890
  629SOL     OW 2281   5.311   1.608   1.821 -0.4076 -0.0276 -0.4021
  629SOL    HW2 2282   5.217   1.606   1.805 -0.2110 -0.4664 -1.6507
  629SOL    HW3 2283   5.324   1.681   1.881 -1.4553  0.5054 -0.8069
  629SOL    MW4 2284   5.300   1.617   1.827 -0.5199 -0.0152 -0.6202
  630SOL     OW 2285   4.288   3.500   2.064 -0.0903  0.3054 -0.5176
  630SOL    HW2 2286   4.207   3.518   2.112 -0.8882  0.4273 -1.8731
  630SOL    HW3 2287   4.263   3.435   1.998  0.6252  1.2406 -1.7355
  630SOL    MW4 2288   4.274   3.494   2.062 -0.1011  0.4449 -0.8571
  631SOL     OW 2289   4.375   0.645   5.331  0.1424  0.1638 -0.1425
  631SOL    HW2 2290   4.409   0.574   5.277 -0.7217 -0.6052  0.3040
  631SOL    HW3 2291   4.452   0.683   5.371  0.6037 -0.6395 -0.2455
  631SOL    MW4 2292   4.389   0.641   5.329  0.0892 -0.0436 -0.0972
  632SOL     OW 2293   3.675   5.769   0.301  0.7225 -0.2889 -0.3059
  632SOL    HW2 2294   3.686   5.849   0.250  0.1986 -0.0628 -0.0698
  632SOL    HW3 2295   3.742   5.775   0.370  0.3939  0.1671 -0.0168
  632SOL    MW4 2296   3.685   5.781   0.304  0.6100 -0.1989 -0.2366
  633SOL     OW 2297   0.267   4.839   0.831 -0.0117 -0.5807 -0.2323
  633SOL    HW2 2298   0.314   4.913   0.791  0.7980 -1.1435 -0.3596
  633SOL    HW3 2299   0.333   4.769   0.835 -0.7575 -1.2840 -0.0889
  633SOL    MW4 2300   0.282   4.840   0.826 -0.0033 -0.7477 -0.2302
  634SOL     OW 2301   5.830   6.187   3.167 -0.1408 -0.0260 -0.4855
  634SOL    HW2 2302   5.832   6.283   3.176 -1.7068  0.0775 -0.9582
  634SOL    HW3 2303   5.909   6.157   3.212  1.2392  1.5924 -1.7090
  634SOL    MW4 2304   5.841   6.196   3.174 -0.1653  0.2012 -0.7093
  635SOL     OW 2305   2.655   1.652   0.242 -0.4012 -0.0607  0.1477
  635SOL    HW2 2306   2.591   1.685   0.306 -1.5567 -0.6743 -0.6602
  635SOL    HW3 2307   2.687   1.570   0.281 -0.6448 -0.1223  0.2215
  635SOL    MW4 2308   2.650   1.646   0.256 -0.5858 -0.1498  0.0508
  636SOL     OW 2309   4.090   4.420   1.132  0.6408  0.1675  0.1355
  636SOL    HW2 2310   4.145   4.349   1.097 -0.3364 -0.1629 -0.7834
  636SOL    HW3 2311   4.023   4.433   1.065 -0.6488  0.2757  1.4051
  636SOL    MW4 2312   4.088   4.412   1.118  0.3417  0.1382  0.1818
  637SOL     OW 2313   5.498   1.044   2.097  0.3451 -0.3350 -0.3646
  637SOL    HW2 2314   5.469   1.134   2.084 -0.9812 -0.2919  2.2860
  637SOL    HW3 2315   5.446   0.993   2.034 -1.4676  0.3906  0.4780
  637SOL    MW4 2316   5.488   1.049   2.087 -0.0690 -0.2336  0.0962
  638SOL     OW 2317   0.751   1.904   0.101  0.0925 -0.2099 -0.6130
  638SOL    HW2 2318   0.844   1.883   0.105  0.0206 -0.6652 -1.2137
  638SOL    HW3 2319   0.742   1.959   0.024 -0.0287  0.4430 -0.1417
  638SOL    MW4 2320   0.762   1.909   0.092  0.0671 -0.1838 -0.6301
  639SOL     OW 2321   5.843   1.074   0.755  0.5164 -0.3478  0.7072
  639SOL    HW2 2322   5.881   1.161   0.740 -1.0197 -0.0249 -1.8588
  639SOL    HW3 2323   5.878   1.021   0.684 -1.2286 -0.8891  0.2138
  639SOL    MW4 2324   5.853   1.079   0.744  0.0835 -0.3767  0.3035
  640SOL     OW 2325   0.818   2.375   4.912 -0.2442  0.3822 -0.1328
  640SOL    HW2 2326   0.888   2.394   4.849  0.3029 -3.1692 -0.8106
  640SOL    HW3 2327   0.739   2.409   4.872  0.8383  3.4744  0.1231
  640SOL    MW4 2328   0.817   2.382   4.899 -0.0292  0.3216 -0.1884
  641SOL     OW 2329   5.667   4.055   1.371 -0.2025  0.1103  0.1419
  641SOL    HW2 2330   5.692   4.133   1.321 -1.6837  1.2890  1.1777
  641SOL    HW3 2331   5.740   3.994   1.358  1.5525  2.0974  0.2623
  641SOL    MW4 2332   5.680   4.057   1.363 -0.1664  0.5280  0.2944
  642SOL     OW 2333   0.479   2.003   0.623  0.0246  0.9333  0.0018
  642SOL    HW2 2334   0.540   1.949   0.674 -0.7887 -0.0832 -0.0877
  642SOL    HW3 2335   0.534   2.075   0.590  1.1756  0.0669 -0.0449
  642SOL    MW4 2336   0.494   2.005   0.626  0.0692  0.6848 -0.0162
  643SOL     OW 2337   2.057   4.640   0.133  0.0523 -0.4037 -0.4370
  643SOL    HW2 2338   1.970   4.680   0.133  0.6245  0.8780  0.5028
  643SOL    HW3 2339   2.042   4.550   0.103 -1.4764  0.0386 -1.0651
  643SOL    MW4 2340   2.044   4.633   0.129 -0.0739 -0.1763 -0.3959
  644SOL     OW 2341   4.576   1.502   4.387  0.0259  0.3785 -0.0615
  644SOL    HW2 2342   4.518   1.431   4.360 -1.4152  2.2639 -2.2860
  644SOL    HW3 2343   4.656   1.489   4.336  0.8089 -0.9984  1.4192
  644SOL    MW4 2344   4.579   1.491   4.377 -0.0609  0.4456 -0.1597
  645SOL     OW 2345   2.254   4.934   2.710 -0.2559  0.2124  0.0291
  645SOL    HW2 2346   2.189   4.884   2.758 -2.1740  2.0762 -0.4766
  645SOL    HW3 2347   2.306   4.977   2.777  0.2596 -0.9948  0.4307
  645SOL    MW4 2348   2.252   4.933   2.725 -0.4410  0.2990  0.0154
  646SOL     OW 2349   5.610   6.222   5.658 -0.1908 -0.6134  0.4519
  646SOL    HW2 2350   5.595   6.162   5.585 -0.6715 -1.3553  1.1465
  646SOL    HW3 2351   5.580   6.307   5.627 -1.4985 -1.1584  0.1906
  646SOL    MW4 2352   5.604   6.226   5.645 -0.4268 -0.7832  0.5091
  647SOL     OW 2353   0.361   2.432   3.114 -0.0018 -0.4314  0.0077
  647SOL    HW2 2354   0.385   2.519   3.081  0.5748 -1.4842 -2.6016
  647SOL    HW3 2355   0.349   2.444   3.208  2.0827  2.0276  0.0510
  647SOL    MW4 2356   0.363   2.445   3.122  0.3493 -0.2459 -0.3309
  648SOL     OW 2357   0.841   5.162   2.150 -0.7343  0.1023 -0.1752
  648SOL    HW2 2358   0.879   5.074   2.161 -0.7802  0.0715 -0.2548
  648SOL    HW3 2359   0.750   5.152   2.178 -0.7024  0.1568 -0.0559
  648SOL    MW4 2360   0.834   5.149   2.155 -0.7362  0.1054 -0.1700
  649SOL     OW 2361   5.277   6.180   1.921  0.0065  0.9586  0.3117
  649SOL    HW2 2362   5.356   6.199   1.972  1.0529  0.5665 -1.0899
  649SOL    HW3 2363   5.233   6.265   1.914  1.9950  1.9313 -1.5771
  649SOL    MW4 2364   5.282   6.194   1.927  0.4069  1.0352 -0.1225
  650SOL     OW 2365   5.883   4.510   3.044 -0.3302  0.6812 -0.5306
  650SOL    HW2 2366   5.831   4.431   3.032  0.5516  0.0040 -0.0486
  650SOL    HW3 2367   5.938   4.514   2.966  1.8884 -0.9897  0.8220
  650SOL    MW4 2368   5.883   4.500   3.032  0.0789  0.3714 -0.2885
  651SOL     OW 2369   3.191   3.517   4.237 -0.1589  0.2801  0.0405
  651SOL    HW2 2370   3.152   3.430   4.242  1.0684 -0.3937 -1.2152
  651SOL    HW3 2371   3.147   3.558   4.161 -0.2770  0.5223  0.2373
  651SOL    MW4 2372   3.180   3.511   4.227 -0.0126  0.2232 -0.0992
  652SOL     OW 2373   2.936   0.539   6.154 -0.0390 -0.1097  0.1846
  652SOL    HW2 2374   2.865   0.599   6.177  0.1857  0.6658 -1.0389
  652SOL    HW3 2375   3.014   0.579   6.192 -0.2672 -1.2074  1.9447
  652SOL    MW4 2376   2.937   0.552   6.162 -0.0395 -0.1522  0.2554
  653SOL     OW 2377   3.385   5.960   6.105 -0.6653  0.9934 -0.5372
  653SOL    HW2 2378   3.293   5.985   6.105 -1.2508 -0.9636  0.0388
  653SOL    HW3 2379   3.398   5.915   6.022 -0.0824  1.7064 -0.8415
  653SOL    MW4 2380   3.375   5.957   6.094 -0.6656  0.8292 -0.5014
  654SOL     OW 2381   4.586   5.795   3.063 -0.3623 -0.5910 -0.7161
  654SOL    HW2 2382   4.551   5.861   3.123 -1.4184 -0.8812 -1.0066
  654SOL    HW3 2383   4.651   5.748   3.116 -1.0457 -0.6305  0.1037
  654SOL    MW4 2384   4.590   5.797   3.078 -0.5918 -0.6345 -0.6463
  655SOL     OW 2385   4.627   5.977   3.972 -0.1232  0.2362 -0.5779
  655SOL    HW2 2386   4.684   5.922   4.026 -0.0355 -0.6848 -1.5851
  655SOL    HW3 2387   4.540   5.938   3.982 -0.2079  0.4038 -0.6599
  655SOL    MW4 2388   4.623   5.964   3.981 -0.1228  0.1368 -0.7216
  656SOL     OW 2389   1.799   5.415   0.434  0.0423  0.2121  0.0490
  656SOL    HW2 2390   1.717   5.388   0.475  0.7855 -0.3065  1.2283
  656SOL    HW3 2391   1.863   5.350   0.463  0.8002  0.3824 -1.1722
  656SOL    MW4 2392   1.797   5.403   0.443  0.2404  0.1662  0.0435
  657SOL     OW 2393   2.110   6.223   3.476  0.0879  0.5774 -0.0315
  657SOL    HW2 2394   2.046   6.159   3.447  0.6686  0.3775 -0.9185
  657SOL    HW3 2395   2.069   6.308   3.460  0.0895  0.4521 -0.7115
  657SOL    MW4 2396   2.096   6.226   3.470  0.1647  0.5345 -0.2382
  658SOL     OW 2397   2.851   6.401   4.302 -0.0475  0.1767  0.2864
  658SOL    HW2 2398   2.900   6.364   4.375 -1.7581  0.4814  1.6610
  658SOL    HW3 2399   2.850   6.495   4.319 -0.6942  0.2213  0.0276
  658SOL    MW4 2400   2.857   6.408   4.314 -0.3585  0.2228  0.4337
  659SOL     OW 2401   2.043   0.652   1.983  0.4622  0.3975  0.6119
  659SOL    HW2 2402   1.988   0.588   2.028  0.0068 -0.5316 -1.1693
  659SOL    HW3 2403   2.017   0.646   1.891  1.7693  1.7722  0.1021
  659SOL    MW4 2404   2.032   0.642   1.977  0.5745  0.4563  0.3097
  660SOL     OW 2405   4.612   2.484   0.751 -0.3414 -0.4951 -0.1334
  660SOL    HW2 2406   4.546   2.525   0.806 -2.1254 -1.2116 -1.6227
  660SOL    HW3 2407   4.620   2.394   0.785  0.0781 -0.3365  0.2003
  660SOL    MW4 2408   4.604   2.477   0.763 -0.5214 -0.5687 -0.2859
  661SOL     OW 2409   5.890   0.347   2.840 -0.1602  0.0931 -0.0907
  661SOL    HW2 2410   5.900   0.442   2.844 -0.9315  0.2285 -0.8662
  661SOL    HW3 2411   5.800   0.331   2.868  0.4661 -0.5840  1.6715
  661SOL    MW4 2412   5.880   0.358   2.844 -0.1793  0.0216  0.0395
  662SOL     OW 2413   5.135   4.530   2.170  0.2815  0.1927 -0.7748
  662SOL    HW2 2414   5.151   4.461   2.106 -0.6939 -0.2555 -0.5592
  662SOL    HW3 2415   5.097   4.602   2.119 -1.1492 -0.4234 -0.6211
  662SOL    MW4 2416   5.132   4.531   2.155 -0.0359  0.0523 -0.7261
  663SOL     OW 2417   0.287   2.440   5.299 -0.1346 -0.6104 -0.0535
  663SOL    HW2 2418   0.365   2.405   5.256 -0.9770 -2.5176 -0.1212
  663SOL    HW3 2419   0.294   2.411   5.390 -2.1466 -3.4673 -0.6775
  663SOL    MW4 2420   0.298   2.432   5.306 -0.5112 -1.2390 -0.1448
  664SOL     OW 2421   4.165   3.420   3.517 -0.5443  0.4635 -0.3332
  664SOL    HW2 2422   4.109   3.467   3.578  0.6511  0.2435  0.9720
  664SOL    HW3 2423   4.211   3.490   3.469  1.0894  0.7186  1.4692
  664SOL    MW4 2424   4.164   3.436   3.518 -0.1710  0.4681  0.0768
  665SOL     OW 2425   2.410   4.238   4.324 -0.1764 -0.1679  0.4795
  665SOL    HW2 2426   2.489   4.217   4.275  0.9394  0.6404  1.8651
  665SOL    HW3 2427   2.381   4.322   4.289 -1.3659 -1.1798 -1.1052
  665SOL    MW4 2428   2.417   4.246   4.313 -0.1861 -0.1947  0.4532
  666SOL     OW 2429   0.318   0.045   1.469  0.8921  0.0979 -0.4169
  666SOL    HW2 2430   0.351   0.048   1.379  0.2526  2.4647 -0.6478
  666SOL    HW3 2431   0.349   0.127   1.508 -1.1438  0.4030  0.6632
  666SOL    MW4 2432   0.327   0.056   1.462  0.5391  0.4504 -0.3049
  667SOL     OW 2433   2.909   2.082   3.260 -0.0627  0.2760 -0.1086
  667SOL    HW2 2434   2.955   2.096   3.177  0.6388 -0.0033  0.2276
  667SOL    HW3 2435   2.900   1.987   3.266 -2.6462  0.3749 -1.2182
  667SOL    MW4 2436   2.914   2.071   3.249 -0.3110  0.2522 -0.2106
  668SOL     OW 2437   0.761   3.237   4.611  0.0197  0.6700  0.0271
  668SOL    HW2 2438   0.720   3.279   4.535  0.9073  0.6443 -0.4793
  668SOL    HW3 2439   0.855   3.244   4.595  0.2083 -0.4702  0.4887
  668SOL    MW4 2440   0.768   3.243   4.599  0.1617  0.5162  0.0212
  669SOL     OW 2441   1.774   4.510   2.856  0.6625  0.0688 -0.0775
  669SOL    HW2 2442   1.858   4.520   2.811  1.0343  2.1828  0.9669
  669SOL    HW3 2443   1.733   4.595   2.850  0.1356  0.0729  2.3673
  669SOL    MW4 2444   1.780   4.522   2.850  0.6420  0.3482  0.3828
  670SOL     OW 2445   6.089   1.448   2.741 -0.2323 -0.1060 -0.2641
  670SOL    HW2 2446   6.041   1.468   2.821 -0.5837 -0.2508 -0.4355
  670SOL    HW3 2447   6.131   1.364   2.758  0.4306  0.2864  0.0922
  670SOL    MW4 2448   6.088   1.440   2.753 -0.1912 -0.0733 -0.2397
  671SOL     OW 2449   6.077   0.158   4.028  0.0270  0.3154 -0.6741
  671SOL    HW2 2450   6.036   0.221   4.088 -1.1582 -1.3587  0.3766
  671SOL    HW3 2451   6.157   0.131   4.074  0.9085  1.5200 -1.4462
  671SOL    MW4 2452   6.082   0.163   4.042 -0.0131  0.2535 -0.6374
  672SOL     OW 2453   0.599   0.976   0.035 -0.1621  0.3861 -0.2944
  672SOL    HW2 2454   0.607   0.933  -0.050 -3.0003 -0.0346 -0.4341
  672SOL    HW3 2455   0.599   0.904   0.098  2.5188  0.7240  0.2230
  672SOL    MW4 2456   0.600   0.961   0.032 -0.1829  0.3752 -0.2446
  673SOL     OW 2457   6.192   0.835   3.476  0.3825 -0.2301  0.1293
  673SOL    HW2 2458   6.178   0.918   3.429 -4.9412 -0.0926  1.3633
  673SOL    HW3 2459   6.248   0.859   3.550 -0.4717  2.2015  0.0866
  673SOL    MW4 2460   6.198   0.849   3.480 -0.4326  0.1088  0.2865
  674SOL     OW 2461   4.205   3.952   3.919  0.5665 -0.2165  0.4315
  674SOL    HW2 2462   4.128   3.968   3.973 -1.6300 -1.6128 -2.0968
  674SOL    HW3 2463   4.216   3.857   3.921  0.8306 -0.2314 -1.0434
  674SOL    MW4 2464   4.197   3.942   3.927  0.3115 -0.4027 -0.0967
  675SOL     OW 2465   3.634   0.796   1.974  0.3596  0.3310 -0.1857
  675SOL    HW2 2466   3.712   0.778   1.921  0.1690 -0.1538 -0.3064
  675SOL    HW3 2467   3.565   0.745   1.931 -0.3778  1.9605 -1.0073
  675SOL    MW4 2468   3.635   0.787   1.961  0.2371  0.4820 -0.3100
  676SOL     OW 2469   0.850   3.960   4.906  1.2302 -0.5399 -0.2793
  676SOL    HW2 2470   0.935   3.975   4.865  0.7814  0.3049 -0.9432
  676SOL    HW3 2471   0.828   4.044   4.947  1.6322 -1.3421  1.6781
  676SOL    MW4 2472   0.858   3.973   4.906  1.2240 -0.5343 -0.1087
  677SOL     OW 2473   0.529   3.811   4.030  0.1925 -0.3860  0.2389
  677SOL    HW2 2474   0.518   3.842   3.940  0.3748 -1.2312 -0.0854
  677SOL    HW3 2475   0.541   3.716   4.021 -2.0017 -0.8275  1.3090
  677SOL    MW4 2476   0.529   3.803   4.017 -0.0729 -0.5558  0.3373
  678SOL     OW 2477   3.567   5.216   3.640  0.1714  0.3407  0.0803
  678SOL    HW2 2478   3.478   5.184   3.655  0.2357 -0.6605 -1.4242
  678SOL    HW3 2479   3.563   5.259   3.554  0.9979  0.8650  0.2917
  678SOL    MW4 2480   3.555   5.218   3.631  0.2890  0.2778 -0.0903
  679SOL     OW 2481   2.200   4.247   0.477 -0.2315 -0.2008  0.3067
  679SOL    HW2 2482   2.258   4.170   0.475 -0.2762 -0.2412 -1.6181
  679SOL    HW3 2483   2.202   4.276   0.568 -0.2188 -2.4769  1.1080
  679SOL    MW4 2484   2.208   4.240   0.488 -0.2357 -0.5065  0.1585
  680SOL     OW 2485   4.095   2.636   4.540 -0.1191 -0.5865  0.4305
  680SOL    HW2 2486   4.058   2.702   4.481 -0.6467  0.1191  1.5142
  680SOL    HW3 2487   4.108   2.682   4.623 -4.5635 -2.6796  2.6700
  680SOL    MW4 2488   4.092   2.650   4.544 -0.7751 -0.7696  0.8689
  681SOL     OW 2489   0.645   4.625   4.470  0.2172  0.4152 -0.0396
  681SOL    HW2 2490   0.680   4.546   4.429  2.9294  0.9226  1.0993
  681SOL    HW3 2491   0.683   4.697   4.420 -1.3353  1.0345 -0.3679
  681SOL    MW4 2492   0.655   4.624   4.458  0.3702  0.5639  0.0674
  682SOL     OW 2493   4.459   2.801   0.075  0.2395 -0.2310 -0.0285
  682SOL    HW2 2494   4.399   2.815   0.002  1.2350 -0.2371 -0.8899
  682SOL    HW3 2495   4.455   2.883   0.125  0.2134  0.1326 -0.6100
  682SOL    MW4 2496   4.451   2.814   0.072  0.3674 -0.1839 -0.2189
  683SOL     OW 2497   6.321   5.776   2.523 -0.7763 -0.5292 -0.4610
  683SOL    HW2 2498   6.311   5.810   2.434 -0.7918  0.6025 -0.0499
  683SOL    HW3 2499   6.308   5.853   2.579 -0.2768 -1.1253  0.4964
  683SOL    MW4 2500   6.318   5.791   2.519 -0.7125 -0.4585 -0.2805
  684SOL     OW 2501   2.381   6.028   2.871 -0.0351 -0.4663  0.6824
  684SOL    HW2 2502   2.333   5.967   2.815  0.5477  1.9619 -2.7728
  684SOL    HW3 2503   2.471   5.994   2.871  0.1373 -0.0738 -0.6334
  684SOL    MW4 2504   2.387   6.015   2.864  0.0645 -0.0941  0.0529
  685SOL     OW 2505   6.081   1.240   4.706 -0.2454  0.3159 -0.1344
  685SOL    HW2 2506   6.128   1.162   4.678 -1.7204 -0.7329  0.2194
  685SOL    HW3 2507   6.019   1.258   4.634  0.4366  1.4994 -0.4620
  685SOL    MW4 2508   6.079   1.232   4.693 -0.3501  0.3337 -0.1309
  686SOL     OW 2509   6.263   4.620   5.047 -0.0490 -0.0709  0.5751
  686SOL    HW2 2510   6.338   4.573   5.009 -1.4371 -0.8206 -1.4308
  686SOL    HW3 2511   6.203   4.550   5.074 -0.0259  0.5177  2.2479
  686SOL    MW4 2512   6.265   4.604   5.046 -0.2291 -0.0921  0.5311
  687SOL     OW 2513   3.822   1.173   4.676 -0.9900  0.4262 -0.2289
  687SOL    HW2 2514   3.818   1.094   4.729  1.7753  1.0371  1.0804
  687SOL    HW3 2515   3.731   1.201   4.667 -1.9254 -2.1746  0.3336
  687SOL    MW4 2516   3.810   1.166   4.682 -0.7486  0.1636  0.0180
  688SOL     OW 2517   3.107   2.649   3.191  0.9521 -0.3385  0.2179
  688SOL    HW2 2518   3.091   2.626   3.282  1.2061 -1.3018  0.0289
  688SOL    HW3 2519   3.026   2.626   3.146  1.9190 -3.0060 -0.3393
  688SOL    MW4 2520   3.094   2.643   3.197  1.1132 -0.8175  0.1195
  689SOL     OW 2521   5.002   3.774   3.031  0.2672 -0.0505 -0.0527
  689SOL    HW2 2522   4.982   3.857   3.074 -1.4887  0.7019 -2.1288
  689SOL    HW3 2523   5.093   3.755   3.056  0.1424  1.5633  1.8806
  689SOL    MW4 2524   5.011   3.782   3.040  0.0191  0.2617 -0.0716
  690SOL     OW 2525   0.736   0.374   5.816 -0.4187 -0.0990 -0.5685
  690SOL    HW2 2526   0.786   0.311   5.764 -0.2164 -0.4828  0.0757
  690SOL    HW3 2527   0.802   0.419   5.869 -0.7006 -0.2972 -0.0379
  690SOL    MW4 2528   0.752   0.372   5.816 -0.4292 -0.1758 -0.4135
  691SOL     OW 2529   6.190   4.038   6.421 -0.2240 -0.2301 -0.8884
  691SOL    HW2 2530   6.196   4.132   6.438  1.7798 -0.6316  1.0362
  691SOL    HW3 2531   6.124   4.006   6.483  0.3062 -0.3255 -0.3686
  691SOL    MW4 2532   6.182   4.046   6.431  0.1103 -0.2956 -0.5659
  692SOL     OW 2533   0.337   1.230   3.195 -0.4037  1.2896 -0.2418
  692SOL    HW2 2534   0.264   1.168   3.197  0.9813 -0.4170  0.1156
  692SOL    HW3 2535   0.335   1.271   3.281 -1.3327  1.7626 -0.4743
  692SOL    MW4 2536   0.327   1.227   3.207 -0.3435  1.1268 -0.2254
  693SOL     OW 2537   1.666   3.583   2.940 -0.1264 -0.3533  0.4194
  693SOL    HW2 2538   1.741   3.642   2.930 -0.9693  0.2910 -3.3150
  693SOL    HW3 2539   1.597   3.638   2.976 -0.0091  0.1393 -0.1020
  693SOL    MW4 2540   1.667   3.598   2.944 -0.2221 -0.2033 -0.1421
  694SOL     OW 2541   3.936   5.726   4.493  0.0973 -0.4150  0.6902
  694SOL    HW2 2542   4.030   5.733   4.477 -0.1560 -0.4502 -0.9441
  694SOL    HW3 2543   3.896   5.749   4.409 -1.3171 -1.8233  0.9431
  694SOL    MW4 2544   3.943   5.730   4.480 -0.1227 -0.6054  0.5079
  695SOL     OW 2545   2.549   4.168   0.149 -0.0412  0.2917  0.2449
  695SOL    HW2 2546   2.602   4.090   0.166 -1.4584 -1.5968 -3.0743
  695SOL    HW3 2547   2.477   4.162   0.211 -0.0289 -0.9874  0.1625
  695SOL    MW4 2548   2.547   4.157   0.159 -0.2266 -0.1262 -0.2039
  696SOL     OW 2549   2.394   2.634   6.177 -0.2905  0.3143 -0.0610
  696SOL    HW2 2550   2.369   2.719   6.141 -2.2664 -0.4704 -0.6885
  696SOL    HW3 2551   2.402   2.577   6.100 -1.1108 -0.5620  0.4804
  696SOL    MW4 2552   2.392   2.637   6.162 -0.6595  0.0951 -0.0724
  697SOL     OW 2553   3.303   4.612   6.020 -0.2654 -0.0520  0.2222
  697SOL    HW2 2554   3.322   4.607   6.114  0.6418 -0.3040  0.0378
  697SOL    HW3 2555   3.209   4.628   6.015  0.1302  3.1093  1.2438
  697SOL    MW4 2556   3.293   4.613   6.032 -0.0935  0.3318  0.3327
  698SOL     OW 2557   0.410   4.343   3.186  0.7738  0.1977 -0.2913
  698SOL    HW2 2558   0.332   4.344   3.242  0.1423 -2.0435 -1.0432
  698SOL    HW3 2559   0.428   4.436   3.169 -0.9929  0.8068  0.8868
  698SOL    MW4 2560   0.402   4.356   3.191  0.4574 -0.0176 -0.2351
  699SOL     OW 2561   2.919   3.757   3.111  0.1889 -0.3299 -0.2026
  699SOL    HW2 2562   2.981   3.686   3.129  0.6927  0.2101  0.2071
  699SOL    HW3 2563   2.846   3.714   3.066  0.0676 -1.2755  0.8507
  699SOL    MW4 2564   2.918   3.742   3.108  0.2394 -0.3834 -0.0096
  700SOL     OW 2565   0.837   4.115   4.044 -0.0374 -0.2529  0.4627
  700SOL    HW2 2566   0.835   4.021   4.025  1.5077  0.0538 -1.5505
  700SOL    HW3 2567   0.796   4.123   4.131 -1.7117 -2.5704 -0.0088
  700SOL    MW4 2568   0.831   4.103   4.053 -0.0544 -0.5182  0.1349
  701SOL     OW 2569   3.112   1.878   1.425  0.2684  0.4676  0.2028
  701SOL    HW2 2570   3.106   1.859   1.518  0.2089  0.0684  0.1179
  701SOL    HW3 2571   3.172   1.812   1.390 -0.7091 -0.2055 -0.2660
  701SOL    MW4 2572   3.119   1.867   1.432  0.1316  0.3261  0.1297
  702SOL     OW 2573   3.473   1.638   4.628  0.2774 -0.5807  0.0252
  702SOL    HW2 2574   3.455   1.678   4.714 -2.0777  2.0711 -1.5213
  702SOL    HW3 2575   3.524   1.705   4.582  1.2848 -1.8655 -0.7627
  702SOL    MW4 2576   3.477   1.652   4.633  0.0996 -0.4004 -0.2828
  703SOL     OW 2577   3.362   3.060   0.670  0.1386 -0.5566  0.0162
  703SOL    HW2 2578   3.395   3.003   0.739  0.0231  0.9304  1.3511
  703SOL    HW3 2579   3.428   3.128   0.661 -0.3611 -0.1391 -0.5863
  703SOL    MW4 2580   3.375   3.061   0.678  0.0574 -0.3053  0.1129
  704SOL     OW 2581   5.592   1.268   0.954 -0.1671 -0.2574  0.6958
  704SOL    HW2 2582   5.657   1.339   0.953  0.1123 -0.5009  1.0916
  704SOL    HW3 2583   5.564   1.259   0.863 -0.3425  0.4855  0.6727
  704SOL    MW4 2584   5.597   1.276   0.942 -0.1534 -0.1915  0.7450
  705SOL     OW 2585   3.016   2.822   4.391  0.4156  0.0023  0.5129
  705SOL    HW2 2586   3.075   2.831   4.316  2.2045  0.2950  1.8888
  705SOL    HW3 2587   2.995   2.729   4.395  1.8632 -0.3275  0.7576
  705SOL    MW4 2588   3.021   2.811   4.382  0.8426 -0.0026  0.7267
  706SOL     OW 2589   0.868   4.663   4.625 -0.3536  0.0462 -0.4346
  706SOL    HW2 2590   0.897   4.606   4.697 -2.0163  0.6132  0.7512
  706SOL    HW3 2591   0.784   4.627   4.598 -0.3239  0.5752 -1.2654
  706SOL    MW4 2592   0.861   4.651   4.631 -0.5691  0.1908 -0.3878
  707SOL     OW 2593   0.513   1.455   1.538  0.4728  0.6456  0.1236
  707SOL    HW2 2594   0.591   1.507   1.516  0.3539  0.9042  0.3077
  707SOL    HW3 2595   0.440   1.514   1.520  0.3063  0.3000 -0.3350
  707SOL    MW4 2596   0.514   1.470   1.533  0.4352  0.6341  0.0874
  708SOL     OW 2597   5.703   2.409   2.423 -0.0012 -0.6796 -0.4750
  708SOL    HW2 2598   5.654   2.420   2.341 -0.2471  3.7204 -0.0205
  708SOL    HW3 2599   5.636   2.392   2.489 -0.5318  1.1108 -0.4936
  708SOL    MW4 2600   5.687   2.408   2.421 -0.1036  0.1372 -0.4175
  709SOL     OW 2601   4.711   6.417   4.933 -0.0842 -0.4161 -0.0588
  709SOL    HW2 2602   4.767   6.440   4.859  0.3525  1.4832  0.8019
  709SOL    HW3 2603   4.771   6.378   4.996 -0.2170 -0.8281 -0.1881
  709SOL    MW4 2604   4.727   6.415   4.931 -0.0441 -0.2199  0.0377
  710SOL     OW 2605   0.121   3.235   6.338 -0.5740  0.1208 -0.3699
  710SOL    HW2 2606   0.031   3.201   6.342 -0.2482 -0.6477  2.9584
  710SOL    HW3 2607   0.175   3.163   6.372  1.0485  1.3731 -0.1998
  710SOL    MW4 2608   0.116   3.221   6.343 -0.3170  0.1846  0.0917
  711SOL     OW 2609   4.530   0.845   3.799  0.0328 -0.1691  0.6347
  711SOL    HW2 2610   4.622   0.819   3.810 -0.2393 -1.5658 -0.2403
  711SOL    HW3 2611   4.510   0.823   3.708 -1.1728  0.1578  0.8107
  711SOL    MW4 2612   4.540   0.839   3.788 -0.1622 -0.3103  0.5425
  712SOL     OW 2613   5.265   6.429   2.786  0.5368  0.2426  0.3400
  712SOL    HW2 2614   5.221   6.359   2.834  0.4354 -1.4011 -1.9899
  712SOL    HW3 2615   5.356   6.427   2.818  1.0387 -2.3193 -0.9665
  712SOL    MW4 2616   5.272   6.420   2.796  0.5896 -0.3123 -0.1398
  713SOL     OW 2617   2.831   1.737   1.662  0.6110 -0.0295  0.5381
  713SOL    HW2 2618   2.886   1.793   1.717  1.2523  0.6499 -0.7424
  713SOL    HW3 2619   2.768   1.797   1.623  1.0702 -0.2359 -0.5624
  713SOL    MW4 2620   2.830   1.752   1.664  0.7562  0.0329  0.2240
  714SOL     OW 2621   3.330   1.438   2.697  0.4066  0.4143 -0.1640
  714SOL    HW2 2622   3.298   1.388   2.772  0.4425  1.0185  0.2604
  714SOL    HW3 2623   3.329   1.375   2.624 -2.1153  0.4811 -0.2779
  714SOL    MW4 2624   3.326   1.423   2.697  0.0786  0.5028 -0.1230
  715SOL     OW 2625   5.050   6.008   5.125 -0.1327 -0.0890 -0.2752
  715SOL    HW2 2626   5.104   5.990   5.202 -0.0567 -0.7564 -0.4854
  715SOL    HW3 2627   5.112   6.028   5.055 -0.2023  0.5109 -0.1764
  715SOL    MW4 2628   5.065   6.008   5.126 -0.1319 -0.0979 -0.2899
  716SOL     OW 2629   1.145   5.043   3.092  1.0170 -0.2181 -0.2445
  716SOL    HW2 2630   1.168   4.996   3.012  1.3099 -1.3328  0.4761
  716SOL    HW3 2631   1.210   5.113   3.098 -0.1270  1.0679 -1.9483
  716SOL    MW4 2632   1.156   5.046   3.082  0.9047 -0.1955 -0.3742
  717SOL     OW 2633   0.294   4.412   3.603  0.1286 -0.0827 -0.0375
  717SOL    HW2 2634   0.230   4.435   3.671  0.1294  0.9797 -0.3818
  717SOL    HW3 2635   0.244   4.413   3.522  1.0915  4.0362 -0.8227
  717SOL    MW4 2636   0.279   4.415   3.601  0.2558  0.6009 -0.1866
  718SOL     OW 2637   5.997   2.487   1.133  0.2785 -0.0740 -0.2689
  718SOL    HW2 2638   6.044   2.518   1.210  0.8768  2.7844 -1.6589
  718SOL    HW3 2639   6.050   2.517   1.059 -2.1932  0.6648 -1.8495
  718SOL    MW4 2640   6.010   2.495   1.133  0.0313  0.4006 -0.6608
  719SOL     OW 2641   4.893   2.539   0.845 -0.4552  0.3815 -0.1576
  719SOL    HW2 2642   4.948   2.597   0.792 -1.3843  1.1890 -0.2688
  719SOL    HW3 2643   4.804   2.556   0.815 -0.8985  0.0393  0.9086
  719SOL    MW4 2644   4.889   2.549   0.834 -0.6363  0.4429 -0.0316
  720SOL     OW 2645   5.657   2.559   0.633 -0.1908  0.6506  0.0689
  720SOL    HW2 2646   5.623   2.494   0.572  0.2293  0.0822  0.4245
  720SOL    HW3 2647   5.593   2.561   0.705 -0.1989  0.6209  0.0625
  720SOL    MW4 2648   5.644   2.551   0.635 -0.1364  0.5717  0.1150
  721SOL     OW 2649   0.950   2.708   2.504 -0.4320  0.0009 -0.7980
  721SOL    HW2 2650   0.931   2.617   2.481 -1.3024  0.4327 -1.8743
  721SOL    HW3 2651   0.967   2.751   2.420  0.3485  0.7635 -0.2702
  721SOL    MW4 2652   0.950   2.702   2.490 -0.4439  0.1585 -0.8704
  722SOL     OW 2653   1.708   4.278   4.151 -0.3640 -1.0816 -0.3405
  722SOL    HW2 2654   1.694   4.188   4.120  2.7929 -2.1394  0.9243
  722SOL    HW3 2655   1.773   4.314   4.091 -0.0074 -0.4040  0.4390
  722SOL    MW4 2656   1.715   4.271   4.139  0.0995 -1.1317 -0.0708
  723SOL     OW 2657   4.884   1.732   1.200  0.5884  0.1880  0.0448
  723SOL    HW2 2658   4.848   1.692   1.121  1.1928 -1.9226  0.7799
  723SOL    HW3 2659   4.857   1.824   1.195 -4.0777 -0.9488  0.0755
  723SOL    MW4 2660   4.875   1.739   1.189  0.0525 -0.2405  0.1458
  724SOL     OW 2661   5.181   5.428   4.545  0.1281 -0.1785  0.4876
  724SOL    HW2 2662   5.247   5.432   4.476  0.4417  1.6474  0.8433
  724SOL    HW3 2663   5.140   5.514   4.544 -3.2809 -1.6637 -0.6349
  724SOL    MW4 2664   5.185   5.440   4.536 -0.2803 -0.1335  0.3865
  725SOL     OW 2665   4.977   4.657   2.968 -0.3946  0.4936  0.4095
  725SOL    HW2 2666   4.930   4.575   2.953 -1.1246  0.9770  0.0065
  725SOL    HW3 2667   5.043   4.635   3.034  0.3541 -0.7622 -0.7030
  725SOL    MW4 2668   4.980   4.644   2.975 -0.3921  0.3917  0.2095
  726SOL     OW 2669   5.794   3.620   1.539  0.0788 -0.4699  0.0916
  726SOL    HW2 2670   5.811   3.708   1.575 -1.5307 -0.3653  0.6801
  726SOL    HW3 2671   5.825   3.625   1.448  1.3108  0.2446  0.5174
  726SOL    MW4 2672   5.801   3.633   1.532  0.0290 -0.3619  0.2254
  727SOL     OW 2673   1.553   0.116   5.747  0.4487 -0.5434  0.3871
  727SOL    HW2 2674   1.491   0.044   5.755  1.1676 -1.2587 -0.3351
  727SOL    HW3 2675   1.638   0.077   5.766  0.8941  0.0093 -0.3986
  727SOL    MW4 2676   1.556   0.102   5.751  0.6023 -0.5649  0.1882
  728SOL     OW 2677   1.170   4.107   2.292  0.1387  0.6291 -0.1306
  728SOL    HW2 2678   1.183   4.016   2.318 -0.8130  0.2042 -1.0310
  728SOL    HW3 2679   1.258   4.140   2.274  0.5408  0.0556  0.7192
  728SOL    MW4 2680   1.183   4.099   2.293  0.0662  0.4973 -0.1373
  729SOL     OW 2681   6.272   4.463   3.921  0.1442  0.0918 -0.0046
  729SOL    HW2 2682   6.189   4.475   3.875  0.7300 -0.3687 -1.2194
  729SOL    HW3 2683   6.292   4.549   3.957 -1.1554  0.0714  0.8465
  729SOL    MW4 2684   6.263   4.476   3.919  0.0501  0.0283 -0.0526
  730SOL     OW 2685   5.130   3.248   5.177  0.8000 -0.5130  0.5971
  730SOL    HW2 2686   5.049   3.206   5.149 -0.1040  0.3281  1.8754
  730SOL    HW3 2687   5.141   3.223   5.268  1.2063  0.5521  0.8595
  730SOL    MW4 2688   5.121   3.239   5.185  0.7343 -0.2615  0.8004
  731SOL     OW 2689   6.401   4.831   0.829 -0.1798  0.0910 -0.6014
  731SOL    HW2 2690   6.404   4.918   0.789  1.4359  0.3780  0.0681
  731SOL    HW3 2691   6.493   4.805   0.836 -0.3981 -0.2498  2.2300
  731SOL    MW4 2692   6.414   4.839   0.825  0.0046  0.0839 -0.1395
  732SOL     OW 2693   2.578   4.517   2.195 -0.6873  0.3898 -0.0767
  732SOL    HW2 2694   2.492   4.476   2.180 -0.4064 -0.7230  1.1697
  732SOL    HW3 2695   2.641   4.453   2.160 -0.3409  1.1165 -0.8161
  732SOL    MW4 2696   2.575   4.503   2.188 -0.6045  0.3389 -0.0098
  733SOL     OW 2697   2.533   6.328   2.563  0.4570  0.3275 -0.3332
  733SOL    HW2 2698   2.589   6.399   2.594  0.5905 -0.1458  0.5643
  733SOL    HW3 2699   2.464   6.321   2.629  0.0665  0.0626 -0.7622
  733SOL    MW4 2700   2.532   6.336   2.576  0.4231  0.2301 -0.2714
  734SOL     OW 2701   6.289   3.070   3.683 -0.3627  0.3952  0.7118
  734SOL    HW2 2702   6.303   3.114   3.767  0.6428 -1.4824  1.5953
  734SOL    HW3 2703   6.340   3.121   3.620  4.3369 -1.6659  2.4188
  734SOL    MW4 2704   6.297   3.083   3.686  0.3900 -0.1245  1.0536
  735SOL     OW 2705   5.893   0.301   5.011  0.0018 -0.5102  0.2839
  735SOL    HW2 2706   5.923   0.278   5.099 -1.2031 -1.1170  0.5560
  735SOL    HW3 2707   5.865   0.392   5.018  0.6050 -0.3251  0.3354
  735SOL    MW4 2708   5.893   0.310   5.023 -0.0776 -0.5658  0.3266
  736SOL     OW 2709   1.541   1.733   1.750  0.4012 -0.1078  0.3209
  736SOL    HW2 2710   1.482   1.758   1.679  0.3769  0.7169  0.6175
  736SOL    HW3 2711   1.578   1.649   1.722  1.5258  0.8794 -1.3723
  736SOL    MW4 2712   1.538   1.725   1.737  0.5464  0.1312  0.1366
  737SOL     OW 2713   4.776   2.813   1.042  0.4653 -0.1474  0.0209
  737SOL    HW2 2714   4.798   2.791   0.952 -3.1048 -1.2953 -0.7188
  737SOL    HW3 2715   4.746   2.731   1.081 -1.5346  1.0125  1.0748
  737SOL    MW4 2716   4.775   2.799   1.035 -0.2696 -0.1458  0.0624
  738SOL     OW 2717   5.595   0.271   0.657 -0.4194 -0.2350  0.0071
  738SOL    HW2 2718   5.604   0.363   0.680  2.3566  0.2354 -2.3294
  738SOL    HW3 2719   5.613   0.224   0.739  0.3866  1.2920  0.7484
  738SOL    MW4 2720   5.599   0.277   0.671  0.0532  0.0285 -0.2033
  739SOL     OW 2721   4.944   0.910   4.523 -0.1165  0.0255  0.1730
  739SOL    HW2 2722   4.928   0.997   4.487  1.3001 -0.1432 -0.9887
  739SOL    HW3 2723   5.040   0.903   4.527 -0.2160 -0.9235  1.6734
  739SOL    MW4 2724   4.955   0.920   4.519  0.0573 -0.1220  0.2177
  740SOL     OW 2725   6.421   5.369   3.913 -0.5502  0.0730  0.3319
  740SOL    HW2 2726   6.513   5.387   3.892 -0.5598 -0.4555 -0.2075
  740SOL    HW3 2727   6.416   5.375   4.008 -0.3921  2.0615  0.2451
  740SOL    MW4 2728   6.433   5.372   3.922 -0.5306  0.2656  0.2492
  741SOL     OW 2729   3.545   3.265   0.684  0.8758 -0.0689  0.0918
  741SOL    HW2 2730   3.541   3.360   0.692  0.9833 -0.1646  1.8537
  741SOL    HW3 2731   3.625   3.247   0.635  1.3457  0.7349  0.5545
  741SOL    MW4 2732   3.555   3.275   0.679  0.9520  0.0245  0.3853
  742SOL     OW 2733   4.599   0.721   1.792  0.0760 -0.2626 -0.0603
  742SOL    HW2 2734   4.641   0.802   1.762 -2.4255  0.8400 -0.8619
  742SOL    HW3 2735   4.662   0.652   1.773  1.9653  1.4099 -0.0972
  742SOL    MW4 2736   4.613   0.723   1.785 -0.0048  0.1036 -0.1709
  743SOL     OW 2737   2.736   5.356   1.294  0.5172 -0.1420  0.6372
  743SOL    HW2 2738   2.811   5.317   1.250 -0.0252  0.2678 -0.7256
  743SOL    HW3 2739   2.725   5.441   1.252 -1.0565 -0.4442  0.3564
  743SOL    MW4 2740   2.744   5.362   1.282  0.2380 -0.1278  0.4203
  744SOL     OW 2741   6.171   6.045   2.335 -0.4098 -0.0491 -0.8876
  744SOL    HW2 2742   6.265   6.030   2.322 -0.3266 -0.9025  0.5499
  744SOL    HW3 2743   6.130   6.004   2.259  0.2367 -2.2650 -0.1230
  744SOL    MW4 2744   6.178   6.038   2.323 -0.3135 -0.4541 -0.5971
  745SOL     OW 2745   5.536   1.582   0.718 -0.3882  0.1426  0.0475
  745SOL    HW2 2746   5.579   1.543   0.642  0.1815 -1.1878  1.0286
  745SOL    HW3 2747   5.608   1.621   0.768 -0.6755  0.3878  0.2674
  745SOL    MW4 2748   5.551   1.582   0.715 -0.3509 -0.0006  0.2059
  746SOL     OW 2749   2.420   0.467   3.699  0.0570  0.0011  0.6422
  746SOL    HW2 2750   2.376   0.494   3.779 -0.4869 -0.4627  0.5064
  746SOL    HW3 2751   2.508   0.443   3.727 -0.0847 -0.0180  1.0795
  746SOL    MW4 2752   2.426   0.467   3.713 -0.0335 -0.0626  0.6820
  747SOL     OW 2753   3.901   6.210   3.263  0.1268 -0.5663  0.6076
  747SOL    HW2 2754   3.829   6.271   3.280 -0.5606 -1.3428  0.5381
  747SOL    HW3 2755   3.979   6.265   3.259 -0.1377  0.0827  2.7950
  747SOL    MW4 2756   3.902   6.225   3.265  0.0013 -0.5831  0.8871
  748SOL     OW 2757   3.309   5.637   0.072 -0.3885 -0.1809  0.1370
  748SOL    HW2 2758   3.266   5.703   0.018  0.7717  0.4277 -0.0785
  748SOL    HW3 2759   3.346   5.575   0.009  0.5912  0.2938  0.2218
  748SOL    MW4 2760   3.309   5.637   0.056 -0.1061 -0.0380  0.1198
  749SOL     OW 2761   2.427   5.930   3.135 -0.5440 -0.5198 -0.3447
  749SOL    HW2 2762   2.400   5.972   3.053 -4.4913  0.6763  1.3136
  749SOL    HW3 2763   2.422   5.836   3.116 -0.4387 -0.2675 -1.7265
  749SOL    MW4 2764   2.423   5.923   3.122 -1.0509 -0.3287 -0.3082
  750SOL     OW 2765   3.434   4.367   0.833  0.0694 -0.4715 -0.0684
  750SOL    HW2 2766   3.464   4.416   0.910  1.2943 -0.3901 -0.5860
  750SOL    HW3 2767   3.398   4.434   0.775  0.2710 -0.3798 -0.0893
  750SOL    MW4 2768   3.433   4.382   0.836  0.2576 -0.4487 -0.1395
  751SOL     OW 2769   5.790   4.854   4.705  0.3401  0.0836 -0.7151
  751SOL    HW2 2770   5.854   4.842   4.775  0.3616  0.4751 -0.6676
  751SOL    HW3 2771   5.705   4.848   4.749  0.3550  0.5960 -0.6063
  751SOL    MW4 2772   5.787   4.852   4.720  0.3449  0.2028 -0.6945
  752SOL     OW 2773   2.186   6.390   5.049 -0.2366 -0.3602  0.0397
  752SOL    HW2 2774   2.140   6.379   4.965 -0.1397 -1.7133  0.1425
  752SOL    HW3 2775   2.167   6.480   5.075 -0.9766 -0.1899 -1.0188
  752SOL    MW4 2776   2.178   6.400   5.041 -0.3215 -0.5162 -0.0864
  753SOL     OW 2777   6.012   5.335   6.208 -0.2911  0.1593 -0.2358
  753SOL    HW2 2778   5.953   5.284   6.152  0.3472 -0.3845 -0.4341
  753SOL    HW3 2779   6.098   5.325   6.166  0.0083  0.6102  0.2672
  753SOL    MW4 2780   6.016   5.327   6.195 -0.1674  0.1470 -0.1956
  754SOL     OW 2781   6.014   1.546   0.366 -0.3398  0.3957  0.1483
  754SOL    HW2 2782   6.082   1.577   0.306 -0.7764  0.1264 -0.4945
  754SOL    HW3 2783   6.002   1.454   0.343 -0.0773  0.1229  1.0699
  754SOL    MW4 2784   6.021   1.538   0.355 -0.3628  0.3242  0.1851
  755SOL     OW 2785   1.233   5.161   4.925  0.0223  0.4320 -0.4573
  755SOL    HW2 2786   1.224   5.216   5.003  1.1497 -0.6837  0.5059
  755SOL    HW3 2787   1.326   5.166   4.903 -0.5083  2.0188 -2.7718
  755SOL    MW4 2788   1.244   5.169   4.932  0.1011  0.4941 -0.6356
  756SOL     OW 2789   4.144   3.074   5.967  0.1100 -0.7240  0.3327
  756SOL    HW2 2790   4.111   2.988   5.995  1.9609 -1.4245  0.4965
  756SOL    HW3 2791   4.163   3.119   6.049 -3.0405  0.8532  0.3550
  756SOL    MW4 2792   4.142   3.069   5.982 -0.0615 -0.6083  0.3573
  757SOL     OW 2793   2.744   1.234   5.813  0.2727  0.3426 -0.5425
  757SOL    HW2 2794   2.813   1.285   5.771 -0.0680 -0.4711 -2.1655
  757SOL    HW3 2795   2.735   1.156   5.759 -1.1979 -0.0735  0.2379
  757SOL    MW4 2796   2.752   1.231   5.800  0.0337  0.1803 -0.6537
  758SOL     OW 2797   2.598   5.498   5.241 -0.0932 -0.0616  0.2011
  758SOL    HW2 2798   2.614   5.549   5.162 -0.3639  1.2299  0.9526
  758SOL    HW3 2799   2.681   5.500   5.289  0.0321 -0.7269  0.0230
  758SOL    MW4 2800   2.611   5.505   5.237 -0.1124  0.0210  0.2767
  759SOL     OW 2801   5.496   3.052   4.478  0.4327 -0.0394 -0.2228
  759SOL    HW2 2802   5.539   3.137   4.465 -2.5526  1.8457  1.0579
  759SOL    HW3 2803   5.547   3.010   4.547  1.4741  1.1300 -0.2319
  759SOL    MW4 2804   5.508   3.058   4.485  0.1762  0.3636 -0.0551
  760SOL     OW 2805   3.523   0.604   0.618 -0.1646  0.3280  0.1250
  760SOL    HW2 2806   3.460   0.547   0.661  1.5578 -1.7987 -0.0083
  760SOL    HW3 2807   3.474   0.644   0.546 -0.8787 -3.1240 -1.5261
  760SOL    MW4 2808   3.508   0.602   0.614 -0.0316 -0.4081 -0.1105
  761SOL     OW 2809   5.980   2.033   3.250 -0.5232  0.4706  0.4612
  761SOL    HW2 2810   5.990   2.033   3.154 -0.5929  0.6856  0.4538
  761SOL    HW3 2811   6.051   2.088   3.281 -0.4495  0.3315  0.5400
  761SOL    MW4 2812   5.990   2.040   3.241 -0.5226  0.4806  0.4706
  762SOL     OW 2813   3.860   5.512   2.416 -0.1442 -0.2783  0.2675
  762SOL    HW2 2814   3.853   5.602   2.382 -0.0796 -0.6268 -0.7044
  762SOL    HW3 2815   3.770   5.489   2.441 -0.3581 -0.3172 -0.4994
  762SOL    MW4 2816   3.847   5.521   2.415 -0.1639 -0.3294  0.0381
  763SOL     OW 2817   2.110   3.695   3.738 -0.1966  0.4378 -0.2457
  763SOL    HW2 2818   2.096   3.607   3.704  2.1144  0.3142 -1.0204
  763SOL    HW3 2819   2.039   3.708   3.801 -0.0711 -2.3477  0.6014
  763SOL    MW4 2820   2.099   3.685   3.742  0.1249  0.0540 -0.2362
  764SOL     OW 2821   3.409   2.135   3.539  0.0919  0.4438  0.0636
  764SOL    HW2 2822   3.319   2.122   3.569 -1.1273 -0.8624 -3.5975
  764SOL    HW3 2823   3.424   2.229   3.549 -0.4169  0.2794  3.6350
  764SOL    MW4 2824   3.399   2.146   3.544 -0.1361  0.2498  0.0518
  765SOL     OW 2825   6.079   1.336   2.442 -0.0434  0.2172 -0.1949
  765SOL    HW2 2826   6.005   1.343   2.382 -0.9607  2.0631  1.0773
  765SOL    HW3 2827   6.060   1.398   2.512  3.0935  1.4140 -0.2212
  765SOL    MW4 2828   6.067   1.345   2.443  0.2494  0.6186 -0.0306
  766SOL     OW 2829   1.997   4.839   4.545  0.1994  0.5450  0.1741
  766SOL    HW2 2830   1.911   4.871   4.573 -0.1646 -0.8142  0.6969
  766SOL    HW3 2831   1.998   4.852   4.450 -0.3664  1.0650  0.2310
  766SOL    MW4 2832   1.985   4.845   4.536  0.0767  0.4343  0.2506
  767SOL     OW 2833   4.674   6.105   5.752 -0.0910  0.5751  0.4594
  767SOL    HW2 2834   4.671   6.131   5.844  1.4294 -0.0092  0.7038
  767SOL    HW3 2835   4.712   6.180   5.706  0.5958  0.3000  0.5617
  767SOL    MW4 2836   4.679   6.118   5.758  0.2002  0.4617  0.5051
  768SOL     OW 2837   1.782   0.851   0.876  0.0529 -0.0872  0.2068
  768SOL    HW2 2838   1.736   0.841   0.793 -3.0511  0.5066  1.7119
  768SOL    HW3 2839   1.837   0.773   0.882 -0.3829 -0.6276 -1.9317
  768SOL    MW4 2840   1.783   0.839   0.866 -0.4141 -0.0801  0.1232
  769SOL     OW 2841   6.147   2.825   5.276 -0.4159 -0.2173  0.1310
  769SOL    HW2 2842   6.113   2.755   5.219  1.6390  0.1489 -1.7183
  769SOL    HW3 2843   6.117   2.906   5.234 -0.3862  0.0340  0.5979
  769SOL    MW4 2844   6.139   2.826   5.263 -0.1409 -0.1358 -0.0514
  770SOL     OW 2845   5.233   2.451   3.748 -0.7886  0.2686 -0.8007
  770SOL    HW2 2846   5.158   2.504   3.776  0.5828  1.5086  0.7728
  770SOL    HW3 2847   5.308   2.492   3.792  0.4912 -2.4248 -0.3211
  770SOL    MW4 2848   5.233   2.464   3.757 -0.4388  0.0768 -0.5298
  771SOL     OW 2849   1.320   0.782   1.580 -0.5064  0.7439 -0.3178
  771SOL    HW2 2850   1.411   0.756   1.570 -0.0146  1.4683  1.7968
  771SOL    HW3 2851   1.293   0.744   1.664 -2.2301  0.3777 -0.9973
  771SOL    MW4 2852   1.328   0.773   1.590 -0.6689  0.7912 -0.1285
  772SOL     OW 2853   0.176   3.076   2.239 -0.5254 -0.0291  0.9991
  772SOL    HW2 2854   0.123   3.154   2.225 -0.2529 -0.2820 -2.1596
  772SOL    HW3 2855   0.115   3.003   2.225 -0.2776 -0.3603  1.6122
  772SOL    MW4 2856   0.161   3.077   2.235 -0.4567 -0.1061  0.6633
  773SOL     OW 2857   4.772   2.300   1.929  0.5795  0.5191  0.0001
  773SOL    HW2 2858   4.861   2.334   1.920  0.7616 -0.2423 -1.2891
  773SOL    HW3 2859   4.784   2.209   1.956  0.2106  0.3165 -0.5061
  773SOL    MW4 2860   4.785   2.292   1.932  0.5549  0.3919 -0.2368
  774SOL     OW 2861   3.694   3.000   6.017  0.0243  0.1980  0.4078
  774SOL    HW2 2862   3.599   2.998   6.027 -0.0727 -0.4832 -0.5527
  774SOL    HW3 2863   3.710   3.076   5.961  0.0373  0.2507  0.4826
  774SOL    MW4 2864   3.683   3.010   6.011  0.0132  0.1151  0.2909
  775SOL     OW 2865   1.275   5.685   3.296 -0.0503  0.5323 -0.3550
  775SOL    HW2 2866   1.284   5.762   3.352 -2.0311 -0.0690  0.8776
  775SOL    HW3 2867   1.331   5.619   3.336  0.4218  0.8353 -0.5069
  775SOL    MW4 2868   1.284   5.687   3.309 -0.2494  0.4930 -0.2124
  776SOL     OW 2869   4.306   4.283   5.157 -0.9066  0.2642 -0.1192
  776SOL    HW2 2870   4.331   4.268   5.248  0.0886 -0.0095 -0.4265
  776SOL    HW3 2871   4.212   4.297   5.160 -1.1492 -1.3310  0.7589
  776SOL    MW4 2872   4.297   4.283   5.170 -0.8073  0.0176 -0.0439
  777SOL     OW 2873   0.939   4.792   5.715 -0.3368  0.1037 -0.3683
  777SOL    HW2 2874   1.007   4.780   5.781 -0.0307 -0.8576 -0.8345
  777SOL    HW3 2875   0.987   4.815   5.635 -0.7544  2.0689 -0.1033
  777SOL    MW4 2876   0.955   4.793   5.713 -0.3515  0.2361 -0.3948
  778SOL     OW 2877   3.505   2.168   3.811 -0.0325 -0.8102  0.0471
  778SOL    HW2 2878   3.494   2.116   3.731  0.0676  0.0274 -0.5255
  778SOL    HW3 2879   3.416   2.187   3.840 -0.0693 -1.1629  0.1659
  778SOL    MW4 2880   3.492   2.163   3.804 -0.0241 -0.7462 -0.0128
  779SOL     OW 2881   1.670   3.962   2.806 -0.2643 -0.5604  0.9016
  779SOL    HW2 2882   1.643   3.958   2.715  0.6197  0.0020  0.6003
  779SOL    HW3 2883   1.727   3.886   2.818 -2.1332 -1.9144  1.6158
  779SOL    MW4 2884   1.674   3.951   2.796 -0.3943 -0.6648  0.9561
  780SOL     OW 2885   5.880   3.135   0.023 -0.0012 -0.7450  0.0672
  780SOL    HW2 2886   5.931   3.062   0.057 -1.5183 -1.7198  0.3231
  780SOL    HW3 2887   5.913   3.148  -0.066  0.1548 -1.8830 -0.0584
  780SOL    MW4 2888   5.891   3.127   0.016 -0.1808 -1.0238  0.0844
  781SOL     OW 2889   2.741   3.277   1.797  0.0712 -0.5468 -0.2474
  781SOL    HW2 2890   2.825   3.232   1.786  0.3564 -1.0217  2.8059
  781SOL    HW3 2891   2.763   3.355   1.847 -1.3335 -0.9860  1.1214
  781SOL    MW4 2892   2.755   3.281   1.802 -0.0765 -0.6674  0.3360
  782SOL     OW 2893   5.565   4.876   5.633  0.2428  0.5263 -0.1364
  782SOL    HW2 2894   5.585   4.897   5.542 -1.8347 -0.0247 -0.7740
  782SOL    HW3 2895   5.649   4.850   5.670  0.8365 -1.1223 -2.4289
  782SOL    MW4 2896   5.579   4.876   5.626  0.0470  0.2361 -0.5230
  783SOL     OW 2897   3.735   2.622   1.713 -0.3573  0.2074  0.6742
  783SOL    HW2 2898   3.740   2.602   1.806  0.8179 -2.3160  0.1447
  783SOL    HW3 2899   3.796   2.561   1.672 -1.0169  1.0901 -1.7884
  783SOL    MW4 2900   3.744   2.611   1.720 -0.2893 -0.0091  0.2794
  784SOL     OW 2901   0.037   1.738   2.460  0.0841  0.0047  0.4278
  784SOL    HW2 2902  -0.022   1.679   2.509 -2.1349  1.0758 -0.8205
  784SOL    HW3 2903  -0.008   1.822   2.459  1.7557  0.9469 -0.4576
  784SOL    MW4 2904   0.023   1.741   2.467  0.0119  0.2703  0.1463
  785SOL     OW 2905   0.444   3.745   0.251  0.4157  0.0929  0.0132
  785SOL    HW2 2906   0.356   3.759   0.286  0.8518 -0.2146  1.2996
  785SOL    HW3 2907   0.438   3.770   0.159 -0.4427  2.3713  0.6242
  785SOL    MW4 2908   0.432   3.750   0.244  0.3600  0.3529  0.2635
  786SOL     OW 2909   5.756   1.281   4.808 -0.2058 -0.3623  0.5589
  786SOL    HW2 2910   5.773   1.327   4.890  1.8265 -0.3268  0.1678
  786SOL    HW3 2911   5.811   1.203   4.812 -1.0470 -1.0248 -0.2442
  786SOL    MW4 2912   5.765   1.276   4.819 -0.0487 -0.4450  0.4013
  787SOL     OW 2913   2.072   0.816   4.154  0.0155 -0.3519  0.0418
  787SOL    HW2 2914   2.106   0.897   4.115 -0.0227 -0.7547 -0.8510
  787SOL    HW3 2915   2.060   0.837   4.246 -1.1967  1.0724 -0.4035
  787SOL    MW4 2916   2.075   0.829   4.161 -0.1495 -0.2171 -0.1347
  788SOL     OW 2917   1.592   2.133   2.477  0.0477  0.6202 -0.0743
  788SOL    HW2 2918   1.551   2.107   2.560 -1.1744  0.2087 -0.7811
  788SOL    HW3 2919   1.522   2.175   2.427  0.3776 -0.3849 -1.4546
  788SOL    MW4 2920   1.578   2.135   2.481 -0.0700  0.4333 -0.3497
  789SOL     OW 2921   6.295   0.618   2.586 -0.0717  0.5017 -0.3470
  789SOL    HW2 2922   6.242   0.689   2.624  0.3765  0.7153 -0.1147
  789SOL    HW3 2923   6.232   0.548   2.569 -0.1998  0.0868  1.5461
  789SOL    MW4 2924   6.279   0.618   2.589 -0.0295  0.4752 -0.0666
  790SOL     OW 2925   5.131   3.133   4.140 -0.6721  0.1904 -0.9016
  790SOL    HW2 2926   5.183   3.059   4.109  0.0265 -0.0896  0.7974
  790SOL    HW3 2927   5.162   3.208   4.090  0.0938 -0.3060 -1.1808
  790SOL    MW4 2928   5.142   3.133   4.129 -0.4789  0.0880 -0.7143
  791SOL     OW 2929   3.878   0.496   0.065  0.3586  0.0984 -0.5967
  791SOL    HW2 2930   3.902   0.511  -0.027 -1.0598  0.9618 -0.8569
  791SOL    HW3 2931   3.884   0.401   0.076  2.2205  0.1246 -1.0726
  791SOL    MW4 2932   3.882   0.486   0.054  0.4171  0.2158 -0.6938
  792SOL     OW 2933   3.373   3.327   4.759 -0.1275  0.1653 -0.1142
  792SOL    HW2 2934   3.400   3.331   4.668  0.5893 -1.3447  0.0098
  792SOL    HW3 2935   3.322   3.246   4.766  0.2255  0.0151  0.9245
  792SOL    MW4 2936   3.370   3.317   4.748  0.0136 -0.0537  0.0392
  793SOL     OW 2937   2.333   4.922   4.025 -0.0208 -0.2262  0.3684
  793SOL    HW2 2938   2.273   4.973   4.081  0.0938  1.0770 -0.6452
  793SOL    HW3 2939   2.288   4.838   4.012 -0.0131 -0.6074  2.4569
  793SOL    MW4 2940   2.319   4.918   4.031 -0.0047 -0.1046  0.5102
  794SOL     OW 2941   1.878   5.825   5.214 -0.6152 -0.1110  0.0008
  794SOL    HW2 2942   1.938   5.756   5.244 -0.2032  0.7308  1.1573
  794SOL    HW3 2943   1.871   5.810   5.119  0.1332 -1.2163  0.0928
  794SOL    MW4 2944   1.885   5.814   5.205 -0.4621 -0.1458  0.1655
  795SOL     OW 2945   2.837   3.791   4.585  0.4816 -0.6944 -0.3377
  795SOL    HW2 2946   2.904   3.796   4.518  0.8244  1.5264  0.0911
  795SOL    HW3 2947   2.758   3.823   4.542  0.9362  1.7586  0.5089
  795SOL    MW4 2948   2.835   3.796   4.571  0.5868 -0.0778 -0.1694
  796SOL     OW 2949   2.183   3.960   1.912 -0.1220  0.3232 -0.5156
  796SOL    HW2 2950   2.200   3.946   1.819 -0.4069 -1.0619 -0.3943
  796SOL    HW3 2951   2.090   3.939   1.923  0.4490 -2.0755  0.4579
  796SOL    MW4 2952   2.173   3.955   1.901 -0.0843 -0.1760 -0.3711
  797SOL     OW 2953   3.833   1.260   3.666 -0.2153 -0.2839 -0.0998
  797SOL    HW2 2954   3.830   1.242   3.760  2.0067  2.1264  0.5827
  797SOL    HW3 2955   3.926   1.253   3.643 -0.6935 -0.7226 -2.1224
  797SOL    MW4 2956   3.845   1.257   3.675  0.0148 -0.0238 -0.2766
  798SOL     OW 2957   5.410   2.722   1.677  0.1833  0.0800  0.2310
  798SOL    HW2 2958   5.375   2.645   1.723  1.5022  0.7667  2.5236
  798SOL    HW3 2959   5.409   2.697   1.585 -1.7212 -1.7327  0.6632
  798SOL    MW4 2960   5.405   2.709   1.671  0.1061 -0.0686  0.5905
  799SOL     OW 2961   2.289   1.431   3.738 -0.5203 -0.3966  0.1754
  799SOL    HW2 2962   2.312   1.490   3.667 -2.9735  1.6094  0.8931
  799SOL    HW3 2963   2.349   1.453   3.809 -0.4317  0.1665 -0.0729
  799SOL    MW4 2964   2.300   1.442   3.738 -0.8323 -0.0576  0.2373
  800SOL     OW 2965   1.726   3.073   6.370  0.2264  0.3378  0.0296
  800SOL    HW2 2966   1.728   3.078   6.275  1.2190  0.5125  0.0538
  800SOL    HW3 2967   1.763   2.987   6.390 -2.3244 -0.8289  0.1923
  800SOL    MW4 2968   1.731   3.062   6.360  0.0208  0.2069  0.0542
  801SOL     OW 2969   2.789   0.616   5.898 -0.3914 -0.3978 -0.1637
  801SOL    HW2 2970   2.733   0.606   5.821 -0.9771 -1.5281  0.3868
  801SOL    HW3 2971   2.773   0.538   5.950  0.2912  0.1596  0.9290
  801SOL    MW4 2972   2.779   0.604   5.895 -0.3786 -0.4734  0.0531
  802SOL     OW 2973   1.531   3.033   1.316 -0.4971  0.4141 -0.1289
  802SOL    HW2 2974   1.596   2.963   1.324  1.4079  2.1716  0.6089
  802SOL    HW3 2975   1.487   3.035   1.400 -0.6695  0.0108 -0.2066
  802SOL    MW4 2976   1.534   3.024   1.328 -0.2685  0.5928 -0.0418
  803SOL     OW 2977   3.285   1.632   2.360 -0.6851  0.3602 -0.7415
  803SOL    HW2 2978   3.257   1.571   2.292  1.5919  0.0562 -1.4805
  803SOL    HW3 2979   3.210   1.691   2.372 -2.4935 -1.7719 -0.8931
  803SOL    MW4 2980   3.272   1.632   2.353 -0.6233  0.0388 -0.8590
  804SOL     OW 2981   2.536   0.892   3.811 -1.0057  0.1455  0.4158
  804SOL    HW2 2982   2.450   0.856   3.831 -0.8396 -1.7884 -1.8788
  804SOL    HW3 2983   2.598   0.826   3.842 -0.5839 -0.4062 -1.4319
  804SOL    MW4 2984   2.533   0.879   3.818 -0.9281 -0.1824 -0.1307
  805SOL     OW 2985   5.534   5.099   6.085  0.7289 -0.0179 -0.3550
  805SOL    HW2 2986   5.509   5.035   6.019 -0.1527  0.4385 -0.4851
  805SOL    HW3 2987   5.472   5.171   6.073  0.0816 -0.2273  1.4202
  805SOL    MW4 2988   5.522   5.100   6.075  0.5272  0.0147 -0.1379
  806SOL     OW 2989   4.122   3.069   5.601 -0.8275 -0.0414 -0.3158
  806SOL    HW2 2990   4.070   3.123   5.541 -2.4485 -0.2100  0.8565
  806SOL    HW3 2991   4.099   3.102   5.688  1.2372  0.0050  0.2670
  806SOL    MW4 2992   4.112   3.080   5.605 -0.7689 -0.0576 -0.0842
  807SOL     OW 2993   0.943   4.462   2.658  0.2136  0.3139 -0.3848
  807SOL    HW2 2994   0.940   4.446   2.564 -1.6377 -1.3333 -0.1002
  807SOL    HW3 2995   0.919   4.379   2.698 -0.7954  1.4265  1.4969
  807SOL    MW4 2996   0.939   4.449   2.651 -0.1638  0.2433 -0.0990
  808SOL     OW 2997   2.105   1.409   1.774  0.4634 -0.4983 -0.4831
  808SOL    HW2 2998   2.140   1.465   1.843 -0.9355  1.0001 -0.9222
  808SOL    HW3 2999   2.182   1.374   1.729  1.3695 -0.0366  0.6706
  808SOL    MW4 3000   2.119   1.411   1.778  0.3984 -0.2397 -0.3888
  809SOL     OW 3001   1.175   3.210   2.025 -0.2840  0.0259 -0.5610
  809SOL    HW2 3002   1.188   3.194   2.119  1.3923 -0.8075 -0.8868
  809SOL    HW3 3003   1.107   3.277   2.021 -1.9618 -1.4828  1.1559
  809SOL    MW4 3004   1.168   3.217   2.037 -0.2842 -0.2831 -0.3775
  810SOL     OW 3005   2.130   3.882   4.220 -0.0455  0.5228  0.9610
  810SOL    HW2 3006   2.132   3.920   4.308  0.1181  0.3066  1.0495
  810SOL    HW3 3007   2.086   3.949   4.166 -1.3878  0.1011  1.4812
  810SOL    MW4 3008   2.124   3.896   4.224 -0.2010  0.4387  1.0413
  811SOL     OW 3009   0.856   2.740   0.271  0.3149  0.0502 -0.5225
  811SOL    HW2 3010   0.906   2.714   0.194  3.1614 -1.1162  1.5598
  811SOL    HW3 3011   0.873   2.671   0.335 -2.4623  0.6456  1.0173
  811SOL    MW4 3012   0.864   2.728   0.269  0.3241 -0.0252 -0.0446
  812SOL     OW 3013   6.279   5.777   2.889 -0.0003  0.4092 -0.2128
  812SOL    HW2 3014   6.263   5.826   2.809 -0.2492  0.5277 -0.0914
  812SOL    HW3 3015   6.221   5.700   2.883 -0.8125  0.9594  0.3348
  812SOL    MW4 3016   6.269   5.773   2.878 -0.1403  0.4974 -0.1245
  813SOL     OW 3017   4.904   4.842   1.178 -0.0824 -0.3855 -0.2850
  813SOL    HW2 3018   4.974   4.902   1.205  0.8422 -0.4242 -2.3868
  813SOL    HW3 3019   4.823   4.891   1.190  0.5486  0.7415 -0.5304
  813SOL    MW4 3020   4.903   4.856   1.183  0.1228 -0.2419 -0.5947
  814SOL     OW 3021   4.480   5.310   1.917 -1.0142  0.1710  0.1507
  814SOL    HW2 3022   4.409   5.337   1.976 -1.3505  2.1506 -1.0771
  814SOL    HW3 3023   4.452   5.340   1.830  0.1025 -1.4385 -0.8152
  814SOL    MW4 3024   4.467   5.318   1.913 -0.9112  0.2198 -0.1388
  815SOL     OW 3025   4.443   4.702   0.109 -0.2328 -0.0280 -0.1674
  815SOL    HW2 3026   4.396   4.624   0.136 -0.3655  0.5755  1.4449
  815SOL    HW3 3027   4.507   4.718   0.178  0.3199  0.8559 -0.8480
  815SOL    MW4 3028   4.445   4.694   0.121 -0.1774  0.1682 -0.0445
  816SOL     OW 3029   3.165   1.253   2.347 -0.7233  0.1302 -0.2333
  816SOL    HW2 3030   3.087   1.286   2.392  0.2315  1.3052  0.6161
  816SOL    HW3 3031   3.233   1.254   2.414  0.1388 -0.4664 -1.0810
  816SOL    MW4 3032   3.163   1.258   2.362 -0.4836  0.2065 -0.2330
  817SOL     OW 3033   2.915   5.073   3.800 -0.1978  0.1950  0.0826
  817SOL    HW2 3034   2.850   5.027   3.852  0.0456  0.2262  0.4199
  817SOL    HW3 3035   2.945   5.144   3.857 -1.2586  1.3784 -0.7775
  817SOL    MW4 3036   2.911   5.076   3.814 -0.3056  0.3552  0.0136
  818SOL     OW 3037   0.584   3.529   1.895  0.0220  0.3641  0.6508
  818SOL    HW2 3038   0.513   3.563   1.840 -0.5862  0.3554  1.4100
  818SOL    HW3 3039   0.600   3.441   1.860 -0.0262  0.5350  0.1851
  818SOL    MW4 3040   0.577   3.522   1.883 -0.0646  0.3855  0.6895
  819SOL     OW 3041   2.324   5.229   5.002  0.4534 -0.1459  0.2661
  819SOL    HW2 3042   2.265   5.163   5.039  1.5608 -0.9458  0.6733
  819SOL    HW3 3043   2.394   5.237   5.067  1.7510 -0.5926 -1.0263
  819SOL    MW4 3044   2.325   5.221   5.015  0.7707 -0.3104  0.1493
  820SOL     OW 3045   1.788   3.838   5.815  0.0944 -0.0195 -0.1377
  820SOL    HW2 3046   1.729   3.775   5.774 -1.1942  0.9857  0.1041
  820SOL    HW3 3047   1.821   3.793   5.893  0.5686 -1.0050 -0.8862
  820SOL    MW4 3048   1.785   3.824   5.820 -0.0130 -0.0169 -0.2046
  821SOL     OW 3049   6.050   2.376   5.762 -0.4212  0.0153  0.1158
  821SOL    HW2 3050   5.974   2.433   5.746  0.0988  0.5649 -0.4762
  821SOL    HW3 3051   6.122   2.437   5.778  0.4809 -0.3926 -1.9880
  821SOL    MW4 3052   6.049   2.392   5.762 -0.2336  0.0340 -0.2399
  822SOL     OW 3053   5.705   0.200   6.407 -0.2953 -0.6494 -0.3687
  822SOL    HW2 3054   5.738   0.202   6.496  0.3135  0.7320 -0.6095
  822SOL    HW3 3055   5.618   0.240   6.412  1.2553  3.1925 -0.9340
  822SOL    MW4 3056   5.698   0.206   6.419 -0.0104  0.0397 -0.4750
  823SOL     OW 3057   3.013   4.209   3.173  0.2708  0.1184  0.3650
  823SOL    HW2 3058   3.031   4.136   3.113  0.8682 -0.9599  1.8128
  823SOL    HW3 3059   3.091   4.265   3.166  0.5475 -0.2500  0.4771
  823SOL    MW4 3060   3.026   4.207   3.164  0.3861 -0.0725  0.5708
  824SOL     OW 3061   2.518   1.171   4.329  0.0182 -0.1395  0.4474
  824SOL    HW2 3062   2.599   1.219   4.342  0.0007 -0.1831  0.7337
  824SOL    HW3 3063   2.540   1.102   4.267  0.1181  0.0496  0.2723
  824SOL    MW4 3064   2.532   1.168   4.322  0.0291 -0.1203  0.4621
  825SOL     OW 3065   2.746   0.916   5.124 -0.4114 -0.6583 -0.4528
  825SOL    HW2 3066   2.693   0.995   5.116 -1.3974 -1.3953 -1.6335
  825SOL    HW3 3067   2.688   0.852   5.165  1.0089 -0.2528  2.3676
  825SOL    MW4 3068   2.731   0.918   5.128 -0.3541 -0.7020 -0.2365
  826SOL     OW 3069   2.780   2.589   4.832  0.0421  0.1828 -0.3666
  826SOL    HW2 3070   2.847   2.606   4.898 -0.0032 -2.6494  0.5752
  826SOL    HW3 3071   2.800   2.649   4.761  1.4555  1.8036  1.3117
  826SOL    MW4 3072   2.792   2.599   4.831  0.2226  0.0230 -0.0209
  827SOL     OW 3073   6.054   3.948   5.915  0.0373  0.0580 -0.4240
  827SOL    HW2 3074   6.123   3.925   5.853  0.9307  0.4870  0.3882
  827SOL    HW3 3075   6.100   3.988   5.989 -1.1515  1.1853 -0.2492
  827SOL    MW4 3076   6.069   3.950   5.916 -0.0017  0.2634 -0.2938
  828SOL     OW 3077   1.281   2.963   3.537 -0.3742 -0.0215  0.3541
  828SOL    HW2 3078   1.197   3.010   3.540 -0.1379  0.5350 -0.8474
  828SOL    HW3 3079   1.268   2.894   3.472 -0.4539 -1.1348  1.5093
  828SOL    MW4 3080   1.268   2.960   3.528 -0.3535 -0.0949  0.3480
  829SOL     OW 3081   1.578   5.534   1.836 -0.1139  0.6246 -0.0395
  829SOL    HW2 3082   1.592   5.463   1.899 -0.5859 -0.1668 -0.8039
  829SOL    HW3 3083   1.616   5.611   1.878  2.1022 -0.4330  0.0387
  829SOL    MW4 3084   1.585   5.535   1.850  0.1162  0.3806 -0.1301
  830SOL     OW 3085   2.398   1.983   0.584  0.0200  0.4081  0.1460
  830SOL    HW2 3086   2.435   2.051   0.528 -1.4221  3.5148  2.6856
  830SOL    HW3 3087   2.464   1.970   0.652 -0.6437  1.0115  0.9296
  830SOL    MW4 3088   2.412   1.990   0.585 -0.2579  0.8976  0.5844
  831SOL     OW 3089   4.167   6.043   6.310 -0.3038  0.3633 -0.1808
  831SOL    HW2 3090   4.173   6.043   6.406  0.8783 -0.3176 -0.2354
  831SOL    HW3 3091   4.234   5.981   6.282 -1.5137 -0.4404 -1.4094
  831SOL    MW4 3092   4.177   6.035   6.319 -0.3075  0.1674 -0.3501
  832SOL     OW 3093   1.415   4.172   2.255 -0.6264 -0.3344  0.1607
  832SOL    HW2 3094   1.424   4.243   2.191  1.2779 -0.9734 -0.3573
  832SOL    HW3 3095   1.481   4.192   2.322 -1.0712 -0.8545  0.7675
  832SOL    MW4 3096   1.425   4.184   2.256 -0.4339 -0.4874  0.1724
  833SOL     OW 3097   0.580   2.427   2.412  0.6032  0.0549  0.2455
  833SOL    HW2 3098   0.540   2.466   2.334  0.0820 -0.0681  0.4515
  833SOL    HW3 3099   0.621   2.347   2.380  1.4667  0.6293 -0.1331
  833SOL    MW4 3100   0.581   2.422   2.397  0.6484  0.1145  0.2228
  834SOL     OW 3101   5.665   0.164   5.807  0.0923  0.5302 -0.2680
  834SOL    HW2 3102   5.753   0.127   5.797 -0.2101  0.2137 -2.3442
  834SOL    HW3 3103   5.617   0.098   5.856  1.0942  0.8857  1.2489
  834SOL    MW4 3104   5.670   0.150   5.812  0.1846  0.5354 -0.3418
  835SOL     OW 3105   3.485   2.901   0.877 -0.1397 -0.2128  0.7957
  835SOL    HW2 3106   3.484   2.823   0.932  2.0375 -1.6546 -0.9935
  835SOL    HW3 3107   3.578   2.923   0.869 -0.2911 -0.2957 -2.4704
  835SOL    MW4 3108   3.497   2.894   0.883  0.1275 -0.4140  0.1287
  836SOL     OW 3109   2.509   3.811   3.093  0.5216  0.2402  0.4892
  836SOL    HW2 3110   2.426   3.851   3.066 -0.2787 -0.5759  1.6721
  836SOL    HW3 3111   2.527   3.848   3.179  0.7395 -0.5238  0.7780
  836SOL    MW4 3112   2.500   3.821   3.101  0.4448  0.0318  0.6833
  837SOL     OW 3113   1.631   3.226   3.977 -0.4762  0.1605 -0.3177
  837SOL    HW2 3114   1.655   3.224   4.070 -1.8324 -1.0803  0.0406
  837SOL    HW3 3115   1.650   3.316   3.949 -1.2184  0.9318  1.4962
  837SOL    MW4 3116   1.637   3.238   3.986 -0.7531  0.0985 -0.0311
  838SOL     OW 3117   4.995   5.983   0.346  0.3099  0.0284  0.6049
  838SOL    HW2 3118   5.031   6.067   0.373  1.7393 -0.0332 -0.9320
  838SOL    HW3 3119   4.996   5.930   0.426  1.1211  0.8958  1.1884
  838SOL    MW4 3120   5.000   5.987   0.360  0.6055  0.1347  0.4791
  839SOL     OW 3121   5.228   1.062   0.948 -0.5192 -0.7525 -0.2232
  839SOL    HW2 3122   5.209   0.970   0.969 -1.1967 -0.7087 -0.5923
  839SOL    HW3 3123   5.305   1.084   1.001 -0.3167 -1.5493 -0.1783
  839SOL    MW4 3124   5.235   1.053   0.958 -0.5819 -0.8518 -0.2660
  840SOL     OW 3125   6.215   6.204   1.347  0.5630 -0.1932  0.6833
  840SOL    HW2 3126   6.201   6.210   1.441 -0.0021  2.2860  0.5058
  840SOL    HW3 3127   6.138   6.158   1.314  0.2638 -0.1482  1.3124
  840SOL    MW4 3128   6.203   6.199   1.355  0.4490  0.1398  0.7429
  841SOL     OW 3129   0.901   1.693   5.863 -0.7543  0.3710 -0.0848
  841SOL    HW2 3130   0.868   1.668   5.949  0.3014 -3.3392 -0.5843
  841SOL    HW3 3131   0.979   1.745   5.881 -0.0265 -1.1187  1.2477
  841SOL    MW4 3132   0.907   1.697   5.877 -0.5190 -0.3150  0.0251
  842SOL     OW 3133   4.836   3.837   3.817 -0.3593  0.1386 -0.3182
  842SOL    HW2 3134   4.781   3.825   3.894  0.2639 -0.4643  0.0447
  842SOL    HW3 3135   4.800   3.914   3.774  0.0745  1.3003  1.2915
  842SOL    MW4 3136   4.824   3.846   3.821 -0.2199  0.2123 -0.0579
  843SOL     OW 3137   1.134   0.896   0.417  0.5688  0.1130  0.2850
  843SOL    HW2 3138   1.106   0.870   0.504  0.8362 -0.6232  0.1627
  843SOL    HW3 3139   1.189   0.973   0.431  1.2512 -0.4603  0.8519
  843SOL    MW4 3140   1.137   0.903   0.430  0.6941 -0.0597  0.3437
  844SOL     OW 3141   3.695   5.897   5.248  0.2103 -0.4073 -0.0381
  844SOL    HW2 3142   3.755   5.962   5.210  0.2970  1.1094  2.4639
  844SOL    HW3 3143   3.752   5.838   5.296 -0.1398  0.0933  1.0237
  844SOL    MW4 3144   3.710   5.898   5.249  0.1756 -0.1411  0.4321
  845SOL     OW 3145   6.365   0.342   5.169 -0.2022 -0.4017  0.3358
  845SOL    HW2 3146   6.440   0.299   5.128  0.7064  0.2885  1.2271
  845SOL    HW3 3147   6.373   0.322   5.262 -1.2187 -0.4351  0.4282
  845SOL    MW4 3148   6.375   0.334   5.176 -0.2164 -0.3150  0.4656
  846SOL     OW 3149   0.828   1.541   0.071 -0.0985 -0.6118  0.2393
  846SOL    HW2 3150   0.890   1.608   0.101 -0.8997 -0.0406  0.6516
  846SOL    HW3 3151   0.846   1.465   0.125  0.0019 -0.3299  0.6050
  846SOL    MW4 3152   0.839   1.540   0.082 -0.1910 -0.4992  0.3419
  847SOL     OW 3153   0.549   5.448   6.416 -0.4588  0.3884  0.5443
  847SOL    HW2 3154   0.562   5.407   6.501  1.5968  0.9177  0.5229
  847SOL    HW3 3155   0.581   5.538   6.427 -1.3948  0.8789 -0.4438
  847SOL    MW4 3156   0.555   5.455   6.429 -0.3111  0.5229  0.4111
  848SOL     OW 3157   2.355   4.430   0.337 -0.7653  0.5267  0.1682
  848SOL    HW2 3158   2.304   4.378   0.399 -0.9563 -0.0362 -0.4432
  848SOL    HW3 3159   2.329   4.396   0.251  1.3409 -0.4616 -0.1469
  848SOL    MW4 3160   2.345   4.419   0.334 -0.5126  0.3220  0.0460
  849SOL     OW 3161   0.577   4.235   0.576 -0.6601  0.0164 -0.3756
  849SOL    HW2 3162   0.648   4.272   0.524 -0.2447 -0.6210 -0.2778
  849SOL    HW3 3163   0.497   4.265   0.532 -0.3560  1.4770  0.0302
  849SOL    MW4 3164   0.576   4.244   0.563 -0.5652  0.1250 -0.3092
  850SOL     OW 3165   4.366   0.989   0.144  0.0338 -0.9592  0.3928
  850SOL    HW2 3166   4.321   1.073   0.134 -0.0893 -1.0839 -0.1009
  850SOL    HW3 3167   4.319   0.946   0.216 -1.1582 -1.4214 -0.6337
  850SOL    MW4 3168   4.354   0.995   0.152 -0.1397 -1.0367  0.1923
  851SOL     OW 3169   3.912   2.286   0.870 -0.3275  0.2199 -0.1374
  851SOL    HW2 3170   3.943   2.256   0.785  0.8863 -0.2575  0.4461
  851SOL    HW3 3171   3.906   2.381   0.861  1.9786  0.4213 -0.1167
  851SOL    MW4 3172   3.916   2.295   0.858  0.1369  0.1835 -0.0577
  852SOL     OW 3173   2.073   0.242   5.104  0.0455 -0.2867 -0.1314
  852SOL    HW2 3174   2.081   0.336   5.089  0.5695 -0.4767 -1.1361
  852SOL    HW3 3175   2.063   0.233   5.199 -0.3271  0.7940 -0.0593
  852SOL    MW4 3176   2.073   0.253   5.114  0.0655 -0.1692 -0.2545
  853SOL     OW 3177   3.059   1.483   4.812  0.2541 -0.1717  0.3500
  853SOL    HW2 3178   3.105   1.561   4.842 -0.9235  0.8319 -0.3474
  853SOL    HW3 3179   3.129   1.424   4.781  1.1194  0.8660  0.2727
  853SOL    MW4 3180   3.075   1.485   4.812  0.2129  0.0976  0.2478
  854SOL     OW 3181   5.626   2.864   0.588 -0.1252 -0.0587 -0.0208
  854SOL    HW2 3182   5.590   2.901   0.507 -0.1449  1.1957  0.5352
  854SOL    HW3 3183   5.638   2.771   0.569 -2.3354 -0.2622 -0.6700
  854SOL    MW4 3184   5.623   2.857   0.575 -0.4194  0.0800 -0.0331
  855SOL     OW 3185   6.311   2.357   4.615  0.1801 -0.1845  0.1699
  855SOL    HW2 3186   6.387   2.305   4.643  1.3919  1.3437 -0.1527
  855SOL    HW3 3187   6.240   2.328   4.672  1.5272 -0.1766  1.9343
  855SOL    MW4 3188   6.312   2.346   4.626  0.5177  0.0182  0.3601
  856SOL     OW 3189   2.983   2.763   5.888 -0.0345  0.3681  0.5562
  856SOL    HW2 3190   3.059   2.781   5.943 -0.6480  3.9158  0.4280
  856SOL    HW3 3191   3.019   2.719   5.811  1.7659  1.1018  0.9287
  856SOL    MW4 3192   2.998   2.759   5.885  0.1221  0.9330  0.5885
  857SOL     OW 3193   0.691   5.044   6.214  0.1305 -0.0723  0.0085
  857SOL    HW2 3194   0.773   5.020   6.172 -1.1126 -0.3400 -2.4986
  857SOL    HW3 3195   0.695   5.004   6.301  0.9906 -3.7395 -1.4964
  857SOL    MW4 3196   0.702   5.035   6.220  0.0800 -0.5915 -0.5208
  858SOL     OW 3197   3.575   6.147   5.813 -0.2717  0.0133 -0.1933
  858SOL    HW2 3198   3.570   6.229   5.862 -1.9632  0.2601 -0.7260
  858SOL    HW3 3199   3.487   6.134   5.779 -0.3496 -2.5541  0.7377
  858SOL    MW4 3200   3.563   6.156   5.815 -0.5052 -0.2928 -0.1408
  859SOL     OW 3201   4.520   4.533   4.959  0.2122 -0.2332 -0.1934
  859SOL    HW2 3202   4.565   4.596   4.903  1.8782  0.5403  1.8875
  859SOL    HW3 3203   4.577   4.456   4.960 -1.0194 -1.2395 -1.4136
  859SOL    MW4 3204   4.533   4.531   4.951  0.2695 -0.2639 -0.0798
  860SOL     OW 3205   2.511   5.425   3.975 -0.7263 -0.0895  0.1671
  860SOL    HW2 3206   2.535   5.412   3.883  0.4562 -1.3050  0.6148
  860SOL    HW3 3207   2.526   5.518   3.991  2.5702 -0.4658  0.0165
  860SOL    MW4 3208   2.516   5.436   3.965 -0.1353 -0.2995  0.2063
  861SOL     OW 3209   6.384   2.047   2.412  0.5168  0.5061 -0.5758
  861SOL    HW2 3210   6.474   2.080   2.408  0.3144  1.0477 -0.7076
  861SOL    HW3 3211   6.342   2.099   2.480  0.4335 -0.0782 -0.1719
  861SOL    MW4 3212   6.390   2.058   2.420  0.4791  0.5005 -0.5399
  862SOL     OW 3213   4.758   0.371   3.489  0.4534  0.2170  0.0900
  862SOL    HW2 3214   4.722   0.304   3.431  1.2848 -0.5368  0.4130
  862SOL    HW3 3215   4.710   0.451   3.467  1.0119  0.0565 -1.9059
  862SOL    MW4 3216   4.747   0.373   3.478  0.6368  0.0964 -0.1308
  863SOL     OW 3217   1.460   3.031   5.435  0.5338  0.2770 -0.1780
  863SOL    HW2 3218   1.504   3.040   5.351  1.1121 -0.3867  0.0422
  863SOL    HW3 3219   1.367   3.025   5.414  0.6933 -0.1016 -0.7812
  863SOL    MW4 3220   1.453   3.031   5.421  0.6311  0.1395 -0.2285
  864SOL     OW 3221   2.844   3.032   3.712 -0.0644 -0.0036  0.0538
  864SOL    HW2 3222   2.906   2.991   3.650 -0.4929  0.4566 -0.6874
  864SOL    HW3 3223   2.838   2.969   3.784  1.3899  0.0103  0.2187
  864SOL    MW4 3224   2.852   3.018   3.713  0.0709  0.0589 -0.0222
  865SOL     OW 3225   5.955   3.848   4.051  0.4861  0.0118  0.0919
  865SOL    HW2 3226   5.924   3.937   4.062 -0.9996 -0.1934 -1.9313
  865SOL    HW3 3227   6.019   3.853   3.981  1.6084 -0.3076  1.0534
  865SOL    MW4 3228   5.960   3.860   4.043  0.4381 -0.0574 -0.0482
  866SOL     OW 3229   1.866   6.339   0.146 -0.2003 -0.1607 -0.3017
  866SOL    HW2 3230   1.866   6.247   0.118  0.4720 -0.3568  0.3268
  866SOL    HW3 3231   1.916   6.385   0.078  1.6188 -0.6704  0.6551
  866SOL    MW4 3232   1.872   6.333   0.133  0.1284 -0.2538 -0.0926
  867SOL     OW 3233   5.248   1.425   0.703  0.7632 -0.5150 -0.2318
  867SOL    HW2 3234   5.254   1.472   0.786  0.1154  1.4684 -1.2378
  867SOL    HW3 3235   5.169   1.372   0.710  0.3139  0.1916  0.1778
  867SOL    MW4 3236   5.239   1.424   0.715  0.6185 -0.1601 -0.3105
  868SOL     OW 3237   6.104   2.224   4.416  0.9641  0.1193 -0.1826
  868SOL    HW2 3238   6.059   2.307   4.432 -0.8907 -0.5436 -1.5710
  868SOL    HW3 3239   6.185   2.230   4.467 -0.7672  1.3162  2.6221
  868SOL    MW4 3240   6.109   2.236   4.424  0.4909  0.1898  0.0043
  869SOL     OW 3241   5.135   1.742   6.157 -0.3404  0.1925 -0.3430
  869SOL    HW2 3242   5.051   1.697   6.153 -0.2665  0.0067  0.1286
  869SOL    HW3 3243   5.169   1.722   6.244  0.8151 -0.8463 -1.0160
  869SOL    MW4 3244   5.128   1.734   6.168 -0.1782  0.0309 -0.3696
  870SOL     OW 3245   3.327   3.807   3.893 -0.0164  0.5494  0.1601
  870SOL    HW2 3246   3.386   3.842   3.960 -1.2299  1.3858  0.8359
  870SOL    HW3 3247   3.283   3.884   3.858 -2.3346 -0.1718  1.2610
  870SOL    MW4 3248   3.329   3.822   3.897 -0.4824  0.5646  0.3945
  871SOL     OW 3249   3.706   5.535   0.162  0.1670  0.2496 -0.0042
  871SOL    HW2 3250   3.696   5.619   0.206  0.2266  0.0331  0.4343
  871SOL    HW3 3251   3.800   5.514   0.171 -0.0165 -0.3031  0.7153
  871SOL    MW4 3252   3.717   5.543   0.169  0.1506  0.1481  0.1486
  872SOL     OW 3253   5.535   5.219   0.171 -0.4401 -0.1010  0.0309
  872SOL    HW2 3254   5.574   5.132   0.157 -1.7976 -0.5946 -0.7924
  872SOL    HW3 3255   5.472   5.229   0.100 -0.9361  1.2011  0.6307
  872SOL    MW4 3256   5.532   5.209   0.160 -0.6847  0.0057  0.0014
  873SOL     OW 3257   4.892   3.285   1.128 -0.3258  0.2484  0.0644
  873SOL    HW2 3258   4.889   3.375   1.096  2.1410  0.5134  0.4025
  873SOL    HW3 3259   4.950   3.240   1.067 -1.8957 -1.2964 -0.3803
  873SOL    MW4 3260   4.899   3.291   1.116 -0.2075  0.0796  0.0503
  874SOL     OW 3261   0.784   5.921   2.774 -0.1955 -0.3070 -0.5447
  874SOL    HW2 3262   0.853   5.884   2.719  1.0945 -0.1136  0.8944
  874SOL    HW3 3263   0.769   6.009   2.738  0.0299 -0.4875 -1.0894
  874SOL    MW4 3264   0.791   5.928   2.762  0.0044 -0.3053 -0.4267
  875SOL     OW 3265   1.617   5.158   4.476  0.3726 -0.6940  0.5584
  875SOL    HW2 3266   1.703   5.149   4.434  0.3564  0.8163  0.1487
  875SOL    HW3 3267   1.631   5.224   4.545 -0.4445 -0.4621  0.5118
  875SOL    MW4 3268   1.630   5.166   4.480  0.2626 -0.4641  0.4982
  876SOL     OW 3269   5.681   6.301   1.447  0.3525  0.2493 -0.1512
  876SOL    HW2 3270   5.740   6.282   1.520 -2.1013 -3.5400  1.1463
  876SOL    HW3 3271   5.647   6.388   1.466  3.7490  1.6773  0.1413
  876SOL    MW4 3272   5.684   6.310   1.459  0.4769 -0.0623  0.0586
  877SOL     OW 3273   3.110   4.291   1.148 -0.3197 -0.0092  0.5333
  877SOL    HW2 3274   3.121   4.281   1.054 -0.5367  2.4351  0.1817
  877SOL    HW3 3275   3.030   4.242   1.168 -0.5390 -0.1513 -0.6384
  877SOL    MW4 3276   3.101   4.283   1.138 -0.3773  0.2945  0.3323
  878SOL     OW 3277   0.683   2.076   3.499  0.0533  0.4257 -0.0713
  878SOL    HW2 3278   0.651   2.162   3.472  1.6056  0.8766 -0.5681
  878SOL    HW3 3279   0.755   2.057   3.440  1.1325 -0.2479  1.3971
  878SOL    MW4 3280   0.688   2.085   3.488  0.4005  0.3963  0.0569
  879SOL     OW 3281   1.259   3.582   2.169  0.1366 -0.7223 -0.0713
  879SOL    HW2 3282   1.181   3.539   2.134  0.7358 -1.7522 -0.1849
  879SOL    HW3 3283   1.281   3.649   2.104  0.8669 -2.1948 -1.4176
  879SOL    MW4 3284   1.252   3.585   2.155  0.3120 -1.0525 -0.2639
  880SOL     OW 3285   0.335   6.281   0.777  0.4865 -0.3742  0.2592
  880SOL    HW2 3286   0.379   6.201   0.750  0.7472  0.1314 -0.8767
  880SOL    HW3 3287   0.310   6.266   0.869  1.5260 -1.3052  0.3994
  880SOL    MW4 3288   0.337   6.269   0.786  0.6581 -0.4304  0.1278
  881SOL     OW 3289   2.123   1.098   2.741 -0.1300  0.3601  0.0361
  881SOL    HW2 3290   2.157   1.134   2.823 -0.4522 -1.7861  1.1646
  881SOL    HW3 3291   2.047   1.153   2.722  0.2363  1.2089  0.8941
  881SOL    MW4 3292   2.117   1.110   2.750 -0.1242  0.1890  0.2982
  882SOL     OW 3293   2.219   6.133   6.420  0.3652 -0.5815 -0.1050
  882SOL    HW2 3294   2.175   6.179   6.348  1.8718 -0.2499 -0.8657
  882SOL    HW3 3295   2.300   6.100   6.380  2.0981  1.0885  1.8450
  882SOL    MW4 3296   2.224   6.135   6.405  0.7926 -0.3174  0.0519
  883SOL     OW 3297   3.629   2.534   0.698 -0.1159  0.4498  0.4190
  883SOL    HW2 3298   3.615   2.441   0.717 -2.0339  0.6040 -0.0345
  883SOL    HW3 3299   3.544   2.565   0.667  0.3173  2.5105  1.1439
  883SOL    MW4 3300   3.616   2.526   0.696 -0.3118  0.7420  0.4548
  884SOL     OW 3301   2.979   4.295   2.425 -0.5717 -0.0831  0.3998
  884SOL    HW2 3302   3.030   4.363   2.469  0.5738 -0.7279  0.1051
  884SOL    HW3 3303   2.902   4.341   2.390 -0.0989  0.9433  0.6841
  884SOL    MW4 3304   2.975   4.310   2.426 -0.3582 -0.0328  0.3984
  885SOL     OW 3305   3.456   2.430   1.377  0.1303  0.5217 -0.2132
  885SOL    HW2 3306   3.524   2.444   1.443  1.6080 -1.0301 -1.3243
  885SOL    HW3 3307   3.376   2.417   1.428  1.2860 -0.9862  1.3536
  885SOL    MW4 3308   3.454   2.430   1.392  0.4778  0.1180 -0.1531
  886SOL     OW 3309   6.361   5.261   2.371  1.1269 -0.3204 -0.1464
  886SOL    HW2 3310   6.301   5.294   2.438  0.1827 -1.2402 -0.5068
  886SOL    HW3 3311   6.309   5.197   2.322  2.1762 -0.5693 -0.9693
  886SOL    MW4 3312   6.346   5.257   2.374  1.1408 -0.4746 -0.3025
  887SOL     OW 3313   1.684   1.250   0.161 -0.1331 -0.8573 -0.2282
  887SOL    HW2 3314   1.616   1.307   0.198  1.7780 -0.0741  2.3492
  887SOL    HW3 3315   1.657   1.162   0.188  0.2159 -0.4798  1.4593
  887SOL    MW4 3316   1.671   1.246   0.169  0.1651 -0.7041  0.3345
  888SOL     OW 3317   1.521   4.038   0.109 -0.7720  0.2240 -0.1646
  888SOL    HW2 3318   1.480   4.123   0.091 -0.1815  0.3224 -1.1421
  888SOL    HW3 3319   1.612   4.050   0.083 -0.9247 -1.0389 -1.4151
  888SOL    MW4 3320   1.528   4.051   0.103 -0.7142  0.0704 -0.4586
  889SOL     OW 3321   4.449   4.453   5.836 -0.6168  0.5111 -0.0620
  889SOL    HW2 3322   4.410   4.527   5.789 -1.6520  0.2115  0.2966
  889SOL    HW3 3323   4.410   4.457   5.924 -1.4907 -1.0529 -0.3383
  889SOL    MW4 3324   4.439   4.463   5.842 -0.8686  0.2652 -0.0511
  890SOL     OW 3325   2.258   4.010   0.081  0.2015  0.4635 -0.3107
  890SOL    HW2 3326   2.316   3.978   0.012  0.3060  0.0035 -0.0135
  890SOL    HW3 3327   2.307   3.996   0.162 -0.6446 -0.6933  0.0223
  890SOL    MW4 3328   2.272   4.004   0.083  0.1036  0.2502 -0.2275
  891SOL     OW 3329   3.595   0.387   4.019 -0.1740  0.2653 -0.4307
  891SOL    HW2 3330   3.599   0.311   3.961  4.3203 -0.2115  0.1290
  891SOL    HW3 3331   3.579   0.350   4.106 -2.8609  0.5937 -0.6976
  891SOL    MW4 3332   3.594   0.372   4.023  0.0645  0.2457 -0.3921
  892SOL     OW 3333   3.445   0.837   3.899 -0.0607  0.1225 -0.0377
  892SOL    HW2 3334   3.485   0.916   3.863 -2.4836  1.0833 -0.8809
  892SOL    HW3 3335   3.507   0.806   3.965  2.4637  0.8499 -1.9182
  892SOL    MW4 3336   3.458   0.843   3.903 -0.0473  0.3452 -0.3971
  893SOL     OW 3337   4.832   6.111   1.862  0.4526 -0.6206 -0.4153
  893SOL    HW2 3338   4.853   6.191   1.813  0.6551 -1.2758 -1.4421
  893SOL    HW3 3339   4.910   6.056   1.853  0.4324 -0.8164  0.5400
  893SOL    MW4 3340   4.845   6.114   1.854  0.4766 -0.7329 -0.4247
  894SOL     OW 3341   4.851   2.010   1.173  0.5103 -0.7532  0.3199
  894SOL    HW2 3342   4.766   2.026   1.214  0.5418 -1.1796  0.5468
  894SOL    HW3 3343   4.911   1.998   1.247  0.5924 -1.3808  0.1512
  894SOL    MW4 3344   4.848   2.011   1.188  0.5253 -0.8922  0.3276
  895SOL     OW 3345   4.132   0.793   5.341 -0.1963 -0.1996 -0.0169
  895SOL    HW2 3346   4.059   0.731   5.333 -0.2543 -0.2502  0.8273
  895SOL    HW3 3347   4.210   0.738   5.334 -0.2324 -0.1874 -0.5942
  895SOL    MW4 3348   4.132   0.778   5.339 -0.2087 -0.2047  0.0183
  896SOL     OW 3349   3.064   1.793   5.704 -0.2179  0.3044 -1.0286
  896SOL    HW2 3350   3.029   1.855   5.640 -1.9559  0.2230 -0.1986
  896SOL    HW3 3351   3.118   1.734   5.652 -1.6431  0.2028 -2.4592
  896SOL    MW4 3352   3.066   1.793   5.689 -0.6352  0.2803 -1.1079
  897SOL     OW 3353   1.391   3.632   1.392  0.1544 -0.2030  0.1717
  897SOL    HW2 3354   1.409   3.726   1.382  0.9750 -0.2506  1.0426
  897SOL    HW3 3355   1.321   3.628   1.457  0.9625 -0.2131  1.0775
  897SOL    MW4 3356   1.384   3.644   1.399  0.3693 -0.2106  0.4061
  898SOL     OW 3357   0.858   6.012   4.489 -0.0580 -0.2395 -0.5866
  898SOL    HW2 3358   0.785   5.971   4.442  0.7661 -1.6111 -0.7100
  898SOL    HW3 3359   0.823   6.097   4.517 -1.7969 -0.9785 -0.3676
  898SOL    MW4 3360   0.844   6.018   4.486 -0.1787 -0.5180 -0.5740
  899SOL     OW 3361   0.799   2.016   5.232 -0.3673 -0.7829 -0.4983
  899SOL    HW2 3362   0.825   1.972   5.151 -1.3377 -0.8113 -0.8029
  899SOL    HW3 3363   0.846   2.099   5.230 -0.2395 -0.8662 -1.0005
  899SOL    MW4 3364   0.809   2.021   5.221 -0.4785 -0.7976 -0.6047
  900SOL     OW 3365   0.753   0.964   4.741 -0.5211 -0.7169 -0.0355
  900SOL    HW2 3366   0.750   1.004   4.654 -1.2292 -0.3627  0.1426
  900SOL    HW3 3367   0.661   0.950   4.764 -0.2925 -2.0345  0.1041
  900SOL    MW4 3368   0.740   0.968   4.733 -0.5844 -0.8440  0.0064
  901SOL     OW 3369   2.284   2.373   2.960 -0.3194 -0.1231  0.0146
  901SOL    HW2 3370   2.258   2.374   3.052 -0.1835  1.4156  0.0758
  901SOL    HW3 3371   2.308   2.282   2.942 -0.4742 -0.4714  1.4552
  901SOL    MW4 3372   2.284   2.361   2.970 -0.3219  0.0340  0.2128
  902SOL     OW 3373   1.913   3.877   2.284 -0.2376  0.1135 -0.0395
  902SOL    HW2 3374   1.971   3.947   2.315  1.0432 -0.6271 -0.6826
  902SOL    HW3 3375   1.967   3.798   2.287 -1.9742 -1.0868  1.7047
  902SOL    MW4 3376   1.928   3.876   2.288 -0.2978 -0.1426  0.1057
  903SOL     OW 3377   4.888   6.016   1.499  0.8453 -0.1150 -0.2828
  903SOL    HW2 3378   4.970   6.016   1.451 -0.3032 -0.9481 -2.4006
  903SOL    HW3 3379   4.820   6.024   1.431 -0.8987 -1.7262  1.1314
  903SOL    MW4 3380   4.890   6.017   1.483  0.4637 -0.4375 -0.3756
  904SOL     OW 3381   2.681   5.537   2.381  0.0512  0.2955  0.2423
  904SOL    HW2 3382   2.617   5.482   2.335 -1.0981 -1.1729  3.3203
  904SOL    HW3 3383   2.743   5.475   2.420  0.2279  1.3360  1.7045
  904SOL    MW4 3384   2.681   5.522   2.380 -0.0771  0.2391  0.8413
  905SOL     OW 3385   2.447   3.628   1.423 -0.1331  0.1650  0.4143
  905SOL    HW2 3386   2.419   3.573   1.496  0.3357  0.6584  0.9808
  905SOL    HW3 3387   2.471   3.566   1.354  1.3246 -0.4060  1.3736
  905SOL    MW4 3388   2.446   3.613   1.423  0.1211  0.1548  0.6156
  906SOL     OW 3389   3.252   5.002   3.929  0.6964  0.5137  0.6188
  906SOL    HW2 3390   3.316   4.997   4.000  1.0759 -0.3212  0.2253
  906SOL    HW3 3391   3.251   4.915   3.890  0.6354  1.0098 -0.5361
  906SOL    MW4 3392   3.260   4.990   3.933  0.7384  0.4690  0.4145
  907SOL     OW 3393   2.883   3.828   2.760 -0.7509 -0.1855 -0.0221
  907SOL    HW2 3394   2.963   3.778   2.768 -1.5894 -1.5503  0.1491
  907SOL    HW3 3395   2.813   3.762   2.758 -1.9274  0.9880  0.6637
  907SOL    MW4 3396   2.884   3.813   2.760 -1.0167 -0.2108  0.0910
  908SOL     OW 3397   6.165   0.288   0.976 -0.9872 -0.4232  0.2647
  908SOL    HW2 3398   6.207   0.334   1.049 -1.7114  0.2505  0.2714
  908SOL    HW3 3399   6.152   0.355   0.910 -0.2548 -1.0521 -0.5354
  908SOL    MW4 3400   6.169   0.303   0.977 -0.9861 -0.4173  0.1600
  909SOL     OW 3401   3.446   2.410   4.037  0.5823 -0.4353  0.2110
  909SOL    HW2 3402   3.392   2.355   3.980  1.9772 -2.2447  0.5524
  909SOL    HW3 3403   3.526   2.424   3.987 -0.1036  2.2477 -0.3015
  909SOL    MW4 3404   3.449   2.404   4.022  0.6758 -0.3200  0.1884
  910SOL     OW 3405   3.248   2.600   4.143  0.0950  0.1769 -0.1352
  910SOL    HW2 3406   3.320   2.661   4.157  1.1318 -0.7889 -1.0171
  910SOL    HW3 3407   3.283   2.536   4.080 -1.5150 -0.3518 -0.5358
  910SOL    MW4 3408   3.263   2.599   4.136  0.0194 -0.0203 -0.3044
  911SOL     OW 3409   3.024   1.273   1.064  0.2803 -0.2817  0.0820
  911SOL    HW2 3410   3.074   1.326   1.126 -0.6951 -0.3108  0.9283
  911SOL    HW3 3411   3.084   1.204   1.036  0.5478 -0.6664  1.5265
  911SOL    MW4 3412   3.038   1.271   1.068  0.1869 -0.3363  0.3842
  912SOL     OW 3413   1.371   2.584   6.335 -1.1146 -0.4292 -0.6323
  912SOL    HW2 3414   1.314   2.546   6.402 -0.6187 -1.3774 -0.7385
  912SOL    HW3 3415   1.432   2.640   6.384 -1.7328  0.1075 -0.4591
  912SOL    MW4 3416   1.371   2.586   6.350 -1.1308 -0.4835 -0.6234
  913SOL     OW 3417   4.883   5.639   2.606  0.1406  0.5756  0.0841
  913SOL    HW2 3418   4.938   5.597   2.672  0.9083  0.7161 -0.4520
  913SOL    HW3 3419   4.852   5.720   2.647 -0.1567  0.2039  0.6002
  913SOL    MW4 3420   4.886   5.644   2.620  0.2027  0.5451  0.0814
  914SOL     OW 3421   1.052   4.711   4.306  0.1191  0.0530  0.2925
  914SOL    HW2 3422   1.029   4.799   4.337  1.4981  0.6837 -0.4032
  914SOL    HW3 3423   1.114   4.678   4.371 -0.1242 -0.2686  0.3625
  914SOL    MW4 3424   1.057   4.718   4.319  0.2689  0.0938  0.2099
  915SOL     OW 3425   1.334   5.260   5.705 -0.2457  0.0388 -0.0036
  915SOL    HW2 3426   1.418   5.218   5.723 -0.2507 -0.5533 -1.2457
  915SOL    HW3 3427   1.335   5.339   5.758 -0.0610 -1.2969  2.0968
  915SOL    MW4 3428   1.345   5.265   5.714 -0.2220 -0.2156  0.1096
  916SOL     OW 3429   3.668   5.031   1.739 -0.0853  0.1940  0.3295
  916SOL    HW2 3430   3.607   5.103   1.726  0.4739  0.4436 -1.0962
  916SOL    HW3 3431   3.693   5.004   1.651  1.3145 -0.3634  0.8666
  916SOL    MW4 3432   3.664   5.037   1.726  0.1732  0.1534  0.2123
  917SOL     OW 3433   6.087   3.183   5.964  0.2665  0.3421  0.0890
  917SOL    HW2 3434   5.994   3.164   5.965  0.2319  0.3520 -1.2769
  917SOL    HW3 3435   6.093   3.275   5.939  0.6668 -0.0101 -1.1690
  917SOL    MW4 3436   6.076   3.192   5.961  0.3147  0.2969 -0.2572
  918SOL     OW 3437   3.322   2.180   5.049 -0.3183 -0.4752 -0.5246
  918SOL    HW2 3438   3.311   2.113   4.982 -2.9764 -0.2166 -0.4616
  918SOL    HW3 3439   3.362   2.133   5.123 -1.4449 -1.8606 -0.7357
  918SOL    MW4 3440   3.325   2.165   5.050 -0.8177 -0.6238 -0.5442
  919SOL     OW 3441   2.502   4.285   2.540 -0.1561 -0.3837 -0.1683
  919SOL    HW2 3442   2.551   4.232   2.602  0.1276  0.7792  0.6253
  919SOL    HW3 3443   2.516   4.241   2.456 -1.0128 -2.3080  0.6270
  919SOL    MW4 3444   2.510   4.272   2.537 -0.2317 -0.4842  0.0414
  920SOL     OW 3445   5.937   1.940   4.452 -0.4915  0.0761 -0.2669
  920SOL    HW2 3446   5.868   1.875   4.450  1.2521 -2.1267  2.9334
  920SOL    HW3 3447   6.018   1.890   4.439  0.8837  1.5886  1.8325
  920SOL    MW4 3448   5.939   1.925   4.450 -0.0800 -0.0150  0.4323
  921SOL     OW 3449   2.508   1.162   4.637 -0.6569 -0.6413 -0.1817
  921SOL    HW2 3450   2.453   1.092   4.672 -3.3898  0.2411 -2.4257
  921SOL    HW3 3451   2.521   1.139   4.545 -0.9830  1.3873 -0.7791
  921SOL    MW4 3452   2.503   1.150   4.630 -1.0605 -0.2573 -0.5566
  922SOL     OW 3453   1.416   4.405   4.097  0.2648 -0.0141 -0.3481
  922SOL    HW2 3454   1.481   4.335   4.104  0.8702  0.5687 -0.0279
  922SOL    HW3 3455   1.352   4.385   4.165 -0.2791 -0.9752 -1.1125
  922SOL    MW4 3456   1.416   4.393   4.107  0.2729 -0.0640 -0.4067
  923SOL     OW 3457   2.915   5.700   1.011  0.3378 -0.1382 -0.8283
  923SOL    HW2 3458   2.959   5.617   0.995  0.4265 -0.4131  0.6751
  923SOL    HW3 3459   2.986   5.763   1.024  0.3082 -0.2664  0.0529
  923SOL    MW4 3460   2.930   5.697   1.011  0.3456 -0.1914 -0.5137
  924SOL     OW 3461   0.851   2.945   3.875 -0.0341  0.5000  0.7504
  924SOL    HW2 3462   0.905   2.868   3.891  0.6422  0.5927 -0.8841
  924SOL    HW3 3463   0.867   3.002   3.950  0.9163 -0.1583  1.0655
  924SOL    MW4 3464   0.860   2.943   3.887  0.1805  0.4254  0.5763
  925SOL     OW 3465   5.619   4.559   4.765  0.0358  0.4037  0.1538
  925SOL    HW2 3466   5.579   4.541   4.680 -1.1005  0.2062  0.7127
  925SOL    HW3 3467   5.694   4.500   4.770  1.0690  1.5009 -1.3486
  925SOL    MW4 3468   5.623   4.549   4.755  0.0222  0.5224  0.0293
  926SOL     OW 3469   4.111   0.548   5.668  0.0500  0.5297 -0.2797
  926SOL    HW2 3470   4.140   0.501   5.589 -0.5148  2.4223 -1.6789
  926SOL    HW3 3471   4.047   0.611   5.636 -0.6857  0.9349  1.8204
  926SOL    MW4 3472   4.106   0.550   5.653 -0.1216  0.8329 -0.1872
  927SOL     OW 3473   1.372   3.296   1.438 -0.5807 -0.2502  0.1929
  927SOL    HW2 3474   1.280   3.313   1.458 -0.3147  1.1544  0.3462
  927SOL    HW3 3475   1.375   3.287   1.343 -0.8080  0.2661  0.1330
  927SOL    MW4 3476   1.361   3.297   1.428 -0.5756  0.0033  0.2052
  928SOL     OW 3477   3.989   3.856   5.689  0.9619  0.2352 -0.3962
  928SOL    HW2 3478   4.067   3.900   5.653  1.0366 -0.8097 -1.5827
  928SOL    HW3 3479   3.928   3.852   5.615 -0.0064  0.5038  0.3620
  928SOL    MW4 3480   3.991   3.861   5.674  0.8440  0.1328 -0.4527
  929SOL     OW 3481   1.873   1.348   1.645 -0.4515  0.4138  0.8260
  929SOL    HW2 3482   1.907   1.338   1.556 -2.1606 -2.1510  0.3648
  929SOL    HW3 3483   1.951   1.363   1.699  0.9157 -0.7532 -0.7369
  929SOL    MW4 3484   1.887   1.349   1.640 -0.4966 -0.0785  0.5589
  930SOL     OW 3485   1.543   3.648   0.658 -0.0069  0.0347  0.7153
  930SOL    HW2 3486   1.470   3.633   0.718  0.6969 -0.7839  1.3862
  930SOL    HW3 3487   1.606   3.700   0.708 -0.7946  2.1926 -0.3931
  930SOL    MW4 3488   1.542   3.653   0.672 -0.0180  0.2114  0.6576
  931SOL     OW 3489   6.112   3.952   1.802 -0.0372  0.5218  0.5885
  931SOL    HW2 3490   6.121   4.011   1.726  2.6201  0.0655  0.4535
  931SOL    HW3 3491   6.053   3.999   1.861  0.0323  2.1843 -0.5702
  931SOL    MW4 3492   6.106   3.966   1.800  0.3226  0.6809  0.4178
  932SOL     OW 3493   5.417   3.654   2.282 -0.3994  0.0655  0.0886
  932SOL    HW2 3494   5.423   3.684   2.192  1.0845  0.5270  0.3283
  932SOL    HW3 3495   5.389   3.731   2.332 -0.2299  0.0771  0.1663
  932SOL    MW4 3496   5.414   3.668   2.277 -0.1813  0.1279  0.1305
  933SOL     OW 3497   0.301   3.212   2.001 -0.7323  0.2867  0.2121
  933SOL    HW2 3498   0.260   3.171   2.077  0.1087  0.2617  0.6632
  933SOL    HW3 3499   0.228   3.241   1.947 -1.3455 -0.9627  0.3370
  933SOL    MW4 3500   0.286   3.211   2.004 -0.7022  0.1186  0.2881
  934SOL     OW 3501   0.152   1.648   3.332 -0.1250  0.0868  0.6118
  934SOL    HW2 3502   0.182   1.574   3.385 -1.0059 -3.0027 -2.8247
  934SOL    HW3 3503   0.228   1.673   3.280 -1.1916 -2.7725 -2.6904
  934SOL    MW4 3504   0.166   1.641   3.332 -0.3820 -0.6981 -0.2773
  935SOL     OW 3505   5.442   4.821   0.167 -0.5199  0.1036 -0.0802
  935SOL    HW2 3506   5.467   4.863   0.084  0.6984  0.6272  0.5203
  935SOL    HW3 3507   5.518   4.834   0.223 -1.3104 -0.3048  1.1064
  935SOL    MW4 3508   5.456   4.828   0.163 -0.4635  0.1188  0.1556
  936SOL     OW 3509   3.967   5.171   5.165  0.8165 -0.5122 -0.6296
  936SOL    HW2 3510   4.013   5.199   5.086  1.1442 -2.3650 -1.1376
  936SOL    HW3 3511   4.014   5.213   5.237  2.2700 -1.0405 -1.2502
  936SOL    MW4 3512   3.979   5.180   5.164  1.0515 -0.8263 -0.7785
  937SOL     OW 3513   2.441   6.385   6.347 -0.3409 -0.1086  0.1816
  937SOL    HW2 3514   2.462   6.292   6.349  2.0009  0.3594  0.5292
  937SOL    HW3 3515   2.493   6.423   6.418 -1.3578  1.4494  0.1474
  937SOL    MW4 3516   2.450   6.378   6.356 -0.1661  0.1587  0.2229
  938SOL     OW 3517   4.054   0.998   0.936  0.1537 -0.1947  0.3013
  938SOL    HW2 3518   4.085   0.907   0.939  1.2053  0.0988 -0.9139
  938SOL    HW3 3519   4.063   1.023   0.845 -0.9357  0.8870  0.4605
  938SOL    MW4 3520   4.059   0.989   0.925  0.1487 -0.0132  0.1620
  939SOL     OW 3521   5.692   2.433   4.854  0.5389  0.1647  0.1506
  939SOL    HW2 3522   5.735   2.485   4.786 -0.0587 -0.3609 -0.6513
  939SOL    HW3 3523   5.662   2.355   4.809  1.1820 -0.7625  1.2860
  939SOL    MW4 3524   5.693   2.430   4.839  0.5449 -0.0270  0.1946
  940SOL     OW 3525   1.658   2.457   2.740 -0.2673 -0.5785 -0.3908
  940SOL    HW2 3526   1.577   2.450   2.791 -1.4918 -1.5243 -2.3695
  940SOL    HW3 3527   1.629   2.476   2.651  1.7905  0.5128 -0.8818
  940SOL    MW4 3528   1.644   2.458   2.735 -0.1574 -0.5593 -0.7167
  941SOL     OW 3529   4.659   6.260   6.007 -0.0035  0.1154 -0.5652
  941SOL    HW2 3530   4.609   6.194   6.055  0.5530 -0.2030 -0.4113
  941SOL    HW3 3531   4.719   6.296   6.073  1.0392 -0.6004 -1.1138
  941SOL    MW4 3532   4.660   6.256   6.022  0.2075 -0.0210 -0.6173
  942SOL     OW 3533   1.398   4.506   1.422 -0.2938  0.1596  0.2749
  942SOL    HW2 3534   1.459   4.543   1.485 -0.3986 -1.2820  1.2823
  942SOL    HW3 3535   1.439   4.519   1.337  0.4361  1.0269  0.7508
  942SOL    MW4 3536   1.411   4.512   1.419 -0.2113  0.0838  0.4706
  943SOL     OW 3537   1.596   2.206   0.233  0.1563  0.0689 -0.5855
  943SOL    HW2 3538   1.663   2.230   0.168  0.9360 -0.5676 -0.0177
  943SOL    HW3 3539   1.640   2.148   0.294 -1.1578 -1.1133 -0.7154
  943SOL    MW4 3540   1.610   2.202   0.232  0.0858 -0.1710 -0.5277
  944SOL     OW 3541   3.130   1.724   5.179  0.3274  0.1353  0.2718
  944SOL    HW2 3542   3.061   1.676   5.225  1.8700 -2.5712  0.0032
  944SOL    HW3 3543   3.167   1.782   5.246  0.2558 -1.1774  1.5054
  944SOL    MW4 3544   3.126   1.725   5.194  0.5215 -0.3950  0.3991
  945SOL     OW 3545   4.737   3.701   3.353  0.0422 -0.4489  0.1416
  945SOL    HW2 3546   4.828   3.698   3.383  0.0018 -1.2788  0.2012
  945SOL    HW3 3547   4.686   3.719   3.431  0.1798  0.4748  0.0346
  945SOL    MW4 3548   4.743   3.703   3.367  0.0550 -0.4365  0.1353
  946SOL     OW 3549   3.018   4.618   6.017 -0.0087 -0.2221 -0.2299
  946SOL    HW2 3550   3.004   4.550   6.083  0.3535 -0.1943 -0.1240
  946SOL    HW3 3551   2.967   4.693   6.049  0.6154 -0.0194  0.3151
  946SOL    MW4 3552   3.009   4.619   6.030  0.1215 -0.1917 -0.1440
  947SOL     OW 3553   2.296   1.150   4.896  0.4907 -0.5108 -0.5232
  947SOL    HW2 3554   2.351   1.072   4.890  0.6026 -0.5575  0.8414
  947SOL    HW3 3555   2.207   1.119   4.879  0.8895 -0.3006 -3.5898
  947SOL    MW4 3556   2.291   1.136   4.893  0.5581 -0.4892 -0.7478
  948SOL     OW 3557   4.876   3.780   0.513 -0.2851 -0.0031  0.2495
  948SOL    HW2 3558   4.879   3.691   0.478  1.7825 -0.3676  1.1914
  948SOL    HW3 3559   4.864   3.769   0.607 -1.8756  0.8152  0.1704
  948SOL    MW4 3560   4.875   3.767   0.521 -0.2221  0.0567  0.3633
  949SOL     OW 3561   3.051   5.069   0.334 -0.0613 -0.1492 -0.4684
  949SOL    HW2 3562   3.125   5.031   0.287 -0.6644 -1.6502 -0.2806
  949SOL    HW3 3563   3.028   5.148   0.285  1.6729  0.3784 -0.4870
  949SOL    MW4 3564   3.057   5.074   0.322  0.0880 -0.2777 -0.4461
  950SOL     OW 3565   0.750   5.056   5.429 -0.0634 -0.5218  0.3138
  950SOL    HW2 3566   0.845   5.051   5.417 -0.0324 -0.3404  0.4698
  950SOL    HW3 3567   0.713   5.026   5.346  0.1253 -0.9330  0.3785
  950SOL    MW4 3568   0.758   5.052   5.416 -0.0344 -0.5522  0.3429
  951SOL     OW 3569   0.476   4.004   3.330 -0.3263 -0.9685 -0.0964
  951SOL    HW2 3570   0.408   3.959   3.279 -1.7993 -0.7243  1.5520
  951SOL    HW3 3571   0.507   4.074   3.272 -2.1535 -0.5069 -0.5824
  951SOL    MW4 3572   0.471   4.007   3.316 -0.7617 -0.8754  0.0570
  952SOL     OW 3573   1.570   4.984   1.772  0.4529  0.3841  0.0835
  952SOL    HW2 3574   1.523   5.068   1.771 -0.5192 -0.1208 -1.6009
  952SOL    HW3 3575   1.500   4.919   1.770  1.2061 -0.4963  1.2347
  952SOL    MW4 3576   1.554   4.987   1.772  0.4240  0.2014  0.0131
  953SOL     OW 3577   5.821   6.291   0.131 -0.0743 -0.1077 -0.1633
  953SOL    HW2 3578   5.726   6.300   0.133 -0.0237  0.5336 -0.4206
  953SOL    HW3 3579   5.839   6.217   0.190 -0.6939  0.0526  0.2429
  953SOL    MW4 3580   5.811   6.282   0.139 -0.1493 -0.0020 -0.1436
  954SOL     OW 3581   1.757   4.625   2.037  0.1356  0.7528 -0.0341
  954SOL    HW2 3582   1.789   4.643   2.125 -0.9289  0.2014  0.4890
  954SOL    HW3 3583   1.813   4.554   2.005 -0.1396  0.2267  0.6217
  954SOL    MW4 3584   1.768   4.618   2.044 -0.0411  0.6106  0.1214
  955SOL     OW 3585   5.310   2.176   3.714 -0.1616  0.1814  0.1220
  955SOL    HW2 3586   5.272   2.256   3.751 -1.7942 -1.1535  1.5223
  955SOL    HW3 3587   5.369   2.143   3.782  1.1204  0.5751 -0.7688
  955SOL    MW4 3588   5.313   2.182   3.728 -0.2079  0.0572  0.1892
  956SOL     OW 3589   4.229   4.295   4.190  0.5631 -0.4977  0.0153
  956SOL    HW2 3590   4.267   4.380   4.214  0.5617 -0.1194 -1.2886
  956SOL    HW3 3591   4.196   4.307   4.101 -2.0238 -1.0169  0.8175
  956SOL    MW4 3592   4.230   4.307   4.182  0.2216 -0.5163 -0.0509
  957SOL     OW 3593   3.724   1.196   2.064  0.0271 -0.0060  0.0330
  957SOL    HW2 3594   3.672   1.207   1.985  0.9374  3.0410 -0.2735
  957SOL    HW3 3595   3.667   1.147   2.124 -1.6415 -0.1836 -1.6197
  957SOL    MW4 3596   3.710   1.191   2.062 -0.0729  0.3726 -0.2255
  958SOL     OW 3597   0.379   0.105   2.392  0.3810 -0.1595  0.9377
  958SOL    HW2 3598   0.432   0.157   2.332 -0.1494 -0.5189  0.1384
  958SOL    HW3 3599   0.438   0.084   2.464  0.8058  0.9214  0.9223
  958SOL    MW4 3600   0.394   0.109   2.394  0.3671 -0.0644  0.8302
  959SOL     OW 3601   1.684   4.148   6.176 -0.1884 -0.1372  0.3635
  959SOL    HW2 3602   1.777   4.126   6.169 -0.0686  0.1787  0.8998
  959SOL    HW3 3603   1.641   4.064   6.190 -0.1301 -0.4382 -1.1050
  959SOL    MW4 3604   1.691   4.134   6.177 -0.1649 -0.1352  0.2405
  960SOL     OW 3605   2.817   4.400   1.028  0.4670 -0.0458 -0.0766
  960SOL    HW2 3606   2.875   4.465   1.066 -1.2480  0.3178  2.1642
  960SOL    HW3 3607   2.808   4.333   1.096 -3.1235  0.8709  0.5935
  960SOL    MW4 3608   2.823   4.400   1.042 -0.2330  0.1231  0.3074
  961SOL     OW 3609   5.556   4.187   3.576  0.0122  0.5124  0.1227
  961SOL    HW2 3610   5.539   4.098   3.546  1.1729 -0.0004  0.9272
  961SOL    HW3 3611   5.592   4.232   3.500 -2.2443  0.8431 -0.8144
  961SOL    MW4 3612   5.559   4.181   3.562 -0.1324  0.4884  0.1052
  962SOL     OW 3613   4.249   3.372   4.765 -0.0836 -0.0832  0.2172
  962SOL    HW2 3614   4.329   3.382   4.818  0.9583  0.4533 -1.3773
  962SOL    HW3 3615   4.186   3.431   4.806  1.6835  2.8241 -0.8855
  962SOL    MW4 3616   4.251   3.381   4.778  0.2870  0.3712 -0.1387
  963SOL     OW 3617   0.180   4.133   2.442  0.2258 -0.0898 -0.0975
  963SOL    HW2 3618   0.258   4.146   2.388 -0.0968  0.5339 -0.4309
  963SOL    HW3 3619   0.117   4.195   2.406 -0.4616 -0.6742  0.0941
  963SOL    MW4 3620   0.182   4.143   2.430  0.0925 -0.0846 -0.1162
  964SOL     OW 3621   2.317   2.409   5.623  0.4337 -0.1856  0.0767
  964SOL    HW2 3622   2.399   2.451   5.598  0.3245 -0.9319 -1.6207
  964SOL    HW3 3623   2.255   2.482   5.631  0.5274  0.1367 -1.7053
  964SOL    MW4 3624   2.319   2.424   5.621  0.4317 -0.2416 -0.3823
  965SOL     OW 3625   5.492   3.249   0.742  0.0734  0.3560  0.1599
  965SOL    HW2 3626   5.442   3.208   0.672  0.8855 -1.5322  0.6299
  965SOL    HW3 3627   5.576   3.204   0.742  0.1098  0.3032  2.3255
  965SOL    MW4 3628   5.496   3.238   0.733  0.1853  0.0999  0.5076
  966SOL     OW 3629   0.128   2.465   3.628  0.1041  0.0867 -0.4119
  966SOL    HW2 3630   0.083   2.381   3.637  1.5165 -0.5080  2.2643
  966SOL    HW3 3631   0.070   2.528   3.670  0.2154 -0.0634 -0.0237
  966SOL    MW4 3632   0.115   2.462   3.635  0.3052 -0.0115 -0.0076
  967SOL     OW 3633   3.203   3.168   2.581 -0.1168 -0.2068 -0.6432
  967SOL    HW2 3634   3.135   3.148   2.645  1.0598  0.9387  1.0577
  967SOL    HW3 3635   3.277   3.112   2.606  1.0835  1.7363  0.4018
  967SOL    MW4 3636   3.204   3.158   2.593  0.1968  0.2007 -0.2809
  968SOL     OW 3637   4.349   5.367   3.226  0.3117 -0.1890  0.2405
  968SOL    HW2 3638   4.297   5.400   3.299  0.0869 -0.2004  0.0864
  968SOL    HW3 3639   4.382   5.445   3.181 -0.3397 -0.1696 -0.2100
  968SOL    MW4 3640   4.347   5.381   3.230  0.1961 -0.1879  0.1607
  969SOL     OW 3641   1.179   5.430   4.763  0.1364  0.3034  0.5286
  969SOL    HW2 3642   1.246   5.497   4.775  1.3282 -0.8994  0.8980
  969SOL    HW3 3643   1.228   5.351   4.738 -1.1816 -0.5079  0.3949
  969SOL    MW4 3644   1.195   5.428   4.761  0.1198  0.0376  0.5597
  970SOL     OW 3645   1.069   1.057   3.102 -0.5791 -0.8760  0.4570
  970SOL    HW2 3646   1.074   1.111   3.023  0.0927 -1.4347  0.1162
  970SOL    HW3 3647   0.980   1.072   3.135 -1.3086 -1.5843 -1.0713
  970SOL    MW4 3648   1.058   1.066   3.096 -0.5867 -1.0432  0.2104
  971SOL     OW 3649   6.163   4.416   2.379  0.1855  0.3473 -0.3060
  971SOL    HW2 3650   6.094   4.461   2.428 -0.6727 -1.1591 -0.0696
  971SOL    HW3 3651   6.131   4.326   2.370  2.8411 -0.8820  1.2903
  971SOL    MW4 3652   6.150   4.410   2.385  0.4226 -0.0137 -0.0642
  972SOL     OW 3653   0.143   3.659   2.984  0.4902  0.0067  0.4224
  972SOL    HW2 3654   0.131   3.709   2.904  0.9187 -1.3025 -0.4887
  972SOL    HW3 3655   0.236   3.669   3.005  0.3478  0.4676  0.8391
  972SOL    MW4 3656   0.154   3.667   2.976  0.5279 -0.1052  0.3571
  973SOL     OW 3657   5.347   1.374   2.404  0.3817  0.0664 -0.6121
  973SOL    HW2 3658   5.277   1.437   2.422  0.9327  0.0778  1.8360
  973SOL    HW3 3659   5.425   1.427   2.388 -0.0126  0.0431 -2.9532
  973SOL    MW4 3660   5.348   1.389   2.404  0.4024  0.0648 -0.5980
  974SOL     OW 3661   3.352   4.986   4.479  0.6215  0.2109 -0.3131
  974SOL    HW2 3662   3.257   4.985   4.491  0.5218  0.5604 -1.0400
  974SOL    HW3 3663   3.383   4.907   4.524  0.0775  0.5105  0.6064
  974SOL    MW4 3664   3.344   4.975   4.487  0.5366  0.2966 -0.2877
  975SOL     OW 3665   3.259   1.094   4.842  0.7262 -0.0390 -0.3587
  975SOL    HW2 3666   3.319   1.091   4.917  1.9780  1.4683 -1.2457
  975SOL    HW3 3667   3.172   1.084   4.881  1.4619 -1.4744  1.0546
  975SOL    MW4 3668   3.255   1.092   4.857  0.9884 -0.0295 -0.2893
  976SOL     OW 3669   5.116   5.784   2.961  0.1670 -0.0482  0.3405
  976SOL    HW2 3670   5.045   5.848   2.953  0.2148 -0.0428 -0.0468
  976SOL    HW3 3671   5.178   5.807   2.892  0.8040  0.2638  1.0006
  976SOL    MW4 3672   5.115   5.795   2.951  0.2574 -0.0063  0.3765
  977SOL     OW 3673   5.559   2.957   6.192 -0.4675 -0.1304  0.2703
  977SOL    HW2 3674   5.631   2.905   6.230 -0.4955  0.5943  1.3624
  977SOL    HW3 3675   5.559   3.038   6.242 -0.7549  0.7296 -1.0785
  977SOL    MW4 3676   5.569   2.961   6.204 -0.5091  0.0787  0.2364
  978SOL     OW 3677   3.967   0.421   0.968 -0.2234  0.3644  0.5630
  978SOL    HW2 3678   3.890   0.476   0.984  0.8266  2.2284 -0.4987
  978SOL    HW3 3679   4.040   0.482   0.964  0.9995 -1.0928 -0.7121
  978SOL    MW4 3680   3.966   0.436   0.970  0.0765  0.4181  0.2547
  979SOL     OW 3681   2.680   2.667   5.646  0.1757 -0.0578  0.4563
  979SOL    HW2 3682   2.634   2.606   5.588  2.0448  0.3718 -1.6610
  979SOL    HW3 3683   2.756   2.617   5.678  0.8044  0.6114  0.0497
  979SOL    MW4 3684   2.684   2.653   5.642  0.5053  0.0872  0.1233
  980SOL     OW 3685   5.863   4.292   4.986 -0.1311 -0.5926  0.2870
  980SOL    HW2 3686   5.895   4.207   4.956  0.2974 -0.2229 -0.3331
  980SOL    HW3 3687   5.940   4.336   5.022  0.0205  0.1564 -0.8754
  980SOL    MW4 3688   5.877   4.287   4.987 -0.0546 -0.4450  0.0518
  981SOL     OW 3689   3.245   5.379   1.800 -0.8521  0.2810 -0.6341
  981SOL    HW2 3690   3.170   5.320   1.809  0.3702 -1.5875 -1.9886
  981SOL    HW3 3691   3.320   5.321   1.794  0.9128  2.1140  1.8332
  981SOL    MW4 3692   3.245   5.363   1.801 -0.4580  0.2763 -0.4872
  982SOL     OW 3693   0.068   1.901   0.084 -0.4305 -0.4790 -0.6171
  982SOL    HW2 3694   0.077   1.891   0.178 -0.1262 -1.9018 -0.7652
  982SOL    HW3 3695   0.147   1.860   0.048  0.3922  1.7189 -1.4506
  982SOL    MW4 3696   0.080   1.894   0.091 -0.2818 -0.3768 -0.7466
  983SOL     OW 3697   3.595   1.358   4.593  0.3479  0.0115 -0.0459
  983SOL    HW2 3698   3.514   1.309   4.580 -1.5117  1.5511  4.0598
  983SOL    HW3 3699   3.566   1.449   4.603  2.8788  0.9294 -0.4487
  983SOL    MW4 3700   3.580   1.363   4.592  0.4365  0.3357  0.4427
  984SOL     OW 3701   1.429   0.206   3.568  0.6829 -0.4479 -0.1181
  984SOL    HW2 3702   1.398   0.158   3.490  1.2482 -0.1359 -0.5391
  984SOL    HW3 3703   1.386   0.162   3.641  0.7342 -1.2347 -0.5471
  984SOL    MW4 3704   1.419   0.194   3.567  0.7643 -0.5105 -0.2302
  985SOL     OW 3705   4.917   0.786   1.876 -0.1666 -0.1758  0.2478
  985SOL    HW2 3706   4.940   0.736   1.797  0.4761  0.0466  0.2921
  985SOL    HW3 3707   4.849   0.847   1.847  0.4265  0.2552 -0.2544
  985SOL    MW4 3708   4.911   0.787   1.861 -0.0036 -0.0896  0.1874
  986SOL     OW 3709   2.761   0.775   3.601 -0.5909  0.4521 -0.0478
  986SOL    HW2 3710   2.781   0.836   3.530 -1.6341  0.4671 -0.3367
  986SOL    HW3 3711   2.667   0.758   3.593 -0.3635 -1.0252  0.1639
  986SOL    MW4 3712   2.751   0.780   3.590 -0.6985  0.2591 -0.0580
  987SOL     OW 3713   0.958   0.335   0.355  0.1665 -0.3270 -0.4662
  987SOL    HW2 3714   0.882   0.329   0.412  0.9371 -1.1953  0.5131
  987SOL    HW3 3715   0.948   0.262   0.293 -0.5693  0.4983 -1.3558
  987SOL    MW4 3716   0.947   0.325   0.354  0.1711 -0.3327 -0.4543
  988SOL     OW 3717   5.879   2.898   5.257 -0.3857  0.2843 -0.2371
  988SOL    HW2 3718   5.916   2.984   5.238  1.4290 -0.6266 -1.0635
  988SOL    HW3 3719   5.899   2.845   5.180 -0.2562 -1.2600  0.8006
  988SOL    MW4 3720   5.886   2.902   5.244 -0.1292 -0.0397 -0.2092
  989SOL     OW 3721   1.116   1.625   3.926 -0.0142 -0.3837  0.4894
  989SOL    HW2 3722   1.129   1.693   3.859 -1.4080 -0.9877 -0.4201
  989SOL    HW3 3723   1.120   1.673   4.009  0.8398  0.5151 -0.0401
  989SOL    MW4 3724   1.119   1.641   3.928 -0.0854 -0.3448  0.2996
  990SOL     OW 3725   5.935   4.623   3.631  0.2865 -0.8423 -0.0742
  990SOL    HW2 3726   5.875   4.643   3.703 -0.7224 -0.1237 -1.0809
  990SOL    HW3 3727   6.018   4.662   3.658 -0.5260  0.9698 -0.0393
  990SOL    MW4 3728   5.938   4.631   3.644  0.0462 -0.5084 -0.2024
  991SOL     OW 3729   4.164   0.198   0.278 -0.3319  0.5381 -0.0466
  991SOL    HW2 3730   4.162   0.291   0.253  0.7877  0.2310 -1.4301
  991SOL    HW3 3731   4.257   0.178   0.287 -0.5871 -0.3387  0.7400
  991SOL    MW4 3732   4.176   0.208   0.276 -0.2178  0.3819 -0.1254
  992SOL     OW 3733   6.425   1.329   5.742  0.4132  0.0138  0.1516
  992SOL    HW2 3734   6.490   1.260   5.752  0.5091  0.0031 -0.5515
  992SOL    HW3 3735   6.459   1.402   5.794  2.1521  0.8470 -2.0389
  992SOL    MW4 3736   6.438   1.329   5.750  0.6553  0.1223 -0.2302
  993SOL     OW 3737   5.391   1.735   3.329  0.0460 -0.2674 -0.2540
  993SOL    HW2 3738   5.450   1.811   3.336  1.2114 -1.0404 -1.2922
  993SOL    HW3 3739   5.312   1.770   3.288  0.3412  0.4926 -0.2037
  993SOL    MW4 3740   5.388   1.750   3.325  0.2387 -0.2691 -0.3843
  994SOL     OW 3741   6.110   6.349   1.944 -0.3020 -0.3008 -0.6731
  994SOL    HW2 3742   6.123   6.355   1.849  1.7157  0.9351 -0.3919
  994SOL    HW3 3743   6.195   6.320   1.978 -1.2533 -1.5816  0.7123
  994SOL    MW4 3744   6.123   6.346   1.936 -0.1613 -0.3067 -0.4532
  995SOL     OW 3745   2.215   0.842   6.098 -0.2027 -0.0417 -0.0354
  995SOL    HW2 3746   2.214   0.750   6.123 -1.0139  0.3910  1.5976
  995SOL    HW3 3747   2.162   0.886   6.164  1.1828  1.7812 -0.0558
  995SOL    MW4 3748   2.208   0.835   6.110 -0.1269  0.2559  0.1774
  996SOL     OW 3749   5.067   1.103   3.466  0.3042  0.4453  0.3521
  996SOL    HW2 3750   5.014   1.025   3.481  1.5887 -0.1161  2.3843
  996SOL    HW3 3751   5.139   1.072   3.411 -0.9159  1.0074 -1.6528
  996SOL    MW4 3752   5.070   1.089   3.461  0.3127  0.4454  0.3557
  997SOL     OW 3753   3.016   4.539   5.749 -0.5455 -1.0804 -0.0126
  997SOL    HW2 3754   3.007   4.576   5.836  1.0610 -0.3278 -0.1183
  997SOL    HW3 3755   3.023   4.445   5.763  0.3607 -0.9164  0.7542
  997SOL    MW4 3756   3.016   4.531   5.762 -0.2140 -0.9594  0.0747
  998SOL     OW 3757   5.471   3.805   5.091  0.1566 -0.0182 -0.4441
  998SOL    HW2 3758   5.516   3.851   5.161 -2.0208  0.2990  0.8150
  998SOL    HW3 3759   5.407   3.867   5.057 -1.2279 -1.3041 -0.3074
  998SOL    MW4 3760   5.469   3.819   5.095 -0.3133 -0.1460 -0.2599
  999SOL     OW 3761   0.297   3.867   1.213 -0.3196  0.8161 -0.2201
  999SOL    HW2 3762   0.349   3.789   1.231 -0.8795  0.6622  0.7643
  999SOL    HW3 3763   0.335   3.902   1.132  1.0400  0.4846  0.2430
  999SOL    MW4 3764   0.309   3.861   1.205 -0.2141  0.7521 -0.0292
 1000SOL     OW 3765   2.194   2.288   3.336  0.2158  0.5374  0.1112
 1000SOL    HW2 3766   2.194   2.304   3.430  0.9605  1.3499 -0.0116
 1000SOL    HW3 3767   2.102   2.286   3.312  0.0035 -0.4427  0.9771
 1000SOL    MW4 3768   2.182   2.290   3.345  0.2861  0.5153  0.2092
 1001SOL     OW 3769   3.418   5.849   1.370 -0.3538 -0.1733  0.0328
 1001SOL    HW2 3770   3.327   5.832   1.349  0.0316 -0.6158 -1.3990
 1001SOL    HW3 3771   3.441   5.927   1.318  0.8479 -1.7572 -1.9777
 1001SOL    MW4 3772   3.409   5.857   1.360 -0.1444 -0.4407 -0.4214
 1002SOL     OW 3773   1.426   5.763   0.581 -0.0375  0.4051  0.8215
 1002SOL    HW2 3774   1.438   5.697   0.649 -1.5424  0.2285  0.9495
 1002SOL    HW3 3775   1.331   5.771   0.572  0.1245  1.9039  0.1741
 1002SOL    MW4 3776   1.415   5.756   0.589 -0.2146  0.5795  0.7530
 1003SOL     OW 3777   2.951   1.216   0.611  0.4291  0.0285  0.0330
 1003SOL    HW2 3778   2.953   1.311   0.596  0.1319  0.0835  0.3147
 1003SOL    HW3 3779   2.908   1.207   0.697 -0.5018 -0.4007 -0.4593
 1003SOL    MW4 3780   2.945   1.228   0.621  0.2671 -0.0209  0.0052
 1004SOL     OW 3781   2.313   2.877   5.581 -0.7170  0.2835 -0.2876
 1004SOL    HW2 3782   2.338   2.881   5.673 -1.1031  1.2660 -0.2172
 1004SOL    HW3 3783   2.260   2.955   5.567 -1.6191 -0.4449 -1.0582
 1004SOL    MW4 3784   2.309   2.888   5.591 -0.8869  0.3170 -0.3800
 1005SOL     OW 3785   1.537   2.406   5.461  0.3166 -0.5232 -0.1907
 1005SOL    HW2 3786   1.553   2.389   5.368 -0.4192  0.6107 -0.5497
 1005SOL    HW3 3787   1.472   2.476   5.461  0.8141 -0.0435  1.1892
 1005SOL    MW4 3788   1.530   2.413   5.448  0.2852 -0.3103 -0.0560
 1006SOL     OW 3789   4.627   3.733   0.919  0.0454  0.3384  0.4220
 1006SOL    HW2 3790   4.622   3.639   0.901 -0.0005  0.5752 -0.9590
 1006SOL    HW3 3791   4.674   3.740   1.002 -1.5894 -0.9781  1.5298
 1006SOL    MW4 3792   4.632   3.722   0.927 -0.1764  0.1959  0.3859
 1007SOL     OW 3793   4.892   2.837   4.467 -0.5626  0.1193 -0.3737
 1007SOL    HW2 3794   4.822   2.858   4.405 -0.2665  1.0684 -0.4087
 1007SOL    HW3 3795   4.941   2.919   4.476 -1.2297  0.3221  1.9473
 1007SOL    MW4 3796   4.889   2.850   4.460 -0.6116  0.2713 -0.0721
 1008SOL     OW 3797   4.219   3.106   0.622  0.6590  0.0516 -0.1601
 1008SOL    HW2 3798   4.313   3.096   0.607  0.8758 -1.0084  1.6181
 1008SOL    HW3 3799   4.213   3.150   0.706 -0.4205 -0.8395  0.2564
 1008SOL    MW4 3800   4.231   3.110   0.631  0.5452 -0.2058  0.1295
 1009SOL     OW 3801   4.126   4.749   5.253 -0.2502 -0.0033 -0.6865
 1009SOL    HW2 3802   4.135   4.676   5.192 -0.0025  0.6803 -1.4996
 1009SOL    HW3 3803   4.070   4.812   5.206 -2.8902 -0.8383  1.1207
 1009SOL    MW4 3804   4.120   4.748   5.239 -0.5658 -0.0232 -0.5553
 1010SOL     OW 3805   1.455   2.994   0.126  0.6511  0.7128  0.0049
 1010SOL    HW2 3806   1.448   3.079   0.169  0.3847 -0.1352  1.7435
 1010SOL    HW3 3807   1.521   2.947   0.176 -2.1332 -1.5750  1.8671
 1010SOL    MW4 3808   1.463   2.999   0.138  0.2486  0.2991  0.4800
 1011SOL     OW 3809   5.010   3.768   2.163 -0.3642  0.1599 -0.1729
 1011SOL    HW2 3810   4.936   3.813   2.123  0.6872 -0.0445 -2.4976
 1011SOL    HW3 3811   5.030   3.820   2.241 -2.9954  0.1121  0.6396
 1011SOL    MW4 3812   5.003   3.781   2.168 -0.5727  0.1266 -0.3724
 1012SOL     OW 3813   1.860   4.331   2.002 -0.0357  0.4148  0.2632
 1012SOL    HW2 3814   1.928   4.274   1.967 -1.6105 -0.9607 -0.6969
 1012SOL    HW3 3815   1.788   4.273   2.023 -1.4458  1.9754 -0.0421
 1012SOL    MW4 3816   1.860   4.316   2.000 -0.4295  0.4392  0.0962
 1013SOL     OW 3817   5.191   0.505   5.700  0.2103 -0.2976 -0.3749
 1013SOL    HW2 3818   5.252   0.523   5.772 -0.5898 -1.2014  0.5585
 1013SOL    HW3 3819   5.220   0.421   5.665 -0.0087 -0.3329 -0.4679
 1013SOL    MW4 3820   5.203   0.496   5.705  0.0758 -0.4215 -0.2640
 1014SOL     OW 3821   3.872   1.835   3.400 -0.2369  0.0077  0.5326
 1014SOL    HW2 3822   3.809   1.781   3.448 -2.6883  1.2182 -1.0770
 1014SOL    HW3 3823   3.919   1.883   3.467 -0.3233 -1.6741  1.8516
 1014SOL    MW4 3824   3.870   1.835   3.415 -0.5717 -0.0545  0.4943
 1015SOL     OW 3825   4.217   5.636   5.432 -0.0597 -0.1960  0.1124
 1015SOL    HW2 3826   4.153   5.567   5.416  0.5196 -0.8144  0.4124
 1015SOL    HW3 3827   4.220   5.685   5.349 -0.0609 -0.8892 -0.3105
 1015SOL    MW4 3828   4.209   5.634   5.419  0.0166 -0.3690  0.0962
 1016SOL     OW 3829   4.125   4.158   6.023 -0.0737 -0.3704 -0.0881
 1016SOL    HW2 3830   4.100   4.178   5.933 -0.4197 -2.4752 -0.4964
 1016SOL    HW3 3831   4.190   4.088   6.016  0.2968 -0.2027  1.2802
 1016SOL    MW4 3832   4.130   4.152   6.010 -0.0705 -0.6259  0.0386
 1017SOL     OW 3833   4.087   2.565   3.249  0.1486  0.0664  0.4831
 1017SOL    HW2 3834   4.112   2.483   3.205  0.9573  0.8276 -0.5374
 1017SOL    HW3 3835   4.153   2.577   3.317 -0.9946 -1.0159  1.8405
 1017SOL    MW4 3836   4.099   2.556   3.252  0.1045  0.0240  0.5275
 1018SOL     OW 3837   1.158   5.686   2.742  0.2438 -0.3090 -0.4053
 1018SOL    HW2 3838   1.163   5.687   2.838 -2.2563  1.6282 -0.1999
 1018SOL    HW3 3839   1.129   5.598   2.721 -1.2281 -0.1673  0.8322
 1018SOL    MW4 3840   1.155   5.675   2.752 -0.2803 -0.0347 -0.2150
 1019SOL     OW 3841   1.825   6.155   6.363 -0.0855  0.0735  0.3969
 1019SOL    HW2 3842   1.862   6.066   6.361  0.5417  0.3441 -0.4055
 1019SOL    HW3 3843   1.881   6.206   6.304 -0.8095  0.8592  0.3700
 1019SOL    MW4 3844   1.837   6.150   6.355 -0.0982  0.2129  0.2875
 1020SOL     OW 3845   2.963   2.462   0.048 -0.1457 -0.1399 -0.0526
 1020SOL    HW2 3846   2.987   2.371   0.032  1.2333  0.1239  0.3793
 1020SOL    HW3 3847   2.881   2.475   0.000 -0.7438 -1.7983  0.4717
 1020SOL    MW4 3848   2.955   2.452   0.040 -0.0427 -0.3239  0.0736
 1021SOL     OW 3849   4.578   5.877   5.211 -0.0599  0.1003  0.1461
 1021SOL    HW2 3850   4.513   5.926   5.260  0.2297  0.2948  0.3383
 1021SOL    HW3 3851   4.662   5.916   5.235 -0.0168  1.4012 -1.8463
 1021SOL    MW4 3852   4.581   5.889   5.220 -0.0160  0.2976 -0.0915
 1022SOL     OW 3853   5.236   5.316   0.848 -0.1888  0.2595 -0.1596
 1022SOL    HW2 3854   5.298   5.254   0.886 -0.8903  0.3427  1.2000
 1022SOL    HW3 3855   5.278   5.346   0.768  2.5975  1.9893  1.7605
 1022SOL    MW4 3856   5.249   5.312   0.843  0.0862  0.4987  0.2731
 1023SOL     OW 3857   4.456   1.527   0.033 -0.1918 -0.2127  0.0475
 1023SOL    HW2 3858   4.455   1.585   0.110  2.1998 -0.5163  0.3793
 1023SOL    HW3 3859   4.473   1.586  -0.041 -1.6195 -0.0423 -0.1858
 1023SOL    MW4 3860   4.458   1.543   0.034 -0.0646 -0.2302  0.0605
 1024SOL     OW 3861   0.593   6.046   6.125  0.4624  1.1421 -0.2220
 1024SOL    HW2 3862   0.634   6.132   6.138  0.7621  1.0994 -0.8359
 1024SOL    HW3 3863   0.648   5.986   6.174  0.3068  1.2824  0.1319
 1024SOL    MW4 3864   0.606   6.050   6.133  0.4814  1.1550 -0.2563
 1025SOL     OW 3865   2.589   0.988   3.243  0.3582  0.7516  0.1877
 1025SOL    HW2 3866   2.519   1.043   3.277 -1.5268 -1.1627 -0.4003
 1025SOL    HW3 3867   2.603   1.020   3.154  0.8410  1.6664  0.5812
 1025SOL    MW4 3868   2.582   0.999   3.235  0.1732  0.6197  0.1620
 1026SOL     OW 3869   0.600   6.014   5.335  0.0545  0.2394  0.7257
 1026SOL    HW2 3870   0.627   5.938   5.385  0.2162  0.4991  1.0377
 1026SOL    HW3 3871   0.610   5.988   5.243  1.0266  0.2214  0.8357
 1026SOL    MW4 3872   0.605   6.001   5.329  0.2041  0.2713  0.7814
 1027SOL     OW 3873   2.599   4.718   0.513 -0.3006 -1.4691  0.8893
 1027SOL    HW2 3874   2.616   4.625   0.499 -0.7274 -1.5764  1.0586
 1027SOL    HW3 3875   2.621   4.759   0.429 -0.1541 -1.7302  0.7998
 1027SOL    MW4 3876   2.604   4.711   0.500 -0.3376 -1.5177  0.8998
 1028SOL     OW 3877   4.659   4.122   2.705  0.0508 -0.3221  0.0875
 1028SOL    HW2 3878   4.725   4.168   2.652  0.3650 -0.6471  0.1980
 1028SOL    HW3 3879   4.585   4.109   2.645  1.1287 -2.4110 -0.8832
 1028SOL    MW4 3880   4.658   4.126   2.690  0.2345 -0.6406 -0.0260
 1029SOL     OW 3881   5.332   1.337   1.889  0.3071 -0.1931  0.2863
 1029SOL    HW2 3882   5.328   1.426   1.853  0.7391 -0.4992 -0.5333
 1029SOL    HW3 3883   5.241   1.308   1.892  0.2963 -0.3010 -0.9179
 1029SOL    MW4 3884   5.319   1.345   1.885  0.3626 -0.2478  0.0193
 1030SOL     OW 3885   4.547   5.161   5.839 -0.4696  0.3670  0.1236
 1030SOL    HW2 3886   4.576   5.095   5.902  0.0041  0.1410 -0.3181
 1030SOL    HW3 3887   4.455   5.141   5.822 -0.3605 -0.1043  0.0865
 1030SOL    MW4 3888   4.539   5.150   5.845 -0.3927  0.2750  0.0604
 1031SOL     OW 3889   3.995   3.740   0.820  0.1691 -0.3178  0.2315
 1031SOL    HW2 3890   4.084   3.757   0.851  0.4624 -0.6510 -0.4108
 1031SOL    HW3 3891   3.952   3.696   0.894  1.1434 -1.9649 -0.1191
 1031SOL    MW4 3892   4.001   3.736   0.834  0.3363 -0.5791  0.1005
 1032SOL     OW 3893   5.596   0.801   1.126 -0.1017 -0.2785 -0.0019
 1032SOL    HW2 3894   5.542   0.724   1.142  0.2763 -0.4675  0.3994
 1032SOL    HW3 3895   5.685   0.773   1.149 -0.1310  0.6255  1.3456
 1032SOL    MW4 3896   5.601   0.788   1.131 -0.0557 -0.1841  0.2289
 1033SOL     OW 3897   4.117   6.450   2.896  0.5418 -0.2586 -0.2052
 1033SOL    HW2 3898   4.162   6.531   2.920 -0.0976  0.7673 -2.3201
 1033SOL    HW3 3899   4.032   6.478   2.863 -0.9525 -2.0340  1.8494
 1033SOL    MW4 3900   4.112   6.464   2.895  0.2603 -0.3574 -0.2131
 1034SOL     OW 3901   5.003   1.530   4.287 -0.1061 -0.2016  0.0914
 1034SOL    HW2 3902   5.021   1.531   4.381 -1.0147  0.8367  0.2649
 1034SOL    HW3 3903   4.923   1.479   4.279 -0.6591  0.6571  0.0162
 1034SOL    MW4 3904   4.995   1.523   4.299 -0.2990  0.0487  0.1044
 1035SOL     OW 3905   2.168   1.683   4.687  0.2432 -0.1582  0.1469
 1035SOL    HW2 3906   2.198   1.770   4.661  1.6981 -0.6699  0.0265
 1035SOL    HW3 3907   2.072   1.689   4.686  0.2755  1.9765  1.9396
 1035SOL    MW4 3908   2.159   1.695   4.684  0.4394  0.0560  0.3676
 1036SOL     OW 3909   1.743   5.827   3.467 -0.3599 -0.1997  0.0886
 1036SOL    HW2 3910   1.711   5.869   3.387 -0.4547  0.1706  0.3147
 1036SOL    HW3 3911   1.666   5.784   3.504 -0.7404  1.0760  0.8732
 1036SOL    MW4 3912   1.729   5.827   3.462 -0.4226  0.0175  0.2219
 1037SOL     OW 3913   5.869   6.293   2.189 -0.2186  0.4165  0.5816
 1037SOL    HW2 3914   5.815   6.307   2.267  1.4182  1.5246  1.5712
 1037SOL    HW3 3915   5.845   6.365   2.131 -1.6373 -0.5623 -0.1076
 1037SOL    MW4 3916   5.858   6.304   2.192 -0.1898  0.4336  0.6213
 1038SOL     OW 3917   3.059   0.634   2.433 -0.1925 -0.5272  0.0286
 1038SOL    HW2 3918   3.037   0.629   2.340 -2.2926 -0.9490  0.4861
 1038SOL    HW3 3919   3.047   0.545   2.465  1.8841 -0.6929  0.4705
 1038SOL    MW4 3920   3.054   0.622   2.425 -0.1956 -0.6047  0.1472
 1039SOL     OW 3921   3.088   1.601   0.198  0.3338  0.5356  0.3836
 1039SOL    HW2 3922   3.051   1.553   0.125  0.3287  0.5505  0.3762
 1039SOL    HW3 3923   3.098   1.536   0.268 -1.0674  0.8147  0.8793
 1039SOL    MW4 3924   3.084   1.586   0.198  0.1483  0.5744  0.4480
 1040SOL     OW 3925   5.372   2.314   0.809 -0.4031 -0.1740  0.3338
 1040SOL    HW2 3926   5.329   2.323   0.724  1.8128  0.4077 -0.7992
 1040SOL    HW3 3927   5.429   2.391   0.815 -0.0262 -0.5602  2.0577
 1040SOL    MW4 3928   5.373   2.325   0.798 -0.0610 -0.1482  0.4118
 1041SOL     OW 3929   3.155   0.711   0.299  0.0350 -0.4134 -0.1451
 1041SOL    HW2 3930   3.233   0.723   0.354  0.3781 -1.9938 -0.2505
 1041SOL    HW3 3931   3.083   0.701   0.362 -0.1270  1.0862 -0.0481
 1041SOL    MW4 3932   3.156   0.711   0.315  0.0589 -0.4241 -0.1462
 1042SOL     OW 3933   3.300   5.926   0.677 -0.3987  0.1982 -0.0840
 1042SOL    HW2 3934   3.222   5.954   0.628 -0.7661  0.4993  0.6700
 1042SOL    HW3 3935   3.365   5.910   0.609 -0.8099  0.9020 -0.6599
 1042SOL    MW4 3936   3.298   5.927   0.661 -0.5014  0.3308 -0.0605
 1043SOL     OW 3937   4.450   4.706   4.693 -0.0770 -0.4203  0.0933
 1043SOL    HW2 3938   4.535   4.692   4.734 -1.4265 -3.5697  2.1212
 1043SOL    HW3 3939   4.447   4.644   4.621 -0.6969 -0.3820  0.0785
 1043SOL    MW4 3940   4.461   4.696   4.689 -0.3368 -0.8308  0.3589
 1044SOL     OW 3941   4.143   2.025   5.816  0.3299  0.4548  0.7413
 1044SOL    HW2 3942   4.139   1.959   5.885 -0.0640  0.1308  0.4148
 1044SOL    HW3 3943   4.159   1.974   5.736 -0.2200  0.7291  0.4521
 1044SOL    MW4 3944   4.145   2.010   5.814  0.2054  0.4482  0.6600
 1045SOL     OW 3945   5.067   2.805   2.242 -0.0199  0.3988  0.0949
 1045SOL    HW2 3946   5.053   2.742   2.312 -0.9668 -0.2541 -0.6593
 1045SOL    HW3 3947   4.982   2.849   2.232  0.1969  0.7141 -0.4073
 1045SOL    MW4 3948   5.054   2.803   2.250 -0.1162  0.3543 -0.0709
 1046SOL     OW 3949   2.174   3.290   3.862  0.0489 -0.5050  0.2283
 1046SOL    HW2 3950   2.242   3.230   3.833  0.5146  0.4827 -0.7899
 1046SOL    HW3 3951   2.153   3.343   3.785 -0.2993  0.6759  1.0895
 1046SOL    MW4 3952   2.180   3.289   3.848  0.0644 -0.2189  0.2076
 1047SOL     OW 3953   0.875   1.490   0.522 -0.0476  0.5907  0.4557
 1047SOL    HW2 3954   0.829   1.573   0.511 -2.7877 -0.8968 -0.0366
 1047SOL    HW3 3955   0.871   1.472   0.616 -1.2295  0.0805  0.3153
 1047SOL    MW4 3956   0.869   1.499   0.533 -0.5651  0.3271  0.3722
 1048SOL     OW 3957   2.308   5.681   6.284 -0.3347  0.1394 -0.5998
 1048SOL    HW2 3958   2.246   5.728   6.340 -2.1206 -2.1160 -0.5291
 1048SOL    HW3 3959   2.277   5.696   6.195 -0.4110 -0.2038 -0.6332
 1048SOL    MW4 3960   2.296   5.689   6.280 -0.5804 -0.2034 -0.5949
 1049SOL     OW 3961   3.989   5.589   0.755 -0.0688 -0.0865  0.0867
 1049SOL    HW2 3962   3.934   5.596   0.834 -0.2078  0.6417 -0.0725
 1049SOL    HW3 3963   4.002   5.494   0.745 -1.9136 -0.3528 -0.2833
 1049SOL    MW4 3964   3.983   5.577   0.764 -0.3306 -0.0256  0.0169
 1050SOL     OW 3965   6.351   4.517   1.343  0.5875 -0.5549 -0.4263
 1050SOL    HW2 3966   6.323   4.454   1.410 -1.7184 -0.6368 -1.3681
 1050SOL    HW3 3967   6.445   4.503   1.336  0.9855 -0.4105  2.8804
 1050SOL    MW4 3968   6.360   4.507   1.351  0.3358 -0.5467 -0.1142
 1051SOL     OW 3969   3.046   2.210   4.624 -0.2847  0.2285  0.5229
 1051SOL    HW2 3970   3.109   2.276   4.597 -2.8585  1.6551 -2.5929
 1051SOL    HW3 3971   3.002   2.248   4.700  0.0123  0.9305  0.3482
 1051SOL    MW4 3972   3.049   2.223   4.631 -0.5851  0.5094  0.0887
 1052SOL     OW 3973   3.764   5.409   2.133  0.3567  0.3016  0.2032
 1052SOL    HW2 3974   3.823   5.339   2.105  0.3437 -0.1435  1.2489
 1052SOL    HW3 3975   3.803   5.442   2.213  0.6727  1.9075 -0.5831
 1052SOL    MW4 3976   3.777   5.404   2.140  0.3967  0.4548  0.2374
 1053SOL     OW 3977   2.405   2.440   3.248  0.2052  0.2142 -0.1587
 1053SOL    HW2 3978   2.326   2.392   3.271  1.9954 -2.2385  1.3856
 1053SOL    HW3 3979   2.400   2.521   3.299 -0.9965 -0.1989  0.4097
 1053SOL    MW4 3980   2.394   2.444   3.258  0.2829 -0.1639  0.1200
 1054SOL     OW 3981   2.237   5.347   1.433  0.0237 -0.3079 -0.0051
 1054SOL    HW2 3982   2.308   5.383   1.379 -0.3758 -0.2523 -0.4985
 1054SOL    HW3 3983   2.253   5.382   1.520  0.6746 -0.3946 -0.0863
 1054SOL    MW4 3984   2.249   5.356   1.437  0.0569 -0.3120 -0.0809
 1055SOL     OW 3985   6.208   0.340   3.372  0.0478 -0.1138 -0.3132
 1055SOL    HW2 3986   6.156   0.344   3.453  1.6240 -0.7492  0.7829
 1055SOL    HW3 3987   6.255   0.423   3.370 -1.7311  0.9201 -1.8654
 1055SOL    MW4 3988   6.207   0.351   3.383  0.0211 -0.0612 -0.3734
 1056SOL     OW 3989   1.483   0.566   5.531 -0.0976  0.0588  0.5710
 1056SOL    HW2 3990   1.568   0.583   5.571  0.0132  2.9151 -0.6790
 1056SOL    HW3 3991   1.500   0.572   5.437 -1.7177  0.8317  0.3154
 1056SOL    MW4 3992   1.497   0.569   5.524 -0.2967  0.5377  0.3724
 1057SOL     OW 3993   5.260   4.829   2.274  0.5064 -0.0174  0.4739
 1057SOL    HW2 3994   5.332   4.781   2.233 -0.0147 -1.0673  0.7441
 1057SOL    HW3 3995   5.213   4.869   2.200  0.8708 -0.0172  0.2353
 1057SOL    MW4 3996   5.263   4.828   2.259  0.4857 -0.1559  0.4781
 1058SOL     OW 3997   1.006   1.736   2.094  0.7369  0.3822 -0.2876
 1058SOL    HW2 3998   1.020   1.747   2.000  0.2096 -0.0175 -0.4123
 1058SOL    HW3 3999   0.928   1.788   2.113  0.8206  0.4302 -0.0739
 1058SOL    MW4 4000   0.998   1.745   2.084  0.6784  0.3358 -0.2759
 1059SOL     OW 4001   4.946   0.156   0.628 -0.2407 -0.0296  0.7336
 1059SOL    HW2 4002   4.988   0.136   0.712 -0.6797 -0.6580  0.8122
 1059SOL    HW3 4003   4.897   0.077   0.607  1.4370 -0.6492 -1.1021
 1059SOL    MW4 4004   4.945   0.143   0.636 -0.0773 -0.1943  0.5018
 1060SOL     OW 4005   3.576   1.208   3.098  0.3006 -0.1042  0.4112
 1060SOL    HW2 4006   3.607   1.119   3.112  1.5390  0.0895 -0.8277
 1060SOL    HW3 4007   3.608   1.230   3.011 -1.9444  0.7466 -0.2694
 1060SOL    MW4 4008   3.584   1.199   3.088  0.1678  0.0336  0.1580
 1061SOL     OW 4009   6.305   3.519   1.801 -0.3657 -0.3176  0.0642
 1061SOL    HW2 4010   6.279   3.467   1.726 -0.0934 -0.0913 -0.1935
 1061SOL    HW3 4011   6.224   3.535   1.849 -0.2811 -2.0564  0.8615
 1061SOL    MW4 4012   6.291   3.515   1.798 -0.3186 -0.5171  0.1354
 1062SOL     OW 4013   1.322   3.282   0.577 -0.8465  0.2052  0.3277
 1062SOL    HW2 4014   1.337   3.352   0.640 -1.2159  0.6559 -0.0708
 1062SOL    HW3 4015   1.365   3.313   0.497 -0.6245 -0.2284  0.2797
 1062SOL    MW4 4016   1.330   3.296   0.574 -0.8660  0.2075  0.2688
 1063SOL     OW 4017   3.256   3.962   4.381  0.2172 -0.2226 -0.4017
 1063SOL    HW2 4018   3.209   4.043   4.403  0.4940 -0.5432  1.5573
 1063SOL    HW3 4019   3.197   3.892   4.409  0.7275 -0.6745 -0.4540
 1063SOL    MW4 4020   3.242   3.963   4.388  0.3211 -0.3246 -0.1501
 1064SOL     OW 4021   5.294   1.378   6.366 -0.4476 -0.4980 -0.7034
 1064SOL    HW2 4022   5.300   1.330   6.284 -0.2630 -0.0569 -0.9514
 1064SOL    HW3 4023   5.246   1.319   6.425 -1.1189 -0.5708 -1.3081
 1064SOL    MW4 4024   5.288   1.364   6.363 -0.5119 -0.4494 -0.8159
 1065SOL     OW 4025   6.090   1.804   5.840  0.5918 -0.0792 -0.1608
 1065SOL    HW2 4026   6.039   1.806   5.759 -0.6829 -0.7231  0.5980
 1065SOL    HW3 4027   6.092   1.895   5.869  0.9707  0.1397 -0.8589
 1065SOL    MW4 4028   6.084   1.816   5.833  0.4736 -0.1352 -0.1528
 1066SOL     OW 4029   2.524   2.017   4.145  0.1495 -0.1038  0.5563
 1066SOL    HW2 4030   2.506   1.923   4.146  0.2510 -0.2089 -1.5523
 1066SOL    HW3 4031   2.601   2.026   4.089 -1.0910  1.3563 -1.0462
 1066SOL    MW4 4032   2.532   2.006   4.137 -0.0007  0.0749  0.0667
 1067SOL     OW 4033   3.069   5.584   5.233  0.1585  0.3356 -0.2508
 1067SOL    HW2 4034   3.152   5.559   5.274  0.0935 -1.4500 -1.0865
 1067SOL    HW3 4035   3.072   5.543   5.146 -0.7189  2.0126 -1.1253
 1067SOL    MW4 4036   3.080   5.575   5.227  0.0342  0.3213 -0.4765
 1068SOL     OW 4037   0.306   2.397   0.208 -0.2933  0.3495 -0.1903
 1068SOL    HW2 4038   0.282   2.467   0.148  0.2195 -0.7072 -1.6731
 1068SOL    HW3 4039   0.367   2.343   0.159  0.3698 -0.4079  1.3875
 1068SOL    MW4 4040   0.311   2.399   0.194 -0.1381  0.1102 -0.1777
 1069SOL     OW 4041   5.597   5.410   2.825 -0.5234  0.4714  0.2970
 1069SOL    HW2 4042   5.558   5.322   2.822 -0.9955  0.6903 -0.0127
 1069SOL    HW3 4043   5.656   5.413   2.750 -1.0182  0.6541 -0.0900
 1069SOL    MW4 4044   5.599   5.399   2.815 -0.6510  0.5244  0.2051
 1070SOL     OW 4045   4.291   5.739   2.309 -0.4811 -0.3677 -0.3798
 1070SOL    HW2 4046   4.244   5.732   2.226  0.3859  1.3488 -1.0651
 1070SOL    HW3 4047   4.363   5.676   2.301 -0.9525 -0.8893 -0.5415
 1070SOL    MW4 4048   4.294   5.730   2.297 -0.4289 -0.2101 -0.4915
 1071SOL     OW 4049   2.019   0.268   3.212  0.4664 -0.2151 -0.3542
 1071SOL    HW2 4050   1.927   0.295   3.215  0.9171  1.6822 -1.9383
 1071SOL    HW3 4051   2.026   0.214   3.134  0.5811 -0.9488  0.1508
 1071SOL    MW4 4052   2.008   0.264   3.202  0.5410 -0.0616 -0.4966
 1072SOL     OW 4053   4.840   1.239   3.337  0.1666  0.1207  0.2749
 1072SOL    HW2 4054   4.755   1.200   3.357  1.1696 -2.1882  0.3058
 1072SOL    HW3 4055   4.903   1.187   3.386  1.8250  0.2369 -1.5911
 1072SOL    MW4 4056   4.837   1.227   3.346  0.5177 -0.1686  0.0328
 1073SOL     OW 4057   1.259   4.243   5.827 -0.2897  0.1952  0.3769
 1073SOL    HW2 4058   1.205   4.314   5.792  1.5905  1.2668 -0.5206
 1073SOL    HW3 4059   1.331   4.287   5.872  0.8626 -1.1151 -0.0979
 1073SOL    MW4 4060   1.261   4.258   5.828  0.1104  0.1637  0.1958
 1074SOL     OW 4061   1.844   1.061   5.335 -0.1093  0.1549 -0.3254
 1074SOL    HW2 4062   1.782   1.008   5.386 -0.7049 -0.4892 -1.6896
 1074SOL    HW3 4063   1.795   1.140   5.313 -0.1588  0.0339 -0.6562
 1074SOL    MW4 4064   1.829   1.064   5.339 -0.1944  0.0540 -0.5490
 1075SOL     OW 4065   3.230   2.604   4.765  0.1167  0.6588  0.1214
 1075SOL    HW2 4066   3.223   2.542   4.837  0.6893  0.2851 -0.1419
 1075SOL    HW3 4067   3.179   2.680   4.794  0.4919  0.5879  0.9966
 1075SOL    MW4 4068   3.223   2.606   4.778  0.2417  0.6001  0.2021
 1076SOL     OW 4069   5.256   3.291   2.716  0.2058  0.0673 -0.0948
 1076SOL    HW2 4070   5.220   3.226   2.656  0.6926  1.0454 -1.4890
 1076SOL    HW3 4071   5.340   3.254   2.744 -0.5180 -0.8983  0.9044
 1076SOL    MW4 4072   5.262   3.277   2.712  0.1745  0.0689 -0.1469
 1077SOL     OW 4073   2.074   4.033   4.831  0.0531 -0.2449  0.0753
 1077SOL    HW2 4074   2.136   4.023   4.903 -0.4720 -0.3811  0.5226
 1077SOL    HW3 4075   2.015   4.103   4.861 -0.7947 -1.0105  0.2340
 1077SOL    MW4 4076   2.074   4.041   4.845 -0.1281 -0.3639  0.1552
 1078SOL     OW 4077   3.765   2.962   3.550  0.0429 -0.7897 -0.5198
 1078SOL    HW2 4078   3.783   2.947   3.457 -0.8106 -1.5297 -0.5777
 1078SOL    HW3 4079   3.675   2.932   3.562  0.0866 -0.5327  0.5151
 1078SOL    MW4 4080   3.755   2.956   3.539 -0.0640 -0.8534 -0.3909
 1079SOL     OW 4081   5.191   4.963   0.201  0.2957 -0.3030  0.0700
 1079SOL    HW2 4082   5.155   4.899   0.139 -1.8450 -0.0830  0.9790
 1079SOL    HW3 4083   5.274   4.925   0.229  0.5539 -1.1548 -1.7266
 1079SOL    MW4 4084   5.197   4.949   0.197  0.0473 -0.3864 -0.0471
 1080SOL     OW 4085   5.307   4.931   1.125 -0.5821 -0.1136  0.2252
 1080SOL    HW2 4086   5.239   4.930   1.193 -0.7825  1.9648  0.1240
 1080SOL    HW3 4087   5.305   4.843   1.088 -1.4250 -0.8764  1.9656
 1080SOL    MW4 4088   5.297   4.919   1.130 -0.7197  0.0600  0.4414
 1081SOL     OW 4089   1.854   4.386   3.918 -0.3771  0.2052  0.3230
 1081SOL    HW2 4090   1.924   4.376   3.853 -2.2835 -2.1189 -1.6049
 1081SOL    HW3 4091   1.777   4.406   3.865 -1.7430 -0.3496  2.0297
 1081SOL    MW4 4092   1.853   4.387   3.902 -0.8088 -0.1747  0.2938
 1082SOL     OW 4093   1.555   4.730   3.553 -0.6550 -0.1837  0.0597
 1082SOL    HW2 4094   1.505   4.810   3.573 -0.9898 -0.2739 -0.4025
 1082SOL    HW3 4095   1.644   4.750   3.581 -0.8891  0.0853  0.6311
 1082SOL    MW4 4096   1.560   4.743   3.560 -0.7301 -0.1601  0.0741
 1083SOL     OW 4097   5.237   1.554   5.958 -0.2025  0.3255 -0.3572
 1083SOL    HW2 4098   5.182   1.574   5.883 -2.0981 -0.6294  0.6849
 1083SOL    HW3 4099   5.198   1.603   6.031  1.8020  1.5241  0.0008
 1083SOL    MW4 4100   5.225   1.563   5.958 -0.1881  0.3577 -0.1725
 1084SOL     OW 4101   1.909   1.767   6.255 -0.1953  0.9407 -0.5120
 1084SOL    HW2 4102   1.896   1.856   6.221  0.2396  1.1443 -0.1572
 1084SOL    HW3 4103   1.987   1.774   6.309 -1.2864  0.8043  1.1699
 1084SOL    MW4 4104   1.917   1.780   6.258 -0.2819  0.9496 -0.2433
 1085SOL     OW 4105   6.057   5.681   1.272  0.4066 -0.1179  0.4452
 1085SOL    HW2 4106   6.012   5.712   1.351  0.9445  0.6794  0.4532
 1085SOL    HW3 4107   6.013   5.599   1.250 -1.8774  1.2086 -0.2260
 1085SOL    MW4 4108   6.045   5.674   1.280  0.1762  0.1623  0.3577
 1086SOL     OW 4109   3.851   3.006   5.306  0.2805 -0.2609 -0.1473
 1086SOL    HW2 4110   3.793   3.009   5.229  0.5692 -2.8866 -0.5684
 1086SOL    HW3 4111   3.915   3.075   5.290 -0.3112 -0.0318 -1.7548
 1086SOL    MW4 4112   3.852   3.015   5.293  0.2405 -0.5771 -0.4149
 1087SOL     OW 4113   0.125   3.726   3.622 -0.0068 -0.1043  0.0544
 1087SOL    HW2 4114   0.115   3.820   3.610 -0.3003 -0.0283  0.8656
 1087SOL    HW3 4115   0.189   3.700   3.556  1.2140  0.9179  0.7974
 1087SOL    MW4 4116   0.132   3.735   3.612  0.1156  0.0406  0.2594
 1088SOL     OW 4117   5.486   2.734   3.585 -0.2042 -0.6157  1.0196
 1088SOL    HW2 4118   5.403   2.697   3.558 -0.3194 -0.3059  0.9378
 1088SOL    HW3 4119   5.524   2.670   3.646 -0.0091 -1.2462  0.2383
 1088SOL    MW4 4120   5.480   2.721   3.590 -0.1937 -0.6580  0.9057
 1089SOL     OW 4121   2.534   5.017   3.832  0.0142  0.0654 -0.3123
 1089SOL    HW2 4122   2.472   4.972   3.889 -0.0755 -0.4479 -0.8159
 1089SOL    HW3 4123   2.546   4.959   3.758 -1.5375  1.6819 -1.9203
 1089SOL    MW4 4124   2.528   5.004   3.830 -0.2024  0.2110 -0.5909
 1090SOL     OW 4125   2.209   5.868   1.347  0.2746  0.0405 -0.1161
 1090SOL    HW2 4126   2.299   5.888   1.373  0.3184  0.6965 -0.7251
 1090SOL    HW3 4127   2.165   5.843   1.428  1.1705 -0.9521  0.0858
 1090SOL    MW4 4128   2.215   5.868   1.361  0.3986 -0.0039 -0.1698
 1091SOL     OW 4129   3.549   1.621   2.447 -0.2512 -0.1292 -0.1748
 1091SOL    HW2 4130   3.553   1.525   2.447 -0.2796 -0.1286  0.2696
 1091SOL    HW3 4131   3.458   1.640   2.424 -0.4988 -0.2209  0.6948
 1091SOL    MW4 4132   3.537   1.611   2.444 -0.2876 -0.1413 -0.0014
 1092SOL     OW 4133   2.676   2.633   0.203  0.8749 -0.3676  0.4624
 1092SOL    HW2 4134   2.643   2.655   0.116  0.5484  0.0089  0.6813
 1092SOL    HW3 4135   2.664   2.712   0.254 -0.4332 -1.0737  1.2974
 1092SOL    MW4 4136   2.670   2.646   0.198  0.6593 -0.4111  0.6014
 1093SOL     OW 4137   2.208   2.859   1.249  0.0385  0.1682  0.5547
 1093SOL    HW2 4138   2.230   2.952   1.247  0.6295  0.0329  0.7933
 1093SOL    HW3 4139   2.157   2.847   1.329 -0.5463  0.3924  0.2267
 1093SOL    MW4 4140   2.204   2.869   1.259  0.0393  0.1799  0.5429
 1094SOL     OW 4141   6.070   4.171   0.623 -0.6055 -0.0580  0.2930
 1094SOL    HW2 4142   6.009   4.245   0.620 -0.4532  0.1141  1.2553
 1094SOL    HW3 4143   6.127   4.190   0.697 -0.3917 -1.0151  0.3822
 1094SOL    MW4 4144   6.069   4.183   0.632 -0.5572 -0.1616  0.4317
 1095SOL     OW 4145   2.966   1.470   0.568 -0.4146 -0.3472  0.2212
 1095SOL    HW2 4146   2.928   1.474   0.480  0.6721 -0.1505 -0.2492
 1095SOL    HW3 4147   2.939   1.552   0.609 -0.3239 -0.1169 -0.1762
 1095SOL    MW4 4148   2.957   1.481   0.562 -0.2593 -0.2908  0.1067
 1096SOL     OW 4149   5.100   0.380   1.818 -0.1208 -0.3146 -0.2976
 1096SOL    HW2 4150   5.171   0.374   1.881 -1.2435 -0.8377  0.9599
 1096SOL    HW3 4151   5.021   0.381   1.871 -1.0634  0.5869 -1.6448
 1096SOL    MW4 4152   5.099   0.380   1.833 -0.3933 -0.2646 -0.3095
 1097SOL     OW 4153   3.624   5.079   4.137 -0.1216 -0.5313 -0.4088
 1097SOL    HW2 4154   3.656   5.122   4.216 -0.8814 -1.7572  0.6182
 1097SOL    HW3 4155   3.671   5.121   4.065 -0.0370  1.2154  0.6125
 1097SOL    MW4 4156   3.634   5.090   4.138 -0.2107 -0.4626 -0.1386
 1098SOL     OW 4157   6.099   4.467   0.709  0.3378 -0.0161  0.2784
 1098SOL    HW2 4158   6.162   4.494   0.777  1.0054  1.4958 -0.8837
 1098SOL    HW3 4159   6.148   4.475   0.627 -0.5484 -1.5189 -0.4493
 1098SOL    MW4 4160   6.114   4.471   0.707  0.3090 -0.0149  0.0291
 1099SOL     OW 4161   0.026   0.594   3.101 -0.0104  0.0034 -0.2934
 1099SOL    HW2 4162   0.113   0.615   3.067 -0.2547  0.3970 -0.6803
 1099SOL    HW3 4163  -0.026   0.573   3.024 -0.1449 -0.6823 -0.0263
 1099SOL    MW4 4164   0.031   0.594   3.086 -0.0604 -0.0351 -0.3092
 1100SOL     OW 4165   1.724   0.859   3.439 -0.2619  0.3414 -0.0116
 1100SOL    HW2 4166   1.709   0.873   3.346 -0.5670 -0.2367 -0.0582
 1100SOL    HW3 4167   1.659   0.792   3.463 -1.0105  1.3710  0.8858
 1100SOL    MW4 4168   1.714   0.852   3.430 -0.4010  0.4010  0.1006
 1101SOL     OW 4169   0.622   5.699   0.079  0.4827  0.1885 -0.6557
 1101SOL    HW2 4170   0.696   5.708   0.138  0.1785 -0.1797 -0.2125
 1101SOL    HW3 4171   0.559   5.765   0.108  0.4524  0.2033 -0.7516
 1101SOL    MW4 4172   0.623   5.709   0.090  0.4386  0.1419 -0.6099
 1102SOL     OW 4173   5.998   1.595   4.870  0.0293 -0.7422  0.1915
 1102SOL    HW2 4174   6.093   1.590   4.864 -0.0277 -1.2859 -0.5596
 1102SOL    HW3 4175   5.980   1.685   4.898  0.7846 -0.9081  1.2802
 1102SOL    MW4 4176   6.008   1.606   4.873  0.1214 -0.8358  0.2360
 1103SOL     OW 4177   4.627   1.660   6.263  0.3641 -0.8427  0.0993
 1103SOL    HW2 4178   4.575   1.613   6.198 -0.9014 -0.6554  0.9262
 1103SOL    HW3 4179   4.599   1.751   6.255  0.2766 -0.7955  0.7964
 1103SOL    MW4 4180   4.616   1.666   6.254  0.1856 -0.8118  0.3004
 1104SOL     OW 4181   5.063   2.810   3.462 -0.0658  0.5896  0.0627
 1104SOL    HW2 4182   5.125   2.737   3.456  1.4859  1.8846 -0.3020
 1104SOL    HW3 4183   4.987   2.773   3.506  1.6691 -0.6205  2.2707
 1104SOL    MW4 4184   5.061   2.796   3.467  0.3679  0.6008  0.3059
 1105SOL     OW 4185   3.975   2.670   3.956 -0.2008 -0.2146 -0.2550
 1105SOL    HW2 4186   3.907   2.602   3.952  0.3373 -0.7868  0.1273
 1105SOL    HW3 4187   4.053   2.623   3.984 -0.2569  0.8752  1.9702
 1105SOL    MW4 4188   3.976   2.655   3.959 -0.1372 -0.1464  0.0890
 1106SOL     OW 4189   2.706   3.667   5.849 -0.1001  0.2619  0.0642
 1106SOL    HW2 4190   2.780   3.654   5.908 -1.2762 -0.8971  1.3246
 1106SOL    HW3 4191   2.651   3.589   5.859 -1.5811  1.1401 -0.7255
 1106SOL    MW4 4192   2.708   3.655   5.858 -0.4507  0.2249  0.1263
 1107SOL     OW 4193   4.699   4.786   0.246 -0.0217  0.3860  0.6764
 1107SOL    HW2 4194   4.675   4.837   0.323  1.0018  0.8743  0.6922
 1107SOL    HW3 4195   4.792   4.768   0.257 -0.2272 -1.0094  0.3820
 1107SOL    MW4 4196   4.708   4.790   0.257  0.0862  0.2663  0.6396
 1108SOL     OW 4197   1.474   3.368   1.023 -0.0587 -0.2065 -0.2303
 1108SOL    HW2 4198   1.497   3.277   1.007 -0.8129 -0.3881 -0.3467
 1108SOL    HW3 4199   1.528   3.394   1.098 -0.2090 -0.9042  0.1304
 1108SOL    MW4 4200   1.484   3.360   1.031 -0.1780 -0.3225 -0.1981
 1109SOL     OW 4201   1.597   5.931   2.684  0.0387  0.2745  0.4716
 1109SOL    HW2 4202   1.528   5.865   2.692  0.0945 -0.0501 -1.3029
 1109SOL    HW3 4203   1.633   5.939   2.773 -0.1731 -1.8458  0.8116
 1109SOL    MW4 4204   1.593   5.923   2.697  0.0181 -0.0481  0.2823
 1110SOL     OW 4205   0.508   0.366   0.026  0.4625  0.1179 -0.2579
 1110SOL    HW2 4206   0.520   0.312  -0.051  0.2759 -1.2942  0.6679
 1110SOL    HW3 4207   0.413   0.382   0.030  0.7315  2.7702 -1.9567
 1110SOL    MW4 4208   0.497   0.361   0.017  0.4734  0.2815 -0.3599
 1111SOL     OW 4209   0.576   0.391   5.313  0.0069 -0.1673 -0.5626
 1111SOL    HW2 4210   0.505   0.407   5.375 -1.1846  2.4377 -2.4396
 1111SOL    HW3 4211   0.655   0.418   5.360 -0.7454  0.8038  0.1677
 1111SOL    MW4 4212   0.577   0.396   5.327 -0.2496  0.3045 -0.7139
 1112SOL     OW 4213   3.715   4.188   5.980 -0.0457  0.6135 -0.2093
 1112SOL    HW2 4214   3.635   4.214   6.026 -1.3491 -1.3606 -1.2445
 1112SOL    HW3 4215   3.766   4.140   6.045  0.8408  2.7226  0.7468
 1112SOL    MW4 4216   3.711   4.185   5.995 -0.1007  0.6313 -0.2197
 1113SOL     OW 4217   0.448   0.287   1.548  0.3001  0.0595 -0.2804
 1113SOL    HW2 4218   0.523   0.304   1.491 -0.3002  1.3921 -0.7264
 1113SOL    HW3 4219   0.403   0.371   1.553 -0.4433 -0.3860  1.0403
 1113SOL    MW4 4220   0.452   0.301   1.541  0.1228  0.1766 -0.1650
 1114SOL     OW 4221   2.559   2.132   2.410 -0.1064 -0.0238 -0.6506
 1114SOL    HW2 4222   2.641   2.173   2.380  1.2115 -0.8260  1.5722
 1114SOL    HW3 4223   2.520   2.198   2.468  0.0124 -0.3772 -0.1589
 1114SOL    MW4 4224   2.565   2.146   2.414  0.0832 -0.1763 -0.2925
 1115SOL     OW 4225   2.921   6.016   1.521  1.0158  0.0178  0.1121
 1115SOL    HW2 4226   2.981   6.047   1.589  1.5731 -0.3923 -0.1875
 1115SOL    HW3 4227   2.955   6.054   1.440 -1.7239  3.6213  0.4111
 1115SOL    MW4 4228   2.933   6.025   1.520  0.7278  0.4391  0.1120
 1116SOL     OW 4229   2.564   5.060   0.104 -0.3356  0.1822 -0.4707
 1116SOL    HW2 4230   2.610   5.117   0.041  1.2031 -0.6486 -0.1387
 1116SOL    HW3 4231   2.595   5.090   0.190 -1.9156  0.8656 -0.0999
 1116SOL    MW4 4232   2.574   5.072   0.107 -0.3411  0.1628 -0.3780
 1117SOL     OW 4233   6.313   0.275   5.894  0.1785  0.3218 -0.0905
 1117SOL    HW2 4234   6.256   0.333   5.944 -1.1451  0.7793 -2.0317
 1117SOL    HW3 4235   6.372   0.334   5.846  0.2388 -0.0201 -0.4425
 1117SOL    MW4 4236   6.314   0.290   5.894  0.0118  0.3371 -0.3930
 1118SOL     OW 4237   5.693   0.610   4.470  0.0291  0.0101 -0.9211
 1118SOL    HW2 4238   5.780   0.630   4.435  0.0906  0.3800 -0.5618
 1118SOL    HW3 4239   5.642   0.689   4.455 -0.2669 -0.2282 -1.1850
 1118SOL    MW4 4240   5.698   0.623   4.463 -0.0018  0.0274 -0.9085
 1119SOL     OW 4241   1.898   3.527   0.623  0.1050  0.6317 -0.0045
 1119SOL    HW2 4242   1.866   3.456   0.566  1.9467 -0.6309  0.4463
 1119SOL    HW3 4243   1.872   3.500   0.711  0.9646  0.3916  0.1878
 1119SOL    MW4 4244   1.890   3.514   0.627  0.4614  0.4334  0.0803
 1120SOL     OW 4245   0.508   1.460   6.310  0.1259 -0.4946 -0.1933
 1120SOL    HW2 4246   0.559   1.433   6.234  0.7787  0.9327 -0.2918
 1120SOL    HW3 4247   0.544   1.544   6.335  0.4514 -1.2677  2.2084
 1120SOL    MW4 4248   0.519   1.467   6.303  0.2550 -0.4083  0.1106
 1121SOL     OW 4249   0.742   3.987   2.626  0.0610 -0.0710  0.1128
 1121SOL    HW2 4250   0.694   3.951   2.700 -0.6824  1.2436  0.3074
 1121SOL    HW3 4251   0.779   4.069   2.659  0.7576 -0.0729 -0.6180
 1121SOL    MW4 4252   0.741   3.993   2.640  0.0549  0.1022  0.0420
 1122SOL     OW 4253   0.512   1.455   0.596 -0.7073  0.2829 -0.0432
 1122SOL    HW2 4254   0.572   1.449   0.522  2.2971 -0.7029  2.2346
 1122SOL    HW3 4255   0.466   1.372   0.597  0.2323 -0.2542 -0.0896
 1122SOL    MW4 4256   0.514   1.443   0.587 -0.1869  0.0820  0.2512
 1123SOL     OW 4257   1.478   4.559   4.619 -0.1228 -0.0220  0.0134
 1123SOL    HW2 4258   1.392   4.557   4.577  0.5358  0.1867 -1.3870
 1123SOL    HW3 4259   1.463   4.521   4.706 -1.7544  0.5925  0.0408
 1123SOL    MW4 4260   1.465   4.554   4.625 -0.2512  0.0866 -0.1678
 1124SOL     OW 4261   2.740   2.850   3.371 -0.3617 -0.1367  0.3631
 1124SOL    HW2 4262   2.702   2.861   3.458 -0.0129  2.7387  0.2268
 1124SOL    HW3 4263   2.666   2.860   3.311 -0.5087 -1.5877  0.2615
 1124SOL    MW4 4264   2.725   2.852   3.375 -0.3351  0.0513  0.3317
 1125SOL     OW 4265   4.594   5.549   6.119 -0.2850  0.1241  0.1015
 1125SOL    HW2 4266   4.607   5.480   6.054  0.3022 -1.6446  1.9868
 1125SOL    HW3 4267   4.679   5.555   6.164 -1.6324 -1.4843  3.1797
 1125SOL    MW4 4268   4.607   5.540   6.116 -0.3853 -0.3215  0.7564
 1126SOL     OW 4269   1.741   0.324   3.112 -0.2778 -0.5045  0.4469
 1126SOL    HW2 4270   1.667   0.263   3.115  0.1560 -1.1385 -0.6542
 1126SOL    HW3 4271   1.703   0.410   3.124 -1.1249 -0.8679  0.4195
 1126SOL    MW4 4272   1.727   0.327   3.114 -0.3324 -0.6361  0.2980
 1127SOL     OW 4273   4.237   5.109   5.559  0.5746  0.1075  0.2143
 1127SOL    HW2 4274   4.149   5.107   5.596  1.0632 -0.3174  1.4108
 1127SOL    HW3 4275   4.245   5.026   5.511 -1.0803  1.8777 -3.4465
 1127SOL    MW4 4276   4.227   5.097   5.558  0.4207  0.2850 -0.1108
 1128SOL     OW 4277   3.152   3.059   2.333  0.4915 -0.3012  0.4106
 1128SOL    HW2 4278   3.158   2.963   2.341 -0.3856 -0.3071  1.1180
 1128SOL    HW3 4279   3.173   3.091   2.421 -1.7080  0.0157  0.8722
 1128SOL    MW4 4280   3.156   3.050   2.346  0.0856 -0.2602  0.5649
 1129SOL     OW 4281   1.803   3.044   5.351 -0.4610 -0.0440 -0.2928
 1129SOL    HW2 4282   1.741   2.974   5.366  0.0136 -0.1272  1.4798
 1129SOL    HW3 4283   1.818   3.044   5.256 -2.3131 -0.7043 -0.6107
 1129SOL    MW4 4284   1.797   3.035   5.340 -0.6427 -0.1421 -0.1009
 1130SOL     OW 4285   5.897   6.248   5.653  0.6756 -0.3533  0.3973
 1130SOL    HW2 4286   5.804   6.234   5.668  0.6141  1.1135  1.6811
 1130SOL    HW3 4287   5.904   6.270   5.561  0.2221 -3.6506 -0.5471
 1130SOL    MW4 4288   5.886   6.249   5.643  0.6076 -0.5948  0.4421
 1131SOL     OW 4289   5.665   4.232   0.481 -0.4418 -0.1066 -0.3811
 1131SOL    HW2 4290   5.569   4.229   0.482 -0.4660  0.0794 -1.2184
 1131SOL    HW3 4291   5.690   4.166   0.417  0.0673 -1.3066  1.0185
 1131SOL    MW4 4292   5.655   4.223   0.473 -0.3778 -0.2404 -0.3069
 1132SOL     OW 4293   5.544   0.874   3.933 -0.3758 -0.0606  1.3990
 1132SOL    HW2 4294   5.448   0.875   3.937 -0.4093 -0.9872  1.0790
 1132SOL    HW3 4295   5.570   0.813   4.001 -0.2858 -3.8973 -1.7414
 1132SOL    MW4 4296   5.535   0.866   3.943 -0.3683 -0.6891  0.9424
 1133SOL     OW 4297   5.376   4.921   3.425  0.4000 -0.0139 -0.1282
 1133SOL    HW2 4298   5.425   4.841   3.443  1.9726  0.9041 -0.2207
 1133SOL    HW3 4299   5.348   4.952   3.512  1.6803  0.4999  0.1107
 1133SOL    MW4 4300   5.379   4.915   3.439  0.7764  0.1750 -0.1088
 1134SOL     OW 4301   0.757   3.693   6.143 -0.6197 -0.3365  0.2378
 1134SOL    HW2 4302   0.741   3.620   6.202 -1.1246 -0.2066  0.2641
 1134SOL    HW3 4303   0.680   3.750   6.153  0.3793  0.9190  1.2883
 1134SOL    MW4 4304   0.745   3.691   6.152 -0.5545 -0.1537  0.3799
 1135SOL     OW 4305   3.623   1.559   4.272  0.0131  0.2692 -0.2761
 1135SOL    HW2 4306   3.615   1.479   4.323  2.0780  0.6707  0.7716
 1135SOL    HW3 4307   3.621   1.629   4.337  1.4715  0.8690 -0.8454
 1135SOL    MW4 4308   3.622   1.558   4.287  0.4779  0.4013 -0.2130
 1136SOL     OW 4309   1.804   6.030   0.659 -0.0530 -0.7857 -0.2542
 1136SOL    HW2 4310   1.791   5.938   0.680 -0.1734 -0.7707 -0.2675
 1136SOL    HW3 4311   1.896   6.046   0.682 -0.0879 -0.8575 -0.0605
 1136SOL    MW4 4312   1.815   6.020   0.665 -0.0735 -0.7932 -0.2304
 1137SOL     OW 4313   5.218   2.733   5.299  0.2688 -0.4008 -0.3914
 1137SOL    HW2 4314   5.263   2.713   5.217  1.3372  2.1665 -0.5267
 1137SOL    HW3 4315   5.167   2.654   5.318  0.2728 -1.2372 -3.3017
 1137SOL    MW4 4316   5.217   2.720   5.291  0.4103 -0.1724 -0.7932
 1138SOL     OW 4317   3.810   3.419   2.546  0.3602 -0.0664  0.9884
 1138SOL    HW2 4318   3.735   3.378   2.503  0.6820 -0.1008  0.4461
 1138SOL    HW3 4319   3.794   3.513   2.537  1.5435 -0.0120 -1.3043
 1138SOL    MW4 4320   3.798   3.426   2.539  0.5588 -0.0638  0.6143
 1139SOL     OW 4321   3.687   5.985   3.214  0.2693  0.3422  0.3729
 1139SOL    HW2 4322   3.616   5.943   3.262 -1.2377  0.7964 -1.3430
 1139SOL    HW3 4323   3.645   6.060   3.171  2.2338  1.8477  0.9178
 1139SOL    MW4 4324   3.672   5.990   3.215  0.3297  0.6007  0.2184
 1140SOL     OW 4325   5.307   4.377   4.948  0.1170  0.1100  0.1654
 1140SOL    HW2 4326   5.312   4.303   4.888 -1.8245 -0.4827  0.6874
 1140SOL    HW3 4327   5.270   4.341   5.029  0.7694  1.3045  1.0292
 1140SOL    MW4 4328   5.303   4.363   4.951 -0.0531  0.1894  0.3482
 1141SOL     OW 4329   3.459   1.486   2.044  0.0176 -0.4545 -0.2918
 1141SOL    HW2 4330   3.462   1.407   2.098 -1.1980  0.3327  0.9745
 1141SOL    HW3 4331   3.366   1.503   2.031  0.2788  0.2993 -1.2585
 1141SOL    MW4 4332   3.447   1.478   2.050 -0.1083 -0.2512 -0.2523
 1142SOL     OW 4333   1.391   1.720   5.002  0.0671 -0.4877  0.0556
 1142SOL    HW2 4334   1.474   1.725   5.047  1.0005  0.2261 -1.6435
 1142SOL    HW3 4335   1.388   1.630   4.967 -0.4743 -0.9113  1.1403
 1142SOL    MW4 4336   1.401   1.709   5.003  0.1188 -0.4494 -0.0254
 1143SOL     OW 4337   2.132   5.154   2.572  0.5923 -0.2622 -0.2406
 1143SOL    HW2 4338   2.165   5.172   2.484  1.1467 -0.1792 -0.0200
 1143SOL    HW3 4339   2.168   5.068   2.594  1.0184  0.0166  0.1706
 1143SOL    MW4 4340   2.141   5.145   2.564  0.7216 -0.2144 -0.1572
 1144SOL     OW 4341   0.686   4.360   2.956  0.2525 -0.3167  0.1052
 1144SOL    HW2 4342   0.764   4.306   2.965  1.9654  1.8606 -0.5192
 1144SOL    HW3 4343   0.621   4.320   3.013  1.4203 -2.9027 -0.2705
 1144SOL    MW4 4344   0.688   4.348   2.965  0.6326 -0.3706 -0.0268
 1145SOL     OW 4345   5.152   4.772   1.488 -0.8020 -0.0282 -0.0637
 1145SOL    HW2 4346   5.074   4.827   1.501 -1.7483 -1.0971 -1.0539
 1145SOL    HW3 4347   5.131   4.690   1.532 -0.3854 -0.4584 -0.6525
 1145SOL    MW4 4348   5.139   4.769   1.496 -0.8719 -0.2260 -0.2720
 1146SOL     OW 4349   5.967   4.138   3.541  0.4570  0.2670  0.3161
 1146SOL    HW2 4350   5.975   4.200   3.468 -1.2227  1.1294  0.8229
 1146SOL    HW3 4351   6.058   4.117   3.564  1.0400  0.8834 -1.2511
 1146SOL    MW4 4352   5.980   4.144   3.534  0.3123  0.4621  0.1762
 1147SOL     OW 4353   3.105   3.388   0.413 -0.0794 -0.1153  0.0168
 1147SOL    HW2 4354   3.120   3.435   0.495  1.5295  0.5141 -0.5935
 1147SOL    HW3 4355   3.067   3.453   0.355 -1.7488 -0.7050  0.3799
 1147SOL    MW4 4356   3.102   3.403   0.416 -0.0874 -0.1101 -0.0158
 1148SOL     OW 4357   3.882   4.499   1.462 -0.3630  0.6484  0.0113
 1148SOL    HW2 4358   3.825   4.502   1.539  1.5539  2.6831  1.5043
 1148SOL    HW3 4359   3.971   4.499   1.498  0.6795 -1.4973 -2.2194
 1148SOL    MW4 4360   3.886   4.499   1.477  0.0274  0.6338 -0.0860
 1149SOL     OW 4361   0.288   5.725   4.189  0.4942  0.6399 -0.5735
 1149SOL    HW2 4362   0.327   5.779   4.258 -0.1923 -0.0861  0.4111
 1149SOL    HW3 4363   0.346   5.737   4.114  0.7484  2.1780 -0.1694
 1149SOL    MW4 4364   0.301   5.734   4.188  0.4371  0.7471 -0.3903
 1150SOL     OW 4365   3.825   4.556   2.033 -0.6504  0.6512  0.7674
 1150SOL    HW2 4366   3.749   4.610   2.010 -0.4631  1.2454  1.5131
 1150SOL    HW3 4367   3.814   4.538   2.127 -0.9878 -1.0605  0.4384
 1150SOL    MW4 4368   3.813   4.561   2.043 -0.6702  0.5038  0.8224
 1151SOL     OW 4369   0.312   1.485   4.255  0.1588 -0.2740 -0.9589
 1151SOL    HW2 4370   0.399   1.466   4.219  1.2329 -1.7302  2.0224
 1151SOL    HW3 4371   0.328   1.552   4.321 -1.0090 -0.4128 -0.5126
 1151SOL    MW4 4372   0.326   1.491   4.259  0.1464 -0.4845 -0.5067
 1152SOL     OW 4373   2.332   5.940   4.399 -0.0530 -0.8670  0.4563
 1152SOL    HW2 4374   2.411   5.970   4.353 -0.7100  1.4708  0.7609
 1152SOL    HW3 4375   2.295   5.873   4.341  1.8750 -1.6762  0.0893
 1152SOL    MW4 4376   2.338   5.935   4.385  0.1147 -0.6653  0.4481
 1153SOL     OW 4377   6.268   3.353   4.570  0.7702  0.0363 -0.1383
 1153SOL    HW2 4378   6.244   3.260   4.570 -0.6360  0.3577 -0.7682
 1153SOL    HW3 4379   6.300   3.370   4.481  0.3543  0.2841 -0.2491
 1153SOL    MW4 4380   6.269   3.343   4.558  0.5298  0.1114 -0.2360
 1154SOL     OW 4381   6.077   4.349   6.016 -0.2455  0.4276 -0.4209
 1154SOL    HW2 4382   6.052   4.376   5.928 -0.4359  1.2968 -0.1103
 1154SOL    HW3 4383   6.021   4.401   6.074 -0.0747 -0.0820  0.2153
 1154SOL    MW4 4384   6.067   4.359   6.012 -0.2481  0.4750 -0.2960
 1155SOL     OW 4385   5.212   3.416   1.266 -0.5980  0.3321 -0.2874
 1155SOL    HW2 4386   5.205   3.336   1.318  0.2648  0.4671  0.0431
 1155SOL    HW3 4387   5.303   3.418   1.236 -0.7987  0.8195 -0.8963
 1155SOL    MW4 4388   5.223   3.406   1.269 -0.5106  0.4142 -0.3241
 1156SOL     OW 4389   0.736   1.695   4.874 -0.2211  0.2413  0.1011
 1156SOL    HW2 4390   0.781   1.642   4.940 -0.5204 -0.1653 -0.0140
 1156SOL    HW3 4391   0.644   1.694   4.902 -0.4402 -0.3706 -0.5951
 1156SOL    MW4 4392   0.729   1.688   4.887 -0.2895  0.1070 -0.0059
 1157SOL     OW 4393   2.572   3.501   3.260 -0.1319  0.0340 -0.3581
 1157SOL    HW2 4394   2.609   3.546   3.184  0.1544  0.1918 -0.1281
 1157SOL    HW3 4395   2.591   3.559   3.334 -1.6566  0.5741 -0.3491
 1157SOL    MW4 4396   2.580   3.515   3.259 -0.2953  0.1261 -0.3266
 1158SOL     OW 4397   1.748   4.098   5.888  0.2130  0.4858 -0.4684
 1158SOL    HW2 4398   1.698   4.084   5.969 -1.3094  1.6192 -1.1620
 1158SOL    HW3 4399   1.765   4.009   5.855 -0.1022  0.0388  0.5288
 1158SOL    MW4 4400   1.743   4.084   5.895 -0.0294  0.5763 -0.4284
 1159SOL     OW 4401   2.080   3.946   5.997  0.0218 -0.6641  0.4598
 1159SOL    HW2 4402   2.156   3.889   6.013  1.2243  0.5354 -0.7494
 1159SOL    HW3 4403   2.113   4.013   5.937 -2.1497 -0.4203 -0.5362
 1159SOL    MW4 4404   2.095   3.947   5.991 -0.1061 -0.4737  0.1689
 1160SOL     OW 4405   1.843   1.820   3.415  0.2744  0.0545  0.0949
 1160SOL    HW2 4406   1.808   1.898   3.457  0.4808 -0.0629  0.5002
 1160SOL    HW3 4407   1.906   1.785   3.479 -0.8842 -1.2637  0.5777
 1160SOL    MW4 4408   1.847   1.826   3.429  0.1488 -0.1349  0.2121
 1161SOL     OW 4409   1.399   1.160   4.187 -0.1681 -0.4194  0.3715
 1161SOL    HW2 4410   1.395   1.200   4.273 -0.1730  0.2905  0.0480
 1161SOL    HW3 4411   1.345   1.081   4.194 -0.5144 -0.1390  0.8991
 1161SOL    MW4 4412   1.391   1.155   4.199 -0.2144 -0.2887  0.3984
 1162SOL     OW 4413   2.922   1.027   4.413  0.0407 -0.1162  0.5265
 1162SOL    HW2 4414   2.926   1.026   4.318  2.4589 -1.2831  0.5876
 1162SOL    HW3 4415   2.840   0.981   4.434 -2.5154  3.2898 -0.9078
 1162SOL    MW4 4416   2.911   1.021   4.403  0.0225  0.1792  0.3453
 1163SOL     OW 4417   4.069   5.464   5.985  0.4287  0.6214  0.3803
 1163SOL    HW2 4418   4.063   5.485   5.892  2.9091 -2.6006 -0.7121
 1163SOL    HW3 4419   4.163   5.455   6.001 -0.0136 -0.4108  2.8083
 1163SOL    MW4 4420   4.081   5.466   5.975  0.6976  0.0601  0.5565
 1164SOL     OW 4421   2.310   5.161   3.724  0.3182  0.0669  0.7946
 1164SOL    HW2 4422   2.381   5.155   3.787  2.0386  2.6522 -0.7496
 1164SOL    HW3 4423   2.243   5.215   3.767  0.9940  0.8741  0.8514
 1164SOL    MW4 4424   2.310   5.167   3.738  0.6344  0.5145  0.5984
 1165SOL     OW 4425   1.371   5.068   6.025 -0.7356  0.3871  0.6380
 1165SOL    HW2 4426   1.426   5.146   6.027  2.3192 -1.5985  1.1289
 1165SOL    HW3 4427   1.382   5.032   5.937 -1.4001  0.0050  0.7000
 1165SOL    MW4 4428   1.379   5.074   6.014 -0.4203  0.0747  0.7110
 1166SOL     OW 4429   6.271   1.930   3.829 -0.3910  0.1955 -0.1224
 1166SOL    HW2 4430   6.189   1.928   3.878 -0.5240  0.0386 -0.3493
 1166SOL    HW3 4431   6.252   1.882   3.748 -0.5459  1.4906 -0.8854
 1166SOL    MW4 4432   6.258   1.924   3.825 -0.4290  0.3457 -0.2530
 1167SOL     OW 4433   0.579   1.673   3.763 -0.0420  0.1600  0.0044
 1167SOL    HW2 4434   0.507   1.643   3.706  0.2410 -1.8459  0.6033
 1167SOL    HW3 4435   0.546   1.659   3.852 -0.0490  2.1902  0.3667
 1167SOL    MW4 4436   0.565   1.667   3.767 -0.0056  0.1632  0.1312
 1168SOL     OW 4437   0.025   1.869   0.366 -0.6040 -0.1168 -0.1250
 1168SOL    HW2 4438  -0.037   1.942   0.377  1.0037  1.0470  1.8379
 1168SOL    HW3 4439   0.081   1.873   0.443  1.6300 -1.4213 -1.5585
 1168SOL    MW4 4440   0.024   1.879   0.378 -0.0972 -0.1354 -0.0551
 1169SOL     OW 4441   4.141   1.202   2.263 -0.2634 -0.3027  0.2865
 1169SOL    HW2 4442   4.138   1.107   2.266 -2.8081 -0.2834  2.1940
 1169SOL    HW3 4443   4.083   1.226   2.191 -0.7114 -0.2196  0.6669
 1169SOL    MW4 4444   4.133   1.193   2.254 -0.6582 -0.2892  0.5884
 1170SOL     OW 4445   4.167   2.108   3.826  0.2691 -0.6430  0.2748
 1170SOL    HW2 4446   4.077   2.078   3.814  0.7787 -2.6335  1.0922
 1170SOL    HW3 4447   4.211   2.084   3.744 -0.0629  1.0284 -0.4444
 1170SOL    MW4 4448   4.161   2.101   3.813  0.2926 -0.6851  0.2878
 1171SOL     OW 4449   3.080   3.099   2.083  0.2580  0.4633 -0.2916
 1171SOL    HW2 4450   3.107   3.087   2.174  1.4250  2.0281 -0.3936
 1171SOL    HW3 4451   2.991   3.064   2.080 -0.2541  1.4198  1.7347
 1171SOL    MW4 4452   3.072   3.093   2.095  0.3444  0.7960 -0.0377
 1172SOL     OW 4453   5.405   2.337   4.047  0.5414 -0.3291 -0.0815
 1172SOL    HW2 4454   5.452   2.271   3.995  0.9746 -0.8681  0.9804
 1172SOL    HW3 4455   5.453   2.418   4.031  1.1756 -0.6575  0.1293
 1172SOL    MW4 4456   5.417   2.339   4.038  0.6822 -0.4436  0.0864
 1173SOL     OW 4457   5.098   0.035   1.603  0.4349 -0.2872  0.0784
 1173SOL    HW2 4458   5.180   0.051   1.556  0.6353 -1.9214 -0.1968
 1173SOL    HW3 4459   5.126   0.006   1.690  0.1049  0.7345  0.5305
 1173SOL    MW4 4460   5.113   0.033   1.608  0.4178 -0.3680  0.1018
 1174SOL     OW 4461   4.950   4.849   2.776  0.8346 -0.2175  0.1756
 1174SOL    HW2 4462   5.036   4.883   2.750  0.2704  0.1634 -1.2962
 1174SOL    HW3 4463   4.970   4.769   2.824  2.0713  0.7676  1.3899
 1174SOL    MW4 4464   4.964   4.843   2.779  0.9233 -0.0373  0.1416
 1175SOL     OW 4465   6.247   1.047   4.588  0.2623  0.1887  0.2251
 1175SOL    HW2 4466   6.320   1.039   4.649  0.4928  0.2186 -0.0407
 1175SOL    HW3 4467   6.230   0.957   4.560  1.7390  0.3621 -1.4777
 1175SOL    MW4 4468   6.255   1.034   4.592  0.4876  0.2155 -0.0346
 1176SOL     OW 4469   6.001   5.974   4.985 -0.2091  0.6318 -0.3150
 1176SOL    HW2 4470   5.907   5.961   5.000 -0.2178  0.6186 -0.3819
 1176SOL    HW3 4471   6.019   5.930   4.901 -0.1534  0.6788 -0.3277
 1176SOL    MW4 4472   5.991   5.966   4.976 -0.2029  0.6363 -0.3255
 1177SOL     OW 4473   2.389   0.951   5.176 -0.2146 -0.8470 -0.2514
 1177SOL    HW2 4474   2.372   0.922   5.266 -0.4967 -0.8424 -0.3004
 1177SOL    HW3 4475   2.374   0.873   5.122  0.4997 -0.9945 -0.2453
 1177SOL    MW4 4476   2.384   0.937   5.181 -0.1576 -0.8659 -0.2571
 1178SOL     OW 4477   3.855   6.379   4.392 -0.3609  0.1828  0.0822
 1178SOL    HW2 4478   3.826   6.443   4.456 -0.9624  1.2770 -1.2416
 1178SOL    HW3 4479   3.811   6.404   4.311 -0.6487 -1.9306 -0.4736
 1178SOL    MW4 4480   3.845   6.390   4.390 -0.4783  0.0484 -0.1658
 1179SOL     OW 4481   3.689   4.791   2.210  0.1418 -0.2068  0.1847
 1179SOL    HW2 4482   3.715   4.712   2.258  0.5873  0.1744  0.5763
 1179SOL    HW3 4483   3.593   4.789   2.211  0.1280  0.2389  1.8455
 1179SOL    MW4 4484   3.680   4.780   2.216  0.1988 -0.0977  0.4555
 1180SOL     OW 4485   4.466   6.398   1.163  0.2901  0.0613 -0.4077
 1180SOL    HW2 4486   4.382   6.381   1.121 -0.0913 -0.8494  0.6936
 1180SOL    HW3 4487   4.529   6.348   1.111 -0.0742 -0.4715 -0.3464
 1180SOL    MW4 4488   4.463   6.389   1.150  0.1917 -0.1291 -0.2543
 1181SOL     OW 4489   0.325   0.108   0.437 -0.0740 -0.1923 -0.0623
 1181SOL    HW2 4490   0.265   0.159   0.491 -1.1885 -1.5547  0.0332
 1181SOL    HW3 4491   0.316   0.145   0.349 -1.6178 -0.8083 -0.1985
 1181SOL    MW4 4492   0.316   0.120   0.432 -0.4248 -0.4533 -0.0677
 1182SOL     OW 4493   0.573   4.930   2.690  0.0045  0.4818  0.3747
 1182SOL    HW2 4494   0.633   5.004   2.680  0.2675  0.1426 -0.7883
 1182SOL    HW3 4495   0.556   4.925   2.784  0.6277  1.5052  0.5593
 1182SOL    MW4 4496   0.579   4.939   2.701  0.1214  0.5721  0.2456
 1183SOL     OW 4497   3.417   0.849   1.593 -0.6344 -0.4240 -0.0304
 1183SOL    HW2 4498   3.477   0.817   1.525 -0.4945  2.6888 -1.5487
 1183SOL    HW3 4499   3.335   0.864   1.546 -1.4241 -0.8432  1.1704
 1183SOL    MW4 4500   3.414   0.846   1.578 -0.7201 -0.0686 -0.0723
 1184SOL     OW 4501   4.073   1.939   3.563 -0.0488  0.5060  0.0380
 1184SOL    HW2 4502   4.129   1.877   3.610 -0.4290 -0.1923 -0.4174
 1184SOL    HW3 4503   4.007   1.965   3.627 -0.5437 -0.4165 -0.0951
 1184SOL    MW4 4504   4.072   1.934   3.578 -0.1642  0.2922 -0.0396
 1185SOL     OW 4505   1.144   4.626   6.358  0.3226  0.6153  0.4890
 1185SOL    HW2 4506   1.159   4.607   6.266  1.3627  0.6511  0.6434
 1185SOL    HW3 4507   1.109   4.715   6.359 -2.8904 -0.4804 -0.0954
 1185SOL    MW4 4508   1.141   4.635   6.346  0.0359  0.4755  0.4323
 1186SOL     OW 4509   6.175   1.628   1.134 -0.3230 -0.9426  0.1447
 1186SOL    HW2 4510   6.144   1.550   1.180 -0.2799 -0.7432  0.5160
 1186SOL    HW3 4511   6.240   1.667   1.193  0.6501 -1.3600 -0.6242
 1186SOL    MW4 4512   6.180   1.623   1.148 -0.1889 -0.9714  0.0922
 1187SOL     OW 4513   1.202   3.588   4.860 -0.0737 -0.5832 -0.3130
 1187SOL    HW2 4514   1.147   3.625   4.792  1.0553 -1.0999 -1.5565
 1187SOL    HW3 4515   1.208   3.656   4.927  0.6386  0.8760 -1.7932
 1187SOL    MW4 4516   1.196   3.601   4.860  0.1692 -0.4588 -0.6724
 1188SOL     OW 4517   2.199   4.731   2.909 -0.4991  0.3613 -0.2172
 1188SOL    HW2 4518   2.150   4.673   2.967  2.4993 -0.8442  1.3636
 1188SOL    HW3 4519   2.249   4.671   2.853 -1.9271  1.5176 -2.8536
 1188SOL    MW4 4520   2.199   4.715   2.909 -0.2919  0.3548 -0.3565
 1189SOL     OW 4521   1.398   5.162   0.422  0.0214 -0.3092 -0.1685
 1189SOL    HW2 4522   1.450   5.149   0.343  0.7209  1.2620 -0.0121
 1189SOL    HW3 4523   1.320   5.209   0.392 -0.5127 -1.1708 -0.1541
 1189SOL    MW4 4524   1.395   5.166   0.408  0.0432 -0.2156 -0.1459
 1190SOL     OW 4525   5.825   3.593   4.054  0.0409  0.3074 -0.0549
 1190SOL    HW2 4526   5.734   3.622   4.044  0.2038  0.3021 -1.9619
 1190SOL    HW3 4527   5.874   3.673   4.070 -0.2673  0.3369  0.7569
 1190SOL    MW4 4528   5.819   3.607   4.055  0.0217  0.3106 -0.1994
 1191SOL     OW 4529   3.866   5.753   1.642  0.3672  0.1834 -0.1192
 1191SOL    HW2 4530   3.787   5.806   1.637  0.3353  0.3869  1.8021
 1191SOL    HW3 4531   3.935   5.808   1.604 -0.4312 -0.1486 -2.1763
 1191SOL    MW4 4532   3.865   5.767   1.637  0.2576  0.1665 -0.1371
 1192SOL     OW 4533   1.713   1.848   3.013 -0.2873 -0.3908 -0.3295
 1192SOL    HW2 4534   1.725   1.775   3.074 -1.0239 -1.4461 -1.3922
 1192SOL    HW3 4535   1.797   1.855   2.968 -0.8422 -2.0442 -1.7190
 1192SOL    MW4 4536   1.726   1.839   3.015 -0.4577 -0.7482 -0.6530
 1193SOL     OW 4537   2.820   1.620   2.368 -0.1131  0.3542  0.5016
 1193SOL    HW2 4538   2.849   1.709   2.348  0.1934  0.5258  1.6164
 1193SOL    HW3 4539   2.759   1.631   2.441 -0.4810 -0.3083  0.3013
 1193SOL    MW4 4540   2.816   1.634   2.375 -0.1212  0.2895  0.6223
 1194SOL     OW 4541   1.192   5.429   2.604 -0.5024  0.5305  1.0162
 1194SOL    HW2 4542   1.267   5.438   2.663  1.0417  0.0789 -0.7667
 1194SOL    HW3 4543   1.228   5.447   2.517 -1.8361 -2.1502 -0.2220
 1194SOL    MW4 4544   1.207   5.432   2.600 -0.4747  0.1173  0.6176
 1195SOL     OW 4545   1.970   5.440   2.747  0.8072  0.6538  0.0491
 1195SOL    HW2 4546   2.045   5.443   2.807  0.3720  1.5044  0.5688
 1195SOL    HW3 4547   1.931   5.527   2.753 -1.2455 -0.2608  1.1365
 1195SOL    MW4 4548   1.974   5.452   2.756  0.4790  0.6453  0.2611
 1196SOL     OW 4549   5.296   1.161   0.396 -0.4861 -0.2094 -0.3672
 1196SOL    HW2 4550   5.288   1.131   0.487  0.9232 -0.7212 -0.3861
 1196SOL    HW3 4551   5.384   1.199   0.392 -0.5358 -0.2073 -1.5173
 1196SOL    MW4 4552   5.307   1.162   0.408 -0.3067 -0.2766 -0.5215
 1197SOL     OW 4553   1.345   2.399   1.856 -0.2228 -0.0985  0.3057
 1197SOL    HW2 4554   1.314   2.477   1.811  1.2547  0.4967  0.2662
 1197SOL    HW3 4555   1.302   2.326   1.811 -1.8848  0.6722  0.5633
 1197SOL    MW4 4556   1.335   2.400   1.844 -0.2472  0.0817  0.3345
 1198SOL     OW 4557   3.860   2.061   2.256 -0.3895  0.1302  0.1744
 1198SOL    HW2 4558   3.949   2.029   2.265 -1.2784 -2.5906  0.1070
 1198SOL    HW3 4559   3.852   2.086   2.164 -0.5425 -2.5961 -0.6216
 1198SOL    MW4 4560   3.871   2.060   2.245 -0.5270 -0.5884  0.0605
 1199SOL     OW 4561   1.703   2.762   4.239 -0.3963  0.3388  0.5643
 1199SOL    HW2 4562   1.679   2.753   4.331  0.9845 -0.3949  0.8817
 1199SOL    HW3 4563   1.700   2.673   4.204  1.6051  0.1959  0.6066
 1199SOL    MW4 4564   1.699   2.749   4.247  0.0499  0.2231  0.6118
 1200SOL     OW 4565   1.056   4.091   0.736  0.6729  0.0238 -0.2588
 1200SOL    HW2 4566   1.113   4.071   0.810 -1.1904  0.0859  1.2824
 1200SOL    HW3 4567   0.972   4.052   0.759 -0.7748  2.4662 -1.0034
 1200SOL    MW4 4568   1.053   4.083   0.748  0.2361  0.3542 -0.1537
 1201SOL     OW 4569   1.068   4.702   2.479 -0.3880  0.8731 -0.0768
 1201SOL    HW2 4570   1.092   4.609   2.478 -2.0881  0.3901 -0.9399
 1201SOL    HW3 4571   1.032   4.718   2.391  1.9231  2.9794 -0.7631
 1201SOL    MW4 4572   1.066   4.692   2.467 -0.3074  1.0873 -0.2812
 1202SOL     OW 4573   0.314   5.952   2.639 -0.3538 -0.9246  0.3711
 1202SOL    HW2 4574   0.339   6.041   2.664  1.8043 -1.7916  1.5274
 1202SOL    HW3 4575   0.395   5.901   2.646 -1.6565 -3.1213  0.3819
 1202SOL    MW4 4576   0.328   5.957   2.643 -0.2409 -1.3288  0.5251
 1203SOL     OW 4577   4.161   2.191   2.444 -0.0840 -0.0337 -0.2008
 1203SOL    HW2 4578   4.144   2.119   2.505 -3.3637  0.2184 -0.6587
 1203SOL    HW3 4579   4.178   2.266   2.500  0.0404 -0.4425  0.3225
 1203SOL    MW4 4580   4.161   2.191   2.459 -0.5003 -0.0543 -0.1922
 1204SOL     OW 4581   3.175   3.462   2.168  0.3887 -0.3494  0.1669
 1204SOL    HW2 4582   3.247   3.408   2.201  0.0631  0.0395  1.5981
 1204SOL    HW3 4583   3.103   3.401   2.156  0.3470 -0.4265  0.7495
 1204SOL    MW4 4584   3.175   3.447   2.171  0.3402 -0.3083  0.4326
 1205SOL     OW 4585   3.648   5.657   0.758 -0.6222  0.0321  0.3282
 1205SOL    HW2 4586   3.616   5.603   0.831 -1.0363 -0.2488 -0.0565
 1205SOL    HW3 4587   3.628   5.605   0.680  0.5561 -0.0343  0.0633
 1205SOL    MW4 4588   3.641   5.643   0.757 -0.5214 -0.0137  0.2425
 1206SOL     OW 4589   2.701   0.557   0.260 -0.4987 -0.4972 -0.2442
 1206SOL    HW2 4590   2.665   0.510   0.185 -0.7516  0.3145 -0.6399
 1206SOL    HW3 4591   2.715   0.646   0.229 -1.3117  0.0551  0.8922
 1206SOL    MW4 4592   2.698   0.562   0.246 -0.6393 -0.3172 -0.1465
 1207SOL     OW 4593   1.761   0.624   5.263 -0.6258  0.0761  0.0119
 1207SOL    HW2 4594   1.793   0.700   5.312 -1.2519 -0.5431  1.4321
 1207SOL    HW3 4595   1.701   0.661   5.198 -0.6249  0.8271  0.4296
 1207SOL    MW4 4596   1.757   0.639   5.261 -0.7083  0.0935  0.2544
 1208SOL     OW 4597   6.336   6.177   0.375  0.1629  0.6726  0.1892
 1208SOL    HW2 4598   6.397   6.110   0.407  0.4102 -0.4509 -2.3575
 1208SOL    HW3 4599   6.292   6.135   0.301  0.8073  3.5290 -1.9586
 1208SOL    MW4 4600   6.338   6.162   0.370  0.2806  0.9012 -0.4302
 1209SOL     OW 4601   5.128   4.767   1.844  0.2457  0.2435 -0.5682
 1209SOL    HW2 4602   5.079   4.685   1.836  1.2445 -0.2472 -2.6977
 1209SOL    HW3 4603   5.211   4.749   1.799  0.2996  2.5672 -1.5456
 1209SOL    MW4 4604   5.133   4.754   1.837  0.3846  0.4853 -0.9781
 1210SOL     OW 4605   3.151   5.163   6.136 -0.1594  0.5976 -0.2867
 1210SOL    HW2 4606   3.175   5.204   6.219 -0.0538  2.4770 -1.1878
 1210SOL    HW3 4607   3.062   5.194   6.118 -0.1021  0.3903 -0.9596
 1210SOL    MW4 4608   3.143   5.173   6.144 -0.1379  0.8182 -0.4944
 1211SOL     OW 4609   5.324   2.345   5.109 -0.0722  0.0064 -0.1007
 1211SOL    HW2 4610   5.260   2.279   5.135 -1.8956  2.2632  1.5457
 1211SOL    HW3 4611   5.387   2.347   5.181 -0.3990  0.4926  0.1778
 1211SOL    MW4 4612   5.324   2.336   5.122 -0.3559  0.3683  0.1533
 1212SOL     OW 4613   5.013   4.617   4.886  0.5479  0.1158 -0.0880
 1212SOL    HW2 4614   5.084   4.630   4.949 -0.3732 -0.1680  1.0414
 1212SOL    HW3 4615   4.939   4.666   4.923 -0.3701 -1.0814 -0.2919
 1212SOL    MW4 4616   5.012   4.625   4.899  0.3053 -0.0796  0.0341
 1213SOL     OW 4617   3.794   5.840   3.884  0.2506 -0.1738  0.2231
 1213SOL    HW2 4618   3.853   5.902   3.839 -1.1965  0.6270 -0.6413
 1213SOL    HW3 4619   3.755   5.892   3.954 -1.6991  0.2302 -1.0971
 1213SOL    MW4 4620   3.797   5.855   3.887 -0.1976 -0.0148 -0.0651
 1214SOL     OW 4621   2.742   5.088   3.016 -0.2580 -0.2054  0.2015
 1214SOL    HW2 4622   2.759   4.994   3.017 -1.7704 -0.5032  0.0856
 1214SOL    HW3 4623   2.824   5.127   2.986  0.7042 -1.4057  1.1713
 1214SOL    MW4 4624   2.755   5.081   3.012 -0.3306 -0.4031  0.3141
 1215SOL     OW 4625   0.098   5.550   1.873 -0.1699  0.2324  0.1806
 1215SOL    HW2 4626   0.194   5.545   1.876 -0.0528  1.1193 -1.2744
 1215SOL    HW3 4627   0.078   5.638   1.907 -0.3585  0.6200 -0.9064
 1215SOL    MW4 4628   0.108   5.561   1.878 -0.1793  0.4006 -0.1548
 1216SOL     OW 4629   4.747   2.818   0.089  0.4857 -0.5455  0.2304
 1216SOL    HW2 4630   4.654   2.797   0.086  0.2346  0.6309 -1.7501
 1216SOL    HW3 4631   4.785   2.769   0.016  1.3002 -0.4055  0.5429
 1216SOL    MW4 4632   4.740   2.809   0.079  0.5601 -0.3718  0.0103
 1217SOL     OW 4633   4.044   0.923   0.564  0.5722 -0.4765 -0.0635
 1217SOL    HW2 4634   4.096   0.848   0.590  1.0477 -0.0551  0.2155
 1217SOL    HW3 4635   4.069   0.992   0.625  1.4035  0.4088 -1.3528
 1217SOL    MW4 4636   4.054   0.922   0.575  0.7446 -0.3041 -0.1968
 1218SOL     OW 4637   5.563   6.417   2.213 -0.8666 -0.2564 -0.4449
 1218SOL    HW2 4638   5.608   6.501   2.200 -0.9772  0.1061  1.3419
 1218SOL    HW3 4639   5.470   6.441   2.222 -0.8993 -0.5674  0.0568
 1218SOL    MW4 4640   5.556   6.431   2.212 -0.8855 -0.2496 -0.1430
 1219SOL     OW 4641   4.244   1.193   3.948 -0.2107 -0.2006 -0.3857
 1219SOL    HW2 4642   4.179   1.173   3.880 -3.0999  1.2968  1.7208
 1219SOL    HW3 4643   4.274   1.108   3.978 -2.1477 -1.0214 -0.6287
 1219SOL    MW4 4644   4.239   1.180   3.943 -0.8475 -0.1113 -0.1399
 1220SOL     OW 4645   5.842   2.020   2.351 -0.4288  0.9303  0.6930
 1220SOL    HW2 4646   5.884   2.102   2.326 -1.2524  1.4689  0.9988
 1220SOL    HW3 4647   5.910   1.970   2.396  0.1487  1.3375  0.2864
 1220SOL    MW4 4648   5.856   2.024   2.354 -0.4613  1.0551  0.6797
 1221SOL     OW 4649   3.860   0.955   1.259  0.3336 -0.5369 -0.3970
 1221SOL    HW2 4650   3.937   1.011   1.258 -0.3456  0.4285 -0.3941
 1221SOL    HW3 4651   3.817   0.971   1.175 -0.5026 -0.1350  0.0923
 1221SOL    MW4 4652   3.865   0.964   1.248  0.1337 -0.3565 -0.3321
 1222SOL     OW 4653   0.587   3.081   5.315  0.2281  0.0725  0.1373
 1222SOL    HW2 4654   0.538   3.045   5.389 -0.7047 -1.6113 -1.2229
 1222SOL    HW3 4655   0.669   3.032   5.314  0.4489  0.4310  0.3202
 1222SOL    MW4 4656   0.591   3.070   5.325  0.1341 -0.1023 -0.0180
 1223SOL     OW 4657   5.465   2.233   4.285 -0.1923  0.7965  0.1286
 1223SOL    HW2 4658   5.541   2.280   4.321  1.1875 -0.3483 -1.1645
 1223SOL    HW3 4659   5.445   2.278   4.203 -0.1375  0.3671 -0.1227
 1223SOL    MW4 4660   5.473   2.245   4.279 -0.0030  0.5888 -0.0751
 1224SOL     OW 4661   0.335   2.446   3.403 -0.1160 -0.7419 -0.2670
 1224SOL    HW2 4662   0.414   2.392   3.409  0.9258  0.7540 -0.1015
 1224SOL    HW3 4663   0.299   2.446   3.492  0.0040 -0.9597 -0.2174
 1224SOL    MW4 4664   0.341   2.439   3.416  0.0373 -0.5733 -0.2386
 1225SOL     OW 4665   2.426   6.391   5.588  0.1860  0.3977  0.6208
 1225SOL    HW2 4666   2.410   6.475   5.632  1.5465 -0.7073  3.5009
 1225SOL    HW3 4667   2.520   6.393   5.568 -0.1404  0.2803 -1.0329
 1225SOL    MW4 4668   2.437   6.402   5.591  0.3224  0.2364  0.7826
 1226SOL     OW 4669   5.012   0.051   5.244  0.1668 -0.1523  0.0528
 1226SOL    HW2 4670   4.949   0.123   5.253  0.1034 -0.2164  0.1292
 1226SOL    HW3 4671   4.959  -0.028   5.253  0.2479 -0.2077  0.0475
 1226SOL    MW4 4672   4.997   0.050   5.247  0.1691 -0.1681  0.0622
 1227SOL     OW 4673   5.179   6.446   4.564  0.2650 -0.1531 -0.3937
 1227SOL    HW2 4674   5.261   6.460   4.611 -0.3062 -0.2401  0.6561
 1227SOL    HW3 4675   5.124   6.396   4.625 -0.3335 -0.6768 -1.3297
 1227SOL    MW4 4676   5.182   6.441   4.579  0.1107 -0.2337 -0.3787
 1228SOL     OW 4677   0.294   5.823   3.171 -0.1361  0.0700  0.2338
 1228SOL    HW2 4678   0.298   5.918   3.185 -0.0457 -0.0109  0.7859
 1228SOL    HW3 4679   0.379   5.791   3.202  0.3892 -0.0365 -1.2607
 1228SOL    MW4 4680   0.306   5.831   3.177 -0.0549  0.0452  0.1095
 1229SOL     OW 4681   4.912   6.229   0.696  0.4790 -0.2842 -0.1033
 1229SOL    HW2 4682   4.929   6.136   0.680 -1.8056 -0.7388 -0.2215
 1229SOL    HW3 4683   4.878   6.261   0.612 -0.6818  0.1457  0.5154
 1229SOL    MW4 4684   4.910   6.221   0.683  0.0244 -0.2875 -0.0373
 1230SOL     OW 4685   0.355   2.730   5.346 -0.0363 -0.4818  0.4024
 1230SOL    HW2 4686   0.338   2.752   5.254 -2.9500 -0.3563  0.8705
 1230SOL    HW3 4687   0.334   2.637   5.353 -2.7760  0.1117  1.4295
 1230SOL    MW4 4688   0.350   2.721   5.335 -0.7822 -0.3869  0.5997
 1231SOL     OW 4689   1.082   5.063   1.783 -0.1453 -0.0774 -0.1805
 1231SOL    HW2 4690   1.133   5.120   1.840 -1.0218  0.5045  0.0351
 1231SOL    HW3 4691   1.148   5.021   1.726  0.5813  0.5264  0.1963
 1231SOL    MW4 4692   1.098   5.065   1.783 -0.1651  0.0790 -0.1024
 1232SOL     OW 4693   4.152   4.476   1.596  0.2235  0.3032  0.4944
 1232SOL    HW2 4694   4.220   4.423   1.638  0.8775  1.4649  0.9549
 1232SOL    HW3 4695   4.184   4.566   1.603 -1.3432  0.8836  0.6818
 1232SOL    MW4 4696   4.165   4.481   1.603  0.1031  0.5331  0.5799
 1233SOL     OW 4697   5.080   5.358   0.595  0.1733  0.5315 -0.5896
 1233SOL    HW2 4698   5.050   5.297   0.663  0.9361  0.0572 -0.6675
 1233SOL    HW3 4699   5.028   5.438   0.610  1.3063  0.9611  1.4827
 1233SOL    MW4 4700   5.069   5.361   0.606  0.4234  0.5256 -0.3265
 1234SOL     OW 4701   1.625   3.307   3.176  0.2086  0.0808  0.0652
 1234SOL    HW2 4702   1.584   3.341   3.096  0.8266  1.1607  0.1881
 1234SOL    HW3 4703   1.562   3.242   3.209 -1.3260  1.5178  0.1370
 1234SOL    MW4 4704   1.611   3.303   3.170  0.0877  0.4128  0.0909
 1235SOL     OW 4705   0.057   2.859   4.655 -0.5363  0.5251  0.6783
 1235SOL    HW2 4706   0.113   2.868   4.578  1.5841  0.3541  2.0984
 1235SOL    HW3 4707   0.003   2.782   4.636  1.1438 -0.5701  0.0168
 1235SOL    MW4 4708   0.058   2.850   4.642 -0.0349  0.3580  0.7784
 1236SOL     OW 4709   5.212   4.640   1.224  0.2437  0.1150 -0.8724
 1236SOL    HW2 4710   5.175   4.694   1.294  0.4563 -2.5877  1.5190
 1236SOL    HW3 4711   5.140   4.626   1.163 -0.6801  0.5135  0.1053
 1236SOL    MW4 4712   5.198   4.646   1.225  0.1498 -0.1890 -0.4279
 1237SOL     OW 4713   3.867   5.460   4.638  0.1294  0.3698  0.4060
 1237SOL    HW2 4714   3.813   5.382   4.653  0.9453 -0.1881  0.4889
 1237SOL    HW3 4715   3.803   5.530   4.624 -0.6204 -0.2719  0.5052
 1237SOL    MW4 4716   3.851   5.459   4.638  0.1382  0.2115  0.4300
 1238SOL     OW 4717   3.412   4.041   0.012 -0.2051  0.5114  0.2987
 1238SOL    HW2 4718   3.387   4.069  -0.076 -0.8748  2.3523  1.0340
 1238SOL    HW3 4719   3.506   4.024   0.006 -0.1992  0.8410 -0.7135
 1238SOL    MW4 4720   3.421   4.042   0.000 -0.2927  0.7978  0.2622
 1239SOL     OW 4721   0.660   0.177   0.204  0.2423  0.5976  0.3198
 1239SOL    HW2 4722   0.578   0.187   0.156 -0.7071 -1.2517  1.4747
 1239SOL    HW3 4723   0.705   0.261   0.192 -2.1045  1.9073  0.2056
 1239SOL    MW4 4724   0.655   0.190   0.196 -0.1926  0.5264  0.4571
 1240SOL     OW 4725   1.170   4.681   1.508  0.4163 -0.0127  0.2209
 1240SOL    HW2 4726   1.108   4.718   1.445  1.7518  0.9418 -0.5987
 1240SOL    HW3 4727   1.238   4.640   1.454  0.8782 -0.3932  1.0659
 1240SOL    MW4 4728   1.171   4.681   1.493  0.6534  0.0631  0.2242
 1241SOL     OW 4729   5.824   2.697   4.164  0.2366 -0.0436  0.4914
 1241SOL    HW2 4730   5.783   2.776   4.198 -0.6345 -0.8470  1.3486
 1241SOL    HW3 4731   5.838   2.715   4.071 -1.7204  0.3899  0.2508
 1241SOL    MW4 4732   5.821   2.710   4.156 -0.1365 -0.0924  0.5727
 1242SOL     OW 4733   1.217   6.315   0.047 -1.1289 -0.0148 -0.6889
 1242SOL    HW2 4734   1.272   6.373   0.100 -0.3621 -0.7256 -0.6961
 1242SOL    HW3 4735   1.256   6.228   0.058 -1.7844 -0.3982 -1.3258
 1242SOL    MW4 4736   1.229   6.311   0.055 -1.1142 -0.1591 -0.7739
 1243SOL     OW 4737   3.421   1.392   5.371 -0.1229 -0.1328  0.1272
 1243SOL    HW2 4738   3.457   1.477   5.347  0.9295 -0.8950 -1.1014
 1243SOL    HW3 4739   3.463   1.371   5.454  1.3404 -0.4255 -0.6531
 1243SOL    MW4 4740   3.431   1.400   5.379  0.2090 -0.2720 -0.1378
 1244SOL     OW 4741   2.267   0.813   3.847 -0.1433 -0.0518 -0.5413
 1244SOL    HW2 4742   2.216   0.872   3.903  3.1883  1.0660  1.6219
 1244SOL    HW3 4743   2.262   0.852   3.760 -0.6123  1.6593  0.2039
 1244SOL    MW4 4744   2.260   0.826   3.843  0.2344  0.3214 -0.1576
 1245SOL     OW 4745   0.067   1.236   2.456  0.6274 -0.2167 -0.1174
 1245SOL    HW2 4746   0.035   1.255   2.544  1.1190 -0.0100  0.0200
 1245SOL    HW3 4747   0.061   1.141   2.448  1.6530 -0.3579  0.5651
 1245SOL    MW4 4748   0.062   1.226   2.466  0.8276 -0.2080 -0.0092
 1246SOL     OW 4749   3.292   4.546   4.512 -0.0281 -0.2790 -0.2909
 1246SOL    HW2 4750   3.236   4.525   4.437 -1.5919  1.2520  0.3877
 1246SOL    HW3 4751   3.232   4.546   4.587  0.9250  1.0904  0.5143
 1246SOL    MW4 4752   3.277   4.543   4.512 -0.1086  0.1037 -0.0951
 1247SOL     OW 4753   1.581   1.892   6.081 -0.1487  0.0494 -0.0329
 1247SOL    HW2 4754   1.574   1.816   6.024  0.2414 -0.2911  0.3632
 1247SOL    HW3 4755   1.524   1.872   6.155 -1.5226  0.9695 -0.8005
 1247SOL    MW4 4756   1.573   1.880   6.083 -0.2785  0.1259 -0.0819
 1248SOL     OW 4757   3.883   4.598   3.268  0.4387 -0.0714 -0.7947
 1248SOL    HW2 4758   3.874   4.549   3.187 -0.8591  1.1836 -1.4473
 1248SOL    HW3 4759   3.954   4.661   3.251  0.8871 -0.5152 -0.5794
 1248SOL    MW4 4760   3.891   4.600   3.255  0.3266  0.0356 -0.8524
 1249SOL     OW 4761   2.032   2.039   4.745 -0.2851 -0.1187  0.1070
 1249SOL    HW2 4762   1.968   2.023   4.676  0.1473 -1.4481 -0.0198
 1249SOL    HW3 4763   2.117   2.040   4.700 -0.2282  2.7538  0.0996
 1249SOL    MW4 4764   2.035   2.037   4.730 -0.2205  0.0849  0.0893
 1250SOL     OW 4765   1.308   3.798   1.968  0.6245 -0.2192  0.5451
 1250SOL    HW2 4766   1.366   3.835   2.033  0.2110 -0.4375  1.0456
 1250SOL    HW3 4767   1.364   3.745   1.912  1.0748  0.4361  0.3670
 1250SOL    MW4 4768   1.323   3.796   1.969  0.6293 -0.1615  0.5876
 1251SOL     OW 4769   5.771   0.743   0.695  0.2246 -0.0757  0.1007
 1251SOL    HW2 4770   5.737   0.794   0.768  0.9103  0.3683  0.1193
 1251SOL    HW3 4771   5.802   0.808   0.632  2.9202 -0.3913  0.9695
 1251SOL    MW4 4772   5.771   0.758   0.696  0.6707 -0.0588  0.2178
 1252SOL     OW 4773   2.125   5.771   0.603 -0.4256 -0.0196 -0.2968
 1252SOL    HW2 4774   2.056   5.714   0.569 -0.2044 -0.5239  0.0768
 1252SOL    HW3 4775   2.116   5.766   0.698 -1.5695  2.0361 -0.2376
 1252SOL    MW4 4776   2.115   5.763   0.611 -0.5474  0.1851 -0.2397
 1253SOL     OW 4777   4.116   2.518   4.987  0.9331  0.1525  0.2206
 1253SOL    HW2 4778   4.179   2.583   5.017  1.1446  0.3821 -0.6817
 1253SOL    HW3 4779   4.170   2.446   4.953  0.7097 -0.8160  1.8209
 1253SOL    MW4 4780   4.132   2.517   4.987  0.9315  0.0550  0.3127
 1254SOL     OW 4781   6.121   2.548   2.456 -0.5759  0.1789  0.6820
 1254SOL    HW2 4782   6.164   2.507   2.531 -0.3677  0.6178  0.8070
 1254SOL    HW3 4783   6.160   2.505   2.380  0.0598  0.5375  0.7972
 1254SOL    MW4 4784   6.132   2.537   2.456 -0.4645  0.2841  0.7137
 1255SOL     OW 4785   3.084   3.061   5.565  0.0291  0.3444 -0.2775
 1255SOL    HW2 4786   3.104   3.130   5.503  1.2426  2.7946  2.5593
 1255SOL    HW3 4787   2.992   3.074   5.588 -1.1280 -2.0048 -3.0095
 1255SOL    MW4 4788   3.075   3.072   5.560  0.0366  0.3577 -0.2637
 1256SOL     OW 4789   1.810   1.023   2.492 -0.0038 -0.2650 -0.2949
 1256SOL    HW2 4790   1.772   1.000   2.577 -1.1865  1.2796 -0.3646
 1256SOL    HW3 4791   1.894   0.977   2.490 -0.5099 -1.3298  1.1677
 1256SOL    MW4 4792   1.816   1.014   2.503 -0.2266 -0.2017 -0.1112
 1257SOL     OW 4793   2.026   1.965   3.802 -0.0919 -0.4529 -0.2626
 1257SOL    HW2 4794   1.941   2.002   3.774  0.5407  0.2730 -1.2986
 1257SOL    HW3 4795   2.034   1.884   3.752 -0.4212 -0.8308  0.2771
 1257SOL    MW4 4796   2.016   1.959   3.792 -0.0519 -0.4070 -0.3281
 1258SOL     OW 4797   0.580   6.399   0.869  0.6686  0.2390 -0.2134
 1258SOL    HW2 4798   0.548   6.482   0.904  0.6377 -0.5562  1.8138
 1258SOL    HW3 4799   0.507   6.363   0.820  0.4925  1.1458 -0.6199
 1258SOL    MW4 4800   0.566   6.405   0.867  0.6413  0.2537  0.0004
 1259SOL     OW 4801   5.473   1.231   0.688 -0.3703 -0.2412 -0.3667
 1259SOL    HW2 4802   5.406   1.297   0.706 -0.1057  0.7069 -2.5147
 1259SOL    HW3 4803   5.425   1.148   0.687 -0.7028 -0.1514  2.3956
 1259SOL    MW4 4804   5.458   1.229   0.690 -0.3793 -0.1043 -0.2856
 1260SOL     OW 4805   0.880   5.562   5.305 -0.0033 -0.6200 -0.0186
 1260SOL    HW2 4806   0.944   5.527   5.367  0.4218 -0.4517 -0.3559
 1260SOL    HW3 4807   0.827   5.622   5.357 -0.2590 -1.1930  0.3950
 1260SOL    MW4 4808   0.882   5.565   5.320  0.0191 -0.6734 -0.0085
 1261SOL     OW 4809   4.279   0.698   4.586 -0.5822  0.5105 -0.2426
 1261SOL    HW2 4810   4.194   0.723   4.622 -0.7801 -0.0521 -0.3150
 1261SOL    HW3 4811   4.290   0.755   4.509 -2.2917 -1.4659 -2.0778
 1261SOL    MW4 4812   4.269   0.709   4.581 -0.8339  0.1755 -0.4943
 1262SOL     OW 4813   3.247   0.888   5.149 -0.4368  0.1795 -0.4446
 1262SOL    HW2 4814   3.185   0.869   5.079  0.1086  0.6627 -1.0690
 1262SOL    HW3 4815   3.206   0.958   5.200 -0.9097 -0.2891 -0.1664
 1262SOL    MW4 4816   3.233   0.894   5.147 -0.4272  0.1814 -0.4903
 1263SOL     OW 4817   3.105   3.661   4.032 -0.3288 -0.5535  0.0455
 1263SOL    HW2 4818   3.054   3.739   4.055  0.1848 -0.1567 -0.1442
 1263SOL    HW3 4819   3.180   3.695   3.983 -1.1099 -1.3311 -1.7504
 1263SOL    MW4 4820   3.108   3.676   4.029 -0.3641 -0.6038 -0.2165
 1264SOL     OW 4821   5.085   5.138   3.351 -0.3996  0.8219  0.3130
 1264SOL    HW2 4822   5.102   5.046   3.334 -1.0965  0.8372 -0.4666
 1264SOL    HW3 4823   4.999   5.155   3.313  0.0050  1.9522 -0.1346
 1264SOL    MW4 4824   5.076   5.128   3.344 -0.4382  0.9730  0.1511
 1265SOL     OW 4825   5.780   3.753   0.903  0.3928  0.2102 -0.3158
 1265SOL    HW2 4826   5.763   3.662   0.927  3.3341  0.3332  3.2328
 1265SOL    HW3 4827   5.861   3.775   0.951 -0.7819  5.0046 -0.0602
 1265SOL    MW4 4828   5.789   3.744   0.913  0.6259  0.8590  0.1861
 1266SOL     OW 4829   4.493   3.766   2.889  0.3581 -0.4713 -0.2128
 1266SOL    HW2 4830   4.403   3.739   2.905 -0.0582  0.7601 -0.4173
 1266SOL    HW3 4831   4.539   3.746   2.971 -0.3264 -0.1613  0.2570
 1266SOL    MW4 4832   4.487   3.760   2.902  0.2129 -0.2680 -0.1778
 1267SOL     OW 4833   3.140   2.895   4.145 -0.0885  0.1015 -0.2499
 1267SOL    HW2 4834   3.232   2.872   4.132  0.5644  3.0700 -1.6739
 1267SOL    HW3 4835   3.092   2.827   4.097  1.3763 -1.1203 -0.0578
 1267SOL    MW4 4836   3.146   2.883   4.137  0.1909  0.3319 -0.4125
 1268SOL     OW 4837   1.096   2.399   2.485 -0.4837  0.0608 -0.7041
 1268SOL    HW2 4838   1.009   2.425   2.456 -0.0176  0.8862 -1.3930
 1268SOL    HW3 4839   1.081   2.321   2.539 -1.4633 -1.2047 -2.6666
 1268SOL    MW4 4840   1.083   2.392   2.488 -0.5515  0.0027 -1.0540
 1269SOL     OW 4841   4.518   2.773   1.801  0.3770 -0.7067 -0.0249
 1269SOL    HW2 4842   4.463   2.798   1.875  0.9495 -1.0233  0.5193
 1269SOL    HW3 4843   4.605   2.759   1.839  0.5664 -1.3725 -0.6666
 1269SOL    MW4 4844   4.523   2.774   1.816  0.4775 -0.8363 -0.0377
 1270SOL     OW 4845   3.031   6.238   5.374  0.0226 -0.2494  0.1676
 1270SOL    HW2 4846   3.090   6.189   5.317 -0.4674  1.9094 -2.3988
 1270SOL    HW3 4847   3.083   6.311   5.406 -0.9500  1.2872 -1.5652
 1270SOL    MW4 4848   3.045   6.241   5.370 -0.1703  0.2381 -0.3996
 1271SOL     OW 4849   2.630   5.870   4.538 -0.1787 -0.7009 -0.5679
 1271SOL    HW2 4850   2.587   5.825   4.466 -0.4286 -2.2254  0.4763
 1271SOL    HW3 4851   2.610   5.817   4.615 -0.0937  0.9734  0.6741
 1271SOL    MW4 4852   2.622   5.857   4.539 -0.2005 -0.6811 -0.2663
 1272SOL     OW 4853   1.273   5.400   3.828  0.3048  0.1544 -0.0216
 1272SOL    HW2 4854   1.289   5.398   3.733  0.8801 -0.3104  0.0794
 1272SOL    HW3 4855   1.249   5.491   3.846  0.5513  0.3338 -0.5556
 1272SOL    MW4 4856   1.272   5.412   3.818  0.4132  0.1168 -0.0787
 1273SOL     OW 4857   4.557   0.873   5.937 -0.0626  0.0109  0.5874
 1273SOL    HW2 4858   4.526   0.784   5.921  0.3633 -0.0220 -0.1189
 1273SOL    HW3 4859   4.649   0.861   5.963 -0.0426  0.2330  0.6163
 1273SOL    MW4 4860   4.565   0.860   5.938 -0.0038  0.0358  0.4980
 1274SOL     OW 4861   2.111   0.846   5.352 -0.1564  0.2784  0.5757
 1274SOL    HW2 4862   2.035   0.820   5.405 -0.6766  1.7506  0.5890
 1274SOL    HW3 4863   2.134   0.933   5.384  0.8088  0.3380 -0.2365
 1274SOL    MW4 4864   2.104   0.854   5.364 -0.0977  0.4805  0.4703
 1275SOL     OW 4865   4.088   1.049   0.274  0.6053 -0.6090 -0.1466
 1275SOL    HW2 4866   4.071   1.005   0.357 -1.2324 -0.8545 -0.5964
 1275SOL    HW3 4867   4.026   1.009   0.213  0.6987  0.7849 -1.2088
 1275SOL    MW4 4868   4.077   1.038   0.277  0.3752 -0.4575 -0.3461
 1276SOL     OW 4869   3.336   5.870   5.099 -0.3697 -0.4399 -0.3797
 1276SOL    HW2 4870   3.318   5.886   5.007 -0.0949 -0.7579 -0.4886
 1276SOL    HW3 4871   3.426   5.839   5.101 -0.4625 -0.6960 -0.0320
 1276SOL    MW4 4872   3.345   5.868   5.087 -0.3457 -0.5157 -0.3482
 1277SOL     OW 4873   2.230   4.326   2.571 -0.0426 -0.2057 -0.1519
 1277SOL    HW2 4874   2.321   4.301   2.554 -0.2194 -0.3100 -0.9810
 1277SOL    HW3 4875   2.194   4.254   2.622  0.4599  0.0429  0.5705
 1277SOL    MW4 4876   2.237   4.314   2.576  0.0004 -0.1867 -0.1660
 1278SOL     OW 4877   2.615   4.805   3.642 -0.0009 -0.2908 -0.3485
 1278SOL    HW2 4878   2.668   4.875   3.605 -0.1797 -1.2798 -2.6580
 1278SOL    HW3 4879   2.677   4.733   3.656 -0.0671 -0.1633  0.6830
 1278SOL    MW4 4880   2.630   4.804   3.639 -0.0332 -0.4044 -0.5171
 1279SOL     OW 4881   4.681   0.203   3.294  0.5855 -0.1212 -0.4117
 1279SOL    HW2 4882   4.746   0.257   3.250  0.2975  0.9127  0.3992
 1279SOL    HW3 4883   4.597   0.233   3.259  0.3539  0.6903  0.7772
 1279SOL    MW4 4884   4.678   0.214   3.284  0.5169  0.1223 -0.1478
 1280SOL     OW 4885   5.012   4.619   4.013 -0.5857  0.6771  0.3803
 1280SOL    HW2 4886   5.033   4.709   4.037  1.2818  0.6286 -0.8964
 1280SOL    HW3 4887   5.085   4.568   4.048 -1.9767 -0.4814  1.7232
 1280SOL    MW4 4888   5.024   4.624   4.021 -0.5228  0.5179  0.3891
 1281SOL     OW 4889   0.837   1.751   1.350  0.1765 -0.0566 -0.1384
 1281SOL    HW2 4890   0.926   1.785   1.348 -0.6900  2.4744  0.0468
 1281SOL    HW3 4891   0.846   1.658   1.367  2.7284  0.3831  1.2935
 1281SOL    MW4 4892   0.850   1.743   1.352  0.3989  0.3354  0.0749
 1282SOL     OW 4893   0.433   6.055   0.649  0.2979 -0.2420 -0.3148
 1282SOL    HW2 4894   0.518   6.028   0.684  0.1404  0.7442  0.9003
 1282SOL    HW3 4895   0.453   6.096   0.565  0.9519 -0.5713 -0.3235
 1282SOL    MW4 4896   0.447   6.057   0.643  0.3634 -0.1554 -0.1557
 1283SOL     OW 4897   3.140   5.101   2.127 -0.2420 -0.7389  0.0895
 1283SOL    HW2 4898   3.221   5.122   2.082  0.1782 -2.0048  0.2065
 1283SOL    HW3 4899   3.096   5.185   2.139  1.7362  0.2000  1.3922
 1283SOL    MW4 4900   3.145   5.115   2.123  0.0745 -0.7821  0.2768
 1284SOL     OW 4901   4.432   5.755   3.345  0.3026  0.1968  0.2176
 1284SOL    HW2 4902   4.405   5.716   3.262  0.3380  0.9363 -0.1572
 1284SOL    HW3 4903   4.357   5.743   3.402  0.1877 -0.1158  0.0032
 1284SOL    MW4 4904   4.418   5.748   3.341  0.2921  0.2532  0.1398
 1285SOL     OW 4905   4.593   4.701   2.527  0.1843  0.2590 -0.2082
 1285SOL    HW2 4906   4.514   4.711   2.474 -1.6342 -1.2455  2.0299
 1285SOL    HW3 4907   4.599   4.783   2.575 -1.0295 -0.2096  0.8084
 1285SOL    MW4 4908   4.583   4.713   2.526 -0.2158 -0.0013  0.2212
 1286SOL     OW 4909   1.705   2.361   6.153 -0.4044 -0.3730  0.1188
 1286SOL    HW2 4910   1.702   2.330   6.063 -2.5249  0.2731 -0.0963
 1286SOL    HW3 4911   1.615   2.351   6.185 -0.0495  0.8399  1.6534
 1286SOL    MW4 4912   1.692   2.356   6.145 -0.6374 -0.1277  0.2929
 1287SOL     OW 4913   0.787   5.966   1.462  0.2062 -0.4680  0.8529
 1287SOL    HW2 4914   0.797   5.886   1.514 -2.0092  0.4916  2.9903
 1287SOL    HW3 4915   0.827   6.034   1.516 -1.4046  0.4344  0.9573
 1287SOL    MW4 4916   0.794   5.964   1.476 -0.2986 -0.2223  1.1486
 1288SOL     OW 4917   4.525   4.825   4.140 -0.2496  0.3760 -0.2993
 1288SOL    HW2 4918   4.437   4.792   4.123  0.0558 -0.1063 -0.9905
 1288SOL    HW3 4919   4.558   4.849   4.054 -0.0130  1.3548  0.0544
 1288SOL    MW4 4920   4.518   4.824   4.127 -0.1781  0.4415 -0.3438
 1289SOL     OW 4921   1.299   1.531   2.123  0.0878  0.1794 -0.1594
 1289SOL    HW2 4922   1.265   1.590   2.190 -1.3120  1.3479 -1.8015
 1289SOL    HW3 4923   1.389   1.559   2.109  0.0702  0.5794  0.5108
 1289SOL    MW4 4924   1.306   1.543   2.130 -0.0992  0.3864 -0.2876
 1290SOL     OW 4925   6.360   1.796   6.254  0.0635  0.6781 -0.3616
 1290SOL    HW2 4926   6.266   1.807   6.272 -0.0111 -0.3523 -0.0983
 1290SOL    HW3 4927   6.403   1.845   6.325 -0.2650  0.9861 -0.3662
 1290SOL    MW4 4928   6.353   1.804   6.266  0.0103  0.5828 -0.3274
 1291SOL     OW 4929   5.629   3.506   2.499  0.2781 -0.1572 -0.3443
 1291SOL    HW2 4930   5.562   3.558   2.455 -1.4192 -1.9701 -0.0387
 1291SOL    HW3 4931   5.627   3.421   2.455  0.5871 -1.0685  1.2945
 1291SOL    MW4 4932   5.620   3.501   2.488  0.0949 -0.5167 -0.0878
 1292SOL     OW 4933   5.003   4.487   3.756 -0.2202 -0.3455  0.1718
 1292SOL    HW2 4934   5.071   4.420   3.748  0.6126  0.4939  0.0445
 1292SOL    HW3 4935   5.006   4.513   3.848  1.7754  1.8372 -0.4221
 1292SOL    MW4 4936   5.013   4.481   3.767  0.1529  0.0533  0.0767
 1293SOL     OW 4937   0.392   1.717   0.254 -0.3273  0.0702 -0.5513
 1293SOL    HW2 4938   0.469   1.661   0.269  0.0673  0.7082 -0.1390
 1293SOL    HW3 4939   0.418   1.774   0.181  0.7466  2.2545  1.3898
 1293SOL    MW4 4940   0.406   1.717   0.247 -0.1336  0.4426 -0.2408
 1294SOL     OW 4941   0.417   5.271   5.285  0.5644 -0.0571 -0.0782
 1294SOL    HW2 4942   0.391   5.185   5.251  0.0003 -0.1008  0.4603
 1294SOL    HW3 4943   0.466   5.311   5.213  3.4353 -1.9983  0.6509
 1294SOL    MW4 4944   0.420   5.265   5.271  0.8687 -0.3190  0.0891
 1295SOL     OW 4945   0.894   3.347   1.412 -0.1221  0.1284  0.1019
 1295SOL    HW2 4946   0.871   3.265   1.456 -1.9429  0.4299 -0.2207
 1295SOL    HW3 4947   0.811   3.392   1.400  0.5577  0.9497 -1.8834
 1295SOL    MW4 4948   0.880   3.342   1.416 -0.2726  0.2765 -0.2026
 1296SOL     OW 4949   4.591   3.927   2.046 -0.4117 -0.0893 -0.5837
 1296SOL    HW2 4950   4.578   4.019   2.023  0.7672 -0.1623 -1.6137
 1296SOL    HW3 4951   4.523   3.880   1.998 -0.8309  0.1904 -0.2824
 1296SOL    MW4 4952   4.580   3.933   2.037 -0.3115 -0.0620 -0.6798
 1297SOL     OW 4953   5.406   4.382   3.933 -0.0829 -0.0067  0.1723
 1297SOL    HW2 4954   5.464   4.430   3.874  1.0955 -1.9292 -0.2961
 1297SOL    HW3 4955   5.425   4.418   4.020  1.5398 -0.2942 -0.0312
 1297SOL    MW4 4956   5.416   4.393   3.937  0.2867 -0.2983  0.0837
 1298SOL     OW 4957   3.076   3.454   3.741 -0.4393 -0.1553 -0.2397
 1298SOL    HW2 4958   3.014   3.437   3.670  0.8601 -2.5105 -0.9255
 1298SOL    HW3 4959   3.126   3.531   3.712 -0.8119 -0.2884 -1.2559
 1298SOL    MW4 4960   3.075   3.462   3.728 -0.3170 -0.4836 -0.4642
 1299SOL     OW 4961   0.715   5.178   1.858  0.1734  0.2720  0.3806
 1299SOL    HW2 4962   0.731   5.225   1.940  1.9692 -1.4181  1.0544
 1299SOL    HW3 4963   0.767   5.099   1.864 -1.0477 -0.7871 -1.6634
 1299SOL    MW4 4964   0.724   5.174   1.869  0.2492 -0.0907  0.1998
 1300SOL     OW 4965   5.017   0.382   3.907  0.3051  0.5544 -0.5469
 1300SOL    HW2 4966   4.924   0.396   3.923  0.4081  0.4882  0.1482
 1300SOL    HW3 4967   5.023   0.363   3.813 -0.4218  0.1808 -0.5248
 1300SOL    MW4 4968   5.006   0.381   3.897  0.2228  0.4963 -0.4523
 1301SOL     OW 4969   0.391   2.638   1.335  0.1266  0.3366  0.8578
 1301SOL    HW2 4970   0.330   2.711   1.339 -0.6954 -0.1783 -0.9709
 1301SOL    HW3 4971   0.338   2.561   1.357  0.2045 -0.0549 -0.2458
 1301SOL    MW4 4972   0.376   2.637   1.338  0.0284  0.2170  0.4709
 1302SOL     OW 4973   6.153   5.020   1.283 -0.3006  0.3509 -0.1961
 1302SOL    HW2 4974   6.178   4.993   1.195 -2.1723 -0.8783 -0.3972
 1302SOL    HW3 4975   6.166   4.942   1.337  1.6602  1.3233  0.8637
 1302SOL    MW4 4976   6.158   5.006   1.279 -0.2888  0.3170 -0.0828
 1303SOL     OW 4977   4.561   4.438   0.622 -0.0477 -0.0489 -0.3121
 1303SOL    HW2 4978   4.632   4.476   0.570  1.7876 -2.8913 -0.1366
 1303SOL    HW3 4979   4.500   4.402   0.558  0.4766 -0.5972 -0.5120
 1303SOL    MW4 4980   4.562   4.438   0.607  0.2636 -0.4963 -0.3153
 1304SOL     OW 4981   3.455   1.455   6.223 -0.4840  0.0333 -0.1114
 1304SOL    HW2 4982   3.444   1.375   6.171 -1.2698  0.7686 -1.0909
 1304SOL    HW3 4983   3.406   1.522   6.176 -0.5673  0.9058  1.1689
 1304SOL    MW4 4984   3.447   1.453   6.210 -0.5987  0.2454 -0.0717
 1305SOL     OW 4985   4.605   3.197   0.855  0.4223  0.0592  0.4661
 1305SOL    HW2 4986   4.696   3.214   0.831  0.5431 -0.5983  0.4391
 1305SOL    HW3 4987   4.610   3.140   0.932  0.1479 -3.6831 -2.0059
 1305SOL    MW4 4988   4.617   3.191   0.862  0.4021 -0.5213  0.1364
 1306SOL     OW 4989   5.248   5.560   5.505 -0.3104 -0.0147 -0.0403
 1306SOL    HW2 4990   5.156   5.587   5.502  0.1301  1.4625 -0.9477
 1306SOL    HW3 4991   5.287   5.614   5.574 -0.4333 -1.7850  1.4918
 1306SOL    MW4 4992   5.241   5.570   5.513 -0.2685 -0.0534  0.0421
 1307SOL     OW 4993   4.604   1.120   3.414  0.3144 -0.2242 -0.1432
 1307SOL    HW2 4994   4.627   1.122   3.507  1.1326 -0.6228 -0.3204
 1307SOL    HW3 4995   4.539   1.189   3.403  1.7535  1.2606  0.3384
 1307SOL    MW4 4996   4.599   1.129   3.425  0.6122 -0.0809 -0.1030
 1308SOL     OW 4997   4.093   0.813   6.309  0.5191 -0.0757  0.2868
 1308SOL    HW2 4998   4.176   0.853   6.283  0.0759  0.5979 -0.1207
 1308SOL    HW3 4999   4.034   0.829   6.236 -0.6901  1.6736  1.5619
 1308SOL    MW4 5000   4.096   0.820   6.296  0.3011  0.2440  0.4013
 1309SOL     OW 5001   5.344   2.031   5.811  0.3274  0.3230  0.3470
 1309SOL    HW2 5002   5.287   1.979   5.867  1.1867  0.4128  1.3420
 1309SOL    HW3 5003   5.431   1.993   5.823  0.7592  1.2061  0.1390
 1309SOL    MW4 5004   5.348   2.019   5.820  0.4978  0.4514  0.4508
 1310SOL     OW 5005   4.362   5.632   4.920 -0.0950 -0.3481 -0.7465
 1310SOL    HW2 5006   4.407   5.708   4.886 -0.6272 -1.8125 -5.3597
 1310SOL    HW3 5007   4.269   5.652   4.911 -0.2445 -1.3711 -1.6828
 1310SOL    MW4 5008   4.355   5.645   4.915 -0.1850 -0.6763 -1.4787
 1311SOL     OW 5009   5.565   1.946   3.374 -1.1592  0.1689 -0.0079
 1311SOL    HW2 5010   5.601   1.996   3.301  0.6028 -0.8454  0.1268
 1311SOL    HW3 5011   5.541   2.013   3.439  1.6649  0.9165  0.4166
 1311SOL    MW4 5012   5.566   1.962   3.373 -0.5541  0.1337  0.0659
 1312SOL     OW 5013   3.549   2.644   4.964  0.1333  0.4287 -0.1913
 1312SOL    HW2 5014   3.605   2.632   5.041  2.1793  0.5033 -1.6095
 1312SOL    HW3 5015   3.536   2.555   4.931  0.2363  0.5033 -0.4300
 1312SOL    MW4 5016   3.555   2.631   4.970  0.4169  0.4484 -0.4099
 1313SOL     OW 5017   4.269   6.396   2.202 -0.1114  0.0042 -0.3054
 1313SOL    HW2 5018   4.198   6.353   2.155  0.0384 -0.5441 -0.0364
 1313SOL    HW3 5019   4.249   6.489   2.195  0.9612  0.1171 -3.1899
 1313SOL    MW4 5020   4.257   6.403   2.195  0.0499 -0.0532 -0.6505
 1314SOL     OW 5021   3.481   1.119   5.346  0.1354  0.3093 -0.0364
 1314SOL    HW2 5022   3.570   1.132   5.314  0.2152 -0.9791 -0.3953
 1314SOL    HW3 5023   3.446   1.208   5.358  1.5032  0.8297  0.2511
 1314SOL    MW4 5024   3.488   1.133   5.343  0.3264  0.2080 -0.0458
 1315SOL     OW 5025   5.428   4.089   0.185  0.0103  0.1347 -0.2790
 1315SOL    HW2 5026   5.455   3.999   0.202 -1.4928  0.1328  3.0331
 1315SOL    HW3 5027   5.365   4.083   0.114 -0.0845 -1.4276 -0.0954
 1315SOL    MW4 5028   5.423   4.076   0.178 -0.2005 -0.0717  0.1822
 1316SOL     OW 5029   2.772   0.822   0.186  0.1566  0.2627 -0.3395
 1316SOL    HW2 5030   2.841   0.852   0.127  2.2284 -2.3741  0.5763
 1316SOL    HW3 5031   2.773   0.885   0.258  0.8693  0.8281 -0.8295
 1316SOL    MW4 5032   2.781   0.834   0.188  0.5240 -0.0106 -0.2834
 1317SOL     OW 5033   3.497   6.353   6.008 -0.2865 -0.4093 -0.3486
 1317SOL    HW2 5034   3.539   6.438   6.017 -0.9489 -0.2469  1.8802
 1317SOL    HW3 5035   3.484   6.323   6.099 -1.0654 -2.3783 -1.0547
 1317SOL    MW4 5036   3.501   6.360   6.022 -0.4767 -0.6476 -0.1477
 1318SOL     OW 5037   4.900   2.081   5.259  0.3792 -0.1240 -0.2690
 1318SOL    HW2 5038   4.880   1.998   5.215 -0.6936  1.4714 -2.9774
 1318SOL    HW3 5039   4.818   2.129   5.258  0.0036 -0.2195  4.4118
 1318SOL    MW4 5040   4.886   2.076   5.253  0.1881  0.0739 -0.0087
 1319SOL     OW 5041   3.662   0.151   1.136  0.2869 -0.4911 -0.7234
 1319SOL    HW2 5042   3.588   0.156   1.076 -0.1919 -0.9390 -0.1870
 1319SOL    HW3 5043   3.626   0.111   1.215  1.0951 -0.6751 -0.4375
 1319SOL    MW4 5044   3.647   0.147   1.138  0.3304 -0.5745 -0.6149
 1320SOL     OW 5045   3.867   1.701   4.178 -0.0980  0.2277  0.4392
 1320SOL    HW2 5046   3.954   1.665   4.196 -0.1223 -0.0143  0.0849
 1320SOL    HW3 5047   3.807   1.629   4.194 -0.3326  0.6682  1.6420
 1320SOL    MW4 5048   3.871   1.687   4.183 -0.1321  0.2539  0.5512
 1321SOL     OW 5049   0.583   3.131   2.784 -0.0854  0.0699 -0.0258
 1321SOL    HW2 5050   0.570   3.117   2.690  1.6600 -0.0333 -0.2716
 1321SOL    HW3 5051   0.576   3.044   2.823  0.7384 -0.0989 -0.2579
 1321SOL    MW4 5052   0.580   3.118   2.777  0.2536  0.0340 -0.0889
 1322SOL     OW 5053   5.800   1.700   0.106 -0.3682  0.0307  0.2240
 1322SOL    HW2 5054   5.787   1.642   0.181 -1.2492 -0.7799 -0.5324
 1322SOL    HW3 5055   5.829   1.642   0.036 -0.4133  0.6387 -0.3105
 1322SOL    MW4 5056   5.802   1.685   0.107 -0.4904  0.0040  0.0537
 1323SOL     OW 5057   1.825   3.474   4.870  0.2349 -0.2954 -0.3316
 1323SOL    HW2 5058   1.911   3.496   4.906  0.4553 -2.7940  0.8609
 1323SOL    HW3 5059   1.833   3.383   4.842 -1.7377 -0.2714 -1.1710
 1323SOL    MW4 5060   1.837   3.465   4.871  0.0038 -0.6219 -0.2850
 1324SOL     OW 5061   5.946   2.943   3.426 -0.5950  0.4962 -0.4662
 1324SOL    HW2 5062   6.038   2.943   3.398 -0.2146 -2.0322  0.5143
 1324SOL    HW3 5063   5.950   2.965   3.519 -0.8070 -0.8317 -0.1207
 1324SOL    MW4 5064   5.959   2.946   3.435 -0.5728 -0.0126 -0.2912
 1325SOL     OW 5065   0.990   1.809   2.874 -0.1557  0.4484 -0.1033
 1325SOL    HW2 5066   0.920   1.827   2.936 -0.1422 -0.9531  0.3312
 1325SOL    HW3 5067   1.025   1.724   2.899  0.6380  0.3846 -1.3098
 1325SOL    MW4 5068   0.986   1.800   2.885 -0.0492  0.2551 -0.2052
 1326SOL     OW 5069   1.330   4.901   0.455  0.4879  0.4426  0.3509
 1326SOL    HW2 5070   1.279   4.892   0.536 -1.4172 -0.3772 -0.8526
 1326SOL    HW3 5071   1.347   4.994   0.448  0.6487  0.5344  1.6624
 1326SOL    MW4 5072   1.325   4.912   0.465  0.2578  0.3465  0.3651
 1327SOL     OW 5073   2.235   3.458   0.326 -0.0697  0.4921  0.0054
 1327SOL    HW2 5074   2.156   3.413   0.297 -0.2145  1.0101 -0.4163
 1327SOL    HW3 5075   2.206   3.514   0.398  0.1708 -0.3089  0.7525
 1327SOL    MW4 5076   2.221   3.459   0.332 -0.0571  0.4547  0.0484
 1328SOL     OW 5077   5.672   5.988   1.335 -0.8266  0.4171  0.0926
 1328SOL    HW2 5078   5.682   5.950   1.248 -1.4958  0.4439 -0.0022
 1328SOL    HW3 5079   5.761   6.016   1.359 -0.4527 -0.5555 -0.1225
 1328SOL    MW4 5080   5.685   5.987   1.327 -0.8656  0.2923  0.0517
 1329SOL     OW 5081   5.895   4.349   0.029 -0.0617 -0.5056 -0.2200
 1329SOL    HW2 5082   5.883   4.404  -0.048  0.4767 -2.4287 -1.7586
 1329SOL    HW3 5083   5.976   4.382   0.069 -0.7922  1.0571  0.0670
 1329SOL    MW4 5084   5.904   4.361   0.024 -0.0870 -0.5531 -0.3851
 1330SOL     OW 5085   4.818   0.834   1.010  0.0947 -0.1743  0.5310
 1330SOL    HW2 5086   4.866   0.908   1.047 -1.2647  0.5219  0.9795
 1330SOL    HW3 5087   4.730   0.868   0.995 -0.3177 -1.4605 -0.0949
 1330SOL    MW4 5088   4.813   0.848   1.013 -0.1391 -0.2521  0.5076
 1331SOL     OW 5089   3.693   3.945   0.027  0.3902 -1.1082 -0.0979
 1331SOL    HW2 5090   3.708   4.027   0.074 -1.0170 -1.7106  1.5269
 1331SOL    HW3 5091   3.676   3.880   0.096 -1.2575 -2.1552 -1.3866
 1331SOL    MW4 5092   3.693   3.947   0.043 -0.0129 -1.3258 -0.0535
 1332SOL     OW 5093   3.128   3.392   5.744  0.4571 -0.3934 -0.0997
 1332SOL    HW2 5094   3.171   3.333   5.682  2.4314  2.0411 -1.2184
 1332SOL    HW3 5095   3.054   3.428   5.694  0.9149  0.1300 -0.4176
 1332SOL    MW4 5096   3.124   3.389   5.729  0.7780 -0.0031 -0.2893
 1333SOL     OW 5097   1.970   2.436   0.068  0.1968 -0.1673 -0.0447
 1333SOL    HW2 5098   1.918   2.515   0.049  2.9217  1.5594 -0.9538
 1333SOL    HW3 5099   2.060   2.462   0.049  1.1796 -3.7208 -0.8927
 1333SOL    MW4 5100   1.975   2.450   0.063  0.6859 -0.4083 -0.2765
 1334SOL     OW 5101   4.877   6.259   5.068 -0.1097  0.0528 -0.6236
 1334SOL    HW2 5102   4.968   6.230   5.063  0.0077  0.2952  0.0776
 1334SOL    HW3 5103   4.854   6.253   5.161 -0.5772  0.6942 -0.6893
 1334SOL    MW4 5104   4.886   6.254   5.080 -0.1559  0.1694 -0.5398
 1335SOL     OW 5105   3.622   2.587   6.050 -0.0859  0.8813 -0.3276
 1335SOL    HW2 5106   3.562   2.648   6.092 -0.8285 -0.1179  0.1220
 1335SOL    HW3 5107   3.635   2.517   6.114 -0.2979 -0.0753 -1.2894
 1335SOL    MW4 5108   3.616   2.586   6.064 -0.2119  0.6232 -0.3952
 1336SOL     OW 5109   4.428   3.371   2.263  0.1992  0.2148  0.1460
 1336SOL    HW2 5110   4.394   3.400   2.179  2.6601 -0.9680 -1.3595
 1336SOL    HW3 5111   4.401   3.279   2.270 -1.9263  0.8735  1.8043
 1336SOL    MW4 5112   4.420   3.363   2.253  0.2434  0.1456  0.1662
 1337SOL     OW 5113   5.122   5.010   1.716  0.0036 -0.5089  0.0772
 1337SOL    HW2 5114   5.151   5.053   1.796  0.6201 -1.2165  0.2443
 1337SOL    HW3 5115   5.111   4.918   1.740 -1.1435 -0.4978 -0.3072
 1337SOL    MW4 5116   5.124   5.003   1.729 -0.0664 -0.6008  0.0486
 1338SOL     OW 5117   1.369   1.177   1.320 -0.2509  0.3470 -0.3120
 1338SOL    HW2 5118   1.379   1.139   1.233 -0.7317 -0.3685 -0.0613
 1338SOL    HW3 5119   1.319   1.112   1.369  1.5843 -0.0875  1.0529
 1338SOL    MW4 5120   1.364   1.163   1.315 -0.0722  0.1953 -0.0988
 1339SOL     OW 5121   2.642   0.594   5.654  0.4588  0.6289 -0.3236
 1339SOL    HW2 5122   2.551   0.583   5.627  0.9484 -1.6080 -1.3243
 1339SOL    HW3 5123   2.690   0.605   5.572  1.3363 -0.6279 -0.0117
 1339SOL    MW4 5124   2.637   0.594   5.640  0.6391  0.1679 -0.4145
 1340SOL     OW 5125   0.425   1.196   0.716 -0.3823 -0.7090  0.3545
 1340SOL    HW2 5126   0.465   1.109   0.705  3.0758  0.7084  0.2583
 1340SOL    HW3 5127   0.432   1.213   0.810  0.1586 -0.0582  0.2020
 1340SOL    MW4 5128   0.431   1.187   0.727  0.1453 -0.4361  0.3217
 1341SOL     OW 5129   1.392   2.920   6.250 -0.2354  0.3317 -0.2722
 1341SOL    HW2 5130   1.438   2.917   6.334 -1.0639  1.6616  0.2516
 1341SOL    HW3 5131   1.417   3.005   6.213 -0.0651 -0.1448 -1.2778
 1341SOL    MW4 5132   1.402   2.931   6.256 -0.3222  0.4443 -0.3357
 1342SOL     OW 5133   3.928   0.924   0.088  0.2042  0.2792 -0.3551
 1342SOL    HW2 5134   3.845   0.926   0.041  0.5396 -0.1174 -0.9912
 1342SOL    HW3 5135   3.989   0.882   0.027  0.6149 -0.4203  0.4965
 1342SOL    MW4 5136   3.925   0.918   0.074  0.3027  0.1346 -0.3266
 1343SOL     OW 5137   3.671   0.960   3.137 -0.4512 -0.0616  0.0388
 1343SOL    HW2 5138   3.751   1.004   3.165  0.8007 -3.0246  1.4747
 1343SOL    HW3 5139   3.695   0.911   3.059 -0.4205 -2.0222  1.2212
 1343SOL    MW4 5140   3.685   0.960   3.130 -0.2820 -0.7112  0.3843
 1344SOL     OW 5141   3.780   5.566   5.961  0.1051 -0.3937  0.5290
 1344SOL    HW2 5142   3.752   5.586   5.871  1.7033 -0.6657 -0.0597
 1344SOL    HW3 5143   3.775   5.471   5.967  0.9025 -0.4529  0.3943
 1344SOL    MW4 5144   3.776   5.556   5.950  0.4212 -0.4374  0.4336
 1345SOL     OW 5145   6.352   6.031   5.237 -0.1614 -0.3921  0.6891
 1345SOL    HW2 5146   6.263   6.064   5.230  0.7559  1.8504 -3.4561
 1345SOL    HW3 5147   6.394   6.086   5.304 -0.3449  3.0284 -1.7786
 1345SOL    MW4 5148   6.346   6.043   5.245 -0.0646  0.3551 -0.1834
 1346SOL     OW 5149   1.351   5.589   2.380 -0.3524  0.0571 -0.7414
 1346SOL    HW2 5150   1.374   5.620   2.467 -0.3237  0.6064 -0.9382
 1346SOL    HW3 5151   1.434   5.562   2.340 -0.4883 -1.1429 -0.2460
 1346SOL    MW4 5152   1.365   5.590   2.386 -0.3665 -0.0288 -0.7020
 1347SOL     OW 5153   3.782   1.858   3.959  0.0137  0.4427 -0.4714
 1347SOL    HW2 5154   3.804   1.787   4.019 -0.4714  1.6612  1.2320
 1347SOL    HW3 5155   3.686   1.855   3.952  0.1331 -0.3857 -2.1278
 1347SOL    MW4 5156   3.772   1.849   3.966 -0.0346  0.4941 -0.4652
 1348SOL     OW 5157   5.026   6.398   4.792  0.4289  0.5751  0.5424
 1348SOL    HW2 5158   4.985   6.311   4.798  0.9955  0.2695  0.0111
 1348SOL    HW3 5159   5.066   6.411   4.878 -0.2665  0.6272  0.8720
 1348SOL    MW4 5160   5.026   6.388   4.804  0.4119  0.5417  0.5158
 1349SOL     OW 5161   1.332   0.177   1.094 -0.5434  0.3625  0.4013
 1349SOL    HW2 5162   1.280   0.103   1.060  0.0046 -0.7699  1.9115
 1349SOL    HW3 5163   1.348   0.232   1.018 -0.5255 -1.3616 -0.9025
 1349SOL    MW4 5164   1.327   0.174   1.079 -0.4688 -0.0144  0.4285
 1350SOL     OW 5165   3.357   3.294   2.289 -0.1243  0.3820 -0.0486
 1350SOL    HW2 5166   3.411   3.250   2.223  0.3177 -1.3296  1.3655
 1350SOL    HW3 5167   3.286   3.233   2.306 -0.8366  1.2892  0.2920
 1350SOL    MW4 5168   3.355   3.280   2.282 -0.1600  0.2759  0.1829
 1351SOL     OW 5169   2.659   0.250   0.744 -0.5023  0.3651  0.2427
 1351SOL    HW2 5170   2.655   0.278   0.653 -2.8222 -1.1936 -0.2389
 1351SOL    HW3 5171   2.728   0.184   0.746  0.0889  0.9582 -0.1902
 1351SOL    MW4 5172   2.667   0.245   0.733 -0.7304  0.2377  0.1220
 1352SOL     OW 5173   1.269   4.376   4.339  0.1656  0.0403  0.1590
 1352SOL    HW2 5174   1.176   4.352   4.335  0.4620 -0.9774 -1.9040
 1352SOL    HW3 5175   1.306   4.318   4.406 -0.4476 -0.4416  0.0858
 1352SOL    MW4 5176   1.262   4.365   4.347  0.1238 -0.1576 -0.1228
 1353SOL     OW 5177   4.767   4.484   6.376  0.4112 -0.1439 -0.2627
 1353SOL    HW2 5178   4.755   4.579   6.379  0.8586 -0.0720  2.9192
 1353SOL    HW3 5179   4.859   4.471   6.396 -0.0693 -1.2522  1.4530
 1353SOL    MW4 5180   4.777   4.495   6.379  0.4068 -0.2806  0.3835
 1354SOL     OW 5181   2.725   4.433   2.600 -0.0182 -0.3868 -0.2672
 1354SOL    HW2 5182   2.641   4.413   2.558  0.3086 -2.2796 -0.0899
 1354SOL    HW3 5183   2.728   4.529   2.602 -1.4718 -0.2693 -1.6526
 1354SOL    MW4 5184   2.714   4.443   2.595 -0.1669 -0.6211 -0.4266
 1355SOL     OW 5185   4.423   5.361   4.237  0.2380 -0.1131  0.1704
 1355SOL    HW2 5186   4.467   5.383   4.155  0.2930 -0.6607  0.0469
 1355SOL    HW3 5187   4.416   5.265   4.235 -0.9537 -0.0326  0.1899
 1355SOL    MW4 5188   4.428   5.351   4.226  0.0880 -0.1747  0.1567
 1356SOL     OW 5189   0.775   6.170   2.643 -0.2259  0.2561  0.1568
 1356SOL    HW2 5190   0.710   6.199   2.579 -0.7877 -0.3682  0.4305
 1356SOL    HW3 5191   0.859   6.182   2.599 -0.6483 -1.0869 -1.0792
 1356SOL    MW4 5192   0.777   6.175   2.628 -0.3557 -0.0035  0.0299
 1357SOL     OW 5193   5.150   0.043   2.485 -0.4392  0.4999 -0.8780
 1357SOL    HW2 5194   5.066   0.081   2.512  0.1092  0.7591  0.5450
 1357SOL    HW3 5195   5.184   0.002   2.564 -0.6755 -2.4243 -2.1776
 1357SOL    MW4 5196   5.143   0.043   2.499 -0.3980  0.1483 -0.8617
 1358SOL     OW 5197   1.612   3.474   1.274 -1.4315  0.1321  0.3988
 1358SOL    HW2 5198   1.539   3.497   1.332 -0.0556  1.2725  1.7370
 1358SOL    HW3 5199   1.637   3.556   1.233 -1.1572 -0.3307 -0.3769
 1358SOL    MW4 5200   1.606   3.488   1.276 -1.2138  0.2215  0.4730
 1359SOL     OW 5201   5.239   3.554   2.618  0.0279 -0.2254  0.0695
 1359SOL    HW2 5202   5.152   3.548   2.581 -0.2997  0.5404  0.6862
 1359SOL    HW3 5203   5.261   3.464   2.643 -1.9930 -0.0359  3.0017
 1359SOL    MW4 5204   5.231   3.541   2.617 -0.2820 -0.0994  0.5378
 1360SOL     OW 5205   4.077   0.943   3.444 -0.4917  0.5049  0.4304
 1360SOL    HW2 5206   4.133   0.866   3.460 -0.8684 -0.1008 -0.9712
 1360SOL    HW3 5207   4.139   1.015   3.433 -0.0885  0.2394  0.9250
 1360SOL    MW4 5208   4.093   0.942   3.445 -0.4882  0.3900  0.3108
 1361SOL     OW 5209   0.508   3.328   6.192 -0.1292 -0.2535  0.4922
 1361SOL    HW2 5210   0.598   3.363   6.197  0.1820 -0.8309 -0.7290
 1361SOL    HW3 5211   0.453   3.402   6.217  0.6299  0.4906  0.0443
 1361SOL    MW4 5212   0.513   3.343   6.196  0.0120 -0.2315  0.2720
 1362SOL     OW 5213   6.294   1.432   4.383 -0.7992 -0.2287 -0.4601
 1362SOL    HW2 5214   6.330   1.467   4.302 -0.8190  0.9494  0.0205
 1362SOL    HW3 5215   6.236   1.500   4.416  1.3350  0.6174  1.9701
 1362SOL    MW4 5216   6.291   1.446   4.377 -0.5203  0.0384 -0.0760
 1363SOL     OW 5217   4.815   2.437   0.451 -0.1694 -0.0675  0.1688
 1363SOL    HW2 5218   4.855   2.393   0.526  2.1015 -0.1567 -0.9995
 1363SOL    HW3 5219   4.784   2.366   0.395  0.5922 -0.1103 -0.2140
 1363SOL    MW4 5220   4.816   2.422   0.454  0.2307 -0.0849 -0.0358
 1364SOL     OW 5221   4.010   5.681   0.031  0.4874 -0.0075 -0.1882
 1364SOL    HW2 5222   3.921   5.714   0.020  0.0377 -1.0780  0.0826
 1364SOL    HW3 5223   4.061   5.757   0.058 -0.7909  0.2182  1.8094
 1364SOL    MW4 5224   4.005   5.695   0.033  0.2594 -0.1190  0.1111
 1365SOL     OW 5225   2.064   2.111   6.350  0.0443 -0.1978 -0.6185
 1365SOL    HW2 5226   2.034   2.189   6.303 -1.7138 -0.0054  0.7106
 1365SOL    HW3 5227   2.014   2.039   6.311  0.0791 -0.3280 -0.4253
 1365SOL    MW4 5228   2.053   2.112   6.339 -0.1830 -0.1896 -0.4176
 1366SOL     OW 5229   5.749   5.878   1.591  0.3455 -0.6445 -0.1326
 1366SOL    HW2 5230   5.773   5.949   1.651 -0.9485 -1.2318  1.1495
 1366SOL    HW3 5231   5.712   5.922   1.515 -0.5332  0.0866  0.6874
 1366SOL    MW4 5232   5.747   5.893   1.589  0.0588 -0.6255  0.1448
 1367SOL     OW 5233   3.550   5.431   1.471 -0.1774 -0.4651 -0.0207
 1367SOL    HW2 5234   3.475   5.371   1.465 -0.5919  0.1115 -0.6681
 1367SOL    HW3 5235   3.539   5.491   1.397  0.1590  0.4957  0.6855
 1367SOL    MW4 5236   3.538   5.431   1.461 -0.1877 -0.2622 -0.0129
 1368SOL     OW 5237   4.675   3.571   4.410  0.0468  0.2531 -0.3822
 1368SOL    HW2 5238   4.650   3.560   4.318 -2.0805 -2.5699  0.3884
 1368SOL    HW3 5239   4.605   3.626   4.447 -0.6672 -0.9320  0.0827
 1368SOL    MW4 5240   4.662   3.577   4.403 -0.3281 -0.2757 -0.2192
 1369SOL     OW 5241   1.135   3.008   1.616 -0.4822  0.5432 -0.4522
 1369SOL    HW2 5242   1.151   3.001   1.522  0.5953  0.8973 -0.2992
 1369SOL    HW3 5243   1.083   2.929   1.636 -0.6356  0.4079 -1.3099
 1369SOL    MW4 5244   1.130   2.996   1.606 -0.3603  0.5721 -0.5452
 1370SOL     OW 5245   2.619   5.318   3.708 -0.3961  0.1489 -0.3376
 1370SOL    HW2 5246   2.623   5.231   3.746  1.2218  0.2839 -0.1435
 1370SOL    HW3 5247   2.681   5.316   3.635 -2.1352  0.4233 -1.9084
 1370SOL    MW4 5248   2.628   5.307   3.703 -0.4121  0.2029 -0.5192
 1371SOL     OW 5249   0.153   2.848   0.883  0.0642  0.3467  0.6217
 1371SOL    HW2 5250   0.136   2.756   0.863  0.3798  0.6279 -1.0201
 1371SOL    HW3 5251   0.215   2.845   0.956 -1.4678 -0.7022  1.9894
 1371SOL    MW4 5252   0.159   2.835   0.890 -0.0963  0.2454  0.5856
 1372SOL     OW 5253   1.310   4.038   3.292 -0.3901  0.1926  0.1877
 1372SOL    HW2 5254   1.355   4.091   3.357  0.7395 -0.8872  0.3344
 1372SOL    HW3 5255   1.245   4.097   3.253  1.5264  2.0108 -0.4359
 1372SOL    MW4 5256   1.307   4.053   3.296  0.0118  0.2900  0.1248
 1373SOL     OW 5257   1.002   2.536   2.975 -0.8305 -0.0297  0.7709
 1373SOL    HW2 5258   0.914   2.570   2.984 -1.4114 -0.6414 -1.8412
 1373SOL    HW3 5259   1.029   2.560   2.887 -0.5472 -4.4003 -0.6141
 1373SOL    MW4 5260   0.994   2.543   2.965 -0.8698 -0.6871  0.2436
 1374SOL     OW 5261   0.141   0.101   2.127 -0.1100  0.0523 -0.2453
 1374SOL    HW2 5262   0.127   0.156   2.204 -3.0533 -0.2078 -0.4842
 1374SOL    HW3 5263   0.187   0.024   2.160  0.5098  0.8666  0.8365
 1374SOL    MW4 5264   0.145   0.098   2.141 -0.4166  0.1254 -0.1341
 1375SOL     OW 5265   0.578   2.434   2.908  0.0388 -0.1100  0.4242
 1375SOL    HW2 5266   0.563   2.363   2.972  3.6786 -1.1194  0.3804
 1375SOL    HW3 5267   0.642   2.491   2.950  1.4452  0.0010 -1.7199
 1375SOL    MW4 5268   0.584   2.432   2.922  0.7046 -0.2286  0.1355
 1376SOL     OW 5269   6.321   1.043   5.791  0.3613  0.2375  0.3146
 1376SOL    HW2 5270   6.238   1.008   5.759  1.4987  0.0583 -2.8002
 1376SOL    HW3 5271   6.308   1.138   5.796  0.0726  0.2484 -0.5776
 1376SOL    MW4 5272   6.309   1.051   5.788  0.4733  0.2153 -0.2141
 1377SOL     OW 5273   5.715   4.749   6.351 -0.4267  0.2358 -0.3963
 1377SOL    HW2 5274   5.681   4.680   6.408  0.9870 -0.9783 -0.9215
 1377SOL    HW3 5275   5.697   4.830   6.397 -1.8064 -0.5057  0.4330
 1377SOL    MW4 5276   5.708   4.750   6.364 -0.4222 -0.0222 -0.3562
 1378SOL     OW 5277   5.073   2.192   2.640  0.1944 -0.1560 -0.0103
 1378SOL    HW2 5278   5.108   2.276   2.612  0.8401 -0.5531 -0.4180
 1378SOL    HW3 5279   5.040   2.208   2.728  0.3204  0.5176 -0.0801
 1378SOL    MW4 5280   5.073   2.205   2.648  0.2962 -0.1196 -0.0733
 1379SOL     OW 5281   1.244   3.258   1.171  0.2928  0.0107  0.2974
 1379SOL    HW2 5282   1.156   3.296   1.169  0.2639 -0.0181  0.8564
 1379SOL    HW3 5283   1.298   3.319   1.120 -0.2215 -0.4436 -0.8284
 1379SOL    MW4 5284   1.239   3.271   1.164  0.2211 -0.0530  0.2226
 1380SOL     OW 5285   0.858   3.672   1.968 -0.7139 -0.2466 -0.4440
 1380SOL    HW2 5286   0.772   3.645   1.999 -0.6907 -0.2485 -0.3818
 1380SOL    HW3 5287   0.911   3.683   2.047 -0.6853 -0.1464 -0.4762
 1380SOL    MW4 5288   0.854   3.670   1.982 -0.7070 -0.2336 -0.4400
 1381SOL     OW 5289   1.442   3.605   1.856 -0.0558  0.2084  0.1904
 1381SOL    HW2 5290   1.527   3.604   1.812 -0.0104  0.0516  0.2792
 1381SOL    HW3 5291   1.400   3.524   1.828  0.4031 -0.4304  1.2623
 1381SOL    MW4 5292   1.448   3.594   1.847  0.0108  0.1035  0.3436
 1382SOL     OW 5293   4.018   1.637   2.528  0.0536 -0.5495  0.5117
 1382SOL    HW2 5294   3.963   1.659   2.453 -0.3643  2.1431  1.5027
 1382SOL    HW3 5295   3.957   1.610   2.596 -0.1352  2.0489  1.4818
 1382SOL    MW4 5296   4.003   1.636   2.527 -0.0264  0.1486  0.7705
 1383SOL     OW 5297   4.071   1.214   4.556  0.5063 -0.0825 -0.7756
 1383SOL    HW2 5298   3.983   1.191   4.586  1.1567  0.8751  2.2334
 1383SOL    HW3 5299   4.058   1.290   4.500 -0.7356 -1.4955 -2.5251
 1383SOL    MW4 5300   4.057   1.221   4.553  0.4283 -0.1426 -0.6094
 1384SOL     OW 5301   4.506   0.659   4.005 -0.6564  0.2011  0.2335
 1384SOL    HW2 5302   4.549   0.575   4.019 -3.2822 -1.1702  0.8100
 1384SOL    HW3 5303   4.505   0.671   3.910 -1.2869 -1.0682  0.0567
 1384SOL    MW4 5304   4.511   0.650   3.994 -1.0860 -0.1473  0.2862
 1385SOL     OW 5305   4.758   1.635   0.968  0.4463  0.0970 -0.4542
 1385SOL    HW2 5306   4.710   1.718   0.972  0.3763  0.0089  1.7661
 1385SOL    HW3 5307   4.691   1.568   0.977  0.5967 -0.1765 -1.3388
 1385SOL    MW4 5308   4.743   1.637   0.970  0.4569  0.0493 -0.2780
 1386SOL     OW 5309   4.295   1.870   4.361  0.3032 -0.1624 -0.3169
 1386SOL    HW2 5310   4.368   1.907   4.409  1.0473 -0.1307 -1.4336
 1386SOL    HW3 5311   4.258   1.944   4.312 -1.1375  0.0457  0.9879
 1386SOL    MW4 5312   4.299   1.885   4.361  0.2113 -0.1308 -0.2921
 1387SOL     OW 5313   6.192   2.479   5.250  0.0664  0.9042  0.3366
 1387SOL    HW2 5314   6.109   2.436   5.273  1.5332 -2.0525  0.6181
 1387SOL    HW3 5315   6.208   2.452   5.160  1.7348 -0.4687  0.9897
 1387SOL    MW4 5316   6.183   2.470   5.241  0.4801  0.3329  0.4599
 1388SOL     OW 5317   2.146   1.869   0.511 -0.2805  0.1091  0.2105
 1388SOL    HW2 5318   2.233   1.904   0.529 -0.7404  2.2812 -1.2831
 1388SOL    HW3 5319   2.153   1.776   0.530  1.8358  0.5215  1.8592
 1388SOL    MW4 5320   2.159   1.861   0.516 -0.0620  0.4501  0.2310
 1389SOL     OW 5321   3.373   0.550   4.071  0.2839  0.5451 -0.3318
 1389SOL    HW2 5322   3.442   0.489   4.047 -0.6057 -0.2713 -0.8985
 1389SOL    HW3 5323   3.353   0.528   4.162  0.8551  0.8801 -0.1207
 1389SOL    MW4 5324   3.379   0.539   4.080  0.2419  0.4816 -0.3787
 1390SOL     OW 5325   1.864   5.381   6.112  0.1265  0.0596 -0.5600
 1390SOL    HW2 5326   1.890   5.439   6.184 -1.1966 -0.1985  0.1660
 1390SOL    HW3 5327   1.937   5.385   6.051  0.9900  0.8345  0.4676
 1390SOL    MW4 5328   1.877   5.389   6.114  0.0659  0.1278 -0.3287
 1391SOL     OW 5329   5.591   2.373   0.432  0.1466  0.3841 -0.1257
 1391SOL    HW2 5330   5.595   2.436   0.360 -0.6691  2.9208  1.8922
 1391SOL    HW3 5331   5.512   2.322   0.415  0.9424 -0.3592 -1.9233
 1391SOL    MW4 5332   5.581   2.375   0.420  0.1440  0.6207 -0.0967
 1392SOL     OW 5333   4.632   0.482   0.781  0.2860  0.2429 -0.3883
 1392SOL    HW2 5334   4.715   0.487   0.733 -0.6058  1.9241 -1.8434
 1392SOL    HW3 5335   4.571   0.440   0.720  0.0411 -0.9744  0.6671
 1392SOL    MW4 5336   4.635   0.477   0.767  0.1360  0.3041 -0.4410
 1393SOL     OW 5337   1.569   6.384   4.788 -0.0984  0.2801  0.0149
 1393SOL    HW2 5338   1.500   6.330   4.827  1.2730 -3.4556 -2.2479
 1393SOL    HW3 5339   1.521   6.444   4.730 -1.6430  1.1381  2.0559
 1393SOL    MW4 5340   1.553   6.385   4.785 -0.1212 -0.0995 -0.0144
 1394SOL     OW 5341   2.652   6.415   0.112  0.0182 -0.1855 -0.3035
 1394SOL    HW2 5342   2.654   6.457   0.198  1.6556 -0.3682 -0.2246
 1394SOL    HW3 5343   2.664   6.322   0.131 -1.1642 -0.4289 -0.6498
 1394SOL    MW4 5344   2.654   6.408   0.126  0.0782 -0.2417 -0.3388
 1395SOL     OW 5345   2.974   5.845   4.287 -0.3732 -0.3984 -0.0378
 1395SOL    HW2 5346   2.939   5.831   4.375 -0.3631 -2.9803 -0.3721
 1395SOL    HW3 5347   3.055   5.794   4.285  0.5330  1.0027 -1.0515
 1395SOL    MW4 5348   2.980   5.837   4.299 -0.2523 -0.5542 -0.2157
 1396SOL     OW 5349   2.044   2.513   5.191  0.1254 -0.2709 -0.5607
 1396SOL    HW2 5350   2.095   2.449   5.240  0.2862 -0.5834 -1.1259
 1396SOL    HW3 5351   2.027   2.471   5.107 -0.8815 -0.0787 -0.4605
 1396SOL    MW4 5352   2.048   2.499   5.186  0.0138 -0.2868 -0.6221
 1397SOL     OW 5353   4.292   0.613   1.260  0.2558  0.3841 -0.2671
 1397SOL    HW2 5354   4.204   0.588   1.289 -0.4088  1.8298 -0.9167
 1397SOL    HW3 5355   4.351   0.561   1.314 -0.9962 -0.7954  0.0197
 1397SOL    MW4 5356   4.288   0.603   1.271  0.0029  0.4193 -0.3150
 1398SOL     OW 5357   3.210   3.373   3.367  0.1686  0.3501  0.4415
 1398SOL    HW2 5358   3.129   3.365   3.418  0.5755  0.1202  1.0507
 1398SOL    HW3 5359   3.260   3.440   3.412 -0.1332  1.2752 -0.5538
 1398SOL    MW4 5360   3.206   3.381   3.379  0.1825  0.4418  0.3905
 1399SOL     OW 5361   3.500   3.926   3.458  0.2245 -0.2451  0.7255
 1399SOL    HW2 5362   3.422   3.874   3.441  1.2333 -1.8403  0.7319
 1399SOL    HW3 5363   3.526   3.903   3.547  0.9326 -0.0668  0.5754
 1399SOL    MW4 5364   3.493   3.916   3.468  0.4510 -0.4320  0.7066
 1400SOL     OW 5365   3.762   5.027   3.384 -0.3664  0.4245  0.7796
 1400SOL    HW2 5366   3.807   4.976   3.451  0.7613  2.7200  1.8973
 1400SOL    HW3 5367   3.814   5.107   3.376 -2.6938  1.9695  0.0595
 1400SOL    MW4 5368   3.775   5.031   3.392 -0.5247  0.9312  0.8321
 1401SOL     OW 5369   6.033   0.802   0.290  0.1222 -0.0520  0.8454
 1401SOL    HW2 5370   5.973   0.762   0.227 -0.2594  0.1900  1.0516
 1401SOL    HW3 5371   6.086   0.730   0.322 -0.4497 -0.3716  1.0922
 1401SOL    MW4 5372   6.032   0.787   0.286 -0.0036 -0.0622  0.9052
 1402SOL     OW 5373   3.279   2.471   5.677 -0.4513  0.0885  0.0961
 1402SOL    HW2 5374   3.251   2.388   5.640 -0.0063  0.1522 -0.3916
 1402SOL    HW3 5375   3.295   2.451   5.770  2.8148 -1.2096 -0.6077
 1402SOL    MW4 5376   3.278   2.457   5.685  0.0384 -0.0744 -0.0611
 1403SOL     OW 5377   1.154   0.888   2.255  0.2332  0.0857 -0.0172
 1403SOL    HW2 5378   1.113   0.963   2.298  1.8716  0.5270  0.8709
 1403SOL    HW3 5379   1.082   0.829   2.236 -0.7619  0.5772  1.9408
 1403SOL    MW4 5380   1.139   0.890   2.258  0.3181  0.2088  0.3583
 1404SOL     OW 5381   0.040   4.248   6.228 -0.2190  0.1428 -0.4592
 1404SOL    HW2 5382   0.038   4.153   6.219 -0.4380  0.2234 -1.3463
 1404SOL    HW3 5383   0.015   4.281   6.142 -1.4268  1.0081  0.1950
 1404SOL    MW4 5384   0.037   4.240   6.216 -0.4072  0.2676 -0.4899
 1405SOL     OW 5385   6.273   0.571   2.887 -0.0765 -0.1248  0.2738
 1405SOL    HW2 5386   6.273   0.485   2.845  2.5939 -1.9895  3.5535
 1405SOL    HW3 5387   6.186   0.579   2.925 -0.8433 -0.6835 -1.3074
 1405SOL    MW4 5388   6.262   0.561   2.887  0.1747 -0.4445  0.4979
 1406SOL     OW 5389   0.997   3.374   2.690  0.0251 -0.2026  0.1231
 1406SOL    HW2 5390   0.957   3.391   2.605  0.8950 -0.6137 -0.3749
 1406SOL    HW3 5391   0.935   3.411   2.753 -0.2948  0.7349 -0.7110
 1406SOL    MW4 5392   0.983   3.381   2.687  0.0977 -0.1332 -0.0526
 1407SOL     OW 5393   4.664   1.092   3.688  0.0882  0.2383  0.3041
 1407SOL    HW2 5394   4.731   1.085   3.756  0.6805 -2.5523 -0.4557
 1407SOL    HW3 5395   4.610   1.014   3.699  0.4924 -0.5962 -2.6464
 1407SOL    MW4 5396   4.666   1.081   3.698  0.2197 -0.2400 -0.1854
 1408SOL     OW 5397   3.777   0.106   2.538  0.5314 -0.2144  0.1736
 1408SOL    HW2 5398   3.843   0.157   2.492 -2.0071  2.5166 -0.8108
 1408SOL    HW3 5399   3.798   0.117   2.631  1.7756  0.0621 -0.1217
 1408SOL    MW4 5400   3.788   0.114   2.544  0.3607  0.1824  0.0048
 1409SOL     OW 5401   5.614   2.984   0.263 -0.1618 -0.1729 -0.0353
 1409SOL    HW2 5402   5.527   2.966   0.227 -1.2398 -0.0924  2.3507
 1409SOL    HW3 5403   5.620   3.079   0.265  0.6127 -0.1605 -1.5041
 1409SOL    MW4 5404   5.603   2.994   0.258 -0.2018 -0.1606  0.0857
 1410SOL     OW 5405   0.946   2.784   1.467 -0.7694 -0.6232 -0.6929
 1410SOL    HW2 5406   1.008   2.787   1.394 -0.5697 -1.6483 -0.5703
 1410SOL    HW3 5407   0.860   2.776   1.425 -0.6152 -1.7669 -0.8211
 1410SOL    MW4 5408   0.943   2.784   1.452 -0.7227 -0.9094 -0.6936
 1411SOL     OW 5409   4.922   3.106   3.709 -0.1844  0.1963  0.1375
 1411SOL    HW2 5410   4.957   3.195   3.724 -0.2168  0.1383  0.5482
 1411SOL    HW3 5411   5.000   3.051   3.702 -0.1602  0.2731 -0.2431
 1411SOL    MW4 5412   4.937   3.111   3.710 -0.1855  0.1988  0.1415
 1412SOL     OW 5413   4.692   2.876   4.274 -0.2993 -0.1474  0.4321
 1412SOL    HW2 5414   4.628   2.940   4.245 -1.5785 -1.3472  0.5009
 1412SOL    HW3 5415   4.759   2.875   4.205 -0.1036  1.4408  0.5809
 1412SOL    MW4 5416   4.692   2.884   4.261 -0.4422 -0.0961  0.4608
 1413SOL     OW 5417   1.982   6.088   2.362 -0.3745  0.4037  0.6682
 1413SOL    HW2 5418   1.915   6.150   2.391  0.2343  1.3499  0.0810
 1413SOL    HW3 5419   1.938   6.003   2.365 -1.8055  1.0719 -0.3152
 1413SOL    MW4 5420   1.967   6.085   2.366 -0.4829  0.6167  0.4610
 1414SOL     OW 5421   2.093   5.812   1.996 -0.0776 -0.4643  0.3459
 1414SOL    HW2 5422   2.028   5.747   1.969 -0.4479  0.3863 -0.8863
 1414SOL    HW3 5423   2.112   5.790   2.087 -1.1173 -1.5352  0.3284
 1414SOL    MW4 5424   2.087   5.801   2.004 -0.2636 -0.4934  0.1810
 1415SOL     OW 5425   0.963   5.379   2.475  0.0314  0.4279  0.3788
 1415SOL    HW2 5426   1.032   5.392   2.540  0.0003 -2.1390  1.0328
 1415SOL    HW3 5427   0.966   5.286   2.455 -0.5334  0.9699 -2.7123
 1415SOL    MW4 5428   0.972   5.369   2.481 -0.0472  0.1607  0.0572
 1416SOL     OW 5429   5.393   2.118   0.455  0.4222 -0.2741 -0.6693
 1416SOL    HW2 5430   5.326   2.176   0.492 -0.2223 -0.1966 -1.9179
 1416SOL    HW3 5431   5.434   2.078   0.532 -0.6724  0.1024  0.1421
 1416SOL    MW4 5432   5.389   2.120   0.470  0.1927 -0.2142 -0.7270
 1417SOL     OW 5433   6.202   5.607   6.408 -0.0468  0.0177 -0.5578
 1417SOL    HW2 5434   6.274   5.567   6.360 -0.4380 -0.8381 -0.4458
 1417SOL    HW3 5435   6.137   5.537   6.416 -1.2882  1.0209 -1.4453
 1417SOL    MW4 5436   6.203   5.593   6.403 -0.2622  0.0372 -0.6601
 1418SOL     OW 5437   4.351   2.070   4.042  0.1351  0.5515  0.4574
 1418SOL    HW2 5438   4.308   2.081   3.957 -2.0265  2.5590  1.6960
 1418SOL    HW3 5439   4.414   2.142   4.048 -0.0732  0.7140  0.7401
 1418SOL    MW4 5440   4.353   2.081   4.032 -0.1776  0.8378  0.6581
 1419SOL     OW 5441   1.518   4.392   2.444  0.5816  0.4503  0.6066
 1419SOL    HW2 5442   1.554   4.384   2.533  0.4716 -0.3733  0.5836
 1419SOL    HW3 5443   1.533   4.484   2.421  2.6996  0.1462  0.5928
 1419SOL    MW4 5444   1.525   4.403   2.453  0.8465  0.3015  0.6018
 1420SOL     OW 5445   0.688   1.954   0.370  0.8353  0.2003  0.5358
 1420SOL    HW2 5446   0.711   1.873   0.416  2.1353 -0.0029 -0.3993
 1420SOL    HW3 5447   0.680   1.928   0.278  0.9095  1.0563  0.2795
 1420SOL    MW4 5448   0.690   1.940   0.364  1.0166  0.2864  0.3786
 1421SOL     OW 5449   6.008   3.119   4.272 -0.3901 -0.2896 -0.6408
 1421SOL    HW2 5450   5.955   3.199   4.268  0.3583  0.2043 -0.8827
 1421SOL    HW3 5451   6.095   3.147   4.243 -0.0549 -1.1382 -0.4631
 1421SOL    MW4 5452   6.013   3.133   4.268 -0.2471 -0.3364 -0.6493
 1422SOL     OW 5453   4.007   1.625   3.248  0.2493 -0.3947  0.1342
 1422SOL    HW2 5454   3.984   1.698   3.305  0.6763 -0.7870  0.8232
 1422SOL    HW3 5455   4.050   1.665   3.172 -1.3130  0.2291 -0.4667
 1422SOL    MW4 5456   4.009   1.640   3.245  0.0995 -0.3641  0.1458
 1423SOL     OW 5457   4.319   1.539   1.762 -0.4797  0.5853 -0.0338
 1423SOL    HW2 5458   4.231   1.544   1.725 -0.1523  0.0989 -0.9095
 1423SOL    HW3 5459   4.377   1.558   1.689  0.2276 -1.4618 -0.0665
 1423SOL    MW4 5460   4.315   1.542   1.748 -0.3432  0.2511 -0.1536
 1424SOL     OW 5461   4.145   3.296   4.256 -0.4109 -0.6420  0.1960
 1424SOL    HW2 5462   4.059   3.338   4.251  0.3853  0.9706 -1.4319
 1424SOL    HW3 5463   4.157   3.257   4.169  1.0715  0.4152 -0.1061
 1424SOL    MW4 5464   4.135   3.296   4.244 -0.1103 -0.2898 -0.0586
 1425SOL     OW 5465   2.676   1.187   3.507  0.5231 -0.7166 -0.0908
 1425SOL    HW2 5466   2.662   1.160   3.597 -2.1812 -0.2366 -0.2833
 1425SOL    HW3 5467   2.698   1.107   3.460  1.5739 -1.0260  0.8748
 1425SOL    MW4 5468   2.677   1.173   3.512  0.3049 -0.6941  0.0112
 1426SOL     OW 5469   3.737   1.280   0.845  0.1458  0.1446  0.2259
 1426SOL    HW2 5470   3.813   1.331   0.873  1.0873 -1.5416  0.9030
 1426SOL    HW3 5471   3.763   1.241   0.762 -1.2365  2.0863 -1.2239
 1426SOL    MW4 5472   3.750   1.282   0.838  0.0876  0.1783  0.1239
 1427SOL     OW 5473   3.731   6.447   1.681  0.1165 -0.1413  0.1846
 1427SOL    HW2 5474   3.782   6.420   1.605 -0.1765  1.9224 -0.7956
 1427SOL    HW3 5475   3.686   6.368   1.709  0.0130 -0.8935 -1.9547
 1427SOL    MW4 5476   3.732   6.433   1.675  0.0642  0.0317 -0.2270
 1428SOL     OW 5477   2.947   0.827   3.962  0.6354  0.2261  0.3434
 1428SOL    HW2 5478   3.023   0.795   3.913  2.6840  0.1073  3.3223
 1428SOL    HW3 5479   2.878   0.763   3.945  2.0274 -1.1102 -0.4404
 1428SOL    MW4 5480   2.948   0.814   3.954  1.0893  0.0341  0.6330
 1429SOL     OW 5481   4.941   2.176   2.906  0.2658 -0.3613  0.8186
 1429SOL    HW2 5482   4.854   2.215   2.907  1.1440  1.6909  0.8873
 1429SOL    HW3 5483   4.932   2.095   2.957 -1.8929 -0.9362 -0.3624
 1429SOL    MW4 5484   4.928   2.170   2.912  0.0969 -0.1664  0.6719
 1430SOL     OW 5485   4.304   4.382   3.770 -0.4463 -0.9527  0.1850
 1430SOL    HW2 5486   4.389   4.347   3.743 -0.4971 -0.9452  0.0141
 1430SOL    HW3 5487   4.263   4.411   3.688 -0.6508 -1.0412  0.2552
 1430SOL    MW4 5488   4.310   4.381   3.756 -0.4800 -0.9634  0.1717
 1431SOL     OW 5489   5.758   3.957   5.080 -0.7206 -0.4418  0.1448
 1431SOL    HW2 5490   5.831   4.017   5.095  0.3195 -2.1379  2.3998
 1431SOL    HW3 5491   5.789   3.899   5.010 -0.9916  0.4102 -0.7147
 1431SOL    MW4 5492   5.772   3.957   5.073 -0.6191 -0.5532  0.3289
 1432SOL     OW 5493   4.881   4.513   5.969  0.5200 -0.3748  0.0763
 1432SOL    HW2 5494   4.788   4.535   5.959  0.1767 -0.5782  2.3168
 1432SOL    HW3 5495   4.927   4.594   5.949 -0.1921 -0.0054 -0.1202
 1432SOL    MW4 5496   4.875   4.526   5.965  0.3807 -0.3529  0.3460
 1433SOL     OW 5497   1.597   5.555   3.858  0.1010  0.1045  0.0367
 1433SOL    HW2 5498   1.676   5.503   3.866  1.0269  1.6081  1.2806
 1433SOL    HW3 5499   1.544   5.530   3.935 -0.5488 -0.7161 -0.6576
 1433SOL    MW4 5500   1.600   5.545   3.870  0.1374  0.1946  0.1092
 1434SOL     OW 5501   2.081   3.645   2.265 -0.3256  0.3491 -0.1394
 1434SOL    HW2 5502   2.141   3.651   2.190  1.2970 -0.2866  1.0492
 1434SOL    HW3 5503   2.124   3.585   2.326 -1.8839  0.3806  1.0671
 1434SOL    MW4 5504   2.095   3.638   2.263 -0.3171  0.2694  0.1766
 1435SOL     OW 5505   3.568   1.324   0.513  0.3404  0.1306  0.0745
 1435SOL    HW2 5506   3.475   1.308   0.498  0.2411  0.0925  0.7111
 1435SOL    HW3 5507   3.603   1.342   0.426 -0.5975  1.9385  0.0040
 1435SOL    MW4 5508   3.560   1.324   0.499  0.2036  0.3641  0.1492
 1436SOL     OW 5509   0.521   5.711   3.555  0.4953 -0.1557  0.0903
 1436SOL    HW2 5510   0.441   5.719   3.504  1.0191 -0.5950 -0.8298
 1436SOL    HW3 5511   0.583   5.770   3.513  1.2065 -1.1808 -0.3706
 1436SOL    MW4 5512   0.519   5.720   3.543  0.6582 -0.3489 -0.0919
 1437SOL     OW 5513   5.468   3.450   5.344 -0.4282  0.4012 -0.1045
 1437SOL    HW2 5514   5.410   3.514   5.303 -1.0581  0.9891  1.5976
 1437SOL    HW3 5515   5.412   3.374   5.362 -0.6004  0.7861  1.1073
 1437SOL    MW4 5516   5.453   3.449   5.341 -0.5340  0.5295  0.2800
 1438SOL     OW 5517   6.058   1.146   2.010 -0.1668 -0.3405  0.4969
 1438SOL    HW2 5518   6.096   1.177   1.928 -0.7341  2.4364  1.1879
 1438SOL    HW3 5519   5.985   1.090   1.983  0.2788 -0.2993 -0.8687
 1438SOL    MW4 5520   6.053   1.142   1.995 -0.1829  0.0313  0.4079
 1439SOL     OW 5521   1.909   0.519   5.845  0.5026 -0.2983 -0.0728
 1439SOL    HW2 5522   1.942   0.605   5.871  0.3341 -0.7258  1.6388
 1439SOL    HW3 5523   1.850   0.537   5.772  0.9029  0.9701 -0.1080
 1439SOL    MW4 5524   1.906   0.532   5.838  0.5332 -0.1874  0.1484
 1440SOL     OW 5525   2.431   0.146   2.879 -0.6895  0.0017 -0.3905
 1440SOL    HW2 5526   2.440   0.212   2.811 -0.1358  1.7869  1.3224
 1440SOL    HW3 5527   2.453   0.063   2.835 -1.5006  0.8977 -2.6247
 1440SOL    MW4 5528   2.435   0.144   2.864 -0.7234  0.3555 -0.4593
 1441SOL     OW 5529   5.867   1.799   3.358  0.5697 -0.1035 -0.1187
 1441SOL    HW2 5530   5.930   1.738   3.320  2.0868  1.3202 -0.0104
 1441SOL    HW3 5531   5.894   1.885   3.324 -1.0827  0.6015  0.2653
 1441SOL    MW4 5532   5.879   1.802   3.348  0.5518  0.1774 -0.0538
 1442SOL     OW 5533   2.579   3.094   3.625 -0.5195  0.6488 -0.2808
 1442SOL    HW2 5534   2.595   3.160   3.558  2.2026  1.0088  0.6124
 1442SOL    HW3 5535   2.666   3.064   3.651 -1.4766 -0.1279  2.4184
 1442SOL    MW4 5536   2.592   3.099   3.620 -0.2866  0.5938  0.1932
 1443SOL     OW 5537   0.567   1.228   2.159 -0.3254 -0.5684 -0.0411
 1443SOL    HW2 5538   0.532   1.149   2.202  1.3387 -0.9268  0.7150
 1443SOL    HW3 5539   0.623   1.269   2.225 -0.2671  0.6434 -0.8127
 1443SOL    MW4 5540   0.570   1.223   2.173 -0.0982 -0.4558 -0.0432
 1444SOL     OW 5541   4.730   5.724   3.437 -0.1162  0.3822 -0.1910
 1444SOL    HW2 5542   4.635   5.736   3.443 -0.0802  0.4941  0.1846
 1444SOL    HW3 5543   4.743   5.678   3.354 -0.5126  0.2053 -0.1581
 1444SOL    MW4 5544   4.719   5.720   3.427 -0.1638  0.3736 -0.1371
 1445SOL     OW 5545   6.200   0.233   3.792 -0.4034 -0.0525  0.0950
 1445SOL    HW2 5546   6.234   0.149   3.761  0.2409  0.6956 -1.3416
 1445SOL    HW3 5547   6.145   0.211   3.867  0.4693 -1.6563  0.2998
 1445SOL    MW4 5548   6.197   0.219   3.798 -0.2032 -0.1654 -0.0675
 1446SOL     OW 5549   4.172   5.313   5.335 -0.1894  1.1991  0.3551
 1446SOL    HW2 5550   4.249   5.320   5.278  0.2891  1.0803  0.9678
 1446SOL    HW3 5551   4.196   5.247   5.400 -1.0673  0.6852  0.1719
 1446SOL    MW4 5552   4.186   5.306   5.336 -0.2421  1.1156  0.4117
 1447SOL     OW 5553   0.474   0.919   5.067 -0.0695 -0.9399  0.0049
 1447SOL    HW2 5554   0.387   0.959   5.073  0.0941 -0.6527  0.5046
 1447SOL    HW3 5555   0.473   0.850   5.133 -0.0700 -1.2351 -0.3000
 1447SOL    MW4 5556   0.462   0.915   5.077 -0.0480 -0.9410  0.0306
 1448SOL     OW 5557   3.463   5.720   4.426 -0.4320 -0.1018  0.3470
 1448SOL    HW2 5558   3.517   5.661   4.478  1.9864 -1.1758 -3.0849
 1448SOL    HW3 5559   3.405   5.662   4.376  1.1620  0.3356 -2.1915
 1448SOL    MW4 5560   3.462   5.704   4.426  0.0974 -0.1858 -0.4407
 1449SOL     OW 5561   4.391   5.605   3.100  0.5608 -0.1583 -0.6033
 1449SOL    HW2 5562   4.458   5.654   3.052  0.5281  1.4433  0.8907
 1449SOL    HW3 5563   4.308   5.629   3.058  0.7074 -0.4246 -1.0561
 1449SOL    MW4 5564   4.389   5.615   3.088  0.5759  0.0179 -0.4659
 1450SOL     OW 5565   3.099   3.514   6.374 -0.0997 -0.1050 -0.2455
 1450SOL    HW2 5566   3.094   3.418   6.370 -1.0383 -0.0658 -0.2834
 1450SOL    HW3 5567   3.168   3.536   6.312  0.9291 -0.8127  0.6124
 1450SOL    MW4 5568   3.107   3.504   6.365 -0.0878 -0.1932 -0.1373
 1451SOL     OW 5569   6.068   6.090   5.242 -0.1362 -0.0672 -0.7513
 1451SOL    HW2 5570   6.020   6.173   5.253 -0.4964 -0.4526  0.8358
 1451SOL    HW3 5571   6.022   6.045   5.171 -0.8317  0.4809 -0.6659
 1451SOL    MW4 5572   6.055   6.095   5.234 -0.2755 -0.0457 -0.5307
 1452SOL     OW 5573   1.385   0.587   4.086  0.1892 -0.1815  0.1060
 1452SOL    HW2 5574   1.336   0.543   4.016 -0.5294 -2.3824  1.8699
 1452SOL    HW3 5575   1.450   0.523   4.114  1.5171  1.2519  0.4511
 1452SOL    MW4 5576   1.387   0.573   4.081  0.2696 -0.2827  0.3842
 1453SOL     OW 5577   1.344   6.425   3.387  0.0951  0.3658  0.1451
 1453SOL    HW2 5578   1.316   6.473   3.309  0.3870 -0.7727 -0.6894
 1453SOL    HW3 5579   1.264   6.416   3.439 -0.2311  0.6411 -0.2988
 1453SOL    MW4 5580   1.330   6.430   3.383  0.0905  0.2519 -0.0236
 1454SOL     OW 5581   0.351   3.924   1.779  0.7541  0.0664  0.0842
 1454SOL    HW2 5582   0.328   4.008   1.820 -0.1643  0.2253 -0.7243
 1454SOL    HW3 5583   0.274   3.870   1.792  0.4833  0.0839 -1.3266
 1454SOL    MW4 5584   0.338   3.928   1.786  0.5972  0.0897 -0.2086
 1455SOL     OW 5585   5.773   2.573   5.261 -0.5180 -0.1800 -0.2428
 1455SOL    HW2 5586   5.733   2.611   5.183  0.4664  0.9578 -0.2359
 1455SOL    HW3 5587   5.772   2.644   5.325 -0.5624 -0.8425  0.4949
 1455SOL    MW4 5588   5.768   2.588   5.259 -0.3940 -0.1173 -0.1446
 1456SOL     OW 5589   0.609   4.326   1.312 -0.2987 -0.5444 -0.1382
 1456SOL    HW2 5590   0.617   4.422   1.306 -2.9203 -0.3461 -1.8850
 1456SOL    HW3 5591   0.686   4.293   1.266  0.9879  0.6520  1.0389
 1456SOL    MW4 5592   0.620   4.335   1.305 -0.4748 -0.3604 -0.2134
 1457SOL     OW 5593   5.534   3.789   1.660  0.7369 -0.3821 -0.4572
 1457SOL    HW2 5594   5.496   3.709   1.697  0.6537 -0.0164  0.2624
 1457SOL    HW3 5595   5.507   3.858   1.720 -0.3317  0.4009 -1.8024
 1457SOL    MW4 5596   5.526   3.787   1.673  0.5849 -0.2305 -0.5397
 1458SOL     OW 5597   6.234   5.158   2.876  0.2744 -0.2237 -0.3783
 1458SOL    HW2 5598   6.290   5.210   2.933  2.1623 -0.5870 -1.8081
 1458SOL    HW3 5599   6.223   5.075   2.922  1.9996 -0.6116 -0.5949
 1458SOL    MW4 5600   6.240   5.154   2.890  0.7511 -0.3228 -0.5955
 1459SOL     OW 5601   2.899   3.602   5.355  0.0449  0.5285 -0.3952
 1459SOL    HW2 5602   2.816   3.649   5.345 -1.0159 -1.1619  0.0730
 1459SOL    HW3 5603   2.965   3.671   5.354 -1.3282  1.9129 -1.0223
 1459SOL    MW4 5604   2.897   3.618   5.353 -0.2762  0.4881 -0.4162
 1460SOL     OW 5605   0.355   4.178   2.922  0.3015 -0.1682 -0.0812
 1460SOL    HW2 5606   0.355   4.247   2.855  1.7611 -0.7834 -0.7499
 1460SOL    HW3 5607   0.353   4.226   3.005 -2.3918  0.6031 -0.4881
 1460SOL    MW4 5608   0.355   4.194   2.924  0.1387 -0.1476 -0.2231
 1461SOL     OW 5609   4.837   2.302   4.956 -0.0505  0.5847  0.3286
 1461SOL    HW2 5610   4.856   2.209   4.948 -1.3297  0.3778 -0.5268
 1461SOL    HW3 5611   4.894   2.332   5.028  2.2651 -0.2915 -1.0306
 1461SOL    MW4 5612   4.847   2.294   4.965  0.0863  0.4418  0.0364
 1462SOL     OW 5613   4.282   5.211   4.703  0.3361 -0.5537 -0.4327
 1462SOL    HW2 5614   4.358   5.238   4.755 -2.4652  0.4470  3.7018
 1462SOL    HW3 5615   4.278   5.274   4.632  2.8285 -0.0962 -0.2506
 1462SOL    MW4 5616   4.292   5.223   4.701  0.2953 -0.3613  0.1368
 1463SOL     OW 5617   2.063   1.751   3.610 -0.1722 -0.3083  0.0301
 1463SOL    HW2 5618   2.154   1.731   3.589 -0.3685 -1.0069 -0.1754
 1463SOL    HW3 5619   2.024   1.667   3.633 -0.8374 -0.0584 -0.1476
 1463SOL    MW4 5620   2.069   1.737   3.610 -0.2859 -0.3675 -0.0205
 1464SOL     OW 5621   4.540   5.681   2.794  0.5222 -0.6875  0.6294
 1464SOL    HW2 5622   4.552   5.660   2.701 -1.8772 -0.1276  0.1173
 1464SOL    HW3 5623   4.585   5.764   2.806 -3.3634  2.0567 -1.4914
 1464SOL    MW4 5624   4.548   5.689   2.783 -0.3070 -0.2516  0.2820
 1465SOL     OW 5625   6.287   6.427   1.209  0.1937  0.1146  0.5912
 1465SOL    HW2 5626   6.266   6.339   1.239 -0.6436  0.3682  0.7550
 1465SOL    HW3 5627   6.321   6.471   1.287 -0.1455  0.1819  0.7007
 1465SOL    MW4 5628   6.289   6.421   1.223  0.0385  0.1569  0.6272
 1466SOL     OW 5629   3.347   5.547   1.982 -0.2359 -0.3527  0.5336
 1466SOL    HW2 5630   3.322   5.495   1.906  1.2093 -0.8222  0.3594
 1466SOL    HW3 5631   3.271   5.543   2.040 -1.5772  0.4563 -1.0945
 1466SOL    MW4 5632   3.334   5.540   1.979 -0.2222 -0.3079  0.2958
 1467SOL     OW 5633   2.850   1.019   1.306  0.1672 -0.0386 -0.1511
 1467SOL    HW2 5634   2.783   0.961   1.343 -0.8532  1.0562 -0.2550
 1467SOL    HW3 5635   2.805   1.067   1.236  1.3864 -0.1721 -1.0699
 1467SOL    MW4 5636   2.835   1.017   1.302  0.1934  0.0882 -0.2860
 1468SOL     OW 5637   2.287   4.492   4.260  0.3763  0.3094  0.2677
 1468SOL    HW2 5638   2.211   4.474   4.314  0.5619 -0.2873  0.3329
 1468SOL    HW3 5639   2.317   4.579   4.289 -1.0740  1.1835 -0.7073
 1468SOL    MW4 5640   2.281   4.501   4.271  0.2095  0.3460  0.1477
 1469SOL     OW 5641   0.221   4.978   1.803 -0.2297  0.1614  0.6894
 1469SOL    HW2 5642   0.254   5.067   1.788 -0.9637  0.7710  2.3658
 1469SOL    HW3 5643   0.174   4.984   1.887 -0.8941 -1.6555  0.4936
 1469SOL    MW4 5644   0.219   4.991   1.812 -0.4142  0.0021  0.8848
 1470SOL     OW 5645   2.424   4.791   4.797  0.7902  0.0434  0.0389
 1470SOL    HW2 5646   2.331   4.813   4.800  0.8584  0.2132  1.9129
 1470SOL    HW3 5647   2.459   4.846   4.726 -0.5445 -0.1461 -0.7996
 1470SOL    MW4 5648   2.417   4.801   4.788  0.6231  0.0408  0.1755
 1471SOL     OW 5649   3.138   1.631   4.231 -0.3856  0.9675  0.1199
 1471SOL    HW2 5650   3.189   1.613   4.310  1.5045 -0.3207 -1.3327
 1471SOL    HW3 5651   3.202   1.632   4.160 -2.2713 -0.1063 -1.7067
 1471SOL    MW4 5652   3.153   1.629   4.232 -0.3850  0.6559 -0.3127
 1472SOL     OW 5653   4.237   1.166   1.906 -0.6002  0.2731 -0.3179
 1472SOL    HW2 5654   4.146   1.193   1.912 -0.8746 -0.9543  2.8248
 1472SOL    HW3 5655   4.236   1.073   1.929  1.4884  0.3561  0.3300
 1472SOL    MW4 5656   4.225   1.157   1.910 -0.3608  0.1221  0.1822
 1473SOL     OW 5657   3.598   5.480   4.255 -0.2816 -0.2492  0.1919
 1473SOL    HW2 5658   3.522   5.491   4.312 -0.6722 -1.1123 -0.1340
 1473SOL    HW3 5659   3.560   5.450   4.172  0.2031  1.6647 -0.7658
 1473SOL    MW4 5660   3.583   5.478   4.251 -0.2692 -0.1106  0.0226
 1474SOL     OW 5661   5.126   5.765   2.502  0.1005  0.4947 -0.5045
 1474SOL    HW2 5662   5.179   5.687   2.515  0.1392  0.7117  0.7383
 1474SOL    HW3 5663   5.037   5.738   2.526  0.1658  0.9035  0.2213
 1474SOL    MW4 5664   5.121   5.751   2.507  0.1142  0.5773 -0.2448
 1475SOL     OW 5665   4.649   4.675   5.916  0.4669 -0.0745 -0.2304
 1475SOL    HW2 5666   4.598   4.601   5.883  1.4005 -0.9266  0.1761
 1475SOL    HW3 5667   4.695   4.709   5.839  1.5897 -1.2046 -0.0992
 1475SOL    MW4 5668   4.649   4.669   5.901  0.7382 -0.3360 -0.1595
 1476SOL     OW 5669   3.804   1.226   3.931 -0.1405  0.2498 -0.1887
 1476SOL    HW2 5670   3.833   1.296   3.989  0.4800 -0.5020  0.4276
 1476SOL    HW3 5671   3.852   1.149   3.960 -0.0871 -0.2265 -1.4718
 1476SOL    MW4 5672   3.814   1.225   3.943 -0.0516  0.0878 -0.2767
 1477SOL     OW 5673   4.727   0.924   5.048 -0.7105 -0.5726 -0.4300
 1477SOL    HW2 5674   4.725   0.918   4.952 -0.2151 -0.8538 -0.4279
 1477SOL    HW3 5675   4.718   1.017   5.066  0.4207 -0.3678 -0.8046
 1477SOL    MW4 5676   4.726   0.936   5.038 -0.4959 -0.5827 -0.4792
 1478SOL     OW 5677   3.527   0.230   4.751  0.1043 -0.0017 -0.6033
 1478SOL    HW2 5678   3.459   0.183   4.703  0.4757 -1.1787 -0.0191
 1478SOL    HW3 5679   3.599   0.240   4.689 -0.1982  0.3166 -0.9054
 1478SOL    MW4 5680   3.528   0.225   4.737  0.1134 -0.1150 -0.5661
 1479SOL     OW 5681   0.127   1.050   0.991 -0.1789 -0.2973 -0.4236
 1479SOL    HW2 5682   0.128   0.980   0.925  0.9920  1.1387 -2.0207
 1479SOL    HW3 5683   0.095   1.008   1.070 -0.0031 -2.5217 -1.4596
 1479SOL    MW4 5684   0.123   1.035   0.992 -0.0012 -0.4013 -0.7710
 1480SOL     OW 5685   1.027   3.035   3.645  0.3263 -0.1015 -0.3559
 1480SOL    HW2 5686   0.965   3.020   3.716  1.0060  1.1593  0.5493
 1480SOL    HW3 5687   0.973   3.036   3.566 -0.6500 -0.1465  0.2942
 1480SOL    MW4 5688   1.012   3.033   3.643  0.2872  0.0589 -0.1507
 1481SOL     OW 5689   3.815   1.545   5.290 -0.0321  0.0865 -0.3772
 1481SOL    HW2 5690   3.802   1.484   5.218  0.9222  0.1394 -0.6150
 1481SOL    HW3 5691   3.862   1.619   5.250 -0.3939  0.5774  0.0878
 1481SOL    MW4 5692   3.820   1.547   5.275  0.0461  0.1583 -0.3472
 1482SOL     OW 5693   0.769   2.551   3.465 -0.2580  0.5624 -0.2611
 1482SOL    HW2 5694   0.784   2.616   3.397 -1.4584  0.6605 -0.4540
 1482SOL    HW3 5695   0.730   2.601   3.537  0.2341  0.3143  0.1835
 1482SOL    MW4 5696   0.765   2.566   3.466 -0.3514  0.5426 -0.2279
 1483SOL     OW 5697   3.561   6.397   4.880  0.1963 -0.0753  0.7482
 1483SOL    HW2 5698   3.586   6.419   4.970 -1.0923 -1.5735  1.5248
 1483SOL    HW3 5699   3.577   6.478   4.831 -0.8997  1.4556  2.7131
 1483SOL    MW4 5700   3.566   6.411   4.886 -0.1183 -0.0710  1.1099
 1484SOL     OW 5701   2.205   0.324   4.670 -0.0643  0.3842 -0.2957
 1484SOL    HW2 5702   2.124   0.298   4.713 -0.8260  0.9939 -1.3179
 1484SOL    HW3 5703   2.207   0.273   4.589  1.1360 -0.4299  0.2184
 1484SOL    MW4 5704   2.195   0.314   4.665 -0.0064  0.3572 -0.3627
 1485SOL     OW 5705   5.761   4.254   4.219 -0.7005 -0.9419 -0.4213
 1485SOL    HW2 5706   5.807   4.223   4.141 -1.1709  0.0062 -1.0901
 1485SOL    HW3 5707   5.804   4.337   4.241  1.2643 -2.4484  1.9728
 1485SOL    MW4 5708   5.773   4.261   4.212 -0.5033 -1.0156 -0.1937
 1486SOL     OW 5709   1.208   3.667   4.375 -0.2954  0.1190 -0.7039
 1486SOL    HW2 5710   1.254   3.740   4.334  2.1613  0.6947  2.6421
 1486SOL    HW3 5711   1.274   3.623   4.427 -2.6016 -1.9936  0.6771
 1486SOL    MW4 5712   1.222   3.671   4.377 -0.2755 -0.0838 -0.0802
 1487SOL     OW 5713   0.451   1.948   5.307 -0.1086 -0.0700  0.7436
 1487SOL    HW2 5714   0.478   2.012   5.372 -0.7475  0.3353  0.6088
 1487SOL    HW3 5715   0.369   1.982   5.271 -0.9685 -1.4363  1.3442
 1487SOL    MW4 5716   0.444   1.961   5.311 -0.3063 -0.1968  0.8051
 1488SOL     OW 5717   5.367   5.479   4.311  0.1798  0.0386 -0.6128
 1488SOL    HW2 5718   5.454   5.518   4.324 -0.2620  1.0163 -0.5071
 1488SOL    HW3 5719   5.322   5.541   4.253 -1.1071  0.5651  0.8694
 1488SOL    MW4 5720   5.373   5.493   4.305 -0.0483  0.2371 -0.4033
 1489SOL     OW 5721   5.592   0.685   5.817  0.2917 -0.7129  0.7492
 1489SOL    HW2 5722   5.569   0.762   5.765  0.1730 -0.1131  1.6683
 1489SOL    HW3 5723   5.508   0.646   5.840  0.2088  0.4147  2.5255
 1489SOL    MW4 5724   5.578   0.690   5.813  0.2651 -0.4850  1.1048
 1490SOL     OW 5725   0.471   1.425   5.048  0.0671 -0.6762  0.5619
 1490SOL    HW2 5726   0.486   1.433   5.142 -0.0691  2.0200  0.4414
 1490SOL    HW3 5727   0.558   1.410   5.010  0.2684 -0.6813  1.0269
 1490SOL    MW4 5728   0.484   1.424   5.055  0.0757 -0.3211  0.6074
 1491SOL     OW 5729   1.626   2.325   4.373  0.2921 -0.0258 -0.0104
 1491SOL    HW2 5730   1.707   2.336   4.424 -2.0450  2.2044  3.6805
 1491SOL    HW3 5731   1.579   2.254   4.417 -0.6877  0.1746 -0.7118
 1491SOL    MW4 5732   1.631   2.317   4.386 -0.1455  0.2949  0.3841
 1492SOL     OW 5733   1.269   4.750   5.397 -0.1761  0.1933 -0.1614
 1492SOL    HW2 5734   1.357   4.728   5.366 -0.0558  0.0888  0.2464
 1492SOL    HW3 5735   1.280   4.835   5.441 -0.2303  0.0702  0.0946
 1492SOL    MW4 5736   1.282   4.758   5.399 -0.1674  0.1633 -0.0738
 1493SOL     OW 5737   6.313   1.650   5.810  0.2876 -0.6037  0.4638
 1493SOL    HW2 5738   6.237   1.704   5.835 -0.0158 -0.6256 -0.3833
 1493SOL    HW3 5739   6.323   1.665   5.716 -0.3186 -2.6468  0.0127
 1493SOL    MW4 5740   6.304   1.659   5.801  0.1676 -0.8762  0.2925
 1494SOL     OW 5741   3.390   4.796   2.250 -0.1781  0.2717  0.1894
 1494SOL    HW2 5742   3.355   4.801   2.161 -1.0130 -2.5042  0.2808
 1494SOL    HW3 5743   3.356   4.874   2.293 -0.1794  1.4143 -1.7665
 1494SOL    MW4 5744   3.381   4.807   2.244 -0.2884  0.0562 -0.0566
 1495SOL     OW 5745   5.720   0.936   3.443 -0.0225  0.3057  0.8879
 1495SOL    HW2 5746   5.723   0.936   3.538 -3.2366 -1.3397  1.1215
 1495SOL    HW3 5747   5.786   0.872   3.417 -0.4087 -0.6609  2.1739
 1495SOL    MW4 5748   5.729   0.927   3.452 -0.4975 -0.0389  1.0884
 1496SOL     OW 5749   5.853   0.414   2.559  0.0005 -0.0799 -0.2874
 1496SOL    HW2 5750   5.810   0.458   2.486 -3.9390 -1.1303  1.1553
 1496SOL    HW3 5751   5.782   0.379   2.612  2.6976 -1.3996  2.8629
 1496SOL    MW4 5752   5.838   0.415   2.556 -0.1634 -0.3926  0.3185
 1497SOL     OW 5753   0.651   6.420   1.240  0.2912 -0.5935 -0.2172
 1497SOL    HW2 5754   0.655   6.342   1.185  0.2631 -0.7138 -0.0484
 1497SOL    HW3 5755   0.559   6.447   1.237  0.7147  0.8676 -2.2725
 1497SOL    MW4 5756   0.639   6.413   1.233  0.3434 -0.4166 -0.4661
 1498SOL     OW 5757   5.591   2.347   3.053  0.0431  0.2437 -0.2514
 1498SOL    HW2 5758   5.527   2.299   3.001  1.0690 -0.1475 -1.1871
 1498SOL    HW3 5759   5.539   2.401   3.112 -1.1519  1.0805 -2.0167
 1498SOL    MW4 5760   5.576   2.348   3.054  0.0208  0.3025 -0.6077
 1499SOL     OW 5761   2.082   5.468   4.997 -0.4098 -0.6889  0.0773
 1499SOL    HW2 5762   2.147   5.466   4.927 -0.1028  0.2935  0.3164
 1499SOL    HW3 5763   2.129   5.506   5.072 -0.6184 -2.0787  0.9447
 1499SOL    MW4 5764   2.097   5.473   4.998 -0.3968 -0.7427  0.2233
 1500SOL     OW 5765   4.381   0.485   3.668 -0.0163  0.4843 -0.0647
 1500SOL    HW2 5766   4.438   0.461   3.742 -1.3736  0.4768  1.0335
 1500SOL    HW3 5767   4.421   0.563   3.631  1.6123 -0.4578 -0.3843
 1500SOL    MW4 5768   4.394   0.492   3.673  0.0195  0.3590  0.0380
 1501SOL     OW 5769   1.607   4.193   1.899 -0.2649  0.3763 -0.0057
 1501SOL    HW2 5770   1.596   4.271   1.845 -1.0682 -1.2410 -2.3438
 1501SOL    HW3 5771   1.520   4.153   1.903  0.0389 -0.2344  1.4654
 1501SOL    MW4 5772   1.595   4.198   1.893 -0.3308  0.0823 -0.1201
 1502SOL     OW 5773   3.602   2.682   4.181 -0.0380  0.1245  0.0779
 1502SOL    HW2 5774   3.569   2.770   4.159  0.8166  0.0438 -1.6353
 1502SOL    HW3 5775   3.688   2.698   4.219 -0.1737  0.0584  0.4189
 1502SOL    MW4 5776   3.609   2.696   4.183  0.0569  0.1051 -0.1032
 1503SOL     OW 5777   1.406   0.816   5.825  0.2776 -0.1944  0.0898
 1503SOL    HW2 5778   1.329   0.857   5.863  0.5330 -0.5161  0.9624
 1503SOL    HW3 5779   1.422   0.739   5.880 -0.1836 -1.4881 -1.4681
 1503SOL    MW4 5780   1.398   0.811   5.837  0.2504 -0.4076 -0.0006
 1504SOL     OW 5781   0.964   2.469   3.776  0.4922 -0.0565 -0.3127
 1504SOL    HW2 5782   1.041   2.441   3.824  0.5566  0.6259  0.0042
 1504SOL    HW3 5783   0.997   2.499   3.691  0.4744 -0.5087 -0.4823
 1504SOL    MW4 5784   0.978   2.470   3.771  0.4983 -0.0262 -0.2933
 1505SOL     OW 5785   5.465   3.850   6.268 -0.1785 -0.6141  0.0589
 1505SOL    HW2 5786   5.449   3.893   6.184 -0.2915 -1.6306 -0.4432
 1505SOL    HW3 5787   5.396   3.884   6.325 -0.6969 -0.6603 -0.5316
 1505SOL    MW4 5788   5.454   3.861   6.264 -0.2618 -0.7543 -0.0853
 1506SOL     OW 5789   2.282   4.302   3.188  0.3062 -0.2494  0.0697
 1506SOL    HW2 5790   2.326   4.376   3.231 -1.3490  1.3971 -0.9425
 1506SOL    HW3 5791   2.331   4.289   3.107 -0.5935  1.0967 -0.7109
 1506SOL    MW4 5792   2.294   4.310   3.183 -0.0309  0.1455 -0.1668
 1507SOL     OW 5793   2.872   1.988   0.480 -0.4091 -0.3203 -0.2025
 1507SOL    HW2 5794   2.909   2.043   0.550  0.5149  0.9137 -1.5927
 1507SOL    HW3 5795   2.780   2.014   0.475  0.1250  1.5438 -1.1792
 1507SOL    MW4 5796   2.865   1.998   0.489 -0.2168  0.0884 -0.5148
 1508SOL     OW 5797   4.035   0.185   3.986 -0.0049  0.3035  0.1048
 1508SOL    HW2 5798   3.954   0.139   3.962 -0.1197  0.4215  0.2612
 1508SOL    HW3 5799   4.010   0.238   4.062  0.6003 -0.8445  1.1360
 1508SOL    MW4 5800   4.021   0.186   3.993  0.0598  0.1676  0.2615
 1509SOL     OW 5801   0.499   3.265   1.427 -0.6511 -0.0974 -0.0650
 1509SOL    HW2 5802   0.525   3.287   1.516 -0.5821 -0.0136 -0.1058
 1509SOL    HW3 5803   0.547   3.326   1.372 -0.9300  0.0548 -0.1432
 1509SOL    MW4 5804   0.509   3.276   1.431 -0.6788 -0.0662 -0.0807
 1510SOL     OW 5805   0.431   2.469   2.663 -0.5258 -0.9082 -0.0554
 1510SOL    HW2 5806   0.473   2.473   2.577 -0.1559 -1.4493  0.0923
 1510SOL    HW3 5807   0.503   2.459   2.724 -0.7366  0.2495  0.3956
 1510SOL    MW4 5808   0.446   2.468   2.659 -0.5048 -0.8269  0.0236
 1511SOL     OW 5809   3.371   2.642   0.568 -0.0914  0.0798  0.0205
 1511SOL    HW2 5810   3.398   2.699   0.496 -1.7238  1.4713  0.4181
 1511SOL    HW3 5811   3.331   2.566   0.525  2.1014 -0.8365 -0.5171
 1511SOL    MW4 5812   3.369   2.639   0.553 -0.0175  0.1425  0.0020
 1512SOL     OW 5813   5.221   4.534   5.738 -0.3921  0.2184  1.2129
 1512SOL    HW2 5814   5.254   4.453   5.778 -0.3348 -0.8953 -0.9266
 1512SOL    HW3 5815   5.299   4.579   5.707 -0.4789  0.6579  1.6391
 1512SOL    MW4 5816   5.236   4.529   5.739 -0.3960  0.1294  0.9869
 1513SOL     OW 5817   4.005   2.172   1.663 -0.2436  0.4635  0.3089
 1513SOL    HW2 5818   3.912   2.168   1.686 -0.1727 -1.5401  0.4065
 1513SOL    HW3 5819   4.007   2.211   1.576 -1.2574 -0.1521 -0.0074
 1513SOL    MW4 5820   3.993   2.176   1.655 -0.3680  0.1179  0.2800
 1514SOL     OW 5821   4.889   5.611   6.205 -0.2896 -0.2950 -0.3373
 1514SOL    HW2 5822   4.925   5.524   6.220 -0.1788  0.0815  1.7906
 1514SOL    HW3 5823   4.888   5.652   6.291  0.0541  1.9659 -1.3436
 1514SOL    MW4 5824   4.894   5.605   6.218 -0.2297  0.0529 -0.1894
 1515SOL     OW 5825   3.499   3.195   0.965  0.1102  0.3100  0.1562
 1515SOL    HW2 5826   3.422   3.251   0.977  0.5881  0.9750  0.1637
 1515SOL    HW3 5827   3.523   3.206   0.873 -0.4207 -0.7203 -0.1274
 1515SOL    MW4 5828   3.492   3.204   0.954  0.1032  0.2618  0.1198
 1516SOL     OW 5829   0.013   3.981   6.191  0.0827  0.1358 -0.2350
 1516SOL    HW2 5830   0.065   3.969   6.112  1.0371  1.8778  0.0857
 1516SOL    HW3 5831  -0.072   4.012   6.159  1.1219  2.9151 -0.5838
 1516SOL    MW4 5832   0.008   3.984   6.176  0.3457  0.7323 -0.2387
 1517SOL     OW 5833   0.539   3.469   0.229  0.3132  0.2333  0.4306
 1517SOL    HW2 5834   0.483   3.543   0.207 -0.8353 -1.1318 -1.5681
 1517SOL    HW3 5835   0.625   3.492   0.193  0.0304  0.7219  0.0543
 1517SOL    MW4 5836   0.543   3.482   0.221  0.1243  0.1176  0.1172
 1518SOL     OW 5837   3.565   6.381   1.331 -0.4442  0.1345  1.2739
 1518SOL    HW2 5838   3.617   6.301   1.341 -1.0598 -0.4030  0.3004
 1518SOL    HW3 5839   3.495   6.357   1.271 -0.8420  1.3188  1.2373
 1518SOL    MW4 5840   3.563   6.367   1.325 -0.5779  0.2199  1.1406
 1519SOL     OW 5841   4.370   3.768   2.480  0.1689  0.2309  0.2653
 1519SOL    HW2 5842   4.432   3.811   2.421  0.4399  0.2798  0.5819
 1519SOL    HW3 5843   4.361   3.828   2.554  1.5244 -0.7912  1.3187
 1519SOL    MW4 5844   4.377   3.781   2.482  0.3835  0.1025  0.4461
 1520SOL     OW 5845   1.176   2.460   0.222 -0.0269  0.2363  0.2182
 1520SOL    HW2 5846   1.228   2.409   0.285 -0.6678  0.8412  1.2755
 1520SOL    HW3 5847   1.086   2.430   0.236 -0.2719  0.8998  0.1051
 1520SOL    MW4 5848   1.171   2.449   0.232 -0.1438  0.4037  0.3428
 1521SOL     OW 5849   5.643   0.995   0.065  0.3194  0.8611  0.4047
 1521SOL    HW2 5850   5.724   1.012   0.017 -0.3357 -0.2541 -1.1857
 1521SOL    HW3 5851   5.611   1.082   0.089  1.0803  1.4126 -0.5101
 1521SOL    MW4 5852   5.650   1.009   0.062  0.3334  0.7867  0.0741
 1522SOL     OW 5853   0.972   5.572   4.600 -0.4026 -0.6505 -0.1372
 1522SOL    HW2 5854   1.022   5.513   4.655 -0.1051 -0.4554 -0.1954
 1522SOL    HW3 5855   1.008   5.659   4.618  0.1797 -0.6595 -1.1459
 1522SOL    MW4 5856   0.983   5.576   4.609 -0.2865 -0.6259 -0.2780
 1523SOL     OW 5857   5.186   3.868   0.740 -0.1931  0.1937 -0.0793
 1523SOL    HW2 5858   5.253   3.818   0.786 -0.4787 -0.0727  0.0510
 1523SOL    HW3 5859   5.111   3.809   0.735 -0.5706  0.6504  0.1744
 1523SOL    MW4 5860   5.185   3.853   0.745 -0.2806  0.2188 -0.0287
 1524SOL     OW 5861   3.428   1.680   0.342 -0.2339 -0.2886 -0.0646
 1524SOL    HW2 5862   3.343   1.637   0.354  0.5395 -1.2680  2.9008
 1524SOL    HW3 5863   3.413   1.771   0.366 -0.4972 -0.4352  0.3427
 1524SOL    MW4 5864   3.415   1.686   0.347 -0.1666 -0.4372  0.3804
 1525SOL     OW 5865   5.007   5.029   4.724  0.0055 -0.0645  0.2177
 1525SOL    HW2 5866   4.915   5.016   4.748 -0.4759  0.1921 -1.3801
 1525SOL    HW3 5867   5.056   4.983   4.792 -1.3461 -1.5388  0.2574
 1525SOL    MW4 5868   5.002   5.021   4.736 -0.2363 -0.2251  0.0122
 1526SOL     OW 5869   0.929   3.394   3.823 -0.2849 -0.8167  0.1198
 1526SOL    HW2 5870   0.847   3.345   3.814 -0.2304 -0.7932 -0.5661
 1526SOL    HW3 5871   0.976   3.377   3.741  1.0784 -2.0682  1.0908
 1526SOL    MW4 5872   0.924   3.385   3.811 -0.0979 -0.9787  0.1574
 1527SOL     OW 5873   5.791   0.969   4.825 -0.1439 -0.5438 -0.0149
 1527SOL    HW2 5874   5.839   0.886   4.819 -2.5094 -1.9349 -1.1794
 1527SOL    HW3 5875   5.704   0.944   4.856 -0.5877  1.6716  0.6829
 1527SOL    MW4 5876   5.786   0.954   4.828 -0.5146 -0.4350 -0.0765
 1528SOL     OW 5877   3.272   1.285   0.465 -0.6740  0.1188 -0.5134
 1528SOL    HW2 5878   3.257   1.247   0.552 -0.3763  1.4842  0.1734
 1528SOL    HW3 5879   3.236   1.222   0.404  0.7213 -1.7528  0.4847
 1528SOL    MW4 5880   3.266   1.272   0.469 -0.4507  0.0520 -0.2911
 1529SOL     OW 5881   1.983   2.995   4.864 -0.8881  0.2695  0.2228
 1529SOL    HW2 5882   2.020   2.916   4.825  0.8314  1.2791 -0.3102
 1529SOL    HW3 5883   2.058   3.041   4.901 -1.8810  1.5405  0.7344
 1529SOL    MW4 5884   1.998   2.991   4.864 -0.7922  0.5704  0.2200
 1530SOL     OW 5885   5.152   5.994   1.386  0.0501  0.1574  0.1080
 1530SOL    HW2 5886   5.170   5.900   1.392  1.3926  0.4582  1.3455
 1530SOL    HW3 5887   5.236   6.036   1.406 -0.3206  1.6311 -1.2374
 1530SOL    MW4 5888   5.166   5.987   1.390  0.1783  0.3916  0.0937
 1531SOL     OW 5889   5.748   3.100   0.697  0.3806 -0.3398 -0.2100
 1531SOL    HW2 5890   5.700   3.018   0.682 -0.1730 -0.0013 -0.3287
 1531SOL    HW3 5891   5.750   3.143   0.612  1.3906 -0.6035 -0.3243
 1531SOL    MW4 5892   5.742   3.095   0.684  0.4408 -0.3299 -0.2407
 1532SOL     OW 5893   5.928   5.771   0.763 -0.1361 -0.0731 -0.2831
 1532SOL    HW2 5894   6.003   5.712   0.774 -0.0701  0.3017  1.6659
 1532SOL    HW3 5895   5.963   5.845   0.712  0.0851 -1.1108 -1.6971
 1532SOL    MW4 5896   5.943   5.773   0.758 -0.0982 -0.1606 -0.2125
 1533SOL     OW 5897   2.945   3.417   2.962  0.0867  0.4111  0.7823
 1533SOL    HW2 5898   2.960   3.435   3.055  1.0771 -1.1233  0.9436
 1533SOL    HW3 5899   3.033   3.408   2.925 -0.3188  0.0826 -0.1231
 1533SOL    MW4 5900   2.959   3.418   2.969  0.1639  0.1653  0.6842
 1534SOL     OW 5901   6.185   5.687   3.232 -0.3593  0.0310 -0.2369
 1534SOL    HW2 5902   6.187   5.754   3.165  0.6583  0.0454 -0.2037
 1534SOL    HW3 5903   6.096   5.692   3.269 -0.0050  2.0531  0.4688
 1534SOL    MW4 5904   6.174   5.696   3.228 -0.1783  0.2997 -0.1394
 1535SOL     OW 5905   3.460   6.443   5.726  0.2489 -0.4770 -0.2266
 1535SOL    HW2 5906   3.409   6.373   5.686 -1.5915  0.8011 -0.2376
 1535SOL    HW3 5907   3.459   6.423   5.819  0.6829 -1.0336 -0.3329
 1535SOL    MW4 5908   3.454   6.431   5.733  0.0634 -0.3818 -0.2421
 1536SOL     OW 5909   0.199   5.418   5.391  0.2402  0.8459  0.3611
 1536SOL    HW2 5910   0.188   5.489   5.329 -0.3638  0.3320 -0.1357
 1536SOL    HW3 5911   0.276   5.370   5.359  0.0227  0.6720  0.0905
 1536SOL    MW4 5912   0.208   5.421   5.379  0.1318  0.7551  0.2598
 1537SOL     OW 5913   2.435   1.782   3.814 -0.0730  0.8958 -0.1453
 1537SOL    HW2 5914   2.521   1.769   3.855 -0.1846 -1.0514 -0.4474
 1537SOL    HW3 5915   2.438   1.872   3.781  2.2484  0.5606 -1.0393
 1537SOL    MW4 5916   2.447   1.792   3.815  0.2186  0.5947 -0.3031
 1538SOL     OW 5917   6.275   2.123   5.205 -0.1583 -0.1871  0.3530
 1538SOL    HW2 5918   6.338   2.054   5.227  0.5699  1.0522  2.4738
 1538SOL    HW3 5919   6.311   2.201   5.246 -1.0567  1.4545 -1.8097
 1538SOL    MW4 5920   6.288   2.124   5.214 -0.1807  0.1930  0.3475
 1539SOL     OW 5921   5.510   1.839   3.659 -0.0645 -0.9263 -0.1789
 1539SOL    HW2 5922   5.554   1.776   3.602 -0.6434 -1.0433 -0.5019
 1539SOL    HW3 5923   5.565   1.918   3.655 -0.3513 -0.7697 -1.2800
 1539SOL    MW4 5924   5.523   1.841   3.651 -0.1787 -0.9211 -0.3668
 1540SOL     OW 5925   0.264   5.335   0.756 -0.1346  0.0286  0.2964
 1540SOL    HW2 5926   0.253   5.355   0.663  0.0297 -0.7156  0.1119
 1540SOL    HW3 5927   0.321   5.259   0.757  0.2070  0.2859  1.0269
 1540SOL    MW4 5928   0.270   5.328   0.744 -0.0679 -0.0356  0.3684
 1541SOL     OW 5929   0.965   0.105   5.029  0.7341 -0.5049 -0.0681
 1541SOL    HW2 5930   0.982   0.193   5.063  3.2870 -0.5000 -1.0860
 1541SOL    HW3 5931   1.037   0.053   5.063  0.1956 -1.8013 -0.8568
 1541SOL    MW4 5932   0.977   0.110   5.038  0.9999 -0.6753 -0.3065
 1542SOL     OW 5933   2.399   5.836   5.266 -0.4803  0.2544  0.6034
 1542SOL    HW2 5934   2.335   5.899   5.300 -0.3573  1.7179 -1.6685
 1542SOL    HW3 5935   2.449   5.886   5.201 -0.8578 -2.3461 -1.8582
 1542SOL    MW4 5936   2.397   5.851   5.262 -0.5139  0.1044 -0.0211
 1543SOL     OW 5937   0.969   6.309   0.641  0.2618 -0.3196 -0.6142
 1543SOL    HW2 5938   1.025   6.244   0.683  1.6359  0.0405 -1.8303
 1543SOL    HW3 5939   1.018   6.391   0.646 -0.6985  0.2782 -0.6251
 1543SOL    MW4 5940   0.983   6.311   0.647  0.3164 -0.1932 -0.7761
 1544SOL     OW 5941   0.168   1.001   1.279 -0.1112  0.3287  0.0512
 1544SOL    HW2 5942   0.131   1.086   1.254 -0.3542  0.3451  0.4560
 1544SOL    HW3 5943   0.137   0.987   1.368  0.0283 -0.1318  0.0285
 1544SOL    MW4 5944   0.159   1.010   1.288 -0.1248  0.2701  0.1016
 1545SOL     OW 5945   2.965   3.098   0.256  0.0567  0.0324 -0.0429
 1545SOL    HW2 5946   2.989   3.020   0.305  2.2347 -0.4732 -1.7724
 1545SOL    HW3 5947   2.879   3.123   0.291 -0.9408 -3.3777  0.2353
 1545SOL    MW4 5948   2.957   3.091   0.267  0.2124 -0.4842 -0.2344
 1546SOL     OW 5949   3.066   5.783   3.981  0.3185  0.1268 -0.0471
 1546SOL    HW2 5950   3.070   5.878   3.993 -0.6074  0.1796 -0.1462
 1546SOL    HW3 5951   3.121   5.766   3.904  1.0293  0.4968  0.3629
 1546SOL    MW4 5952   3.074   5.793   3.972  0.2901  0.1826 -0.0061
 1547SOL     OW 5953   0.187   5.301   0.473  0.0415  0.3843 -0.5001
 1547SOL    HW2 5954   0.111   5.359   0.463  0.2503  1.0275  1.2517
 1547SOL    HW3 5955   0.151   5.220   0.509  0.3008  1.2375  1.8465
 1547SOL    MW4 5956   0.172   5.298   0.476  0.1033  0.5817  0.0407
 1548SOL     OW 5957   4.537   4.601   1.061  0.1774  0.3387  0.0595
 1548SOL    HW2 5958   4.501   4.536   1.000  2.6402 -1.7079  0.5942
 1548SOL    HW3 5959   4.559   4.676   1.006 -1.0899  0.0429 -0.8954
 1548SOL    MW4 5960   4.535   4.602   1.046  0.3351  0.0296  0.0041
 1549SOL     OW 5961   2.939   1.795   3.993  0.7042 -0.4169  0.4631
 1549SOL    HW2 5962   2.859   1.751   3.965  0.3977 -1.6299  2.9626
 1549SOL    HW3 5963   2.994   1.724   4.027  0.8463  0.8318  3.1370
 1549SOL    MW4 5964   2.936   1.780   3.994  0.6825 -0.4122  1.1457
 1550SOL     OW 5965   2.240   1.569   1.127  0.3355 -0.3329  0.2490
 1550SOL    HW2 5966   2.280   1.656   1.127 -0.6956  0.1740  2.0661
 1550SOL    HW3 5967   2.278   1.525   1.203 -0.1653 -0.9925  0.1236
 1550SOL    MW4 5968   2.250   1.575   1.137  0.1334 -0.3531  0.4722
 1551SOL     OW 5969   3.707   2.871   5.766  0.7076 -0.0564 -0.3146
 1551SOL    HW2 5970   3.693   2.905   5.854  1.2229 -1.9469  0.5467
 1551SOL    HW3 5971   3.705   2.776   5.776  2.2257 -0.3457 -2.0948
 1551SOL    MW4 5972   3.705   2.863   5.779  0.9759 -0.3440 -0.4358
 1552SOL     OW 5973   1.066   1.138   4.382  0.2561 -0.1814  0.0187
 1552SOL    HW2 5974   1.011   1.152   4.459  1.8657  4.5957  0.6649
 1552SOL    HW3 5975   1.140   1.086   4.413 -0.2488 -0.2573  1.1164
 1552SOL    MW4 5976   1.069   1.133   4.396  0.4019  0.4389  0.2488
 1553SOL     OW 5977   6.393   0.536   1.639 -0.3473  0.1376  0.1307
 1553SOL    HW2 5978   6.365   0.595   1.570  1.7936  0.1595 -0.7828
 1553SOL    HW3 5979   6.358   0.575   1.719  0.3352  2.2165 -0.5365
 1553SOL    MW4 5980   6.385   0.549   1.641  0.0252  0.4148 -0.0778
 1554SOL     OW 5981   5.567   0.562   2.559 -0.2414  0.0068 -0.1107
 1554SOL    HW2 5982   5.600   0.524   2.478  0.1868 -2.5005  1.1014
 1554SOL    HW3 5983   5.497   0.621   2.533 -0.4691 -1.1360 -2.2619
 1554SOL    MW4 5984   5.563   0.564   2.545 -0.2150 -0.4748 -0.2346
 1555SOL     OW 5985   0.672   0.219   2.528 -0.0327  0.1222  0.0086
 1555SOL    HW2 5986   0.726   0.175   2.462  1.5196  0.8393  0.7301
 1555SOL    HW3 5987   0.648   0.150   2.590  1.7635  0.0680  0.7362
 1555SOL    MW4 5988   0.676   0.204   2.528  0.4091  0.2097  0.1998
 1556SOL     OW 5989   1.527   5.104   5.455  0.0352  0.0741 -0.1415
 1556SOL    HW2 5990   1.557   5.115   5.364 -1.1969 -0.4781 -0.6315
 1556SOL    HW3 5991   1.590   5.042   5.493 -0.2549 -0.8155 -1.0613
 1556SOL    MW4 5992   1.540   5.097   5.448 -0.1656 -0.1162 -0.3275
 1557SOL     OW 5993   3.872   2.314   3.510  0.8166  0.0601 -0.1119
 1557SOL    HW2 5994   3.964   2.341   3.519 -0.0393  2.8439  1.6156
 1557SOL    HW3 5995   3.859   2.305   3.416  2.4996  1.0782 -0.4953
 1557SOL    MW4 5996   3.883   2.316   3.499  0.9257  0.5617  0.0654
 1558SOL     OW 5997   0.741   4.257   5.577 -0.2167 -0.1110  0.5666
 1558SOL    HW2 5998   0.688   4.178   5.570  0.5981 -0.5351 -2.2162
 1558SOL    HW3 5999   0.824   4.234   5.534  0.4012  1.9524  0.5258
 1558SOL    MW4 6000   0.745   4.244   5.570 -0.0277  0.1053  0.1941
 1559SOL     OW 6001   3.652   3.000   2.517 -0.4469  0.1333  0.1653
 1559SOL    HW2 6002   3.656   3.092   2.491  0.3552 -0.5472 -2.4126
 1559SOL    HW3 6003   3.738   2.982   2.556 -1.2675  0.8770  2.5105
 1559SOL    MW4 6004   3.664   3.009   2.519 -0.4493  0.1416  0.1346
 1560SOL     OW 6005   3.257   4.633   3.499 -0.5584 -0.2055  0.0025
 1560SOL    HW2 6006   3.165   4.642   3.474 -0.7550 -0.8755  0.4529
 1560SOL    HW3 6007   3.255   4.577   3.576  0.3413 -1.5924 -0.9395
 1560SOL    MW4 6008   3.244   4.627   3.505 -0.4656 -0.4768 -0.0624
 1561SOL     OW 6009   2.840   0.218   1.219 -0.4816  0.5315 -0.5005
 1561SOL    HW2 6010   2.789   0.282   1.169  0.0528  0.2991 -1.3670
 1561SOL    HW3 6011   2.777   0.151   1.244 -0.8320  0.8471 -0.5226
 1561SOL    MW4 6012   2.825   0.218   1.216 -0.4573  0.5425 -0.6178
 1562SOL     OW 6013   3.736   6.379   5.362  0.2679 -0.3068  0.2500
 1562SOL    HW2 6014   3.830   6.386   5.344  0.0922 -0.2103 -0.7046
 1562SOL    HW3 6015   3.725   6.413   5.450  0.8464  1.7011 -0.4088
 1562SOL    MW4 6016   3.747   6.384   5.371  0.3211 -0.0291  0.0371
 1563SOL     OW 6017   0.435   4.263   1.547 -0.0049 -1.0048 -0.5009
 1563SOL    HW2 6018   0.482   4.299   1.471  0.0846 -0.2281 -0.0796
 1563SOL    HW3 6019   0.492   4.282   1.621 -0.7113 -0.5998 -0.0631
 1563SOL    MW4 6020   0.449   4.270   1.547 -0.0863 -0.8489 -0.3875
 1564SOL     OW 6021   6.226   5.933   6.399 -0.0105  0.1716  0.4379
 1564SOL    HW2 6022   6.226   5.878   6.320  0.4897 -0.1975  0.6925
 1564SOL    HW3 6023   6.176   5.883   6.463 -0.6100  0.5723  0.2963
 1564SOL    MW4 6024   6.219   5.919   6.397 -0.0236  0.1758  0.4528
 1565SOL     OW 6025   1.939   2.185   1.658 -0.4114 -0.1245 -0.2083
 1565SOL    HW2 6026   2.018   2.226   1.622 -1.2400  0.5542 -1.2886
 1565SOL    HW3 6027   1.876   2.186   1.587 -0.9657 -1.9543  0.1903
 1565SOL    MW4 6028   1.941   2.190   1.644 -0.5938 -0.2763 -0.2982
 1566SOL     OW 6029   4.332   0.864   0.852 -0.2289  0.0765  0.4812
 1566SOL    HW2 6030   4.404   0.807   0.879 -0.0931  0.2297  0.4468
 1566SOL    HW3 6031   4.348   0.946   0.899 -0.3114  0.1527  0.3760
 1566SOL    MW4 6032   4.344   0.868   0.862 -0.2218  0.1068  0.4628
 1567SOL     OW 6033   3.135   0.903   3.564 -0.2379  0.3903  1.0142
 1567SOL    HW2 6034   3.214   0.850   3.554 -0.1582  0.2365  2.2782
 1567SOL    HW3 6035   3.156   0.986   3.520  1.3169  1.0365  2.8275
 1567SOL    MW4 6036   3.148   0.907   3.557 -0.0222  0.4552  1.4202
 1568SOL     OW 6037   4.773   0.264   4.697  0.1512  0.4765  0.1701
 1568SOL    HW2 6038   4.781   0.356   4.721  0.7223 -0.0171  1.9865
 1568SOL    HW3 6039   4.862   0.235   4.679  0.2379 -0.1896  1.5464
 1568SOL    MW4 6040   4.786   0.272   4.697  0.2380  0.3235  0.5913
 1569SOL     OW 6041   4.268   2.426   2.577 -0.1617  0.0043  0.3287
 1569SOL    HW2 6042   4.359   2.407   2.555 -0.7607 -2.1474 -0.5789
 1569SOL    HW3 6043   4.269   2.439   2.672  0.7864 -2.3407  0.7116
 1569SOL    MW4 6044   4.280   2.425   2.587 -0.1156 -0.5890  0.2595
 1570SOL     OW 6045   2.099   4.335   6.193 -0.4789  0.0863  0.0272
 1570SOL    HW2 6046   2.097   4.414   6.247 -1.4491  1.0118 -1.3020
 1570SOL    HW3 6047   2.188   4.334   6.157  0.2514 -0.6583  1.7369
 1570SOL    MW4 6048   2.111   4.346   6.196 -0.5106  0.1102  0.0774
 1571SOL     OW 6049   0.422   1.924   3.788 -0.1813  0.5762  0.0560
 1571SOL    HW2 6050   0.448   1.834   3.768  4.0563  1.4363  0.7832
 1571SOL    HW3 6051   0.331   1.916   3.818 -0.6196 -3.1390 -1.6219
 1571SOL    MW4 6052   0.413   1.911   3.790  0.3200  0.1995 -0.0694
 1572SOL     OW 6053   2.044   3.299   0.205  0.3074  0.7414 -0.1297
 1572SOL    HW2 6054   1.984   3.224   0.203  0.6799  0.3610 -3.1981
 1572SOL    HW3 6055   1.993   3.371   0.167  1.2894  0.7715 -1.4850
 1572SOL    MW4 6056   2.029   3.299   0.200  0.4861  0.6952 -0.7133
 1573SOL     OW 6057   1.372   4.650   0.096 -0.0796  0.1888  0.2397
 1573SOL    HW2 6058   1.360   4.744   0.105 -0.5675  0.0256  1.4091
 1573SOL    HW3 6059   1.294   4.620   0.049  0.2802  0.4148 -0.5167
 1573SOL    MW4 6060   1.360   4.658   0.091 -0.0965  0.1971  0.2942
 1574SOL     OW 6061   3.964   5.210   2.089  0.1813 -0.2738  0.2559
 1574SOL    HW2 6062   3.924   5.146   2.148  1.3881 -0.2599  1.1297
 1574SOL    HW3 6063   3.969   5.165   2.004  0.2946 -1.0499  0.6655
 1574SOL    MW4 6064   3.959   5.195   2.085  0.3554 -0.3744  0.4252
 1575SOL     OW 6065   3.500   4.207   0.581 -0.4642  0.0835 -0.9081
 1575SOL    HW2 6066   3.513   4.112   0.586  0.0988  0.2089  0.2455
 1575SOL    HW3 6067   3.497   4.236   0.672  0.7576  1.3620 -1.2355
 1575SOL    MW4 6068   3.501   4.198   0.593 -0.2287  0.2688 -0.7990
 1576SOL     OW 6069   4.974   1.401   2.914  0.4307  0.0395  0.0050
 1576SOL    HW2 6070   4.957   1.364   2.827 -0.8486  1.3324 -0.3310
 1576SOL    HW3 6071   5.062   1.370   2.936  0.2240 -1.4740 -1.1223
 1576SOL    MW4 6072   4.984   1.392   2.905  0.2347  0.0104 -0.1880
 1577SOL     OW 6073   0.362   5.247   4.740  0.3472 -1.0116 -0.3286
 1577SOL    HW2 6074   0.380   5.208   4.826 -0.0436  0.6383  0.5367
 1577SOL    HW3 6075   0.279   5.207   4.713 -0.1646 -0.6436  0.6420
 1577SOL    MW4 6076   0.353   5.237   4.748  0.2281 -0.7454 -0.0864
 1578SOL     OW 6077   2.206   0.811   1.637 -0.5231  0.4027 -0.1658
 1578SOL    HW2 6078   2.247   0.726   1.617  0.2516  0.8206 -0.4127
 1578SOL    HW3 6079   2.266   0.852   1.699  0.1341  1.5744 -1.5167
 1578SOL    MW4 6080   2.220   0.805   1.642 -0.3342  0.6124 -0.3766
 1579SOL     OW 6081   1.150   5.185   1.362  0.3242 -0.0486 -0.7923
 1579SOL    HW2 6082   1.115   5.264   1.404  0.3554 -0.3050 -0.2779
 1579SOL    HW3 6083   1.096   5.173   1.284  1.6998  1.7350 -2.1243
 1579SOL    MW4 6084   1.139   5.194   1.357  0.5098  0.1529 -0.9002
 1580SOL     OW 6085   3.766   0.457   5.519 -0.2811  0.3596 -0.1815
 1580SOL    HW2 6086   3.691   0.494   5.472 -0.8480  2.3216  2.0714
 1580SOL    HW3 6087   3.727   0.402   5.587  0.2293  1.6614  1.2228
 1580SOL    MW4 6088   3.751   0.454   5.522 -0.2885  0.7902  0.3010
 1581SOL     OW 6089   1.144   2.429   5.338  0.2036  0.4681 -0.4451
 1581SOL    HW2 6090   1.064   2.481   5.347 -0.3872 -0.5369  0.4015
 1581SOL    HW3 6091   1.192   2.470   5.267 -0.2597  2.1365  0.1732
 1581SOL    MW4 6092   1.140   2.441   5.330  0.0645  0.5556 -0.2518
 1582SOL     OW 6093   5.019   1.129   4.143  0.3306 -0.1668  0.0709
 1582SOL    HW2 6094   5.058   1.186   4.209 -2.2764  0.9333  0.7911
 1582SOL    HW3 6095   5.023   1.042   4.181  0.6473  0.1706  0.8232
 1582SOL    MW4 6096   5.024   1.125   4.157  0.0285  0.0228  0.2652
 1583SOL     OW 6097   4.071   1.175   0.718 -0.3664  0.5966  0.0485
 1583SOL    HW2 6098   4.001   1.192   0.655  0.0272  1.6475 -0.1176
 1583SOL    HW3 6099   4.152   1.182   0.666 -0.0568  1.1492  0.5960
 1583SOL    MW4 6100   4.073   1.178   0.703 -0.2736  0.8081  0.0989
 1584SOL     OW 6101   0.461   1.050   2.330 -0.0352  0.1282  0.6628
 1584SOL    HW2 6102   0.555   1.043   2.346 -0.2532 -0.8706  1.6155
 1584SOL    HW3 6103   0.431   1.120   2.388  0.7139  3.5042 -2.5879
 1584SOL    MW4 6104   0.469   1.058   2.340  0.0349  0.4419  0.3596
 1585SOL     OW 6105   2.839   4.218   6.035 -1.0440  0.0834 -0.1747
 1585SOL    HW2 6106   2.805   4.173   5.958  0.8781 -0.4920 -0.7432
 1585SOL    HW3 6107   2.855   4.148   6.098 -1.7632  0.4505  0.4300
 1585SOL    MW4 6108   2.836   4.203   6.033 -0.8853  0.0559 -0.1699
 1586SOL     OW 6109   0.479   6.084   4.688  0.0555  0.2618 -0.3594
 1586SOL    HW2 6110   0.412   6.113   4.749  0.9543 -0.7659  1.1795
 1586SOL    HW3 6111   0.444   6.106   4.601 -1.7272  0.7768  0.4498
 1586SOL    MW4 6112   0.466   6.091   4.684 -0.0611  0.1941 -0.0496
 1587SOL     OW 6113   1.850   2.931   5.102  0.2524  0.1776 -0.0658
 1587SOL    HW2 6114   1.873   2.967   5.016 -0.3944  1.2736  0.1972
 1587SOL    HW3 6115   1.774   2.875   5.085  1.1096 -0.8922 -0.4423
 1587SOL    MW4 6116   1.843   2.928   5.088  0.2802  0.1811 -0.0808
 1588SOL     OW 6117   1.677   0.429   3.918 -0.6458  0.6608  0.2055
 1588SOL    HW2 6118   1.643   0.390   3.998 -1.9880  0.7368 -0.3077
 1588SOL    HW3 6119   1.772   0.420   3.926 -0.7212  1.1187  2.0129
 1588SOL    MW4 6120   1.685   0.422   3.929 -0.8328  0.7312  0.3762
 1589SOL     OW 6121   2.762   5.445   4.761 -0.1725  0.0004  0.3916
 1589SOL    HW2 6122   2.845   5.439   4.808 -0.2995  1.1627  0.7963
 1589SOL    HW3 6123   2.764   5.372   4.699  1.1295 -0.0058  0.4203
 1589SOL    MW4 6124   2.773   5.434   4.759 -0.0175  0.1529  0.4488
 1590SOL     OW 6125   1.183   1.867   3.750  0.4591 -0.1120  0.0275
 1590SOL    HW2 6126   1.267   1.861   3.703  0.7947 -0.7161  0.6795
 1590SOL    HW3 6127   1.124   1.911   3.689  1.2298  0.2414 -0.4773
 1590SOL    MW4 6128   1.187   1.872   3.736  0.6050 -0.1451  0.0470
 1591SOL     OW 6129   4.366   0.424   4.305 -0.6282  0.1017 -0.3271
 1591SOL    HW2 6130   4.306   0.415   4.379 -0.7082  0.9868 -0.2671
 1591SOL    HW3 6131   4.452   0.434   4.345 -0.4270 -1.1354 -0.4128
 1591SOL    MW4 6132   4.369   0.424   4.320 -0.6122  0.0552 -0.3305
 1592SOL     OW 6133   0.468   3.224   5.764 -0.1645  0.0049  0.0063
 1592SOL    HW2 6134   0.555   3.187   5.748  0.6609  1.4115  1.0350
 1592SOL    HW3 6135   0.444   3.192   5.851  0.9459  2.4327  1.3078
 1592SOL    MW4 6136   0.476   3.215   5.774  0.0909  0.5108  0.3138
 1593SOL     OW 6137   5.574   3.434   1.561 -0.2861 -0.1097  0.0491
 1593SOL    HW2 6138   5.629   3.355   1.565 -0.0340 -0.1046 -2.0640
 1593SOL    HW3 6139   5.636   3.506   1.567 -0.4735 -0.0389  1.5029
 1593SOL    MW4 6140   5.590   3.433   1.563 -0.2776 -0.0997 -0.0379
 1594SOL     OW 6141   1.973   0.588   1.286 -0.2979  0.1182  0.1836
 1594SOL    HW2 6142   2.003   0.672   1.319 -0.6113  0.1489  0.3939
 1594SOL    HW3 6143   2.014   0.523   1.344 -0.4247  0.1466  0.3039
 1594SOL    MW4 6144   1.982   0.590   1.298 -0.3560  0.1260  0.2272
 1595SOL     OW 6145   0.482   0.099   5.334  0.3937 -0.7974  0.2382
 1595SOL    HW2 6146   0.438   0.131   5.254  0.0065  1.2229  1.2012
 1595SOL    HW3 6147   0.551   0.163   5.351 -0.1363 -0.6561  2.0446
 1595SOL    MW4 6148   0.485   0.111   5.325  0.2727 -0.5122  0.6036
 1596SOL     OW 6149   2.126   3.787   2.694  0.4452 -0.3962 -0.3798
 1596SOL    HW2 6150   2.175   3.772   2.775  0.9210 -1.3525 -0.8254
 1596SOL    HW3 6151   2.178   3.744   2.626 -0.9011 -1.2552 -0.9057
 1596SOL    MW4 6152   2.140   3.779   2.696  0.3304 -0.6357 -0.5080
 1597SOL     OW 6153   0.632   2.749   3.601 -0.3441  0.1205  1.0479
 1597SOL    HW2 6154   0.563   2.733   3.665 -2.0552  0.9699 -0.4841
 1597SOL    HW3 6155   0.641   2.844   3.598  0.4529  0.0458  0.7449
 1597SOL    MW4 6156   0.624   2.759   3.609 -0.4647  0.2227  0.8058
 1598SOL     OW 6157   5.283   6.400   6.336  0.6668 -0.0610  0.1033
 1598SOL    HW2 6158   5.225   6.325   6.349  0.9235 -0.2532  0.1388
 1598SOL    HW3 6159   5.369   6.370   6.365  0.7649  0.2577  0.1512
 1598SOL    MW4 6160   5.287   6.387   6.342  0.7136 -0.0443  0.1143
 1599SOL     OW 6161   0.572   0.223   4.359  0.8807 -0.0362  0.4057
 1599SOL    HW2 6162   0.532   0.296   4.313 -1.0749 -1.6338 -0.5754
 1599SOL    HW3 6163   0.666   0.231   4.340  0.3546  0.3405 -2.4838
 1599SOL    MW4 6164   0.579   0.233   4.351  0.5532 -0.1973 -0.1050
 1600SOL     OW 6165   4.238   5.790   1.779 -0.3806  0.3419 -0.2836
 1600SOL    HW2 6166   4.183   5.860   1.814 -2.2028 -1.0001 -0.3206
 1600SOL    HW3 6167   4.215   5.713   1.831  1.3172 -0.3212 -0.4682
 1600SOL    MW4 6168   4.227   5.789   1.790 -0.3970  0.0774 -0.3128
 1601SOL     OW 6169   4.348   5.504   5.809 -0.6774 -0.2391  0.0374
 1601SOL    HW2 6170   4.354   5.468   5.897 -2.2443  0.3493  0.4101
 1601SOL    HW3 6171   4.255   5.514   5.793 -0.3661  1.4204 -0.9757
 1601SOL    MW4 6172   4.337   5.500   5.818 -0.8431  0.0575 -0.0471
 1602SOL     OW 6173   2.863   2.547   3.684  0.1721 -0.0367  0.2027
 1602SOL    HW2 6174   2.783   2.543   3.735 -0.8637  1.1923 -1.2471
 1602SOL    HW3 6175   2.837   2.519   3.596  1.5356 -0.4518 -0.0967
 1602SOL    MW4 6176   2.849   2.543   3.679  0.2154  0.0707 -0.0281
 1603SOL     OW 6177   4.038   4.763   3.555 -0.5054  0.1127  0.4246
 1603SOL    HW2 6178   3.946   4.738   3.560 -0.1511 -1.7508 -1.2967
 1603SOL    HW3 6179   4.045   4.811   3.472 -0.0812  1.1397  1.0341
 1603SOL    MW4 6180   4.027   4.766   3.545 -0.4027  0.0023  0.2779
 1604SOL     OW 6181   1.003   4.051   1.633 -0.5177  0.2043  0.2718
 1604SOL    HW2 6182   0.916   4.030   1.599 -1.2673 -0.1761  2.3009
 1604SOL    HW3 6183   1.020   3.984   1.699  1.6678 -0.1686 -0.5899
 1604SOL    MW4 6184   0.993   4.039   1.637 -0.3283  0.1049  0.4258
 1605SOL     OW 6185   2.450   1.371   1.269  0.0970 -0.3436 -0.1475
 1605SOL    HW2 6186   2.372   1.316   1.276 -0.5142  0.5334  0.2423
 1605SOL    HW3 6187   2.481   1.357   1.179 -1.4299  0.4487 -0.8384
 1605SOL    MW4 6188   2.444   1.362   1.258 -0.1851 -0.1234 -0.1873
 1606SOL     OW 6189   1.548   0.351   2.390  0.3545  0.2221  0.2016
 1606SOL    HW2 6190   1.635   0.389   2.404  0.5142 -0.1466  0.2065
 1606SOL    HW3 6191   1.488   0.425   2.400  0.9035  1.4483 -3.8437
 1606SOL    MW4 6192   1.552   0.366   2.393  0.4480  0.3352 -0.3315
 1607SOL     OW 6193   5.871   1.296   4.531 -0.1123  0.4588  0.1121
 1607SOL    HW2 6194   5.839   1.341   4.609  0.6530 -0.0396  0.7228
 1607SOL    HW3 6195   5.816   1.218   4.523  0.0640  0.3062  0.3815
 1607SOL    MW4 6196   5.859   1.292   4.540  0.0119  0.3729  0.2282
 1608SOL     OW 6197   3.370   5.662   5.329  0.1642  0.3208  0.5638
 1608SOL    HW2 6198   3.461   5.652   5.356 -0.4950 -1.7018  2.2628
 1608SOL    HW3 6199   3.372   5.731   5.263  2.6283  1.8054  2.0472
 1608SOL    MW4 6200   3.382   5.670   5.324  0.4023  0.2498  0.9837
 1609SOL     OW 6201   6.222   0.974   0.911  0.4443 -0.0420 -0.1938
 1609SOL    HW2 6202   6.169   0.902   0.878 -1.1394  1.2278 -0.5545
 1609SOL    HW3 6203   6.270   0.937   0.985 -1.3396 -1.1288  0.4738
 1609SOL    MW4 6204   6.221   0.960   0.917 -0.0000 -0.0179 -0.1533
 1610SOL     OW 6205   3.821   2.647   3.326  0.8454 -0.1115 -0.8067
 1610SOL    HW2 6206   3.842   2.666   3.417  0.0247  0.5508 -0.7446
 1610SOL    HW3 6207   3.898   2.601   3.293  0.6254 -1.5499  0.5772
 1610SOL    MW4 6208   3.834   2.643   3.334  0.7081 -0.2139 -0.6159
 1611SOL     OW 6209   6.035   2.026   3.945 -0.4220  0.1075 -0.3498
 1611SOL    HW2 6210   5.940   2.021   3.956 -0.4416 -0.1564 -0.6136
 1611SOL    HW3 6211   6.067   2.064   4.026 -0.8265  0.8948 -0.5513
 1611SOL    MW4 6212   6.026   2.030   3.957 -0.4780  0.1766 -0.4112
 1612SOL     OW 6213   0.450   4.113   6.015  0.3628  0.3557  0.1718
 1612SOL    HW2 6214   0.445   4.188   6.074 -1.2386  0.8646 -0.5466
 1612SOL    HW3 6215   0.482   4.150   5.933  2.3154 -0.2956  0.6042
 1612SOL    MW4 6216   0.453   4.128   6.012  0.4091  0.3369  0.1341
 1613SOL     OW 6217   6.157   4.571   5.545  0.1201 -0.1220 -0.2305
 1613SOL    HW2 6218   6.217   4.516   5.494 -0.8985  0.5451 -2.2418
 1613SOL    HW3 6219   6.126   4.513   5.614 -0.5176 -1.9979 -1.9707
 1613SOL    MW4 6220   6.161   4.556   5.547 -0.0984 -0.2815 -0.7255
 1614SOL     OW 6221   3.313   0.148   4.972 -0.1811  0.2971  0.1695
 1614SOL    HW2 6222   3.320   0.233   5.015 -0.2690  1.7100 -2.3887
 1614SOL    HW3 6223   3.383   0.148   4.906 -0.3697 -1.4885 -0.1028
 1614SOL    MW4 6224   3.323   0.159   4.969 -0.2176  0.2479 -0.2040
 1615SOL     OW 6225   0.109   6.204   4.012 -0.6076 -0.1050 -0.5285
 1615SOL    HW2 6226   0.185   6.220   3.956  0.7772  1.1335  1.5586
 1615SOL    HW3 6227   0.123   6.116   4.046  0.4281  0.4291  0.5220
 1615SOL    MW4 6228   0.121   6.195   4.009 -0.2883  0.1289 -0.1145
 1616SOL     OW 6229   3.910   2.032   3.774 -0.0066 -0.1091  0.3650
 1616SOL    HW2 6230   3.855   2.109   3.783 -0.4668 -0.3775 -0.0959
 1616SOL    HW3 6231   3.860   1.961   3.813 -0.8633 -0.7404 -1.7323
 1616SOL    MW4 6232   3.896   2.033   3.780 -0.1804 -0.2278  0.0275
 1617SOL     OW 6233   4.687   4.491   2.060 -0.5594 -1.1554  0.7722
 1617SOL    HW2 6234   4.625   4.482   2.132 -1.5948  4.1039  0.9375
 1617SOL    HW3 6235   4.634   4.520   1.986  1.2106  0.0962 -0.0975
 1617SOL    MW4 6236   4.672   4.494   2.060 -0.4625 -0.2964  0.6793
 1618SOL     OW 6237   2.475   6.341   0.550 -0.1746  0.0300 -0.1745
 1618SOL    HW2 6238   2.400   6.398   0.567 -0.7731 -0.9478  0.5341
 1618SOL    HW3 6239   2.442   6.277   0.486  0.8943  1.2699 -2.0744
 1618SOL    MW4 6240   2.461   6.340   0.544 -0.1125  0.0646 -0.3316
 1619SOL     OW 6241   5.315   4.511   2.608 -0.1143 -0.5774 -0.2317
 1619SOL    HW2 6242   5.322   4.496   2.514  0.0189 -0.3726 -0.2551
 1619SOL    HW3 6243   5.239   4.568   2.618  0.6155  0.4455 -0.3332
 1619SOL    MW4 6244   5.306   4.516   2.597 -0.0004 -0.4154 -0.2481
 1620SOL     OW 6245   3.005   0.769   3.289 -1.0605 -0.0665 -0.4761
 1620SOL    HW2 6246   2.998   0.711   3.365  2.2925  0.6839  0.5504
 1620SOL    HW3 6247   2.973   0.853   3.320 -0.4126  0.0525 -0.1296
 1620SOL    MW4 6248   3.000   0.772   3.303 -0.5327  0.0482 -0.2949
 1621SOL     OW 6249   1.721   0.049   2.706 -0.0252 -0.6707  0.4852
 1621SOL    HW2 6250   1.751   0.021   2.793 -1.0879 -2.3312  0.3694
 1621SOL    HW3 6251   1.794   0.027   2.648  0.0478 -1.0802  0.7262
 1621SOL    MW4 6252   1.735   0.042   2.710 -0.1558 -0.9438  0.5017
 1622SOL     OW 6253   5.977   2.590   4.742  0.2407 -0.3736 -0.3435
 1622SOL    HW2 6254   5.906   2.653   4.754  2.3905  2.5097 -1.6174
 1622SOL    HW3 6255   5.966   2.558   4.653  0.7019  0.3281 -0.6579
 1622SOL    MW4 6256   5.966   2.594   4.732  0.5852  0.0994 -0.5530
 1623SOL     OW 6257   0.531   0.934   0.645  0.4337  0.8713  0.5103
 1623SOL    HW2 6258   0.610   0.886   0.669  1.1026  1.6259 -0.1344
 1623SOL    HW3 6259   0.459   0.871   0.660  1.0900  0.3434  1.5691
 1623SOL    MW4 6260   0.532   0.919   0.650  0.6085  0.9012  0.5650
 1624SOL     OW 6261   1.824   2.863   1.761  0.0020 -0.5390 -0.5229
 1624SOL    HW2 6262   1.898   2.808   1.787  0.4958  0.1672 -0.3946
 1624SOL    HW3 6263   1.788   2.894   1.844  1.0738  1.0572 -0.6003
 1624SOL    MW4 6264   1.829   2.860   1.776  0.2085 -0.2352 -0.5162
 1625SOL     OW 6265   0.003   0.928   1.867 -0.5462  0.0254 -0.4021
 1625SOL    HW2 6266  -0.030   0.839   1.882  0.6598 -0.1661  1.5172
 1625SOL    HW3 6267  -0.037   0.980   1.937 -0.4339  0.7750 -0.8885
 1625SOL    MW4 6268  -0.007   0.923   1.878 -0.3723  0.0990 -0.2130
 1626SOL     OW 6269   4.832   1.522   3.697 -0.3427  0.5707 -0.9124
 1626SOL    HW2 6270   4.902   1.461   3.718 -1.0178  0.3009  0.6857
 1626SOL    HW3 6271   4.873   1.588   3.640  0.5705 -0.9222 -2.0398
 1626SOL    MW4 6272   4.846   1.523   3.692 -0.3113  0.3381 -0.8503
 1627SOL     OW 6273   2.325   1.538   4.949 -0.0177 -0.1420  0.1215
 1627SOL    HW2 6274   2.374   1.487   4.885  1.7757 -0.6701  1.8154
 1627SOL    HW3 6275   2.263   1.590   4.897 -0.4635 -2.4634 -1.8098
 1627SOL    MW4 6276   2.323   1.538   4.934  0.1601 -0.5179  0.0902
 1628SOL     OW 6277   0.456   5.888   0.211  0.0321  0.2646  0.0832
 1628SOL    HW2 6278   0.461   5.864   0.303  1.1609 -0.2382 -0.0895
 1628SOL    HW3 6279   0.407   5.970   0.210  1.2331  1.0261  1.2727
 1628SOL    MW4 6280   0.450   5.896   0.223  0.3395  0.2987  0.2173
 1629SOL     OW 6281   3.980   3.097   3.648 -0.0412  0.1092 -0.0120
 1629SOL    HW2 6282   3.907   3.076   3.589 -0.2981  3.4361 -1.0957
 1629SOL    HW3 6283   3.943   3.159   3.710  1.2225 -0.3381  1.2357
 1629SOL    MW4 6284   3.965   3.102   3.648  0.0916  0.4891  0.0096
 1630SOL     OW 6285   3.181   5.121   2.572  0.0484  0.4232 -0.3827
 1630SOL    HW2 6286   3.099   5.075   2.588  0.9910 -1.4688 -0.6294
 1630SOL    HW3 6287   3.156   5.197   2.519 -1.7171  0.8542  0.9699
 1630SOL    MW4 6288   3.167   5.125   2.567 -0.0602  0.2304 -0.2368
 1631SOL     OW 6289   3.909   0.332   4.202 -0.3797 -0.3057 -0.0328
 1631SOL    HW2 6290   3.816   0.320   4.183 -0.3079 -2.8352  0.7140
 1631SOL    HW3 6291   3.912   0.358   4.294 -0.3638 -1.0653  0.1932
 1631SOL    MW4 6292   3.897   0.334   4.212 -0.3681 -0.7397  0.0955
 1632SOL     OW 6293   3.700   1.653   0.311  0.8652 -0.0728 -0.0619
 1632SOL    HW2 6294   3.605   1.661   0.321  0.8060 -2.0660  1.6658
 1632SOL    HW3 6295   3.734   1.741   0.328 -0.6316  0.5272 -0.0814
 1632SOL    MW4 6296   3.692   1.666   0.315  0.6599 -0.2566  0.1635
 1633SOL     OW 6297   1.586   1.448   0.993  0.7416  0.0032 -0.1098
 1633SOL    HW2 6298   1.614   1.475   0.906 -1.2498 -1.3673 -1.2487
 1633SOL    HW3 6299   1.544   1.364   0.980 -0.2918  0.1071  2.0739
 1633SOL    MW4 6300   1.584   1.441   0.980  0.3425 -0.1639  0.0280
 1634SOL     OW 6301   6.236   6.332   4.744 -0.0233 -0.1070 -0.1476
 1634SOL    HW2 6302   6.315   6.316   4.693  0.5490 -0.7203  0.9090
 1634SOL    HW3 6303   6.235   6.264   4.811 -1.3923 -0.0430 -0.0598
 1634SOL    MW4 6304   6.246   6.321   4.746 -0.1284 -0.1795  0.0034
 1635SOL     OW 6305   3.767   3.176   1.875  0.5994 -0.3045  0.0514
 1635SOL    HW2 6306   3.825   3.137   1.940  2.9406  2.5239 -0.1015
 1635SOL    HW3 6307   3.784   3.270   1.882 -0.4504  0.2609 -3.3590
 1635SOL    MW4 6308   3.777   3.184   1.885  0.7698  0.1433 -0.4188
 1636SOL     OW 6309   2.691   4.977   5.244  0.2151  0.2824  0.1610
 1636SOL    HW2 6310   2.663   4.943   5.159 -0.6894  1.3183  0.0200
 1636SOL    HW3 6311   2.780   5.010   5.229  0.2137  0.0877 -0.2738
 1636SOL    MW4 6312   2.699   4.977   5.231  0.0956  0.3934  0.0851
 1637SOL     OW 6313   0.152   5.741   6.261 -0.0051  0.0002  0.0051
 1637SOL    HW2 6314   0.156   5.671   6.326 -1.4788  1.3206  1.6250
 1637SOL    HW3 6315   0.157   5.822   6.312  0.2405  1.1145 -1.6812
 1637SOL    MW4 6316   0.153   5.742   6.276 -0.1671  0.3214 -0.0037
 1638SOL     OW 6317   5.793   5.167   5.780  0.2046 -0.1408  0.1118
 1638SOL    HW2 6318   5.798   5.071   5.778 -0.6973 -0.2262 -2.4297
 1638SOL    HW3 6319   5.880   5.196   5.753  0.5849 -0.2073  1.2259
 1638SOL    MW4 6320   5.805   5.158   5.776  0.1358 -0.1608 -0.0765
 1639SOL     OW 6321   2.901   5.393   2.736  0.5857 -0.8426  0.3691
 1639SOL    HW2 6322   2.815   5.414   2.771 -0.0324 -1.6823 -0.6224
 1639SOL    HW3 6323   2.959   5.460   2.775 -0.4923 -0.2643  1.0306
 1639SOL    MW4 6324   2.898   5.405   2.746  0.3620 -0.8771  0.3256
 1640SOL     OW 6325   4.021   3.304   5.842 -0.6493 -0.0311 -0.6396
 1640SOL    HW2 6326   4.042   3.248   5.917 -1.3965 -0.1833 -0.5316
 1640SOL    HW3 6327   4.081   3.378   5.849  1.1037 -1.3127 -1.3777
 1640SOL    MW4 6328   4.032   3.306   5.853 -0.5166 -0.2202 -0.7228
 1641SOL     OW 6329   5.025   0.096   2.114  0.3756  0.0626 -0.3328
 1641SOL    HW2 6330   4.999   0.181   2.150 -0.8716 -0.6689  0.5649
 1641SOL    HW3 6331   4.945   0.043   2.116  0.9734 -0.9525 -1.4712
 1641SOL    MW4 6332   5.011   0.100   2.119  0.2899 -0.1678 -0.3645
 1642SOL     OW 6333   2.661   1.061   1.970 -0.2044  0.0972  0.1284
 1642SOL    HW2 6334   2.695   1.126   2.030  1.2925  0.6873 -1.2895
 1642SOL    HW3 6335   2.640   1.109   1.890  0.8410 -1.0997 -0.9192
 1642SOL    MW4 6336   2.662   1.076   1.967  0.1310  0.0171 -0.1969
 1643SOL     OW 6337   0.171   6.257   4.288  0.0225 -0.3957  1.1971
 1643SOL    HW2 6338   0.091   6.210   4.312  0.1936 -1.6645 -0.5045
 1643SOL    HW3 6339   0.182   6.239   4.195  1.4376  1.0777  1.0401
 1643SOL    MW4 6340   0.162   6.248   4.279  0.2318 -0.3687  0.9518
 1644SOL     OW 6341   4.678   0.464   3.079  0.3704 -0.2416  0.3436
 1644SOL    HW2 6342   4.687   0.397   3.012 -1.3578  0.3920 -0.5792
 1644SOL    HW3 6343   4.751   0.524   3.062  0.3562 -0.4563 -0.5477
 1644SOL    MW4 6344   4.689   0.463   3.068  0.1405 -0.1863  0.1043
 1645SOL     OW 6345   1.356   3.926   0.570 -0.5414  0.0100 -0.1840
 1645SOL    HW2 6346   1.398   3.970   0.496 -1.0459  1.1314  0.1712
 1645SOL    HW3 6347   1.412   3.851   0.588 -1.0919 -1.0376 -2.5009
 1645SOL    MW4 6348   1.369   3.922   0.563 -0.6806  0.0198 -0.4429
 1646SOL     OW 6349   5.691   0.187   4.726 -0.3045 -0.3960  0.0536
 1646SOL    HW2 6350   5.680   0.154   4.815 -0.4341  0.7863  0.4970
 1646SOL    HW3 6351   5.739   0.118   4.681 -0.5962 -1.1928  0.9227
 1646SOL    MW4 6352   5.696   0.174   4.732 -0.3601 -0.3452  0.2267
 1647SOL     OW 6353   2.310   3.095   4.282  0.0403  0.4661  0.2244
 1647SOL    HW2 6354   2.228   3.050   4.259  1.2264 -0.9823 -1.5728
 1647SOL    HW3 6355   2.374   3.024   4.289  1.2260  1.5922  1.2226
 1647SOL    MW4 6356   2.307   3.079   4.280  0.3533  0.4236  0.1190
 1648SOL     OW 6357   3.145   3.678   2.785  0.0119 -0.1884 -0.3458
 1648SOL    HW2 6358   3.131   3.593   2.743 -0.6861 -1.1666  1.7241
 1648SOL    HW3 6359   3.210   3.661   2.853 -0.0851  0.9451  0.0541
 1648SOL    MW4 6360   3.152   3.664   2.788 -0.0930 -0.1679 -0.0200
 1649SOL     OW 6361   0.436   1.023   1.025  0.0470 -0.6018 -0.0725
 1649SOL    HW2 6362   0.467   0.936   1.002 -0.4659 -0.7210 -0.3322
 1649SOL    HW3 6363   0.344   1.024   0.996  0.5493  0.6451 -1.7237
 1649SOL    MW4 6364   0.428   1.012   1.018  0.0456 -0.4530 -0.3246
 1650SOL     OW 6365   3.742   0.595   4.297 -0.3709 -0.8423  0.3160
 1650SOL    HW2 6366   3.819   0.574   4.245 -1.1808 -1.0905 -0.8240
 1650SOL    HW3 6367   3.776   0.649   4.368  0.9162 -1.3399  0.1142
 1650SOL    MW4 6368   3.757   0.600   4.299 -0.3079 -0.9407  0.1390
 1651SOL     OW 6369   4.181   6.312   5.899 -0.0406 -0.2652 -0.1208
 1651SOL    HW2 6370   4.260   6.360   5.924 -0.5687  0.2489  0.5858
 1651SOL    HW3 6371   4.123   6.379   5.863 -0.1510 -0.6486 -0.6733
 1651SOL    MW4 6372   4.184   6.327   5.897 -0.1248 -0.2479 -0.1005
 1652SOL     OW 6373   2.543   6.206   2.243 -0.3951 -0.1131  0.1316
 1652SOL    HW2 6374   2.565   6.215   2.150 -0.4796 -0.5850  0.0642
 1652SOL    HW3 6375   2.527   6.112   2.255  1.1974 -0.3307  0.9629
 1652SOL    MW4 6376   2.544   6.195   2.233 -0.1962 -0.2041  0.2324
 1653SOL     OW 6377   5.543   1.032   3.238  0.0939 -0.2888 -0.3769
 1653SOL    HW2 6378   5.577   1.119   3.220  0.1274 -0.6169 -2.0877
 1653SOL    HW3 6379   5.604   0.994   3.301  0.6197  0.5801 -0.3516
 1653SOL    MW4 6380   5.555   1.038   3.244  0.1677 -0.2174 -0.5993
 1654SOL     OW 6381   5.741   4.651   2.759 -0.4611 -0.5116 -0.0613
 1654SOL    HW2 6382   5.777   4.568   2.727  0.8078 -0.7951  1.9133
 1654SOL    HW3 6383   5.649   4.648   2.735 -0.6935 -3.0196  0.8633
 1654SOL    MW4 6384   5.734   4.640   2.752 -0.3243 -0.8799  0.3212
 1655SOL     OW 6385   4.807   1.290   4.652  0.4783 -0.5009  0.4160
 1655SOL    HW2 6386   4.865   1.231   4.700  0.1347 -0.8438  0.4158
 1655SOL    HW3 6387   4.842   1.377   4.669 -0.3372 -0.4885  2.2695
 1655SOL    MW4 6388   4.820   1.294   4.660  0.3254 -0.5445  0.6605
 1656SOL     OW 6389   1.856   0.054   2.229  0.3141 -0.1966  0.1590
 1656SOL    HW2 6390   1.923  -0.004   2.192  0.2395 -1.3542  1.7588
 1656SOL    HW3 6391   1.895   0.090   2.308 -1.1961 -1.5713  1.6152
 1656SOL    MW4 6392   1.870   0.051   2.234  0.1050 -0.5307  0.5622
 1657SOL     OW 6393   3.148   4.036   0.206  0.1268  0.0714  0.3718
 1657SOL    HW2 6394   3.215   4.025   0.137 -0.1106  2.0687 -0.2561
 1657SOL    HW3 6395   3.185   4.102   0.264 -0.3500 -0.4776  1.3120
 1657SOL    MW4 6396   3.162   4.044   0.204  0.0326  0.2625  0.4130
 1658SOL     OW 6397   2.733   0.341   2.165  0.2344 -0.1945 -0.0025
 1658SOL    HW2 6398   2.681   0.320   2.087 -2.6945  0.3877  1.6488
 1658SOL    HW3 6399   2.745   0.436   2.160 -1.0583  0.0357  0.8229
 1658SOL    MW4 6400   2.728   0.351   2.154 -0.3226 -0.0873  0.3243
 1659SOL     OW 6401   1.062   1.020   0.058 -0.2756  0.4142  0.6031
 1659SOL    HW2 6402   0.993   0.954   0.071  0.5792 -0.4230  0.9816
 1659SOL    HW3 6403   1.127   0.976   0.004  0.8603  0.5305  1.8374
 1659SOL    MW4 6404   1.061   1.005   0.053 -0.0130  0.3190  0.8158
 1660SOL     OW 6405   2.903   0.112   0.811  0.5884  0.4455 -0.2714
 1660SOL    HW2 6406   2.979   0.065   0.776  1.9532  0.2508  2.6909
 1660SOL    HW3 6407   2.873   0.058   0.884 -0.9892  1.6611  0.0239
 1660SOL    MW4 6408   2.909   0.098   0.816  0.5604  0.5802  0.1584
 1661SOL     OW 6409   0.551   2.476   5.713  0.5401  0.0826 -0.1099
 1661SOL    HW2 6410   0.460   2.462   5.686  0.5765 -0.9286  0.2462
 1661SOL    HW3 6411   0.565   2.570   5.702 -1.3651  0.7578  2.3832
 1661SOL    MW4 6412   0.541   2.486   5.708  0.2935  0.0383  0.2660
 1662SOL     OW 6413   4.010   3.605   5.812 -0.1362 -0.7284 -0.1802
 1662SOL    HW2 6414   4.014   3.544   5.739  1.4713  0.1562 -0.8732
 1662SOL    HW3 6415   3.995   3.690   5.772 -2.2688 -0.5879  0.7718
 1662SOL    MW4 6416   4.008   3.608   5.797 -0.2055 -0.5931 -0.1460
 1663SOL     OW 6417   6.382   2.469   1.077  0.6422 -0.1293 -0.3614
 1663SOL    HW2 6418   6.415   2.550   1.115 -0.0089  0.6782 -1.4473
 1663SOL    HW3 6419   6.297   2.493   1.039  1.8543 -0.4230 -3.6074
 1663SOL    MW4 6420   6.375   2.483   1.077  0.7162 -0.0615 -0.9330
 1664SOL     OW 6421   1.744   1.399   4.347 -0.4580 -0.2915  0.0221
 1664SOL    HW2 6422   1.712   1.350   4.271  0.0211 -0.8646  0.1823
 1664SOL    HW3 6423   1.747   1.334   4.417  2.8807 -0.7963 -0.4454
 1664SOL    MW4 6424   1.740   1.384   4.346  0.0457 -0.4337 -0.0185
 1665SOL     OW 6425   5.232   1.379   2.703 -0.3291  0.4604  0.1099
 1665SOL    HW2 6426   5.319   1.381   2.663 -0.0005 -1.6524  0.6021
 1665SOL    HW3 6427   5.193   1.463   2.679  1.6535  1.2640 -0.5276
 1665SOL    MW4 6428   5.239   1.390   2.695 -0.0242  0.2877  0.0907
 1666SOL     OW 6429   2.209   1.121   5.353  0.2015 -0.5980 -0.2085
 1666SOL    HW2 6430   2.136   1.170   5.392 -1.6178 -2.7227 -0.7788
 1666SOL    HW3 6431   2.234   1.174   5.278 -1.4328 -0.2872 -0.5811
 1666SOL    MW4 6432   2.203   1.135   5.349 -0.2542 -0.8373 -0.3329
 1667SOL     OW 6433   2.515   1.125   5.510  0.0200 -0.3302  0.4101
 1667SOL    HW2 6434   2.477   1.163   5.589  2.3292 -0.0420  1.4823
 1667SOL    HW3 6435   2.547   1.200   5.460  0.9518 -0.6399  0.5283
 1667SOL    MW4 6436   2.514   1.140   5.514  0.4476 -0.3330  0.5671
 1668SOL     OW 6437   2.742   5.594   3.815 -0.5693  0.4806 -0.1685
 1668SOL    HW2 6438   2.659   5.618   3.775 -1.3562 -0.7713  0.6585
 1668SOL    HW3 6439   2.781   5.531   3.754 -0.7581  0.2200 -0.0231
 1668SOL    MW4 6440   2.736   5.589   3.802 -0.6980  0.2811 -0.0402
 1669SOL     OW 6441   1.006   4.782   1.317 -0.3780 -0.5137  0.1154
 1669SOL    HW2 6442   1.048   4.814   1.238 -1.5761  1.6237  0.2526
 1669SOL    HW3 6443   0.957   4.705   1.289 -1.4485  0.6667 -1.4650
 1669SOL    MW4 6444   1.005   4.776   1.303 -0.6773 -0.0760 -0.0750
 1670SOL     OW 6445   2.316   4.266   1.868  0.1827 -0.0744 -0.0260
 1670SOL    HW2 6446   2.317   4.351   1.825 -1.2662  0.0878  0.2211
 1670SOL    HW3 6447   2.409   4.240   1.872  0.6271  1.4018 -0.2495
 1670SOL    MW4 6448   2.329   4.274   1.863  0.0502  0.1418 -0.0229
 1671SOL     OW 6449   4.806   5.404   0.153 -0.7328  0.4452 -0.4972
 1671SOL    HW2 6450   4.737   5.348   0.116 -2.0139  1.2089  0.6503
 1671SOL    HW3 6451   4.792   5.489   0.113 -0.4843  0.6194 -0.2174
 1671SOL    MW4 6452   4.795   5.408   0.143 -0.8690  0.5690 -0.3089
 1672SOL     OW 6453   6.374   1.216   3.832  0.3765 -0.0544  0.5101
 1672SOL    HW2 6454   6.427   1.143   3.800 -0.0208 -0.0108 -0.2817
 1672SOL    HW3 6455   6.359   1.271   3.755 -0.3590  0.2178  0.8318
 1672SOL    MW4 6456   6.379   1.214   3.818  0.2270 -0.0127  0.4481
 1673SOL     OW 6457   3.441   2.512   2.691 -0.8601 -0.0241 -0.2543
 1673SOL    HW2 6458   3.459   2.605   2.703 -0.5097 -0.2572  1.1434
 1673SOL    HW3 6459   3.516   2.468   2.729  0.2324 -0.8929 -3.1638
 1673SOL    MW4 6460   3.453   2.519   2.698 -0.6697 -0.1695 -0.4538
 1674SOL     OW 6461   0.955   5.359   5.828  0.2772  0.2392  0.2288
 1674SOL    HW2 6462   0.867   5.327   5.850 -0.0768  0.7796 -0.3616
 1674SOL    HW3 6463   1.008   5.337   5.905  0.1496 -2.0730 -0.2654
 1674SOL    MW4 6464   0.950   5.351   5.841  0.2136  0.0054  0.0857
 1675SOL     OW 6465   4.765   2.564   5.703 -0.6977 -0.0247  0.1889
 1675SOL    HW2 6466   4.821   2.503   5.654  1.0454  1.9159 -0.3712
 1675SOL    HW3 6467   4.680   2.558   5.659  0.3822  0.4986 -2.1632
 1675SOL    MW4 6468   4.761   2.555   5.690 -0.3252  0.3004 -0.1953
 1676SOL     OW 6469   1.318   3.140   3.872  0.3094 -0.0486 -0.1758
 1676SOL    HW2 6470   1.336   3.047   3.856  0.6230  0.1974 -1.3382
 1676SOL    HW3 6471   1.391   3.170   3.925  1.8479  0.2102 -2.3026
 1676SOL    MW4 6472   1.330   3.132   3.877  0.5538  0.0180 -0.6098
 1677SOL     OW 6473   5.973   4.033   2.047  0.3931 -0.3621 -0.3094
 1677SOL    HW2 6474   5.909   4.102   2.028  0.6618 -0.1186 -0.3407
 1677SOL    HW3 6475   5.954   4.006   2.136 -0.0022 -0.5603 -0.4512
 1677SOL    MW4 6476   5.962   4.038   2.056  0.3764 -0.3561 -0.3323
 1678SOL     OW 6477   5.774   5.754   5.225 -0.0723 -0.2465 -0.1957
 1678SOL    HW2 6478   5.745   5.794   5.308 -1.9709  0.5518 -1.1835
 1678SOL    HW3 6479   5.738   5.665   5.228 -1.2674  0.2014 -0.6903
 1678SOL    MW4 6480   5.765   5.747   5.237 -0.4805 -0.0821 -0.3913
 1679SOL     OW 6481   3.621   0.720   1.433  0.0770 -0.1183  0.0331
 1679SOL    HW2 6482   3.644   0.730   1.341  0.2118  0.2478  0.1023
 1679SOL    HW3 6483   3.679   0.652   1.465  0.9690  0.6721  0.1612
 1679SOL    MW4 6484   3.632   0.713   1.425  0.2125  0.0343  0.0591
 1680SOL     OW 6485   3.490   0.292   5.342  0.2124 -1.0194  0.2323
 1680SOL    HW2 6486   3.410   0.295   5.290 -0.1127 -0.0523  0.7751
 1680SOL    HW3 6487   3.523   0.381   5.342  1.0900 -1.3335  0.3382
 1680SOL    MW4 6488   3.483   0.304   5.335  0.2853 -0.9333  0.3179
 1681SOL     OW 6489   5.948   4.774   1.178  0.6061  0.2167  0.6096
 1681SOL    HW2 6490   5.914   4.811   1.259  1.9394  1.0125  0.8419
 1681SOL    HW3 6491   6.043   4.784   1.185  0.8737 -1.4017 -0.2442
 1681SOL    MW4 6492   5.956   4.781   1.189  0.8173  0.1081  0.5276
 1682SOL     OW 6493   5.693   2.479   1.525  0.1727 -0.1048 -0.0024
 1682SOL    HW2 6494   5.661   2.422   1.456  0.9144  0.7890 -1.1186
 1682SOL    HW3 6495   5.636   2.460   1.600  0.0107 -1.8295 -0.5250
 1682SOL    MW4 6496   5.681   2.469   1.526  0.2492 -0.2145 -0.2187
 1683SOL     OW 6497   6.291   5.323   5.720 -0.4124  0.0675 -0.4157
 1683SOL    HW2 6498   6.361   5.314   5.784 -1.0428  2.6014  0.7969
 1683SOL    HW3 6499   6.310   5.406   5.675 -2.0890  0.3435 -0.7019
 1683SOL    MW4 6500   6.303   5.333   5.723 -0.7168  0.4382 -0.2935
 1684SOL     OW 6501   1.920   6.317   4.211 -0.5068  0.1350  0.2334
 1684SOL    HW2 6502   1.962   6.371   4.278 -1.4412 -0.1163  1.0440
 1684SOL    HW3 6503   1.925   6.369   4.131  0.5027  0.4941  0.5147
 1684SOL    MW4 6504   1.927   6.331   4.209 -0.4969  0.1492  0.3775
 1685SOL     OW 6505   4.307   3.455   4.511  0.7819  0.3000  0.2235
 1685SOL    HW2 6506   4.211   3.452   4.520  0.7421 -1.7117 -0.4106
 1685SOL    HW3 6507   4.339   3.424   4.596  0.8339 -0.1221  0.0521
 1685SOL    MW4 6508   4.298   3.451   4.524  0.7835 -0.0211  0.1172
 1686SOL     OW 6509   2.683   1.904   4.909  0.5062 -0.9558 -0.3916
 1686SOL    HW2 6510   2.694   1.913   5.003 -0.6053 -0.0897 -0.3287
 1686SOL    HW3 6511   2.589   1.888   4.897  0.0510  1.8983 -1.5000
 1686SOL    MW4 6512   2.672   1.903   4.920  0.2995 -0.4650 -0.5295
 1687SOL     OW 6513   3.509   4.106   4.280  0.4068  0.3907  0.1193
 1687SOL    HW2 6514   3.531   4.017   4.252  1.4983  0.4249  0.8368
 1687SOL    HW3 6515   3.574   4.128   4.346 -0.3670  1.4151  0.5696
 1687SOL    MW4 6516   3.521   4.097   4.285  0.4488  0.5304  0.2734
 1688SOL     OW 6517   5.245   4.908   3.046 -0.1948  0.1882  0.6216
 1688SOL    HW2 6518   5.194   4.866   2.976 -1.3387  0.5712  1.2005
 1688SOL    HW3 6519   5.187   4.907   3.122  1.8282 -2.2475  2.2786
 1688SOL    MW4 6520   5.230   4.903   3.047 -0.0788 -0.0826  0.9166
 1689SOL     OW 6521   3.944   0.904   6.060 -0.7336  0.3422  0.0480
 1689SOL    HW2 6522   3.868   0.963   6.065  0.1115  1.5058 -0.4132
 1689SOL    HW3 6523   3.996   0.938   5.987  0.1567 -0.5349  0.2580
 1689SOL    MW4 6524   3.941   0.916   6.051 -0.5046  0.3800  0.0148
 1690SOL     OW 6525   3.562   0.829   4.767  0.0734  0.0005  0.3870
 1690SOL    HW2 6526   3.506   0.883   4.712 -1.6878 -0.2233  1.8757
 1690SOL    HW3 6527   3.589   0.887   4.839  0.1011 -0.4518  0.7507
 1690SOL    MW4 6528   3.558   0.844   4.770 -0.1553 -0.0887  0.6314
 1691SOL     OW 6529   5.779   5.888   2.809  0.2326 -0.5578  0.2834
 1691SOL    HW2 6530   5.853   5.940   2.839  0.2175 -0.3661 -0.0122
 1691SOL    HW3 6531   5.723   5.949   2.761 -1.5758 -0.0168  2.8819
 1691SOL    MW4 6532   5.781   5.903   2.806 -0.0080 -0.4611  0.5872
 1692SOL     OW 6533   4.946   3.561   0.932  0.2599 -0.0071 -0.8197
 1692SOL    HW2 6534   5.039   3.567   0.954  0.1737 -1.1152 -0.0526
 1692SOL    HW3 6535   4.926   3.643   0.888  1.3898  0.6179 -0.2019
 1692SOL    MW4 6536   4.955   3.572   0.929  0.3976 -0.0709 -0.6370
 1693SOL     OW 6537   4.976   3.522   3.992 -0.0609  0.3541 -0.2239
 1693SOL    HW2 6538   5.008   3.612   3.994  0.6598  0.1212  2.0138
 1693SOL    HW3 6539   4.980   3.493   4.084 -0.4447 -1.8995 -0.8472
 1693SOL    MW4 6540   4.980   3.530   4.005 -0.0165  0.0260 -0.0109
 1694SOL     OW 6541   6.402   2.569   5.004  0.1921 -0.1271 -0.5739
 1694SOL    HW2 6542   6.326   2.626   4.998 -0.1536 -0.3192  1.2639
 1694SOL    HW3 6543   6.430   2.575   5.095  0.3677 -2.5756 -0.3865
 1694SOL    MW4 6544   6.396   2.577   5.015  0.1697 -0.4755 -0.3067
 1695SOL     OW 6545   4.728   1.264   5.390 -0.3535 -0.4242 -0.5347
 1695SOL    HW2 6546   4.656   1.298   5.443 -0.0542  0.1094 -0.4618
 1695SOL    HW3 6547   4.806   1.303   5.430  0.2355 -2.9357  0.9877
 1695SOL    MW4 6548   4.729   1.274   5.402 -0.2363 -0.6852 -0.3242
 1696SOL     OW 6549   1.859   4.481   3.300 -0.7186 -0.1226 -0.1446
 1696SOL    HW2 6550   1.896   4.478   3.388  0.9268 -1.8970 -0.8225
 1696SOL    HW3 6551   1.795   4.410   3.297 -0.2630 -0.5266 -0.5623
 1696SOL    MW4 6552   1.856   4.471   3.311 -0.4414 -0.4100 -0.2891
 1697SOL     OW 6553   5.946   2.364   5.334 -0.0790  0.0996 -1.0971
 1697SOL    HW2 6554   5.902   2.309   5.269 -1.7640  1.1796 -0.9278
 1697SOL    HW3 6555   5.901   2.448   5.330  0.0539  0.3511  1.1331
 1697SOL    MW4 6556   5.934   2.368   5.325 -0.2838  0.2753 -0.7805
 1698SOL     OW 6557   6.229   4.896   2.037  0.5507 -0.4395  0.3044
 1698SOL    HW2 6558   6.317   4.859   2.048  0.9055  0.2410 -0.1501
 1698SOL    HW3 6559   6.233   4.981   2.082  0.6812  0.3915 -1.2323
 1698SOL    MW4 6560   6.241   4.902   2.045  0.6147 -0.2401  0.0417
 1699SOL     OW 6561   0.154   3.358   1.670 -0.5345  0.3762 -0.0916
 1699SOL    HW2 6562   0.132   3.381   1.760 -0.7206  0.8499 -0.2541
 1699SOL    HW3 6563   0.116   3.271   1.657 -0.4538  0.2816  0.3037
 1699SOL    MW4 6564   0.146   3.349   1.680 -0.5484  0.4262 -0.0609
 1700SOL     OW 6565   5.030   4.500   1.777 -0.0825  0.0479 -0.3025
 1700SOL    HW2 6566   5.085   4.459   1.843 -0.2854 -0.5377 -0.4948
 1700SOL    HW3 6567   5.086   4.503   1.699 -0.5560 -1.2316 -0.7141
 1700SOL    MW4 6568   5.045   4.495   1.775 -0.1717 -0.1982 -0.3822
 1701SOL     OW 6569   3.003   2.264   3.477 -0.4844  0.1414 -0.2837
 1701SOL    HW2 6570   3.019   2.206   3.402  0.5269  0.9472 -0.7314
 1701SOL    HW3 6571   2.917   2.239   3.510  0.1434 -1.9695 -0.1197
 1701SOL    MW4 6572   2.994   2.253   3.471 -0.2682 -0.0308 -0.3211
 1702SOL     OW 6573   0.346   2.420   1.652  0.4411 -0.1199 -0.2339
 1702SOL    HW2 6574   0.253   2.410   1.633  0.0662 -2.6260  2.1689
 1702SOL    HW3 6575   0.391   2.380   1.578 -0.5279 -1.2436 -0.2431
 1702SOL    MW4 6576   0.340   2.413   1.640  0.2638 -0.5988  0.0819
 1703SOL     OW 6577   3.947   1.219   5.438  0.5628 -0.0661  0.4070
 1703SOL    HW2 6578   3.994   1.297   5.469 -0.2927  1.5255 -1.9937
 1703SOL    HW3 6579   3.998   1.189   5.362  1.1661 -2.2402  1.5947
 1703SOL    MW4 6580   3.960   1.225   5.432  0.5295 -0.1429  0.2469
 1704SOL     OW 6581   6.303   5.937   4.572 -0.2695 -0.2499 -0.0879
 1704SOL    HW2 6582   6.384   5.968   4.612  0.0854 -0.8991 -0.2864
 1704SOL    HW3 6583   6.246   6.014   4.570  0.0653  0.0329  0.7414
 1704SOL    MW4 6584   6.306   5.951   4.577 -0.1785 -0.2983 -0.0047
 1705SOL     OW 6585   4.942   6.112   3.971 -0.0789 -0.3079  0.0641
 1705SOL    HW2 6586   4.872   6.115   3.907 -1.0183 -0.3047  1.0620
 1705SOL    HW3 6587   5.008   6.054   3.932  0.0673  0.8832 -1.5395
 1705SOL    MW4 6588   4.942   6.105   3.958 -0.1835 -0.1503 -0.0158
 1706SOL     OW 6589   2.646   3.418   1.573  0.2259  0.2250  0.0748
 1706SOL    HW2 6590   2.552   3.419   1.586  0.3212  0.4581  0.7897
 1706SOL    HW3 6591   2.679   3.356   1.638  0.4535 -0.8612 -1.0282
 1706SOL    MW4 6592   2.638   3.410   1.583  0.2685  0.1125  0.0236
 1707SOL     OW 6593   3.371   2.014   6.413  0.2751  0.1711  0.0436
 1707SOL    HW2 6594   3.303   1.971   6.465 -0.3311 -1.0590 -1.6926
 1707SOL    HW3 6595   3.426   2.058   6.478 -1.5954  0.3845  1.5573
 1707SOL    MW4 6596   3.369   2.014   6.429 -0.0517  0.0370  0.0142
 1708SOL     OW 6597   4.766   1.559   0.098 -0.3149 -0.0640  0.0757
 1708SOL    HW2 6598   4.699   1.555   0.030  0.3063 -1.1237 -0.4942
 1708SOL    HW3 6599   4.814   1.639   0.079 -0.6482  0.0639 -0.2435
 1708SOL    MW4 6600   4.763   1.569   0.087 -0.2769 -0.1869 -0.0416
 1709SOL     OW 6601   3.760   3.821   1.656  0.8927  0.0224 -0.0110
 1709SOL    HW2 6602   3.775   3.799   1.564 -0.5084 -0.9257 -0.0523
 1709SOL    HW3 6603   3.845   3.851   1.688  1.5875 -0.3697 -1.4112
 1709SOL    MW4 6604   3.773   3.822   1.648  0.7995 -0.1544 -0.2012
 1710SOL     OW 6605   1.086   3.938   4.748  0.1321  0.7715  0.4516
 1710SOL    HW2 6606   1.175   3.973   4.742  1.5880 -2.1234  2.8357
 1710SOL    HW3 6607   1.093   3.847   4.720 -1.3040 -0.4795  3.6761
 1710SOL    MW4 6608   1.099   3.931   4.743  0.1347  0.2245  1.1916
 1711SOL     OW 6609   3.697   4.262   3.249  0.8858 -0.0926 -0.3486
 1711SOL    HW2 6610   3.642   4.223   3.182  2.3831 -1.2190 -0.9908
 1711SOL    HW3 6611   3.774   4.294   3.202  0.9979  1.0879  0.5682
 1711SOL    MW4 6612   3.700   4.261   3.234  1.0982 -0.0854 -0.3124
 1712SOL     OW 6613   5.050   1.189   1.597  0.0964  0.0113 -0.3219
 1712SOL    HW2 6614   4.967   1.222   1.563 -1.4722 -1.7929  1.5110
 1712SOL    HW3 6615   5.053   1.097   1.568  0.8981 -0.2604  0.5771
 1712SOL    MW4 6616   5.040   1.181   1.588 -0.0048 -0.2626  0.0386
 1713SOL     OW 6617   1.537   0.222   1.736 -0.7434 -0.3903  0.2024
 1713SOL    HW2 6618   1.526   0.144   1.681 -1.0798  0.9367 -1.6836
 1713SOL    HW3 6619   1.631   0.226   1.753 -0.6034 -0.6656 -0.5074
 1713SOL    MW4 6620   1.548   0.212   1.731 -0.7693 -0.2515 -0.1401
 1714SOL     OW 6621   5.247   0.762   0.941 -0.4358 -0.0333 -0.4631
 1714SOL    HW2 6622   5.189   0.688   0.961 -0.7237  0.0212 -1.0916
 1714SOL    HW3 6623   5.296   0.734   0.864 -0.4002  0.3491 -0.5803
 1714SOL    MW4 6624   5.246   0.749   0.934 -0.4691  0.0243 -0.5615
 1715SOL     OW 6625   2.335   1.017   0.225  0.1246 -0.0191  0.1836
 1715SOL    HW2 6626   2.367   0.964   0.151 -0.2928  1.0901 -0.8282
 1715SOL    HW3 6627   2.390   0.990   0.299  2.6651  0.9544 -1.1942
 1715SOL    MW4 6628   2.347   1.006   0.225  0.4047  0.2557 -0.1317
 1716SOL     OW 6629   0.869   5.062   0.297 -0.3330  0.0868  0.0241
 1716SOL    HW2 6630   0.827   5.023   0.373  1.6630  1.8693  2.1984
 1716SOL    HW3 6631   0.963   5.056   0.316  0.2660  0.2925 -2.4830
 1716SOL    MW4 6632   0.876   5.056   0.310  0.0094  0.3491 -0.0198
 1717SOL     OW 6633   1.653   0.081   0.237  0.0554  0.2734 -0.2577
 1717SOL    HW2 6634   1.696   0.008   0.192  0.1756 -0.4392  0.9582
 1717SOL    HW3 6635   1.723   0.121   0.289  0.0228  1.3606 -1.0206
 1717SOL    MW4 6636   1.668   0.077   0.238  0.0670  0.3228 -0.1979
 1718SOL     OW 6637   6.208   5.305   5.261 -0.0750  0.2722 -0.4306
 1718SOL    HW2 6638   6.231   5.397   5.271  0.7261  0.2398 -1.7491
 1718SOL    HW3 6639   6.292   5.259   5.258 -0.4701 -0.6263  1.0513
 1718SOL    MW4 6640   6.222   5.311   5.262 -0.0215  0.1494 -0.4090
 1719SOL     OW 6641   5.683   3.374   3.839 -0.4223 -0.4833  0.8369
 1719SOL    HW2 6642   5.760   3.427   3.817 -0.0760 -1.1354  0.4506
 1719SOL    HW3 6643   5.708   3.327   3.919  0.3859 -2.2641 -0.4011
 1719SOL    MW4 6644   5.696   3.375   3.847 -0.2700 -0.8043  0.6226
 1720SOL     OW 6645   3.733   1.680   3.587 -0.6633 -0.1318 -0.1872
 1720SOL    HW2 6646   3.690   1.603   3.549 -1.2582 -1.6775  3.2766
 1720SOL    HW3 6647   3.660   1.737   3.613 -0.4200 -0.2946  0.8802
 1720SOL    MW4 6648   3.717   1.678   3.585 -0.7097 -0.3572  0.4107
 1721SOL     OW 6649   5.020   4.632   3.403 -0.0265  0.0264  0.1955
 1721SOL    HW2 6650   5.087   4.587   3.455 -1.1216  0.8758  2.4568
 1721SOL    HW3 6651   4.943   4.634   3.459 -1.9670 -0.7646 -2.2788
 1721SOL    MW4 6652   5.019   4.626   3.417 -0.4270  0.0341  0.1674
 1722SOL     OW 6653   2.180   3.655   5.414 -0.1738  0.1497  0.5000
 1722SOL    HW2 6654   2.151   3.705   5.491 -2.3755 -0.8751  0.4025
 1722SOL    HW3 6655   2.188   3.565   5.445  0.5456 -0.0028 -0.1003
 1722SOL    MW4 6656   2.178   3.650   5.428 -0.3694 -0.0056  0.4079
 1723SOL     OW 6657   3.862   1.965   2.537  0.0023  0.1624  0.2506
 1723SOL    HW2 6658   3.829   2.047   2.500  4.1444  1.0795 -2.1576
 1723SOL    HW3 6659   3.864   1.904   2.462 -0.7361 -1.3949  1.4370
 1723SOL    MW4 6660   3.858   1.968   2.522  0.4514  0.0779  0.0894
 1724SOL     OW 6661   4.173   3.678   2.304 -0.3778  0.1318 -0.0080
 1724SOL    HW2 6662   4.233   3.706   2.373 -0.7166  0.5441  0.1232
 1724SOL    HW3 6663   4.101   3.635   2.351 -1.6060  2.1500  0.0930
 1724SOL    MW4 6664   4.171   3.676   2.319 -0.5846  0.4525  0.0227
 1725SOL     OW 6665   2.887   6.369   4.739 -0.3095  0.2185 -0.7328
 1725SOL    HW2 6666   2.931   6.299   4.788  0.4415  0.3580 -1.2028
 1725SOL    HW3 6667   2.883   6.442   4.800 -0.7580 -0.1036 -0.3668
 1725SOL    MW4 6668   2.892   6.369   4.754 -0.2696  0.1944 -0.7466
 1726SOL     OW 6669   3.522   5.941   0.520  0.1441 -0.2437  0.2894
 1726SOL    HW2 6670   3.608   5.931   0.561 -0.2254 -0.9732  0.9271
 1726SOL    HW3 6671   3.519   5.873   0.453  0.5630  0.6416 -0.6511
 1726SOL    MW4 6672   3.533   5.931   0.517  0.1506 -0.2232  0.2494
 1727SOL     OW 6673   0.101   4.344   0.201  0.2007  0.0037  0.1236
 1727SOL    HW2 6674   0.175   4.286   0.182 -0.1945 -1.1452  1.8622
 1727SOL    HW3 6675   0.036   4.322   0.135  0.1804 -1.3442  0.5605
 1727SOL    MW4 6676   0.102   4.334   0.190  0.1459 -0.3257  0.4107
 1728SOL     OW 6677   3.047   6.420   2.102  0.1852  0.4153  0.0115
 1728SOL    HW2 6678   3.036   6.330   2.132  0.7101  0.1986 -0.4420
 1728SOL    HW3 6679   3.136   6.443   2.127  0.5973  0.2671 -1.3027
 1728SOL    MW4 6680   3.057   6.411   2.109  0.3088  0.3672 -0.2217
 1729SOL     OW 6681   6.388   4.822   3.874  0.1748 -0.5140  0.4818
 1729SOL    HW2 6682   6.373   4.917   3.880  0.3960 -0.3926 -0.6699
 1729SOL    HW3 6683   6.435   4.800   3.954  1.1939  0.5790  0.2129
 1729SOL    MW4 6684   6.392   4.832   3.885  0.3385 -0.3537  0.2944
 1730SOL     OW 6685   5.073   3.887   1.773 -0.1539 -0.1707 -0.0090
 1730SOL    HW2 6686   5.142   3.884   1.706 -0.4745 -1.1845 -0.3254
 1730SOL    HW3 6687   5.045   3.795   1.782  0.3978 -0.1916  2.0611
 1730SOL    MW4 6688   5.079   3.874   1.765 -0.1234 -0.3072  0.2224
 1731SOL     OW 6689   0.082   1.683   1.996  0.0252 -0.3445  0.2020
 1731SOL    HW2 6690   0.089   1.718   1.907 -0.0384  1.5425  0.8885
 1731SOL    HW3 6691   0.014   1.616   1.991 -0.3256  0.0805 -1.0719
 1731SOL    MW4 6692   0.074   1.679   1.984 -0.0295 -0.0394  0.1245
 1732SOL     OW 6693   2.977   1.481   4.482  0.4513 -0.2130  0.4386
 1732SOL    HW2 6694   3.066   1.511   4.505  0.3127  0.4482  0.1408
 1732SOL    HW3 6695   2.960   1.520   4.396  0.3001 -1.2629 -0.0246
 1732SOL    MW4 6696   2.987   1.490   4.474  0.4131 -0.2643  0.3382
 1733SOL     OW 6697   4.286   5.045   0.307 -0.1723  0.1604  0.5141
 1733SOL    HW2 6698   4.300   4.987   0.382 -0.0741 -0.1427  0.2661
 1733SOL    HW3 6699   4.344   5.119   0.323  0.9412 -0.5700  0.0454
 1733SOL    MW4 6700   4.296   5.047   0.319 -0.0125  0.0240  0.4196
 1734SOL     OW 6701   5.119   0.458   5.328  0.0731  0.7724  0.3730
 1734SOL    HW2 6702   5.061   0.444   5.402  2.0870 -1.4124  1.6773
 1734SOL    HW3 6703   5.190   0.513   5.363  0.0609  1.3846 -0.5159
 1734SOL    MW4 6704   5.121   0.464   5.343  0.3372  0.5649  0.4278
 1735SOL     OW 6705   1.790   6.307   3.559  0.6283  0.4906  0.7095
 1735SOL    HW2 6706   1.802   6.213   3.579 -1.8088  0.0714  0.4651
 1735SOL    HW3 6707   1.771   6.309   3.466 -2.0409  0.8516  1.1806
 1735SOL    MW4 6708   1.789   6.295   3.550 -0.0454  0.4829  0.7394
 1736SOL     OW 6709   1.371   2.230   5.588 -0.2085 -0.0751 -0.0314
 1736SOL    HW2 6710   1.433   2.278   5.534 -1.1740  0.3948 -0.7685
 1736SOL    HW3 6711   1.298   2.212   5.529  0.7472 -3.8947 -0.2962
 1736SOL    MW4 6712   1.369   2.234   5.573 -0.2098 -0.5171 -0.1636
 1737SOL     OW 6713   3.554   1.636   5.292  0.1693  0.1203  0.3062
 1737SOL    HW2 6714   3.645   1.609   5.304 -0.5785 -2.9805 -0.0977
 1737SOL    HW3 6715   3.549   1.662   5.200  0.3395 -1.3599 -0.1514
 1737SOL    MW4 6716   3.566   1.636   5.281  0.0931 -0.4841  0.1925
 1738SOL     OW 6717   0.007   1.295   0.973 -0.5055  0.2091  0.0829
 1738SOL    HW2 6718   0.039   1.205   0.968  0.1119  0.3337  1.3416
 1738SOL    HW3 6719  -0.067   1.291   1.034 -1.5245  0.2931 -1.1243
 1738SOL    MW4 6720   0.002   1.282   0.981 -0.5585  0.2367  0.0897
 1739SOL     OW 6721   2.120   4.711   2.442 -0.3477  0.2352 -0.1071
 1739SOL    HW2 6722   2.126   4.620   2.412 -0.8787  0.5164 -1.0868
 1739SOL    HW3 6723   2.028   4.733   2.434 -0.1778  0.9545 -0.1456
 1739SOL    MW4 6724   2.109   4.701   2.437 -0.3954  0.3672 -0.2414
 1740SOL     OW 6725   0.161   4.999   6.254  0.0045 -0.4954 -0.2131
 1740SOL    HW2 6726   0.201   4.959   6.331  0.6797 -0.4103 -0.5095
 1740SOL    HW3 6727   0.178   4.937   6.183 -2.6582 -1.7231  0.1200
 1740SOL    MW4 6728   0.169   4.985   6.255 -0.2577 -0.6461 -0.2083
 1741SOL     OW 6729   4.095   0.093   4.324 -0.1800 -0.2178 -0.5830
 1741SOL    HW2 6730   4.031   0.021   4.326  0.0144 -0.4059  1.6046
 1741SOL    HW3 6731   4.045   0.170   4.349 -0.0800  0.1644 -1.5111
 1741SOL    MW4 6732   4.080   0.093   4.328 -0.1412 -0.1922 -0.4168
 1742SOL     OW 6733   0.057   3.876   0.076 -0.2890  0.4966 -0.4259
 1742SOL    HW2 6734   0.082   3.922  -0.004 -1.0590  0.4548 -0.6963
 1742SOL    HW3 6735   0.062   3.783   0.052 -0.9494  0.4952 -0.5550
 1742SOL    MW4 6736   0.061   3.870   0.062 -0.4777  0.4909 -0.4786
 1743SOL     OW 6737   5.024   2.106   5.496  0.1539  0.5403  0.0763
 1743SOL    HW2 6738   4.968   2.071   5.565 -1.0322  2.6231  0.2583
 1743SOL    HW3 6739   4.983   2.077   5.414  0.7912 -0.7847  0.1964
 1743SOL    MW4 6740   5.011   2.098   5.494  0.0815  0.6403  0.1161
 1744SOL     OW 6741   3.874   1.476   2.755  0.4364 -0.7088  0.8996
 1744SOL    HW2 6742   3.923   1.394   2.762  0.2744 -0.7258  2.0917
 1744SOL    HW3 6743   3.878   1.513   2.843  2.7006  1.8640 -0.1449
 1744SOL    MW4 6744   3.881   1.470   2.767  0.7138 -0.3716  0.9191
 1745SOL     OW 6745   2.266   0.734   0.539  0.2011 -0.1356 -0.1577
 1745SOL    HW2 6746   2.193   0.767   0.590  0.5235  0.5319 -0.1130
 1745SOL    HW3 6747   2.235   0.734   0.448  0.3964  0.8865 -0.2344
 1745SOL    MW4 6748   2.253   0.738   0.533  0.2694  0.0873 -0.1619
 1746SOL     OW 6749   4.995   2.188   0.352 -0.0184 -0.0310 -0.0446
 1746SOL    HW2 6750   4.960   2.113   0.305  0.5826 -0.7076  0.5638
 1746SOL    HW3 6751   5.047   2.235   0.287  1.1758 -1.2015  0.0358
 1746SOL    MW4 6752   4.997   2.185   0.337  0.2184 -0.2747  0.0463
 1747SOL     OW 6753   6.212   2.832   1.867 -0.0270 -0.0075 -0.3271
 1747SOL    HW2 6754   6.301   2.825   1.834 -0.1270 -1.9255 -0.3041
 1747SOL    HW3 6755   6.163   2.875   1.797  0.6685 -0.0128 -0.8209
 1747SOL    MW4 6756   6.217   2.837   1.853  0.0516 -0.2612 -0.3892
 1748SOL     OW 6757   0.070   0.582   6.056 -0.1473  0.2896 -0.0956
 1748SOL    HW2 6758   0.007   0.584   6.128  0.3320  0.4313  0.3267
 1748SOL    HW3 6759   0.133   0.651   6.078  0.6911 -0.4829 -0.0248
 1748SOL    MW4 6760   0.070   0.592   6.068  0.0266  0.2064 -0.0305
 1749SOL     OW 6761   4.818   2.643   4.861  0.1788  0.1197 -0.1545
 1749SOL    HW2 6762   4.903   2.614   4.828 -0.1091  0.2484 -1.0399
 1749SOL    HW3 6763   4.827   2.640   4.957  1.2956  0.5010 -0.2325
 1749SOL    MW4 6764   4.831   2.639   4.870  0.2881  0.1870 -0.2816
 1750SOL     OW 6765   4.444   3.647   6.415  0.2308  0.1228 -0.5414
 1750SOL    HW2 6766   4.499   3.718   6.382 -2.0785  1.9816 -0.6439
 1750SOL    HW3 6767   4.362   3.689   6.438 -0.7194 -2.3077  0.8854
 1750SOL    MW4 6768   4.441   3.662   6.414 -0.1993  0.0473 -0.3667
 1751SOL     OW 6769   4.456   1.715   0.227  0.3921  0.3282  0.0763
 1751SOL    HW2 6770   4.462   1.808   0.204 -0.5077 -0.1152 -2.3157
 1751SOL    HW3 6771   4.383   1.710   0.289  0.6211  1.2598  0.4287
 1751SOL    MW4 6772   4.447   1.726   0.232  0.3036  0.3926 -0.1928
 1752SOL     OW 6773   5.465   4.604   5.627 -0.4463  0.0542  0.2975
 1752SOL    HW2 6774   5.500   4.692   5.617 -1.3769  0.6465  2.0228
 1752SOL    HW3 6775   5.434   4.581   5.539  0.2829  1.2100 -0.2860
 1752SOL    MW4 6776   5.466   4.613   5.614 -0.4728  0.2849  0.4481
 1753SOL     OW 6777   4.310   4.649   3.866 -0.3660  0.0996 -0.1633
 1753SOL    HW2 6778   4.323   4.559   3.837  0.4520  0.3505 -0.6184
 1753SOL    HW3 6779   4.274   4.694   3.789  0.4922  0.4503 -0.3766
 1753SOL    MW4 6780   4.307   4.643   3.852 -0.1448  0.1790 -0.2515
 1754SOL     OW 6781   1.212   2.312   2.252  0.1768 -0.0699  0.2023
 1754SOL    HW2 6782   1.171   2.342   2.333  1.1536  0.9231  0.3638
 1754SOL    HW3 6783   1.306   2.323   2.267  0.3686  0.3957 -1.1524
 1754SOL    MW4 6784   1.219   2.318   2.265  0.3310  0.1225  0.0449
 1755SOL     OW 6785   2.761   2.114   3.623 -0.0036  0.3347 -0.1218
 1755SOL    HW2 6786   2.781   2.155   3.708 -1.9930 -0.6472  0.8925
 1755SOL    HW3 6787   2.696   2.172   3.584  0.1987  0.2810 -0.5360
 1755SOL    MW4 6788   2.755   2.127   3.629 -0.2394  0.1980 -0.0426
 1756SOL     OW 6789   2.246   5.459   2.133 -0.3559 -0.0346  0.0342
 1756SOL    HW2 6790   2.217   5.548   2.152 -0.0467 -0.0620  0.6594
 1756SOL    HW3 6791   2.181   5.403   2.176  0.4259 -0.0973  1.1864
 1756SOL    MW4 6792   2.233   5.463   2.141 -0.2119 -0.0465  0.2687
 1757SOL     OW 6793   2.718   4.667   4.906 -0.3831 -0.5448  0.6690
 1757SOL    HW2 6794   2.804   4.699   4.879 -1.4243 -0.3438 -3.0206
 1757SOL    HW3 6795   2.676   4.743   4.947  0.4731 -0.0411  0.6433
 1757SOL    MW4 6796   2.724   4.681   4.908 -0.4075 -0.4518  0.1788
 1758SOL     OW 6797   2.875   1.895   2.277  0.4347 -0.3653  0.3767
 1758SOL    HW2 6798   2.921   1.850   2.206  1.6782  0.3759  0.6740
 1758SOL    HW3 6799   2.837   1.973   2.235  0.2151 -0.5064  0.3111
 1758SOL    MW4 6800   2.876   1.899   2.262  0.5698 -0.2862  0.4073
 1759SOL     OW 6801   0.351   2.257   4.967  0.9164 -0.3624 -0.0970
 1759SOL    HW2 6802   0.401   2.209   5.033  1.8999 -0.9219 -1.2173
 1759SOL    HW3 6803   0.378   2.348   4.979  0.0463 -0.2405  1.1549
 1759SOL    MW4 6804   0.361   2.263   4.977  0.9313 -0.4201 -0.0797
 1760SOL     OW 6805   6.349   5.599   5.602 -0.2746  0.0854 -0.1058
 1760SOL    HW2 6806   6.372   5.608   5.510 -1.7409  0.0216 -0.5049
 1760SOL    HW3 6807   6.254   5.589   5.602 -0.1601 -1.3490  1.3139
 1760SOL    MW4 6808   6.339   5.599   5.590 -0.4530 -0.1123  0.0289
 1761SOL     OW 6809   5.205   4.912   2.728  0.6797  0.0715 -0.2956
 1761SOL    HW2 6810   5.192   4.849   2.657 -0.5295  1.4626 -1.4013
 1761SOL    HW3 6811   5.211   4.997   2.683 -0.7947  1.0750  1.2781
 1761SOL    MW4 6812   5.204   4.915   2.712  0.3257  0.3874 -0.2339
 1762SOL     OW 6813   4.579   3.382   2.725 -0.1113 -0.0887 -0.4018
 1762SOL    HW2 6814   4.667   3.346   2.735 -0.2085 -0.4061 -0.6790
 1762SOL    HW3 6815   4.531   3.351   2.801  0.0532  0.1979 -0.1796
 1762SOL    MW4 6816   4.585   3.373   2.736 -0.1024 -0.0928 -0.4090
 1763SOL     OW 6817   3.660   1.513   1.131 -0.2588 -0.1115  0.0591
 1763SOL    HW2 6818   3.595   1.529   1.062 -0.7098 -2.2112 -0.0665
 1763SOL    HW3 6819   3.613   1.533   1.212 -0.2741  0.7114 -0.1414
 1763SOL    MW4 6820   3.645   1.517   1.133 -0.3203 -0.2800  0.0161
 1764SOL     OW 6821   0.766   4.019   0.738  0.4383 -0.1707 -0.1810
 1764SOL    HW2 6822   0.705   3.998   0.668  1.0511 -0.2694 -0.6873
 1764SOL    HW3 6823   0.753   3.949   0.803 -0.8120  0.4452  0.2624
 1764SOL    MW4 6824   0.756   4.007   0.738  0.3542 -0.1025 -0.1893
 1765SOL     OW 6825   6.268   0.809   4.891  0.5073  0.2662 -0.1831
 1765SOL    HW2 6826   6.202   0.777   4.952 -0.9699 -0.8519 -2.2302
 1765SOL    HW3 6827   6.351   0.776   4.926 -0.1814  0.2698  1.5521
 1765SOL    MW4 6828   6.270   0.800   4.903  0.2216  0.1192 -0.2242
 1766SOL     OW 6829   0.630   2.503   1.967  0.0774  0.4182  0.2737
 1766SOL    HW2 6830   0.588   2.417   1.958 -0.7861  0.9665 -1.1566
 1766SOL    HW3 6831   0.573   2.551   2.026  0.2516  0.2177  0.6119
 1766SOL    MW4 6832   0.617   2.498   1.974 -0.0135  0.4641  0.1296
 1767SOL     OW 6833   1.250   3.373   4.674  0.0188  0.7275 -0.5052
 1767SOL    HW2 6834   1.183   3.328   4.624  0.3569  0.1934 -0.4848
 1767SOL    HW3 6835   1.202   3.435   4.729 -0.4367  0.5166 -0.6658
 1767SOL    MW4 6836   1.235   3.375   4.675  0.0033  0.6292 -0.5237
 1768SOL     OW 6837   5.302   2.116   5.539  0.0444  0.2808 -0.1871
 1768SOL    HW2 6838   5.209   2.097   5.529 -0.1771  1.3567 -0.3619
 1768SOL    HW3 6839   5.318   2.112   5.633  0.0735 -0.9634 -0.2356
 1768SOL    MW4 6840   5.292   2.113   5.550  0.0190  0.2586 -0.2165
 1769SOL     OW 6841   5.280   1.276   1.439 -0.3364  0.4302 -0.0186
 1769SOL    HW2 6842   5.203   1.302   1.491 -0.4806  0.8415 -0.4283
 1769SOL    HW3 6843   5.302   1.354   1.389 -1.2683 -0.4365 -1.8981
 1769SOL    MW4 6844   5.273   1.290   1.439 -0.4784  0.3701 -0.3207
 1770SOL     OW 6845   5.821   1.547   5.655 -0.1559 -0.1470  0.2238
 1770SOL    HW2 6846   5.758   1.608   5.694  0.3052  0.5555 -0.1158
 1770SOL    HW3 6847   5.854   1.497   5.730 -0.7138 -0.1491  0.4772
 1770SOL    MW4 6848   5.817   1.549   5.670 -0.1687 -0.0546  0.2124
 1771SOL     OW 6849   1.303   5.845   2.261  0.2524  0.6764 -0.1934
 1771SOL    HW2 6850   1.303   5.751   2.275 -0.5980  0.6079 -0.6171
 1771SOL    HW3 6851   1.374   5.878   2.317  1.6007 -0.3716 -1.2259
 1771SOL    MW4 6852   1.313   5.837   2.271  0.3181  0.5291 -0.3855
 1772SOL     OW 6853   3.929   4.213   4.514 -0.1859  0.1693  0.8136
 1772SOL    HW2 6854   3.957   4.214   4.423  0.2122  0.9451  0.9293
 1772SOL    HW3 6855   4.009   4.194   4.564 -0.2998  0.2413  1.0281
 1772SOL    MW4 6856   3.943   4.211   4.509 -0.1484  0.2811  0.8572
 1773SOL     OW 6857   4.874   1.701   3.925 -0.0076 -0.0675  0.2953
 1773SOL    HW2 6858   4.967   1.713   3.943 -0.4290  0.4565  2.3733
 1773SOL    HW3 6859   4.869   1.614   3.884  1.1857 -1.1209  2.2505
 1773SOL    MW4 6860   4.886   1.691   3.922  0.0942 -0.1373  0.8274
 1774SOL     OW 6861   4.710   3.113   6.420  0.5179 -0.0886  0.1778
 1774SOL    HW2 6862   4.639   3.128   6.358  0.8579 -0.5555 -0.3390
 1774SOL    HW3 6863   4.713   3.018   6.430  0.0988  0.0097  1.3542
 1774SOL    MW4 6864   4.701   3.102   6.413  0.5074 -0.1372  0.2648
 1775SOL     OW 6865   3.405   3.383   1.931  0.3602 -0.5481  0.4292
 1775SOL    HW2 6866   3.324   3.350   1.894 -1.4022  1.5719  2.1179
 1775SOL    HW3 6867   3.440   3.310   1.982 -1.2506 -1.0768  0.8211
 1775SOL    MW4 6868   3.399   3.369   1.933 -0.0848 -0.3381  0.7037
 1776SOL     OW 6869   0.274   0.600   2.343  0.1637  0.0150  0.3875
 1776SOL    HW2 6870   0.293   0.544   2.267  1.1554  1.3602 -0.4142
 1776SOL    HW3 6871   0.276   0.689   2.307 -1.3304  0.5860  1.6281
 1776SOL    MW4 6872   0.277   0.604   2.328  0.0974  0.2678  0.4454
 1777SOL     OW 6873   5.718   1.777   4.497  0.5722  0.2049 -0.0125
 1777SOL    HW2 6874   5.750   1.704   4.551  0.2343 -0.5758 -0.8266
 1777SOL    HW3 6875   5.680   1.734   4.420  0.6077  1.2619 -0.6410
 1777SOL    MW4 6876   5.717   1.761   4.494  0.5323  0.2414 -0.2028
 1778SOL     OW 6877   1.443   1.532   4.638 -0.0654  0.0557  0.0231
 1778SOL    HW2 6878   1.513   1.580   4.682  1.1974 -0.5354 -1.2446
 1778SOL    HW3 6879   1.431   1.577   4.554 -0.2969 -0.6102 -0.3155
 1778SOL    MW4 6880   1.450   1.544   4.633  0.0707 -0.1102 -0.1889
 1779SOL     OW 6881   4.299   3.001   0.237 -0.3430 -0.2626  0.1675
 1779SOL    HW2 6882   4.287   2.925   0.295 -1.0511  0.2293  0.6764
 1779SOL    HW3 6883   4.218   3.051   0.247  1.1186  1.9498  1.8613
 1779SOL    MW4 6884   4.287   2.997   0.246 -0.2436  0.0942  0.4581
 1780SOL     OW 6885   3.967   4.306   2.104  0.2424  0.5254 -0.0260
 1780SOL    HW2 6886   3.912   4.368   2.057  0.3926  1.3781  0.8960
 1780SOL    HW3 6887   3.952   4.223   2.059 -0.8264  0.9898 -0.5786
 1780SOL    MW4 6888   3.958   4.303   2.092  0.1212  0.6991  0.0227
 1781SOL     OW 6889   0.743   4.708   3.325 -0.7178 -1.2478 -0.7096
 1781SOL    HW2 6890   0.836   4.697   3.343 -0.5356  0.2926 -0.5987
 1781SOL    HW3 6891   0.709   4.755   3.401 -1.2791 -0.4697 -1.4259
 1781SOL    MW4 6892   0.751   4.713   3.337 -0.7678 -0.9419 -0.7895
 1782SOL     OW 6893   5.160   0.510   1.047  0.4538  0.1366  0.5986
 1782SOL    HW2 6894   5.073   0.502   1.007  1.2367 -0.0540 -1.1327
 1782SOL    HW3 6895   5.154   0.457   1.127 -0.5246 -1.2144 -0.3259
 1782SOL    MW4 6896   5.147   0.502   1.053  0.4280 -0.0668  0.2482
 1783SOL     OW 6897   0.528   3.904   0.652  0.3413  0.5790  0.0770
 1783SOL    HW2 6898   0.554   3.840   0.587 -0.4883 -0.4265  0.6994
 1783SOL    HW3 6899   0.458   3.861   0.702 -0.2481  1.9640  0.5029
 1783SOL    MW4 6900   0.522   3.890   0.650  0.1541  0.6291  0.2153
 1784SOL     OW 6901   1.561   0.874   0.646 -0.6523 -0.7570 -0.5356
 1784SOL    HW2 6902   1.523   0.960   0.628  1.0422  0.3922  0.9997
 1784SOL    HW3 6903   1.558   0.828   0.562 -1.8678  0.6697 -1.3268
 1784SOL    MW4 6904   1.556   0.879   0.633 -0.5891 -0.4171 -0.4374
 1785SOL     OW 6905   6.061   5.982   3.416 -0.4274 -0.2503  0.0893
 1785SOL    HW2 6906   6.098   6.043   3.352  1.2120 -0.8804  0.3728
 1785SOL    HW3 6907   5.986   6.028   3.453  0.1485  1.1761 -0.4437
 1785SOL    MW4 6908   6.056   5.996   3.413 -0.1351 -0.1453  0.0564
 1786SOL     OW 6909   4.251   2.465   5.678  0.8264 -0.4195  0.2293
 1786SOL    HW2 6910   4.160   2.463   5.707  1.4223 -1.3119  2.1547
 1786SOL    HW3 6911   4.259   2.391   5.619 -0.3379  1.2760 -2.2464
 1786SOL    MW4 6912   4.240   2.455   5.674  0.7514 -0.3135  0.1567
 1787SOL     OW 6913   3.667   3.842   2.007  0.6501  0.2471  0.0672
 1787SOL    HW2 6914   3.651   3.777   1.939 -1.2404  0.5139  0.1747
 1787SOL    HW3 6915   3.629   3.923   1.972  0.2369  0.5430  1.1537
 1787SOL    MW4 6916   3.660   3.844   1.994  0.3462  0.3213  0.2247
 1788SOL     OW 6917   0.022   1.328   2.104 -0.4054  0.1733  0.2129
 1788SOL    HW2 6918   0.117   1.335   2.112 -0.2898 -2.1186  2.1866
 1788SOL    HW3 6919  -0.011   1.345   2.192 -1.7562  0.2726 -0.2922
 1788SOL    MW4 6920   0.030   1.331   2.117 -0.5684 -0.1160  0.4067
 1789SOL     OW 6921   4.942   4.921   0.921  0.0416  0.0462  0.5642
 1789SOL    HW2 6922   5.032   4.897   0.902 -0.6976 -1.1756 -1.8093
 1789SOL    HW3 6923   4.928   4.895   1.012  2.5893  2.0609  1.6343
 1789SOL    MW4 6924   4.952   4.915   0.930  0.2802  0.1508  0.3922
 1790SOL     OW 6925   0.970   5.816   2.598  0.1410  0.1454  0.4964
 1790SOL    HW2 6926   1.035   5.788   2.662 -0.3690 -0.1861  0.8728
 1790SOL    HW3 6927   1.021   5.852   2.526  0.7257  0.4697  1.0638
 1790SOL    MW4 6928   0.985   5.817   2.597  0.1508  0.1445  0.6209
 1791SOL     OW 6929   4.716   0.209   3.842  0.0853  0.5784 -0.3127
 1791SOL    HW2 6930   4.782   0.149   3.805  0.8780  0.4146  1.2719
 1791SOL    HW3 6931   4.633   0.179   3.805  0.6870 -0.3382 -0.9746
 1791SOL    MW4 6932   4.714   0.197   3.832  0.2693  0.4358 -0.1909
 1792SOL     OW 6933   4.637   5.597   1.192 -0.0774 -0.0657 -0.0760
 1792SOL    HW2 6934   4.685   5.609   1.274 -0.2092 -0.7912  0.1150
 1792SOL    HW3 6935   4.548   5.575   1.219 -0.7155  1.8806 -0.4267
 1792SOL    MW4 6936   4.632   5.596   1.206 -0.1790  0.0954 -0.0971
 1793SOL     OW 6937   3.503   4.460   2.764  0.4052  0.3449 -0.0177
 1793SOL    HW2 6938   3.533   4.471   2.674  0.2593 -1.6579 -0.3574
 1793SOL    HW3 6939   3.446   4.535   2.780 -0.7344  0.0003 -2.1119
 1793SOL    MW4 6940   3.500   4.472   2.754  0.2356  0.0352 -0.3389
 1794SOL     OW 6941   4.437   3.016   4.505  0.3006  0.1173 -0.6081
 1794SOL    HW2 6942   4.465   2.925   4.503 -0.5387 -0.2149  1.0324
 1794SOL    HW3 6943   4.449   3.043   4.596  0.4204  1.6161 -1.0383
 1794SOL    MW4 6944   4.442   3.008   4.517  0.2056  0.2712 -0.4484
 1795SOL     OW 6945   2.723   1.510   5.185  0.3081  0.0784 -0.8086
 1795SOL    HW2 6946   2.651   1.571   5.171 -1.5582 -2.0493 -0.9743
 1795SOL    HW3 6947   2.732   1.464   5.101  0.2185 -1.3324 -0.0680
 1795SOL    MW4 6948   2.715   1.512   5.172  0.0500 -0.3885 -0.7327
 1796SOL     OW 6949   0.027   1.849   4.569  0.6582  0.0783 -0.2681
 1796SOL    HW2 6950   0.103   1.810   4.613  0.3648  2.6828  2.8484
 1796SOL    HW3 6951  -0.047   1.796   4.597  0.9601 -0.8713 -1.1953
 1796SOL    MW4 6952   0.028   1.837   4.578  0.6593  0.2967  0.0207
 1797SOL     OW 6953   0.591   3.422   0.718  0.9591  0.5071 -0.4680
 1797SOL    HW2 6954   0.507   3.406   0.675  1.0468 -1.6670  0.0714
 1797SOL    HW3 6955   0.645   3.462   0.650 -0.0798  0.7215 -1.2018
 1797SOL    MW4 6956   0.587   3.426   0.704  0.8336  0.2486 -0.4937
 1798SOL     OW 6957   2.116   0.102   0.339 -0.1396 -0.3819  0.7323
 1798SOL    HW2 6958   2.119   0.012   0.304 -1.1333  0.5070 -1.8991
 1798SOL    HW3 6959   2.023   0.125   0.336  0.2855  1.3693 -0.5287
 1798SOL    MW4 6960   2.104   0.093   0.334 -0.2146 -0.0336  0.2187
 1799SOL     OW 6961   5.497   2.195   3.495  0.2254 -0.4194  0.1675
 1799SOL    HW2 6962   5.428   2.212   3.560 -0.4867 -0.8194 -0.4593
 1799SOL    HW3 6963   5.546   2.277   3.490  0.2444 -0.3652  1.1566
 1799SOL    MW4 6964   5.494   2.208   3.503  0.1339 -0.4650  0.2153
 1800SOL     OW 6965   4.338   2.093   0.467 -0.3035  0.2201 -0.6641
 1800SOL    HW2 6966   4.396   2.056   0.401  0.9560  0.0815  0.4700
 1800SOL    HW3 6967   4.351   2.037   0.544 -1.2359  0.7591 -0.0994
 1800SOL    MW4 6968   4.348   2.081   0.468 -0.2603  0.2729 -0.4400
 1801SOL     OW 6969   4.236   0.780   2.930  0.0119 -0.0538  0.0425
 1801SOL    HW2 6970   4.296   0.706   2.921 -0.2461 -0.1928 -0.5816
 1801SOL    HW3 6971   4.189   0.783   2.847  0.7267  1.4328 -0.3402
 1801SOL    MW4 6972   4.238   0.771   2.918  0.0722  0.1240 -0.0903
 1802SOL     OW 6973   1.259   1.143   0.208  0.3941  0.1223  0.8411
 1802SOL    HW2 6974   1.208   1.090   0.147  1.4560  0.0173  0.0178
 1802SOL    HW3 6975   1.206   1.221   0.221  1.0919  1.2261 -2.0425
 1802SOL    MW4 6976   1.245   1.146   0.202  0.6263  0.2541  0.3520
 1803SOL     OW 6977   4.104   0.887   4.065  0.7525 -0.1247  0.1970
 1803SOL    HW2 6978   4.063   0.804   4.089  0.7142 -0.4505 -0.9163
 1803SOL    HW3 6979   4.196   0.865   4.052  0.3770 -0.5615 -2.3758
 1803SOL    MW4 6980   4.111   0.873   4.066  0.6979 -0.2253 -0.2894
 1804SOL     OW 6981   2.399   3.961   5.624  0.0701 -0.3006 -0.3900
 1804SOL    HW2 6982   2.464   4.009   5.572  0.3894 -2.4641 -2.1476
 1804SOL    HW3 6983   2.438   3.953   5.711  1.3064  0.0144 -0.9024
 1804SOL    MW4 6984   2.413   3.966   5.629  0.2753 -0.5445 -0.6895
 1805SOL     OW 6985   2.763   1.531   5.944  0.0586  0.1936 -0.3118
 1805SOL    HW2 6986   2.708   1.609   5.957 -0.8673 -0.6684  1.2105
 1805SOL    HW3 6987   2.795   1.509   6.032  0.8265 -0.7801 -0.8162
 1805SOL    MW4 6988   2.760   1.538   5.957  0.0377 -0.0486 -0.1775
 1806SOL     OW 6989   0.336   1.322   0.085 -0.4660  0.1995  0.1234
 1806SOL    HW2 6990   0.415   1.327   0.139 -0.5419  2.1313  0.1325
 1806SOL    HW3 6991   0.364   1.356   0.000 -0.9376 -0.5171 -0.3255
 1806SOL    MW4 6992   0.350   1.327   0.081 -0.5383  0.3598  0.0653
 1807SOL     OW 6993   4.701   0.117   1.956  0.4926  0.0045  0.3125
 1807SOL    HW2 6994   4.675   0.123   1.864  0.8423 -1.7644  0.0471
 1807SOL    HW3 6995   4.775   0.177   1.964  1.9030 -1.4095 -1.1791
 1807SOL    MW4 6996   4.707   0.126   1.945  0.7248 -0.4154  0.0807
 1808SOL     OW 6997   0.444   2.775   0.534 -0.2658 -0.0390  0.6979
 1808SOL    HW2 6998   0.496   2.771   0.454  0.7871  0.8267  1.3078
 1808SOL    HW3 6999   0.354   2.791   0.504 -0.1413 -1.1701 -0.3573
 1808SOL    MW4 7000   0.439   2.776   0.519 -0.1105 -0.0740  0.6391
 1809SOL     OW 7001   2.446   6.415   3.285 -0.0327  0.0587 -0.2583
 1809SOL    HW2 7002   2.385   6.462   3.342 -0.7884  0.2885 -1.2289
 1809SOL    HW3 7003   2.390   6.367   3.225  0.7076  1.4750 -2.1788
 1809SOL    MW4 7004   2.430   6.415   3.285 -0.0347  0.2759 -0.6397
 1810SOL     OW 7005   3.943   3.242   3.934  0.2178 -0.2918 -0.1318
 1810SOL    HW2 7006   3.902   3.207   4.013  0.8631 -0.1043  0.2895
 1810SOL    HW3 7007   4.037   3.243   3.954  0.3158  0.5150 -0.6001
 1810SOL    MW4 7008   3.950   3.237   3.947  0.3159 -0.1606 -0.1380
 1811SOL     OW 7009   5.237   5.599   4.100  0.0992  0.0248  0.1677
 1811SOL    HW2 7010   5.149   5.637   4.098  0.4528  0.8580 -0.2526
 1811SOL    HW3 7011   5.289   5.657   4.044  0.2490 -2.1296 -2.1250
 1811SOL    MW4 7012   5.232   5.612   4.092  0.1656 -0.1495 -0.1903
 1812SOL     OW 7013   2.955   0.454   4.907  0.2560 -0.2453 -0.0564
 1812SOL    HW2 7014   2.999   0.509   4.843 -0.6553  0.4456 -0.1169
 1812SOL    HW3 7015   2.885   0.510   4.942  0.0250 -0.9915  0.7031
 1812SOL    MW4 7016   2.951   0.469   4.903  0.1053 -0.2526  0.0359
 1813SOL     OW 7017   3.291   3.192   5.136  0.1734  0.2952 -0.0465
 1813SOL    HW2 7018   3.199   3.173   5.120  0.0038  1.6116 -0.8722
 1813SOL    HW3 7019   3.338   3.129   5.082 -0.2659  0.1506 -0.2682
 1813SOL    MW4 7020   3.285   3.181   5.126  0.0931  0.4498 -0.1847
 1814SOL     OW 7021   4.279   3.925   4.423  0.7577 -0.1797 -0.5803
 1814SOL    HW2 7022   4.333   3.986   4.374  2.0781  0.9265  2.0189
 1814SOL    HW3 7023   4.210   3.898   4.362  1.5846  1.9595 -2.5936
 1814SOL    MW4 7024   4.277   3.929   4.409  1.0410  0.2485 -0.5030
 1815SOL     OW 7025   0.335   1.275   2.482 -0.3202 -0.0106  0.2218
 1815SOL    HW2 7026   0.346   1.312   2.570  0.7381 -1.2466  0.6540
 1815SOL    HW3 7027   0.241   1.261   2.473 -0.6556  1.8301  0.4015
 1815SOL    MW4 7028   0.324   1.278   2.493 -0.2248  0.0692  0.3026
 1816SOL     OW 7029   1.475   1.562   6.200  0.5645  0.4736 -0.1426
 1816SOL    HW2 7030   1.407   1.562   6.133  0.0193  0.7775  0.4023
 1816SOL    HW3 7031   1.447   1.627   6.263  0.4339 -0.6819  1.0317
 1816SOL    MW4 7032   1.463   1.570   6.199  0.4753  0.3613  0.0842
 1817SOL     OW 7033   4.308   2.807   4.247  0.0902 -0.1911 -0.3925
 1817SOL    HW2 7034   4.341   2.798   4.337 -0.5006 -0.2370 -0.1768
 1817SOL    HW3 7035   4.341   2.892   4.218  0.7090 -0.3974 -0.3196
 1817SOL    MW4 7036   4.317   2.817   4.255  0.0939 -0.2244 -0.3544
 1818SOL     OW 7037   1.993   1.174   3.909 -0.4316 -0.2511  0.0977
 1818SOL    HW2 7038   1.983   1.267   3.932  0.8217 -0.0291 -0.1820
 1818SOL    HW3 7039   1.905   1.138   3.918 -0.6877  0.6386  1.6382
 1818SOL    MW4 7040   1.980   1.182   3.913 -0.3000 -0.1044  0.2641
 1819SOL     OW 7041   4.933   2.264   1.428 -0.4509  0.5432  0.6789
 1819SOL    HW2 7042   4.996   2.326   1.464  0.2872  0.4940 -0.4784
 1819SOL    HW3 7043   4.874   2.245   1.501  1.3972 -0.1185  2.0778
 1819SOL    MW4 7044   4.934   2.270   1.442 -0.1097  0.4494  0.7108
 1820SOL     OW 7045   1.715   2.815   2.996 -0.4940  0.0605  0.2027
 1820SOL    HW2 7046   1.667   2.848   3.072 -1.4528  0.0252 -0.3654
 1820SOL    HW3 7047   1.697   2.721   2.994  1.1198 -0.2898  1.0320
 1820SOL    MW4 7048   1.706   2.807   3.006 -0.4076  0.0096  0.2372
 1821SOL     OW 7049   1.682   2.739   5.398  0.1641 -0.2149  0.0618
 1821SOL    HW2 7050   1.766   2.729   5.442  0.6813  0.0040 -0.8616
 1821SOL    HW3 7051   1.619   2.751   5.469  0.9741  0.0659  0.7440
 1821SOL    MW4 7052   1.685   2.740   5.413  0.3392 -0.1490  0.0300
 1822SOL     OW 7053   5.809   1.668   2.631 -0.3064  0.3196 -1.1913
 1822SOL    HW2 7054   5.853   1.591   2.667  0.0939  1.3180  0.5416
 1822SOL    HW3 7055   5.859   1.689   2.552  0.3031 -0.5026 -1.0304
 1822SOL    MW4 7056   5.821   1.661   2.625 -0.1732  0.3429 -0.9414
 1823SOL     OW 7057   5.362   0.570   5.912  0.2856  0.1401 -0.1093
 1823SOL    HW2 7058   5.313   0.627   5.970 -1.1219 -0.7071 -0.4200
 1823SOL    HW3 7059   5.385   0.494   5.966  0.8991  0.3359 -0.0838
 1823SOL    MW4 7060   5.358   0.567   5.927  0.1808  0.0542 -0.1469
 1824SOL     OW 7061   2.318   4.397   5.218 -0.3720 -0.3404 -0.4325
 1824SOL    HW2 7062   2.229   4.421   5.193 -0.4876  1.7564  1.6555
 1824SOL    HW3 7063   2.308   4.311   5.261 -1.5798  0.3033  0.6442
 1824SOL    MW4 7064   2.305   4.389   5.221 -0.5466  0.0212 -0.0150
 1825SOL     OW 7065   0.037   2.208   1.362  0.1944 -0.3366 -0.3318
 1825SOL    HW2 7066   0.061   2.207   1.454 -0.7983  0.7413 -0.0386
 1825SOL    HW3 7067  -0.059   2.203   1.362  0.2185 -1.5017 -1.3602
 1825SOL    MW4 7068   0.027   2.207   1.374  0.0666 -0.3481 -0.4288
 1826SOL     OW 7069   2.252   4.920   1.728  0.1984  0.1436  0.1161
 1826SOL    HW2 7070   2.161   4.890   1.724 -0.3595  1.8430 -0.9206
 1826SOL    HW3 7071   2.264   4.970   1.648  2.2196 -0.4287  0.0203
 1826SOL    MW4 7072   2.242   4.922   1.717  0.3915  0.2923 -0.0333
 1827SOL     OW 7073   5.008   3.149   1.617 -0.5735  0.2701 -0.4103
 1827SOL    HW2 7074   5.082   3.092   1.592 -1.3450 -0.7999 -0.3310
 1827SOL    HW3 7075   4.998   3.209   1.543 -1.9932 -2.0109 -2.2273
 1827SOL    MW4 7076   5.017   3.149   1.604 -0.8626 -0.1720 -0.6396
 1828SOL     OW 7077   3.825   5.788   5.464 -0.3724 -0.0876  0.0321
 1828SOL    HW2 7078   3.870   5.872   5.463 -0.5178 -0.0113 -0.2492
 1828SOL    HW3 7079   3.832   5.757   5.555  2.2994 -1.1789 -0.4568
 1828SOL    MW4 7080   3.832   5.795   5.476 -0.0391 -0.2215 -0.0695
 1829SOL     OW 7081   0.315   1.006   6.231 -0.3828  0.4081  0.8279
 1829SOL    HW2 7082   0.374   1.060   6.180 -0.9990  1.2650  1.0099
 1829SOL    HW3 7083   0.228   1.041   6.213 -0.9167 -1.1487  0.1638
 1829SOL    MW4 7084   0.311   1.018   6.222 -0.5345  0.3157  0.7643
 1830SOL     OW 7085   5.611   1.153   3.922  0.2434  0.4274 -0.7785
 1830SOL    HW2 7086   5.593   1.181   4.012 -1.2120 -0.3874 -0.7890
 1830SOL    HW3 7087   5.578   1.063   3.918  0.0608  0.5438 -2.1951
 1830SOL    MW4 7088   5.605   1.145   3.934  0.0273  0.3353 -0.9668
 1831SOL     OW 7089   2.206   0.616   6.251 -0.1946  0.4962  0.1770
 1831SOL    HW2 7090   2.124   0.571   6.231 -0.3301 -0.2462  2.1511
 1831SOL    HW3 7091   2.273   0.548   6.242 -0.1020  0.4957  0.8208
 1831SOL    MW4 7092   2.204   0.601   6.247 -0.2002  0.3982  0.5224
 1832SOL     OW 7093   4.937   5.760   1.668 -0.0031  0.1536 -0.1638
 1832SOL    HW2 7094   4.926   5.853   1.647  2.6964  0.6274  0.2033
 1832SOL    HW3 7095   4.876   5.716   1.608 -1.1268  2.1033 -0.5754
 1832SOL    MW4 7096   4.927   5.767   1.657  0.2048  0.4734 -0.1697
 1833SOL     OW 7097   0.688   5.767   5.448  0.7554  0.2596 -0.1104
 1833SOL    HW2 7098   0.608   5.743   5.400  0.8260  0.7003 -0.4496
 1833SOL    HW3 7099   0.660   5.769   5.540  0.5601 -0.3412 -0.1507
 1833SOL    MW4 7100   0.674   5.764   5.454  0.7389  0.2385 -0.1605
 1834SOL     OW 7101   3.218   3.084   2.977 -0.5014  0.7650  0.2754
 1834SOL    HW2 7102   3.243   3.050   3.063 -0.3093  0.9909  0.3112
 1834SOL    HW3 7103   3.247   3.016   2.915 -0.4328  0.7074  0.3705
 1834SOL    MW4 7104   3.225   3.070   2.980 -0.4670  0.7872  0.2927
 1835SOL     OW 7105   3.059   2.650   2.710  0.3586 -0.2335 -0.0619
 1835SOL    HW2 7106   2.972   2.681   2.684  0.7305 -0.4549 -1.7113
 1835SOL    HW3 7107   3.043   2.578   2.770 -0.6219 -0.7847 -0.9626
 1835SOL    MW4 7108   3.045   2.645   2.714  0.2783 -0.3354 -0.3983
 1836SOL     OW 7109   3.675   4.426   6.276 -0.0675  0.2099 -0.0526
 1836SOL    HW2 7110   3.607   4.366   6.247  0.4238 -0.7610  0.7342
 1836SOL    HW3 7111   3.754   4.372   6.282 -0.2435  0.1221  3.6298
 1836SOL    MW4 7112   3.677   4.411   6.273 -0.0259  0.0702  0.5371
 1837SOL     OW 7113   2.044   0.170   1.627  0.3435 -0.6689  0.1552
 1837SOL    HW2 7114   2.004   0.143   1.545  0.0220 -0.6214  0.2926
 1837SOL    HW3 7115   2.081   0.090   1.664  1.3991 -0.5155 -0.5235
 1837SOL    MW4 7116   2.043   0.156   1.621  0.4403 -0.6424  0.0838
 1838SOL     OW 7117   5.079   5.521   2.835 -0.6109  0.4467  0.1515
 1838SOL    HW2 7118   5.064   5.458   2.906  3.6956 -0.7078  0.3516
 1838SOL    HW3 7119   5.090   5.605   2.880  2.4142 -0.3259  1.1404
 1838SOL    MW4 7120   5.079   5.524   2.850  0.3564  0.1924  0.3084
 1839SOL     OW 7121   3.810   3.597   1.461 -0.1662 -0.0831 -0.0794
 1839SOL    HW2 7122   3.719   3.614   1.436 -0.9454  0.4651  2.7296
 1839SOL    HW3 7123   3.860   3.611   1.381 -2.6037 -1.1657 -1.9233
 1839SOL    MW4 7124   3.805   3.601   1.447 -0.5906 -0.1536  0.0479
 1840SOL     OW 7125   0.689   2.827   2.150 -0.6684  0.0013  0.0491
 1840SOL    HW2 7126   0.688   2.787   2.237 -3.0497 -0.0349  0.0822
 1840SOL    HW3 7127   0.612   2.884   2.149 -1.1068 -0.5223 -2.2471
 1840SOL    MW4 7128   0.679   2.829   2.161 -1.0404 -0.0725 -0.2495
 1841SOL     OW 7129   4.056   4.530   0.541  0.1592 -0.0520 -0.1937
 1841SOL    HW2 7130   4.122   4.582   0.496 -0.2167 -0.0196 -0.7149
 1841SOL    HW3 7131   4.020   4.473   0.473  0.5721 -1.0119  0.3688
 1841SOL    MW4 7132   4.060   4.529   0.526  0.1641 -0.1744 -0.1883
 1842SOL     OW 7133   0.963   2.266   2.880 -0.4527  1.0089 -0.5037
 1842SOL    HW2 7134   0.902   2.302   2.815 -0.1804  2.3982 -0.0341
 1842SOL    HW3 7135   0.952   2.323   2.956  0.2548  0.2603  0.1730
 1842SOL    MW4 7136   0.953   2.278   2.881 -0.3234  1.0935 -0.3525
 1843SOL     OW 7137   0.123   0.201   0.598 -1.3207 -0.2141  0.4147
 1843SOL    HW2 7138   0.160   0.284   0.629 -0.7415 -0.5031  0.4997
 1843SOL    HW3 7139   0.044   0.226   0.551 -0.5633  0.4782 -0.5111
 1843SOL    MW4 7140   0.117   0.215   0.596 -1.1443 -0.1609  0.3038
 1844SOL     OW 7141   1.024   0.786   0.990  0.4619 -0.6245  0.0293
 1844SOL    HW2 7142   0.986   0.764   1.075  1.6655 -0.7209  0.5600
 1844SOL    HW3 7143   1.099   0.727   0.982  0.4050 -0.5588 -1.0685
 1844SOL    MW4 7144   1.029   0.775   1.000  0.6132 -0.6285 -0.0455
 1845SOL     OW 7145   2.768   2.823   3.901 -0.1683  0.3346  0.3527
 1845SOL    HW2 7146   2.714   2.756   3.859  0.0703  0.8725 -0.8357
 1845SOL    HW3 7147   2.708   2.867   3.961 -0.1164 -1.5235  1.8819
 1845SOL    MW4 7148   2.753   2.820   3.904 -0.1300  0.1604  0.3977
 1846SOL     OW 7149   1.390   4.277   0.026 -0.1530  0.2806  0.0962
 1846SOL    HW2 7150   1.350   4.311   0.106  0.3151  0.2185  0.3591
 1846SOL    HW3 7151   1.316   4.248  -0.027 -0.4422 -0.3243  0.8023
 1846SOL    MW4 7152   1.375   4.277   0.029 -0.1294  0.1926  0.2240
 1847SOL     OW 7153   4.886   5.031   0.088 -0.0612  0.5438 -0.2210
 1847SOL    HW2 7154   4.900   4.966   0.019  1.4993 -0.2756  0.7864
 1847SOL    HW3 7155   4.843   4.982   0.158 -1.4002  1.3077 -0.4682
 1847SOL    MW4 7156   4.882   5.016   0.088 -0.0320  0.5365 -0.1207
 1848SOL     OW 7157   6.099   0.806   2.717 -0.2644 -0.6515 -0.2505
 1848SOL    HW2 7158   6.082   0.821   2.624 -0.6905 -0.7690 -0.1921
 1848SOL    HW3 7159   6.045   0.731   2.740  0.4255 -1.1126 -0.0876
 1848SOL    MW4 7160   6.090   0.798   2.708 -0.2296 -0.7278 -0.2213
 1849SOL     OW 7161   3.368   5.361   5.672  0.2843 -0.2099 -0.0724
 1849SOL    HW2 7162   3.462   5.383   5.674  0.3492 -0.4019 -0.8878
 1849SOL    HW3 7163   3.352   5.320   5.757  0.7263  0.6843  0.4621
 1849SOL    MW4 7164   3.379   5.359   5.684  0.3512 -0.1172 -0.1094
 1850SOL     OW 7165   3.988   5.282   1.292 -0.6000  0.2802  0.2204
 1850SOL    HW2 7166   4.056   5.268   1.226 -0.0586  2.8791  0.1223
 1850SOL    HW3 7167   3.915   5.321   1.243 -0.2935  1.9733  1.0329
 1850SOL    MW4 7168   3.988   5.285   1.277 -0.4881  0.8464  0.3147
 1851SOL     OW 7169   2.042   3.664   4.408  0.2821 -0.3223 -0.1020
 1851SOL    HW2 7170   2.025   3.572   4.387 -0.8740 -0.1705  0.0963
 1851SOL    HW3 7171   1.970   3.712   4.366  1.4370  0.6207 -1.1222
 1851SOL    MW4 7172   2.030   3.658   4.400  0.2820 -0.1778 -0.2105
 1852SOL     OW 7173   5.188   1.192   0.108  0.7126  0.6881 -0.3247
 1852SOL    HW2 7174   5.218   1.170   0.197  0.0824 -1.2639 -0.5397
 1852SOL    HW3 7175   5.111   1.247   0.122 -0.6863 -1.3306  0.4724
 1852SOL    MW4 7176   5.182   1.196   0.122  0.4449  0.1643 -0.2479
 1853SOL     OW 7177   5.209   5.691   1.410 -0.5643  0.1324  0.5821
 1853SOL    HW2 7178   5.296   5.662   1.440 -0.1251  0.2432 -0.5493
 1853SOL    HW3 7179   5.151   5.620   1.436  0.4210 -1.6463 -1.7536
 1853SOL    MW4 7180   5.213   5.678   1.418 -0.3763 -0.0877  0.1246
 1854SOL     OW 7181   2.274   6.047   5.677  0.2035  0.2297 -0.3224
 1854SOL    HW2 7182   2.263   6.136   5.711  0.3396  0.5024 -0.9777
 1854SOL    HW3 7183   2.351   6.014   5.724 -1.1741 -0.4065  1.6354
 1854SOL    MW4 7184   2.283   6.055   5.688  0.0397  0.1818 -0.1506
 1855SOL     OW 7185   3.495   5.363   2.140 -0.5434 -0.3066  0.1509
 1855SOL    HW2 7186   3.587   5.342   2.124 -0.7116 -1.6653  0.8941
 1855SOL    HW3 7187   3.475   5.432   2.076  0.9413 -0.0833 -0.1028
 1855SOL    MW4 7188   3.504   5.369   2.129 -0.3697 -0.4564  0.2155
 1856SOL     OW 7189   2.713   2.709   0.606 -0.4076 -0.7400  0.2795
 1856SOL    HW2 7190   2.801   2.735   0.576 -0.7209 -0.8272 -0.7432
 1856SOL    HW3 7191   2.712   2.733   0.698  0.7249 -0.8024  0.3322
 1856SOL    MW4 7192   2.725   2.716   0.614 -0.2995 -0.7597  0.1515
 1857SOL     OW 7193   3.136   2.897   3.293 -0.4812  0.4173 -0.6954
 1857SOL    HW2 7194   3.125   2.808   3.259 -3.5728 -0.1676  1.4287
 1857SOL    HW3 7195   3.224   2.896   3.332 -1.4813 -2.8030  1.9449
 1857SOL    MW4 7196   3.146   2.885   3.294 -1.0211 -0.0847 -0.0668
 1858SOL     OW 7197   4.689   2.586   1.197 -0.3785  0.0380 -0.1175
 1858SOL    HW2 7198   4.595   2.593   1.208 -0.4613 -0.1675 -0.6463
 1858SOL    HW3 7199   4.705   2.492   1.184 -0.3386  0.2557 -1.9139
 1858SOL    MW4 7200   4.679   2.574   1.196 -0.3842  0.0396 -0.4243
 1859SOL     OW 7201   0.419   1.689   4.459 -0.8685  0.0210 -0.3235
 1859SOL    HW2 7202   0.498   1.703   4.511  0.1491 -1.2510 -1.4548
 1859SOL    HW3 7203   0.347   1.709   4.519  0.2753 -0.3996  1.2462
 1859SOL    MW4 7204   0.420   1.693   4.474 -0.5833 -0.2023 -0.2657
 1860SOL     OW 7205   4.708   1.218   0.143  0.4350 -0.0674  0.1563
 1860SOL    HW2 7206   4.801   1.232   0.161  0.5183  0.3868 -0.5717
 1860SOL    HW3 7207   4.702   1.127   0.114  0.6792 -0.0378  0.0184
 1860SOL    MW4 7208   4.719   1.208   0.141  0.4782 -0.0035  0.0420
 1861SOL     OW 7209   2.747   6.444   5.551 -0.2820  0.3035  0.5765
 1861SOL    HW2 7210   2.796   6.451   5.469  0.7936  1.1533  1.2604
 1861SOL    HW3 7211   2.797   6.498   5.612 -0.9743 -0.4617  1.8357
 1861SOL    MW4 7212   2.760   6.452   5.548 -0.2314  0.3147  0.8328
 1862SOL     OW 7213   2.407   3.492   3.845 -0.1847 -0.3952 -0.1548
 1862SOL    HW2 7214   2.363   3.417   3.883 -1.9065  0.8066  0.3290
 1862SOL    HW3 7215   2.371   3.567   3.892  0.4647  0.8448 -1.5588
 1862SOL    MW4 7216   2.397   3.492   3.856 -0.3262 -0.0731 -0.2762
 1863SOL     OW 7217   1.175   4.574   6.070  0.7159 -0.0250 -0.8415
 1863SOL    HW2 7218   1.269   4.581   6.056  0.8804 -0.7385 -0.1174
 1863SOL    HW3 7219   1.156   4.481   6.064  0.6562 -0.3425  2.5954
 1863SOL    MW4 7220   1.185   4.563   6.067  0.7297 -0.1610 -0.2925
 1864SOL     OW 7221   2.629   4.811   0.766  0.0442 -0.7668 -0.4467
 1864SOL    HW2 7222   2.637   4.772   0.679 -3.8287 -0.7340 -1.0069
 1864SOL    HW3 7223   2.538   4.840   0.771  0.7926  1.5825  2.7092
 1864SOL    MW4 7224   2.618   4.809   0.755 -0.3680 -0.4525 -0.1042
 1865SOL     OW 7225   2.815   0.743   0.674 -0.0883 -0.0482  0.2598
 1865SOL    HW2 7226   2.721   0.757   0.661  0.2325  0.8855 -1.3089
 1865SOL    HW3 7227   2.856   0.780   0.596  1.4247 -2.8446 -0.4120
 1865SOL    MW4 7228   2.808   0.749   0.662  0.1537 -0.2939 -0.0358
 1866SOL     OW 7229   2.646   2.891   1.889 -0.5343  0.1978  0.6240
 1866SOL    HW2 7230   2.554   2.916   1.883 -0.2483  1.0161 -0.6494
 1866SOL    HW3 7231   2.652   2.812   1.835 -0.3490  0.5769  0.0847
 1866SOL    MW4 7232   2.634   2.884   1.881 -0.4721  0.3558  0.3849
 1867SOL     OW 7233   0.187   2.623   0.093 -0.2411 -0.0123 -0.1648
 1867SOL    HW2 7234   0.216   2.640   0.004 -0.9519 -0.2372 -0.4434
 1867SOL    HW3 7235   0.092   2.638   0.091 -0.7839 -2.8987 -0.1788
 1867SOL    MW4 7236   0.178   2.628   0.081 -0.4065 -0.4228 -0.2034
 1868SOL     OW 7237   3.965   3.854   2.622  0.1137  0.2501  0.0750
 1868SOL    HW2 7238   3.966   3.885   2.712  0.6793 -0.6699  0.3963
 1868SOL    HW3 7239   4.021   3.776   2.622 -0.1733  0.0203 -0.9912
 1868SOL    MW4 7240   3.972   3.848   2.634  0.1505  0.0984 -0.0233
 1869SOL     OW 7241   3.615   1.133   1.352  0.2182 -0.1699  0.0931
 1869SOL    HW2 7242   3.690   1.074   1.357  0.1401 -0.3537 -0.7952
 1869SOL    HW3 7243   3.572   1.124   1.438  1.7043  0.6248  0.9608
 1869SOL    MW4 7244   3.619   1.124   1.364  0.4040 -0.0893  0.0904
 1870SOL     OW 7245   0.663   0.533   2.366  0.1288 -0.0596 -0.6852
 1870SOL    HW2 7246   0.602   0.469   2.401  1.2134 -1.5914 -1.4791
 1870SOL    HW3 7247   0.735   0.535   2.429 -0.6296  1.6457  0.1878
 1870SOL    MW4 7248   0.665   0.525   2.379  0.1719 -0.0367 -0.6748
 1871SOL     OW 7249   3.594   6.209   3.044 -0.1655  0.4493  0.0299
 1871SOL    HW2 7250   3.680   6.216   3.002 -0.2581 -0.8017 -0.3984
 1871SOL    HW3 7251   3.533   6.238   2.976 -0.0569  2.0103  0.5617
 1871SOL    MW4 7252   3.597   6.214   3.029 -0.1634  0.4902  0.0436
 1872SOL     OW 7253   4.188   2.703   5.185 -0.8745 -0.5940  0.1798
 1872SOL    HW2 7254   4.187   2.732   5.277 -2.0091  0.3523 -0.1194
 1872SOL    HW3 7255   4.116   2.750   5.144  0.9587  0.7192 -1.7465
 1872SOL    MW4 7256   4.179   2.713   5.192 -0.7823 -0.2959 -0.1138
 1873SOL     OW 7257   3.200   3.318   1.257  0.1456  0.7106  0.3997
 1873SOL    HW2 7258   3.240   3.232   1.272  0.9786  1.0244  0.0340
 1873SOL    HW3 7259   3.194   3.357   1.344 -0.1313  0.3283  0.5535
 1873SOL    MW4 7260   3.204   3.312   1.271  0.2189  0.7016  0.3717
 1874SOL     OW 7261   3.239   2.034   4.577 -0.1162 -0.0059  0.3963
 1874SOL    HW2 7262   3.231   1.965   4.511 -1.1960 -0.3748  0.8802
 1874SOL    HW3 7263   3.156   2.083   4.571 -0.6060 -0.5563  2.0043
 1874SOL    MW4 7264   3.227   2.032   4.568 -0.3233 -0.1272  0.6723
 1875SOL     OW 7265   0.760   2.163   5.793 -0.5153  0.1030  0.2139
 1875SOL    HW2 7266   0.817   2.146   5.868 -1.3533  2.3522  1.4812
 1875SOL    HW3 7267   0.695   2.226   5.826 -1.6895  0.2112 -2.0689
 1875SOL    MW4 7268   0.759   2.169   5.807 -0.7808  0.4140  0.0799
 1876SOL     OW 7269   2.085   3.041   5.554 -0.2781  0.1601  0.3257
 1876SOL    HW2 7270   2.059   3.107   5.619  1.0973  0.6241  0.4405
 1876SOL    HW3 7271   2.013   3.041   5.490 -0.7369  1.1077  0.8113
 1876SOL    MW4 7272   2.072   3.050   5.554 -0.1572  0.3464  0.4049
 1877SOL     OW 7273   0.722   5.213   5.777  0.6248  0.0804  0.1572
 1877SOL    HW2 7274   0.687   5.210   5.688  2.0793  0.4699 -0.4468
 1877SOL    HW3 7275   0.710   5.124   5.810 -1.7358  0.3960  0.3309
 1877SOL    MW4 7276   0.715   5.201   5.769  0.5052  0.1734  0.1004
 1878SOL     OW 7277   5.953   6.156   2.924  0.3245 -0.0133 -0.0641
 1878SOL    HW2 7278   6.046   6.135   2.930  0.3655  0.2844  0.3803
 1878SOL    HW3 7279   5.927   6.179   3.013 -0.3276 -0.7040 -0.0590
 1878SOL    MW4 7280   5.962   6.156   2.936  0.2439 -0.0652 -0.0048
 1879SOL     OW 7281   3.442   2.711   1.317 -0.5271  0.3699  0.2475
 1879SOL    HW2 7282   3.459   2.621   1.347  0.3455  0.8737  1.3207
 1879SOL    HW3 7283   3.351   2.727   1.340 -0.5701 -0.1089  0.4221
 1879SOL    MW4 7284   3.432   2.701   1.324 -0.4177  0.3732  0.4121
 1880SOL     OW 7285   6.095   5.957   5.491 -0.3202 -0.3511 -0.2829
 1880SOL    HW2 7286   6.085   5.867   5.459 -1.1428  0.2617 -1.9035
 1880SOL    HW3 7287   6.071   6.011   5.416  1.8571  1.2567  0.0877
 1880SOL    MW4 7288   6.091   5.952   5.477 -0.1414 -0.0582 -0.4478
 1881SOL     OW 7289   4.160   5.835   3.571  0.1341 -0.3082  0.7800
 1881SOL    HW2 7290   4.070   5.804   3.578 -0.3231  0.7404 -0.0679
 1881SOL    HW3 7291   4.204   5.800   3.648 -1.6582  1.2873  2.6674
 1881SOL    MW4 7292   4.154   5.826   3.582 -0.1627  0.0407  0.9171
 1882SOL     OW 7293   0.652   4.579   0.200 -0.4034  0.7346 -0.0887
 1882SOL    HW2 7294   0.690   4.624   0.124  1.4529  0.4273  0.6148
 1882SOL    HW3 7295   0.620   4.496   0.164  2.6533 -0.4960 -0.1937
 1882SOL    MW4 7296   0.653   4.574   0.185  0.2448  0.5317 -0.0098
 1883SOL     OW 7297   2.598   1.180   3.768  0.5022 -0.7631 -0.1355
 1883SOL    HW2 7298   2.511   1.153   3.739  0.5827 -0.7512 -0.3882
 1883SOL    HW3 7299   2.650   1.099   3.767  0.8973 -0.5189 -1.4395
 1883SOL    MW4 7300   2.594   1.165   3.764  0.5649 -0.7293 -0.3409
 1884SOL     OW 7301   5.286   0.357   2.008  0.0189  0.3877 -0.2835
 1884SOL    HW2 7302   5.220   0.363   2.077  0.1922 -0.0754 -0.0788
 1884SOL    HW3 7303   5.319   0.447   2.000 -1.6698  0.9548 -1.4262
 1884SOL    MW4 7304   5.282   0.370   2.016 -0.1810  0.4014 -0.4073
 1885SOL     OW 7305   2.319   1.292   6.371 -0.1765 -0.5074 -0.0806
 1885SOL    HW2 7306   2.227   1.281   6.350  0.2008 -2.0165 -1.1437
 1885SOL    HW3 7307   2.360   1.209   6.344  1.6601  0.5340 -0.7054
 1885SOL    MW4 7308   2.312   1.279   6.364  0.1156 -0.5691 -0.3033
 1886SOL     OW 7309   1.290   5.926   5.866 -0.1874 -0.0518 -0.1602
 1886SOL    HW2 7310   1.335   5.858   5.817  0.9478 -0.0128  0.7862
 1886SOL    HW3 7311   1.349   5.947   5.939 -1.4621  0.4414  0.7739
 1886SOL    MW4 7312   1.304   5.920   5.870 -0.2058  0.0184  0.0879
 1887SOL     OW 7313   1.002   4.791   5.443 -0.1727 -0.2087 -0.1778
 1887SOL    HW2 7314   1.088   4.758   5.414 -0.3054  0.6541 -1.6764
 1887SOL    HW3 7315   1.000   4.882   5.412 -2.1029 -0.5690 -1.3105
 1887SOL    MW4 7316   1.013   4.799   5.435 -0.4449 -0.1424 -0.5249
 1888SOL     OW 7317   4.032   3.499   4.559  0.4242 -0.0941 -0.6704
 1888SOL    HW2 7318   3.938   3.495   4.545  0.2665 -1.1260  0.5498
 1888SOL    HW3 7319   4.043   3.566   4.627  0.4334 -0.9653  0.1988
 1888SOL    MW4 7320   4.021   3.507   4.566  0.4046 -0.3451 -0.3947
 1889SOL     OW 7321   1.864   1.530   1.199 -0.4787  0.0724 -0.1356
 1889SOL    HW2 7322   1.786   1.497   1.154 -1.7301  1.2375  1.1095
 1889SOL    HW3 7323   1.891   1.458   1.256 -0.9641 -0.1510 -0.1813
 1889SOL    MW4 7324   1.858   1.516   1.200 -0.7078  0.1967  0.0227
 1890SOL     OW 7325   2.736   2.155   4.668  0.2668 -0.8430  0.2680
 1890SOL    HW2 7326   2.746   2.067   4.704  0.3258 -0.9227  0.0591
 1890SOL    HW3 7327   2.643   2.164   4.649  0.2524 -0.8397  0.3401
 1890SOL    MW4 7328   2.725   2.145   4.670  0.2727 -0.8531  0.2500
 1891SOL     OW 7329   4.149   0.739   0.353 -0.0199  0.6968 -0.2451
 1891SOL    HW2 7330   4.139   0.710   0.444 -0.9963 -2.4640 -1.2302
 1891SOL    HW3 7331   4.239   0.770   0.347  0.9124 -1.4834  1.2620
 1891SOL    MW4 7332   4.159   0.739   0.364 -0.0257 -0.0079 -0.1762
 1892SOL     OW 7333   4.556   4.160   2.357  0.1421  0.3514  0.3283
 1892SOL    HW2 7334   4.557   4.066   2.378  0.0765  0.7289  2.2766
 1892SOL    HW3 7335   4.477   4.172   2.304 -0.8294 -0.4675  1.5137
 1892SOL    MW4 7336   4.545   4.149   2.353  0.0052  0.2931  0.7418
 1893SOL     OW 7337   6.023   4.842   4.868 -0.4994 -0.2755 -0.2333
 1893SOL    HW2 7338   6.016   4.899   4.944 -0.2366 -0.8871  0.2494
 1893SOL    HW3 7339   5.999   4.755   4.900  0.4807 -0.7125 -0.6279
 1893SOL    MW4 7340   6.019   4.838   4.882 -0.3354 -0.4139 -0.2217
 1894SOL     OW 7341   4.326   1.028   2.999 -0.3372  0.3501 -0.3480
 1894SOL    HW2 7342   4.333   1.084   2.922 -0.7120 -0.8248 -1.2631
 1894SOL    HW3 7343   4.300   0.943   2.965 -0.3309 -0.2500  1.0651
 1894SOL    MW4 7344   4.324   1.024   2.985 -0.3858  0.1159 -0.2823
 1895SOL     OW 7345   3.372   4.179   3.387  0.4265  0.3860 -0.1049
 1895SOL    HW2 7346   3.427   4.101   3.376 -0.3162 -0.2451  0.5082
 1895SOL    HW3 7347   3.434   4.251   3.398  1.1383 -0.2726  0.3057
 1895SOL    MW4 7348   3.387   4.178   3.387  0.4224  0.2159  0.0302
 1896SOL     OW 7349   4.653   3.063   3.075  0.3076 -0.3522 -0.3171
 1896SOL    HW2 7350   4.730   3.119   3.077 -0.1609  0.4242 -1.9692
 1896SOL    HW3 7351   4.655   3.023   2.987 -1.6434  0.4229 -0.7659
 1896SOL    MW4 7352   4.664   3.065   3.063 -0.0116 -0.1475 -0.5943
 1897SOL     OW 7353   0.751   5.640   0.619 -0.2791  0.3283  0.4460
 1897SOL    HW2 7354   0.767   5.549   0.644 -0.2659 -0.5210 -2.3391
 1897SOL    HW3 7355   0.832   5.685   0.642  0.0891 -0.5699  0.9688
 1897SOL    MW4 7356   0.764   5.634   0.625 -0.2288  0.0978  0.1475
 1898SOL     OW 7357   6.177   5.257   1.907  0.1789  0.5302  0.3029
 1898SOL    HW2 7358   6.264   5.242   1.946  1.1671  1.3736 -1.4450
 1898SOL    HW3 7359   6.166   5.186   1.845  0.0320  0.9324 -0.1369
 1898SOL    MW4 7360   6.187   5.246   1.904  0.2899  0.6945  0.0143
 1899SOL     OW 7361   0.495   2.017   2.334  0.4667  0.1476 -0.1971
 1899SOL    HW2 7362   0.568   2.079   2.337 -0.4406  1.2074  1.9432
 1899SOL    HW3 7363   0.481   2.000   2.241  0.7560  3.1603 -0.8685
 1899SOL    MW4 7364   0.503   2.023   2.322  0.3851  0.6849 -0.0033
 1900SOL     OW 7365   3.022   6.138   3.682  0.4217  0.0895 -0.2628
 1900SOL    HW2 7366   2.978   6.141   3.597  1.0571 -2.6916 -0.7896
 1900SOL    HW3 7367   2.953   6.122   3.745  0.2438 -0.7206 -0.6478
 1900SOL    MW4 7368   3.007   6.136   3.679  0.4820 -0.3843 -0.3831
 1901SOL     OW 7369   6.085   1.401   1.366  0.1739  0.2941 -0.2572
 1901SOL    HW2 7370   5.991   1.381   1.369  0.2683 -0.0657  0.7609
 1901SOL    HW3 7371   6.098   1.461   1.440  1.0061 -0.8275  0.5334
 1901SOL    MW4 7372   6.074   1.407   1.376  0.2961  0.0987 -0.0185
 1902SOL     OW 7373   3.570   2.380   0.340 -0.1338  0.0491 -0.7496
 1902SOL    HW2 7374   3.538   2.380   0.430  0.4112 -1.1975 -0.5352
 1902SOL    HW3 7375   3.602   2.469   0.326 -0.1224  0.2241  0.3249
 1902SOL    MW4 7376   3.570   2.392   0.350 -0.0604 -0.0923 -0.5796
 1903SOL     OW 7377   1.627   0.985   1.878 -0.2761 -0.0464 -0.3586
 1903SOL    HW2 7378   1.658   1.013   1.964  2.8254 -1.9881 -0.6665
 1903SOL    HW3 7379   1.696   1.015   1.818 -0.6352 -1.6779 -1.6492
 1903SOL    MW4 7380   1.640   0.993   1.881  0.0857 -0.5178 -0.5695
 1904SOL     OW 7381   4.735   4.197   0.650 -0.7037  0.0749  0.7692
 1904SOL    HW2 7382   4.821   4.220   0.614 -0.3456  1.0557  2.1802
 1904SOL    HW3 7383   4.680   4.273   0.631 -1.5233 -0.8457 -0.7994
 1904SOL    MW4 7384   4.739   4.210   0.642 -0.7646  0.0828  0.7484
 1905SOL     OW 7385   4.058   2.963   1.953  0.2691  0.7635 -0.0343
 1905SOL    HW2 7386   3.981   3.001   1.994 -0.4393 -1.2826  0.6839
 1905SOL    HW3 7387   4.022   2.907   1.884  0.8646 -1.7367  1.5371
 1905SOL    MW4 7388   4.043   2.960   1.949  0.2542  0.1637  0.2678
 1906SOL     OW 7389   2.613   0.366   1.394  0.5654 -0.0598  0.2883
 1906SOL    HW2 7390   2.650   0.432   1.453  1.6060 -0.8033  0.5039
 1906SOL    HW3 7391   2.689   0.324   1.354 -0.0354 -1.4736  0.5546
 1906SOL    MW4 7392   2.628   0.369   1.397  0.6234 -0.3444  0.3519
 1907SOL     OW 7393   0.552   3.719   4.385 -0.1184 -0.3009  0.2635
 1907SOL    HW2 7394   0.614   3.659   4.343  0.5236  1.8565 -2.1036
 1907SOL    HW3 7395   0.607   3.780   4.434 -0.5637 -0.0052  0.4003
 1907SOL    MW4 7396   0.568   3.719   4.386 -0.0924  0.0227 -0.0308
 1908SOL     OW 7397   4.321   6.351   0.084  0.5235 -0.1031 -0.4039
 1908SOL    HW2 7398   4.259   6.294   0.129  0.8660 -1.8549 -2.0192
 1908SOL    HW3 7399   4.267   6.404   0.026  0.3718 -0.2039 -0.3555
 1908SOL    MW4 7400   4.306   6.350   0.082  0.5486 -0.3475 -0.6106
 1909SOL     OW 7401   0.222   4.419   5.945 -0.3982 -0.3134  0.6361
 1909SOL    HW2 7402   0.283   4.412   6.019 -1.5037 -0.4487  1.5754
 1909SOL    HW3 7403   0.157   4.350   5.961  1.2584 -2.8121 -2.4216
 1909SOL    MW4 7404   0.221   4.409   5.957 -0.3255 -0.6609  0.3566
 1910SOL     OW 7405   2.354   2.146   0.217  0.5687  0.6438 -0.4262
 1910SOL    HW2 7406   2.369   2.235   0.183 -0.2082  1.9483  2.3245
 1910SOL    HW3 7407   2.259   2.143   0.232  0.9703  0.6412  2.5859
 1910SOL    MW4 7408   2.343   2.158   0.214  0.5192  0.8156  0.3341
 1911SOL     OW 7409   3.303   6.096   1.851 -0.0642 -0.4595 -0.4888
 1911SOL    HW2 7410   3.228   6.146   1.820 -0.1234 -0.2311  0.0207
 1911SOL    HW3 7411   3.317   6.030   1.783 -1.3357 -1.1393 -0.1271
 1911SOL    MW4 7412   3.295   6.094   1.838 -0.2398 -0.5190 -0.3739
 1912SOL     OW 7413   0.526   0.347   4.691  0.3115 -0.0390 -0.5768
 1912SOL    HW2 7414   0.552   0.279   4.753 -0.2872 -0.3743 -0.6901
 1912SOL    HW3 7415   0.607   0.371   4.647  0.5721 -0.4958 -0.3523
 1912SOL    MW4 7416   0.540   0.341   4.694  0.2669 -0.1435 -0.5621
 1913SOL     OW 7417   2.900   1.329   2.424 -0.0545  0.0060 -0.4342
 1913SOL    HW2 7418   2.852   1.409   2.402 -0.6753 -0.4664 -0.8437
 1913SOL    HW3 7419   2.832   1.268   2.452  0.0629 -1.2042 -2.5305
 1913SOL    MW4 7420   2.885   1.332   2.424 -0.1209 -0.2160 -0.7648
 1914SOL     OW 7421   0.256   2.608   4.486 -0.6683 -0.0438  0.3723
 1914SOL    HW2 7422   0.171   2.568   4.468 -0.6761  0.3412 -0.4799
 1914SOL    HW3 7423   0.314   2.534   4.504 -0.8462 -0.4164 -0.5155
 1914SOL    MW4 7424   0.253   2.593   4.486 -0.6928 -0.0422  0.1427
 1915SOL     OW 7425   1.956   4.469   1.685 -0.0848  0.3279 -0.2462
 1915SOL    HW2 7426   2.006   4.517   1.751  0.0704  1.3420 -1.0752
 1915SOL    HW3 7427   1.918   4.537   1.629  0.4769 -0.5020 -1.7014
 1915SOL    MW4 7428   1.958   4.484   1.686  0.0098  0.3522 -0.5476
 1916SOL     OW 7429   1.813   1.988   0.746  0.2401  0.2871 -0.2198
 1916SOL    HW2 7430   1.806   1.927   0.820  0.1111  0.8330  0.2224
 1916SOL    HW3 7431   1.905   2.011   0.742  0.2521  0.2331 -0.2455
 1916SOL    MW4 7432   1.824   1.983   0.755  0.2247  0.3520 -0.1649
 1917SOL     OW 7433   1.511   0.520   1.099 -0.0513 -0.3020  0.3981
 1917SOL    HW2 7434   1.540   0.611   1.094  1.2791 -0.6483  1.3539
 1917SOL    HW3 7435   1.458   0.516   1.178 -0.4275 -0.2749  0.1476
 1917SOL    MW4 7436   1.508   0.532   1.109  0.0746 -0.3441  0.4911
 1918SOL     OW 7437   2.478   1.894   6.202 -0.3614  0.1280 -0.1675
 1918SOL    HW2 7438   2.432   1.827   6.152  0.1005 -0.8790  0.7221
 1918SOL    HW3 7439   2.469   1.867   6.294  0.9823  0.5370  0.1141
 1918SOL    MW4 7440   2.471   1.882   6.208 -0.1231  0.0491 -0.0129
 1919SOL     OW 7441   1.838   3.776   0.482 -0.5245  0.0613  0.2145
 1919SOL    HW2 7442   1.846   3.688   0.519  0.3787 -1.2526 -2.7312
 1919SOL    HW3 7443   1.800   3.761   0.395  0.1107  2.5299 -0.5561
 1919SOL    MW4 7444   1.834   3.762   0.475 -0.3215  0.2137 -0.2758
 1920SOL     OW 7445   2.111   0.065   2.019 -0.3069  0.5761  0.2565
 1920SOL    HW2 7446   2.159   0.037   1.941 -0.7593  1.4968 -0.3639
 1920SOL    HW3 7447   2.122   0.160   2.022 -0.3403  0.5577  1.2903
 1920SOL    MW4 7448   2.119   0.074   2.009 -0.3710  0.6952  0.3111
 1921SOL     OW 7449   0.071   3.509   4.669 -0.4569  0.0392  0.3008
 1921SOL    HW2 7450   0.054   3.601   4.646  0.9819  0.2461 -0.0737
 1921SOL    HW3 7451  -0.005   3.461   4.637  0.0439  0.7300 -2.1585
 1921SOL    MW4 7452   0.059   3.515   4.662 -0.2010  0.1576 -0.0731
 1922SOL     OW 7453   3.759   2.033   5.237 -0.1968  0.3309  0.5140
 1922SOL    HW2 7454   3.790   2.061   5.323 -3.1272  1.8298  1.2054
 1922SOL    HW3 7455   3.793   2.098   5.176 -0.4589  0.8918  0.9644
 1922SOL    MW4 7456   3.768   2.045   5.240 -0.6180  0.6026  0.6646
 1923SOL     OW 7457   3.148   5.716   3.296  0.4403  0.2477 -0.1738
 1923SOL    HW2 7458   3.132   5.809   3.279 -1.0546 -0.0611 -0.6516
 1923SOL    HW3 7459   3.164   5.678   3.209  0.1164 -0.0917 -0.0895
 1923SOL    MW4 7460   3.148   5.723   3.282  0.2004  0.1622 -0.2257
 1924SOL     OW 7461   4.987   1.045   5.262 -0.3217 -0.3274  0.1259
 1924SOL    HW2 7462   4.971   0.955   5.290 -0.9419 -0.9324 -2.0240
 1924SOL    HW3 7463   4.906   1.072   5.219  0.5524  0.5140 -1.0682
 1924SOL    MW4 7464   4.974   1.037   5.260 -0.2882 -0.2962 -0.3153
 1925SOL     OW 7465   1.992   4.450   0.877  0.6518  0.5015 -0.2825
 1925SOL    HW2 7466   1.939   4.371   0.868 -0.8948  1.5552 -0.9327
 1925SOL    HW3 7467   2.013   4.476   0.787  1.5344  0.6012 -0.0624
 1925SOL    MW4 7468   1.988   4.443   0.864  0.5642  0.6537 -0.3392
 1926SOL     OW 7469   5.899   1.150   3.853  0.2950 -0.1480 -0.6419
 1926SOL    HW2 7470   5.925   1.227   3.802 -1.7445 -0.1202 -1.7385
 1926SOL    HW3 7471   5.821   1.179   3.901  1.2256 -0.6792  1.2714
 1926SOL    MW4 7472   5.892   1.164   3.853  0.1487 -0.2144 -0.5341
 1927SOL     OW 7473   3.290   2.323   1.058  0.1681  0.4435  0.2801
 1927SOL    HW2 7474   3.294   2.419   1.063  1.3565  0.4203  0.1236
 1927SOL    HW3 7475   3.214   2.300   1.110 -0.6094  1.5220 -0.3253
 1927SOL    MW4 7476   3.281   2.333   1.066  0.2223  0.5828  0.1796
 1928SOL     OW 7477   5.487   3.707   1.362 -0.3543  0.5498  0.3230
 1928SOL    HW2 7478   5.572   3.747   1.343 -0.5991  1.4794  1.1436
 1928SOL    HW3 7479   5.492   3.684   1.455 -0.5141 -0.6231  0.0576
 1928SOL    MW4 7480   5.499   3.709   1.372 -0.4077  0.5177  0.3963
 1929SOL     OW 7481   0.976   2.751   1.059  0.0699  0.0601 -0.8378
 1929SOL    HW2 7482   0.918   2.707   0.997  0.9280 -0.9536 -0.9597
 1929SOL    HW3 7483   1.033   2.805   1.005 -0.3012  0.5224 -0.7746
 1929SOL    MW4 7484   0.976   2.752   1.044  0.1341 -0.0126 -0.8456
 1930SOL     OW 7485   3.152   5.362   5.487  0.4234 -0.0091  0.3502
 1930SOL    HW2 7486   3.231   5.349   5.539  1.2964  1.1347 -0.6281
 1930SOL    HW3 7487   3.113   5.442   5.522  0.7981  0.5419 -0.4716
 1930SOL    MW4 7488   3.157   5.371   5.498  0.5880  0.2145  0.1127
 1931SOL     OW 7489   6.222   4.254   3.342 -0.4629  0.4058  0.4889
 1931SOL    HW2 7490   6.200   4.340   3.305 -1.9899  0.8718  2.3186
 1931SOL    HW3 7491   6.171   4.192   3.291  0.8238  0.4919 -1.0002
 1931SOL    MW4 7492   6.213   4.257   3.330 -0.4946  0.4787  0.5338
 1932SOL     OW 7493   1.402   5.858   0.106 -0.7340  0.5127  0.6397
 1932SOL    HW2 7494   1.466   5.827   0.170 -2.5367 -0.6132  1.9790
 1932SOL    HW3 7495   1.385   5.949   0.132 -0.2181  0.5933  0.7131
 1932SOL    MW4 7496   1.408   5.866   0.118 -0.9037  0.3748  0.8261
 1933SOL     OW 7497   5.642   3.899   2.373  0.5699  0.0727  0.3016
 1933SOL    HW2 7498   5.656   3.865   2.285  1.2507  0.5415  0.2186
 1933SOL    HW3 7499   5.553   3.934   2.372  0.7321  0.4776 -0.3356
 1933SOL    MW4 7500   5.632   3.899   2.361  0.6811  0.1880  0.2065
 1934SOL     OW 7501   2.453   1.365   3.474 -0.2485 -0.0538 -0.1818
 1934SOL    HW2 7502   2.454   1.340   3.382 -1.2043 -1.2835  0.1146
 1934SOL    HW3 7503   2.511   1.303   3.517 -2.5128 -1.8273  0.5355
 1934SOL    MW4 7504   2.461   1.354   3.467 -0.6733 -0.4501 -0.0481
 1935SOL     OW 7505   3.851   5.764   0.525  0.1518 -0.6059  0.1258
 1935SOL    HW2 7506   3.917   5.741   0.460  0.6796  1.9999 -0.3728
 1935SOL    HW3 7507   3.878   5.717   0.604  1.6385 -0.9047 -0.5321
 1935SOL    MW4 7508   3.863   5.755   0.527  0.4176 -0.3015 -0.0268
 1936SOL     OW 7509   6.356   1.164   4.350 -0.0938  0.4797  0.2797
 1936SOL    HW2 7510   6.334   1.126   4.434 -1.3323 -0.7947 -0.5855
 1936SOL    HW3 7511   6.312   1.250   4.349  0.7018  0.9172  1.2673
 1936SOL    MW4 7512   6.348   1.171   4.361 -0.1522  0.3693  0.2958
 1937SOL     OW 7513   5.647   4.378   0.983 -0.5257 -0.0670  0.0960
 1937SOL    HW2 7514   5.598   4.451   1.020 -1.0554 -0.2815 -0.1707
 1937SOL    HW3 7515   5.725   4.418   0.944 -0.7964  0.3483 -0.0184
 1937SOL    MW4 7516   5.651   4.393   0.983 -0.6313 -0.0405  0.0457
 1938SOL     OW 7517   6.036   0.470   1.931 -0.0467  0.1871  0.7351
 1938SOL    HW2 7518   6.063   0.430   2.013 -0.2400 -1.3312  0.1124
 1938SOL    HW3 7519   6.070   0.410   1.863  0.3698  1.5518 -0.3052
 1938SOL    MW4 7520   6.044   0.457   1.933 -0.0172  0.1669  0.5157
 1939SOL     OW 7521   3.289   2.319   2.815  0.0305 -0.7837  0.0708
 1939SOL    HW2 7522   3.279   2.354   2.903  3.0862 -1.0018  0.6172
 1939SOL    HW3 7523   3.320   2.393   2.763 -1.9743 -0.5981 -0.9582
 1939SOL    MW4 7524   3.291   2.333   2.820  0.1691 -0.7880  0.0071
 1940SOL     OW 7525   6.207   3.147   0.900 -0.2662  0.2838  0.6343
 1940SOL    HW2 7526   6.258   3.178   0.975  0.1124 -1.1700  0.9979
 1940SOL    HW3 7527   6.219   3.052   0.900 -0.8015  0.1900 -0.8801
 1940SOL    MW4 7528   6.215   3.139   0.910 -0.2869  0.0796  0.4825
 1941SOL     OW 7529   1.218   3.323   6.028  0.1083 -0.8805  0.0749
 1941SOL    HW2 7530   1.227   3.319   5.933  1.1925  1.3165  0.0284
 1941SOL    HW3 7531   1.250   3.410   6.052  0.6015 -1.6593  2.5495
 1941SOL    MW4 7532   1.223   3.334   6.019  0.3164 -0.6934  0.3953
 1942SOL     OW 7533   3.582   2.441   1.047 -0.5507  0.6539 -0.0496
 1942SOL    HW2 7534   3.579   2.377   0.976 -1.4813  0.5886  0.0339
 1942SOL    HW3 7535   3.570   2.389   1.127  0.5395  0.7196  0.1800
 1942SOL    MW4 7536   3.580   2.426   1.048 -0.5296  0.6539 -0.0083
 1943SOL     OW 7537   3.516   4.494   1.075 -0.1408 -0.1458  0.2965
 1943SOL    HW2 7538   3.610   4.475   1.071 -0.4640 -2.2946  1.1688
 1943SOL    HW3 7539   3.510   4.589   1.078  2.0676  0.0133  1.4500
 1943SOL    MW4 7540   3.528   4.504   1.074  0.1079 -0.4083  0.5638
 1944SOL     OW 7541   0.173   4.098   4.243  0.2094 -0.2213  0.5413
 1944SOL    HW2 7542   0.230   4.173   4.262 -1.6434  1.0366  1.5028
 1944SOL    HW3 7543   0.231   4.023   4.243  2.0819  1.1550  0.0467
 1944SOL    MW4 7544   0.188   4.098   4.246  0.2120  0.1263  0.6029
 1945SOL     OW 7545   5.851   5.350   2.313 -0.4954  0.4315 -0.6227
 1945SOL    HW2 7546   5.757   5.343   2.333 -0.5626 -0.7124 -1.2615
 1945SOL    HW3 7547   5.872   5.269   2.267  0.5914  1.1168 -1.3912
 1945SOL    MW4 7548   5.841   5.339   2.309 -0.3609  0.3710 -0.8084
 1946SOL     OW 7549   5.456   2.784   1.191  0.2770 -0.0362 -0.5147
 1946SOL    HW2 7550   5.428   2.866   1.231  1.0306  0.5988 -1.2647
 1946SOL    HW3 7551   5.549   2.795   1.173  0.2216 -0.7389 -1.3566
 1946SOL    MW4 7552   5.464   2.796   1.194  0.3691 -0.0451 -0.7247
 1947SOL     OW 7553   5.143   2.363   2.968  0.2180  0.5595  0.1227
 1947SOL    HW2 7554   5.221   2.323   2.929  0.8397  1.8747 -0.0443
 1947SOL    HW3 7555   5.074   2.298   2.956  1.0513 -0.2141 -0.6535
 1947SOL    MW4 7556   5.144   2.350   2.961  0.4100  0.6309 -0.0017
 1948SOL     OW 7557   1.430   3.752   5.265 -0.5555 -0.1582  0.5739
 1948SOL    HW2 7558   1.378   3.757   5.184  1.4989  1.4596 -0.7386
 1948SOL    HW3 7559   1.383   3.810   5.326  0.6932  3.1198 -1.2977
 1948SOL    MW4 7560   1.417   3.761   5.262 -0.1197  0.4877  0.1538
 1949SOL     OW 7561   5.494   1.230   0.098  0.4321  0.1854  0.0073
 1949SOL    HW2 7562   5.412   1.214   0.050  0.8018  1.9754 -1.3002
 1949SOL    HW3 7563   5.532   1.307   0.057  2.1675  0.1644  1.4358
 1949SOL    MW4 7564   5.488   1.238   0.086  0.7098  0.4188  0.0233
 1950SOL     OW 7565   3.461   5.107   5.446  0.4277 -0.0475  0.0376
 1950SOL    HW2 7566   3.479   5.179   5.386  0.6439 -0.5177 -0.4718
 1950SOL    HW3 7567   3.469   5.028   5.392 -0.7492 -0.4084  0.3526
 1950SOL    MW4 7568   3.464   5.106   5.431  0.3009 -0.1571  0.0119
 1951SOL     OW 7569   3.534   4.150   3.065  0.2106  0.3484  0.3143
 1951SOL    HW2 7570   3.563   4.096   2.992 -0.2923 -0.7473  0.9005
 1951SOL    HW3 7571   3.480   4.219   3.024  2.6580  1.8171 -0.6770
 1951SOL    MW4 7572   3.531   4.152   3.050  0.4672  0.3977  0.2608
 1952SOL     OW 7573   1.087   0.304   3.167 -0.5797 -0.3142 -0.1875
 1952SOL    HW2 7574   1.163   0.245   3.167 -1.1396 -1.0988  1.1156
 1952SOL    HW3 7575   1.021   0.256   3.218 -0.8734  1.6803  1.4050
 1952SOL    MW4 7576   1.089   0.290   3.174 -0.6923 -0.1546  0.1945
 1953SOL     OW 7577   3.869   4.678   0.854  0.5039  0.0162  0.5161
 1953SOL    HW2 7578   3.865   4.703   0.762  1.0527 -0.4919  0.3499
 1953SOL    HW3 7579   3.865   4.761   0.902  0.5420  0.2995  0.0309
 1953SOL    MW4 7580   3.868   4.692   0.848  0.5813 -0.0135  0.4301
 1954SOL     OW 7581   5.842   4.576   5.736 -0.3408 -0.1882  0.6841
 1954SOL    HW2 7582   5.754   4.550   5.710 -0.6031  0.0388  1.3161
 1954SOL    HW3 7583   5.858   4.658   5.689  0.1178 -0.9729 -0.5728
 1954SOL    MW4 7584   5.833   4.583   5.726 -0.3149 -0.2618  0.6017
 1955SOL     OW 7585   3.723   0.730   0.756 -0.1033 -0.3336 -0.3239
 1955SOL    HW2 7586   3.801   0.713   0.702  0.7252 -1.1668  1.0756
 1955SOL    HW3 7587   3.653   0.683   0.712  0.0301  0.8342 -1.8850
 1955SOL    MW4 7588   3.724   0.722   0.743  0.0236 -0.2894 -0.3453
 1956SOL     OW 7589   3.869   6.239   2.499 -0.4347  0.4733  0.3935
 1956SOL    HW2 7590   3.888   6.199   2.584 -1.2864 -0.8982 -0.0276
 1956SOL    HW3 7591   3.829   6.323   2.521 -3.2363 -1.0122  1.4803
 1956SOL    MW4 7592   3.866   6.245   2.513 -0.9167  0.0964  0.4813
 1957SOL     OW 7593   5.336   5.826   2.768  0.3282  0.3024 -0.3761
 1957SOL    HW2 7594   5.341   5.759   2.700 -0.0809  1.1741 -1.2860
 1957SOL    HW3 7595   5.278   5.893   2.732  2.2866  2.1266 -0.3785
 1957SOL    MW4 7596   5.329   5.826   2.754  0.5326  0.6581 -0.4964
 1958SOL     OW 7597   0.768   4.906   0.535  0.2388  1.0788  0.2955
 1958SOL    HW2 7598   0.683   4.862   0.528 -0.0731  1.5506  1.0004
 1958SOL    HW3 7599   0.769   4.941   0.624  0.8618  1.7293  0.0377
 1958SOL    MW4 7600   0.757   4.905   0.546  0.2798  1.2269  0.3545
 1959SOL     OW 7601   6.013   4.724   5.249  0.1480  0.5399 -0.4878
 1959SOL    HW2 7602   6.022   4.701   5.157  1.0929 -2.5423  0.2594
 1959SOL    HW3 7603   5.924   4.699   5.272 -0.4854  2.3693 -0.7401
 1959SOL    MW4 7604   6.003   4.718   5.240  0.1891  0.3746 -0.4225
 1960SOL     OW 7605   5.622   2.761   3.309 -0.4500 -0.3177  0.3976
 1960SOL    HW2 7606   5.654   2.848   3.285 -1.3181 -0.1066 -0.0329
 1960SOL    HW3 7607   5.609   2.766   3.404  4.3047 -1.5827  1.3682
 1960SOL    MW4 7608   5.624   2.774   3.318  0.0628 -0.4568  0.4689
 1961SOL     OW 7609   0.866   1.073   0.448  0.4018  0.0831 -0.0025
 1961SOL    HW2 7610   0.930   1.017   0.405  1.1740  1.1037 -0.2199
 1961SOL    HW3 7611   0.867   1.154   0.397 -2.7568 -0.6349 -1.4818
 1961SOL    MW4 7612   0.874   1.077   0.436  0.0870  0.1230 -0.2263
 1962SOL     OW 7613   5.387   0.127   4.151 -0.0627 -0.3122  0.2248
 1962SOL    HW2 7614   5.365   0.047   4.103  0.9329 -0.4330 -0.0558
 1962SOL    HW3 7615   5.304   0.156   4.188 -0.6506 -0.8365 -0.6384
 1962SOL    MW4 7616   5.374   0.120   4.149 -0.0089 -0.3973  0.0739
 1963SOL     OW 7617   5.427   4.581   4.553 -0.0785 -0.2043  0.0257
 1963SOL    HW2 7618   5.412   4.500   4.504  0.6031 -1.2780  1.5084
 1963SOL    HW3 7619   5.347   4.593   4.605 -0.6317  0.7050 -1.0049
 1963SOL    MW4 7620   5.414   4.572   4.554 -0.0616 -0.2260  0.0853
 1964SOL     OW 7621   4.109   2.761   0.976 -0.3847  0.3879  0.4643
 1964SOL    HW2 7622   4.059   2.690   0.936 -0.9253  1.1238 -0.2170
 1964SOL    HW3 7623   4.156   2.721   1.049  1.0807 -1.1609 -1.2282
 1964SOL    MW4 7624   4.109   2.747   0.980 -0.2627  0.2806  0.1511
 1965SOL     OW 7625   2.420   0.107   0.867  0.2020 -0.1124 -0.8195
 1965SOL    HW2 7626   2.504   0.122   0.824 -0.5234 -1.2019 -2.7553
 1965SOL    HW3 7627   2.369   0.057   0.803 -2.1972  1.1440 -0.0166
 1965SOL    MW4 7628   2.424   0.103   0.852 -0.2102 -0.0904 -0.9690
 1966SOL     OW 7629   0.954   3.783   2.210 -0.1933  0.7101  0.2256
 1966SOL    HW2 7630   0.888   3.783   2.279 -0.5481  1.8068 -0.0954
 1966SOL    HW3 7631   1.024   3.838   2.245  0.3266 -0.0022  0.3398
 1966SOL    MW4 7632   0.955   3.790   2.224 -0.1715  0.7608  0.1983
 1967SOL     OW 7633   5.328   5.746   3.464 -0.3057 -0.0727 -0.0297
 1967SOL    HW2 7634   5.369   5.668   3.501  0.1232  0.0661 -0.2191
 1967SOL    HW3 7635   5.384   5.771   3.391 -0.3108  0.5533  0.1796
 1967SOL    MW4 7636   5.341   5.739   3.459 -0.2498  0.0282 -0.0271
 1968SOL     OW 7637   4.668   3.406   2.372 -0.1510  0.2045  0.2229
 1968SOL    HW2 7638   4.676   3.498   2.398  0.3637  0.4735 -0.8469
 1968SOL    HW3 7639   4.581   3.400   2.332 -0.5937 -0.0177  1.1804
 1968SOL    MW4 7640   4.658   3.417   2.370 -0.1415  0.2107  0.2081
 1969SOL     OW 7641   2.868   3.081   6.418 -0.2920  0.0954  0.0184
 1969SOL    HW2 7642   2.879   2.989   6.393 -2.0669 -0.0600 -0.2711
 1969SOL    HW3 7643   2.886   3.082   6.512 -0.2111 -0.5419  0.0193
 1969SOL    MW4 7644   2.872   3.069   6.427 -0.5155 -0.0092 -0.0197
 1970SOL     OW 7645   1.597   4.801   6.091 -0.0874  0.2715  0.2348
 1970SOL    HW2 7646   1.650   4.779   6.014  0.4001 -0.6008  0.8043
 1970SOL    HW3 7647   1.509   4.767   6.070  0.2097 -0.5844  0.3334
 1970SOL    MW4 7648   1.592   4.794   6.078  0.0161  0.0435  0.3229
 1971SOL     OW 7649   3.733   2.353   4.850  0.2588 -0.6966 -0.7095
 1971SOL    HW2 7650   3.773   2.330   4.766  0.3070 -1.1022 -0.5779
 1971SOL    HW3 7651   3.640   2.339   4.837  0.2457 -0.5709 -0.7541
 1971SOL    MW4 7652   3.726   2.348   4.837  0.2634 -0.7335 -0.6980
 1972SOL     OW 7653   0.851   1.507   1.741  0.2117  0.1945 -0.2192
 1972SOL    HW2 7654   0.885   1.419   1.753 -0.5815  0.0489  1.1779
 1972SOL    HW3 7655   0.772   1.510   1.794  1.2978  2.3436  1.4559
 1972SOL    MW4 7656   0.845   1.496   1.749  0.2503  0.4588  0.1861
 1973SOL     OW 7657   4.564   5.752   1.446 -0.4243  0.2936  0.0106
 1973SOL    HW2 7658   4.572   5.831   1.499 -0.6777  0.6226 -0.4405
 1973SOL    HW3 7659   4.471   5.729   1.452 -0.2739 -0.2056  0.4774
 1973SOL    MW4 7660   4.553   5.759   1.454 -0.4379  0.2711  0.0127
 1974SOL     OW 7661   5.705   0.043   5.247  0.1794  0.0507 -0.1744
 1974SOL    HW2 7662   5.610   0.032   5.249  0.0299  0.3463 -2.6962
 1974SOL    HW3 7663   5.719   0.134   5.273 -0.2252  0.0473  0.0676
 1974SOL    MW4 7664   5.694   0.053   5.251  0.1063  0.0893 -0.4752
 1975SOL     OW 7665   1.164   4.872   0.709 -0.0946 -0.3661  0.7601
 1975SOL    HW2 7666   1.099   4.813   0.670  1.1703 -2.4912  1.7475
 1975SOL    HW3 7667   1.112   4.945   0.744 -1.6441 -0.5818 -0.9415
 1975SOL    MW4 7668   1.148   4.874   0.709 -0.1322 -0.6749  0.6658
 1976SOL     OW 7669   5.504   1.351   5.410  1.0201  0.3908 -0.1007
 1976SOL    HW2 7670   5.594   1.342   5.380  0.6737 -1.4107 -0.7520
 1976SOL    HW3 7671   5.510   1.355   5.505  1.8216  1.0558 -0.1729
 1976SOL    MW4 7672   5.517   1.350   5.418  1.0801  0.2408 -0.1962
 1977SOL     OW 7673   4.764   1.329   1.194  0.0776  0.5064 -0.0799
 1977SOL    HW2 7674   4.682   1.333   1.146 -0.1356 -2.1114 -0.0806
 1977SOL    HW3 7675   4.741   1.287   1.277  1.5488 -1.3407 -0.5440
 1977SOL    MW4 7676   4.750   1.324   1.199  0.2436 -0.0827 -0.1412
 1978SOL     OW 7677   1.000   4.677   3.390 -0.2629 -0.2738 -0.1709
 1978SOL    HW2 7678   1.036   4.592   3.415  0.2293 -0.2670 -0.8183
 1978SOL    HW3 7679   1.074   4.725   3.353  0.1766  1.5558  2.7696
 1978SOL    MW4 7680   1.014   4.672   3.388 -0.1400 -0.0315  0.1316
 1979SOL     OW 7681   2.499   2.493   2.839  0.3215 -0.3333  0.0640
 1979SOL    HW2 7682   2.429   2.449   2.887 -0.1991 -0.2179 -0.5742
 1979SOL    HW3 7683   2.496   2.455   2.751  0.1574  0.6317 -0.3670
 1979SOL    MW4 7684   2.489   2.482   2.833  0.2311 -0.1908 -0.0770
 1980SOL     OW 7685   2.160   2.773   2.608 -0.1749  0.2071  0.0474
 1980SOL    HW2 7686   2.072   2.797   2.578  0.1274  1.8394  0.3721
 1980SOL    HW3 7687   2.147   2.694   2.660 -1.4734  0.5052  0.2090
 1980SOL    MW4 7688   2.147   2.766   2.611 -0.3063  0.4618  0.1116
 1981SOL     OW 7689   2.672   4.100   5.245 -0.3570 -0.0804 -0.0026
 1981SOL    HW2 7690   2.764   4.112   5.222 -0.8959  0.6154 -1.9712
 1981SOL    HW3 7691   2.628   4.082   5.162 -2.6131  3.5736  0.1769
 1981SOL    MW4 7692   2.678   4.099   5.231 -0.7258  0.4935 -0.2386
 1982SOL     OW 7693   0.696   2.377   5.485  0.3018  0.6356 -0.2034
 1982SOL    HW2 7694   0.638   2.396   5.559 -0.8244 -2.3422 -0.1666
 1982SOL    HW3 7695   0.772   2.335   5.523  0.4462  0.5240 -0.6047
 1982SOL    MW4 7696   0.698   2.374   5.499  0.1723  0.2280 -0.2515
 1983SOL     OW 7697   3.414   3.474   1.241 -0.2406 -0.2167  0.3137
 1983SOL    HW2 7698   3.328   3.431   1.244 -0.0466 -0.7510 -0.9185
 1983SOL    HW3 7699   3.476   3.402   1.230  0.1018  0.3210 -1.6581
 1983SOL    MW4 7700   3.411   3.459   1.240 -0.1699 -0.2162 -0.1090
 1984SOL     OW 7701   0.293   2.530   1.017  0.6020 -0.1246 -0.0118
 1984SOL    HW2 7702   0.235   2.457   1.038 -1.5011  0.7651 -2.3085
 1984SOL    HW3 7703   0.328   2.509   0.930 -0.2600  1.6745 -0.8406
 1984SOL    MW4 7704   0.290   2.517   1.008  0.2108  0.2302 -0.4241
 1985SOL     OW 7705   1.945   0.889   0.085 -0.1281 -0.0577  0.5073
 1985SOL    HW2 7706   1.867   0.938   0.056 -1.9285 -1.8061  2.1279
 1985SOL    HW3 7707   1.936   0.803   0.044 -0.1653 -0.9458  2.2771
 1985SOL    MW4 7708   1.933   0.884   0.076 -0.3705 -0.4055  0.9546
 1986SOL     OW 7709   2.269   2.761   0.574 -0.2036 -0.5004 -0.0466
 1986SOL    HW2 7710   2.311   2.689   0.527  0.8658 -0.6387  1.0621
 1986SOL    HW3 7711   2.333   2.833   0.570 -0.1085 -0.5020  1.1149
 1986SOL    MW4 7712   2.283   2.761   0.567 -0.0500 -0.5189  0.2529
 1987SOL     OW 7713   0.608   0.770   0.271 -0.4467 -0.5772  0.2384
 1987SOL    HW2 7714   0.522   0.745   0.236  0.2771 -1.7238 -0.8005
 1987SOL    HW3 7715   0.597   0.862   0.297 -1.2573  0.2073 -2.4782
 1987SOL    MW4 7716   0.595   0.779   0.270 -0.4581 -0.6250 -0.2571
 1988SOL     OW 7717   6.162   3.462   6.353  0.2222 -0.2845  0.7515
 1988SOL    HW2 7718   6.138   3.442   6.443 -2.2232  0.8693  0.4411
 1988SOL    HW3 7719   6.230   3.530   6.361  2.2068 -2.2548  1.6646
 1988SOL    MW4 7720   6.168   3.469   6.366  0.1614 -0.3922  0.8310
 1989SOL     OW 7721   0.119   1.671   1.547 -0.1752  0.2617 -0.4072
 1989SOL    HW2 7722   0.209   1.674   1.514  0.0116 -0.3040  0.0287
 1989SOL    HW3 7723   0.065   1.687   1.470  0.3358  4.3409 -0.1241
 1989SOL    MW4 7724   0.124   1.673   1.533 -0.0832  0.7253 -0.3123
 1990SOL     OW 7725   0.392   0.088   1.186 -0.1363 -0.0660 -0.5744
 1990SOL    HW2 7726   0.441   0.152   1.135  0.7567 -0.0387  0.2690
 1990SOL    HW3 7727   0.335   0.044   1.123  0.2183  0.6379 -1.3984
 1990SOL    MW4 7728   0.391   0.090   1.171  0.0283  0.0305 -0.5718
 1991SOL     OW 7729   2.084   3.166   3.356 -0.5546 -0.3403  0.1345
 1991SOL    HW2 7730   2.118   3.131   3.274  0.3020  0.8839 -0.0761
 1991SOL    HW3 7731   2.139   3.243   3.373 -3.0666  1.6626 -0.0967
 1991SOL    MW4 7732   2.096   3.172   3.347 -0.7730  0.0855  0.0762
 1992SOL     OW 7733   2.800   1.587   1.221  0.2370  0.1498 -0.4638
 1992SOL    HW2 7734   2.725   1.620   1.270  0.2663  1.0248 -0.9847
 1992SOL    HW3 7735   2.842   1.525   1.280  1.1112  2.2213  1.2318
 1992SOL    MW4 7736   2.796   1.583   1.235  0.3562  0.5386 -0.3088
 1993SOL     OW 7737   1.647   0.167   1.109 -0.3846 -0.5704  0.5588
 1993SOL    HW2 7738   1.654   0.225   1.185 -1.4583 -1.7134  1.5606
 1993SOL    HW3 7739   1.556   0.139   1.108 -0.9235  0.8393 -2.2624
 1993SOL    MW4 7740   1.636   0.171   1.119 -0.5974 -0.5352  0.3187
 1994SOL     OW 7741   4.678   5.196   0.482 -0.0705  0.1910 -0.3983
 1994SOL    HW2 7742   4.684   5.247   0.563 -0.1700  1.1866 -1.0005
 1994SOL    HW3 7743   4.764   5.203   0.443 -0.1454  0.0591 -0.5866
 1994SOL    MW4 7744   4.690   5.204   0.488 -0.0935  0.3050 -0.5026
 1995SOL     OW 7745   0.383   4.787   4.830  0.3926  0.3231  0.2326
 1995SOL    HW2 7746   0.356   4.734   4.905  0.5642  0.0862  0.1301
 1995SOL    HW3 7747   0.309   4.845   4.813  0.7426  1.0784  1.2127
 1995SOL    MW4 7748   0.370   4.788   4.838  0.4614  0.3915  0.3484
 1996SOL     OW 7749   3.524   3.019   0.290  0.2293  0.0488 -0.0362
 1996SOL    HW2 7750   3.434   3.047   0.310 -0.2691 -0.4393 -1.4919
 1996SOL    HW3 7751   3.526   2.926   0.314  0.2919  0.0159 -0.1692
 1996SOL    MW4 7752   3.512   3.010   0.296  0.1718 -0.0200 -0.2458
 1997SOL     OW 7753   4.995   0.622   4.572  0.5953  0.0237 -0.0905
 1997SOL    HW2 7754   4.951   0.578   4.645  0.0143 -1.6766 -1.3960
 1997SOL    HW3 7755   4.958   0.710   4.572 -3.0246 -1.2933 -1.1420
 1997SOL    MW4 7756   4.984   0.627   4.582  0.0411 -0.3744 -0.4015
 1998SOL     OW 7757   2.326   0.757   2.725 -0.5643  0.0073  0.0306
 1998SOL    HW2 7758   2.396   0.695   2.748  1.6712  1.6929 -1.7756
 1998SOL    HW3 7759   2.332   0.826   2.791 -0.9332 -0.1420  0.2209
 1998SOL    MW4 7760   2.336   0.758   2.737 -0.3180  0.2100 -0.1826
 1999SOL     OW 7761   3.211   3.837   0.969  0.0854 -0.6484 -0.0523
 1999SOL    HW2 7762   3.256   3.774   0.913  1.1300 -0.0104  0.0364
 1999SOL    HW3 7763   3.229   3.922   0.929 -2.4950 -0.4574 -0.9952
 1999SOL    MW4 7764   3.219   3.840   0.956 -0.1172 -0.5390 -0.1650
 2000SOL     OW 7765   1.601   5.586   5.159 -0.7358  0.3795  0.4310
 2000SOL    HW2 7766   1.623   5.555   5.246  0.7304 -0.5112 -0.2044
 2000SOL    HW3 7767   1.685   5.587   5.112 -1.1584  2.6367 -0.4349
 2000SOL    MW4 7768   1.615   5.582   5.164 -0.5981  0.5598  0.2329
 2001SOL     OW 7769   2.978   5.209   1.206 -0.2008 -0.5022  0.9700
 2001SOL    HW2 7770   2.958   5.178   1.118 -0.0387 -0.8183  1.0406
 2001SOL    HW3 7771   3.016   5.133   1.250  2.3984  0.4018  0.4335
 2001SOL    MW4 7772   2.980   5.195   1.200  0.1635 -0.4246  0.9085
 2002SOL     OW 7773   4.608   3.393   1.913 -0.1797 -0.0432  0.2027
 2002SOL    HW2 7774   4.608   3.301   1.888  1.0961  0.0501 -0.2049
 2002SOL    HW3 7775   4.516   3.419   1.907 -0.4247 -1.0291 -0.6609
 2002SOL    MW4 7776   4.596   3.385   1.909 -0.0437 -0.1610  0.0350
 2003SOL     OW 7777   0.792   3.311   2.122 -0.0573 -0.3453  0.5512
 2003SOL    HW2 7778   0.808   3.228   2.166  0.6280  0.2151  1.3946
 2003SOL    HW3 7779   0.799   3.291   2.028 -1.5190 -1.5589  0.6564
 2003SOL    MW4 7780   0.795   3.298   2.115 -0.1597 -0.4315  0.6764
 2004SOL     OW 7781   5.180   3.840   4.829  0.5480 -0.1784 -0.0523
 2004SOL    HW2 7782   5.223   3.759   4.855 -1.4118 -1.4221 -0.4830
 2004SOL    HW3 7783   5.216   3.906   4.889  0.7153 -1.7575  1.6757
 2004SOL    MW4 7784   5.190   3.838   4.841  0.3115 -0.5508  0.1189
 2005SOL     OW 7785   1.670   1.501   3.977 -0.2329  0.1986  0.6964
 2005SOL    HW2 7786   1.761   1.471   3.976 -0.3421 -0.1650 -1.0205
 2005SOL    HW3 7787   1.673   1.585   4.024  1.4073  1.3971 -1.3945
 2005SOL    MW4 7788   1.682   1.508   3.983 -0.0309  0.3087  0.1940
 2006SOL     OW 7789   4.609   3.458   4.686  0.3246 -0.2811  0.0100
 2006SOL    HW2 7790   4.690   3.420   4.722 -0.3056 -0.2637  1.5097
 2006SOL    HW3 7791   4.588   3.402   4.611  1.1955 -0.8761  0.1886
 2006SOL    MW4 7792   4.617   3.445   4.681  0.3564 -0.3573  0.2314
 2007SOL     OW 7793   4.184   4.011   3.640  0.6181  0.2863 -0.0237
 2007SOL    HW2 7794   4.099   4.055   3.643 -0.1852 -1.2332  0.4058
 2007SOL    HW3 7795   4.209   4.000   3.732  0.2198 -1.1692 -0.0537
 2007SOL    MW4 7796   4.176   4.015   3.653  0.4596 -0.1062  0.0290
 2008SOL     OW 7797   3.961   6.029   5.437 -0.7568  0.1634  0.2063
 2008SOL    HW2 7798   4.047   6.067   5.453 -0.3879 -0.2512 -0.7020
 2008SOL    HW3 7799   3.907   6.060   5.509 -0.1645  1.4415  0.1255
 2008SOL    MW4 7800   3.965   6.038   5.448 -0.6300  0.2773  0.0758
 2009SOL     OW 7801   1.921   4.949   5.285  0.1474  0.0599 -0.4264
 2009SOL    HW2 7802   1.830   4.918   5.290 -0.0851  0.7982  0.2971
 2009SOL    HW3 7803   1.968   4.879   5.240 -0.4794 -1.0476  0.5764
 2009SOL    MW4 7804   1.915   4.935   5.280  0.0340  0.0112 -0.1986
 2010SOL     OW 7805   0.295   2.411   5.583  0.1290  0.1246  0.3169
 2010SOL    HW2 7806   0.237   2.447   5.650 -2.0015 -1.0386 -0.7963
 2010SOL    HW3 7807   0.285   2.316   5.591  0.1717 -0.0394 -1.3402
 2010SOL    MW4 7808   0.286   2.403   5.593 -0.1465 -0.0505 -0.0486
 2011SOL     OW 7809   0.592   5.814   4.714  0.7014 -0.6551  0.2870
 2011SOL    HW2 7810   0.535   5.778   4.782 -1.4451 -1.2281 -1.7012
 2011SOL    HW3 7811   0.578   5.909   4.718 -1.3756 -0.8524 -0.8991
 2011SOL    MW4 7812   0.583   5.822   4.723  0.1441 -0.7567 -0.1318
 2012SOL     OW 7813   4.191   6.214   2.721 -0.2293  0.0209  0.2492
 2012SOL    HW2 7814   4.157   6.297   2.754 -2.0166 -1.0001  1.1184
 2012SOL    HW3 7815   4.186   6.221   2.626 -0.0903  1.0025  0.3110
 2012SOL    MW4 7816   4.186   6.226   2.713 -0.4468  0.0157  0.3720
 2013SOL     OW 7817   3.292   5.411   0.476 -0.1578 -0.2255  0.1344
 2013SOL    HW2 7818   3.235   5.371   0.541  0.5453  0.0531  0.9487
 2013SOL    HW3 7819   3.334   5.338   0.432  1.3110 -0.4495  1.7848
 2013SOL    MW4 7820   3.290   5.396   0.479  0.1288 -0.2183  0.4596
 2014SOL     OW 7821   4.518   2.482   3.295 -0.1122 -0.5730  0.0991
 2014SOL    HW2 7822   4.582   2.549   3.322  0.6869 -1.3814  0.2597
 2014SOL    HW3 7823   4.558   2.399   3.321 -0.2205 -1.2601 -1.7764
 2014SOL    MW4 7824   4.532   2.480   3.302 -0.0211 -0.7703 -0.1271
 2015SOL     OW 7825   1.633   4.237   5.204 -0.0231 -0.6280 -0.7431
 2015SOL    HW2 7826   1.561   4.248   5.266 -0.3333  1.8658 -1.4267
 2015SOL    HW3 7827   1.652   4.144   5.206 -1.7581 -1.0251  1.1348
 2015SOL    MW4 7828   1.626   4.226   5.213 -0.2929 -0.3514 -0.5855
 2016SOL     OW 7829   0.332   3.384   5.978 -0.2408 -0.9024  0.5908
 2016SOL    HW2 7830   0.427   3.387   5.991 -0.3376 -0.3502  1.2287
 2016SOL    HW3 7831   0.320   3.390   5.883  0.3256  0.2743  0.5794
 2016SOL    MW4 7832   0.343   3.385   5.967 -0.1789 -0.6743  0.6735
 2017SOL     OW 7833   5.138   2.294   4.166  0.0707 -0.4709 -0.0576
 2017SOL    HW2 7834   5.072   2.342   4.117  0.4064 -0.4391 -0.4848
 2017SOL    HW3 7835   5.217   2.299   4.112  0.3486 -0.7422  0.3146
 2017SOL    MW4 7836   5.140   2.301   4.152  0.1516 -0.5025 -0.0648
 2018SOL     OW 7837   6.405   5.067   0.685  0.5849  0.4991  0.2532
 2018SOL    HW2 7838   6.353   5.117   0.622  0.8437  0.8452  0.3113
 2018SOL    HW3 7839   6.426   5.130   0.754  1.5027  0.4929 -0.0152
 2018SOL    MW4 7840   6.401   5.082   0.686  0.7401  0.5439  0.2255
 2019SOL     OW 7841   0.924   4.373   3.201  0.3555 -0.1175 -0.0652
 2019SOL    HW2 7842   0.960   4.462   3.201  0.4968 -0.1736 -0.0570
 2019SOL    HW3 7843   0.840   4.381   3.245  0.4097 -0.0032  0.0198
 2019SOL    MW4 7844   0.918   4.386   3.207  0.3813 -0.1098 -0.0529
 2020SOL     OW 7845   4.393   0.910   2.309  0.1475 -0.5630  0.1744
 2020SOL    HW2 7846   4.449   0.938   2.236 -0.2990 -1.8859 -0.7144
 2020SOL    HW3 7847   4.411   0.974   2.378  0.1125  1.1214 -1.2871
 2020SOL    MW4 7848   4.403   0.922   2.308  0.0839 -0.5153 -0.1357
 2021SOL     OW 7849   2.821   3.634   0.813  0.2081  0.1656  0.0444
 2021SOL    HW2 7850   2.883   3.700   0.783  1.5749 -0.8793  0.4526
 2021SOL    HW3 7851   2.846   3.554   0.766 -1.4226 -0.0791 -0.4592
 2021SOL    MW4 7852   2.833   3.632   0.803  0.1733 -0.0045  0.0318
 2022SOL     OW 7853   2.616   1.914   5.185  0.9300  0.3314  0.3799
 2022SOL    HW2 7854   2.696   1.898   5.235  1.5282 -0.5856 -0.8338
 2022SOL    HW3 7855   2.572   1.829   5.182  1.5397  0.0329 -1.6765
 2022SOL    MW4 7856   2.621   1.901   5.191  1.0893  0.1710 -0.0516
 2023SOL     OW 7857   1.142   0.919   1.978  0.1235 -0.1426 -0.3666
 2023SOL    HW2 7858   1.170   0.939   2.068 -1.5316 -0.1423  0.1934
 2023SOL    HW3 7859   1.194   0.978   1.923 -2.8469  4.3535  1.0399
 2023SOL    MW4 7860   1.153   0.930   1.983 -0.4868  0.4506 -0.1072
 2024SOL     OW 7861   2.467   1.745   5.810  0.2948 -0.3890 -0.7036
 2024SOL    HW2 7862   2.535   1.770   5.872  1.3985 -2.1727 -1.1405
 2024SOL    HW3 7863   2.457   1.822   5.753  0.8915  0.4153  0.2402
 2024SOL    MW4 7864   2.474   1.759   5.810  0.5191 -0.5182 -0.6367
 2025SOL     OW 7865   0.279   6.347   1.697 -0.2404 -0.1524  0.0263
 2025SOL    HW2 7866   0.291   6.398   1.617 -0.6920 -0.2408 -0.1021
 2025SOL    HW3 7867   0.364   6.306   1.713  0.6759  1.9967  1.0977
 2025SOL    MW4 7868   0.292   6.348   1.689 -0.1791  0.1195  0.1507
 2026SOL     OW 7869   4.906   0.912   5.618 -0.4201 -0.1693  0.7236
 2026SOL    HW2 7870   4.898   0.928   5.712  0.2140 -2.7270  1.2864
 2026SOL    HW3 7871   4.989   0.866   5.608 -0.9747 -0.8979 -0.9319
 2026SOL    MW4 7872   4.916   0.908   5.629 -0.4096 -0.6029  0.5794
 2027SOL     OW 7873   5.735   1.367   3.439  0.8297  0.1929  0.4520
 2027SOL    HW2 7874   5.754   1.339   3.350  0.0691  0.8393  0.0806
 2027SOL    HW3 7875   5.643   1.344   3.452  0.7107  0.8313  0.7847
 2027SOL    MW4 7876   5.725   1.360   3.429  0.7136  0.3624  0.4469
 2028SOL     OW 7877   2.171   2.866   2.846 -0.1600 -0.2531 -0.6042
 2028SOL    HW2 7878   2.174   2.829   2.758 -1.4593 -1.4979 -0.1767
 2028SOL    HW3 7879   2.235   2.814   2.896 -0.9566 -0.9967 -0.3365
 2028SOL    MW4 7880   2.180   2.854   2.841 -0.4365 -0.5154 -0.5125
 2029SOL     OW 7881   5.806   4.936   2.822  0.2844  0.5494 -0.0831
 2029SOL    HW2 7882   5.720   4.967   2.850  0.6949  1.1359  0.5638
 2029SOL    HW3 7883   5.795   4.842   2.811 -0.1104  0.4193  1.2642
 2029SOL    MW4 7884   5.793   4.928   2.824  0.2865  0.6096  0.1800
 2030SOL     OW 7885   1.340   4.078   4.734 -0.7299 -0.1844  0.2705
 2030SOL    HW2 7886   1.377   4.104   4.649  2.0481 -0.0552  1.4221
 2030SOL    HW3 7887   1.411   4.090   4.796 -2.5548 -0.6814  2.6015
 2030SOL    MW4 7888   1.354   4.083   4.731 -0.6041 -0.2329  0.7300
 2031SOL     OW 7889   5.241   4.299   3.733  0.1746 -0.1706 -0.1912
 2031SOL    HW2 7890   5.284   4.321   3.815 -1.7032  0.5116  0.6748
 2031SOL    HW3 7891   5.202   4.213   3.748  0.4400 -0.3747 -0.6388
 2031SOL    MW4 7892   5.241   4.290   3.746 -0.0381 -0.1075 -0.1360
 2032SOL     OW 7893   0.497   5.599   2.477 -0.1386 -0.1830 -0.2202
 2032SOL    HW2 7894   0.427   5.638   2.425 -0.2055 -0.0399 -0.0249
 2032SOL    HW3 7895   0.504   5.655   2.554 -0.0302 -0.3829 -0.0822
 2032SOL    MW4 7896   0.489   5.611   2.480 -0.1332 -0.1905 -0.1762
 2033SOL     OW 7897   3.145   3.745   1.429  0.0747  0.2163  0.2440
 2033SOL    HW2 7898   3.211   3.814   1.435  0.6142 -0.3638  1.1465
 2033SOL    HW3 7899   3.104   3.759   1.343  1.4948  0.4688 -0.4235
 2033SOL    MW4 7900   3.148   3.756   1.418  0.3332  0.1731  0.2750
 2034SOL     OW 7901   4.396   5.017   0.699 -0.1689 -0.4007 -0.1038
 2034SOL    HW2 7902   4.455   4.976   0.637 -0.1104 -0.2604 -0.1403
 2034SOL    HW3 7903   4.402   5.111   0.681 -2.3899 -0.5137 -1.9320
 2034SOL    MW4 7904   4.404   5.024   0.689 -0.4542 -0.3971 -0.3499
 2035SOL     OW 7905   0.237   5.285   2.665  0.2765 -0.7311  0.2428
 2035SOL    HW2 7906   0.267   5.198   2.639  4.1146  0.5437 -0.2198
 2035SOL    HW3 7907   0.195   5.320   2.587 -0.2650 -1.7404  0.0628
 2035SOL    MW4 7908   0.236   5.278   2.652  0.7115 -0.6961  0.1580
 2036SOL     OW 7909   2.857   2.082   4.397 -0.5788 -0.4955  0.9773
 2036SOL    HW2 7910   2.856   2.110   4.489 -0.4661  0.7973  0.6101
 2036SOL    HW3 7911   2.792   2.138   4.355  1.5115  1.1019 -0.3077
 2036SOL    MW4 7912   2.848   2.093   4.404 -0.2882 -0.1142  0.7593
 2037SOL     OW 7913   2.758   2.542   3.372  0.0050 -0.1909  0.3920
 2037SOL    HW2 7914   2.751   2.637   3.378  0.0837 -0.1985  0.6485
 2037SOL    HW3 7915   2.853   2.525   3.370  0.0284 -0.3177  1.5217
 2037SOL    MW4 7916   2.770   2.552   3.373  0.0185 -0.2086  0.5749
 2038SOL     OW 7917   2.210   3.315   4.415 -0.1552  0.7770 -0.1746
 2038SOL    HW2 7918   2.283   3.347   4.467  0.5488  0.9322 -1.2438
 2038SOL    HW3 7919   2.246   3.245   4.362 -1.1096 -0.0955  0.2830
 2038SOL    MW4 7920   2.224   3.310   4.415 -0.1883  0.6823 -0.2553
 2039SOL     OW 7921   4.605   1.291   6.219 -0.4060  0.3987  0.1349
 2039SOL    HW2 7922   4.696   1.272   6.239 -0.2559  0.4053 -0.5108
 2039SOL    HW3 7923   4.559   1.280   6.302  0.3971  1.8026  0.8001
 2039SOL    MW4 7924   4.611   1.287   6.233 -0.2803  0.5848  0.1375
 2040SOL     OW 7925   4.644   0.235   6.180  0.5991 -0.4517 -0.2842
 2040SOL    HW2 7926   4.739   0.249   6.182  0.8550 -1.7350 -1.3204
 2040SOL    HW3 7927   4.627   0.203   6.091 -0.7777 -0.4495 -0.0427
 2040SOL    MW4 7928   4.654   0.232   6.169  0.4512 -0.6207 -0.3891
 2041SOL     OW 7929   5.468   1.172   4.479  0.4019 -0.2464  0.5070
 2041SOL    HW2 7930   5.482   1.267   4.476 -1.1938  0.0052 -0.8570
 2041SOL    HW3 7931   5.551   1.136   4.511  1.7621  1.4615 -0.8661
 2041SOL    MW4 7932   5.481   1.180   4.483  0.3709  0.0121  0.1459
 2042SOL     OW 7933   4.773   3.227   4.114  0.7346 -0.5994 -0.0448
 2042SOL    HW2 7934   4.793   3.241   4.206  0.6387  0.4357 -0.1613
 2042SOL    HW3 7935   4.806   3.140   4.094  0.8909 -0.7663  0.9283
 2042SOL    MW4 7936   4.780   3.217   4.123  0.7426 -0.4849  0.0682
 2043SOL     OW 7937   0.568   5.214   5.521 -0.8999 -0.0086  0.1763
 2043SOL    HW2 7938   0.510   5.240   5.449 -1.1806 -2.2195 -0.4542
 2043SOL    HW3 7939   0.642   5.173   5.478 -1.3875 -1.9834  1.1246
 2043SOL    MW4 7940   0.570   5.212   5.506 -1.0012 -0.5608  0.2182
 2044SOL     OW 7941   2.294   3.719   2.026 -0.4026  0.4906  0.5005
 2044SOL    HW2 7942   2.241   3.774   1.967 -0.4678  2.2860  2.1402
 2044SOL    HW3 7943   2.352   3.671   1.967 -0.5051  2.1629 -1.0640
 2044SOL    MW4 7944   2.294   3.720   2.010 -0.4247  0.9481  0.5104
 2045SOL     OW 7945   2.296   3.581   3.205 -0.6530  0.3722  0.4042
 2045SOL    HW2 7946   2.274   3.615   3.292  0.0421 -2.2047  1.7230
 2045SOL    HW3 7947   2.390   3.564   3.210 -0.2393  1.8023 -1.5366
 2045SOL    MW4 7948   2.305   3.583   3.217 -0.5067  0.2209  0.3221
 2046SOL     OW 7949   0.444   1.963   2.023 -0.0536  0.7394  0.2907
 2046SOL    HW2 7950   0.362   2.011   2.037 -0.8886 -0.3139 -0.8217
 2046SOL    HW3 7951   0.427   1.876   2.057  0.3250  0.2736 -0.6761
 2046SOL    MW4 7952   0.431   1.958   2.029 -0.1138  0.5390  0.0164
 2047SOL     OW 7953   4.994   6.072   5.434  0.4066  0.5028 -0.2903
 2047SOL    HW2 7954   4.960   6.021   5.508  0.2207  2.1435  0.8048
 2047SOL    HW3 7955   5.085   6.042   5.424  0.3930  0.1531  0.5278
 2047SOL    MW4 7956   5.002   6.061   5.443  0.3802  0.6731 -0.0379
 2048SOL     OW 7957   4.572   6.301   3.603 -0.5541 -0.1890 -0.0756
 2048SOL    HW2 7958   4.512   6.354   3.655 -1.0854  0.1705 -1.0298
 2048SOL    HW3 7959   4.537   6.212   3.611  1.0683 -0.6983  2.5792
 2048SOL    MW4 7960   4.559   6.296   3.611 -0.4101 -0.2088  0.1488
 2049SOL     OW 7961   4.421   1.650   4.218  0.5393 -0.0006  0.0883
 2049SOL    HW2 7962   4.388   1.718   4.277 -1.4883 -0.7968 -0.0343
 2049SOL    HW3 7963   4.484   1.600   4.271 -0.7632 -0.3075  1.4185
 2049SOL    MW4 7964   4.425   1.652   4.233  0.1000 -0.1461  0.2476
 2050SOL     OW 7965   1.114   4.589   3.074 -0.1381 -0.8082  0.0549
 2050SOL    HW2 7966   1.151   4.513   3.119 -0.9534 -1.1713  0.1275
 2050SOL    HW3 7967   1.148   4.664   3.122  0.8666 -1.1094 -0.1610
 2050SOL    MW4 7968   1.123   4.589   3.086 -0.1131 -0.8959  0.0360
 2051SOL     OW 7969   0.418   0.530   3.244  0.0633 -0.1506 -0.3190
 2051SOL    HW2 7970   0.438   0.596   3.310  3.7986  0.2737 -1.6007
 2051SOL    HW3 7971   0.379   0.458   3.293  0.7181  0.9783  2.0005
 2051SOL    MW4 7972   0.416   0.529   3.259  0.6425  0.0543 -0.1821
 2052SOL     OW 7973   3.753   6.039   4.755 -0.0993  0.0241  0.1034
 2052SOL    HW2 7974   3.733   6.117   4.807 -4.7901 -0.4941 -0.5265
 2052SOL    HW3 7975   3.748   6.068   4.664 -0.5308 -0.7373 -0.1224
 2052SOL    MW4 7976   3.750   6.053   4.750 -0.7751 -0.1448 -0.0095
 2053SOL     OW 7977   3.773   4.529   2.304 -0.0419  0.2976 -0.0334
 2053SOL    HW2 7978   3.802   4.562   2.388 -2.2203  1.3738  0.3580
 2053SOL    HW3 7979   3.694   4.478   2.324  0.8533 -1.6515 -1.1411
 2053SOL    MW4 7980   3.766   4.526   2.318 -0.2112  0.1824 -0.1279
 2054SOL     OW 7981   5.355   4.185   4.732 -0.6294 -0.4249  0.1049
 2054SOL    HW2 7982   5.448   4.162   4.733 -1.4001 -4.3503  2.7008
 2054SOL    HW3 7983   5.315   4.122   4.673 -1.7610  0.9553 -0.6598
 2054SOL    MW4 7984   5.362   4.174   4.724 -0.8804 -0.7607  0.3465
 2055SOL     OW 7985   5.726   4.700   4.199 -0.2808  0.2413 -0.6564
 2055SOL    HW2 7986   5.664   4.746   4.256 -1.3811 -0.3832 -1.2983
 2055SOL    HW3 7987   5.744   4.761   4.129 -1.5707 -0.1819 -1.3936
 2055SOL    MW4 7988   5.720   4.714   4.198 -0.5961  0.1031 -0.8384
 2056SOL     OW 7989   1.888   5.174   0.823 -0.0896  0.1293  0.3795
 2056SOL    HW2 7990   1.844   5.259   0.826 -0.1061  0.0934  2.1766
 2056SOL    HW3 7991   1.821   5.112   0.851 -0.3252 -0.6307 -1.7233
 2056SOL    MW4 7992   1.873   5.177   0.827 -0.1228  0.0243  0.3391
 2057SOL     OW 7993   3.353   4.047   0.854  0.3145  0.5245  0.1230
 2057SOL    HW2 7994   3.388   4.006   0.774  1.3580 -0.3482  0.9895
 2057SOL    HW3 7995   3.370   4.141   0.842  1.4169  0.2914 -0.2401
 2057SOL    MW4 7996   3.360   4.054   0.842  0.5976  0.3786  0.1894
 2058SOL     OW 7997   1.981   1.379   5.275  0.7815  0.1294  0.4424
 2058SOL    HW2 7998   2.060   1.347   5.231 -0.0381  1.6750 -2.3928
 2058SOL    HW3 7999   1.984   1.474   5.263 -1.9123  0.1642 -0.5673
 2058SOL    MW4 8000   1.992   1.388   5.267  0.3180  0.3380 -0.0649
 2059SOL     OW 8001   2.257   1.571   0.022 -0.2305  0.8467 -0.3064
 2059SOL    HW2 8002   2.265   1.477   0.005 -1.4374  0.4402  1.1504
 2059SOL    HW3 8003   2.343   1.596   0.057 -0.1310  0.1112  0.0032
 2059SOL    MW4 8004   2.270   1.562   0.025 -0.3766  0.6961 -0.0734
 2060SOL     OW 8005   2.615   1.576   0.603 -0.4386 -0.0342  0.3269
 2060SOL    HW2 8006   2.564   1.641   0.555 -1.1095 -0.3968  0.5324
 2060SOL    HW3 8007   2.702   1.616   0.613 -0.2718  0.0246 -1.2122
 2060SOL    MW4 8008   2.620   1.590   0.598 -0.5051 -0.0743  0.1509
 2061SOL     OW 8009   5.935   2.418   3.723  0.1400 -0.0643  0.2653
 2061SOL    HW2 8010   5.934   2.357   3.650  0.2060  0.4468 -0.1658
 2061SOL    HW3 8011   5.888   2.373   3.793 -1.9848  0.3575 -0.8290
 2061SOL    MW4 8012   5.929   2.404   3.723 -0.1316  0.0588  0.0641
 2062SOL     OW 8013   3.764   6.436   3.321  0.8837  0.3876 -0.1993
 2062SOL    HW2 8014   3.673   6.465   3.327  1.4564  2.0649  2.1907
 2062SOL    HW3 8015   3.798   6.476   3.241 -0.2342  0.5105 -0.6175
 2062SOL    MW4 8016   3.757   6.445   3.312  0.8118  0.6251  0.0609
 2063SOL     OW 8017   0.114   3.989   5.756  0.9499  0.2974  0.4579
 2063SOL    HW2 8018   0.050   4.058   5.771 -0.3472 -1.1400  2.0489
 2063SOL    HW3 8019   0.150   3.971   5.843  1.9872 -0.3571 -0.0862
 2063SOL    MW4 8020   0.111   3.996   5.769  0.9156  0.0214  0.5960
 2064SOL     OW 8021   1.756   5.851   4.152 -0.3533  0.0547 -0.7290
 2064SOL    HW2 8022   1.769   5.837   4.058 -1.2225  1.0176 -1.0078
 2064SOL    HW3 8023   1.740   5.945   4.160  0.8633  0.1855  0.5297
 2064SOL    MW4 8024   1.756   5.861   4.141 -0.3074  0.1990 -0.5997
 2065SOL     OW 8025   0.281   3.712   5.960 -0.6959 -0.6527  0.1252
 2065SOL    HW2 8026   0.252   3.695   5.870 -1.4823  0.1997  0.2002
 2065SOL    HW3 8027   0.220   3.664   6.015 -1.0016 -0.1523  0.2347
 2065SOL    MW4 8028   0.269   3.704   5.955 -0.8400 -0.4742  0.1496
 2066SOL     OW 8029   4.763   3.638   4.981 -0.3648 -0.0589 -0.3839
 2066SOL    HW2 8030   4.747   3.640   5.076  1.1120 -2.3874  0.0054
 2066SOL    HW3 8031   4.762   3.545   4.959 -0.7209  0.4482 -2.6935
 2066SOL    MW4 8032   4.761   3.626   4.991 -0.2170 -0.2992 -0.6373
 2067SOL     OW 8033   4.235   6.347   5.176 -0.2088  0.6585 -0.4431
 2067SOL    HW2 8034   4.312   6.370   5.123  0.3306  0.8011  0.3740
 2067SOL    HW3 8035   4.226   6.252   5.166  0.6657  0.4908  0.1992
 2067SOL    MW4 8036   4.244   6.337   5.168 -0.0222  0.6552 -0.2506
 2068SOL     OW 8037   0.686   1.991   3.782  0.4709  0.7443  0.6694
 2068SOL    HW2 8038   0.600   1.949   3.791  0.9346 -0.1013  1.3048
 2068SOL    HW3 8039   0.694   2.010   3.688  1.0420 -2.3880 -0.0240
 2068SOL    MW4 8040   0.675   1.988   3.771  0.6074  0.2195  0.6617
 2069SOL     OW 8041   0.667   4.071   2.370 -0.3932 -0.0443 -0.4251
 2069SOL    HW2 8042   0.671   4.002   2.304  3.7199 -0.4783  0.0064
 2069SOL    HW3 8043   0.685   4.026   2.453  0.5614  1.2582  0.1194
 2069SOL    MW4 8044   0.670   4.056   2.372  0.2755  0.0703 -0.2964
 2070SOL     OW 8045   3.510   0.735   5.161 -0.2021  0.3690 -0.7623
 2070SOL    HW2 8046   3.428   0.777   5.187 -0.0830  0.3520 -0.3445
 2070SOL    HW3 8047   3.492   0.696   5.076 -0.9849 -0.6233 -0.1623
 2070SOL    MW4 8048   3.497   0.735   5.153 -0.2897  0.2359 -0.6280
 2071SOL     OW 8049   0.128   5.025   2.064  0.4511  0.1648  0.2925
 2071SOL    HW2 8050   0.143   5.030   2.158  1.8957  0.8420  0.0527
 2071SOL    HW3 8051   0.083   5.108   2.043  1.3659  0.6446  0.1903
 2071SOL    MW4 8052   0.124   5.037   2.074  0.7624  0.3175  0.2474
 2072SOL     OW 8053   3.988   5.412   0.136 -0.1386  0.6620 -0.2749
 2072SOL    HW2 8054   4.034   5.484   0.092 -0.6209  1.4582  0.4986
 2072SOL    HW3 8055   4.036   5.400   0.218  0.3553 -0.3784 -0.6926
 2072SOL    MW4 8056   4.001   5.420   0.141 -0.1370  0.6298 -0.2279
 2073SOL     OW 8057   0.349   0.392   5.813  0.6300 -0.4279 -0.2896
 2073SOL    HW2 8058   0.361   0.297   5.822  0.4794 -0.3408  1.0914
 2073SOL    HW3 8059   0.380   0.428   5.897  0.8550  0.7655 -0.8616
 2073SOL    MW4 8060   0.355   0.384   5.825  0.6398 -0.2590 -0.1829
 2074SOL     OW 8061   5.922   0.084   5.797 -0.2739 -1.1155 -0.5009
 2074SOL    HW2 8062   5.912  -0.009   5.774  0.2239 -1.7042  1.4096
 2074SOL    HW3 8063   5.990   0.084   5.864  0.7518  0.8241 -1.4531
 2074SOL    MW4 8064   5.930   0.071   5.803 -0.0729 -0.9373 -0.3745
 2075SOL     OW 8065   1.684   1.584   2.614 -0.0855 -0.5723 -0.3171
 2075SOL    HW2 8066   1.605   1.637   2.621  0.7371  0.6891 -0.3217
 2075SOL    HW3 8067   1.669   1.511   2.674 -1.8669 -1.1868 -1.4299
 2075SOL    MW4 8068   1.671   1.581   2.622 -0.2120 -0.4869 -0.4645
 2076SOL     OW 8069   5.283   0.918   4.518  0.4776  0.0527  0.6842
 2076SOL    HW2 8070   5.269   0.947   4.609 -0.4604  0.3594  0.4512
 2076SOL    HW3 8071   5.271   0.998   4.466  2.4720  0.2188  0.3714
 2076SOL    MW4 8072   5.280   0.933   4.523  0.6170  0.1151  0.6122
 2077SOL     OW 8073   4.072   5.877   1.484  0.0040 -0.5489  0.4187
 2077SOL    HW2 8074   4.151   5.837   1.523  0.1139 -1.2967 -0.5230
 2077SOL    HW3 8075   4.058   5.828   1.403 -0.4017  0.7580 -0.3325
 2077SOL    MW4 8076   4.081   5.865   1.478 -0.0350 -0.4751  0.1954
 2078SOL     OW 8077   1.372   1.429   2.449 -0.6867 -0.0600 -0.0007
 2078SOL    HW2 8078   1.309   1.417   2.377 -0.5676  1.2596 -0.3620
 2078SOL    HW3 8079   1.452   1.459   2.405  0.1012 -1.3681  0.4937
 2078SOL    MW4 8080   1.374   1.432   2.434 -0.5670 -0.0585  0.0168
 2079SOL     OW 8081   1.198   4.973   2.142 -0.1517 -0.2767 -0.2371
 2079SOL    HW2 8082   1.112   4.954   2.179 -0.1140  0.4886  0.2631
 2079SOL    HW3 8083   1.244   4.889   2.144 -0.2834 -0.3391  1.0957
 2079SOL    MW4 8084   1.192   4.959   2.147 -0.1641 -0.1839  0.0047
 2080SOL     OW 8085   3.990   5.170   4.591  0.0759 -0.1020  0.2275
 2080SOL    HW2 8086   4.044   5.120   4.653  0.7897  0.5384  0.1298
 2080SOL    HW3 8087   4.035   5.254   4.582 -0.8394  0.3809 -0.0008
 2080SOL    MW4 8088   4.003   5.174   4.598  0.0493  0.0462  0.1845
 2081SOL     OW 8089   2.041   3.444   0.982  0.3492  0.0528 -0.3764
 2081SOL    HW2 8090   2.106   3.513   0.991  0.9719 -0.6597  0.7162
 2081SOL    HW3 8091   2.084   3.377   0.928 -0.1906  0.4261 -1.2896
 2081SOL    MW4 8092   2.055   3.444   0.976  0.3601  0.0081 -0.3528
 2082SOL     OW 8093   1.825   4.263   5.440  0.0916  0.0880  0.0660
 2082SOL    HW2 8094   1.889   4.192   5.435  1.2702  1.1862 -2.3432
 2082SOL    HW3 8095   1.862   4.325   5.504  1.0368  0.2844 -0.6398
 2082SOL    MW4 8096   1.839   4.262   5.448  0.3718  0.2588 -0.3450
 2083SOL     OW 8097   3.488   4.245   6.135  1.1524 -0.1362 -0.2254
 2083SOL    HW2 8098   3.433   4.294   6.073  2.8558  0.9020 -1.0313
 2083SOL    HW3 8099   3.448   4.159   6.141 -0.5001  0.5563 -0.8092
 2083SOL    MW4 8100   3.476   4.240   6.127  1.1591  0.0921 -0.4087
 2084SOL     OW 8101   4.907   0.640   2.144  0.0478 -0.2067 -0.0702
 2084SOL    HW2 8102   4.900   0.697   2.068  0.1787  0.2607  0.2588
 2084SOL    HW3 8103   5.001   0.626   2.156  0.2385  1.9455  1.5896
 2084SOL    MW4 8104   4.919   0.646   2.136  0.0902  0.1389  0.1922
 2085SOL     OW 8105   1.964   1.626   4.972 -0.5268  0.1620  0.5597
 2085SOL    HW2 8106   1.984   1.532   4.973 -1.2839 -0.0091  0.9427
 2085SOL    HW3 8107   1.994   1.658   5.057  0.1386  0.3641  0.2533
 2085SOL    MW4 8108   1.970   1.618   4.983 -0.5389  0.1661  0.5698
 2086SOL     OW 8109   5.450   3.051   1.333  0.4669 -0.5273  0.2651
 2086SOL    HW2 8110   5.497   3.089   1.407 -0.6198  1.3538  0.0722
 2086SOL    HW3 8111   5.501   3.076   1.257  0.6586 -0.9648  0.2456
 2086SOL    MW4 8112   5.463   3.059   1.333  0.3488 -0.3368  0.2371
 2087SOL     OW 8113   0.810   6.056   0.470 -0.4905 -0.2449  0.0348
 2087SOL    HW2 8114   0.791   6.036   0.562  0.2147  0.2701  0.3015
 2087SOL    HW3 8115   0.839   5.972   0.434  1.7828  0.0442  0.9752
 2087SOL    MW4 8116   0.811   6.042   0.478 -0.0975 -0.1388  0.1941
 2088SOL     OW 8117   5.622   6.439   6.207  0.3466  0.6728 -0.5995
 2088SOL    HW2 8118   5.700   6.398   6.168  0.8126  1.6676 -0.7349
 2088SOL    HW3 8119   5.655   6.517   6.250 -0.5361  0.9157 -0.3505
 2088SOL    MW4 8120   5.637   6.444   6.207  0.2916  0.8361 -0.5845
 2089SOL     OW 8121   0.359   5.085   5.656 -0.4203  0.6943 -0.4654
 2089SOL    HW2 8122   0.311   5.154   5.701  0.5313 -0.3203  2.3307
 2089SOL    HW3 8123   0.442   5.127   5.630 -0.2915  0.8868  0.2399
 2089SOL    MW4 8124   0.364   5.100   5.658 -0.2778  0.5858 -0.0034
 2090SOL     OW 8125   5.271   1.623   2.938 -0.1891  0.0053 -0.0910
 2090SOL    HW2 8126   5.366   1.627   2.946 -0.1732 -0.8183  0.2078
 2090SOL    HW3 8127   5.247   1.539   2.977 -1.1440  0.6435  0.7357
 2090SOL    MW4 8128   5.280   1.612   2.944 -0.3130 -0.0191  0.0575
 2091SOL     OW 8129   0.934   3.785   1.407  0.0230  0.1316 -0.0151
 2091SOL    HW2 8130   0.861   3.832   1.447 -0.0549  0.7516 -0.8687
 2091SOL    HW3 8131   0.997   3.854   1.384 -1.2961  0.2641 -3.9443
 2091SOL    MW4 8132   0.933   3.800   1.409 -0.1613  0.2309 -0.6462
 2092SOL     OW 8133   4.185   6.110   4.578 -0.0221  0.1145 -0.2241
 2092SOL    HW2 8134   4.243   6.072   4.512  1.3742 -0.4891  1.2719
 2092SOL    HW3 8135   4.101   6.065   4.565  0.4350 -0.5282 -1.0828
 2092SOL    MW4 8136   4.182   6.099   4.568  0.2224 -0.0499 -0.1400
 2093SOL     OW 8137   2.738   5.056   0.636  0.2431  0.0072  0.5104
 2093SOL    HW2 8138   2.691   5.045   0.554 -0.0901  1.8212  0.4155
 2093SOL    HW3 8139   2.691   5.001   0.699  1.7153 -3.0701 -0.8613
 2093SOL    MW4 8140   2.726   5.048   0.634  0.3934 -0.1595  0.3169
 2094SOL     OW 8141   0.925   2.277   3.171  0.2350 -0.0162  0.2189
 2094SOL    HW2 8142   0.947   2.288   3.264 -2.4090 -0.7607  1.0216
 2094SOL    HW3 8143   0.839   2.318   3.162  0.8918  0.9896 -2.1997
 2094SOL    MW4 8144   0.917   2.284   3.182 -0.0272  0.0183  0.0057
 2095SOL     OW 8145   3.354   6.394   1.159 -0.3031  0.2918 -0.1407
 2095SOL    HW2 8146   3.392   6.427   1.078 -1.5535 -0.6743 -1.1646
 2095SOL    HW3 8147   3.281   6.339   1.131 -0.2480 -0.7549  1.6231
 2095SOL    MW4 8148   3.349   6.391   1.145 -0.4608  0.0262 -0.0431
 2096SOL     OW 8149   5.809   1.153   1.563 -0.3958 -0.2165  0.1228
 2096SOL    HW2 8150   5.829   1.086   1.497  0.8302 -0.9549  1.1967
 2096SOL    HW3 8151   5.713   1.156   1.565 -0.4683 -1.0302 -0.8356
 2096SOL    MW4 8152   5.799   1.145   1.554 -0.2436 -0.4213  0.1380
 2097SOL     OW 8153   4.809   2.204   3.929 -0.5797 -0.3277  0.2904
 2097SOL    HW2 8154   4.883   2.145   3.916  0.3914  1.3175 -3.1672
 2097SOL    HW3 8155   4.849   2.291   3.933 -2.0848  0.3344  3.2062
 2097SOL    MW4 8156   4.824   2.208   3.928 -0.6502 -0.0233  0.2189
 2098SOL     OW 8157   2.911   4.374   3.921 -0.4102  0.1367 -0.1125
 2098SOL    HW2 8158   2.922   4.281   3.940 -1.1523 -0.0438 -0.5190
 2098SOL    HW3 8159   2.827   4.379   3.875  0.1759  0.8698 -1.1178
 2098SOL    MW4 8160   2.901   4.363   3.918 -0.4308  0.2096 -0.2988
 2099SOL     OW 8161   6.065   1.373   6.256 -0.3092 -0.0049  0.2302
 2099SOL    HW2 8162   6.136   1.427   6.221 -1.8164  1.2052 -1.1709
 2099SOL    HW3 8163   6.079   1.373   6.351  2.4759 -1.2472 -0.0983
 2099SOL    MW4 8164   6.076   1.380   6.264 -0.1406 -0.0091  0.0020
 2100SOL     OW 8165   1.034   2.054   3.587  0.3175  0.1087  0.3649
 2100SOL    HW2 8166   1.025   2.149   3.582 -1.7078 -0.0709 -0.2704
 2100SOL    HW3 8167   0.951   2.020   3.555  1.6282 -1.9303 -1.1078
 2100SOL    MW4 8168   1.022   2.062   3.582  0.2232 -0.1840  0.0867
 2101SOL     OW 8169   5.750   4.026   3.171  0.0374 -0.4990  0.5759
 2101SOL    HW2 8170   5.763   3.934   3.197 -0.5879 -0.2663  1.8095
 2101SOL    HW3 8171   5.707   4.021   3.086  0.0126 -1.3623  0.6279
 2101SOL    MW4 8172   5.746   4.013   3.163 -0.0484 -0.5822  0.7455
 2102SOL     OW 8173   0.230   0.729   4.264  0.8460  0.2356 -0.2416
 2102SOL    HW2 8174   0.180   0.777   4.197  0.0984 -1.1715 -0.7445
 2102SOL    HW3 8175   0.292   0.676   4.214  1.6131  0.6019  0.3012
 2102SOL    MW4 8176   0.231   0.728   4.248  0.8486  0.0983 -0.2363
 2103SOL     OW 8177   6.132   0.991   5.418  0.1355  0.1358  0.3163
 2103SOL    HW2 8178   6.182   0.914   5.392  1.5448  0.6257  1.4370
 2103SOL    HW3 8179   6.187   1.065   5.392 -1.5844  0.8359 -1.5284
 2103SOL    MW4 8180   6.146   0.991   5.411  0.0946  0.2928  0.2207
 2104SOL     OW 8181   2.627   1.873   1.525 -0.1616  0.5041  0.2910
 2104SOL    HW2 8182   2.551   1.874   1.583 -0.9773 -0.6775 -0.6953
 2104SOL    HW3 8183   2.593   1.839   1.442  1.3509  0.3767 -0.3058
 2104SOL    MW4 8184   2.612   1.869   1.522 -0.0697  0.3314  0.0821
 2105SOL     OW 8185   0.607   4.313   1.758  0.4653 -0.1669  0.1065
 2105SOL    HW2 8186   0.697   4.346   1.759  0.2278  0.6774  2.7239
 2105SOL    HW3 8187   0.603   4.250   1.829 -1.2056  0.4842  0.6592
 2105SOL    MW4 8188   0.618   4.309   1.768  0.2135  0.0304  0.5247
 2106SOL     OW 8189   1.551   4.250   1.503  0.0053  0.3405 -0.6436
 2106SOL    HW2 8190   1.555   4.298   1.586  2.0000 -0.6242 -0.1156
 2106SOL    HW3 8191   1.629   4.279   1.455  1.3270 -2.3020 -0.2800
 2106SOL    MW4 8192   1.562   4.260   1.508  0.4429 -0.1354 -0.5260
 2107SOL     OW 8193   1.746   5.035   3.490  0.0252 -0.1887  0.2714
 2107SOL    HW2 8194   1.772   4.953   3.448  0.1573  0.5561 -1.1784
 2107SOL    HW3 8195   1.675   5.069   3.435  0.2781  0.8728  0.5689
 2107SOL    MW4 8196   1.740   5.029   3.477  0.0760  0.0496  0.1194
 2108SOL     OW 8197   3.017   4.888   5.481 -0.7451  0.3314  0.3354
 2108SOL    HW2 8198   3.059   4.967   5.447 -1.1321  0.1293 -0.6317
 2108SOL    HW3 8199   2.983   4.915   5.567 -0.4849  1.0849  0.2141
 2108SOL    MW4 8200   3.018   4.902   5.488 -0.7618  0.4041  0.1918
 2109SOL     OW 8201   5.265   3.395   1.577  0.5003  0.0090  0.5718
 2109SOL    HW2 8202   5.257   3.334   1.503  0.1210  1.8025 -0.9468
 2109SOL    HW3 8203   5.258   3.339   1.654 -1.2603 -1.7378 -0.7274
 2109SOL    MW4 8204   5.263   3.379   1.577  0.2179  0.0152  0.2001
 2110SOL     OW 8205   5.185   0.771   5.640  0.0579  0.5112  0.7247
 2110SOL    HW2 8206   5.185   0.831   5.715  1.9059 -0.2681  1.4083
 2110SOL    HW3 8207   5.188   0.684   5.680  0.0624  0.0474 -0.2757
 2110SOL    MW4 8208   5.185   0.768   5.655  0.3023  0.3472  0.6829
 2111SOL     OW 8209   4.395   3.752   4.147  0.2916  0.0187  0.5658
 2111SOL    HW2 8210   4.322   3.694   4.126 -0.5525  1.3966 -0.5016
 2111SOL    HW3 8211   4.401   3.749   4.242 -2.6643  1.5634  0.9136
 2111SOL    MW4 8212   4.386   3.744   4.156 -0.2098  0.4043  0.4709
 2112SOL     OW 8213   0.928   3.319   0.433 -0.0111 -0.1338  0.1421
 2112SOL    HW2 8214   0.877   3.245   0.399  0.4957  0.1100 -1.2154
 2112SOL    HW3 8215   0.948   3.294   0.524 -0.0942 -1.5337 -0.1950
 2112SOL    MW4 8216   0.924   3.306   0.441  0.0448 -0.2863 -0.0815
 2113SOL     OW 8217   2.433   1.614   1.758  0.4492  0.2862 -0.5324
 2113SOL    HW2 8218   2.461   1.652   1.841  1.1513 -1.7777  0.2479
 2113SOL    HW3 8219   2.426   1.520   1.776 -0.1872 -0.1098 -2.5965
 2113SOL    MW4 8220   2.436   1.606   1.771  0.4579 -0.0383 -0.7018
 2114SOL     OW 8221   1.159   3.897   6.306 -0.7373  0.4836 -0.2354
 2114SOL    HW2 8222   1.179   3.874   6.396 -0.3761 -0.9399 -0.6615
 2114SOL    HW3 8223   1.063   3.889   6.300 -0.6146 -1.0623 -0.3958
 2114SOL    MW4 8224   1.149   3.893   6.317 -0.6734  0.0918 -0.3128
 2115SOL     OW 8225   1.352   1.777   0.826 -0.2560 -0.7058 -0.0558
 2115SOL    HW2 8226   1.370   1.745   0.914  0.6541 -2.2577 -0.7689
 2115SOL    HW3 8227   1.257   1.791   0.825 -0.2371 -0.3020  1.2646
 2115SOL    MW4 8228   1.342   1.774   0.837 -0.1335 -0.8573  0.0243
 2116SOL     OW 8229   3.247   3.055   6.355 -0.1308  0.0947  0.7008
 2116SOL    HW2 8230   3.210   2.971   6.379 -0.0414  0.1686  1.1002
 2116SOL    HW3 8231   3.341   3.044   6.365 -0.1371  0.3312  1.0471
 2116SOL    MW4 8232   3.255   3.043   6.359 -0.1198  0.1356  0.7992
 2117SOL     OW 8233   2.336   2.347   0.625  0.4769  0.2164 -0.4465
 2117SOL    HW2 8234   2.345   2.380   0.536  0.1031  1.2974 -0.1048
 2117SOL    HW3 8235   2.245   2.362   0.647  0.1689 -1.5132 -0.4201
 2117SOL    MW4 8236   2.325   2.353   0.616  0.3869  0.1308 -0.3979
 2118SOL     OW 8237   6.013   3.979   0.208 -0.3717 -0.1606  0.4850
 2118SOL    HW2 8238   6.060   4.044   0.261 -1.0839  0.8151 -0.0421
 2118SOL    HW3 8239   6.012   3.900   0.263  0.8578  0.1389  0.9747
 2118SOL    MW4 8240   6.019   3.977   0.222 -0.3034  0.0077  0.4801
 2119SOL     OW 8241   0.204   4.966   4.732 -0.5037  0.0710 -0.5451
 2119SOL    HW2 8242   0.178   5.041   4.678 -0.6657 -0.0413 -0.6249
 2119SOL    HW3 8243   0.156   4.978   4.814  0.9082  1.0624  0.1691
 2119SOL    MW4 8244   0.194   4.977   4.735 -0.3388  0.1870 -0.4614
 2120SOL     OW 8245   5.825   1.565   4.653 -0.0197 -0.6603 -0.1069
 2120SOL    HW2 8246   5.874   1.583   4.733 -0.1851 -0.5443 -0.0324
 2120SOL    HW3 8247   5.736   1.549   4.682  0.0681 -1.3434 -0.1984
 2120SOL    MW4 8248   5.820   1.565   4.667 -0.0299 -0.7351 -0.1091
 2121SOL     OW 8249   0.759   0.442   0.145 -0.0088 -0.0914  0.1041
 2121SOL    HW2 8250   0.669   0.437   0.113 -0.2154  0.6936  0.5370
 2121SOL    HW3 8251   0.813   0.430   0.067 -0.4813 -0.7837 -0.1236
 2121SOL    MW4 8252   0.754   0.440   0.130 -0.0984 -0.0792  0.1312
 2122SOL     OW 8253   2.592   5.417   0.147 -0.0694  0.1914 -0.7043
 2122SOL    HW2 8254   2.630   5.504   0.137  0.9191 -0.2322 -0.7887
 2122SOL    HW3 8255   2.538   5.406   0.069  1.4873 -0.0762 -1.7964
 2122SOL    MW4 8256   2.590   5.427   0.135  0.2664  0.1002 -0.8595
 2123SOL     OW 8257   2.887   0.169   3.278  0.1407 -0.0237  0.2676
 2123SOL    HW2 8258   2.954   0.103   3.295  0.4838  0.0166 -0.8645
 2123SOL    HW3 8259   2.876   0.215   3.362  0.1368 -1.2829  0.9761
 2123SOL    MW4 8260   2.894   0.167   3.291  0.1854 -0.1845  0.2117
 2124SOL     OW 8261   1.575   4.557   0.252  0.6296 -0.0176  0.3923
 2124SOL    HW2 8262   1.575   4.585   0.343 -0.9845 -0.5614  0.5861
 2124SOL    HW3 8263   1.492   4.588   0.216  0.1366 -1.8530 -0.2143
 2124SOL    MW4 8264   1.564   4.564   0.259  0.3516 -0.3315  0.3379
 2125SOL     OW 8265   3.372   4.255   2.536 -0.9707 -0.2272  0.5245
 2125SOL    HW2 8266   3.423   4.320   2.489 -1.2383 -0.1158  0.3860
 2125SOL    HW3 8267   3.433   4.183   2.551 -1.9005 -2.3087 -4.0130
 2125SOL    MW4 8268   3.387   4.254   2.532 -1.1287 -0.4871 -0.0925
 2126SOL     OW 8269   5.807   1.011   1.979 -0.4679 -0.2675 -0.3355
 2126SOL    HW2 8270   5.718   1.026   2.010 -0.8207  1.7601 -2.1226
 2126SOL    HW3 8271   5.817   0.915   1.982 -1.4745 -0.3935  2.9432
 2126SOL    MW4 8272   5.796   1.000   1.983 -0.6473 -0.0166 -0.1387
 2127SOL     OW 8273   5.743   0.850   1.724 -0.3334  0.3006 -0.4375
 2127SOL    HW2 8274   5.775   0.929   1.768 -0.5439  1.2522 -1.9177
 2127SOL    HW3 8275   5.667   0.880   1.674 -1.1940 -1.1257 -0.0356
 2127SOL    MW4 8276   5.738   0.865   1.723 -0.4747  0.2380 -0.5798
 2128SOL     OW 8277   0.479   5.119   6.043  0.0770  0.7183 -0.2388
 2128SOL    HW2 8278   0.498   5.212   6.031  0.7969  1.1901  3.3603
 2128SOL    HW3 8279   0.546   5.089   6.104 -0.8838 -1.8793 -0.3435
 2128SOL    MW4 8280   0.490   5.127   6.050  0.0453  0.4378  0.2222
 2129SOL     OW 8281   3.358   5.986   0.172  0.0066  0.1615 -0.3888
 2129SOL    HW2 8282   3.372   5.916   0.235  1.6409  0.8829  0.1111
 2129SOL    HW3 8283   3.263   5.993   0.163 -0.2187 -0.7895  1.0385
 2129SOL    MW4 8284   3.348   5.978   0.179  0.1925  0.1312 -0.1346
 2130SOL     OW 8285   3.145   1.353   5.074 -0.2736  0.2990 -0.4827
 2130SOL    HW2 8286   3.095   1.317   5.000 -0.4368 -2.0361  0.6744
 2130SOL    HW3 8287   3.236   1.338   5.051 -0.3462 -1.0902  0.0631
 2130SOL    MW4 8288   3.150   1.346   5.061 -0.3047 -0.1924 -0.2580
 2131SOL     OW 8289   6.013   1.346   0.749  0.3482 -0.7221  0.0926
 2131SOL    HW2 8290   5.970   1.428   0.770 -1.9089 -1.6472 -0.5767
 2131SOL    HW3 8291   6.101   1.371   0.719  0.6291  1.2024  2.2805
 2131SOL    MW4 8292   6.019   1.360   0.748  0.0875 -0.5902  0.2930
 2132SOL     OW 8293   2.015   5.234   1.752 -0.2321  0.6298 -0.5544
 2132SOL    HW2 8294   1.979   5.312   1.709 -0.6790  0.8262  0.1658
 2132SOL    HW3 8295   2.091   5.266   1.800 -0.8077  0.7539  0.2889
 2132SOL    MW4 8296   2.021   5.249   1.753 -0.3670  0.6721 -0.3481
 2133SOL     OW 8297   3.136   1.024   1.945  0.0354 -0.1832  0.0711
 2133SOL    HW2 8298   3.081   1.094   1.910  3.1131  2.2976 -0.2657
 2133SOL    HW3 8299   3.113   1.021   2.038 -0.7264  0.7574 -0.0622
 2133SOL    MW4 8300   3.126   1.033   1.953  0.3409  0.2682  0.0090
 2134SOL     OW 8301   2.501   0.549   2.209 -0.4771  0.2054  0.3912
 2134SOL    HW2 8302   2.423   0.602   2.225 -0.4398  0.4721 -0.3023
 2134SOL    HW3 8303   2.468   0.459   2.202 -0.4058 -0.0835  2.8403
 2134SOL    MW4 8304   2.486   0.544   2.211 -0.4628  0.2024  0.6229
 2135SOL     OW 8305   4.890   0.110   0.006  0.1070  0.0217  0.0667
 2135SOL    HW2 8306   4.945   0.173   0.051  1.0747  1.2905 -2.6761
 2135SOL    HW3 8307   4.801   0.133   0.031  0.6266 -0.5328  2.6879
 2135SOL    MW4 8308   4.885   0.121   0.015  0.3032  0.1160  0.0507
 2136SOL     OW 8309   0.243   1.645   2.594  0.1734 -0.2358 -0.1145
 2136SOL    HW2 8310   0.266   1.732   2.625  1.0220 -0.1467 -0.9345
 2136SOL    HW3 8311   0.172   1.659   2.532  0.4869 -0.0896 -0.4447
 2136SOL    MW4 8312   0.237   1.658   2.590  0.3267 -0.2048 -0.2663
 2137SOL     OW 8313   5.788   0.207   2.248  0.3416 -0.0261  0.2992
 2137SOL    HW2 8314   5.802   0.238   2.159  0.3377  1.3541  0.7689
 2137SOL    HW3 8315   5.875   0.210   2.289  0.9513 -3.3715 -0.4306
 2137SOL    MW4 8316   5.802   0.211   2.242  0.4215 -0.2854  0.2649
 2138SOL     OW 8317   1.499   2.514   0.895  0.1820  0.0000  0.1154
 2138SOL    HW2 8318   1.431   2.569   0.933 -0.3828 -0.6446  0.0551
 2138SOL    HW3 8319   1.508   2.546   0.805 -2.4720 -2.0168 -1.0173
 2138SOL    MW4 8320   1.491   2.526   0.888 -0.2427 -0.3511 -0.0420
 2139SOL     OW 8321   1.226   0.245   5.396 -1.2402  0.2133  0.2770
 2139SOL    HW2 8322   1.274   0.293   5.464  0.3667 -1.0260  0.0819
 2139SOL    HW3 8323   1.293   0.192   5.353 -2.3685  0.3260 -1.7285
 2139SOL    MW4 8324   1.241   0.245   5.399 -1.1770  0.0647 -0.0134
 2140SOL     OW 8325   1.310   0.138   0.471  0.1538 -0.0688 -0.4693
 2140SOL    HW2 8326   1.224   0.146   0.513  0.0211  0.5448 -0.8388
 2140SOL    HW3 8327   1.369   0.188   0.528  0.2384 -0.3546 -0.3029
 2140SOL    MW4 8328   1.306   0.146   0.484  0.1474 -0.0256 -0.4961
 2141SOL     OW 8329   1.393   2.110   2.678 -0.0394  0.0651 -0.1508
 2141SOL    HW2 8330   1.378   2.057   2.756  0.1156  0.3229  0.0548
 2141SOL    HW3 8331   1.392   2.201   2.709  0.5366  0.1471 -0.3589
 2141SOL    MW4 8332   1.391   2.115   2.692  0.0570  0.1099 -0.1511
 2142SOL     OW 8333   3.665   4.238   5.355  0.3882 -0.1770 -0.2059
 2142SOL    HW2 8334   3.574   4.208   5.360  0.1857  0.4382 -0.0378
 2142SOL    HW3 8335   3.666   4.318   5.407  1.1652 -0.4918  0.2701
 2142SOL    MW4 8336   3.653   4.245   5.362  0.4640 -0.1374 -0.1210
 2143SOL     OW 8337   1.228   2.442   5.775  0.5598  0.0407  0.0237
 2143SOL    HW2 8338   1.253   2.392   5.852  0.1059 -0.8950 -0.4199
 2143SOL    HW3 8339   1.263   2.391   5.701 -0.7254 -0.1382 -0.4826
 2143SOL    MW4 8340   1.236   2.429   5.775  0.3303 -0.1064 -0.1016
 2144SOL     OW 8341   3.932   6.347   6.140  0.2483 -0.0353  0.1719
 2144SOL    HW2 8342   4.026   6.331   6.146  0.1406 -0.4889  0.6974
 2144SOL    HW3 8343   3.903   6.294   6.066  0.1606 -1.0626  0.9275
 2144SOL    MW4 8344   3.940   6.338   6.131  0.2225 -0.2307  0.3409
 2145SOL     OW 8345   5.473   3.552   1.782  0.3275  0.6923  0.0754
 2145SOL    HW2 8346   5.393   3.510   1.813  0.2165  1.7061  1.2510
 2145SOL    HW3 8347   5.505   3.495   1.713 -0.7987 -0.3310  0.3640
 2145SOL    MW4 8348   5.467   3.539   1.777  0.1643  0.6910  0.2685
 2146SOL     OW 8349   4.650   1.216   1.429 -0.1608  0.5253  0.1969
 2146SOL    HW2 8350   4.573   1.273   1.433  0.3729  1.1692  1.7581
 2146SOL    HW3 8351   4.692   1.225   1.514  0.3142 -1.6933  0.2797
 2146SOL    MW4 8352   4.645   1.224   1.441 -0.0277  0.3175  0.4138
 2147SOL     OW 8353   5.274   5.852   1.719  0.4726  0.5234  0.0734
 2147SOL    HW2 8354   5.238   5.843   1.631 -1.7663 -2.2215  1.0938
 2147SOL    HW3 8355   5.205   5.897   1.768  0.4922 -0.3646  0.9662
 2147SOL    MW4 8356   5.260   5.857   1.714  0.1798  0.0441  0.3258
 2148SOL     OW 8357   1.901   3.660   2.580  0.0719 -0.1183 -0.1094
 2148SOL    HW2 8358   1.874   3.587   2.636  0.7123 -0.2685  0.0145
 2148SOL    HW3 8359   1.974   3.701   2.627  1.1624 -0.7382 -1.1980
 2148SOL    MW4 8360   1.907   3.656   2.594  0.3002 -0.2199 -0.2367
 2149SOL     OW 8361   0.768   5.899   5.956 -0.2662  0.2722  0.1233
 2149SOL    HW2 8362   0.861   5.914   5.969  0.1734 -0.0654 -2.1926
 2149SOL    HW3 8363   0.725   5.970   6.003  1.0793 -0.0415  1.9453
 2149SOL    MW4 8364   0.774   5.910   5.964 -0.0307  0.1863  0.0581
 2150SOL     OW 8365   6.139   1.544   3.515  0.0715  0.1275  0.1364
 2150SOL    HW2 8366   6.213   1.484   3.523  0.7280  1.0013  0.7802
 2150SOL    HW3 8367   6.083   1.523   3.589  0.4247  0.4609  0.5047
 2150SOL    MW4 8368   6.142   1.533   3.526  0.2047  0.2868  0.2700
 2151SOL     OW 8369   1.105   4.822   5.929  0.2813  0.6003 -0.2658
 2151SOL    HW2 8370   1.181   4.875   5.905  0.5528  0.4534  0.2353
 2151SOL    HW3 8371   1.143   4.741   5.963 -0.1375 -0.2284 -1.6902
 2151SOL    MW4 8372   1.120   4.818   5.930  0.2619  0.4716 -0.3876
 2152SOL     OW 8373   4.465   3.449   3.204 -0.1842 -0.2199 -0.0054
 2152SOL    HW2 8374   4.445   3.388   3.275  2.1531  0.5513  1.4484
 2152SOL    HW3 8375   4.560   3.450   3.199 -0.2204  1.3397 -1.7651
 2152SOL    MW4 8376   4.475   3.441   3.213  0.1194  0.0876 -0.0458
 2153SOL     OW 8377   5.079   4.592   4.363 -0.7452 -0.5357 -0.3180
 2153SOL    HW2 8378   5.151   4.565   4.306 -0.8924  1.4812 -1.5856
 2153SOL    HW3 8379   5.082   4.688   4.360 -1.4112 -0.3664  2.3182
 2153SOL    MW4 8380   5.089   4.601   4.355 -0.8525 -0.2473 -0.1374
 2154SOL     OW 8381   1.416   0.603   3.147  0.0778 -0.2002 -0.0291
 2154SOL    HW2 8382   1.384   0.550   3.220  1.2185  1.6825  1.9520
 2154SOL    HW3 8383   1.510   0.586   3.144 -0.0514 -0.7178 -1.4766
 2154SOL    MW4 8384   1.424   0.594   3.156  0.2112 -0.0201  0.0413
 2155SOL     OW 8385   4.873   6.169   4.598 -0.1173  0.3531 -0.8144
 2155SOL    HW2 8386   4.927   6.092   4.612 -0.0294  0.5838  0.2304
 2155SOL    HW3 8387   4.787   6.144   4.630  0.0366  0.8290  0.0322
 2155SOL    MW4 8388   4.869   6.156   4.604 -0.0854  0.4463 -0.5648
 2156SOL     OW 8389   4.330   4.331   1.762  0.0000  0.4777 -0.0423
 2156SOL    HW2 8390   4.295   4.257   1.713  0.7169 -0.1196  0.3217
 2156SOL    HW3 8391   4.296   4.319   1.851  2.7552 -1.3553  0.9006
 2156SOL    MW4 8392   4.321   4.320   1.767  0.4581  0.1570  0.1301
 2157SOL     OW 8393   5.584   5.133   2.612 -0.0049 -0.4332 -0.3979
 2157SOL    HW2 8394   5.529   5.149   2.689 -0.1925 -0.6107 -0.4955
 2157SOL    HW3 8395   5.547   5.055   2.572  1.3927 -1.6289  0.5335
 2157SOL    MW4 8396   5.572   5.125   2.617  0.1548 -0.6144 -0.2879
 2158SOL     OW 8397   3.312   0.917   2.252 -0.4231 -0.4537  0.4787
 2158SOL    HW2 8398   3.318   0.838   2.198  1.6607  0.2511 -0.4326
 2158SOL    HW3 8399   3.324   0.886   2.342  2.3095 -1.0705  0.0036
 2158SOL    MW4 8400   3.314   0.903   2.257  0.2124 -0.4421  0.2958
 2159SOL     OW 8401   2.025   2.595   1.249  0.5320  0.3754  0.1810
 2159SOL    HW2 8402   1.955   2.622   1.308 -1.2560 -0.6621 -1.3352
 2159SOL    HW3 8403   2.017   2.500   1.244  1.7817  0.2823 -0.3796
 2159SOL    MW4 8404   2.015   2.586   1.256  0.4610  0.2262 -0.0930
 2160SOL     OW 8405   1.669   0.552   4.642  0.1649 -0.6016  0.6424
 2160SOL    HW2 8406   1.639   0.502   4.718  0.8609 -1.6066  0.2701
 2160SOL    HW3 8407   1.590   0.566   4.590  0.1144 -2.2360  0.2319
 2160SOL    MW4 8408   1.654   0.548   4.645  0.2501 -0.9498  0.5391
 2161SOL     OW 8409   4.261   3.779   5.331 -0.0953 -0.3152 -0.1387
 2161SOL    HW2 8410   4.265   3.842   5.260 -1.0726  1.6483  1.4443
 2161SOL    HW3 8411   4.231   3.829   5.407 -0.6986 -2.6457  1.2864
 2161SOL    MW4 8412   4.258   3.794   5.332 -0.3039 -0.3636  0.2582
 2162SOL     OW 8413   6.096   4.476   3.201  0.1198 -0.1759 -0.0117
 2162SOL    HW2 8414   6.011   4.497   3.161  0.2635  0.3352 -0.0617
 2162SOL    HW3 8415   6.145   4.431   3.132 -0.6319 -1.8112  0.4772
 2162SOL    MW4 8416   6.091   4.473   3.187  0.0396 -0.3242  0.0462
 2163SOL     OW 8417   6.366   0.887   3.131 -0.0189  0.8185  0.7182
 2163SOL    HW2 8418   6.421   0.849   3.200  0.9875  0.2240 -0.3547
 2163SOL    HW3 8419   6.409   0.859   3.049 -2.3743 -0.3764 -0.2077
 2163SOL    MW4 8420   6.379   0.878   3.129 -0.1969  0.5824  0.4544
 2164SOL     OW 8421   3.714   4.806   1.580  0.3489  0.4393 -0.1618
 2164SOL    HW2 8422   3.794   4.797   1.632  0.7510  0.2697 -0.8001
 2164SOL    HW3 8423   3.745   4.822   1.491 -0.3038 -0.8955 -0.6591
 2164SOL    MW4 8424   3.729   4.807   1.575  0.3159  0.2408 -0.3116
 2165SOL     OW 8425   3.204   1.169   3.831 -0.1485  0.4644  0.3115
 2165SOL    HW2 8426   3.123   1.149   3.786  0.0058 -0.5771  0.4635
 2165SOL    HW3 8427   3.212   1.101   3.898 -0.0241  1.5520  1.4624
 2165SOL    MW4 8428   3.195   1.158   3.834 -0.1117  0.4705  0.4834
 2166SOL     OW 8429   3.782   4.017   5.246 -0.2246 -0.4611 -0.0742
 2166SOL    HW2 8430   3.703   3.977   5.283 -1.1369 -0.9447 -2.4153
 2166SOL    HW3 8431   3.791   4.100   5.294 -1.2665 -1.0870  1.2795
 2166SOL    MW4 8432   3.773   4.023   5.257 -0.4824 -0.6075 -0.2044
 2167SOL     OW 8433   3.476   3.460   4.481  0.1626  0.2417  0.0748
 2167SOL    HW2 8434   3.475   3.489   4.389 -1.5998 -0.5803 -0.2111
 2167SOL    HW3 8435   3.513   3.533   4.529  0.4208  0.9831 -1.1959
 2167SOL    MW4 8436   3.481   3.473   4.475 -0.0359  0.2311 -0.1306
 2168SOL     OW 8437   0.707   1.434   1.097  0.7995  0.3050 -0.0655
 2168SOL    HW2 8438   0.650   1.507   1.122 -0.0045  0.2031 -1.5013
 2168SOL    HW3 8439   0.733   1.394   1.180 -1.6747  0.0311  0.6532
 2168SOL    MW4 8440   0.703   1.438   1.111  0.3670  0.2554 -0.1601
 2169SOL     OW 8441   2.727   0.713   2.610  0.0767 -0.3445 -0.3520
 2169SOL    HW2 8442   2.803   0.761   2.643  0.6432 -0.1951 -1.8191
 2169SOL    HW3 8443   2.691   0.670   2.688  0.0031  1.8017  0.8890
 2169SOL    MW4 8444   2.732   0.714   2.625  0.1418 -0.0417 -0.3819
 2170SOL     OW 8445   6.422   1.054   4.821  0.2724  0.4846  0.5785
 2170SOL    HW2 8446   6.355   0.998   4.859 -0.6916  0.1615 -1.4284
 2170SOL    HW3 8447   6.424   1.132   4.877 -1.4892  0.3155  0.9206
 2170SOL    MW4 8448   6.414   1.057   4.833 -0.0872  0.4197  0.3588
 2171SOL     OW 8449   4.920   4.877   2.229 -0.0152  0.2867  0.6674
 2171SOL    HW2 8450   4.993   4.921   2.274  0.1199 -1.1171  1.8982
 2171SOL    HW3 8451   4.845   4.889   2.289 -0.5377  0.7827 -0.0714
 2171SOL    MW4 8452   4.919   4.885   2.243 -0.0663  0.1669  0.7323
 2172SOL     OW 8453   4.106   5.310   0.741 -0.0402 -0.5696 -0.0227
 2172SOL    HW2 8454   4.198   5.290   0.721 -0.3791 -2.1232 -0.1863
 2172SOL    HW3 8455   4.056   5.245   0.692 -1.1742 -0.5045  0.9973
 2172SOL    MW4 8456   4.112   5.299   0.732 -0.2346 -0.7660  0.0903
 2173SOL     OW 8457   1.303   1.204   2.724  0.1271 -0.3672 -0.4727
 2173SOL    HW2 8458   1.391   1.181   2.693  0.5605 -1.1852  1.2173
 2173SOL    HW3 8459   1.250   1.127   2.706  0.0361 -0.3039 -0.4755
 2173SOL    MW4 8460   1.308   1.191   2.718  0.1723 -0.4668 -0.2501
 2174SOL     OW 8461   5.428   5.830   0.403 -0.5922 -0.2114 -0.2419
 2174SOL    HW2 8462   5.462   5.756   0.452  0.2405  1.8749  2.6554
 2174SOL    HW3 8463   5.340   5.803   0.375 -0.4192 -2.1579  0.9600
 2174SOL    MW4 8464   5.421   5.817   0.406 -0.4595 -0.1930  0.2989
 2175SOL     OW 8465   3.054   3.728   2.164 -0.3608 -0.1393 -0.2862
 2175SOL    HW2 8466   3.076   3.771   2.246  2.1802 -1.5998 -0.0953
 2175SOL    HW3 8467   3.082   3.637   2.176 -1.9089 -0.9297 -2.0386
 2175SOL    MW4 8468   3.061   3.722   2.176 -0.2298 -0.4363 -0.4922
 2176SOL     OW 8469   3.644   5.989   1.959  0.2824 -0.0832 -0.0250
 2176SOL    HW2 8470   3.637   5.894   1.964 -2.9940  0.0843  0.8932
 2176SOL    HW3 8471   3.715   6.011   2.019  1.0973 -1.9237 -0.2531
 2176SOL    MW4 8472   3.652   5.980   1.968 -0.0423 -0.3039  0.0660
 2177SOL     OW 8473   0.023   1.396   5.469  0.4133  0.5448  0.5365
 2177SOL    HW2 8474   0.118   1.396   5.458  0.2691  0.8198 -0.8619
 2177SOL    HW3 8475   0.010   1.366   5.559  1.8162  0.4869  0.7507
 2177SOL    MW4 8476   0.034   1.392   5.480  0.5793  0.5734  0.3803
 2178SOL     OW 8477   5.264   1.519   4.146 -0.1942  0.6006 -0.1270
 2178SOL    HW2 8478   5.177   1.531   4.185 -0.7134 -2.0254 -0.2944
 2178SOL    HW3 8479   5.252   1.450   4.080  1.9708  0.2731 -0.2678
 2178SOL    MW4 8480   5.251   1.511   4.142  0.0230  0.2109 -0.1677
 2179SOL     OW 8481   6.297   4.870   5.157  0.2026 -0.4854  0.4312
 2179SOL    HW2 8482   6.303   4.840   5.248  0.9148 -1.0888  0.1954
 2179SOL    HW3 8483   6.268   4.792   5.108  1.1630 -0.5523 -0.0551
 2179SOL    MW4 8484   6.294   4.856   5.162  0.4233 -0.5738  0.3359
 2180SOL     OW 8485   6.061   6.067   4.456 -0.3692  0.1413  0.4398
 2180SOL    HW2 8486   6.002   6.020   4.398 -0.2339 -1.0644  1.2358
 2180SOL    HW3 8487   6.069   6.155   4.418 -1.9300  0.0336 -0.1805
 2180SOL    MW4 8488   6.054   6.073   4.444 -0.5573 -0.0320  0.4630
 2181SOL     OW 8489   2.216   0.663   5.153 -0.2300 -0.7801 -0.8148
 2181SOL    HW2 8490   2.201   0.715   5.232  0.2120  0.7203 -1.6707
 2181SOL    HW3 8491   2.131   0.625   5.132 -0.5347 -0.5089 -0.0863
 2181SOL    MW4 8492   2.203   0.665   5.161 -0.2119 -0.5463 -0.8316
 2182SOL     OW 8493   5.616   0.526   0.326 -0.0668 -0.1050 -0.5927
 2182SOL    HW2 8494   5.673   0.483   0.390 -0.2355  0.8173  0.1868
 2182SOL    HW3 8495   5.533   0.479   0.332 -1.2435  2.1133  2.4047
 2182SOL    MW4 8496   5.613   0.514   0.335 -0.2443  0.3093 -0.0943
 2183SOL     OW 8497   4.180   0.859   3.774 -0.0089  0.2422 -0.0064
 2183SOL    HW2 8498   4.128   0.788   3.738  1.6407 -0.0308 -2.0236
 2183SOL    HW3 8499   4.144   0.874   3.861 -1.8618 -1.5076 -0.4174
 2183SOL    MW4 8500   4.168   0.852   3.781 -0.0358 -0.0247 -0.3268
 2184SOL     OW 8501   1.216   0.416   1.537  0.6480  0.3322  0.3608
 2184SOL    HW2 8502   1.211   0.342   1.598  1.3959 -0.1306 -0.1280
 2184SOL    HW3 8503   1.217   0.375   1.450 -2.4550  1.0348 -0.1229
 2184SOL    MW4 8504   1.216   0.401   1.533  0.3373  0.3638  0.2325
 2185SOL     OW 8505   0.492   0.850   4.784 -0.2797  0.5101  0.1766
 2185SOL    HW2 8506   0.495   0.861   4.880  2.1534  2.3729  0.0126
 2185SOL    HW3 8507   0.412   0.894   4.757 -0.9010  0.1269  1.3334
 2185SOL    MW4 8508   0.482   0.857   4.793 -0.0406  0.7053  0.3076
 2186SOL     OW 8509   5.794   5.464   4.153  0.4220  0.0551  0.0109
 2186SOL    HW2 8510   5.734   5.504   4.217  0.0787 -1.2045  0.4968
 2186SOL    HW3 8511   5.810   5.534   4.090  1.7560  1.7890  2.1020
 2186SOL    MW4 8512   5.788   5.479   4.153  0.5527  0.1176  0.3509
 2187SOL     OW 8513   0.339   0.436   2.132 -0.2558 -0.0388 -0.3260
 2187SOL    HW2 8514   0.402   0.366   2.150  0.8754  1.0503  0.1632
 2187SOL    HW3 8515   0.309   0.419   2.043  0.0883 -1.0744 -0.2540
 2187SOL    MW4 8516   0.344   0.425   2.122 -0.0612 -0.0317 -0.2520
 2188SOL     OW 8517   1.712   3.523   3.376 -0.1217 -0.6375  0.6664
 2188SOL    HW2 8518   1.695   3.456   3.310 -0.5408 -1.0064  1.1410
 2188SOL    HW3 8519   1.631   3.574   3.380  0.0201 -0.4090  0.6628
 2188SOL    MW4 8520   1.699   3.521   3.368 -0.1583 -0.6560  0.7285
 2189SOL     OW 8521   0.376   2.200   4.703  0.1351  0.0519  0.7777
 2189SOL    HW2 8522   0.406   2.283   4.666  2.3677 -0.8064  0.4814
 2189SOL    HW3 8523   0.357   2.219   4.795  0.9932  0.8209  0.8035
 2189SOL    MW4 8524   0.378   2.213   4.710  0.5429  0.0401  0.7420
 2190SOL     OW 8525   2.441   1.990   5.702 -0.1291  0.0255  0.0754
 2190SOL    HW2 8526   2.522   2.023   5.739 -0.9301  1.3739  0.6774
 2190SOL    HW3 8527   2.450   2.003   5.608 -0.6375  2.5984  0.3199
 2190SOL    MW4 8528   2.453   1.996   5.694 -0.3018  0.5429  0.1871
 2191SOL     OW 8529   5.979   2.317   1.641 -0.3640 -0.2160  0.1373
 2191SOL    HW2 8530   6.017   2.404   1.653  0.1267 -0.2711 -0.9506
 2191SOL    HW3 8531   5.891   2.334   1.609 -0.6357 -0.1156  0.9143
 2191SOL    MW4 8532   5.972   2.330   1.638 -0.3351 -0.2100  0.0963
 2192SOL     OW 8533   1.377   1.972   5.901  0.4030  0.0408 -1.0012
 2192SOL    HW2 8534   1.454   1.956   5.956 -1.3723 -1.8195  1.1103
 2192SOL    HW3 8535   1.413   2.012   5.821  3.2849  1.3127  0.7772
 2192SOL    MW4 8536   1.392   1.975   5.897  0.5490 -0.0368 -0.4880
 2193SOL     OW 8537   2.917   4.109   0.941 -0.5239 -0.4883  0.2056
 2193SOL    HW2 8538   2.837   4.136   0.896  0.3867 -3.1328 -3.4204
 2193SOL    HW3 8539   2.987   4.154   0.893  0.3739 -1.0141  0.9987
 2193SOL    MW4 8540   2.916   4.119   0.929 -0.2853 -0.9066 -0.1681
 2194SOL     OW 8541   3.567   5.871   2.480 -0.3837  0.5702  0.0133
 2194SOL    HW2 8542   3.572   5.822   2.398  2.0391  0.3067  0.2317
 2194SOL    HW3 8543   3.572   5.963   2.455 -1.9080  0.6086 -0.2253
 2194SOL    MW4 8544   3.569   5.876   2.466 -0.2651  0.5405  0.0107
 2195SOL     OW 8545   3.522   0.419   1.218  0.3038 -0.1493 -0.6234
 2195SOL    HW2 8546   3.594   0.438   1.157  0.7931  1.7159  0.4591
 2195SOL    HW3 8547   3.444   0.455   1.174  0.3995 -0.1673 -0.8102
 2195SOL    MW4 8548   3.521   0.426   1.204  0.3810  0.0944 -0.5052
 2196SOL     OW 8549   5.190   1.363   5.026  0.4595  0.1914  0.1395
 2196SOL    HW2 8550   5.256   1.322   5.082  1.2121  0.4876 -0.5061
 2196SOL    HW3 8551   5.231   1.366   4.939 -0.0203  1.2614 -0.0641
 2196SOL    MW4 8552   5.204   1.358   5.022  0.4955  0.3717  0.0275
 2197SOL     OW 8553   0.847   6.181   4.863  0.0802 -0.5183 -0.4621
 2197SOL    HW2 8554   0.831   6.092   4.896 -0.2056 -0.3182 -0.0516
 2197SOL    HW3 8555   0.826   6.238   4.937  1.5865 -0.1737 -0.2694
 2197SOL    MW4 8556   0.842   6.176   4.878  0.2412 -0.4464 -0.3825
 2198SOL     OW 8557   3.278   1.533   4.457 -0.3520  0.2753  0.3006
 2198SOL    HW2 8558   3.336   1.551   4.531  0.7678 -1.4813 -0.0840
 2198SOL    HW3 8559   3.284   1.438   4.445  0.0446  0.5716 -2.4707
 2198SOL    MW4 8560   3.286   1.523   4.465 -0.1520  0.0826 -0.1158
 2199SOL     OW 8561   5.246   2.577   3.482 -0.1606  0.6945  0.1816
 2199SOL    HW2 8562   5.232   2.520   3.558 -0.1825  2.3478  1.4613
 2199SOL    HW3 8563   5.252   2.516   3.408 -2.4426 -0.8501  1.1495
 2199SOL    MW4 8564   5.245   2.561   3.482 -0.4646  0.7088  0.4782
 2200SOL     OW 8565   0.856   2.503   2.381  0.0889  0.0243  0.0869
 2200SOL    HW2 8566   0.844   2.510   2.287 -2.0330  2.5915  0.4472
 2200SOL    HW3 8567   0.768   2.486   2.415  0.5405  0.7587  1.7160
 2200SOL    MW4 8568   0.843   2.501   2.373 -0.1315  0.4599  0.3494
 2201SOL     OW 8569   6.112   2.518   1.375  0.1638  0.7464  0.3550
 2201SOL    HW2 8570   6.139   2.551   1.461 -2.2563  1.0749  1.0636
 2201SOL    HW3 8571   6.162   2.437   1.363  0.5296  0.6844  2.0832
 2201SOL    MW4 8572   6.123   2.512   1.385 -0.1072  0.7816  0.6765
 2202SOL     OW 8573   2.185   1.900   1.281  0.3656 -0.8273  0.5158
 2202SOL    HW2 8574   2.106   1.859   1.315  0.4415 -0.7066  0.8459
 2202SOL    HW3 8575   2.224   1.943   1.357  1.4272 -1.9553  0.6401
 2202SOL    MW4 8576   2.180   1.901   1.295  0.5157 -0.9602  0.5757
 2203SOL     OW 8577   5.461   1.831   4.135 -0.1449 -0.0412  0.5804
 2203SOL    HW2 8578   5.457   1.753   4.080  2.2818 -0.7027  1.2066
 2203SOL    HW3 8579   5.550   1.831   4.170 -1.1070  1.1604  3.3243
 2203SOL    MW4 8580   5.472   1.820   4.133  0.0483  0.0301  1.0250
 2204SOL     OW 8581   3.648   3.262   2.398  0.4692 -0.0632 -0.5318
 2204SOL    HW2 8582   3.684   3.305   2.320  1.3647 -1.1686 -0.7650
 2204SOL    HW3 8583   3.557   3.292   2.402  0.7606  0.9955 -1.2728
 2204SOL    MW4 8584   3.641   3.271   2.388  0.6258 -0.0693 -0.6603
 2205SOL     OW 8585   4.601   5.319   2.333 -0.0748 -0.2045  0.1170
 2205SOL    HW2 8586   4.604   5.224   2.328  2.8192 -0.1873 -0.6223
 2205SOL    HW3 8587   4.643   5.340   2.417 -1.4781  0.4290  0.6851
 2205SOL    MW4 8588   4.607   5.310   2.344  0.1219 -0.1187  0.0944
 2206SOL     OW 8589   1.846   6.293   6.074 -0.4196 -0.2568 -0.0737
 2206SOL    HW2 8590   1.804   6.207   6.078 -0.7980 -0.0772 -0.1178
 2206SOL    HW3 8591   1.793   6.348   6.132 -0.2183 -0.0379 -0.0969
 2206SOL    MW4 8592   1.833   6.289   6.082 -0.4430 -0.2043 -0.0826
 2207SOL     OW 8593   4.401   5.816   4.052  0.0116 -0.0201  0.3153
 2207SOL    HW2 8594   4.478   5.779   4.097  1.2368  0.8186 -0.9972
 2207SOL    HW3 8595   4.347   5.740   4.031  1.4205 -0.8697 -0.4042
 2207SOL    MW4 8596   4.404   5.801   4.055  0.3591 -0.0215  0.0472
 2208SOL     OW 8597   0.856   4.941   0.048 -0.2242 -0.8224  0.6477
 2208SOL    HW2 8598   0.945   4.929   0.016 -0.9326  0.2877 -1.9412
 2208SOL    HW3 8599   0.867   4.972   0.138  1.9540 -1.1024  0.5332
 2208SOL    MW4 8600   0.869   4.943   0.056 -0.0303 -0.7129  0.2910
 2209SOL     OW 8601   2.780   3.011   4.317 -0.3078  0.0778  0.5639
 2209SOL    HW2 8602   2.831   3.092   4.319  0.7032 -0.5496  0.9144
 2209SOL    HW3 8603   2.837   2.945   4.356 -1.3761 -0.6710  0.9300
 2209SOL    MW4 8604   2.794   3.013   4.322 -0.3154 -0.1038  0.6585
 2210SOL     OW 8605   3.765   2.277   3.788  0.6017  0.3961 -0.0568
 2210SOL    HW2 8606   3.674   2.249   3.796  0.6108  0.5090  0.4948
 2210SOL    HW3 8607   3.770   2.318   3.702 -0.4301  2.3642  0.7305
 2210SOL    MW4 8608   3.754   2.279   3.778  0.4667  0.6706  0.1198
 2211SOL     OW 8609   4.951   4.977   0.379 -0.2112  0.2907  0.0450
 2211SOL    HW2 8610   4.938   5.071   0.364  0.2748  0.2567 -0.6101
 2211SOL    HW3 8611   5.015   4.950   0.313  1.1191 -0.1061  1.4209
 2211SOL    MW4 8612   4.958   4.986   0.369  0.0284  0.2339  0.1401
 2212SOL     OW 8613   3.857   1.416   4.809  0.1838 -0.4392 -0.0845
 2212SOL    HW2 8614   3.858   1.322   4.795  0.4347 -0.1681 -2.1529
 2212SOL    HW3 8615   3.807   1.427   4.890  0.4953 -2.3466  0.4247
 2212SOL    MW4 8616   3.850   1.405   4.818  0.2580 -0.6551 -0.2902
 2213SOL     OW 8617   1.960   0.762   0.553 -0.0444  0.2519  0.7188
 2213SOL    HW2 8618   1.982   0.852   0.580 -1.2951  0.7764  0.0870
 2213SOL    HW3 8619   1.986   0.758   0.461 -1.9027  0.6932  0.1281
 2213SOL    MW4 8620   1.966   0.774   0.544 -0.4546  0.3793  0.5575
 2214SOL     OW 8621   3.613   5.093   0.979  0.1116  0.3486  0.3097
 2214SOL    HW2 8622   3.647   5.154   0.913  0.9256  0.0882  0.4752
 2214SOL    HW3 8623   3.635   5.135   1.063  1.8631 -0.7604  0.4507
 2214SOL    MW4 8624   3.621   5.107   0.981  0.4501  0.1679  0.3501
 2215SOL     OW 8625   6.143   0.124   0.729  0.3505  0.2069  0.0565
 2215SOL    HW2 8626   6.139   0.186   0.803 -0.0215  0.0611  0.1601
 2215SOL    HW3 8627   6.213   0.063   0.753 -0.2002 -0.2268  0.5976
 2215SOL    MW4 8628   6.152   0.124   0.742  0.2287  0.1305  0.1415
 2216SOL     OW 8629   4.798   1.449   2.139  0.5768 -0.3104 -0.0740
 2216SOL    HW2 8630   4.861   1.391   2.182  1.8480 -0.1629 -1.6210
 2216SOL    HW3 8631   4.741   1.480   2.210  1.9850 -0.7840  1.3265
 2216SOL    MW4 8632   4.799   1.445   2.154  0.9303 -0.3534 -0.0933
 2217SOL     OW 8633   0.406   4.123   2.298  0.4229 -0.4614  0.2700
 2217SOL    HW2 8634   0.486   4.088   2.337  0.5128 -0.9463 -0.3418
 2217SOL    HW3 8635   0.427   4.214   2.278  1.0349 -0.7554 -0.4627
 2217SOL    MW4 8636   0.419   4.130   2.301  0.5155 -0.5641  0.0926
 2218SOL     OW 8637   5.685   2.952   4.151  0.2066  0.1272 -0.4749
 2218SOL    HW2 8638   5.671   2.935   4.058  0.2187  0.1848 -0.4877
 2218SOL    HW3 8639   5.699   3.047   4.156 -0.4902  0.2358 -0.3335
 2218SOL    MW4 8640   5.685   2.962   4.139  0.1163  0.1491 -0.4579
 2219SOL     OW 8641   3.590   2.526   3.246  0.2878 -0.8248  0.1115
 2219SOL    HW2 8642   3.681   2.532   3.275 -0.2722 -0.5425  1.9447
 2219SOL    HW3 8643   3.595   2.479   3.162  2.2167  0.3883 -0.5404
 2219SOL    MW4 8644   3.603   2.520   3.238  0.4684 -0.6275  0.2674
 2220SOL     OW 8645   2.125   5.082   6.327  0.1734 -0.2584  0.0992
 2220SOL    HW2 8646   2.133   5.174   6.354  0.6285  0.3118 -1.8435
 2220SOL    HW3 8647   2.166   5.033   6.398  1.2627  1.1431  0.4773
 2220SOL    MW4 8648   2.131   5.088   6.340  0.3771  0.0017 -0.1072
 2221SOL     OW 8649   2.243   2.886   4.573 -0.4335 -0.0858 -0.7536
 2221SOL    HW2 8650   2.184   2.841   4.634  0.9605 -0.9608 -0.0061
 2221SOL    HW3 8651   2.308   2.928   4.629  1.1220 -1.2580 -1.6159
 2221SOL    MW4 8652   2.244   2.886   4.588 -0.0444 -0.3559 -0.7687
 2222SOL     OW 8653   2.092   1.984   5.949  0.3850 -0.2630 -0.7433
 2222SOL    HW2 8654   2.140   2.060   5.918 -0.1772  0.3424 -0.1417
 2222SOL    HW3 8655   2.083   1.929   5.871  0.4907  0.4441 -1.2647
 2222SOL    MW4 8656   2.097   1.986   5.934  0.3248 -0.0898 -0.7327
 2223SOL     OW 8657   1.335   2.257   0.347  0.4929 -0.1220  0.0502
 2223SOL    HW2 8658   1.297   2.171   0.367  1.1414  0.1262  2.8591
 2223SOL    HW3 8659   1.416   2.237   0.301  0.3709 -1.0073  0.1882
 2223SOL    MW4 8660   1.341   2.243   0.344  0.5624 -0.2061  0.4390
 2224SOL     OW 8661   3.712   1.873   3.170 -0.1747 -0.1494  0.1962
 2224SOL    HW2 8662   3.709   1.787   3.128  1.2613  0.5067 -1.3567
 2224SOL    HW3 8663   3.786   1.869   3.230  0.4199  0.2406 -0.4940
 2224SOL    MW4 8664   3.721   1.861   3.173  0.0932 -0.0114 -0.0997
 2225SOL     OW 8665   1.329   3.880   4.250 -0.4549  0.4834  0.2989
 2225SOL    HW2 8666   1.290   3.964   4.227  0.9522  0.7692 -1.2164
 2225SOL    HW3 8667   1.368   3.848   4.168  0.0675 -1.0828  1.1131
 2225SOL    MW4 8668   1.329   3.887   4.236 -0.2003  0.3145  0.2064
 2226SOL     OW 8669   4.730   5.877   2.752 -0.1529  0.4981  0.0367
 2226SOL    HW2 8670   4.755   5.933   2.826 -0.2224  1.7002 -0.8207
 2226SOL    HW3 8671   4.747   5.931   2.675  0.0866 -0.7984 -0.8452
 2226SOL    MW4 8672   4.736   5.891   2.751 -0.1305  0.4857 -0.1928
 2227SOL     OW 8673   2.570   4.752   1.989  0.0294 -0.1448  1.1973
 2227SOL    HW2 8674   2.538   4.829   2.036 -2.9726 -0.7835  0.3737
 2227SOL    HW3 8675   2.541   4.677   2.042 -0.9096 -0.7961 -0.1907
 2227SOL    MW4 8676   2.562   4.752   2.002 -0.4906 -0.3150  0.9055
 2228SOL     OW 8677   5.281   2.045   1.179 -0.5646  0.1199 -0.1349
 2228SOL    HW2 8678   5.362   2.007   1.148 -0.8008 -1.0978  0.6686
 2228SOL    HW3 8679   5.240   2.082   1.101  0.4090  0.1086 -0.6653
 2228SOL    MW4 8680   5.286   2.045   1.165 -0.4673 -0.0423 -0.0989
 2229SOL     OW 8681   1.090   5.593   1.165  0.0100 -0.4492  0.1097
 2229SOL    HW2 8682   1.015   5.621   1.113  0.3858 -0.3473 -0.3842
 2229SOL    HW3 8683   1.154   5.663   1.154 -0.1818 -0.0639  1.3214
 2229SOL    MW4 8684   1.088   5.606   1.157  0.0343 -0.3849  0.2044
 2230SOL     OW 8685   4.573   2.406   2.569 -0.1933  0.3167  0.0236
 2230SOL    HW2 8686   4.563   2.370   2.481  0.9506  1.2401 -0.5130
 2230SOL    HW3 8687   4.637   2.477   2.559 -0.5373  0.8717  1.4813
 2230SOL    MW4 8688   4.580   2.411   2.556 -0.0878  0.5118  0.1451
 2231SOL     OW 8689   4.160   0.892   1.946 -0.2575 -0.2572  0.3721
 2231SOL    HW2 8690   4.077   0.922   1.909  0.1947  0.7029  0.1170
 2231SOL    HW3 8691   4.144   0.889   2.040  0.4900  3.7223  0.8045
 2231SOL    MW4 8692   4.147   0.896   1.954 -0.0992  0.3945  0.3955
 2232SOL     OW 8693   3.024   1.900   2.927  0.1165 -0.3604 -0.5594
 2232SOL    HW2 8694   3.065   1.918   2.843 -1.4825  1.6867 -0.9882
 2232SOL    HW3 8695   2.942   1.858   2.906  0.5849 -1.6738  0.1243
 2232SOL    MW4 8696   3.019   1.897   2.913 -0.0326 -0.2636 -0.5258
 2233SOL     OW 8697   2.985   5.483   4.961 -0.0394 -0.1768  0.1370
 2233SOL    HW2 8698   2.950   5.571   4.971  0.3988 -0.0028  0.1475
 2233SOL    HW3 8699   2.920   5.427   5.003  0.6252  0.3169  1.9051
 2233SOL    MW4 8700   2.971   5.487   4.968  0.1061 -0.0887  0.3717
 2234SOL     OW 8701   4.972   0.777   5.333 -0.2202 -0.0896 -0.6924
 2234SOL    HW2 8702   4.971   0.716   5.407 -2.1758  0.1026 -0.5223
 2234SOL    HW3 8703   5.058   0.763   5.292  0.7625 -0.4838  1.3519
 2234SOL    MW4 8704   4.984   0.767   5.337 -0.3486 -0.1162 -0.4002
 2235SOL     OW 8705   1.271   5.185   2.765  0.4807 -0.3014 -0.4733
 2235SOL    HW2 8706   1.316   5.246   2.823 -0.3203 -1.7796  1.8335
 2235SOL    HW3 8707   1.210   5.239   2.715  1.7041  1.1106 -0.4820
 2235SOL    MW4 8708   1.269   5.200   2.766  0.5365 -0.3102 -0.1701
 2236SOL     OW 8709   1.655   2.502   4.135  0.1564  0.1515 -0.1949
 2236SOL    HW2 8710   1.745   2.488   4.105 -0.5035 -2.5629 -1.2631
 2236SOL    HW3 8711   1.638   2.429   4.194 -1.1886  0.9429  0.4455
 2236SOL    MW4 8712   1.665   2.490   4.138 -0.1081 -0.1022 -0.2513
 2237SOL     OW 8713   0.834   4.990   1.399  0.1534 -0.2146  0.1522
 2237SOL    HW2 8714   0.797   4.963   1.483 -1.3375  0.2017 -0.3289
 2237SOL    HW3 8715   0.898   4.923   1.378 -0.1273 -0.8278  1.1747
 2237SOL    MW4 8716   0.837   4.978   1.407 -0.0804 -0.2406  0.2236
 2238SOL     OW 8717   2.632   1.105   2.974  0.0165  0.6041  0.1015
 2238SOL    HW2 8718   2.560   1.166   2.957 -0.2989  0.3531  0.5280
 2238SOL    HW3 8719   2.697   1.158   3.020  0.8552  1.2751 -1.7883
 2238SOL    MW4 8720   2.631   1.120   2.978  0.0856  0.6595 -0.0915
 2239SOL     OW 8721   0.821   5.705   0.339 -0.4366 -0.2589  0.2826
 2239SOL    HW2 8722   0.787   5.694   0.428  0.1176 -1.1027  0.4004
 2239SOL    HW3 8723   0.865   5.622   0.320  0.6127  0.4071 -0.2736
 2239SOL    MW4 8724   0.822   5.693   0.348 -0.2250 -0.2823  0.2247
 2240SOL     OW 8725   0.800   0.841   0.617 -0.1059 -0.2041  0.1002
 2240SOL    HW2 8726   0.752   0.775   0.568  1.3882 -1.1841 -0.1116
 2240SOL    HW3 8727   0.812   0.913   0.555 -0.7649 -0.1981 -0.0252
 2240SOL    MW4 8728   0.796   0.842   0.603  0.0043 -0.3326  0.0557
 2241SOL     OW 8729   3.682   0.279   6.240 -0.1345 -0.2595 -0.0077
 2241SOL    HW2 8730   3.647   0.213   6.300  1.2170 -0.8381  0.1939
 2241SOL    HW3 8731   3.672   0.242   6.153  0.4575 -0.6701  0.0924
 2241SOL    MW4 8732   3.676   0.266   6.237  0.1219 -0.3900  0.0321
 2242SOL     OW 8733   0.350   0.872   1.645 -0.2666 -0.0609 -0.5074
 2242SOL    HW2 8734   0.422   0.824   1.604  0.5411  0.8932 -0.2464
 2242SOL    HW3 8735   0.392   0.943   1.693 -1.4346  1.2925 -1.3709
 2242SOL    MW4 8736   0.365   0.875   1.646 -0.3141  0.2435 -0.5869
 2243SOL     OW 8737   3.408   0.847   0.875 -0.2721 -0.0612  0.2683
 2243SOL    HW2 8738   3.496   0.876   0.850  0.7239 -1.3835  1.9723
 2243SOL    HW3 8739   3.398   0.876   0.965 -1.9429  0.7260 -0.1296
 2243SOL    MW4 8740   3.418   0.855   0.883 -0.3611 -0.1318  0.4406
 2244SOL     OW 8741   3.560   0.746   4.138  0.0614 -0.2483  0.1283
 2244SOL    HW2 8742   3.493   0.679   4.124  2.5684 -2.6052 -1.7701
 2244SOL    HW3 8743   3.614   0.711   4.209  1.6534 -0.5841 -1.1787
 2244SOL    MW4 8744   3.559   0.732   4.145  0.6022 -0.6036 -0.2946
 2245SOL     OW 8745   0.140   0.476   5.513  0.4616 -0.2424  0.3724
 2245SOL    HW2 8746   0.158   0.466   5.606 -1.1666 -0.3640  0.6982
 2245SOL    HW3 8747   0.219   0.443   5.470  0.8715 -1.0464  1.6864
 2245SOL    MW4 8748   0.153   0.470   5.519  0.3008 -0.3645  0.5887
 2246SOL     OW 8749   0.800   6.384   0.008  0.3558 -0.7279  0.0608
 2246SOL    HW2 8750   0.840   6.331   0.077  2.4504  0.3323 -0.2631
 2246SOL    HW3 8751   0.720   6.418   0.049  0.8715 -1.1813  1.5301
 2246SOL    MW4 8752   0.794   6.382   0.023  0.7002 -0.6478  0.2119
 2247SOL     OW 8753   2.852   2.071   1.521  0.1840  0.3417 -0.1947
 2247SOL    HW2 8754   2.802   1.997   1.487  1.3832 -1.0672  0.9369
 2247SOL    HW3 8755   2.939   2.059   1.482  0.1198  1.8077 -0.8454
 2247SOL    MW4 8756   2.857   2.060   1.511  0.3337  0.3492 -0.1313
 2248SOL     OW 8757   0.202   0.736   4.678  0.4727 -0.4441  0.2531
 2248SOL    HW2 8758   0.218   0.829   4.662  0.1310 -0.1393  1.5152
 2248SOL    HW3 8759   0.276   0.692   4.638 -0.5435  0.1407 -2.4880
 2248SOL    MW4 8760   0.214   0.743   4.671  0.2936 -0.3267  0.0580
 2249SOL     OW 8761   0.195   1.866   2.910  0.1627 -0.2935 -0.1110
 2249SOL    HW2 8762   0.250   1.792   2.935 -1.8534 -1.4593  1.0867
 2249SOL    HW3 8763   0.225   1.889   2.822  1.1631 -2.2064 -0.3189
 2249SOL    MW4 8764   0.206   1.859   2.902  0.0287 -0.6997  0.0196
 2250SOL     OW 8765   3.096   3.563   3.187 -0.5428 -0.4474 -0.8602
 2250SOL    HW2 8766   3.140   3.516   3.258  0.6198  0.9171 -0.6275
 2250SOL    HW3 8767   3.168   3.604   3.138 -1.4676  4.0433  1.0431
 2250SOL    MW4 8768   3.112   3.562   3.190 -0.5114  0.3251 -0.5784
 2251SOL     OW 8769   0.020   0.798   2.830  0.9908  0.2080  0.6873
 2251SOL    HW2 8770  -0.018   0.711   2.833  1.4705 -0.0336  0.0895
 2251SOL    HW3 8771   0.099   0.788   2.777  0.0228  1.3847 -1.0985
 2251SOL    MW4 8772   0.026   0.785   2.823  0.9264  0.3314  0.3728
 2252SOL     OW 8773   1.800   2.552   2.037 -0.0911  0.3842 -0.6149
 2252SOL    HW2 8774   1.789   2.647   2.043 -0.3569  0.3667 -0.8398
 2252SOL    HW3 8775   1.711   2.517   2.043 -0.0535  0.1815 -1.2347
 2252SOL    MW4 8776   1.787   2.560   2.039 -0.1212  0.3552 -0.7264
 2253SOL     OW 8777   1.896   2.400   4.039 -0.2636  0.2992  0.6754
 2253SOL    HW2 8778   1.909   2.308   4.062  1.7235 -0.2163 -1.9381
 2253SOL    HW3 8779   1.965   2.447   4.085  0.5656 -0.0029 -0.2127
 2253SOL    MW4 8780   1.907   2.394   4.048  0.1080  0.1914  0.2134
 2254SOL     OW 8781   5.972   1.027   2.831 -0.2780 -0.1365 -0.0640
 2254SOL    HW2 8782   5.936   1.003   2.917 -0.2685 -0.6505 -0.1943
 2254SOL    HW3 8783   6.012   0.946   2.799  1.3749  0.5373  0.2516
 2254SOL    MW4 8784   5.972   1.013   2.838 -0.0587 -0.1154 -0.0395
 2255SOL     OW 8785   5.921   4.704   4.505 -0.7978  0.4470  0.2715
 2255SOL    HW2 8786   5.992   4.765   4.484  0.3514 -1.0598 -0.4969
 2255SOL    HW3 8787   5.861   4.754   4.559 -0.1993  2.4032 -0.7707
 2255SOL    MW4 8788   5.923   4.719   4.509 -0.5672  0.5063  0.0326
 2256SOL     OW 8789   2.794   3.216   2.352 -0.3905  0.1023 -0.3061
 2256SOL    HW2 8790   2.709   3.237   2.314  0.1153  1.8668 -0.5185
 2256SOL    HW3 8791   2.857   3.242   2.285  0.3478 -1.7934 -0.4334
 2256SOL    MW4 8792   2.791   3.222   2.338 -0.2264  0.0850 -0.3509
 2257SOL     OW 8793   1.348   1.096   3.458  0.5173 -0.0266  0.3230
 2257SOL    HW2 8794   1.442   1.113   3.449  0.7314 -1.3911 -0.2985
 2257SOL    HW3 8795   1.341   1.001   3.458 -1.0148  0.0205 -1.5106
 2257SOL    MW4 8796   1.359   1.086   3.456  0.3434 -0.2004 -0.0009
 2258SOL     OW 8797   1.609   1.445   1.662  0.0447  0.0767  0.2577
 2258SOL    HW2 8798   1.700   1.450   1.635  0.4826 -1.4811  1.3410
 2258SOL    HW3 8799   1.611   1.408   1.750 -1.5648  1.2718  0.8540
 2258SOL    MW4 8800   1.621   1.441   1.670 -0.1098  0.0288  0.4793
 2259SOL     OW 8801   5.756   4.138   2.500 -0.1848  0.8597 -0.0468
 2259SOL    HW2 8802   5.747   4.051   2.461 -1.0698  0.9218 -0.0147
 2259SOL    HW3 8803   5.849   4.158   2.492 -0.0984  0.2537 -0.7954
 2259SOL    MW4 8804   5.767   4.129   2.494 -0.2902  0.7879 -0.1413
 2260SOL     OW 8805   1.781   4.728   0.141 -0.0489  0.0222 -0.3419
 2260SOL    HW2 8806   1.768   4.756   0.051  1.3438 -2.5702 -1.4551
 2260SOL    HW3 8807   1.712   4.664   0.157 -0.0777  0.2078  0.3184
 2260SOL    MW4 8808   1.770   4.723   0.131  0.1310 -0.2954 -0.4017
 2261SOL     OW 8809   2.536   2.521   0.702  0.2030 -0.0991 -0.6371
 2261SOL    HW2 8810   2.530   2.595   0.641  0.8143 -0.4645 -1.1550
 2261SOL    HW3 8811   2.464   2.463   0.677 -0.0750  0.1570 -0.4439
 2261SOL    MW4 8812   2.526   2.523   0.690  0.2470 -0.1135 -0.6799
 2262SOL     OW 8813   2.122   3.579   1.726 -0.1930 -0.3741 -0.5880
 2262SOL    HW2 8814   2.065   3.557   1.652 -0.4175 -0.3951 -0.4097
 2262SOL    HW3 8815   2.095   3.519   1.796 -0.8831  0.5145 -0.0629
 2262SOL    MW4 8816   2.111   3.568   1.726 -0.3137 -0.2596 -0.4952
 2263SOL     OW 8817   4.204   1.438   3.693 -0.1843  0.3322 -0.1304
 2263SOL    HW2 8818   4.180   1.482   3.775 -0.6764  0.5607 -0.3893
 2263SOL    HW3 8819   4.276   1.380   3.716 -1.4266 -0.8762  0.8229
 2263SOL    MW4 8820   4.210   1.436   3.707 -0.4131  0.2029 -0.0388
 2264SOL     OW 8821   5.473   2.001   5.366 -0.2834  0.2792 -0.2558
 2264SOL    HW2 8822   5.424   2.063   5.420 -0.5514 -0.0828 -0.0837
 2264SOL    HW3 8823   5.408   1.966   5.305 -0.4371 -0.8065  0.4971
 2264SOL    MW4 8824   5.458   2.005   5.365 -0.3391  0.0882 -0.1338
 2265SOL     OW 8825   5.100   1.929   2.747 -0.0729  0.0748 -0.1384
 2265SOL    HW2 8826   5.014   1.909   2.785  0.5197 -1.4137  0.4742
 2265SOL    HW3 8827   5.086   2.011   2.700 -2.0769 -0.6125 -0.8517
 2265SOL    MW4 8828   5.087   1.937   2.746 -0.2591 -0.2123 -0.1517
 2266SOL     OW 8829   2.859   4.847   6.074 -0.3806 -0.0544  0.6590
 2266SOL    HW2 8830   2.797   4.821   6.142 -1.3151  0.2448 -0.0526
 2266SOL    HW3 8831   2.811   4.835   5.992  0.1409  1.2011  0.1479
 2266SOL    MW4 8832   2.845   4.842   6.072 -0.4351  0.1507  0.4977
 2267SOL     OW 8833   2.295   6.310   1.436 -0.5028  0.3951  0.6470
 2267SOL    HW2 8834   2.257   6.314   1.348 -0.9927  1.9719  0.9055
 2267SOL    HW3 8835   2.338   6.395   1.447  1.0272 -0.4263  1.3002
 2267SOL    MW4 8836   2.296   6.322   1.426 -0.3655  0.4948  0.7673
 2268SOL     OW 8837   0.587   5.380   5.955  0.5538  0.2138 -0.0689
 2268SOL    HW2 8838   0.535   5.455   5.925  0.4276  0.0442 -0.2770
 2268SOL    HW3 8839   0.615   5.337   5.874  0.2150 -0.2464  0.0535
 2268SOL    MW4 8840   0.584   5.385   5.941  0.4925  0.1308 -0.0802
 2269SOL     OW 8841   6.157   0.944   1.657  0.1604  0.2713  0.2376
 2269SOL    HW2 8842   6.240   0.937   1.704 -0.0617  0.5212  0.6719
 2269SOL    HW3 8843   6.099   0.882   1.701  0.7572 -1.6165 -1.4964
 2269SOL    MW4 8844   6.160   0.935   1.669  0.2098  0.0552  0.0661
 2270SOL     OW 8845   5.987   1.777   2.447 -0.2465 -0.3389  0.1243
 2270SOL    HW2 8846   6.063   1.753   2.393 -0.5911 -1.0968 -0.0358
 2270SOL    HW3 8847   6.024   1.832   2.517  0.2630  0.3049 -0.6355
 2270SOL    MW4 8848   6.002   1.781   2.449 -0.2247 -0.3539  0.0029
 2271SOL     OW 8849   0.050   0.129   1.023 -0.2210 -0.0417 -0.0076
 2271SOL    HW2 8850  -0.028   0.098   1.069 -0.3676  2.7055  1.7926
 2271SOL    HW3 8851   0.027   0.124   0.930 -1.4866 -1.7819  0.3426
 2271SOL    MW4 8852   0.037   0.124   1.017 -0.4073  0.0911  0.2761
 2272SOL     OW 8853   0.415   2.765   2.574  0.4925 -0.4225  0.1652
 2272SOL    HW2 8854   0.375   2.679   2.588 -0.9622  0.2367  0.2833
 2272SOL    HW3 8855   0.497   2.746   2.529 -0.0008 -1.8559 -0.1994
 2272SOL    MW4 8856   0.420   2.751   2.570  0.2355 -0.5247  0.1327
 2273SOL     OW 8857   4.523   4.216   3.701 -0.1489  0.3730 -0.4433
 2273SOL    HW2 8858   4.589   4.284   3.707  0.7611 -0.4955 -0.3845
 2273SOL    HW3 8859   4.491   4.222   3.611 -0.3371  1.0966 -0.3361
 2273SOL    MW4 8860   4.527   4.226   3.690 -0.0536  0.3539 -0.4214
 2274SOL     OW 8861   1.761   6.023   6.093 -0.1774 -0.4851 -0.4634
 2274SOL    HW2 8862   1.772   5.969   6.015 -1.7887 -0.7876 -0.5304
 2274SOL    HW3 8863   1.676   5.995   6.129 -1.2356  2.1664 -0.6577
 2274SOL    MW4 8864   1.751   6.012   6.087 -0.5296 -0.1752 -0.4979
 2275SOL     OW 8865   0.973   1.964   0.582  0.1016 -0.0268  0.3156
 2275SOL    HW2 8866   1.032   1.982   0.509  0.5324  1.2462  0.9614
 2275SOL    HW3 8867   1.021   1.902   0.638 -0.2007 -0.9454 -0.4105
 2275SOL    MW4 8868   0.987   1.958   0.580  0.1186  0.0199  0.3050
 2276SOL     OW 8869   1.865   1.279   3.573 -0.1681  0.0962 -0.1324
 2276SOL    HW2 8870   1.929   1.208   3.577 -0.5771 -0.2779 -0.1429
 2276SOL    HW3 8871   1.780   1.236   3.583 -0.4862  0.4631 -1.0572
 2276SOL    MW4 8872   1.862   1.264   3.575 -0.2640  0.0953 -0.2558
 2277SOL     OW 8873   5.545   5.283   4.386 -0.4360  0.2034 -0.0739
 2277SOL    HW2 8874   5.571   5.242   4.304  1.2225 -1.0367  0.9976
 2277SOL    HW3 8875   5.464   5.331   4.365  0.1307  0.2188 -2.4629
 2277SOL    MW4 8876   5.537   5.284   4.373 -0.1424  0.0418 -0.2477
 2278SOL     OW 8877   5.849   5.427   3.003 -0.8001  0.0802 -0.4908
 2278SOL    HW2 8878   5.812   5.339   3.001 -2.1405  0.5843  0.7384
 2278SOL    HW3 8879   5.902   5.432   2.923 -1.5036 -1.4848 -1.1005
 2278SOL    MW4 8880   5.851   5.416   2.992 -1.0698 -0.0598 -0.4091
 2279SOL     OW 8881   3.273   0.865   3.207 -0.4500 -0.0882  0.4017
 2279SOL    HW2 8882   3.287   0.946   3.256 -1.0240  0.1426  0.2044
 2279SOL    HW3 8883   3.191   0.830   3.242 -1.2324  0.4387 -0.8415
 2279SOL    MW4 8884   3.264   0.871   3.218 -0.6289  0.0118  0.2117
 2280SOL     OW 8885   0.239   4.427   2.105  0.5989  0.1673  0.1765
 2280SOL    HW2 8886   0.243   4.422   2.009  1.6042 -0.4047  0.2304
 2280SOL    HW3 8887   0.158   4.381   2.128  0.6532 -0.2061 -0.3627
 2280SOL    MW4 8888   0.229   4.420   2.095  0.7387  0.0426  0.1125
 2281SOL     OW 8889   1.757   4.950   1.962  0.2051 -0.1669  0.0336
 2281SOL    HW2 8890   1.772   4.856   1.954 -0.8824 -0.2374 -1.9828
 2281SOL    HW3 8891   1.680   4.967   1.907 -0.3298  1.7432  1.2416
 2281SOL    MW4 8892   1.749   4.940   1.954 -0.0089  0.0759 -0.0730
 2282SOL     OW 8893   1.993   1.478   4.267 -0.4055 -0.3509  0.9782
 2282SOL    HW2 8894   2.019   1.385   4.272 -2.4425 -0.9397  1.3551
 2282SOL    HW3 8895   1.907   1.481   4.308 -0.5567  1.6577  0.5922
 2282SOL    MW4 8896   1.985   1.466   4.273 -0.6942 -0.1636  0.9770
 2283SOL     OW 8897   1.690   5.013   0.972 -0.1565  0.1471 -0.0896
 2283SOL    HW2 8898   1.662   5.103   0.984 -0.9122  0.3359 -2.7412
 2283SOL    HW3 8899   1.613   4.968   0.938  0.3025 -1.4627  0.8771
 2283SOL    MW4 8900   1.676   5.019   0.969 -0.1957 -0.0404 -0.3119
 2284SOL     OW 8901   1.811   0.178   5.131 -0.0734  0.3114  0.4341
 2284SOL    HW2 8902   1.900   0.199   5.103 -0.0174  0.6379  0.8516
 2284SOL    HW3 8903   1.796   0.234   5.207 -0.9816  0.9648 -0.2043
 2284SOL    MW4 8904   1.821   0.188   5.138 -0.1858  0.4407  0.4049
 2285SOL     OW 8905   2.333   4.555   1.813  0.5181 -0.1090  0.5276
 2285SOL    HW2 8906   2.339   4.534   1.906  2.4637  0.3237  0.5397
 2285SOL    HW3 8907   2.420   4.538   1.779 -0.0398  0.1909 -1.1328
 2285SOL    MW4 8908   2.345   4.550   1.821  0.7012 -0.0123  0.3101
 2286SOL     OW 8909   4.696   5.758   5.523 -0.0467 -0.7150 -0.2147
 2286SOL    HW2 8910   4.774   5.801   5.558  0.4176 -0.6055 -1.3393
 2286SOL    HW3 8911   4.623   5.805   5.563  0.4350  1.3102 -1.5879
 2286SOL    MW4 8912   4.697   5.770   5.533  0.0781 -0.4334 -0.5442
 2287SOL     OW 8913   6.021   1.835   2.894  0.9196 -0.3344 -0.3428
 2287SOL    HW2 8914   6.086   1.857   2.961  0.5545  0.6716 -0.2940
 2287SOL    HW3 8915   6.019   1.739   2.892  0.1384 -0.4301  1.9075
 2287SOL    MW4 8916   6.029   1.825   2.903  0.7684 -0.2143 -0.0395
 2288SOL     OW 8917   2.371   6.397   4.644 -0.0136  0.4941 -0.1076
 2288SOL    HW2 8918   2.346   6.317   4.599  0.1492 -0.9076  2.1343
 2288SOL    HW3 8919   2.304   6.409   4.711 -0.1729  2.4218 -0.5534
 2288SOL    MW4 8920   2.359   6.388   4.647 -0.0132  0.5635  0.1294
 2289SOL     OW 8921   3.766   4.774   3.514  0.3150 -0.4293  0.3075
 2289SOL    HW2 8922   3.674   4.776   3.540  0.4074 -0.3486  0.6327
 2289SOL    HW3 8923   3.767   4.718   3.436 -0.3565  1.4525 -1.1200
 2289SOL    MW4 8924   3.754   4.767   3.507  0.2386 -0.1704  0.1621
 2290SOL     OW 8925   1.685   6.192   5.655  0.0624 -0.4577  0.0396
 2290SOL    HW2 8926   1.685   6.262   5.721  0.8638 -0.5205  0.1132
 2290SOL    HW3 8927   1.602   6.204   5.609 -0.7310 -0.7008  1.3507
 2290SOL    MW4 8928   1.674   6.203   5.658  0.0634 -0.4980  0.2223
 2291SOL     OW 8929   2.453   3.845   0.234 -0.5364  0.5165  0.7884
 2291SOL    HW2 8930   2.528   3.786   0.240 -0.7241  0.3440  1.4824
 2291SOL    HW3 8931   2.394   3.802   0.171 -0.5700  0.0748  1.1185
 2291SOL    MW4 8932   2.455   3.831   0.226 -0.5656  0.4355  0.9236
 2292SOL     OW 8933   5.657   4.798   5.124 -0.0477 -0.5236  0.4236
 2292SOL    HW2 8934   5.602   4.788   5.046  1.1248 -0.3870 -0.4465
 2292SOL    HW3 8935   5.600   4.775   5.197 -0.9766 -1.3200 -0.5289
 2292SOL    MW4 8936   5.642   4.794   5.123 -0.0156 -0.6107  0.1831
 2293SOL     OW 8937   2.227   1.170   1.328  0.4063  0.0432  0.6617
 2293SOL    HW2 8938   2.246   1.181   1.421  0.4565  1.2199  0.5270
 2293SOL    HW3 8939   2.133   1.150   1.326  0.5690 -0.8059  1.0036
 2293SOL    MW4 8940   2.217   1.169   1.340  0.4344  0.0864  0.6890
 2294SOL     OW 8941   4.520   2.578   3.038  0.1617  0.0382  0.4657
 2294SOL    HW2 8942   4.457   2.646   3.058  0.5037  0.6682 -0.5355
 2294SOL    HW3 8943   4.538   2.536   3.122  1.3596  2.3912  1.4709
 2294SOL    MW4 8944   4.514   2.581   3.052  0.3649  0.4318  0.4662
 2295SOL     OW 8945   0.141   1.818   0.624 -0.0910  0.1955 -0.0117
 2295SOL    HW2 8946   0.163   1.897   0.673  0.1248  0.9571 -1.2889
 2295SOL    HW3 8947   0.222   1.767   0.623  0.7646  1.4894 -1.9327
 2295SOL    MW4 8948   0.155   1.821   0.630  0.0503  0.4667 -0.4336
 2296SOL     OW 8949   0.595   1.829   2.632 -0.6461 -0.4164 -0.2127
 2296SOL    HW2 8950   0.604   1.801   2.723  2.4375  2.5766  0.6533
 2296SOL    HW3 8951   0.679   1.806   2.592 -0.6125  1.3343 -1.2556
 2296SOL    MW4 8952   0.607   1.822   2.639 -0.2348  0.2095 -0.2360
 2297SOL     OW 8953   2.233   6.212   2.313  0.3404 -0.5038 -0.2847
 2297SOL    HW2 8954   2.145   6.192   2.344  1.0068 -0.7778  1.5439
 2297SOL    HW3 8955   2.240   6.167   2.229 -1.3817 -0.1448 -0.6643
 2297SOL    MW4 8956   2.222   6.204   2.306  0.2011 -0.4926 -0.0935
 2298SOL     OW 8957   2.668   4.794   0.220  0.7315  0.2427  0.2009
 2298SOL    HW2 8958   2.637   4.867   0.166 -1.7928 -0.6045  0.3795
 2298SOL    HW3 8959   2.758   4.780   0.190  0.2623  1.3960 -2.0513
 2298SOL    MW4 8960   2.675   4.802   0.209  0.3366  0.2831 -0.0727
 2299SOL     OW 8961   1.677   1.455   4.903 -0.0203  0.7097 -0.0963
 2299SOL    HW2 8962   1.643   1.392   4.840  0.9780  0.2247 -0.1643
 2299SOL    HW3 8963   1.769   1.432   4.913 -0.2272  0.5124  1.8307
 2299SOL    MW4 8964   1.685   1.444   4.896  0.0841  0.6196  0.1490
 2300SOL     OW 8965   1.387   2.247   4.928  0.4827 -0.1253  0.0852
 2300SOL    HW2 8966   1.379   2.153   4.940  1.7098 -0.3927 -0.9811
 2300SOL    HW3 8967   1.444   2.276   5.000 -1.1022  0.0921  1.3253
 2300SOL    MW4 8968   1.393   2.238   4.939  0.4355 -0.1319  0.1082
 2301SOL     OW 8969   4.007   2.082   3.076 -0.4202  0.5745  0.3345
 2301SOL    HW2 8970   4.086   2.135   3.081 -0.4344  0.5299  1.3855
 2301SOL    HW3 8971   4.012   2.039   2.991  0.6992  0.5515  0.3913
 2301SOL    MW4 8972   4.018   2.083   3.066 -0.2744  0.5656  0.4807
 2302SOL     OW 8973   0.297   0.887   2.192  0.0201 -0.2320  0.3309
 2302SOL    HW2 8974   0.353   0.949   2.240  0.5717  1.7428 -2.5653
 2302SOL    HW3 8975   0.355   0.848   2.126 -0.9533 -1.9184  0.4163
 2302SOL    MW4 8976   0.312   0.890   2.190 -0.0356 -0.1939 -0.0400
 2303SOL     OW 8977   4.069   1.476   4.462  0.1113  0.6956  0.3066
 2303SOL    HW2 8978   4.081   1.530   4.384  0.9964  0.0549 -0.0204
 2303SOL    HW3 8979   4.121   1.520   4.529 -0.3135  1.0191  0.4256
 2303SOL    MW4 8980   4.078   1.489   4.460  0.1720  0.6537  0.2791
 2304SOL     OW 8981   2.085   3.988   1.233 -0.2656 -0.1272 -0.1992
 2304SOL    HW2 8982   2.163   3.938   1.260 -1.1240 -1.5426 -0.2756
 2304SOL    HW3 8983   2.050   3.940   1.159  0.2034  1.9310 -1.8371
 2304SOL    MW4 8984   2.091   3.975   1.227 -0.3170 -0.0424 -0.4254
 2305SOL     OW 8985   1.317   2.116   4.180  0.0348 -0.1021  0.6783
 2305SOL    HW2 8986   1.262   2.079   4.110 -0.5411  1.1180  0.4741
 2305SOL    HW3 8987   1.303   2.057   4.254 -0.2441 -0.7520  0.1291
 2305SOL    MW4 8988   1.308   2.103   4.180 -0.0780 -0.0269  0.5789
 2306SOL     OW 8989   5.625   4.943   3.689 -0.1190 -0.1400 -0.1746
 2306SOL    HW2 8990   5.570   5.020   3.679  0.5617  0.6628  1.7358
 2306SOL    HW3 8991   5.605   4.911   3.777  1.2600 -0.7817 -0.0716
 2306SOL    MW4 8992   5.615   4.949   3.699  0.1528 -0.1187  0.0910
 2307SOL     OW 8993   2.193   3.414   1.238 -0.1884 -0.5999 -0.5760
 2307SOL    HW2 8994   2.134   3.387   1.167  1.1129 -0.8965 -1.5694
 2307SOL    HW3 8995   2.222   3.331   1.277 -0.0546 -0.4634 -0.3853
 2307SOL    MW4 8996   2.189   3.399   1.234  0.0010 -0.6210 -0.6819
 2308SOL     OW 8997   0.549   4.307   5.305  0.0619  0.3785 -0.5300
 2308SOL    HW2 8998   0.596   4.364   5.365 -1.8640  1.2176  0.2486
 2308SOL    HW3 8999   0.601   4.226   5.303 -0.3410 -0.1579  3.2374
 2308SOL    MW4 9000   0.562   4.304   5.313 -0.2453  0.4184  0.0698
 2309SOL     OW 9001   1.015   0.789   6.133 -0.2850  0.4158  0.4857
 2309SOL    HW2 9002   0.976   0.875   6.114  2.8302  1.4818 -2.0113
 2309SOL    HW3 9003   0.969   0.729   6.074 -1.2309  0.7023  0.9060
 2309SOL    MW4 9004   1.004   0.793   6.123  0.0012  0.5942  0.2117
 2310SOL     OW 9005   0.949   1.158   0.681 -0.2972 -0.4067  0.4786
 2310SOL    HW2 9006   1.010   1.085   0.693 -1.1940 -1.0422  1.2893
 2310SOL    HW3 9007   0.917   1.148   0.592  0.9032  0.0436 -0.0275
 2310SOL    MW4 9008   0.953   1.147   0.671 -0.2571 -0.4311  0.5188
 2311SOL     OW 9009   3.696   6.158   1.734 -0.3755  0.0440 -0.4493
 2311SOL    HW2 9010   3.658   6.127   1.817  1.0997 -0.3732  0.1062
 2311SOL    HW3 9011   3.788   6.173   1.754  0.1516 -0.6141 -2.1515
 2311SOL    MW4 9012   3.703   6.156   1.748 -0.1113 -0.0978 -0.6006
 2312SOL     OW 9013   2.889   2.818   6.318 -0.4186 -0.0301  0.3772
 2312SOL    HW2 9014   2.828   2.749   6.345 -0.0785 -0.2546  0.5755
 2312SOL    HW3 9015   2.876   2.826   6.224  0.2338 -1.0428  0.1922
 2312SOL    MW4 9016   2.879   2.810   6.309 -0.2877 -0.1933  0.3789
 2313SOL     OW 9017   4.014   1.607   6.117 -0.3244 -1.2743  0.0686
 2313SOL    HW2 9018   3.977   1.596   6.204  0.0428 -1.4174  0.2097
 2313SOL    HW3 9019   4.095   1.556   6.119  1.0972  0.8529  0.5227
 2313SOL    MW4 9020   4.020   1.599   6.129 -0.0884 -1.0125  0.1471
 2314SOL     OW 9021   3.818   5.035   2.245 -0.2626  0.0248 -0.0944
 2314SOL    HW2 9022   3.775   4.952   2.263 -1.1319  0.2487 -1.0231
 2314SOL    HW3 9023   3.763   5.101   2.288  0.7943  0.0989  1.2299
 2314SOL    MW4 9024   3.805   5.033   2.253 -0.2378  0.0641 -0.0422
 2315SOL     OW 9025   6.234   3.639   0.327 -0.4382 -0.2008 -0.1950
 2315SOL    HW2 9026   6.251   3.584   0.404 -0.3357  1.9741  1.4257
 2315SOL    HW3 9027   6.293   3.713   0.337 -1.3134  0.7461 -1.7208
 2315SOL    MW4 9028   6.244   3.641   0.339 -0.5401  0.2111 -0.1825
 2316SOL     OW 9029   2.744   0.575   3.038 -0.8371 -0.8350 -0.1309
 2316SOL    HW2 9030   2.691   0.591   3.116  0.2870 -2.0684  0.9255
 2316SOL    HW3 9031   2.793   0.656   3.025 -0.6886 -0.7796  0.7349
 2316SOL    MW4 9032   2.743   0.588   3.047 -0.6692 -0.9904  0.1227
 2317SOL     OW 9033   2.437   1.216   2.815  0.0459 -0.6345 -0.4055
 2317SOL    HW2 9034   2.428   1.295   2.761 -5.4218 -0.8938 -0.4780
 2317SOL    HW3 9035   2.431   1.144   2.752  3.0177 -1.2205 -0.1408
 2317SOL    MW4 9036   2.435   1.217   2.799 -0.2834 -0.7460 -0.3801
 2318SOL     OW 9037   3.514   2.131   6.052 -0.1893  0.0046 -0.3671
 2318SOL    HW2 9038   3.575   2.093   6.115 -0.2086  0.5567 -0.0033
 2318SOL    HW3 9039   3.461   2.058   6.022 -0.4830 -0.2002  0.6083
 2318SOL    MW4 9040   3.515   2.117   6.057 -0.2306  0.0504 -0.1904
 2319SOL     OW 9041   3.254   2.017   0.639 -0.0364  0.0337  0.4646
 2319SOL    HW2 9042   3.279   1.925   0.644  1.9635  0.5153  0.0592
 2319SOL    HW3 9043   3.164   2.019   0.671 -0.3559 -2.1466 -0.1602
 2319SOL    MW4 9044   3.245   2.005   0.644  0.1853 -0.1904  0.3287
 2320SOL     OW 9045   0.136   2.522   5.792 -0.0814 -0.4336 -0.0457
 2320SOL    HW2 9046   0.083   2.471   5.854 -0.1359  0.0065  0.2727
 2320SOL    HW3 9047   0.072   2.577   5.746  0.0748 -0.0401  0.2053
 2320SOL    MW4 9048   0.120   2.522   5.794 -0.0680 -0.3236  0.0294
 2321SOL     OW 9049   2.747   2.211   5.117 -0.4348 -0.2669 -0.1730
 2321SOL    HW2 9050   2.764   2.303   5.101 -0.7185 -0.5380 -2.3227
 2321SOL    HW3 9051   2.826   2.166   5.086 -0.7579 -0.8107 -0.2310
 2321SOL    MW4 9052   2.760   2.217   5.111 -0.5149 -0.3744 -0.4643
 2322SOL     OW 9053   4.994   3.294   0.249 -0.3807  0.1207  0.3646
 2322SOL    HW2 9054   4.899   3.283   0.240 -0.2517 -1.9759  0.9298
 2322SOL    HW3 9055   5.023   3.320   0.162 -1.4010  0.0264 -0.0241
 2322SOL    MW4 9056   4.985   3.296   0.236 -0.4983 -0.1683  0.3879
 2323SOL     OW 9057   1.404   2.548   1.408 -0.5651  0.0681  0.2666
 2323SOL    HW2 9058   1.346   2.535   1.483 -0.4449 -0.5529  0.2535
 2323SOL    HW3 9059   1.348   2.590   1.342 -0.5735  0.9746  0.8286
 2323SOL    MW4 9060   1.389   2.552   1.409 -0.5504  0.1057  0.3390
 2324SOL     OW 9061   5.567   2.610   4.090  0.6586 -0.2448 -0.0403
 2324SOL    HW2 9062   5.658   2.640   4.092  0.0793  1.6620  2.2686
 2324SOL    HW3 9063   5.549   2.583   4.180 -1.7799  1.9592  0.2449
 2324SOL    MW4 9064   5.576   2.610   4.102  0.2604  0.2975  0.3020
 2325SOL     OW 9065   3.766   2.804   4.368  0.0008  0.4505  0.0496
 2325SOL    HW2 9066   3.749   2.728   4.425 -0.4026  1.4187  1.2491
 2325SOL    HW3 9067   3.862   2.806   4.360 -0.0175 -0.7479 -0.8148
 2325SOL    MW4 9068   3.777   2.794   4.375 -0.0549  0.4201  0.0938
 2326SOL     OW 9069   3.882   4.802   5.625 -0.1304  0.7768  0.1717
 2326SOL    HW2 9070   3.890   4.786   5.531  0.2389  3.3010 -0.2916
 2326SOL    HW3 9071   3.788   4.798   5.643 -0.1473 -0.5620 -0.0837
 2326SOL    MW4 9072   3.870   4.799   5.615 -0.0839  0.9332  0.0769
 2327SOL     OW 9073   1.510   5.321   2.550  0.3104  0.1688 -0.5818
 2327SOL    HW2 9074   1.470   5.340   2.634 -0.8212 -1.6217 -0.6648
 2327SOL    HW3 9075   1.573   5.392   2.537 -0.4195  1.1999  1.1371
 2327SOL    MW4 9076   1.513   5.333   2.559  0.0648  0.0686 -0.3660
 2328SOL     OW 9077   2.739   4.567   5.719 -0.0269  0.3741  0.0731
 2328SOL    HW2 9078   2.829   4.542   5.738 -0.5023 -0.8124  0.8954
 2328SOL    HW3 9079   2.722   4.532   5.632  0.6668  1.6296 -0.5738
 2328SOL    MW4 9080   2.748   4.559   5.710  0.0019  0.3832  0.0962
 2329SOL     OW 9081   1.328   4.963   0.083  0.0920 -1.1033 -0.3871
 2329SOL    HW2 9082   1.279   5.037   0.047 -1.3538 -0.6811  2.1978
 2329SOL    HW3 9083   1.414   4.999   0.101  0.3724 -0.9279 -1.8932
 2329SOL    MW4 9084   1.333   4.977   0.080 -0.0618 -1.0245 -0.2448
 2330SOL     OW 9085   4.060   1.000   4.382  0.1530  0.4611 -0.5538
 2330SOL    HW2 9086   4.060   1.087   4.421 -1.6805  0.2923 -0.0796
 2330SOL    HW3 9087   4.072   1.015   4.288 -1.1296  1.3218 -0.6020
 2330SOL    MW4 9088   4.061   1.013   4.375 -0.2581  0.5524 -0.4976
 2331SOL     OW 9089   5.404   1.456   0.265  0.2282 -0.1051  0.0227
 2331SOL    HW2 9090   5.493   1.456   0.300 -0.5917 -2.3939  2.4430
 2331SOL    HW3 9091   5.409   1.403   0.185  1.0516 -0.2218  0.1478
 2331SOL    MW4 9092   5.416   1.449   0.259  0.2286 -0.4225  0.3585
 2332SOL     OW 9093   1.057   0.676   4.309 -0.7818 -0.2181  0.1189
 2332SOL    HW2 9094   1.123   0.682   4.379  1.8713 -0.6007 -2.1831
 2332SOL    HW3 9095   1.032   0.767   4.292  2.1370  0.4158 -1.4805
 2332SOL    MW4 9096   1.062   0.689   4.316 -0.0467 -0.1850 -0.3958
 2333SOL     OW 9097   3.607   0.334   5.726  0.4423 -0.2184  0.0086
 2333SOL    HW2 9098   3.536   0.279   5.690 -1.2815 -0.1636  2.9872
 2333SOL    HW3 9099   3.562   0.414   5.754  1.6695 -0.1481  1.9036
 2333SOL    MW4 9100   3.591   0.337   5.725  0.3768 -0.2019  0.6517
 2334SOL     OW 9101   1.747   2.155   1.444  0.0948  0.1155  0.0439
 2334SOL    HW2 9102   1.656   2.184   1.445 -0.3376 -1.1545 -0.1803
 2334SOL    HW3 9103   1.778   2.176   1.355  0.0918  0.7418  0.1894
 2334SOL    MW4 9104   1.739   2.161   1.432  0.0373  0.0306  0.0335
 2335SOL     OW 9105   3.027   4.744   4.457  0.8514  0.3404 -0.2464
 2335SOL    HW2 9106   2.968   4.726   4.384 -0.0922  0.6072  0.4236
 2335SOL    HW3 9107   3.113   4.758   4.416  0.1245  1.6564 -1.4184
 2335SOL    MW4 9108   3.031   4.744   4.442  0.6310  0.5492 -0.3127
 2336SOL     OW 9109   2.956   3.474   1.111 -0.1768 -1.1048  0.1518
 2336SOL    HW2 9110   3.025   3.419   1.148 -0.0722 -1.0945 -0.0253
 2336SOL    HW3 9111   2.989   3.563   1.118  0.9348 -1.2412 -2.1556
 2336SOL    MW4 9112   2.969   3.479   1.117 -0.0163 -1.1214 -0.1760
 2337SOL     OW 9113   1.713   5.913   5.615  0.3779  0.3927  0.0731
 2337SOL    HW2 9114   1.757   5.890   5.697 -0.2424 -0.1523  0.2666
 2337SOL    HW3 9115   1.729   6.007   5.605 -0.5367  0.7319  1.4603
 2337SOL    MW4 9116   1.721   5.922   5.625  0.1754  0.3656  0.2816
 2338SOL     OW 9117   5.352   1.769   4.802  0.0133 -0.3354  0.3884
 2338SOL    HW2 9118   5.289   1.759   4.731  0.8435  1.4456 -0.6605
 2338SOL    HW3 9119   5.411   1.838   4.772  0.6210  0.1967  2.6421
 2338SOL    MW4 9120   5.351   1.777   4.789  0.2030 -0.0302  0.5474
 2339SOL     OW 9121   0.664   4.519   5.468  0.3689 -0.5715  0.8172
 2339SOL    HW2 9122   0.650   4.596   5.524  1.0070 -0.1250  0.3901
 2339SOL    HW3 9123   0.722   4.463   5.520  0.6470 -0.3350  0.7708
 2339SOL    MW4 9124   0.670   4.522   5.482  0.4898 -0.4814  0.7547
 2340SOL     OW 9125   2.140   0.365   5.817 -0.3531 -0.1469  0.3218
 2340SOL    HW2 9126   2.060   0.409   5.845 -1.5599 -2.3579  0.6378
 2340SOL    HW3 9127   2.211   0.417   5.854 -1.5520  2.3717 -0.6700
 2340SOL    MW4 9128   2.139   0.377   5.826 -0.6705 -0.1063  0.2326
 2341SOL     OW 9129   1.234   3.760   5.074 -0.0103 -0.0076  0.1199
 2341SOL    HW2 9130   1.234   3.854   5.057 -2.0372 -0.0527 -0.4001
 2341SOL    HW3 9131   1.152   3.743   5.120 -1.0073 -1.8303 -2.0900
 2341SOL    MW4 9132   1.224   3.770   5.078 -0.4093 -0.2540 -0.2403
 2342SOL     OW 9133   6.028   2.681   3.638  0.1559  0.3782  0.8238
 2342SOL    HW2 9134   5.981   2.624   3.699 -0.6790 -0.2912 -0.3835
 2342SOL    HW3 9135   6.010   2.770   3.669 -3.0986  0.2606 -0.2770
 2342SOL    MW4 9136   6.019   2.685   3.650 -0.3837  0.2744  0.5193
 2343SOL     OW 9137   3.835   3.019   6.269 -0.1346 -0.6012 -0.0285
 2343SOL    HW2 9138   3.840   3.084   6.338  1.5694 -0.7132 -0.0043
 2343SOL    HW3 9139   3.783   3.061   6.200 -0.4661  0.1294  0.6578
 2343SOL    MW4 9140   3.829   3.033   6.269  0.0465 -0.5195  0.0652
 2344SOL     OW 9141   5.948   6.070   1.303  0.3313  0.1116 -0.7820
 2344SOL    HW2 9142   5.975   6.024   1.224  0.7834  0.3616 -0.7752
 2344SOL    HW3 9143   5.921   6.157   1.272 -0.4867 -0.1371 -0.7919
 2344SOL    MW4 9144   5.948   6.075   1.288  0.2830  0.1118 -0.7824
 2345SOL     OW 9145   6.394   4.169   2.944  0.3821 -0.0631 -0.3700
 2345SOL    HW2 9146   6.464   4.107   2.965  1.0906  0.6406 -0.6311
 2345SOL    HW3 9147   6.412   4.197   2.854 -0.5898 -0.3444 -0.6578
 2345SOL    MW4 9148   6.406   4.165   2.935  0.3473 -0.0074 -0.4424
 2346SOL     OW 9149   3.572   1.028   4.198  0.8508  0.1884 -0.2478
 2346SOL    HW2 9150   3.532   0.941   4.187  0.3495  0.3669  0.0795
 2346SOL    HW3 9151   3.660   1.019   4.162  0.9454 -0.5688  0.1367
 2346SOL    MW4 9152   3.578   1.015   4.192  0.7971  0.1121 -0.1539
 2347SOL     OW 9153   2.173   4.585   1.071  0.0234 -0.1404 -0.0507
 2347SOL    HW2 9154   2.105   4.534   1.026 -0.7421  0.4529  0.3969
 2347SOL    HW3 9155   2.147   4.582   1.163  0.5921  0.1236  0.1185
 2347SOL    MW4 9156   2.160   4.577   1.077 -0.0026 -0.0273  0.0307
 2348SOL     OW 9157   4.311   0.882   1.346 -0.5585  0.0569 -0.1676
 2348SOL    HW2 9158   4.295   0.791   1.323  2.8543 -1.2564  2.0257
 2348SOL    HW3 9159   4.263   0.895   1.428 -0.1427 -0.1055  0.1001
 2348SOL    MW4 9160   4.302   0.872   1.354 -0.0533 -0.1378  0.1571
 2349SOL     OW 9161   5.395   4.987   0.647 -0.5925  0.1348  0.2640
 2349SOL    HW2 9162   5.422   4.909   0.696 -1.0203  0.1143  0.4676
 2349SOL    HW3 9163   5.388   5.056   0.714 -0.7590  0.2127  0.1645
 2349SOL    MW4 9164   5.398   4.986   0.663 -0.6709  0.1424  0.2777
 2350SOL     OW 9165   6.261   3.174   4.986  0.3872 -0.3891  0.2210
 2350SOL    HW2 9166   6.224   3.148   5.070  0.2348 -0.8328  0.0165
 2350SOL    HW3 9167   6.356   3.163   4.997  0.3993 -0.0414  0.4717
 2350SOL    MW4 9168   6.269   3.169   4.999  0.3687 -0.4018  0.2271
 2351SOL     OW 9169   4.608   5.552   1.819  0.2270 -0.5207 -0.0072
 2351SOL    HW2 9170   4.681   5.568   1.879  1.7481 -1.1159 -1.6173
 2351SOL    HW3 9171   4.607   5.456   1.809 -0.2313 -0.4497 -0.6662
 2351SOL    MW4 9172   4.618   5.541   1.826  0.3673 -0.5899 -0.3066
 2352SOL     OW 9173   2.021   2.323   1.206  0.3762 -0.5195 -0.2550
 2352SOL    HW2 9174   2.091   2.290   1.150 -1.1636 -0.5095 -2.3358
 2352SOL    HW3 9175   1.944   2.271   1.180 -1.3238  2.2387 -1.1693
 2352SOL    MW4 9176   2.020   2.312   1.195 -0.0513 -0.1543 -0.6502
 2353SOL     OW 9177   0.093   1.393   2.689  0.3556  0.4484  0.0246
 2353SOL    HW2 9178   0.167   1.446   2.657  1.7475 -1.2301  0.3273
 2353SOL    HW3 9179   0.132   1.335   2.755 -1.1559 -0.7577 -0.0948
 2353SOL    MW4 9180   0.108   1.393   2.693  0.3398  0.0678  0.0488
 2354SOL     OW 9181   3.476   5.419   4.016 -0.0660 -0.4645  0.1554
 2354SOL    HW2 9182   3.401   5.365   4.039 -0.6766  0.5226  0.5677
 2354SOL    HW3 9183   3.459   5.445   3.925  0.1497 -0.8326  0.0085
 2354SOL    MW4 9184   3.464   5.416   4.007 -0.1181 -0.3829  0.1904
 2355SOL     OW 9185   3.267   1.481   1.689  0.1277  0.1744 -0.0332
 2355SOL    HW2 9186   3.222   1.443   1.614  0.0794  0.4803 -0.1599
 2355SOL    HW3 9187   3.222   1.444   1.765  0.4836 -0.5063 -0.1464
 2355SOL    MW4 9188   3.255   1.472   1.689  0.1683  0.1249 -0.0648
 2356SOL     OW 9189   2.098   0.834   1.372 -0.4909 -0.1549 -0.1624
 2356SOL    HW2 9190   2.127   0.851   1.461 -1.4806  3.7899 -0.4229
 2356SOL    HW3 9191   2.180   0.820   1.323  0.2965  0.8189  0.8226
 2356SOL    MW4 9192   2.113   0.834   1.377 -0.5176  0.4941 -0.0669
 2357SOL     OW 9193   5.611   6.295   4.160 -0.6786  0.6316  0.3999
 2357SOL    HW2 9194   5.520   6.288   4.133 -1.3656  1.7994  2.2535
 2357SOL    HW3 9195   5.644   6.206   4.155 -2.4507 -0.1254  1.4172
 2357SOL    MW4 9196   5.604   6.283   4.156 -1.0030  0.6858  0.7786
 2358SOL     OW 9197   5.179   1.985   0.386 -0.0693  0.6239 -0.3280
 2358SOL    HW2 9198   5.260   2.017   0.426 -0.3691  0.3881  0.4803
 2358SOL    HW3 9199   5.112   2.048   0.412 -0.3168  0.3226 -0.2313
 2358SOL    MW4 9200   5.181   1.997   0.395 -0.1415  0.5530 -0.2086
 2359SOL     OW 9201   4.713   2.048   0.044 -0.2864  0.0140  1.1200
 2359SOL    HW2 9202   4.652   2.018   0.111 -0.9590 -1.9759 -0.2992
 2359SOL    HW3 9203   4.722   2.142   0.061 -2.3137  0.0352  2.5035
 2359SOL    MW4 9204   4.706   2.057   0.055 -0.6426 -0.2458  1.1153
 2360SOL     OW 9205   3.844   3.641   1.026  0.1145  0.2112  0.1651
 2360SOL    HW2 9206   3.852   3.547   1.044 -1.2961 -0.0054 -0.2711
 2360SOL    HW3 9207   3.752   3.661   1.041  0.4273  1.5800  0.4094
 2360SOL    MW4 9208   3.833   3.631   1.031 -0.0304  0.3632  0.1398
 2361SOL     OW 9209   0.195   1.058   0.393  0.1579  0.5955  0.3392
 2361SOL    HW2 9210   0.176   1.132   0.451 -1.7095  0.4107  0.0261
 2361SOL    HW3 9211   0.170   1.089   0.306 -0.3444 -0.2755  0.1601
 2361SOL    MW4 9212   0.189   1.072   0.390 -0.1548  0.4562  0.2742
 2362SOL     OW 9213   3.839   2.735   6.120 -0.2347 -0.2201 -0.1407
 2362SOL    HW2 9214   3.794   2.818   6.138  0.8692  0.8400 -1.9570
 2362SOL    HW3 9215   3.768   2.672   6.105 -1.1142  0.8824 -0.7918
 2362SOL    MW4 9216   3.823   2.738   6.120 -0.2051  0.0652 -0.4662
 2363SOL     OW 9217   3.533   1.257   5.984  0.1149  0.6189 -0.1011
 2363SOL    HW2 9218   3.465   1.193   5.962 -0.5025 -0.4552  4.0226
 2363SOL    HW3 9219   3.603   1.205   6.024  2.2423  2.0315 -1.7696
 2363SOL    MW4 9220   3.533   1.242   5.987  0.3141  0.6635  0.2228
 2364SOL     OW 9221   4.914   4.351   3.334  0.2796  0.8099 -0.3634
 2364SOL    HW2 9222   4.824   4.382   3.323 -0.1744 -0.0926  0.6948
 2364SOL    HW3 9223   4.959   4.424   3.376 -0.1792  0.9285 -0.0735
 2364SOL    MW4 9224   4.908   4.365   3.338  0.1592  0.7065 -0.1856
 2365SOL     OW 9225   1.870   5.251   2.944 -0.2029 -0.8931  0.9710
 2365SOL    HW2 9226   1.902   5.304   2.871 -0.3535 -1.3491  0.5645
 2365SOL    HW3 9227   1.911   5.165   2.931 -0.2720 -0.9927  1.3961
 2365SOL    MW4 9228   1.879   5.247   2.933 -0.2319 -0.9664  0.9734
 2366SOL     OW 9229   4.981   2.018   0.118  0.3784  0.4999  0.4632
 2366SOL    HW2 9230   4.887   2.017   0.103 -0.0238 -0.0659  2.6125
 2366SOL    HW3 9231   5.005   1.925   0.123  0.3840  0.5560  3.1135
 2366SOL    MW4 9232   4.972   2.005   0.117  0.3261  0.4327  1.0965
 2367SOL     OW 9233   0.077   2.313   0.641  0.2335  0.2104  0.6597
 2367SOL    HW2 9234   0.093   2.364   0.562  0.4442  1.3328  1.3984
 2367SOL    HW3 9235   0.164   2.282   0.667  0.1926  0.0090  0.5529
 2367SOL    MW4 9236   0.091   2.316   0.634  0.2559  0.3319  0.7431
 2368SOL     OW 9237   3.659   3.917   2.923  0.3998  0.1032  0.1287
 2368SOL    HW2 9238   3.664   3.869   3.006  1.8132 -0.6408 -0.3628
 2368SOL    HW3 9239   3.602   3.863   2.868 -2.0581  1.4880  1.1255
 2368SOL    MW4 9240   3.652   3.904   2.927  0.2620  0.1878  0.1954
 2369SOL     OW 9241   3.805   6.199   4.990  0.0333 -0.4693  0.2184
 2369SOL    HW2 9242   3.857   6.130   5.031 -0.2420 -0.3621  0.7501
 2369SOL    HW3 9243   3.870   6.258   4.952  0.3798  0.5735  2.3325
 2369SOL    MW4 9244   3.821   6.197   4.990  0.0427 -0.3175  0.5675
 2370SOL     OW 9245   4.460   2.298   1.235  0.5238  0.0023  0.1476
 2370SOL    HW2 9246   4.429   2.304   1.144 -2.0093 -3.5363  0.6004
 2370SOL    HW3 9247   4.555   2.297   1.228  0.3896 -0.5490 -2.5062
 2370SOL    MW4 9248   4.468   2.299   1.222  0.1719 -0.5373 -0.1428
 2371SOL     OW 9249   5.555   4.124   3.861  0.1522  0.2059  0.8011
 2371SOL    HW2 9250   5.547   4.179   3.783  3.2992  0.6199  0.6206
 2371SOL    HW3 9251   5.522   4.179   3.932 -0.9329  0.5751  0.0381
 2371SOL    MW4 9252   5.550   4.139   3.860  0.4243  0.3093  0.6766
 2372SOL     OW 9253   4.101   4.802   0.250 -0.3884  0.0647 -0.0109
 2372SOL    HW2 9254   4.146   4.858   0.186  1.3764 -1.2969 -0.0549
 2372SOL    HW3 9255   4.171   4.750   0.289 -1.8281 -1.3757  0.7730
 2372SOL    MW4 9256   4.116   4.803   0.246 -0.3455 -0.3050  0.0867
 2373SOL     OW 9257   2.595   1.346   1.525  0.6339  0.0237  0.2498
 2373SOL    HW2 9258   2.550   1.304   1.452  2.0928 -1.0832 -0.0705
 2373SOL    HW3 9259   2.625   1.273   1.579 -0.1774  0.8121  1.8452
 2373SOL    MW4 9260   2.593   1.331   1.523  0.7194 -0.0183  0.4180
 2374SOL     OW 9261   0.314   1.279   2.043 -0.3800 -0.4629 -0.1656
 2374SOL    HW2 9262   0.295   1.195   2.002  0.5234 -2.1241  2.5443
 2374SOL    HW3 9263   0.405   1.272   2.071  0.2911  2.1493 -1.3314
 2374SOL    MW4 9264   0.324   1.267   2.041 -0.1723 -0.3374  0.0381
 2375SOL     OW 9265   5.344   5.677   5.778  0.2866  0.3907  0.2283
 2375SOL    HW2 9266   5.265   5.640   5.818  0.2059  2.0715  1.6940
 2375SOL    HW3 9267   5.412   5.611   5.794 -0.7157 -0.9751 -0.8487
 2375SOL    MW4 9268   5.342   5.663   5.785  0.1438  0.4323  0.2796
 2376SOL     OW 9269   3.130   1.879   2.383  0.0716  0.4135  0.2871
 2376SOL    HW2 9270   3.042   1.904   2.356  0.1141  2.4963  1.7557
 2376SOL    HW3 9271   3.186   1.951   2.351  0.7228  0.7390  2.0134
 2376SOL    MW4 9272   3.126   1.892   2.375  0.1631  0.7312  0.7086
 2377SOL     OW 9273   1.444   4.184   3.498 -0.1205 -0.5465 -0.2222
 2377SOL    HW2 9274   1.354   4.202   3.523 -0.0177 -0.1818 -0.1091
 2377SOL    HW3 9275   1.491   4.266   3.514  0.2148 -0.7070 -0.3559
 2377SOL    MW4 9276   1.438   4.198   3.503 -0.0627 -0.5195 -0.2249
 2378SOL     OW 9277   3.092   2.602   1.706  0.4249 -0.7202  0.2501
 2378SOL    HW2 9278   3.134   2.548   1.773  1.6726  0.8619  0.8359
 2378SOL    HW3 9279   3.041   2.666   1.755  0.8827  0.0975 -0.3007
 2378SOL    MW4 9280   3.091   2.604   1.721  0.6499 -0.4036  0.2547
 2379SOL     OW 9281   1.652   3.300   0.124 -0.0061 -0.1844 -0.0195
 2379SOL    HW2 9282   1.693   3.215   0.112  0.1507  0.0319 -1.0994
 2379SOL    HW3 9283   1.720   3.364   0.102 -0.5166  0.1979 -0.5202
 2379SOL    MW4 9284   1.666   3.297   0.120 -0.0527 -0.1054 -0.2280
 2380SOL     OW 9285   1.451   0.077   4.194  0.2291 -0.1156 -0.0421
 2380SOL    HW2 9286   1.507   0.065   4.117 -0.6069  0.6767 -0.8025
 2380SOL    HW3 9287   1.362   0.061   4.162 -0.1812  0.7295  0.6322
 2380SOL    MW4 9288   1.447   0.073   4.180  0.0647  0.1005 -0.0535
 2381SOL     OW 9289   3.508   2.840   5.260 -0.2387  0.1531 -0.3937
 2381SOL    HW2 9290   3.477   2.900   5.329 -2.8663  0.5166 -1.7289
 2381SOL    HW3 9291   3.530   2.760   5.307 -2.6043  0.1345  0.9066
 2381SOL    MW4 9292   3.507   2.837   5.276 -0.8975  0.1986 -0.3983
 2382SOL     OW 9293   0.973   5.778   1.746 -0.4517 -0.3805 -0.1942
 2382SOL    HW2 9294   0.893   5.728   1.726 -1.1428 -0.4495  2.3760
 2382SOL    HW3 9295   0.942   5.867   1.764 -0.5500 -1.0248  3.8077
 2382SOL    MW4 9296   0.958   5.783   1.746 -0.5559 -0.4746  0.6729
 2383SOL     OW 9297   0.502   3.552   4.610 -0.5420  0.1651 -0.0933
 2383SOL    HW2 9298   0.516   3.626   4.552 -0.9591  0.2059 -0.1476
 2383SOL    HW3 9299   0.418   3.515   4.582 -0.3801 -0.2767 -0.0145
 2383SOL    MW4 9300   0.493   3.557   4.599 -0.5757  0.1122 -0.0901
 2384SOL     OW 9301   4.788   1.125   4.424  0.6136 -0.3967 -0.1897
 2384SOL    HW2 9302   4.782   1.192   4.493  1.3120  0.6385 -1.0937
 2384SOL    HW3 9303   4.707   1.076   4.432 -0.1900  0.9220  0.1769
 2384SOL    MW4 9304   4.776   1.128   4.434  0.5997 -0.0861 -0.2606
 2385SOL     OW 9305   3.541   4.413   3.443 -0.4262  0.1107  0.2695
 2385SOL    HW2 9306   3.608   4.363   3.396  1.0070  1.0993  1.1664
 2385SOL    HW3 9307   3.512   4.479   3.379  0.0905  0.2139  0.1350
 2385SOL    MW4 9308   3.546   4.415   3.428 -0.1689  0.2547  0.3701
 2386SOL     OW 9309   3.074   5.860   2.176  0.0936  0.0126  0.0872
 2386SOL    HW2 9310   3.006   5.826   2.117  0.6672  0.2669 -0.7404
 2386SOL    HW3 9311   3.155   5.847   2.127  0.3719  2.2517 -0.1193
 2386SOL    MW4 9312   3.076   5.854   2.162  0.2060  0.3416 -0.0493
 2387SOL     OW 9313   4.128   5.549   1.918  0.2043 -0.2868  0.0585
 2387SOL    HW2 9314   4.095   5.512   1.836  0.5661 -0.8172  0.1465
 2387SOL    HW3 9315   4.050   5.575   1.967 -0.0781 -1.4428  0.2335
 2387SOL    MW4 9316   4.113   5.548   1.914  0.2148 -0.5093  0.0932
 2388SOL     OW 9317   4.594   3.178   1.426  0.1217  0.1857  0.0105
 2388SOL    HW2 9318   4.634   3.101   1.385  0.0930  0.2859 -0.2050
 2388SOL    HW3 9319   4.593   3.245   1.357  1.3983  0.8280  0.5943
 2388SOL    MW4 9320   4.599   3.176   1.411  0.2864  0.2837  0.0591
 2389SOL     OW 9321   1.984   5.575   6.281 -0.1258  0.3659  0.3287
 2389SOL    HW2 9322   1.992   5.549   6.372 -1.6114 -1.7804 -0.0751
 2389SOL    HW3 9323   2.074   5.593   6.253  0.7644 -2.0544  1.4028
 2389SOL    MW4 9324   1.997   5.574   6.289 -0.2044 -0.2366  0.4171
 2390SOL     OW 9325   2.516   0.551   1.203  0.2952 -0.0628  0.0097
 2390SOL    HW2 9326   2.524   0.500   1.284  1.7876  0.8154  0.4484
 2390SOL    HW3 9327   2.464   0.627   1.228 -0.7275 -0.6311 -0.3083
 2390SOL    MW4 9328   2.510   0.554   1.217  0.3572 -0.0219  0.0257
 2391SOL     OW 9329   1.235   0.704   1.824  0.5543  0.8838 -0.3439
 2391SOL    HW2 9330   1.182   0.764   1.877 -1.5683 -0.5205 -0.7666
 2391SOL    HW3 9331   1.285   0.653   1.888  0.0306  1.0032  0.1705
 2391SOL    MW4 9332   1.235   0.706   1.839  0.2052  0.7142 -0.3318
 2392SOL     OW 9333   2.123   2.065   3.083 -0.0363  0.4014  0.4231
 2392SOL    HW2 9334   2.217   2.075   3.068 -0.2283  1.1478 -0.3516
 2392SOL    HW3 9335   2.117   2.009   3.161  1.0545 -3.1700 -1.7784
 2392SOL    MW4 9336   2.135   2.059   3.092  0.0823  0.0287  0.0304
 2393SOL     OW 9337   1.012   2.221   0.913 -0.3339 -0.0523 -0.4149
 2393SOL    HW2 9338   1.086   2.262   0.868 -0.2097 -1.9130 -2.0458
 2393SOL    HW3 9339   0.963   2.294   0.950  1.2121  1.3570 -1.0271
 2393SOL    MW4 9340   1.016   2.236   0.912 -0.1136 -0.1118 -0.7108
 2394SOL     OW 9341   4.966   2.502   1.985 -0.2205  0.8978 -0.1539
 2394SOL    HW2 9342   5.034   2.569   1.978  0.1993  0.4417 -0.5249
 2394SOL    HW3 9343   5.014   2.422   2.004 -0.7295  0.7229  0.3986
 2394SOL    MW4 9344   4.981   2.501   1.986 -0.2323  0.8145 -0.1300
 2395SOL     OW 9345   5.045   0.316   1.546  0.2621 -0.0157  0.1081
 2395SOL    HW2 9346   5.075   0.334   1.635 -0.3699 -0.1058  0.3450
 2395SOL    HW3 9347   5.026   0.222   1.546 -2.0845  0.3874  0.6235
 2395SOL    MW4 9348   5.046   0.306   1.558 -0.1309  0.0256  0.2074
 2396SOL     OW 9349   4.129   5.268   4.947  0.1911 -0.6203  0.5942
 2396SOL    HW2 9350   4.091   5.353   4.925 -0.4915 -1.4001 -1.4642
 2396SOL    HW3 9351   4.178   5.242   4.869 -1.7418 -3.2385  0.0933
 2396SOL    MW4 9352   4.130   5.276   4.934 -0.1540 -1.0686  0.2565
 2397SOL     OW 9353   2.179   3.252   0.821 -0.1126  0.2289 -0.0310
 2397SOL    HW2 9354   2.109   3.199   0.785 -0.8515 -0.2209  1.9416
 2397SOL    HW3 9355   2.223   3.289   0.744  0.0303 -2.6726 -1.4941
 2397SOL    MW4 9356   2.176   3.249   0.806 -0.1913 -0.2133  0.0362
 2398SOL     OW 9357   3.477   1.295   0.948 -0.1724  0.2795  0.5276
 2398SOL    HW2 9358   3.429   1.278   0.867  0.4076  0.3401  0.1670
 2398SOL    HW3 9359   3.569   1.286   0.923 -0.0128 -0.6556  1.3885
 2398SOL    MW4 9360   3.483   1.291   0.934 -0.0749  0.1641  0.5936
 2399SOL     OW 9361   0.623   3.258   5.037 -0.4672 -0.6086  0.0889
 2399SOL    HW2 9362   0.713   3.226   5.041  0.5125  1.8760 -0.1070
 2399SOL    HW3 9363   0.620   3.313   4.959 -1.5244  1.0024  1.1854
 2399SOL    MW4 9364   0.635   3.261   5.028 -0.4774 -0.0682  0.2077
 2400SOL     OW 9365   3.031   4.605   4.035  0.0727 -0.5381  0.5169
 2400SOL    HW2 9366   3.091   4.557   4.093  1.2613  0.9687  0.5945
 2400SOL    HW3 9367   3.007   4.541   3.968  1.5291 -1.2920  0.6541
 2400SOL    MW4 9368   3.036   4.590   4.034  0.4217 -0.4388  0.5453
 2401SOL     OW 9369   2.121   1.107   1.772 -0.2441  0.2891  0.0636
 2401SOL    HW2 9370   2.036   1.066   1.761 -0.5797  0.6161  1.3060
 2401SOL    HW3 9371   2.129   1.123   1.866  2.3402 -2.1986  0.4272
 2401SOL    MW4 9372   2.111   1.104   1.783  0.0526  0.0040  0.2755
 2402SOL     OW 9373   0.765   1.918   5.491  0.3920 -0.1397 -0.1603
 2402SOL    HW2 9374   0.773   1.923   5.396  0.4502  0.0053 -0.1479
 2402SOL    HW3 9375   0.701   1.985   5.513  1.1574  0.5483  0.0033
 2402SOL    MW4 9376   0.757   1.927   5.481  0.5007 -0.0298 -0.1371
 2403SOL     OW 9377   3.063   4.832   3.681 -0.0531 -0.0495 -0.2136
 2403SOL    HW2 9378   3.011   4.898   3.727  0.0826  0.8720 -1.3297
 2403SOL    HW3 9379   3.093   4.877   3.602  3.0423 -0.2843  0.6924
 2403SOL    MW4 9380   3.060   4.847   3.677  0.3732  0.0411 -0.2413
 2404SOL     OW 9381   1.591   1.873   1.175  0.2279  0.3717  0.1520
 2404SOL    HW2 9382   1.536   1.951   1.172 -0.9798 -0.4041  0.9980
 2404SOL    HW3 9383   1.645   1.879   1.097 -1.6650  0.7595 -1.2153
 2404SOL    MW4 9384   1.591   1.884   1.164 -0.1812  0.3205  0.0833
 2405SOL     OW 9385   1.007   2.957   5.818  0.2857  0.1697  0.5521
 2405SOL    HW2 9386   0.923   2.926   5.851  0.2371 -1.5038 -0.9689
 2405SOL    HW3 9387   1.072   2.917   5.875  0.0802  0.4668  0.9919
 2405SOL    MW4 9388   1.004   2.948   5.830  0.2522 -0.0119  0.4094
 2406SOL     OW 9389   3.913   1.372   4.157 -0.5396 -0.5386  0.0719
 2406SOL    HW2 9390   3.991   1.318   4.170  1.1063  1.7652  0.3587
 2406SOL    HW3 9391   3.856   1.350   4.231 -0.4405 -2.6437 -0.4224
 2406SOL    MW4 9392   3.916   1.362   4.169 -0.3094 -0.5124  0.0445
 2407SOL     OW 9393   3.360   0.911   1.141  0.2502  0.5673  0.0325
 2407SOL    HW2 9394   3.355   0.991   1.193  2.5066  0.3314  0.7576
 2407SOL    HW3 9395   3.303   0.849   1.187 -0.3026  1.3029  0.3576
 2407SOL    MW4 9396   3.352   0.913   1.154  0.4750  0.6332  0.1711
 2408SOL     OW 9397   2.211   1.458   5.952 -0.1604 -0.3227  0.1238
 2408SOL    HW2 9398   2.179   1.370   5.931 -2.3764 -0.0330  1.9286
 2408SOL    HW3 9399   2.293   1.443   5.998  0.2875 -1.3372 -0.9451
 2408SOL    MW4 9400   2.217   1.445   5.955 -0.3937 -0.4183  0.2209
 2409SOL     OW 9401   5.181   3.308   3.922 -0.1768  0.1979  0.2445
 2409SOL    HW2 9402   5.124   3.379   3.953 -1.1978 -0.6447  0.3406
 2409SOL    HW3 9403   5.266   3.350   3.909 -0.8640  1.5280 -0.0904
 2409SOL    MW4 9404   5.185   3.323   3.925 -0.4022  0.2622  0.2130
 2410SOL     OW 9405   2.227   2.657   1.023  0.2740 -0.0438  0.3704
 2410SOL    HW2 9406   2.168   2.668   1.097  0.3960  0.6238  0.3713
 2410SOL    HW3 9407   2.279   2.737   1.021 -0.3484  0.3541 -0.9837
 2410SOL    MW4 9408   2.226   2.669   1.032  0.2080  0.0968  0.1919
 2411SOL     OW 9409   5.817   1.946   6.345  0.3972 -0.2513  0.3415
 2411SOL    HW2 9410   5.811   1.868   6.400  1.1420 -0.5027  0.0714
 2411SOL    HW3 9411   5.750   2.005   6.380  1.9058  0.2455  2.5653
 2411SOL    MW4 9412   5.807   1.943   6.357  0.6945 -0.2189  0.5992
 2412SOL     OW 9413   0.446   5.751   3.972  0.1271  0.3282  0.1241
 2412SOL    HW2 9414   0.497   5.824   3.938  0.6301 -0.1221 -0.1171
 2412SOL    HW3 9415   0.512   5.689   4.003 -0.3100  0.6061  1.6919
 2412SOL    MW4 9416   0.462   5.752   3.971  0.1358  0.3054  0.2991
 2413SOL     OW 9417   4.190   0.335   1.555  0.0112  0.2303 -0.5758
 2413SOL    HW2 9418   4.147   0.393   1.617  0.2568 -0.3069  0.1203
 2413SOL    HW3 9419   4.283   0.356   1.563  0.1783 -0.7424  0.2215
 2413SOL    MW4 9420   4.197   0.345   1.564  0.0657  0.0311 -0.3788
 2414SOL     OW 9421   5.883   1.853   1.683 -0.4623 -0.2320 -0.0108
 2414SOL    HW2 9422   5.802   1.873   1.637 -0.0335 -0.6848 -0.9778
 2414SOL    HW3 9423   5.918   1.775   1.640  0.1145 -0.4880  0.8732
 2414SOL    MW4 9424   5.877   1.845   1.671 -0.3296 -0.3255 -0.0218
 2415SOL     OW 9425   4.522   3.971   5.331  0.3878  0.2887 -0.0579
 2415SOL    HW2 9426   4.605   3.969   5.379  1.2087 -1.2432 -1.4363
 2415SOL    HW3 9427   4.486   3.883   5.343 -1.7788  1.3276  1.6498
 2415SOL    MW4 9428   4.528   3.959   5.339  0.2102  0.2236 -0.0145
 2416SOL     OW 9429   2.310   6.283   5.999 -0.1559 -0.2268 -0.7479
 2416SOL    HW2 9430   2.261   6.302   5.919 -1.5287 -0.9562 -0.1326
 2416SOL    HW3 9431   2.260   6.327   6.068  1.3223  0.8789 -0.3234
 2416SOL    MW4 9432   2.297   6.291   5.998 -0.1420 -0.1772 -0.6107
 2417SOL     OW 9433   5.651   5.516   5.208  0.1150 -0.5155  0.0875
 2417SOL    HW2 9434   5.712   5.443   5.220  1.5937  0.8933  1.7521
 2417SOL    HW3 9435   5.605   5.522   5.292  1.1064  1.3463  0.5535
 2417SOL    MW4 9436   5.653   5.507   5.221  0.4409 -0.0840  0.3686
 2418SOL     OW 9437   0.768   1.861   2.093 -0.2537  0.7581  0.0012
 2418SOL    HW2 9438   0.719   1.822   2.020 -0.2971 -0.5992  0.7143
 2418SOL    HW3 9439   0.725   1.827   2.172  2.7324 -1.8602  0.7084
 2418SOL    MW4 9440   0.756   1.851   2.094  0.1346  0.2336  0.1885
 2419SOL     OW 9441   3.229   1.924   1.042  0.0214  0.3897  0.3927
 2419SOL    HW2 9442   3.149   1.871   1.036  0.0729  0.2325  1.0014
 2419SOL    HW3 9443   3.206   1.994   1.104  0.2699  0.5042  0.3558
 2419SOL    MW4 9444   3.215   1.927   1.050  0.0610  0.3841  0.4681
 2420SOL     OW 9445   3.868   1.609   4.634  0.4671  0.1612  0.5854
 2420SOL    HW2 9446   3.931   1.573   4.572 -0.6028  0.8053 -0.9354
 2420SOL    HW3 9447   3.850   1.537   4.695  1.1763 -0.6460 -0.1441
 2420SOL    MW4 9448   3.874   1.595   4.634  0.4195  0.1397  0.2885
 2421SOL     OW 9449   5.168   0.930   2.224 -0.3328 -0.3844  0.3997
 2421SOL    HW2 9450   5.099   0.958   2.284  0.4529 -0.5636  1.4208
 2421SOL    HW3 9451   5.227   1.005   2.219  0.4076 -0.9080  1.0752
 2421SOL    MW4 9452   5.167   0.944   2.231 -0.1315 -0.4771  0.6235
 2422SOL     OW 9453   2.764   3.659   2.199  0.1540 -0.1232 -0.6124
 2422SOL    HW2 9454   2.756   3.578   2.148 -0.3856  0.3406 -1.2951
 2422SOL    HW3 9455   2.855   3.685   2.190  0.8427 -1.6959  1.2688
 2422SOL    MW4 9456   2.775   3.652   2.191  0.1737 -0.2695 -0.4543
 2423SOL     OW 9457   4.411   3.719   1.918 -0.3249  1.0357 -0.3543
 2423SOL    HW2 9458   4.369   3.665   1.851  1.2652  0.7624 -1.2017
 2423SOL    HW3 9459   4.394   3.674   2.000  2.6303 -2.0583 -1.2063
 2423SOL    MW4 9460   4.403   3.706   1.920  0.2748  0.5914 -0.5785
 2424SOL     OW 9461   6.370   4.621   1.680  0.8933 -0.0266 -0.6976
 2424SOL    HW2 9462   6.381   4.644   1.772 -0.1158  1.4579 -0.9168
 2424SOL    HW3 9463   6.431   4.548   1.666  2.3158  0.8349  0.7075
 2424SOL    MW4 9464   6.380   4.614   1.691  0.9479  0.2829 -0.5411
 2425SOL     OW 9465   3.151   1.125   0.266  0.1690 -0.2496 -0.3455
 2425SOL    HW2 9466   3.109   1.055   0.317  0.6026 -0.2827 -0.0331
 2425SOL    HW3 9467   3.197   1.079   0.195 -0.4905 -0.1990 -0.8144
 2425SOL    MW4 9468   3.151   1.110   0.263  0.1392 -0.2473 -0.3661
 2426SOL     OW 9469   3.258   4.966   0.182  0.4022  0.1156 -0.3581
 2426SOL    HW2 9470   3.306   4.915   0.247  0.2182  1.4409  0.8561
 2426SOL    HW3 9471   3.231   4.901   0.116  1.8364 -1.0161  0.1128
 2426SOL    MW4 9472   3.261   4.951   0.182  0.5672  0.1412 -0.1357
 2427SOL     OW 9473   6.218   5.387   6.040  0.6663 -0.2021  0.4287
 2427SOL    HW2 9474   6.275   5.383   5.963 -1.7314 -0.7790 -1.4419
 2427SOL    HW3 9475   6.155   5.456   6.020 -0.1738 -0.5378  1.7771
 2427SOL    MW4 9476   6.217   5.395   6.028  0.2391 -0.3225  0.3598
 2428SOL     OW 9477   1.811   3.916   4.436  0.5802  0.2015  0.4583
 2428SOL    HW2 9478   1.833   3.901   4.528 -0.4109 -0.8811  0.5434
 2428SOL    HW3 9479   1.719   3.944   4.437  0.4431 -0.1981 -0.2183
 2428SOL    MW4 9480   1.802   3.917   4.449  0.4313  0.0059  0.3803
 2429SOL     OW 9481   4.252   2.399   4.535 -0.1825  0.8443 -0.6963
 2429SOL    HW2 9482   4.261   2.394   4.439  1.0722 -0.1016 -0.5445
 2429SOL    HW3 9483   4.216   2.486   4.550 -3.2524 -0.0004 -2.2160
 2429SOL    MW4 9484   4.248   2.410   4.524 -0.4220  0.6080 -0.8768
 2430SOL     OW 9485   3.042   6.169   3.125  0.3234 -0.2105  0.3567
 2430SOL    HW2 9486   2.956   6.170   3.169  1.2925  0.1421  2.3695
 2430SOL    HW3 9487   3.036   6.240   3.061 -1.0185 -0.4667  0.1537
 2430SOL    MW4 9488   3.030   6.179   3.123  0.2742 -0.1978  0.5955
 2431SOL     OW 9489   1.113   4.595   0.974  0.4926  0.2855 -0.5036
 2431SOL    HW2 9490   1.030   4.557   1.003  0.3774 -0.1878 -1.4159
 2431SOL    HW3 9491   1.132   4.551   0.891  1.0493  1.2553 -0.9076
 2431SOL    MW4 9492   1.104   4.585   0.966  0.5508  0.3510 -0.6772
 2432SOL     OW 9493   2.443   2.179   5.271 -0.1819 -0.3374  0.4213
 2432SOL    HW2 9494   2.430   2.097   5.317  0.3245 -0.5659  0.1639
 2432SOL    HW3 9495   2.460   2.154   5.180 -0.7908  0.0894  0.1769
 2432SOL    MW4 9496   2.443   2.165   5.265 -0.1954 -0.3112  0.3551
 2433SOL     OW 9497   5.712   5.411   4.784 -0.1382  0.4284  0.0298
 2433SOL    HW2 9498   5.736   5.390   4.694 -2.4131  0.5615 -0.6827
 2433SOL    HW3 9499   5.687   5.327   4.823  1.1382  0.3217  0.6786
 2433SOL    MW4 9500   5.712   5.397   4.778 -0.2700  0.4319  0.0214
 2434SOL     OW 9501   0.744   2.445   1.573  0.2159  0.8537 -0.1083
 2434SOL    HW2 9502   0.714   2.361   1.610  0.1476  1.5953  1.6426
 2434SOL    HW3 9503   0.744   2.505   1.648  3.0704  1.7068 -0.6820
 2434SOL    MW4 9504   0.740   2.442   1.588  0.5835  1.0641  0.0470
 2435SOL     OW 9505   2.829   4.722   2.632 -0.1549  0.2862 -0.4260
 2435SOL    HW2 9506   2.751   4.751   2.680 -0.2253  1.5149 -1.2501
 2435SOL    HW3 9507   2.900   4.731   2.696 -0.2688  1.7837 -0.4828
 2435SOL    MW4 9508   2.828   4.727   2.647 -0.1792  0.6459 -0.5422
 2436SOL     OW 9509   1.304   3.478   0.808  0.0335  0.2540 -0.2106
 2436SOL    HW2 9510   1.352   3.441   0.882  0.2883 -0.9706 -0.9442
 2436SOL    HW3 9511   1.212   3.463   0.829  0.0066  1.3848  0.5779
 2436SOL    MW4 9512   1.298   3.471   0.820  0.0636  0.2416 -0.2034
 2437SOL     OW 9513   5.791   5.682   0.536  0.1359  0.0394 -0.1990
 2437SOL    HW2 9514   5.724   5.624   0.573  0.8427 -0.3566  0.4916
 2437SOL    HW3 9515   5.834   5.720   0.613  0.2659  0.8038 -0.6418
 2437SOL    MW4 9516   5.788   5.680   0.551  0.2463  0.0880 -0.1663
 2438SOL     OW 9517   5.962   3.252   0.822  0.6827 -0.5562  0.4318
 2438SOL    HW2 9518   6.039   3.209   0.858  0.6975 -0.3302  0.6741
 2438SOL    HW3 9519   5.896   3.183   0.819  0.3706 -0.3579  1.8477
 2438SOL    MW4 9520   5.963   3.237   0.826  0.6435 -0.5002  0.6506
 2439SOL     OW 9521   5.254   2.807   4.474 -0.1869 -0.3481 -0.0401
 2439SOL    HW2 9522   5.162   2.832   4.480  0.0253  0.3499  0.3925
 2439SOL    HW3 9523   5.278   2.825   4.383 -0.6540 -1.1905 -0.3447
 2439SOL    MW4 9524   5.245   2.812   4.463 -0.2205 -0.3672 -0.0232
 2440SOL     OW 9525   6.076   2.215   5.544  0.5518  0.3074 -0.5724
 2440SOL    HW2 9526   6.032   2.261   5.473 -0.2624  1.6177  0.7226
 2440SOL    HW3 9527   6.091   2.282   5.611 -0.7554 -1.2613  1.4315
 2440SOL    MW4 9528   6.072   2.230   5.544  0.2719  0.2733 -0.1372
 2441SOL     OW 9529   0.083   3.011   0.581  0.6032 -0.0416 -0.4811
 2441SOL    HW2 9530   0.124   3.037   0.498  0.3445  2.2097  0.0451
 2441SOL    HW3 9531   0.148   3.031   0.647 -0.5742  1.8175  0.1858
 2441SOL    MW4 9532   0.097   3.017   0.578  0.4137  0.5007 -0.3237
 2442SOL     OW 9533   1.587   0.837   1.351  0.3339  0.2505  0.3375
 2442SOL    HW2 9534   1.620   0.918   1.389  0.4376 -0.1025  0.9991
 2442SOL    HW3 9535   1.616   0.768   1.411 -0.1816 -0.2273  0.0441
 2442SOL    MW4 9536   1.595   0.838   1.364  0.2796  0.1409  0.3861
 2443SOL     OW 9537   0.058   0.137   3.289  0.0140  0.4712  0.0453
 2443SOL    HW2 9538   0.117   0.066   3.263 -0.9822 -0.2331 -0.3756
 2443SOL    HW3 9539   0.051   0.192   3.211 -1.5071 -0.6107 -0.6244
 2443SOL    MW4 9540   0.065   0.135   3.275 -0.3181  0.2356 -0.0986
 2444SOL     OW 9541   5.755   1.893   2.978  0.1174 -0.1240 -0.0516
 2444SOL    HW2 9542   5.842   1.904   2.939  0.4812 -0.7530  0.5442
 2444SOL    HW3 9543   5.741   1.973   3.028  0.7434 -0.3843  0.5602
 2444SOL    MW4 9544   5.765   1.905   2.979  0.2480 -0.2414  0.1077
 2445SOL     OW 9545   5.814   4.418   6.166 -0.2820  0.3972  0.1111
 2445SOL    HW2 9546   5.851   4.492   6.118 -0.8782 -0.2782 -1.4303
 2445SOL    HW3 9547   5.726   4.447   6.190 -0.6111  0.1157 -0.7194
 2445SOL    MW4 9548   5.807   4.432   6.163 -0.4041  0.2709 -0.2018
 2446SOL     OW 9549   2.297   0.351   1.725  0.1655 -0.2864 -0.1691
 2446SOL    HW2 9550   2.314   0.258   1.737  0.0273 -0.4404 -1.1172
 2446SOL    HW3 9551   2.298   0.364   1.630  0.1454  0.6703 -0.0506
 2446SOL    MW4 9552   2.299   0.341   1.714  0.1446 -0.1805 -0.2786
 2447SOL     OW 9553   2.483   2.767   1.598 -0.2946 -0.2968  0.0533
 2447SOL    HW2 9554   2.461   2.746   1.507  0.0704 -1.0473  0.1274
 2447SOL    HW3 9555   2.401   2.753   1.646 -0.7267  0.9631 -0.2758
 2447SOL    MW4 9556   2.469   2.762   1.592 -0.3034 -0.2296  0.0196
 2448SOL     OW 9557   4.596   3.943   4.530 -0.1227  0.3255 -0.0979
 2448SOL    HW2 9558   4.530   4.007   4.558 -1.5221 -0.5902 -1.1825
 2448SOL    HW3 9559   4.582   3.867   4.586 -1.3439 -0.6037 -1.5786
 2448SOL    MW4 9560   4.586   3.942   4.541 -0.4685  0.0821 -0.4363
 2449SOL     OW 9561   5.571   3.138   5.785  0.1974  0.4937  0.4597
 2449SOL    HW2 9562   5.558   3.189   5.705 -1.6286  1.4281  1.2919
 2449SOL    HW3 9563   5.661   3.156   5.811  0.0270  2.2256 -0.0263
 2449SOL    MW4 9564   5.581   3.147   5.778 -0.0660  0.8455  0.5054
 2450SOL     OW 9565   3.740   5.758   2.654  0.1959  0.0141  0.3397
 2450SOL    HW2 9566   3.691   5.762   2.572 -0.9447 -0.0733  0.9978
 2450SOL    HW3 9567   3.704   5.829   2.707  1.5750  0.6760  0.4454
 2450SOL    MW4 9568   3.729   5.768   2.650  0.2274  0.0899  0.4405
 2451SOL     OW 9569   3.337   2.756   5.067  0.3264 -0.0780 -0.2329
 2451SOL    HW2 9570   3.378   2.780   5.150  3.8296 -2.1760 -1.1444
 2451SOL    HW3 9571   3.404   2.705   5.021 -1.2969  1.1857 -4.5063
 2451SOL    MW4 9572   3.352   2.753   5.072  0.5744 -0.1881 -0.9170
 2452SOL     OW 9573   1.908   0.913   2.984  0.0481  0.0827  0.1407
 2452SOL    HW2 9574   1.988   0.951   2.948  0.8236 -0.5971  1.1019
 2452SOL    HW3 9575   1.929   0.820   2.995 -1.6808 -0.6046 -1.8232
 2452SOL    MW4 9576   1.921   0.906   2.981 -0.0777 -0.0976  0.0084
 2453SOL     OW 9577   0.751   3.928   1.579 -0.2910  0.0001 -0.0083
 2453SOL    HW2 9578   0.666   3.910   1.538 -0.2024  0.9596 -0.6591
 2453SOL    HW3 9579   0.730   3.946   1.671 -0.6960 -0.5383  0.0086
 2453SOL    MW4 9580   0.737   3.928   1.586 -0.3328  0.0557 -0.0920
 2454SOL     OW 9581   5.298   0.718   4.085  0.0660  0.4430 -0.5289
 2454SOL    HW2 9582   5.221   0.676   4.048  0.4918  0.1644 -1.1175
 2454SOL    HW3 9583   5.342   0.649   4.135 -0.2026  0.6684  0.0224
 2454SOL    MW4 9584   5.294   0.703   4.087  0.0868  0.4360 -0.5338
 2455SOL     OW 9585   2.072   2.526   0.334  0.3050  0.1031 -0.4694
 2455SOL    HW2 9586   2.018   2.530   0.413 -0.1178  0.8754 -0.7826
 2455SOL    HW3 9587   2.036   2.452   0.284 -0.8670  0.9554 -0.9396
 2455SOL    MW4 9588   2.060   2.517   0.338  0.0946  0.3175 -0.5727
 2456SOL     OW 9589   5.503   4.558   1.180  0.3457  0.0145 -0.3890
 2456SOL    HW2 9590   5.410   4.576   1.169  0.5177  0.2909 -1.5947
 2456SOL    HW3 9591   5.533   4.621   1.245 -0.3254 -0.1729  0.1122
 2456SOL    MW4 9592   5.495   4.568   1.187  0.2798  0.0263 -0.4819
 2457SOL     OW 9593   5.758   4.490   1.959  0.5058  0.3111  0.5943
 2457SOL    HW2 9594   5.807   4.415   1.926 -0.0347  0.5945 -0.9400
 2457SOL    HW3 9595   5.818   4.564   1.953  0.2446  0.4619 -0.3001
 2457SOL    MW4 9596   5.772   4.490   1.954  0.4000  0.3684  0.2738
 2458SOL     OW 9597   4.312   6.103   4.857 -0.2362 -0.1023 -0.3374
 2458SOL    HW2 9598   4.403   6.129   4.865 -0.1515 -0.1849 -0.9803
 2458SOL    HW3 9599   4.295   6.103   4.763 -1.0260  0.3662 -0.2083
 2458SOL    MW4 9600   4.321   6.107   4.846 -0.3292 -0.0514 -0.4052
 2459SOL     OW 9601   5.446   4.497   1.660  0.0410 -0.0970 -0.0283
 2459SOL    HW2 9602   5.450   4.592   1.661 -0.2230 -0.0617 -1.0884
 2459SOL    HW3 9603   5.533   4.470   1.629 -0.5427 -0.1018 -1.7876
 2459SOL    MW4 9604   5.458   4.506   1.656 -0.0708 -0.0930 -0.4003
 2460SOL     OW 9605   5.780   1.369   2.524  0.5400  0.1077 -0.5207
 2460SOL    HW2 9606   5.749   1.338   2.439 -1.8412  1.0044 -0.0395
 2460SOL    HW3 9607   5.801   1.289   2.572  0.2379 -0.4862 -1.3484
 2460SOL    MW4 9608   5.779   1.354   2.519  0.1860  0.1476 -0.5664
 2461SOL     OW 9609   5.673   2.565   0.266 -0.3661  0.2977 -0.4018
 2461SOL    HW2 9610   5.636   2.642   0.224  1.1657  0.4477 -1.5774
 2461SOL    HW3 9611   5.751   2.597   0.312  0.0668 -0.4736 -0.5785
 2461SOL    MW4 9612   5.678   2.579   0.267 -0.1069  0.2157 -0.5802
 2462SOL     OW 9613   5.269   4.314   6.222  0.2340  0.5148 -0.1910
 2462SOL    HW2 9614   5.355   4.352   6.205  0.3259  0.0620 -0.7781
 2462SOL    HW3 9615   5.251   4.260   6.144 -0.4180  0.3239  0.0873
 2462SOL    MW4 9616   5.278   4.312   6.209  0.1601  0.4299 -0.2317
 2463SOL     OW 9617   2.196   5.654   3.978 -0.4741 -0.2387 -0.1043
 2463SOL    HW2 9618   2.209   5.567   3.939  0.5134 -0.7261  1.2699
 2463SOL    HW3 9619   2.164   5.708   3.905  2.8592 -0.6839 -2.0983
 2463SOL    MW4 9620   2.193   5.650   3.963  0.0960 -0.3617 -0.1861
 2464SOL     OW 9621   0.370   1.540   2.354  0.0472  0.3004 -0.1904
 2464SOL    HW2 9622   0.354   1.581   2.440  0.6902  0.9028 -0.3467
 2464SOL    HW3 9623   0.337   1.451   2.364 -2.8390  1.2592 -0.3251
 2464SOL    MW4 9624   0.364   1.534   2.367 -0.2488  0.5063 -0.2288
 2465SOL     OW 9625   5.914   4.111   4.044 -0.5552 -0.0136 -0.2605
 2465SOL    HW2 9626   5.999   4.155   4.030 -0.0950 -1.1104 -1.1135
 2465SOL    HW3 9627   5.881   4.096   3.955 -1.4031 -0.0577  0.0589
 2465SOL    MW4 9628   5.921   4.115   4.030 -0.6063 -0.1641 -0.3309
 2466SOL     OW 9629   3.256   1.338   2.964  0.5551  0.1124  0.0237
 2466SOL    HW2 9630   3.198   1.412   2.984 -0.8124 -0.3160 -2.0882
 2466SOL    HW3 9631   3.278   1.302   3.050 -2.4163  0.2334  0.9518
 2466SOL    MW4 9632   3.251   1.343   2.978 -0.0173  0.0718 -0.1324
 2467SOL     OW 9633   0.031   5.006   3.590  0.2488  0.3430  0.2311
 2467SOL    HW2 9634  -0.027   5.082   3.592 -0.4454 -0.1480  2.4224
 2467SOL    HW3 9635   0.094   5.024   3.521 -1.4775  1.6905 -1.0601
 2467SOL    MW4 9636   0.032   5.018   3.581 -0.0706  0.4560  0.3499
 2468SOL     OW 9637   2.242   1.991   2.668  0.8125  0.3345 -0.1074
 2468SOL    HW2 9638   2.270   1.901   2.688 -0.2201  0.1881  0.7709
 2468SOL    HW3 9639   2.284   2.010   2.584 -0.4862 -1.6916 -1.3000
 2468SOL    MW4 9640   2.252   1.981   2.660  0.5049  0.0479 -0.1489
 2469SOL     OW 9641   4.897   2.967   4.064 -0.0096 -0.3482  0.4737
 2469SOL    HW2 9642   4.990   2.989   4.059  0.4200 -1.7912  1.6064
 2469SOL    HW3 9643   4.882   2.909   3.990  0.1279 -0.5098  0.5693
 2469SOL    MW4 9644   4.907   2.962   4.054  0.0652 -0.5599  0.6357
 2470SOL     OW 9645   4.200   0.712   0.635 -0.0940 -0.3283 -0.0330
 2470SOL    HW2 9646   4.202   0.617   0.640  1.1962 -0.3532 -0.6858
 2470SOL    HW3 9647   4.254   0.742   0.708 -0.1942 -0.1073 -0.0485
 2470SOL    MW4 9648   4.207   0.704   0.645  0.0630 -0.3025 -0.1212
 2471SOL     OW 9649   3.613   5.299   4.977 -0.4312  0.0435 -0.7313
 2471SOL    HW2 9650   3.627   5.215   4.931 -2.2344  0.0717 -1.4143
 2471SOL    HW3 9651   3.581   5.358   4.909  0.6766  1.2908 -0.2246
 2471SOL    MW4 9652   3.611   5.295   4.962 -0.5230  0.2118 -0.7546
 2472SOL     OW 9653   1.825   2.448   1.758 -0.0975 -0.3166 -0.0466
 2472SOL    HW2 9654   1.843   2.356   1.777 -1.4608 -0.7695 -0.8642
 2472SOL    HW3 9655   1.836   2.492   1.842 -0.2649 -1.3569  0.5368
 2472SOL    MW4 9656   1.829   2.442   1.771 -0.2995 -0.5136 -0.0775
 2473SOL     OW 9657   5.349   3.304   0.974  0.2324 -0.1545 -0.5781
 2473SOL    HW2 9658   5.393   3.252   1.040 -0.5476  1.0607  0.9679
 2473SOL    HW3 9659   5.394   3.282   0.892  0.8742 -2.0871  0.2406
 2473SOL    MW4 9660   5.361   3.295   0.972  0.2141 -0.2491 -0.2661
 2474SOL     OW 9661   2.859   6.414   5.237  0.0664 -0.6421  0.0195
 2474SOL    HW2 9662   2.919   6.348   5.272 -0.0484 -1.0511 -0.5408
 2474SOL    HW3 9663   2.916   6.482   5.202  0.1851 -0.3810  0.7098
 2474SOL    MW4 9664   2.874   6.414   5.237  0.0669 -0.6616  0.0366
 2475SOL     OW 9665   4.903   0.343   6.102  0.4949  0.3830 -0.4022
 2475SOL    HW2 9666   4.923   0.261   6.058 -0.0461 -0.4453  0.8174
 2475SOL    HW3 9667   4.988   0.385   6.116  0.6352  0.9190 -2.6191
 2475SOL    MW4 9668   4.916   0.338   6.098  0.4421  0.3444 -0.5338
 2476SOL     OW 9669   0.603   5.941   0.967 -0.0351 -0.1893 -0.1334
 2476SOL    HW2 9670   0.507   5.932   0.972 -0.0966  0.7170  0.7738
 2476SOL    HW3 9671   0.622   6.015   1.025  1.1095  0.3613 -1.1745
 2476SOL    MW4 9672   0.593   5.950   0.976  0.1078  0.0029 -0.1510
 2477SOL     OW 9673   1.495   2.241   3.314  0.1039  0.0672  0.0649
 2477SOL    HW2 9674   1.524   2.262   3.225 -1.6982 -0.4891 -0.6888
 2477SOL    HW3 9675   1.495   2.324   3.360 -0.1197  0.5657 -0.8190
 2477SOL    MW4 9676   1.499   2.254   3.308 -0.1634  0.0596 -0.1512
 2478SOL     OW 9677   0.559   3.142   1.068  0.3570  0.3375 -0.2610
 2478SOL    HW2 9678   0.619   3.168   1.138 -1.6148  4.0797  0.2828
 2478SOL    HW3 9679   0.616   3.121   0.994  2.4149 -1.6825  1.7555
 2478SOL    MW4 9680   0.574   3.143   1.068  0.3684  0.5647  0.0768
 2479SOL     OW 9681   2.140   2.247   4.510 -0.4010  0.6332 -0.7542
 2479SOL    HW2 9682   2.120   2.209   4.424  0.2976  1.5445 -1.3384
 2479SOL    HW3 9683   2.183   2.176   4.557 -1.7161 -0.2004 -0.7759
 2479SOL    MW4 9684   2.143   2.233   4.505 -0.4824  0.6434 -0.8342
 2480SOL     OW 9685   1.587   3.661   5.684 -0.6085 -0.2730 -0.1930
 2480SOL    HW2 9686   1.612   3.589   5.625  0.3701  0.6990 -1.0084
 2480SOL    HW3 9687   1.495   3.679   5.662 -0.5441 -0.5707 -0.7272
 2480SOL    MW4 9688   1.578   3.654   5.673 -0.4709 -0.1841 -0.3711
 2481SOL     OW 9689   4.879   2.665   3.595 -0.2813  0.1717 -0.1041
 2481SOL    HW2 9690   4.803   2.671   3.537 -0.0260  0.6776 -0.3902
 2481SOL    HW3 9691   4.845   2.686   3.682 -0.2851  1.3743 -0.3819
 2481SOL    MW4 9692   4.864   2.668   3.598 -0.2481  0.3971 -0.1785
 2482SOL     OW 9693   5.564   6.041   5.459 -0.1753 -0.2069  1.2561
 2482SOL    HW2 9694   5.594   6.092   5.383 -0.1203  2.4582  2.9415
 2482SOL    HW3 9695   5.629   5.972   5.469  2.8780  2.5215  1.9069
 2482SOL    MW4 9696   5.577   6.039   5.450  0.2348  0.5047  1.5643
 2483SOL     OW 9697   4.954   2.886   5.316  0.5523 -0.2378 -0.1055
 2483SOL    HW2 9698   4.894   2.858   5.384  0.7023  2.0605  1.0584
 2483SOL    HW3 9699   5.039   2.850   5.342  0.0107 -2.4080 -1.0835
 2483SOL    MW4 9700   4.958   2.878   5.328  0.5006 -0.2209 -0.0810
 2484SOL     OW 9701   5.961   3.551   4.740 -0.3112 -0.0380 -0.3268
 2484SOL    HW2 9702   5.932   3.624   4.795 -2.0980 -1.6465  1.0167
 2484SOL    HW3 9703   6.039   3.518   4.784 -1.5234 -1.0908  1.1391
 2484SOL    MW4 9704   5.967   3.556   4.753 -0.7069 -0.3891  0.0438
 2485SOL     OW 9705   4.003   4.210   0.165 -0.3130 -0.1252 -0.1275
 2485SOL    HW2 9706   4.004   4.293   0.212  0.5185  0.5561 -1.3150
 2485SOL    HW3 9707   3.948   4.226   0.088 -0.9194 -0.9587  0.1226
 2485SOL    MW4 9708   3.996   4.223   0.161 -0.2833 -0.1453 -0.2512
 2486SOL     OW 9709   3.662   1.827   0.970  0.6449  0.1137 -0.1940
 2486SOL    HW2 9710   3.635   1.819   0.878 -2.3541  1.0879  0.4772
 2486SOL    HW3 9711   3.742   1.775   0.976  0.6647 -0.4088 -3.2312
 2486SOL    MW4 9712   3.669   1.819   0.959  0.2518  0.1733 -0.5062
 2487SOL     OW 9713   2.918   5.429   3.638 -0.2096  0.5957 -0.0890
 2487SOL    HW2 9714   2.933   5.506   3.582 -0.9618  1.6155  1.0566
 2487SOL    HW3 9715   3.005   5.404   3.668  0.0911  0.7078 -0.8370
 2487SOL    MW4 9716   2.931   5.436   3.634 -0.2692  0.7450 -0.0365
 2488SOL     OW 9717   6.355   4.293   4.532 -0.4766 -0.0351  0.0972
 2488SOL    HW2 9718   6.337   4.209   4.575 -1.3645 -0.8459 -1.7385
 2488SOL    HW3 9719   6.306   4.288   4.450 -1.0316  2.5411  0.1959
 2488SOL    MW4 9720   6.346   4.281   4.527 -0.6669  0.1978 -0.1320
 2489SOL     OW 9721   1.536   2.734   3.426 -0.3790  0.2204 -0.0213
 2489SOL    HW2 9722   1.544   2.754   3.333  2.0032 -1.7433 -0.3273
 2489SOL    HW3 9723   1.575   2.809   3.471 -0.8484  0.8276 -0.6097
 2489SOL    MW4 9724   1.542   2.747   3.420 -0.1266  0.0414 -0.1393
 2490SOL     OW 9725   2.227   1.483   4.464 -0.2895 -0.0374 -0.6826
 2490SOL    HW2 9726   2.210   1.556   4.524  1.3953 -1.1271  1.2774
 2490SOL    HW3 9727   2.145   1.433   4.462 -0.9494  1.0287 -0.7739
 2490SOL    MW4 9728   2.214   1.486   4.471 -0.1542 -0.0405 -0.4361
 2491SOL     OW 9729   3.930   2.550   2.182  0.7411 -0.1232  0.4009
 2491SOL    HW2 9730   3.842   2.554   2.144  0.3181 -1.0615  1.2308
 2491SOL    HW3 9731   3.988   2.532   2.108  0.7822  4.0852 -0.8225
 2491SOL    MW4 9732   3.926   2.548   2.167  0.6907  0.3082  0.3490
 2492SOL     OW 9733   0.367   3.988   2.615 -0.3635  0.0797  0.0316
 2492SOL    HW2 9734   0.303   4.022   2.553 -0.7130 -1.3722 -0.4370
 2492SOL    HW3 9735   0.416   4.065   2.644 -2.4023  1.2595  0.5122
 2492SOL    MW4 9736   0.365   4.003   2.611 -0.6786  0.0438  0.0332
 2493SOL     OW 9737   2.217   2.981   1.655 -0.3836 -0.4708 -0.5293
 2493SOL    HW2 9738   2.192   3.073   1.643 -0.2612 -0.4726 -0.7826
 2493SOL    HW3 9739   2.147   2.932   1.612 -1.0444 -0.5281  0.5721
 2493SOL    MW4 9740   2.205   2.987   1.648 -0.4546 -0.4786 -0.4174
 2494SOL     OW 9741   3.556   1.193   0.109  0.2729  0.0901 -0.0913
 2494SOL    HW2 9742   3.485   1.248   0.077  0.2636  1.0480  1.5059
 2494SOL    HW3 9743   3.605   1.249   0.170  0.8099 -1.3757  0.8810
 2494SOL    MW4 9744   3.553   1.208   0.113  0.3425  0.0231  0.2477
 2495SOL     OW 9745   4.982   4.963   5.806  0.1571 -0.2412 -0.3900
 2495SOL    HW2 9746   5.000   4.875   5.840 -0.7715  0.0737  1.0224
 2495SOL    HW3 9747   5.058   4.984   5.753  2.6639 -0.0976  2.8991
 2495SOL    MW4 9748   4.995   4.954   5.804  0.3653 -0.1807  0.2303
 2496SOL     OW 9749   6.216   3.461   1.529 -0.6373 -0.8582 -0.0161
 2496SOL    HW2 9750   6.305   3.467   1.496 -0.2619 -0.6069  0.9922
 2496SOL    HW3 9751   6.162   3.443   1.452  0.2588 -0.8285 -0.6592
 2496SOL    MW4 9752   6.221   3.459   1.515 -0.4696 -0.8211  0.0321
 2497SOL     OW 9753   0.529   0.810   5.533  0.3694 -0.9209  0.2673
 2497SOL    HW2 9754   0.517   0.786   5.441  0.7708 -2.7381  0.6490
 2497SOL    HW3 9755   0.531   0.726   5.579  2.1530 -0.1524  1.6848
 2497SOL    MW4 9756   0.528   0.796   5.527  0.6577 -1.0593  0.5047
 2498SOL     OW 9757   5.623   4.551   0.644 -0.4166  0.0196 -0.0453
 2498SOL    HW2 9758   5.590   4.465   0.672  0.4068 -0.0692  0.7000
 2498SOL    HW3 9759   5.712   4.555   0.678 -0.9653  1.8346  1.3577
 2498SOL    MW4 9760   5.631   4.540   0.652 -0.3804  0.2474  0.2382
 2499SOL     OW 9761   2.812   2.212   2.299  0.4625  0.5441  0.2276
 2499SOL    HW2 9762   2.823   2.162   2.379  0.2894  0.3952  0.1590
 2499SOL    HW3 9763   2.896   2.204   2.253  0.3174  0.0152  0.0462
 2499SOL    MW4 9764   2.825   2.204   2.303  0.4205  0.4547  0.1946
 2500SOL     OW 9765   1.541   6.191   5.207 -0.4152 -0.2545  0.1637
 2500SOL    HW2 9766   1.629   6.218   5.233 -0.1074 -0.6869 -0.3988
 2500SOL    HW3 9767   1.549   6.172   5.113 -1.3603  0.7212 -0.1379
 2500SOL    MW4 9768   1.554   6.192   5.198 -0.4993 -0.1828  0.0497
 2501SOL     OW 9769   0.656   1.880   0.832  0.2097 -0.9549 -0.1203
 2501SOL    HW2 9770   0.702   1.959   0.801 -1.6117  0.1352 -0.2002
 2501SOL    HW3 9771   0.713   1.844   0.900  0.5533  1.1275  0.7857
 2501SOL    MW4 9772   0.670   1.886   0.837  0.0147 -0.5363 -0.0113
 2502SOL     OW 9773   2.866   0.377   3.919 -0.1007  0.1179 -0.2725
 2502SOL    HW2 9774   2.949   0.403   3.958 -0.2882 -0.1123  0.2917
 2502SOL    HW3 9775   2.848   0.291   3.956 -0.4731  0.0608 -0.5764
 2502SOL    MW4 9776   2.874   0.369   3.929 -0.1746  0.0800 -0.2382
 2503SOL     OW 9777   3.920   2.620   6.369  0.7958 -0.2790 -0.4214
 2503SOL    HW2 9778   3.892   2.653   6.284  1.7080  2.3016  0.1974
 2503SOL    HW3 9779   3.912   2.695   6.428 -0.0182 -2.0358  1.8587
 2503SOL    MW4 9780   3.915   2.634   6.366  0.8088 -0.1703 -0.0389
 2504SOL     OW 9781   3.497   2.197   1.202 -0.1382 -0.0771 -0.5918
 2504SOL    HW2 9782   3.500   2.261   1.273  1.1687  0.3348 -0.9865
 2504SOL    HW3 9783   3.427   2.229   1.144 -0.7143 -0.0136  0.1204
 2504SOL    MW4 9784   3.488   2.210   1.203 -0.0418 -0.0144 -0.5499
 2505SOL     OW 9785   2.406   1.208   0.538  0.3656 -0.1121  0.8457
 2505SOL    HW2 9786   2.323   1.239   0.573  1.2287  2.7407  0.6193
 2505SOL    HW3 9787   2.471   1.236   0.603  1.4624  0.7740 -0.5833
 2505SOL    MW4 9788   2.404   1.215   0.552  0.6242  0.3812  0.6273
 2506SOL     OW 9789   3.786   3.534   5.955 -0.2697 -0.5237  0.0735
 2506SOL    HW2 9790   3.850   3.530   5.884 -0.9213 -0.0625 -0.5519
 2506SOL    HW3 9791   3.789   3.624   5.986  0.5087 -0.8845  1.1185
 2506SOL    MW4 9792   3.795   3.545   5.950 -0.2529 -0.5105  0.1289
 2507SOL     OW 9793   0.481   0.894   4.423  0.1329  0.3264  0.0748
 2507SOL    HW2 9794   0.411   0.879   4.487  1.0115 -1.7918  0.6302
 2507SOL    HW3 9795   0.476   0.818   4.364  0.2974  1.4902 -1.5094
 2507SOL    MW4 9796   0.471   0.882   4.423  0.2705  0.2005 -0.0610
 2508SOL     OW 9797   4.832   1.667   1.957  0.3329  0.4750  0.0517
 2508SOL    HW2 9798   4.762   1.732   1.951 -0.3889 -0.1134  1.6224
 2508SOL    HW3 9799   4.801   1.604   2.023  2.0644 -0.1363  0.3330
 2508SOL    MW4 9800   4.819   1.667   1.965  0.4661  0.3167  0.2960
 2509SOL     OW 9801   3.611   3.653   1.823 -0.2331 -0.3293  0.0145
 2509SOL    HW2 9802   3.657   3.706   1.758  2.2673 -1.8809  0.3711
 2509SOL    HW3 9803   3.519   3.661   1.799  0.2836  1.9060 -1.5839
 2509SOL    MW4 9804   3.605   3.661   1.811  0.1650 -0.2391 -0.1493
 2510SOL     OW 9805   0.822   4.184   1.167 -0.0284 -0.2004  0.2385
 2510SOL    HW2 9806   0.917   4.185   1.176  0.0786 -3.2976  0.4997
 2510SOL    HW3 9807   0.806   4.215   1.078  1.2284  0.1315  0.1132
 2510SOL    MW4 9808   0.833   4.188   1.157  0.1515 -0.5653  0.2564
 2511SOL     OW 9809   1.922   0.407   1.553 -0.1551  0.0182  0.3138
 2511SOL    HW2 9810   2.000   0.356   1.572 -0.4246 -0.0887  1.1838
 2511SOL    HW3 9811   1.921   0.476   1.619  0.0111  0.9515 -0.6268
 2511SOL    MW4 9812   1.932   0.409   1.564 -0.1687  0.1272  0.3045
 2512SOL     OW 9813   2.515   1.024   4.071  0.1926  0.6400  0.2927
 2512SOL    HW2 9814   2.536   0.988   3.984 -0.6092 -1.7570  1.0159
 2512SOL    HW3 9815   2.462   1.101   4.052 -0.4730 -0.1642 -1.3798
 2512SOL    MW4 9816   2.511   1.029   4.057 -0.0010  0.2176  0.1675
 2513SOL     OW 9817   5.797   4.145   0.246  0.5735 -0.2852 -0.5366
 2513SOL    HW2 9818   5.844   4.214   0.199 -0.7133  0.8519 -0.2003
 2513SOL    HW3 9819   5.854   4.068   0.237  1.5773  0.5453 -1.7560
 2513SOL    MW4 9820   5.811   4.144   0.239  0.5362 -0.0256 -0.6531
 2514SOL     OW 9821   0.752   1.038   0.880 -0.6643  0.2653 -0.2879
 2514SOL    HW2 9822   0.775   1.090   0.803 -1.5861  0.5928 -0.3644
 2514SOL    HW3 9823   0.814   1.065   0.947 -1.3533  1.7892 -0.2152
 2514SOL    MW4 9824   0.763   1.049   0.879 -0.8769  0.5096 -0.2884
 2515SOL     OW 9825   1.090   3.630   3.979 -0.3332  0.1628 -0.1479
 2515SOL    HW2 9826   1.053   3.641   4.067  0.5930  0.4572  0.2177
 2515SOL    HW3 9827   1.019   3.592   3.928 -0.3686 -1.6680  1.1524
 2515SOL    MW4 9828   1.076   3.626   3.984 -0.2157 -0.0399  0.0719
 2516SOL     OW 9829   1.758   4.905   4.727  0.0690 -0.3148 -0.1078
 2516SOL    HW2 9830   1.787   4.871   4.812 -1.4558  1.0097  0.9895
 2516SOL    HW3 9831   1.719   4.829   4.683  0.3834 -0.8938  0.5837
 2516SOL    MW4 9832   1.757   4.890   4.733 -0.0907 -0.2164  0.1282
 2517SOL     OW 9833   4.584   3.360   1.203  0.1190  0.3189 -0.0350
 2517SOL    HW2 9834   4.519   3.375   1.134  1.0984  0.7056 -0.9083
 2517SOL    HW3 9835   4.663   3.333   1.156  0.8215  0.6207  0.9316
 2517SOL    MW4 9836   4.586   3.359   1.187  0.3409  0.4098 -0.0227
 2518SOL     OW 9837   5.050   3.995   4.412 -0.1512  0.1710  0.3015
 2518SOL    HW2 9838   5.016   3.930   4.351  0.4761  0.7851 -0.7202
 2518SOL    HW3 9839   4.987   3.994   4.484 -0.5606 -1.0217 -0.0386
 2518SOL    MW4 9840   5.037   3.986   4.414 -0.1225  0.0946  0.1218
 2519SOL     OW 9841   0.806   6.349   5.350 -0.1765 -0.1107 -0.4866
 2519SOL    HW2 9842   0.722   6.347   5.394 -0.0435 -0.0282 -0.2284
 2519SOL    HW3 9843   0.863   6.293   5.403  0.9239  2.5891  1.3849
 2519SOL    MW4 9844   0.802   6.341   5.363 -0.0138  0.2564 -0.2056
 2520SOL     OW 9845   4.710   2.952   3.787 -0.5312 -0.6714  0.3144
 2520SOL    HW2 9846   4.786   2.998   3.751  0.1403 -0.8091  1.5169
 2520SOL    HW3 9847   4.649   2.946   3.713  0.4304 -0.1563 -0.5505
 2520SOL    MW4 9848   4.712   2.957   3.773 -0.3157 -0.6216  0.3590
 2521SOL     OW 9849   6.136   1.327   0.110  0.3448 -0.3399 -0.0089
 2521SOL    HW2 9850   6.204   1.347   0.175  0.6976 -0.7343 -0.2461
 2521SOL    HW3 9851   6.057   1.312   0.162  0.5282 -0.2525  0.3001
 2521SOL    MW4 9852   6.135   1.327   0.126  0.4156 -0.3804  0.0005
 2522SOL     OW 9853   3.141   4.004   6.009  0.2774 -0.3459 -0.2836
 2522SOL    HW2 9854   3.100   3.943   6.070 -2.1699 -0.6341 -2.0846
 2522SOL    HW3 9855   3.122   4.091   6.046 -0.6918 -0.5335 -0.3241
 2522SOL    MW4 9856   3.133   4.008   6.022 -0.1734 -0.4087 -0.5266
 2523SOL     OW 9857   4.483   1.028   5.254  0.5047 -0.2371 -0.3547
 2523SOL    HW2 9858   4.564   1.069   5.225  0.8986 -1.1873 -0.6567
 2523SOL    HW3 9859   4.427   1.100   5.282  2.1985  0.3053  1.8008
 2523SOL    MW4 9860   4.486   1.043   5.254  0.7801 -0.2909 -0.1102
 2524SOL     OW 9861   1.650   3.125   1.663  0.4666 -0.5794 -0.3386
 2524SOL    HW2 9862   1.575   3.078   1.627  0.1962 -1.0710  0.8021
 2524SOL    HW3 9863   1.634   3.217   1.641 -0.6089 -0.6420  0.0871
 2524SOL    MW4 9864   1.638   3.131   1.656  0.2891 -0.6525 -0.1319
 2525SOL     OW 9865   1.008   2.770   2.224  0.0031  0.0030  1.0184
 2525SOL    HW2 9866   0.937   2.715   2.191  0.7367  0.1418 -0.9069
 2525SOL    HW3 9867   1.019   2.838   2.157  2.6004 -0.5845  0.7399
 2525SOL    MW4 9868   1.000   2.772   2.211  0.4425 -0.0562  0.7276
 2526SOL     OW 9869   4.131   0.930   2.226  0.2510  0.3720 -0.6137
 2526SOL    HW2 9870   4.085   0.847   2.239  1.3709 -0.3571 -1.2032
 2526SOL    HW3 9871   4.222   0.912   2.250  0.5827  1.3175 -1.1234
 2526SOL    MW4 9872   4.137   0.917   2.231  0.4425  0.4006 -0.7587
 2527SOL     OW 9873   2.569   1.056   1.609 -0.0102  0.4655 -0.0865
 2527SOL    HW2 9874   2.558   1.029   1.518  0.3029  2.6676 -0.8413
 2527SOL    HW3 9875   2.637   0.998   1.643  0.9070  0.5053 -1.7049
 2527SOL    MW4 9876   2.577   1.045   1.601  0.1521  0.7613 -0.3996
 2528SOL     OW 9877   1.090   2.663   2.733 -0.5862 -0.4280 -0.4277
 2528SOL    HW2 9878   1.029   2.675   2.660  0.8269  0.0172 -1.5968
 2528SOL    HW3 9879   1.119   2.752   2.755  0.3288 -0.6965 -0.5140
 2528SOL    MW4 9880   1.086   2.677   2.726 -0.2790 -0.4047 -0.5933
 2529SOL     OW 9881   2.472   2.646   4.671  0.1639 -0.5205  0.2819
 2529SOL    HW2 9882   2.399   2.594   4.637 -0.4502  0.1995  0.4842
 2529SOL    HW3 9883   2.495   2.604   4.754  0.5647 -1.2689 -0.1882
 2529SOL    MW4 9884   2.465   2.633   4.678  0.1358 -0.5242  0.2466
 2530SOL     OW 9885   3.747   2.636   5.169  0.5702 -0.0536  0.0978
 2530SOL    HW2 9886   3.783   2.547   5.174  0.0990 -0.2684 -0.2462
 2530SOL    HW3 9887   3.824   2.693   5.176  0.9439 -0.5002 -0.2799
 2530SOL    MW4 9888   3.762   2.632   5.171  0.5574 -0.1409  0.0026
 2531SOL     OW 9889   0.069   4.982   5.001 -0.2287  0.4463  0.5779
 2531SOL    HW2 9890   0.004   4.933   5.051  0.2657  0.9947  1.7868
 2531SOL    HW3 9891   0.028   5.067   4.985 -0.4722  0.1991 -0.1699
 2531SOL    MW4 9892   0.055   4.987   5.005 -0.1956  0.4861  0.6388
 2532SOL     OW 9893   0.113   1.645   4.980  0.1911  0.5343 -0.0815
 2532SOL    HW2 9894   0.125   1.607   5.068 -0.6487  0.1442 -0.1209
 2532SOL    HW3 9895   0.152   1.580   4.921  0.2961  0.5535 -0.0341
 2532SOL    MW4 9896   0.120   1.631   4.984  0.0942  0.4853 -0.0805
 2533SOL     OW 9897   2.138   0.445   5.507 -0.3557 -0.0523 -0.4318
 2533SOL    HW2 9898   2.132   0.453   5.602  0.0149 -0.2546 -0.3895
 2533SOL    HW3 9899   2.226   0.476   5.485  0.2060 -1.5975 -0.5228
 2533SOL    MW4 9900   2.149   0.450   5.516 -0.2327 -0.2829 -0.4382
 2534SOL     OW 9901   1.425   4.981   4.391  0.3243 -0.1523  0.1663
 2534SOL    HW2 9902   1.364   4.969   4.464  0.1680 -0.6064 -0.0356
 2534SOL    HW3 9903   1.484   5.050   4.420 -0.9498  1.0668 -0.0600
 2534SOL    MW4 9904   1.425   4.988   4.404  0.1356 -0.0514  0.1098
 2535SOL     OW 9905   1.334   4.897   4.137  0.5654 -0.2440 -0.2493
 2535SOL    HW2 9906   1.357   4.807   4.162 -0.3231  0.0323  1.7212
 2535SOL    HW3 9907   1.359   4.950   4.212 -0.6793  0.8877 -0.5989
 2535SOL    MW4 9908   1.340   4.892   4.150  0.2840 -0.0582 -0.0355
 2536SOL     OW 9909   4.650   5.187   0.038 -0.4356 -0.2846 -0.0725
 2536SOL    HW2 9910   4.727   5.131   0.037 -0.6442 -0.6041  0.6863
 2536SOL    HW3 9911   4.579   5.130   0.067 -1.1959 -0.2584 -1.7694
 2536SOL    MW4 9912   4.651   5.172   0.042 -0.5634 -0.3233 -0.1962
 2537SOL     OW 9913   2.691   5.751   0.221  0.2120  0.3110 -0.0218
 2537SOL    HW2 9914   2.660   5.698   0.295  2.0158 -0.5426  0.1630
 2537SOL    HW3 9915   2.628   5.822   0.216 -2.0200 -1.5318  0.0481
 2537SOL    MW4 9916   2.679   5.753   0.230  0.1555 -0.0448  0.0118
 2538SOL     OW 9917   3.785   2.614   2.655  0.2039  0.9257 -0.4778
 2538SOL    HW2 9918   3.879   2.632   2.646  0.2939  0.0755 -1.4362
 2538SOL    HW3 9919   3.757   2.587   2.567 -1.1269  1.9695 -0.4138
 2538SOL    MW4 9920   3.794   2.613   2.642  0.0402  0.9513 -0.5958
 2539SOL     OW 9921   0.158   3.992   2.972 -0.0900  0.7921 -0.2054
 2539SOL    HW2 9922   0.238   4.039   2.950  0.8746 -1.2937 -1.3622
 2539SOL    HW3 9923   0.130   3.951   2.890  0.1616 -2.1351  1.0394
 2539SOL    MW4 9924   0.165   3.993   2.958  0.0705  0.1307 -0.1938
 2540SOL     OW 9925   0.304   5.014   2.605  0.3471  0.1934  0.1657
 2540SOL    HW2 9926   0.394   4.989   2.627  0.2258 -1.9965 -1.4549
 2540SOL    HW3 9927   0.255   5.005   2.686  1.6522  2.0987  1.2486
 2540SOL    MW4 9928   0.310   5.010   2.618  0.5033  0.1558  0.0948
 2541SOL     OW 9929   1.709   6.132   4.217 -0.3765  0.2881 -0.2553
 2541SOL    HW2 9930   1.787   6.186   4.219  0.4592 -0.8972  0.4397
 2541SOL    HW3 9931   1.652   6.175   4.153  0.7973  1.2193 -0.7178
 2541SOL    MW4 9932   1.712   6.145   4.209 -0.1113  0.2546 -0.2246
 2542SOL     OW 9933   4.128   2.547   0.225 -0.3622 -0.0672  0.0642
 2542SOL    HW2 9934   4.210   2.552   0.176 -0.3708 -1.2788 -0.1117
 2542SOL    HW3 9935   4.151   2.499   0.305 -0.8110 -0.0157  0.2277
 2542SOL    MW4 9936   4.142   2.541   0.229 -0.4225 -0.2203  0.0626
 2543SOL     OW 9937   4.339   0.522   3.179  0.4565  0.0648 -0.0531
 2543SOL    HW2 9938   4.259   0.573   3.187  0.5838  0.1511  0.7361
 2543SOL    HW3 9939   4.409   0.587   3.176  0.6225 -0.0546  1.0086
 2543SOL    MW4 9940   4.338   0.537   3.180  0.4952  0.0604  0.1911
 2544SOL     OW 9941   3.644   5.975   4.075 -0.5277 -0.0908  0.2071
 2544SOL    HW2 9942   3.671   6.067   4.067 -1.5778  0.1336 -1.0698
 2544SOL    HW3 9943   3.548   5.978   4.072 -0.5598 -1.2781 -0.5043
 2544SOL    MW4 9944   3.635   5.988   4.073 -0.6705 -0.2179 -0.0552
 2545SOL     OW 9945   3.454   1.742   2.164 -0.2303  0.0761 -0.0671
 2545SOL    HW2 9946   3.384   1.722   2.226  3.3274 -0.2151  4.3852
 2545SOL    HW3 9947   3.475   1.658   2.124  0.5551 -0.8864  2.1996
 2545SOL    MW4 9948   3.448   1.728   2.167  0.3428 -0.0893  0.8194
 2546SOL     OW 9949   5.537   6.284   0.023  0.2638  0.3621 -0.4369
 2546SOL    HW2 9950   5.567   6.197  -0.004 -1.3721  0.0019 -1.2375
 2546SOL    HW3 9951   5.567   6.342  -0.047  0.0876  0.1923 -0.6561
 2546SOL    MW4 9952   5.545   6.280   0.010  0.0248  0.2922 -0.5715
 2547SOL     OW 9953   1.664   4.874   5.164  0.0486 -0.1851 -0.3795
 2547SOL    HW2 9954   1.665   4.969   5.152 -0.8402 -0.1222 -0.0128
 2547SOL    HW3 9955   1.728   4.841   5.101  0.4376  0.6618 -0.4371
 2547SOL    MW4 9956   1.673   4.882   5.154 -0.0173 -0.0651 -0.3387
 2548SOL     OW 9957   0.980   4.213   0.498  0.3081  0.9703  0.1204
 2548SOL    HW2 9958   1.013   4.170   0.577 -1.1540  2.2400  1.5065
 2548SOL    HW3 9959   0.908   4.159   0.468  0.8186  0.5257 -0.3263
 2548SOL    MW4 9960   0.975   4.200   0.504  0.1825  1.0792  0.2443
 2549SOL     OW 9961   3.286   1.092   3.406 -0.0494 -0.2558  0.2077
 2549SOL    HW2 9962   3.302   1.170   3.353 -0.3535  0.8777  1.7265
 2549SOL    HW3 9963   3.374   1.055   3.421  0.0176 -0.7807 -1.2951
 2549SOL    MW4 9964   3.300   1.097   3.401 -0.0807 -0.1755  0.2098
 2550SOL     OW 9965   3.567   1.567   1.417 -0.3692  0.5163  0.0603
 2550SOL    HW2 9966   3.602   1.643   1.462 -0.2705  0.4081  0.1684
 2550SOL    HW3 9967   3.555   1.502   1.486 -2.8570  1.2607  0.4230
 2550SOL    MW4 9968   3.570   1.568   1.432 -0.6844  0.6002  0.1225
 2551SOL     OW 9969   2.466   5.492   1.035  0.4949  0.0141  0.2125
 2551SOL    HW2 9970   2.451   5.522   1.124 -0.6295 -0.9813  0.3819
 2551SOL    HW3 9971   2.507   5.407   1.045 -0.1035 -0.3333 -0.1965
 2551SOL    MW4 9972   2.469   5.485   1.048  0.2676 -0.1631  0.1809
 2552SOL     OW 9973   3.754   5.919   1.285 -0.2593  0.5795  0.4028
 2552SOL    HW2 9974   3.779   5.840   1.334 -2.0353 -0.2355  0.1203
 2552SOL    HW3 9975   3.817   5.925   1.214  1.1793  0.6531  1.6538
 2552SOL    MW4 9976   3.765   5.909   1.282 -0.3038  0.4817  0.5306
 2553SOL     OW 9977   2.679   2.308   2.028  0.3706  0.0834 -0.4626
 2553SOL    HW2 9978   2.719   2.229   2.063  3.0611  0.4276 -2.4471
 2553SOL    HW3 9979   2.585   2.288   2.024  0.7364 -2.1867  1.0086
 2553SOL    MW4 9980   2.672   2.295   2.032  0.7738 -0.1707 -0.5303
 2554SOL     OW 9981   3.376   5.208   1.428  0.4202 -0.7298 -0.5396
 2554SOL    HW2 9982   3.365   5.114   1.411 -1.0033 -1.1009  2.0400
 2554SOL    HW3 9983   3.289   5.239   1.450  0.8571  1.2613 -1.3980
 2554SOL    MW4 9984   3.363   5.199   1.428  0.2901 -0.5161 -0.3125
 2555SOL     OW 9985   4.524   4.014   6.124 -0.3324  0.1406  0.5222
 2555SOL    HW2 9986   4.618   4.031   6.125 -0.1992 -0.5929  1.2390
 2555SOL    HW3 9987   4.502   3.992   6.215 -0.6944 -2.3088 -0.0769
 2555SOL    MW4 9988   4.533   4.013   6.137 -0.3626 -0.2794  0.5377
 2556SOL     OW 9989   0.596   3.985   5.616 -0.3952 -0.1919  0.8465
 2556SOL    HW2 9990   0.603   3.919   5.684 -0.3488  0.4242  1.4552
 2556SOL    HW3 9991   0.517   3.962   5.567  0.3830 -1.5024  0.1447
 2556SOL    MW4 9992   0.586   3.973   5.618 -0.2864 -0.2835  0.8342
 2557SOL     OW 9993   2.939   4.175   0.068  0.3834  0.7637 -0.3746
 2557SOL    HW2 9994   2.892   4.237   0.123  0.4389  1.9731 -1.6358
 2557SOL    HW3 9995   3.027   4.170   0.107 -0.0669  0.2781  0.6222
 2557SOL    MW4 9996   2.945   4.182   0.080  0.3313  0.8592 -0.4095
 2558SOL     OW 9997   1.061   3.831   1.827 -0.0295  0.6637  0.5591
 2558SOL    HW2 9998   1.143   3.828   1.877  0.4122 -1.1235 -0.1880
 2558SOL    HW3 9999   0.994   3.803   1.889  0.3526 -0.4671  0.4902
 2558SOL    MW410000   1.063   3.827   1.841  0.0792  0.2787  0.4514
 2559SOL     OW10001   0.298   0.031   4.687  0.2145  0.7442  0.7082
 2559SOL    HW210002   0.283   0.117   4.647  0.1249  0.4748  0.1419
 2559SOL    HW310003   0.368  -0.008   4.634 -0.9872 -0.2567 -0.1961
 2559SOL    MW410004   0.305   0.037   4.674  0.0441  0.5766  0.5142
 2560SOL     OW10005   4.199   1.668   4.624 -0.7716 -0.6418 -0.0980
 2560SOL    HW210006   4.156   1.738   4.574 -2.5210 -1.4562  0.2100
 2560SOL    HW310007   4.292   1.679   4.604 -1.2456  0.1781 -2.1020
 2560SOL    MW410008   4.206   1.679   4.615 -1.0649 -0.6411 -0.3218
 2561SOL     OW10009   2.329   1.151   3.696  0.1392 -0.0257 -0.5308
 2561SOL    HW210010   2.246   1.103   3.692 -0.3732  0.7210  0.6275
 2561SOL    HW310011   2.304   1.243   3.699  0.8957  0.1789  1.3965
 2561SOL    MW410012   2.315   1.157   3.696  0.1714  0.0998 -0.1237
 2562SOL     OW10013   0.129   0.249   2.410 -0.1208  0.3459 -0.1140
 2562SOL    HW210014   0.088   0.254   2.496  0.2756 -0.3573  0.1254
 2562SOL    HW310015   0.196   0.182   2.419  0.8296  1.1937 -0.6064
 2562SOL    MW410016   0.133   0.241   2.422  0.0569  0.3650 -0.1474
 2563SOL     OW10017   3.727   5.567   3.406  0.2279  0.0039  0.1858
 2563SOL    HW210018   3.731   5.576   3.311 -0.6881 -0.7763  0.0568
 2563SOL    HW310019   3.798   5.623   3.439  0.5038  0.3383 -0.9442
 2563SOL    MW410020   3.737   5.576   3.398  0.1434 -0.0549  0.0197
 2564SOL     OW10021   5.862   1.656   3.717  0.2727  0.2031 -0.3318
 2564SOL    HW210022   5.797   1.644   3.648 -0.5002  2.3016 -0.0241
 2564SOL    HW310023   5.919   1.726   3.686 -0.1292  1.2345  1.1613
 2564SOL    MW410024   5.861   1.664   3.704  0.1177  0.6160 -0.0942
 2565SOL     OW10025   3.571   1.792   0.708  0.2812  0.0324 -0.5687
 2565SOL    HW210026   3.478   1.772   0.701 -0.0594  1.1902  0.2777
 2565SOL    HW310027   3.616   1.712   0.679 -0.9575 -0.1695 -2.0591
 2565SOL    MW410028   3.565   1.779   0.703  0.0728  0.1585 -0.6537
 2566SOL     OW10029   5.718   2.350   4.396  0.4272  0.4472  0.5590
 2566SOL    HW210030   5.710   2.297   4.475 -0.6597  1.5268  1.1995
 2566SOL    HW310031   5.666   2.428   4.413 -2.1508 -0.4425 -2.2061
 2566SOL    MW410032   5.710   2.353   4.408 -0.0563  0.4723  0.2787
 2567SOL     OW10033   4.690   2.117   5.886  0.2616 -0.0170 -0.1585
 2567SOL    HW210034   4.704   2.209   5.911  0.7889 -0.1241 -0.0527
 2567SOL    HW310035   4.597   2.102   5.904  0.5178  0.0368  1.3413
 2567SOL    MW410036   4.680   2.127   5.892  0.3649 -0.0241  0.0533
 2568SOL     OW10037   4.825   5.651   1.410 -0.1739 -0.2440  0.3198
 2568SOL    HW210038   4.869   5.700   1.340 -0.5581 -0.2117  0.0978
 2568SOL    HW310039   4.745   5.700   1.426  0.2233  0.1364  1.2583
 2568SOL    MW410040   4.820   5.664   1.403 -0.1722 -0.1896  0.4143
 2569SOL     OW10041   2.702   0.463   3.702  0.1107 -0.1131  0.0043
 2569SOL    HW210042   2.740   0.415   3.628  1.6905 -0.2451  0.8809
 2569SOL    HW310043   2.760   0.445   3.776 -2.1649 -1.1054  1.6795
 2569SOL    MW410044   2.714   0.455   3.702  0.0189 -0.2615  0.3410
 2570SOL     OW10045   3.903   3.768   5.405 -0.0419 -0.1113 -0.1417
 2570SOL    HW210046   3.965   3.810   5.344  0.9701 -0.3865  0.6648
 2570SOL    HW310047   3.824   3.821   5.398  0.9137  1.4347  0.2148
 2570SOL    MW410048   3.901   3.781   5.396  0.2177  0.0564  0.0118
 2571SOL     OW10049   2.767   1.996   0.967 -0.7158  0.2232 -0.2214
 2571SOL    HW210050   2.685   2.027   1.006 -0.2649  0.2419  0.7401
 2571SOL    HW310051   2.815   1.958   1.040  0.0268 -0.0181 -0.8284
 2571SOL    MW410052   2.763   1.995   0.982 -0.5584  0.1938 -0.1746
 2572SOL     OW10053   1.660   2.521   1.293 -0.3121 -1.0115  0.3858
 2572SOL    HW210054   1.580   2.525   1.346  0.0245  1.6390  0.8163
 2572SOL    HW310055   1.731   2.540   1.355  0.3364 -0.2989 -0.5526
 2572SOL    MW410056   1.659   2.524   1.308 -0.1822 -0.5678  0.3188
 2573SOL     OW10057   0.908   5.424   2.007  0.0688  0.0693  0.3257
 2573SOL    HW210058   0.904   5.339   2.051 -1.5594 -1.0443 -1.7609
 2573SOL    HW310059   0.826   5.468   2.032  0.4764  0.6502  0.6667
 2573SOL    MW410060   0.897   5.419   2.016 -0.0923 -0.0010  0.0954
 2574SOL     OW10061   2.020   5.995   0.933 -0.0716 -0.1714 -0.2494
 2574SOL    HW210062   2.110   6.003   0.902 -0.3321  0.6129 -0.8614
 2574SOL    HW310063   2.007   5.902   0.948  0.2332 -0.5583 -2.0853
 2574SOL    MW410064   2.030   5.984   0.931 -0.0657 -0.1190 -0.5724
 2575SOL     OW10065   3.601   1.828   2.662  0.6901 -0.9089 -0.3671
 2575SOL    HW210066   3.660   1.864   2.727  0.3790  0.4443 -0.8071
 2575SOL    HW310067   3.638   1.854   2.578 -1.3603  1.4542 -0.6501
 2575SOL    MW410068   3.613   1.836   2.659  0.3785 -0.4186 -0.4625
 2576SOL     OW10069   3.690   2.640   4.575  0.6612  0.1667 -0.1478
 2576SOL    HW210070   3.752   2.621   4.645 -0.6111 -1.6873  0.5451
 2576SOL    HW310071   3.610   2.669   4.620  0.0543 -0.3483 -0.8589
 2576SOL    MW410072   3.687   2.642   4.590  0.4132 -0.1459 -0.1502
 2577SOL     OW10073   3.840   0.173   0.086  0.3198  0.4691  0.1429
 2577SOL    HW210074   3.872   0.119   0.158  0.5320 -1.7093 -1.4508
 2577SOL    HW310075   3.901   0.156   0.014 -1.4173  0.3091 -1.3949
 2577SOL    MW410076   3.852   0.163   0.086  0.1186  0.1606 -0.2703
 2578SOL     OW10077   6.067   1.112   6.073 -0.9614  0.3762  0.2771
 2578SOL    HW210078   6.104   1.155   6.150 -0.4685 -1.1210  0.9125
 2578SOL    HW310079   6.110   1.155   5.999  0.7146 -0.0762  0.9413
 2578SOL    MW410080   6.078   1.124   6.074 -0.6752  0.1190  0.4485
 2579SOL     OW10081   2.481   5.013   2.561  0.2117  0.1494 -0.8557
 2579SOL    HW210082   2.397   4.970   2.577  0.5584 -0.1842  0.1547
 2579SOL    HW310083   2.459   5.096   2.520 -0.5927 -0.0687 -0.8751
 2579SOL    MW410084   2.467   5.018   2.558  0.1513  0.0766 -0.7249
 2580SOL     OW10085   3.169   0.112   6.192 -0.3896  0.5198 -0.1144
 2580SOL    HW210086   3.148   0.034   6.244  0.6394  0.3924  0.1381
 2580SOL    HW310087   3.223   0.165   6.250  0.0820  0.7639 -0.7649
 2580SOL    MW410088   3.174   0.108   6.207 -0.1916  0.5352 -0.1669
 2581SOL     OW10089   5.743   3.065   2.509 -0.1224 -0.0646 -0.4975
 2581SOL    HW210090   5.651   3.093   2.501  0.0152  0.9634  1.0630
 2581SOL    HW310091   5.793   3.146   2.501  0.7030 -0.6901 -1.8752
 2581SOL    MW410092   5.737   3.079   2.507  0.0046 -0.0115 -0.4734
 2582SOL     OW10093   5.821   4.248   2.155 -0.2393  0.1375  1.0527
 2582SOL    HW210094   5.828   4.329   2.104 -0.6293  0.2198  1.1244
 2582SOL    HW310095   5.735   4.253   2.196  0.0504  0.0551  1.6918
 2582SOL    MW410096   5.811   4.259   2.154 -0.2525  0.1375  1.1465
 2583SOL     OW10097   3.403   1.255   2.502 -0.1590 -0.1168 -0.0557
 2583SOL    HW210098   3.485   1.298   2.525 -0.6849  0.5486  0.6029
 2583SOL    HW310099   3.415   1.164   2.532  0.5098 -0.1438 -0.3935
 2583SOL    MW410100   3.416   1.248   2.509 -0.1401 -0.0326 -0.0134
 2584SOL     OW10101   0.279   3.167   3.959 -0.3482  0.3024  0.2857
 2584SOL    HW210102   0.270   3.241   4.020  0.5508  0.2710  0.4768
 2584SOL    HW310103   0.189   3.137   3.943 -0.6369  0.7103  1.1048
 2584SOL    MW410104   0.266   3.173   3.965 -0.2677  0.3521  0.4190
 2585SOL     OW10105   5.245   2.946   0.874  0.9281  0.0568  0.1787
 2585SOL    HW210106   5.240   2.921   0.781  0.1949 -0.4422  0.3347
 2585SOL    HW310107   5.337   2.964   0.890  1.0414  0.2786 -0.6838
 2585SOL    MW410108   5.256   2.945   0.864  0.8463  0.0202  0.0855
 2586SOL     OW10109   4.928   3.337   1.429  0.2546  0.2117 -1.0731
 2586SOL    HW210110   4.949   3.308   1.340  1.6317 -1.1327 -0.3706
 2586SOL    HW310111   4.839   3.371   1.423  0.7713  1.3843 -3.2120
 2586SOL    MW410112   4.919   3.338   1.417  0.5045  0.1890 -1.2626
 2587SOL     OW10113   3.495   2.152   2.533  0.3116  0.0596  0.4743
 2587SOL    HW210114   3.518   2.070   2.490 -1.3537 -1.0056  1.4982
 2587SOL    HW310115   3.547   2.152   2.613 -1.2021 -1.0936  1.5213
 2587SOL    MW410116   3.505   2.141   2.538 -0.1078 -0.2331  0.7476
 2588SOL     OW10117   5.887   0.781   5.359 -1.0766  0.3617 -0.0725
 2588SOL    HW210118   5.871   0.713   5.293 -0.9325 -0.4570  0.7204
 2588SOL    HW310119   5.905   0.860   5.308  0.2459 -0.5256 -1.0476
 2588SOL    MW410120   5.888   0.783   5.344 -0.8831  0.1366 -0.0965
 2589SOL     OW10121   0.253   6.334   3.320 -0.1334  0.1472  0.9006
 2589SOL    HW210122   0.234   6.249   3.280  0.0859  0.6966 -0.4182
 2589SOL    HW310123   0.333   6.364   3.276  0.5563  0.4556  2.2966
 2589SOL    MW410124   0.261   6.327   3.309 -0.0134  0.2604  0.9108
 2590SOL     OW10125   3.417   6.449   5.422  0.4484  0.1347 -0.6037
 2590SOL    HW210126   3.462   6.369   5.394 -0.5497 -0.2988 -1.0110
 2590SOL    HW310127   3.465   6.519   5.378  1.3806 -0.2148 -0.1867
 2590SOL    MW410128   3.429   6.447   5.412  0.4397  0.0314 -0.6024
 2591SOL     OW10129   3.118   2.324   5.276 -0.0336 -0.3652 -0.2844
 2591SOL    HW210130   3.110   2.277   5.193 -1.2566 -0.8270  0.0705
 2591SOL    HW310131   3.190   2.386   5.262  0.0985 -0.7698 -1.5168
 2591SOL    MW410132   3.126   2.326   5.263 -0.1775 -0.4795 -0.4001
 2592SOL     OW10133   5.340   0.709   2.488 -0.1744  0.3704 -0.3271
 2592SOL    HW210134   5.342   0.783   2.548 -0.7906 -0.4775  0.7661
 2592SOL    HW310135   5.373   0.745   2.405  0.6477  1.5661  0.4833
 2592SOL    MW410136   5.345   0.723   2.485 -0.1472  0.4163 -0.0760
 2593SOL     OW10137   4.479   6.001   3.221 -0.2590  0.4317 -0.7603
 2593SOL    HW210138   4.399   6.040   3.185 -0.5810  0.8074  0.3144
 2593SOL    HW310139   4.448   5.941   3.289  0.4034  1.3518  0.3788
 2593SOL    MW410140   4.464   5.998   3.225 -0.2141  0.6027 -0.4682
 2594SOL     OW10141   3.702   4.955   1.305  0.3914  0.1827  0.4964
 2594SOL    HW210142   3.618   4.911   1.297 -0.3133  1.5674 -0.0860
 2594SOL    HW310143   3.754   4.920   1.232 -0.3329  0.6577 -0.2669
 2594SOL    MW410144   3.698   4.945   1.294  0.2028  0.4281  0.3188
 2595SOL     OW10145   0.248   0.103   4.282 -0.3280  0.3093 -0.4384
 2595SOL    HW210146   0.319   0.063   4.231  0.2813 -0.8876  1.2727
 2595SOL    HW310147   0.200   0.029   4.318 -0.9740  1.1275  0.4175
 2595SOL    MW410148   0.251   0.088   4.280 -0.3328  0.2593 -0.0997
 2596SOL     OW10149   3.148   4.893   0.718  0.2805 -0.4637 -0.1713
 2596SOL    HW210150   3.076   4.834   0.739 -0.9601  0.9799 -0.1762
 2596SOL    HW310151   3.109   4.980   0.721  1.9751  0.3475 -0.4650
 2596SOL    MW410152   3.133   4.897   0.721  0.3404 -0.1662 -0.2107
 2597SOL     OW10153   1.363   3.453   5.779  0.1094 -0.1787  0.1782
 2597SOL    HW210154   1.367   3.369   5.733 -0.2021 -0.5307  0.7901
 2597SOL    HW310155   1.357   3.518   5.709  1.0039 -0.6207 -0.3203
 2597SOL    MW410156   1.363   3.450   5.764  0.1863 -0.2835  0.1932
 2598SOL     OW10157   4.499   1.418   1.043  0.1487  0.2464  0.3230
 2598SOL    HW210158   4.448   1.408   0.962  0.1478 -2.3640  0.5473
 2598SOL    HW310159   4.452   1.365   1.107  0.0442  2.4140  2.1470
 2598SOL    MW410160   4.486   1.409   1.041  0.1348  0.1880  0.5933
 2599SOL     OW10161   4.928   1.011   5.875  0.1839  0.4616  0.1932
 2599SOL    HW210162   5.020   0.986   5.879  0.2925  0.7068 -0.6068
 2599SOL    HW310163   4.886   0.958   5.942  0.6399 -0.8862 -0.5457
 2599SOL    MW410164   4.934   1.001   5.884  0.2584  0.3161 -0.0099
 2600SOL     OW10165   3.369   0.371   6.026 -0.4573  0.0394 -0.0172
 2600SOL    HW210166   3.283   0.393   5.990 -1.6873 -0.6189  2.2874
 2600SOL    HW310167   3.349   0.332   6.112  2.1672  0.0963  0.6882
 2600SOL    MW410168   3.355   0.369   6.033 -0.2733 -0.0400  0.3799
 2601SOL     OW10169   1.132   6.139   4.817  0.4683 -0.7253 -0.0569
 2601SOL    HW210170   1.040   6.162   4.830  0.9814  0.2693  2.1583
 2601SOL    HW310171   1.143   6.140   4.721 -1.3550  1.0382 -0.3124
 2601SOL    MW410172   1.121   6.142   4.806  0.2954 -0.3614  0.2017
 2602SOL     OW10173   6.256   0.435   1.215 -0.0408  0.1671  0.1824
 2602SOL    HW210174   6.349   0.415   1.216  0.0726  0.5275 -1.0649
 2602SOL    HW310175   6.224   0.408   1.301  1.1576 -0.1986  0.5268
 2602SOL    MW410176   6.264   0.429   1.226  0.1323  0.1664  0.0633
 2603SOL     OW10177   3.635   2.702   5.490 -0.3697  0.0474 -0.1557
 2603SOL    HW210178   3.728   2.716   5.473 -0.4787  1.0636 -0.0039
 2603SOL    HW310179   3.621   2.608   5.477  0.6675 -0.1048 -0.1984
 2603SOL    MW410180   3.645   2.692   5.486 -0.2472  0.1614 -0.1413
 2604SOL     OW10181   1.922   4.584   0.398  0.1822 -0.1105 -0.1359
 2604SOL    HW210182   1.929   4.577   0.303 -0.7977  0.9190 -0.3154
 2604SOL    HW310183   2.012   4.594   0.429  0.5429 -0.8659 -0.9046
 2604SOL    MW410184   1.934   4.585   0.390  0.1005 -0.0743 -0.2610
 2605SOL     OW10185   0.174   2.601   2.952 -0.0344 -0.2563  0.2930
 2605SOL    HW210186   0.226   2.521   2.960 -0.7642 -0.6440  1.4869
 2605SOL    HW310187   0.128   2.608   3.036 -0.4364  1.1022 -0.0163
 2605SOL    MW410188   0.175   2.591   2.964 -0.1837 -0.1282  0.4097
 2606SOL     OW10189   1.748   3.320   0.497  0.4205 -0.0297  0.1423
 2606SOL    HW210190   1.681   3.290   0.436 -0.0957  1.9843 -0.3442
 2606SOL    HW310191   1.699   3.343   0.576  0.4932  1.5301 -0.2432
 2606SOL    MW410192   1.732   3.319   0.500  0.3620  0.4418  0.0272
 2607SOL     OW10193   0.026   0.979   6.176 -0.2687  0.3751 -0.6389
 2607SOL    HW210194  -0.028   0.951   6.102  0.3800  1.0724 -1.3831
 2607SOL    HW310195  -0.022   0.947   6.253 -1.2582  0.1598 -1.3190
 2607SOL    MW410196   0.012   0.971   6.177 -0.3136  0.4387 -0.8268
 2608SOL     OW10197   1.078   2.947   2.019 -0.1043  0.5680 -0.1015
 2608SOL    HW210198   1.055   2.921   1.931  2.1201 -0.0631 -0.5700
 2608SOL    HW310199   1.117   3.034   2.009  0.4096  0.3814  0.1846
 2608SOL    MW410200   1.080   2.955   2.006  0.2570  0.4601 -0.1255
 2609SOL     OW10201   1.009   5.599   4.140 -0.1640  0.3049  0.1294
 2609SOL    HW210202   1.095   5.633   4.117  0.6833 -2.3721 -1.0637
 2609SOL    HW310203   0.974   5.564   4.058 -2.8233  2.0661  0.3936
 2609SOL    MW410204   1.016   5.599   4.126 -0.4031  0.1840  0.0068
 2610SOL     OW10205   2.020   2.847   5.945  0.3735 -0.1112  0.2976
 2610SOL    HW210206   1.943   2.888   5.906 -0.0050 -0.1552  0.9949
 2610SOL    HW310207   1.986   2.792   6.015  0.8234 -2.0589 -0.9548
 2610SOL    MW410208   2.005   2.845   5.949  0.3829 -0.3740  0.2244
 2611SOL     OW10209   1.150   2.148   5.452 -0.2998 -0.6402 -0.0086
 2611SOL    HW210210   1.087   2.216   5.475  0.9073  0.1728  1.0960
 2611SOL    HW310211   1.128   2.074   5.509  0.2915 -0.0094  1.0904
 2611SOL    MW410212   1.139   2.148   5.463 -0.0626 -0.4497  0.2821
 2612SOL     OW10213   1.714   3.714   4.257 -0.4566 -0.3259  0.0103
 2612SOL    HW210214   1.707   3.784   4.322 -0.8013  0.3605 -0.7449
 2612SOL    HW310215   1.672   3.638   4.299  0.3448 -0.2333  1.0211
 2612SOL    MW410216   1.707   3.713   4.271 -0.3963 -0.2232  0.0440
 2613SOL     OW10217   4.145   4.509   3.561 -0.2373  0.6107  0.6031
 2613SOL    HW210218   4.118   4.600   3.571  1.6534  1.0727  2.2027
 2613SOL    HW310219   4.214   4.511   3.494  0.9035  0.6520  1.7399
 2613SOL    MW410220   4.151   4.521   3.553  0.1626  0.6771  0.9641
 2614SOL     OW10221   4.988   3.112   5.548 -0.3109  0.3856 -0.1723
 2614SOL    HW210222   4.946   3.039   5.503 -1.3416  0.9429 -0.1381
 2614SOL    HW310223   4.952   3.110   5.637 -1.7013  1.9445 -0.6384
 2614SOL    MW410224   4.978   3.102   5.554 -0.6303  0.6648 -0.2293
 2615SOL     OW10225   4.167   2.407   0.471 -0.6075 -0.3014 -0.5709
 2615SOL    HW210226   4.233   2.338   0.466 -0.0479  0.2290 -0.6098
 2615SOL    HW310227   4.176   2.443   0.560 -3.4081 -2.7078  0.8729
 2615SOL    MW410228   4.176   2.403   0.482 -0.9032 -0.5489 -0.3855
 2616SOL     OW10229   0.329   2.868   1.683 -0.2000 -0.1965 -0.0371
 2616SOL    HW210230   0.389   2.941   1.699  0.5745 -1.1281  1.4463
 2616SOL    HW310231   0.384   2.799   1.648 -0.4613 -0.9223  0.9527
 2616SOL    MW410232   0.344   2.869   1.680 -0.1323 -0.4152  0.2892
 2617SOL     OW10233   1.757   5.461   0.880  0.1111 -0.1525 -0.5279
 2617SOL    HW210234   1.829   5.521   0.865 -0.7695  0.8205 -0.9961
 2617SOL    HW310235   1.678   5.515   0.871 -0.6671 -1.0668  0.4845
 2617SOL    MW410236   1.756   5.476   0.877 -0.1078 -0.1447 -0.4561
 2618SOL     OW10237   2.072   5.749   1.639 -0.3971 -0.5160 -0.7073
 2618SOL    HW210238   2.022   5.667   1.638  0.9692 -1.3712 -0.6143
 2618SOL    HW310239   2.139   5.735   1.705  0.3049  0.4164 -1.2041
 2618SOL    MW410240   2.074   5.736   1.648 -0.1242 -0.5058 -0.7606
 2619SOL     OW10241   6.250   1.547   5.216 -0.3852  0.2513 -0.3277
 2619SOL    HW210242   6.267   1.576   5.306  0.4394 -0.3108 -0.2906
 2619SOL    HW310243   6.203   1.465   5.226 -0.4540  0.2799 -0.4133
 2619SOL    MW410244   6.246   1.540   5.229 -0.2855  0.1809 -0.3341
 2620SOL     OW10245   3.745   0.955   0.521 -0.5835 -0.5394  0.1129
 2620SOL    HW210246   3.700   0.946   0.437 -0.9202  1.1786  0.0711
 2620SOL    HW310247   3.813   0.888   0.519 -0.5362 -0.4814 -1.5635
 2620SOL    MW410248   3.748   0.945   0.510 -0.6217 -0.3051 -0.1138
 2621SOL     OW10249   4.087   3.002   6.382  0.1551 -0.4105 -0.3291
 2621SOL    HW210250   4.136   3.081   6.404 -0.1548 -0.5900  1.1657
 2621SOL    HW310251   4.018   3.032   6.323  0.1647  0.4060  0.0526
 2621SOL    MW410252   4.084   3.016   6.377  0.1155 -0.3265 -0.0816
 2622SOL     OW10253   2.605   4.714   4.214 -0.4867  0.0408  0.5248
 2622SOL    HW210254   2.588   4.708   4.120  0.4097  0.3891  0.3291
 2622SOL    HW310255   2.522   4.692   4.255 -0.7000 -0.8513 -0.3386
 2622SOL    MW410256   2.592   4.710   4.207 -0.3966 -0.0310  0.3851
 2623SOL     OW10257   6.349   5.212   4.893  0.0802 -0.0196  0.3480
 2623SOL    HW210258   6.403   5.206   4.814 -1.0834  2.0655 -0.6998
 2623SOL    HW310259   6.395   5.275   4.948  0.6041 -1.0580  1.1210
 2623SOL    MW410260   6.362   5.220   4.890 -0.0042  0.1185  0.3118
 2624SOL     OW10261   0.319   5.887   0.954 -0.8031 -0.0502 -0.0152
 2624SOL    HW210262   0.329   5.856   0.864  1.9848  0.0465  0.1685
 2624SOL    HW310263   0.308   5.808   1.006 -1.7551 -0.1487 -0.3495
 2624SOL    MW410264   0.319   5.873   0.949 -0.5609 -0.0504 -0.0351
 2625SOL     OW10265   2.401   0.394   4.854 -0.1189  0.1212 -0.4294
 2625SOL    HW210266   2.345   0.343   4.912 -0.6690  1.8191  0.5896
 2625SOL    HW310267   2.367   0.376   4.766 -1.5761  0.2924  0.0821
 2625SOL    MW410268   2.389   0.385   4.850 -0.3838  0.3678 -0.2275
 2626SOL     OW10269   6.376   6.312   2.074  0.8602 -0.1706 -0.5008
 2626SOL    HW210270   6.433   6.389   2.069  1.5000 -0.6615 -0.9431
 2626SOL    HW310271   6.319   6.329   2.149  1.5796  0.3512 -0.0578
 2626SOL    MW410272   6.376   6.324   2.083  1.0396 -0.1665 -0.5007
 2627SOL     OW10273   1.603   6.086   4.951 -0.0250  0.4602  0.2382
 2627SOL    HW210274   1.690   6.125   4.954  0.0973  0.2482 -0.4581
 2627SOL    HW310275   1.615   5.999   4.990  0.4064 -0.1543 -1.1830
 2627SOL    MW410276   1.616   6.079   4.957  0.0481  0.3512 -0.0412
 2628SOL     OW10277   2.413   2.746   2.982  0.1767 -0.1614 -0.0419
 2628SOL    HW210278   2.340   2.703   3.025  0.0580 -0.1005 -0.1799
 2628SOL    HW310279   2.473   2.675   2.958  0.1086 -0.2223 -0.0303
 2628SOL    MW410280   2.412   2.731   2.984  0.1520 -0.1614 -0.0586
 2629SOL     OW10281   0.215   6.200   0.070 -0.4984 -0.1866  0.5659
 2629SOL    HW210282   0.246   6.183   0.159 -0.7604 -2.5563  0.2577
 2629SOL    HW310283   0.294   6.195   0.015 -0.2812  1.6115  0.6579
 2629SOL    MW410284   0.230   6.197   0.074 -0.5043 -0.2620  0.5374
 2630SOL     OW10285   6.030   5.960   0.552 -0.5057 -0.2433 -0.0096
 2630SOL    HW210286   6.099   5.915   0.504  0.1504 -0.4300  1.0770
 2630SOL    HW310287   6.068   6.044   0.576 -0.1068 -0.8703  1.7679
 2630SOL    MW410288   6.044   5.965   0.549 -0.3665 -0.3507  0.3683
 2631SOL     OW10289   4.341   5.463   0.482 -0.1910  0.1339  0.3937
 2631SOL    HW210290   4.258   5.428   0.448  0.1911 -0.8334  0.4549
 2631SOL    HW310291   4.317   5.549   0.518 -1.5826 -0.9845  2.2907
 2631SOL    MW410292   4.327   5.470   0.482 -0.3242 -0.1413  0.6521
 2632SOL     OW10293   0.276   1.959   1.057 -0.0053 -0.3397  0.2649
 2632SOL    HW210294   0.256   1.867   1.041  0.6037 -0.1605 -1.8501
 2632SOL    HW310295   0.368   1.960   1.082  0.2602 -0.2513 -0.6700
 2632SOL    MW410296   0.285   1.947   1.058  0.1101 -0.3044 -0.1375
 2633SOL     OW10297   1.315   0.935   3.169  0.1416  0.0958  0.3191
 2633SOL    HW210298   1.220   0.937   3.179  0.2265 -0.2964  1.3441
 2633SOL    HW310299   1.330   0.876   3.095 -0.4042 -0.1292  0.3836
 2633SOL    MW410300   1.304   0.927   3.161  0.0808  0.0144  0.4628
 2634SOL     OW10301   1.146   3.167   5.702 -0.0073  0.2692 -0.2574
 2634SOL    HW210302   1.096   3.102   5.751 -0.2420  0.6899  0.0680
 2634SOL    HW310303   1.176   3.120   5.624  2.0830 -1.0082  1.1972
 2634SOL    MW410304   1.143   3.152   5.698  0.2375  0.1562 -0.0226
 2635SOL     OW10305   3.595   6.243   5.160  0.4034  0.5768  0.3567
 2635SOL    HW210306   3.659   6.222   5.092  0.0837 -0.4358  0.3417
 2635SOL    HW310307   3.646   6.251   5.240  0.5564 -0.3604  0.3705
 2635SOL    MW410308   3.610   6.241   5.162  0.3814  0.3195  0.3565
 2636SOL     OW10309   3.472   2.739   4.702 -0.5693  0.0523 -0.5124
 2636SOL    HW210310   3.378   2.723   4.707 -0.5571  0.0481 -0.2666
 2636SOL    HW310311   3.504   2.721   4.790 -0.2119 -0.7026 -0.7925
 2636SOL    MW410312   3.464   2.735   4.714 -0.5205 -0.0478 -0.5169
 2637SOL     OW10313   3.888   1.214   5.914  0.6118 -0.2421 -0.2474
 2637SOL    HW210314   3.891   1.303   5.879 -2.3331 -0.5514 -1.5581
 2637SOL    HW310315   3.865   1.225   6.007  2.1578  0.3569  0.1016
 2637SOL    MW410316   3.886   1.227   5.922  0.4272 -0.2038 -0.3743
 2638SOL     OW10317   0.447   3.215   0.379 -0.4216  0.0004 -0.0813
 2638SOL    HW210318   0.477   3.293   0.333  0.9953  0.1154  0.9876
 2638SOL    HW310319   0.408   3.248   0.460  0.7636 -0.4225  0.6749
 2638SOL    MW410320   0.446   3.229   0.384 -0.0783 -0.0402  0.1595
 2639SOL     OW10321   3.981   0.152   4.804 -0.2155 -0.7487  0.1071
 2639SOL    HW210322   4.037   0.075   4.816 -1.1423 -1.6518 -1.0985
 2639SOL    HW310323   3.935   0.162   4.887  1.2632 -0.3353  0.9213
 2639SOL    MW410324   3.982   0.143   4.816 -0.1427 -0.8133  0.0555
 2640SOL     OW10325   2.406   6.077   1.084  0.1656 -0.4998  0.4540
 2640SOL    HW210326   2.404   6.090   0.989  1.1287  4.0407  0.8362
 2640SOL    HW310327   2.316   6.094   1.112 -0.1835 -2.1196  0.4080
 2640SOL    MW410328   2.394   6.081   1.075  0.2466 -0.1145  0.4984
 2641SOL     OW10329   5.820   2.494   5.672  0.2688  0.3850 -0.0415
 2641SOL    HW210330   5.763   2.444   5.615 -0.4722  2.4399 -1.2295
 2641SOL    HW310331   5.807   2.585   5.645 -1.4667  1.7955  4.5123
 2641SOL    MW410332   5.811   2.500   5.661 -0.0580  0.8422  0.4026
 2642SOL     OW10333   0.804   2.870   2.865  0.4234 -0.6469  0.2271
 2642SOL    HW210334   0.709   2.869   2.856  0.3689 -0.0173  0.5949
 2642SOL    HW310335   0.834   2.932   2.798  0.7003 -1.8529 -0.7862
 2642SOL    MW410336   0.795   2.878   2.855  0.4528 -0.7229  0.1419
 2643SOL     OW10337   3.035   4.482   1.723  0.0270 -0.1382  0.5365
 2643SOL    HW210338   3.125   4.513   1.717 -0.5191  1.4010 -0.2146
 2643SOL    HW310339   2.985   4.542   1.669 -1.3651 -1.4065  0.3419
 2643SOL    MW410340   3.040   4.494   1.715 -0.2287 -0.1025  0.4117
 2644SOL     OW10341   6.110   6.234   3.231 -0.1361  0.0724  0.5888
 2644SOL    HW210342   6.182   6.255   3.291  0.0282  1.2250  0.0119
 2644SOL    HW310343   6.136   6.274   3.148 -0.8114 -0.6827 -0.0002
 2644SOL    MW410344   6.123   6.242   3.228 -0.2036  0.1249  0.4350
 2645SOL     OW10345   2.465   3.876   4.300  0.6074  0.7302 -0.6387
 2645SOL    HW210346   2.413   3.918   4.231 -0.3225  2.2923  0.9539
 2645SOL    HW310347   2.423   3.790   4.312  1.5788 -0.1376 -2.8422
 2645SOL    MW410348   2.453   3.870   4.292  0.6129  0.8218 -0.7193
 2646SOL     OW10349   1.949   0.502   0.610 -0.1331  0.0786  0.1810
 2646SOL    HW210350   2.003   0.464   0.541 -2.9226 -0.5369 -1.8248
 2646SOL    HW310351   1.951   0.596   0.592  1.2675  0.2183  0.9443
 2646SOL    MW410352   1.956   0.510   0.598 -0.3164  0.0159  0.0171
 2647SOL     OW10353   3.724   5.460   2.688 -0.2062  0.0868  0.1108
 2647SOL    HW210354   3.744   5.552   2.671 -2.0263  0.2467 -1.4930
 2647SOL    HW310355   3.642   5.462   2.737 -0.0828 -0.6920  0.3657
 2647SOL    MW410356   3.716   5.473   2.692 -0.4301  0.0051 -0.0672
 2648SOL     OW10357   5.470   6.293   2.517 -0.0327  0.4935  0.1893
 2648SOL    HW210358   5.428   6.306   2.603 -1.4877  0.4976 -0.4927
 2648SOL    HW310359   5.563   6.286   2.537 -0.4890 -1.4267  2.0017
 2648SOL    MW410360   5.477   6.294   2.531 -0.2849  0.2407  0.3384
 2649SOL     OW10361   5.057   5.514   3.561 -0.1545  0.2587 -0.4445
 2649SOL    HW210362   4.987   5.464   3.604  0.5895 -0.4905 -0.0640
 2649SOL    HW310363   5.028   5.605   3.567 -1.2988 -0.0698 -0.6934
 2649SOL    MW410364   5.044   5.519   3.568 -0.2073  0.1165 -0.4271
 2650SOL     OW10365   4.451   5.431   5.099  0.3504 -0.5217 -0.1714
 2650SOL    HW210366   4.401   5.484   5.037 -1.0464 -0.3846  1.0080
 2650SOL    HW310367   4.470   5.490   5.172  1.8980 -0.6980 -0.4057
 2650SOL    MW410368   4.447   5.446   5.100  0.3703 -0.5269 -0.0467
 2651SOL     OW10369   0.256   5.960   2.371 -0.4237  0.1983  0.4974
 2651SOL    HW210370   0.183   6.021   2.363 -0.5399  0.1159  0.9027
 2651SOL    HW310371   0.268   5.949   2.466  0.5366  0.7121  0.4403
 2651SOL    MW410372   0.248   5.967   2.383 -0.3123  0.2552  0.5434
 2652SOL     OW10373   3.330   4.302   2.930  0.3914 -0.2054 -0.5631
 2652SOL    HW210374   3.284   4.228   2.891 -0.4506  0.7919 -1.5436
 2652SOL    HW310375   3.379   4.341   2.857 -0.3037  1.0204 -0.4012
 2652SOL    MW410376   3.330   4.297   2.915  0.1886  0.0879 -0.6711
 2653SOL     OW10377   1.958   1.304   0.153 -0.0017  0.1564 -0.3276
 2653SOL    HW210378   1.995   1.223   0.186  0.4014 -0.3965 -2.0258
 2653SOL    HW310379   1.863   1.293   0.162  0.0694 -0.2816 -0.0920
 2653SOL    MW410380   1.950   1.292   0.159  0.0609  0.0256 -0.5206
 2654SOL     OW10381   3.764   2.127   1.360 -0.0383  0.1211  0.8423
 2654SOL    HW210382   3.745   2.110   1.268 -0.0067  0.9552  0.6733
 2654SOL    HW310383   3.775   2.040   1.399 -0.2078 -0.2416  0.0957
 2654SOL    MW410384   3.763   2.113   1.353 -0.0565  0.1833  0.7215
 2655SOL     OW10385   4.082   1.877   6.037  0.6251 -0.0498 -0.2545
 2655SOL    HW210386   4.066   1.784   6.053 -1.8344  0.3928  0.3785
 2655SOL    HW310387   4.142   1.903   6.107  0.5278 -0.9501  0.1796
 2655SOL    MW410388   4.088   1.869   6.049  0.2877 -0.1102 -0.1137
 2656SOL     OW10389   3.824   1.350   6.165  0.4481  0.1765  0.6924
 2656SOL    HW210390   3.884   1.395   6.224 -0.4031  2.0110  0.2081
 2656SOL    HW310391   3.779   1.420   6.118 -2.0359 -1.1253  0.9988
 2656SOL    MW410392   3.826   1.365   6.167  0.0080  0.2468  0.6689
 2657SOL     OW10393   1.687   1.557   5.590  0.3917 -0.3215 -0.5978
 2657SOL    HW210394   1.693   1.469   5.628  1.3940  0.4751  1.2093
 2657SOL    HW310395   1.622   1.548   5.520 -1.3790 -1.9741  1.1022
 2657SOL    MW410396   1.679   1.544   5.586  0.2903 -0.4345 -0.1351
 2658SOL     OW10397   2.746   0.840   4.847  0.4726 -0.0860  0.3541
 2658SOL    HW210398   2.765   0.919   4.796  1.5265 -0.9613 -0.6953
 2658SOL    HW310399   2.761   0.865   4.938 -0.8539  1.3642  0.2014
 2658SOL    MW410400   2.751   0.854   4.852  0.4367 -0.0101  0.1955
 2659SOL     OW10401   4.579   5.800   6.008 -0.1906  0.2059 -0.4124
 2659SOL    HW210402   4.599   5.711   6.037 -1.2165  0.3696  0.8861
 2659SOL    HW310403   4.504   5.790   5.949 -0.5467  0.2294  0.0283
 2659SOL    MW410404   4.572   5.787   6.004 -0.3729  0.2306 -0.1830
 2660SOL     OW10405   0.060   0.041   0.086 -0.5910  0.3827  0.4456
 2660SOL    HW210406   0.046   0.028   0.180 -1.2979 -0.3764  0.2495
 2660SOL    HW310407   0.097  -0.042   0.056  4.2199  2.0927  0.8345
 2660SOL    MW410408   0.063   0.028   0.094 -0.0495  0.5081  0.4711
 2661SOL     OW10409   1.019   2.330   1.532 -1.2845  0.3920 -0.7954
 2661SOL    HW210410   1.043   2.356   1.443  0.3277  0.7068 -0.2949
 2661SOL    HW310411   0.940   2.381   1.551 -0.8363  1.3965 -1.5318
 2661SOL    MW410412   1.011   2.340   1.523 -1.0127  0.5660 -0.8266
 2662SOL     OW10413   1.080   5.224   5.614 -0.1920  0.3367 -0.2646
 2662SOL    HW210414   1.166   5.242   5.653 -1.4757  0.9620  2.5761
 2662SOL    HW310415   1.017   5.257   5.679 -2.5955 -0.1559 -2.1977
 2662SOL    MW410416   1.083   5.230   5.628 -0.6785  0.3542 -0.1449
 2663SOL     OW10417   6.405   2.168   1.862  0.5210 -0.0234 -0.4081
 2663SOL    HW210418   6.466   2.135   1.928 -1.6304 -1.0536  1.1668
 2663SOL    HW310419   6.335   2.102   1.858 -1.6932  2.1861 -0.4161
 2663SOL    MW410420   6.404   2.155   1.870 -0.0550  0.1322 -0.2014
 2664SOL     OW10421   4.542   4.663   5.231  0.3840 -0.1774  0.3541
 2664SOL    HW210422   4.514   4.599   5.165  1.0147 -0.6870  0.5712
 2664SOL    HW310423   4.509   4.747   5.198 -0.6227 -0.6296  0.1669
 2664SOL    MW410424   4.534   4.666   5.218  0.3344 -0.3043  0.3580
 2665SOL     OW10425   1.684   5.734   1.575 -0.2028 -0.4379  0.0586
 2665SOL    HW210426   1.665   5.646   1.544  1.3455 -0.9341  0.4785
 2665SOL    HW310427   1.597   5.771   1.595 -1.0956 -0.8820 -2.5995
 2665SOL    MW410428   1.670   5.728   1.573 -0.1163 -0.5620 -0.2367
 2666SOL     OW10429   1.485   3.816   0.983 -0.5625 -0.2288 -0.2646
 2666SOL    HW210430   1.489   3.911   0.976  0.7119 -0.2434  0.0745
 2666SOL    HW310431   1.392   3.795   0.973 -0.5738  0.8151 -3.1259
 2666SOL    MW410432   1.473   3.826   0.981 -0.3959 -0.0930 -0.5974
 2667SOL     OW10433   2.604   0.320   5.440  0.5706  0.5146  0.1987
 2667SOL    HW210434   2.580   0.295   5.351  2.6767  1.3225 -0.6496
 2667SOL    HW310435   2.609   0.237   5.488  0.2857 -0.0031 -0.6499
 2667SOL    MW410436   2.601   0.306   5.435  0.8109  0.5529 -0.0252
 2668SOL     OW10437   1.673   2.714   5.031 -0.2335 -0.6629 -0.0365
 2668SOL    HW210438   1.649   2.651   4.962  0.6516 -0.5411 -0.4626
 2668SOL    HW310439   1.719   2.662   5.097 -1.2825 -0.8223  0.5903
 2668SOL    MW410440   1.676   2.699   5.030 -0.2551 -0.6679 -0.0100
 2669SOL     OW10441   4.941   2.044   4.881 -0.0950  0.3206  0.6183
 2669SOL    HW210442   4.906   1.973   4.935 -0.2187 -1.1631 -1.3193
 2669SOL    HW310443   5.036   2.037   4.890 -0.1330  1.5671  2.4189
 2669SOL    MW410444   4.949   2.034   4.889 -0.1163  0.2893  0.6002
 2670SOL     OW10445   4.180   2.802   0.690 -0.0598  0.0852  0.0355
 2670SOL    HW210446   4.175   2.790   0.785 -0.8846 -1.1304 -0.1475
 2670SOL    HW310447   4.156   2.894   0.677  1.2708  0.6200  1.0785
 2670SOL    MW410448   4.176   2.813   0.701  0.0070 -0.0046  0.1490
 2671SOL     OW10449   5.259   3.945   4.602  0.2362 -0.2245 -0.3261
 2671SOL    HW210450   5.197   3.954   4.529 -0.4951  0.7015  0.3830
 2671SOL    HW310451   5.212   3.895   4.668  0.2324  0.4536  0.2027
 2671SOL    MW410452   5.245   3.940   4.601  0.1392 -0.0129 -0.1628
 2672SOL     OW10453   3.045   2.477   1.182 -0.2897  0.0900  0.3539
 2672SOL    HW210454   3.011   2.538   1.247  2.8724 -0.4478  2.7491
 2672SOL    HW310455   3.043   2.392   1.225  0.8024 -0.5028 -0.7023
 2672SOL    MW410456   3.040   2.474   1.196  0.2716 -0.0592  0.5306
 2673SOL     OW10457   2.433   0.858   5.478 -0.1841 -0.1761 -0.8831
 2673SOL    HW210458   2.456   0.949   5.494  1.3438 -0.8078  0.7688
 2673SOL    HW310459   2.507   0.823   5.428 -0.2224 -0.7870 -0.5237
 2673SOL    MW410460   2.446   0.866   5.473  0.0124 -0.3400 -0.6178
 2674SOL     OW10461   2.717   3.490   1.962 -0.1023 -0.0864  0.1503
 2674SOL    HW210462   2.623   3.485   1.979 -0.6622  0.7404 -2.3491
 2674SOL    HW310463   2.730   3.575   1.920  1.8381 -0.0224  0.7656
 2674SOL    MW410464   2.706   3.501   1.959  0.0798  0.0311 -0.0983
 2675SOL     OW10465   4.856   5.621   4.390 -0.3574 -0.0065  0.0619
 2675SOL    HW210466   4.795   5.589   4.456 -0.5005  1.1789  0.5376
 2675SOL    HW310467   4.935   5.644   4.439 -0.6529  1.3930 -0.0554
 2675SOL    MW410468   4.859   5.620   4.405 -0.4153  0.3345  0.1092
 2676SOL     OW10469   2.232   4.079   3.801  0.5292 -0.0785 -0.5716
 2676SOL    HW210470   2.269   4.162   3.772  0.2512 -0.5724 -2.4580
 2676SOL    HW310471   2.283   4.012   3.756 -1.6534 -0.8154 -2.1360
 2676SOL    MW410472   2.243   4.081   3.791  0.2045 -0.2409 -1.0269
 2677SOL     OW10473   5.550   3.717   4.817  0.0573  0.0641 -0.3603
 2677SOL    HW210474   5.520   3.712   4.907 -0.2491 -0.4633 -0.4904
 2677SOL    HW310475   5.554   3.626   4.787  1.7772  0.1088 -0.3536
 2677SOL    MW410476   5.546   3.705   4.825  0.2438  0.0004 -0.3766
 2678SOL     OW10477   6.277   3.826   5.762  0.3499 -0.6060  0.0905
 2678SOL    HW210478   6.362   3.867   5.745  0.0483 -0.2583 -0.6062
 2678SOL    HW310479   6.257   3.779   5.682 -0.8987  0.6955 -0.3938
 2678SOL    MW410480   6.286   3.825   5.749  0.1454 -0.3884 -0.0653
 2679SOL     OW10481   2.077   0.397   0.374  0.0083  0.0182  0.1268
 2679SOL    HW210482   2.118   0.311   0.374  0.9206  0.3978  1.8757
 2679SOL    HW310483   2.074   0.423   0.282  2.4766 -0.6087 -0.1861
 2679SOL    MW410484   2.082   0.389   0.362  0.4543 -0.0145  0.3162
 2680SOL     OW10485   0.012   5.689   4.974 -0.4363 -0.0302 -0.9549
 2680SOL    HW210486   0.081   5.733   4.923  0.8394  0.5465  1.1614
 2680SOL    HW310487  -0.069   5.721   4.935  0.4823  1.3937 -1.8113
 2680SOL    MW410488   0.011   5.699   4.962 -0.1468  0.2337 -0.7887
 2681SOL     OW10489   2.638   0.833   5.945 -0.3096  0.1061 -0.6604
 2681SOL    HW210490   2.652   0.884   5.865  0.0853 -1.1874 -1.4374
 2681SOL    HW310491   2.681   0.749   5.928 -2.9042 -1.3947 -0.3529
 2681SOL    MW410492   2.645   0.829   5.932 -0.5998 -0.2626 -0.7224
 2682SOL     OW10493   3.933   5.108   0.872 -0.0489 -0.2429  0.2391
 2682SOL    HW210494   3.935   5.200   0.900 -1.1997  0.0980 -0.6969
 2682SOL    HW310495   4.024   5.079   0.877  0.7364  1.6275 -1.5743
 2682SOL    MW410496   3.945   5.116   0.876 -0.0971  0.0488 -0.1236
 2683SOL     OW10497   1.382   5.149   3.580  0.0464  0.3210  0.3049
 2683SOL    HW210498   1.461   5.162   3.632  0.5282 -0.2513 -0.2544
 2683SOL    HW310499   1.332   5.083   3.629  0.9838 -0.9903 -0.4427
 2683SOL    MW410500   1.385   5.142   3.593  0.2336  0.0725  0.1325
 2684SOL     OW10501   1.022   1.081   1.019 -0.4060 -0.1582  0.6576
 2684SOL    HW210502   1.036   0.990   0.991 -0.4233  0.5359 -1.8271
 2684SOL    HW310503   1.009   1.075   1.114  0.4870 -2.6329  0.6904
 2684SOL    MW410504   1.022   1.068   1.028 -0.2905 -0.3931  0.3341
 2685SOL     OW10505   4.831   2.176   4.480  0.3709  0.1911  0.4542
 2685SOL    HW210506   4.918   2.151   4.509  0.0236 -0.6208  0.8362
 2685SOL    HW310507   4.839   2.184   4.385  1.2866  1.9381  0.6353
 2685SOL    MW410508   4.843   2.174   4.471  0.4459  0.3145  0.5285
 2686SOL     OW10509   4.102   3.273   3.036  0.4417  0.1618 -0.4499
 2686SOL    HW210510   4.089   3.313   3.122 -1.5112 -2.2909  0.5154
 2686SOL    HW310511   4.014   3.247   3.009  1.1139  0.1815 -2.8925
 2686SOL    MW410512   4.089   3.275   3.044  0.2727 -0.1592 -0.6448
 2687SOL     OW10513   5.705   3.727   3.026  0.5792  0.2205  0.3617
 2687SOL    HW210514   5.745   3.725   3.113 -0.6001 -1.1031  0.9075
 2687SOL    HW310515   5.662   3.642   3.017  0.1620  0.5627 -1.2878
 2687SOL    MW410516   5.705   3.716   3.036  0.3686  0.0910  0.2161
 2688SOL     OW10517   1.811   5.880   1.152  0.4888  0.1193  0.2086
 2688SOL    HW210518   1.803   5.892   1.247  1.5868  1.3991  0.1670
 2688SOL    HW310519   1.796   5.967   1.116  0.1268 -0.3544 -0.8114
 2688SOL    MW410520   1.808   5.893   1.160  0.5859  0.2257  0.0685
 2689SOL     OW10521   2.212   3.069   2.417 -0.5993 -0.4384 -0.5538
 2689SOL    HW210522   2.256   3.061   2.501  1.1490  0.5373 -1.3244
 2689SOL    HW310523   2.176   2.982   2.401  0.0720 -0.9631  0.6418
 2689SOL    MW410524   2.213   3.057   2.426 -0.2800 -0.3789 -0.4978
 2690SOL     OW10525   6.286   4.874   1.090  0.0725 -0.1096 -0.6093
 2690SOL    HW210526   6.345   4.849   1.161  0.1118  1.2698 -0.1294
 2690SOL    HW310527   6.338   4.861   1.010  0.8848  0.6502 -0.2209
 2690SOL    MW410528   6.301   4.869   1.089  0.1848  0.1726 -0.4947
 2691SOL     OW10529   3.060   3.820   6.201  0.2227 -0.1231  0.4883
 2691SOL    HW210530   3.056   3.735   6.157 -0.7947  0.0492  0.2190
 2691SOL    HW310531   3.137   3.815   6.257  0.8438 -0.7951 -0.4064
 2691SOL    MW410532   3.069   3.808   6.203  0.1704 -0.1890  0.3348
 2692SOL     OW10533   5.577   3.729   4.144  0.0468  0.6220  0.0962
 2692SOL    HW210534   5.498   3.709   4.093  0.0461 -1.4227  0.7822
 2692SOL    HW310535   5.588   3.823   4.136 -1.4602  0.7151 -1.4750
 2692SOL    MW410536   5.568   3.739   4.136 -0.1522  0.3645 -0.0206
 2693SOL     OW10537   2.823   3.287   0.487  0.1957  0.0747  0.5433
 2693SOL    HW210538   2.910   3.290   0.446  0.4849  1.2365  1.1861
 2693SOL    HW310539   2.841   3.295   0.581 -0.5684 -0.5119  0.7452
 2693SOL    MW410540   2.837   3.289   0.494  0.1330  0.1506  0.6547
 2694SOL     OW10541   0.565   5.028   4.902  0.0440 -0.1040 -0.8488
 2694SOL    HW210542   0.626   5.037   4.829  1.0504 -1.2581 -0.1874
 2694SOL    HW310543   0.512   4.951   4.880  0.5075 -0.5975 -0.2667
 2694SOL    MW410544   0.566   5.019   4.890  0.2379 -0.3214 -0.6847
 2695SOL     OW10545   2.863   4.077   4.698 -0.0270  0.2206 -0.0055
 2695SOL    HW210546   2.842   3.987   4.670  0.4688 -0.2797  1.1610
 2695SOL    HW310547   2.945   4.097   4.653 -0.8364  0.6433 -1.3663
 2695SOL    MW410548   2.871   4.067   4.688 -0.0684  0.2103 -0.0311
 2696SOL     OW10549   6.162   2.112   1.473  0.9868  0.4814 -0.4226
 2696SOL    HW210550   6.088   2.091   1.416  0.1350  1.8798  0.1247
 2696SOL    HW310551   6.129   2.178   1.533  2.3339  0.2248  0.6638
 2696SOL    MW410552   6.148   2.118   1.474  1.0521  0.6320 -0.2070
 2697SOL     OW10553   4.668   0.496   5.892  0.7165  0.3124 -0.4007
 2697SOL    HW210554   4.759   0.489   5.862  1.4125 -0.3699  1.7156
 2697SOL    HW310555   4.621   0.531   5.816  2.3770 -1.0801 -2.1948
 2697SOL    MW410556   4.674   0.500   5.878  1.0274  0.0387 -0.3582
 2698SOL     OW10557   6.193   2.699   2.126  0.2784 -0.1203 -0.4730
 2698SOL    HW210558   6.107   2.735   2.147  1.5646  2.7308  0.5342
 2698SOL    HW310559   6.201   2.707   2.031 -1.4880 -2.9701 -0.9737
 2698SOL    MW410560   6.183   2.705   2.117  0.2150 -0.1201 -0.4062
 2699SOL     OW10561   4.139   6.263   2.437  0.3827 -0.7531 -0.8169
 2699SOL    HW210562   4.151   6.305   2.351  0.1125  0.9065 -0.0903
 2699SOL    HW310563   4.045   6.248   2.444  0.4032 -0.8785 -0.8025
 2699SOL    MW410564   4.129   6.267   2.426  0.3497 -0.5507 -0.7192
 2700SOL     OW10565   1.239   1.414   1.370  0.0091  0.4240 -0.3141
 2700SOL    HW210566   1.296   1.344   1.339  0.8379  0.8019  0.3197
 2700SOL    HW310567   1.253   1.418   1.464 -1.9205 -0.2174  0.0511
 2700SOL    MW410568   1.248   1.406   1.378 -0.1361  0.3892 -0.1823
 2701SOL     OW10569   3.150   0.894   1.461  0.1873 -0.0925  0.2919
 2701SOL    HW210570   3.104   0.869   1.381 -0.9073 -1.0700  1.2050
 2701SOL    HW310571   3.119   0.983   1.479  0.8038  0.3237 -0.5999
 2701SOL    MW410572   3.140   0.903   1.452  0.1242 -0.1666  0.2947
 2702SOL     OW10573   5.988   0.688   0.026 -0.0374 -0.0121 -0.0373
 2702SOL    HW210574   6.014   0.771  -0.015  0.3407 -0.3023 -0.3945
 2702SOL    HW310575   5.901   0.671  -0.010  0.0915 -0.0187 -0.3543
 2702SOL    MW410576   5.980   0.697   0.016  0.0295 -0.0513 -0.1263
 2703SOL     OW10577   4.771   4.716   4.207  0.2990 -0.7509  0.1133
 2703SOL    HW210578   4.838   4.680   4.149  0.0498  1.9983 -2.1337
 2703SOL    HW310579   4.690   4.708   4.157  0.1478  2.0647 -0.2535
 2703SOL    MW410580   4.769   4.710   4.192  0.2462 -0.0167 -0.2315
 2704SOL     OW10581   3.513   5.800   3.847 -0.1206 -0.1651 -0.4675
 2704SOL    HW210582   3.508   5.723   3.791 -0.4737 -0.0926 -0.5383
 2704SOL    HW310583   3.607   5.812   3.863 -0.0969 -1.0365  0.1433
 2704SOL    MW410584   3.525   5.791   3.842 -0.1640 -0.2705 -0.3963
 2705SOL     OW10585   2.046   1.092   3.651 -0.3599 -0.0682  0.2487
 2705SOL    HW210586   1.999   1.009   3.644  0.7549 -0.7555  0.6770
 2705SOL    HW310587   2.032   1.120   3.742  0.5774 -0.6106  0.5726
 2705SOL    MW410588   2.038   1.085   3.662 -0.0891 -0.2305  0.3480
 2706SOL     OW10589   2.628   1.022   2.276  0.3291 -0.1534  0.4978
 2706SOL    HW210590   2.676   1.100   2.246 -0.2496  0.3763  0.9246
 2706SOL    HW310591   2.667   0.950   2.227  0.0380  0.5653 -0.8413
 2706SOL    MW410592   2.640   1.023   2.266  0.2144  0.0113  0.3775
 2707SOL     OW10593   2.108   1.218   4.284  0.0631 -0.0903  0.1109
 2707SOL    HW210594   2.141   1.161   4.353  0.7493 -2.0882 -1.7351
 2707SOL    HW310595   2.184   1.235   4.228 -0.7602  0.2422 -0.9550
 2707SOL    MW410596   2.122   1.213   4.286  0.0450 -0.3100 -0.2733
 2708SOL     OW10597   4.365   3.010   3.842  0.4700 -0.2941 -0.3626
 2708SOL    HW210598   4.339   3.041   3.755  2.4886 -1.1131 -1.3162
 2708SOL    HW310599   4.354   2.915   3.838 -1.0078 -0.2141  0.8869
 2708SOL    MW410600   4.360   3.002   3.830  0.5414 -0.3916 -0.3236
 2709SOL     OW10601   1.326   1.317   5.917  0.3156  0.0216  0.0052
 2709SOL    HW210602   1.334   1.309   5.822 -1.2506  0.3823 -0.1783
 2709SOL    HW310603   1.416   1.315   5.948  1.0235  2.0121 -1.6550
 2709SOL    MW410604   1.339   1.316   5.908  0.2023  0.3318 -0.2381
 2710SOL     OW10605   5.257   1.940   1.786  0.0735 -1.1338 -0.0951
 2710SOL    HW210606   5.275   1.949   1.880  2.2203 -2.4109 -0.3259
 2710SOL    HW310607   5.172   1.982   1.775  0.8409  1.2897  1.9906
 2710SOL    MW410608   5.249   1.947   1.797  0.4580 -0.9825  0.1496
 2711SOL     OW10609   6.404   3.280   2.139 -0.3535 -0.0149 -0.1352
 2711SOL    HW210610   6.311   3.290   2.161 -0.6372  1.6556 -1.8942
 2711SOL    HW310611   6.407   3.203   2.082 -1.3122  1.9631 -3.0810
 2711SOL    MW410612   6.392   3.271   2.135 -0.5174  0.4665 -0.7560
 2712SOL     OW10613   0.875   0.373   2.989  0.7532  0.0440  0.1342
 2712SOL    HW210614   0.950   0.351   3.044  1.7915  0.8201 -0.9330
 2712SOL    HW310615   0.848   0.290   2.950  0.4871 -0.3830  1.1940
 2712SOL    MW410616   0.881   0.359   2.991  0.8551  0.0901  0.1332
 2713SOL     OW10617   5.229   2.424   2.541  0.0610  0.1722  0.0247
 2713SOL    HW210618   5.237   2.438   2.447  0.3510  0.6838  0.1225
 2713SOL    HW310619   5.296   2.358   2.560  0.2785  0.3659 -0.0633
 2713SOL    MW410620   5.239   2.417   2.531  0.1279  0.2652  0.0260
 2714SOL     OW10621   6.126   5.532   1.961 -0.2418  0.3568 -0.3456
 2714SOL    HW210622   6.032   5.525   1.975 -0.6508 -0.1501 -2.8863
 2714SOL    HW310623   6.152   5.446   1.928  1.0452  0.6046 -0.0495
 2714SOL    MW410624   6.117   5.520   1.959 -0.1260  0.3226 -0.6417
 2715SOL     OW10625   3.683   2.303   4.198  0.4496  0.2613 -0.1537
 2715SOL    HW210626   3.726   2.244   4.136 -0.0152 -1.7791  1.3603
 2715SOL    HW310627   3.594   2.312   4.165 -0.2286 -1.9787  0.8676
 2715SOL    MW410628   3.677   2.297   4.185  0.2988 -0.3034  0.1808
 2716SOL     OW10629   6.292   6.394   3.672 -0.2291  0.0238  0.4196
 2716SOL    HW210630   6.207   6.365   3.703  0.2218  0.0349  1.7261
 2716SOL    HW310631   6.293   6.373   3.578 -0.9511 -1.6666  0.7706
 2716SOL    MW410632   6.281   6.388   3.664 -0.2649 -0.1978  0.6383
 2717SOL     OW10633   4.282   3.273   2.685 -0.1723  0.8676  0.4582
 2717SOL    HW210634   4.331   3.280   2.767  2.3680  1.6503 -0.9925
 2717SOL    HW310635   4.286   3.361   2.648  1.1711 -0.0178 -1.7223
 2717SOL    MW410636   4.289   3.286   2.691  0.3401  0.8541 -0.0209
 2718SOL     OW10637   4.789   3.773   5.429 -0.1516 -0.4581  0.0414
 2718SOL    HW210638   4.876   3.737   5.446  0.2365  1.1547  1.8720
 2718SOL    HW310639   4.764   3.737   5.344  2.2926 -0.9530 -0.5404
 2718SOL    MW410640   4.797   3.764   5.420  0.2221 -0.3106  0.2062
 2719SOL     OW10641   0.572   4.802   4.077 -0.6678  0.4244  0.7426
 2719SOL    HW210642   0.625   4.821   4.154  0.0162 -0.4025  0.4926
 2719SOL    HW310643   0.613   4.724   4.038 -1.3455  0.4861 -0.1290
 2719SOL    MW410644   0.584   4.794   4.082 -0.6670  0.3235  0.5946
 2720SOL     OW10645   5.714   2.474   5.951 -0.0808 -0.3509 -0.1376
 2720SOL    HW210646   5.637   2.529   5.964  1.0463  1.3987 -0.4950
 2720SOL    HW310647   5.733   2.480   5.858  1.3850  0.5782  0.1801
 2720SOL    MW410648   5.707   2.482   5.941  0.2613  0.0025 -0.1428
 2721SOL     OW10649   0.985   1.236   3.360 -0.1586  0.1816  0.1429
 2721SOL    HW210650   1.058   1.239   3.298 -0.7914 -0.6026 -0.6918
 2721SOL    HW310651   1.022   1.198   3.439  0.2155 -0.8163 -0.4863
 2721SOL    MW410652   0.999   1.231   3.362 -0.1927 -0.0536 -0.0503
 2722SOL     OW10653   1.409   1.095   4.912 -0.1301  0.1942  0.6563
 2722SOL    HW210654   1.438   1.009   4.882 -1.3691 -0.7854  2.1031
 2722SOL    HW310655   1.437   1.100   5.003 -0.2471  1.2519  0.6548
 2722SOL    MW410656   1.416   1.085   4.920 -0.3090  0.2045  0.8470
 2723SOL     OW10657   4.515   4.392   2.501 -0.4997 -0.7834  0.4208
 2723SOL    HW210658   4.528   4.309   2.455 -2.1656 -0.5056 -0.6002
 2723SOL    HW310659   4.423   4.390   2.529 -0.2795  0.2852  1.2903
 2723SOL    MW410660   4.505   4.381   2.499 -0.6904 -0.6058  0.4008
 2724SOL     OW10661   2.583   3.787   0.746 -0.4121 -0.3611  0.5711
 2724SOL    HW210662   2.517   3.767   0.813 -0.6807 -1.0504  0.1154
 2724SOL    HW310663   2.649   3.719   0.758 -0.7485 -0.8405 -0.2339
 2724SOL    MW410664   2.583   3.775   0.757 -0.4919 -0.5153  0.4047
 2725SOL     OW10665   0.903   2.208   3.873  0.3992  0.0514  0.2522
 2725SOL    HW210666   0.875   2.146   3.805 -2.0498  0.8236  0.4684
 2725SOL    HW310667   0.887   2.294   3.834  0.4536  0.5148  1.2441
 2725SOL    MW410668   0.897   2.211   3.859  0.0833  0.2144  0.4116
 2726SOL     OW10669   0.503   0.740   3.425 -0.8291  0.0838 -0.3999
 2726SOL    HW210670   0.589   0.762   3.387  0.0134 -1.2278  0.6384
 2726SOL    HW310671   0.442   0.799   3.382  0.5607  0.8757 -1.3748
 2726SOL    MW410672   0.507   0.751   3.415 -0.5346  0.0152 -0.3915
 2727SOL     OW10673   5.835   6.110   6.002 -0.2231 -0.2687  0.1678
 2727SOL    HW210674   5.862   6.195   6.038  1.2940 -0.3391 -0.7035
 2727SOL    HW310675   5.913   6.055   6.011 -0.5118 -0.9265 -1.1857
 2727SOL    MW410676   5.849   6.114   6.008 -0.0610 -0.3648 -0.1258
 2728SOL     OW10677   2.101   0.337   1.944 -0.3447  0.0414 -0.0561
 2728SOL    HW210678   2.024   0.393   1.956 -1.5158 -1.6645  0.6968
 2728SOL    HW310679   2.115   0.336   1.849 -1.0023  0.6743 -0.1680
 2728SOL    MW410680   2.093   0.344   1.933 -0.5860 -0.1001  0.0285
 2729SOL     OW10681   3.193   4.221   3.586 -0.0219 -0.2978  0.2130
 2729SOL    HW210682   3.263   4.215   3.521  0.3130  3.1502  0.0816
 2729SOL    HW310683   3.205   4.144   3.642  2.0428 -1.3163 -1.4921
 2729SOL    MW410684   3.204   4.210   3.585  0.2947  0.0228 -0.0293
 2730SOL     OW10685   6.279   3.206   4.208  0.1155  0.5190 -0.3644
 2730SOL    HW210686   6.314   3.147   4.274  3.3993  0.4792 -1.9803
 2730SOL    HW310687   6.326   3.288   4.221 -0.5293  1.0988 -1.4998
 2730SOL    MW410688   6.290   3.209   4.218  0.4637  0.5902 -0.7274
 2731SOL     OW10689   1.439   1.666   1.045  0.1738  0.2955  0.0664
 2731SOL    HW210690   1.494   1.592   1.022 -1.0325 -0.7258  0.3332
 2731SOL    HW310691   1.500   1.731   1.080  1.1459 -1.0130  0.9086
 2731SOL    MW410692   1.454   1.665   1.047  0.1429 -0.0119  0.2127
 2732SOL     OW10693   4.973   2.052   2.024  0.2411  0.1031  0.3123
 2732SOL    HW210694   4.926   2.086   2.100 -1.4593  0.6824 -0.9346
 2732SOL    HW310695   4.973   1.957   2.037  0.8065  0.2497  1.4839
 2732SOL    MW410696   4.967   2.044   2.036  0.0914  0.1989  0.3024
 2733SOL     OW10697   6.172   5.280   1.498 -0.0373 -0.1335 -0.0991
 2733SOL    HW210698   6.086   5.259   1.462  0.3215 -0.7076 -0.6429
 2733SOL    HW310699   6.200   5.200   1.543  1.3016 -0.8691 -2.1095
 2733SOL    MW410700   6.164   5.267   1.499  0.1867 -0.3063 -0.4361
 2734SOL     OW10701   6.225   1.646   0.214  0.7348  0.0475 -0.1140
 2734SOL    HW210702   6.253   1.651   0.305 -1.0704 -1.1284  0.5590
 2734SOL    HW310703   6.156   1.710   0.206 -0.1243 -0.8677 -0.2279
 2734SOL    MW410704   6.220   1.655   0.225  0.3833 -0.2284 -0.0402
 2735SOL     OW10705   3.296   5.968   4.838  0.0141 -0.7747 -0.5180
 2735SOL    HW210706   3.340   6.052   4.822 -2.5011  0.4937 -1.3228
 2735SOL    HW310707   3.278   5.934   4.751 -1.5290 -0.6926 -0.2591
 2735SOL    MW410708   3.299   5.975   4.824 -0.5213 -0.5965 -0.5900
 2736SOL     OW10709   1.907   4.993   2.462 -0.0227 -0.2340  0.1526
 2736SOL    HW210710   1.937   5.077   2.498  2.6020 -1.2222  0.5088
 2736SOL    HW310711   1.812   4.997   2.467  0.0847  1.6381  2.6620
 2736SOL    MW410712   1.899   5.005   2.467  0.3378 -0.1174  0.5307
 2737SOL     OW10713   6.367   4.186   1.167 -0.5119 -0.3921  0.7628
 2737SOL    HW210714   6.351   4.280   1.155 -0.5886 -0.3224  1.3862
 2737SOL    HW310715   6.462   4.178   1.172 -0.4867 -0.3982  0.3512
 2737SOL    MW410716   6.377   4.197   1.166 -0.5187 -0.3837  0.7907
 2738SOL     OW10717   1.860   1.735   5.778 -0.0277 -0.3343 -0.4261
 2738SOL    HW210718   1.817   1.820   5.787  0.5610  0.1081 -1.6119
 2738SOL    HW310719   1.791   1.672   5.798 -0.9775  0.3813 -1.3480
 2738SOL    MW410720   1.845   1.738   5.782 -0.0753 -0.1815 -0.7042
 2739SOL     OW10721   5.654   2.024   5.832  0.5668 -0.3230  0.1822
 2739SOL    HW210722   5.727   2.051   5.776 -0.9009  1.0024 -1.2094
 2739SOL    HW310723   5.631   2.104   5.880 -0.2856 -0.5891  0.2218
 2739SOL    MW410724   5.661   2.038   5.831  0.2607 -0.1833  0.0039
 2740SOL     OW10725   4.304   6.329   3.751  0.3062 -0.0668  0.3261
 2740SOL    HW210726   4.253   6.335   3.670 -0.6814  1.6133  1.0282
 2740SOL    HW310727   4.278   6.405   3.802  0.2389 -1.5217  2.6233
 2740SOL    MW410728   4.294   6.340   3.747  0.1670 -0.0371  0.7218
 2741SOL     OW10729   1.030   0.627   2.225  0.0840  0.0292 -0.4045
 2741SOL    HW210730   0.961   0.565   2.202  0.6585 -0.4791 -0.8119
 2741SOL    HW310731   1.109   0.573   2.233  0.2602  0.4596  1.0173
 2741SOL    MW410732   1.032   0.612   2.223  0.1831  0.0189 -0.2707
 2742SOL     OW10733   4.124   5.476   1.446 -0.7919  0.1712 -0.1627
 2742SOL    HW210734   4.090   5.420   1.376 -0.4672 -0.4673  0.1819
 2742SOL    HW310735   4.065   5.459   1.520 -0.7009  0.2985 -0.0617
 2742SOL    MW410736   4.112   5.466   1.446 -0.7370  0.1037 -0.1039
 2743SOL     OW10737   4.447   1.094   6.063  0.2083  0.2477  0.4407
 2743SOL    HW210738   4.502   1.018   6.042  0.6427  0.6255  0.2137
 2743SOL    HW310739   4.508   1.163   6.085 -0.1693  0.7292 -0.0074
 2743SOL    MW410740   4.462   1.093   6.063  0.2158  0.3611  0.3516
 2744SOL     OW10741   1.152   6.126   2.123  0.0503 -0.3112  0.2066
 2744SOL    HW210742   1.137   6.118   2.217 -1.1827  0.7961  0.1293
 2744SOL    HW310743   1.243   6.156   2.115 -0.1109  0.4503  1.0960
 2744SOL    MW410744   1.162   6.129   2.134 -0.1336 -0.0646  0.3137
 2745SOL     OW10745   6.383   0.287   4.020 -0.3953  0.3538  0.7364
 2745SOL    HW210746   6.471   0.321   4.038 -0.2970 -0.0390  1.0181
 2745SOL    HW310747   6.387   0.260   3.928 -0.3395  0.6947  0.6385
 2745SOL    MW410748   6.395   0.288   4.011 -0.3749  0.3469  0.7607
 2746SOL     OW10749   6.077   0.767   0.808  0.0650  0.2834 -0.2046
 2746SOL    HW210750   6.101   0.771   0.715  0.1816  1.8783 -0.1244
 2746SOL    HW310751   5.989   0.731   0.808  0.1920 -0.0474 -0.9057
 2746SOL    MW410752   6.069   0.763   0.795  0.0971  0.4502 -0.2866
 2747SOL     OW10753   1.507   6.009   1.654 -0.3292  0.2113  0.6694
 2747SOL    HW210754   1.553   6.084   1.614 -0.6188 -0.7452 -1.5839
 2747SOL    HW310755   1.454   6.049   1.723 -0.9925  2.2363 -0.8813
 2747SOL    MW410756   1.506   6.024   1.658 -0.4549  0.3522  0.1675
 2748SOL     OW10757   1.791   4.473   5.122  0.4292 -0.9117  0.3263
 2748SOL    HW210758   1.777   4.528   5.199 -0.7570  1.6882 -1.6265
 2748SOL    HW310759   1.748   4.390   5.144 -1.8937  0.5515  1.6196
 2748SOL    MW410760   1.784   4.469   5.135 -0.0338 -0.3756  0.2393
 2749SOL     OW10761   4.757   4.813   0.745 -0.0380 -0.6483 -0.0621
 2749SOL    HW210762   4.829   4.856   0.792  0.3993 -1.8319  0.3750
 2749SOL    HW310763   4.800   4.750   0.687 -0.7230 -1.5645  0.4005
 2749SOL    MW410764   4.773   4.811   0.744 -0.0706 -0.9254  0.0566
 2750SOL     OW10765   5.385   0.616   1.979  0.2311  0.4874 -0.7903
 2750SOL    HW210766   5.336   0.633   2.060  1.1449  1.1173 -0.3546
 2750SOL    HW310767   5.402   0.703   1.943  2.1584  0.3739 -0.2423
 2750SOL    MW410768   5.381   0.630   1.985  0.6059  0.5555 -0.6605
 2751SOL     OW10769   6.282   4.539   0.477 -0.2665 -0.1540  0.1081
 2751SOL    HW210770   6.375   4.560   0.488 -0.2068 -0.4340  0.1450
 2751SOL    HW310771   6.261   4.571   0.389  0.2078 -1.2857 -0.4305
 2751SOL    MW410772   6.291   4.546   0.467 -0.1961 -0.3403  0.0419
 2752SOL     OW10773   0.496   5.474   4.697  0.0597  0.4365 -0.5505
 2752SOL    HW210774   0.454   5.389   4.706 -0.0829  0.5989  0.4664
 2752SOL    HW310775   0.581   5.464   4.739  0.7252  0.3519 -1.8528
 2752SOL    MW410776   0.502   5.462   4.704  0.1287  0.4467 -0.5882
 2753SOL     OW10777   4.886   0.126   2.532 -0.3784 -0.3138 -0.2250
 2753SOL    HW210778   4.873   0.107   2.625 -0.1310 -0.1193 -0.1513
 2753SOL    HW310779   4.903   0.220   2.529 -1.1088 -0.1831 -0.5422
 2753SOL    MW410780   4.886   0.136   2.544 -0.4421 -0.2709 -0.2571
 2754SOL     OW10781   4.234   2.171   3.527 -0.0409 -0.4746  0.0350
 2754SOL    HW210782   4.175   2.098   3.545 -0.3437 -0.2591 -0.0725
 2754SOL    HW310783   4.177   2.248   3.526  0.2647 -0.2457  0.0749
 2754SOL    MW410784   4.219   2.172   3.530 -0.0406 -0.4160  0.0261
 2755SOL     OW10785   4.148   2.096   4.246  0.5016  0.1458  0.1992
 2755SOL    HW210786   4.113   2.185   4.253  0.0961 -0.0134  0.2130
 2755SOL    HW310787   4.210   2.101   4.173  0.8260  0.5488  0.4998
 2755SOL    MW410788   4.151   2.109   4.237  0.4909  0.1780  0.2407
 2756SOL     OW10789   3.114   5.338   1.450 -0.0716  0.3421 -0.1295
 2756SOL    HW210790   3.078   5.426   1.454 -0.7667  0.1259 -1.2057
 2756SOL    HW310791   3.086   5.305   1.365 -0.1695 -1.0654  0.4252
 2756SOL    MW410792   3.105   5.345   1.439 -0.1762  0.1278 -0.1983
 2757SOL     OW10793   4.996   5.799   1.153  0.0203 -0.4902  0.1657
 2757SOL    HW210794   5.033   5.725   1.104  0.9225  0.4915 -0.6731
 2757SOL    HW310795   5.066   5.864   1.156 -0.5321  0.0981  1.4597
 2757SOL    MW410796   5.010   5.798   1.147  0.0665 -0.2831  0.2257
 2758SOL     OW10797   4.396   1.733   3.557 -0.0211 -0.0073  0.0019
 2758SOL    HW210798   4.334   1.694   3.495 -2.3763  0.3977  1.9660
 2758SOL    HW310799   4.342   1.762   3.631  2.4600  0.9261  1.5879
 2758SOL    MW410800   4.381   1.732   3.559 -0.0045  0.1693  0.4703
 2759SOL     OW10801   4.823   1.983   6.141 -0.4222  1.0820  0.4592
 2759SOL    HW210802   4.768   1.977   6.219 -1.8957  0.0398 -0.6171
 2759SOL    HW310803   4.770   1.947   6.071  2.1884 -1.5749 -0.3724
 2759SOL    MW410804   4.809   1.977   6.142 -0.2722  0.5940  0.2075
 2760SOL     OW10805   3.221   4.071   3.852 -1.3077 -1.0080 -0.6398
 2760SOL    HW210806   3.140   4.099   3.895 -0.8277 -1.8333  0.8575
 2760SOL    HW310807   3.285   4.137   3.878 -1.0404 -1.4561 -0.1345
 2760SOL    MW410808   3.219   4.084   3.861 -1.2091 -1.1760 -0.3756
 2761SOL     OW10809   4.738   2.310   1.209  0.0547  0.2066 -0.2769
 2761SOL    HW210810   4.795   2.286   1.136  0.0054 -1.0273  0.0675
 2761SOL    HW310811   4.792   2.298   1.287 -0.3700 -0.0268 -0.0129
 2761SOL    MW410812   4.753   2.306   1.209 -0.0078  0.0130 -0.1966
 2762SOL     OW10813   0.814   1.518   1.476  0.0639  0.3533  0.1799
 2762SOL    HW210814   0.857   1.445   1.432 -1.3917 -0.5837  0.2416
 2762SOL    HW310815   0.861   1.528   1.559  1.2377  0.4969 -0.4884
 2762SOL    MW410816   0.825   1.510   1.481  0.0267  0.2487  0.0999
 2763SOL     OW10817   3.795   0.574   3.933 -0.1875  0.0334 -0.0818
 2763SOL    HW210818   3.760   0.662   3.943 -0.6966 -0.1729  0.0084
 2763SOL    HW310819   3.727   0.517   3.969  0.3183 -0.3701  0.2544
 2763SOL    MW410820   3.781   0.578   3.939 -0.1880 -0.0471 -0.0255
 2764SOL     OW10821   4.241   1.443   5.616 -0.0808 -0.2357  0.0557
 2764SOL    HW210822   4.250   1.350   5.633  0.8855 -0.3084 -0.7732
 2764SOL    HW310823   4.151   1.453   5.584 -0.4182 -0.7682  0.8252
 2764SOL    MW410824   4.230   1.432   5.614  0.0021 -0.3156  0.0479
 2765SOL     OW10825   2.838   3.388   2.563  0.3354  0.0810 -0.0013
 2765SOL    HW210826   2.836   3.329   2.487 -0.8738  0.8618 -0.6273
 2765SOL    HW310827   2.777   3.458   2.539 -1.3023 -0.4346  2.3239
 2765SOL    MW410828   2.829   3.389   2.550 -0.0402  0.1160  0.2229
 2766SOL     OW10829   2.381   2.674   3.986  0.6094  0.5564 -0.7910
 2766SOL    HW210830   2.366   2.681   3.891  2.2964  0.2814 -1.1110
 2766SOL    HW310831   2.407   2.763   4.012  0.3172  0.5901 -0.6067
 2766SOL    MW410832   2.382   2.687   3.977  0.7934  0.5246 -0.8089
 2767SOL     OW10833   3.912   3.373   1.032 -0.0405  0.0679 -0.4202
 2767SOL    HW210834   3.840   3.333   1.080  0.2339 -2.2945 -1.8662
 2767SOL    HW310835   3.991   3.348   1.081 -0.0097  0.7548 -0.1008
 2767SOL    MW410836   3.913   3.365   1.045 -0.0002 -0.1532 -0.5689
 2768SOL     OW10837   3.840   6.115   3.528  0.1215  0.9671  0.1144
 2768SOL    HW210838   3.776   6.045   3.518  1.9847 -0.8644  0.2499
 2768SOL    HW310839   3.867   6.137   3.438 -0.2597  1.3314  0.0859
 2768SOL    MW410840   3.835   6.109   3.514  0.3170  0.7735  0.1285
 2769SOL     OW10841   6.130   3.390   3.336  0.1497  0.1262  0.1379
 2769SOL    HW210842   6.165   3.328   3.273  1.9000 -0.3342  1.4855
 2769SOL    HW310843   6.061   3.437   3.288  1.2837 -0.2956 -2.0243
 2769SOL    MW410844   6.126   3.388   3.322  0.5303  0.0098  0.0304
 2770SOL     OW10845   0.489   6.137   3.952 -0.1128 -1.2771  0.0290
 2770SOL    HW210846   0.537   6.076   3.895  0.6308  1.3431 -2.4163
 2770SOL    HW310847   0.412   6.162   3.900  0.4507  1.0204  0.2140
 2770SOL    MW410848   0.485   6.132   3.938  0.0597 -0.6283 -0.2692
 2771SOL     OW10849   2.222   5.713   4.742  0.2965 -0.3705 -0.1820
 2771SOL    HW210850   2.258   5.634   4.782 -1.2092 -0.1998  1.6517
 2771SOL    HW310851   2.250   5.784   4.799 -0.0472  0.1757 -0.6755
 2771SOL    MW410852   2.230   5.712   4.755  0.0525 -0.2759 -0.0052
 2772SOL     OW10853   5.845   3.515   6.219 -0.3165  0.4191 -0.1780
 2772SOL    HW210854   5.900   3.559   6.154  0.9889  1.5306  1.5939
 2772SOL    HW310855   5.865   3.559   6.301 -0.7883 -1.9122  1.2710
 2772SOL    MW410856   5.855   3.526   6.221 -0.2065  0.2582  0.2470
 2773SOL     OW10857   3.013   0.805   1.725 -0.2584  0.2764 -0.1262
 2773SOL    HW210858   3.039   0.873   1.788 -0.9228  1.2531 -0.8818
 2773SOL    HW310859   3.046   0.836   1.641  0.5177 -0.9645 -0.3022
 2773SOL    MW410860   3.021   0.818   1.723 -0.2436  0.2416 -0.2491
 2774SOL     OW10861   4.409   5.009   4.538 -0.2044  0.6270 -0.3393
 2774SOL    HW210862   4.492   4.983   4.579 -1.0559  0.4137  1.3133
 2774SOL    HW310863   4.361   5.053   4.608 -2.3042 -1.0041 -0.6901
 2774SOL    MW410864   4.414   5.012   4.553 -0.5938  0.3837 -0.1675
 2775SOL     OW10865   5.639   1.705   5.101  0.3251  0.5305 -0.0481
 2775SOL    HW210866   5.546   1.688   5.112  0.4066  0.2343  0.2133
 2775SOL    HW310867   5.645   1.761   5.024  0.0099 -0.2138 -0.6213
 2775SOL    MW410868   5.628   1.710   5.092  0.2942  0.3932 -0.0892
 2776SOL     OW10869   3.970   1.759   4.945  0.2010  0.3982 -0.1445
 2776SOL    HW210870   4.061   1.761   4.917  0.6962 -1.1055  1.2757
 2776SOL    HW310871   3.921   1.742   4.864  1.4851 -2.5286 -0.4066
 2776SOL    MW410872   3.975   1.757   4.930  0.4357 -0.1863  0.0083
 2777SOL     OW10873   5.632   5.490   5.512 -0.2972  0.4123 -0.6677
 2777SOL    HW210874   5.609   5.397   5.504 -0.1052  0.4411 -1.6902
 2777SOL    HW310875   5.594   5.517   5.595  1.3277 -1.0791  0.6471
 2777SOL    MW410876   5.624   5.481   5.522 -0.0575  0.2193 -0.6291
 2778SOL     OW10877   4.198   4.916   6.112  0.0635 -0.3890 -0.0083
 2778SOL    HW210878   4.119   4.889   6.159 -0.3664 -1.5614 -1.3238
 2778SOL    HW310879   4.180   4.895   6.020  1.3237  0.7441 -0.5542
 2778SOL    MW410880   4.185   4.910   6.106  0.1731 -0.3941 -0.2539
 2779SOL     OW10881   1.389   0.679   6.416  0.0199 -0.0312 -0.3666
 2779SOL    HW210882   1.473   0.711   6.448  0.5427 -1.2063 -0.5292
 2779SOL    HW310883   1.331   0.684   6.492  0.0773  1.2602 -0.3845
 2779SOL    MW410884   1.392   0.684   6.430  0.0965 -0.0159 -0.3904
 2780SOL     OW10885   2.179   5.309   3.354 -0.1123 -0.2165  0.1578
 2780SOL    HW210886   2.264   5.274   3.380 -0.2432  0.3755  1.4469
 2780SOL    HW310887   2.115   5.254   3.399 -0.3531  0.4978  0.7187
 2780SOL    MW410888   2.182   5.297   3.363 -0.1614 -0.0442  0.4019
 2781SOL     OW10889   5.735   3.221   4.079 -0.1312 -0.6170 -0.2651
 2781SOL    HW210890   5.650   3.214   4.122  1.2293 -0.3640  2.6878
 2781SOL    HW310891   5.788   3.273   4.139  1.5748  1.0126 -2.9642
 2781SOL    MW410892   5.730   3.227   4.093  0.2734 -0.3686 -0.2316
 2782SOL     OW10893   5.259   3.711   1.211 -0.1982  0.6057 -0.4770
 2782SOL    HW210894   5.263   3.661   1.130  0.0531 -0.3346  0.1065
 2782SOL    HW310895   5.338   3.687   1.259 -0.6502  0.6742  0.3209
 2782SOL    MW410896   5.270   3.701   1.207 -0.2247  0.4906 -0.2947
 2783SOL     OW10897   3.019   1.104   3.304  0.3798 -0.2040  0.1589
 2783SOL    HW210898   3.016   1.169   3.374  0.8216 -0.0221  0.0138
 2783SOL    HW310899   3.112   1.082   3.296  0.8261  1.9673 -2.3516
 2783SOL    MW410900   3.031   1.110   3.312  0.4970  0.1065 -0.1915
 2784SOL     OW10901   3.998   5.161   5.869  0.2655 -0.0330  0.4951
 2784SOL    HW210902   4.090   5.135   5.859 -0.6474 -3.1895 -1.2181
 2784SOL    HW310903   3.976   5.138   5.959  0.7527 -0.8726  0.4132
 2784SOL    MW410904   4.007   5.155   5.879  0.2094 -0.5602  0.2583
 2785SOL     OW10905   2.213   2.501   4.590 -0.3730  0.0063 -0.2650
 2785SOL    HW210906   2.191   2.416   4.553 -0.5739 -0.3698  0.6965
 2785SOL    HW310907   2.197   2.492   4.684 -1.1068  1.3229 -0.2361
 2785SOL    MW410908   2.208   2.489   4.597 -0.4963  0.1304 -0.1344
 2786SOL     OW10909   4.093   4.642   1.971 -0.4978  0.1598 -0.2248
 2786SOL    HW210910   4.105   4.731   1.939 -0.9435 -0.1018 -1.1707
 2786SOL    HW310911   4.002   4.639   2.001 -0.4966  0.0169 -0.2328
 2786SOL    MW410912   4.083   4.653   1.970 -0.5564  0.1064 -0.3507
 2787SOL     OW10913   1.006   2.459   6.270  0.8419  0.2709  0.4202
 2787SOL    HW210914   1.058   2.490   6.196  0.7214 -0.1396  0.1636
 2787SOL    HW310915   1.069   2.415   6.327  0.6591 -0.8811 -0.2514
 2787SOL    MW410916   1.021   2.458   6.268  0.8019  0.0648  0.2978
 2788SOL     OW10917   2.825   2.958   2.461 -0.3208  0.2007 -0.1893
 2788SOL    HW210918   2.846   2.896   2.392  1.3863  1.0184 -0.4423
 2788SOL    HW310919   2.821   3.043   2.417  2.8869  1.0724  0.9126
 2788SOL    MW410920   2.827   2.961   2.446  0.3276  0.4236 -0.0773
 2789SOL     OW10921   1.926   0.121   1.387  0.4039  0.4934 -0.0573
 2789SOL    HW210922   1.991   0.171   1.337  1.0093  1.2548  1.4214
 2789SOL    HW310923   1.846   0.173   1.381  0.7724  1.1675  0.6600
 2789SOL    MW410924   1.924   0.134   1.379  0.5324  0.6828  0.2324
 2790SOL     OW10925   1.015   4.637   2.017 -0.3486 -0.0560  0.0387
 2790SOL    HW210926   1.073   4.632   1.941  0.5247  1.0657  0.5960
 2790SOL    HW310927   1.047   4.568   2.076 -0.4248 -0.3103 -0.2177
 2790SOL    MW410928   1.027   4.627   2.015 -0.2434  0.0584  0.0784
 2791SOL     OW10929   2.141   5.852   3.783 -0.4503  0.6486 -0.4610
 2791SOL    HW210930   2.084   5.836   3.708 -1.8887 -0.3461  0.7802
 2791SOL    HW310931   2.110   5.934   3.821 -1.0331  0.1496  0.1670
 2791SOL    MW410932   2.130   5.861   3.778 -0.7169  0.4515 -0.2144
 2792SOL     OW10933   2.077   3.546   6.105  0.1625  0.1151  1.2469
 2792SOL    HW210934   2.054   3.455   6.123 -1.1700  0.2905  0.6343
 2792SOL    HW310935   2.073   3.590   6.190 -1.2790 -0.0017  1.2675
 2792SOL    MW410936   2.073   3.540   6.118 -0.2035  0.1228  1.1688
 2793SOL     OW10937   1.616   2.806   1.066 -0.3838  0.3017 -0.3897
 2793SOL    HW210938   1.679   2.806   1.138 -1.6094 -1.1952  0.7461
 2793SOL    HW310939   1.628   2.721   1.023 -1.4257  0.0946 -0.3052
 2793SOL    MW410940   1.626   2.795   1.070 -0.6830  0.0769 -0.2287
 2794SOL     OW10941   3.502   3.628   1.481  0.3368 -0.7030  0.0790
 2794SOL    HW210942   3.512   3.551   1.537 -2.7082  0.2584  2.1605
 2794SOL    HW310943   3.467   3.592   1.399 -1.1611 -1.6169  1.0574
 2794SOL    MW410944   3.499   3.613   1.477 -0.2626 -0.6967  0.4827
 2795SOL     OW10945   1.168   5.820   0.462 -0.1483 -0.1987 -0.0528
 2795SOL    HW210946   1.195   5.909   0.443  0.0837 -0.4274 -0.8381
 2795SOL    HW310947   1.183   5.772   0.380 -0.5037 -0.8998  0.2795
 2795SOL    MW410948   1.173   5.825   0.448 -0.1646 -0.3214 -0.1126
 2796SOL     OW10949   3.277   0.993   4.093 -0.4551  0.1856 -0.1770
 2796SOL    HW210950   3.338   0.951   4.033  0.2447  0.2470  0.4686
 2796SOL    HW310951   3.250   0.923   4.153  0.7188  0.6273  0.9051
 2796SOL    MW410952   3.281   0.978   4.093 -0.2079  0.2520  0.0510
 2797SOL     OW10953   2.619   6.451   1.258  0.9879 -0.4367  0.3900
 2797SOL    HW210954   2.540   6.465   1.206  0.6944  0.6064  1.0844
 2797SOL    HW310955   2.588   6.451   1.349  1.8562  0.6838  0.7097
 2797SOL    MW410956   2.605   6.453   1.263  1.0638 -0.1513  0.5238
 2798SOL     OW10957   4.941   5.735   3.755 -0.4964 -0.2921  0.1636
 2798SOL    HW210958   4.949   5.658   3.811  0.4006  1.4794  2.6661
 2798SOL    HW310959   4.847   5.747   3.744 -0.7826 -0.0166  2.4214
 2798SOL    MW410960   4.930   5.726   3.761 -0.4158 -0.0220  0.7916
 2799SOL     OW10961   1.904   0.788   2.662  0.4563  0.3877 -0.0943
 2799SOL    HW210962   1.960   0.727   2.709  0.7693 -0.9285 -2.0542
 2799SOL    HW310963   1.819   0.743   2.657  0.6001  0.2225 -1.2753
 2799SOL    MW410964   1.900   0.774   2.667  0.5165  0.1922 -0.5087
 2800SOL     OW10965   0.318   3.050   0.043  0.6535  1.1275 -0.0287
 2800SOL    HW210966   0.340   2.996   0.120 -1.5083  0.7931  0.4248
 2800SOL    HW310967   0.393   3.108   0.033  2.4666 -0.9849  0.3331
 2800SOL    MW410968   0.331   3.050   0.052  0.6075  0.8047  0.0789
 2801SOL     OW10969   3.493   5.038   0.578  0.2252 -0.5010  0.2464
 2801SOL    HW210970   3.586   5.050   0.595  0.1370  1.9513 -0.6050
 2801SOL    HW310971   3.475   5.092   0.501 -2.2575  0.6687  1.5259
 2801SOL    MW410972   3.503   5.047   0.570 -0.1140 -0.0231  0.3028
 2802SOL     OW10973   0.865   3.108   4.092 -0.3811  0.0867 -0.4333
 2802SOL    HW210974   0.794   3.172   4.086 -0.4973  0.2102  1.6245
 2802SOL    HW310975   0.944   3.159   4.078 -0.5739  0.3653 -0.5086
 2802SOL    MW410976   0.866   3.123   4.089 -0.4218  0.1398 -0.1717
 2803SOL     OW10977   5.221   0.953   6.278 -0.2893 -0.2722 -0.5048
 2803SOL    HW210978   5.161   0.967   6.351  2.1071  1.2232  1.3281
 2803SOL    HW310979   5.291   0.899   6.314  0.7013  0.0622 -1.8348
 2803SOL    MW410980   5.222   0.948   6.292  0.1575 -0.0308 -0.4385
 2804SOL     OW10981   3.987   3.539   5.531 -0.0356 -0.2879 -0.2747
 2804SOL    HW210982   3.902   3.496   5.547  1.0137 -1.6365  2.3511
 2804SOL    HW310983   3.964   3.622   5.490 -2.7656 -0.0760  1.4119
 2804SOL    MW410984   3.972   3.544   5.528 -0.2574 -0.4379  0.2943
 2805SOL     OW10985   3.300   2.375   0.206 -1.1476  0.1410 -0.2061
 2805SOL    HW210986   3.282   2.422   0.124  0.1082 -2.0393 -1.8633
 2805SOL    HW310987   3.390   2.397   0.228 -2.1050  2.4476  1.9612
 2805SOL    MW410988   3.309   2.384   0.198 -1.1083  0.1576 -0.1388
 2806SOL     OW10989   1.868   0.205   0.363 -0.2098  0.5987  0.1882
 2806SOL    HW210990   1.914   0.287   0.344  2.3326 -1.0337 -1.0943
 2806SOL    HW310991   1.831   0.219   0.451  2.4664  2.1878  1.1779
 2806SOL    MW410992   1.869   0.218   0.372  0.4787  0.5929  0.1496
 2807SOL     OW10993   5.164   0.496   0.046  0.1086 -0.4752  0.0795
 2807SOL    HW210994   5.243   0.509   0.098  0.6746 -0.4865 -0.7576
 2807SOL    HW310995   5.161   0.402   0.030  0.4392 -0.3657 -0.6640
 2807SOL    MW410996   5.174   0.485   0.051  0.2269 -0.4623 -0.1291
 2808SOL     OW10997   3.176   5.608   4.771 -0.3054 -0.5694 -0.1975
 2808SOL    HW210998   3.111   5.555   4.816  0.1591 -1.2495 -0.3103
 2808SOL    HW310999   3.257   5.594   4.821 -0.4955  1.2643  0.7089
 2808SOL    MW411000   3.178   5.599   4.784 -0.2692 -0.4172 -0.0928
 2809SOL     OW11001   1.201   6.417   2.082  0.2276 -0.0639 -0.0934
 2809SOL    HW211002   1.286   6.381   2.107  1.1885  1.4492 -0.9985
 2809SOL    HW311003   1.142   6.341   2.080  1.4834 -1.1108  0.7785
 2809SOL    MW411004   1.205   6.402   2.085  0.5201 -0.0024 -0.0978
 2810SOL     OW11005   3.770   2.909   4.785  0.2753 -0.1186 -0.2447
 2810SOL    HW211006   3.721   2.901   4.703  1.9677  1.4193 -1.4966
 2810SOL    HW311007   3.809   2.822   4.798 -0.2420 -0.4655 -0.9214
 2810SOL    MW411008   3.769   2.896   4.776  0.4304  0.0386 -0.4991
 2811SOL     OW11009   2.551   5.215   1.935 -0.4113 -1.1111 -0.0257
 2811SOL    HW211010   2.632   5.167   1.948  0.8545  0.6184 -1.0330
 2811SOL    HW311011   2.579   5.301   1.903 -2.7099 -1.3027 -2.9782
 2811SOL    MW411012   2.566   5.220   1.933 -0.5475 -0.9082 -0.5482
 2812SOL     OW11013   5.487   5.693   2.983 -0.2948 -0.4132 -0.0535
 2812SOL    HW211014   5.423   5.732   2.923  1.2523 -0.7350 -1.9858
 2812SOL    HW311015   5.500   5.760   3.050  0.5878  1.4964 -2.0417
 2812SOL    MW411016   5.480   5.707   2.984  0.0258 -0.2037 -0.5708
 2813SOL     OW11017   2.828   4.740   2.093 -0.2356  0.4045  0.0543
 2813SOL    HW211018   2.735   4.741   2.069 -0.0211  0.1433 -0.8084
 2813SOL    HW311019   2.832   4.687   2.172 -0.7844  0.1642 -0.0759
 2813SOL    MW411020   2.816   4.733   2.100 -0.2797  0.3383 -0.0767
 2814SOL     OW11021   2.069   1.887   3.275  0.3776  0.3064  0.4622
 2814SOL    HW211022   1.989   1.871   3.324  1.0938 -0.0054  1.5637
 2814SOL    HW311023   2.095   1.801   3.241  0.8677  0.1990  1.0969
 2814SOL    MW411024   2.062   1.873   3.277  0.5368  0.2511  0.6913
 2815SOL     OW11025   5.471   5.831   3.240 -0.4059  0.5199 -0.1342
 2815SOL    HW211026   5.553   5.879   3.235 -0.0854  0.2069  1.5106
 2815SOL    HW311027   5.407   5.889   3.199  0.6739  0.6010 -1.7921
 2815SOL    MW411028   5.473   5.845   3.234 -0.2211  0.4893 -0.1359
 2816SOL     OW11029   0.550   0.551   5.634 -0.0603  0.0145  0.0603
 2816SOL    HW211030   0.627   0.502   5.662 -0.8030 -0.5729  1.1275
 2816SOL    HW311031   0.476   0.503   5.670 -0.8719  1.2799  0.1400
 2816SOL    MW411032   0.550   0.539   5.642 -0.2654  0.1039  0.2116
 2817SOL     OW11033   1.965   3.115   1.870  0.1021 -0.0853 -0.4100
 2817SOL    HW211034   1.877   3.143   1.894  0.0505 -1.4407  1.2335
 2817SOL    HW311035   1.966   3.115   1.775 -2.1044 -1.1796 -0.4953
 2817SOL    MW411036   1.954   3.118   1.861 -0.1959 -0.4085 -0.2044
 2818SOL     OW11037   3.085   2.518   0.727 -0.0935 -0.2705 -0.3355
 2818SOL    HW211038   3.143   2.472   0.667 -0.2758 -0.7612 -0.1413
 2818SOL    HW311039   3.143   2.568   0.785  0.1308 -0.6671 -0.2169
 2818SOL    MW411040   3.100   2.519   0.727 -0.0880 -0.3876 -0.2942
 2819SOL     OW11041   2.081   1.521   5.722 -0.1613  0.7678 -0.0259
 2819SOL    HW211042   2.127   1.510   5.806 -0.3285  0.0623 -0.0207
 2819SOL    HW311043   2.013   1.586   5.741  0.2184  1.1019  0.2159
 2819SOL    MW411044   2.078   1.529   5.736 -0.1333  0.7188  0.0067
 2820SOL     OW11045   4.433   2.796   5.741  0.3152  0.3421  0.1846
 2820SOL    HW211046   4.416   2.740   5.816  1.2730  1.2151  1.0900
 2820SOL    HW311047   4.409   2.884   5.770 -0.2433  0.5604 -0.8770
 2820SOL    MW411048   4.428   2.800   5.754  0.3679  0.4860  0.1640
 2821SOL     OW11049   3.193   0.521   2.931  0.0176  0.5002 -0.4456
 2821SOL    HW211050   3.142   0.491   2.855 -0.0546  1.8122 -0.9454
 2821SOL    HW311051   3.131   0.518   3.003 -1.1194  2.9226 -1.2180
 2821SOL    MW411052   3.178   0.516   2.930 -0.1420  0.9929 -0.6135
 2822SOL     OW11053   5.745   1.500   1.030  0.0769  0.3265 -0.1340
 2822SOL    HW211054   5.782   1.553   0.960  2.7862  1.0927  1.7246
 2822SOL    HW311055   5.669   1.550   1.061 -0.3292  0.6329 -1.5490
 2822SOL    MW411056   5.740   1.514   1.025  0.3808  0.4680 -0.0755
 2823SOL     OW11057   6.375   6.371   5.129  0.4791 -0.1461  0.4153
 2823SOL    HW211058   6.354   6.443   5.069  3.6297  0.0155 -0.7333
 2823SOL    HW311059   6.440   6.408   5.189  1.0398 -1.6039  0.7585
 2823SOL    MW411060   6.381   6.385   5.129  0.9687 -0.3172  0.3091
 2824SOL     OW11061   2.521   3.201   2.946  0.3508 -0.1165  0.4668
 2824SOL    HW211062   2.594   3.222   2.888 -0.5290 -0.7759 -0.9224
 2824SOL    HW311063   2.563   3.175   3.028  1.6963 -0.8203 -0.4003
 2824SOL    MW411064   2.536   3.201   2.949  0.4123 -0.2964  0.1691
 2825SOL     OW11065   3.177   4.996   3.458 -0.2346  0.2562 -1.1261
 2825SOL    HW211066   3.114   4.957   3.397 -0.7063 -0.1068 -0.4212
 2825SOL    HW311067   3.262   4.985   3.415 -0.0043 -3.5844 -0.0763
 2825SOL    MW411068   3.180   4.989   3.444 -0.2664 -0.2984 -0.8946
 2826SOL     OW11069   2.609   2.875   4.559 -0.8196  0.1983  0.2398
 2826SOL    HW211070   2.551   2.800   4.570  1.0684 -1.0629  2.5451
 2826SOL    HW311071   2.579   2.939   4.624  1.6938 -1.5174  3.4298
 2826SOL    MW411072   2.598   2.874   4.569 -0.2389 -0.1944  0.9648
 2827SOL     OW11073   1.556   5.745   0.323  0.5550 -0.1863 -0.3458
 2827SOL    HW211074   1.516   5.743   0.410 -0.7985 -1.6823 -0.9573
 2827SOL    HW311075   1.556   5.654   0.294 -0.2533  0.4043 -2.4350
 2827SOL    MW411076   1.550   5.733   0.331  0.2697 -0.3057 -0.7021
 2828SOL     OW11077   2.367   0.745   5.758  0.1528  0.0391  0.5256
 2828SOL    HW211078   2.407   0.766   5.673 -0.4574 -0.4757  0.1060
 2828SOL    HW311079   2.393   0.818   5.815  1.2182  0.0068  0.1173
 2828SOL    MW411080   2.376   0.758   5.755  0.2128 -0.0331  0.4164
 2829SOL     OW11081   2.129   6.349   1.170  0.1401  0.4454  0.3081
 2829SOL    HW211082   2.045   6.386   1.144 -0.5084 -0.4156  1.1212
 2829SOL    HW311083   2.117   6.254   1.160  1.0107  0.3154  0.4439
 2829SOL    MW411084   2.116   6.341   1.165  0.1694  0.3147  0.4333
 2830SOL     OW11085   6.238   5.346   2.628  0.5140  0.1592 -0.2801
 2830SOL    HW211086   6.160   5.328   2.681 -0.7548  1.4468 -1.6310
 2830SOL    HW311087   6.304   5.374   2.691 -0.9013  1.5043  0.6820
 2830SOL    MW411088   6.236   5.347   2.643  0.1599  0.5065 -0.3314
 2831SOL     OW11089   1.951   5.508   5.630 -0.1050  0.0020  0.3931
 2831SOL    HW211090   1.859   5.490   5.613 -0.0849 -0.2408  0.5391
 2831SOL    HW311091   1.989   5.522   5.543 -0.4908  1.1677  0.3946
 2831SOL    MW411092   1.944   5.507   5.616 -0.1533  0.1238  0.4125
 2832SOL     OW11093   4.265   4.747   4.123 -0.0427 -0.0334 -0.6249
 2832SOL    HW211094   4.249   4.713   4.036  0.5005  0.7799 -1.0591
 2832SOL    HW311095   4.234   4.838   4.120  1.9355  0.7051 -0.6627
 2832SOL    MW411096   4.259   4.755   4.111  0.2900  0.1713 -0.6872
 2833SOL     OW11097   4.075   4.942   4.737 -0.2243 -0.5627  0.2244
 2833SOL    HW211098   3.986   4.918   4.762 -0.0337 -1.0259  0.4783
 2833SOL    HW311099   4.129   4.908   4.808  0.1592 -0.3451  0.0364
 2833SOL    MW411100   4.070   4.934   4.749 -0.1486 -0.5951  0.2331
 2834SOL     OW11101   0.802   1.609   6.097  0.0624 -0.0693 -0.0149
 2834SOL    HW211102   0.716   1.652   6.094  0.8618  1.5477 -0.8557
 2834SOL    HW311103   0.782   1.517   6.115 -1.9686 -0.0539 -1.7807
 2834SOL    MW411104   0.788   1.603   6.099 -0.1001  0.1461 -0.3588
 2835SOL     OW11105   5.022   3.870   1.266  0.0655  0.0693 -0.0094
 2835SOL    HW211106   5.109   3.831   1.258  0.1750 -0.5433  3.0325
 2835SOL    HW311107   5.024   3.915   1.350 -1.1040  4.1156 -1.9120
 2835SOL    MW411108   5.034   3.871   1.276 -0.0743  0.5223  0.1409
 2836SOL     OW11109   6.037   4.069   4.970 -0.1427  0.2772  0.0866
 2836SOL    HW211110   6.036   4.029   4.883  2.9029 -0.5806  0.3217
 2836SOL    HW311111   6.123   4.112   4.975 -0.9093  1.7135  2.0814
 2836SOL    MW411112   6.049   4.070   4.959  0.1580  0.3535  0.3808
 2837SOL     OW11113   0.408   2.297   1.391 -0.2083  0.3999  0.4182
 2837SOL    HW211114   0.488   2.333   1.353  0.2468  0.2005  1.1691
 2837SOL    HW311115   0.348   2.287   1.316  0.0402  1.6611  0.0260
 2837SOL    MW411116   0.411   2.301   1.376 -0.1155  0.5400  0.4656
 2838SOL     OW11117   3.259   0.206   4.144  0.0644  0.1592  0.1224
 2838SOL    HW211118   3.210   0.282   4.113  0.0077 -0.2621 -0.8751
 2838SOL    HW311119   3.207   0.131   4.114 -0.2204 -0.2811  1.6402
 2838SOL    MW411120   3.246   0.206   4.136  0.0194  0.0455  0.1911
 2839SOL     OW11121   0.933   0.389   6.366  0.0009 -0.4689 -0.6089
 2839SOL    HW211122   0.982   0.346   6.296  0.4027  0.9534 -1.2347
 2839SOL    HW311123   0.998   0.443   6.411  0.1874 -2.7263  2.1020
 2839SOL    MW411124   0.948   0.390   6.363  0.0785 -0.5791 -0.3338
 2840SOL     OW11125   2.176   1.132   2.050  0.8083 -0.0420 -0.0335
 2840SOL    HW211126   2.127   1.152   2.130  1.2363 -0.9890  0.4823
 2840SOL    HW311127   2.216   1.047   2.067 -2.5904 -2.4670 -2.8244
 2840SOL    MW411128   2.175   1.123   2.062  0.4164 -0.4869 -0.3337
 2841SOL     OW11129   0.291   0.199   3.078 -0.0234  0.2762 -0.4531
 2841SOL    HW211130   0.357   0.135   3.105  1.6722  1.2524 -2.0746
 2841SOL    HW311131   0.335   0.283   3.085 -1.4635  1.0739 -0.5816
 2841SOL    MW411132   0.305   0.201   3.083  0.0103  0.5102 -0.6840
 2842SOL     OW11133   2.621   5.093   0.384 -0.5325  0.3182  0.1109
 2842SOL    HW211134   2.541   5.042   0.399 -0.9060  1.3318  1.8906
 2842SOL    HW311135   2.605   5.177   0.427  2.0859 -0.0322  2.0514
 2842SOL    MW411136   2.608   5.097   0.392 -0.2363  0.4057  0.6017
 2843SOL     OW11137   4.570   2.588   5.267 -0.0871 -0.3902  0.2568
 2843SOL    HW211138   4.544   2.522   5.204 -1.0693 -0.7825  1.0452
 2843SOL    HW311139   4.502   2.656   5.261  0.9288  0.5895 -0.5764
 2843SOL    MW411140   4.558   2.588   5.258 -0.0826 -0.3127  0.2509
 2844SOL     OW11141   0.316   5.235   1.709  0.1491  0.5408  0.7469
 2844SOL    HW211142   0.311   5.204   1.619 -0.3490  0.0504  0.9436
 2844SOL    HW311143   0.396   5.289   1.711  0.0621  0.7094 -0.0276
 2844SOL    MW411144   0.326   5.238   1.697  0.0719  0.4983  0.6707
 2845SOL     OW11145   5.252   4.151   5.564 -0.2022  0.2433  0.6916
 2845SOL    HW211146   5.196   4.074   5.563 -0.7860  0.6460 -0.8421
 2845SOL    HW311147   5.337   4.120   5.534 -0.7460  0.3690 -1.0896
 2845SOL    MW411148   5.255   4.137   5.560 -0.3510  0.3130  0.2543
 2846SOL     OW11149   4.156   5.874   0.159  0.5133  0.5532  0.1075
 2846SOL    HW211150   4.115   5.937   0.218 -2.5907  0.7515 -2.0246
 2846SOL    HW311151   4.246   5.904   0.151 -0.1449  3.1137  1.2690
 2846SOL    MW411152   4.162   5.886   0.166  0.0169  0.9172 -0.0206
 2847SOL     OW11153   1.317   5.551   5.093  0.2123  0.0451 -0.2164
 2847SOL    HW211154   1.274   5.582   5.174 -0.4669 -2.6125  0.5263
 2847SOL    HW311155   1.409   5.574   5.105 -0.0238  0.5130  0.8913
 2847SOL    MW411156   1.323   5.558   5.105  0.0915 -0.2438  0.0277
 2848SOL     OW11157   5.240   2.871   0.610  0.0778  0.0447 -0.2514
 2848SOL    HW211158   5.194   2.949   0.578 -1.2605 -0.6803 -0.1440
 2848SOL    HW311159   5.247   2.814   0.533 -1.9423 -1.1208  0.3497
 2848SOL    MW411160   5.235   2.874   0.595 -0.3653 -0.2048 -0.1579
 2849SOL     OW11161   2.765   1.665   3.205  0.1654  0.0273 -0.2790
 2849SOL    HW211162   2.820   1.722   3.260 -0.3558  0.9914 -0.7312
 2849SOL    HW311163   2.709   1.619   3.268 -0.5110  1.2113  0.0304
 2849SOL    MW411164   2.765   1.666   3.221  0.0074  0.3107 -0.2978
 2850SOL     OW11165   5.307   0.871   0.307  0.0090  0.0539  0.3194
 2850SOL    HW211166   5.337   0.869   0.217 -1.6665 -1.2672 -0.2689
 2850SOL    HW311167   5.324   0.960   0.337  0.8595  0.4277 -1.1930
 2850SOL    MW411168   5.313   0.882   0.299 -0.0999 -0.0711  0.0423
 2851SOL     OW11169   6.074   2.928   3.102 -0.0399 -0.0945  0.2517
 2851SOL    HW211170   6.116   3.012   3.083 -0.3761  0.3002  1.1859
 2851SOL    HW311171   6.146   2.869   3.122  0.1437  0.2211  0.5217
 2851SOL    MW411172   6.089   2.931   3.102 -0.0600 -0.0007  0.4105
 2852SOL     OW11173   6.315   2.171   2.952 -0.1061  0.4637 -0.3510
 2852SOL    HW211174   6.364   2.125   2.884  2.0047 -1.3500  2.1705
 2852SOL    HW311175   6.224   2.146   2.937  0.6533 -2.4609 -0.7281
 2852SOL    MW411176   6.310   2.162   2.941  0.2726 -0.1615 -0.0681
 2853SOL     OW11177   5.877   3.779   1.941 -0.1560  0.1098  0.4961
 2853SOL    HW211178   5.947   3.715   1.928 -0.7424 -0.8553  1.7978
 2853SOL    HW311179   5.921   3.857   1.975  0.2168 -0.7806  2.1215
 2853SOL    MW411180   5.892   3.781   1.944 -0.1842 -0.1350  0.8823
 2854SOL     OW11181   2.827   1.004   3.772 -0.0334 -0.1805  0.3217
 2854SOL    HW211182   2.800   0.925   3.726  1.5453 -0.3350 -0.4072
 2854SOL    HW311183   2.870   0.973   3.851 -1.1470  0.0372  1.0415
 2854SOL    MW411184   2.829   0.990   3.776  0.0280 -0.1722  0.3205
 2855SOL     OW11185   4.166   0.068   5.536 -0.1647  0.2066 -0.3920
 2855SOL    HW211186   4.095   0.044   5.596  1.3864 -1.8384  0.7425
 2855SOL    HW311187   4.186   0.159   5.558 -1.4811  0.3713  0.2351
 2855SOL    MW411188   4.159   0.076   5.547 -0.1338 -0.0415 -0.1596
 2856SOL     OW11189   5.495   0.936   1.610 -0.4223  0.8544  0.0294
 2856SOL    HW211190   5.490   1.032   1.610  0.2247  0.9061 -1.1693
 2856SOL    HW311191   5.471   0.911   1.521  3.5421  0.1949 -1.0288
 2856SOL    MW411192   5.491   0.945   1.598  0.1861  0.7742 -0.2684
 2857SOL     OW11193   0.651   2.200   0.510  0.3820  0.1582  0.5058
 2857SOL    HW211194   0.666   2.130   0.446 -1.4624 -0.5596  0.7966
 2857SOL    HW311195   0.721   2.189   0.575  1.6223  0.2150 -0.7791
 2857SOL    MW411196   0.662   2.189   0.510  0.3023  0.0710  0.3746
 2858SOL     OW11197   3.229   2.448   0.453 -0.2671  0.2549 -0.8710
 2858SOL    HW211198   3.245   2.426   0.361 -1.1230 -1.3127 -0.6678
 2858SOL    HW311199   3.269   2.377   0.503 -0.5327  0.6636 -0.0484
 2858SOL    MW411200   3.236   2.436   0.447 -0.4151  0.1020 -0.7356
 2859SOL     OW11201   0.792   3.822   5.142  0.2225 -0.3928 -0.2898
 2859SOL    HW211202   0.768   3.731   5.126  1.0106 -0.6386 -0.1326
 2859SOL    HW311203   0.808   3.858   5.055 -0.4959 -0.2821 -0.3803
 2859SOL    MW411204   0.791   3.815   5.128  0.2317 -0.4106 -0.2810
 2860SOL     OW11205   6.399   4.624   5.914 -0.2116  0.0343  0.2368
 2860SOL    HW211206   6.427   4.533   5.918  1.7371  0.5598 -0.5818
 2860SOL    HW311207   6.330   4.630   5.981  1.3763 -1.4352  2.1580
 2860SOL    MW411208   6.393   4.613   5.924  0.2550 -0.0902  0.3823
 2861SOL     OW11209   4.683   4.506   3.298 -0.0951  0.1984 -0.1946
 2861SOL    HW211210   4.625   4.451   3.245  0.8593 -0.6797 -0.3654
 2861SOL    HW311211   4.725   4.564   3.235  0.6360 -0.4796 -0.3486
 2861SOL    MW411212   4.681   4.506   3.283  0.1273 -0.0069 -0.2375
 2862SOL     OW11213   5.254   2.064   2.939 -0.0117  0.3006 -0.1824
 2862SOL    HW211214   5.219   2.066   3.028 -0.1139  1.6174 -0.2329
 2862SOL    HW311215   5.200   1.999   2.893  0.4057 -0.7977  0.8442
 2862SOL    MW411216   5.243   2.056   2.944  0.0299  0.3294 -0.0536
 2863SOL     OW11217   5.933   5.761   3.337 -0.0609 -0.1666  0.1914
 2863SOL    HW211218   5.991   5.827   3.375 -1.2567  0.1112  1.6143
 2863SOL    HW311219   5.865   5.747   3.403 -0.2360 -2.3226 -0.3737
 2863SOL    MW411220   5.932   5.768   3.351 -0.2417 -0.4144  0.3046
 2864SOL     OW11221   4.751   0.249   4.250 -0.0037  0.0001 -0.0895
 2864SOL    HW211222   4.707   0.167   4.272  1.2878 -0.4240  1.0246
 2864SOL    HW311223   4.728   0.309   4.321  0.3083  0.1140 -0.0824
 2864SOL    MW411224   4.742   0.246   4.262  0.2079 -0.0408  0.0584
 2865SOL     OW11225   4.491   0.210   1.329 -0.1269  0.5122  0.0526
 2865SOL    HW211226   4.486   0.142   1.262 -3.3017 -0.9476  1.5197
 2865SOL    HW311227   4.422   0.272   1.305  0.7741  1.6255  0.3097
 2865SOL    MW411228   4.481   0.209   1.317 -0.4269  0.4665  0.2801
 2866SOL     OW11229   3.566   1.418   3.899  0.3403 -0.9635  0.1053
 2866SOL    HW211230   3.516   1.464   3.831  0.6552  1.3463  1.3452
 2866SOL    HW311231   3.656   1.448   3.885  0.3931 -0.3814  1.5627
 2866SOL    MW411232   3.572   1.428   3.888  0.3888 -0.5819  0.4612
 2867SOL     OW11233   5.034   3.014   6.352  0.3423 -0.0407  0.6325
 2867SOL    HW211234   5.102   2.948   6.365  0.8257  0.3131 -0.0610
 2867SOL    HW311235   5.018   3.015   6.258  0.5810  1.0668  0.5914
 2867SOL    MW411236   5.041   3.005   6.342  0.4376  0.1521  0.5356
 2868SOL     OW11237   5.090   5.270   4.894 -0.1297  0.0535  0.3638
 2868SOL    HW211238   5.173   5.310   4.868  0.9572 -1.7243  0.8704
 2868SOL    HW311239   5.072   5.207   4.823 -0.7640  0.0599  0.5184
 2868SOL    MW411240   5.099   5.267   4.881 -0.0700 -0.1802  0.4510
 2869SOL     OW11241   0.108   3.846   0.804  0.0281 -0.0961  0.5377
 2869SOL    HW211242   0.068   3.851   0.891 -2.3948 -1.5924 -0.3695
 2869SOL    HW311243   0.081   3.927   0.760 -1.0155 -0.5176  0.3642
 2869SOL    MW411244   0.099   3.857   0.809 -0.4293 -0.3491  0.3951
 2870SOL     OW11245   6.330   5.306   4.191  0.0295 -0.5054  0.5551
 2870SOL    HW211246   6.356   5.390   4.228 -1.7410  0.2024  0.3222
 2870SOL    HW311247   6.234   5.311   4.186 -0.0299 -2.0514 -0.6128
 2870SOL    MW411248   6.321   5.318   4.195 -0.2119 -0.6160  0.3703
 2871SOL     OW11249   2.057   1.458   2.993 -0.0035  0.4271  0.3817
 2871SOL    HW211250   2.062   1.525   2.924  0.1172  0.4054  0.3701
 2871SOL    HW311251   1.977   1.409   2.973  0.4447 -0.0845 -0.1988
 2871SOL    MW411252   2.047   1.461   2.982  0.0716  0.3567  0.3036
 2872SOL     OW11253   2.708   5.317   3.393 -0.3445 -0.0425  0.0308
 2872SOL    HW211254   2.800   5.333   3.410 -0.2744  1.1464 -1.2542
 2872SOL    HW311255   2.706   5.233   3.346 -0.0240 -0.5023  0.8254
 2872SOL    MW411256   2.720   5.308   3.389 -0.2930  0.0537 -0.0339
 2873SOL     OW11257   3.443   4.280   1.450  0.3296  0.2898 -0.4120
 2873SOL    HW211258   3.355   4.249   1.428  0.2614 -0.4407  0.7585
 2873SOL    HW311259   3.451   4.364   1.406 -0.3745 -0.3303 -1.7949
 2873SOL    MW411260   3.432   4.287   1.441  0.2277  0.1116 -0.4400
 2874SOL     OW11261   3.261   2.257   3.887  0.3485  0.0888 -0.3822
 2874SOL    HW211262   3.216   2.341   3.884  2.1250  1.0541 -2.7248
 2874SOL    HW311263   3.195   2.195   3.919 -1.0171  2.3189  1.3883
 2874SOL    MW411264   3.246   2.260   3.891  0.4027  0.5104 -0.4577
 2875SOL     OW11265   4.588   4.991   4.892 -0.4542  0.6004  0.1963
 2875SOL    HW211266   4.616   4.968   4.804 -2.8222 -1.3451 -0.1436
 2875SOL    HW311267   4.574   5.086   4.889 -0.1965  0.6148 -1.4225
 2875SOL    MW411268   4.590   5.001   4.880 -0.7326  0.3456 -0.0621
 2876SOL     OW11269   0.165   3.073   2.623  0.1694  0.5075  0.1136
 2876SOL    HW211270   0.215   3.125   2.560  1.9416 -0.4816  0.6403
 2876SOL    HW311271   0.085   3.124   2.639  0.9256  2.0611 -0.8890
 2876SOL    MW411272   0.161   3.087   2.617  0.5030  0.5820  0.0508
 2877SOL     OW11273   5.949   2.974   1.055  0.0331  0.2348 -0.1668
 2877SOL    HW211274   6.036   2.993   1.088 -0.1390 -0.0994  0.5056
 2877SOL    HW311275   5.962   2.901   0.994  0.3749  0.9629 -0.9844
 2877SOL    MW411276   5.962   2.967   1.052  0.0555  0.2868 -0.1859
 2878SOL     OW11277   5.513   2.554   0.893  0.3159  0.0393 -0.1107
 2878SOL    HW211278   5.574   2.529   0.962  1.1400 -1.3138 -1.2760
 2878SOL    HW311279   5.435   2.583   0.940  1.1835  0.0512  1.3864
 2878SOL    MW411280   5.511   2.554   0.908  0.5391 -0.1377 -0.0669
 2879SOL     OW11281   4.380   3.081   0.998 -0.4573  0.7509 -0.2456
 2879SOL    HW211282   4.402   3.017   0.931  1.6416  0.3407  0.7531
 2879SOL    HW311283   4.369   3.030   1.078 -2.1631  1.3075 -0.0945
 2879SOL    MW411284   4.382   3.066   1.000 -0.4054  0.7702 -0.0939
 2880SOL     OW11285   4.536   5.190   2.630  0.6799 -0.7169 -0.1793
 2880SOL    HW211286   4.463   5.251   2.622  1.5929  0.5682  0.9535
 2880SOL    HW311287   4.610   5.235   2.589  0.8526 -2.0802 -1.5027
 2880SOL    MW411288   4.536   5.204   2.623  0.8232 -0.7272 -0.2044
 2881SOL     OW11289   6.285   0.912   0.244  0.4801  0.0941  0.7731
 2881SOL    HW211290   6.190   0.911   0.253  0.5362  1.3019  1.7101
 2881SOL    HW311291   6.311   0.999   0.276  1.7770  0.2757 -0.6640
 2881SOL    MW411292   6.276   0.924   0.249  0.6586  0.2774  0.7071
 2882SOL     OW11293   4.981   3.430   4.677 -0.0248 -0.2885  0.1943
 2882SOL    HW211294   5.071   3.425   4.710  0.1861 -0.8218 -0.4385
 2882SOL    HW311295   4.983   3.500   4.612 -0.3226  0.4209  0.9358
 2882SOL    MW411296   4.993   3.438   4.673 -0.0363 -0.2653  0.2086
 2883SOL     OW11297   4.527   1.372   3.101 -0.4894 -0.0869 -0.0373
 2883SOL    HW211298   4.596   1.324   3.055 -0.8268  0.5104 -1.2020
 2883SOL    HW311299   4.574   1.440   3.150 -0.1191 -0.7641  0.5538
 2883SOL    MW411300   4.542   1.375   3.101 -0.4851 -0.0975 -0.1130
 2884SOL     OW11301   6.240   1.977   5.538 -0.2192  0.0238  0.0516
 2884SOL    HW211302   6.181   1.941   5.471 -1.2690  1.0345  0.3869
 2884SOL    HW311303   6.194   2.055   5.570  0.8912  0.3135  0.9951
 2884SOL    MW411304   6.226   1.983   5.534 -0.2112  0.1954  0.2203
 2885SOL     OW11305   0.371   4.596   5.770 -0.0812  0.8575  0.0029
 2885SOL    HW211306   0.309   4.536   5.810  0.2304  0.3281 -0.2956
 2885SOL    HW311307   0.338   4.683   5.792 -0.4243  0.5811  0.6105
 2885SOL    MW411308   0.359   4.600   5.778 -0.0854  0.7512  0.0437
 2886SOL     OW11309   5.859   6.310   1.213 -0.5914  1.4806  0.0272
 2886SOL    HW211310   5.808   6.312   1.294 -0.2440 -0.4765  0.3447
 2886SOL    HW311311   5.909   6.391   1.214  0.7208  0.7313  2.6926
 2886SOL    MW411312   5.859   6.321   1.224 -0.3724  1.1235  0.4208
 2887SOL     OW11313   1.764   3.496   4.007 -0.5784  0.4624 -0.4486
 2887SOL    HW211314   1.710   3.535   4.076 -0.3477 -0.1220  0.0687
 2887SOL    HW311315   1.784   3.569   3.948 -0.0439  1.1487  0.5651
 2887SOL    MW411316   1.759   3.510   4.008 -0.4775  0.4758 -0.2466
 2888SOL     OW11317   3.152   1.526   0.820  0.1662 -0.4900 -0.0023
 2888SOL    HW211318   3.220   1.470   0.782  2.2891  1.0399  1.3099
 2888SOL    HW311319   3.074   1.471   0.822  0.5781 -1.4974 -3.9791
 2888SOL    MW411320   3.151   1.511   0.815  0.5006 -0.4210 -0.3538
 2889SOL     OW11321   5.623   4.180   4.458 -0.1839  0.2551  0.5590
 2889SOL    HW211322   5.616   4.089   4.486  0.7624 -0.1167 -0.3538
 2889SOL    HW311323   5.666   4.176   4.373  1.5345  1.6551  1.3007
 2889SOL    MW411324   5.628   4.167   4.451  0.1677  0.3907  0.5364
 2890SOL     OW11325   2.924   3.073   2.704 -0.2425  0.1113  0.0169
 2890SOL    HW211326   2.897   3.030   2.623  1.0932 -1.6719  0.4832
 2890SOL    HW311327   2.852   3.134   2.722 -1.3612 -0.6271 -1.6051
 2890SOL    MW411328   2.911   3.076   2.695 -0.2139 -0.2214 -0.1356
 2891SOL     OW11329   1.634   6.447   2.056 -0.0923 -0.4681  0.0227
 2891SOL    HW211330   1.680   6.451   1.972  0.0932  2.1343  0.1543
 2891SOL    HW311331   1.704   6.455   2.121 -0.4953  1.4989  0.2717
 2891SOL    MW411332   1.650   6.449   2.054 -0.1210  0.1347  0.0729
 2892SOL     OW11333   2.154   1.399   2.563  0.6966 -0.6607  0.4807
 2892SOL    HW211334   2.131   1.472   2.506  2.2713 -0.4250  0.1073
 2892SOL    HW311335   2.083   1.396   2.627 -0.3655 -0.0232 -0.6327
 2892SOL    MW411336   2.142   1.408   2.564  0.7642 -0.5455  0.2845
 2893SOL     OW11337   2.521   2.260   1.200 -0.6696  0.0912  0.0159
 2893SOL    HW211338   2.585   2.311   1.151 -1.4645 -1.0304 -2.3303
 2893SOL    HW311339   2.555   2.259   1.289  1.7557  0.8176 -0.8146
 2893SOL    MW411340   2.534   2.267   1.205 -0.4545  0.0390 -0.4032
 2894SOL     OW11341   4.140   5.014   3.069 -0.8444  0.6303  0.1960
 2894SOL    HW211342   4.117   5.103   3.095 -2.7207  0.7963 -1.7327
 2894SOL    HW311343   4.217   5.025   3.012 -1.1571  1.0645 -0.1527
 2894SOL    MW411344   4.147   5.027   3.065 -1.1332  0.7095 -0.1045
 2895SOL     OW11345   5.068   5.590   0.975 -0.3227  0.3736  0.5776
 2895SOL    HW211346   5.108   5.633   0.900 -0.4626 -1.2285 -0.4585
 2895SOL    HW311347   4.978   5.572   0.947 -0.1558 -0.9292  0.8120
 2895SOL    MW411348   5.061   5.594   0.962 -0.3191 -0.0097  0.4718
 2896SOL     OW11349   4.949   2.400   6.204 -0.3436 -0.4486  0.9743
 2896SOL    HW211350   4.990   2.315   6.217  1.1780 -0.3715 -2.3200
 2896SOL    HW311351   4.912   2.395   6.115 -0.1324  2.3308  0.6536
 2896SOL    MW411352   4.950   2.388   6.194 -0.1150 -0.0717  0.4974
 2897SOL     OW11353   5.785   5.686   4.828  0.5045  0.0484 -0.1315
 2897SOL    HW211354   5.731   5.607   4.826 -1.5945  1.1982  3.2864
 2897SOL    HW311355   5.858   5.663   4.886  1.1388 -0.0064 -0.9270
 2897SOL    MW411356   5.787   5.672   4.836  0.3112  0.1929  0.2145
 2898SOL     OW11357   4.074   1.363   4.970 -0.8813  0.1449  0.7627
 2898SOL    HW211358   4.007   1.401   4.914  0.3914  1.3218 -0.0198
 2898SOL    HW311359   4.120   1.438   5.007  1.6543 -0.5221 -0.7564
 2898SOL    MW411360   4.071   1.378   4.967 -0.3788  0.2122  0.4591
 2899SOL     OW11361   2.257   2.662   1.730 -0.0883 -0.1446  0.0645
 2899SOL    HW211362   2.172   2.684   1.770 -0.0205  0.9136 -0.3368
 2899SOL    HW311363   2.238   2.655   1.636 -0.0178 -1.4627  0.1302
 2899SOL    MW411364   2.243   2.664   1.723 -0.0700 -0.1789  0.0203
 2900SOL     OW11365   6.022   5.387   5.038 -0.0911  0.2572  0.1418
 2900SOL    HW211366   6.097   5.356   5.089 -0.3759 -0.3212  0.2280
 2900SOL    HW311367   6.031   5.343   4.953  1.2423  2.4186 -0.9183
 2900SOL    MW411368   6.033   5.377   5.034  0.0473  0.4661  0.0133
 2901SOL     OW11369   0.242   6.274   0.510  0.1744 -0.1326  0.1305
 2901SOL    HW211370   0.263   6.352   0.459 -0.6949  0.2468  0.3186
 2901SOL    HW311371   0.265   6.298   0.600 -0.7274  0.1875  0.2962
 2901SOL    MW411372   0.247   6.288   0.515 -0.0593 -0.0403  0.1771
 2902SOL     OW11373   6.040   5.719   5.349 -0.2251  0.2978 -0.4420
 2902SOL    HW211374   6.103   5.746   5.282  0.4190 -1.7570 -0.7261
 2902SOL    HW311375   5.954   5.737   5.311  0.1279 -0.9738 -1.9134
 2902SOL    MW411376   6.037   5.725   5.335 -0.0935 -0.1411 -0.6736
 2903SOL     OW11377   1.038   1.933   5.574 -0.5934 -0.1481 -0.1674
 2903SOL    HW211378   0.946   1.935   5.547 -0.7197 -1.9683  0.0430
 2903SOL    HW311379   1.074   1.855   5.532  0.8641  0.5150 -0.2195
 2903SOL    MW411380   1.031   1.923   5.565 -0.4178 -0.3008 -0.1465
 2904SOL     OW11381   4.772   5.886   4.463  0.1026 -0.0016  0.1284
 2904SOL    HW211382   4.678   5.870   4.458  0.0981  0.4396 -1.5848
 2904SOL    HW311383   4.810   5.799   4.473 -0.4612 -0.2131  0.4968
 2904SOL    MW411384   4.764   5.872   4.464  0.0276  0.0287 -0.0490
 2905SOL     OW11385   5.060   2.642   3.863  0.2283 -0.0452  0.1957
 2905SOL    HW211386   4.971   2.663   3.835  0.1683 -2.6786 -2.0999
 2905SOL    HW311387   5.100   2.727   3.883 -1.5151  1.6881 -2.8753
 2905SOL    MW411388   5.054   2.656   3.862 -0.0097 -0.1639 -0.5124
 2906SOL     OW11389   4.107   0.689   3.151  0.2102 -0.2989  0.0361
 2906SOL    HW211390   4.150   0.739   3.082 -0.9844  0.3643 -0.2658
 2906SOL    HW311391   4.105   0.749   3.226  1.6489 -1.0715  0.7221
 2906SOL    MW411392   4.112   0.704   3.152  0.2424 -0.3133  0.0868
 2907SOL     OW11393   2.490   5.933   5.860 -0.2731 -0.3840  0.6057
 2907SOL    HW211394   2.561   5.933   5.795 -0.0959  0.3996  0.7819
 2907SOL    HW311395   2.465   5.841   5.869 -0.1770 -0.5268 -0.4391
 2907SOL    MW411396   2.496   5.921   5.852 -0.2371 -0.2994  0.4911
 2908SOL     OW11397   3.823   2.234   3.258 -0.0377  0.3138 -0.5028
 2908SOL    HW211398   3.861   2.159   3.211  0.6860  1.7270 -2.2817
 2908SOL    HW311399   3.728   2.221   3.252  0.0739 -0.2721 -1.1422
 2908SOL    MW411400   3.816   2.222   3.251  0.0725  0.4230 -0.8219
 2909SOL     OW11401   4.680   0.924   4.779 -0.4064  0.0081  0.5256
 2909SOL    HW211402   4.612   0.984   4.749  0.0328  0.8766  1.2170
 2909SOL    HW311403   4.637   0.838   4.782 -1.0523  0.2814 -0.4401
 2909SOL    MW411404   4.666   0.921   4.775 -0.4337  0.1588  0.4894
 2910SOL     OW11405   5.790   4.268   4.639 -0.6431 -0.0404 -0.0663
 2910SOL    HW211406   5.865   4.316   4.601 -0.8641  1.0484  0.8328
 2910SOL    HW311407   5.744   4.233   4.563 -0.0152  0.4875 -0.7083
 2910SOL    MW411408   5.794   4.270   4.624 -0.5894  0.1729 -0.0324
 2911SOL     OW11409   1.590   2.259   3.039  0.0967  0.3407 -0.4990
 2911SOL    HW211410   1.668   2.204   3.048 -2.2785 -3.0910  1.3539
 2911SOL    HW311411   1.557   2.240   2.952  0.2184  0.1817 -0.5114
 2911SOL    MW411412   1.596   2.250   3.029 -0.2006 -0.1330 -0.2562
 2912SOL     OW11413   5.295   4.408   5.427  0.4826 -0.2062 -0.1920
 2912SOL    HW211414   5.261   4.348   5.494  0.8162  0.4262  0.5459
 2912SOL    HW311415   5.388   4.386   5.420  0.9026  1.0661  1.0092
 2912SOL    MW411416   5.302   4.397   5.435  0.5820  0.0451  0.0639
 2913SOL     OW11417   4.521   4.833   0.896  0.0628  0.5283  0.1222
 2913SOL    HW211418   4.505   4.927   0.896  0.2089  0.6020 -2.1574
 2913SOL    HW311419   4.607   4.824   0.853 -0.1771 -0.6679 -0.1288
 2913SOL    MW411420   4.530   4.844   0.891  0.0504  0.3802 -0.2117
 2914SOL     OW11421   1.248   1.485   0.046 -0.8028 -0.2207  0.3368
 2914SOL    HW211422   1.196   1.538  -0.015 -0.6996  0.0039  0.4440
 2914SOL    HW311423   1.281   1.412  -0.007 -0.0148  0.4269 -0.0755
 2914SOL    MW411424   1.245   1.482   0.031 -0.6852 -0.1056  0.2966
 2915SOL     OW11425   2.271   0.108   0.587  0.2670 -0.3416  0.0239
 2915SOL    HW211426   2.292   0.202   0.594  2.7763 -0.7849 -0.6767
 2915SOL    HW311427   2.200   0.104   0.523 -1.2788  1.1978  1.5268
 2915SOL    MW411428   2.265   0.120   0.580  0.3941 -0.1970  0.1298
 2916SOL     OW11429   1.856   2.379   0.811 -0.3420  0.6123 -0.4094
 2916SOL    HW211430   1.767   2.348   0.796  0.0654 -2.1038  1.9938
 2916SOL    HW311431   1.853   2.419   0.898  1.0961 -1.4492  0.6892
 2916SOL    MW411432   1.844   2.380   0.820 -0.0985 -0.0180  0.0526
 2917SOL     OW11433   0.699   3.498   4.267 -0.3917 -0.5319  0.2554
 2917SOL    HW211434   0.629   3.454   4.314  0.3347 -0.3778  1.5016
 2917SOL    HW311435   0.662   3.514   4.180 -3.6139  3.3566  1.9912
 2917SOL    MW411436   0.685   3.495   4.261 -0.7210  0.0015  0.6489
 2918SOL     OW11437   1.873   5.716   3.676 -0.3005  0.2710  0.1840
 2918SOL    HW211438   1.810   5.762   3.731 -0.5940 -0.5396  0.5384
 2918SOL    HW311439   1.850   5.742   3.587 -1.2438 -0.1371  0.2954
 2918SOL    MW411440   1.862   5.726   3.672 -0.4637  0.1102  0.2455
 2919SOL     OW11441   0.954   0.135   0.929  1.5207  0.4746 -0.3613
 2919SOL    HW211442   0.927   0.178   1.010  1.2835 -1.2981  0.5394
 2919SOL    HW311443   0.876   0.134   0.874  1.3046  0.4272 -0.0490
 2919SOL    MW411444   0.940   0.141   0.932  1.4609  0.2345 -0.2013
 2920SOL     OW11445   4.705   4.056   1.763 -0.0605  0.3840  0.0953
 2920SOL    HW211446   4.697   4.113   1.686 -1.0511  0.6579  0.3861
 2920SOL    HW311447   4.630   3.997   1.757 -1.5079  1.8998  2.0324
 2920SOL    MW411448   4.694   4.056   1.752 -0.3822  0.6201  0.3892
 2921SOL     OW11449   2.726   4.124   5.800 -0.0777 -0.2149 -0.4761
 2921SOL    HW211450   2.791   4.084   5.741 -0.4818 -2.4832  0.4912
 2921SOL    HW311451   2.647   4.070   5.788 -0.7445  0.4383  0.7833
 2921SOL    MW411452   2.724   4.111   5.790 -0.2190 -0.4280 -0.1823
 2922SOL     OW11453   0.076   3.577   6.139 -0.3182 -0.6715  0.2145
 2922SOL    HW211454   0.000   3.602   6.085 -0.0371 -0.1546  0.0531
 2922SOL    HW311455   0.088   3.484   6.121 -0.4358 -0.5817 -0.3639
 2922SOL    MW411456   0.067   3.568   6.130 -0.2966 -0.5915  0.1169
 2923SOL     OW11457   4.262   3.905   5.599 -0.2349  0.4185 -0.2396
 2923SOL    HW211458   4.292   3.837   5.659 -1.3528  1.6779  1.8672
 2923SOL    HW311459   4.301   3.986   5.632  0.1943  0.9985 -2.0483
 2923SOL    MW411460   4.271   3.906   5.611 -0.3257  0.6612 -0.2003
 2924SOL     OW11461   4.347   2.478   2.852 -0.2401 -0.0603 -0.1651
 2924SOL    HW211462   4.271   2.509   2.902 -0.0897  0.8171 -0.4522
 2924SOL    HW311463   4.423   2.516   2.897 -0.0528  0.0480 -0.5623
 2924SOL    MW411464   4.347   2.487   2.865 -0.1956  0.0698 -0.2554
 2925SOL     OW11465   1.603   2.738   6.410  0.5984  0.0473  0.5572
 2925SOL    HW211466   1.654   2.692   6.476 -0.1685  0.3198  1.3575
 2925SOL    HW311467   1.650   2.820   6.395  1.4571 -0.5723 -0.1764
 2925SOL    MW411468   1.616   2.743   6.417  0.6105  0.0015  0.5660
 2926SOL     OW11469   6.174   5.566   4.730 -0.6742  0.0066  0.0563
 2926SOL    HW211470   6.089   5.560   4.686 -1.2053 -5.5013  1.0578
 2926SOL    HW311471   6.173   5.494   4.794  3.7428  1.4235  2.1548
 2926SOL    MW411472   6.163   5.556   4.733 -0.1615 -0.5332  0.4653
 2927SOL     OW11473   5.079   4.071   2.204  0.4755  0.2194 -0.7290
 2927SOL    HW211474   5.120   4.026   2.130 -1.2006  0.2303 -1.7203
 2927SOL    HW311475   4.989   4.088   2.174  0.3004  1.8611  0.6251
 2927SOL    MW411476   5.072   4.067   2.190  0.2313  0.4374 -0.6812
 2928SOL     OW11477   3.790   6.106   4.486 -0.5393 -0.0470 -0.0332
 2928SOL    HW211478   3.828   6.194   4.479 -1.3637  0.3301  0.0933
 2928SOL    HW311479   3.835   6.055   4.420 -0.5528  0.6656 -0.6016
 2928SOL    MW411480   3.801   6.111   4.477 -0.6499  0.0968 -0.0915
 2929SOL     OW11481   3.391   3.908   3.131  1.0337  0.0442  0.1581
 2929SOL    HW211482   3.434   3.994   3.132  3.0595 -0.8931  0.0576
 2929SOL    HW311483   3.299   3.927   3.112  1.1051  2.2879  1.6652
 2929SOL    MW411484   3.385   3.922   3.129  1.3104  0.2165  0.3437
 2930SOL     OW11485   4.781   4.404   2.622 -0.2763  0.1927  0.1056
 2930SOL    HW211486   4.837   4.473   2.585 -1.1676  1.7003  1.4383
 2930SOL    HW311487   4.701   4.408   2.570  0.2870 -1.0524 -0.9225
 2930SOL    MW411488   4.778   4.414   2.610 -0.3196  0.2274  0.1458
 2931SOL     OW11489   3.185   0.398   1.839  0.0700 -0.7801 -0.7109
 2931SOL    HW211490   3.211   0.465   1.775  1.8363  1.4331  2.0397
 2931SOL    HW311491   3.095   0.420   1.862  0.8136  1.2453  0.6089
 2931SOL    MW411492   3.177   0.410   1.834  0.4011 -0.2209 -0.1738
 2932SOL     OW11493   2.071   3.551   4.964  0.3932  0.1119 -0.6467
 2932SOL    HW211494   2.110   3.473   5.003  0.6429  1.2701  1.5327
 2932SOL    HW311495   2.137   3.584   4.904  1.9005  0.7476  1.2744
 2932SOL    MW411496   2.085   3.545   4.961  0.6250  0.3486 -0.1057
 2933SOL     OW11497   5.280   1.726   3.590  0.0956  0.1065 -0.0093
 2933SOL    HW211498   5.319   1.703   3.506  1.0574 -0.8379  0.6539
 2933SOL    HW311499   5.351   1.771   3.637 -0.9203  2.0710 -0.2588
 2933SOL    MW411500   5.295   1.729   3.585  0.0884  0.2411  0.0453
 2934SOL     OW11501   2.015   6.082   5.808 -0.0255 -0.0170 -0.0019
 2934SOL    HW211502   2.077   6.051   5.742 -1.2815 -0.5775 -0.9657
 2934SOL    HW311503   1.930   6.078   5.764 -0.6864  1.2348  1.1073
 2934SOL    MW411504   2.012   6.078   5.793 -0.2784  0.0742  0.0173
 2935SOL     OW11505   2.405   1.639   3.284 -0.3128  0.1031 -0.1905
 2935SOL    HW211506   2.320   1.660   3.246  1.2524  2.9211 -2.4549
 2935SOL    HW311507   2.425   1.552   3.250 -1.6773 -0.0430 -0.7015
 2935SOL    MW411508   2.396   1.630   3.275 -0.2864  0.4556 -0.5567
 2936SOL     OW11509   4.958   1.042   2.409 -0.0923 -0.7102 -0.5058
 2936SOL    HW211510   4.886   1.001   2.456 -0.8819  2.7832  1.7215
 2936SOL    HW311511   5.011   1.083   2.477  1.1030  1.0782 -2.3696
 2936SOL    MW411512   4.955   1.042   2.424 -0.0387 -0.0133 -0.4579
 2937SOL     OW11513   5.275   3.789   4.324 -0.3985  0.8072 -0.3030
 2937SOL    HW211514   5.304   3.763   4.411  0.7768 -2.3449 -1.5010
 2937SOL    HW311515   5.186   3.754   4.317  0.1072 -0.4001 -0.9006
 2937SOL    MW411516   5.267   3.781   4.335 -0.1767  0.2321 -0.5399
 2938SOL     OW11517   1.863   3.285   2.304  0.3031 -0.5223 -0.4551
 2938SOL    HW211518   1.924   3.308   2.374 -0.1614 -0.2230 -0.1468
 2938SOL    HW311519   1.868   3.358   2.242 -0.7672  0.1820  0.2567
 2938SOL    MW411520   1.872   3.297   2.305  0.1006 -0.3899 -0.3205
 2939SOL     OW11521   0.095   5.947   0.004 -0.2608 -0.2123 -0.4555
 2939SOL    HW211522   0.002   5.958   0.020 -0.0452 -0.0976  0.8505
 2939SOL    HW311523   0.131   6.036   0.007 -0.0133 -0.3163 -0.1712
 2939SOL    MW411524   0.088   5.960   0.007 -0.1997 -0.2109 -0.2457
 2940SOL     OW11525   0.027   0.958   2.372 -0.0264 -0.5220  0.1046
 2940SOL    HW211526   0.056   0.958   2.281 -1.8188 -0.0506 -0.5033
 2940SOL    HW311527  -0.067   0.977   2.368  0.4264  3.1566  2.2331
 2940SOL    MW411528   0.018   0.960   2.359 -0.2031  0.0255  0.3052
 2941SOL     OW11529   1.438   3.412   4.928  0.0498  0.0796  0.0179
 2941SOL    HW211530   1.360   3.457   4.897 -0.4784  0.1006  1.3370
 2941SOL    HW311531   1.501   3.483   4.944  1.2491 -0.0623 -3.2805
 2941SOL    MW411532   1.436   3.427   4.926  0.1383  0.0637 -0.2432
 2942SOL     OW11533   3.048   1.185   2.852  0.3287 -0.4821  0.7721
 2942SOL    HW211534   3.013   1.255   2.797  0.0408  0.5162  2.1574
 2942SOL    HW311535   3.125   1.224   2.894  0.8566 -1.3923  0.6735
 2942SOL    MW411536   3.053   1.200   2.850  0.3604 -0.4705  0.9418
 2943SOL     OW11537   5.669   5.309   3.967 -1.0225  0.5664 -0.1744
 2943SOL    HW211538   5.717   5.358   4.034 -0.1876 -0.1692 -0.2154
 2943SOL    HW311539   5.611   5.251   4.017  1.0939 -1.5189  0.0559
 2943SOL    MW411540   5.668   5.308   3.982 -0.6331  0.1942 -0.1494
 2944SOL     OW11541   1.386   2.371   2.807 -0.1381  0.1094 -0.1108
 2944SOL    HW211542   1.362   2.402   2.894  0.7225 -0.5745  0.3814
 2944SOL    HW311543   1.347   2.436   2.747 -0.6006  0.6688  0.7763
 2944SOL    MW411544   1.378   2.384   2.810 -0.0856  0.0929  0.0712
 2945SOL     OW11545   1.978   4.585   4.673  0.4571 -0.4689 -0.7522
 2945SOL    HW211546   1.973   4.666   4.622 -0.0557 -0.3551 -0.5278
 2945SOL    HW311547   1.888   4.551   4.673  0.6439 -0.9678 -0.7295
 2945SOL    MW411548   1.965   4.591   4.666  0.4141 -0.5197 -0.7196
 2946SOL     OW11549   4.556   1.360   4.685  0.2777  0.2845  0.3499
 2946SOL    HW211550   4.642   1.324   4.669 -0.9731 -2.5282 -0.6101
 2946SOL    HW311551   4.546   1.429   4.620  1.8720  0.8649  0.6758
 2946SOL    MW411552   4.566   1.364   4.675  0.3230 -0.0100  0.2662
 2947SOL     OW11553   5.838   5.002   1.884  0.0826 -0.9650 -0.2937
 2947SOL    HW211554   5.867   5.019   1.974  0.6116 -1.4657 -0.3583
 2947SOL    HW311555   5.902   5.047   1.829 -0.3375 -0.5168 -0.4223
 2947SOL    MW411556   5.850   5.010   1.888  0.0969 -0.9720 -0.3192
 2948SOL     OW11557   1.672   4.290   4.433  0.1154 -0.0267  0.0441
 2948SOL    HW211558   1.676   4.385   4.439 -1.8643  0.0738  0.2232
 2948SOL    HW311559   1.694   4.271   4.341 -1.1035  0.7305 -0.4179
 2948SOL    MW411560   1.676   4.300   4.422 -0.3066  0.0865  0.0068
 2949SOL     OW11561   5.833   1.525   6.311  0.2142  0.0947  0.3371
 2949SOL    HW211562   5.802   1.596   6.254 -0.8129 -1.5766 -1.3056
 2949SOL    HW311563   5.901   1.481   6.259 -0.1572 -0.9688  0.7264
 2949SOL    MW411564   5.838   1.529   6.296  0.0297 -0.2661  0.1717
 2950SOL     OW11565   4.151   6.420   4.597 -0.5612  0.1006 -0.2914
 2950SOL    HW211566   4.160   6.327   4.577 -1.1847  0.6333 -3.5996
 2950SOL    HW311567   4.155   6.464   4.512  1.5714  3.3255  1.2633
 2950SOL    MW411568   4.153   6.414   4.583 -0.3621  0.5963 -0.5227
 2951SOL     OW11569   1.073   3.656   2.531  1.1802  0.1815 -0.1200
 2951SOL    HW211570   1.101   3.590   2.594 -0.9479 -1.5683 -0.8873
 2951SOL    HW311571   1.047   3.731   2.585  1.1325 -0.5783  0.9419
 2951SOL    MW411572   1.073   3.657   2.547  0.8931 -0.1496 -0.0811
 2952SOL     OW11573   4.007   3.619   1.970  0.2189  0.4521 -0.2626
 2952SOL    HW211574   4.050   3.621   1.884 -0.8995  2.4276 -0.8282
 2952SOL    HW311575   4.030   3.703   2.010 -0.2795  0.0623  0.8769
 2952SOL    MW411576   4.016   3.630   1.964  0.0056  0.6613 -0.1869
 2953SOL     OW11577   2.602   1.873   0.758  0.4186  0.4481 -0.0905
 2953SOL    HW211578   2.548   1.796   0.774  0.2031  0.8553  1.2978
 2953SOL    HW311579   2.646   1.889   0.842  0.2335  2.0121 -0.2698
 2953SOL    MW411580   2.601   1.865   0.771  0.3658  0.7082  0.0690
 2954SOL     OW11581   1.578   0.798   1.069 -0.5373 -0.3781  0.0158
 2954SOL    HW211582   1.657   0.826   1.022  1.5419 -3.5382  1.2866
 2954SOL    HW311583   1.598   0.813   1.161 -2.0166 -0.0101  0.3058
 2954SOL    MW411584   1.591   0.803   1.075 -0.4581 -0.7465  0.2217
 2955SOL     OW11585   4.600   4.373   6.156  0.7537  0.1260 -0.1076
 2955SOL    HW211586   4.655   4.295   6.147  1.6066  0.7159 -0.1138
 2955SOL    HW311587   4.655   4.436   6.202  0.7428  1.3562 -1.6839
 2955SOL    MW411588   4.615   4.371   6.161  0.8648  0.3661 -0.3164
 2956SOL     OW11589   6.203   4.138   3.717 -0.2765 -0.1218 -0.4448
 2956SOL    HW211590   6.268   4.197   3.679  0.4591  0.2098  1.2247
 2956SOL    HW311591   6.162   4.189   3.786 -0.0250 -1.3460  0.6557
 2956SOL    MW411592   6.206   4.152   3.721 -0.1463 -0.2396 -0.0793
 2957SOL     OW11593   1.626   3.449   5.509  0.5946 -0.3287  0.4455
 2957SOL    HW211594   1.541   3.407   5.525  0.1849  0.8959  1.7440
 2957SOL    HW311595   1.642   3.436   5.416 -0.0630 -2.3001  0.5633
 2957SOL    MW411596   1.617   3.442   5.499  0.4538 -0.4272  0.6323
 2958SOL     OW11597   6.012   5.035   0.892 -0.0813 -0.2132  0.4652
 2958SOL    HW211598   5.962   5.056   0.971 -1.4673 -1.4089 -0.0641
 2958SOL    HW311599   6.103   5.030   0.923 -0.5847 -0.6182  1.9929
 2958SOL    MW411600   6.018   5.037   0.907 -0.3306 -0.4244  0.5969
 2959SOL     OW11601   6.109   1.922   2.636 -0.7288  0.6648  0.3544
 2959SOL    HW211602   6.133   2.013   2.617 -0.7775  0.8367  1.0869
 2959SOL    HW311603   6.067   1.925   2.722 -1.5899  0.0756 -0.0282
 2959SOL    MW411604   6.107   1.934   2.645 -0.8489  0.6097  0.4006
 2960SOL     OW11605   3.953   1.258   0.088 -0.2659  0.1690 -0.3227
 2960SOL    HW211606   3.909   1.187   0.040  2.0224 -0.3665 -1.7706
 2960SOL    HW311607   4.010   1.213   0.150 -1.2485  0.8456  1.1323
 2960SOL    MW411608   3.955   1.243   0.090 -0.0936  0.1876 -0.3218
 2961SOL     OW11609   0.570   2.302   5.953 -0.2955  0.1673  0.4359
 2961SOL    HW211610   0.645   2.312   6.012  0.2660  1.3211 -0.4245
 2961SOL    HW311611   0.573   2.380   5.897  0.2747 -1.6575 -2.3215
 2961SOL    MW411612   0.581   2.314   5.953 -0.1462  0.0788 -0.0414
 2962SOL     OW11613   1.298   2.549   2.616  0.1658 -0.3737 -0.5095
 2962SOL    HW211614   1.247   2.482   2.569 -0.7505 -0.1915  0.1957
 2962SOL    HW311615   1.232   2.610   2.649  0.6004 -1.2345  2.2066
 2962SOL    MW411616   1.282   2.548   2.614  0.1023 -0.4632 -0.0581
 2963SOL     OW11617   3.053   0.372   5.436  0.6550  0.2951 -0.0696
 2963SOL    HW211618   3.056   0.346   5.528 -1.2170  0.0693 -0.0320
 2963SOL    HW311619   3.033   0.291   5.389  1.4307  0.4454 -0.6750
 2963SOL    MW411620   3.051   0.358   5.442  0.5104  0.2851 -0.1445
 2964SOL     OW11621   1.667   1.934   4.849 -0.0762  0.5658 -0.0569
 2964SOL    HW211622   1.695   1.932   4.940  1.0700 -0.0347 -0.3981
 2964SOL    HW311623   1.653   1.842   4.826 -0.6430  0.7351 -0.4033
 2964SOL    MW411624   1.669   1.921   4.858  0.0002  0.5089 -0.1476
 2965SOL     OW11625   5.114   2.421   0.971  0.0970  0.5048 -0.1561
 2965SOL    HW211626   5.050   2.469   0.919 -1.4614  0.1285  1.3651
 2965SOL    HW311627   5.181   2.486   0.992 -0.1771  1.1034 -1.0811
 2965SOL    MW411628   5.115   2.436   0.967 -0.1448  0.5341 -0.0775
 2966SOL     OW11629   6.083   4.468   2.778  0.3348 -0.0974 -0.3619
 2966SOL    HW211630   6.163   4.437   2.821  0.9126 -0.0577 -1.3705
 2966SOL    HW311631   6.050   4.392   2.731  0.5075  0.2216 -1.0094
 2966SOL    MW411632   6.089   4.454   2.778  0.4338 -0.0501 -0.5804
 2967SOL     OW11633   3.914   2.615   3.591 -0.1159 -0.1299  0.1924
 2967SOL    HW211634   3.840   2.586   3.644  0.4070  0.0510  1.0340
 2967SOL    HW311635   3.955   2.533   3.562 -2.0606 -0.3302 -2.4113
 2967SOL    MW411636   3.909   2.600   3.594 -0.3035 -0.1324 -0.0401
 2968SOL     OW11637   2.081   4.632   1.854  0.0087  0.0660  0.0833
 2968SOL    HW211638   2.175   4.618   1.844 -0.2152 -1.8797  0.3579
 2968SOL    HW311639   2.070   4.663   1.944  0.5411  2.4530 -0.5952
 2968SOL    MW411640   2.092   4.635   1.864  0.0494  0.1242  0.0300
 2969SOL     OW11641   3.414   0.660   1.814 -0.6390  0.2793  0.3551
 2969SOL    HW211642   3.386   0.737   1.765  0.0748  1.3798  1.6029
 2969SOL    HW311643   3.449   0.601   1.747 -1.2050  1.0293 -0.6329
 2969SOL    MW411644   3.415   0.662   1.799 -0.6195  0.5235  0.3894
 2970SOL     OW11645   2.046   4.443   4.424  0.5282  0.3252 -0.5816
 2970SOL    HW211646   2.018   4.352   4.431  1.2495  0.0484 -1.1630
 2970SOL    HW311647   2.045   4.476   4.514 -2.1921  0.5226 -0.5921
 2970SOL    MW411648   2.042   4.435   4.437  0.2644  0.3148 -0.6597
 2971SOL     OW11649   5.567   1.377   2.045  0.3518  0.2653 -0.8791
 2971SOL    HW211650   5.492   1.371   1.986  0.8853  0.1116 -1.5558
 2971SOL    HW311651   5.570   1.469   2.072  0.4612  0.4751 -1.5864
 2971SOL    MW411652   5.558   1.388   2.041  0.4366  0.2727 -1.0617
 2972SOL     OW11653   2.277   5.582   3.400  0.8102 -0.5507 -0.5704
 2972SOL    HW211654   2.354   5.589   3.344  1.4061 -1.0127  0.1707
 2972SOL    HW311655   2.227   5.508   3.363  1.7365 -1.5453  0.1162
 2972SOL    MW411656   2.280   5.573   3.388  1.0110 -0.7428 -0.3821
 2973SOL     OW11657   4.103   2.189   4.640  0.1583 -0.4200  0.3123
 2973SOL    HW211658   4.151   2.107   4.649  0.3405 -0.3713 -0.1595
 2973SOL    HW311659   4.165   2.249   4.597 -0.4021 -0.4413 -0.5631
 2973SOL    MW411660   4.118   2.186   4.636  0.1084 -0.4164  0.1346
 2974SOL     OW11661   5.701   2.097   5.258 -0.1408  0.2159 -0.2531
 2974SOL    HW211662   5.773   2.043   5.290  0.6000 -0.7256 -3.2156
 2974SOL    HW311663   5.622   2.047   5.278  0.2901 -0.4363 -0.1617
 2974SOL    MW411664   5.700   2.083   5.265  0.0138  0.0056 -0.6319
 2975SOL     OW11665   3.229   6.307   2.474 -0.0112  0.5442 -0.6876
 2975SOL    HW211666   3.225   6.246   2.400 -1.0482  0.5310 -0.6376
 2975SOL    HW311667   3.234   6.394   2.433  0.9183  0.4644 -0.7599
 2975SOL    MW411668   3.229   6.310   2.459 -0.0254  0.5319 -0.6905
 2976SOL     OW11669   3.262   0.602   5.668 -0.3307 -0.3741 -0.6601
 2976SOL    HW211670   3.251   0.679   5.725 -0.0565 -0.1298 -0.9395
 2976SOL    HW311671   3.271   0.638   5.580 -1.8846 -0.7991 -1.0253
 2976SOL    MW411672   3.262   0.617   5.664 -0.4996 -0.3980 -0.7452
 2977SOL     OW11673   1.314   0.379   5.620 -0.2147 -0.4175  0.5886
 2977SOL    HW211674   1.390   0.438   5.620 -0.2406 -0.3832  0.7604
 2977SOL    HW311675   1.305   0.352   5.711 -1.1738  0.5474  0.7937
 2977SOL    MW411676   1.323   0.383   5.632 -0.3447 -0.2856  0.6384
 2978SOL     OW11677   3.592   2.896   1.477  0.0302  0.5434 -0.3900
 2978SOL    HW211678   3.584   2.857   1.565 -0.0353 -0.2912 -0.7545
 2978SOL    HW311679   3.521   2.855   1.427 -0.8877  2.1247 -0.4505
 2978SOL    MW411680   3.581   2.885   1.482 -0.0996  0.6419 -0.4460
 2979SOL     OW11681   4.925   3.827   5.870  0.4962  0.3242 -0.1287
 2979SOL    HW211682   5.010   3.798   5.901 -0.3994 -2.4553 -0.0284
 2979SOL    HW311683   4.862   3.785   5.928 -1.0500 -0.9147 -2.5211
 2979SOL    MW411684   4.928   3.818   5.882  0.1740 -0.2060 -0.4311
 2980SOL     OW11685   4.814   1.857   5.085  0.1026  0.0226 -0.0002
 2980SOL    HW211686   4.719   1.866   5.085 -0.0116 -0.9513  0.6709
 2980SOL    HW311687   4.829   1.768   5.118  1.2602  0.3589  0.4169
 2980SOL    MW411688   4.804   1.846   5.089  0.2402 -0.0615  0.1434
 2981SOL     OW11689   3.723   4.374   3.644 -0.0983  0.5172  0.8523
 2981SOL    HW211690   3.646   4.385   3.588 -1.7666  0.8049  3.0607
 2981SOL    HW311691   3.798   4.383   3.584 -1.7398 -0.8211 -1.5724
 2981SOL    MW411692   3.723   4.377   3.629 -0.5350  0.3786  0.8238
 2982SOL     OW11693   4.932   5.511   3.914  0.1236  0.4931 -0.2270
 2982SOL    HW211694   4.945   5.422   3.882  0.4904  0.6452 -0.5005
 2982SOL    HW311695   4.907   5.500   4.006 -1.6187  0.0154 -0.7099
 2982SOL    MW411696   4.930   5.498   3.922 -0.0579  0.4502 -0.3268
 2983SOL     OW11697   6.022   5.879   1.091 -0.5432 -0.4119  0.1394
 2983SOL    HW211698   6.066   5.847   1.013 -1.8368  1.0626 -1.2567
 2983SOL    HW311699   6.020   5.803   1.150  0.0901 -1.6738 -1.4019
 2983SOL    MW411700   6.027   5.864   1.089 -0.6303 -0.3838 -0.2482
 2984SOL     OW11701   1.314   5.473   1.754  0.5107 -0.3560  0.0034
 2984SOL    HW211702   1.254   5.532   1.801 -0.0546 -1.3106  0.5150
 2984SOL    HW311703   1.399   5.489   1.794  0.0996 -0.9097  1.1411
 2984SOL    MW411704   1.317   5.483   1.766  0.3819 -0.5550  0.2210
 2985SOL     OW11705   3.326   2.986   4.508 -0.6256 -0.8819 -0.2371
 2985SOL    HW211706   3.328   3.047   4.434  0.7173  0.9011  1.1920
 2985SOL    HW311707   3.333   2.900   4.467 -0.7861 -0.0227 -2.2310
 2985SOL    MW411708   3.327   2.983   4.493 -0.4696 -0.5333 -0.3116
 2986SOL     OW11709   1.331   3.100   4.723  0.7869 -0.2336  0.2960
 2986SOL    HW211710   1.414   3.141   4.750  0.4815 -0.1212  1.0652
 2986SOL    HW311711   1.272   3.174   4.707 -0.0697 -0.3371  2.6317
 2986SOL    MW411712   1.335   3.115   4.724  0.6336 -0.2324  0.7056
 2987SOL     OW11713   0.870   4.947   1.946 -0.1288 -0.3894 -0.0192
 2987SOL    HW211714   0.944   4.998   1.913  0.0806 -1.0035 -0.5101
 2987SOL    HW311715   0.910   4.869   1.985 -0.3903  0.1810  1.4323
 2987SOL    MW411716   0.885   4.943   1.947 -0.1357 -0.3952  0.1075
 2988SOL     OW11717   2.605   0.184   4.659 -0.6212 -0.1249  0.2713
 2988SOL    HW211718   2.527   0.131   4.646 -1.3529  1.1698 -0.8676
 2988SOL    HW311719   2.582   0.270   4.624  0.6005  0.9030  1.8562
 2988SOL    MW411720   2.592   0.188   4.653 -0.5565  0.1815  0.3301
 2989SOL     OW11721   2.616   3.833   3.362  0.5462  0.5476 -0.3644
 2989SOL    HW211722   2.545   3.872   3.412 -0.8995 -1.6650 -0.5623
 2989SOL    HW311723   2.682   3.811   3.427 -0.1113  0.2205  0.2099
 2989SOL    MW411724   2.615   3.835   3.377  0.2687  0.2125 -0.3147
 2990SOL     OW11725   5.831   0.577   3.680 -0.9353  0.0881  0.1195
 2990SOL    HW211726   5.886   0.594   3.756  0.0879  0.1970 -0.6331
 2990SOL    HW311727   5.870   0.629   3.609 -1.9587  0.1106 -0.4561
 2990SOL    MW411728   5.843   0.586   3.681 -0.9353  0.1054 -0.0558
 2991SOL     OW11729   4.629   3.097   1.901  0.1518  0.1234 -0.1500
 2991SOL    HW211730   4.702   3.096   1.963 -0.3530 -2.1055  0.5123
 2991SOL    HW311731   4.670   3.112   1.816  1.2133  0.2813  0.3692
 2991SOL    MW411732   4.644   3.099   1.898  0.2252 -0.1499  0.0059
 2992SOL     OW11733   0.493   2.379   0.827 -0.7831 -0.5188  0.1470
 2992SOL    HW211734   0.460   2.408   0.742  0.8720 -2.5451 -1.2790
 2992SOL    HW311735   0.577   2.423   0.836 -0.5082 -1.0704  0.2805
 2992SOL    MW411736   0.500   2.389   0.817 -0.5285 -0.8590 -0.0235
 2993SOL     OW11737   5.181   0.333   4.919  0.3621  0.5812  0.0419
 2993SOL    HW211738   5.108   0.328   4.981  2.6516  2.4369  3.1287
 2993SOL    HW311739   5.243   0.267   4.950  0.5107 -0.2833 -1.9550
 2993SOL    MW411740   5.179   0.323   4.931  0.6837  0.7120  0.1857
 2994SOL     OW11741   1.891   1.266   2.679 -0.0337 -0.5413  0.1124
 2994SOL    HW211742   1.809   1.237   2.719 -0.7278  0.0535 -0.8520
 2994SOL    HW311743   1.866   1.299   2.593  1.2516 -0.5496 -0.2866
 2994SOL    MW411744   1.877   1.266   2.673  0.0443 -0.4639 -0.0675
 2995SOL     OW11745   3.208   2.452   2.189  0.7926  0.4697  0.1626
 2995SOL    HW211746   3.187   2.467   2.281 -0.7148 -1.5914  0.2421
 2995SOL    HW311747   3.130   2.481   2.141  0.7912 -0.2352 -0.2795
 2995SOL    MW411748   3.195   2.458   2.194  0.5935  0.1047  0.1148
 2996SOL     OW11749   2.508   4.987   2.113 -0.0558 -0.2279  0.1961
 2996SOL    HW211750   2.449   5.035   2.055  0.0619  1.4331  1.3961
 2996SOL    HW311751   2.450   4.938   2.171 -0.2264  0.3513  0.5157
 2996SOL    MW411752   2.493   4.987   2.113 -0.0628  0.0677  0.3966
 2997SOL     OW11753   2.434   5.667   5.851 -0.2517  0.1611  0.3400
 2997SOL    HW211754   2.432   5.658   5.756 -0.3268  1.9303  0.1337
 2997SOL    HW311755   2.526   5.650   5.875 -0.2267 -0.2630 -0.0429
 2997SOL    MW411756   2.446   5.663   5.841 -0.2583  0.3385  0.2623
 2998SOL     OW11757   4.375   6.363   5.420 -0.1968 -0.2746 -0.4062
 2998SOL    HW211758   4.328   6.352   5.337 -0.9470 -0.2669  0.0097
 2998SOL    HW311759   4.314   6.411   5.476 -0.0239 -0.9888  0.4153
 2998SOL    MW411760   4.361   6.368   5.416 -0.2729 -0.3678 -0.2429
 2999SOL     OW11761   3.609   3.306   5.225  0.5493 -0.4531  0.3014
 2999SOL    HW211762   3.519   3.290   5.253  0.0192  0.9866 -0.5291
 2999SOL    HW311763   3.603   3.324   5.132  1.1776  3.1607  0.8149
 2999SOL    MW411764   3.596   3.306   5.217  0.5623  0.2137  0.2596
 3000SOL     OW11765   1.979   5.925   4.295 -0.1375  0.1056 -0.0541
 3000SOL    HW211766   1.939   5.900   4.378  0.3020 -1.1576 -0.1938
 3000SOL    HW311767   1.920   5.890   4.228  0.1109  0.0872 -0.2661
 3000SOL    MW411768   1.966   5.917   4.297 -0.0468 -0.0635 -0.1005
 3001SOL     OW11769   4.593   0.697   1.318 -0.1690 -0.0033 -0.1664
 3001SOL    HW211770   4.686   0.693   1.343 -0.4608 -0.2431  0.9661
 3001SOL    HW311771   4.574   0.791   1.313  0.6649  0.0888 -2.6193
 3001SOL    MW411772   4.603   0.709   1.321 -0.0975 -0.0228 -0.3406
 3002SOL     OW11773   4.016   4.813   3.940 -0.6351 -0.3491 -0.2599
 3002SOL    HW211774   4.003   4.718   3.944 -0.5109 -0.3239  1.6205
 3002SOL    HW311775   3.938   4.847   3.897 -1.6799 -1.1447  0.9418
 3002SOL    MW411776   4.004   4.805   3.935 -0.7565 -0.4508  0.1467
 3003SOL     OW11777   2.701   4.397   4.556  0.2856  0.8574  0.9880
 3003SOL    HW211778   2.628   4.338   4.538  0.8434  0.3430  0.3729
 3003SOL    HW311779   2.705   4.400   4.652 -0.3032  0.5920  1.0282
 3003SOL    MW411780   2.692   4.389   4.567  0.2815  0.7545  0.9121
 3004SOL     OW11781   2.725   1.254   2.170  0.1306 -0.1372 -0.5705
 3004SOL    HW211782   2.658   1.291   2.228  0.7243 -0.0804  0.0956
 3004SOL    HW311783   2.795   1.320   2.169 -0.0461  0.0510 -1.6914
 3004SOL    MW411784   2.726   1.267   2.178  0.1856 -0.1049 -0.6305
 3005SOL     OW11785   3.742   0.468   5.091  0.2246 -0.0990 -0.7125
 3005SOL    HW211786   3.771   0.381   5.119 -0.5261 -0.3405 -0.6692
 3005SOL    HW311787   3.817   0.525   5.109  1.0850 -0.9094 -1.6696
 3005SOL    MW411788   3.755   0.464   5.097  0.2391 -0.2378 -0.8331
 3006SOL     OW11789   4.615   0.714   5.438  0.2907  0.3873 -0.3846
 3006SOL    HW211790   4.620   0.803   5.472  1.0000  0.7130 -1.2947
 3006SOL    HW311791   4.660   0.718   5.353  0.3246 -0.8322 -0.4444
 3006SOL    MW411792   4.622   0.727   5.431  0.3888  0.2694 -0.5126
 3007SOL     OW11793   0.359   0.977   2.774 -0.1937 -0.0640 -0.1238
 3007SOL    HW211794   0.404   0.940   2.850  1.3745  1.3077 -0.3106
 3007SOL    HW311795   0.338   0.901   2.719  2.1024 -0.7881 -0.1028
 3007SOL    MW411796   0.362   0.962   2.777  0.3161  0.0215 -0.1457
 3008SOL     OW11797   5.767   0.449   4.071  0.0347 -0.2717  0.4245
 3008SOL    HW211798   5.767   0.379   4.007 -2.5833 -0.9971  1.1245
 3008SOL    HW311799   5.842   0.504   4.046 -1.3757  0.0706 -3.8305
 3008SOL    MW411800   5.777   0.447   4.060 -0.4968 -0.3222 -0.0445
 3009SOL     OW11801   3.765   1.017   0.984  0.1186  0.0983 -0.4873
 3009SOL    HW211802   3.852   0.989   0.958 -0.3653 -0.8118 -1.1815
 3009SOL    HW311803   3.774   1.110   1.003  1.3555 -0.1083 -0.0024
 3009SOL    MW411804   3.777   1.025   0.983  0.2180 -0.0491 -0.5149
 3010SOL     OW11805   3.218   4.789   4.263  0.6019 -0.6685  0.6102
 3010SOL    HW211806   3.142   4.806   4.208  1.2252 -0.1960 -0.1388
 3010SOL    HW311807   3.268   4.871   4.261  0.9090 -0.8218  1.4549
 3010SOL    MW411808   3.215   4.802   4.255  0.7247 -0.6264  0.6228
 3011SOL     OW11809   4.501   1.484   5.135  0.0798 -0.0336  0.2235
 3011SOL    HW211810   4.564   1.472   5.064  0.4893 -1.6270  0.8233
 3011SOL    HW311811   4.547   1.537   5.200  1.4536 -2.4380  1.3515
 3011SOL    MW411812   4.515   1.489   5.134  0.3151 -0.5611  0.4515
 3012SOL     OW11813   3.300   1.675   1.355 -0.1351 -0.0885  0.1543
 3012SOL    HW211814   3.357   1.640   1.424  0.3871  0.2287 -0.1041
 3012SOL    HW311815   3.359   1.690   1.281 -0.1867  1.9589  0.4747
 3012SOL    MW411816   3.316   1.672   1.354 -0.0730  0.2235  0.1625
 3013SOL     OW11817   4.723   3.158   5.295  0.8045  0.0698 -0.2030
 3013SOL    HW211818   4.687   3.246   5.308  1.0163  0.0074  0.9085
 3013SOL    HW311819   4.717   3.117   5.381 -0.3262 -1.4108 -0.9614
 3013SOL    MW411820   4.718   3.164   5.308  0.6832 -0.1338 -0.1564
 3014SOL     OW11821   2.835   4.795   3.873  0.6424  0.1589  0.4310
 3014SOL    HW211822   2.871   4.718   3.830 -0.7244  0.0690 -0.6039
 3014SOL    HW311823   2.756   4.764   3.917  0.2082  0.9092  0.2038
 3014SOL    MW411824   2.829   4.781   3.873  0.4048  0.2460  0.2645
 3015SOL     OW11825   2.354   4.255   2.913 -0.2505 -0.0429 -0.0659
 3015SOL    HW211826   2.270   4.291   2.882  0.0462  0.8887  0.1642
 3015SOL    HW311827   2.420   4.311   2.871  0.3517 -1.7429 -1.5259
 3015SOL    MW411828   2.351   4.267   2.903 -0.1319 -0.1443 -0.2282
 3016SOL     OW11829   4.265   2.243   5.507 -0.4144 -0.3909  0.2864
 3016SOL    HW211830   4.285   2.196   5.426  0.8911 -0.2364  0.4899
 3016SOL    HW311831   4.170   2.243   5.512 -0.4871 -1.3309 -0.6994
 3016SOL    MW411832   4.255   2.237   5.497 -0.2517 -0.4945  0.1832
 3017SOL     OW11833   4.095   4.783   2.619 -0.1920  0.3410  0.2437
 3017SOL    HW211834   4.079   4.874   2.644  1.9914  0.5616  1.1119
 3017SOL    HW311835   4.141   4.745   2.695 -0.3216 -1.2392 -0.4339
 3017SOL    MW411836   4.099   4.790   2.633  0.0790  0.1617  0.2688
 3018SOL     OW11837   5.199   1.261   4.324 -0.7722  0.1865  0.5950
 3018SOL    HW211838   5.283   1.225   4.353 -0.5515  0.2687  0.0708
 3018SOL    HW311839   5.203   1.354   4.346 -0.1392  0.4903 -0.6951
 3018SOL    MW411840   5.211   1.268   4.331 -0.6596  0.2374  0.3556
 3019SOL     OW11841   4.794   3.564   6.391 -0.3198 -0.2910  0.1842
 3019SOL    HW211842   4.750   3.541   6.473  2.0031 -2.1108  1.0076
 3019SOL    HW311843   4.807   3.481   6.346  0.5766  0.4190 -0.9373
 3019SOL    MW411844   4.790   3.550   6.396  0.1049 -0.4375  0.1449
 3020SOL     OW11845   5.526   1.439   4.077 -0.1042  0.1374 -1.0765
 3020SOL    HW211846   5.434   1.442   4.102  0.4074 -0.1717  1.0232
 3020SOL    HW311847   5.531   1.491   3.997 -1.9997  0.6406 -0.9077
 3020SOL    MW411848   5.515   1.446   4.070 -0.2868  0.1630 -0.7772
 3021SOL     OW11849   0.955   5.062   2.748 -0.3200 -0.2765 -0.2058
 3021SOL    HW211850   1.024   5.019   2.798 -0.6151  0.5641  0.9501
 3021SOL    HW311851   0.902   4.989   2.713 -0.8927 -0.8874  1.8220
 3021SOL    MW411852   0.957   5.047   2.750 -0.4345 -0.2462  0.2143
 3022SOL     OW11853   2.692   2.873   1.162  0.4745  0.0139  0.1393
 3022SOL    HW211854   2.712   2.952   1.212 -0.0990  0.1637  0.1348
 3022SOL    HW311855   2.776   2.847   1.124  0.9181 -0.0827  1.1511
 3022SOL    MW411856   2.706   2.880   1.164  0.4573  0.0209  0.2722
 3023SOL     OW11857   6.146   4.925   4.117 -0.1813  0.0002 -0.9155
 3023SOL    HW211858   6.186   4.841   4.098 -0.5750 -0.6852  1.0933
 3023SOL    HW311859   6.205   4.989   4.077  1.1994 -1.1251 -0.7460
 3023SOL    MW411860   6.159   4.923   4.109 -0.0511 -0.2387 -0.6281
 3024SOL     OW11861   3.760   4.849   3.846 -0.2014  0.0258 -0.7395
 3024SOL    HW211862   3.716   4.778   3.800  0.4256 -1.8277  1.3386
 3024SOL    HW311863   3.731   4.840   3.937  0.6864  1.8105 -0.2371
 3024SOL    MW411864   3.751   4.839   3.852 -0.0015  0.0167 -0.3990
 3025SOL     OW11865   6.182   4.221   4.034  0.0579  0.0870 -0.3738
 3025SOL    HW211866   6.258   4.163   4.039 -0.1341 -0.1296  0.0692
 3025SOL    HW311867   6.217   4.304   4.001  0.9918  0.8257  2.2235
 3025SOL    MW411868   6.197   4.224   4.030  0.1558  0.1559  0.0273
 3026SOL     OW11869   0.223   2.066   0.778  0.1835  1.1903  0.4009
 3026SOL    HW211870   0.270   2.051   0.860  0.8242  1.4030  0.0784
 3026SOL    HW311871   0.292   2.079   0.713 -0.3287  1.8934 -0.0091
 3026SOL    MW411872   0.238   2.066   0.781  0.2004  1.3112  0.3042
 3027SOL     OW11873   1.229   1.570   6.037  0.1034 -0.1612 -0.2335
 3027SOL    HW211874   1.191   1.630   5.973  0.6534 -0.8938 -1.2732
 3027SOL    HW311875   1.244   1.489   5.988  3.2121  0.1493  0.0164
 3027SOL    MW411876   1.226   1.567   6.022  0.5861 -0.2169 -0.3377
 3028SOL     OW11877   2.903   3.026   5.882  0.0695  0.6823  0.5709
 3028SOL    HW211878   2.930   2.936   5.902  0.3799  0.0070 -2.3275
 3028SOL    HW311879   2.981   3.079   5.900  1.0626 -0.1911 -0.9155
 3028SOL    MW411880   2.917   3.021   5.887  0.2415  0.4780 -0.0076
 3029SOL     OW11881   5.846   2.054   6.071  0.5148 -0.2815  0.2363
 3029SOL    HW211882   5.775   2.028   6.011  1.9618 -2.1193 -0.7980
 3029SOL    HW311883   5.820   2.017   6.155 -1.2544  1.8144  0.7076
 3029SOL    MW411884   5.833   2.046   6.074  0.4723 -0.2475  0.1620
 3030SOL     OW11885   2.675   6.030   2.565  0.4500  0.2781 -0.3285
 3030SOL    HW211886   2.722   6.068   2.490  0.7652  0.3911 -0.0764
 3030SOL    HW311887   2.582   6.039   2.542  0.5156  1.2671 -0.2437
 3030SOL    MW411888   2.669   6.036   2.552  0.5002  0.4235 -0.2841
 3031SOL     OW11889   1.728   0.295   1.359 -0.1484  0.0743  0.2842
 3031SOL    HW211890   1.651   0.305   1.415  0.0742 -1.5076  0.9381
 3031SOL    HW311891   1.788   0.365   1.385 -0.2804 -0.2982  1.6379
 3031SOL    MW411892   1.726   0.305   1.370 -0.1364 -0.1836  0.5491
 3032SOL     OW11893   5.611   3.154   6.377 -0.4673  0.3152 -0.2302
 3032SOL    HW211894   5.540   3.180   6.436 -1.8359 -2.1604 -0.6028
 3032SOL    HW311895   5.685   3.135   6.435 -0.7717  0.9393  0.3742
 3032SOL    MW411896   5.611   3.155   6.393 -0.6881  0.0709 -0.1997
 3033SOL     OW11897   2.476   3.471   4.137 -0.2231  0.0561  0.0258
 3033SOL    HW211898   2.541   3.473   4.208 -1.0513  2.4125  0.7907
 3033SOL    HW311899   2.511   3.531   4.071 -1.7201  1.6372  0.6037
 3033SOL    MW411900   2.489   3.479   4.138 -0.5299  0.5756  0.2029
 3034SOL     OW11901   0.492   4.299   1.049  0.4983  0.1942  0.1288
 3034SOL    HW211902   0.569   4.312   0.994  0.3083  2.8344  0.3867
 3034SOL    HW311903   0.525   4.303   1.138  0.0796  1.3424  0.2404
 3034SOL    MW411904   0.507   4.301   1.053  0.4180  0.6940  0.1776
 3035SOL     OW11905   0.930   4.593   5.026 -0.3621  0.6336  0.0722
 3035SOL    HW211906   0.945   4.686   5.011  0.0354  1.2821  3.5464
 3035SOL    HW311907   0.899   4.589   5.117 -0.3453 -2.6408  0.0348
 3035SOL    MW411908   0.928   4.605   5.036 -0.3074  0.2872  0.5256
 3036SOL     OW11909   4.927   1.586   5.121  0.4013  0.2223 -0.1743
 3036SOL    HW211910   5.006   1.553   5.162  1.4149  0.2869 -1.9682
 3036SOL    HW311911   4.882   1.507   5.089  0.5470  0.2819 -0.5310
 3036SOL    MW411912   4.931   1.571   5.122  0.5542  0.2387 -0.4580
 3037SOL     OW11913   0.990   1.540   2.430  0.3223 -0.1645  0.3584
 3037SOL    HW211914   1.070   1.585   2.402  0.0662  0.4048  0.5324
 3037SOL    HW311915   0.951   1.509   2.348 -0.4185  1.4802  0.0466
 3037SOL    MW411916   0.996   1.542   2.415  0.1908  0.1276  0.3402
 3038SOL     OW11917   1.195   4.986   3.693 -0.2079 -0.2821  0.6052
 3038SOL    HW211918   1.178   4.907   3.743 -0.9320 -1.0245 -0.7399
 3038SOL    HW311919   1.110   5.007   3.652  0.2511  0.5289  0.0357
 3038SOL    MW411920   1.181   4.978   3.694 -0.2429 -0.2730  0.3526
 3039SOL     OW11921   2.070   2.703   4.419  0.7834 -0.3052  0.6387
 3039SOL    HW211922   2.100   2.649   4.493  0.4177 -0.2849  0.8014
 3039SOL    HW311923   2.125   2.782   4.424  0.0671  0.1627  1.5153
 3039SOL    MW411924   2.081   2.706   4.430  0.6407 -0.2408  0.7758
 3040SOL     OW11925   0.286   3.505   2.197 -0.3429 -0.6264  0.6287
 3040SOL    HW211926   0.226   3.470   2.131 -0.3234  0.9043 -0.2427
 3040SOL    HW311927   0.324   3.583   2.156  2.0729 -1.3834  1.2328
 3040SOL    MW411928   0.283   3.510   2.183 -0.0216 -0.5243  0.5935
 3041SOL     OW11929   3.236   5.320   1.116 -0.5109  0.2328 -0.5124
 3041SOL    HW211930   3.285   5.262   1.057  0.6851  1.5701 -0.8819
 3041SOL    HW311931   3.152   5.276   1.127 -0.0338 -1.0552 -1.6036
 3041SOL    MW411932   3.231   5.306   1.110 -0.2902  0.2393 -0.7051
 3042SOL     OW11933   4.775   6.260   6.395  0.2763  0.0937  0.0085
 3042SOL    HW211934   4.807   6.335   6.347 -0.7269  0.2878 -0.3921
 3042SOL    HW311935   4.818   6.265   6.481  0.0833  1.2211  0.0466
 3042SOL    MW411936   4.785   6.270   6.400  0.1185  0.2680 -0.0393
 3043SOL     OW11937   1.694   4.829   4.024 -0.3030  0.1127  0.0261
 3043SOL    HW211938   1.683   4.876   4.107  1.8456 -2.1725  1.7813
 3043SOL    HW311939   1.618   4.772   4.019 -1.2300  1.3351 -0.4344
 3043SOL    MW411940   1.683   4.828   4.034 -0.1418 -0.0275  0.1969
 3044SOL     OW11941   3.700   4.164   1.446 -0.2316 -0.3469 -0.0185
 3044SOL    HW211942   3.729   4.216   1.372 -1.6178 -0.0003 -0.3462
 3044SOL    HW311943   3.610   4.194   1.463 -0.3799 -1.2951  0.9899
 3044SOL    MW411944   3.692   4.175   1.438 -0.4341 -0.4263  0.0713
 3045SOL     OW11945   4.379   2.654   0.881  0.1311  0.1133 -0.4345
 3045SOL    HW211946   4.378   2.655   0.977 -0.1478 -1.2386 -0.3912
 3045SOL    HW311947   4.394   2.745   0.855 -0.2777  0.5747  0.8848
 3045SOL    MW411948   4.381   2.666   0.890  0.0403 -0.0042 -0.2548
 3046SOL     OW11949   2.690   3.864   6.378  0.2441 -0.0970 -0.1650
 3046SOL    HW211950   2.603   3.890   6.347  0.4305 -0.4132 -1.0034
 3046SOL    HW311951   2.750   3.928   6.340  0.5244 -0.7410 -0.8451
 3046SOL    MW411952   2.686   3.876   6.369  0.3057 -0.2237 -0.3654
 3047SOL     OW11953   5.280   6.248   0.674 -0.5306  0.5261  0.4366
 3047SOL    HW211954   5.282   6.223   0.766 -0.3624 -0.3519  0.2076
 3047SOL    HW311955   5.307   6.169   0.627 -2.1563  0.4639 -0.4563
 3047SOL    MW411956   5.284   6.234   0.680 -0.7229  0.4021  0.2886
 3048SOL     OW11957   3.622   4.810   5.673  0.2641 -0.1167  0.2648
 3048SOL    HW211958   3.584   4.751   5.738 -0.5302 -1.4739 -1.3460
 3048SOL    HW311959   3.581   4.895   5.691  0.8234 -0.2087  2.1352
 3048SOL    MW411960   3.611   4.813   5.684  0.2331 -0.3079  0.2991
 3049SOL     OW11961   4.107   1.969   0.388  0.1186  0.1812 -0.4291
 3049SOL    HW211962   4.184   2.008   0.430 -0.2580  1.6594 -1.0650
 3049SOL    HW311963   4.093   2.021   0.310 -2.0839  0.5419  0.1433
 3049SOL    MW411964   4.115   1.981   0.383 -0.2217  0.4238 -0.4375
 3050SOL     OW11965   0.653   2.012   4.321 -0.7471 -0.0464  0.0463
 3050SOL    HW211966   0.614   1.948   4.261 -1.4779  0.7925 -0.4086
 3050SOL    HW311967   0.682   2.083   4.264  1.6079 -0.6844  0.3652
 3050SOL    MW411968   0.651   2.013   4.305 -0.5328 -0.0199  0.0284
 3051SOL     OW11969   2.914   3.385   0.752  0.4971  0.3082  0.7147
 3051SOL    HW211970   2.868   3.319   0.805  1.0949 -1.1663 -0.5021
 3051SOL    HW311971   2.998   3.344   0.733  0.0394  0.4537 -1.9243
 3051SOL    MW411972   2.919   3.371   0.757  0.5156  0.1329  0.2060
 3052SOL     OW11973   5.320   6.183   5.166 -0.0127 -0.2594 -0.1268
 3052SOL    HW211974   5.360   6.248   5.224  0.2654 -1.3542  0.9606
 3052SOL    HW311975   5.390   6.158   5.106  0.6277 -1.2470  0.9697
 3052SOL    MW411976   5.335   6.188   5.166  0.1085 -0.5342  0.1613
 3053SOL     OW11977   6.112   2.491   0.680 -0.0428  0.1324  0.2378
 3053SOL    HW211978   6.169   2.425   0.642  0.1924  0.9285 -0.8361
 3053SOL    HW311979   6.024   2.455   0.672  0.0869 -0.0743 -0.3077
 3053SOL    MW411980   6.108   2.478   0.674  0.0053  0.2101  0.0242
 3054SOL     OW11981   6.101   4.644   2.559 -0.2455  0.3453 -0.5868
 3054SOL    HW211982   6.096   4.581   2.631 -1.3196  1.1081  0.0235
 3054SOL    HW311983   6.018   4.691   2.561 -0.0026  0.8816 -1.8749
 3054SOL    MW411984   6.089   4.642   2.569 -0.3551  0.5167 -0.6762
 3055SOL     OW11985   4.399   2.028   2.314  0.0110 -0.2091  0.0510
 3055SOL    HW211986   4.469   2.017   2.379  0.1120 -0.2302 -0.0613
 3055SOL    HW311987   4.322   2.051   2.366  0.5864  2.0472  0.0461
 3055SOL    MW411988   4.398   2.030   2.330  0.1003  0.0858  0.0356
 3056SOL     OW11989   0.111   3.908   5.300 -0.0367  0.2720  0.2820
 3056SOL    HW211990   0.108   3.934   5.208  0.5797 -1.0991 -0.1537
 3056SOL    HW311991   0.128   3.814   5.298 -3.9926 -0.6839  1.7161
 3056SOL    MW411992   0.113   3.899   5.288 -0.4773 -0.0350  0.4138
 3057SOL     OW11993   5.112   2.068   3.183  0.2987 -0.0953  0.1722
 3057SOL    HW211994   5.131   1.974   3.181 -0.3218 -0.2068 -1.0576
 3057SOL    HW311995   5.033   2.075   3.237 -0.1178 -0.3732 -0.3921
 3057SOL    MW411996   5.104   2.056   3.190  0.1619 -0.1467 -0.0645
 3058SOL     OW11997   3.148   4.501   2.963  0.0166 -0.0216 -0.2048
 3058SOL    HW211998   3.213   4.430   2.966 -2.1682 -2.1335  1.1350
 3058SOL    HW311999   3.072   4.461   2.920 -1.4374  1.3677  0.9938
 3058SOL    MW412000   3.147   4.486   2.957 -0.4635 -0.1170  0.1301
 3059SOL     OW12001   3.423   1.077   5.076 -0.8646  0.1239  0.0438
 3059SOL    HW212002   3.381   0.993   5.095  0.7368 -0.6180  0.4555
 3059SOL    HW312003   3.439   1.116   5.162  0.8669 -0.4362  0.0148
 3059SOL    MW412004   3.419   1.071   5.090 -0.4249 -0.0479  0.0943
 3060SOL     OW12005   0.430   3.987   5.061 -0.2423  0.3564 -0.1299
 3060SOL    HW212006   0.471   3.982   4.974 -0.2205  1.0391 -0.1621
 3060SOL    HW312007   0.415   4.080   5.075  1.9066  0.5171  1.5927
 3060SOL    MW412008   0.434   3.999   5.051  0.0441  0.4677  0.0931
 3061SOL     OW12009   1.422   3.547   6.048  0.5385  0.1366 -0.1102
 3061SOL    HW212010   1.374   3.629   6.055 -0.9533 -0.7213  0.1732
 3061SOL    HW312011   1.411   3.519   5.957  0.8677  0.1419 -0.1543
 3061SOL    MW412012   1.414   3.554   6.037  0.3851  0.0241 -0.0786
 3062SOL     OW12013   3.082   2.189   2.181 -0.2653  0.3149 -0.2337
 3062SOL    HW212014   3.150   2.141   2.230 -0.5925  0.3326  0.2492
 3062SOL    HW312015   3.119   2.276   2.170  0.2945 -0.0164 -1.0355
 3062SOL    MW412016   3.096   2.194   2.186 -0.2346  0.2735 -0.2758
 3063SOL     OW12017   0.793   5.475   6.103  0.6683  0.0135 -0.1215
 3063SOL    HW212018   0.790   5.424   6.184  0.6869 -0.0034 -0.1318
 3063SOL    HW312019   0.719   5.442   6.051  1.2813 -0.6916 -0.5488
 3063SOL    MW412020   0.783   5.464   6.107  0.7516 -0.0817 -0.1792
 3064SOL     OW12021   0.977   5.480   0.283 -0.2392  0.1282 -0.1269
 3064SOL    HW212022   0.990   5.515   0.195 -1.0366 -0.0953 -0.3433
 3064SOL    HW312023   0.912   5.410   0.272  1.1650 -1.3222  0.3186
 3064SOL    MW412024   0.970   5.475   0.270 -0.1591 -0.0926 -0.0966
 3065SOL     OW12025   1.886   1.977   5.435  0.7385 -0.3659  0.0965
 3065SOL    HW212026   1.973   2.016   5.448  1.4607 -2.0479  0.4818
 3065SOL    HW312027   1.825   2.047   5.458  1.9778 -0.1169  2.9651
 3065SOL    MW412028   1.889   1.992   5.440  0.9973 -0.5549  0.5258
 3066SOL     OW12029   0.017   4.684   1.950  0.1558 -0.0042 -0.3834
 3066SOL    HW212030   0.100   4.691   1.996 -0.3478  0.1166  0.5177
 3066SOL    HW312031  -0.040   4.635   2.009 -0.2175 -0.6869 -1.2734
 3066SOL    MW412032   0.020   4.678   1.964  0.0401 -0.0783 -0.3820
 3067SOL     OW12033   4.019   3.517   0.129 -0.2272 -0.9180 -0.4514
 3067SOL    HW212034   4.047   3.559   0.048  1.1117 -1.7490 -0.4521
 3067SOL    HW312035   4.067   3.563   0.198  0.5117 -1.7694 -0.3716
 3067SOL    MW412036   4.029   3.528   0.127  0.0469 -1.1400 -0.4410
 3068SOL     OW12037   3.878   2.041   4.152 -0.2064 -0.2410  0.1635
 3068SOL    HW212038   3.974   2.042   4.157 -0.0819  2.7039 -1.1750
 3068SOL    HW312039   3.857   1.956   4.113  1.7293 -1.4964  1.6774
 3068SOL    MW412040   3.888   2.030   4.148  0.0654 -0.0181  0.1867
 3069SOL     OW12041   4.165   6.329   4.093  0.3803  0.3848 -0.6790
 3069SOL    HW212042   4.126   6.413   4.117 -0.3946  0.6290 -2.5689
 3069SOL    HW312043   4.108   6.295   4.024  1.1701 -1.2966 -0.5652
 3069SOL    MW412044   4.152   6.335   4.087  0.3823  0.1952 -0.9133
 3070SOL     OW12045   2.720   3.611   0.289 -0.7745 -0.1006 -0.4485
 3070SOL    HW212046   2.665   3.572   0.221 -0.2427 -0.9195 -0.4158
 3070SOL    HW312047   2.808   3.583   0.267 -0.3428  1.2341 -0.5236
 3070SOL    MW412048   2.724   3.602   0.277 -0.6474 -0.0326 -0.4541
 3071SOL     OW12049   6.297   1.435   0.751 -0.5295 -0.0659 -0.4753
 3071SOL    HW212050   6.245   1.505   0.792  0.2608  0.5989 -0.5726
 3071SOL    HW312051   6.344   1.395   0.824 -1.6942 -1.1424 -0.2873
 3071SOL    MW412052   6.296   1.439   0.766 -0.5789 -0.1203 -0.4633
 3072SOL     OW12053   4.638   3.770   6.264  0.0760  0.1101  0.1938
 3072SOL    HW212054   4.658   3.857   6.300  2.4201 -0.2080 -0.1645
 3072SOL    HW312055   4.688   3.710   6.320  0.5621 -0.7490 -1.1204
 3072SOL    MW412056   4.647   3.774   6.276  0.4494 -0.0452 -0.0268
 3073SOL     OW12057   5.560   5.505   5.807  0.0173  0.0059 -0.6588
 3073SOL    HW212058   5.535   5.415   5.828 -0.8700  0.3978  0.0683
 3073SOL    HW312059   5.650   5.513   5.838  0.1603 -0.6797 -0.8821
 3073SOL    MW412060   5.568   5.494   5.814 -0.0809 -0.0328 -0.5923
 3074SOL     OW12061   4.160   2.938   2.225  0.2641 -0.3952 -0.3230
 3074SOL    HW212062   4.153   2.923   2.130  1.7201  0.5541 -0.6047
 3074SOL    HW312063   4.193   2.855   2.260 -1.2260 -1.0927 -0.4770
 3074SOL    MW412064   4.163   2.925   2.217  0.2596 -0.3620 -0.3805
 3075SOL     OW12065   1.589   4.586   1.197  0.4183 -0.6325  0.1469
 3075SOL    HW212066   1.569   4.531   1.120  0.0398 -0.6842  0.2814
 3075SOL    HW312067   1.646   4.655   1.162  1.9601 -1.8218  0.2180
 3075SOL    MW412068   1.594   4.588   1.182  0.5718 -0.7962  0.1741
 3076SOL     OW12069   2.189   4.498   4.853  0.3591  0.1916  0.5805
 3076SOL    HW212070   2.122   4.520   4.789 -0.3457  0.2495  1.3142
 3076SOL    HW312071   2.240   4.428   4.813  0.0701  0.3785 -0.1185
 3076SOL    MW412072   2.187   4.492   4.839  0.2280  0.2239  0.5851
 3077SOL     OW12073   1.603   5.154   3.728  0.1882 -0.4051 -0.0153
 3077SOL    HW212074   1.577   5.073   3.772  0.4452 -1.1818 -1.2405
 3077SOL    HW312075   1.658   5.125   3.656  1.8650  0.9836  0.6177
 3077SOL    MW412076   1.607   5.140   3.725  0.4433 -0.3244 -0.0935
 3078SOL     OW12077   2.948   3.808   5.703 -0.5983  0.1530 -0.3614
 3078SOL    HW212078   2.888   3.794   5.777  0.0792  0.1274  0.1902
 3078SOL    HW312079   2.961   3.902   5.699 -0.7857  0.1703 -0.5706
 3078SOL    MW412080   2.942   3.818   5.712 -0.5337  0.1519 -0.3162
 3079SOL     OW12081   0.972   4.905   4.697  0.0294 -0.3659 -0.5365
 3079SOL    HW212082   1.065   4.915   4.676  0.0180 -0.0917 -0.4606
 3079SOL    HW312083   0.948   4.819   4.661  0.2309 -0.2937 -0.8449
 3079SOL    MW412084   0.981   4.895   4.689  0.0545 -0.3202 -0.5672
 3080SOL     OW12085   4.666   5.402   5.881  0.9236 -0.1671  0.5222
 3080SOL    HW212086   4.610   5.327   5.862 -0.0753  0.6859 -0.0695
 3080SOL    HW312087   4.678   5.445   5.797 -0.3706  1.5436  1.1479
 3080SOL    MW412088   4.660   5.398   5.868  0.6210  0.1712  0.5267
 3081SOL     OW12089   4.011   3.614   6.285 -0.0673  0.2606 -0.3237
 3081SOL    HW212090   4.062   3.630   6.206  0.1493 -0.0667 -0.2527
 3081SOL    HW312091   3.943   3.552   6.256 -0.7815  1.1339 -0.5533
 3081SOL    MW412092   4.009   3.608   6.271 -0.1330  0.3326 -0.3446
 3082SOL     OW12093   5.505   1.110   2.799 -0.9350  0.6496 -0.1630
 3082SOL    HW212094   5.461   1.043   2.747 -2.1890  0.9417  0.4788
 3082SOL    HW312095   5.597   1.105   2.772 -0.8974 -1.6416  0.1944
 3082SOL    MW412096   5.511   1.100   2.789 -1.0955  0.3858 -0.0312
 3083SOL     OW12097   0.708   1.253   5.064  0.1707 -0.4636 -0.2928
 3083SOL    HW212098   0.764   1.291   5.131 -0.1040  0.6106 -0.6426
 3083SOL    HW312099   0.641   1.205   5.113 -0.4969  0.9714  0.2597
 3083SOL    MW412100   0.706   1.252   5.079  0.0464 -0.1325 -0.2661
 3084SOL     OW12101   3.859   3.528   3.916  0.0091 -0.5427  0.5915
 3084SOL    HW212102   3.918   3.537   3.841 -1.2296  1.2875 -0.2334
 3084SOL    HW312103   3.886   3.446   3.958  0.8941 -1.5379 -1.7246
 3084SOL    MW412104   3.870   3.518   3.912 -0.0376 -0.4325  0.1771
 3085SOL     OW12105   5.527   2.018   2.169  0.1000 -0.4104  0.7906
 3085SOL    HW212106   5.461   1.953   2.144 -0.0436 -1.0252  2.5964
 3085SOL    HW312107   5.609   1.970   2.165  0.3629  0.1009 -0.5514
 3085SOL    MW412108   5.529   2.003   2.165  0.1157 -0.4241  0.8518
 3086SOL     OW12109   3.359   5.656   2.792 -0.2159  0.6061 -0.1566
 3086SOL    HW212110   3.368   5.720   2.862  1.0227  0.7410 -0.4031
 3086SOL    HW312111   3.346   5.708   2.713 -0.9491  0.4790 -0.1252
 3086SOL    MW412112   3.359   5.671   2.791 -0.1492  0.6071 -0.1850
 3087SOL     OW12113   1.760   3.201   1.296  0.2828 -0.1275 -0.1401
 3087SOL    HW212114   1.691   3.137   1.311 -0.8080  1.0796  0.2467
 3087SOL    HW312115   1.722   3.284   1.325  1.7210  0.6633 -0.4057
 3087SOL    MW412116   1.746   3.204   1.302  0.3287  0.1361 -0.1241
 3088SOL     OW12117   5.825   1.628   1.931 -0.1257  0.0038 -0.3194
 3088SOL    HW212118   5.883   1.595   1.862 -0.6942 -0.1253 -0.7422
 3088SOL    HW312119   5.773   1.696   1.889  0.2392  0.6490  0.2565
 3088SOL    MW412120   5.826   1.632   1.916 -0.1525  0.0719 -0.2992
 3089SOL     OW12121   0.036   2.306   5.918  0.2513  0.1206 -0.7714
 3089SOL    HW212122   0.006   2.250   5.846 -0.7955 -1.2611  0.6724
 3089SOL    HW312123   0.122   2.272   5.940 -0.0720 -0.4545 -0.3815
 3089SOL    MW412124   0.043   2.294   5.911  0.0705 -0.1376 -0.5295
 3090SOL     OW12125   5.094   3.642   0.312 -0.2806 -0.0657  0.3118
 3090SOL    HW212126   5.115   3.724   0.267 -1.8708  0.5068  0.5522
 3090SOL    HW312127   5.024   3.603   0.259 -0.3671 -0.6866  0.8677
 3090SOL    MW412128   5.087   3.648   0.299 -0.5018 -0.0721  0.4169
 3091SOL     OW12129   1.125   3.579   6.386 -0.6369 -0.4382 -0.3613
 3091SOL    HW212130   1.122   3.484   6.380  1.5598 -0.6773  1.0594
 3091SOL    HW312131   1.081   3.599   6.469  0.6563 -0.4491  0.3606
 3091SOL    MW412132   1.119   3.569   6.396 -0.1764 -0.4712 -0.0786
 3092SOL     OW12133   3.451   1.714   5.793  0.3547  0.0681  0.2835
 3092SOL    HW212134   3.543   1.738   5.800  0.5142 -0.9053  2.2497
 3092SOL    HW312135   3.406   1.779   5.848 -0.1030  0.3272 -0.3858
 3092SOL    MW412136   3.457   1.726   5.801  0.3153 -0.0261  0.4546
 3093SOL     OW12137   5.384   5.242   6.377  0.3687  0.9922  0.8950
 3093SOL    HW212138   5.371   5.287   6.294 -1.7886 -1.2560 -0.0880
 3093SOL    HW312139   5.296   5.234   6.414  0.9172 -0.7238  1.9181
 3093SOL    MW412140   5.371   5.247   6.371  0.1565  0.4692  0.9003
 3094SOL     OW12141   3.595   3.831   5.385  0.7359 -0.0909  0.0488
 3094SOL    HW212142   3.583   3.860   5.475 -0.2697  0.8766 -0.3719
 3094SOL    HW312143   3.510   3.796   5.360  0.9279 -0.0908 -0.6172
 3094SOL    MW412144   3.582   3.830   5.394  0.6286  0.0368 -0.0946
 3095SOL     OW12145   0.831   6.049   2.223 -0.3711  0.1295 -0.4050
 3095SOL    HW212146   0.819   5.955   2.235 -1.0027 -0.1424 -2.6230
 3095SOL    HW312147   0.924   6.064   2.240 -0.3034 -0.8391  0.1742
 3095SOL    MW412148   0.842   6.039   2.227 -0.4455 -0.0342 -0.6212
 3096SOL     OW12149   2.296   4.689   5.003  0.4061  0.4928 -0.6423
 3096SOL    HW212150   2.242   4.629   4.953  0.9100 -0.2743 -0.2887
 3096SOL    HW312151   2.357   4.725   4.939  0.1137  0.6160 -0.8533
 3096SOL    MW412152   2.297   4.686   4.988  0.4340  0.4078 -0.6235
 3097SOL     OW12153   2.532   2.370   3.579  0.0961  0.5651  0.2850
 3097SOL    HW212154   2.441   2.387   3.605  0.1813 -0.5559  1.4291
 3097SOL    HW312155   2.530   2.367   3.484 -1.4675 -1.3360  0.3189
 3097SOL    MW412156   2.520   2.372   3.570 -0.0990  0.1664  0.4404
 3098SOL     OW12157   1.817   3.322   4.472 -0.1121  0.2078 -0.0271
 3098SOL    HW212158   1.796   3.229   4.462  0.5753  0.1838 -1.5646
 3098SOL    HW312159   1.881   3.340   4.402 -3.0143  2.6947 -2.3268
 3098SOL    MW412160   1.823   3.312   4.461 -0.4043  0.5327 -0.5333
 3099SOL     OW12161   2.185   1.061   5.638 -0.3342 -0.4748 -0.2176
 3099SOL    HW212162   2.113   1.119   5.615 -0.0550 -0.4357 -1.0133
 3099SOL    HW312163   2.254   1.083   5.575 -0.0917 -1.4149 -0.2844
 3099SOL    MW412164   2.185   1.072   5.627 -0.2654 -0.5937 -0.3314
 3100SOL     OW12165   4.526   2.864   2.511 -0.2584 -0.1645 -0.5765
 3100SOL    HW212166   4.454   2.837   2.568  0.0698 -2.4477 -1.1176
 3100SOL    HW312167   4.537   2.958   2.527 -1.0504 -0.4583  2.0984
 3100SOL    MW412168   4.518   2.873   2.520 -0.3196 -0.5045 -0.2950
 3101SOL     OW12169   1.875   6.043   3.624  0.1885  0.4743  0.3459
 3101SOL    HW212170   1.851   5.985   3.552  1.8114  0.5027 -0.2633
 3101SOL    HW312171   1.800   6.041   3.683 -1.1058  0.2844 -1.2400
 3101SOL    MW412172   1.862   6.035   3.622  0.2319  0.4530  0.0563
 3102SOL     OW12173   5.218   4.046   1.115  0.3089  0.2377 -0.8307
 3102SOL    HW212174   5.149   3.984   1.139  0.0768 -0.1029 -2.2432
 3102SOL    HW312175   5.279   4.043   1.188 -1.5872  1.2379  0.9010
 3102SOL    MW412176   5.217   4.037   1.128  0.0281  0.3247 -0.7886
 3103SOL     OW12177   2.597   1.316   0.706 -0.2968  0.0874 -0.1173
 3103SOL    HW212178   2.687   1.283   0.711 -0.0159  0.1985 -2.9188
 3103SOL    HW312179   2.606   1.402   0.665 -1.6311  0.5445  0.4995
 3103SOL    MW412180   2.610   1.323   0.702 -0.4357  0.1624 -0.4055
 3104SOL     OW12181   0.305   1.362   5.493  0.0709 -0.4764 -0.2070
 3104SOL    HW212182   0.319   1.267   5.488  0.7807 -0.4440  0.8344
 3104SOL    HW312183   0.372   1.399   5.436 -1.9664 -0.6623 -2.8955
 3104SOL    MW412184   0.316   1.354   5.485 -0.1043 -0.4967 -0.4243
 3105SOL     OW12185   4.438   3.466   6.212  0.3538  0.1183 -0.8262
 3105SOL    HW212186   4.516   3.485   6.159  0.2399  1.9536 -0.3857
 3105SOL    HW312187   4.425   3.544   6.265 -0.7244 -0.8909  0.4681
 3105SOL    MW412188   4.446   3.479   6.212  0.1965  0.2273 -0.5973
 3106SOL     OW12189   4.601   6.193   4.836 -0.6624 -0.0008  0.4690
 3106SOL    HW212190   4.579   6.209   4.744  0.2616  0.8789  0.3732
 3106SOL    HW312191   4.621   6.280   4.871 -3.3956  0.0250  2.1974
 3106SOL    MW412192   4.601   6.206   4.828 -0.9011  0.1186  0.6844
 3107SOL     OW12193   5.173   1.245   5.921  0.4059 -0.4535  0.1713
 3107SOL    HW212194   5.173   1.341   5.918  0.1111 -0.4794 -1.5176
 3107SOL    HW312195   5.104   1.223   5.983  1.1003  0.4215  1.2855
 3107SOL    MW412196   5.164   1.255   5.929  0.4586 -0.3415  0.0954
 3108SOL     OW12197   2.918   5.137   4.253 -0.0410 -0.3460  0.3320
 3108SOL    HW212198   2.950   5.103   4.169 -3.6260 -2.1110 -0.5502
 3108SOL    HW312199   2.919   5.232   4.242  0.7030 -0.4999 -1.2579
 3108SOL    MW412200   2.922   5.145   4.240 -0.4158 -0.5992  0.0058
 3109SOL     OW12201   2.748   1.661   0.941  0.1745 -0.4016  1.0058
 3109SOL    HW212202   2.745   1.644   1.035 -1.2914 -2.6069  0.6363
 3109SOL    HW312203   2.658   1.646   0.911  0.8727 -1.0641 -0.9146
 3109SOL    MW412204   2.736   1.657   0.950  0.0732 -0.7799  0.7037
 3110SOL     OW12205   6.414   1.653   2.905  0.1317  0.5783  0.5520
 3110SOL    HW212206   6.382   1.628   2.818  0.6964  1.2008  0.1503
 3110SOL    HW312207   6.509   1.663   2.893  0.4567 -0.8644  1.6200
 3110SOL    MW412208   6.422   1.651   2.892  0.2491  0.4701  0.6399
 3111SOL     OW12209   2.539   2.371   4.442 -0.1508 -0.4483 -0.3887
 3111SOL    HW212210   2.486   2.450   4.434  0.2267 -0.0851  0.5464
 3111SOL    HW312211   2.623   2.402   4.475  0.5738 -1.0452 -1.5883
 3111SOL    MW412212   2.543   2.386   4.445 -0.0054 -0.4791 -0.4236
 3112SOL     OW12213   2.683   6.321   2.952  0.0565 -0.2136  0.0646
 3112SOL    HW212214   2.679   6.264   3.029  0.0427  0.6091  0.6896
 3112SOL    HW312215   2.696   6.408   2.988 -0.1157  0.2075 -0.8687
 3112SOL    MW412216   2.684   6.325   2.967  0.0320 -0.0495  0.0239
 3113SOL     OW12217   1.268   1.392   3.997  0.2997  0.0419  0.2115
 3113SOL    HW212218   1.360   1.403   4.022  0.6216 -1.6782 -0.1360
 3113SOL    HW312219   1.240   1.480   3.973  2.1823  0.4159 -0.8082
 3113SOL    MW412220   1.277   1.405   3.997  0.5905 -0.1357  0.0311
 3114SOL     OW12221   5.136   1.821   5.678 -0.2871  0.0601 -0.3928
 3114SOL    HW212222   5.124   1.851   5.768 -0.1182  1.4511 -0.7944
 3114SOL    HW312223   5.230   1.832   5.662 -0.1487 -1.1068 -0.4430
 3114SOL    MW412224   5.147   1.827   5.687 -0.2466  0.0897 -0.4524
 3115SOL     OW12225   3.575   3.624   5.058  0.2599  0.4732 -0.3553
 3115SOL    HW212226   3.653   3.608   5.110  1.6362  0.9251 -2.1797
 3115SOL    HW312227   3.550   3.538   5.024  1.0658  0.5626 -1.2166
 3115SOL    MW412228   3.582   3.611   5.060  0.5478  0.5446 -0.7096
 3116SOL     OW12229   0.240   3.408   3.609  0.1304  0.0210 -0.5310
 3116SOL    HW212230   0.260   3.467   3.537  0.3649 -1.1012 -1.4212
 3116SOL    HW312231   0.309   3.341   3.605  0.3537  0.1281  0.9608
 3116SOL    MW412232   0.252   3.407   3.599  0.1908 -0.1129 -0.4516
 3117SOL     OW12233   4.425   2.212   2.013 -0.6045 -0.1683 -0.8622
 3117SOL    HW212234   4.416   2.150   1.940  1.1673 -1.1463 -0.2944
 3117SOL    HW312235   4.457   2.292   1.972 -1.6887 -0.0031 -1.4295
 3117SOL    MW412236   4.428   2.214   1.998 -0.5138 -0.2755 -0.8621
 3118SOL     OW12237   2.502   2.641   5.241 -0.4872  0.0572 -0.1644
 3118SOL    HW212238   2.514   2.726   5.284 -1.9410 -0.4542  1.3518
 3118SOL    HW312239   2.589   2.601   5.242  0.0109  1.1127  0.0102
 3118SOL    MW412240   2.515   2.647   5.247 -0.6133  0.1290  0.0587
 3119SOL     OW12241   1.316   3.223   5.096 -0.1292  0.5062 -0.1278
 3119SOL    HW212242   1.367   3.290   5.050 -1.5395  2.7130  1.3773
 3119SOL    HW312243   1.256   3.188   5.030  1.7767 -0.6265 -1.3709
 3119SOL    MW412244   1.315   3.227   5.081 -0.0638  0.6479 -0.0932
 3120SOL     OW12245   1.671   5.753   5.386  0.3516  0.2405 -0.4917
 3120SOL    HW212246   1.730   5.778   5.315 -0.1437  1.0649 -0.6285
 3120SOL    HW312247   1.688   5.816   5.456 -0.2779  0.4159 -0.4877
 3120SOL    MW412248   1.681   5.764   5.386  0.2032  0.3724 -0.5092
 3121SOL     OW12249   4.417   4.243   3.450  0.0221  0.4433  0.1053
 3121SOL    HW212250   4.411   4.337   3.433 -1.3600  0.1141 -1.5347
 3121SOL    HW312251   4.326   4.212   3.449  0.5390 -1.2170 -1.4719
 3121SOL    MW412252   4.404   4.251   3.448 -0.0921  0.1808 -0.3192
 3122SOL     OW12253   0.218   5.385   3.100 -0.1232 -0.3095 -0.9621
 3122SOL    HW212254   0.170   5.468   3.093  0.9858  0.4271 -0.0924
 3122SOL    HW312255   0.236   5.376   3.193 -1.5665 -2.3333 -0.8009
 3122SOL    MW412256   0.214   5.395   3.111 -0.1673 -0.4793 -0.8261
 3123SOL     OW12257   2.247   4.211   3.456 -0.4281 -0.4725  0.1388
 3123SOL    HW212258   2.171   4.155   3.470  0.7452 -2.4364 -0.9004
 3123SOL    HW312259   2.246   4.231   3.363  1.6197 -2.6383 -0.4465
 3123SOL    MW412260   2.237   4.206   3.446 -0.0031 -1.0173 -0.0755
 3124SOL     OW12261   3.887   5.467   2.947 -0.1069  0.3792 -0.6388
 3124SOL    HW212262   3.947   5.394   2.964  1.3455  1.8282  0.7667
 3124SOL    HW312263   3.908   5.495   2.858  0.0978 -0.1842 -0.7750
 3124SOL    MW412264   3.898   5.461   2.937  0.1117  0.4961 -0.4714
 3125SOL     OW12265   5.168   1.095   1.300  0.2826  0.3601  0.4568
 3125SOL    HW212266   5.213   1.162   1.351  0.5919 -0.5860  1.4576
 3125SOL    HW312267   5.239   1.042   1.262  0.0409  0.2797  0.1139
 3125SOL    MW412268   5.183   1.097   1.301  0.2915  0.2247  0.5436
 3126SOL     OW12269   2.918   2.750   1.021 -0.5435  0.2569 -0.0950
 3126SOL    HW212270   3.002   2.719   1.052 -0.8510  0.4041  0.9321
 3126SOL    HW312271   2.873   2.672   0.989  0.0044  0.1926 -0.7314
 3126SOL    MW412272   2.923   2.736   1.021 -0.5118  0.2678 -0.0434
 3127SOL     OW12273   5.454   5.226   5.762 -0.3931  0.4384 -0.1435
 3127SOL    HW212274   5.504   5.208   5.682  0.8231 -1.6235  1.0035
 3127SOL    HW312275   5.363   5.231   5.732  0.0711  0.2499 -1.7116
 3127SOL    MW412276   5.448   5.225   5.747 -0.1714  0.1415 -0.1991
 3128SOL     OW12277   0.163   3.780   0.320  0.4383  0.0719 -0.4373
 3128SOL    HW212278   0.139   3.833   0.244 -1.3432  1.5945  1.0697
 3128SOL    HW312279   0.099   3.804   0.387  0.6620 -2.7231  0.9318
 3128SOL    MW412280   0.152   3.790   0.319  0.2328 -0.0960 -0.0579
 3129SOL     OW12281   3.273   2.430   3.096  0.1580  0.0370  0.1029
 3129SOL    HW212282   3.268   2.356   3.157 -3.5272 -0.0988 -0.1080
 3129SOL    HW312283   3.202   2.488   3.124  1.1632  2.1361 -1.4509
 3129SOL    MW412284   3.263   2.428   3.108 -0.1956  0.2960 -0.1299
 3130SOL     OW12285   5.345   2.083   6.284 -0.1829  0.3080  0.7980
 3130SOL    HW212286   5.260   2.059   6.245  0.0948  1.2770 -0.4704
 3130SOL    HW312287   5.340   2.050   6.374 -2.4588  1.5907  1.2086
 3130SOL    MW412288   5.333   2.075   6.290 -0.4465  0.6051  0.6848
 3131SOL     OW12289   3.861   5.182   0.017  0.0384  0.0353 -0.6137
 3131SOL    HW212290   3.897   5.268   0.040 -0.8686  0.2396  0.1196
 3131SOL    HW312291   3.808   5.200  -0.061 -0.4854  0.2400 -0.2206
 3131SOL    MW412292   3.859   5.196   0.010 -0.1504  0.0892 -0.4651
 3132SOL     OW12293   1.784   1.472   5.870  0.1895  0.1416  0.4063
 3132SOL    HW212294   1.747   1.391   5.905  0.3663 -1.1135 -2.1089
 3132SOL    HW312295   1.855   1.494   5.931 -0.1933 -1.2872  1.4216
 3132SOL    MW412296   1.788   1.464   5.883  0.1623 -0.2125  0.2084
 3133SOL     OW12297   4.767   5.286   4.983  0.3027 -0.0550 -0.6357
 3133SOL    HW212298   4.757   5.370   5.027  1.8811 -0.7645  1.2323
 3133SOL    HW312299   4.855   5.289   4.945 -0.3238 -0.1918 -2.1367
 3133SOL    MW412300   4.777   5.297   4.984  0.4283 -0.1666 -0.5872
 3134SOL     OW12301   5.462   3.386   5.865 -0.4861 -0.0801  0.2064
 3134SOL    HW212302   5.510   3.307   5.842  0.4670  0.0768  1.5575
 3134SOL    HW312303   5.528   3.445   5.903 -0.8691  1.9694 -2.0687
 3134SOL    MW412304   5.477   3.383   5.867 -0.4109  0.2110  0.0845
 3135SOL     OW12305   6.007   5.624   2.866  0.0885  0.1303 -0.1574
 3135SOL    HW212306   5.943   5.654   2.931  0.5149  0.8475 -0.0533
 3135SOL    HW312307   5.978   5.662   2.783 -0.2940 -0.5451 -0.3335
 3135SOL    MW412308   5.995   5.633   2.864  0.0943  0.1358 -0.1669
 3136SOL     OW12309   1.977   1.644   1.885 -0.0952  0.2534  0.3660
 3136SOL    HW212310   1.915   1.710   1.912 -0.9755  0.1083 -1.1985
 3136SOL    HW312311   1.939   1.605   1.806  0.1009 -2.5120  1.5287
 3136SOL    MW412312   1.964   1.647   1.878 -0.1855 -0.1306  0.3130
 3137SOL     OW12313   2.371   4.932   0.434 -0.0033  0.1791  0.3242
 3137SOL    HW212314   2.339   4.929   0.524 -1.8037 -2.6686 -0.2732
 3137SOL    HW312315   2.336   4.853   0.394  0.0866  1.7076 -3.1181
 3137SOL    MW412316   2.362   4.921   0.441 -0.2290  0.0051 -0.2088
 3138SOL     OW12317   2.277   0.166   4.444 -0.5998 -0.4813  0.2086
 3138SOL    HW212318   2.304   0.175   4.353 -1.0124 -0.9749  0.0287
 3138SOL    HW312319   2.320   0.086   4.475  0.5841  0.3831  0.8508
 3138SOL    MW412320   2.286   0.157   4.436 -0.4980 -0.4324  0.2696
 3139SOL     OW12321   2.529   1.354   3.193  0.0405 -0.1976  0.1085
 3139SOL    HW212322   2.623   1.352   3.176  0.3345  0.6122  1.4802
 3139SOL    HW312323   2.491   1.388   3.112  0.5421 -3.4740 -1.6898
 3139SOL    MW412324   2.536   1.358   3.180  0.1455 -0.5230  0.0522
 3140SOL     OW12325   0.133   0.913   5.861  0.5810  0.5754  0.1232
 3140SOL    HW212326   0.178   0.910   5.777 -0.2347 -1.1265 -0.3109
 3140SOL    HW312327   0.050   0.957   5.843  0.2095 -0.1899 -0.0970
 3140SOL    MW412328   0.128   0.918   5.848  0.4243  0.2499  0.0369
 3141SOL     OW12329   4.393   3.950   2.702  0.1518 -0.2563 -0.1377
 3141SOL    HW212330   4.412   3.889   2.774 -0.0328 -0.8562 -0.5855
 3141SOL    HW312331   4.343   4.020   2.743 -0.6012 -0.9630  0.1827
 3141SOL    MW412332   4.389   3.951   2.717  0.0281 -0.4287 -0.1545
 3142SOL     OW12333   5.336   4.285   5.802  0.3545  0.2515  0.7011
 3142SOL    HW212334   5.423   4.245   5.803  0.2248 -0.0382  0.5706
 3142SOL    HW312335   5.289   4.239   5.733  0.3424  0.9386  0.2402
 3142SOL    MW412336   5.341   4.274   5.793  0.3358  0.3039  0.6231
 3143SOL     OW12337   2.501   1.040   1.318  0.1346 -0.1235  0.6410
 3143SOL    HW212338   2.538   1.018   1.232  1.1828 -2.1450  1.5481
 3143SOL    HW312339   2.429   1.100   1.298  1.0180  0.3312 -1.5516
 3143SOL    MW412340   2.496   1.045   1.304  0.3895 -0.3302  0.4714
 3144SOL     OW12341   1.825   1.303   2.407  0.3432 -0.3708  0.3335
 3144SOL    HW212342   1.918   1.286   2.394  0.4484  0.0476  0.5064
 3144SOL    HW312343   1.787   1.218   2.428  0.5929 -0.6340 -0.2473
 3144SOL    MW412344   1.832   1.289   2.408  0.3900 -0.3503  0.2797
 3145SOL     OW12345   3.428   4.261   3.952  0.5542 -0.1324 -0.4818
 3145SOL    HW212346   3.441   4.354   3.935  1.2023 -0.6566 -3.4126
 3145SOL    HW312347   3.517   4.225   3.957  0.4101 -0.3189  3.2234
 3145SOL    MW412348   3.442   4.268   3.950  0.6207 -0.2261 -0.3796
 3146SOL     OW12349   4.729   0.454   5.091  0.0438  0.2076  1.2839
 3146SOL    HW212350   4.736   0.545   5.120 -0.7884  0.0849  1.9078
 3146SOL    HW312351   4.646   0.423   5.127  0.1556 -0.7045  0.8024
 3146SOL    MW412352   4.719   0.462   5.100 -0.0512  0.0711  1.3027
 3147SOL     OW12353   0.831   1.753   1.013 -0.0855  0.0786  0.1184
 3147SOL    HW212354   0.885   1.674   1.019  0.3406  0.4390  1.7760
 3147SOL    HW312355   0.879   1.818   1.064 -0.1009  1.6353 -1.7353
 3147SOL    MW412356   0.844   1.751   1.021 -0.0313  0.3315  0.0926
 3148SOL     OW12357   1.799   2.253   5.595 -0.3880 -0.2318 -0.4404
 3148SOL    HW212358   1.786   2.295   5.510  0.7758 -0.6162 -0.8203
 3148SOL    HW312359   1.859   2.311   5.642  1.6267 -1.6211 -1.1476
 3148SOL    MW412360   1.805   2.266   5.590  0.0314 -0.4659 -0.5838
 3149SOL     OW12361   3.307   0.705   2.079  0.1851 -0.4450 -0.2185
 3149SOL    HW212362   3.316   0.626   2.133 -0.3055 -1.3936 -1.4684
 3149SOL    HW312363   3.323   0.674   1.990  0.0383  0.9002 -0.7307
 3149SOL    MW412364   3.310   0.690   2.075  0.1010 -0.3927 -0.4510
 3150SOL     OW12365   4.697   3.593   0.223  0.3035  0.0490 -0.0154
 3150SOL    HW212366   4.745   3.531   0.278 -1.0586 -1.3994 -0.4008
 3150SOL    HW312367   4.608   3.592   0.257  0.2429  1.8416 -0.0228
 3150SOL    MW412368   4.692   3.585   0.234  0.1158  0.0944 -0.0672
 3151SOL     OW12369   3.253   0.390   4.809  0.5513  0.2591 -0.3678
 3151SOL    HW212370   3.315   0.421   4.874  2.1388 -0.2036 -1.6074
 3151SOL    HW312371   3.227   0.303   4.839 -0.5168  0.9442  0.8022
 3151SOL    MW412372   3.258   0.383   4.821  0.6199  0.2885 -0.3770
 3152SOL     OW12373   5.559   5.101   1.266 -0.8180 -0.6045 -0.3768
 3152SOL    HW212374   5.534   5.016   1.231 -0.3402 -0.3248 -1.4493
 3152SOL    HW312375   5.484   5.157   1.246 -0.4474 -0.3869 -1.2175
 3152SOL    MW412376   5.546   5.097   1.259 -0.7061 -0.5389 -0.6293
 3153SOL     OW12377   4.976   5.207   3.881  0.7458 -0.6744 -0.0084
 3153SOL    HW212378   5.027   5.195   3.962 -0.5666 -0.5377  0.8637
 3153SOL    HW312379   5.030   5.167   3.813  1.4146 -1.7330  1.0949
 3153SOL    MW412380   4.990   5.200   3.883  0.6609 -0.7960  0.2522
 3154SOL     OW12381   3.056   4.728   2.786 -0.2047 -0.5215 -0.4207
 3154SOL    HW212382   3.060   4.662   2.855 -0.6474 -0.2359 -0.1158
 3154SOL    HW312383   3.046   4.811   2.833  1.8635 -0.0464 -0.7275
 3154SOL    MW412384   3.055   4.730   2.801  0.0097 -0.4211 -0.4210
 3155SOL     OW12385   4.366   5.658   3.691 -0.3836 -0.4105  0.1410
 3155SOL    HW212386   4.442   5.712   3.712 -0.7160 -0.1724  0.7595
 3155SOL    HW312387   4.329   5.635   3.776 -3.2205  2.6267 -0.0404
 3155SOL    MW412388   4.371   5.662   3.705 -0.8017  0.0216  0.1987
 3156SOL     OW12389   5.363   1.217   5.182  0.4977  0.3210 -0.2528
 3156SOL    HW212390   5.439   1.198   5.126  0.8838 -0.0042  0.3743
 3156SOL    HW312391   5.401   1.258   5.260  0.2787 -1.7944  1.0233
 3156SOL    MW412392   5.378   1.220   5.185  0.5197 -0.0010 -0.0017
 3157SOL     OW12393   1.925   5.377   5.356  0.6411 -0.2490 -0.8235
 3157SOL    HW212394   1.836   5.392   5.387  1.1581  1.0792  0.1425
 3157SOL    HW312395   1.915   5.337   5.270 -0.8681 -0.7308 -0.4508
 3157SOL    MW412396   1.912   5.374   5.349  0.5102 -0.1373 -0.6469
 3158SOL     OW12397   0.351   3.580   1.710 -0.1268  0.1123 -0.3811
 3158SOL    HW212398   0.296   3.646   1.752 -2.4585 -0.8511 -1.7076
 3158SOL    HW312399   0.298   3.500   1.713  2.0000 -1.3472 -0.1338
 3158SOL    MW412400   0.336   3.578   1.716 -0.1538 -0.2074 -0.5235
 3159SOL     OW12401   2.115   0.803   5.691  0.0784 -0.3552  0.6590
 3159SOL    HW212402   2.139   0.894   5.671 -0.0695 -0.4533  0.0072
 3159SOL    HW312403   2.196   0.762   5.719  0.3561 -0.2722  0.0042
 3159SOL    MW412404   2.129   0.810   5.692  0.0955 -0.3572  0.4866
 3160SOL     OW12405   0.782   4.940   0.817  0.2795 -0.0911  0.4000
 3160SOL    HW212406   0.758   4.867   0.874 -0.1735  0.4196  0.8670
 3160SOL    HW312407   0.867   4.969   0.851 -0.1436  0.4284  1.0397
 3160SOL    MW412408   0.790   4.934   0.829  0.1639  0.0448  0.5460
 3161SOL     OW12409   0.192   2.099   2.045  0.0868  0.0212  0.5535
 3161SOL    HW212410   0.207   2.187   2.080  1.6601 -0.6346  1.6201
 3161SOL    HW312411   0.161   2.049   2.120  0.6646 -0.6861  0.3290
 3161SOL    MW412412   0.190   2.104   2.059  0.3706 -0.1587  0.6646
 3162SOL     OW12413   3.380   6.113   4.429  0.6314 -0.0661 -0.0387
 3162SOL    HW212414   3.320   6.057   4.478  2.5009 -1.3551  0.9426
 3162SOL    HW312415   3.329   6.190   4.406 -1.4830 -1.2887  0.3387
 3162SOL    MW412416   3.366   6.116   4.432  0.5991 -0.3974  0.1406
 3163SOL     OW12417   1.906   2.811   3.307 -0.2521 -0.3721  0.0328
 3163SOL    HW212418   1.988   2.827   3.354 -0.4136 -2.0214  0.9453
 3163SOL    HW312419   1.899   2.884   3.246  0.8942  0.8560  1.3027
 3163SOL    MW412420   1.916   2.823   3.305 -0.1221 -0.4277  0.3208
 3164SOL     OW12421   4.840   3.082   2.079  0.2488 -0.1542  0.0525
 3164SOL    HW212422   4.840   3.174   2.108 -0.2221  0.2307 -1.1288
 3164SOL    HW312423   4.811   3.033   2.156  0.2604  0.7169  0.6248
 3164SOL    MW412424   4.836   3.088   2.093  0.1882  0.0115 -0.0279
 3165SOL     OW12425   5.636   4.120   6.102  0.2957  0.0359  0.0422
 3165SOL    HW212426   5.667   4.112   6.192  1.4332  0.4647 -0.2972
 3165SOL    HW312427   5.715   4.114   6.048  0.1344  3.1839 -0.7542
 3165SOL    MW412428   5.650   4.118   6.107  0.4245  0.5078 -0.1076
 3166SOL     OW12429   5.347   2.635   1.421 -0.0695  0.1450 -0.0971
 3166SOL    HW212430   5.414   2.629   1.353  0.2483 -1.3366  0.3014
 3166SOL    HW312431   5.278   2.689   1.383  0.0641 -0.7172 -1.6362
 3166SOL    MW412432   5.347   2.641   1.407 -0.0100 -0.1643 -0.2476
 3167SOL     OW12433   5.947   4.161   1.595  0.1238 -0.1645 -0.3881
 3167SOL    HW212434   5.932   4.190   1.505  0.7094  0.9053 -0.1505
 3167SOL    HW312435   5.896   4.079   1.602 -0.5087  0.1119 -1.4631
 3167SOL    MW412436   5.938   4.154   1.584  0.1176  0.0131 -0.4986
 3168SOL     OW12437   1.815   4.052   1.743 -0.1621 -0.6929  0.6852
 3168SOL    HW212438   1.752   4.102   1.796  0.4875  2.0250 -0.8701
 3168SOL    HW312439   1.897   4.101   1.751  0.9710 -2.4410  0.2526
 3168SOL    MW412440   1.817   4.065   1.751  0.0731 -0.5649  0.4229
 3169SOL     OW12441   5.047   3.356   2.885 -0.1820  0.2008  0.0796
 3169SOL    HW212442   5.115   3.352   2.818  0.9021 -0.1150  1.1742
 3169SOL    HW312443   4.998   3.436   2.865 -0.6334 -0.4958 -1.7834
 3169SOL    MW412444   5.049   3.366   2.873 -0.0985  0.0672 -0.0218
 3170SOL     OW12445   6.221   3.735   4.471  0.5079 -0.6338  0.3420
 3170SOL    HW212446   6.151   3.791   4.438  0.6291 -0.2199  0.7806
 3170SOL    HW312447   6.182   3.647   4.474 -0.4904 -0.1869  1.9690
 3170SOL    MW412448   6.207   3.731   4.467  0.3922 -0.5202  0.6146
 3171SOL     OW12449   6.292   4.923   6.009 -0.0629  0.0957 -0.2880
 3171SOL    HW212450   6.340   4.921   5.927  0.2787  0.3046 -0.0938
 3171SOL    HW312451   6.276   4.831   6.030  1.7048 -0.0665  0.4977
 3171SOL    MW412452   6.296   4.911   6.001  0.2154  0.1019 -0.1587
 3172SOL     OW12453   3.628   1.428   3.551 -0.2128 -0.1373 -0.3596
 3172SOL    HW212454   3.550   1.386   3.587 -0.5961  0.3395 -0.6153
 3172SOL    HW312455   3.701   1.380   3.589 -0.6297 -1.0611 -0.6746
 3172SOL    MW412456   3.627   1.416   3.560 -0.3183 -0.1963 -0.4349
 3173SOL     OW12457   2.980   3.473   1.781  0.2261  0.0117  0.0292
 3173SOL    HW212458   3.022   3.553   1.813  1.8871 -1.0075  0.4936
 3173SOL    HW312459   2.976   3.485   1.686 -0.3096  0.9928  0.1644
 3173SOL    MW412460   2.985   3.486   1.773  0.3745  0.0066  0.1083
 3174SOL     OW12461   5.417   3.073   5.201  0.2506  0.6178 -0.3860
 3174SOL    HW212462   5.334   3.038   5.234  0.1709 -0.3603 -1.5556
 3174SOL    HW312463   5.481   3.049   5.268  0.0486 -1.0820 -0.7535
 3174SOL    MW412464   5.415   3.065   5.214  0.2135  0.2644 -0.5888
 3175SOL     OW12465   5.383   4.332   1.348 -0.4353 -0.0029 -0.4109
 3175SOL    HW212466   5.292   4.350   1.322 -0.2859  0.3200 -0.7162
 3175SOL    HW312467   5.436   4.383   1.287 -0.0476 -0.1370 -0.1900
 3175SOL    MW412468   5.378   4.341   1.337 -0.3645  0.0220 -0.4220
 3176SOL     OW12469   2.726   3.478   3.623  0.0121 -0.1858  0.2901
 3176SOL    HW212470   2.727   3.447   3.714  0.6102 -0.4828  0.1893
 3176SOL    HW312471   2.636   3.503   3.607 -0.0167  0.2681  1.1090
 3176SOL    MW412472   2.715   3.477   3.633  0.0872 -0.1651  0.3848
 3177SOL     OW12473   4.123   2.378   3.849  0.2515  0.3213  0.0457
 3177SOL    HW212474   4.078   2.389   3.933 -1.7838 -0.5192 -0.8447
 3177SOL    HW312475   4.149   2.286   3.847 -1.0381 -0.0584 -0.7971
 3177SOL    MW412476   4.120   2.367   3.859 -0.1872  0.1603 -0.1830
 3178SOL     OW12477   4.453   1.272   4.261  0.2009 -0.8696  0.2318
 3178SOL    HW212478   4.489   1.199   4.311  1.3545  0.0978  0.8550
 3178SOL    HW312479   4.510   1.280   4.185 -0.3064 -1.0035 -0.1715
 3178SOL    MW412480   4.465   1.263   4.258  0.2861 -0.7597  0.2608
 3179SOL     OW12481   2.963   4.981   5.739 -0.8300 -0.2854 -0.1909
 3179SOL    HW212482   2.879   4.943   5.765 -0.5861 -0.5879  0.1683
 3179SOL    HW312483   2.946   5.075   5.732 -1.1654 -0.3306  0.0047
 3179SOL    MW412484   2.949   4.988   5.741 -0.8421 -0.3313 -0.1177
 3180SOL     OW12485   0.087   4.511   4.855  0.2835 -0.1680 -0.1921
 3180SOL    HW212486   0.148   4.466   4.796  0.7638 -1.0019  0.8999
 3180SOL    HW312487   0.043   4.576   4.800  1.3834 -0.2869 -1.2416
 3180SOL    MW412488   0.089   4.513   4.840  0.4920 -0.2937 -0.1865
 3181SOL     OW12489   0.294   2.664   6.253  0.0133  0.0079  0.2502
 3181SOL    HW212490   0.345   2.745   6.249  2.6057 -1.5287 -0.7560
 3181SOL    HW312491   0.284   2.638   6.161 -1.8956 -0.1843  0.4862
 3181SOL    MW412492   0.300   2.671   6.240  0.1034 -0.2202  0.1486
 3182SOL     OW12493   2.225   1.809   5.431 -0.5340 -0.2366 -0.7404
 3182SOL    HW212494   2.184   1.834   5.513 -0.1198  2.4053 -1.2523
 3182SOL    HW312495   2.280   1.734   5.454 -2.3110 -1.1383  0.8262
 3182SOL    MW412496   2.227   1.802   5.445 -0.7138 -0.0070 -0.6012
 3183SOL     OW12497   5.881   3.179   1.427  0.2862  0.4624  0.2583
 3183SOL    HW212498   5.836   3.107   1.471  0.6848  0.3091  0.4178
 3183SOL    HW312499   5.883   3.154   1.334  0.3354  0.3132  0.3001
 3183SOL    MW412500   5.876   3.167   1.420  0.3453  0.4225  0.2848
 3184SOL     OW12501   5.504   5.629   6.416  0.1317  0.2422  0.3085
 3184SOL    HW212502   5.522   5.723   6.418 -0.4143  0.3445  0.6643
 3184SOL    HW312503   5.415   5.621   6.449  0.2375 -0.4195  0.4491
 3184SOL    MW412504   5.495   5.640   6.421  0.0736  0.1684  0.3740
 3185SOL     OW12505   2.621   3.843   1.542  0.1690 -0.9178 -0.6385
 3185SOL    HW212506   2.684   3.874   1.477  1.0004  0.7400  0.8600
 3185SOL    HW312507   2.593   3.758   1.509  1.0829 -0.4704 -2.7769
 3185SOL    MW412508   2.626   3.836   1.529  0.3993 -0.6401 -0.7229
 3186SOL     OW12509   5.422   5.269   0.420  0.1029  0.0477  0.0399
 3186SOL    HW212510   5.496   5.223   0.461  2.7080  2.1582 -1.9640
 3186SOL    HW312511   5.439   5.262   0.326 -1.8293  1.3446 -0.4549
 3186SOL    MW412512   5.434   5.262   0.413  0.1917  0.4973 -0.2898
 3187SOL     OW12513   1.116   3.834   3.256  0.1421  0.3087 -0.3962
 3187SOL    HW212514   1.148   3.788   3.179  1.6387  1.4855 -0.5275
 3187SOL    HW312515   1.195   3.869   3.298 -0.4151 -1.7166  2.6395
 3187SOL    MW412516   1.131   3.833   3.252  0.2661  0.1968 -0.0130
 3188SOL     OW12517   4.817   0.547   4.798 -0.1929  0.1788 -0.2487
 3188SOL    HW212518   4.734   0.576   4.836 -0.9628 -1.7566 -0.3200
 3188SOL    HW312519   4.881   0.565   4.866 -0.6248  1.7619 -0.2123
 3188SOL    MW412520   4.814   0.553   4.812 -0.3515  0.1323 -0.2533
 3189SOL     OW12521   3.911   1.720   0.713 -0.7785  0.3215  0.0361
 3189SOL    HW212522   3.832   1.682   0.674 -0.5183  0.0750 -0.2579
 3189SOL    HW312523   3.911   1.688   0.803 -0.2457 -0.8984 -0.3684
 3189SOL    MW412524   3.900   1.710   0.720 -0.6738  0.1280 -0.0561
 3190SOL     OW12525   0.225   1.655   6.406 -0.2405  0.0889  0.1750
 3190SOL    HW212526   0.164   1.587   6.434  1.2541 -1.3487  0.0993
 3190SOL    HW312527   0.298   1.649   6.468  0.9569  0.0549 -1.1831
 3190SOL    MW412528   0.227   1.646   6.418  0.1147 -0.1053 -0.0142
 3191SOL     OW12529   3.405   0.331   1.973  0.2770 -0.5247  0.0462
 3191SOL    HW212530   3.462   0.265   1.934  0.8018 -0.2083  0.2735
 3191SOL    HW312531   3.323   0.324   1.923  1.2747  0.6048 -1.8750
 3191SOL    MW412532   3.401   0.321   1.961  0.4779 -0.3340 -0.1773
 3192SOL     OW12533   1.989   2.559   3.053  0.3384 -0.4979 -0.6820
 3192SOL    HW212534   1.994   2.468   3.025 -1.1524 -0.6627 -0.5149
 3192SOL    HW312535   1.930   2.600   2.989 -0.5121 -0.1179  0.3155
 3192SOL    MW412536   1.982   2.553   3.041  0.0295 -0.4695 -0.5283
 3193SOL     OW12537   2.212   3.547   5.837  0.1871 -0.0967  0.4210
 3193SOL    HW212538   2.157   3.528   5.913 -1.3216  0.2654 -0.5178
 3193SOL    HW312539   2.159   3.518   5.762  1.7712 -0.7756 -0.4783
 3193SOL    MW412540   2.198   3.541   5.837  0.1971 -0.1385  0.1785
 3194SOL     OW12541   3.368   1.893   2.829 -0.1145 -0.6555  0.5323
 3194SOL    HW212542   3.425   1.855   2.762  0.2327 -0.5417  0.7608
 3194SOL    HW312543   3.284   1.902   2.785  0.3810  0.4361 -0.2437
 3194SOL    MW412544   3.365   1.889   2.814 -0.0033 -0.4965  0.4601
 3195SOL     OW12545   5.444   2.152   1.707  0.3441  0.2456  0.4739
 3195SOL    HW212546   5.393   2.071   1.712  1.4075 -0.7340 -2.2899
 3195SOL    HW312547   5.427   2.184   1.618  0.3638  2.8284  1.3330
 3195SOL    MW412548   5.435   2.145   1.696  0.4870  0.4571  0.2226
 3196SOL     OW12549   4.308   0.091   0.832 -0.3685 -0.2776 -0.3552
 3196SOL    HW212550   4.280   0.105   0.741 -2.7358  0.6531  0.4361
 3196SOL    HW312551   4.380   0.152   0.845 -0.5027  0.1171 -1.3885
 3196SOL    MW412552   4.314   0.101   0.821 -0.6986 -0.1028 -0.3871
 3197SOL     OW12553   3.156   0.710   6.161 -0.0737  0.2665  0.2711
 3197SOL    HW212554   3.208   0.717   6.081  0.9543  0.1897  0.9185
 3197SOL    HW312555   3.214   0.739   6.231 -0.9320  0.2644  1.0109
 3197SOL    MW412556   3.170   0.715   6.160 -0.0513  0.2561  0.4541
 3198SOL     OW12557   4.062   5.056   3.542 -0.1501 -0.5589  0.2498
 3198SOL    HW212558   4.045   5.093   3.455  1.5610  0.7645  0.4332
 3198SOL    HW312559   3.996   5.096   3.598  0.0799  0.2553 -0.0488
 3198SOL    MW412560   4.051   5.066   3.538  0.1060 -0.2769  0.2346
 3199SOL     OW12561   5.994   5.071   3.089  0.0738 -0.4805 -0.0269
 3199SOL    HW212562   5.963   4.992   3.132 -1.2459  0.9189  1.7898
 3199SOL    HW312563   6.044   5.117   3.157  1.2226  0.0246 -1.1820
 3199SOL    MW412564   5.996   5.067   3.104  0.0513 -0.2292  0.0604
 3200SOL     OW12565   5.799   2.210   0.481 -0.1228 -0.2576 -0.3535
 3200SOL    HW212566   5.717   2.257   0.471  0.4843  0.6250 -1.4128
 3200SOL    HW312567   5.846   2.258   0.549 -0.2221 -0.3845 -0.1950
 3200SOL    MW412568   5.795   2.223   0.488 -0.0558 -0.1579 -0.4724
 3201SOL     OW12569   3.171   1.897   4.362  0.1545 -0.0765 -0.0898
 3201SOL    HW212570   3.149   1.825   4.303 -0.2197 -0.3135  0.3287
 3201SOL    HW312571   3.102   1.962   4.347  0.3048  0.0502 -0.2288
 3201SOL    MW412572   3.159   1.896   4.352  0.1249 -0.0910 -0.0529
 3202SOL     OW12573   0.890   0.855   1.936 -0.0090 -0.4946  0.5054
 3202SOL    HW212574   0.900   0.761   1.952  1.8698 -0.6085 -0.9370
 3202SOL    HW312575   0.975   0.892   1.958 -0.0876  0.5556 -0.8494
 3202SOL    MW412576   0.903   0.848   1.941  0.2285 -0.3711  0.1364
 3203SOL     OW12577   0.140   6.067   1.061  0.0765  0.1448  0.4072
 3203SOL    HW212578   0.084   6.026   1.127  0.9701  0.9079  1.6964
 3203SOL    HW312579   0.169   5.995   1.006 -1.3557 -0.3991  0.3155
 3203SOL    MW412580   0.136   6.052   1.063  0.0054  0.1737  0.5652
 3204SOL     OW12581   5.351   3.626   4.003 -0.2517 -0.8702 -0.4329
 3204SOL    HW212582   5.303   3.697   3.959  1.3603  0.0625 -0.7535
 3204SOL    HW312583   5.366   3.562   3.933  1.2617  0.0685 -1.0274
 3204SOL    MW412584   5.347   3.627   3.988  0.1606 -0.6233 -0.5537
 3205SOL     OW12585   0.939   5.182   3.630  0.2460  0.3829 -0.0923
 3205SOL    HW212586   0.936   5.275   3.607 -1.6017  0.0055 -1.6633
 3205SOL    HW312587   0.907   5.178   3.720 -1.0208  1.1857 -0.4804
 3205SOL    MW412588   0.934   5.194   3.639 -0.1649  0.4390 -0.3508
 3206SOL     OW12589   0.967   4.035   3.743  0.1251  0.8903  0.5566
 3206SOL    HW212590   0.888   4.085   3.763 -0.2807  0.4497  0.0782
 3206SOL    HW312591   0.936   3.946   3.727  0.7926  0.5672  0.9998
 3206SOL    MW412592   0.953   4.029   3.743  0.1597  0.7896  0.5520
 3207SOL     OW12593   1.570   0.395   5.818 -0.1330  0.6363  0.0132
 3207SOL    HW212594   1.553   0.302   5.804 -1.8456  1.2219 -2.5854
 3207SOL    HW312595   1.656   0.410   5.779 -0.1700  0.2575 -0.2213
 3207SOL    MW412596   1.579   0.385   5.811 -0.3638  0.6636 -0.3606
 3208SOL     OW12597   6.257   2.054   0.433  0.0926 -0.1954  0.0463
 3208SOL    HW212598   6.207   1.973   0.431  1.3266 -1.0096  0.7983
 3208SOL    HW312599   6.257   2.085   0.342 -1.0879 -0.5833 -0.0975
 3208SOL    MW412600   6.251   2.048   0.421  0.0997 -0.3540  0.1265
 3209SOL     OW12601   3.230   0.810   5.878  0.2014 -0.1974 -0.4103
 3209SOL    HW212602   3.135   0.820   5.888  0.1487 -1.1866  0.2608
 3209SOL    HW312603   3.264   0.899   5.880 -0.4748  0.0820  2.1348
 3209SOL    MW412604   3.222   0.823   5.880  0.1052 -0.2911  0.0140
 3210SOL     OW12605   3.519   3.389   1.676  0.2090 -0.2863 -0.0892
 3210SOL    HW212606   3.520   3.404   1.771 -0.2617 -0.2701 -0.0854
 3210SOL    HW312607   3.433   3.351   1.659  0.1220  0.1234 -0.5729
 3210SOL    MW412608   3.508   3.386   1.686  0.1354 -0.2301 -0.1525
 3211SOL     OW12609   5.110   3.471   3.176 -0.3564  0.5061  0.1352
 3211SOL    HW212610   5.105   3.413   3.100  1.1595 -2.9020  2.3828
 3211SOL    HW312611   5.037   3.445   3.232  1.2410 -0.5195  1.8883
 3211SOL    MW412612   5.100   3.460   3.174  0.0544 -0.0789  0.6631
 3212SOL     OW12613   4.252   0.266   2.201  0.2079  0.0013 -0.0977
 3212SOL    HW212614   4.207   0.344   2.168  0.6890  0.3924  0.1538
 3212SOL    HW312615   4.329   0.257   2.144 -0.2538 -0.7487 -0.6194
 3212SOL    MW412616   4.256   0.275   2.189  0.2104 -0.0461 -0.1334
 3213SOL     OW12617   0.564   2.117   5.508  1.3145 -0.1082 -0.3245
 3213SOL    HW212618   0.517   2.087   5.585  2.3268 -0.3725  0.2095
 3213SOL    HW312619   0.594   2.205   5.531  1.3283 -0.0542 -0.5465
 3213SOL    MW412620   0.562   2.125   5.521  1.4499 -0.1360 -0.2833
 3214SOL     OW12621   4.192   6.312   3.474  0.5053  0.0330  0.0243
 3214SOL    HW212622   4.117   6.365   3.444  1.3361  1.2451 -0.0022
 3214SOL    HW312623   4.173   6.224   3.443 -1.5128  0.0407  1.1044
 3214SOL    MW412624   4.179   6.308   3.466  0.3486  0.1939  0.1633
 3215SOL     OW12625   5.314   4.214   1.582 -0.2359 -0.5767 -0.4994
 3215SOL    HW212626   5.335   4.241   1.493 -0.9165 -0.8788 -0.7572
 3215SOL    HW312627   5.224   4.242   1.596  0.6389  1.7687  1.0221
 3215SOL    MW412628   5.305   4.221   1.572 -0.2103 -0.3071 -0.3327
 3216SOL     OW12629   1.784   2.546   3.319 -0.1193  0.6080 -0.3403
 3216SOL    HW212630   1.829   2.631   3.318  2.0107 -0.3123  3.0900
 3216SOL    HW312631   1.718   2.555   3.387  0.3689 -0.5940  0.3092
 3216SOL    MW412632   1.781   2.559   3.328  0.2261  0.3280  0.1980
 3217SOL     OW12633   1.516   4.520   3.213  0.2755  0.2950  0.0477
 3217SOL    HW212634   1.517   4.616   3.202  0.1422  0.0771 -2.7936
 3217SOL    HW312635   1.424   4.496   3.198  0.2088 -0.2623  1.2601
 3217SOL    MW412636   1.504   4.530   3.209  0.2491  0.1927 -0.1672
 3218SOL     OW12637   1.801   0.309   2.799 -0.5166  0.4913 -0.1954
 3218SOL    HW212638   1.795   0.317   2.894  1.6201 -0.7034  0.1103
 3218SOL    HW312639   1.764   0.223   2.779  3.5290 -1.5846  0.2890
 3218SOL    MW412640   1.795   0.299   2.809  0.2991  0.0597 -0.0911
 3219SOL     OW12641   4.778   4.620   3.530 -0.3823 -0.0021 -0.4226
 3219SOL    HW212642   4.753   4.568   3.453  0.9628  2.6421 -2.8068
 3219SOL    HW312643   4.766   4.560   3.603 -2.5885 -2.4174 -2.5377
 3219SOL    MW412644   4.773   4.605   3.529 -0.4959  0.0281 -1.0162
 3220SOL     OW12645   6.239   4.590   4.380 -0.7331  0.4759 -0.8384
 3220SOL    HW212646   6.177   4.527   4.417  0.0504  1.0907  1.6552
 3220SOL    HW312647   6.198   4.675   4.393 -0.0680  0.7712 -0.6535
 3220SOL    MW412648   6.225   4.593   4.386 -0.5420  0.5960 -0.4850
 3221SOL     OW12649   3.700   4.224   4.110 -0.0272  0.6496  0.4892
 3221SOL    HW212650   3.638   4.171   4.161  0.8379  0.5492  1.4759
 3221SOL    HW312651   3.707   4.180   4.026 -1.0366  0.4801  0.4787
 3221SOL    MW412652   3.692   4.211   4.106 -0.0462  0.6140  0.6180
 3222SOL     OW12653   1.337   6.128   0.668 -0.2539  0.2617  0.3967
 3222SOL    HW212654   1.342   6.223   0.680  1.5930  0.1836  0.4699
 3222SOL    HW312655   1.409   6.093   0.720 -1.3147 -1.2612  0.9242
 3222SOL    MW412656   1.347   6.136   0.676 -0.1502  0.0505  0.4760
 3223SOL     OW12657   1.716   1.788   0.951 -0.3106 -0.2098 -0.5113
 3223SOL    HW212658   1.680   1.747   0.873 -1.3310  0.2686 -0.3186
 3223SOL    HW312659   1.803   1.750   0.961 -0.4508 -0.8109 -1.4624
 3223SOL    MW412660   1.722   1.778   0.942 -0.4637 -0.2260 -0.6114
 3224SOL     OW12661   2.087   1.199   2.333 -0.3065 -0.1118 -0.3699
 3224SOL    HW212662   2.147   1.255   2.382 -1.2174 -0.0809  0.7692
 3224SOL    HW312663   2.081   1.119   2.386  0.9365 -1.3047 -1.9341
 3224SOL    MW412664   2.094   1.196   2.347 -0.2627 -0.2651 -0.4260
 3225SOL     OW12665   1.625   2.887   4.001  0.5367 -0.8788 -0.0248
 3225SOL    HW212666   1.655   2.846   4.082  0.5199 -1.8979 -0.5232
 3225SOL    HW312667   1.677   2.967   3.994  0.4682 -0.7276  1.0324
 3225SOL    MW412668   1.636   2.892   4.010  0.5255 -0.9933  0.0490
 3226SOL     OW12669   1.225   2.189   1.716 -0.2805  0.2721 -0.6030
 3226SOL    HW212670   1.178   2.235   1.645 -0.3876  0.9229 -0.1259
 3226SOL    HW312671   1.160   2.131   1.754  0.3495 -1.7515 -2.4318
 3226SOL    MW412672   1.210   2.188   1.712 -0.2115  0.0909 -0.7814
 3227SOL     OW12673   4.817   3.814   1.551 -0.1956  0.5092  0.2606
 3227SOL    HW212674   4.806   3.794   1.644  2.5626  1.5424  0.8885
 3227SOL    HW312675   4.730   3.843   1.523 -0.8708  1.2200  2.8039
 3227SOL    MW412676   4.804   3.815   1.559  0.0792  0.7393  0.6790
 3228SOL     OW12677   0.111   0.834   4.044 -0.2252  0.5328 -0.4919
 3228SOL    HW212678   0.154   0.795   3.969  1.9690  0.7217  0.5856
 3228SOL    HW312679   0.150   0.921   4.052 -2.7571  1.8223 -0.9875
 3228SOL    MW412680   0.122   0.840   4.035 -0.2698  0.7279 -0.4152
 3229SOL     OW12681   4.083   6.306   4.927  0.0640  0.2005  0.6014
 3229SOL    HW212682   4.131   6.260   4.858  0.5886  1.5701  0.0015
 3229SOL    HW312683   4.151   6.346   4.981 -0.3684  0.0511  1.2733
 3229SOL    MW412684   4.098   6.305   4.925  0.0762  0.3615  0.6109
 3230SOL     OW12685   3.165   2.059   3.611  0.7915  0.6282 -0.6832
 3230SOL    HW212686   3.105   2.133   3.603  0.2429  0.1201 -1.4767
 3230SOL    HW312687   3.115   1.992   3.659  1.7578  1.2306  1.2636
 3230SOL    MW412688   3.150   2.060   3.616  0.8466  0.6407 -0.5311
 3231SOL     OW12689   5.456   3.211   4.139 -0.1049  0.3283  0.0747
 3231SOL    HW212690   5.438   3.135   4.195 -0.2937  0.2589 -0.0789
 3231SOL    HW312691   5.405   3.282   4.179 -0.8297  0.1043 -0.4265
 3231SOL    MW412692   5.447   3.210   4.152 -0.2254  0.2896 -0.0117
 3232SOL     OW12693   3.145   2.855   4.898  0.5074 -0.2650  0.0302
 3232SOL    HW212694   3.181   2.929   4.848  0.3281  1.3815  2.1523
 3232SOL    HW312695   3.222   2.810   4.934  0.6200  0.7843  1.2010
 3232SOL    MW412696   3.160   2.859   4.896  0.4986  0.0907  0.4646
 3233SOL     OW12697   5.289   0.631   4.558  0.6278 -0.3612 -0.1415
 3233SOL    HW212698   5.195   0.622   4.548  0.6140  0.8926 -1.5096
 3233SOL    HW312699   5.305   0.726   4.556  1.9672 -0.5653 -0.6380
 3233SOL    MW412700   5.279   0.643   4.556  0.8027 -0.2227 -0.3875
 3234SOL     OW12701   4.330   3.942   1.280 -0.4014  0.2255  0.5864
 3234SOL    HW212702   4.279   3.861   1.281 -0.3464  0.1892  0.4429
 3234SOL    HW312703   4.355   3.954   1.189  0.6379 -0.2516  0.7945
 3234SOL    MW412704   4.326   3.933   1.268 -0.2570  0.1578  0.5949
 3235SOL     OW12705   5.362   5.601   1.795  0.0577 -0.5037 -0.0502
 3235SOL    HW212706   5.448   5.606   1.753 -0.2751 -1.8996 -0.9417
 3235SOL    HW312707   5.320   5.683   1.772  1.2514  0.3663  0.6957
 3235SOL    MW412708   5.368   5.613   1.787  0.1713 -0.5731 -0.0694
 3236SOL     OW12709   2.167   4.377   5.592 -0.3276 -0.4655 -0.6367
 3236SOL    HW212710   2.214   4.306   5.548 -1.2781 -1.9658  0.6388
 3236SOL    HW312711   2.236   4.433   5.626  0.6949 -2.8505  1.5987
 3236SOL    MW412712   2.182   4.375   5.590 -0.3181 -0.9781 -0.1735
 3237SOL     OW12713   1.919   6.067   0.321 -0.0891 -0.3274  0.3876
 3237SOL    HW212714   1.970   6.066   0.402  0.0645 -1.2373  0.2988
 3237SOL    HW312715   1.884   5.978   0.314  2.3976 -1.2568 -2.0912
 3237SOL    MW412716   1.921   6.055   0.331  0.2592 -0.5701  0.0489
 3238SOL     OW12717   3.239   3.076   4.763 -0.3135 -0.1121  0.1529
 3238SOL    HW212718   3.280   3.054   4.679 -0.5669  0.8956 -0.2427
 3238SOL    HW312719   3.306   3.053   4.828  0.7566  1.1342 -0.4578
 3238SOL    MW412720   3.253   3.070   4.761 -0.2058  0.1853  0.0201
 3239SOL     OW12721   1.702   5.409   4.792  0.2340  0.1088  0.4195
 3239SOL    HW212722   1.749   5.469   4.851  2.1138 -1.4629  0.6420
 3239SOL    HW312723   1.765   5.339   4.774 -1.9542 -2.0376  0.5114
 3239SOL    MW412724   1.717   5.408   4.798  0.1933 -0.3817  0.4610
 3240SOL     OW12725   1.471   2.244   1.453  0.3038 -0.0367 -0.3103
 3240SOL    HW212726   1.479   2.202   1.539  0.0241  0.5036 -0.0118
 3240SOL    HW312727   1.462   2.337   1.473 -0.1839  0.0521 -0.9018
 3240SOL    MW412728   1.471   2.251   1.467  0.2026  0.0463 -0.3490
 3241SOL     OW12729   0.476   3.701   4.849 -0.2472 -0.5716 -0.1887
 3241SOL    HW212730   0.486   3.641   4.775  0.6932 -1.3240  0.5333
 3241SOL    HW312731   0.383   3.695   4.872 -0.5511 -0.3538 -1.2624
 3241SOL    MW412732   0.465   3.693   4.842 -0.1632 -0.6422 -0.2351
 3242SOL     OW12733   0.915   0.390   2.047 -0.2363  0.2598 -0.2021
 3242SOL    HW212734   0.969   0.422   1.975  1.8566  0.2858  1.2856
 3242SOL    HW312735   0.973   0.329   2.094 -2.1550 -1.1836  0.4163
 3242SOL    MW412736   0.930   0.386   2.044 -0.2133  0.0728  0.0758
 3243SOL     OW12737   3.555   3.058   2.902  0.0337  0.1968  0.3524
 3243SOL    HW212738   3.560   2.987   2.838  1.4436  0.2280  0.3948
 3243SOL    HW312739   3.547   3.138   2.850 -0.1714  0.1164  0.2598
 3243SOL    MW412740   3.555   3.059   2.887  0.1927  0.1903  0.3458
 3244SOL     OW12741   0.274   5.700   2.299  0.5029  0.0148 -0.3385
 3244SOL    HW212742   0.269   5.787   2.338 -0.5515  0.0400 -0.4890
 3244SOL    HW312743   0.327   5.712   2.220 -0.2720  0.6927 -0.7759
 3244SOL    MW412744   0.280   5.713   2.294  0.2615  0.1076 -0.4160
 3245SOL     OW12745   0.168   5.747   1.349 -0.4505  0.0054  0.2904
 3245SOL    HW212746   0.199   5.709   1.267 -0.0621  0.3989  0.2514
 3245SOL    HW312747   0.079   5.711   1.360 -0.0396 -1.0272  0.3414
 3245SOL    MW412748   0.160   5.737   1.339 -0.3451 -0.0789  0.2920
 3246SOL     OW12749   3.330   0.496   1.577 -0.1307 -0.0532 -0.3793
 3246SOL    HW212750   3.365   0.415   1.540  0.9562  0.2293  0.0085
 3246SOL    HW312751   3.261   0.523   1.516  0.2726 -0.6683 -1.1096
 3246SOL    MW412752   3.326   0.489   1.564  0.0659 -0.0971 -0.4245
 3247SOL     OW12753   3.586   1.799   1.542 -0.2874  0.0692 -0.1457
 3247SOL    HW212754   3.553   1.840   1.462  0.2104 -0.6983 -0.7624
 3247SOL    HW312755   3.677   1.829   1.548 -0.6239  0.9792  0.7317
 3247SOL    MW412756   3.594   1.809   1.532 -0.2661  0.0880 -0.1113
 3248SOL     OW12757   3.083   5.772   6.061  0.1640  0.0514  0.4369
 3248SOL    HW212758   3.148   5.801   5.997  0.3315 -2.0097 -0.3974
 3248SOL    HW312759   3.120   5.797   6.146  0.0621  2.5797 -0.1771
 3248SOL    MW412760   3.097   5.779   6.064  0.1727  0.1131  0.2458
 3249SOL     OW12761   1.778   2.252   5.310 -0.1712  0.1994  0.9738
 3249SOL    HW212762   1.736   2.172   5.281 -1.4492  0.8789  0.9016
 3249SOL    HW312763   1.869   2.243   5.280 -0.5999 -0.6613 -0.1495
 3249SOL    MW412764   1.785   2.240   5.302 -0.3964  0.1755  0.8161
 3250SOL     OW12765   6.215   2.685   3.151  0.1159  0.2336 -0.2957
 3250SOL    HW212766   6.182   2.638   3.228 -0.1798  0.2678 -0.3994
 3250SOL    HW312767   6.306   2.706   3.172 -0.3577  1.4586  0.6269
 3250SOL    MW412768   6.223   2.682   3.164  0.0144  0.3997 -0.1877
 3251SOL     OW12769   2.955   5.112   4.707 -0.7165  0.0501 -0.0815
 3251SOL    HW212770   2.997   5.065   4.635  0.3338  2.0639 -0.8667
 3251SOL    HW312771   2.882   5.159   4.667 -0.0512  1.2817  0.0917
 3251SOL    MW412772   2.951   5.112   4.693 -0.4902  0.4783 -0.1623
 3252SOL     OW12773   3.178   6.370   4.058 -0.1211 -0.3365  0.1360
 3252SOL    HW212774   3.109   6.336   4.002 -1.4659  1.6862  0.4761
 3252SOL    HW312775   3.186   6.305   4.128 -1.4966 -0.7273 -0.0437
 3252SOL    MW412776   3.170   6.357   4.060 -0.4800 -0.1212  0.1572
 3253SOL     OW12777   0.643   4.167   4.273  0.5685  0.5090 -0.2602
 3253SOL    HW212778   0.649   4.076   4.301 -2.8660 -0.2661 -1.5029
 3253SOL    HW312779   0.549   4.183   4.265  1.0999  3.6643 -1.7288
 3253SOL    MW412780   0.631   4.157   4.276  0.1855  0.8231 -0.6179
 3254SOL     OW12781   2.296   3.692   3.999  0.1880  0.1129  0.0472
 3254SOL    HW212782   2.225   3.702   4.062 -0.8720  1.1610 -1.2589
 3254SOL    HW312783   2.316   3.781   3.971 -1.5180 -0.3842 -3.3138
 3254SOL    MW412784   2.289   3.705   4.004 -0.1769  0.1856 -0.5686
 3255SOL     OW12785   0.697   5.229   0.534  0.4543  0.0862  0.0588
 3255SOL    HW212786   0.662   5.302   0.482  0.6130 -0.0305 -0.2151
 3255SOL    HW312787   0.637   5.156   0.517 -0.7879  0.6399  1.7783
 3255SOL    MW412788   0.685   5.229   0.525  0.3114  0.1439  0.2495
 3256SOL     OW12789   4.780   0.577   2.366 -0.0820  0.0282 -0.0979
 3256SOL    HW212790   4.827   0.603   2.286  0.1654 -0.2067 -0.0280
 3256SOL    HW312791   4.707   0.523   2.334 -1.8663  2.4483 -0.4481
 3256SOL    MW412792   4.777   0.574   2.351 -0.2847  0.3165 -0.1349
 3257SOL     OW12793   1.948   1.654   2.580  0.4152 -0.1827  0.4142
 3257SOL    HW212794   1.856   1.636   2.598  0.6410 -0.7796  1.0280
 3257SOL    HW312795   1.954   1.654   2.485 -0.1380 -0.5745  0.3737
 3257SOL    MW412796   1.937   1.651   2.570  0.3720 -0.3131  0.4898
 3258SOL     OW12797   5.868   4.145   5.951  0.4073 -0.2425 -0.2209
 3258SOL    HW212798   5.936   4.206   5.981  0.0750 -0.7149  1.5897
 3258SOL    HW312799   5.915   4.065   5.930  0.6428  0.0923 -1.0155
 3258SOL    MW412800   5.883   4.142   5.952  0.3945 -0.2606 -0.0868
 3259SOL     OW12801   5.348   1.459   3.269  0.5561  0.1561  0.3264
 3259SOL    HW212802   5.391   1.543   3.288  1.0968 -0.0103 -0.1217
 3259SOL    HW312803   5.257   1.473   3.294  0.2059  1.5060 -1.4572
 3259SOL    MW412804   5.342   1.472   3.274  0.5813  0.3122  0.0320
 3260SOL     OW12805   4.019   3.885   5.154 -0.0262  0.4641 -1.1734
 3260SOL    HW212806   3.952   3.951   5.172 -0.1010  0.8299 -2.6090
 3260SOL    HW312807   3.982   3.833   5.083  0.6141 -0.2495 -0.9948
 3260SOL    MW412808   4.006   3.887   5.147  0.0484  0.4182 -1.3392
 3261SOL     OW12809   2.230   5.760   6.034 -0.5956 -0.1742 -0.4908
 3261SOL    HW212810   2.158   5.814   6.001  0.1636  2.4827  1.7294
 3261SOL    HW312811   2.277   5.732   5.956 -2.5352  0.1999 -1.8686
 3261SOL    MW412812   2.227   5.764   6.020 -0.7513  0.2257 -0.3796
 3262SOL     OW12813   4.453   4.928   5.116 -0.1646 -0.1307 -0.4085
 3262SOL    HW212814   4.426   5.015   5.142  0.8008 -0.5416  2.2584
 3262SOL    HW312815   4.513   4.942   5.043 -0.5676  1.3650 -0.4727
 3262SOL    MW412816   4.458   4.941   5.110 -0.0904  0.0124 -0.0651
 3263SOL     OW12817   4.931   2.280   3.372  0.0234  0.7881 -0.2595
 3263SOL    HW212818   4.919   2.214   3.440  0.3215  0.1383 -0.8288
 3263SOL    HW312819   4.843   2.310   3.351 -0.1014  0.6852  0.1153
 3263SOL    MW412820   4.918   2.276   3.378  0.0463  0.6888 -0.2852
 3264SOL     OW12821   2.840   5.529   5.367  0.0075  0.2454  0.4486
 3264SOL    HW212822   2.880   5.554   5.450 -0.1060 -1.1749  0.9637
 3264SOL    HW312823   2.908   5.546   5.302  1.0043 -0.8568  1.1470
 3264SOL    MW412824   2.854   5.534   5.369  0.1240 -0.0874  0.6087
 3265SOL     OW12825   2.219   1.304   5.130 -0.0203  0.0407 -0.0026
 3265SOL    HW212826   2.266   1.240   5.076  1.0233  0.8068 -0.0384
 3265SOL    HW312827   2.253   1.389   5.101 -0.5626  0.5508  0.8122
 3265SOL    MW412828   2.230   1.307   5.119  0.0458  0.2091  0.1002
 3266SOL     OW12829   6.364   1.811   3.317  0.0912  0.3650 -0.5365
 3266SOL    HW212830   6.408   1.896   3.327 -0.9256  1.1717 -2.4449
 3266SOL    HW312831   6.434   1.747   3.328  0.7529  1.3768  1.6942
 3266SOL    MW412832   6.379   1.814   3.320  0.0443  0.6050 -0.4940
 3267SOL     OW12833   1.281   2.286   3.624  0.0517  0.5723 -0.2999
 3267SOL    HW212834   1.341   2.212   3.616 -0.3122  0.3832 -1.3554
 3267SOL    HW312835   1.260   2.289   3.718 -0.3345 -0.9861 -0.3091
 3267SOL    MW412836   1.286   2.277   3.636 -0.0473  0.3417 -0.4404
 3268SOL     OW12837   3.551   3.645   5.831  0.6170  0.4378  0.8046
 3268SOL    HW212838   3.482   3.582   5.808  0.9921  0.3286 -0.0756
 3268SOL    HW312839   3.610   3.596   5.888  2.2981 -0.9265 -1.8566
 3268SOL    MW412840   3.550   3.630   5.835  0.8883  0.2434  0.3374
 3269SOL     OW12841   4.786   1.766   2.427 -0.1213 -0.1526 -0.2567
 3269SOL    HW212842   4.862   1.741   2.480 -0.2298 -0.0636 -0.0613
 3269SOL    HW312843   4.769   1.689   2.373  1.0324  0.3384 -1.3831
 3269SOL    MW412844   4.794   1.752   2.427  0.0166 -0.0761 -0.3795
 3270SOL     OW12845   0.699   5.577   5.041 -0.2148 -0.0554 -0.4616
 3270SOL    HW212846   0.740   5.610   4.962  0.1776 -0.1088 -0.2805
 3270SOL    HW312847   0.770   5.570   5.105 -0.3135 -1.1077 -0.4463
 3270SOL    MW412848   0.714   5.581   5.039 -0.1760 -0.2013 -0.4357
 3271SOL     OW12849   2.574   5.087   4.716 -0.1405 -0.2649 -0.2507
 3271SOL    HW212850   2.599   5.121   4.802  0.4983 -0.5736 -0.3072
 3271SOL    HW312851   2.628   5.009   4.705 -1.5348 -1.2606 -0.1542
 3271SOL    MW412852   2.585   5.081   4.726 -0.2402 -0.4370 -0.2454
 3272SOL     OW12853   3.859   5.956   6.082 -0.0031 -0.0870  0.0112
 3272SOL    HW212854   3.862   5.997   6.168  1.1213  0.7635 -0.4190
 3272SOL    HW312855   3.917   5.880   6.089  1.7168  1.1070 -0.5272
 3272SOL    MW412856   3.867   5.951   6.094  0.3721  0.1828 -0.1166
 3273SOL     OW12857   2.145   6.285   0.219 -0.3270  0.3938 -0.1742
 3273SOL    HW212858   2.050   6.283   0.207 -0.3743 -0.5290  0.2458
 3273SOL    HW312859   2.179   6.229   0.148 -0.1026  0.6690 -0.2846
 3273SOL    MW412860   2.137   6.277   0.208 -0.3037  0.3083 -0.1334
 3274SOL     OW12861   4.079   1.921   4.547  0.0006  0.0442  0.0158
 3274SOL    HW212862   4.006   1.970   4.510 -0.5771 -2.1298 -1.9519
 3274SOL    HW312863   4.148   1.926   4.480  0.1202 -1.3013 -0.0004
 3274SOL    MW412864   4.079   1.928   4.533 -0.0599 -0.4202 -0.2459
 3275SOL     OW12865   2.952   1.823   3.361  0.2311 -0.1187  0.2437
 3275SOL    HW212866   3.046   1.837   3.361  0.1220  0.7061  1.0939
 3275SOL    HW312867   2.928   1.815   3.453 -0.7826  1.7236  0.2133
 3275SOL    MW412868   2.961   1.824   3.373  0.0830  0.2332  0.3519
 3276SOL     OW12869   0.302   5.488   4.933 -0.0280  0.0280 -0.1638
 3276SOL    HW212870   0.320   5.469   4.841 -0.1124 -2.0591  0.1928
 3276SOL    HW312871   0.374   5.448   4.981 -0.4997  0.2178  0.7361
 3276SOL    MW412872   0.314   5.480   4.927 -0.1014 -0.2223  0.0019
 3277SOL     OW12873   5.874   3.042   2.768  0.1093  0.0130 -0.3209
 3277SOL    HW212874   5.929   2.970   2.737 -1.7530 -2.2311  1.2723
 3277SOL    HW312875   5.819   3.064   2.692 -0.2747 -1.2612 -0.4342
 3277SOL    MW412876   5.874   3.035   2.754 -0.1871 -0.4512 -0.1256
 3278SOL     OW12877   5.915   3.195   2.225 -0.3143 -0.0140 -0.5851
 3278SOL    HW212878   5.930   3.219   2.134 -1.4265 -1.9291 -1.3397
 3278SOL    HW312879   5.990   3.140   2.248  1.5026  2.8023  0.6827
 3278SOL    MW412880   5.927   3.191   2.216 -0.2213  0.1049 -0.5174
 3279SOL     OW12881   1.408   3.741   2.586 -0.4981 -0.2000 -0.4360
 3279SOL    HW212882   1.360   3.678   2.640  0.0636 -0.1517  0.1280
 3279SOL    HW312883   1.417   3.698   2.501 -1.4449 -0.2507 -0.5239
 3279SOL    MW412884   1.403   3.727   2.582 -0.5489 -0.2003 -0.3732
 3280SOL     OW12885   3.109   3.956   3.067 -0.3033 -0.4355  0.1631
 3280SOL    HW212886   3.047   3.885   3.051 -1.2107  0.1642  0.8737
 3280SOL    HW312887   3.136   3.985   2.980 -0.8754 -0.8385 -0.1535
 3280SOL    MW412888   3.104   3.951   3.053 -0.4985 -0.4096  0.2151
 3281SOL     OW12889   2.801   2.732   2.273 -0.0580  0.7091 -0.5789
 3281SOL    HW212890   2.798   2.643   2.308 -0.1223  0.3555 -1.4562
 3281SOL    HW312891   2.710   2.753   2.254  0.1420  0.1931 -2.2221
 3281SOL    MW412892   2.789   2.723   2.275 -0.0401  0.5944 -0.9114
 3282SOL     OW12893   3.714   4.626   1.287  0.2632 -0.1947 -0.5121
 3282SOL    HW212894   3.781   4.595   1.348 -0.3050  0.5973  0.5633
 3282SOL    HW312895   3.738   4.589   1.203  0.5170 -2.1535  0.3842
 3282SOL    MW412896   3.726   4.617   1.284  0.2218 -0.3486 -0.2520
 3283SOL     OW12897   3.728   3.501   2.916 -0.1810 -0.7752  0.4694
 3283SOL    HW212898   3.758   3.512   3.006 -1.0904  1.0418  0.5949
 3283SOL    HW312899   3.808   3.489   2.866  0.4145 -0.8246  1.4030
 3283SOL    MW412900   3.743   3.501   2.921 -0.2224 -0.5420  0.6091
 3284SOL     OW12901   4.709   1.962   1.553 -0.2228 -0.6160 -0.2364
 3284SOL    HW212902   4.797   1.924   1.557 -0.1274 -0.3069  2.0477
 3284SOL    HW312903   4.721   2.053   1.581 -1.3004 -0.6926  0.5607
 3284SOL    MW412904   4.722   1.969   1.557 -0.3524 -0.5853  0.1701
 3285SOL     OW12905   1.284   1.496   4.876  0.4356 -0.0967 -0.0560
 3285SOL    HW212906   1.319   1.523   4.792 -0.4901 -0.2043 -0.4919
 3285SOL    HW312907   1.194   1.470   4.857 -0.0165  0.5784  1.0967
 3285SOL    MW412908   1.277   1.496   4.863  0.2538 -0.0218  0.0386
 3286SOL     OW12909   1.240   5.290   5.199  0.3997  0.4789  0.3261
 3286SOL    HW212910   1.153   5.279   5.238  0.3854 -1.0576 -0.0575
 3286SOL    HW312911   1.234   5.370   5.147 -0.6641  0.5912  0.6089
 3286SOL    MW412912   1.228   5.299   5.197  0.2575  0.2910  0.3128
 3287SOL     OW12913   1.608   5.183   1.464 -0.1855  0.0986 -0.7236
 3287SOL    HW212914   1.535   5.189   1.403 -0.1679  1.1641 -0.6570
 3287SOL    HW312915   1.623   5.089   1.476 -2.1623 -0.1603  0.0057
 3287SOL    MW412916   1.601   5.172   1.458 -0.4440  0.2050 -0.6186
 3288SOL     OW12917   3.576   0.375   4.318 -0.1208 -0.0754  0.3047
 3288SOL    HW212918   3.501   0.413   4.363 -1.1942  0.7516 -2.0125
 3288SOL    HW312919   3.641   0.445   4.316  0.2197 -0.3524  1.1398
 3288SOL    MW412920   3.574   0.389   4.324 -0.2175 -0.0029  0.1091
 3289SOL     OW12921   1.760   5.738   2.598 -0.2910  0.0606  0.4596
 3289SOL    HW212922   1.838   5.749   2.651  0.8699  0.7775 -1.2939
 3289SOL    HW312923   1.699   5.803   2.631  0.1420  0.0475  1.3185
 3289SOL    MW412924   1.762   5.748   2.609 -0.0807  0.1535  0.3416
 3290SOL     OW12925   2.692   2.234   3.328  0.3392 -0.1233  0.7090
 3290SOL    HW212926   2.710   2.325   3.304 -3.2861  0.6455  0.3444
 3290SOL    HW312927   2.750   2.183   3.272  0.0416  1.9265 -1.6453
 3290SOL    MW412928   2.702   2.240   3.318 -0.1784  0.2486  0.3503
 3291SOL     OW12929   4.674   5.575   3.918  0.1672 -0.1017  0.0883
 3291SOL    HW212930   4.619   5.497   3.915 -1.9427  1.3099 -1.0471
 3291SOL    HW312931   4.764   5.542   3.912 -0.6036 -2.4330  0.3152
 3291SOL    MW412932   4.678   5.560   3.917 -0.2129 -0.2231 -0.0316
 3292SOL     OW12933   0.867   3.504   2.884 -0.4072 -0.7813  0.3829
 3292SOL    HW212934   0.809   3.457   2.945 -0.9433 -0.2597  0.2817
 3292SOL    HW312935   0.809   3.564   2.838  0.0740 -0.8703 -0.3421
 3292SOL    MW412936   0.852   3.506   2.886 -0.4144 -0.7242  0.2739
 3293SOL     OW12937   0.727   4.345   6.127  0.2420  0.2611  0.5423
 3293SOL    HW212938   0.782   4.399   6.183 -0.7555  0.6752  1.1502
 3293SOL    HW312939   0.715   4.264   6.175 -0.4331  0.5332  0.8577
 3293SOL    MW412940   0.732   4.342   6.141  0.0213  0.3516  0.6641
 3294SOL     OW12941   4.421   2.056   4.659 -0.5898 -0.2579  0.0609
 3294SOL    HW212942   4.514   2.053   4.682 -0.5284 -1.5692 -0.3168
 3294SOL    HW312943   4.376   2.045   4.743 -0.3848 -1.3186  0.0478
 3294SOL    MW412944   4.428   2.055   4.673 -0.5546 -0.5708  0.0093
 3295SOL     OW12945   6.422   4.926   5.774  0.0347  0.5613 -0.0526
 3295SOL    HW212946   6.394   4.971   5.695 -0.2377  0.4484 -0.0240
 3295SOL    HW312947   6.476   4.990   5.821  0.6644  0.4333 -0.5937
 3295SOL    MW412948   6.425   4.941   5.770  0.0819  0.5295 -0.1202
 3296SOL     OW12949   2.442   5.479   4.601 -0.2950 -0.8818  0.1117
 3296SOL    HW212950   2.535   5.490   4.617 -0.1712  0.8607 -1.5239
 3296SOL    HW312951   2.430   5.499   4.508 -1.9832 -3.4417 -0.3410
 3296SOL    MW412952   2.452   5.483   4.591 -0.5014 -0.9896 -0.1639
 3297SOL     OW12953   2.983   0.611   5.657  0.0259  0.0251 -0.7941
 3297SOL    HW212954   2.963   0.595   5.750 -1.6090  0.0001 -1.1166
 3297SOL    HW312955   3.078   0.608   5.652  0.1027 -1.0278  0.6966
 3297SOL    MW412956   2.993   0.609   5.669 -0.1796 -0.1171 -0.6400
 3298SOL     OW12957   2.635   4.105   0.874 -0.0540 -0.0716  0.7352
 3298SOL    HW212958   2.621   4.185   0.823 -1.2608 -0.0483  1.0709
 3298SOL    HW312959   2.642   4.036   0.808  0.0567  0.1862  0.4727
 3298SOL    MW412960   2.634   4.107   0.859 -0.1986 -0.0345  0.7448
 3299SOL     OW12961   1.559   2.101   6.329 -0.0404 -0.4433 -0.0229
 3299SOL    HW212962   1.576   2.046   6.253  0.8507 -0.9488  0.5242
 3299SOL    HW312963   1.645   2.136   6.354 -0.1164 -1.2034  1.4310
 3299SOL    MW412964   1.573   2.099   6.322  0.0672 -0.6103  0.2411
 3300SOL     OW12965   4.903   5.243   0.344 -0.2697 -0.0739 -0.4658
 3300SOL    HW212966   4.876   5.295   0.269 -1.6735  0.8224  0.6018
 3300SOL    HW312967   4.964   5.299   0.392 -2.0491  0.8323  0.8717
 3300SOL    MW412968   4.907   5.257   0.341 -0.6897  0.1640 -0.1485
 3301SOL     OW12969   5.074   5.797   3.479  0.0040  0.2678  0.6440
 3301SOL    HW212970   5.048   5.768   3.391 -0.7129 -1.4714  1.3955
 3301SOL    HW312971   5.169   5.796   3.477  0.0396  1.9754 -0.6400
 3301SOL    MW412972   5.083   5.793   3.467 -0.0859  0.2636  0.5737
 3302SOL     OW12973   2.482   4.034   0.421 -0.4231 -0.3595  0.0677
 3302SOL    HW212974   2.486   3.968   0.353  2.6753  0.4988 -0.7818
 3302SOL    HW312975   2.555   4.013   0.480 -0.2401  1.4405  0.5712
 3302SOL    MW412976   2.492   4.023   0.420  0.0098 -0.0088  0.0220
 3303SOL     OW12977   0.555   1.724   4.223  0.4047 -0.8006 -0.4645
 3303SOL    HW212978   0.623   1.678   4.273 -0.8411 -3.1156 -0.7925
 3303SOL    HW312979   0.482   1.733   4.284  0.0208 -0.7847 -0.9243
 3303SOL    MW412980   0.555   1.719   4.238  0.1897 -1.1040 -0.5684
 3304SOL     OW12981   1.054   5.381   0.800 -0.0577  0.3663  0.0504
 3304SOL    HW212982   1.108   5.452   0.766  0.9942 -0.3820  0.0943
 3304SOL    HW312983   1.116   5.325   0.847 -0.8118 -0.7176 -0.2184
 3304SOL    MW412984   1.069   5.383   0.802 -0.0184  0.1245  0.0207
 3305SOL     OW12985   5.422   4.907   4.145  0.0221 -0.2501  0.0731
 3305SOL    HW212986   5.425   4.867   4.233  0.9085 -0.7549 -0.1709
 3305SOL    HW312987   5.329   4.919   4.128 -0.2657 -1.8535  0.3418
 3305SOL    MW412988   5.410   4.903   4.155  0.1011 -0.5283  0.0763
 3306SOL     OW12989   2.545   4.200   2.262  0.0849  0.5804  0.7358
 3306SOL    HW212990   2.587   4.113   2.259 -1.3149 -0.2207  2.4870
 3306SOL    HW312991   2.459   4.186   2.223  0.0174  1.3140  0.6117
 3306SOL    MW412992   2.540   4.186   2.256 -0.1087  0.5715  0.9505
 3307SOL     OW12993   5.739   5.161   3.021  0.3228 -0.1064 -0.0743
 3307SOL    HW212994   5.825   5.121   3.039  1.1444  1.8193  0.5413
 3307SOL    HW312995   5.682   5.129   3.091  0.0100 -2.7226 -1.3993
 3307SOL    MW412996   5.743   5.151   3.033  0.3900 -0.1975 -0.1679
 3308SOL     OW12997   4.270   4.477   0.212  0.2821  0.5393 -0.0681
 3308SOL    HW212998   4.315   4.396   0.188  0.6388  0.3607  1.1380
 3308SOL    HW312999   4.193   4.479   0.155 -0.0166 -0.9139  0.2426
 3308SOL    MW413000   4.266   4.466   0.201  0.2897  0.3240  0.1320
 3309SOL     OW13001   5.589   4.610   0.370 -0.6992  0.1679  0.1792
 3309SOL    HW213002   5.575   4.588   0.462 -2.1659 -4.0073 -0.7936
 3309SOL    HW313003   5.678   4.580   0.352 -1.3422 -1.6890 -0.2386
 3309SOL    MW413004   5.599   4.603   0.380 -0.9775 -0.6280 -0.0042
 3310SOL     OW13005   0.468   1.639   5.640  0.5052 -0.2215 -0.9225
 3310SOL    HW213006   0.496   1.547   5.635  0.5501 -0.1920 -1.2242
 3310SOL    HW313007   0.548   1.686   5.663  1.0239  0.0208 -3.0612
 3310SOL    MW413008   0.482   1.633   5.643  0.5795 -0.1856 -1.2445
 3311SOL     OW13009   2.007   0.809   4.451  0.2152 -0.2509  0.4470
 3311SOL    HW213010   1.921   0.790   4.488  0.6866  1.3741  2.5403
 3311SOL    HW313011   2.066   0.746   4.491  0.4907  0.6071  1.4203
 3311SOL    MW413012   2.003   0.798   4.461  0.3137  0.0767  0.8516
 3312SOL     OW13013   4.588   3.925   1.319  0.2103  0.3293 -0.2100
 3312SOL    HW213014   4.496   3.902   1.328 -0.4927  2.1611 -1.9908
 3312SOL    HW313015   4.588   4.006   1.268  2.8048  0.5284 -0.0414
 3312SOL    MW413016   4.576   3.933   1.314  0.4599  0.5973 -0.4227
 3313SOL     OW13017   5.406   1.794   5.578 -0.0881  0.8597  0.0764
 3313SOL    HW213018   5.477   1.766   5.636 -0.1325 -1.9836 -1.1020
 3313SOL    HW313019   5.445   1.860   5.521  1.6592 -0.6913 -0.5895
 3313SOL    MW413020   5.420   1.799   5.578  0.1366  0.2799 -0.1670
 3314SOL     OW13021   3.223   2.426   4.565  0.8258 -0.6359 -0.0705
 3314SOL    HW213022   3.229   2.492   4.634  2.0331  0.8985 -1.5505
 3314SOL    HW313023   3.305   2.435   4.516  0.5998 -2.5973 -0.8920
 3314SOL    MW413024   3.235   2.436   4.567  0.9553 -0.6923 -0.3741
 3315SOL     OW13025   6.332   2.840   4.063 -0.0096 -0.3863  0.7888
 3315SOL    HW213026   6.339   2.806   4.152  1.3619  1.0522  1.2778
 3315SOL    HW313027   6.399   2.794   4.013 -0.5850 -0.9843  0.5570
 3315SOL    MW413028   6.341   2.830   4.068  0.0954 -0.2754  0.8227
 3316SOL     OW13029   3.707   3.330   5.487  0.1604  0.1510  0.0799
 3316SOL    HW213030   3.675   3.320   5.397 -0.4437  0.8924  0.2022
 3316SOL    HW313031   3.732   3.242   5.513 -2.7061 -0.7057  0.2932
 3316SOL    MW413032   3.706   3.317   5.478 -0.2975  0.1358  0.1242
 3317SOL     OW13033   3.955   6.007   0.314 -0.2367  0.5950  0.1675
 3317SOL    HW213034   4.007   6.082   0.286 -0.5483  0.7255 -0.0872
 3317SOL    HW313035   3.875   6.013   0.261 -0.1964 -0.0093  0.0198
 3317SOL    MW413036   3.951   6.017   0.303 -0.2725  0.5325  0.1144
 3318SOL     OW13037   1.226   3.245   6.389  0.0562  0.6342  1.0035
 3318SOL    HW213038   1.213   3.151   6.396  0.7102  0.4483 -0.0453
 3318SOL    HW313039   1.310   3.254   6.345 -0.9492  1.6636 -0.8389
 3318SOL    MW413040   1.235   3.234   6.384  0.0098  0.7455  0.6220
 3319SOL     OW13041   3.662   2.318   2.325 -0.6490 -0.2892  0.2861
 3319SOL    HW213042   3.660   2.304   2.420 -0.7569  0.7446  0.4540
 3319SOL    HW313043   3.755   2.316   2.302 -0.6140 -0.3967  0.4369
 3319SOL    MW413044   3.674   2.316   2.334 -0.6586 -0.1670  0.3282
 3320SOL     OW13045   2.628   5.269   0.946 -0.0309 -0.0125 -0.3790
 3320SOL    HW213046   2.549   5.222   0.921  0.3673 -0.7848 -0.2006
 3320SOL    HW313047   2.660   5.308   0.864 -0.5313  0.2226 -0.4676
 3320SOL    MW413048   2.622   5.268   0.932 -0.0444 -0.0834 -0.3671
 3321SOL     OW13049   6.257   5.280   1.084  0.5668 -0.0030 -0.0718
 3321SOL    HW213050   6.311   5.289   1.162  1.7605 -1.6431 -0.6419
 3321SOL    HW313051   6.256   5.367   1.045  1.7694  0.3427  0.6215
 3321SOL    MW413052   6.264   5.293   1.089  0.8829 -0.1738 -0.0555
 3322SOL     OW13053   0.426   2.765   1.937 -0.0754 -0.3426  0.2184
 3322SOL    HW213054   0.391   2.824   1.870 -1.5298 -0.2628  0.9952
 3322SOL    HW313055   0.449   2.823   2.010 -0.4780 -0.6131  0.5681
 3322SOL    MW413056   0.424   2.780   1.938 -0.3204 -0.3678  0.3670
 3323SOL     OW13057   1.704   3.887   5.507  0.0631  0.5149  0.0071
 3323SOL    HW213058   1.661   3.961   5.552 -1.9312 -1.0502  0.8395
 3323SOL    HW313059   1.666   3.809   5.547 -0.9683 -1.0207 -3.5206
 3323SOL    MW413060   1.693   3.887   5.518 -0.3361  0.1058 -0.3485
 3324SOL     OW13061   0.822   4.491   1.857 -0.6004 -0.0731 -0.1392
 3324SOL    HW213062   0.876   4.564   1.887 -0.6797  0.1360 -0.5003
 3324SOL    HW313063   0.761   4.475   1.929  0.5544 -0.9403  0.6776
 3324SOL    MW413064   0.821   4.498   1.870 -0.4585 -0.1599 -0.0790
 3325SOL     OW13065   1.318   4.976   5.565  0.0620 -0.1183 -0.4124
 3325SOL    HW213066   1.391   5.016   5.519 -0.5558  1.0825 -0.3786
 3325SOL    HW313067   1.280   5.047   5.617 -1.8773 -0.3944 -1.3673
 3325SOL    MW413068   1.323   4.991   5.566 -0.2754  0.0037 -0.5340
 3326SOL     OW13069   4.830   2.007   5.674  0.0267  0.1449  0.0677
 3326SOL    HW213070   4.796   1.917   5.669 -1.7257  0.8106 -0.9695
 3326SOL    HW313071   4.780   2.047   5.745  0.1647  0.5438 -0.0593
 3326SOL    MW413072   4.819   2.000   5.683 -0.1863  0.2854 -0.0859
 3327SOL     OW13073   1.328   1.653   1.315  0.2811  0.2737  0.5327
 3327SOL    HW213074   1.351   1.647   1.222 -1.8669 -1.7592  0.0075
 3327SOL    HW313075   1.306   1.563   1.339 -0.5293  0.9771  2.6502
 3327SOL    MW413076   1.328   1.640   1.306 -0.1092  0.0983  0.7428
 3328SOL     OW13077   0.725   0.563   3.146  0.2594  0.1899  0.4348
 3328SOL    HW213078   0.642   0.522   3.171  0.6185 -0.7769  0.0807
 3328SOL    HW313079   0.770   0.497   3.093  0.9786  0.9435  0.0775
 3328SOL    MW413080   0.720   0.549   3.142  0.4016  0.1618  0.3409
 3329SOL     OW13081   3.986   4.811   2.916  0.0223  0.4976 -0.3250
 3329SOL    HW213082   4.027   4.882   2.966 -0.5195 -0.1313  1.0712
 3329SOL    HW313083   4.049   4.739   2.923 -1.1394 -0.4161  1.6825
 3329SOL    MW413084   4.000   4.811   2.924 -0.2025  0.2941  0.1241
 3330SOL     OW13085   6.092   5.285   4.795  0.0345 -0.3428  0.2111
 3330SOL    HW213086   6.097   5.258   4.704  0.9430 -1.1519  0.4822
 3330SOL    HW313087   6.178   5.263   4.832  0.3961  1.8212  0.7712
 3330SOL    MW413088   6.104   5.278   4.788  0.2021 -0.1641  0.3207
 3331SOL     OW13089   5.391   2.465   4.633  0.1481 -0.3914  0.2085
 3331SOL    HW213090   5.325   2.431   4.572  0.1108 -1.2810  0.7372
 3331SOL    HW313091   5.418   2.389   4.685  1.3183  0.0483  0.2568
 3331SOL    MW413092   5.386   2.451   4.632  0.2976 -0.4507  0.2846
 3332SOL     OW13093   4.120   0.921   5.079 -1.0244 -0.2760  0.5870
 3332SOL    HW213094   4.118   1.012   5.110  0.0412 -0.0904  0.1518
 3332SOL    HW313095   4.124   0.869   5.159 -0.1595  0.1331  0.8308
 3332SOL    MW413096   4.121   0.926   5.094 -0.7697 -0.1976  0.5617
 3333SOL     OW13097   1.932   0.664   3.212  0.3047 -0.2409 -0.3347
 3333SOL    HW213098   1.935   0.625   3.299 -0.9718 -0.1141 -0.2142
 3333SOL    HW313099   1.976   0.601   3.155  1.6681 -0.0570  0.4789
 3333SOL    MW413100   1.938   0.651   3.216  0.3162 -0.1999 -0.2114
 3334SOL     OW13101   3.122   0.265   5.695 -0.4182  0.2983 -0.2037
 3334SOL    HW213102   3.209   0.264   5.657  0.4669  0.1336  1.7048
 3334SOL    HW313103   3.085   0.179   5.674 -0.5435  0.7351 -1.8762
 3334SOL    MW413104   3.128   0.254   5.687 -0.3180  0.3342 -0.1726
 3335SOL     OW13105   1.275   2.881   0.648 -0.2595 -0.0611 -0.1446
 3335SOL    HW213106   1.219   2.876   0.726 -1.2909  0.1858 -0.8499
 3335SOL    HW313107   1.321   2.797   0.646 -0.3872 -0.1591  0.5972
 3335SOL    MW413108   1.274   2.869   0.658 -0.4125 -0.0414 -0.1398
 3336SOL     OW13109   0.486   5.116   0.036  0.3028 -0.7282 -0.0216
 3336SOL    HW213110   0.446   5.160  -0.040  1.4357  2.0912  0.9022
 3336SOL    HW313111   0.466   5.173   0.110  3.3692 -0.7606  0.9741
 3336SOL    MW413112   0.478   5.129   0.036  0.8569 -0.3605  0.2316
 3337SOL     OW13113   2.416   6.039   2.474  0.8587  0.7827 -0.2465
 3337SOL    HW213114   2.367   6.121   2.466 -0.5446  0.1150  0.9978
 3337SOL    HW313115   2.354   5.971   2.450  1.1840 -0.0770  1.2141
 3337SOL    MW413116   2.401   6.041   2.470  0.7165  0.5812  0.1104
 3338SOL     OW13117   2.329   3.990   4.043 -0.0391  0.0468  0.0812
 3338SOL    HW213118   2.275   4.017   3.968  0.2568  1.7040  0.4268
 3338SOL    HW313119   2.270   3.936   4.096  0.1564 -2.4310 -2.0095
 3338SOL    MW413120   2.314   3.986   4.040  0.0258 -0.0615 -0.1490
 3339SOL     OW13121   6.149   1.908   4.286 -0.6611  0.4059  0.2036
 3339SOL    HW213122   6.225   1.933   4.234 -0.6849 -0.1941 -0.1285
 3339SOL    HW313123   6.117   1.990   4.323 -0.4925  0.8064 -0.5197
 3339SOL    MW413124   6.155   1.922   4.284 -0.6420  0.3795  0.0644
 3340SOL     OW13125   3.261   2.843   2.812  0.4801  0.6000 -0.1616
 3340SOL    HW213126   3.305   2.792   2.880 -0.4684  1.3346  1.0484
 3340SOL    HW313127   3.185   2.790   2.788  0.0014  0.9957  0.4378
 3340SOL    MW413128   3.257   2.829   2.818  0.2918  0.7491  0.0771
 3341SOL     OW13129   5.340   1.195   6.138  0.1726  0.1895  0.1331
 3341SOL    HW213130   5.285   1.213   6.062 -0.2789 -0.2797  0.3435
 3341SOL    HW313131   5.285   1.143   6.196  1.0231 -0.7860  0.0957
 3341SOL    MW413132   5.326   1.190   6.136  0.2252 -0.0011  0.1559
 3342SOL     OW13133   2.567   6.449   4.351 -0.0973 -0.1136  0.2715
 3342SOL    HW213134   2.518   6.381   4.306  1.6730  0.9537 -3.6273
 3342SOL    HW313135   2.658   6.417   4.353  0.5002  1.4466 -0.2961
 3342SOL    MW413136   2.573   6.436   4.346  0.2151  0.2331 -0.3178
 3343SOL     OW13137   3.744   1.160   5.233  0.7555 -0.3340  0.2230
 3343SOL    HW213138   3.761   1.066   5.225 -1.1814 -0.7961  0.8964
 3343SOL    HW313139   3.792   1.187   5.311  1.9191 -0.5835 -0.3841
 3343SOL    MW413140   3.753   1.151   5.242  0.6535 -0.4279  0.2317
 3344SOL     OW13141   3.362   1.331   0.024 -0.7162 -0.4945 -0.4389
 3344SOL    HW213142   3.341   1.262  -0.039  1.1238 -1.7139  0.1956
 3344SOL    HW313143   3.411   1.396  -0.026 -1.7900  0.0023 -0.8715
 3344SOL    MW413144   3.365   1.330   0.009 -0.6151 -0.5898 -0.4123
 3345SOL     OW13145   2.616   2.521   3.819 -0.0007  0.4576  0.4481
 3345SOL    HW213146   2.590   2.447   3.765  0.8581  1.4147 -1.3586
 3345SOL    HW313147   2.639   2.482   3.904  0.0373 -1.2852 -0.3290
 3345SOL    MW413148   2.616   2.506   3.823  0.1176  0.3539  0.1072
 3346SOL     OW13149   5.256   3.084   4.655  0.0569  0.1494  0.2621
 3346SOL    HW213150   5.339   3.056   4.616  0.1666 -0.2592  0.7850
 3346SOL    HW313151   5.191   3.067   4.586  0.0788 -1.6295  0.6231
 3346SOL    MW413152   5.258   3.078   4.641  0.0743 -0.1392  0.3787
 3347SOL     OW13153   1.305   6.138   4.056  0.4976 -0.2787  0.5449
 3347SOL    HW213154   1.247   6.183   3.995  1.0977 -0.2202  0.0051
 3347SOL    HW313155   1.272   6.162   4.143 -0.8929 -1.0331  0.2610
 3347SOL    MW413156   1.293   6.147   4.059  0.3933 -0.3705  0.4362
 3348SOL     OW13157   3.413   0.572   0.963  0.0796 -0.0701  0.3761
 3348SOL    HW213158   3.442   0.663   0.951  1.4448  0.2989  4.5558
 3348SOL    HW313159   3.318   0.579   0.974  0.1058  0.8022  0.1294
 3348SOL    MW413160   3.404   0.585   0.963  0.2631  0.0936  0.8950
 3349SOL     OW13161   2.030   4.576   5.987 -0.1709  0.1497  0.0931
 3349SOL    HW213162   2.047   4.563   6.080 -2.6300  2.1056  0.9252
 3349SOL    HW313163   2.026   4.487   5.951  1.2951 -0.6401  1.7017
 3349SOL    MW413164   2.032   4.562   5.995 -0.3019  0.3036  0.4152
 3350SOL     OW13165   3.662   3.838   3.194 -0.3528 -0.0887  0.1519
 3350SOL    HW213166   3.567   3.849   3.185 -0.2703  0.6234  0.0750
 3350SOL    HW313167   3.681   3.866   3.283  0.0515  1.8426 -0.4892
 3350SOL    MW413168   3.652   3.844   3.204 -0.2886  0.2600  0.0572
 3351SOL     OW13169   3.059   3.739   1.156 -1.0740 -0.1642  0.1225
 3351SOL    HW213170   3.120   3.773   1.090 -0.5868  0.2136  0.7531
 3351SOL    HW313171   2.974   3.776   1.132 -0.8459  0.2046 -0.1194
 3351SOL    MW413172   3.056   3.748   1.144 -0.9796 -0.0657  0.1738
 3352SOL     OW13173   3.953   4.369   3.414 -0.4675  0.3924  0.4007
 3352SOL    HW213174   4.012   4.415   3.474 -2.0753  1.5682  1.1528
 3352SOL    HW313175   3.917   4.437   3.358  0.1115 -0.5372 -1.1550
 3352SOL    MW413176   3.956   4.384   3.415 -0.6032  0.4248  0.2947
 3353SOL     OW13177   6.387   6.091   4.329  0.6087 -0.0690  0.1674
 3353SOL    HW213178   6.356   6.049   4.410  1.5809 -0.2975  0.4284
 3353SOL    HW313179   6.434   6.021   4.283  1.4309  0.4771  0.1600
 3353SOL    MW413180   6.389   6.076   4.334  0.8455 -0.0271  0.2009
 3354SOL     OW13181   6.294   5.990   2.710  0.3103  0.4764 -0.0403
 3354SOL    HW213182   6.226   6.051   2.684 -0.7528  0.2648  2.0133
 3354SOL    HW313183   6.356   6.043   2.760 -0.2580  0.0493  1.1576
 3354SOL    MW413184   6.294   6.005   2.713  0.0951  0.3922  0.3887
 3355SOL     OW13185   0.599   1.723   5.218  0.1969 -0.3950  0.6613
 3355SOL    HW213186   0.559   1.808   5.240 -0.6462 -0.0929 -1.7294
 3355SOL    HW313187   0.556   1.698   5.136  0.4098 -3.1744  1.3289
 3355SOL    MW413188   0.588   1.731   5.210  0.1137 -0.7218  0.4340
 3356SOL     OW13189   4.425   2.272   3.717  0.7287 -0.2705  0.1828
 3356SOL    HW213190   4.376   2.226   3.649 -0.9976 -1.3193  2.0344
 3356SOL    HW313191   4.504   2.218   3.729  0.4701 -0.7363 -0.1532
 3356SOL    MW413192   4.429   2.258   3.709  0.4668 -0.4703  0.3828
 3357SOL     OW13193   2.628   4.858   1.716  0.7026  0.7210  0.3564
 3357SOL    HW213194   2.573   4.937   1.720  0.3148  0.5093 -0.6420
 3357SOL    HW313195   2.593   4.803   1.786 -0.4236  0.5695 -0.2874
 3357SOL    MW413196   2.616   4.861   1.726  0.5028  0.6730  0.1397
 3358SOL     OW13197   4.866   4.303   5.371 -0.1701  0.1471 -0.1916
 3358SOL    HW213198   4.790   4.361   5.372  0.7328  1.3800 -0.1564
 3358SOL    HW313199   4.941   4.362   5.386  0.6801 -1.1984  1.0939
 3358SOL    MW413200   4.866   4.319   5.373  0.0612  0.1323 -0.0174
 3359SOL     OW13201   1.281   0.892   4.220  0.2745 -0.0081  0.1677
 3359SOL    HW213202   1.269   0.800   4.195  0.9220  0.0442 -0.3479
 3359SOL    HW313203   1.333   0.888   4.301 -1.4940 -0.1613  1.3653
 3359SOL    MW413204   1.286   0.879   4.228  0.1266 -0.0214  0.2577
 3360SOL     OW13205   1.055   5.076   4.102 -0.3481 -0.0858  0.1528
 3360SOL    HW213206   1.031   4.996   4.056  0.8035 -0.4126  0.0694
 3360SOL    HW313207   1.150   5.084   4.087 -0.4281  1.2268  0.2621
 3360SOL    MW413208   1.065   5.066   4.094 -0.2067  0.0443  0.1562
 3361SOL     OW13209   0.736   0.548   6.205 -1.2833  0.1817 -0.5167
 3361SOL    HW213210   0.785   0.494   6.267  0.9547 -0.4674 -2.6757
 3361SOL    HW313211   0.715   0.628   6.254  2.2398  0.6352  0.5336
 3361SOL    MW413212   0.740   0.551   6.220 -0.5232  0.1559 -0.6630
 3362SOL     OW13213   4.918   1.308   2.664 -0.2319  0.9460  0.5972
 3362SOL    HW213214   4.836   1.298   2.615 -0.6263 -0.1857  1.4391
 3362SOL    HW313215   4.974   1.238   2.630 -0.3152  0.4990  1.3517
 3362SOL    MW413216   4.915   1.297   2.653 -0.2950  0.7377  0.8078
 3363SOL     OW13217   5.352   3.736   5.748  0.2287  0.2030  0.3911
 3363SOL    HW213218   5.307   3.771   5.825 -1.0512 -1.2039  0.3214
 3363SOL    HW313219   5.332   3.798   5.678 -1.8561 -0.4777  0.3124
 3363SOL    MW413220   5.343   3.749   5.749 -0.2153 -0.0724  0.3715
 3364SOL     OW13221   0.549   5.701   3.232  0.0322 -0.1218 -0.0320
 3364SOL    HW213222   0.543   5.606   3.223 -1.5509 -0.0229 -0.2056
 3364SOL    HW313223   0.601   5.729   3.156  0.6369 -0.8421  0.1073
 3364SOL    MW413224   0.555   5.692   3.221 -0.0969 -0.2038 -0.0366
 3365SOL     OW13225   4.174   1.664   3.019  0.3091 -0.0641 -0.0244
 3365SOL    HW213226   4.233   1.676   2.945 -0.8418 -0.5469 -1.0577
 3365SOL    HW313227   4.164   1.569   3.027  0.3302 -0.0126  0.6744
 3365SOL    MW413228   4.180   1.653   3.010  0.1600 -0.1210 -0.0685
 3366SOL     OW13229   2.703   2.063   5.766 -0.5392  0.1486 -0.2109
 3366SOL    HW213230   2.758   2.063   5.844 -0.0425  0.3047 -0.5561
 3366SOL    HW313231   2.756   2.106   5.699 -0.7278 -0.5068 -0.7921
 3366SOL    MW413232   2.718   2.069   5.767 -0.4986  0.0827 -0.3331
 3367SOL     OW13233   0.777   1.962   4.594  0.3104 -0.2717  1.0319
 3367SOL    HW213234   0.746   2.022   4.663 -1.9077 -1.0770  0.8152
 3367SOL    HW313235   0.779   2.016   4.515 -0.6497 -0.1814  1.0504
 3367SOL    MW413236   0.773   1.977   4.593 -0.1089 -0.3661  1.0057
 3368SOL     OW13237   4.962   0.136   4.078 -0.0647  0.3377  0.2700
 3368SOL    HW213238   4.991   0.220   4.042 -0.6963  0.4608  0.0323
 3368SOL    HW313239   4.878   0.156   4.120 -0.0593 -0.1086  0.4937
 3368SOL    MW413240   4.955   0.150   4.079 -0.1473  0.2951  0.2681
 3369SOL     OW13241   6.069   5.656   3.784  0.2118  0.0167 -0.0405
 3369SOL    HW213242   6.161   5.631   3.795 -0.1103 -1.4122 -0.3497
 3369SOL    HW313243   6.040   5.607   3.707 -0.1825  2.3031 -1.4499
 3369SOL    MW413244   6.077   5.646   3.775  0.1173  0.1298 -0.2673
 3370SOL     OW13245   2.243   3.140   0.105  0.0704  0.1007 -0.6001
 3370SOL    HW213246   2.169   3.194   0.134 -0.0309 -0.6697  0.6529
 3370SOL    HW313247   2.206   3.082   0.039 -0.1285  0.6518 -0.9764
 3370SOL    MW413248   2.228   3.139   0.100  0.0308  0.0718 -0.4844
 3371SOL     OW13249   6.166   0.707   4.194 -0.2506  0.2661  0.0217
 3371SOL    HW213250   6.187   0.776   4.130  0.4564  0.2999  0.2808
 3371SOL    HW313251   6.251   0.668   4.215 -0.3433  0.8641  1.6227
 3371SOL    MW413252   6.180   0.711   4.188 -0.1696  0.3494  0.2671
 3372SOL     OW13253   0.849   0.091   2.275 -0.0020  0.0249  0.1310
 3372SOL    HW213254   0.835   0.012   2.222 -1.2096 -1.2383  2.1575
 3372SOL    HW313255   0.938   0.119   2.253 -0.0873 -0.9919 -1.7765
 3372SOL    MW413256   0.859   0.084   2.265 -0.1726 -0.2759  0.1467
 3373SOL     OW13257   3.158   3.254   1.856 -0.7168 -0.0747 -0.4061
 3373SOL    HW213258   3.137   3.202   1.933  1.8470  0.2749  0.6396
 3373SOL    HW313259   3.084   3.315   1.847 -1.8384 -1.2071  0.7639
 3373SOL    MW413260   3.146   3.255   1.865 -0.5265 -0.1779 -0.1138
 3374SOL     OW13261   1.351   5.507   5.819  0.5986  0.1057  0.0355
 3374SOL    HW213262   1.319   5.531   5.905 -3.6828 -1.3480 -0.9197
 3374SOL    HW313263   1.370   5.590   5.776 -0.1716  1.0087  1.3702
 3374SOL    MW413264   1.350   5.521   5.824 -0.0679  0.0331  0.0855
 3375SOL     OW13265   5.312   3.994   3.027 -0.0887  0.4627  0.2972
 3375SOL    HW213266   5.220   4.016   3.012  0.3536  1.7572 -0.7352
 3375SOL    HW313267   5.311   3.901   3.051 -1.7501  0.7190  1.3986
 3375SOL    MW413268   5.299   3.985   3.028 -0.2495  0.6673  0.3063
 3376SOL     OW13269   4.797   0.840   6.049  0.0144  0.7537 -0.2272
 3376SOL    HW213270   4.799   0.899   6.125  1.7722  0.1209  0.2694
 3376SOL    HW313271   4.789   0.753   6.087  0.6726  0.4482 -0.7749
 3376SOL    MW413272   4.796   0.836   6.064  0.3332  0.6299 -0.2339
 3377SOL     OW13273   5.806   1.107   1.084 -0.0233 -0.2076 -0.8655
 3377SOL    HW213274   5.733   1.162   1.056 -0.7993  0.0482  1.4704
 3377SOL    HW313275   5.884   1.154   1.054 -0.7412  0.9295 -1.0080
 3377SOL    MW413276   5.807   1.121   1.076 -0.2204 -0.0239 -0.5761
 3378SOL     OW13277   3.654   1.987   6.267  0.1227 -0.3266 -0.1057
 3378SOL    HW213278   3.568   2.004   6.305  0.3273 -0.0161  0.2285
 3378SOL    HW313279   3.709   1.966   6.342 -0.0137 -2.0517 -0.4543
 3378SOL    MW413280   3.650   1.986   6.282  0.1317 -0.5133 -0.1076
 3379SOL     OW13281   1.275   3.897   3.807 -0.3167  0.3902 -0.0300
 3379SOL    HW213282   1.232   3.892   3.893  0.3755 -0.5005  0.2716
 3379SOL    HW313283   1.357   3.944   3.825 -0.3968  0.6388 -0.3045
 3379SOL    MW413284   1.280   3.903   3.821 -0.2359  0.3055 -0.0264
 3380SOL     OW13285   3.680   1.933   1.966  0.0818  0.3800 -0.0120
 3380SOL    HW213286   3.610   1.960   2.025 -0.5800 -1.9789  0.3605
 3380SOL    HW313287   3.741   2.007   1.966 -2.0693  2.2602  0.1212
 3380SOL    MW413288   3.679   1.946   1.974 -0.2893  0.3169  0.0547
 3381SOL     OW13289   5.746   5.009   0.037 -0.4752 -0.1553 -0.3187
 3381SOL    HW213290   5.696   5.070  -0.017 -2.4203 -0.7953  0.6458
 3381SOL    HW313291   5.803   5.065   0.090 -1.3410  0.7448 -0.3159
 3381SOL    MW413292   5.747   5.024   0.037 -0.8461 -0.1209 -0.1910
 3382SOL     OW13293   2.804   4.215   1.603  0.1676  0.7994 -0.5844
 3382SOL    HW213294   2.820   4.270   1.679 -1.7364 -0.6640  0.9987
 3382SOL    HW313295   2.869   4.145   1.609 -1.8607 -1.0601  1.6132
 3382SOL    MW413296   2.814   4.213   1.613 -0.3512  0.3610 -0.0856
 3383SOL     OW13297   3.006   5.275   2.948 -0.0595  0.1709 -0.1440
 3383SOL    HW213298   2.992   5.337   3.020 -0.6800  0.4637 -0.5033
 3383SOL    HW313299   2.962   5.316   2.873 -1.1782 -1.0699 -0.1986
 3383SOL    MW413300   2.998   5.289   2.947 -0.2889  0.0458 -0.1986
 3384SOL     OW13301   1.996   0.516   5.113  0.0476 -0.3897  0.0979
 3384SOL    HW213302   1.912   0.548   5.144  0.9022  0.6361  1.4970
 3384SOL    HW313303   1.994   0.530   5.018 -0.3710  2.1773  0.4124
 3384SOL    MW413304   1.985   0.522   5.104  0.1052  0.0843  0.3240
 3385SOL     OW13305   5.050   3.423   4.234 -0.0216  0.0300 -0.7893
 3385SOL    HW213306   5.146   3.423   4.225 -0.0261 -0.2466 -0.8611
 3385SOL    HW313307   5.027   3.330   4.239 -0.2736  0.1020 -0.6145
 3385SOL    MW413308   5.060   3.411   4.233 -0.0555  0.0030 -0.7757
 3386SOL     OW13309   5.408   3.480   0.445  0.1309 -0.1006 -0.1571
 3386SOL    HW213310   5.437   3.536   0.372  2.3624 -0.6929  0.1959
 3386SOL    HW313311   5.458   3.512   0.520 -0.0857 -1.2540  0.4897
 3386SOL    MW413312   5.419   3.492   0.445  0.3967 -0.3309 -0.0252
 3387SOL     OW13313   2.086   0.668   2.819 -0.3475  0.5223  0.0633
 3387SOL    HW213314   2.095   0.613   2.897 -1.7510 -0.7081 -0.5951
 3387SOL    HW313315   2.174   0.702   2.804  0.3138 -0.5903  1.1889
 3387SOL    MW413316   2.099   0.665   2.827 -0.4454  0.2132  0.1249
 3388SOL     OW13317   3.744   5.425   1.195  0.1975 -0.2115 -0.1412
 3388SOL    HW213318   3.721   5.502   1.247  1.2856 -0.7492  1.2274
 3388SOL    HW313319   3.691   5.354   1.234 -1.6193 -0.0130 -2.0850
 3388SOL    MW413320   3.734   5.426   1.207  0.1014 -0.2563 -0.2171
 3389SOL     OW13321   0.057   5.663   3.089  0.0682 -0.0868 -0.4809
 3389SOL    HW213322   0.004   5.716   3.029  0.9915  1.8032  0.2977
 3389SOL    HW313323   0.144   5.703   3.087  0.4849 -0.8167  1.0763
 3389SOL    MW413324   0.061   5.676   3.081  0.2450  0.0663 -0.1727
 3390SOL     OW13325   6.408   5.696   0.688 -0.6232  0.0770  0.2826
 3390SOL    HW213326   6.398   5.663   0.599 -0.3480  1.2169 -0.1934
 3390SOL    HW313327   6.498   5.673   0.713 -0.8873 -0.7438  0.4876
 3390SOL    MW413328   6.419   5.689   0.680 -0.6218  0.1191  0.2468
 3391SOL     OW13329   3.985   0.150   6.281 -0.2188  0.0392 -0.3108
 3391SOL    HW213330   3.953   0.237   6.254 -1.1290 -0.1674  0.0742
 3391SOL    HW313331   3.966   0.093   6.206 -0.5874 -0.0495 -0.1475
 3391SOL    MW413332   3.978   0.154   6.267 -0.3875  0.0003 -0.2384
 3392SOL     OW13333   3.650   3.408   3.785  0.0287 -0.0741 -0.0294
 3392SOL    HW213334   3.604   3.484   3.748 -1.5054 -0.5105  0.8818
 3392SOL    HW313335   3.719   3.447   3.840 -1.6680  0.7925  1.6335
 3392SOL    MW413336   3.653   3.423   3.788 -0.3975 -0.0173  0.3102
 3393SOL     OW13337   6.217   3.032   4.604  0.3642  0.0127 -0.1015
 3393SOL    HW213338   6.131   3.031   4.562  0.8637 -1.4050 -1.1657
 3393SOL    HW313339   6.198   3.027   4.698 -0.7318 -0.7830 -0.3448
 3393SOL    MW413340   6.203   3.031   4.611  0.2855 -0.2793 -0.2740
 3394SOL     OW13341   4.749   2.936   1.391  0.6578  0.2781 -0.0196
 3394SOL    HW213342   4.784   2.871   1.330  0.9103  0.0739  0.3326
 3394SOL    HW313343   4.791   2.914   1.475  0.2718  0.5125  0.2373
 3394SOL    MW413344   4.759   2.924   1.394  0.6402  0.2821  0.0608
 3395SOL     OW13345   5.509   4.510   4.185 -0.4839  0.1949 -0.2981
 3395SOL    HW213346   5.521   4.455   4.262  0.5945 -0.6397 -1.0211
 3395SOL    HW313347   5.594   4.551   4.171 -0.4260 -0.2554 -1.4526
 3395SOL    MW413348   5.522   4.508   4.193 -0.3339  0.0254 -0.5458
 3396SOL     OW13349   0.307   3.216   2.798  0.0515 -0.5973  0.0980
 3396SOL    HW213350   0.257   3.154   2.746 -0.9089 -0.4437  0.8093
 3396SOL    HW313351   0.397   3.186   2.792 -0.5473 -2.9151  1.5750
 3396SOL    MW413352   0.312   3.204   2.790 -0.1542 -0.8828  0.3867
 3397SOL     OW13353   1.692   0.577   6.191  0.0586 -0.0585 -0.1080
 3397SOL    HW213354   1.671   0.491   6.225  0.4773 -0.8601 -1.7858
 3397SOL    HW313355   1.625   0.595   6.125 -1.3775  1.9331  1.7096
 3397SOL    MW413356   1.681   0.568   6.187 -0.0756  0.0985 -0.0895
 3398SOL     OW13357   4.632   3.641   5.231 -0.9100  0.2245  0.2774
 3398SOL    HW213358   4.667   3.569   5.284 -1.8746 -0.4611  0.0016
 3398SOL    HW313359   4.552   3.606   5.192  0.3537  0.2736 -2.6334
 3398SOL    MW413360   4.626   3.627   5.233 -0.8705  0.1405 -0.1431
 3399SOL     OW13361   1.702   4.885   3.111 -0.2487  0.9039  0.3281
 3399SOL    HW213362   1.656   4.966   3.087 -0.8696 -0.0093 -1.8019
 3399SOL    HW313363   1.682   4.825   3.040  2.8576 -0.1187  0.2140
 3399SOL    MW413364   1.693   4.888   3.099  0.0793  0.6485  0.0320
 3400SOL     OW13365   0.455   3.544   0.938 -0.0649 -0.2275 -0.2403
 3400SOL    HW213366   0.495   3.518   0.855 -0.6510 -1.6310 -0.1160
 3400SOL    HW313367   0.406   3.623   0.917 -1.4330 -1.3771 -1.6061
 3400SOL    MW413368   0.454   3.551   0.924 -0.3228 -0.5643 -0.4041
 3401SOL     OW13369   3.400   6.385   1.552 -0.2099 -0.2801  0.2766
 3401SOL    HW213370   3.476   6.398   1.496  0.5253 -1.7138  0.9106
 3401SOL    HW313371   3.356   6.470   1.552 -0.1976 -0.1898 -2.3748
 3401SOL    MW413372   3.404   6.398   1.544 -0.1113 -0.4574  0.0104
 3402SOL     OW13373   2.067   4.405   5.102 -0.5038 -0.5958  0.0466
 3402SOL    HW213374   2.088   4.456   5.024  1.5596  0.5807  1.2683
 3402SOL    HW313375   1.980   4.436   5.128 -0.6036  0.0269 -0.9757
 3402SOL    MW413376   2.058   4.416   5.095 -0.2448 -0.3584  0.0729
 3403SOL     OW13377   5.230   5.602   0.091 -0.0648 -0.6744 -0.4396
 3403SOL    HW213378   5.225   5.530   0.154  1.5482 -0.7065 -0.3052
 3403SOL    HW313379   5.215   5.681   0.143  1.4511 -0.6846  0.0606
 3403SOL    MW413380   5.227   5.603   0.106  0.3480 -0.6800 -0.3558
 3404SOL     OW13381   4.570   3.767   3.579 -0.4590 -0.7727  0.3946
 3404SOL    HW213382   4.491   3.806   3.543  1.2644 -0.9626 -4.3423
 3404SOL    HW313383   4.628   3.841   3.596 -0.9235 -0.7458  1.9390
 3404SOL    MW413384   4.567   3.782   3.576 -0.2929 -0.7942 -0.0266
 3405SOL     OW13385   5.871   0.048   4.369  0.1034  0.2102 -1.1986
 3405SOL    HW213386   5.779   0.062   4.344 -0.8166 -3.6979 -0.5848
 3405SOL    HW313387   5.869   0.046   4.465  1.1323  1.4125 -1.1298
 3405SOL    MW413388   5.858   0.050   4.378  0.1177 -0.1468 -1.1086
 3406SOL     OW13389   1.746   2.623   6.066  0.1903 -0.2379  0.4283
 3406SOL    HW213390   1.785   2.604   5.981 -1.1129  0.0781 -0.2683
 3406SOL    HW313391   1.719   2.537   6.100 -1.4721 -0.1687 -0.6051
 3406SOL    MW413392   1.747   2.609   6.059 -0.2009 -0.1871  0.2000
 3407SOL     OW13393   2.352   0.478   3.223 -0.5777 -0.3583  0.6106
 3407SOL    HW213394   2.412   0.551   3.205  0.0014 -0.5019  1.8763
 3407SOL    HW313395   2.400   0.400   3.196 -1.7714 -0.2346 -2.1921
 3407SOL    MW413396   2.366   0.477   3.217 -0.6588 -0.3609  0.4078
 3408SOL     OW13397   0.829   3.552   4.584 -0.5295  0.5530 -0.4488
 3408SOL    HW213398   0.795   3.488   4.646  0.6545 -0.5442 -0.8894
 3408SOL    HW313399   0.779   3.538   4.504  0.7753 -0.9819 -1.0596
 3408SOL    MW413400   0.818   3.542   4.582 -0.2011  0.2057 -0.5875
 3409SOL     OW13401   3.197   2.689   3.648 -0.2131 -0.2646 -0.1006
 3409SOL    HW213402   3.212   2.622   3.714  0.6335  0.6879  0.7058
 3409SOL    HW313403   3.255   2.664   3.575 -1.4225 -1.5187 -0.6735
 3409SOL    MW413404   3.207   2.677   3.647 -0.2610 -0.3044 -0.0698
 3410SOL     OW13405   2.994   2.902   1.284  0.1171 -0.6913  0.1827
 3410SOL    HW213406   3.078   2.875   1.321  0.5277 -0.5555 -0.6357
 3410SOL    HW313407   2.936   2.827   1.298  0.6062 -1.1019  0.0244
 3410SOL    MW413408   2.997   2.888   1.291  0.2358 -0.7275  0.0538
 3411SOL     OW13409   3.561   4.411   0.106  0.9201  0.3637  0.1534
 3411SOL    HW213410   3.581   4.499   0.137 -0.6020  0.5262  0.7479
 3411SOL    HW313411   3.579   4.414   0.012  2.8453  0.6892  0.4853
 3411SOL    MW413412   3.566   4.423   0.098  0.9733  0.4281  0.2757
 3412SOL     OW13413   0.284   4.612   5.030  0.2950 -0.3601  0.1996
 3412SOL    HW213414   0.246   4.611   5.117 -2.2367 -0.1205 -0.8032
 3412SOL    HW313415   0.213   4.584   4.972  0.9636  2.1324 -2.0869
 3412SOL    MW413416   0.270   4.608   5.034  0.0492  0.0004 -0.2344
 3413SOL     OW13417   5.991   5.252   0.706 -0.2518  0.5379  0.2629
 3413SOL    HW213418   6.025   5.177   0.755  0.8007  1.1989  0.5983
 3413SOL    HW313419   5.962   5.313   0.773  0.9289  1.3280  0.0943
 3413SOL    MW413420   5.992   5.250   0.721  0.0428  0.7294  0.2849
 3414SOL     OW13421   1.826   5.128   3.916  0.0431 -0.3565 -0.3837
 3414SOL    HW213422   1.767   5.150   3.845 -0.0850 -1.1425 -0.5323
 3414SOL    HW313423   1.867   5.211   3.941 -0.0800 -0.0403 -1.2165
 3414SOL    MW413424   1.824   5.142   3.910  0.0100 -0.4185 -0.5132
 3415SOL     OW13425   1.981   1.397   4.650  0.0825  0.1754  1.0554
 3415SOL    HW213426   1.922   1.330   4.616  0.1496  0.6807 -0.1255
 3415SOL    HW313427   2.067   1.355   4.652  0.1011  0.1706  0.4395
 3415SOL    MW413428   1.985   1.383   4.646  0.0938  0.2414  0.8183
 3416SOL     OW13429   3.520   3.854   4.098 -0.0653  1.1039 -0.4862
 3416SOL    HW213430   3.610   3.820   4.095 -0.8051 -0.9326 -0.8277
 3416SOL    HW313431   3.467   3.781   4.128 -1.6515  2.2387 -0.3861
 3416SOL    MW413432   3.525   3.840   4.101 -0.3722  0.9849 -0.5181
 3417SOL     OW13433   4.092   3.287   1.951  0.4450  0.0583  0.1074
 3417SOL    HW213434   4.105   3.192   1.958  2.1479  0.3217  0.8723
 3417SOL    HW313435   4.074   3.315   2.040  1.7597  0.6909  0.1850
 3417SOL    MW413436   4.091   3.278   1.963  0.8431  0.1765  0.2185
 3418SOL     OW13437   1.944   0.697   5.517 -0.1720 -0.1414 -0.1927
 3418SOL    HW213438   2.000   0.631   5.477  0.9936  0.9434 -0.4129
 3418SOL    HW313439   2.001   0.742   5.580 -1.1872  0.0708  0.6127
 3418SOL    MW413440   1.959   0.694   5.520 -0.1522  0.0297 -0.1155
 3419SOL     OW13441   2.678   0.140   2.628  0.1014  0.0511 -0.7425
 3419SOL    HW213442   2.765   0.122   2.593  0.0943 -1.6062  0.0332
 3419SOL    HW313443   2.694   0.187   2.710  0.5553 -3.8032  1.6022
 3419SOL    MW413444   2.691   0.144   2.634  0.1604 -0.6761 -0.3308
 3420SOL     OW13445   4.746   1.257   0.836  0.3382  0.0121  0.1592
 3420SOL    HW213446   4.698   1.187   0.880 -0.6590 -0.4113 -1.5218
 3420SOL    HW313447   4.837   1.245   0.864 -0.1444 -0.6260  1.5443
 3420SOL    MW413448   4.751   1.246   0.846  0.1429 -0.1279  0.1202
 3421SOL     OW13449   0.724   3.893   3.422  0.2088  0.6097 -0.0807
 3421SOL    HW213450   0.641   3.932   3.395 -0.5152 -0.7946  0.0590
 3421SOL    HW313451   0.787   3.926   3.358 -0.3433  2.0644  0.0807
 3421SOL    MW413452   0.721   3.903   3.410  0.0404  0.6163 -0.0409
 3422SOL     OW13453   2.284   5.189   1.148 -0.7241  0.0377  0.5744
 3422SOL    HW213454   2.205   5.239   1.129 -0.9423 -0.2959  0.6021
 3422SOL    HW313455   2.259   5.098   1.136  0.1176 -0.0067 -1.1918
 3422SOL    MW413456   2.270   5.184   1.144 -0.6418 -0.0122  0.3451
 3423SOL     OW13457   3.675   1.582   6.066 -0.0581  0.1232  0.1287
 3423SOL    HW213458   3.619   1.538   6.129 -0.9736 -0.0328 -0.7626
 3423SOL    HW313459   3.724   1.646   6.117 -1.0767  0.2861  0.9310
 3423SOL    MW413460   3.674   1.585   6.081 -0.3133  0.1241  0.1170
 3424SOL     OW13461   2.538   1.349   6.016  0.2593 -0.0873 -0.0111
 3424SOL    HW213462   2.513   1.426   6.067 -0.1133  0.3458 -0.8292
 3424SOL    HW313463   2.617   1.376   5.969 -0.8546  0.4443 -1.6812
 3424SOL    MW413464   2.545   1.363   6.017  0.0631  0.0400 -0.3394
 3425SOL     OW13465   0.247   5.425   1.326  0.4709  0.0409  0.0935
 3425SOL    HW213466   0.260   5.488   1.397  1.3795  1.0886 -0.9717
 3425SOL    HW313467   0.154   5.403   1.331 -0.2426  2.5945 -0.4053
 3425SOL    MW413468   0.237   5.430   1.336  0.4966  0.5161 -0.1129
 3426SOL     OW13469   0.381   2.793   3.798  0.6074  0.0674 -0.1315
 3426SOL    HW213470   0.371   2.855   3.726 -2.2053  0.4064  0.4205
 3426SOL    HW313471   0.441   2.836   3.859 -0.0466  1.5621 -0.4937
 3426SOL    MW413472   0.388   2.807   3.797  0.1500  0.3094 -0.1065
 3427SOL     OW13473   2.082   3.951   3.100 -0.3498 -0.1128 -0.2703
 3427SOL    HW213474   2.091   3.873   3.155  1.1430  2.4872  3.6639
 3427SOL    HW313475   2.165   3.957   3.053  0.6497  0.3940  1.4740
 3427SOL    MW413476   2.094   3.941   3.101 -0.0210  0.2971  0.4789
 3428SOL     OW13477   2.625   2.410   3.072  0.2245 -0.4292 -0.0194
 3428SOL    HW213478   2.545   2.416   3.124  0.3906  1.6226  0.0813
 3428SOL    HW313479   2.600   2.445   2.986  1.5841  3.1145  0.8340
 3428SOL    MW413480   2.611   2.416   3.067  0.4258  0.3091  0.1065
 3429SOL     OW13481   5.706   2.519   1.117 -0.5295  0.4216 -0.1116
 3429SOL    HW213482   5.727   2.606   1.152 -2.2016  1.7114 -2.0370
 3429SOL    HW313483   5.791   2.481   1.095  0.1975  2.5416 -1.2895
 3429SOL    MW413484   5.720   2.526   1.118 -0.6542  0.8715 -0.5210
 3430SOL     OW13485   4.049   5.985   3.170  0.0266 -0.6564 -0.1673
 3430SOL    HW213486   3.997   6.060   3.198  2.8495  0.7963  1.7124
 3430SOL    HW313487   4.115   6.022   3.111  2.1506 -1.3486  1.6445
 3430SOL    MW413488   4.051   5.999   3.166  0.6793 -0.5560  0.3198
 3431SOL     OW13489   1.066   1.347   4.178  0.3478 -0.0425 -0.8067
 3431SOL    HW213490   1.080   1.273   4.238 -0.2294 -0.0054 -0.6225
 3431SOL    HW313491   1.143   1.346   4.121  3.2751  2.5616  2.5994
 3431SOL    MW413492   1.078   1.337   4.178  0.6579  0.3060 -0.3330
 3432SOL     OW13493   3.123   1.074   5.337  0.6491 -0.1483 -0.1694
 3432SOL    HW213494   3.106   1.168   5.333  1.1183 -0.0668 -0.3311
 3432SOL    HW313495   3.048   1.034   5.293  0.2415  0.1224  0.2649
 3432SOL    MW413496   3.111   1.081   5.331  0.6572 -0.1018 -0.1334
 3433SOL     OW13497   1.725   4.546   4.880 -0.1455  0.2330 -0.3994
 3433SOL    HW213498   1.749   4.498   4.959 -0.4794 -0.3240 -0.6288
 3433SOL    HW313499   1.645   4.503   4.849 -0.9072  1.4423 -0.1799
 3433SOL    MW413500   1.718   4.534   4.886 -0.2901  0.3191 -0.4007
 3434SOL     OW13501   5.104   5.990   4.310 -0.1736 -0.6790 -0.1560
 3434SOL    HW213502   5.014   6.021   4.316 -0.5198 -1.4100 -1.2892
 3434SOL    HW313503   5.157   6.067   4.330 -1.0390  0.1086 -0.8059
 3434SOL    MW413504   5.099   6.005   4.314 -0.3334 -0.6715 -0.3913
 3435SOL     OW13505   5.886   0.046   3.252  0.2323  0.2085  0.6596
 3435SOL    HW213506   5.883   0.141   3.254  0.9301  0.2265  1.7427
 3435SOL    HW313507   5.853   0.018   3.338  0.5195 -0.5020  0.5516
 3435SOL    MW413508   5.881   0.055   3.264  0.3622  0.1171  0.7882
 3436SOL     OW13509   4.455   3.364   4.930 -0.1046  0.0862  0.5104
 3436SOL    HW213510   4.431   3.431   4.994  0.2790  0.6468  0.0691
 3436SOL    HW313511   4.513   3.408   4.869 -0.5799 -0.4033 -0.3144
 3436SOL    MW413512   4.459   3.378   4.931 -0.1167  0.0956  0.3433
 3437SOL     OW13513   6.122   6.134   0.175 -0.5762 -0.1137  0.0525
 3437SOL    HW213514   6.051   6.110   0.234 -0.2174 -1.3585  0.0161
 3437SOL    HW313515   6.098   6.096   0.091  0.2538 -0.7962  0.1114
 3437SOL    MW413516   6.110   6.126   0.172 -0.4194 -0.3680  0.0555
 3438SOL     OW13517   3.604   3.735   6.259 -0.0297 -0.0958 -0.1625
 3438SOL    HW213518   3.578   3.668   6.322 -0.6382  1.0361  0.8246
 3438SOL    HW313519   3.610   3.815   6.310  1.6469  0.4444 -1.1255
 3438SOL    MW413520   3.601   3.737   6.274  0.1112  0.1249 -0.1593
 3439SOL     OW13521   5.586   1.293   3.169 -0.1613 -0.2318  0.0276
 3439SOL    HW213522   5.509   1.336   3.206  1.2857  1.3388  1.3889
 3439SOL    HW313523   5.618   1.354   3.102  0.9220  0.0420  0.7640
 3439SOL    MW413524   5.580   1.307   3.165  0.1726  0.0116  0.3043
 3440SOL     OW13525   3.647   3.749   0.495 -0.3859  0.2428 -0.7826
 3440SOL    HW213526   3.736   3.719   0.514 -0.2606 -0.4441 -2.2640
 3440SOL    HW313527   3.641   3.745   0.399 -1.6932  1.2149 -0.7691
 3440SOL    MW413528   3.658   3.745   0.485 -0.5419  0.2805 -0.9763
 3441SOL     OW13529   0.366   5.544   1.906  0.4448 -0.1382  0.0324
 3441SOL    HW213530   0.396   5.481   1.972 -0.1423 -0.3738  0.0790
 3441SOL    HW313531   0.373   5.629   1.950  0.5868 -0.2363  0.2034
 3441SOL    MW413532   0.371   5.547   1.921  0.3861 -0.1822  0.0611
 3442SOL     OW13533   0.292   2.391   4.122 -0.1427  0.0452 -0.3029
 3442SOL    HW213534   0.218   2.432   4.077 -0.2677 -0.0483 -0.1849
 3442SOL    HW313535   0.294   2.302   4.086 -0.0921  0.0459 -0.3005
 3442SOL    MW413536   0.282   2.384   4.111 -0.1525  0.0330 -0.2870
 3443SOL     OW13537   2.785   5.855   4.068  0.0814  0.1873 -0.3904
 3443SOL    HW213538   2.865   5.849   4.121  0.4197  0.1442 -0.8994
 3443SOL    HW313539   2.735   5.926   4.109  0.5811  0.5102 -0.3239
 3443SOL    MW413540   2.789   5.864   4.080  0.1919  0.2242 -0.4488
 3444SOL     OW13541   4.670   4.968   1.209 -0.1767 -0.9523 -0.5778
 3444SOL    HW213542   4.661   4.996   1.300  2.4539 -0.9000 -0.2774
 3444SOL    HW313543   4.618   4.887   1.203  0.3155 -1.4259  1.1955
 3444SOL    MW413544   4.662   4.961   1.220  0.2353 -1.0079 -0.3042
 3445SOL     OW13545   4.255   0.418   5.476 -0.0990  0.9463 -0.0866
 3445SOL    HW213546   4.271   0.476   5.401  0.6935  0.7467 -0.0735
 3445SOL    HW313547   4.332   0.427   5.531 -0.0727  0.0593  0.0387
 3445SOL    MW413548   4.267   0.427   5.473  0.0090  0.8029 -0.0683
 3446SOL     OW13549   5.377   3.518   3.232 -0.3277  0.6351  0.3113
 3446SOL    HW213550   5.289   3.482   3.232 -0.7642  1.6713  0.1471
 3446SOL    HW313551   5.380   3.575   3.309  0.6752 -0.4846  1.1484
 3446SOL    MW413552   5.366   3.521   3.243 -0.2529  0.6241  0.4001
 3447SOL     OW13553   0.057   1.142   3.141  0.0148 -0.1797 -0.6568
 3447SOL    HW213554  -0.020   1.196   3.159 -0.3385 -0.2613 -1.8202
 3447SOL    HW313555   0.021   1.054   3.125  0.5934 -0.8336  1.3543
 3447SOL    MW413556   0.042   1.137   3.141  0.0445 -0.2768 -0.5449
 3448SOL     OW13557   1.788   4.996   5.807 -0.2267  0.0143 -0.0236
 3448SOL    HW213558   1.879   5.028   5.806 -0.4167  0.6909  1.5583
 3448SOL    HW313559   1.792   4.914   5.856 -0.0878 -1.4073 -2.2595
 3448SOL    MW413560   1.801   4.989   5.814 -0.2335 -0.0840 -0.1099
 3449SOL     OW13561   2.341   0.503   5.921  0.4347 -0.4836 -0.2979
 3449SOL    HW213562   2.351   0.519   6.015 -0.7220 -0.7004 -0.1239
 3449SOL    HW313563   2.333   0.590   5.882 -0.0868 -0.4269 -0.0680
 3449SOL    MW413564   2.341   0.517   5.928  0.2133 -0.5047 -0.2446
 3450SOL     OW13565   4.598   5.666   2.508 -0.0602 -0.5667 -0.4385
 3450SOL    HW213566   4.691   5.654   2.492 -0.3787 -1.1473 -2.0453
 3450SOL    HW313567   4.556   5.646   2.424 -1.4328  2.2145 -0.5555
 3450SOL    MW413568   4.605   5.662   2.495 -0.2833 -0.2763 -0.6659
 3451SOL     OW13569   0.701   2.809   1.353  0.6839  0.2079  0.2006
 3451SOL    HW213570   0.676   2.721   1.325  2.0016 -0.1657  0.1358
 3451SOL    HW313571   0.620   2.860   1.346  0.4152 -0.3975 -2.1532
 3451SOL    MW413572   0.687   2.804   1.348  0.8223  0.0787 -0.1185
 3452SOL     OW13573   1.897   5.624   1.908  0.0235 -0.5013 -0.6690
 3452SOL    HW213574   1.851   5.587   1.984  0.0172 -0.9181 -0.8775
 3452SOL    HW313575   1.838   5.692   1.876  0.2692  0.0657  0.0327
 3452SOL    MW413576   1.883   5.628   1.914  0.0551 -0.4814 -0.6039
 3453SOL     OW13577   1.443   6.122   1.140  0.1024  0.4260 -0.0808
 3453SOL    HW213578   1.431   6.178   1.216  1.1673 -0.2449  0.6038
 3453SOL    HW313579   1.534   6.134   1.115  0.0878 -0.2719 -0.5065
 3453SOL    MW413580   1.453   6.131   1.147  0.2409  0.2454 -0.0466
 3454SOL     OW13581   3.003   0.515   2.710 -0.1169  0.0990 -0.3960
 3454SOL    HW213582   2.955   0.598   2.717 -0.5579 -0.2666  1.5296
 3454SOL    HW313583   2.951   0.463   2.649 -0.9946  0.5037 -0.0210
 3454SOL    MW413584   2.990   0.519   2.703 -0.2909  0.1041 -0.0925
 3455SOL     OW13585   5.794   2.681   3.887 -0.5139  0.0018 -0.7631
 3455SOL    HW213586   5.753   2.761   3.853 -0.5726  0.9867  1.4148
 3455SOL    HW313587   5.734   2.611   3.861 -1.0984  0.8089 -1.6764
 3455SOL    MW413588   5.780   2.682   3.879 -0.5987  0.2382 -0.5962
 3456SOL     OW13589   3.621   5.911   1.621  0.1513 -0.4099  0.6759
 3456SOL    HW213590   3.609   5.926   1.527  1.9315  1.3834  0.6780
 3456SOL    HW313591   3.654   5.994   1.655  0.6084 -1.3523  2.6997
 3456SOL    MW413592   3.624   5.924   1.613  0.4465 -0.2977  0.9432
 3457SOL     OW13593   3.304   4.534   1.726  0.2434  0.2481 -0.0633
 3457SOL    HW213594   3.363   4.594   1.681  1.4775 -0.2149  0.8773
 3457SOL    HW313595   3.360   4.462   1.755 -1.2147 -1.4096 -1.1835
 3457SOL    MW413596   3.319   4.532   1.724  0.2139 -0.0317 -0.0870
 3458SOL     OW13597   2.454   3.808   5.157 -0.8162 -0.2786 -0.4917
 3458SOL    HW213598   2.540   3.809   5.197 -1.8047  1.0503  1.7976
 3458SOL    HW313599   2.419   3.721   5.175 -1.1507  0.2137  1.4861
 3458SOL    MW413600   2.461   3.797   5.164 -0.9907 -0.0384  0.0713
 3459SOL     OW13601   2.295   3.622   0.094  0.5186 -0.1861 -0.1018
 3459SOL    HW213602   2.373   3.570   0.075 -0.4002 -1.5616 -0.2327
 3459SOL    HW313603   2.259   3.583   0.173  0.4953  1.0876  0.5381
 3459SOL    MW413604   2.301   3.610   0.102  0.3943 -0.1995 -0.0346
 3460SOL     OW13605   2.835   0.208   0.037  0.2768 -0.8519  0.0515
 3460SOL    HW213606   2.758   0.152   0.036  1.1359 -2.0688 -1.2949
 3460SOL    HW313607   2.857   0.217   0.130 -1.3545 -0.6036  0.4506
 3460SOL    MW413608   2.828   0.202   0.049  0.1749 -0.9797 -0.0735
 3461SOL     OW13609   2.999   5.256   5.694 -0.4424 -0.4046  0.6958
 3461SOL    HW213610   2.911   5.291   5.679 -0.5195 -1.8121 -3.1288
 3461SOL    HW313611   3.046   5.273   5.612  1.9964 -2.1095  1.6299
 3461SOL    MW413612   2.993   5.263   5.681 -0.1308 -0.8152  0.3145
 3462SOL     OW13613   0.350   4.867   5.829  0.4359 -0.1230 -0.2854
 3462SOL    HW213614   0.417   4.869   5.897  1.4275  0.5140 -1.2597
 3462SOL    HW313615   0.348   4.955   5.794 -1.1691 -0.0305 -0.0621
 3462SOL    MW413616   0.358   4.879   5.833  0.3550 -0.0267 -0.3845
 3463SOL     OW13617   5.330   0.314   0.914  0.5177  0.4482  0.4160
 3463SOL    HW213618   5.278   0.389   0.944 -1.3768 -1.0680  1.1741
 3463SOL    HW313619   5.359   0.271   0.994  0.0145 -0.6246  0.0436
 3463SOL    MW413620   5.327   0.318   0.928  0.2013  0.1066  0.4669
 3464SOL     OW13621   1.563   1.198   5.419 -0.3919  0.6882 -0.3971
 3464SOL    HW213622   1.618   1.236   5.488 -1.2380  0.6285  0.3077
 3464SOL    HW313623   1.576   1.257   5.344 -0.8163  1.7512  0.3461
 3464SOL    MW413624   1.572   1.211   5.418 -0.5595  0.8205 -0.2061
 3465SOL     OW13625   5.289   3.797   5.448 -0.0936  0.3153  0.2790
 3465SOL    HW213626   5.239   3.858   5.393 -0.3386 -0.5111 -0.4376
 3465SOL    HW313627   5.334   3.740   5.385 -0.3569 -0.6366  0.9380
 3465SOL    MW413628   5.288   3.798   5.432 -0.1607  0.0807  0.2714
 3466SOL     OW13629   3.291   6.008   5.508 -0.0226  0.2045  0.6979
 3466SOL    HW213630   3.383   5.998   5.487  0.0321 -2.6968  1.9481
 3466SOL    HW313631   3.251   6.038   5.427  1.8851  0.8638 -0.0473
 3466SOL    MW413632   3.298   6.011   5.495  0.2363 -0.0913  0.7645
 3467SOL     OW13633   1.720   2.405   0.503 -0.3502  0.1161  0.0291
 3467SOL    HW213634   1.768   2.352   0.440  0.6487  1.6469 -0.5561
 3467SOL    HW313635   1.654   2.346   0.539  0.1242 -1.2469 -1.2460
 3467SOL    MW413636   1.717   2.390   0.499 -0.1558  0.1383 -0.2163
 3468SOL     OW13637   4.683   5.359   4.462 -0.3850 -0.3582  0.2775
 3468SOL    HW213638   4.652   5.427   4.522 -0.2762  1.3437 -1.4932
 3468SOL    HW313639   4.608   5.341   4.405  0.2247 -0.1215 -0.6276
 3468SOL    MW413640   4.669   5.366   4.462 -0.2902 -0.1024 -0.0756
 3469SOL     OW13641   6.172   5.841   4.792 -0.2264  0.1603 -0.3632
 3469SOL    HW213642   6.175   5.746   4.778 -0.0365  0.2601 -1.0396
 3469SOL    HW313643   6.227   5.877   4.723 -0.4134  0.7732 -0.1966
 3469SOL    MW413644   6.179   5.833   4.781 -0.2260  0.2544 -0.4305
 3470SOL     OW13645   1.847   1.523   0.438 -0.6204  0.3903  0.1432
 3470SOL    HW213646   1.832   1.536   0.344 -2.7973  1.6330  0.5775
 3470SOL    HW313647   1.864   1.611   0.472  0.6184 -0.0994  0.8782
 3470SOL    MW413648   1.847   1.537   0.430 -0.7442  0.4896  0.2975
 3471SOL     OW13649   0.747   1.112   1.642  0.5020 -0.6193 -0.3856
 3471SOL    HW213650   0.723   1.196   1.603  1.1190 -1.1223 -1.8978
 3471SOL    HW313651   0.665   1.077   1.676  0.0707  0.1473 -0.6178
 3471SOL    MW413652   0.733   1.119   1.642  0.5265 -0.5845 -0.6157
 3472SOL     OW13653   0.091   1.021   5.341 -0.0207  0.6136  0.3022
 3472SOL    HW213654   0.035   0.944   5.329  1.5888 -0.7034  0.8416
 3472SOL    HW313655   0.031   1.094   5.343 -1.6073 -0.6075 -0.4398
 3472SOL    MW413656   0.076   1.020   5.340 -0.0177  0.2787  0.2754
 3473SOL     OW13657   1.550   3.770   4.614  0.0690 -0.2553  0.1598
 3473SOL    HW213658   1.624   3.709   4.609 -0.3280 -0.7296  0.1133
 3473SOL    HW313659   1.565   3.819   4.695 -0.2335 -1.2127  0.8015
 3473SOL    MW413660   1.562   3.769   4.624 -0.0233 -0.4442  0.2383
 3474SOL     OW13661   0.561   2.616   6.036 -0.8399  0.0956  0.0422
 3474SOL    HW213662   0.620   2.605   5.961 -0.3956  0.8473  0.2745
 3474SOL    HW313663   0.474   2.624   5.996 -0.6727 -0.0514 -0.3626
 3474SOL    MW413664   0.557   2.616   6.021 -0.7592  0.1754  0.0194
 3475SOL     OW13665   2.138   3.431   3.631 -0.5833  0.0128  0.6225
 3475SOL    HW213666   2.043   3.430   3.618 -0.3365 -0.1686 -1.7018
 3475SOL    HW313667   2.174   3.419   3.543  1.6149  1.0983  1.2946
 3475SOL    MW413668   2.130   3.429   3.617 -0.2607  0.1321  0.4045
 3476SOL     OW13669   3.244   0.784   2.941  0.2585  0.3413 -0.2045
 3476SOL    HW213670   3.237   0.808   3.034 -0.1491  1.6716 -0.5620
 3476SOL    HW313671   3.209   0.696   2.936  1.6925 -0.3597  1.1575
 3476SOL    MW413672   3.239   0.776   2.953  0.3939  0.4244 -0.0720
 3477SOL     OW13673   1.620   1.781   5.133  0.8438  0.1876 -0.1541
 3477SOL    HW213674   1.682   1.743   5.197  0.1419  0.7612  0.9013
 3477SOL    HW313675   1.577   1.851   5.181  0.4303  0.7728 -1.3497
 3477SOL    MW413676   1.623   1.785   5.148  0.6966  0.3405 -0.1726
 3478SOL     OW13677   4.055   0.624   1.470 -0.3343 -0.5812  0.0460
 3478SOL    HW213678   3.974   0.573   1.480  0.1141 -1.3931 -0.3737
 3478SOL    HW313679   4.106   0.603   1.549 -0.2773 -0.5533  0.0159
 3478SOL    MW413680   4.051   0.614   1.482 -0.2676 -0.6846 -0.0134
 3479SOL     OW13681   1.005   1.951   1.076  0.1101  0.2723 -0.2812
 3479SOL    HW213682   1.048   1.944   1.162 -0.9556 -0.1614  0.2299
 3479SOL    HW313683   1.038   2.033   1.040 -0.9087  1.4859  1.4107
 3479SOL    MW413684   1.015   1.961   1.083 -0.1649  0.3752  0.0094
 3480SOL     OW13685   1.048   3.667   3.522  0.0250 -0.1346  0.1081
 3480SOL    HW213686   1.129   3.655   3.571 -0.6473 -0.0896  1.2872
 3480SOL    HW313687   1.069   3.731   3.454  0.9547 -0.0800  0.4429
 3480SOL    MW413688   1.061   3.674   3.520  0.0590 -0.1214  0.3078
 3481SOL     OW13689   2.109   2.141   4.270  0.0228  0.0153  0.1251
 3481SOL    HW213690   2.162   2.145   4.190 -1.1426  0.4590 -0.6556
 3481SOL    HW313691   2.019   2.153   4.239 -0.3974  0.8598  1.5766
 3481SOL    MW413692   2.104   2.143   4.255 -0.1864  0.1852  0.2136
 3482SOL     OW13693   1.056   6.311   1.381  0.1256 -0.1555 -0.1505
 3482SOL    HW213694   0.993   6.278   1.445 -0.6626  3.2420  1.0357
 3482SOL    HW313695   1.018   6.290   1.296 -1.2294 -0.6064  0.5388
 3482SOL    MW413696   1.043   6.304   1.379 -0.1572  0.2333  0.0969
 3483SOL     OW13697   4.362   3.766   0.595 -0.1199  0.4531  0.4243
 3483SOL    HW213698   4.411   3.847   0.609  0.9474 -0.0082 -0.4265
 3483SOL    HW313699   4.304   3.786   0.522 -0.9711  0.8936  1.2016
 3483SOL    MW413700   4.361   3.779   0.587 -0.0914  0.4503  0.4146
 3484SOL     OW13701   2.704   5.267   1.557  0.3097 -0.0614  0.4575
 3484SOL    HW213702   2.791   5.227   1.564  0.5692  0.1271 -1.2801
 3484SOL    HW313703   2.698   5.295   1.466 -2.3208 -1.7613  0.0138
 3484SOL    MW413704   2.715   5.266   1.546 -0.0031 -0.2608  0.1697
 3485SOL     OW13705   1.367   5.518   1.480  0.2752 -0.4863 -0.4133
 3485SOL    HW213706   1.396   5.610   1.484 -1.0672 -0.0898  1.4104
 3485SOL    HW313707   1.349   5.495   1.570  3.2013 -3.5082 -0.4283
 3485SOL    MW413708   1.368   5.527   1.492  0.4842 -0.8327 -0.1746
 3486SOL     OW13709   3.442   1.692   4.917 -0.6369 -0.7343 -0.0591
 3486SOL    HW213710   3.503   1.759   4.947 -0.4543 -0.6527 -0.5893
 3486SOL    HW313711   3.356   1.733   4.925 -0.4905 -0.2526 -0.8245
 3486SOL    MW413712   3.439   1.706   4.922 -0.5935 -0.6600 -0.2301
 3487SOL     OW13713   4.460   1.340   3.414 -0.4984  0.2134  0.1860
 3487SOL    HW213714   4.421   1.408   3.359  0.3857 -0.1769 -0.9760
 3487SOL    HW313715   4.523   1.386   3.469  1.4071  0.1957 -1.8335
 3487SOL    MW413716   4.463   1.355   3.414 -0.1303  0.1595 -0.2338
 3488SOL     OW13717   1.426   4.624   2.717  0.2742 -0.0430  0.2833
 3488SOL    HW213718   1.383   4.710   2.709  2.1495  0.8941 -0.4498
 3488SOL    HW313719   1.353   4.562   2.724 -1.1883  1.4676 -0.5061
 3488SOL    MW413720   1.410   4.627   2.717  0.3286  0.2799  0.0824
 3489SOL     OW13721   1.957   4.535   3.556  0.2138  0.1250  0.2214
 3489SOL    HW213722   2.036   4.588   3.546  1.6150 -0.8278  4.4006
 3489SOL    HW313723   1.988   4.453   3.594 -2.5842 -1.3607 -0.3979
 3489SOL    MW413724   1.971   4.531   3.559  0.0295 -0.1967  0.6911
 3490SOL     OW13725   0.224   5.924   5.826  0.5860 -0.1302  0.0595
 3490SOL    HW213726   0.154   5.860   5.811 -0.0522  0.5187  0.2138
 3490SOL    HW313727   0.269   5.892   5.904  0.4712 -0.5607 -0.0479
 3490SOL    MW413728   0.220   5.911   5.835  0.4867 -0.1013  0.0657
 3491SOL     OW13729   0.173   1.467   4.787  0.0514 -0.2050 -0.3103
 3491SOL    HW213730   0.243   1.418   4.744  0.6678  1.5394 -1.3935
 3491SOL    HW313731   0.095   1.447   4.736  0.0248 -1.0201  0.0284
 3491SOL    MW413732   0.172   1.457   4.775  0.1292 -0.0824 -0.4085
 3492SOL     OW13733   3.283   0.798   2.507 -0.3081 -0.2950  0.1077
 3492SOL    HW213734   3.200   0.749   2.503 -0.0117 -1.0352  1.8319
 3492SOL    HW313735   3.259   0.881   2.547 -0.4202  0.0469 -0.6487
 3492SOL    MW413736   3.269   0.802   2.512 -0.2838 -0.3476  0.2354
 3493SOL     OW13737   4.975   1.617   2.591 -0.1731  0.7752 -0.2374
 3493SOL    HW213738   5.056   1.649   2.631 -0.1380  0.6148 -0.1786
 3493SOL    HW313739   4.940   1.554   2.654  0.1552  0.1240 -0.6892
 3493SOL    MW413740   4.981   1.613   2.605 -0.1252  0.6681 -0.2892
 3494SOL     OW13741   2.867   3.269   4.649 -0.1780  0.1709 -0.2042
 3494SOL    HW213742   2.889   3.175   4.644  0.6614  0.4054 -1.6370
 3494SOL    HW313743   2.899   3.296   4.735 -0.3025 -0.8247  0.1739
 3494SOL    MW413744   2.874   3.260   4.659 -0.0837  0.0705 -0.3433
 3495SOL     OW13745   5.262   1.317   3.960  0.2735 -0.4671 -0.3268
 3495SOL    HW213746   5.265   1.222   3.973  2.0349 -0.3384  0.5268
 3495SOL    HW313747   5.341   1.337   3.908 -0.1660  0.5094 -0.6485
 3495SOL    MW413748   5.273   1.307   3.955  0.4479 -0.3213 -0.2566
 3496SOL     OW13749   1.459   3.356   2.060 -0.5249 -0.0002  0.0199
 3496SOL    HW213750   1.456   3.452   2.062 -0.9783 -0.0121 -0.0388
 3496SOL    HW313751   1.380   3.330   2.012  0.1334 -0.3731 -0.8704
 3496SOL    MW413752   1.448   3.365   2.054 -0.4978 -0.0510 -0.1053
 3497SOL     OW13753   6.313   2.646   4.630 -0.4457 -0.3265  0.0847
 3497SOL    HW213754   6.322   2.553   4.648 -0.6458 -0.3072  0.2980
 3497SOL    HW313755   6.297   2.685   4.716 -2.2692 -0.3334 -0.2182
 3497SOL    MW413756   6.312   2.639   4.644 -0.7127 -0.3249  0.0729
 3498SOL     OW13757   2.767   5.030   3.575 -0.2020  0.7644 -0.0123
 3498SOL    HW213758   2.829   5.010   3.505 -0.6572 -0.5702 -0.0452
 3498SOL    HW313759   2.823   5.056   3.649  0.2833  2.0281 -0.7910
 3498SOL    MW413760   2.783   5.031   3.575 -0.1980  0.7551 -0.1194
 3499SOL     OW13761   2.362   0.209   5.722 -0.3690  0.2807 -0.1461
 3499SOL    HW213762   2.289   0.270   5.731 -0.1376  0.3646  1.4973
 3499SOL    HW313763   2.439   0.262   5.745  0.0824 -0.0870 -0.7990
 3499SOL    MW413764   2.363   0.224   5.726 -0.2789  0.2432 -0.0154
 3500SOL     OW13765   4.668   2.626   4.120 -0.2101  0.1763 -0.7175
 3500SOL    HW213766   4.603   2.560   4.144  0.5949 -0.4661 -0.2437
 3500SOL    HW313767   4.638   2.706   4.165 -0.6990 -0.0882 -0.5624
 3500SOL    MW413768   4.655   2.628   4.129 -0.1684  0.0567 -0.6345
 3501SOL     OW13769   0.956   4.930   2.245  0.4699  0.4477  0.0431
 3501SOL    HW213770   0.887   4.864   2.245  0.4207  0.4951 -0.2489
 3501SOL    HW313771   0.944   4.978   2.327  1.9745 -1.4153  1.4441
 3501SOL    MW413772   0.945   4.927   2.255  0.6619  0.2082  0.1895
 3502SOL     OW13773   0.290   3.051   0.753  0.7702  0.2726  0.3965
 3502SOL    HW213774   0.315   3.117   0.818 -0.7681  1.3751 -0.0620
 3502SOL    HW313775   0.258   2.977   0.804 -1.1162  1.4066  0.9564
 3502SOL    MW413776   0.289   3.050   0.768  0.3183  0.5677  0.4099
 3503SOL     OW13777   3.175   4.634   2.318 -0.4643  0.0237  0.6099
 3503SOL    HW213778   3.175   4.602   2.408 -2.4616 -0.0767  0.6295
 3503SOL    HW313779   3.241   4.703   2.317 -0.9585  0.5849  2.3763
 3503SOL    MW413780   3.184   4.639   2.330 -0.7930  0.0845  0.8456
 3504SOL     OW13781   6.079   0.085   6.049 -0.1725 -0.7462 -0.5272
 3504SOL    HW213782   6.165   0.045   6.036  0.5378  0.9052 -1.2672
 3504SOL    HW313783   6.077   0.106   6.142  0.6934  0.1282 -0.6805
 3504SOL    MW413784   6.090   0.083   6.059  0.0355 -0.4129 -0.6451
 3505SOL     OW13785   2.856   3.382   4.202 -0.1959 -0.2469 -0.2673
 3505SOL    HW213786   2.859   3.417   4.113  1.3724 -0.1809 -0.2231
 3505SOL    HW313787   2.794   3.439   4.248 -1.3028 -0.5052 -1.3841
 3505SOL    MW413788   2.848   3.394   4.197 -0.1350 -0.2722 -0.4088
 3506SOL     OW13789   4.445   3.380   0.105 -0.0064 -0.2259 -0.6531
 3506SOL    HW213790   4.438   3.395   0.200  1.3383 -0.8780 -0.4329
 3506SOL    HW313791   4.437   3.467   0.066 -0.7698  0.0294  0.0325
 3506SOL    MW413792   4.443   3.394   0.113  0.0703 -0.2783 -0.5336
 3507SOL     OW13793   0.246   6.244   6.117  0.2265 -0.0501  0.2186
 3507SOL    HW213794   0.161   6.236   6.161  1.1301 -1.6315  1.8248
 3507SOL    HW313795   0.270   6.336   6.127 -1.0429  0.3008  0.2065
 3507SOL    MW413796   0.238   6.255   6.124  0.1783 -0.2125  0.4289
 3508SOL     OW13797   4.157   2.149   2.069 -0.3824 -0.2769 -0.6750
 3508SOL    HW213798   4.252   2.160   2.069 -0.4011 -0.0045 -1.5490
 3508SOL    HW313799   4.141   2.071   2.121  0.2743  0.0392  0.0143
 3508SOL    MW413800   4.167   2.140   2.076 -0.2982 -0.1993 -0.6993
 3509SOL     OW13801   1.477   5.200   4.151 -0.0801 -0.5982  0.5873
 3509SOL    HW213802   1.442   5.186   4.063 -1.0680  0.2680  0.8208
 3509SOL    HW313803   1.400   5.203   4.207  0.3342  1.4524  1.1137
 3509SOL    MW413804   1.462   5.198   4.147 -0.1558 -0.2133  0.6876
 3510SOL     OW13805   6.206   1.174   0.423  0.1247 -1.2101 -0.4977
 3510SOL    HW213806   6.258   1.148   0.500 -0.1806 -0.2168  0.0617
 3510SOL    HW313807   6.265   1.229   0.372 -0.3998  0.0210  0.2006
 3510SOL    MW413808   6.221   1.177   0.427  0.0152 -0.9166 -0.3317
 3511SOL     OW13809   0.285   2.513   1.909 -0.2766  1.1713 -0.5461
 3511SOL    HW213810   0.323   2.451   1.847 -2.0027  0.2794 -0.7914
 3511SOL    HW313811   0.345   2.587   1.909  1.3617 -0.0933 -0.9672
 3511SOL    MW413812   0.298   2.515   1.901 -0.2882  0.8867 -0.6341
 3512SOL     OW13813   2.552   0.331   1.915 -0.0484 -0.1451  0.2576
 3512SOL    HW213814   2.596   0.355   1.834  0.3409 -2.4746 -0.3102
 3512SOL    HW313815   2.545   0.235   1.910 -2.9673 -0.0898  1.4564
 3512SOL    MW413816   2.557   0.321   1.904 -0.3822 -0.4452  0.3409
 3513SOL     OW13817   5.074   3.944   6.257 -0.6959 -0.6059  0.1279
 3513SOL    HW213818   5.044   3.895   6.335 -1.5081 -1.0070 -0.4193
 3513SOL    HW313819   5.024   4.026   6.260 -0.9406 -0.7435 -0.1160
 3513SOL    MW413820   5.063   3.948   6.268 -0.8353 -0.6770  0.0235
 3514SOL     OW13821   3.363   2.927   2.554 -0.8434 -0.0640 -0.0144
 3514SOL    HW213822   3.453   2.946   2.582 -1.1737  0.0194  1.0382
 3514SOL    HW313823   3.321   2.890   2.632 -1.9430  0.6202 -0.2614
 3514SOL    MW413824   3.370   2.925   2.568 -1.0321  0.0373  0.0919
 3515SOL     OW13825   1.028   4.222   4.368  0.0932 -0.0588  0.1071
 3515SOL    HW213826   0.993   4.161   4.433  2.2878  0.3888  1.8144
 3515SOL    HW313827   0.952   4.246   4.315 -1.2425 -2.5880  0.7198
 3515SOL    MW413828   1.013   4.217   4.370  0.2065 -0.3334  0.4132
 3516SOL     OW13829   1.501   2.136   4.544  0.3365  0.4522  0.6762
 3516SOL    HW213830   1.435   2.192   4.584  0.1933  1.1298 -0.4717
 3516SOL    HW313831   1.451   2.080   4.485  0.8801  1.7702 -1.0976
 3516SOL    MW413832   1.486   2.136   4.542  0.3893  0.7155  0.2907
 3517SOL     OW13833   5.616   1.697   1.771 -0.0558 -0.3963  0.4361
 3517SOL    HW213834   5.526   1.665   1.774  0.1445 -1.1105 -0.6936
 3517SOL    HW313835   5.609   1.784   1.732 -0.3099 -0.2026  0.9029
 3517SOL    MW413836   5.603   1.704   1.766 -0.0629 -0.4650  0.3486
 3518SOL     OW13837   1.688   0.889   5.475 -0.5911  0.4375  0.0533
 3518SOL    HW213838   1.675   0.904   5.568 -0.3623  1.2145 -0.0241
 3518SOL    HW313839   1.604   0.857   5.443 -1.3960  2.3586  0.1216
 3518SOL    MW413840   1.675   0.887   5.483 -0.6671  0.7935  0.0521
 3519SOL     OW13841   2.303   4.931   0.081 -0.4717  0.4252 -0.2314
 3519SOL    HW213842   2.300   4.865   0.149  0.3992  0.0433 -0.5445
 3519SOL    HW313843   2.390   4.971   0.090  1.4253 -2.3752 -3.5838
 3519SOL    MW413844   2.314   4.928   0.091 -0.1065  0.0053 -0.7150
 3520SOL     OW13845   4.460   3.056   4.144  0.3562  0.1891 -0.6049
 3520SOL    HW213846   4.445   3.030   4.054  3.6059  2.0419 -1.8541
 3520SOL    HW313847   4.459   3.152   4.142 -2.0634  0.3701  1.9444
 3520SOL    MW413848   4.458   3.065   4.132  0.4657  0.4574 -0.4334
 3521SOL     OW13849   4.991   3.627   3.676  0.9533 -0.1827 -0.2697
 3521SOL    HW213850   4.988   3.664   3.587  2.5439 -0.3692 -0.4208
 3521SOL    HW313851   4.922   3.674   3.723  0.3790  0.2371 -1.4753
 3521SOL    MW413852   4.981   3.638   3.670  1.0874 -0.1519 -0.4487
 3522SOL     OW13853   4.737   3.276   5.714 -0.5218  0.0741 -0.0034
 3522SOL    HW213854   4.778   3.353   5.675  0.5202 -0.3972  0.1394
 3522SOL    HW313855   4.648   3.305   5.735  0.0075  1.3996  0.5321
 3522SOL    MW413856   4.730   3.290   5.712 -0.3145  0.1868  0.0861
 3523SOL     OW13857   2.187   1.348   0.630 -0.0175 -0.1464 -1.5950
 3523SOL    HW213858   2.096   1.324   0.611 -0.1219 -0.3192 -0.8956
 3523SOL    HW313859   2.200   1.322   0.721  0.6397  0.1679 -1.5965
 3523SOL    MW413860   2.177   1.341   0.640  0.0555 -0.1277 -1.5029
 3524SOL     OW13861   3.275   3.260   3.806  0.1646 -0.2215 -0.3853
 3524SOL    HW213862   3.211   3.323   3.773  0.4728  1.0115  1.2081
 3524SOL    HW313863   3.222   3.193   3.850 -0.1147 -0.3120 -0.8601
 3524SOL    MW413864   3.259   3.260   3.808  0.1684 -0.0707 -0.2377
 3525SOL     OW13865   6.177   4.240   1.999 -0.3776  0.3415 -0.0214
 3525SOL    HW213866   6.129   4.177   2.054  0.9531  0.4403  1.3039
 3525SOL    HW313867   6.111   4.305   1.976 -1.2009 -0.2088  0.6701
 3525SOL    MW413868   6.162   4.240   2.003 -0.3107  0.2819  0.2447
 3526SOL     OW13869   0.571   1.333   4.206  0.4119 -0.0038 -0.9774
 3526SOL    HW213870   0.519   1.253   4.203  0.1423 -0.3545  4.0030
 3526SOL    HW313871   0.652   1.312   4.160  0.7962 -3.6564  1.0137
 3526SOL    MW413872   0.575   1.320   4.200  0.4270 -0.5320 -0.0576
 3527SOL     OW13873   5.623   0.679   3.224  0.1584  0.2421 -0.1120
 3527SOL    HW213874   5.575   0.596   3.224  1.8040 -0.8054  2.2256
 3527SOL    HW313875   5.714   0.655   3.240  0.5346  2.5366  1.7702
 3527SOL    MW413876   5.628   0.665   3.226  0.4252  0.4067  0.4448
 3528SOL     OW13877   2.979   4.441   4.499  0.0972 -0.0697  0.2960
 3528SOL    HW213878   2.886   4.431   4.516  0.1005 -1.1419 -0.2448
 3528SOL    HW313879   2.992   4.535   4.492 -0.7703  0.1440  1.2734
 3528SOL    MW413880   2.969   4.452   4.501 -0.0168 -0.1830  0.3536
 3529SOL     OW13881   4.842   0.712   3.072  0.7203 -0.5113  0.0106
 3529SOL    HW213882   4.871   0.727   3.162 -0.2188  0.6611  0.1320
 3529SOL    HW313883   4.905   0.761   3.019 -0.1264  0.8136  0.1897
 3529SOL    MW413884   4.854   0.720   3.077  0.4847 -0.1818  0.0502
 3530SOL     OW13885   2.276   2.794   0.052  0.0602 -0.1951 -0.0396
 3530SOL    HW213886   2.268   2.815   0.145 -1.3284 -0.9106  0.0339
 3530SOL    HW313887   2.224   2.714   0.041  2.8587 -2.0323 -0.8259
 3530SOL    MW413888   2.268   2.787   0.063  0.2462 -0.5319 -0.1337
 3531SOL     OW13889   4.796   0.758   3.744  0.0959  0.3438  0.3110
 3531SOL    HW213890   4.759   0.673   3.721 -0.2566  0.3460  0.8355
 3531SOL    HW313891   4.888   0.740   3.762 -0.0492  0.0067  0.7439
 3531SOL    MW413892   4.803   0.744   3.744  0.0303  0.2996  0.4373
 3532SOL     OW13893   0.608   2.829   3.987 -0.3953 -0.2530 -0.0955
 3532SOL    HW213894   0.687   2.871   3.953 -1.9403  0.8138 -2.7117
 3532SOL    HW313895   0.620   2.736   3.969 -0.2622  0.0536 -1.8046
 3532SOL    MW413896   0.620   2.823   3.980 -0.5815 -0.0718 -0.6662
 3533SOL     OW13897   3.580   2.427   5.565 -0.2255  0.1601 -0.2698
 3533SOL    HW213898   3.534   2.366   5.623 -1.0176  1.2361  0.2592
 3533SOL    HW313899   3.577   2.384   5.479 -1.7707 -0.0439 -0.1425
 3533SOL    MW413900   3.573   2.413   5.561 -0.5339  0.2751 -0.1832
 3534SOL     OW13901   3.450   3.723   0.822  0.3547  0.3089  0.0088
 3534SOL    HW213902   3.506   3.699   0.895  0.0142  1.1459  0.5595
 3534SOL    HW313903   3.493   3.799   0.782  0.6333 -0.2536 -0.7713
 3534SOL    MW413904   3.463   3.730   0.826  0.3465  0.3451 -0.0214
 3535SOL     OW13905   3.487   3.542   0.610 -0.1725  0.0298  0.1030
 3535SOL    HW213906   3.542   3.601   0.558 -1.0695  2.5179  1.7629
 3535SOL    HW313907   3.472   3.590   0.692 -1.1452 -2.4902  1.5040
 3535SOL    MW413908   3.492   3.556   0.614 -0.4192  0.0256  0.5069
 3536SOL     OW13909   2.271   4.246   4.760  0.2468 -0.3751 -0.2991
 3536SOL    HW213910   2.209   4.174   4.751  2.2441 -2.1442 -0.7684
 3536SOL    HW313911   2.314   4.231   4.844  1.7644 -0.6851 -1.0940
 3536SOL    MW413912   2.268   4.235   4.770  0.7105 -0.6494 -0.4659
 3537SOL     OW13913   4.363   5.844   2.630 -0.1488  0.5508  0.3597
 3537SOL    HW213914   4.436   5.785   2.650  0.0437 -0.0028 -1.7138
 3537SOL    HW313915   4.402   5.914   2.579 -1.1605 -0.2855 -1.6805
 3537SOL    MW413916   4.378   5.845   2.626 -0.2569  0.3674 -0.1831
 3538SOL     OW13917   5.382   2.020   2.415 -0.8493  0.2280  0.5523
 3538SOL    HW213918   5.420   1.937   2.443  0.0240  1.0849  2.0519
 3538SOL    HW313919   5.421   2.036   2.329  0.3334 -0.0819  1.0112
 3538SOL    MW413920   5.392   2.011   2.407 -0.5780  0.3002  0.8107
 3539SOL     OW13921   4.998   4.879   4.376  0.5286 -0.3268 -0.2357
 3539SOL    HW213922   5.033   4.945   4.437  2.6521 -0.7894 -0.8508
 3539SOL    HW313923   4.922   4.843   4.421 -0.0805  1.8033  0.5652
 3539SOL    MW413924   4.993   4.883   4.390  0.7284 -0.1068 -0.2112
 3540SOL     OW13925   5.484   4.757   4.909 -0.2998 -0.8301  0.4944
 3540SOL    HW213926   5.529   4.690   4.857  0.1099 -0.0522 -0.1731
 3540SOL    HW313927   5.442   4.814   4.844  0.1890  0.1299  0.9921
 3540SOL    MW413928   5.485   4.756   4.893 -0.1812 -0.6008  0.4720
 3541SOL     OW13929   6.244   3.930   2.845 -0.6860  0.4925 -0.0689
 3541SOL    HW213930   6.296   4.001   2.881  0.0184  0.2284 -0.5213
 3541SOL    HW313931   6.153   3.955   2.861 -0.4674  1.7050 -0.6188
 3541SOL    MW413932   6.239   3.942   2.852 -0.5642  0.6176 -0.2012
 3542SOL     OW13933   4.509   1.897   3.356  0.4152  0.1376  0.0158
 3542SOL    HW213934   4.598   1.887   3.390  0.1348  0.9776  1.0488
 3542SOL    HW313935   4.453   1.852   3.419  0.0434  0.2432 -0.2360
 3542SOL    MW413936   4.513   1.890   3.368  0.3291  0.2624  0.1189
 3543SOL     OW13937   2.572   4.649   1.392  0.2639 -0.6403 -0.0787
 3543SOL    HW213938   2.560   4.692   1.308 -0.9729 -0.4188  0.1911
 3543SOL    HW313939   2.491   4.668   1.441  1.2174 -0.2321  1.3965
 3543SOL    MW413940   2.559   4.657   1.388  0.2265 -0.5572  0.1515
 3544SOL     OW13941   6.313   2.840   0.429 -0.0660 -0.3426  0.1579
 3544SOL    HW213942   6.294   2.798   0.513 -1.4312  0.4189  0.2526
 3544SOL    HW313943   6.366   2.916   0.453  1.2010 -1.1851  0.1198
 3544SOL    MW413944   6.318   2.845   0.443 -0.0789 -0.3533  0.1654
 3545SOL     OW13945   2.758   1.831   3.587  0.0381 -0.2557  0.3899
 3545SOL    HW213946   2.681   1.826   3.530 -0.7572  0.8844  1.2998
 3545SOL    HW313947   2.769   1.924   3.604  2.6245 -0.2298 -0.9823
 3545SOL    MW413948   2.749   1.842   3.582  0.2744 -0.1018  0.3289
 3546SOL     OW13949   6.303   5.429   0.155  0.1276 -0.6373 -0.8385
 3546SOL    HW213950   6.246   5.352   0.150  1.2939 -1.5595 -0.2980
 3546SOL    HW313951   6.252   5.499   0.114 -1.0214 -1.6531 -1.1955
 3546SOL    MW413952   6.289   5.428   0.149  0.1299 -0.8930 -0.8143
 3547SOL     OW13953   4.240   5.323   3.647 -0.0023 -0.0459 -0.2007
 3547SOL    HW213954   4.266   5.323   3.739 -0.0477  0.9778 -0.1793
 3547SOL    HW313955   4.182   5.247   3.639  0.2947 -0.3589  0.5269
 3547SOL    MW413956   4.236   5.313   3.658  0.0309  0.0478 -0.1018
 3548SOL     OW13957   1.896   2.965   4.282 -0.1552  0.2151  0.4418
 3548SOL    HW213958   1.985   2.935   4.298 -0.6333 -1.0380  0.9084
 3548SOL    HW313959   1.844   2.885   4.279 -0.9570  0.7548 -2.0767
 3548SOL    MW413960   1.901   2.951   4.284 -0.3240  0.1210  0.1710
 3549SOL     OW13961   2.998   2.242   0.926 -0.2718 -0.1076  0.5290
 3549SOL    HW213962   3.085   2.278   0.911 -0.6397  0.5458 -0.0933
 3549SOL    HW313963   3.010   2.147   0.928  0.6017  0.0032  1.4581
 3549SOL    MW413964   3.011   2.234   0.925 -0.2051 -0.0068  0.5695
 3550SOL     OW13965   5.415   5.151   2.849 -0.1444  0.1024  0.4579
 3550SOL    HW213966   5.462   5.080   2.892 -1.2138 -0.6834  0.3628
 3550SOL    HW313967   5.357   5.186   2.917  0.5907  1.0912  0.5886
 3550SOL    MW413968   5.413   5.146   2.864 -0.1885  0.1292  0.4626
 3551SOL     OW13969   1.064   1.794   0.808 -0.3789  0.0308 -0.1238
 3551SOL    HW213970   0.989   1.735   0.814 -1.3321  1.2569  0.5900
 3551SOL    HW313971   1.062   1.844   0.890  2.2315 -1.0451  0.6842
 3551SOL    MW413972   1.054   1.793   0.819 -0.1603  0.0506  0.0770
 3552SOL     OW13973   1.000   3.189   6.148 -0.4726  0.4383 -0.4641
 3552SOL    HW213974   1.090   3.215   6.129 -0.4684  0.4515 -0.4264
 3552SOL    HW313975   1.004   3.153   6.237 -0.6446  1.1549 -0.1581
 3552SOL    MW413976   1.013   3.188   6.158 -0.4947  0.5346 -0.4187
 3553SOL     OW13977   2.548   2.473   5.466  0.0630  0.2316 -0.2335
 3553SOL    HW213978   2.513   2.491   5.379  0.0547 -1.6562 -0.6751
 3553SOL    HW313979   2.612   2.403   5.452  0.9492  0.7357  1.1194
 3553SOL    MW413980   2.552   2.466   5.453  0.1788  0.0490 -0.1133
 3554SOL     OW13981   3.084   5.951   2.956 -0.0199  0.4608  0.5530
 3554SOL    HW213982   3.065   5.980   2.867 -0.3844 -1.3675  0.0033
 3554SOL    HW313983   3.062   6.027   3.011 -0.8310  1.2450 -0.8066
 3554SOL    MW413984   3.078   5.965   2.952 -0.1750  0.3230  0.3011
 3555SOL     OW13985   6.280   3.096   6.352  0.1352  0.4385  0.0659
 3555SOL    HW213986   6.249   3.007   6.340  1.5597  0.2497 -3.2875
 3555SOL    HW313987   6.209   3.151   6.320  0.1885  0.3912 -0.1334
 3555SOL    MW413988   6.267   3.092   6.347  0.3302  0.4073 -0.4028
 3556SOL     OW13989   5.782   3.442   2.910  0.2706  0.3052  0.0169
 3556SOL    HW213990   5.692   3.451   2.942  0.9273  1.0208  1.8033
 3556SOL    HW313991   5.812   3.358   2.945  0.3062  0.0831 -0.5460
 3556SOL    MW413992   5.774   3.432   2.919  0.3620  0.3703  0.1783
 3557SOL     OW13993   1.705   1.880   1.444  0.1167  0.3836  0.2427
 3557SOL    HW213994   1.721   1.973   1.460  0.3307  0.2843  0.6093
 3557SOL    HW313995   1.682   1.875   1.351 -0.0080  0.8175  0.2496
 3557SOL    MW413996   1.704   1.892   1.434  0.1285  0.4277  0.2920
 3558SOL     OW13997   0.608   6.363   5.807 -0.0567  0.4751 -0.0704
 3558SOL    HW213998   0.697   6.391   5.829  0.3234  0.9097 -1.9772
 3558SOL    HW313999   0.587   6.295   5.871  0.4400  2.4539  2.3547
 3558SOL    MW414000   0.617   6.358   5.818  0.0590  0.7935 -0.0020
 3559SOL     OW14001   0.037   5.196   0.924  0.0149 -0.0074 -0.3312
 3559SOL    HW214002   0.084   5.278   0.908  0.2860 -0.3466 -1.3624
 3559SOL    HW314003  -0.035   5.220   0.981  0.6505  0.7733  0.1605
 3559SOL    MW414004   0.034   5.210   0.929  0.1346  0.0509 -0.4023
 3560SOL     OW14005   4.763   3.972   2.905 -0.4634  0.0222  0.0783
 3560SOL    HW214006   4.709   3.912   2.957 -0.8958 -0.3177 -0.7574
 3560SOL    HW314007   4.701   4.020   2.850 -0.0388  0.6178  0.0969
 3560SOL    MW414008   4.748   3.971   2.905 -0.4644  0.0560 -0.0295
 3561SOL     OW14009   4.968   1.879   4.199  0.2202 -0.1643  0.6751
 3561SOL    HW214010   4.888   1.829   4.184  0.6213 -1.2271  1.8784
 3561SOL    HW314011   4.938   1.964   4.231 -0.4388 -0.5891  1.2001
 3561SOL    MW414012   4.954   1.884   4.201  0.1862 -0.3606  0.9031
 3562SOL     OW14013   6.038   1.196   1.724 -0.0197  0.9220 -0.4098
 3562SOL    HW214014   5.955   1.185   1.677  0.5326  0.5288 -1.3091
 3562SOL    HW314015   6.097   1.132   1.684 -0.3302 -1.6134  2.8059
 3562SOL    MW414016   6.035   1.187   1.712  0.0122  0.5356 -0.1041
 3563SOL     OW14017   2.065   3.962   3.471  0.5374  0.3303 -0.1399
 3563SOL    HW214018   1.986   3.909   3.482  0.2585  0.6331 -0.6453
 3563SOL    HW314019   2.041   4.027   3.405  0.9423  0.9489  0.3085
 3563SOL    MW414020   2.051   3.963   3.464  0.5540  0.4519 -0.1474
 3564SOL     OW14021   1.465   4.380   5.976 -0.3795 -0.4559 -0.5473
 3564SOL    HW214022   1.556   4.376   5.948 -0.1745 -1.9356  0.2672
 3564SOL    HW314023   1.468   4.393   6.070 -1.0418  0.5536 -0.6423
 3564SOL    MW414024   1.477   4.381   5.985 -0.4399 -0.5179 -0.4524
 3565SOL     OW14025   4.876   0.410   0.641  0.2596 -0.2393 -0.1448
 3565SOL    HW214026   4.876   0.434   0.548  1.8951 -1.6182 -0.5600
 3565SOL    HW314027   4.899   0.317   0.641  1.4946  0.0172  1.6903
 3565SOL    MW414028   4.879   0.400   0.629  0.6383 -0.3874  0.0425
 3566SOL     OW14029   5.488   5.200   4.646  0.0665  1.0751 -0.2713
 3566SOL    HW214030   5.532   5.241   4.572 -0.5186  2.8348  0.3127
 3566SOL    HW314031   5.559   5.172   4.704  0.6313 -1.7901 -2.1198
 3566SOL    MW414032   5.504   5.202   4.644  0.0638  0.9292 -0.4381
 3567SOL     OW14033   1.904   5.293   2.485 -0.2865  0.1840 -0.3837
 3567SOL    HW214034   1.834   5.335   2.535 -1.2468 -2.9485  1.1703
 3567SOL    HW314035   1.962   5.256   2.551  1.2917  0.2585 -1.6629
 3567SOL    MW414036   1.902   5.294   2.500 -0.2050 -0.2195 -0.3475
 3568SOL     OW14037   1.140   5.925   1.285  0.1582  0.0142 -0.6430
 3568SOL    HW214038   1.163   5.993   1.348  0.1292 -1.2547  0.8135
 3568SOL    HW314039   1.117   5.850   1.340 -1.6124 -0.6039 -2.1417
 3568SOL    MW414040   1.140   5.924   1.301 -0.0792 -0.2348 -0.6485
 3569SOL     OW14041   1.829   0.943   3.825  0.2259  0.7150 -0.7171
 3569SOL    HW214042   1.818   0.870   3.886 -1.0287 -0.4751 -2.2759
 3569SOL    HW314043   1.858   0.902   3.744 -1.7335  1.7457 -2.0130
 3569SOL    MW414044   1.832   0.928   3.823 -0.1981  0.6940 -1.0937
 3570SOL     OW14045   3.351   2.255   4.311 -0.2524  0.0065 -0.0225
 3570SOL    HW214046   3.363   2.344   4.280 -1.8327  0.3891  0.3641
 3570SOL    HW314047   3.266   2.229   4.276  0.8118 -1.9261 -1.3926
 3570SOL    MW414048   3.341   2.263   4.302 -0.3205 -0.1980 -0.1523
 3571SOL     OW14049   5.737   3.333   5.362  0.0759 -0.3096  0.1638
 3571SOL    HW214050   5.651   3.374   5.353  0.9888  1.7256  0.0249
 3571SOL    HW314051   5.765   3.317   5.272 -0.4609 -1.7117  0.2301
 3571SOL    MW414052   5.730   3.336   5.349  0.1255 -0.2260  0.1542
 3572SOL     OW14053   4.736   5.012   4.258 -0.0817  0.9864 -0.8451
 3572SOL    HW214054   4.749   4.923   4.226 -0.6395  0.3533  0.5770
 3572SOL    HW314055   4.641   5.024   4.258  0.0071  1.7534 -1.4370
 3572SOL    MW414056   4.725   5.002   4.254 -0.1436  1.0041 -0.7356
 3573SOL     OW14057   2.021   3.425   2.475 -0.0688  0.2099  0.5509
 3573SOL    HW214058   1.983   3.512   2.488  0.7805  0.6649  0.0492
 3573SOL    HW314059   2.076   3.410   2.553  1.1547  0.8702 -0.1601
 3573SOL    MW414060   2.023   3.434   2.487  0.2047  0.3571  0.3909
 3574SOL     OW14061   3.516   1.843   3.993  0.0324  0.6471  0.1549
 3574SOL    HW214062   3.474   1.881   4.070  1.1846  0.3771  0.9370
 3574SOL    HW314063   3.496   1.750   3.997  0.8950  0.4674  0.6903
 3574SOL    MW414064   3.508   1.836   4.004  0.2982  0.5877  0.3287
 3575SOL     OW14065   3.065   2.543   4.343 -0.4722  0.4318  0.3979
 3575SOL    HW214066   3.134   2.555   4.277 -0.0029 -0.8017  0.6327
 3575SOL    HW314067   3.112   2.519   4.422 -1.2132 -3.3078 -0.1173
 3575SOL    MW414068   3.080   2.541   4.344 -0.5081 -0.2243  0.3609
 3576SOL     OW14069   2.069   2.121   0.197 -0.0973 -0.6008  0.0181
 3576SOL    HW214070   2.020   2.040   0.212 -1.1183 -0.1016 -0.5109
 3576SOL    HW314071   2.088   2.120   0.103 -1.2144  0.3416 -0.2504
 3576SOL    MW414072   2.065   2.110   0.186 -0.3794 -0.4106 -0.0871
 3577SOL     OW14073   4.613   3.822   3.118  0.6420 -0.1906 -0.5066
 3577SOL    HW214074   4.653   3.771   3.189  0.9019  1.4560  0.5817
 3577SOL    HW314075   4.593   3.907   3.158 -3.0532 -0.5621 -1.2881
 3577SOL    MW414076   4.616   3.827   3.133  0.1887 -0.0224 -0.4662
 3578SOL     OW14077   2.583   4.547   0.159  0.3953  0.3207  0.2545
 3578SOL    HW214078   2.588   4.492   0.238 -0.0478  0.1454  0.1624
 3578SOL    HW314079   2.602   4.636   0.190  2.0620 -0.0092  0.2497
 3578SOL    MW414080   2.586   4.552   0.174  0.5567  0.2540  0.2418
 3579SOL     OW14081   0.425   5.262   0.267  0.9457  0.1338  0.1521
 3579SOL    HW214082   0.338   5.271   0.228  2.3699  0.7825 -3.2175
 3579SOL    HW314083   0.416   5.190   0.329 -2.3041  1.1978  1.1178
 3579SOL    MW414084   0.412   5.254   0.270  0.7048  0.3597 -0.1651
 3580SOL     OW14085   0.867   6.041   5.235  0.0910 -0.1504 -0.8170
 3580SOL    HW214086   0.928   5.995   5.292  0.5541  1.9153  0.4533
 3580SOL    HW314087   0.790   6.057   5.290  0.2506  1.2388 -0.9706
 3580SOL    MW414088   0.865   6.037   5.249  0.1731  0.3054 -0.6696
 3581SOL     OW14089   5.920   1.269   0.467  0.3332  0.7186  0.5531
 3581SOL    HW214090   5.903   1.277   0.561 -1.2685 -1.5300  0.5491
 3581SOL    HW314091   6.000   1.218   0.462  0.5025  0.9681  0.6998
 3581SOL    MW414092   5.928   1.264   0.479  0.1442  0.4548  0.5719
 3582SOL     OW14093   6.397   3.280   0.336 -0.2722 -0.0563 -0.4869
 3582SOL    HW214094   6.477   3.229   0.345  1.0097  1.3556 -2.8354
 3582SOL    HW314095   6.401   3.344   0.407 -0.0144 -0.8299  0.2121
 3582SOL    MW414096   6.408   3.282   0.346 -0.0691  0.0279 -0.7045
 3583SOL     OW14097   5.655   2.083   3.695 -0.3422 -0.0215  0.5978
 3583SOL    HW214098   5.611   2.129   3.624 -0.7057 -2.0939 -0.6024
 3583SOL    HW314099   5.743   2.066   3.662  0.5718  1.8059  1.9566
 3583SOL    MW414100   5.661   2.087   3.682 -0.2696 -0.0538  0.6187
 3584SOL     OW14101   5.189   5.766   6.264  0.1414  0.1321  0.2648
 3584SOL    HW214102   5.253   5.832   6.292 -0.7946  0.8788  0.7152
 3584SOL    HW314103   5.178   5.710   6.341  1.6778 -1.1892 -0.4336
 3584SOL    MW414104   5.196   5.768   6.278  0.2206  0.0563  0.2321
 3585SOL     OW14105   2.976   1.777   5.956 -0.3134 -0.7593  0.4332
 3585SOL    HW214106   2.966   1.684   5.976  1.2710 -1.3396 -1.1965
 3585SOL    HW314107   3.033   1.779   5.879  0.2965  1.6107  0.8727
 3585SOL    MW414108   2.982   1.765   5.948 -0.0239 -0.5232  0.2761
 3586SOL     OW14109   4.155   2.813   4.788  0.2050  0.3790  0.3252
 3586SOL    HW214110   4.239   2.771   4.802  0.3163  0.7973  0.9578
 3586SOL    HW314111   4.177   2.905   4.772 -0.0913  0.3664 -0.1815
 3586SOL    MW414112   4.169   2.820   4.788  0.1806  0.4326  0.3418
 3587SOL     OW14113   0.984   3.039   2.482  0.7689  0.1890  0.0211
 3587SOL    HW214114   1.053   2.983   2.516  0.4689 -0.2328 -0.0629
 3587SOL    HW314115   0.934   3.067   2.559  2.3343  2.3048  0.3717
 3587SOL    MW414116   0.986   3.035   2.496  0.9359  0.4125  0.0563
 3588SOL     OW14117   4.295   4.079   1.608  0.0605  0.4703 -0.6027
 3588SOL    HW214118   4.343   4.123   1.539  1.6821  0.1040  0.2333
 3588SOL    HW314119   4.206   4.069   1.574  0.2721  2.1944 -1.7482
 3588SOL    MW414120   4.289   4.083   1.594  0.3023  0.6494 -0.6435
 3589SOL     OW14121   3.352   3.093   1.375 -0.4880 -0.2192 -0.6530
 3589SOL    HW214122   3.429   3.065   1.325 -1.1682 -1.9107 -0.8227
 3589SOL    HW314123   3.383   3.098   1.465 -0.1807 -0.9643 -0.7105
 3589SOL    MW414124   3.366   3.090   1.380 -0.5372 -0.5407 -0.6830
 3590SOL     OW14125   2.629   5.782   3.415  0.2662  0.0995 -0.0663
 3590SOL    HW214126   2.642   5.769   3.509  2.9169 -0.3456 -0.4146
 3590SOL    HW314127   2.582   5.865   3.408  2.5311  1.6321  1.6141
 3590SOL    MW414128   2.624   5.791   3.426  0.9147  0.2430  0.1095
 3591SOL     OW14129   0.575   5.523   1.691 -0.2236  0.4157 -0.0859
 3591SOL    HW214130   0.584   5.435   1.655 -0.8259  0.7447 -1.0890
 3591SOL    HW314131   0.535   5.511   1.777 -1.8608 -0.1995 -0.8946
 3591SOL    MW414132   0.571   5.510   1.697 -0.5190  0.3779 -0.3249
 3592SOL     OW14133   5.942   2.337   0.257 -0.9127  0.2930  0.0899
 3592SOL    HW214134   5.868   2.376   0.210 -1.3092  0.2184  0.6315
 3592SOL    HW314135   5.901   2.286   0.327 -0.4510 -1.8907 -1.1732
 3592SOL    MW414136   5.927   2.336   0.260 -0.9041 -0.0050 -0.0053
 3593SOL     OW14137   4.442   6.373   2.755  0.1315  0.3562 -0.2174
 3593SOL    HW214138   4.442   6.336   2.843  1.6339  2.0500  0.5485
 3593SOL    HW314139   4.394   6.309   2.702 -1.2809 -0.4211  1.9125
 3593SOL    MW414140   4.436   6.360   2.759  0.1434  0.4771  0.1646
 3594SOL     OW14141   6.407   0.558   4.271 -0.0381 -0.1997 -0.2745
 3594SOL    HW214142   6.460   0.481   4.251  1.5219  0.8332 -0.2986
 3594SOL    HW314143   6.470   0.630   4.276 -1.3643  0.9689  0.4059
 3594SOL    MW414144   6.423   0.557   4.269 -0.0072  0.0908 -0.1879
 3595SOL     OW14145   0.457   1.664   2.086 -0.1133 -0.3435  0.2922
 3595SOL    HW214146   0.411   1.617   2.155 -1.5102  0.5978  0.0428
 3595SOL    HW314147   0.436   1.615   2.006 -0.1425 -0.2788  0.2608
 3595SOL    MW414148   0.448   1.651   2.084 -0.3014 -0.2107  0.2552
 3596SOL     OW14149   4.379   1.242   6.413 -0.1684 -0.8942  0.1529
 3596SOL    HW214150   4.427   1.320   6.442  0.6096 -0.9247 -0.9949
 3596SOL    HW314151   4.303   1.277   6.366  0.7977 -0.7798 -1.3862
 3596SOL    MW414152   4.375   1.257   6.410  0.0617 -0.8831 -0.2016
 3597SOL     OW14153   0.307   3.440   3.245  0.2287  0.4351 -0.4604
 3597SOL    HW214154   0.304   3.507   3.314 -0.1488  0.6719 -0.7050
 3597SOL    HW314155   0.229   3.386   3.260  2.0849 -1.8819  1.6410
 3597SOL    MW414156   0.296   3.442   3.256  0.4238  0.1607 -0.2154
 3598SOL     OW14157   2.109   4.411   2.866 -0.3449  0.0423 -0.2579
 3598SOL    HW214158   2.078   4.460   2.942  1.0212  0.6572 -0.0604
 3598SOL    HW314159   2.101   4.472   2.793 -1.7697 -0.5877 -0.6555
 3598SOL    MW414160   2.104   4.425   2.866 -0.3527  0.0403 -0.2843
 3599SOL     OW14161   4.822   6.399   3.182 -0.2215 -0.3363  0.1008
 3599SOL    HW214162   4.739   6.438   3.208 -0.7250 -1.1081 -0.3317
 3599SOL    HW314163   4.855   6.357   3.262  0.5436  1.3057  0.6888
 3599SOL    MW414164   4.815   6.398   3.196 -0.1870 -0.2215  0.1213
 3600SOL     OW14165   3.292   3.287   5.565  0.3972 -0.0121 -0.2297
 3600SOL    HW214166   3.366   3.330   5.609 -0.2905  0.3291  0.6239
 3600SOL    HW314167   3.293   3.322   5.476  0.8039  0.5667 -0.0034
 3600SOL    MW414168   3.302   3.297   5.559  0.3601  0.1093 -0.0872
 3601SOL     OW14169   1.104   4.132   1.050  0.3944 -0.3021  0.1031
 3601SOL    HW214170   1.154   4.091   1.120  0.7108 -0.7300 -0.3608
 3601SOL    HW314171   1.148   4.216   1.036  0.7101 -0.4822  0.0046
 3601SOL    MW414172   1.117   4.138   1.057  0.4778 -0.3823  0.0289
 3602SOL     OW14173   3.099   2.172   4.248  0.0877  0.2352  0.6827
 3602SOL    HW214174   3.086   2.148   4.156  0.7343  3.1760 -0.2685
 3602SOL    HW314175   3.013   2.158   4.289 -1.3332  2.4655 -1.3114
 3602SOL    MW414176   3.086   2.167   4.241 -0.0144  0.9174  0.2941
 3603SOL     OW14177   0.599   3.284   1.677  0.3038 -0.4649 -0.2620
 3603SOL    HW214178   0.537   3.215   1.701 -0.7606  0.3890 -0.5233
 3603SOL    HW314179   0.681   3.257   1.718 -0.7854 -0.4637  2.0615
 3603SOL    MW414180   0.602   3.271   1.686  0.0197 -0.3520  0.0100
 3604SOL     OW14181   0.157   1.880   3.890  0.0217 -0.3225 -0.2421
 3604SOL    HW214182   0.146   1.840   3.976  0.7525  0.7434  0.3793
 3604SOL    HW314183   0.069   1.905   3.864 -0.0866  0.4750  0.7929
 3604SOL    MW414184   0.144   1.878   3.898  0.1038 -0.0767 -0.0235
 3605SOL     OW14185   2.865   5.249   5.387  0.0550  0.3104  0.0502
 3605SOL    HW214186   2.845   5.343   5.387 -0.0475  0.2970  0.8890
 3605SOL    HW314187   2.804   5.212   5.451 -1.7297 -0.7427 -2.1306
 3605SOL    MW414188   2.854   5.256   5.396 -0.1940  0.1697 -0.1269
 3606SOL     OW14189   2.410   1.927   0.054 -0.1457 -0.6232 -0.4730
 3606SOL    HW214190   2.499   1.915   0.087 -0.7935 -1.1634  1.2128
 3606SOL    HW314191   2.380   2.009   0.094 -1.3414 -1.8582  1.3206
 3606SOL    MW414192   2.418   1.936   0.064 -0.3890 -0.8574 -0.0140
 3607SOL     OW14193   4.846   4.666   5.132  0.0671  0.1220  0.0856
 3607SOL    HW214194   4.754   4.676   5.107  0.4586  0.9925 -1.0926
 3607SOL    HW314195   4.850   4.696   5.222 -0.8613 -0.2613  0.2677
 3607SOL    MW414196   4.834   4.671   5.140 -0.0037  0.1863 -0.0458
 3608SOL     OW14197   5.071   5.052   1.283 -0.0047  0.0240  0.0521
 3608SOL    HW214198   5.031   5.136   1.261 -1.5965 -0.1270  1.9788
 3608SOL    HW314199   5.129   5.071   1.357 -0.2203 -0.5032  0.3690
 3608SOL    MW414200   5.073   5.065   1.290 -0.2431 -0.0654  0.3482
 3609SOL     OW14201   0.403   4.959   2.274  0.2016  0.3453 -0.3249
 3609SOL    HW214202   0.317   4.986   2.306 -0.4519 -0.0219 -1.6852
 3609SOL    HW314203   0.388   4.938   2.182  1.1346 -2.4998  0.0842
 3609SOL    MW414204   0.389   4.960   2.266  0.2385 -0.0785 -0.4504
 3610SOL     OW14205   3.023   2.149   5.023 -0.3819 -0.2222 -0.3358
 3610SOL    HW214206   2.998   2.211   4.954  0.1218 -0.1679 -0.4773
 3610SOL    HW314207   3.094   2.097   4.984  0.6738  0.5359  0.4984
 3610SOL    MW414208   3.029   2.150   5.009 -0.1761 -0.1150 -0.2444
 3611SOL     OW14209   0.098   1.486   0.610 -0.0643 -0.3026  0.5146
 3611SOL    HW214210   0.016   1.481   0.658 -0.8822 -0.5237 -0.8759
 3611SOL    HW314211   0.076   1.529   0.527  1.2436 -0.2435  0.1699
 3611SOL    MW414212   0.085   1.491   0.605  0.0004 -0.3239  0.2856
 3612SOL     OW14213   2.375   5.302   2.651  0.0014  0.3364  0.0771
 3612SOL    HW214214   2.349   5.388   2.684 -2.4915 -0.4394  0.3551
 3612SOL    HW314215   2.308   5.242   2.684  0.0913 -1.2735 -2.3545
 3612SOL    MW414216   2.362   5.306   2.659 -0.3157  0.0216 -0.2071
 3613SOL     OW14217   1.156   2.062   2.226  0.0687 -0.1103 -0.0005
 3613SOL    HW214218   1.178   2.155   2.231 -2.2838  0.8604 -3.8970
 3613SOL    HW314219   1.084   2.050   2.288 -0.6109  1.0560 -0.5495
 3613SOL    MW414220   1.150   2.072   2.235 -0.3314  0.1716 -0.5870
 3614SOL     OW14221   0.133   5.470   4.569 -0.0012  0.0051  0.1530
 3614SOL    HW214222   0.056   5.527   4.569 -1.5010 -1.9479  0.0190
 3614SOL    HW314223   0.158   5.464   4.477  0.4372  0.7591  0.2122
 3614SOL    MW414224   0.126   5.477   4.557 -0.1412 -0.1531  0.1431
 3615SOL     OW14225   2.893   4.739   1.718  0.5617  0.3122  0.0842
 3615SOL    HW214226   2.924   4.743   1.628 -0.2640  0.7138 -0.1951
 3615SOL    HW314227   2.805   4.777   1.715 -0.3549 -1.5909  0.6598
 3615SOL    MW414228   2.886   4.744   1.706  0.3318  0.1141  0.1233
 3616SOL     OW14229   0.285   0.348   3.609  0.2759 -0.5551  0.2773
 3616SOL    HW214230   0.199   0.305   3.607 -0.0388  0.0703 -0.0039
 3616SOL    HW314231   0.305   0.357   3.702 -0.9030  1.0946  0.4196
 3616SOL    MW414232   0.276   0.344   3.621  0.0788 -0.2549  0.2590
 3617SOL     OW14233   0.487   1.067   1.778  0.7089  0.2047  0.5466
 3617SOL    HW214234   0.426   1.034   1.844  1.8127  0.5160  1.7762
 3617SOL    HW314235   0.446   1.148   1.746 -1.1289 -1.3174 -1.1675
 3617SOL    MW414236   0.474   1.074   1.782  0.6120  0.0450  0.4827
 3618SOL     OW14237   3.680   0.670   0.151  0.0970 -0.2347  0.4150
 3618SOL    HW214238   3.738   0.601   0.120  2.4241  1.1432  1.4551
 3618SOL    HW314239   3.722   0.704   0.230 -1.9167  1.1550  0.9868
 3618SOL    MW414240   3.693   0.666   0.157  0.1383  0.1305  0.6277
 3619SOL     OW14241   1.203   5.003   5.204  0.7256  0.0896 -0.0317
 3619SOL    HW214242   1.164   5.035   5.285 -0.0353  2.1815 -1.1359
 3619SOL    HW314243   1.138   4.943   5.168 -0.5992  1.9190 -0.8092
 3619SOL    MW414244   1.189   4.999   5.210  0.4504  0.6070 -0.2800
 3620SOL     OW14245   1.384   0.046   0.224  0.5644 -0.1053 -0.0543
 3620SOL    HW214246   1.352   0.075   0.309  2.0392  2.6052 -0.3424
 3620SOL    HW314247   1.477   0.064   0.225  0.5439  0.4484 -2.4079
 3620SOL    MW414248   1.392   0.052   0.235  0.7563  0.3253 -0.4029
 3621SOL     OW14249   4.726   0.988   2.572  0.0638 -0.0749 -0.6541
 3621SOL    HW214250   4.701   0.895   2.569  0.4832 -0.1747 -1.8096
 3621SOL    HW314251   4.753   1.003   2.663  0.4318 -1.2152 -0.5537
 3621SOL    MW414252   4.727   0.977   2.584  0.1677 -0.2385 -0.7933
 3622SOL     OW14253   3.151   5.988   2.412 -0.3465  0.1287  0.0024
 3622SOL    HW214254   3.228   6.030   2.374  0.0491  0.0417  0.6756
 3622SOL    HW314255   3.107   5.946   2.339  0.7276 -0.5531 -0.2695
 3622SOL    MW414256   3.156   5.988   2.398 -0.1526  0.0273  0.0554
 3623SOL     OW14257   0.233   5.597   0.815 -0.3847 -0.0185  0.3356
 3623SOL    HW214258   0.259   5.505   0.815  0.2210  0.1466  0.1537
 3623SOL    HW314259   0.307   5.643   0.775 -1.6680  0.2924 -1.8271
 3623SOL    MW414260   0.246   5.591   0.810 -0.4741  0.0443  0.0263
 3624SOL     OW14261   5.397   3.725   2.020  0.6657 -0.2443 -0.4035
 3624SOL    HW214262   5.341   3.799   1.995  0.6424 -0.0444  0.2349
 3624SOL    HW314263   5.388   3.663   1.947  2.5352  1.3659 -2.1060
 3624SOL    MW414264   5.388   3.727   2.007  0.9093 -0.0055 -0.5439
 3625SOL     OW14265   5.205   5.562   6.035  0.1095  0.0430 -0.6319
 3625SOL    HW214266   5.113   5.550   6.014 -0.0290 -0.4500  0.2149
 3625SOL    HW314267   5.205   5.623   6.108  0.2862 -1.7630  0.9544
 3625SOL    MW414268   5.193   5.568   6.042  0.1145 -0.2603 -0.3109
 3626SOL     OW14269   3.553   2.805   3.826 -0.0293 -0.4266 -0.2337
 3626SOL    HW214270   3.646   2.826   3.835  0.6842 -2.6154 -1.6549
 3626SOL    HW314271   3.533   2.823   3.734 -0.3708 -2.1524 -0.5192
 3626SOL    MW414272   3.563   2.810   3.815  0.0197 -0.9431 -0.4589
 3627SOL     OW14273   4.926   4.363   4.372 -0.2647  0.3297 -0.0012
 3627SOL    HW214274   4.962   4.452   4.363 -1.4808  0.9182  0.7292
 3627SOL    HW314275   4.953   4.335   4.460 -2.2023  1.1014  0.8876
 3627SOL    MW414276   4.934   4.371   4.382 -0.6808  0.5092  0.2124
 3628SOL     OW14277   6.198   3.151   1.410 -0.2805 -0.6159 -0.4692
 3628SOL    HW214278   6.219   3.097   1.334 -0.6047 -2.4116  0.6631
 3628SOL    HW314279   6.175   3.236   1.373  1.5736 -0.7989 -2.2304
 3628SOL    MW414280   6.198   3.155   1.395 -0.0786 -0.8770 -0.5522
 3629SOL     OW14281   6.007   1.843   3.585  0.2348 -0.3380 -0.6871
 3629SOL    HW214282   6.099   1.819   3.570  0.1710  0.5713 -2.7893
 3629SOL    HW314283   5.966   1.836   3.499 -1.1316  1.4956 -0.2328
 3629SOL    MW414284   6.014   1.839   3.572  0.0461  0.0239 -0.9045
 3630SOL     OW14285   1.994   3.538   2.846 -0.1232  0.4795  0.2848
 3630SOL    HW214286   1.965   3.489   2.923 -0.6500  2.2590  1.2768
 3630SOL    HW314287   2.078   3.576   2.872 -0.0108  0.5973 -0.2404
 3630SOL    MW414288   2.001   3.536   2.860 -0.1779  0.7298  0.3464
 3631SOL     OW14289   4.563   1.384   0.636  0.2420 -0.4203 -0.3827
 3631SOL    HW214290   4.635   1.355   0.693  1.1965  1.1435 -0.7394
 3631SOL    HW314291   4.587   1.353   0.549  0.9274  0.8251 -0.6484
 3631SOL    MW414292   4.576   1.376   0.632  0.4584 -0.0497 -0.4648
 3632SOL     OW14293   0.103   4.371   0.842 -0.0107 -0.4181  0.7225
 3632SOL    HW214294   0.160   4.419   0.782 -0.6818  0.4267  0.7405
 3632SOL    HW314295   0.020   4.418   0.840 -0.4074 -1.0504  1.4444
 3632SOL    MW414296   0.099   4.383   0.834 -0.1516 -0.3901  0.8201
 3633SOL     OW14297   2.990   4.995   5.014 -0.7440 -0.1020 -0.4017
 3633SOL    HW214298   2.983   4.922   5.075 -2.7494  1.4845  1.3839
 3633SOL    HW314299   2.995   4.953   4.928  1.2517 -2.3648  0.6786
 3633SOL    MW414300   2.990   4.980   5.010 -0.7453 -0.1912 -0.0236
 3634SOL     OW14301   1.335   0.728   0.297  0.1544  0.0519  0.6045
 3634SOL    HW214302   1.310   0.638   0.319  0.5621 -0.2882 -0.2487
 3634SOL    HW314303   1.279   0.783   0.352 -3.2165 -0.6364 -1.8206
 3634SOL    MW414304   1.324   0.723   0.307 -0.2366 -0.0838  0.1720
 3635SOL     OW14305   3.393   3.992   6.144  0.1355 -0.2634  0.3840
 3635SOL    HW214306   3.310   3.985   6.097 -0.5073 -1.0200  1.5727
 3635SOL    HW314307   3.456   3.946   6.088 -0.2525  0.2185 -0.4732
 3635SOL    MW414308   3.390   3.985   6.130 -0.0005 -0.2996  0.4277
 3636SOL     OW14309   2.064   1.074   0.256  0.1977 -0.5575  0.0711
 3636SOL    HW214310   2.160   1.080   0.252  0.2932 -0.9510  1.3830
 3636SOL    HW314311   2.043   0.996   0.205  0.7163 -1.3445  1.0291
 3636SOL    MW414312   2.074   1.064   0.249  0.2788 -0.7133  0.3706
 3637SOL     OW14313   5.998   6.327   3.964  0.6662  0.1024  0.0848
 3637SOL    HW214314   6.004   6.311   3.869 -0.7346 -1.7779  0.2439
 3637SOL    HW314315   6.016   6.420   3.974 -0.8657  0.7515 -2.2615
 3637SOL    MW414316   6.001   6.337   3.953  0.2792 -0.0600 -0.2038
 3638SOL     OW14317   0.532   2.415   0.368  0.1611 -0.1982  0.0790
 3638SOL    HW214318   0.570   2.330   0.391  0.9059  0.1925  0.3285
 3638SOL    HW314319   0.446   2.393   0.330 -0.6389 -0.9343  2.1636
 3638SOL    MW414320   0.526   2.401   0.366  0.1538 -0.2438  0.3869
 3639SOL     OW14321   6.005   4.200   2.353 -0.0864 -0.2492 -0.1295
 3639SOL    HW214322   5.932   4.204   2.292 -1.6226 -0.7082  1.5656
 3639SOL    HW314323   6.056   4.124   2.325 -0.6153 -0.2959 -0.9817
 3639SOL    MW414324   6.002   4.190   2.341 -0.3589 -0.3159 -0.0183
 3640SOL     OW14325   5.907   5.032   6.237  0.0189  0.3746 -0.2601
 3640SOL    HW214326   5.866   5.114   6.210  0.1773  1.4241  2.3898
 3640SOL    HW314327   5.874   5.016   6.325  2.7143 -0.4855  0.7197
 3640SOL    MW414328   5.897   5.040   6.245  0.3954  0.3996  0.2188
 3641SOL     OW14329   0.492   2.134   6.242 -0.0949  0.3384 -0.5129
 3641SOL    HW214330   0.489   2.228   6.223 -0.5524  0.2506 -0.8979
 3641SOL    HW314331   0.406   2.102   6.217 -0.0706 -0.1210 -0.0202
 3641SOL    MW414332   0.480   2.143   6.236 -0.1521  0.2662 -0.4987
 3642SOL     OW14333   0.327   2.298   3.720 -0.2957 -0.2789  0.4642
 3642SOL    HW214334   0.289   2.261   3.800 -1.7046  0.5560  0.2275
 3642SOL    HW314335   0.260   2.359   3.688  1.2604  1.2913  0.0085
 3642SOL    MW414336   0.313   2.301   3.726 -0.2763  0.0384  0.3729
 3643SOL     OW14337   3.915   2.376   4.596  0.0772  0.1252  0.2153
 3643SOL    HW214338   3.972   2.301   4.612 -0.3447 -0.3801 -0.6079
 3643SOL    HW314339   3.975   2.448   4.575  0.5652  0.4006  2.2935
 3643SOL    MW414340   3.931   2.376   4.596  0.0859  0.0948  0.3809
 3644SOL     OW14341   4.314   5.707   0.604 -0.2337  0.0671  0.3433
 3644SOL    HW214342   4.277   5.730   0.689 -1.8233 -1.5361  0.1555
 3644SOL    HW314343   4.301   5.785   0.550 -0.2543  0.6972  1.2311
 3644SOL    MW414344   4.308   5.720   0.608 -0.4462 -0.0613  0.4357
 3645SOL     OW14345   5.213   3.919   2.023  0.1706  0.1892 -0.0661
 3645SOL    HW214346   5.162   3.848   2.063  0.5412 -0.5469 -0.8652
 3645SOL    HW314347   5.198   3.909   1.929  1.5292  0.1505 -0.3011
 3645SOL    MW414348   5.204   3.908   2.016  0.3987  0.0869 -0.2025
 3646SOL     OW14349   0.453   3.794   2.403 -0.0721  0.1661 -0.1584
 3646SOL    HW214350   0.434   3.860   2.470  1.1598 -0.7082  1.1172
 3646SOL    HW314351   0.401   3.718   2.428  2.0457 -0.9382  1.1854
 3646SOL    MW414352   0.444   3.793   2.415  0.3698 -0.0950  0.1872
 3647SOL     OW14353   2.094   1.231   5.845 -0.7325  0.0225  0.4203
 3647SOL    HW214354   2.065   1.283   5.770  1.1892  1.3365  0.5224
 3647SOL    HW314355   2.125   1.149   5.808  3.2875  1.8568 -0.7982
 3647SOL    MW414356   2.094   1.227   5.831  0.0514  0.4379  0.2730
 3648SOL     OW14357   4.208   0.653   2.463  0.0457 -0.0446  0.0250
 3648SOL    HW214358   4.121   0.615   2.457  0.0053 -0.1032  0.8914
 3648SOL    HW314359   4.241   0.651   2.373 -0.4856 -0.8635 -0.1629
 3648SOL    MW414360   4.201   0.648   2.450 -0.0297 -0.1604  0.1145
 3649SOL     OW14361   5.411   2.228   4.877  0.0549  0.2487 -0.0018
 3649SOL    HW214362   5.335   2.174   4.856 -0.8309  1.1280  0.8720
 3649SOL    HW314363   5.382   2.284   4.949  1.7056  0.2074  0.7358
 3649SOL    MW414364   5.397   2.228   4.883  0.1558  0.3593  0.2108
 3650SOL     OW14365   5.026   2.163   1.781  0.1182  0.1465  0.1529
 3650SOL    HW214366   5.105   2.212   1.805  0.3355  0.0614 -0.3725
 3650SOL    HW314367   4.992   2.131   1.865  0.3149  0.6718  0.4388
 3650SOL    MW414368   5.032   2.165   1.796  0.1728  0.2046  0.1213
 3651SOL     OW14369   5.934   2.959   4.497  0.4121  0.2419  0.1555
 3651SOL    HW214370   5.969   2.870   4.486 -2.6136 -1.3095  1.5554
 3651SOL    HW314371   5.940   2.998   4.410  2.3671 -1.0884 -0.3771
 3651SOL    MW414372   5.939   2.952   4.484  0.2708 -0.1383  0.2699
 3652SOL     OW14373   3.549   1.912   5.109  1.0876 -0.3689 -0.3037
 3652SOL    HW214374   3.625   1.948   5.155 -0.3460  1.4297  0.7832
 3652SOL    HW314375   3.566   1.930   5.017  2.0059 -0.0588 -0.0908
 3652SOL    MW414376   3.562   1.919   5.103  1.0196 -0.0907 -0.1322
 3653SOL     OW14377   0.652   2.544   3.949 -0.5935 -0.1573 -0.2063
 3653SOL    HW214378   0.622   2.487   3.878 -0.8172 -0.5442  0.2027
 3653SOL    HW314379   0.738   2.509   3.973  0.1693  0.8627 -1.2801
 3653SOL    MW414380   0.660   2.532   3.943 -0.5223 -0.0738 -0.2940
 3654SOL     OW14381   1.336   5.239   3.140  0.3498 -0.2502  0.2706
 3654SOL    HW214382   1.379   5.287   3.070  0.7647 -0.6140  0.2737
 3654SOL    HW314383   1.407   5.198   3.189 -0.0163 -1.2321  0.0064
 3654SOL    MW414384   1.351   5.240   3.137  0.3563 -0.4278  0.2361
 3655SOL     OW14385   3.721   4.172   0.208  0.0040  0.2625 -0.4980
 3655SOL    HW214386   3.685   4.256   0.180 -0.6673 -0.3935 -1.6882
 3655SOL    HW314387   3.804   4.194   0.250  0.2731  1.4450 -1.6048
 3655SOL    MW414388   3.727   4.186   0.210 -0.0490  0.3320 -0.8011
 3656SOL     OW14389   3.837   0.048   3.801  0.0172 -0.0487  0.0255
 3656SOL    HW214390   3.783  -0.018   3.759  1.0944 -1.0172  0.1047
 3656SOL    HW314391   3.878   0.096   3.729 -0.2441  0.0862 -0.0327
 3656SOL    MW414392   3.835   0.046   3.786  0.1248 -0.1587  0.0283
 3657SOL     OW14393   4.590   0.572   0.423  0.1788 -0.3919  0.2785
 3657SOL    HW214394   4.663   0.633   0.417 -0.1704  0.0315  0.2619
 3657SOL    HW314395   4.593   0.522   0.342  1.1010 -1.1297  0.7539
 3657SOL    MW414396   4.600   0.574   0.412  0.2544 -0.4333  0.3390
 3658SOL     OW14397   5.259   1.788   0.739  0.1352 -0.3837 -0.2061
 3658SOL    HW214398   5.221   1.784   0.827  0.1181  1.0532 -0.1169
 3658SOL    HW314399   5.299   1.702   0.726  0.9568 -0.3197  1.5966
 3658SOL    MW414400   5.260   1.776   0.749  0.2413 -0.1856  0.0435
 3659SOL     OW14401   6.193   0.197   4.492 -0.0969  0.0884 -0.4991
 3659SOL    HW214402   6.149   0.134   4.549 -1.6889  0.3000 -1.4236
 3659SOL    HW314403   6.212   0.272   4.549 -0.3211 -0.2928  0.0815
 3659SOL    MW414404   6.190   0.199   4.507 -0.3365  0.0660 -0.5444
 3660SOL     OW14405   0.444   2.968   2.150 -0.1515 -0.1691 -0.3263
 3660SOL    HW214406   0.380   2.927   2.208  0.7403 -1.0694  0.0340
 3660SOL    HW314407   0.458   3.055   2.188 -0.2468 -0.4161  0.2849
 3660SOL    MW414408   0.437   2.974   2.163 -0.0464 -0.3205 -0.1982
 3661SOL     OW14409   5.498   6.136   1.714  0.0436  0.3587  0.3370
 3661SOL    HW214410   5.419   6.139   1.768 -0.2297  1.5377 -0.0950
 3661SOL    HW314411   5.555   6.074   1.759 -2.8790 -4.5285 -1.8033
 3661SOL    MW414412   5.495   6.128   1.727 -0.3780 -0.1306 -0.0024
 3662SOL     OW14413   6.351   2.924   2.245 -0.3658  0.1805 -0.0141
 3662SOL    HW214414   6.322   2.852   2.190 -0.4762 -0.0974  0.4038
 3662SOL    HW314415   6.270   2.967   2.273 -0.2985  0.5214 -0.3283
 3662SOL    MW414416   6.337   2.920   2.242 -0.3715  0.1888 -0.0004
 3663SOL     OW14417   0.889   2.825   6.078 -0.4494  0.1589 -0.2194
 3663SOL    HW214418   0.818   2.814   6.141  0.9110 -0.6545  1.2296
 3663SOL    HW314419   0.955   2.876   6.124  0.5544 -0.4066 -0.9925
 3663SOL    MW414420   0.888   2.830   6.092 -0.1375 -0.0230 -0.1303
 3664SOL     OW14421   0.640   5.265   1.614  0.2611  0.1396 -0.0067
 3664SOL    HW214422   0.715   5.278   1.556 -0.9158  0.6165 -1.4891
 3664SOL    HW314423   0.678   5.250   1.701  2.0296  2.5777 -0.2745
 3664SOL    MW414424   0.655   5.265   1.618  0.3391  0.5242 -0.2376
 3665SOL     OW14425   0.780   5.411   0.771  0.0657  0.7534 -0.1402
 3665SOL    HW214426   0.871   5.426   0.796 -0.0557 -0.6735  1.2268
 3665SOL    HW314427   0.785   5.354   0.695  0.2994  0.1185  0.3504
 3665SOL    MW414428   0.793   5.406   0.764  0.0806  0.4813  0.1049
 3666SOL     OW14429   2.883   2.491   0.915 -0.3321 -0.7764  0.4651
 3666SOL    HW214430   2.910   2.408   0.955  2.0673 -0.3555 -0.1318
 3666SOL    HW314431   2.932   2.496   0.833 -1.9821  0.3258 -0.5204
 3666SOL    MW414432   2.893   2.481   0.910 -0.2332 -0.5754  0.2564
 3667SOL     OW14433   0.985   3.447   2.375  0.1015 -0.0284  0.0057
 3667SOL    HW214434   1.067   3.408   2.344  0.8323 -0.1502  1.9943
 3667SOL    HW314435   1.011   3.532   2.410 -0.7423  0.2053  0.0773
 3667SOL    MW414436   0.999   3.453   2.375  0.0866 -0.0136  0.2775
 3668SOL     OW14437   5.719   1.060   4.565 -0.3742 -0.8965  0.4165
 3668SOL    HW214438   5.774   1.015   4.501  0.0200  0.3598 -0.1536
 3668SOL    HW314439   5.759   1.039   4.650  1.7496  0.9581 -0.0533
 3668SOL    MW414440   5.731   1.051   4.568 -0.0420 -0.4861  0.2793
 3669SOL     OW14441   3.966   6.010   1.133  0.2076 -0.1836  0.3589
 3669SOL    HW214442   4.056   6.023   1.163  0.7467  0.1458 -1.3017
 3669SOL    HW314443   3.954   6.077   1.065 -1.8769  0.9201  1.6943
 3669SOL    MW414444   3.977   6.021   1.128  0.0037  0.0054  0.3160
 3670SOL     OW14445   2.669   3.588   4.827 -0.7700 -0.0168  0.2433
 3670SOL    HW214446   2.663   3.546   4.742 -0.9324  0.3281  0.0842
 3670SOL    HW314447   2.731   3.534   4.876 -0.6883 -0.2236 -0.0868
 3670SOL    MW414448   2.676   3.576   4.823 -0.7806  0.0014  0.1788
 3671SOL     OW14449   0.320   4.056   0.495  0.0886  0.5763  0.1423
 3671SOL    HW214450   0.391   4.015   0.545 -0.0431 -1.1856 -1.0040
 3671SOL    HW314451   0.248   4.062   0.557  0.4741  0.0611  0.6572
 3671SOL    MW414452   0.320   4.051   0.510  0.1221  0.2759  0.0590
 3672SOL     OW14453   5.360   5.630   2.587  0.0031 -0.1162  0.1239
 3672SOL    HW214454   5.434   5.620   2.527 -1.1109 -1.4147 -1.1210
 3672SOL    HW314455   5.370   5.558   2.650 -0.1298 -0.2169  0.0303
 3672SOL    MW414456   5.371   5.619   2.587 -0.1614 -0.3008 -0.0527
 3673SOL     OW14457   3.458   2.376   4.837 -0.5670 -0.9345 -0.0556
 3673SOL    HW214458   3.473   2.328   4.755  0.8955 -0.3737 -0.1504
 3673SOL    HW314459   3.404   2.318   4.890  0.8330 -2.5249 -0.3118
 3673SOL    MW414460   3.453   2.362   4.833 -0.1893 -1.0704 -0.1019
 3674SOL     OW14461   4.216   2.485   0.738 -0.0521 -0.2693  0.0486
 3674SOL    HW214462   4.281   2.546   0.773 -1.2480  0.8360  0.4198
 3674SOL    HW314463   4.131   2.522   0.763 -0.8689 -1.2326 -1.1308
 3674SOL    MW414464   4.213   2.498   0.746 -0.3177 -0.2505 -0.0580
 3675SOL     OW14465   1.730   3.430   2.711  0.1527 -0.6447 -0.3168
 3675SOL    HW214466   1.705   3.474   2.792 -0.9708 -1.8233  0.0072
 3675SOL    HW314467   1.702   3.339   2.724 -0.3260 -0.7811 -2.1456
 3675SOL    MW414468   1.723   3.424   2.724 -0.0587 -0.8182 -0.5153
 3676SOL     OW14469   3.317   0.268   4.406  0.4851 -0.0179 -0.3787
 3676SOL    HW214470   3.279   0.234   4.325 -1.3519 -0.1886  0.4923
 3676SOL    HW314471   3.280   0.356   4.414  0.9078  0.1179  0.1092
 3676SOL    MW414472   3.307   0.275   4.397  0.2985 -0.0225 -0.1994
 3677SOL     OW14473   5.583   5.329   2.412 -0.0585 -0.6013 -0.0279
 3677SOL    HW214474   5.604   5.420   2.430  1.9161 -0.8680 -0.7064
 3677SOL    HW314475   5.604   5.283   2.493 -4.2350 -0.1498  1.5464
 3677SOL    MW414476   5.589   5.335   2.425 -0.3490 -0.5769  0.0903
 3678SOL     OW14477   1.687   3.624   1.649 -0.2369  0.4370  0.1443
 3678SOL    HW214478   1.701   3.711   1.612  0.2763  0.6425  0.8103
 3678SOL    HW314479   1.752   3.616   1.718  0.9884 -1.2204 -1.1327
 3678SOL    MW414480   1.697   3.634   1.653 -0.0075  0.2454  0.0637
 3679SOL     OW14481   4.656   3.279   3.457 -0.1180 -0.0572 -0.0178
 3679SOL    HW214482   4.569   3.249   3.429  0.2338 -0.8694 -0.2789
 3679SOL    HW314483   4.651   3.281   3.553 -0.1817 -0.8940  0.0042
 3679SOL    MW414484   4.644   3.275   3.466 -0.0800 -0.2747 -0.0494
 3680SOL     OW14485   2.377   0.443   0.270  0.2811  0.4051  0.7639
 3680SOL    HW214486   2.352   0.505   0.201 -1.3152 -1.1280 -0.0918
 3680SOL    HW314487   2.372   0.357   0.229 -1.0135 -0.6022  2.8386
 3680SOL    MW414488   2.373   0.440   0.256 -0.1003  0.0699  0.9247
 3681SOL     OW14489   3.719   4.154   3.845  0.0775  0.2256  0.1702
 3681SOL    HW214490   3.692   4.072   3.803 -1.5435  0.5446  0.4848
 3681SOL    HW314491   3.702   4.221   3.780  1.2213  0.3413 -0.0177
 3681SOL    MW414492   3.713   4.152   3.831  0.0145  0.2830  0.1869
 3682SOL     OW14493   5.255   1.854   5.240 -0.0780 -0.3235  0.5470
 3682SOL    HW214494   5.286   1.773   5.201 -0.2236 -0.6639  1.1142
 3682SOL    HW314495   5.186   1.826   5.301 -0.4635  0.2711  0.3928
 3682SOL    MW414496   5.250   1.840   5.243 -0.1481 -0.2899  0.6015
 3683SOL     OW14497   1.634   0.618   1.523  0.2509  0.5492  0.5434
 3683SOL    HW214498   1.659   0.617   1.615 -0.6859 -1.0017  0.8188
 3683SOL    HW314499   1.586   0.536   1.510  2.0116 -0.2453 -1.7666
 3683SOL    MW414500   1.631   0.607   1.533  0.3596  0.2398  0.2749
 3684SOL     OW14501   5.964   5.940   4.228 -0.5438  0.1621 -0.2169
 3684SOL    HW214502   5.988   5.849   4.209  1.4283  0.6364 -0.1267
 3684SOL    HW314503   6.040   5.991   4.202 -0.7375  1.5845  1.7794
 3684SOL    MW414504   5.977   5.935   4.222 -0.3092  0.4123  0.0584
 3685SOL     OW14505   5.859   6.023   2.060 -0.2551 -0.5622 -0.5759
 3685SOL    HW214506   5.869   6.115   2.088  0.1501  0.4196 -3.6149
 3685SOL    HW314507   5.782   5.992   2.107  0.9195  0.5208  2.3316
 3685SOL    MW414508   5.850   6.031   2.070 -0.0466 -0.2898 -0.5933
 3686SOL     OW14509   1.989   1.915   4.069  0.1276 -0.4689 -0.2996
 3686SOL    HW214510   1.993   1.924   3.974  0.8671 -0.8567 -0.3034
 3686SOL    HW314511   2.013   1.825   4.087  0.8272 -0.1705  0.3164
 3686SOL    MW414512   1.993   1.905   4.059  0.3175 -0.4807 -0.2188
 3687SOL     OW14513   4.937   3.226   2.430  0.2855 -0.2401  0.0177
 3687SOL    HW214514   4.844   3.230   2.410  0.2330  0.8082  0.4510
 3687SOL    HW314515   4.963   3.317   2.444  1.2632 -0.5681  0.4191
 3687SOL    MW414516   4.928   3.238   2.429  0.4075 -0.1451  0.1278
 3688SOL     OW14517   0.918   2.386   0.309 -0.3967 -0.5755 -0.3911
 3688SOL    HW214518   0.852   2.386   0.240 -0.5475 -0.4816 -0.2476
 3688SOL    HW314519   0.872   2.417   0.387 -0.2219 -0.6549 -0.2536
 3688SOL    MW414520   0.903   2.390   0.310 -0.3935 -0.5736 -0.3540
 3689SOL     OW14521   4.518   4.742   3.000  0.1993 -0.4422 -0.5609
 3689SOL    HW214522   4.500   4.830   2.969  0.0892 -0.3557 -0.2555
 3689SOL    HW314523   4.519   4.688   2.921 -0.9729 -0.3743 -0.6367
 3689SOL    MW414524   4.516   4.746   2.985  0.0301 -0.4218 -0.5306
 3690SOL     OW14525   3.777   0.359   3.409 -0.1656  0.8098 -0.2296
 3690SOL    HW214526   3.736   0.348   3.495 -0.6996 -1.5354 -0.7213
 3690SOL    HW314527   3.712   0.324   3.347  1.3762 -0.2815 -1.2879
 3690SOL    MW414528   3.763   0.353   3.413 -0.0327  0.3564 -0.4341
 3691SOL     OW14529   4.767   4.712   3.154  0.2409  0.1249 -0.4137
 3691SOL    HW214530   4.827   4.696   3.082 -0.6169 -0.8069 -0.9540
 3691SOL    HW314531   4.685   4.737   3.112 -0.4114 -0.8931  0.1973
 3691SOL    MW414532   4.764   4.713   3.139  0.0417 -0.1323 -0.4043
 3692SOL     OW14533   5.296   5.997   3.104 -0.4270  0.1339 -0.0598
 3692SOL    HW214534   5.223   5.995   3.043 -0.7002  1.5339  0.1809
 3692SOL    HW314535   5.341   6.080   3.085  1.5305 -1.0091 -0.6812
 3692SOL    MW414536   5.292   6.008   3.094 -0.2048  0.1678 -0.1100
 3693SOL     OW14537   3.759   0.680   2.308  0.2059  0.2214  0.4938
 3693SOL    HW214538   3.811   0.706   2.233  0.9866  0.4369  1.1036
 3693SOL    HW314539   3.671   0.664   2.272  1.0452 -1.7649 -0.8395
 3693SOL    MW414540   3.754   0.681   2.294  0.4196 -0.0122  0.3984
 3694SOL     OW14541   5.851   2.618   2.108 -0.6110 -0.2115  0.5597
 3694SOL    HW214542   5.899   2.538   2.085  1.8584  1.9585 -2.7025
 3694SOL    HW314543   5.761   2.601   2.079  0.5481 -0.8327 -3.2590
 3694SOL    MW414544   5.845   2.605   2.101 -0.1323 -0.0072 -0.3745
 3695SOL     OW14545   1.859   5.322   3.629 -0.3380  1.2715 -0.0690
 3695SOL    HW214546   1.925   5.253   3.616 -0.2674  1.6198 -1.7777
 3695SOL    HW314547   1.889   5.370   3.705  1.2095  1.2020 -0.6044
 3695SOL    MW414548   1.871   5.319   3.637 -0.1245  1.3083 -0.3651
 3696SOL     OW14549   4.958   5.411   5.901 -0.1292  0.2533  0.2654
 3696SOL    HW214550   4.863   5.410   5.903 -0.1659  0.1635 -0.7594
 3696SOL    HW314551   4.984   5.324   5.930 -0.3596  0.3193  0.6645
 3696SOL    MW414552   4.949   5.399   5.905 -0.1645  0.2502  0.1828
 3697SOL     OW14553   1.449   5.754   5.714  0.3317 -0.6113  0.4215
 3697SOL    HW214554   1.440   5.756   5.619 -1.7125 -0.0797  0.5972
 3697SOL    HW314555   1.515   5.821   5.733  0.0292 -0.0163 -0.5441
 3697SOL    MW414556   1.457   5.763   5.704  0.0220 -0.4626  0.3173
 3698SOL     OW14557   4.582   0.179   2.854 -0.6708  0.4555 -0.3791
 3698SOL    HW214558   4.578   0.121   2.930  1.0588 -1.1724 -1.4377
 3698SOL    HW314559   4.526   0.136   2.789 -0.4030  0.6668 -0.7473
 3698SOL    MW414560   4.574   0.165   2.855 -0.4072  0.2686 -0.5673
 3699SOL     OW14561   1.730   0.935   4.486  0.3654 -0.2810  0.1920
 3699SOL    HW214562   1.790   0.954   4.413  1.4677 -0.9831  0.8987
 3699SOL    HW314563   1.665   0.875   4.448  1.4492 -1.3619  0.0017
 3699SOL    MW414564   1.729   0.930   4.471  0.6538 -0.5162  0.2601
 3700SOL     OW14565   4.647   3.043   5.553  0.4092  0.1493  0.0370
 3700SOL    HW214566   4.667   3.101   5.627 -1.1070 -0.6118  1.1026
 3700SOL    HW314567   4.552   3.045   5.547  0.3305 -2.0039 -0.0511
 3700SOL    MW414568   4.637   3.051   5.562  0.1988 -0.2352  0.1659
 3701SOL     OW14569   5.546   1.971   1.105  0.0682 -0.1940 -0.3165
 3701SOL    HW214570   5.581   1.942   1.021 -0.2764  0.1109 -0.5687
 3701SOL    HW314571   5.609   1.940   1.170  1.6184  1.5986 -0.8690
 3701SOL    MW414572   5.559   1.963   1.103  0.2273  0.0827 -0.4226
 3702SOL     OW14573   5.397   4.980   5.837 -0.2460  0.2865 -0.0671
 3702SOL    HW214574   5.453   4.935   5.775  0.8242  0.2947  0.8624
 3702SOL    HW314575   5.414   5.073   5.822  0.4319  0.2781  0.5908
 3702SOL    MW414576   5.407   4.987   5.827 -0.0154  0.2865  0.1423
 3703SOL     OW14577   1.731   3.489   5.924 -0.3175  0.5384  0.1788
 3703SOL    HW214578   1.668   3.561   5.933 -0.3713  0.4998  0.1107
 3703SOL    HW314579   1.741   3.455   6.013 -1.5665 -0.4551 -0.0361
 3703SOL    MW414580   1.724   3.494   5.937 -0.4894  0.4022  0.1415
 3704SOL     OW14581   5.904   2.339   3.436  0.4786  0.0614  0.3733
 3704SOL    HW214582   5.933   2.290   3.358 -1.6425  1.7990 -1.6694
 3704SOL    HW314583   5.950   2.423   3.430 -0.1685  0.4430  0.6270
 3704SOL    MW414584   5.914   2.344   3.425  0.1134  0.3410  0.1373
 3705SOL     OW14585   3.805   0.505   1.503 -0.0929 -0.2788  0.3176
 3705SOL    HW214586   3.816   0.471   1.592  1.3084 -1.2849 -0.2192
 3705SOL    HW314587   3.814   0.429   1.446 -4.5595 -0.3854 -0.6371
 3705SOL    MW414588   3.807   0.491   1.507 -0.4973 -0.4256  0.1208
 3706SOL     OW14589   0.088   1.811   1.758  0.4082 -0.1659 -0.0040
 3706SOL    HW214590   0.106   1.773   1.672  0.5148 -0.1348  0.0048
 3706SOL    HW314591   0.064   1.902   1.740  3.0830  0.6513  0.1959
 3706SOL    MW414592   0.087   1.818   1.745  0.7751 -0.0539  0.0235
 3707SOL     OW14593   4.663   0.213   5.867 -0.1096 -0.1372  0.2546
 3707SOL    HW214594   4.582   0.214   5.817  0.1014 -0.8495 -0.1166
 3707SOL    HW314595   4.688   0.305   5.875 -0.4720  0.0211 -0.4175
 3707SOL    MW414596   4.656   0.225   5.862 -0.1296 -0.2103  0.1169
 3708SOL     OW14597   6.017   6.203   6.283 -0.0103  0.2072 -0.7955
 3708SOL    HW214598   6.091   6.243   6.328  0.7039 -0.5827 -1.2396
 3708SOL    HW314599   6.056   6.155   6.210 -0.7742 -1.5258 -0.1333
 3708SOL    MW414600   6.032   6.202   6.279 -0.0169 -0.1257 -0.7667
 3709SOL     OW14601   4.643   5.047   1.942 -0.0617  0.1163  0.7107
 3709SOL    HW214602   4.616   5.105   1.872  0.9824 -1.7689 -1.3990
 3709SOL    HW314603   4.572   5.051   2.006 -1.3029  1.5438 -0.6799
 3709SOL    MW414604   4.630   5.055   1.941 -0.0877  0.0559  0.2489
 3710SOL     OW14605   4.982   2.868   5.024 -0.1211 -0.0637  0.1703
 3710SOL    HW214606   4.909   2.807   5.016  1.2504 -1.7174 -0.4071
 3710SOL    HW314607   5.013   2.857   5.114  2.9109 -3.7603 -1.0588
 3710SOL    MW414608   4.977   2.859   5.035  0.4599 -0.7696 -0.0681
 3711SOL     OW14609   6.259   2.402   1.911  0.0271 -0.5083 -0.5359
 3711SOL    HW214610   6.177   2.404   1.961  0.4083 -0.1460  0.0949
 3711SOL    HW314611   6.283   2.309   1.910  1.1711 -0.3386  1.9605
 3711SOL    MW414612   6.251   2.390   1.918  0.2283 -0.4381 -0.1233
 3712SOL     OW14613   4.197   6.114   5.551  0.1056  0.1401 -0.8924
 3712SOL    HW214614   4.221   6.121   5.643 -0.9383  1.6382 -0.6963
 3712SOL    HW314615   4.269   6.155   5.504 -0.9581  2.7250 -0.4476
 3712SOL    MW414616   4.209   6.120   5.557 -0.1725  0.6788 -0.8078
 3713SOL     OW14617   5.999   2.777   0.848 -0.0623  0.3698 -0.1383
 3713SOL    HW214618   5.925   2.717   0.838 -0.8124  1.3210 -0.5329
 3713SOL    HW314619   6.023   2.800   0.758  1.8846 -1.2732 -0.0937
 3713SOL    MW414620   5.992   2.772   0.835  0.0956  0.2785 -0.1845
 3714SOL     OW14621   4.520   4.615   1.337  0.1076 -0.1220  0.4928
 3714SOL    HW214622   4.450   4.678   1.348 -0.1448 -0.6230  2.0679
 3714SOL    HW314623   4.515   4.588   1.245 -0.7752  0.9624  0.2087
 3714SOL    MW414624   4.510   4.620   1.326 -0.0422 -0.0451  0.6631
 3715SOL     OW14625   5.408   2.616   3.853 -0.4091  0.0017 -0.2200
 3715SOL    HW214626   5.400   2.707   3.824  0.8801 -0.0560 -0.8450
 3715SOL    HW314627   5.445   2.623   3.942 -0.9148  0.0982 -0.0158
 3715SOL    MW414628   5.412   2.629   3.861 -0.3057  0.0068 -0.2756
 3716SOL     OW14629   5.328   4.964   4.599 -0.3112  0.5170 -0.3663
 3716SOL    HW214630   5.248   5.013   4.581 -0.0885  0.2798 -2.1011
 3716SOL    HW314631   5.397   5.030   4.599 -0.5359  0.8401  1.8736
 3716SOL    MW414632   5.326   4.979   4.597 -0.3114  0.5283 -0.2996
 3717SOL     OW14633   5.060   2.413   5.822 -0.0141 -0.0581  0.3550
 3717SOL    HW214634   5.153   2.392   5.810  0.0506 -0.9154  1.9625
 3717SOL    HW314635   5.060   2.486   5.884 -0.3515 -2.5650  3.6218
 3717SOL    MW414636   5.073   2.420   5.829 -0.0501 -0.5020  0.9981
 3718SOL     OW14637   5.662   1.106   5.174 -0.7256  0.5712 -0.0734
 3718SOL    HW214638   5.603   1.035   5.200 -0.1424  0.7088  1.8073
 3718SOL    HW314639   5.750   1.068   5.179 -0.5661  0.5869 -2.0786
 3718SOL    MW414640   5.666   1.092   5.178 -0.6276  0.5914 -0.0898
 3719SOL     OW14641   1.049   3.024   0.036  0.3269  0.3425 -0.2326
 3719SOL    HW214642   1.098   2.980   0.106  0.0100 -0.6279 -0.6080
 3719SOL    HW314643   1.054   2.964  -0.038  1.1470  1.6127 -1.2468
 3719SOL    MW414644   1.056   3.010   0.036  0.3933  0.3820 -0.4159
 3720SOL     OW14645   3.583   3.878   5.663  0.6493  0.2534 -0.3388
 3720SOL    HW214646   3.590   3.791   5.703  0.4331  1.2845  2.1483
 3720SOL    HW314647   3.513   3.921   5.713  0.6280  1.8081 -1.6336
 3720SOL    MW414648   3.575   3.872   5.675  0.6179  0.5946 -0.1815
 3721SOL     OW14649   2.780   3.783   3.564  0.3697  0.6913 -0.5867
 3721SOL    HW214650   2.774   3.690   3.586  0.5014  0.7245 -0.4034
 3721SOL    HW314651   2.852   3.788   3.501  0.9974  0.7879  0.1203
 3721SOL    MW414652   2.789   3.771   3.559  0.4699  0.7084 -0.4692
 3722SOL     OW14653   5.213   4.131   6.009  0.0503  0.2595 -0.8570
 3722SOL    HW214654   5.121   4.132   5.982  0.3899 -0.5866 -2.1421
 3722SOL    HW314655   5.258   4.182   5.941  0.8080 -1.1310 -1.4297
 3722SOL    MW414656   5.207   4.138   5.996  0.1951 -0.0356 -1.1022
 3723SOL     OW14657   2.295   0.173   3.432 -0.2685  0.0620 -0.0091
 3723SOL    HW214658   2.206   0.138   3.428 -0.3242  0.1894  0.0733
 3723SOL    HW314659   2.282   0.268   3.436 -0.1863  0.0406  1.3849
 3723SOL    MW414660   2.281   0.181   3.432 -0.2650  0.0760  0.1857
 3724SOL     OW14661   1.729   6.165   3.317  0.3120 -0.4736 -0.3838
 3724SOL    HW214662   1.667   6.092   3.324  0.6856 -0.6376  3.3145
 3724SOL    HW314663   1.815   6.124   3.313  0.5656 -0.3982  2.2918
 3724SOL    MW414664   1.732   6.150   3.317  0.3947 -0.4853  0.4572
 3725SOL     OW14665   1.874   3.001   4.008 -0.8245  0.0366  0.7120
 3725SOL    HW214666   1.891   3.094   4.020 -0.0153  0.0472 -0.3578
 3725SOL    HW314667   1.894   2.962   4.092  0.3500  0.6395  0.7331
 3725SOL    MW414668   1.879   3.008   4.020 -0.5628  0.1175  0.5737
 3726SOL     OW14669   0.994   5.204   0.559 -0.2970  0.3832 -0.0413
 3726SOL    HW214670   0.901   5.182   0.553 -0.1422 -0.6902  1.1062
 3726SOL    HW314671   1.004   5.238   0.648  0.2323  1.5086 -0.5044
 3726SOL    MW414672   0.983   5.206   0.570 -0.2067  0.3901  0.0490
 3727SOL     OW14673   5.240   2.900   4.011  0.2548  0.2329  0.1116
 3727SOL    HW214674   5.297   2.951   3.955  1.5719 -0.9219  0.3435
 3727SOL    HW314675   5.289   2.891   4.093  0.2478 -1.6822 -0.0515
 3727SOL    MW414676   5.254   2.906   4.015  0.4277 -0.1722  0.1207
 3728SOL     OW14677   3.515   5.400   2.404  0.2983  0.2489 -0.0723
 3728SOL    HW214678   3.448   5.468   2.396 -0.8645 -0.8892 -0.3546
 3728SOL    HW314679   3.531   5.371   2.315  0.6284  0.0002  0.0652
 3728SOL    MW414680   3.508   5.405   2.391  0.1885  0.0659 -0.0914
 3729SOL     OW14681   3.432   5.289   2.635  0.6418 -0.7309  0.4027
 3729SOL    HW214682   3.445   5.329   2.549 -2.3499  1.1649  0.7047
 3729SOL    HW314683   3.358   5.229   2.622  1.3874 -1.8882  1.2828
 3729SOL    MW414684   3.424   5.286   2.622  0.3454 -0.6334  0.5587
 3730SOL     OW14685   6.367   1.714   1.357 -0.0214 -0.4444 -0.1885
 3730SOL    HW214686   6.424   1.789   1.337  1.3531 -1.5521 -0.5809
 3730SOL    HW314687   6.290   1.753   1.398  0.3561  1.2435 -0.9958
 3730SOL    MW414688   6.364   1.729   1.360  0.2097 -0.3679 -0.3468
 3731SOL     OW14689   0.863   4.523   1.042  0.2742  0.3867 -0.1359
 3731SOL    HW214690   0.862   4.527   1.138 -1.1150 -0.5264 -0.0982
 3731SOL    HW314691   0.808   4.596   1.015 -0.8877 -0.4766 -0.1692
 3731SOL    MW414692   0.856   4.533   1.051 -0.0624  0.1523 -0.1353
 3732SOL     OW14693   5.630   0.417   2.319 -0.0611  0.1682 -0.0751
 3732SOL    HW214694   5.687   0.342   2.299 -0.6095 -0.1013 -0.6574
 3732SOL    HW314695   5.651   0.482   2.252  0.1442  0.3973  0.2050
 3732SOL    MW414696   5.641   0.416   2.308 -0.1063  0.1629 -0.1149
 3733SOL     OW14697   1.186   2.163   3.094  0.0588  0.4054 -0.0143
 3733SOL    HW214698   1.206   2.146   3.186  0.2285 -0.7631 -0.2447
 3733SOL    HW314699   1.091   2.153   3.088  0.0789  0.2042 -0.0122
 3733SOL    MW414700   1.176   2.159   3.105  0.0839  0.2247 -0.0444
 3734SOL     OW14701   5.159   1.323   1.104  0.2276  0.1742 -0.0171
 3734SOL    HW214702   5.115   1.380   1.167  2.0556  0.9219  0.6632
 3734SOL    HW314703   5.165   1.238   1.149 -1.2955 -0.2089 -0.4920
 3734SOL    MW414704   5.154   1.319   1.118  0.2678  0.2223  0.0100
 3735SOL     OW14705   1.018   3.293   3.012  0.3310 -0.5666  0.4425
 3735SOL    HW214706   1.006   3.378   3.053  0.7887  0.9096 -2.2815
 3735SOL    HW314707   0.928   3.261   2.996  0.1584 -0.8124  1.7676
 3735SOL    MW414708   1.004   3.300   3.016  0.3686 -0.4043  0.2580
 3736SOL     OW14709   3.255   3.615   3.549 -0.7904  0.5142 -0.2462
 3736SOL    HW214710   3.243   3.697   3.500 -0.6581  0.0524 -1.0754
 3736SOL    HW314711   3.349   3.609   3.564 -0.8109  0.5677 -0.1009
 3736SOL    MW414712   3.266   3.625   3.545 -0.7757  0.4603 -0.3364
 3737SOL     OW14713   2.114   4.875   3.181 -0.1948 -0.0277 -0.3016
 3737SOL    HW214714   2.077   4.906   3.098 -0.4438  0.1747 -0.1171
 3737SOL    HW314715   2.182   4.939   3.202 -0.0422 -0.1514 -0.4124
 3737SOL    MW414716   2.118   4.888   3.173 -0.2075 -0.0173 -0.2919
 3738SOL     OW14717   5.105   1.521   2.373  0.1078  0.1913 -0.2280
 3738SOL    HW214718   5.047   1.543   2.446  0.3826  1.9028 -0.4882
 3738SOL    HW314719   5.054   1.461   2.319 -1.0883  0.9802  0.0007
 3738SOL    MW414720   5.091   1.516   2.376 -0.0138  0.5212 -0.2321
 3739SOL     OW14721   0.222   2.373   6.286 -0.1614 -0.1683  0.3498
 3739SOL    HW214722   0.175   2.294   6.312 -1.3355  0.7258  1.0258
 3739SOL    HW314723   0.223   2.370   6.190 -0.8753 -0.6088  0.3460
 3739SOL    MW414724   0.216   2.362   6.277 -0.4105 -0.1085  0.4385
 3740SOL     OW14725   4.459   0.421   5.185  0.0626  0.5732  0.8905
 3740SOL    HW214726   4.402   0.414   5.109  1.4160  2.3779 -0.3983
 3740SOL    HW314727   4.467   0.332   5.218  0.5594 -0.5361 -1.9560
 3740SOL    MW414728   4.453   0.409   5.179  0.3067  0.6649  0.3449
 3741SOL     OW14729   4.106   4.265   5.374 -0.1845  0.5101 -0.0575
 3741SOL    HW214730   4.181   4.257   5.433 -0.7472  1.7488  0.8831
 3741SOL    HW314731   4.034   4.292   5.431 -0.5730  2.5580 -1.4176
 3741SOL    MW414732   4.106   4.267   5.389 -0.3100  0.9438 -0.1128
 3742SOL     OW14733   3.392   6.347   3.841 -0.2178  0.0268  0.1410
 3742SOL    HW214734   3.348   6.392   3.769  0.4196 -1.3859 -1.1898
 3742SOL    HW314735   3.342   6.372   3.919 -1.8459  0.4273 -0.9782
 3742SOL    MW414736   3.379   6.356   3.842 -0.3485 -0.1067 -0.1822
 3743SOL     OW14737   2.310   5.463   1.698  0.0454 -0.0569 -0.1287
 3743SOL    HW214738   2.304   5.557   1.711  0.3100 -0.0555 -0.0155
 3743SOL    HW314739   2.404   5.444   1.702 -0.0294 -0.3741  0.2000
 3743SOL    MW414740   2.321   5.473   1.700  0.0704 -0.0985 -0.0704
 3744SOL     OW14741   1.527   5.141   3.331 -0.6049 -0.1558 -0.3534
 3744SOL    HW214742   1.591   5.208   3.355 -0.1225 -0.5915 -0.3999
 3744SOL    HW314743   1.466   5.138   3.405  0.3658 -0.8755  0.4538
 3744SOL    MW414744   1.527   5.149   3.344 -0.4132 -0.3082 -0.2531
 3745SOL     OW14745   0.373   0.112   5.781  0.7405  0.3711 -0.0136
 3745SOL    HW214746   0.328   0.079   5.703 -0.7034 -0.6608  1.1974
 3745SOL    HW314747   0.452   0.058   5.788  0.3598 -0.2182 -0.2096
 3745SOL    MW414748   0.377   0.100   5.772  0.4998  0.1572  0.1203
 3746SOL     OW14749   0.465   3.553   2.691 -0.1525 -0.4639  0.3018
 3746SOL    HW214750   0.438   3.519   2.606  0.1716  1.4177 -0.6072
 3746SOL    HW314751   0.442   3.483   2.753  0.2138 -2.1718 -1.3747
 3746SOL    MW414752   0.458   3.539   2.688 -0.0614 -0.4410 -0.0393
 3747SOL     OW14753   3.596   6.345   0.722 -0.4610 -0.3387  0.3354
 3747SOL    HW214754   3.541   6.269   0.741 -1.5384 -0.0127 -1.2880
 3747SOL    HW314755   3.538   6.407   0.678  0.8677  0.6319 -0.1354
 3747SOL    MW414756   3.581   6.343   0.719 -0.4278 -0.1677  0.0591
 3748SOL     OW14757   1.984   3.718   3.217 -0.4746 -0.4444 -0.0818
 3748SOL    HW214758   1.921   3.716   3.289  0.3284 -0.6739  0.6280
 3748SOL    HW314759   2.001   3.625   3.198 -1.0431 -0.3906 -0.8975
 3748SOL    MW414760   1.978   3.705   3.224 -0.4437 -0.4675 -0.0958
 3749SOL     OW14761   1.427   2.704   4.769 -0.0930  0.6468  0.0793
 3749SOL    HW214762   1.448   2.695   4.677 -0.3033  0.2383  0.0694
 3749SOL    HW314763   1.494   2.763   4.804  0.5552  0.0409 -0.1295
 3749SOL    MW414764   1.438   2.711   4.762 -0.0352  0.5129  0.0505
 3750SOL     OW14765   0.948   0.638   0.413 -0.5977  0.1321 -0.2087
 3750SOL    HW214766   0.943   0.719   0.363 -0.2319  0.1384 -0.2423
 3750SOL    HW314767   0.919   0.570   0.352  2.2787 -0.2421 -1.3682
 3750SOL    MW414768   0.944   0.640   0.398 -0.1699  0.0836 -0.3661
 3751SOL     OW14769   4.162   4.867   0.599 -0.0341  0.2262 -0.0729
 3751SOL    HW214770   4.238   4.897   0.649  0.0675 -1.0622  0.5917
 3751SOL    HW314771   4.195   4.792   0.548 -0.5783  0.4015 -0.6921
 3751SOL    MW414772   4.177   4.861   0.599 -0.0925  0.0793 -0.0669
 3752SOL     OW14773   4.096   2.366   4.237  0.0801 -0.4115  0.1503
 3752SOL    HW214774   4.157   2.429   4.200  1.4371 -0.6189  1.8997
 3752SOL    HW314775   4.019   2.371   4.181  0.4166  2.2579 -0.1652
 3752SOL    MW414776   4.094   2.375   4.224  0.3035 -0.0867  0.3395
 3753SOL     OW14777   2.784   4.351   3.172  0.2384  0.4969  0.6307
 3753SOL    HW214778   2.782   4.430   3.118  2.4685  0.8802  0.9924
 3753SOL    HW314779   2.869   4.310   3.151  0.1351 -0.5782  2.1263
 3753SOL    MW414780   2.795   4.356   3.162  0.5190  0.4056  0.8757
 3754SOL     OW14781   2.559   3.436   6.047  0.6410  0.6991  0.6460
 3754SOL    HW214782   2.506   3.455   5.970 -1.9664  2.0724  2.6319
 3754SOL    HW314783   2.532   3.348   6.073  2.3608 -0.2487 -0.5369
 3754SOL    MW414784   2.548   3.427   6.040  0.5239  0.7552  0.7520
 3755SOL     OW14785   1.214   2.103   3.362 -0.1466 -0.6545 -0.2776
 3755SOL    HW214786   1.147   2.084   3.427  0.1672  0.2300  0.3149
 3755SOL    HW314787   1.274   2.163   3.406  0.2563 -0.3162 -1.2677
 3755SOL    MW414788   1.213   2.109   3.376 -0.0520 -0.4932 -0.3300
 3756SOL     OW14789   4.289   0.692   5.810 -0.0176  0.2140  0.1740
 3756SOL    HW214790   4.242   0.637   5.747 -1.5069  1.2565  0.3174
 3756SOL    HW314791   4.247   0.778   5.803  1.4629  1.0221  0.8049
 3756SOL    MW414792   4.277   0.696   5.801 -0.0188  0.4581  0.2762
 3757SOL     OW14793   0.678   3.496   0.468  0.4095  0.2601  0.3062
 3757SOL    HW214794   0.623   3.493   0.390 -0.3677  0.3748  0.8449
 3757SOL    HW314795   0.755   3.444   0.445 -0.4049 -0.8133 -0.0871
 3757SOL    MW414796   0.681   3.489   0.455  0.1995  0.1336  0.3254
 3758SOL     OW14797   3.565   3.365   4.957 -0.2333  0.6693 -0.0569
 3758SOL    HW214798   3.650   3.379   4.916 -0.6630  2.6967 -0.3841
 3758SOL    HW314799   3.505   3.346   4.884 -0.0126 -1.2859  0.2197
 3758SOL    MW414800   3.568   3.365   4.942 -0.2609  0.6788 -0.0636
 3759SOL     OW14801   4.453   0.733   3.531  0.3769 -0.2352  0.4026
 3759SOL    HW214802   4.370   0.704   3.492  1.1987 -1.3112 -0.6326
 3759SOL    HW314803   4.518   0.719   3.462  0.9027  4.3303 -0.3362
 3759SOL    MW414804   4.451   0.727   3.516  0.5547  0.2252  0.1686
 3760SOL     OW14805   3.322   1.059   5.828 -0.4887  0.1439  0.3752
 3760SOL    HW214806   3.266   1.075   5.752  0.6410  0.1431 -0.4782
 3760SOL    HW314807   3.410   1.052   5.792 -0.2309 -2.7574  1.3347
 3760SOL    MW414808   3.326   1.060   5.813 -0.3057 -0.2390  0.3892
 3761SOL     OW14809   1.501   2.163   1.725 -0.1795 -1.0738  0.2933
 3761SOL    HW214810   1.532   2.176   1.815 -0.1337  1.0167  0.0415
 3761SOL    HW314811   1.417   2.120   1.734 -0.9476  0.5566  1.4799
 3761SOL    MW414812   1.494   2.159   1.738 -0.2748 -0.5829  0.4166
 3762SOL     OW14813   1.764   3.647   5.297  0.6502  0.2975 -0.1914
 3762SOL    HW214814   1.781   3.710   5.367  0.8386  1.1406 -0.9777
 3762SOL    HW314815   1.838   3.658   5.236  1.4144 -1.6239  0.2950
 3762SOL    MW414816   1.776   3.657   5.298  0.7759  0.1552 -0.2310
 3763SOL     OW14817   5.527   0.078   5.581 -0.0588 -0.0493 -0.1390
 3763SOL    HW214818   5.513   0.157   5.528 -0.5130  0.1873  0.3313
 3763SOL    HW314819   5.578   0.109   5.656  0.9402 -0.4604 -0.6294
 3763SOL    MW414820   5.532   0.093   5.584  0.0130 -0.0723 -0.1417
 3764SOL     OW14821   4.070   5.560   5.729  0.1238  0.8580  0.0925
 3764SOL    HW214822   4.029   5.522   5.652  1.2998 -3.2125  1.2000
 3764SOL    HW314823   4.010   5.629   5.757 -1.6374  0.7306 -2.9166
 3764SOL    MW414824   4.057   5.564   5.723  0.0466  0.3041 -0.1584
 3765SOL     OW14825   3.962   3.925   0.361 -0.4424 -0.0561 -0.9447
 3765SOL    HW214826   3.869   3.947   0.350 -0.1455  1.8973 -0.0059
 3765SOL    HW314827   4.001   3.946   0.276 -0.6898  0.0692 -1.0282
 3765SOL    MW414828   3.955   3.931   0.348 -0.4359  0.2182 -0.8319
 3766SOL     OW14829   0.169   1.529   5.235  0.2582 -0.3367  0.1059
 3766SOL    HW214830   0.088   1.539   5.286 -1.0152 -1.8712 -1.5047
 3766SOL    HW314831   0.238   1.547   5.298 -1.3144  1.0858  1.5442
 3766SOL    MW414832   0.167   1.533   5.250 -0.1173 -0.3515  0.0832
 3767SOL     OW14833   2.688   2.583   1.921 -0.0994  0.2406  0.2068
 3767SOL    HW214834   2.670   2.506   1.975  0.5372 -0.9415 -1.2109
 3767SOL    HW314835   2.696   2.550   1.832 -1.0436  2.1300 -0.6493
 3767SOL    MW414836   2.687   2.569   1.917 -0.1400  0.3340 -0.0932
 3768SOL     OW14837   4.487   0.531   5.657 -0.0308  0.1757  0.3419
 3768SOL    HW214838   4.538   0.583   5.595  0.9649 -0.2903  0.7341
 3768SOL    HW314839   4.419   0.590   5.688  0.5621  0.9760  0.1585
 3768SOL    MW414840   4.485   0.545   5.653  0.1788  0.2198  0.3695
 3769SOL     OW14841   2.324   0.386   0.565 -0.1967  0.5357 -0.1937
 3769SOL    HW214842   2.311   0.437   0.645 -0.3297  0.7019 -0.3218
 3769SOL    HW314843   2.296   0.444   0.494 -2.2004 -0.3695 -0.2242
 3769SOL    MW414844   2.319   0.400   0.566 -0.4786  0.4382 -0.2146
 3770SOL     OW14845   0.193   5.915   0.690 -0.4742 -0.0997 -0.2323
 3770SOL    HW214846   0.275   5.944   0.651 -0.0900 -0.7874  0.0481
 3770SOL    HW314847   0.144   5.878   0.616  0.2761 -1.4492 -0.0801
 3770SOL    MW414848   0.197   5.914   0.675 -0.3245 -0.3685 -0.1752
 3771SOL     OW14849   2.312   0.586   1.885 -0.4434  0.9371 -0.3688
 3771SOL    HW214850   2.301   0.492   1.870  1.2442  0.8065 -1.0381
 3771SOL    HW314851   2.237   0.611   1.939 -2.4064 -0.2285 -2.4056
 3771SOL    MW414852   2.301   0.577   1.890 -0.4797  0.7661 -0.7259
 3772SOL     OW14853   0.108   5.930   4.136 -0.0860 -0.1845  0.1888
 3772SOL    HW214854   0.177   5.865   4.149  0.1777 -0.3838 -1.8451
 3772SOL    HW314855   0.050   5.891   4.071  0.6918  2.0072 -1.9646
 3772SOL    MW414856   0.110   5.916   4.129  0.0514  0.0784 -0.3637
 3773SOL     OW14857   2.442   4.485   3.332  0.1303  0.3796 -0.1293
 3773SOL    HW214858   2.443   4.580   3.321  0.1791  0.1810 -2.0821
 3773SOL    HW314859   2.501   4.469   3.406  0.7613  1.7981 -0.2949
 3773SOL    MW414860   2.450   4.495   3.341  0.2200  0.5406 -0.4088
 3774SOL     OW14861   2.848   0.467   0.767 -0.2133  0.8660  0.4725
 3774SOL    HW214862   2.773   0.407   0.767  0.2235  0.2753 -1.2279
 3774SOL    HW314863   2.815   0.546   0.724 -0.3737  1.3194  1.4081
 3774SOL    MW414864   2.833   0.469   0.761 -0.1768  0.8479  0.3716
 3775SOL     OW14865   5.745   2.786   1.192 -0.3200 -0.3426  0.0725
 3775SOL    HW214866   5.796   2.767   1.271 -1.4541 -1.5827  0.5489
 3775SOL    HW314867   5.792   2.858   1.150  1.7837 -1.3791  0.5089
 3775SOL    MW414868   5.758   2.793   1.197 -0.1921 -0.6430  0.1929
 3776SOL     OW14869   4.123   3.063   3.303  0.5584 -0.0942  0.3471
 3776SOL    HW214870   4.153   3.049   3.213  0.3829  0.8947  0.1258
 3776SOL    HW314871   4.165   2.993   3.354  1.7807  0.1728 -0.2671
 3776SOL    MW414872   4.132   3.052   3.298  0.6965  0.0715  0.2369
 3777SOL     OW14873   1.186   1.216   6.134 -0.3033 -0.6692  0.3075
 3777SOL    HW214874   1.132   1.282   6.178 -2.4270 -1.5761 -0.7638
 3777SOL    HW314875   1.199   1.250   6.046 -0.0181 -0.9319  0.2454
 3777SOL    MW414876   1.180   1.229   6.129 -0.5458 -0.8235  0.1579
 3778SOL     OW14877   5.182   0.134   0.797  0.0092 -0.1453 -0.0235
 3778SOL    HW214878   5.217   0.212   0.840 -1.9016  2.0202 -2.1700
 3778SOL    HW314879   5.226   0.131   0.713 -2.2918  0.6631 -1.3444
 3778SOL    MW414880   5.193   0.144   0.792 -0.5465  0.2471 -0.4810
 3779SOL     OW14881   0.944   2.699   0.028 -0.0604 -0.6385 -0.3248
 3779SOL    HW214882   0.982   2.769  -0.025  1.3852 -1.0891  0.0832
 3779SOL    HW314883   0.944   2.622  -0.029 -0.2273 -0.6720 -0.2804
 3779SOL    MW414884   0.949   2.698   0.014  0.1083 -0.7023 -0.2651
 3780SOL     OW14885   2.764   3.133   5.667 -0.2628  0.1577  0.1171
 3780SOL    HW214886   2.802   3.112   5.753  0.4388  0.1364 -0.1938
 3780SOL    HW314887   2.680   3.173   5.687 -0.5579 -0.7667  0.7962
 3780SOL    MW414888   2.758   3.135   5.681 -0.2092  0.0330  0.1657
 3781SOL     OW14889   3.050   0.968   0.605 -0.1203 -0.2209  0.2099
 3781SOL    HW214890   3.145   0.971   0.615 -0.1532 -1.2166  0.9994
 3781SOL    HW314891   3.022   1.058   0.620  0.4079 -0.4758  3.7544
 3781SOL    MW414892   3.059   0.980   0.608 -0.0549 -0.3859  0.7817
 3782SOL     OW14893   1.631   6.318   0.790 -0.4941 -0.4966  0.1084
 3782SOL    HW214894   1.542   6.351   0.775 -0.0728  0.6426 -0.0174
 3782SOL    HW314895   1.668   6.308   0.702  0.1551  0.9556  0.1893
 3782SOL    MW414896   1.624   6.321   0.776 -0.3528 -0.1547  0.1025
 3783SOL     OW14897   5.396   6.103   0.445  0.2419  0.1754 -0.5193
 3783SOL    HW214898   5.484   6.134   0.464  0.0951  0.5818 -0.4941
 3783SOL    HW314899   5.407   6.009   0.429  0.3164 -0.3091  2.0279
 3783SOL    MW414900   5.409   6.095   0.445  0.2324  0.1651 -0.1799
 3784SOL     OW14901   1.587   2.942   3.216 -0.6817 -0.2727 -0.0038
 3784SOL    HW214902   1.645   2.976   3.284  2.6144  1.5836 -3.3810
 3784SOL    HW314903   1.508   2.996   3.223 -0.7666 -0.6298  2.6753
 3784SOL    MW414904   1.584   2.954   3.226 -0.2580 -0.0749 -0.0959
 3785SOL     OW14905   3.884   5.727   3.564  0.3612 -0.3259 -0.1277
 3785SOL    HW214906   3.811   5.785   3.586  0.3767 -0.3974  0.1228
 3785SOL    HW314907   3.912   5.692   3.649  1.1276  0.2293 -0.1359
 3785SOL    MW414908   3.878   5.730   3.578  0.4643 -0.2620 -0.0957
 3786SOL     OW14909   4.689   1.470   4.914 -0.1915  0.3611  0.0610
 3786SOL    HW214910   4.766   1.413   4.925 -1.9929 -2.6436 -1.5843
 3786SOL    HW314911   4.659   1.452   4.825 -1.8953  2.6763  0.0962
 3786SOL    MW414912   4.695   1.460   4.904 -0.6539  0.2701 -0.1514
 3787SOL     OW14913   0.651   1.311   4.498  0.8867 -0.6342 -0.5124
 3787SOL    HW214914   0.656   1.396   4.456  1.0151 -0.3087  0.1562
 3787SOL    HW314915   0.641   1.249   4.425 -1.3780  0.1054 -0.8984
 3787SOL    MW414916   0.650   1.314   4.483  0.6048 -0.4937 -0.4751
 3788SOL     OW14917   4.216   3.830   0.071  0.5800 -0.2421 -0.5668
 3788SOL    HW214918   4.256   3.909   0.034  1.4336 -0.0966  0.5990
 3788SOL    HW314919   4.125   3.833   0.040  0.4167  1.5369 -0.0865
 3788SOL    MW414920   4.209   3.841   0.062  0.6711  0.0118 -0.3496
 3789SOL     OW14921   6.278   5.991   5.693  0.3404  0.0843 -0.7462
 3789SOL    HW214922   6.232   6.074   5.706 -1.3947 -0.9043 -0.1930
 3789SOL    HW314923   6.231   5.948   5.622 -1.5261 -2.1565  1.6289
 3789SOL    MW414924   6.266   5.996   5.685 -0.1348 -0.3418 -0.3598
 3790SOL     OW14925   2.821   5.270   0.269  0.2029 -0.1915  0.2325
 3790SOL    HW214926   2.749   5.328   0.245  0.1104  0.6142  2.2034
 3790SOL    HW314927   2.779   5.185   0.286 -0.0057 -0.2161 -0.3871
 3790SOL    MW414928   2.806   5.266   0.268  0.1632 -0.0884  0.4108
 3791SOL     OW14929   2.875   2.572   3.055 -0.3005  0.1546  0.6885
 3791SOL    HW214930   2.841   2.660   3.036 -1.0641 -0.5946 -1.8241
 3791SOL    HW314931   2.801   2.525   3.093 -0.7702 -0.1496 -0.5385
 3791SOL    MW414932   2.861   2.577   3.057 -0.4632  0.0156  0.1951
 3792SOL     OW14933   3.755   0.576   4.621  0.5350 -0.2013 -0.0464
 3792SOL    HW214934   3.725   0.663   4.645 -2.0948 -0.9984 -0.0828
 3792SOL    HW314935   3.752   0.526   4.702 -1.3714 -1.0696 -0.5856
 3792SOL    MW414936   3.750   0.581   4.635 -0.0635 -0.4210 -0.1224
 3793SOL     OW14937   3.258   3.423   5.311  0.1720 -0.8508  0.1978
 3793SOL    HW214938   3.167   3.443   5.333  0.1430 -0.8410  0.0732
 3793SOL    HW314939   3.251   3.368   5.233  0.2738 -0.8320  0.1761
 3793SOL    MW414940   3.245   3.418   5.303  0.1816 -0.8470  0.1785
 3794SOL     OW14941   1.358   4.345   2.026  0.0398  0.2405  0.2145
 3794SOL    HW214942   1.339   4.276   1.962  1.6733 -1.1641  1.1547
 3794SOL    HW314943   1.273   4.384   2.046 -0.9021 -1.3779 -0.4843
 3794SOL    MW414944   1.344   4.341   2.020  0.1310 -0.1584  0.2464
 3795SOL     OW14945   1.656   2.835   0.613 -0.0730  0.4363  0.4627
 3795SOL    HW214946   1.726   2.832   0.678  0.8420  1.0669 -0.4566
 3795SOL    HW314947   1.595   2.902   0.646 -0.3719 -0.2753  1.3802
 3795SOL    MW414948   1.657   2.844   0.626  0.0083  0.4256  0.4625
 3796SOL     OW14949   0.532   1.917   1.215  0.8574 -0.0231  0.2989
 3796SOL    HW214950   0.618   1.959   1.217  1.1400 -0.5952  0.5486
 3796SOL    HW314951   0.494   1.937   1.301 -0.0508  1.7926 -0.4640
 3796SOL    MW414952   0.538   1.925   1.227  0.7748  0.1410  0.2312
 3797SOL     OW14953   2.390   6.075   1.881  0.0292  0.7751 -0.3910
 3797SOL    HW214954   2.325   6.052   1.947  1.0656 -1.2066  0.0540
 3797SOL    HW314955   2.347   6.059   1.797 -0.7147  1.5303 -0.1553
 3797SOL    MW414956   2.376   6.070   1.879  0.0678  0.6133 -0.3012
 3798SOL     OW14957   3.108   0.168   2.600  0.0498  0.2153 -0.0017
 3798SOL    HW214958   3.038   0.233   2.588 -1.1237 -0.9762  0.2041
 3798SOL    HW314959   3.122   0.166   2.695 -0.7670 -0.6680  0.1172
 3798SOL    MW414960   3.101   0.177   2.611 -0.2128 -0.0584  0.0411
 3799SOL     OW14961   1.175   2.746   1.254 -0.2575 -0.0330  0.2175
 3799SOL    HW214962   1.227   2.826   1.246 -0.4711  0.0100 -0.9871
 3799SOL    HW314963   1.095   2.765   1.204 -0.1543 -1.1272 -0.3831
 3799SOL    MW414964   1.171   2.759   1.246 -0.2721 -0.1717 -0.0207
 3800SOL     OW14965   0.269   1.514   1.897  0.0907 -0.6016  0.5849
 3800SOL    HW214966   0.273   1.437   1.954 -0.7686 -0.6193  0.6231
 3800SOL    HW314967   0.198   1.567   1.933 -0.5864 -0.6947 -0.5837
 3800SOL    MW414968   0.260   1.511   1.909 -0.1120 -0.6162  0.4358
 3801SOL     OW14969   4.311   2.812   3.026  0.1794 -0.3270  0.0319
 3801SOL    HW214970   4.327   2.836   2.935 -0.1336  0.4322  0.1646
 3801SOL    HW314971   4.218   2.792   3.030 -0.0602  0.7710  0.4045
 3801SOL    MW414972   4.301   2.813   3.015  0.1065 -0.0819  0.0985
 3802SOL     OW14973   2.648   6.134   1.493 -0.4542  0.1170 -0.2168
 3802SOL    HW214974   2.662   6.135   1.399 -0.4648 -0.9123 -0.2341
 3802SOL    HW314975   2.730   6.102   1.530 -0.8024 -0.4934  0.0476
 3802SOL    MW414976   2.660   6.130   1.486 -0.5015 -0.0993 -0.1842
 3803SOL     OW14977   4.678   0.944   2.194  0.3231 -0.1343 -0.2334
 3803SOL    HW214978   4.739   0.911   2.261 -0.4265 -1.7253 -0.2942
 3803SOL    HW314979   4.733   0.993   2.134  1.3154 -0.2845  0.5260
 3803SOL    MW414980   4.693   0.946   2.195  0.3551 -0.3640 -0.1412
 3804SOL     OW14981   2.787   4.275   0.277  0.5737 -0.7499  0.6926
 3804SOL    HW214982   2.766   4.326   0.356  1.3899 -1.5131  1.4103
 3804SOL    HW314983   2.703   4.236   0.252 -0.2229  1.3837 -0.2256
 3804SOL    MW414984   2.773   4.277   0.284  0.5763 -0.5691  0.6661
 3805SOL     OW14985   4.482   3.015   0.532  0.1393 -0.2927  0.3286
 3805SOL    HW214986   4.412   2.952   0.516  0.4438 -0.3814 -0.7197
 3805SOL    HW314987   4.466   3.085   0.468 -0.2104  0.7286  1.4864
 3805SOL    MW414988   4.471   3.016   0.522  0.1333 -0.1697  0.3431
 3806SOL     OW14989   6.198   2.236   3.602 -0.0707  0.3095 -0.3738
 3806SOL    HW214990   6.126   2.174   3.612 -0.1211  0.0702 -1.9289
 3806SOL    HW314991   6.190   2.295   3.677 -1.2207 -0.3640  0.0585
 3806SOL    MW414992   6.188   2.236   3.613 -0.2291  0.1891 -0.5219
 3807SOL     OW14993   5.164   6.139   6.379 -0.3085  0.4758 -0.1475
 3807SOL    HW214994   5.075   6.103   6.385 -0.5883  1.2922  1.3174
 3807SOL    HW314995   5.174   6.189   6.461  0.7805  2.0143 -1.1728
 3807SOL    MW414996   5.153   6.141   6.391 -0.2017  0.7865 -0.0895
 3808SOL     OW14997   5.109   0.995   1.959  0.4861 -0.3020 -0.4373
 3808SOL    HW214998   5.111   0.961   2.049  1.9901 -2.4739 -1.2191
 3808SOL    HW314999   5.044   0.942   1.915 -0.9014  1.3574 -0.4726
 3808SOL    MW415000   5.101   0.983   1.965  0.5015 -0.3696 -0.5451
 3809SOL     OW15001   4.451   1.802   3.991  0.5743  0.0714  0.4801
 3809SOL    HW215002   4.405   1.733   4.040  0.3916  0.6736  1.1743
 3809SOL    HW315003   4.409   1.883   4.020  1.2348  0.5250  0.1685
 3809SOL    MW415004   4.439   1.804   4.001  0.6373  0.2107  0.5306
 3810SOL     OW15005   5.547   4.789   3.938  0.0287  0.0213  0.0552
 3810SOL    HW215006   5.505   4.829   4.014  0.4902 -1.8549  1.3578
 3810SOL    HW315007   5.479   4.786   3.871 -0.0280  2.9144 -0.1542
 3810SOL    MW415008   5.533   4.794   3.939  0.0821  0.1555  0.1994
 3811SOL     OW15009   5.397   5.178   5.015  0.3909 -0.0277  0.1288
 3811SOL    HW215010   5.413   5.149   5.104  3.4952 -0.1120 -0.3531
 3811SOL    HW315011   5.361   5.266   5.024  0.2358 -0.2147  1.4557
 3811SOL    MW415012   5.394   5.186   5.028  0.7800 -0.0635  0.2403
 3812SOL     OW15013   0.424   5.107   0.759  0.3150 -0.2349 -0.2064
 3812SOL    HW215014   0.477   5.142   0.830 -0.0351 -1.0105  0.4423
 3812SOL    HW315015   0.487   5.066   0.700  0.6042  0.4018 -0.3541
 3812SOL    MW415016   0.439   5.106   0.760  0.3070 -0.2532 -0.1403
 3813SOL     OW15017   4.457   3.335   4.244  0.2206 -0.1935 -0.1934
 3813SOL    HW215018   4.368   3.355   4.272  0.4165  0.6417 -0.1407
 3813SOL    HW315019   4.482   3.409   4.188  1.3728  0.2933  0.9085
 3813SOL    MW415020   4.449   3.347   4.240  0.3985 -0.0191 -0.0411
 3814SOL     OW15021   3.987   1.481   0.518 -0.3278 -0.3592 -0.6069
 3814SOL    HW215022   3.965   1.560   0.567 -0.7458  0.1967 -1.6533
 3814SOL    HW315023   3.937   1.411   0.560  1.7886 -0.5875  1.8214
 3814SOL    MW415024   3.978   1.482   0.530 -0.1037 -0.3160 -0.4246
 3815SOL     OW15025   5.961   4.777   1.631  0.3239 -0.5116 -0.2487
 3815SOL    HW215026   6.021   4.836   1.677 -0.7778 -0.7426  1.5432
 3815SOL    HW315027   5.984   4.690   1.663 -0.7132 -0.6355  0.1777
 3815SOL    MW415028   5.972   4.773   1.641  0.0417 -0.5584  0.0440
 3816SOL     OW15029   2.184   2.552   6.335 -0.3743  0.2479 -0.0053
 3816SOL    HW215030   2.120   2.609   6.291 -0.9898  0.6837  1.4143
 3816SOL    HW315031   2.264   2.562   6.282 -0.7968  1.5419 -0.4563
 3816SOL    MW415032   2.186   2.561   6.322 -0.5113  0.4761  0.1225
 3817SOL     OW15033   0.190   0.819   0.868 -0.3287 -0.1236  0.2779
 3817SOL    HW215034   0.200   0.794   0.960  1.4405  2.1028  0.7850
 3817SOL    HW315035   0.261   0.774   0.823 -1.0302 -0.9951  0.0019
 3817SOL    MW415036   0.200   0.809   0.874 -0.1878  0.0551  0.3084
 3818SOL     OW15037   0.665   3.396   4.809  0.5602 -0.4635 -0.2994
 3818SOL    HW215038   0.589   3.439   4.770  0.6402 -0.5049 -0.5012
 3818SOL    HW315039   0.693   3.332   4.744  0.8330 -0.3720 -0.2769
 3818SOL    MW415040   0.659   3.393   4.795  0.6068 -0.4569 -0.3231
 3819SOL     OW15041   1.078   5.610   2.112 -0.0614 -0.3060  0.7649
 3819SOL    HW215042   1.018   5.550   2.068 -0.5580  0.7429 -0.0332
 3819SOL    HW315043   1.022   5.675   2.154  0.4804 -0.1272  1.2395
 3819SOL    MW415044   1.063   5.611   2.112 -0.0554 -0.1440  0.7222
 3820SOL     OW15045   2.197   4.778   5.573  0.5147 -0.3018  0.1534
 3820SOL    HW215046   2.249   4.821   5.505  1.0424  0.1424  0.8203
 3820SOL    HW315047   2.245   4.699   5.594  0.9988  0.1717  0.8587
 3820SOL    MW415048   2.210   4.773   5.567  0.6482 -0.1807  0.3344
 3821SOL     OW15049   5.924   3.861   3.485  0.3858  0.4089 -0.2968
 3821SOL    HW215050   5.934   3.942   3.535  0.1947  0.1117  0.2275
 3821SOL    HW315051   6.000   3.808   3.509  0.7531  0.6001 -0.9828
 3821SOL    MW415052   5.935   3.865   3.495  0.4091  0.3949 -0.3182
 3822SOL     OW15053   0.984   0.104   0.193  0.0626 -0.4585 -0.6100
 3822SOL    HW215054   1.052   0.151   0.145  0.2394 -0.1541 -0.0676
 3822SOL    HW315055   0.910   0.101   0.132  0.3188 -0.1666 -0.9405
 3822SOL    MW415056   0.983   0.110   0.179  0.1197 -0.3798 -0.5820
 3823SOL     OW15057   1.094   5.974   2.392 -1.1053 -0.0567 -0.0255
 3823SOL    HW215058   1.142   6.040   2.442 -0.7891 -0.0810 -0.2953
 3823SOL    HW315059   1.161   5.926   2.344 -1.5343  1.2826 -2.0832
 3823SOL    MW415060   1.109   5.976   2.393 -1.1202  0.1168 -0.3326
 3824SOL     OW15061   3.005   3.568   0.247  0.5576  0.4288  0.4430
 3824SOL    HW215062   3.045   3.531   0.168  0.9801 -0.4877  1.0613
 3824SOL    HW315063   3.058   3.645   0.267 -0.0481  1.1443 -0.6095
 3824SOL    MW415064   3.017   3.573   0.239  0.5334  0.4023  0.3857
 3825SOL     OW15065   6.171   1.006   1.387 -0.2578  0.1274  0.0943
 3825SOL    HW215066   6.233   1.072   1.418  0.5535 -0.1254 -0.9417
 3825SOL    HW315067   6.154   0.951   1.464 -0.2877  1.0322  0.7422
 3825SOL    MW415068   6.177   1.007   1.401 -0.1547  0.2134  0.0431
 3826SOL     OW15069   0.212   1.436   1.121  0.4522  0.4200 -0.3803
 3826SOL    HW215070   0.139   1.412   1.063  0.5927  2.2391 -1.3889
 3826SOL    HW315071   0.286   1.386   1.087 -0.1497 -0.8903  0.1955
 3826SOL    MW415072   0.212   1.426   1.109  0.3913  0.4872 -0.4374
 3827SOL     OW15073   3.813   4.388   5.170  0.5876  0.1404 -0.2891
 3827SOL    HW215074   3.763   4.443   5.111  0.6325  0.1973 -0.2745
 3827SOL    HW315075   3.747   4.340   5.220  0.5508  0.0270 -0.4462
 3827SOL    MW415076   3.798   4.389   5.169  0.5887  0.1329 -0.3079
 3828SOL     OW15077   2.300   3.997   0.616  0.6590 -0.3128  0.3051
 3828SOL    HW215078   2.372   3.991   0.553  1.7788  0.0889  1.4934
 3828SOL    HW315079   2.227   3.952   0.573  0.9905  0.9780 -1.7765
 3828SOL    MW415080   2.300   3.990   0.602  0.8504 -0.0895  0.1872
 3829SOL     OW15081   0.655   5.495   5.635  0.0721  0.4024  0.3052
 3829SOL    HW215082   0.602   5.557   5.585 -0.2302  0.3237  0.5221
 3829SOL    HW315083   0.621   5.409   5.610  1.0819  0.2618 -0.6786
 3829SOL    MW415084   0.643   5.492   5.625  0.1655  0.3734  0.2040
 3830SOL     OW15085   5.604   4.760   1.019 -0.0840  0.4518 -0.3594
 3830SOL    HW215086   5.585   4.684   1.073  0.2556  1.1439  0.7642
 3830SOL    HW315087   5.697   4.753   0.999 -0.0804  0.5031 -0.3603
 3830SOL    MW415088   5.614   4.749   1.023 -0.0387  0.5499 -0.2113
 3831SOL     OW15089   2.285   0.341   0.883 -0.3723  0.3531  0.0803
 3831SOL    HW215090   2.192   0.322   0.895 -0.4312 -0.0766 -0.8990
 3831SOL    HW315091   2.328   0.255   0.884 -0.0685  0.4995 -0.0402
 3831SOL    MW415092   2.279   0.327   0.884 -0.3400  0.3158 -0.0648
 3832SOL     OW15093   4.749   4.598   1.513  0.1595  0.7614 -0.6575
 3832SOL    HW215094   4.805   4.572   1.440 -1.5668  1.1376 -2.1709
 3832SOL    HW315095   4.664   4.616   1.473 -1.8309 -2.1344  1.7812
 3832SOL    MW415096   4.745   4.597   1.498 -0.3309  0.4290 -0.5354
 3833SOL     OW15097   4.373   4.972   2.619  0.3253 -0.2415 -0.0945
 3833SOL    HW215098   4.428   5.048   2.602 -0.2770  0.7235  2.0347
 3833SOL    HW315099   4.289   5.009   2.647 -0.0560 -1.6910  0.7515
 3833SOL    MW415100   4.369   4.987   2.620  0.1955 -0.3054  0.2980
 3834SOL     OW15101   3.742   0.700   3.613  0.2414  0.2129 -0.7568
 3834SOL    HW215102   3.665   0.656   3.647 -0.2359  1.6009  0.0348
 3834SOL    HW315103   3.734   0.692   3.518 -0.9150  0.3964 -0.6837
 3834SOL    MW415104   3.731   0.693   3.605  0.0259  0.4202 -0.6427
 3835SOL     OW15105   2.439   1.866   4.536  0.7344 -0.5696  0.5351
 3835SOL    HW215106   2.441   1.770   4.528  2.0576 -0.5186  0.0333
 3835SOL    HW315107   2.531   1.892   4.526  0.1182  0.9596 -1.8222
 3835SOL    MW415108   2.452   1.857   4.534  0.8277 -0.3611  0.1579
 3836SOL     OW15109   5.069   0.277   4.636  0.9418  0.4334 -0.4622
 3836SOL    HW215110   5.121   0.199   4.615  0.1015 -0.8206  1.7804
 3836SOL    HW315111   5.103   0.307   4.720 -1.2719  0.0917  0.6421
 3836SOL    MW415112   5.080   0.270   4.644  0.5388  0.2228 -0.0206
 3837SOL     OW15113   6.198   4.666   6.083  0.1529 -0.4347 -0.1128
 3837SOL    HW215114   6.112   4.631   6.059  1.1051 -2.8408 -0.3481
 3837SOL    HW315115   6.212   4.635   6.172  0.2485  1.0708  0.4136
 3837SOL    MW415116   6.189   4.657   6.091  0.2911 -0.5535 -0.0744
 3838SOL     OW15117   4.135   1.106   1.247 -0.0043  0.1488 -0.3032
 3838SOL    HW215118   4.178   1.186   1.217 -0.4607  1.3848  2.0318
 3838SOL    HW315119   4.206   1.043   1.259  0.5730  0.7183 -0.6482
 3838SOL    MW415120   4.150   1.108   1.245  0.0117  0.3870 -0.0406
 3839SOL     OW15121   2.883   0.890   2.422  0.5424 -0.1206  0.0673
 3839SOL    HW215122   2.948   0.931   2.365  1.0168 -0.6178  0.2413
 3839SOL    HW315123   2.905   0.797   2.420  0.3302 -0.1902  0.7585
 3839SOL    MW415124   2.894   0.883   2.415  0.5770 -0.1953  0.1815
 3840SOL     OW15125   1.015   3.794   2.802  0.7596  0.2505 -0.1870
 3840SOL    HW215126   1.083   3.834   2.856  1.0905 -1.2356  0.5432
 3840SOL    HW315127   0.977   3.726   2.857 -0.3794  0.1144 -1.0820
 3840SOL    MW415128   1.019   3.790   2.816  0.6530  0.0365 -0.2088
 3841SOL     OW15129   2.845   0.067   1.630  0.0197 -0.0974  0.0385
 3841SOL    HW215130   2.901   0.058   1.708 -1.0695 -0.3192  0.8230
 3841SOL    HW315131   2.895   0.026   1.560  0.4153 -1.2139  0.9432
 3841SOL    MW415132   2.859   0.060   1.631 -0.0718 -0.2740  0.2614
 3842SOL     OW15133   2.059   3.751   5.676 -0.3959  0.3964 -0.7876
 3842SOL    HW215134   2.009   3.671   5.694  0.6497 -0.9019 -3.1842
 3842SOL    HW315135   2.004   3.821   5.710 -2.2844 -1.2074 -0.3211
 3842SOL    MW415136   2.045   3.750   5.683 -0.5071  0.0135 -1.0422
 3843SOL     OW15137   3.823   0.725   5.891 -0.4173  0.6909  0.0433
 3843SOL    HW215138   3.888   0.761   5.951 -0.6980  2.4232 -0.6350
 3843SOL    HW315139   3.739   0.741   5.935 -0.4465 -2.5762  1.4638
 3843SOL    MW415140   3.820   0.732   5.905 -0.4582  0.4884  0.1412
 3844SOL     OW15141   2.662   0.441   6.072  0.2338  0.5659 -0.2248
 3844SOL    HW215142   2.679   0.353   6.106 -2.4241  0.1490  0.2595
 3844SOL    HW315143   2.568   0.455   6.087  0.0801  2.5731 -2.4094
 3844SOL    MW415144   2.651   0.431   6.079 -0.1371  0.7757 -0.4491
 3845SOL     OW15145   5.973   4.689   0.030 -0.5314 -0.2722  0.3255
 3845SOL    HW215146   5.970   4.720   0.120  0.7502  0.6429  0.0892
 3845SOL    HW315147   5.887   4.712  -0.007 -0.4670  0.8619  0.8496
 3845SOL    MW415148   5.961   4.696   0.037 -0.3538 -0.0018  0.3635
 3846SOL     OW15149   4.815   5.986   4.915  0.3106  0.0448  0.2271
 3846SOL    HW215150   4.761   6.065   4.918 -1.9258 -1.4137  1.2657
 3846SOL    HW315151   4.877   5.997   4.987 -0.0936  0.7760  0.4747
 3846SOL    MW415152   4.816   5.997   4.925 -0.0378 -0.0511  0.3968
 3847SOL     OW15153   3.138   0.431   0.255  0.1363  0.8823 -0.1831
 3847SOL    HW215154   3.060   0.398   0.298 -0.2088  0.8473 -0.8157
 3847SOL    HW315155   3.146   0.521   0.285  0.6205  0.4828  0.9167
 3847SOL    MW415156   3.129   0.439   0.264  0.1546  0.8250 -0.1215
 3848SOL     OW15157   0.883   2.547   5.374  0.4314  0.2658 -0.3971
 3848SOL    HW215158   0.834   2.572   5.295  0.5357  0.9322 -0.2536
 3848SOL    HW315159   0.830   2.477   5.413  0.2741  0.0674 -0.9481
 3848SOL    MW415160   0.869   2.541   5.368  0.4244  0.3275 -0.4509
 3849SOL     OW15161   1.858   2.138   4.154 -0.0298 -0.0540 -0.0106
 3849SOL    HW215162   1.763   2.135   4.150  0.0112 -0.1756 -2.9607
 3849SOL    HW315163   1.886   2.049   4.132  0.7301  0.5438 -1.6300
 3849SOL    MW415164   1.849   2.126   4.150  0.0759  0.0088 -0.6135
 3850SOL     OW15165   1.831   2.494   2.303 -0.0050  0.4971  0.1796
 3850SOL    HW215166   1.811   2.578   2.344 -2.0440  0.3052 -0.3058
 3850SOL    HW315167   1.843   2.515   2.210 -0.7920  0.2212  0.0131
 3850SOL    MW415168   1.830   2.508   2.296 -0.3778  0.4354  0.0936
 3851SOL     OW15169   6.383   1.535   6.416  0.9129  0.4725 -0.0640
 3851SOL    HW215170   6.383   1.610   6.357 -2.7199 -0.8951 -2.0961
 3851SOL    HW315171   6.315   1.554   6.480 -0.7122 -1.3592 -1.1555
 3851SOL    MW415172   6.374   1.547   6.417  0.2192  0.0504 -0.4761
 3852SOL     OW15173   1.649   5.750   2.007 -0.0816  0.2694  0.3893
 3852SOL    HW215174   1.711   5.821   2.024  0.4746  0.0382 -0.6096
 3852SOL    HW315175   1.565   5.793   1.996  0.4570  0.9377 -1.4913
 3852SOL    MW415176   1.646   5.765   2.008  0.0629  0.3270  0.0094
 3853SOL     OW15177   2.879   2.257   6.198 -0.2073 -0.2303  0.0855
 3853SOL    HW215178   2.932   2.279   6.121  0.8178  1.4965  1.2108
 3853SOL    HW315179   2.815   2.328   6.204  0.2874  0.1410  1.2844
 3853SOL    MW415180   2.878   2.269   6.189 -0.0068  0.0465  0.3921
 3854SOL     OW15181   3.978   4.843   1.681  0.1796 -0.0340 -0.2011
 3854SOL    HW215182   3.961   4.914   1.742  1.8400 -0.3114  0.6383
 3854SOL    HW315183   4.021   4.885   1.607  0.3593 -0.0352 -0.0978
 3854SOL    MW415184   3.981   4.858   1.679  0.4224 -0.0708 -0.0767
 3855SOL     OW15185   0.724   2.660   1.753 -0.2280  0.6591 -0.0621
 3855SOL    HW215186   0.675   2.608   1.816  0.1667 -0.5784 -0.7274
 3855SOL    HW315187   0.660   2.684   1.686 -0.2942  0.5554 -0.0360
 3855SOL    MW415188   0.709   2.656   1.752 -0.1846  0.4822 -0.1465
 3856SOL     OW15189   3.069   0.391   6.404 -0.1201 -0.2994  0.2019
 3856SOL    HW215190   3.066   0.420   6.495 -0.4082  0.5087 -0.0571
 3856SOL    HW315191   2.979   0.366   6.384 -0.1348 -0.0937  0.0143
 3856SOL    MW415192   3.057   0.392   6.413 -0.1601 -0.1656  0.1429
 3857SOL     OW15193   5.620   6.374   1.783 -0.1291 -0.3013 -0.1926
 3857SOL    HW215194   5.643   6.364   1.875 -0.9260 -0.1117  0.0383
 3857SOL    HW315195   5.586   6.289   1.757  1.9969 -0.9811 -0.8978
 3857SOL    MW415196   5.618   6.362   1.791  0.0463 -0.3660 -0.2552
 3858SOL     OW15197   1.777   4.031   0.545 -0.2068 -0.1166 -0.4497
 3858SOL    HW215198   1.705   4.041   0.607  0.5023 -0.2044  0.4058
 3858SOL    HW315199   1.801   3.939   0.550  1.3259  0.3049  0.8608
 3858SOL    MW415200   1.771   4.020   0.554  0.0890 -0.0726 -0.1639
 3859SOL     OW15201   4.254   3.151   3.602 -0.8630 -1.1018 -0.7431
 3859SOL    HW215202   4.273   3.238   3.637 -1.0609 -1.6760  0.8922
 3859SOL    HW315203   4.159   3.144   3.604 -0.7979 -2.0065  0.9225
 3859SOL    MW415204   4.244   3.161   3.607 -0.8805 -1.2969 -0.3076
 3860SOL     OW15205   5.160   5.414   0.308 -0.1112  0.4608 -0.1689
 3860SOL    HW215206   5.181   5.360   0.384 -1.5784  0.6843  0.4296
 3860SOL    HW315207   5.110   5.356   0.250  0.5184  0.4518 -0.7108
 3860SOL    MW415208   5.156   5.399   0.310 -0.2217  0.4891 -0.1614
 3861SOL     OW15209   2.377   5.982   4.684 -0.4744  1.0416  0.6465
 3861SOL    HW215210   2.380   6.001   4.591  0.3121  1.4549  0.7460
 3861SOL    HW315211   2.439   6.044   4.723  0.3625 -0.1397  1.2550
 3861SOL    MW415212   2.386   5.993   4.677 -0.2602  0.9403  0.7399
 3862SOL     OW15213   0.044   3.771   1.560  0.1569 -0.1060  0.2895
 3862SOL    HW215214  -0.048   3.746   1.566 -0.0758  0.9528  1.8279
 3862SOL    HW315215   0.042   3.860   1.525  0.4520  0.5236  1.7758
 3862SOL    MW415216   0.032   3.780   1.556  0.1651  0.1167  0.6886
 3863SOL     OW15217   6.217   4.269   4.302 -0.0479 -0.3807  0.2288
 3863SOL    HW215218   6.212   4.260   4.207  0.6136  0.0290  0.1487
 3863SOL    HW315219   6.130   4.243   4.333 -0.0201 -1.2894 -0.4180
 3863SOL    MW415220   6.205   4.264   4.293  0.0431 -0.4466  0.1329
 3864SOL     OW15221   0.441   4.385   6.124 -0.6461 -0.2913 -0.6957
 3864SOL    HW215222   0.418   4.476   6.142 -2.9809 -0.7443 -1.0160
 3864SOL    HW315223   0.536   4.386   6.109 -0.6496  2.0953 -0.9037
 3864SOL    MW415224   0.451   4.397   6.125 -0.9546 -0.0362 -0.7654
 3865SOL     OW15225   3.248   1.526   3.502 -0.2861 -1.3452  0.9386
 3865SOL    HW215226   3.307   1.502   3.430  1.6771 -0.9672  2.3591
 3865SOL    HW315227   3.227   1.617   3.485 -1.0640 -1.6697  0.0509
 3865SOL    MW415228   3.253   1.534   3.490 -0.1297 -1.3382  1.0089
 3866SOL     OW15229   2.271   1.392   5.587  0.0815  0.0806 -0.2090
 3866SOL    HW215230   2.310   1.360   5.668 -0.7115 -0.6226 -0.0975
 3866SOL    HW315231   2.198   1.448   5.615 -0.2250 -0.2031 -0.4376
 3866SOL    MW415232   2.267   1.395   5.601 -0.0636 -0.0496 -0.2245
 3867SOL     OW15233   2.379   0.580   5.483 -0.1438 -0.2213 -0.1233
 3867SOL    HW215234   2.422   0.554   5.402 -0.1733  1.0785 -0.5857
 3867SOL    HW315235   2.368   0.675   5.475 -0.7655 -0.1637  1.1072
 3867SOL    MW415236   2.383   0.589   5.471 -0.2297 -0.0422 -0.0219
 3868SOL     OW15237   4.893   3.139   5.078  0.2363  0.1979 -0.1159
 3868SOL    HW215238   4.839   3.139   5.158  2.5887  1.5210  1.6209
 3868SOL    HW315239   4.914   3.047   5.063  0.0713 -0.0519  1.0524
 3868SOL    MW415240   4.888   3.127   5.087  0.5249  0.3395  0.2674
 3869SOL     OW15241   0.798   2.059   1.241  0.7727 -0.3903 -0.2038
 3869SOL    HW215242   0.852   2.014   1.175 -0.5053 -1.0351 -0.8477
 3869SOL    HW315243   0.846   2.048   1.323  0.9718 -2.1244 -0.5161
 3869SOL    MW415244   0.812   2.051   1.243  0.6304 -0.7041 -0.3299
 3870SOL     OW15245   1.224   5.627   0.813  0.3301 -0.1781 -0.1711
 3870SOL    HW215246   1.260   5.674   0.888  2.4596  0.8920 -1.7584
 3870SOL    HW315247   1.170   5.692   0.768  0.5055 -0.2722 -0.5215
 3870SOL    MW415248   1.221   5.641   0.817  0.6342 -0.0493 -0.4268
 3871SOL     OW15249   3.717   3.137   1.382 -0.4140  0.1820 -0.0746
 3871SOL    HW215250   3.743   3.205   1.445 -0.5273 -0.2409  0.4389
 3871SOL    HW315251   3.692   3.063   1.437 -1.0661  0.0015 -0.6087
 3871SOL    MW415252   3.717   3.136   1.398 -0.5150  0.1024 -0.0773
 3872SOL     OW15253   2.597   1.447   2.470  0.0303  0.3219 -0.2287
 3872SOL    HW215254   2.549   1.505   2.529  0.3211 -0.0687  0.4035
 3872SOL    HW315255   2.533   1.381   2.443  0.1470 -0.0730  0.4414
 3872SOL    MW415256   2.582   1.446   2.474  0.0841  0.2183 -0.0569
 3873SOL     OW15257   2.796   3.778   1.083 -0.5895  1.0290  0.2094
 3873SOL    HW215258   2.797   3.731   1.000  1.4168  0.0889  0.6885
 3873SOL    HW315259   2.731   3.847   1.072  1.3389  2.5442 -3.0661
 3873SOL    MW415260   2.788   3.781   1.071 -0.0704  1.1049 -0.1596
 3874SOL     OW15261   0.224   2.262   4.353 -0.7759 -0.2796  0.1989
 3874SOL    HW215262   0.294   2.206   4.388 -1.8739 -0.8515  1.5543
 3874SOL    HW315263   0.265   2.307   4.279  0.9020 -0.9103  0.6900
 3874SOL    MW415264   0.239   2.260   4.348 -0.6994 -0.4383  0.4425
 3875SOL     OW15265   6.020   0.096   0.111 -0.0258 -0.2892  0.3356
 3875SOL    HW215266   5.952   0.032   0.127  0.3015 -1.0203 -1.0829
 3875SOL    HW315267   6.084   0.082   0.181 -0.7738 -0.3343  1.0224
 3875SOL    MW415268   6.020   0.086   0.123 -0.0813 -0.3916  0.2391
 3876SOL     OW15269   5.256   2.280   1.912  0.0624  0.4122  0.7329
 3876SOL    HW215270   5.325   2.221   1.883 -1.1371 -0.9256  0.4743
 3876SOL    HW315271   5.243   2.258   2.004 -0.1869  0.4828  0.7156
 3876SOL    MW415272   5.263   2.270   1.921 -0.1288  0.2450  0.6965
 3877SOL     OW15273   5.254   3.740   3.680  0.0418  0.5792 -0.0315
 3877SOL    HW215274   5.164   3.709   3.668 -0.2455  1.3329  0.1282
 3877SOL    HW315275   5.250   3.798   3.756  0.7152  0.4265  0.1303
 3877SOL    MW415276   5.242   3.744   3.688  0.0927  0.6585  0.0109
 3878SOL     OW15277   5.570   1.265   1.231 -0.2261 -0.0760  0.3837
 3878SOL    HW215278   5.551   1.273   1.137 -1.6638 -1.2974  0.5327
 3878SOL    HW315279   5.535   1.345   1.270  2.7206  1.7341 -0.3693
 3878SOL    MW415280   5.563   1.276   1.224 -0.0270  0.0017  0.3040
 3879SOL     OW15281   6.341   6.331   3.373 -0.0618 -0.8089 -0.4049
 3879SOL    HW215282   6.435   6.328   3.390 -0.0328 -2.1018 -0.6982
 3879SOL    HW315283   6.329   6.409   3.318  0.4211  0.9772  1.8826
 3879SOL    MW415284   6.352   6.341   3.368  0.0057 -0.7438 -0.1418
 3880SOL     OW15285   3.336   1.269   3.213 -0.3982 -0.1362 -0.2007
 3880SOL    HW215286   3.420   1.229   3.187 -1.0239 -0.3529 -2.0194
 3880SOL    HW315287   3.357   1.362   3.226  0.4786 -0.5037  1.2127
 3880SOL    MW415288   3.350   1.276   3.211 -0.3651 -0.2133 -0.2542
 3881SOL     OW15289   1.745   1.980   3.731  0.1327  0.3910 -0.3213
 3881SOL    HW215290   1.690   2.056   3.712  0.4823  0.2639 -1.9414
 3881SOL    HW315291   1.705   1.941   3.809 -0.6140  1.6779 -0.0331
 3881SOL    MW415292   1.732   1.985   3.739  0.0803  0.5441 -0.4970
 3882SOL     OW15293   5.592   0.140   4.362  0.4449  0.4166  0.3132
 3882SOL    HW215294   5.534   0.125   4.287 -0.6502  0.6827  1.0957
 3882SOL    HW315295   5.622   0.230   4.351  1.7979 -0.1180 -0.7990
 3882SOL    MW415296   5.589   0.150   4.351  0.4789  0.3812  0.2697
 3883SOL     OW15297   4.017   2.780   3.097 -0.2677 -0.3447  0.8592
 3883SOL    HW215298   4.033   2.716   3.166  1.1191  1.2915  2.1423
 3883SOL    HW315299   3.959   2.845   3.137 -0.1827  0.1538  0.1898
 3883SOL    MW415300   4.011   2.780   3.111 -0.0735 -0.0630  0.9402
 3884SOL     OW15301   5.628   0.215   2.634  0.0978 -0.7219 -0.2219
 3884SOL    HW215302   5.598   0.174   2.715  0.3154  0.6084  0.5558
 3884SOL    HW315303   5.548   0.237   2.587 -0.0570 -0.5517  0.1166
 3884SOL    MW415304   5.614   0.212   2.639  0.1061 -0.5239 -0.0747
 3885SOL     OW15305   5.599   4.295   2.341  0.1150  0.2901  0.5073
 3885SOL    HW215306   5.527   4.235   2.324  0.9798 -0.4565 -0.6813
 3885SOL    HW315307   5.650   4.253   2.411 -0.1087  0.4014  0.7415
 3885SOL    MW415308   5.596   4.282   2.348  0.1996  0.2063  0.3814
 3886SOL     OW15309   3.504   5.747   2.229 -0.1412 -0.1292 -0.0937
 3886SOL    HW215310   3.461   5.809   2.171  0.7312  0.4851 -0.1094
 3886SOL    HW315311   3.434   5.713   2.285 -0.6875  0.6011 -0.3296
 3886SOL    MW415312   3.489   5.750   2.229 -0.0982  0.0482 -0.1269
 3887SOL     OW15313   0.432   3.147   4.245  0.3678 -0.1479 -0.0955
 3887SOL    HW215314   0.422   3.056   4.220 -0.8710 -0.2401  0.6477
 3887SOL    HW315315   0.353   3.168   4.294  1.6424  0.6453  1.7643
 3887SOL    MW415316   0.421   3.138   4.248  0.3725 -0.0554  0.2479
 3888SOL     OW15317   0.259   4.456   2.765  0.0840 -0.8625 -0.3081
 3888SOL    HW215318   0.222   4.370   2.742 -0.3920 -0.7699  0.0907
 3888SOL    HW315319   0.274   4.499   2.681 -0.7952 -0.8749 -0.4865
 3888SOL    MW415320   0.256   4.450   2.751 -0.0948 -0.8519 -0.2790
 3889SOL     OW15321   3.939   2.578   0.845  0.4343  0.5775 -0.2069
 3889SOL    HW215322   3.897   2.605   0.926 -0.3753 -4.5172  1.4124
 3889SOL    HW315323   3.874   2.595   0.777 -0.6848  0.8799  0.9043
 3889SOL    MW415324   3.925   2.584   0.846  0.1798 -0.0548  0.1534
 3890SOL     OW15325   3.567   0.079   2.351 -0.1293 -0.2771 -0.2213
 3890SOL    HW215326   3.632   0.085   2.421 -1.5166  0.5989  1.0462
 3890SOL    HW315327   3.607   0.020   2.287  2.0434  0.4914  0.3248
 3890SOL    MW415328   3.581   0.072   2.352 -0.0257 -0.0601  0.0180
 3891SOL     OW15329   5.138   5.399   1.188 -0.1664 -0.0124  0.1577
 3891SOL    HW215330   5.108   5.432   1.273 -0.5422  1.3430 -0.4644
 3891SOL    HW315331   5.103   5.462   1.125  1.3414 -0.1653 -0.8764
 3891SOL    MW415332   5.129   5.412   1.191 -0.0171  0.1463 -0.0608
 3892SOL     OW15333   1.186   1.703   2.317 -0.1313  0.1162 -0.4194
 3892SOL    HW215334   1.223   1.783   2.355  0.4096 -0.1902 -0.2946
 3892SOL    HW315335   1.130   1.734   2.245 -2.5380  0.8394  1.6305
 3892SOL    MW415336   1.184   1.718   2.312 -0.3774  0.1712 -0.1325
 3893SOL     OW15337   1.013   1.122   2.328 -1.0178  0.2558 -0.2065
 3893SOL    HW215338   0.918   1.117   2.316 -1.2233 -2.0475  1.6966
 3893SOL    HW315339   1.025   1.165   2.412 -0.3423  0.9365 -0.6413
 3893SOL    MW415340   1.002   1.127   2.337 -0.9558  0.0417 -0.0128
 3894SOL     OW15341   0.519   5.259   2.514 -0.5028 -0.2158 -0.0439
 3894SOL    HW215342   0.518   5.264   2.609  1.6173 -1.9492  0.1412
 3894SOL    HW315343   0.486   5.344   2.485 -0.0198  0.8137  2.2422
 3894SOL    MW415344   0.515   5.271   2.522 -0.1594 -0.3087  0.2822
 3895SOL     OW15345   2.913   6.001   5.476 -0.1860  0.5388 -0.0718
 3895SOL    HW215346   2.965   5.966   5.548  0.2887 -0.0552 -0.6825
 3895SOL    HW315347   2.953   6.085   5.456 -0.5320  0.8616  0.5719
 3895SOL    MW415348   2.925   6.007   5.483 -0.1690  0.5030 -0.0674
 3896SOL     OW15349   1.931   2.766   5.506  0.0377 -0.3161 -0.0902
 3896SOL    HW215350   1.972   2.797   5.426  0.3286  0.3789  0.3226
 3896SOL    HW315351   1.995   2.705   5.544  0.5985  0.5624  0.4153
 3896SOL    MW415352   1.945   2.762   5.501  0.1501 -0.1085  0.0310
 3897SOL     OW15353   0.284   4.453   1.849  0.1501 -0.2906  0.4366
 3897SOL    HW215354   0.343   4.520   1.815 -2.0007  1.4141 -0.2050
 3897SOL    HW315355   0.335   4.372   1.846  2.0059  0.8442 -1.2992
 3897SOL    MW415356   0.298   4.451   1.844  0.1111  0.0841  0.1229
 3898SOL     OW15357   0.222   3.665   5.224 -0.5363  0.3440  0.3245
 3898SOL    HW215358   0.209   3.677   5.130 -0.5038  0.0995  0.2862
 3898SOL    HW315359   0.316   3.676   5.236  0.0916 -3.0344 -0.2450
 3898SOL    MW415360   0.233   3.668   5.213 -0.4492 -0.1340  0.2443
 3899SOL     OW15361   5.261   1.204   5.642  0.2556  0.7795  0.5551
 3899SOL    HW215362   5.232   1.213   5.733  1.3674 -1.3614  1.1792
 3899SOL    HW315363   5.347   1.247   5.639 -0.1514  1.6017  0.2693
 3899SOL    MW415364   5.268   1.211   5.654  0.3486  0.6055  0.5998
 3900SOL     OW15365   5.915   3.438   1.093  0.1256  0.0450  0.2622
 3900SOL    HW215366   5.954   3.447   1.007  1.6081  1.4703  1.0164
 3900SOL    HW315367   5.914   3.527   1.129 -2.0421 -0.2240  1.0860
 3900SOL    MW415368   5.920   3.451   1.087  0.0352  0.1976  0.4704
 3901SOL     OW15369   2.310   3.790   6.003 -0.5961 -0.0368 -0.0848
 3901SOL    HW215370   2.287   3.750   5.919  2.3111 -1.1685 -0.4550
 3901SOL    HW315371   2.310   3.717   6.065  1.1496  0.0064  0.0131
 3901SOL    MW415372   2.307   3.775   6.000  0.0178 -0.1804 -0.1208
 3902SOL     OW15373   1.450   1.615   3.276 -0.7704 -0.3013 -0.3821
 3902SOL    HW215374   1.361   1.598   3.246 -0.4699 -0.1984 -1.3695
 3902SOL    HW315375   1.480   1.689   3.223 -1.7490  3.0197  3.2387
 3902SOL    MW415376   1.442   1.622   3.265 -0.8599  0.1505 -0.0347
 3903SOL     OW15377   1.133   2.514   3.569 -0.0693 -0.1651 -0.2703
 3903SOL    HW215378   1.175   2.588   3.524 -1.2378  1.3618  1.0347
 3903SOL    HW315379   1.206   2.457   3.594  1.1037  1.5721  0.4849
 3903SOL    MW415380   1.148   2.516   3.566 -0.0687  0.2656  0.0015
 3904SOL     OW15381   4.555   5.661   0.885 -0.2231  0.8242 -0.1976
 3904SOL    HW215382   4.533   5.716   0.961 -1.3789 -0.3329  0.3325
 3904SOL    HW315383   4.648   5.640   0.897 -0.0959  1.5961  0.2636
 3904SOL    MW415384   4.565   5.666   0.897 -0.3588  0.7734 -0.0668
 3905SOL     OW15385   5.604   4.189   5.056 -0.4173 -0.3454  0.3520
 3905SOL    HW215386   5.639   4.103   5.075 -0.7476 -0.8617 -1.2177
 3905SOL    HW315387   5.681   4.246   5.052 -0.1544 -0.6542  0.9048
 3905SOL    MW415388   5.619   4.185   5.058 -0.4262 -0.4543  0.2178
 3906SOL     OW15389   0.626   1.342   3.296  0.4750  0.2888  0.3715
 3906SOL    HW215390   0.567   1.274   3.264  0.4611 -0.0237  1.0414
 3906SOL    HW315391   0.661   1.307   3.378  3.3805 -0.5495 -1.1058
 3906SOL    MW415392   0.622   1.329   3.303  0.8565  0.1370  0.2650
 3907SOL     OW15393   4.795   2.721   1.884  0.0819 -0.1386 -0.6159
 3907SOL    HW215394   4.829   2.641   1.924 -0.2004 -0.1203 -0.3428
 3907SOL    HW315395   4.872   2.778   1.876  0.6442 -1.0469 -2.3379
 3907SOL    MW415396   4.810   2.718   1.888  0.1188 -0.2560 -0.8071
 3908SOL     OW15397   4.198   3.433   1.438  0.5909 -0.8304 -0.3403
 3908SOL    HW215398   4.259   3.378   1.486  1.8586 -0.9888 -2.0302
 3908SOL    HW315399   4.113   3.416   1.478  1.2979 -2.3212  0.6031
 3908SOL    MW415400   4.195   3.424   1.450  0.8514 -1.0480 -0.4388
 3909SOL     OW15401   4.767   3.796   1.141  0.1686 -0.3153  0.2381
 3909SOL    HW215402   4.700   3.824   1.204  0.7788 -0.0201  0.7754
 3909SOL    HW315403   4.850   3.818   1.184  0.5996  1.8804 -1.5840
 3909SOL    MW415404   4.769   3.802   1.155  0.3060  0.0134  0.0686
 3910SOL     OW15405   3.029   5.625   5.573 -0.0065  0.4252 -0.3110
 3910SOL    HW215406   2.993   5.669   5.649 -0.8923 -0.6464 -0.0834
 3910SOL    HW315407   3.118   5.659   5.565 -0.3462  1.5295  0.4010
 3910SOL    MW415408   3.036   5.635   5.582 -0.1682  0.4295 -0.1870
 3911SOL     OW15409   4.420   5.173   5.196 -0.0626 -0.1349 -0.0092
 3911SOL    HW215410   4.511   5.158   5.221 -0.3499 -0.9590  0.5707
 3911SOL    HW315411   4.421   5.259   5.153  0.7215  0.5781  1.3758
 3911SOL    MW415412   4.432   5.182   5.193  0.0030 -0.1495  0.2500
 3912SOL     OW15413   0.077   1.757   5.517 -0.2472 -0.2742 -0.1200
 3912SOL    HW215414   0.146   1.735   5.455  0.9546 -0.2499  1.1773
 3912SOL    HW315415   0.106   1.720   5.600 -1.9567 -0.5435  0.3975
 3912SOL    MW415416   0.090   1.749   5.520 -0.3142 -0.3065  0.1195
 3913SOL     OW15417   1.267   2.892   2.555  0.4817 -0.0930  0.4920
 3913SOL    HW215418   1.266   2.906   2.460  0.0755 -1.5025  0.2584
 3913SOL    HW315419   1.285   2.978   2.592  0.9547  0.4282 -0.8745
 3913SOL    MW415420   1.269   2.905   2.547  0.4905 -0.2102  0.2809
 3914SOL     OW15421   0.088   5.814   1.984 -0.7288 -0.9547  0.2738
 3914SOL    HW215422   0.092   5.910   1.985 -1.1752 -0.8600 -1.8293
 3914SOL    HW315423   0.050   5.791   2.069 -0.2084  0.6880  0.9967
 3914SOL    MW415424   0.083   5.824   1.996 -0.7190 -0.7255  0.0917
 3915SOL     OW15425   3.092   0.840   1.201  0.8982 -0.5290  0.6006
 3915SOL    HW215426   3.021   0.781   1.225  0.4268  0.1268  0.8399
 3915SOL    HW315427   3.049   0.921   1.175  1.5217 -0.4091 -0.0979
 3915SOL    MW415428   3.077   0.843   1.201  0.9182 -0.4267  0.5400
 3916SOL     OW15429   1.998   4.351   0.128 -0.4044  0.6600  0.0515
 3916SOL    HW215430   1.973   4.305   0.208 -0.4874 -1.4533 -1.1475
 3916SOL    HW315431   1.922   4.343   0.071  0.8799 -0.9151 -1.5212
 3916SOL    MW415432   1.985   4.344   0.131 -0.2459  0.1733 -0.3142
 3917SOL     OW15433   1.612   1.400   0.530 -0.3122 -0.9857  0.3207
 3917SOL    HW215434   1.619   1.305   0.522  0.8561 -0.8446 -0.7938
 3917SOL    HW315435   1.694   1.432   0.493 -0.1038  0.4209  1.8915
 3917SOL    MW415436   1.624   1.392   0.524 -0.1306 -0.7815  0.3809
 3918SOL     OW15437   5.236   3.837   2.611  0.0314 -0.2381 -0.3773
 3918SOL    HW215438   5.203   3.864   2.697  0.3190  0.2617 -0.4193
 3918SOL    HW315439   5.236   3.741   2.614 -0.2509 -0.2277  0.0667
 3918SOL    MW415440   5.232   3.828   2.623  0.0321 -0.1708 -0.3243
 3919SOL     OW15441   6.153   5.195   3.318  0.0831 -0.2393 -0.2290
 3919SOL    HW215442   6.242   5.196   3.283  0.8298 -2.0079  1.4718
 3919SOL    HW315443   6.124   5.286   3.310  2.3552  0.5773 -0.0596
 3919SOL    MW415444   6.161   5.207   3.312  0.4814 -0.3649  0.0177
 3920SOL     OW15445   0.900   3.965   5.977  0.5328  0.3276 -0.0954
 3920SOL    HW215446   0.831   3.910   5.939 -0.3186 -0.6941  2.6352
 3920SOL    HW315447   0.886   4.051   5.939 -1.3675 -0.2041 -0.7285
 3920SOL    MW415448   0.889   3.969   5.967  0.1697  0.1227  0.1813
 3921SOL     OW15449   6.354   0.811   3.747 -0.1760 -0.0271 -0.8180
 3921SOL    HW215450   6.302   0.821   3.827  1.0986 -1.6311  0.2728
 3921SOL    HW315451   6.339   0.721   3.720  2.5099 -0.7763 -0.0644
 3921SOL    MW415452   6.345   0.801   3.754  0.3465 -0.3376 -0.5746
 3922SOL     OW15453   0.832   0.141   1.915  0.3056 -0.2452 -0.0395
 3922SOL    HW215454   0.848   0.222   1.963 -1.0804  0.3591 -0.5338
 3922SOL    HW315455   0.746   0.153   1.875  1.7038 -0.2851 -3.4548
 3922SOL    MW415456   0.823   0.153   1.916  0.3072 -0.1707 -0.5554
 3923SOL     OW15457   0.860   2.414   1.040  0.0564  0.3388  0.2255
 3923SOL    HW215458   0.820   2.479   0.983  0.5600  1.4894  1.1311
 3923SOL    HW315459   0.786   2.373   1.085 -0.3139 -0.2918 -0.9307
 3923SOL    MW415460   0.845   2.417   1.039  0.0740  0.4074  0.1924
 3924SOL     OW15461   1.633   4.436   3.765 -0.4097  0.0665  0.2783
 3924SOL    HW215462   1.628   4.430   3.669  1.1284 -0.3478  0.2001
 3924SOL    HW315463   1.543   4.422   3.794 -0.6061 -1.7784 -1.0326
 3924SOL    MW415464   1.620   4.433   3.756 -0.2327 -0.2316  0.0950
 3925SOL     OW15465   1.479   3.654   0.156  0.1817 -0.4488  0.1017
 3925SOL    HW215466   1.407   3.717   0.146  1.5069  1.1921  0.6210
 3925SOL    HW315467   1.473   3.599   0.078 -1.3935 -0.1098 -0.0508
 3925SOL    MW415468   1.468   3.655   0.144  0.1487 -0.1875  0.1501
 3926SOL     OW15469   6.363   1.045   2.731 -0.0716 -0.5600  0.3509
 3926SOL    HW215470   6.359   0.956   2.764  0.0554 -1.1980 -1.2381
 3926SOL    HW315471   6.448   1.078   2.762  0.6952 -1.6351 -0.5141
 3926SOL    MW415472   6.374   1.038   2.739  0.0464 -0.7860  0.0271
 3927SOL     OW15473   0.894   1.062   6.108  0.0929  0.0050 -0.1099
 3927SOL    HW215474   0.864   1.084   6.020  1.9002  0.1890 -0.7189
 3927SOL    HW315475   0.942   1.140   6.137  0.4258 -0.4516  0.5936
 3927SOL    MW415476   0.897   1.075   6.100  0.3753 -0.0309 -0.0974
 3928SOL     OW15477   5.120   0.432   4.358  0.0300  0.2245 -0.2878
 3928SOL    HW215478   5.143   0.340   4.340  3.4254  0.5800  1.4671
 3928SOL    HW315479   5.086   0.430   4.448  0.6110  0.6863 -0.0486
 3928SOL    MW415480   5.119   0.419   4.368  0.5547  0.3323 -0.0247
 3929SOL     OW15481   3.732   1.355   0.268  0.0814 -0.0452 -0.5121
 3929SOL    HW215482   3.812   1.328   0.223 -0.1422  1.4817 -1.9022
 3929SOL    HW315483   3.725   1.449   0.251  0.3570  0.8642  3.3043
 3929SOL    MW415484   3.742   1.364   0.260  0.0883  0.2762 -0.1920
 3930SOL     OW15485   0.882   4.198   2.731 -0.0589 -0.0145  0.2257
 3930SOL    HW215486   0.967   4.187   2.688  0.1736  0.9574  0.4192
 3930SOL    HW315487   0.895   4.162   2.819  0.5182  1.2018  0.6596
 3930SOL    MW415488   0.895   4.192   2.737  0.0479  0.2742  0.3085
 3931SOL     OW15489   2.300   4.714   1.500  0.6814 -0.2420  0.3984
 3931SOL    HW215490   2.310   4.719   1.595 -2.2306 -0.9618  0.8606
 3931SOL    HW315491   2.332   4.798   1.468  0.7096  0.4506  2.1389
 3931SOL    MW415492   2.305   4.726   1.508  0.3009 -0.2456  0.6890
 3932SOL     OW15493   1.197   2.567   4.856  0.1130 -0.2566 -0.0503
 3932SOL    HW215494   1.275   2.610   4.821  0.7269 -2.0236 -0.9807
 3932SOL    HW315495   1.208   2.475   4.832 -2.9121 -0.3485 -1.4572
 3932SOL    MW415496   1.209   2.561   4.848 -0.2052 -0.5019 -0.3587
 3933SOL     OW15497   0.296   2.640   5.972  0.8653  0.4115 -0.2689
 3933SOL    HW215498   0.243   2.607   5.900  1.6129  0.6926 -0.9558
 3933SOL    HW315499   0.277   2.733   5.976 -2.0628 -0.1208  2.3481
 3933SOL    MW415500   0.286   2.648   5.963  0.5776  0.3783 -0.0142
 3934SOL     OW15501   1.687   5.450   5.681 -0.2650  0.2074 -0.1251
 3934SOL    HW215502   1.662   5.447   5.589  0.3873  1.0146 -0.3425
 3934SOL    HW315503   1.673   5.361   5.713 -0.8987  0.0258 -0.8936
 3934SOL    MW415504   1.682   5.438   5.673 -0.2626  0.2900 -0.2552
 3935SOL     OW15505   1.010   2.348   4.683  0.6039  0.3528 -0.4294
 3935SOL    HW215506   0.965   2.291   4.622  1.9870 -0.7217 -0.4840
 3935SOL    HW315507   1.058   2.410   4.628 -0.8732  1.6283 -0.3716
 3935SOL    MW415508   1.010   2.349   4.668  0.5915  0.3794 -0.4290
 3936SOL     OW15509   5.902   0.615   2.762  0.2083 -0.2033 -0.0367
 3936SOL    HW215510   5.822   0.665   2.776  0.6266  0.4024  0.2400
 3936SOL    HW315511   5.881   0.555   2.691 -1.0689 -1.3316  1.2089
 3936SOL    MW415512   5.889   0.614   2.755  0.0950 -0.2722  0.1641
 3937SOL     OW15513   0.828   4.267   2.200 -0.0301  0.4507  0.4364
 3937SOL    HW215514   0.901   4.229   2.151 -0.1193  2.4640 -1.3996
 3937SOL    HW315515   0.791   4.194   2.249  0.7617 -1.4629 -1.6746
 3937SOL    MW415516   0.833   4.253   2.200  0.0626  0.4639 -0.0843
 3938SOL     OW15517   5.526   1.539   5.971 -0.8050 -0.6369 -0.0839
 3938SOL    HW215518   5.431   1.531   5.959 -0.5422 -0.7029 -2.7043
 3938SOL    HW315519   5.549   1.468   6.030 -2.3729 -0.6120  0.6133
 3938SOL    MW415520   5.516   1.529   5.977 -0.9772 -0.6423 -0.3377
 3939SOL     OW15521   0.224   0.994   5.074  0.4572  0.3307  0.0873
 3939SOL    HW215522   0.181   1.004   5.159  0.1861  2.0106 -0.2079
 3939SOL    HW315523   0.238   1.084   5.044 -0.0216 -0.2262 -1.9300
 3939SOL    MW415524   0.221   1.007   5.082  0.3583  0.4788 -0.2178
 3940SOL     OW15525   1.945   3.859   1.425 -0.2315 -0.2847 -0.0570
 3940SOL    HW215526   1.960   3.772   1.387  0.4199 -1.2565  2.1857
 3940SOL    HW315527   1.979   3.920   1.360 -1.7498 -1.5865 -2.2266
 3940SOL    MW415528   1.952   3.855   1.412 -0.3459 -0.5847 -0.0474
 3941SOL     OW15529   1.553   5.942   2.370  0.1436  0.1993  0.0808
 3941SOL    HW215530   1.568   6.034   2.350  0.9380 -0.1698 -1.1432
 3941SOL    HW315531   1.566   5.935   2.464 -0.1874  1.3782  0.2206
 3941SOL    MW415532   1.557   5.953   2.380  0.2047  0.3061 -0.0622
 3942SOL     OW15533   6.286   3.326   5.627  0.2417 -0.7281 -0.0264
 3942SOL    HW215534   6.348   3.397   5.609 -2.5873  1.5029 -2.0670
 3942SOL    HW315535   6.240   3.354   5.706 -0.1681 -0.8092 -0.2343
 3942SOL    MW415536   6.288   3.339   5.635 -0.1856 -0.4444 -0.3231
 3943SOL     OW15537   3.560   5.259   3.105 -0.1364  0.2438 -0.1942
 3943SOL    HW215538   3.559   5.342   3.058 -1.0379 -0.0185 -0.6590
 3943SOL    HW315539   3.474   5.220   3.088 -1.5489  1.2341  3.6148
 3943SOL    MW415540   3.549   5.265   3.097 -0.4417  0.3399  0.2470
 3944SOL     OW15541   4.271   0.660   4.185  0.0666  0.4989  0.3426
 3944SOL    HW215542   4.298   0.579   4.229 -1.5131 -0.2542  0.0027
 3944SOL    HW315543   4.337   0.672   4.117  0.3341 -0.5341  0.3926
 3944SOL    MW415544   4.283   0.651   4.182 -0.1065  0.2633  0.3044
 3945SOL     OW15545   4.155   3.205   0.895 -0.6292  0.1019 -0.2122
 3945SOL    HW215546   4.143   3.293   0.859 -1.2398 -0.0431 -0.3842
 3945SOL    HW315547   4.239   3.208   0.940 -0.1433  0.4654 -1.1279
 3945SOL    MW415548   4.164   3.217   0.897 -0.6456  0.1307 -0.3557
 3946SOL     OW15549   3.600   0.191   5.990 -0.1193 -0.4601  0.0248
 3946SOL    HW215550   3.635   0.196   5.901 -0.5358 -0.5687 -0.1458
 3946SOL    HW315551   3.519   0.241   5.988  1.9414  3.3616  1.4137
 3946SOL    MW415552   3.594   0.198   5.978  0.0976  0.0298  0.1855
 3947SOL     OW15553   3.207   4.723   5.641 -0.4355  0.7115 -0.0947
 3947SOL    HW215554   3.143   4.654   5.661 -0.2421  0.2366 -1.0408
 3947SOL    HW315555   3.165   4.776   5.573 -0.9566  2.1022  1.2641
 3947SOL    MW415556   3.193   4.721   5.634 -0.4787  0.8323 -0.0403
 3948SOL     OW15557   5.615   5.958   2.209 -0.0486  0.1375  0.5431
 3948SOL    HW215558   5.551   5.977   2.278 -0.2298  1.4361  0.0435
 3948SOL    HW315559   5.615   5.862   2.202  1.9444 -0.3384  4.1928
 3948SOL    MW415560   5.607   5.948   2.218  0.1904  0.2461  0.9587
 3949SOL     OW15561   4.120   4.217   2.341  1.0507 -0.1055  0.3882
 3949SOL    HW215562   4.086   4.231   2.252  1.2721 -0.8844  0.1682
 3949SOL    HW315563   4.047   4.177   2.388  1.1188 -0.2322  0.3875
 3949SOL    MW415564   4.106   4.214   2.335  1.0889 -0.2250  0.3591
 3950SOL     OW15565   2.692   3.914   3.823  0.1254  0.3462  0.0983
 3950SOL    HW215566   2.731   3.885   3.740  1.6447  1.0747  0.5292
 3950SOL    HW315567   2.666   3.832   3.866 -0.9567 -0.0369 -1.1871
 3950SOL    MW415568   2.693   3.899   3.818  0.1831  0.3917 -0.0144
 3951SOL     OW15569   2.005   0.245   0.977  0.3121  0.3826 -0.4924
 3951SOL    HW215570   1.946   0.200   0.916 -0.5022  0.4000  0.2687
 3951SOL    HW315571   1.952   0.313   1.017  0.7308  0.1419  0.5065
 3951SOL    MW415572   1.990   0.248   0.974  0.2599  0.3531 -0.2602
 3952SOL     OW15573   0.753   2.365   2.710 -0.2512 -0.5279  0.0522
 3952SOL    HW215574   0.712   2.279   2.708 -1.2877 -0.0454  0.0490
 3952SOL    HW315575   0.709   2.411   2.781  1.3880 -0.5062  1.1250
 3952SOL    MW415576   0.742   2.360   2.719 -0.1716 -0.4614  0.1933
 3953SOL     OW15577   0.255   4.106   0.234  0.4894  0.4469 -1.2489
 3953SOL    HW215578   0.253   4.094   0.329 -0.6262  1.8600 -1.0538
 3953SOL    HW315579   0.342   4.076   0.207  1.3514  1.3345  0.4117
 3953SOL    MW415580   0.266   4.100   0.243  0.4560  0.7504 -1.0040
 3954SOL     OW15581   6.181   3.916   3.869  0.2737 -0.4304 -0.2617
 3954SOL    HW215582   6.139   3.850   3.813  0.5983 -0.3830 -0.5599
 3954SOL    HW315583   6.206   3.986   3.809  0.6309 -0.3823 -0.0595
 3954SOL    MW415584   6.179   3.916   3.853  0.3637 -0.4178 -0.2744
 3955SOL     OW15585   4.084   4.812   3.268  0.1866  0.3147  0.2555
 3955SOL    HW215586   4.157   4.756   3.241 -0.9405 -1.9310  1.6253
 3955SOL    HW315587   4.090   4.888   3.209  2.4682 -0.6717 -0.9261
 3955SOL    MW415588   4.094   4.815   3.256  0.3389 -0.1117  0.2803
 3956SOL     OW15589   3.800   0.426   5.950 -0.6319 -0.6106 -0.0733
 3956SOL    HW215590   3.798   0.520   5.932 -1.9117 -0.6236 -0.0250
 3956SOL    HW315591   3.720   0.392   5.910 -0.1713 -1.6884 -0.1009
 3956SOL    MW415592   3.790   0.434   5.942 -0.7400 -0.7545 -0.0706
 3957SOL     OW15593   1.026   1.707   1.819  0.0894 -0.5774 -0.2529
 3957SOL    HW215594   1.097   1.645   1.836 -0.6598 -0.8870  1.9827
 3957SOL    HW315595   0.961   1.656   1.770 -0.1834 -1.3646  0.9019
 3957SOL    MW415596   1.027   1.692   1.815 -0.0455 -0.7221  0.1944
 3958SOL     OW15597   3.689   0.828   5.479  0.0553 -0.1475 -0.2745
 3958SOL    HW215598   3.750   0.782   5.537 -0.6463  1.0656  1.5132
 3958SOL    HW315599   3.612   0.772   5.476 -0.6125  0.5867  1.5132
 3958SOL    MW415600   3.687   0.815   5.486 -0.1254  0.1094  0.1973
 3959SOL     OW15601   2.989   6.343   2.916 -0.0656  0.0051  0.7612
 3959SOL    HW215602   3.063   6.330   2.857  0.2756 -1.0255  1.3693
 3959SOL    HW315603   2.912   6.324   2.862  0.2983 -2.2059  0.9067
 3959SOL    MW415604   2.988   6.338   2.901  0.0274 -0.4226  0.8606
 3960SOL     OW15605   6.356   5.984   1.285  0.1694 -0.2926 -0.0477
 3960SOL    HW215606   6.318   6.069   1.306 -0.4708 -0.4566 -0.5086
 3960SOL    HW315607   6.348   5.933   1.366  1.3935  0.3677  0.5141
 3960SOL    MW415608   6.350   5.988   1.298  0.2464 -0.2271 -0.0344
 3961SOL     OW15609   2.759   0.142   4.077 -0.0569  0.0050 -0.0730
 3961SOL    HW215610   2.756   0.059   4.123  2.1820 -0.1220 -0.0522
 3961SOL    HW315611   2.710   0.127   3.996 -2.3568 -0.3425  1.2865
 3961SOL    MW415612   2.752   0.129   4.072 -0.0649 -0.0576  0.1091
 3962SOL     OW15613   0.625   2.889   4.251  0.7569  0.2193  0.2269
 3962SOL    HW215614   0.629   2.860   4.160 -0.1521 -0.1695  0.2966
 3962SOL    HW315615   0.685   2.964   4.255  2.6855 -1.2366 -0.1016
 3962SOL    MW415616   0.633   2.895   4.239  0.8914 -0.0241  0.1927
 3963SOL     OW15617   3.773   4.014   3.369 -0.6900 -0.0206 -1.0471
 3963SOL    HW215618   3.741   4.098   3.336  0.8227  1.4518  0.9823
 3963SOL    HW315619   3.710   3.989   3.436 -0.1837  0.4680 -0.3708
 3963SOL    MW415620   3.760   4.022   3.374 -0.4236  0.2381 -0.6901
 3964SOL     OW15621   0.297   5.685   3.728  0.2433  0.2810 -0.0108
 3964SOL    HW215622   0.383   5.669   3.691  0.9722 -0.8807  2.0696
 3964SOL    HW315623   0.314   5.731   3.810 -1.2852  2.2697 -0.7211
 3964SOL    MW415624   0.310   5.689   3.734  0.1378  0.3901  0.1700
 3965SOL     OW15625   3.346   5.113   0.991 -0.4615  0.2085 -0.2130
 3965SOL    HW215626   3.314   5.026   1.016 -1.4526  0.3966 -0.7698
 3965SOL    HW315627   3.441   5.107   0.998 -0.6047 -0.1772  2.1622
 3965SOL    MW415628   3.354   5.101   0.995 -0.6111  0.1824  0.0270
 3966SOL     OW15629   3.697   1.566   0.581 -0.2327 -0.3262 -0.0748
 3966SOL    HW215630   3.641   1.488   0.586  0.9548 -1.1668  0.4906
 3966SOL    HW315631   3.707   1.581   0.487  1.2220 -2.1593 -0.2874
 3966SOL    MW415632   3.691   1.557   0.569  0.1159 -0.6789 -0.0283
 3967SOL     OW15633   5.094   5.178   5.160 -0.2617 -0.2965 -0.3916
 3967SOL    HW215634   5.189   5.168   5.163  0.1240  2.6423 -0.0269
 3967SOL    HW315635   5.075   5.195   5.068 -0.3535 -0.2268 -0.3596
 3967SOL    MW415636   5.104   5.179   5.148 -0.2229  0.1005 -0.3393
 3968SOL     OW15637   5.057   1.350   3.762  0.7054 -0.3571  0.2986
 3968SOL    HW215638   5.106   1.331   3.842  0.8454 -0.5139  0.1755
 3968SOL    HW315639   5.103   1.302   3.693  1.7158  1.2707 -0.2211
 3968SOL    MW415640   5.069   1.341   3.763  0.8572 -0.1630  0.2138
 3969SOL     OW15641   3.524   1.831   3.711  0.5767  0.6337 -0.5069
 3969SOL    HW215642   3.446   1.874   3.676 -0.6686 -0.2450  1.0353
 3969SOL    HW315643   3.519   1.846   3.806  2.6204  1.0473 -0.4042
 3969SOL    MW415644   3.513   1.839   3.719  0.6821  0.5724 -0.2898
 3970SOL     OW15645   1.595   1.415   3.718 -0.3376 -0.3872 -0.6415
 3970SOL    HW215646   1.638   1.471   3.783 -3.1935  0.0740  0.9969
 3970SOL    HW315647   1.604   1.327   3.753  3.4996 -1.1200 -2.8552
 3970SOL    MW415648   1.602   1.411   3.731 -0.2081 -0.4230 -0.7174
 3971SOL     OW15649   2.373   1.065   3.419  0.2716 -0.3548  0.0340
 3971SOL    HW215650   2.304   1.108   3.369 -0.6739  0.8746  2.2639
 3971SOL    HW315651   2.367   1.102   3.507  3.8516 -0.1093  0.3383
 3971SOL    MW415652   2.363   1.075   3.424  0.6192 -0.1602  0.3683
 3972SOL     OW15653   2.978   0.558   4.253 -0.8207 -0.1785  0.1146
 3972SOL    HW215654   2.967   0.523   4.342  0.2269 -0.5319  0.1157
 3972SOL    HW315655   2.889   0.560   4.217 -1.1777 -0.6285  0.9461
 3972SOL    MW415656   2.965   0.554   4.260 -0.7296 -0.2845  0.2245
 3973SOL     OW15657   3.930   6.161   5.898  0.3946  0.4526 -0.3869
 3973SOL    HW215658   4.018   6.194   5.917  0.2775  1.0131 -0.7660
 3973SOL    HW315659   3.921   6.083   5.952  0.3604  1.5259  1.2338
 3973SOL    MW415660   3.940   6.155   5.908  0.3746  0.6681 -0.2231
 3974SOL     OW15661   3.542   0.813   5.945 -0.6997  0.6220  0.4781
 3974SOL    HW215662   3.504   0.733   5.908  1.3705 -0.9495  1.5220
 3974SOL    HW315663   3.570   0.864   5.869 -0.4079 -0.5032 -0.1866
 3974SOL    MW415664   3.540   0.809   5.930 -0.3881  0.2662  0.5281
 3975SOL     OW15665   2.026   5.634   5.339  0.1932  0.2075  0.0817
 3975SOL    HW215666   1.975   5.553   5.334  1.2519 -0.5327  0.6787
 3975SOL    HW315667   2.112   5.610   5.304  0.3249  1.2633 -0.3524
 3975SOL    MW415668   2.031   5.620   5.334  0.3503  0.2491  0.1032
 3976SOL     OW15669   3.476   3.584   4.201 -0.1340  0.0325  0.3332
 3976SOL    HW215670   3.484   3.518   4.133 -1.3094 -0.8041  0.9610
 3976SOL    HW315671   3.383   3.582   4.226  0.5439 -0.9418  3.1405
 3976SOL    MW415672   3.465   3.575   4.195 -0.1996 -0.2064  0.7864
 3977SOL     OW15673   2.784   1.827   5.392 -0.0894  0.0776  0.3995
 3977SOL    HW215674   2.859   1.772   5.367 -0.5207 -0.2376 -0.2294
 3977SOL    HW315675   2.739   1.777   5.460  0.1744  0.1920  0.6606
 3977SOL    MW415676   2.788   1.813   5.398 -0.1115  0.0511  0.3510
 3978SOL     OW15677   2.156   0.434   2.645 -0.1274 -0.2144  1.0442
 3978SOL    HW215678   2.123   0.376   2.714  0.7418 -0.0556  1.6136
 3978SOL    HW315679   2.145   0.522   2.680  1.0394 -0.1611  1.3401
 3978SOL    MW415680   2.150   0.438   2.659  0.1412 -0.1864  1.1584
 3979SOL     OW15681   0.744   3.751   2.390  0.1225  0.0587  0.0659
 3979SOL    HW215682   0.663   3.802   2.399  0.5160  0.6029  0.5493
 3979SOL    HW315683   0.724   3.688   2.321 -0.6893  0.2439  0.1180
 3979SOL    MW415684   0.730   3.749   2.382  0.0673  0.1549  0.1366
 3980SOL     OW15685   2.895   4.424   6.219  0.6007 -0.8557  0.7747
 3980SOL    HW215686   2.846   4.351   6.182  1.3523 -1.7681  1.5100
 3980SOL    HW315687   2.867   4.429   6.310  2.1928 -1.7519  1.3675
 3980SOL    MW415688   2.885   4.415   6.226  0.9099 -1.0943  0.9499
 3981SOL     OW15689   0.575   3.943   4.814 -0.3225 -0.5718 -0.2533
 3981SOL    HW215690   0.547   3.852   4.823  0.5373 -0.7910  0.3267
 3981SOL    HW315691   0.669   3.941   4.833 -0.4681  0.5751  0.6970
 3981SOL    MW415692   0.584   3.930   4.817 -0.2283 -0.4494 -0.0514
 3982SOL     OW15693   2.401   0.942   2.105  0.3885  0.7576 -0.0968
 3982SOL    HW215694   2.413   0.952   2.011  1.2464  3.2546  0.2091
 3982SOL    HW315695   2.478   0.982   2.144  0.7366 -1.4740  1.6981
 3982SOL    MW415696   2.413   0.949   2.098  0.5476  0.7926  0.1804
 3983SOL     OW15697   3.817   5.079   3.025 -0.0296 -0.5436 -0.0375
 3983SOL    HW215698   3.784   4.998   3.063 -1.7821 -0.7749 -1.8833
 3983SOL    HW315699   3.750   5.144   3.044 -0.7150 -0.5513 -2.1907
 3983SOL    MW415700   3.804   5.077   3.032 -0.3513 -0.5751 -0.5651
 3984SOL     OW15701   1.326   0.085   3.778  0.0284 -0.2822 -0.5418
 3984SOL    HW215702   1.265   0.040   3.719 -1.8756  1.7384 -0.2677
 3984SOL    HW315703   1.279   0.089   3.862  0.3230  1.7218 -0.4313
 3984SOL    MW415704   1.312   0.079   3.781 -0.1839  0.2488 -0.4911
 3985SOL     OW15705   5.804   5.252   6.048 -0.4133 -0.0480 -0.2601
 3985SOL    HW215706   5.800   5.201   5.967 -0.9813 -2.8569  1.4140
 3985SOL    HW315707   5.726   5.226   6.097 -0.3562  1.9604  1.0143
 3985SOL    MW415708   5.794   5.242   6.044 -0.4807 -0.1536  0.1289
 3986SOL     OW15709   4.805   2.929   3.280 -0.1558  0.1573  0.1165
 3986SOL    HW215710   4.740   2.958   3.216  1.1930  1.1139 -0.8586
 3986SOL    HW315711   4.845   3.010   3.312  0.6509 -0.4239  0.5970
 3986SOL    MW415712   4.802   2.943   3.276  0.1286  0.2069  0.0512
 3987SOL     OW15713   2.383   4.979   3.251 -0.3528 -0.7759  0.8624
 3987SOL    HW215714   2.400   5.062   3.296 -0.8665 -0.2157  0.0539
 3987SOL    HW315715   2.392   4.913   3.319 -0.1935 -0.0337  1.5855
 3987SOL    MW415716   2.386   4.982   3.266 -0.3996 -0.6040  0.8511
 3988SOL     OW15717   4.264   1.219   1.620  0.4272  0.0778 -0.0253
 3988SOL    HW215718   4.175   1.241   1.594  1.5055  2.5000 -2.0427
 3988SOL    HW315719   4.259   1.207   1.715 -1.8079  1.5059  0.0979
 3988SOL    MW415720   4.252   1.220   1.629  0.2746  0.5858 -0.2752
 3989SOL     OW15721   5.010   5.936   2.159  0.5983 -0.4849  0.2898
 3989SOL    HW215722   4.967   5.851   2.173 -1.0655  0.2941  0.1866
 3989SOL    HW315723   4.937   5.997   2.143  1.4165  1.6111  3.5793
 3989SOL    MW415724   4.994   5.933   2.159  0.4868 -0.1056  0.7102
 3990SOL     OW15725   4.030   1.354   3.288  0.1162 -0.1594  0.3007
 3990SOL    HW215726   4.091   1.377   3.218  0.4919  1.3987  1.0885
 3990SOL    HW315727   3.969   1.428   3.292  0.2626 -0.0816  1.7586
 3990SOL    MW415728   4.030   1.367   3.279  0.1851  0.0565  0.5970
 3991SOL     OW15729   4.168   3.668   6.051  0.1612 -0.0681  0.4416
 3991SOL    HW215730   4.108   3.690   5.980  2.1442  0.5257 -1.1539
 3991SOL    HW315731   4.208   3.585   6.024 -0.1008 -0.5961  1.6002
 3991SOL    MW415732   4.166   3.660   6.038  0.3883 -0.0594  0.3839
 3992SOL     OW15733   2.490   4.203   4.583 -0.7503 -0.2252 -0.2672
 3992SOL    HW215734   2.465   4.223   4.493  0.5297 -1.2308 -0.8708
 3992SOL    HW315735   2.422   4.246   4.636  0.2599  3.2148 -1.5050
 3992SOL    MW415736   2.478   4.211   4.578 -0.4481  0.0960 -0.5101
 3993SOL     OW15737   5.408   0.284   2.451 -0.5894 -0.3475  0.0911
 3993SOL    HW215738   5.473   0.338   2.406 -1.5592  0.6118 -0.1881
 3993SOL    HW315739   5.370   0.229   2.382  0.6959 -1.7614  0.4417
 3993SOL    MW415740   5.412   0.283   2.436 -0.5478 -0.4075  0.1005
 3994SOL     OW15741   4.692   2.094   2.100 -0.4248 -0.8065  0.0992
 3994SOL    HW215742   4.605   2.133   2.098  0.4293  1.2269 -1.3091
 3994SOL    HW315743   4.680   2.006   2.066 -1.8355 -0.3558 -0.6332
 3994SOL    MW415744   4.679   2.087   2.096 -0.4982 -0.4787 -0.1832
 3995SOL     OW15745   1.791   1.714   5.358 -0.3519  0.1018 -0.2689
 3995SOL    HW215746   1.813   1.805   5.377 -3.1847  0.6619  0.8390
 3995SOL    HW315747   1.783   1.673   5.444 -0.8234 -0.7059 -0.6930
 3995SOL    MW415748   1.793   1.721   5.372 -0.7879  0.0692 -0.1787
 3996SOL     OW15749   3.386   4.930   2.506  0.4146  0.1313  0.1313
 3996SOL    HW215750   3.318   4.992   2.532 -0.3672 -0.0064 -1.4579
 3996SOL    HW315751   3.467   4.968   2.539 -0.4575 -0.0575  2.7130
 3996SOL    MW415752   3.388   4.943   2.514  0.1964  0.0882  0.2622
 3997SOL     OW15753   5.495   1.614   3.859  0.2188 -0.2229  0.2516
 3997SOL    HW215754   5.486   1.539   3.800  4.4380 -0.4879 -0.3737
 3997SOL    HW315755   5.503   1.690   3.801  2.0412 -0.1829  0.4849
 3997SOL    MW415756   5.495   1.614   3.843  1.0159 -0.2526  0.1999
 3998SOL     OW15757   3.321   1.190   0.728  0.4356  0.6612  0.2216
 3998SOL    HW215758   3.395   1.130   0.714 -0.3548 -0.2048 -0.3730
 3998SOL    HW315759   3.266   1.144   0.793 -0.7551  0.1744 -1.0856
 3998SOL    MW415760   3.324   1.176   0.735  0.1742  0.4827 -0.0293
 3999SOL     OW15761   0.506   5.666   0.748  0.2292 -0.2787 -0.3368
 3999SOL    HW215762   0.512   5.592   0.809 -0.3260  0.0607  0.1449
 3999SOL    HW315763   0.595   5.675   0.714  1.0698  0.7243  1.8877
 3999SOL    MW415764   0.519   5.657   0.752  0.2669 -0.1016  0.0202
 4000SOL     OW15765   2.322   6.030   3.607 -0.2655 -0.5480 -0.3869
 4000SOL    HW215766   2.286   6.011   3.693  0.4984  0.4585  0.1668
 4000SOL    HW315767   2.266   6.100   3.572  0.9534  0.8932  0.4019
 4000SOL    MW415768   2.310   6.037   3.613 -0.0039 -0.2250 -0.2098
 4001SOL     OW15769   5.090   4.250   2.882 -0.5132  0.0412 -0.1415
 4001SOL    HW215770   5.147   4.265   2.807 -2.5985  0.4386 -1.7394
 4001SOL    HW315771   5.046   4.167   2.864  0.6765 -1.0981  1.8532
 4001SOL    MW415772   5.092   4.241   2.870 -0.6313 -0.0566 -0.0891
 4002SOL     OW15773   5.160   4.420   0.431 -0.7025  0.3027  0.5777
 4002SOL    HW215774   5.177   4.508   0.399  1.1486  0.6660  2.3543
 4002SOL    HW315775   5.231   4.367   0.396 -1.5849 -0.4503 -0.1540
 4002SOL    MW415776   5.171   4.424   0.422 -0.5747  0.2513  0.7155
 4003SOL     OW15777   1.995   4.599   2.692  0.2000  0.0233  0.1344
 4003SOL    HW215778   1.969   4.684   2.727 -0.8495 -0.1906 -0.0887
 4003SOL    HW315779   1.955   4.595   2.606  1.4051 -0.1385 -0.4366
 4003SOL    MW415780   1.986   4.610   2.686  0.2206 -0.0262  0.0296
 4004SOL     OW15781   5.926   5.148   1.397  0.8685 -0.1880 -0.0710
 4004SOL    HW215782   5.888   5.216   1.342  0.2708 -0.0706  0.4718
 4004SOL    HW315783   5.998   5.112   1.345  0.1852 -0.2234 -1.0064
 4004SOL    MW415784   5.931   5.152   1.383  0.6995 -0.1772 -0.1228
 4005SOL     OW15785   2.119   2.418   5.993  0.4490  0.4486 -0.3385
 4005SOL    HW215786   2.070   2.404   6.075 -2.6582  1.5661 -1.8599
 4005SOL    HW315787   2.193   2.358   6.000 -0.7370 -0.8937  2.4730
 4005SOL    MW415788   2.122   2.408   6.005 -0.1174  0.4189 -0.1683
 4006SOL     OW15789   3.473   0.674   2.341 -0.1637 -0.0901  0.3680
 4006SOL    HW215790   3.398   0.703   2.393 -0.6275  0.1945 -0.4429
 4006SOL    HW315791   3.447   0.589   2.306 -0.8512  0.7669 -1.3376
 4006SOL    MW415792   3.460   0.666   2.343 -0.3156  0.0605  0.0360
 4007SOL     OW15793   5.490   2.627   5.661 -0.4135  0.1700 -0.1728
 4007SOL    HW215794   5.516   2.667   5.744 -0.2976 -0.8018  0.2679
 4007SOL    HW315795   5.490   2.533   5.678 -1.1576 -0.0020 -1.0604
 4007SOL    MW415796   5.494   2.620   5.674 -0.4964  0.0191 -0.2317
 4008SOL     OW15797   4.323   0.928   3.250  0.4254  0.3434  0.0256
 4008SOL    HW215798   4.327   0.988   3.176  0.4756  0.8295  0.4140
 4008SOL    HW315799   4.360   0.978   3.323 -0.0343  0.0309  0.4779
 4008SOL    MW415800   4.329   0.942   3.250  0.3714  0.3663  0.1365
 4009SOL     OW15801   0.717   4.918   5.835  0.4123  0.3411 -0.1100
 4009SOL    HW215802   0.661   4.869   5.776  0.3454  0.1178  0.1358
 4009SOL    HW315803   0.806   4.888   5.815  0.4940  1.0180 -0.8052
 4009SOL    MW415804   0.721   4.908   5.825  0.4143  0.4009 -0.1693
 4010SOL     OW15805   0.317   1.958   4.884 -0.2176  0.2692  0.1414
 4010SOL    HW215806   0.263   2.011   4.942 -1.0839 -0.6221  0.1745
 4010SOL    HW315807   0.354   2.020   4.822 -0.4820  1.0309  0.7309
 4010SOL    MW415808   0.315   1.973   4.884 -0.3668  0.2521  0.2235
 4011SOL     OW15809   0.039   2.970   0.120  0.1677 -0.2757 -0.3596
 4011SOL    HW215810  -0.042   3.001   0.079  0.4461  0.8190 -0.1255
 4011SOL    HW315811   0.100   2.957   0.048  0.0503 -0.2644 -0.4608
 4011SOL    MW415812   0.036   2.973   0.105  0.1890 -0.1297 -0.3421
 4012SOL     OW15813   1.625   3.867   4.880 -0.0699  0.2063 -0.1930
 4012SOL    HW215814   1.617   3.783   4.926 -0.1178  0.7264  0.7911
 4012SOL    HW315815   1.711   3.863   4.838  0.3450  0.0291  0.6410
 4012SOL    MW415816   1.636   3.855   4.881 -0.0215  0.2516  0.0469
 4013SOL     OW15817   1.633   4.884   1.503  0.7396  0.2906  0.0128
 4013SOL    HW215818   1.715   4.836   1.489  0.2628 -0.4443 -0.3658
 4013SOL    HW315819   1.630   4.899   1.597  1.9796  1.5810 -0.1202
 4013SOL    MW415820   1.643   4.880   1.514  0.8403  0.3639 -0.0547
 4014SOL     OW15821   3.759   0.064   4.126 -0.6661 -0.0588  0.0455
 4014SOL    HW215822   3.765  -0.028   4.099  0.1729 -0.5307  1.6323
 4014SOL    HW315823   3.667   0.077   4.147 -1.1965  0.1183 -2.1565
 4014SOL    MW415824   3.748   0.053   4.126 -0.6254 -0.0977 -0.0357
 4015SOL     OW15825   6.262   6.299   3.002  0.5877  0.1750  0.0013
 4015SOL    HW215826   6.205   6.370   2.973 -0.2737  0.2178  1.6830
 4015SOL    HW315827   6.334   6.344   3.047  1.1777  0.0549 -0.8053
 4015SOL    MW415828   6.264   6.315   3.004  0.5519  0.1648  0.1168
 4016SOL     OW15829   2.845   2.742   4.612 -0.1204 -0.1526  0.0602
 4016SOL    HW215830   2.766   2.796   4.605  0.4355  1.1305  2.3300
 4016SOL    HW315831   2.917   2.806   4.614  0.9092 -1.2347 -0.9496
 4016SOL    MW415832   2.844   2.758   4.611  0.0888 -0.1261  0.2264
 4017SOL     OW15833   3.974   5.428   6.246  0.2805 -0.9416  0.3927
 4017SOL    HW215834   4.005   5.434   6.156  1.3421  0.6179  0.8183
 4017SOL    HW315835   4.030   5.361   6.286  2.1293  0.6838  0.7066
 4017SOL    MW415836   3.986   5.420   6.240  0.6645 -0.5214  0.4903
 4018SOL     OW15837   4.295   4.657   3.143 -0.0493 -0.4785  0.5136
 4018SOL    HW215838   4.244   4.639   3.063 -2.0164  0.8075  1.4012
 4018SOL    HW315839   4.384   4.672   3.111 -1.0525  1.5489 -1.6821
 4018SOL    MW415840   4.300   4.656   3.128 -0.4412 -0.0414  0.3410
 4019SOL     OW15841   3.004   6.451   1.839 -0.2761  0.1405  0.4227
 4019SOL    HW215842   3.071   6.517   1.826 -0.2359  0.2067  0.9739
 4019SOL    HW315843   3.000   6.438   1.933 -2.0971  1.2448  0.5559
 4019SOL    MW415844   3.012   6.458   1.849 -0.5110  0.2949  0.5130
 4020SOL     OW15845   1.764   2.067   4.622 -0.0345  0.2867  0.2581
 4020SOL    HW215846   1.745   2.016   4.700  1.6244 -0.4214  0.2301
 4020SOL    HW315847   1.678   2.092   4.588 -0.9249 -2.4549  0.2986
 4020SOL    MW415848   1.750   2.064   4.628  0.0669 -0.1684  0.2598
 4021SOL     OW15849   1.810   2.784   2.376  0.7972 -0.2273 -0.8148
 4021SOL    HW215850   1.838   2.854   2.318 -0.4195 -0.4234 -1.6748
 4021SOL    HW315851   1.729   2.817   2.416 -0.3697 -1.5129 -2.0247
 4021SOL    MW415852   1.803   2.798   2.374  0.4827 -0.4228 -1.0879
 4022SOL     OW15853   3.908   4.071   2.452 -0.5823 -0.3659  0.1650
 4022SOL    HW215854   3.823   4.049   2.415 -1.6204 -0.3864  2.3828
 4022SOL    HW315855   3.938   3.990   2.492  0.1994 -0.1967 -0.0638
 4022SOL    MW415856   3.901   4.057   2.453 -0.6161 -0.3463  0.4274
 4023SOL     OW15857   1.880   1.334   0.935  0.0549 -0.1429 -0.5378
 4023SOL    HW215858   1.881   1.412   0.990  1.0667 -0.3362 -0.2487
 4023SOL    HW315859   1.969   1.299   0.942 -0.3263 -1.2174 -0.8088
 4023SOL    MW415860   1.892   1.340   0.943  0.1381 -0.3102 -0.5354
 4024SOL     OW15861   0.487   1.643   1.173  0.1234 -0.3840 -0.1915
 4024SOL    HW215862   0.520   1.733   1.178 -0.0838 -0.3460  0.6010
 4024SOL    HW315863   0.429   1.643   1.097  0.3399  0.0813 -0.3594
 4024SOL    MW415864   0.484   1.655   1.163  0.1246 -0.3176 -0.1091
 4025SOL     OW15865   3.669   3.137   3.218  0.3470  0.0048 -0.0706
 4025SOL    HW215866   3.696   3.185   3.139  1.7478 -0.2722  0.2145
 4025SOL    HW315867   3.601   3.192   3.258  0.4125  0.6893 -0.8758
 4025SOL    MW415868   3.664   3.150   3.213  0.5405  0.0585 -0.1392
 4026SOL     OW15869   2.567   4.127   1.746 -0.2426 -0.6380 -0.0440
 4026SOL    HW215870   2.649   4.142   1.698 -0.8719  1.1372 -0.6335
 4026SOL    HW315871   2.516   4.070   1.689 -0.2047 -0.1169 -0.6130
 4026SOL    MW415872   2.571   4.121   1.732 -0.3206 -0.3350 -0.1969
 4027SOL     OW15873   3.447   3.931   4.597 -0.3746 -0.3386 -0.4424
 4027SOL    HW215874   3.529   3.976   4.575 -0.5927 -0.4447 -1.5593
 4027SOL    HW315875   3.399   3.928   4.514 -1.0791 -1.1611 -0.0182
 4027SOL    MW415876   3.452   3.936   4.583 -0.4963 -0.4611 -0.5338
 4028SOL     OW15877   6.284   1.566   4.933 -0.1744  0.3014 -0.1703
 4028SOL    HW215878   6.374   1.599   4.933  0.6354 -1.7287  0.5976
 4028SOL    HW315879   6.251   1.587   5.021 -0.9482  2.1235 -0.8336
 4028SOL    MW415880   6.292   1.573   4.945 -0.1696  0.2740 -0.1565
 4029SOL     OW15881   6.110   0.748   3.122 -0.5218 -0.7180  0.3035
 4029SOL    HW215882   6.058   0.828   3.110 -0.1369 -0.3036  1.2706
 4029SOL    HW315883   6.201   0.778   3.119 -0.3211 -1.3690 -0.9192
 4029SOL    MW415884   6.115   0.763   3.120 -0.4445 -0.7492  0.2698
 4030SOL     OW15885   3.470   2.683   1.035 -0.1080  0.1314  0.3140
 4030SOL    HW215886   3.499   2.593   1.021 -0.6588 -0.0776  0.4741
 4030SOL    HW315887   3.469   2.693   1.131 -1.8743 -0.3220  0.3753
 4030SOL    MW415888   3.473   2.673   1.046 -0.4138  0.0440  0.3432
 4031SOL     OW15889   6.194   2.730   4.853  0.1868  0.5253  0.2565
 4031SOL    HW215890   6.144   2.686   4.784  0.9666 -0.6477  0.4167
 4031SOL    HW315891   6.168   2.822   4.845 -0.1432  0.3414 -1.2549
 4031SOL    MW415892   6.184   2.736   4.843  0.2462  0.3463  0.0782
 4032SOL     OW15893   4.701   3.534   1.412  0.1832  0.9957 -0.2230
 4032SOL    HW215894   4.666   3.510   1.326  0.3069  0.9742 -0.2679
 4032SOL    HW315895   4.629   3.580   1.455  0.0167  0.7357 -0.2215
 4032SOL    MW415896   4.687   3.537   1.406  0.1776  0.9585 -0.2287
 4033SOL     OW15897   6.289   2.870   0.908 -0.1089  0.6433  0.1584
 4033SOL    HW215898   6.271   2.826   0.824 -0.0811  1.6323 -0.3827
 4033SOL    HW315899   6.384   2.861   0.920 -0.2805 -0.5712  0.7118
 4033SOL    MW415900   6.299   2.863   0.898 -0.1279  0.6135  0.1600
 4034SOL     OW15901   4.933   1.608   3.133 -0.2288  0.3183  0.2086
 4034SOL    HW215902   4.920   1.550   3.058  1.0894 -1.1228  1.0365
 4034SOL    HW315903   4.852   1.601   3.183 -1.1196  1.2883 -1.0353
 4034SOL    MW415904   4.921   1.599   3.129 -0.1724  0.2561  0.1537
 4035SOL     OW15905   6.302   4.913   0.208  0.1795 -0.5165  0.0855
 4035SOL    HW215906   6.383   4.946   0.247  0.7654 -0.5744 -1.0601
 4035SOL    HW315907   6.322   4.902   0.115 -1.9309  2.1140 -0.8235
 4035SOL    MW415908   6.316   4.916   0.201 -0.0216 -0.1771 -0.1856
 4036SOL     OW15909   5.170   0.377   1.297  0.4802 -0.2932 -0.3003
 4036SOL    HW215910   5.118   0.378   1.378  0.9950 -0.8486  0.0401
 4036SOL    HW315911   5.209   0.290   1.295 -0.6223 -0.7944 -1.8510
 4036SOL    MW415912   5.168   0.365   1.308  0.4027 -0.4326 -0.4600
 4037SOL     OW15913   2.016   2.386   5.749 -0.1288  0.0950  0.0324
 4037SOL    HW215914   1.960   2.460   5.725 -1.5933 -1.2034 -0.7498
 4037SOL    HW315915   2.046   2.406   5.837 -0.9964  1.3374  0.0691
 4037SOL    MW415916   2.012   2.398   5.757 -0.4365  0.0876 -0.0660
 4038SOL     OW15917   5.055   5.817   0.596  0.1453 -0.2591  0.6623
 4038SOL    HW215918   5.024   5.743   0.543  0.7791 -0.9821  1.2671
 4038SOL    HW315919   4.976   5.853   0.635 -0.2691 -0.0751 -0.3106
 4038SOL    MW415920   5.040   5.812   0.594  0.1742 -0.3302  0.6138
 4039SOL     OW15921   3.201   5.508   3.084 -0.4206 -0.8258 -0.1408
 4039SOL    HW215922   3.126   5.499   3.143  0.6951  2.4783  2.1314
 4039SOL    HW315923   3.163   5.529   2.999 -2.2682  2.5195  1.3210
 4039SOL    MW415924   3.186   5.510   3.081 -0.5172  0.0515  0.3518
 4040SOL     OW15925   0.664   1.820   1.550 -0.0525  0.1461  0.4825
 4040SOL    HW215926   0.727   1.807   1.478  0.0744 -0.1830  0.6491
 4040SOL    HW315927   0.629   1.908   1.536 -0.7916 -0.2944 -0.5770
 4040SOL    MW415928   0.668   1.830   1.538 -0.1333  0.0446  0.3647
 4041SOL     OW15929   5.336   4.479   2.337  0.0352 -0.1980 -1.0526
 4041SOL    HW215930   5.405   4.518   2.284  0.2922  0.3571 -0.3322
 4041SOL    HW315931   5.254   4.508   2.295  0.2321  0.1006 -1.2333
 4041SOL    MW415932   5.334   4.488   2.324  0.0951 -0.0854 -0.9814
 4042SOL     OW15933   0.298   4.637   2.538 -0.1916 -0.3787 -0.2526
 4042SOL    HW215934   0.226   4.692   2.506 -0.8617 -0.9288  0.2742
 4042SOL    HW315935   0.377   4.686   2.517 -0.5755 -0.6972 -2.8027
 4042SOL    MW415936   0.299   4.651   2.531 -0.3306 -0.4933 -0.5196
 4043SOL     OW15937   3.050   4.298   5.888  0.2149 -0.2826 -0.4556
 4043SOL    HW215938   3.132   4.291   5.936  0.3601  1.5364 -0.3869
 4043SOL    HW315939   2.983   4.307   5.956  0.0941 -0.4758 -0.5460
 4043SOL    MW415940   3.052   4.298   5.903  0.2181 -0.0681 -0.4585
 4044SOL     OW15941   3.255   4.191   4.953 -0.4163 -0.1580  0.2752
 4044SOL    HW215942   3.315   4.126   4.988 -0.0222 -0.3112 -0.6581
 4044SOL    HW315943   3.261   4.180   4.858 -1.5812  0.1270  0.1564
 4044SOL    MW415944   3.264   4.181   4.945 -0.5180 -0.1406  0.1364
 4045SOL     OW15945   5.061   3.361   3.692 -0.0298  0.2734 -0.0090
 4045SOL    HW215946   5.042   3.454   3.677  1.7918  0.5556 -0.9981
 4045SOL    HW315947   5.115   3.361   3.772  1.3658  0.3121 -0.9061
 4045SOL    MW415948   5.066   3.374   3.701  0.3947  0.3158 -0.2579
 4046SOL     OW15949   2.034   0.533   4.576  0.2353  0.2340 -0.1939
 4046SOL    HW215950   2.020   0.499   4.488  2.0746  1.5015 -1.0305
 4046SOL    HW315951   2.102   0.477   4.613  0.9071  0.9366 -0.3474
 4046SOL    MW415952   2.041   0.521   4.570  0.5666  0.4939 -0.3246
 4047SOL     OW15953   2.553   1.079   6.098 -0.1013 -0.2856 -0.3351
 4047SOL    HW215954   2.554   1.170   6.069 -1.3257 -0.0064  0.4579
 4047SOL    HW315955   2.633   1.041   6.060  0.0383  0.9101 -1.2890
 4047SOL    MW415956   2.564   1.086   6.089 -0.2444 -0.0910 -0.3563
 4048SOL     OW15957   4.257   6.030   3.801 -0.0525  0.3965  0.1135
 4048SOL    HW215958   4.294   6.116   3.785  0.4457 -0.0271 -1.2020
 4048SOL    HW315959   4.267   6.016   3.895  1.6739  0.9696  0.0522
 4048SOL    MW415960   4.264   6.039   3.811  0.2410  0.4162 -0.0682
 4049SOL     OW15961   0.038   2.592   5.272 -0.3426  0.1493  0.2175
 4049SOL    HW215962   0.105   2.527   5.294 -2.3010 -1.8388  0.6976
 4049SOL    HW315963  -0.036   2.571   5.330 -1.7439  1.6108 -0.9374
 4049SOL    MW415964   0.037   2.581   5.282 -0.7858  0.0798  0.1285
 4050SOL     OW15965   2.427   3.853   2.738 -0.5317  0.1467  0.0299
 4050SOL    HW215966   2.387   3.804   2.666 -1.6635  1.5985 -0.3700
 4050SOL    HW315967   2.476   3.923   2.696  1.4022 -0.8073  0.5845
 4050SOL    MW415968   2.428   3.856   2.723 -0.4259  0.2124  0.0503
 4051SOL     OW15969   0.920   4.051   4.550  0.0410  0.0257  0.1780
 4051SOL    HW215970   0.865   4.108   4.604  0.4559 -0.2695  0.9261
 4051SOL    HW315971   0.979   4.009   4.613 -0.6225 -1.6710 -0.2702
 4051SOL    MW415972   0.920   4.053   4.566  0.0082 -0.2371  0.2176
 4052SOL     OW15973   0.174   0.596   3.558  0.0574  0.1594  0.1794
 4052SOL    HW215974   0.080   0.580   3.566  0.1010 -0.2077 -0.0432
 4052SOL    HW315975   0.216   0.515   3.586  0.3993  1.1224  2.6580
 4052SOL    MW415976   0.167   0.583   3.562  0.1082  0.2380  0.4771
 4053SOL     OW15977   0.764   5.311   0.239  0.0919 -0.2923  0.4049
 4053SOL    HW215978   0.762   5.284   0.147 -0.9832  0.0298  0.3108
 4053SOL    HW315979   0.774   5.229   0.287 -3.5032 -1.0764  0.1376
 4053SOL    MW415980   0.765   5.296   0.233 -0.5243 -0.3533  0.3572
 4054SOL     OW15981   3.279   0.225   0.380 -0.4525 -0.5018 -0.3534
 4054SOL    HW215982   3.210   0.287   0.354 -0.0982 -0.1394 -0.4261
 4054SOL    HW315983   3.320   0.199   0.297  0.3530  0.2742 -0.2026
 4054SOL    MW415984   3.275   0.230   0.366 -0.2995 -0.3516 -0.3431
 4055SOL     OW15985   0.780   3.521   0.140 -0.4704 -0.0029 -0.3782
 4055SOL    HW215986   0.854   3.566   0.179  1.3229  0.3622 -3.7670
 4055SOL    HW315987   0.815   3.436   0.113 -2.1589 -1.0511  0.5574
 4055SOL    MW415988   0.794   3.516   0.141 -0.4566 -0.0930 -0.7018
 4056SOL     OW15989   1.566   5.345   0.556  0.4324  0.1943 -0.3519
 4056SOL    HW215990   1.533   5.339   0.645 -0.7582  0.7919 -0.7324
 4056SOL    HW315991   1.515   5.281   0.506  0.7851  0.1740 -0.6946
 4056SOL    MW415992   1.555   5.336   0.561  0.3219  0.2705 -0.4473
 4057SOL     OW15993   2.192   1.026   4.036 -0.2277 -0.2704 -0.2043
 4057SOL    HW215994   2.127   1.079   3.989  0.2088  0.7804  0.3432
 4057SOL    HW315995   2.253   1.090   4.072  1.1016 -1.2244 -0.6772
 4057SOL    MW415996   2.192   1.041   4.034  0.0053 -0.2577 -0.1944
 4058SOL     OW15997   4.760   6.012   3.561  0.2499 -0.2429 -0.4773
 4058SOL    HW215998   4.759   5.918   3.579  0.5094 -0.1138  0.2779
 4058SOL    HW315999   4.669   6.040   3.573  0.6662  0.1683  2.7308
 4058SOL    MW416000   4.748   6.004   3.565  0.3391 -0.1716  0.0456
 4059SOL     OW16001   6.411   2.005   2.721 -0.4729 -0.3331 -0.1515
 4059SOL    HW216002   6.488   1.965   2.680 -0.0328 -0.0560  0.3842
 4059SOL    HW316003   6.353   1.931   2.738 -0.5753 -0.4763 -1.0750
 4059SOL    MW416004   6.414   1.990   2.718 -0.4284 -0.3154 -0.2027
 4060SOL     OW16005   2.211   3.016   3.147 -0.0756 -0.2796  0.1583
 4060SOL    HW216006   2.142   2.953   3.127 -1.6793  0.7210  2.2084
 4060SOL    HW316007   2.275   2.966   3.197 -0.6549 -0.6197  0.5735
 4060SOL    MW416008   2.210   3.001   3.151 -0.3636 -0.1925  0.4835
 4061SOL     OW16009   6.297   3.804   4.101  0.2069 -0.5979 -0.5759
 4061SOL    HW216010   6.272   3.872   4.038  1.1523 -0.9544 -1.3669
 4061SOL    HW316011   6.236   3.732   4.085 -1.4553  0.3890  0.9472
 4061SOL    MW416012   6.286   3.803   4.091  0.1123 -0.5148 -0.4793
 4062SOL     OW16013   1.179   3.357   0.315  0.4700  0.2037  0.1428
 4062SOL    HW216014   1.159   3.440   0.272  0.3860  1.9099  3.2653
 4062SOL    HW316015   1.100   3.334   0.362 -0.0511 -2.5685 -1.8478
 4062SOL    MW416016   1.166   3.365   0.315  0.3902  0.0631  0.2921
 4063SOL     OW16017   2.143   4.957   3.634  0.4019 -0.3808 -0.0064
 4063SOL    HW216018   2.206   5.021   3.666 -0.5007  1.3844 -1.5225
 4063SOL    HW316019   2.102   4.921   3.713  0.9258  0.9516  0.9045
 4063SOL    MW416020   2.146   4.961   3.649  0.3519  0.0279 -0.0862
 4064SOL     OW16021   3.531   0.934   3.398 -0.1526 -0.4359 -0.4433
 4064SOL    HW216022   3.594   0.975   3.458  0.2657  0.1569 -1.2560
 4064SOL    HW316023   3.582   0.916   3.319 -1.1496  0.7340 -1.3972
 4064SOL    MW416024   3.546   0.937   3.395 -0.2289 -0.2033 -0.6764
 4065SOL     OW16025   4.940   4.410   5.114  0.5444 -0.0978 -0.0293
 4065SOL    HW216026   4.896   4.494   5.109 -0.1661 -0.4228  0.4205
 4065SOL    HW316027   4.902   4.368   5.192 -1.4181 -2.0938 -1.9028
 4065SOL    MW416028   4.929   4.415   5.124  0.1917 -0.4040 -0.2172
 4066SOL     OW16029   3.180   5.091   5.347  0.1277 -0.4546 -0.2621
 4066SOL    HW216030   3.272   5.078   5.369 -0.2173 -3.1286 -0.0495
 4066SOL    HW316031   3.153   5.167   5.398  1.7944 -0.6593  1.0018
 4066SOL    MW416032   3.188   5.099   5.357  0.3021 -0.8344 -0.0673
 4067SOL     OW16033   1.192   0.187   1.700 -0.0961 -0.3379  0.6354
 4067SOL    HW216034   1.266   0.133   1.673  0.7039  1.4245 -0.9253
 4067SOL    HW316035   1.222   0.232   1.778 -0.3771 -1.2775  1.3094
 4067SOL    MW416036   1.206   0.186   1.707 -0.0276 -0.2293  0.5184
 4068SOL     OW16037   0.906   0.735   1.248 -0.3700 -0.2318  0.5084
 4068SOL    HW216038   0.872   0.800   1.310 -1.4662 -0.3477  0.0372
 4068SOL    HW316039   0.965   0.681   1.301 -2.8681 -1.6452  2.0317
 4068SOL    MW416040   0.909   0.736   1.263 -0.8442 -0.4336  0.6472
 4069SOL     OW16041   5.745   4.610   3.842 -0.0722  0.7899  0.1183
 4069SOL    HW216042   5.679   4.559   3.794 -0.3473  1.4774 -0.2484
 4069SOL    HW316043   5.694   4.669   3.897  0.2414  1.0360  0.1463
 4069SOL    MW416044   5.730   4.611   3.843 -0.0671  0.9130  0.0736
 4070SOL     OW16045   1.736   3.051   4.510  1.1970  0.4147  0.0231
 4070SOL    HW216046   1.681   3.005   4.573 -0.6863  1.2375 -0.9523
 4070SOL    HW316047   1.808   2.990   4.492  0.1886 -1.0304  0.7319
 4070SOL    MW416048   1.738   3.037   4.516  0.8155  0.3326 -0.0121
 4071SOL     OW16049   1.760   3.587   4.614 -0.2277 -0.1254 -0.4006
 4071SOL    HW216050   1.800   3.519   4.560 -0.2499  0.4093 -1.0962
 4071SOL    HW316051   1.786   3.564   4.704 -1.4092 -1.8629 -0.4444
 4071SOL    MW416052   1.769   3.575   4.619 -0.3865 -0.2841 -0.4982
 4072SOL     OW16053   3.590   0.050   0.000  0.2050  0.6965  0.5153
 4072SOL    HW216054   3.680   0.057   0.031  0.2296 -0.6040  0.7798
 4072SOL    HW316055   3.537   0.083   0.073  0.4122  0.4174  0.7925
 4072SOL    MW416056   3.595   0.055   0.014  0.2356  0.4881  0.5868
 4073SOL     OW16057   6.365   3.263   2.500  0.3366 -0.1842  0.2378
 4073SOL    HW216058   6.323   3.227   2.578 -0.6896  1.7231  0.6234
 4073SOL    HW316059   6.425   3.330   2.533 -0.9664  1.4768 -0.5916
 4073SOL    MW416060   6.367   3.267   2.514  0.0293  0.2866  0.1792
 4074SOL     OW16061   3.975   4.207   4.225 -0.5572 -0.5358  0.0745
 4074SOL    HW216062   4.067   4.228   4.207 -0.5924  0.3200  0.8063
 4074SOL    HW316063   3.926   4.277   4.182 -0.8396 -0.7030  0.1248
 4074SOL    MW416064   3.981   4.219   4.217 -0.5991 -0.4449  0.1777
 4075SOL     OW16065   0.921   4.228   3.492  0.7137  0.3096 -0.4559
 4075SOL    HW216066   0.830   4.251   3.510  1.0575  1.0315  0.4421
 4075SOL    HW316067   0.939   4.155   3.551  1.4343  1.7868  1.2324
 4075SOL    MW416068   0.911   4.221   3.502  0.8541  0.5998 -0.1147
 4076SOL     OW16069   0.786   4.729   2.328  0.3641  0.1215 -0.1365
 4076SOL    HW216070   0.762   4.684   2.247  1.4471  0.5228 -0.7042
 4076SOL    HW316071   0.705   4.733   2.378  0.3860 -3.4041  0.4580
 4076SOL    MW416072   0.773   4.724   2.324  0.5099 -0.2907 -0.1330
 4077SOL     OW16073   5.765   3.759   4.383  0.1975  0.0905 -0.4088
 4077SOL    HW216074   5.699   3.749   4.314 -0.6776  0.2019  0.3875
 4077SOL    HW316075   5.716   3.793   4.458  0.6018 -2.2222  1.0312
 4077SOL    MW416076   5.750   3.762   4.384  0.1354 -0.1999 -0.1137
 4078SOL     OW16077   1.960   1.343   1.350 -0.0780 -0.7830  0.0053
 4078SOL    HW216078   1.969   1.260   1.303  1.9507 -0.6077 -0.0416
 4078SOL    HW316079   2.051   1.370   1.367 -0.6994  1.1589  0.4850
 4078SOL    MW416080   1.973   1.336   1.346  0.1076 -0.5037  0.0624
 4079SOL     OW16081   2.070   1.561   0.229  0.0735 -0.1980  0.5727
 4079SOL    HW216082   2.039   1.470   0.225  0.0392 -0.1704  0.1331
 4079SOL    HW316083   2.128   1.569   0.153  0.2283  0.0949  0.7203
 4079SOL    MW416084   2.074   1.550   0.218  0.0894 -0.1557  0.5342
 4080SOL     OW16085   2.397   3.213   5.414  0.2479 -0.4257  0.8197
 4080SOL    HW216086   2.464   3.275   5.387 -2.3635  2.7412  1.0629
 4080SOL    HW316087   2.374   3.166   5.334  1.4489 -0.2632  0.3592
 4080SOL    MW416088   2.403   3.215   5.400  0.0618  0.0136  0.7911
 4081SOL     OW16089   5.542   4.682   2.571  0.1069 -1.0117 -0.9876
 4081SOL    HW216090   5.463   4.631   2.591  0.2865 -0.8892  0.0985
 4081SOL    HW316091   5.581   4.636   2.496  0.7590 -3.0950  0.5119
 4081SOL    MW416092   5.537   4.669   2.563  0.2166 -1.2704 -0.6465
 4082SOL     OW16093   5.199   0.919   5.874 -1.0876 -0.2835 -0.0715
 4082SOL    HW216094   5.190   0.856   5.945  0.4566 -0.6448 -0.1700
 4082SOL    HW316095   5.285   0.959   5.887 -1.6943  1.2302 -0.4860
 4082SOL    MW416096   5.209   0.916   5.885 -0.9639 -0.1315 -0.1392
 4083SOL     OW16097   5.980   3.812   5.398 -0.2508 -0.1966  0.1561
 4083SOL    HW216098   6.017   3.844   5.316 -1.8974 -1.1471 -1.0212
 4083SOL    HW316099   5.955   3.721   5.379 -1.2170 -0.2403  1.5184
 4083SOL    MW416100   5.982   3.804   5.384 -0.5956 -0.3278  0.1805
 4084SOL     OW16101   2.888   5.793   5.803  0.2028 -0.0311  0.4179
 4084SOL    HW216102   2.841   5.779   5.885 -0.8053  1.1863  0.0910
 4084SOL    HW316103   2.942   5.871   5.820 -0.3046  0.4624 -0.1661
 4084SOL    MW416104   2.889   5.802   5.816  0.0028  0.1946  0.2977
 4085SOL     OW16105   1.661   5.448   1.569  0.5579 -0.2188 -0.4206
 4085SOL    HW216106   1.629   5.363   1.537  1.9902 -0.8281 -0.3270
 4085SOL    HW316107   1.615   5.461   1.652  1.3744 -1.6489  0.3057
 4085SOL    MW416108   1.651   5.438   1.576  0.8546 -0.4879 -0.3124
 4086SOL     OW16109   2.750   1.318   4.380 -0.0913  0.4013  0.1076
 4086SOL    HW216110   2.830   1.315   4.329  0.1829 -0.3318  0.5641
 4086SOL    HW316111   2.765   1.389   4.443  0.6328 -0.4104  0.8756
 4086SOL    MW416112   2.763   1.327   4.382  0.0404  0.1975  0.2692
 4087SOL     OW16113   0.994   6.408   1.752  0.2205  0.0106 -0.3803
 4087SOL    HW216114   0.949   6.434   1.832  3.0853  0.0062  1.3888
 4087SOL    HW316115   1.062   6.474   1.740  0.8823 -0.8872 -1.8905
 4087SOL    MW416116   0.997   6.420   1.761  0.6858 -0.1084 -0.3461
 4088SOL     OW16117   2.243   4.936   5.815 -0.4825 -0.2364 -0.0883
 4088SOL    HW216118   2.220   4.883   5.740 -0.5511  0.4976 -0.5962
 4088SOL    HW316119   2.185   5.012   5.810 -0.8892 -0.4539  1.0283
 4088SOL    MW416120   2.233   4.939   5.805 -0.5452 -0.1683 -0.0080
 4089SOL     OW16121   6.247   6.229   1.617  0.0491 -0.2189 -0.4244
 4089SOL    HW216122   6.188   6.156   1.635  1.4200 -0.5862  3.8649
 4089SOL    HW316123   6.191   6.307   1.618 -0.9176 -0.8859 -1.1896
 4089SOL    MW416124   6.232   6.230   1.620  0.1024 -0.3554  0.0405
 4090SOL     OW16125   0.560   1.990   2.995 -1.0501  0.4507 -0.0807
 4090SOL    HW216126   0.587   2.034   2.915 -1.5266 -0.4764 -0.7617
 4090SOL    HW316127   0.487   2.043   3.028  1.6419  3.2183  1.9889
 4090SOL    MW416128   0.554   2.003   2.989 -0.7578  0.6935  0.1025
 4091SOL     OW16129   0.749   3.333   2.431  0.2079  0.4409  0.1499
 4091SOL    HW216130   0.826   3.343   2.376  1.2018 -0.3831  1.3202
 4091SOL    HW316131   0.747   3.412   2.484  0.3345  0.4090  0.2040
 4091SOL    MW416132   0.759   3.344   2.431  0.3558  0.3280  0.3115
 4092SOL     OW16133   4.386   3.095   5.478  0.2772 -0.1932 -1.0261
 4092SOL    HW216134   4.377   3.180   5.436 -1.6661 -0.1550 -0.5964
 4092SOL    HW316135   4.301   3.079   5.519  1.3991 -1.2058  1.0473
 4092SOL    MW416136   4.374   3.104   5.478  0.1688 -0.3217 -0.6959
 4093SOL     OW16137   4.428   6.451   4.995  0.1391 -0.0081  0.1390
 4093SOL    HW216138   4.522   6.452   4.981 -0.0743 -0.1185 -1.3861
 4093SOL    HW316139   4.393   6.515   4.934 -0.8732 -0.7427 -0.0855
 4093SOL    MW416140   4.435   6.460   4.985 -0.0226 -0.1196 -0.0918
 4094SOL     OW16141   4.305   6.069   5.797 -0.7493 -0.3743  0.0258
 4094SOL    HW216142   4.370   6.038   5.860  0.9273  0.0225 -1.4177
 4094SOL    HW316143   4.266   6.146   5.839 -0.8270 -1.0463  1.2287
 4094SOL    MW416144   4.309   6.075   5.811 -0.5383 -0.4106 -0.0059
 4095SOL     OW16145   3.894   4.407   5.983  0.3405 -0.0437 -0.2846
 4095SOL    HW216146   3.824   4.343   5.998 -0.4621  0.9772  0.4602
 4095SOL    HW316147   3.862   4.460   5.910  0.3878  0.3500 -0.0215
 4095SOL    MW416148   3.880   4.405   5.975  0.2409  0.1429 -0.1516
 4096SOL     OW16149   4.526   4.055   3.222  1.0397 -0.5708 -0.4979
 4096SOL    HW216150   4.561   4.028   3.307  0.2901 -1.0157 -0.3212
 4096SOL    HW316151   4.433   4.034   3.227  0.5221  1.5423 -0.5735
 4096SOL    MW416152   4.519   4.048   3.234  0.8725 -0.3507 -0.4846
 4097SOL     OW16153   3.237   4.945   5.793  0.1513 -0.6727 -0.6332
 4097SOL    HW216154   3.143   4.963   5.799 -0.1400 -1.1256 -2.9835
 4097SOL    HW316155   3.242   4.857   5.757  1.5160 -0.8343 -0.1115
 4097SOL    MW416156   3.225   4.936   5.789  0.2930 -0.7538 -0.8744
 4098SOL     OW16157   4.459   5.188   3.514 -0.2280  0.2639  0.2373
 4098SOL    HW216158   4.392   5.243   3.556  0.8378  2.1668 -0.4444
 4098SOL    HW316159   4.484   5.125   3.582 -0.2350  1.7476  1.6741
 4098SOL    MW416160   4.453   5.187   3.528 -0.0883  0.7107  0.3369
 4099SOL     OW16161   3.624   5.634   4.656  0.1313 -0.1155 -0.0359
 4099SOL    HW216162   3.584   5.565   4.708 -1.3705  1.3392  0.8266
 4099SOL    HW316163   3.615   5.713   4.709  1.7206  0.7888 -1.0239
 4099SOL    MW416164   3.618   5.636   4.670  0.1429  0.1958 -0.0525
 4100SOL     OW16165   6.123   0.561   4.645  0.5420  0.5972  0.1579
 4100SOL    HW216166   6.193   0.626   4.647  0.4523  0.7128 -0.3924
 4100SOL    HW316167   6.091   0.562   4.555  0.2445  0.1040  0.2517
 4100SOL    MW416168   6.128   0.569   4.633  0.4909  0.5474  0.0977
 4101SOL     OW16169   2.048   4.218   1.781  0.2756 -0.4525  0.4347
 4101SOL    HW216170   2.024   4.305   1.748  0.8838  0.0758  1.3414
 4101SOL    HW316171   2.139   4.228   1.810 -0.6514 -0.4417  3.6540
 4101SOL    MW416172   2.057   4.231   1.781  0.2336 -0.3814  0.9791
 4102SOL     OW16173   4.940   0.999   3.118  0.3773  0.3596 -0.1033
 4102SOL    HW216174   5.002   1.009   3.190  0.2536 -2.3668  0.4779
 4102SOL    HW316175   4.858   0.975   3.160 -0.4026  1.3103 -1.0341
 4102SOL    MW416176   4.937   0.997   3.133  0.2581  0.1254 -0.1494
 4103SOL     OW16177   1.921   5.296   3.200  0.0032  0.2027 -0.1866
 4103SOL    HW216178   1.917   5.294   3.104 -0.6717  2.6910 -0.2610
 4103SOL    HW316179   2.005   5.337   3.220  0.7704 -1.5427  0.3629
 4103SOL    MW416180   1.932   5.301   3.190  0.0154  0.3008 -0.1239
 4104SOL     OW16181   0.552   5.155   4.304  0.3503 -0.1078  0.5924
 4104SOL    HW216182   0.582   5.232   4.352  0.1133  0.5664 -0.3111
 4104SOL    HW316183   0.521   5.095   4.372 -0.7285  1.1413  1.2526
 4104SOL    MW416184   0.552   5.157   4.319  0.1767  0.1459  0.5603
 4105SOL     OW16185   1.126   2.844   6.266  0.3382  0.1489 -0.2477
 4105SOL    HW216186   1.137   2.763   6.216 -0.3059 -0.6546  0.8778
 4105SOL    HW316187   1.211   2.887   6.260  0.3352 -0.0017 -1.8668
 4105SOL    MW416188   1.139   2.839   6.259  0.2528  0.0230 -0.3128
 4106SOL     OW16189   2.047   2.281   0.618  0.3018 -0.5197  0.5544
 4106SOL    HW216190   1.997   2.316   0.692  0.2186  0.7822 -0.0975
 4106SOL    HW316191   2.058   2.188   0.639  0.0142 -0.2454  2.0509
 4106SOL    MW416192   2.042   2.274   0.631  0.2529 -0.3117  0.6658
 4107SOL     OW16193   0.505   6.443   6.400 -0.0256 -0.1609 -0.3726
 4107SOL    HW216194   0.482   6.351   6.388 -0.9546  0.0142 -0.0327
 4107SOL    HW316195   0.532   6.473   6.313  0.3561 -0.7697 -0.4686
 4107SOL    MW416196   0.505   6.435   6.387 -0.0978 -0.2181 -0.3404
 4108SOL     OW16197   6.204   5.777   5.143 -0.1065 -0.1035  0.0884
 4108SOL    HW216198   6.233   5.860   5.105  0.3986 -0.5115 -0.4404
 4108SOL    HW316199   6.131   5.749   5.088 -1.6682  0.9994  1.5119
 4108SOL    MW416200   6.199   5.784   5.131 -0.2459 -0.0118  0.2064
 4109SOL     OW16201   6.260   3.679   1.220 -0.7556 -0.0920 -0.5034
 4109SOL    HW216202   6.264   3.732   1.300 -1.5276 -0.7049 -0.0416
 4109SOL    HW316203   6.213   3.600   1.246 -2.3371  0.3201 -1.8903
 4109SOL    MW416204   6.254   3.676   1.234 -1.0661 -0.1185 -0.6255
 4110SOL     OW16205   3.659   5.568   5.377  0.0851 -0.1413 -0.1965
 4110SOL    HW216206   3.723   5.632   5.407 -1.4349  1.6521 -0.5855
 4110SOL    HW316207   3.704   5.520   5.308  2.4344 -1.9410  2.3681
 4110SOL    MW416208   3.673   5.570   5.372  0.1945 -0.1421  0.0905
 4111SOL     OW16209   1.409   5.164   1.275 -0.4025  0.0243 -0.2586
 4111SOL    HW216210   1.324   5.173   1.318 -0.0396 -1.1073  0.7819
 4111SOL    HW316211   1.419   5.069   1.262  0.5959  0.1621 -0.5881
 4111SOL    MW416212   1.399   5.153   1.279 -0.2229 -0.1068 -0.1648
 4112SOL     OW16213   2.960   4.813   4.799  0.1769  0.4170  0.0673
 4112SOL    HW216214   3.013   4.747   4.754 -0.1723 -0.7406  1.2746
 4112SOL    HW316215   2.905   4.851   4.731 -1.1917 -2.1108 -0.3563
 4112SOL    MW416216   2.960   4.810   4.784 -0.0497 -0.0692  0.1707
 4113SOL     OW16217   1.133   2.424   2.009  0.0751  0.4895 -0.7333
 4113SOL    HW216218   1.155   2.390   2.096  0.6840  0.6019 -0.8394
 4113SOL    HW316219   1.213   2.412   1.957 -0.8822 -1.4109 -1.8701
 4113SOL    MW416220   1.147   2.418   2.014  0.0291  0.2536 -0.8972
 4114SOL     OW16221   0.779   5.308   4.917 -0.3422  0.4955  0.1981
 4114SOL    HW216222   0.810   5.389   4.958  0.3385 -0.6603  2.0634
 4114SOL    HW316223   0.858   5.259   4.896 -0.7579  0.0620 -0.3872
 4114SOL    MW416224   0.793   5.312   4.920 -0.3072  0.2858  0.3670
 4115SOL     OW16225   2.807   0.870   2.125 -0.4112 -0.2683  0.7116
 4115SOL    HW216226   2.897   0.898   2.142 -0.9318  0.9678  1.6419
 4115SOL    HW316227   2.778   0.927   2.053  0.0517 -1.8178 -0.7725
 4115SOL    MW416228   2.815   0.881   2.118 -0.4189 -0.3097  0.6385
 4116SOL     OW16229   0.215   5.672   1.077 -0.2328 -0.0346  0.0545
 4116SOL    HW216230   0.123   5.695   1.080  0.1918  2.0564 -1.1230
 4116SOL    HW316231   0.228   5.633   0.991 -0.0828 -0.7485  0.3903
 4116SOL    MW416232   0.205   5.670   1.066 -0.1570  0.1471 -0.0565
 4117SOL     OW16233   3.811   5.091   3.698 -0.2392 -0.2590 -0.4199
 4117SOL    HW216234   3.799   5.003   3.733 -0.1955 -0.2735 -0.4418
 4117SOL    HW316235   3.722   5.122   3.680 -0.2671 -0.1989 -0.1694
 4117SOL    MW416236   3.797   5.084   3.700 -0.2371 -0.2530 -0.3897
 4118SOL     OW16237   4.845   2.254   2.294  0.0106 -0.2060 -0.0823
 4118SOL    HW216238   4.842   2.230   2.387 -0.1745 -1.5170 -0.3981
 4118SOL    HW316239   4.774   2.204   2.254 -1.5155  2.2352 -0.5639
 4118SOL    MW416240   4.835   2.244   2.301 -0.2152 -0.0568 -0.1875
 4119SOL     OW16241   0.157   3.462   1.034  0.4295  0.1042  0.6708
 4119SOL    HW216242   0.161   3.558   1.036 -0.2256  0.1520 -0.1369
 4119SOL    HW316243   0.180   3.436   1.123  3.6545  0.8899  0.1995
 4119SOL    MW416244   0.161   3.471   1.046  0.7685  0.2142  0.5020
 4120SOL     OW16245   3.477   4.302   1.728  0.3553  0.3889  0.6119
 4120SOL    HW216246   3.443   4.276   1.643  0.5594 -1.4203  1.0551
 4120SOL    HW316247   3.483   4.221   1.778  0.4502  1.3774  2.2869
 4120SOL    MW416248   3.473   4.288   1.724  0.3948  0.2806  0.8913
 4121SOL     OW16249   6.160   3.483   5.255  0.0270  0.0919 -0.0016
 4121SOL    HW216250   6.255   3.469   5.261 -0.0004 -0.4202 -0.6794
 4121SOL    HW316251   6.122   3.406   5.298 -0.0922  0.2869  0.2505
 4121SOL    MW416252   6.168   3.471   5.262  0.0076  0.0501 -0.0578
 4122SOL     OW16253   6.161   6.433   2.613  0.3712 -0.1526  0.2345
 4122SOL    HW216254   6.081   6.459   2.659 -0.1021 -0.7071 -0.2533
 4122SOL    HW316255   6.232   6.460   2.671 -0.1894 -0.1891  0.9541
 4122SOL    MW416256   6.159   6.440   2.627  0.2348 -0.2306  0.2651
 4123SOL     OW16257   3.765   3.794   3.982  0.1194  0.3018  0.0227
 4123SOL    HW216258   3.798   3.706   3.962 -0.1760  0.2606 -0.2806
 4123SOL    HW316259   3.836   3.834   4.033  0.1968 -0.1586  0.2880
 4123SOL    MW416260   3.779   3.788   3.986  0.0907  0.2356  0.0177
 4124SOL     OW16261   2.024   0.115   5.858 -0.1387 -1.1041 -0.2370
 4124SOL    HW216262   2.083   0.042   5.841 -0.3553 -1.1785 -0.6695
 4124SOL    HW316263   2.071   0.192   5.828 -0.1055 -1.1199 -0.2252
 4124SOL    MW416264   2.038   0.115   5.852 -0.1629 -1.1160 -0.2925
 4125SOL     OW16265   4.133   5.763   2.531  0.3176  0.4386  0.3167
 4125SOL    HW216266   4.210   5.783   2.585  0.8035 -1.0485  0.2046
 4125SOL    HW316267   4.169   5.743   2.445 -0.2891  0.6808  0.0023
 4125SOL    MW416268   4.148   5.763   2.527  0.3017  0.2743  0.2604
 4126SOL     OW16269   2.347   1.877   1.724  0.0382  0.2835  0.4167
 4126SOL    HW216270   2.252   1.884   1.725 -0.0379 -0.6375  0.4377
 4126SOL    HW316271   2.364   1.783   1.718  0.9831  0.1609  3.5933
 4126SOL    MW416272   2.337   1.866   1.723  0.1529  0.1458  0.8386
 4127SOL     OW16273   0.353   0.284   3.343  0.0444 -0.3992  0.4080
 4127SOL    HW216274   0.276   0.246   3.302 -0.1243 -0.5385  0.8465
 4127SOL    HW316275   0.328   0.296   3.434  0.3782  0.0076  0.4494
 4127SOL    MW416276   0.340   0.281   3.349  0.0662 -0.3639  0.4713
 4128SOL     OW16277   4.890   3.802   0.800  0.2868  0.0068 -0.3850
 4128SOL    HW216278   4.796   3.794   0.816  0.6223 -1.2619  1.2192
 4128SOL    HW316279   4.914   3.885   0.839  0.1013 -0.4608  0.7566
 4128SOL    MW416280   4.881   3.812   0.807  0.3066 -0.2223 -0.0228
 4129SOL     OW16281   0.036   5.917   0.439 -0.1811  0.5489 -0.1411
 4129SOL    HW216282   0.097   5.851   0.408  1.8391  0.6891  3.0431
 4129SOL    HW316283  -0.050   5.874   0.437  0.7205 -1.3263 -0.3708
 4129SOL    MW416284   0.032   5.903   0.435  0.2044  0.3200  0.2487
 4130SOL     OW16285   1.947   5.283   4.696 -0.1797  0.1296  0.3588
 4130SOL    HW216286   1.957   5.255   4.605  0.9381 -0.5777  0.6730
 4130SOL    HW316287   1.980   5.373   4.697  0.2844 -0.0324  0.1499
 4130SOL    MW416288   1.953   5.291   4.684  0.0290  0.0149  0.3727
 4131SOL     OW16289   4.597   4.842   5.501 -0.2392 -0.3822  0.1345
 4131SOL    HW216290   4.660   4.780   5.464  1.0535  0.4537  0.8712
 4131SOL    HW316291   4.612   4.839   5.595 -1.4593 -0.3217  0.3470
 4131SOL    MW416292   4.607   4.834   5.509 -0.2296 -0.2639  0.2598
 4132SOL     OW16293   4.101   4.068   1.355  1.0665 -0.5409  0.1636
 4132SOL    HW216294   4.074   4.159   1.341  0.4239 -0.9854 -1.8691
 4132SOL    HW316295   4.188   4.063   1.315  0.2825 -1.2498 -1.5281
 4132SOL    MW416296   4.109   4.079   1.348  0.8783 -0.6931 -0.3278
 4133SOL     OW16297   1.839   1.857   4.423  0.3670 -0.4143 -0.6558
 4133SOL    HW216298   1.806   1.906   4.499  1.3006  1.7100 -1.5345
 4133SOL    HW316299   1.934   1.871   4.426  0.5416 -1.2918 -1.5927
 4133SOL    MW416300   1.847   1.865   4.434  0.5132 -0.2498 -0.8954
 4134SOL     OW16301   1.950   2.035   2.628 -0.4013  0.1399  0.3244
 4134SOL    HW216302   1.943   1.957   2.573 -1.3383 -0.7406  1.6271
 4134SOL    HW316303   2.044   2.046   2.642 -0.2330 -0.4708 -0.2627
 4134SOL    MW416304   1.962   2.026   2.623 -0.5027 -0.0569  0.4188
 4135SOL     OW16305   5.547   1.557   2.403  0.1121 -0.0837  0.5026
 4135SOL    HW216306   5.506   1.629   2.450 -0.1138  0.1255 -0.0126
 4135SOL    HW316307   5.633   1.547   2.445  0.4738  1.0188  0.0482
 4135SOL    MW416308   5.553   1.565   2.415  0.1300  0.0894  0.3747
 4136SOL     OW16309   3.448   0.258   1.417  0.3105 -0.7604  0.1718
 4136SOL    HW216310   3.364   0.234   1.377  0.3036 -0.2503 -0.1329
 4136SOL    HW316311   3.491   0.312   1.351  0.0598  0.5674  1.0586
 4136SOL    MW416312   3.442   0.262   1.403  0.2765 -0.5179  0.2486
 4137SOL     OW16313   2.896   1.083   3.041  0.3504  0.0846 -0.1129
 4137SOL    HW216314   2.951   1.095   2.964 -0.4887  0.6025 -0.6449
 4137SOL    HW316315   2.951   1.108   3.114  0.1996  2.6357 -0.7862
 4137SOL    MW416316   2.911   1.088   3.040  0.2198  0.4895 -0.2719
 4138SOL     OW16317   0.509   4.812   6.042 -0.7636  0.0872 -0.3443
 4138SOL    HW216318   0.596   4.773   6.049 -1.4370 -1.0779  3.2385
 4138SOL    HW316319   0.524   4.907   6.049  0.2012 -0.1217  0.5147
 4138SOL    MW416320   0.522   4.820   6.044 -0.7252 -0.0941  0.2417
 4139SOL     OW16321   6.178   1.289   5.881  0.3732 -0.4763 -0.4095
 4139SOL    HW216322   6.195   1.344   5.957 -2.6704  2.0515 -1.3409
 4139SOL    HW316323   6.236   1.325   5.813 -0.7743  0.9204 -0.6948
 4139SOL    MW416324   6.188   1.301   5.882 -0.1798  0.0415 -0.5700
 4140SOL     OW16325   0.072   6.177   1.717 -0.3494  0.2992 -0.0847
 4140SOL    HW216326   0.139   6.244   1.729  1.4107 -1.5172  0.8382
 4140SOL    HW316327  -0.003   6.225   1.682  0.6289  2.8089  0.9692
 4140SOL    MW416328   0.071   6.192   1.714  0.0119  0.3907  0.1761
 4141SOL     OW16329   0.995   4.234   5.161  0.0491  0.6555  0.6791
 4141SOL    HW216330   1.054   4.297   5.121 -0.1079  1.1745  1.2449
 4141SOL    HW316331   0.918   4.232   5.104  1.6709 -2.1631 -1.7183
 4141SOL    MW416332   0.993   4.242   5.149  0.2423  0.3521  0.4375
 4142SOL     OW16333   0.753   2.624   3.013  0.0544 -0.1929  0.1776
 4142SOL    HW216334   0.753   2.643   3.107  2.5483  0.7902  0.0605
 4142SOL    HW316335   0.772   2.708   2.971  1.1111 -0.9937 -1.0520
 4142SOL    MW416336   0.756   2.637   3.020  0.5229 -0.1688 -0.0001
 4143SOL     OW16337   2.484   3.513   1.154 -0.2026  0.3852  0.5174
 4143SOL    HW216338   2.433   3.439   1.122  1.2092  0.2842 -1.7057
 4143SOL    HW316339   2.575   3.485   1.147  0.3255  1.9925  0.4932
 4143SOL    MW416340   2.489   3.500   1.149  0.0534  0.5839  0.2209
 4144SOL     OW16341   6.404   2.844   5.389 -0.9566  0.0769  0.3633
 4144SOL    HW216342   6.335   2.859   5.325 -0.2483  1.7792 -0.0629
 4144SOL    HW316343   6.468   2.789   5.343 -0.4810  1.2394 -0.3928
 4144SOL    MW416344   6.404   2.838   5.374 -0.8004  0.4548  0.2073
 4145SOL     OW16345   4.469   3.171   6.300  0.4963 -0.3751  0.0180
 4145SOL    HW216346   4.459   3.263   6.272 -0.8815 -0.7758 -0.9020
 4145SOL    HW316347   4.433   3.169   6.388  0.3947 -0.0586 -0.0127
 4145SOL    MW416348   4.463   3.183   6.308  0.3011 -0.3862 -0.1074
 4146SOL     OW16349   5.243   3.889   1.542  0.7414  0.1729  0.5172
 4146SOL    HW216350   5.304   3.924   1.478  1.9001 -1.6961  0.5206
 4146SOL    HW316351   5.228   3.798   1.514 -1.6794  0.4216  0.8028
 4146SOL    MW416352   5.249   3.881   1.530  0.5749 -0.0409  0.5553
 4147SOL     OW16353   6.286   2.462   2.235 -0.1944 -0.1735 -0.0641
 4147SOL    HW216354   6.267   2.550   2.203  0.4261  0.1157  0.3697
 4147SOL    HW316355   6.260   2.405   2.162  0.9872  0.4647 -1.0213
 4147SOL    MW416356   6.280   2.466   2.221  0.0433 -0.0511 -0.1332
 4148SOL     OW16357   2.422   3.980   3.521  0.0358  0.4884  0.3599
 4148SOL    HW216358   2.500   4.028   3.551  0.2538  0.7421 -0.5600
 4148SOL    HW316359   2.363   4.048   3.490 -0.2242  0.2434  0.3196
 4148SOL    MW416360   2.425   3.996   3.521  0.0302  0.4896  0.2332
 4149SOL     OW16361   5.088   2.343   2.205  0.2876 -0.4387  0.3424
 4149SOL    HW216362   5.005   2.330   2.251 -1.1059  1.5157 -1.3972
 4149SOL    HW316363   5.122   2.425   2.240  1.0976 -0.8180  0.4643
 4149SOL    MW416364   5.081   2.352   2.216  0.2106 -0.2309  0.1289
 4150SOL     OW16365   6.305   5.055   1.612  0.0037  0.0158  0.2544
 4150SOL    HW216366   6.362   4.998   1.560 -1.3520  0.1271 -1.4328
 4150SOL    HW316367   6.363   5.124   1.644  0.6197  1.1144 -2.8673
 4150SOL    MW416368   6.320   5.056   1.610 -0.0939  0.1754 -0.3801
 4151SOL     OW16369   2.329   2.935   0.290  0.0173 -0.1523  0.0454
 4151SOL    HW216370   2.329   3.013   0.234 -0.3664  0.6535  1.1473
 4151SOL    HW316371   2.422   2.914   0.301  0.1101 -0.1184 -0.5986
 4151SOL    MW416372   2.341   2.943   0.284 -0.0211 -0.0415  0.1058
 4152SOL     OW16373   5.898   1.577   2.206  0.9824 -0.1373  0.0526
 4152SOL    HW216374   5.861   1.587   2.118 -2.4980 -0.7446  1.2918
 4152SOL    HW316375   5.863   1.651   2.256  1.0368 -1.0134  1.4512
 4152SOL    MW416376   5.889   1.588   2.201  0.5304 -0.3330  0.4006
 4153SOL     OW16377   3.041   2.628   5.643  0.0463  0.0627 -0.0731
 4153SOL    HW216378   3.117   2.571   5.654 -0.0872 -0.1555 -0.2913
 4153SOL    HW316379   3.068   2.690   5.575 -0.4553 -0.8570 -1.1494
 4153SOL    MW416380   3.054   2.629   5.636 -0.0375 -0.0875 -0.2439
 4154SOL     OW16381   2.024   3.921   6.385  0.6204  0.5259 -0.1565
 4154SOL    HW216382   2.103   3.952   6.430  0.2929 -0.7100  1.3691
 4154SOL    HW316383   2.006   3.988   6.319  3.3360  0.5054 -1.0628
 4154SOL    MW416384   2.032   3.934   6.382  0.9355  0.3601 -0.0748
 4155SOL     OW16385   1.869   3.794   2.925  0.1353  0.5270  0.5128
 4155SOL    HW216386   1.924   3.840   2.989  0.8112 -1.2259  1.2632
 4155SOL    HW316387   1.929   3.735   2.879 -0.6822  0.4186 -0.4623
 4155SOL    MW416388   1.884   3.792   2.927  0.1166  0.2814  0.4832
 4156SOL     OW16389   0.158   1.487   5.929  0.0457 -0.5968  0.5608
 4156SOL    HW216390   0.217   1.412   5.921 -0.2371 -0.6405 -2.2278
 4156SOL    HW316391   0.183   1.528   6.011  2.3021 -1.9893  0.6750
 4156SOL    MW416392   0.169   1.482   5.938  0.3061 -0.7863  0.2079
 4157SOL     OW16393   2.894   0.909   5.360 -0.5433 -0.0761  0.0077
 4157SOL    HW216394   2.834   0.916   5.286  0.2247  1.3950 -0.5211
 4157SOL    HW316395   2.945   0.830   5.342 -0.0520  0.4997 -1.3079
 4157SOL    MW416396   2.893   0.899   5.348 -0.3772  0.1940 -0.2356
 4158SOL     OW16397   3.562   3.676   2.758 -0.1077  0.1211  0.4731
 4158SOL    HW216398   3.609   3.611   2.811 -1.2674 -0.0823  1.2789
 4158SOL    HW316399   3.631   3.720   2.708  0.7273 -1.6140  0.0266
 4158SOL    MW416400   3.577   3.673   2.759 -0.1505 -0.1347  0.5205
 4159SOL     OW16401   3.387   1.123   1.937 -0.0986  0.5649 -0.2230
 4159SOL    HW216402   3.308   1.069   1.933 -0.3434  0.9322 -0.3215
 4159SOL    HW316403   3.427   1.112   1.850  0.9347 -1.0724  0.3935
 4159SOL    MW416404   3.382   1.114   1.925  0.0054  0.3973 -0.1547
 4160SOL     OW16405   2.804   0.962   3.395  0.3657 -0.7393  0.3243
 4160SOL    HW216406   2.735   0.961   3.329  0.8390 -0.3258 -0.1793
 4160SOL    HW316407   2.873   1.017   3.358  1.0819 -1.3566  0.7061
 4160SOL    MW416408   2.804   0.969   3.381  0.5227 -0.7662  0.3082
 4161SOL     OW16409   3.193   5.675   0.501 -0.2239 -0.1282  0.1958
 4161SOL    HW216410   3.252   5.726   0.446  0.7993  0.5739  1.8576
 4161SOL    HW316411   3.232   5.588   0.504  0.4921  0.1987  0.8734
 4161SOL    MW416412   3.206   5.670   0.494  0.0055  0.0076  0.5045
 4162SOL     OW16413   3.082   3.236   4.198  0.6678 -0.6842 -0.2667
 4162SOL    HW216414   3.072   3.193   4.113 -1.4280 -1.3562  0.2493
 4162SOL    HW316415   2.995   3.273   4.216  1.5757  1.0640  0.7561
 4162SOL    MW416416   3.069   3.235   4.189  0.5111 -0.5422 -0.0637
 4163SOL     OW16417   3.034   3.264   6.212 -0.6522  0.1606 -0.5670
 4163SOL    HW216418   3.000   3.186   6.256 -0.1774  0.5837  0.5835
 4163SOL    HW316419   2.955   3.312   6.184 -0.9467 -0.5782 -1.0378
 4163SOL    MW416420   3.019   3.260   6.214 -0.6284  0.1189 -0.4773
 4164SOL     OW16421   4.470   4.068   3.964 -0.0261  0.5388 -0.0005
 4164SOL    HW216422   4.500   4.117   3.888  2.1041 -0.2228  0.2845
 4164SOL    HW316423   4.379   4.045   3.944  0.0287  1.6024 -1.6349
 4164SOL    MW416424   4.462   4.071   3.952  0.2622  0.5786 -0.1785
 4165SOL     OW16425   4.113   5.726   4.902  0.1726 -0.2211  0.2001
 4165SOL    HW216426   4.068   5.764   4.827  2.1659 -0.1939 -1.0489
 4165SOL    HW316427   4.082   5.635   4.906  0.4357 -0.3847 -1.0249
 4165SOL    MW416428   4.103   5.719   4.893  0.4703 -0.2391 -0.1263
 4166SOL     OW16429   6.341   0.424   2.313 -0.6952 -0.4270  0.1872
 4166SOL    HW216430   6.426   0.381   2.322 -0.1090  0.3725 -1.1073
 4166SOL    HW316431   6.298   0.410   2.397  0.7732 -0.7311  0.9324
 4166SOL    MW416432   6.347   0.417   2.325 -0.4242 -0.3616  0.1147
 4167SOL     OW16433   1.912   0.281   4.819 -0.3311  0.0125 -0.3586
 4167SOL    HW216434   1.839   0.327   4.860 -0.1761  0.0810 -0.1583
 4167SOL    HW316435   1.875   0.196   4.793 -0.6750  0.3306 -0.9288
 4167SOL    MW416436   1.897   0.275   4.821 -0.3560  0.0635 -0.4074
 4168SOL     OW16437   2.297   2.029   1.951  0.3395  0.2709  0.1427
 4168SOL    HW216438   2.310   1.946   1.905  0.7414  0.2750  0.2465
 4168SOL    HW316439   2.219   2.067   1.910  2.1395  1.5177 -2.3473
 4168SOL    MW416440   2.288   2.023   1.940  0.6300  0.4360 -0.1721
 4169SOL     OW16441   0.187   6.097   3.196  0.1758 -0.5228  0.7339
 4169SOL    HW216442   0.127   6.039   3.243  0.4234 -1.1476  0.2879
 4169SOL    HW316443   0.146   6.109   3.110  0.7305 -1.0375  0.3884
 4169SOL    MW416444   0.174   6.091   3.191  0.2817 -0.6731  0.6295
 4170SOL     OW16445   5.357   5.458   0.621 -0.4824  0.4605 -0.6145
 4170SOL    HW216446   5.452   5.469   0.622 -0.4686  0.3947 -1.0270
 4170SOL    HW316447   5.340   5.397   0.549 -0.9333  1.5237 -1.4410
 4170SOL    MW416448   5.367   5.451   0.612 -0.5401  0.5921 -0.7780
 4171SOL     OW16449   6.318   4.297   0.010  0.1550  0.0833 -0.3310
 4171SOL    HW216450   6.367   4.273  -0.068  2.1385 -0.4213  0.9718
 4171SOL    HW316451   6.299   4.390   0.000  1.6176  0.3584 -0.8239
 4171SOL    MW416452   6.322   4.306  -0.001  0.6097  0.0530 -0.2242
 4172SOL     OW16453   2.876   5.825   3.670  0.1035 -0.0613 -0.4385
 4172SOL    HW216454   2.851   5.906   3.714 -0.3158 -0.7879  0.7161
 4172SOL    HW316455   2.850   5.755   3.731  0.8861 -1.0455 -1.1888
 4172SOL    MW416456   2.869   5.826   3.684  0.1514 -0.2870 -0.3852
 4173SOL     OW16457   3.125   5.699   1.794  0.1309 -0.3903  0.1269
 4173SOL    HW216458   3.190   5.652   1.846 -1.1262 -0.7120  1.4686
 4173SOL    HW316459   3.174   5.771   1.753  1.6792 -1.6954 -0.4038
 4173SOL    MW416460   3.140   5.702   1.795  0.1693 -0.6050  0.2339
 4174SOL     OW16461   4.649   5.597   4.631  0.0228  0.6844  0.0506
 4174SOL    HW216462   4.565   5.555   4.647  1.0782 -1.8155 -0.5562
 4174SOL    HW316463   4.690   5.605   4.717 -0.1821  0.4247  0.1720
 4174SOL    MW416464   4.643   5.593   4.644  0.1350  0.3203 -0.0134
 4175SOL     OW16465   0.845   1.798   3.624 -0.0625  0.1031  0.4796
 4175SOL    HW216466   0.754   1.768   3.614 -1.0629  2.6555  1.0552
 4175SOL    HW316467   0.862   1.791   3.718  0.6858 -1.2008  0.2631
 4175SOL    MW416468   0.835   1.793   3.635 -0.0957  0.2678  0.5270
 4176SOL     OW16469   5.812   0.296   3.287  0.0575 -0.2562 -0.6361
 4176SOL    HW216470   5.792   0.303   3.380  0.4102 -3.6492 -0.1738
 4176SOL    HW316471   5.862   0.375   3.267 -1.5818  1.4593  1.5595
 4176SOL    MW416472   5.816   0.307   3.297 -0.1122 -0.4775 -0.2854
 4177SOL     OW16473   5.562   4.772   1.351  0.0451 -0.0887  0.1682
 4177SOL    HW216474   5.645   4.798   1.392  0.4414 -0.4716 -0.3629
 4177SOL    HW316475   5.495   4.821   1.398  0.7482  1.8818 -0.7573
 4177SOL    MW416476   5.564   4.782   1.363  0.1902  0.1208 -0.0240
 4178SOL     OW16477   5.245   5.694   0.781 -0.7996 -0.2058 -0.1310
 4178SOL    HW216478   5.194   5.744   0.717 -0.1691  2.9984  1.6581
 4178SOL    HW316479   5.281   5.621   0.731 -0.5389  1.9597 -3.4098
 4178SOL    MW416480   5.243   5.691   0.766 -0.6820  0.5027 -0.3276
 4179SOL     OW16481   3.946   0.433   6.226  0.5496  0.2453  0.2138
 4179SOL    HW216482   3.860   0.449   6.188  1.1040  0.3192 -1.0611
 4179SOL    HW316483   4.007   0.443   6.153  1.7285  1.0126  1.2569
 4179SOL    MW416484   3.943   0.436   6.211  0.7783  0.3563  0.1832
 4180SOL     OW16485   4.276   4.795   4.895 -0.3154 -0.4848 -0.3374
 4180SOL    HW216486   4.332   4.767   4.823 -0.7104 -0.0298 -0.8325
 4180SOL    HW316487   4.326   4.864   4.940 -0.6231  0.1975 -1.0145
 4180SOL    MW416488   4.290   4.801   4.892 -0.4081 -0.3348 -0.4920
 4181SOL     OW16489   1.043   6.449   6.308 -0.5184  0.1553 -0.1077
 4181SOL    HW216490   0.973   6.423   6.367  0.5222  1.6992  1.9264
 4181SOL    HW316491   1.122   6.450   6.362  0.5941  1.1062 -1.6381
 4181SOL    MW416492   1.044   6.446   6.323 -0.2343  0.4845 -0.0413
 4182SOL     OW16493   4.870   0.539   5.498  0.2069  0.3073 -0.1465
 4182SOL    HW216494   4.882   0.521   5.591 -0.5075  0.4963 -0.0109
 4182SOL    HW316495   4.789   0.590   5.493  0.8043  1.2524 -0.7608
 4182SOL    MW416496   4.861   0.543   5.509  0.1915  0.4569 -0.2097
 4183SOL     OW16497   3.667   3.788   4.869 -0.6122 -0.4411 -0.7911
 4183SOL    HW216498   3.626   3.737   4.939  2.3627 -0.3416  1.2182
 4183SOL    HW316499   3.668   3.878   4.903 -1.1250  0.0473 -2.0127
 4183SOL    MW416500   3.661   3.793   4.883 -0.2874 -0.3636 -0.6872
 4184SOL     OW16501   6.236   1.260   1.178 -0.2684 -0.0504  0.1591
 4184SOL    HW216502   6.179   1.304   1.242 -0.6836 -0.9714  0.4324
 4184SOL    HW316503   6.177   1.233   1.108  0.1534  0.7552 -0.5314
 4184SOL    MW416504   6.220   1.262   1.177 -0.2675 -0.0656  0.1041
 4185SOL     OW16505   6.221   1.724   4.663  0.0626 -0.2190 -0.5658
 4185SOL    HW216506   6.244   1.662   4.732 -1.6937  0.1167  0.3843
 4185SOL    HW316507   6.158   1.783   4.704  1.1723  1.8110 -1.6374
 4185SOL    MW416508   6.215   1.724   4.678 -0.0227  0.0931 -0.5818
 4186SOL     OW16509   6.366   5.902   1.641 -0.1297 -0.1602  0.2724
 4186SOL    HW216510   6.390   5.992   1.663  0.4447 -0.2068 -0.1237
 4186SOL    HW316511   6.323   5.868   1.720 -0.1234  0.3821  0.5119
 4186SOL    MW416512   6.364   5.909   1.654 -0.0531 -0.0948  0.2518
 4187SOL     OW16513   0.513   1.467   5.323 -0.2861  0.0798  0.3526
 4187SOL    HW216514   0.567   1.443   5.398  0.5359  1.1330  0.1176
 4187SOL    HW316515   0.544   1.554   5.298  0.7890 -0.9544 -2.3550
 4187SOL    MW416516   0.525   1.475   5.330 -0.0358  0.0823 -0.0356
 4188SOL     OW16517   2.226   4.772   6.036  0.2138  0.0827 -0.5407
 4188SOL    HW216518   2.216   4.834   5.964 -0.7563  0.2051 -0.3172
 4188SOL    HW316519   2.189   4.690   6.003  1.9458 -0.5528 -1.0123
 4188SOL    MW416520   2.219   4.769   6.022  0.3143  0.0150 -0.5735
 4189SOL     OW16521   4.060   3.029   1.330 -0.0539 -0.3368 -0.6790
 4189SOL    HW216522   4.026   3.051   1.417 -2.0843  0.0830 -1.5140
 4189SOL    HW316523   4.089   2.939   1.338 -1.7974 -0.8762  0.0396
 4189SOL    MW416524   4.059   3.020   1.342 -0.5518 -0.3526 -0.6943
 4190SOL     OW16525   4.113   1.112   3.726  0.3618  0.0755 -0.7029
 4190SOL    HW216526   4.166   1.171   3.672  0.8001 -0.2514 -0.6380
 4190SOL    HW316527   4.150   1.025   3.710 -0.8328 -0.3170 -1.4629
 4190SOL    MW416528   4.125   1.108   3.717  0.2620 -0.0194 -0.7946
 4191SOL     OW16529   2.417   4.275   4.991  0.2698 -0.6412 -0.2338
 4191SOL    HW216530   2.380   4.299   5.076  0.8170 -0.7002  0.0303
 4191SOL    HW316531   2.465   4.353   4.963 -1.9923  0.3134 -1.7173
 4191SOL    MW416532   2.419   4.289   4.999  0.0436 -0.5230 -0.3947
 4192SOL     OW16533   5.214   5.408   3.308  0.4586 -0.3224  0.4051
 4192SOL    HW216534   5.166   5.329   3.286 -0.3502 -0.2239  1.7120
 4192SOL    HW316535   5.163   5.449   3.378  2.1001  0.1112  1.4189
 4192SOL    MW416536   5.201   5.403   3.314  0.5685 -0.2522  0.7113
 4193SOL     OW16537   4.839   6.297   5.344 -0.3089 -0.0131 -0.2659
 4193SOL    HW216538   4.902   6.232   5.375  1.2541  1.9139  0.8296
 4193SOL    HW316539   4.771   6.298   5.411 -0.3110 -0.4296 -0.2542
 4193SOL    MW416540   4.838   6.288   5.357 -0.1030  0.1862 -0.1198
 4194SOL     OW16541   1.862   4.858   2.704  0.3365 -0.0836  0.1163
 4194SOL    HW216542   1.774   4.893   2.716  0.3626 -0.2455  0.8138
 4194SOL    HW316543   1.888   4.887   2.617 -0.7578 -0.8002 -0.4696
 4194SOL    MW416544   1.854   4.867   2.694  0.1956 -0.1995  0.1310
 4195SOL     OW16545   2.483   2.063   3.750  0.0511 -0.2712 -0.6419
 4195SOL    HW216546   2.488   2.102   3.662 -1.0811 -0.9798 -1.0364
 4195SOL    HW316547   2.392   2.076   3.777  0.2385 -0.6023  0.1815
 4195SOL    MW416548   2.472   2.070   3.742 -0.0735 -0.4084 -0.5853
 4196SOL     OW16549   5.123   5.943   3.846 -0.0784  0.3891  0.1073
 4196SOL    HW216550   5.065   5.887   3.794  2.0804 -1.1782 -0.7132
 4196SOL    HW316551   5.174   5.991   3.782  0.2652  0.9863  0.8198
 4196SOL    MW416552   5.122   5.942   3.831  0.2517  0.2611  0.0931
 4197SOL     OW16553   3.954   3.408   2.783 -0.7089  0.2419 -0.5316
 4197SOL    HW216554   3.920   3.402   2.694  0.2054 -1.1050 -0.8117
 4197SOL    HW316555   4.045   3.436   2.772  0.4686 -3.1082 -0.3074
 4197SOL    MW416556   3.961   3.411   2.770 -0.4330 -0.3778 -0.5389
 4198SOL     OW16557   1.110   1.871   4.899 -0.2079 -0.2936 -0.0446
 4198SOL    HW216558   1.144   1.807   4.961  1.3027  1.0901  0.6359
 4198SOL    HW316559   1.187   1.901   4.851 -1.2760 -1.0172 -2.3464
 4198SOL    MW416560   1.125   1.867   4.901 -0.1495 -0.2065 -0.2585
 4199SOL     OW16561   1.413   1.828   1.520 -0.6326  0.1747  0.9383
 4199SOL    HW216562   1.503   1.841   1.490 -0.9877  0.6311  0.0448
 4199SOL    HW316563   1.375   1.766   1.458 -0.8246 -0.3379  1.5528
 4199SOL    MW416564   1.420   1.822   1.508 -0.7048  0.1673  0.9015
 4200SOL     OW16565   6.181   0.049   5.336  0.0892  0.0120 -0.4174
 4200SOL    HW216566   6.214   0.012   5.418 -1.0508 -2.0228 -0.8189
 4200SOL    HW316567   6.246   0.025   5.271 -0.4841 -1.0385 -0.6179
 4200SOL    MW416568   6.193   0.041   5.339 -0.1368 -0.3950 -0.4969
 4201SOL     OW16569   5.712   3.064   5.085  0.3413 -0.0807 -0.3316
 4201SOL    HW216570   5.705   2.976   5.122  0.1787 -0.9609 -2.3093
 4201SOL    HW316571   5.626   3.103   5.099  0.5411 -0.0583  0.9263
 4201SOL    MW416572   5.700   3.058   5.091  0.3462 -0.1938 -0.4266
 4202SOL     OW16573   2.380   5.549   1.290  0.0923  0.1510 -0.6538
 4202SOL    HW216574   2.440   5.561   1.364 -0.2906  1.3493 -0.5078
 4202SOL    HW316575   2.330   5.631   1.287 -1.7039 -0.8906 -0.6113
 4202SOL    MW416576   2.381   5.562   1.300 -0.1952  0.1717 -0.6289
 4203SOL     OW16577   1.279   1.322   5.630 -0.3649  0.2775  0.4422
 4203SOL    HW216578   1.248   1.233   5.613 -2.7900  1.3952 -1.8271
 4203SOL    HW316579   1.200   1.369   5.657  0.7165  1.9098  0.8605
 4203SOL    MW416580   1.264   1.316   5.631 -0.5422  0.6403  0.1980
 4204SOL     OW16581   5.180   4.568   3.129  0.6019  0.5537  0.2395
 4204SOL    HW216582   5.164   4.475   3.143 -0.8666  0.7834  0.2807
 4204SOL    HW316583   5.189   4.604   3.218 -0.4002  0.6818  0.3041
 4204SOL    MW416584   5.179   4.561   3.143  0.2759  0.6009  0.2535
 4205SOL     OW16585   0.540   0.735   1.506  0.5245 -0.1534  0.1657
 4205SOL    HW216586   0.619   0.755   1.557  0.2453  2.0603 -0.1609
 4205SOL    HW316587   0.521   0.643   1.526  1.7809 -0.0398  2.1661
 4205SOL    MW416588   0.548   0.726   1.515  0.6534  0.1537  0.3865
 4206SOL     OW16589   4.667   4.241   1.524  0.2640  0.2289  0.1064
 4206SOL    HW216590   4.697   4.303   1.590  0.0109 -0.2801  0.7130
 4206SOL    HW316591   4.574   4.261   1.512 -0.0933 -0.6841  1.0860
 4206SOL    MW416592   4.658   4.252   1.531  0.1835  0.0413  0.3157
 4207SOL     OW16593   4.221   3.930   0.802 -0.1443  0.3635 -0.2010
 4207SOL    HW216594   4.243   3.840   0.780  0.9763 -0.0147  2.1539
 4207SOL    HW316595   4.175   3.963   0.725  0.3939 -1.8513 -1.5590
 4207SOL    MW416596   4.218   3.922   0.789  0.0745  0.0214 -0.0695
 4208SOL     OW16597   4.426   2.192   2.884  0.0436  0.0126  0.4282
 4208SOL    HW216598   4.428   2.288   2.876  0.4752 -0.0142  0.2345
 4208SOL    HW316599   4.337   2.169   2.857  0.3144  0.2552 -0.7252
 4208SOL    MW416600   4.414   2.202   2.879  0.1363  0.0411  0.2505
 4209SOL     OW16601   3.389   2.667   3.017  0.1819 -0.4349  0.4077
 4209SOL    HW216602   3.457   2.690   3.080 -0.4354 -0.7215  1.2014
 4209SOL    HW316603   3.361   2.579   3.042 -1.6738  0.3272  1.2065
 4209SOL    MW416604   3.394   2.659   3.028 -0.1444 -0.3722  0.6178
 4210SOL     OW16605   4.785   2.689   3.856 -0.4664  0.0944 -0.1858
 4210SOL    HW216606   4.762   2.777   3.824 -1.3049 -0.8993 -2.5689
 4210SOL    HW316607   4.708   2.662   3.907 -1.6276 -0.3885 -2.0659
 4210SOL    MW416608   4.772   2.697   3.859 -0.7303 -0.1004 -0.7483
 4211SOL     OW16609   2.356   0.676   4.516  0.9427 -0.2219  0.5287
 4211SOL    HW216610   2.376   0.769   4.505  0.6882 -0.2719 -0.4287
 4211SOL    HW316611   2.358   0.662   4.611 -1.6447  1.3444  0.9146
 4211SOL    MW416612   2.359   0.686   4.527  0.5678 -0.0218  0.4533
 4212SOL     OW16613   3.495   3.349   2.813  0.8485  0.4294  0.3007
 4212SOL    HW216614   3.579   3.384   2.843 -0.4897  2.5485  1.8812
 4212SOL    HW316615   3.486   3.381   2.724  2.2372 -0.9053 -0.3626
 4212SOL    MW416616   3.505   3.358   2.805  0.8552  0.5329  0.4217
 4213SOL     OW16617   5.656   0.889   3.041  0.1058 -0.5868  0.1659
 4213SOL    HW216618   5.615   0.953   3.098 -0.9131 -1.6636  0.6902
 4213SOL    HW316619   5.655   0.807   3.091  0.2027 -1.3036 -0.9550
 4213SOL    MW416620   5.650   0.886   3.055 -0.0159 -0.8234  0.0872
 4214SOL     OW16621   0.828   0.203   1.213  0.1390 -0.1773 -0.0490
 4214SOL    HW216622   0.777   0.122   1.206 -2.3017  1.1302  1.3004
 4214SOL    HW316623   0.884   0.189   1.290  0.5202 -0.9749 -0.4652
 4214SOL    MW416624   0.828   0.190   1.222 -0.1327 -0.1101  0.0741
 4215SOL     OW16625   3.780   3.350   1.575  0.1125  0.2887  1.0270
 4215SOL    HW216626   3.698   3.357   1.625 -0.8040  0.5573 -0.4779
 4215SOL    HW316627   3.780   3.426   1.518 -0.1583 -1.3453 -1.2579
 4215SOL    MW416628   3.769   3.361   1.574 -0.0442  0.1086  0.5270
 4216SOL     OW16629   0.311   1.906   2.640 -0.4123 -0.5777 -0.3769
 4216SOL    HW216630   0.403   1.887   2.624 -0.6115 -1.3640 -0.6815
 4216SOL    HW316631   0.281   1.950   2.561  0.2179  1.7541  0.6030
 4216SOL    MW416632   0.319   1.909   2.628 -0.3555 -0.3738 -0.2878
 4217SOL     OW16633   5.078   1.508   4.664  0.1387  0.9463  0.7676
 4217SOL    HW216634   5.135   1.539   4.594 -0.3773 -0.5747 -0.3919
 4217SOL    HW316635   5.061   1.586   4.718  1.1550  1.9919 -0.3653
 4217SOL    MW416636   5.083   1.522   4.662  0.2047  0.8836  0.4651
 4218SOL     OW16637   3.657   5.905   3.567 -0.2506  0.2659  0.0183
 4218SOL    HW216638   3.612   5.866   3.492 -0.0140 -0.5206  0.2739
 4218SOL    HW316639   3.593   5.965   3.605 -1.1187 -0.8392  0.3781
 4218SOL    MW416640   3.642   5.908   3.562 -0.3339  0.0164  0.0995
 4219SOL     OW16641   3.570   0.910   0.250 -0.2308 -0.0882 -0.2347
 4219SOL    HW216642   3.557   0.997   0.212  0.9607  0.3886  0.3903
 4219SOL    HW316643   3.616   0.860   0.182 -0.9271 -0.2505 -0.5985
 4219SOL    MW416644   3.574   0.915   0.236 -0.1655 -0.0467 -0.2002
 4220SOL     OW16645   2.205   5.387   0.400 -0.3802 -0.1119 -0.3035
 4220SOL    HW216646   2.230   5.301   0.366 -0.6689 -0.4328  0.2798
 4220SOL    HW316647   2.150   5.368   0.476 -0.5439  0.5897 -0.2351
 4220SOL    MW416648   2.201   5.373   0.406 -0.4399 -0.0617 -0.2175
 4221SOL     OW16649   3.714   1.389   3.288  0.3642 -0.2682 -0.3403
 4221SOL    HW216650   3.664   1.329   3.233 -0.6497  0.0507  0.1991
 4221SOL    HW316651   3.669   1.387   3.372  0.6278  0.8398 -0.1534
 4221SOL    MW416652   3.701   1.381   3.292  0.2652 -0.0800 -0.2445
 4222SOL     OW16653   3.055   3.914   5.072 -0.6288 -0.1769  0.2616
 4222SOL    HW216654   3.110   3.936   4.996  0.0190 -1.0530  0.4611
 4222SOL    HW316655   2.974   3.881   5.033 -0.3160 -0.5839 -0.0535
 4222SOL    MW416656   3.051   3.912   5.057 -0.5021 -0.3462  0.2463
 4223SOL     OW16657   1.508   5.472   4.419  0.2878 -0.0925 -0.0112
 4223SOL    HW216658   1.471   5.550   4.460  1.4951  1.5370 -1.8042
 4223SOL    HW316659   1.433   5.414   4.407 -0.5091  0.4172  2.0999
 4223SOL    MW416660   1.493   5.475   4.423  0.3419  0.1897  0.0307
 4224SOL     OW16661   3.768   5.488   5.115 -0.1980  0.1551 -0.6479
 4224SOL    HW216662   3.699   5.554   5.108  0.3730  0.8622  0.1296
 4224SOL    HW316663   3.725   5.405   5.096 -1.7608  0.2893  1.8680
 4224SOL    MW416664   3.753   5.486   5.112 -0.3288  0.2661 -0.2134
 4225SOL     OW16665   3.883   2.294   0.089  0.6242 -0.1532  0.3518
 4225SOL    HW216666   3.870   2.282   0.184  0.1441 -0.3269  0.2699
 4225SOL    HW316667   3.920   2.381   0.081  1.8933 -0.6276  0.7945
 4225SOL    MW416668   3.886   2.304   0.101  0.7283 -0.2387  0.3994
 4226SOL     OW16669   5.353   1.768   1.279 -0.3038  0.2039 -0.3667
 4226SOL    HW216670   5.296   1.835   1.241  0.7835  0.8688 -0.8593
 4226SOL    HW316671   5.356   1.789   1.373 -0.5139  0.4335 -0.4115
 4226SOL    MW416672   5.346   1.780   1.287 -0.1881  0.3219 -0.4376
 4227SOL     OW16673   0.639   2.292   1.188 -0.2459  0.7442  0.4305
 4227SOL    HW216674   0.696   2.218   1.208  0.1194  0.8170 -0.2966
 4227SOL    HW316675   0.567   2.254   1.137 -0.2311  0.8380  0.3391
 4227SOL    MW416676   0.637   2.277   1.184 -0.1958  0.7662  0.3225
 4228SOL     OW16677   3.992   2.516   5.273  0.6067 -0.2272 -0.5906
 4228SOL    HW216678   3.961   2.587   5.329  0.5652 -0.9334  0.3016
 4228SOL    HW316679   4.036   2.560   5.201 -0.1679  0.7246 -0.5070
 4228SOL    MW416680   3.994   2.531   5.271  0.4990 -0.1948 -0.4618
 4229SOL     OW16681   5.798   2.727   2.727 -0.0021  0.0467 -0.1416
 4229SOL    HW216682   5.825   2.703   2.638 -0.0840  1.7112 -0.6680
 4229SOL    HW316683   5.706   2.752   2.718 -0.2955 -0.7026  0.6259
 4229SOL    MW416684   5.790   2.727   2.714 -0.0516  0.1674 -0.1098
 4230SOL     OW16685   6.009   1.382   3.747 -0.4520  0.0446  0.0011
 4230SOL    HW216686   6.053   1.393   3.831 -0.5165 -0.8553  0.1619
 4230SOL    HW316687   5.946   1.454   3.743  0.4750  0.8727  0.1217
 4230SOL    MW416688   6.006   1.393   3.758 -0.3382  0.0351  0.0382
 4231SOL     OW16689   0.240   1.714   4.669 -0.4930  0.4491 -1.0555
 4231SOL    HW216690   0.273   1.785   4.725 -0.6578  0.6497 -1.2097
 4231SOL    HW316691   0.239   1.637   4.725  0.5775  0.3592 -1.1421
 4231SOL    MW416692   0.244   1.713   4.683 -0.3735  0.4637 -1.0872
 4232SOL     OW16693   5.995   5.208   5.397 -0.1981  0.3295  0.1361
 4232SOL    HW216694   6.056   5.239   5.330  0.0465 -0.1838  0.1110
 4232SOL    HW316695   5.908   5.217   5.357  0.0534 -1.8409 -1.0609
 4232SOL    MW416696   5.992   5.213   5.383 -0.1326 -0.0245 -0.0251
 4233SOL     OW16697   4.809   1.951   3.142  0.2770  0.1069 -0.1849
 4233SOL    HW216698   4.794   1.916   3.230  1.1847 -1.2447 -0.5341
 4233SOL    HW316699   4.737   2.011   3.128  0.3187  0.6476  1.6301
 4233SOL    MW416700   4.798   1.954   3.152  0.4023 -0.0001  0.0085
 4234SOL     OW16701   1.476   0.288   0.622 -0.0676 -0.2581  0.6438
 4234SOL    HW216702   1.462   0.315   0.712  0.8404  2.6179  0.0183
 4234SOL    HW316703   1.571   0.289   0.611 -0.1963  0.8896 -0.6880
 4234SOL    MW416704   1.487   0.292   0.632  0.0352  0.2728  0.3856
 4235SOL     OW16705   6.001   6.328   3.688  0.0314  0.6239  0.0240
 4235SOL    HW216706   5.961   6.250   3.651  0.8575 -0.0246  0.4506
 4235SOL    HW316707   5.942   6.399   3.665 -1.1373 -0.2280  0.2755
 4235SOL    MW416708   5.988   6.327   3.680 -0.0138  0.4260  0.1135
 4236SOL     OW16709   1.779   4.684   3.700  0.6874 -0.0375 -0.2408
 4236SOL    HW216710   1.827   4.624   3.643 -0.0232 -0.8783  0.0352
 4236SOL    HW316711   1.725   4.628   3.754  1.1536  0.7576  1.1031
 4236SOL    MW416712   1.778   4.669   3.700  0.6551 -0.0435 -0.0271
 4237SOL     OW16713   0.161   4.931   0.519 -0.1859  0.5106 -0.0496
 4237SOL    HW216714   0.157   4.976   0.434  1.4142  0.1136 -0.3547
 4237SOL    HW316715   0.109   4.987   0.577  0.1286  1.7262 -0.8843
 4237SOL    MW416716   0.153   4.945   0.516  0.0667  0.6186 -0.2000
 4238SOL     OW16717   3.829   0.989   4.078  0.1484  0.0738 -0.2786
 4238SOL    HW216718   3.787   0.952   4.000  0.7540 -0.7395 -0.2357
 4238SOL    HW316719   3.922   0.967   4.068  0.4178  0.9971  0.1033
 4238SOL    MW416720   3.836   0.981   4.066  0.2638  0.0883 -0.2226
 4239SOL     OW16721   6.119   0.133   2.913 -0.6957  0.0907 -0.3197
 4239SOL    HW216722   6.127   0.154   3.006 -0.5647 -0.7238 -0.1349
 4239SOL    HW316723   6.026   0.140   2.895 -1.0839 -2.0186  0.4779
 4239SOL    MW416724   6.108   0.136   2.923 -0.7297 -0.2950 -0.1901
 4240SOL     OW16725   5.835   1.280   0.167  0.0824  0.3968 -0.0239
 4240SOL    HW216726   5.771   1.348   0.150  0.9669  1.4705  0.8059
 4240SOL    HW316727   5.815   1.249   0.255  0.8315  0.9164  0.3427
 4240SOL    MW416728   5.824   1.285   0.176  0.2979  0.6070  0.1340
 4241SOL     OW16729   3.558   6.342   4.483  0.8090 -0.1798 -0.0703
 4241SOL    HW216730   3.559   6.392   4.401  0.0432 -0.8269 -0.4896
 4241SOL    HW316731   3.591   6.256   4.458 -0.4288 -0.7089  0.0669
 4241SOL    MW416732   3.562   6.337   4.469  0.5447 -0.3350 -0.1075
 4242SOL     OW16733   3.881   3.406   4.270  0.2202  0.6190 -0.2121
 4242SOL    HW216734   3.850   3.320   4.296  3.0185  0.4404  3.1334
 4242SOL    HW316735   3.827   3.467   4.319 -0.8723  0.7989 -1.5688
 4242SOL    MW416736   3.870   3.403   4.280  0.4452  0.6192  0.0503
 4243SOL     OW16737   4.006   0.046   5.308  0.4067  0.1204  0.2394
 4243SOL    HW216738   4.059   0.039   5.388  0.6589 -2.4386 -0.0601
 4243SOL    HW316739   4.069   0.038   5.237  0.1242  1.8980 -0.2603
 4243SOL    MW416740   4.021   0.044   5.309  0.4027  0.0173  0.1340
 4244SOL     OW16741   0.790   0.683   5.268  0.3669  0.2190  0.0234
 4244SOL    HW216742   0.789   0.620   5.340 -1.0795 -0.0579 -0.2155
 4244SOL    HW316743   0.855   0.648   5.207  0.6121 -0.2775  0.5616
 4244SOL    MW416744   0.798   0.670   5.270  0.2084  0.1169  0.0629
 4245SOL     OW16745   3.111   4.541   5.186 -0.1385  0.2430 -0.2380
 4245SOL    HW216746   3.055   4.525   5.262  0.9746 -1.2463  0.3159
 4245SOL    HW316747   3.196   4.503   5.210  1.4239  3.1034 -0.6903
 4245SOL    MW416748   3.115   4.534   5.200  0.2145  0.4239 -0.2246
 4246SOL     OW16749   2.013   6.106   1.545  0.0059  0.9341 -0.2756
 4246SOL    HW216750   1.986   6.111   1.637  0.5463  1.5872 -0.1405
 4246SOL    HW316751   2.108   6.092   1.548  0.2922  2.5667 -0.7080
 4246SOL    MW416752   2.022   6.105   1.557  0.1149  1.2357 -0.3148
 4247SOL     OW16753   2.667   0.575   4.246 -0.1191 -0.6828  0.4098
 4247SOL    HW216754   2.640   0.657   4.204 -0.5021 -1.0884 -0.1469
 4247SOL    HW316755   2.622   0.507   4.196 -0.9396 -1.1600  1.7556
 4247SOL    MW416756   2.657   0.577   4.234 -0.2779 -0.7993  0.5140
 4248SOL     OW16757   3.943   0.241   1.763 -0.4216 -0.1410  0.2252
 4248SOL    HW216758   4.022   0.197   1.795 -0.2110 -0.1159 -0.2483
 4248SOL    HW316759   3.896   0.174   1.712  1.0519  0.7166 -2.4825
 4248SOL    MW416760   3.947   0.226   1.760 -0.1994 -0.0245 -0.1945
 4249SOL     OW16761   0.218   5.387   2.333 -0.2279 -0.4039  0.7749
 4249SOL    HW216762   0.130   5.350   2.342 -1.0756  0.9386 -1.1432
 4249SOL    HW316763   0.205   5.481   2.343  1.1980 -0.2512  1.4850
 4249SOL    MW416764   0.205   5.395   2.335 -0.1516 -0.2066  0.6155
 4250SOL     OW16765   3.914   2.200   5.812 -0.0528 -0.5069  0.3316
 4250SOL    HW216766   3.979   2.134   5.787 -1.1233 -1.5291  0.1392
 4250SOL    HW316767   3.830   2.160   5.790 -0.7684  0.6885  0.7865
 4250SOL    MW416768   3.912   2.186   5.806 -0.2884 -0.4841  0.3662
 4251SOL     OW16769   5.124   1.713   0.965  0.0807 -0.1425 -0.3249
 4251SOL    HW216770   5.203   1.663   0.985  0.2434  0.3747  0.3384
 4251SOL    HW316771   5.065   1.649   0.924  0.9038 -0.4821 -0.9861
 4251SOL    MW416772   5.126   1.698   0.963  0.2107 -0.1191 -0.3246
 4252SOL     OW16773   4.853   5.934   0.717 -0.0438 -0.2863  0.4648
 4252SOL    HW216774   4.847   5.945   0.812 -0.1623  0.2720  0.3977
 4252SOL    HW316775   4.771   5.968   0.683 -0.1005 -0.7093  0.1777
 4252SOL    MW416776   4.842   5.940   0.725 -0.0669 -0.2685  0.4181
 4253SOL     OW16777   0.763   1.508   2.891  0.4057  0.2986  0.2514
 4253SOL    HW216778   0.719   1.593   2.880  1.1020  0.4543 -1.6742
 4253SOL    HW316779   0.835   1.527   2.952 -0.0168  0.8669  0.5889
 4253SOL    MW416780   0.767   1.522   2.898  0.4418  0.3941  0.0419
 4254SOL     OW16781   3.097   4.769   0.437  0.2546  0.3643 -0.1663
 4254SOL    HW216782   3.053   4.842   0.395  1.6337  0.8872 -0.7663
 4254SOL    HW316783   3.119   4.801   0.524 -3.2434 -0.9581  1.4016
 4254SOL    MW416784   3.094   4.783   0.443 -0.0249  0.2588 -0.0386
 4255SOL     OW16785   4.212   1.779   1.888 -0.2864  0.0795 -0.3561
 4255SOL    HW216786   4.250   1.810   1.970 -0.1024  1.2252 -0.8578
 4255SOL    HW316787   4.256   1.695   1.871  0.2289  0.2101  0.3182
 4255SOL    MW416788   4.223   1.772   1.896 -0.1941  0.2479 -0.3334
 4256SOL     OW16789   0.873   1.388   5.241 -0.1181 -0.2778  0.4763
 4256SOL    HW216790   0.942   1.351   5.185 -0.5775 -0.5001  0.0468
 4256SOL    HW316791   0.856   1.474   5.203 -0.5348 -0.4884  0.1732
 4256SOL    MW416792   0.880   1.395   5.228 -0.2337 -0.3349  0.3797
 4257SOL     OW16793   3.091   1.389   1.501  0.1508  0.2509 -0.6577
 4257SOL    HW216794   3.004   1.428   1.492  0.2112  0.4485 -0.3697
 4257SOL    HW316795   3.118   1.372   1.411  0.4575  1.5997 -0.8439
 4257SOL    MW416796   3.083   1.392   1.488  0.1993  0.4549 -0.6442
 4258SOL     OW16797   5.765   1.748   4.000 -0.6101  0.3896 -0.3065
 4258SOL    HW216798   5.796   1.719   3.915 -0.6930 -0.6318 -0.0061
 4258SOL    HW316799   5.837   1.728   4.060 -0.3904  1.4801 -0.1930
 4258SOL    MW416800   5.779   1.742   3.997 -0.5920  0.3987 -0.2519
 4259SOL     OW16801   5.778   0.340   0.474 -0.4163 -0.1487 -0.3799
 4259SOL    HW216802   5.721   0.286   0.530  0.5963 -0.8119  0.0373
 4259SOL    HW316803   5.840   0.380   0.535  0.2095 -0.2414 -0.9503
 4259SOL    MW416804   5.779   0.338   0.490 -0.2002 -0.2484 -0.4001
 4260SOL     OW16805   4.876   3.233   3.090  0.3167 -0.2326  0.1906
 4260SOL    HW216806   4.917   3.280   3.018  1.0566 -1.8255 -0.4825
 4260SOL    HW316807   4.815   3.296   3.129  1.3657  1.2874 -0.5546
 4260SOL    MW416808   4.873   3.247   3.085  0.5527 -0.2422  0.0034
 4261SOL     OW16809   4.920   0.355   2.921 -0.5123  0.2140 -0.1851
 4261SOL    HW216810   5.016   0.361   2.924 -0.5072  0.3489  2.7859
 4261SOL    HW316811   4.903   0.266   2.891  0.5361  0.2117 -0.8381
 4261SOL    MW416812   4.931   0.344   2.918 -0.3733  0.2315  0.1207
 4262SOL     OW16813   4.646   4.334   5.647  0.9785 -0.0509 -0.2343
 4262SOL    HW216814   4.557   4.358   5.674  1.1971 -0.7691  1.2000
 4262SOL    HW316815   4.663   4.388   5.570 -0.1966  1.1100  0.2818
 4262SOL    MW416816   4.637   4.344   5.640  0.8523  0.0075  0.0230
 4263SOL     OW16817   6.187   3.688   5.535  0.0388  0.8113 -0.5670
 4263SOL    HW216818   6.202   3.600   5.500  0.7758  0.5120  0.4621
 4263SOL    HW316819   6.119   3.725   5.479 -1.2433 -0.8978 -0.2171
 4263SOL    MW416820   6.180   3.681   5.523 -0.0331  0.5463 -0.3850
 4264SOL     OW16821   4.784   0.192   1.009  0.0918 -0.0915 -0.1687
 4264SOL    HW216822   4.807   0.107   0.971 -0.8213 -1.1623  1.5534
 4264SOL    HW316823   4.815   0.187   1.099 -1.5862  0.6623  0.4929
 4264SOL    MW416824   4.791   0.180   1.016 -0.2501 -0.1333  0.1458
 4265SOL     OW16825   4.987   1.709   4.842  0.6943  0.0845  0.0153
 4265SOL    HW216826   4.966   1.696   4.934  0.2872 -2.0478 -0.3322
 4265SOL    HW316827   4.905   1.693   4.795  1.1979 -0.1934 -0.8049
 4265SOL    MW416828   4.974   1.706   4.848  0.7070 -0.2335 -0.1387
 4266SOL     OW16829   1.773   6.411   5.850  0.6418 -0.2343 -0.0389
 4266SOL    HW216830   1.856   6.444   5.815  0.4343 -0.5355 -0.8558
 4266SOL    HW316831   1.797   6.368   5.932  0.9835  1.4914  0.8235
 4266SOL    MW416832   1.787   6.410   5.856  0.6595 -0.0463 -0.0329
 4267SOL     OW16833   0.978   3.424   5.040 -0.2594 -0.0721  0.8184
 4267SOL    HW216834   0.966   3.518   5.023 -2.1565 -0.2805  0.8035
 4267SOL    HW316835   1.055   3.420   5.097  1.4231  1.2630 -1.2238
 4267SOL    MW416836   0.986   3.436   5.045 -0.2877  0.0766  0.5470
 4268SOL     OW16837   0.235   0.355   0.998 -0.4768 -0.5978 -0.2175
 4268SOL    HW216838   0.183   0.274   0.999  1.6681 -2.0514 -0.4776
 4268SOL    HW316839   0.224   0.389   0.909  1.1455 -2.3914 -1.1610
 4268SOL    MW416840   0.226   0.349   0.986  0.0202 -1.0262 -0.3763
 4269SOL     OW16841   4.761   2.629   2.500  0.5083  0.1984 -0.4535
 4269SOL    HW216842   4.708   2.708   2.497 -2.2155 -1.4653  0.2985
 4269SOL    HW316843   4.751   2.590   2.413  2.0311  0.7254 -0.9010
 4269SOL    MW416844   4.753   2.634   2.488  0.3498  0.0485 -0.4133
 4270SOL     OW16845   2.576   3.432   0.491  0.2617  0.1715 -0.4454
 4270SOL    HW216846   2.655   3.379   0.475  0.6526  0.6809 -0.2291
 4270SOL    HW316847   2.596   3.517   0.453  1.3694  1.5530  2.8386
 4270SOL    MW416848   2.589   3.436   0.484  0.4594  0.4210  0.0164
 4271SOL     OW16849   5.759   2.296   3.923  0.2113  0.2547  0.5412
 4271SOL    HW216850   5.798   2.325   4.006 -0.7926 -2.4055  2.0595
 4271SOL    HW316851   5.748   2.202   3.934 -1.4513  0.0681 -2.0300
 4271SOL    MW416852   5.763   2.288   3.936 -0.1405 -0.1209  0.4023
 4272SOL     OW16853   5.334   4.006   4.157  0.2348 -0.0011  0.2958
 4272SOL    HW216854   5.312   3.933   4.215 -3.9813  0.4624 -0.3702
 4272SOL    HW316855   5.275   4.077   4.185 -0.8815  0.7549 -3.4051
 4272SOL    MW416856   5.323   4.006   4.169 -0.4688  0.1598 -0.2804
 4273SOL     OW16857   3.736   5.240   2.434 -0.1015  0.0607  0.3078
 4273SOL    HW216858   3.658   5.295   2.419  1.0030  1.3089 -1.1627
 4273SOL    HW316859   3.775   5.275   2.514 -1.0912 -0.6632  1.1335
 4273SOL    MW416860   3.731   5.252   2.443 -0.0864  0.1299  0.2227
 4274SOL     OW16861   0.952   5.309   1.690 -0.6829 -0.2792  0.3701
 4274SOL    HW216862   0.998   5.231   1.722 -1.3351 -0.3311  1.2343
 4274SOL    HW316863   0.926   5.356   1.770 -0.1912  0.8944 -0.1414
 4274SOL    MW416864   0.954   5.305   1.705 -0.7041 -0.1312  0.4167
 4275SOL     OW16865   5.672   1.501   0.335  0.3284  0.3234 -0.4616
 4275SOL    HW216866   5.659   1.408   0.352 -1.3032  0.4836 -0.6706
 4275SOL    HW316867   5.741   1.528   0.396 -0.7896 -0.5185  1.2219
 4275SOL    MW416868   5.680   1.493   0.345 -0.0343  0.2334 -0.2671
 4276SOL     OW16869   2.576   5.939   5.065  0.4020  0.1830  0.5404
 4276SOL    HW216870   2.561   6.008   5.001  0.7170 -0.4086 -0.1762
 4276SOL    HW316871   2.654   5.968   5.114  0.8993  0.0439 -0.1618
 4276SOL    MW416872   2.585   5.952   5.063  0.5092  0.0866  0.3532
 4277SOL     OW16873   5.056   0.642   3.998  0.2629  0.3088 -0.2660
 4277SOL    HW216874   5.005   0.638   4.079  1.7053  1.5815  0.7620
 4277SOL    HW316875   5.048   0.554   3.960 -1.2061 -0.0349  0.7422
 4277SOL    MW416876   5.048   0.630   4.004  0.2594  0.4313  0.0027
 4278SOL     OW16877   5.483   3.266   2.037 -0.1449 -0.2740  0.1076
 4278SOL    HW216878   5.547   3.337   2.038 -0.1860 -0.2001 -1.0348
 4278SOL    HW316879   5.417   3.292   2.101  1.1877 -0.5872  1.6783
 4278SOL    MW416880   5.483   3.279   2.045  0.0255 -0.3055  0.1641
 4279SOL     OW16881   0.713   3.758   6.413  0.3578 -0.1418 -0.3759
 4279SOL    HW216882   0.717   3.664   6.425  0.8427 -0.7565 -4.0856
 4279SOL    HW316883   0.803   3.788   6.423  0.2715 -0.1254  0.3826
 4279SOL    MW416884   0.725   3.750   6.416  0.4104 -0.2207 -0.7653
 4280SOL     OW16885   1.261   2.861   3.815  0.3789 -0.2550 -0.3629
 4280SOL    HW216886   1.168   2.847   3.834  0.4640  0.9919  1.1927
 4280SOL    HW316887   1.264   2.876   3.721 -1.1545  0.7350 -0.2945
 4280SOL    MW416888   1.249   2.861   3.805  0.1878  0.0401 -0.1486
 4281SOL     OW16889   0.800   3.256   5.958 -0.2769  0.0774 -0.1483
 4281SOL    HW216890   0.759   3.176   5.925 -2.0148  1.0657 -0.4746
 4281SOL    HW316891   0.861   3.225   6.026 -2.2433 -1.3956  1.0549
 4281SOL    MW416892   0.803   3.241   5.963 -0.7656  0.0134 -0.0326
 4282SOL     OW16893   3.784   5.046   0.636 -0.6902  0.0263  0.3671
 4282SOL    HW216894   3.837   5.056   0.715  1.5686  0.0283 -1.0807
 4282SOL    HW316895   3.803   4.957   0.605  0.6706  0.9538 -1.6488
 4282SOL    MW416896   3.794   5.036   0.643 -0.2127  0.1490 -0.0899
 4283SOL     OW16897   4.851   5.145   4.474  0.2983  0.1309  0.4367
 4283SOL    HW216898   4.800   5.226   4.475  0.5591  0.2950  0.2976
 4283SOL    HW316899   4.806   5.089   4.411 -0.8510 -0.4560  1.7009
 4283SOL    MW416900   4.838   5.148   4.466  0.1810  0.0752  0.5852
 4284SOL     OW16901   3.186   2.134   6.242  0.1438  0.6243 -0.1582
 4284SOL    HW216902   3.129   2.147   6.318  0.1188  1.4032 -0.3043
 4284SOL    HW316903   3.269   2.104   6.279 -0.0723  0.3632  0.1257
 4284SOL    MW416904   3.189   2.132   6.257  0.1120  0.6926 -0.1400
 4285SOL     OW16905   6.143   0.329   2.127 -0.3016  0.0995 -0.4888
 4285SOL    HW216906   6.195   0.298   2.053 -0.8793 -2.4790  0.0909
 4285SOL    HW316907   6.208   0.358   2.191  0.3105 -0.2718 -0.9293
 4285SOL    MW416908   6.158   0.329   2.125 -0.2970 -0.2897 -0.4704
 4286SOL     OW16909   4.923   4.341   5.759 -0.1322  0.4798  0.1066
 4286SOL    HW216910   4.840   4.317   5.717 -0.1823  1.1650 -0.1981
 4286SOL    HW316911   4.897   4.391   5.837 -0.1106 -2.2311  2.0068
 4286SOL    MW416912   4.908   4.344   5.764 -0.1359  0.2125  0.3171
 4287SOL     OW16913   4.380   3.062   3.123  0.0652 -0.2562  0.5180
 4287SOL    HW216914   4.389   2.970   3.098  0.4675 -0.3096  0.8398
 4287SOL    HW316915   4.469   3.097   3.119 -0.2917  0.5314 -1.1116
 4287SOL    MW416916   4.393   3.055   3.119  0.0712 -0.1593  0.3454
 4288SOL     OW16917   2.723   3.790   5.257 -0.2292 -0.2229 -1.0445
 4288SOL    HW216918   2.740   3.777   5.163  1.3367 -1.9942 -0.5823
 4288SOL    HW316919   2.752   3.879   5.275  2.6456 -0.9348 -1.6517
 4288SOL    MW416920   2.729   3.800   5.247  0.3567 -0.5505 -1.0637
 4289SOL     OW16921   1.886   1.302   2.039  0.0978 -0.0571 -0.4465
 4289SOL    HW216922   1.873   1.371   1.974 -0.1520  0.2257 -0.1021
 4289SOL    HW316923   1.883   1.348   2.123  1.6877 -0.2251 -0.2732
 4289SOL    MW416924   1.884   1.318   2.041  0.2746 -0.0419 -0.3782
 4290SOL     OW16925   3.291   3.781   6.371 -0.2340 -0.2363 -0.0916
 4290SOL    HW216926   3.317   3.730   6.447  1.1121  0.7599  0.1684
 4290SOL    HW316927   3.336   3.865   6.382  0.2333 -0.1662 -2.1305
 4290SOL    MW416928   3.300   3.786   6.383  0.0052 -0.0956 -0.3263
 4291SOL     OW16929   2.400   1.911   4.866 -0.1815 -0.2222 -0.0062
 4291SOL    HW216930   2.360   1.926   4.780  0.7602 -0.7979 -0.5545
 4291SOL    HW316931   2.327   1.882   4.921 -0.7149 -0.2646 -0.7223
 4291SOL    MW416932   2.385   1.909   4.862 -0.1277 -0.3037 -0.1730
 4292SOL     OW16933   3.987   3.012   0.485  0.0309  0.2628 -0.2442
 4292SOL    HW216934   4.000   2.920   0.465  1.0215  0.8355 -2.6457
 4292SOL    HW316935   4.068   3.040   0.527  0.6024  0.4932 -1.4759
 4292SOL    MW416936   3.999   3.004   0.488  0.2370  0.3688 -0.7236
 4293SOL     OW16937   0.247   0.860   5.618 -0.0946 -0.2116  0.7209
 4293SOL    HW216938   0.322   0.800   5.617 -0.1485 -0.4956  3.9179
 4293SOL    HW316939   0.172   0.805   5.596  0.5203  0.2147 -3.2459
 4293SOL    MW416940   0.247   0.845   5.615 -0.0206 -0.1928  0.6194
 4294SOL     OW16941   3.734   4.012   1.103 -0.4148 -0.3509  0.7015
 4294SOL    HW216942   3.768   3.988   1.189  0.3109 -1.7848  0.0509
 4294SOL    HW316943   3.640   3.995   1.108 -0.2140 -1.4383  0.8864
 4294SOL    MW416944   3.726   4.007   1.115 -0.2925 -0.6836  0.6400
 4295SOL     OW16945   3.489   0.331   0.821 -1.1065 -0.4900 -0.8425
 4295SOL    HW216946   3.483   0.410   0.875  1.2503 -0.3900 -0.6263
 4295SOL    HW316947   3.401   0.320   0.785 -1.4509  2.3871 -1.1087
 4295SOL    MW416948   3.477   0.340   0.824 -0.8410 -0.0972 -0.8491
 4296SOL     OW16949   2.858   6.066   1.886 -0.9328 -0.2738 -0.1127
 4296SOL    HW216950   2.921   6.100   1.821 -2.3083  3.9525  0.4508
 4296SOL    HW316951   2.858   5.972   1.872  1.7809  0.0269 -3.5313
 4296SOL    MW416952   2.866   6.058   1.875 -0.7563  0.3235 -0.4894
 4297SOL     OW16953   2.017   5.129   3.462  0.0985 -0.2544  0.0932
 4297SOL    HW216954   2.067   5.062   3.509  0.6834 -1.1191 -1.6553
 4297SOL    HW316955   1.928   5.095   3.458  0.2501 -0.6250 -0.2079
 4297SOL    MW416956   2.012   5.116   3.468  0.1956 -0.4174 -0.1772
 4298SOL     OW16957   6.352   1.291   4.982 -0.0099  0.4404 -0.4448
 4298SOL    HW216958   6.323   1.378   4.957  0.1407  0.1748 -1.6127
 4298SOL    HW316959   6.448   1.296   4.980  0.0060 -0.0422 -1.6500
 4298SOL    MW416960   6.361   1.303   4.978  0.0121  0.3417 -0.7579
 4299SOL     OW16961   2.440   4.294   1.501 -0.1719  0.2576 -0.2955
 4299SOL    HW216962   2.412   4.213   1.544  0.1272  0.8489  1.0781
 4299SOL    HW316963   2.475   4.347   1.572 -1.2943  2.0119 -0.9858
 4299SOL    MW416964   2.441   4.290   1.516 -0.2805  0.5671 -0.2053
 4300SOL     OW16965   2.963   6.122   1.254 -0.1011  0.0623  0.1087
 4300SOL    HW216966   3.007   6.054   1.204  1.6439  1.6434 -0.6154
 4300SOL    HW316967   2.879   6.133   1.210  0.6863  0.1993 -1.4035
 4300SOL    MW416968   2.958   6.115   1.242  0.2330  0.2890 -0.1863
 4301SOL     OW16969   1.401   5.386   5.440  0.3517  0.1279  0.4504
 4301SOL    HW216970   1.348   5.346   5.371  0.8969  1.0028 -0.5077
 4301SOL    HW316971   1.399   5.323   5.511  2.1882 -2.2410 -1.4384
 4301SOL    MW416972   1.394   5.373   5.440  0.6659 -0.0692  0.0748
 4302SOL     OW16973   0.104   4.549   4.464  0.1331  0.5663  0.1225
 4302SOL    HW216974   0.013   4.582   4.465  0.1937  0.7301  1.0777
 4302SOL    HW316975   0.105   4.485   4.393 -0.2539  1.8987 -1.1301
 4302SOL    MW416976   0.092   4.545   4.455  0.0900  0.7637  0.0832
 4303SOL     OW16977   4.731   2.335   2.799  0.4865 -0.0992 -0.4174
 4303SOL    HW216978   4.799   2.400   2.780 -0.7811  1.2715 -0.4714
 4303SOL    HW316979   4.658   2.360   2.742 -0.5321 -0.7331  0.5615
 4303SOL    MW416980   4.731   2.347   2.789  0.1849 -0.0020 -0.2954
 4304SOL     OW16981   3.098   3.457   2.644 -0.3600 -0.2962 -0.1530
 4304SOL    HW216982   3.009   3.445   2.611 -0.4298 -1.0866  0.3032
 4304SOL    HW316983   3.116   3.377   2.693  0.1044  0.4386  0.9064
 4304SOL    MW416984   3.089   3.445   2.646 -0.3079 -0.3035  0.0470
 4305SOL     OW16985   2.525   5.784   0.817  0.2135  0.5468 -0.4644
 4305SOL    HW216986   2.614   5.760   0.794 -0.4113 -0.8314 -1.6010
 4305SOL    HW316987   2.475   5.771   0.736 -1.2680 -0.0970  0.5155
 4305SOL    MW416988   2.530   5.779   0.803 -0.0644  0.2800 -0.4851
 4306SOL     OW16989   2.842   5.896   4.777 -0.1534 -0.3866  0.5266
 4306SOL    HW216990   2.748   5.892   4.763  0.0727  0.7306 -1.9882
 4306SOL    HW316991   2.856   5.976   4.829 -0.5571 -0.1397  0.2592
 4306SOL    MW416992   2.831   5.906   4.782 -0.1768 -0.2066  0.1595
 4307SOL     OW16993   0.872   1.828   3.932  0.3829  0.3357  0.0943
 4307SOL    HW216994   0.862   1.819   4.027 -1.2909 -1.5931 -0.1759
 4307SOL    HW316995   0.792   1.873   3.904  1.6642  2.5127 -0.2851
 4307SOL    MW416996   0.860   1.832   3.940  0.3311  0.3684  0.0086
 4308SOL     OW16997   2.056   4.119   2.359  0.0882  0.3075  0.4105
 4308SOL    HW216998   2.075   4.107   2.452  0.4524  1.1333  0.4502
 4308SOL    HW316999   1.987   4.185   2.357 -0.3090 -0.1081  0.1094
 4308SOL    MW417000   2.049   4.126   2.371  0.0838  0.3616  0.3760
 4309SOL     OW17001   4.270   4.846   5.462  0.2824 -0.3823  0.0149
 4309SOL    HW217002   4.225   4.810   5.386  0.1800 -2.4489  0.9795
 4309SOL    HW317003   4.362   4.850   5.435 -0.0818  1.5775 -1.1295
 4309SOL    MW417004   4.277   4.842   5.448  0.2208 -0.3964 -0.0089
 4310SOL     OW17005   2.198   3.642   1.084 -0.3670 -0.3280  0.0239
 4310SOL    HW217006   2.210   3.601   1.170 -1.1944 -0.5572  0.0373
 4310SOL    HW317007   2.285   3.675   1.061 -0.2350  0.1558  1.1561
 4310SOL    MW417008   2.211   3.641   1.093 -0.4588 -0.2944  0.1750
 4311SOL     OW17009   6.160   5.018   2.469  0.4311  0.1855 -0.7957
 4311SOL    HW217010   6.232   5.051   2.523  1.1916  1.1381 -2.2937
 4311SOL    HW317011   6.082   5.028   2.523  1.2783  0.2486  0.4353
 4311SOL    MW417012   6.159   5.024   2.483  0.6433  0.3195 -0.8309
 4312SOL     OW17013   5.630   1.738   5.778  0.3135  0.2216 -0.0314
 4312SOL    HW217014   5.645   1.829   5.803  1.3441  0.0059  0.1923
 4312SOL    HW317015   5.593   1.698   5.857 -2.5201  0.9624 -0.8587
 4312SOL    MW417016   5.627   1.745   5.792  0.0756  0.2909 -0.1111
 4313SOL     OW17017   3.213   3.568   0.582  0.1234 -0.3572  0.0454
 4313SOL    HW217018   3.308   3.558   0.592  0.0051 -1.6520  0.0661
 4313SOL    HW317019   3.179   3.562   0.672 -0.1202 -1.9182 -0.1221
 4313SOL    MW417020   3.221   3.566   0.595  0.0757 -0.7340  0.0261
 4314SOL     OW17021   4.925   4.967   5.237 -0.3027 -0.5577 -0.1956
 4314SOL    HW217022   4.995   5.027   5.211 -1.2145  0.5322 -0.2125
 4314SOL    HW317023   4.851   5.024   5.256 -1.2961 -1.7150 -0.4976
 4314SOL    MW417024   4.925   4.982   5.236 -0.5541 -0.5666 -0.2376
 4315SOL     OW17025   2.325   0.777   1.179  0.5152 -0.0573  0.1975
 4315SOL    HW217026   2.322   0.715   1.107  0.4951  0.4303 -0.2251
 4315SOL    HW317027   2.356   0.859   1.140  0.3156  0.2638  0.6973
 4315SOL    MW417028   2.328   0.780   1.165  0.4862  0.0494  0.2077
 4316SOL     OW17029   0.461   6.398   4.102 -0.3965  0.0151 -0.1820
 4316SOL    HW217030   0.474   6.318   4.050 -0.8277 -0.2265  0.0727
 4316SOL    HW317031   0.506   6.466   4.053 -0.2027 -0.3449 -0.5140
 4316SOL    MW417032   0.468   6.396   4.089 -0.4278 -0.0643 -0.1922
 4317SOL     OW17033   2.509   5.350   0.482  0.1047 -0.3596 -0.2131
 4317SOL    HW217034   2.425   5.382   0.517 -0.8048  1.9329 -3.8902
 4317SOL    HW317035   2.553   5.429   0.451  3.7834 -1.4922  1.5101
 4317SOL    MW417036   2.503   5.365   0.483  0.4700 -0.2066 -0.4709
 4318SOL     OW17037   1.454   4.112   0.991 -0.0754  0.4533 -0.3483
 4318SOL    HW217038   1.510   4.188   0.980  0.2961  0.4814  1.4684
 4318SOL    HW317039   1.384   4.142   1.049  0.6219 -0.8192  1.2266
 4318SOL    MW417040   1.452   4.126   0.997  0.0656  0.2891  0.0992
 4319SOL     OW17041   1.866   1.783   0.548  0.3865  0.3896  0.2223
 4319SOL    HW217042   1.818   1.805   0.628 -0.6812  0.9463 -0.5547
 4319SOL    HW317043   1.942   1.841   0.550  1.6800 -1.2437  1.9969
 4319SOL    MW417044   1.870   1.794   0.559  0.4163  0.2476  0.3539
 4320SOL     OW17045   3.661   1.459   5.807 -0.1642 -0.2506  0.2002
 4320SOL    HW217046   3.619   1.409   5.877  0.1515  0.2281  0.7370
 4320SOL    HW317047   3.655   1.550   5.835 -0.8151  0.0339 -0.8176
 4320SOL    MW417048   3.655   1.464   5.820 -0.2084 -0.1499  0.1367
 4321SOL     OW17049   3.470   5.871   3.342 -0.7393  0.4628 -0.1686
 4321SOL    HW217050   3.465   5.808   3.270  1.6370  1.2996 -1.1645
 4321SOL    HW317051   3.400   5.934   3.323 -0.1115  0.7200 -1.8517
 4321SOL    MW417052   3.460   5.871   3.330 -0.3430  0.6071 -0.5220
 4322SOL     OW17053   4.870   5.903   3.256  0.7060 -0.0228  0.8305
 4322SOL    HW217054   4.887   5.979   3.311  0.9073  0.2002  0.4676
 4322SOL    HW317055   4.795   5.860   3.297 -0.2835  1.1110  0.2886
 4322SOL    MW417056   4.863   5.907   3.269  0.6020  0.1562  0.7111
 4323SOL     OW17057   5.455   4.499   3.343 -0.3938  0.3309  0.4636
 4323SOL    HW217058   5.479   4.412   3.313 -0.2769  0.0792  1.2632
 4323SOL    HW317059   5.538   4.537   3.373 -0.2176  1.1823 -0.9806
 4323SOL    MW417060   5.469   4.493   3.343 -0.3552  0.4100  0.3786
 4324SOL     OW17061   0.342   3.416   4.808  0.5603  0.3045  0.2852
 4324SOL    HW217062   0.362   3.400   4.901 -1.1638 -1.7017  0.3853
 4324SOL    HW317063   0.252   3.450   4.809  0.5646  0.3651 -0.6646
 4324SOL    MW417064   0.332   3.419   4.821  0.3334  0.0478  0.1731
 4325SOL     OW17065   4.653   1.345   2.537  0.0200  0.0640  0.0735
 4325SOL    HW217066   4.611   1.268   2.497  0.3974  0.0747 -0.3487
 4325SOL    HW317067   4.591   1.373   2.604 -0.8082  0.2679 -0.7618
 4325SOL    MW417068   4.639   1.338   2.540 -0.0395  0.0923 -0.0924
 4326SOL     OW17069   2.508   5.340   6.014 -0.3299 -0.0320 -0.2130
 4326SOL    HW217070   2.421   5.346   5.975 -0.0862 -0.7673 -0.8960
 4326SOL    HW317071   2.502   5.268   6.076  0.0177 -0.6702 -0.9033
 4326SOL    MW417072   2.496   5.332   6.017 -0.2519 -0.2132 -0.3942
 4327SOL     OW17073   0.622   5.693   6.109 -0.3751 -0.0018 -0.3288
 4327SOL    HW217074   0.657   5.749   6.040 -0.3278  0.9709  0.4659
 4327SOL    HW317075   0.687   5.623   6.118  0.3444  0.6635 -0.2715
 4327SOL    MW417076   0.635   5.691   6.101 -0.2740  0.2143 -0.2164
 4328SOL     OW17077   6.330   5.666   4.529  0.4058  0.3073 -0.1691
 4328SOL    HW217078   6.259   5.650   4.591 -0.6832 -0.2920 -1.5351
 4328SOL    HW317079   6.324   5.758   4.507 -1.0308 -0.0857 -1.5415
 4328SOL    MW417080   6.320   5.676   4.534  0.0726  0.1764 -0.5304
 4329SOL     OW17081   3.249   3.818   3.354 -0.3560 -0.5623  0.1294
 4329SOL    HW217082   3.155   3.810   3.339 -0.1716 -3.5693  0.0577
 4329SOL    HW317083   3.286   3.837   3.268 -0.6609 -2.8007 -0.5685
 4329SOL    MW417084   3.241   3.820   3.341 -0.3719 -1.2544  0.0279
 4330SOL     OW17085   4.512   0.633   0.051 -0.0329 -0.3981 -0.2662
 4330SOL    HW217086   4.420   0.622   0.026  0.1486 -0.8737 -0.7483
 4330SOL    HW317087   4.541   0.710   0.002 -0.1763 -0.2521 -0.1187
 4330SOL    MW417088   4.504   0.642   0.041 -0.0279 -0.4416 -0.3104
 4331SOL     OW17089   4.399   5.095   6.185 -0.0003  0.2115  0.4275
 4331SOL    HW217090   4.334   5.042   6.138 -1.4793  3.7218 -1.8815
 4331SOL    HW317091   4.381   5.077   6.278 -3.2284 -0.2457 -0.1377
 4331SOL    MW417092   4.388   5.085   6.191 -0.6214  0.6143  0.0483
 4332SOL     OW17093   2.226   6.350   0.795 -0.2173 -0.7374  0.4106
 4332SOL    HW217094   2.134   6.342   0.820 -0.3876  0.7822  0.3733
 4332SOL    HW317095   2.225   6.406   0.718  0.7251 -1.0058  0.1939
 4332SOL    MW417096   2.214   6.356   0.788 -0.1154 -0.5723  0.3771
 4333SOL     OW17097   4.496   0.738   2.064 -0.1691 -0.3646  0.0161
 4333SOL    HW217098   4.565   0.789   2.107  0.9682 -0.1117 -1.9957
 4333SOL    HW317099   4.531   0.718   1.978 -1.6810 -2.3025 -0.2137
 4333SOL    MW417100   4.510   0.742   2.058 -0.2185 -0.5869 -0.2797
 4334SOL     OW17101   4.933   0.434   5.755 -0.6490  0.1536  0.2199
 4334SOL    HW217102   5.022   0.469   5.760 -0.3790 -0.4860 -0.0754
 4334SOL    HW317103   4.944   0.346   5.719 -1.3940  0.0441  0.2595
 4334SOL    MW417104   4.946   0.427   5.751 -0.7117  0.0547  0.1861
 4335SOL     OW17105   5.800   2.729   5.515 -0.1386  0.1825  0.5776
 4335SOL    HW217106   5.777   2.814   5.478  1.6740  0.2373 -0.5622
 4335SOL    HW317107   5.894   2.736   5.533 -0.5751 -0.4488  3.6954
 4335SOL    MW417108   5.809   2.741   5.513  0.0429  0.1065  0.8386
 4336SOL     OW17109   5.824   2.871   2.311 -0.0151 -0.3318  0.6038
 4336SOL    HW217110   5.843   2.804   2.377  0.9206 -0.0147  0.6730
 4336SOL    HW317111   5.790   2.945   2.361 -0.3982 -0.5067  0.6024
 4336SOL    MW417112   5.822   2.872   2.326  0.0578 -0.3130  0.6128
 4337SOL     OW17113   0.602   4.150   1.996  0.2129 -0.0444  0.0066
 4337SOL    HW217114   0.564   4.212   2.058 -2.9892 -0.7612 -1.0128
 4337SOL    HW317115   0.653   4.090   2.050  0.4687  1.3953  1.4503
 4337SOL    MW417116   0.603   4.150   2.011 -0.1758  0.0510  0.0626
 4338SOL     OW17117   5.654   1.205   4.193  0.4024  0.1102 -0.6412
 4338SOL    HW217118   5.726   1.269   4.197  0.6576 -0.2377  0.8856
 4338SOL    HW317119   5.576   1.255   4.216  0.3746  0.1643 -0.8468
 4338SOL    MW417120   5.654   1.220   4.197  0.4324  0.0714 -0.4669
 4339SOL     OW17121   4.084   1.907   2.182  0.4337 -0.2192 -0.0320
 4339SOL    HW217122   4.024   1.843   2.145 -0.2563 -0.4551  1.4351
 4339SOL    HW317123   4.131   1.860   2.251  2.1177  0.0432 -0.9394
 4339SOL    MW417124   4.082   1.893   2.187  0.5648 -0.2157  0.0418
 4340SOL     OW17125   3.559   4.781   1.017 -0.2392  0.4154  0.1346
 4340SOL    HW217126   3.515   4.793   0.933 -1.2194  1.3496  0.7538
 4340SOL    HW317127   3.636   4.837   1.013 -0.2347  0.3892 -0.1688
 4340SOL    MW417128   3.563   4.790   1.006 -0.3679  0.5352  0.1763
 4341SOL     OW17129   0.102   0.939   1.542  0.0301  0.3013 -1.0330
 4341SOL    HW217130   0.079   1.019   1.589 -2.8787 -1.4486  0.8837
 4341SOL    HW317131   0.188   0.915   1.577 -0.5880  0.8433  1.0011
 4341SOL    MW417132   0.110   0.946   1.553 -0.4352  0.1419 -0.5117
 4342SOL     OW17133   5.542   5.838   4.200 -0.1130 -0.4521  0.0553
 4342SOL    HW217134   5.489   5.845   4.121  1.6921  1.5257 -1.0882
 4342SOL    HW317135   5.478   5.822   4.270 -1.7805 -2.1251 -1.7211
 4342SOL    MW417136   5.526   5.837   4.199 -0.0948 -0.4119 -0.3299
 4343SOL     OW17137   3.270   3.567   2.441 -0.4570  0.1533  0.1217
 4343SOL    HW217138   3.207   3.537   2.376  0.2063 -1.1890  0.0687
 4343SOL    HW317139   3.231   3.543   2.525  0.1163 -0.9777  0.0755
 4343SOL    MW417140   3.257   3.560   2.444 -0.2939 -0.1730  0.1086
 4344SOL     OW17141   5.148   4.307   0.969 -0.4193 -0.6447 -0.0899
 4344SOL    HW217142   5.143   4.251   1.047 -0.4021 -0.5668 -0.0328
 4344SOL    HW317143   5.150   4.245   0.896 -1.8788 -0.6797 -0.1122
 4344SOL    MW417144   5.148   4.291   0.970 -0.6096 -0.6390 -0.0853
 4345SOL     OW17145   0.241   4.550   1.285 -0.0169  0.6921  0.1801
 4345SOL    HW217146   0.194   4.633   1.272  0.0817  0.8275  0.6611
 4345SOL    HW317147   0.251   4.515   1.197  1.7287  2.1731 -0.2770
 4345SOL    MW417148   0.236   4.557   1.272  0.2264  0.9054  0.1832
 4346SOL     OW17149   2.670   6.215   0.874  0.3348  0.3594  1.0834
 4346SOL    HW217150   2.697   6.137   0.923 -0.3672 -0.0820  0.7816
 4346SOL    HW317151   2.591   6.189   0.829  1.1568  0.6543 -0.5992
 4346SOL    MW417152   2.663   6.202   0.875  0.3506  0.3401  0.8216
 4347SOL     OW17153   5.847   5.287   1.753 -0.4150 -0.0237  0.2932
 4347SOL    HW217154   5.797   5.254   1.827 -1.1072  1.1873  0.3936
 4347SOL    HW317155   5.786   5.283   1.679  0.5531 -2.0919 -0.4587
 4347SOL    MW417156   5.832   5.282   1.753 -0.3786 -0.1368  0.2073
 4348SOL     OW17157   5.378   0.872   1.868  0.0003  0.3837  0.2537
 4348SOL    HW217158   5.403   0.896   1.779  0.7167 -0.9869  0.0603
 4348SOL    HW317159   5.292   0.913   1.880  0.5570  1.8333 -0.5077
 4348SOL    MW417160   5.370   0.880   1.858  0.1683  0.3942  0.1277
 4349SOL     OW17161   5.183   1.001   5.051 -0.3380 -0.0818  0.1095
 4349SOL    HW217162   5.238   1.074   5.080  0.1249 -0.2793 -0.2555
 4349SOL    HW317163   5.106   1.005   5.107  0.4387 -0.3321  1.2259
 4349SOL    MW417164   5.181   1.011   5.062 -0.1745 -0.1409  0.2086
 4350SOL     OW17165   5.358   1.955   0.108  0.4603  0.1055  0.0827
 4350SOL    HW217166   5.281   1.958   0.164  0.8266  1.5315  0.5396
 4350SOL    HW317167   5.399   1.870   0.127 -0.4443 -0.2346  0.5535
 4350SOL    MW417168   5.353   1.944   0.118  0.3892  0.2488  0.2051
 4351SOL     OW17169   0.828   0.438   2.584  0.1058 -0.7882  0.3960
 4351SOL    HW217170   0.902   0.393   2.626 -0.2253 -0.9605  0.7997
 4351SOL    HW317171   0.768   0.368   2.559  0.9533 -0.8345 -1.7208
 4351SOL    MW417172   0.830   0.423   2.586  0.1739 -0.8170  0.1700
 4352SOL     OW17173   2.650   2.327   6.000 -0.1878  0.3019  0.0382
 4352SOL    HW217174   2.657   2.233   6.020  1.1294  0.3000 -0.3325
 4352SOL    HW317175   2.567   2.354   6.040 -0.1320 -0.8208  0.9788
 4352SOL    MW417176   2.640   2.318   6.008 -0.0067  0.1535  0.1134
 4353SOL     OW17177   2.013   2.896   0.491  0.1114 -0.3564 -0.7428
 4353SOL    HW217178   2.103   2.875   0.516  0.1804 -1.3963 -1.7719
 4353SOL    HW317179   1.961   2.826   0.529 -0.0702 -0.5952 -1.4123
 4353SOL    MW417180   2.018   2.884   0.499  0.0965 -0.5251 -0.9669
 4354SOL     OW17181   2.015   1.508   6.134 -0.6941  0.5559 -0.3260
 4354SOL    HW217182   2.097   1.508   6.085  1.4560  0.4706  2.9108
 4354SOL    HW317183   2.010   1.596   6.172 -0.3133 -0.3884  2.0805
 4354SOL    MW417184   2.025   1.519   6.133 -0.3602  0.4201  0.4186
 4355SOL     OW17185   4.374   4.414   0.916 -0.6729  0.0767 -0.0003
 4355SOL    HW217186   4.288   4.454   0.902 -0.9794 -1.1537 -1.9084
 4355SOL    HW317187   4.412   4.409   0.829  0.3101 -1.6355  0.4984
 4355SOL    MW417188   4.367   4.419   0.903 -0.5837 -0.3115 -0.1862
 4356SOL     OW17189   4.458   5.421   0.951 -0.0812 -0.3486 -0.0934
 4356SOL    HW217190   4.489   5.509   0.928 -2.9358  0.3644 -1.6325
 4356SOL    HW317191   4.401   5.435   1.027  0.6455 -1.1245  0.6113
 4356SOL    MW417192   4.455   5.434   0.958 -0.3620 -0.3569 -0.2035
 4357SOL     OW17193   4.122   1.584   4.214  0.3702  0.4627  0.5498
 4357SOL    HW217194   4.218   1.589   4.216  0.6413 -2.1130 -1.3902
 4357SOL    HW317195   4.103   1.491   4.206 -2.4287  0.7293  2.5138
 4357SOL    MW417196   4.132   1.573   4.213  0.0367  0.1580  0.5530
 4358SOL     OW17197   6.211   5.793   1.871 -0.1575  0.0599  0.3210
 4358SOL    HW217198   6.193   5.821   1.961 -1.8492 -1.9695  0.6981
 4358SOL    HW317199   6.171   5.706   1.864  0.2422 -0.0103 -2.2881
 4358SOL    MW417200   6.203   5.785   1.882 -0.3280 -0.2171  0.0265
 4359SOL     OW17201   5.700   4.646   3.383  0.5004 -0.7098 -0.6398
 4359SOL    HW217202   5.695   4.670   3.291  0.7208 -0.7213 -0.6545
 4359SOL    HW317203   5.793   4.647   3.403  0.4566 -0.7683 -0.4332
 4359SOL    MW417204   5.711   4.649   3.374  0.5237 -0.7191 -0.6145
 4360SOL     OW17205   4.350   2.019   1.823  0.1180 -0.0944  0.8804
 4360SOL    HW217206   4.403   1.945   1.792  1.5784  0.3675  2.1468
 4360SOL    HW317207   4.280   1.978   1.873 -0.4349 -0.6938 -0.3342
 4360SOL    MW417208   4.348   2.004   1.826  0.2377 -0.1125  0.8872
 4361SOL     OW17209   3.279   4.095   2.309 -0.5449 -0.3127 -0.3404
 4361SOL    HW217210   3.346   4.120   2.245 -0.7193  0.6319 -0.1686
 4361SOL    HW317211   3.287   4.160   2.379 -0.3411 -1.3403  0.6213
 4361SOL    MW417212   3.289   4.107   2.310 -0.5410 -0.3237 -0.1909
 4362SOL     OW17213   0.297   3.280   5.553 -0.3382 -0.0157 -0.1760
 4362SOL    HW217214   0.221   3.326   5.590  0.7281  2.0834 -0.4289
 4362SOL    HW317215   0.349   3.254   5.629 -0.5384 -0.0490 -0.0496
 4362SOL    MW417216   0.294   3.283   5.568 -0.2239  0.2568 -0.1927
 4363SOL     OW17217   0.141   2.453   0.414 -0.1790  0.4689  0.5157
 4363SOL    HW217218   0.204   2.436   0.344 -0.0904  0.4573  0.5977
 4363SOL    HW317219   0.057   2.457   0.370 -0.1401  0.3242  0.4268
 4363SOL    MW417220   0.139   2.451   0.399 -0.1622  0.4483  0.5148
 4364SOL     OW17221   0.471   2.213   0.107 -0.4014  0.0510 -0.2707
 4364SOL    HW217222   0.473   2.190   0.014  1.0098 -3.7895  0.5474
 4364SOL    HW317223   0.558   2.248   0.125 -0.3896 -0.0008 -0.2268
 4364SOL    MW417224   0.483   2.215   0.097 -0.2136 -0.4625 -0.1570
 4365SOL     OW17225   5.457   5.973   3.558  0.1556  0.8912 -0.5190
 4365SOL    HW217226   5.421   5.885   3.546  2.1077  0.1291 -1.3808
 4365SOL    HW317227   5.384   6.026   3.590 -0.9904 -1.1180  0.3509
 4365SOL    MW417228   5.443   5.968   3.561  0.2619  0.5256 -0.5179
 4366SOL     OW17229   3.727   2.348   1.521 -0.2107  0.0404  0.1665
 4366SOL    HW217230   3.740   2.282   1.453 -1.8557 -0.5774  0.4008
 4366SOL    HW317231   3.769   2.427   1.487 -1.1185 -0.2067 -1.6279
 4366SOL    MW417232   3.735   2.349   1.508 -0.5475 -0.0737 -0.0393
 4367SOL     OW17233   0.590   1.031   3.968 -0.2120  0.1488  0.3067
 4367SOL    HW217234   0.529   1.025   4.042  2.1891 -2.3417  2.2940
 4367SOL    HW317235   0.605   0.940   3.942  0.8234  0.8364 -1.7317
 4367SOL    MW417236   0.584   1.018   3.974  0.2414 -0.0891  0.3000
 4368SOL     OW17237   3.621   0.318   0.342 -0.2079 -0.1778  0.4361
 4368SOL    HW217238   3.619   0.224   0.322  1.5677 -0.1350 -0.0800
 4368SOL    HW317239   3.712   0.344   0.326 -0.4780  1.4611  1.3895
 4368SOL    MW417240   3.633   0.309   0.337 -0.0093  0.0441  0.4938
 4369SOL     OW17241   4.466   5.277   0.328  0.3164  0.1926 -0.0986
 4369SOL    HW217242   4.426   5.353   0.371  0.1834 -0.5735  1.1783
 4369SOL    HW317243   4.550   5.265   0.373  0.5907 -0.0717 -0.6728
 4369SOL    MW417244   4.472   5.285   0.340  0.3351  0.0567 -0.0059
 4370SOL     OW17245   0.066   3.518   5.520  0.2485 -0.9252 -0.1473
 4370SOL    HW217246   0.116   3.580   5.573 -1.9433  1.6510 -0.8434
 4370SOL    HW317247   0.098   3.532   5.431 -0.9821  0.0798 -0.4628
 4370SOL    MW417248   0.076   3.528   5.515 -0.2030 -0.4527 -0.2808
 4371SOL     OW17249   4.758   2.899   2.264 -0.1992 -0.3137 -0.7609
 4371SOL    HW217250   4.696   2.828   2.247 -1.3331  0.7980 -1.3968
 4371SOL    HW317251   4.733   2.933   2.350  2.2762 -2.5890  1.0067
 4371SOL    MW417252   4.746   2.894   2.273 -0.0222 -0.4672 -0.6116
 4372SOL     OW17253   6.333   4.655   4.119 -0.1038 -0.1022  0.4359
 4372SOL    HW217254   6.292   4.639   4.204  2.1501 -1.0058  1.4355
 4372SOL    HW317255   6.417   4.697   4.140 -0.9997  3.0674 -1.5883
 4372SOL    MW417256   6.339   4.659   4.133  0.0754  0.1968  0.3007
 4373SOL     OW17257   2.163   1.317   0.976  0.2117  0.3044 -0.6177
 4373SOL    HW217258   2.206   1.241   1.017 -0.4622 -0.4373 -1.2406
 4373SOL    HW317259   2.203   1.393   1.017  0.5855 -0.4033  0.3518
 4373SOL    MW417260   2.174   1.317   0.987  0.1721  0.1132 -0.5720
 4374SOL     OW17261   2.538   2.476   4.883 -0.2448 -0.3331  0.1457
 4374SOL    HW217262   2.631   2.483   4.860 -0.0634 -0.0792  0.9198
 4374SOL    HW317263   2.539   2.459   4.977 -0.8976 -3.0176 -0.2455
 4374SOL    MW417264   2.551   2.475   4.892 -0.3070 -0.6538  0.1962
 4375SOL     OW17265   1.588   0.751   0.407 -0.2648 -0.4023  0.3746
 4375SOL    HW217266   1.521   0.734   0.341 -1.3105 -0.5093  1.4172
 4375SOL    HW317267   1.647   0.676   0.402  0.7876  0.4743 -1.6880
 4375SOL    MW417268   1.587   0.739   0.398 -0.2639 -0.3007  0.2400
 4376SOL     OW17269   0.609   2.103   2.727 -0.4507  0.2592 -0.0510
 4376SOL    HW217270   0.620   2.021   2.680 -4.4613 -1.7535  1.9754
 4376SOL    HW317271   0.528   2.140   2.692 -0.8725  1.2306  1.8039
 4376SOL    MW417272   0.600   2.097   2.716 -1.0355  0.1218  0.4611
 4377SOL     OW17273   0.506   2.157   0.993 -0.3478 -0.5243  0.2750
 4377SOL    HW217274   0.501   2.233   0.935  1.1097 -0.5570  0.0671
 4377SOL    HW317275   0.530   2.084   0.935  1.7389 -0.4400  0.9606
 4377SOL    MW417276   0.509   2.157   0.977  0.1198 -0.5175  0.3380
 4378SOL     OW17277   4.546   0.678   4.640 -0.6529  0.1073 -0.1741
 4378SOL    HW217278   4.453   0.700   4.648 -1.1543 -1.8223 -0.0981
 4378SOL    HW317279   4.565   0.629   4.720  0.9003  1.8521  0.5879
 4378SOL    MW417280   4.536   0.674   4.652 -0.5142  0.0829 -0.0635
 4379SOL     OW17281   4.910   6.020   6.315  0.6866  0.3414 -0.1455
 4379SOL    HW217282   4.859   6.084   6.364  0.9247  0.0837  0.4494
 4379SOL    HW317283   4.861   6.007   6.234  0.8615  1.5880 -0.4595
 4379SOL    MW417284   4.897   6.026   6.311  0.7411  0.4719 -0.1084
 4380SOL     OW17285   5.425   4.354   4.393 -0.2752 -0.0428 -0.6410
 4380SOL    HW217286   5.347   4.305   4.420 -0.6742  0.5019 -0.8022
 4380SOL    HW317287   5.498   4.306   4.432 -0.7054 -0.4219 -0.2944
 4380SOL    MW417288   5.424   4.341   4.402 -0.3846 -0.0210 -0.6165
 4381SOL     OW17289   4.471   3.886   1.681 -0.2435  0.3397  0.2908
 4381SOL    HW217290   4.392   3.934   1.656 -0.2331 -0.8942 -2.3998
 4381SOL    HW317291   4.444   3.836   1.759 -2.0188  0.2308 -0.3328
 4381SOL    MW417292   4.457   3.886   1.688 -0.4764  0.1626 -0.1465
 4382SOL     OW17293   4.490   2.112   4.361  0.4030  0.2055  0.3016
 4382SOL    HW217294   4.550   2.037   4.363 -0.6875 -0.6986  1.5009
 4382SOL    HW317295   4.484   2.140   4.453 -1.2541  0.0129  0.2889
 4382SOL    MW417296   4.497   2.106   4.374  0.0405  0.0608  0.4582
 4383SOL     OW17297   3.083   5.355   0.664  0.4274 -0.6915 -0.3358
 4383SOL    HW217298   3.025   5.388   0.594 -1.7726 -1.4751  1.0065
 4383SOL    HW317299   3.052   5.266   0.681  1.5398 -0.8572  0.9937
 4383SOL    MW417300   3.071   5.348   0.657  0.2839 -0.8167  0.0167
 4384SOL     OW17301   3.818   6.184   5.635  0.2230 -0.2960  0.0958
 4384SOL    HW217302   3.849   6.172   5.725 -0.1505 -0.1288  0.2534
 4384SOL    HW317303   3.732   6.143   5.634  0.8317 -1.6021 -0.5935
 4384SOL    MW417304   3.811   6.177   5.647  0.2541 -0.4463  0.0256
 4385SOL     OW17305   1.453   6.253   5.474  0.6737 -0.5435  0.0646
 4385SOL    HW217306   1.460   6.282   5.383  1.1041  1.0801  0.5838
 4385SOL    HW317307   1.390   6.181   5.471  0.6489 -0.4975 -1.5108
 4385SOL    MW417308   1.446   6.247   5.462  0.7272 -0.3232 -0.0748
 4386SOL     OW17309   2.975   1.035   4.137 -0.2554  0.2256 -0.0588
 4386SOL    HW217310   3.066   1.060   4.117 -0.3199 -0.1630 -0.8442
 4386SOL    HW317311   2.956   0.963   4.078 -0.7813 -0.3136  0.7490
 4386SOL    MW417312   2.985   1.029   4.127 -0.3333  0.1032 -0.0558
 4387SOL     OW17313   4.543   6.191   4.544 -0.3468 -0.3108 -0.0880
 4387SOL    HW217314   4.487   6.131   4.495  0.9363 -0.3003 -1.6616
 4387SOL    HW317315   4.551   6.268   4.487  0.0021  0.3263  0.8034
 4387SOL    MW417316   4.537   6.193   4.530 -0.1315 -0.2254 -0.1780
 4388SOL     OW17317   3.452   3.554   2.153  0.3197 -0.0421 -0.3272
 4388SOL    HW217318   3.396   3.507   2.215  0.8597  1.2117  1.1912
 4388SOL    HW317319   3.449   3.502   2.073 -0.8806 -1.4157  0.5631
 4388SOL    MW417320   3.444   3.541   2.151  0.2326 -0.0579 -0.0094
 4389SOL     OW17321   5.981   5.675   5.043 -0.0854 -0.5884  0.5619
 4389SOL    HW217322   5.986   5.580   5.055 -0.3050 -0.4687  1.7039
 4389SOL    HW317323   5.907   5.703   5.098  1.1878  0.4806  1.8141
 4389SOL    MW417324   5.972   5.666   5.052  0.0536 -0.4315  0.8778
 4390SOL     OW17325   5.852   0.391   6.224 -0.0285  1.0102 -0.4034
 4390SOL    HW217326   5.824   0.311   6.269  0.0381 -0.0412 -2.1337
 4390SOL    HW317327   5.810   0.386   6.138 -1.8551  3.9751  0.1947
 4390SOL    MW417328   5.843   0.380   6.218 -0.2607  1.2627 -0.5528
 4391SOL     OW17329   4.847   5.674   2.221 -0.0747 -0.0609 -0.3072
 4391SOL    HW217330   4.792   5.746   2.253 -1.8342 -0.8625 -1.3898
 4391SOL    HW317331   4.822   5.664   2.129  2.1682 -0.2571 -0.9543
 4391SOL    MW417332   4.837   5.682   2.213 -0.0109 -0.1925 -0.5354
 4392SOL     OW17333   6.099   0.270   1.429 -0.0743 -0.1696  0.1453
 4392SOL    HW217334   6.127   0.196   1.483 -0.1600 -0.5578 -0.3394
 4392SOL    HW317335   6.070   0.231   1.347  0.4131  0.4547 -0.3336
 4392SOL    MW417336   6.099   0.256   1.426 -0.0213 -0.1385  0.0182
 4393SOL     OW17337   5.231   3.164   6.089 -0.3911 -0.6707  0.1536
 4393SOL    HW217338   5.290   3.107   6.040  0.2995 -1.3245  1.7151
 4393SOL    HW317339   5.148   3.116   6.091 -0.8083 -0.0940 -1.3715
 4393SOL    MW417340   5.228   3.150   6.083 -0.3550 -0.6809  0.1584
 4394SOL     OW17341   0.551   5.829   2.664 -0.2573  0.4282  0.1033
 4394SOL    HW217342   0.622   5.883   2.698 -0.0710 -0.0518  0.4885
 4394SOL    HW317343   0.519   5.780   2.740 -0.6604  0.2593 -0.1678
 4394SOL    MW417344   0.556   5.830   2.679 -0.2859  0.3426  0.1184
 4395SOL     OW17345   5.328   4.026   4.979  0.5103  0.5071  0.2577
 4395SOL    HW217346   5.271   4.092   5.020 -1.1009  0.2937 -1.4812
 4395SOL    HW317347   5.363   4.070   4.902  0.1214 -0.3607 -0.4343
 4395SOL    MW417348   5.325   4.041   4.974  0.2465  0.3644 -0.0630
 4396SOL     OW17349   5.017   2.861   1.793  0.3320  0.5145 -0.0115
 4396SOL    HW217350   5.061   2.883   1.711 -0.4610  1.6591 -0.1469
 4396SOL    HW317351   4.998   2.946   1.834  2.2460 -0.0069  2.2296
 4396SOL    MW417352   5.021   2.875   1.788  0.4799  0.5967  0.2663
 4397SOL     OW17353   1.048   3.264   1.764 -0.1977 -0.0178 -0.2668
 4397SOL    HW217354   1.068   3.184   1.715  1.8948 -0.2026  0.7918
 4397SOL    HW317355   1.064   3.335   1.701  1.8999 -0.2765 -0.1001
 4397SOL    MW417356   1.053   3.263   1.749  0.3551 -0.0763 -0.1051
 4398SOL     OW17357   4.603   3.609   5.607 -0.1518  0.4337 -0.6979
 4398SOL    HW217358   4.639   3.688   5.567 -0.2763  0.3580 -0.9625
 4398SOL    HW317359   4.653   3.597   5.687 -2.0233  2.4634  0.9096
 4398SOL    MW417360   4.614   3.618   5.612 -0.4151  0.6915 -0.5207
 4399SOL     OW17361   1.902   5.659   0.487  0.2927 -0.6020  0.5429
 4399SOL    HW217362   1.877   5.711   0.410  0.6512  0.6891  1.2660
 4399SOL    HW317363   1.869   5.571   0.468  1.8251 -0.7603 -1.8557
 4399SOL    MW417364   1.894   5.654   0.474  0.5422 -0.4526  0.3218
 4400SOL     OW17365   0.339   2.818   0.211 -0.3744  0.2316  0.1395
 4400SOL    HW217366   0.276   2.751   0.185  0.0045  0.4170 -1.3739
 4400SOL    HW317367   0.424   2.774   0.207 -0.3186  0.1873  1.4300
 4400SOL    MW417368   0.342   2.804   0.207 -0.3170  0.2502  0.1101
 4401SOL     OW17369   1.648   6.139   0.280 -0.4128  0.0148 -0.1901
 4401SOL    HW217370   1.740   6.158   0.295 -0.3162  0.3488 -1.1504
 4401SOL    HW317371   1.623   6.083   0.354  0.3154  0.6494  0.5557
 4401SOL    MW417372   1.657   6.134   0.292 -0.3040  0.1426 -0.2184
 4402SOL     OW17373   3.768   3.980   0.819  0.3729  0.4287  0.6200
 4402SOL    HW217374   3.845   3.932   0.791 -0.6183 -1.2168  0.5666
 4402SOL    HW317375   3.768   3.972   0.915  0.3167  0.4963  0.6259
 4402SOL    MW417376   3.778   3.973   0.828  0.2347  0.2205  0.6137
 4403SOL     OW17377   5.906   4.430   5.410  0.2538  0.1945 -0.4569
 4403SOL    HW217378   5.839   4.495   5.386 -0.1564  0.0906  0.3555
 4403SOL    HW317379   5.984   4.483   5.426  0.0404  0.4510 -0.2320
 4403SOL    MW417380   5.907   4.446   5.409  0.1716  0.2147 -0.3200
 4404SOL     OW17381   2.679   2.082   1.795 -0.6117 -0.3865  0.2487
 4404SOL    HW217382   2.701   2.030   1.872 -0.6669 -0.7015  0.0520
 4404SOL    HW317383   2.734   2.160   1.802 -0.0510 -0.7746  0.2001
 4404SOL    MW417384   2.689   2.086   1.806 -0.5450 -0.4793  0.2164
 4405SOL     OW17385   1.954   0.083   6.380 -0.4670  0.6878  0.7692
 4405SOL    HW217386   2.013   0.109   6.310  0.7849  1.1395  1.9503
 4405SOL    HW317387   1.869   0.071   6.337  0.3865  0.3896 -0.8999
 4405SOL    MW417388   1.950   0.085   6.365 -0.1892  0.7080  0.7048
 4406SOL     OW17389   4.021   4.037   0.618  0.0413  0.0071  0.4129
 4406SOL    HW217390   3.950   4.100   0.631 -0.4441 -0.4371 -0.0326
 4406SOL    HW317391   3.998   3.991   0.537  0.0820 -1.1451  1.0345
 4406SOL    MW417392   4.009   4.040   0.609 -0.0174 -0.2035  0.4362
 4407SOL     OW17393   0.262   3.145   3.055 -0.1885  0.3209 -0.2168
 4407SOL    HW217394   0.277   3.141   2.961 -2.0418 -0.0420 -0.5427
 4407SOL    HW317395   0.169   3.122   3.066 -0.2912  1.3393  1.6081
 4407SOL    MW417396   0.252   3.142   3.044 -0.4466  0.4074 -0.0191
 4408SOL     OW17397   1.601   3.477   4.340 -0.7730 -0.1706  0.1242
 4408SOL    HW217398   1.661   3.412   4.377 -2.2393 -1.5196  0.2409
 4408SOL    HW317399   1.543   3.500   4.412  0.2300  1.9815  0.3281
 4408SOL    MW417400   1.602   3.471   4.354 -0.8341 -0.0646  0.1665
 4409SOL     OW17401   2.698   6.150   0.227 -0.7057 -0.0640  0.4626
 4409SOL    HW217402   2.718   6.164   0.319 -1.0918  1.4542  0.3452
 4409SOL    HW317403   2.629   6.084   0.227  0.4188 -1.2870  1.1493
 4409SOL    MW417404   2.691   6.143   0.239 -0.6083 -0.0251  0.5377
 4410SOL     OW17405   0.313   2.776   2.296 -0.5534  0.1479 -0.1581
 4410SOL    HW217406   0.348   2.771   2.385 -0.2794 -0.5478 -0.3015
 4410SOL    HW317407   0.233   2.725   2.298  0.2963 -1.2547 -0.7007
 4410SOL    MW417408   0.307   2.769   2.308 -0.4052 -0.1289 -0.2486
 4411SOL     OW17409   5.091   0.561   0.708 -0.0082  0.4092  0.2683
 4411SOL    HW217410   5.011   0.515   0.682 -0.2985  0.3972  1.1474
 4411SOL    HW317411   5.062   0.651   0.725 -0.1181  0.0884  1.9230
 4411SOL    MW417412   5.077   0.567   0.707 -0.0610  0.3653  0.6026
 4412SOL     OW17413   2.548   5.635   1.540 -0.2705  0.9986 -0.3601
 4412SOL    HW217414   2.643   5.644   1.528  0.0968 -2.1463 -0.5053
 4412SOL    HW317415   2.537   5.625   1.634  0.0587 -2.1647 -0.5464
 4412SOL    MW417416   2.559   5.635   1.551 -0.1786  0.1663 -0.4038
 4413SOL     OW17417   2.486   3.808   4.830  0.3277  0.1706 -0.4995
 4413SOL    HW217418   2.561   3.749   4.818  0.9936  0.8405  0.2336
 4413SOL    HW317419   2.468   3.841   4.742 -0.2548 -1.3323 -0.9823
 4413SOL    MW417420   2.493   3.804   4.817  0.3387  0.0607 -0.4665
 4414SOL     OW17421   4.631   6.309   5.527 -0.3479  0.0904  0.0315
 4414SOL    HW217422   4.679   6.371   5.582  0.4469 -0.8361  0.4075
 4414SOL    HW317423   4.556   6.359   5.494 -0.5673  0.8032  1.5574
 4414SOL    MW417424   4.627   6.324   5.530 -0.2720  0.0622  0.2825
 4415SOL     OW17425   5.488   1.273   3.474  0.4810 -0.1570 -0.6120
 4415SOL    HW217426   5.410   1.314   3.438  0.3112 -1.0362 -1.3010
 4415SOL    HW317427   5.467   1.179   3.477  0.4031 -0.1201  2.0279
 4415SOL    MW417428   5.475   1.266   3.470  0.4483 -0.2681 -0.3546
 4416SOL     OW17429   1.028   2.723   3.900 -0.4242  0.2648  0.1978
 4416SOL    HW217430   1.036   2.688   3.988 -2.9534  1.3417  0.9592
 4416SOL    HW317431   0.989   2.652   3.849  0.9136 -0.3115 -0.0672
 4416SOL    MW417432   1.024   2.709   3.905 -0.5814  0.3309  0.2633
 4417SOL     OW17433   0.451   4.635   0.864  0.0448  0.2678 -0.6291
 4417SOL    HW217434   0.388   4.589   0.920  1.1763 -1.6899 -0.8764
 4417SOL    HW317435   0.437   4.599   0.777  0.5019  0.8948 -0.9716
 4417SOL    MW417436   0.441   4.624   0.860  0.2544  0.0922 -0.7069
 4418SOL     OW17437   5.844   4.846   5.678  0.0367  0.3278 -0.2368
 4418SOL    HW217438   5.881   4.870   5.593  0.5990 -2.8070 -0.9727
 4418SOL    HW317439   5.913   4.864   5.741  0.3175  0.8203 -0.6767
 4418SOL    MW417440   5.858   4.852   5.675  0.1480 -0.0209 -0.3919
 4419SOL     OW17441   0.293   5.567   1.559 -0.5077  0.1541 -0.1207
 4419SOL    HW217442   0.223   5.605   1.612  1.6519  2.6230  1.2211
 4419SOL    HW317443   0.364   5.549   1.621  0.3679 -1.5686 -1.5152
 4419SOL    MW417444   0.293   5.570   1.574 -0.1072  0.2525 -0.1276
 4420SOL     OW17445   1.767   1.964   2.315 -0.6132  0.2831 -0.1900
 4420SOL    HW217446   1.717   2.014   2.379  0.3970  0.7897  0.2163
 4420SOL    HW317447   1.791   2.027   2.247  1.2017  0.5483  0.6346
 4420SOL    MW417448   1.764   1.979   2.314 -0.2405  0.3850 -0.0276
 4421SOL     OW17449   1.752   0.313   4.443 -0.5643  0.1248 -0.3732
 4421SOL    HW217450   1.842   0.280   4.439 -0.6024  0.0480 -0.6246
 4421SOL    HW317451   1.759   0.398   4.486 -0.2834  0.4302 -1.0014
 4421SOL    MW417452   1.765   0.320   4.448 -0.5323  0.1549 -0.4893
 4422SOL     OW17453   3.032   6.127   4.320  0.1225 -0.5057  0.2516
 4422SOL    HW217454   2.955   6.124   4.376 -0.1889 -0.7767 -0.1875
 4422SOL    HW317455   3.036   6.040   4.280 -1.2286  0.4822 -2.2362
 4422SOL    MW417456   3.022   6.115   4.322 -0.0968 -0.4111 -0.1346
 4423SOL     OW17457   5.647   0.065   4.957 -0.1224 -0.1387  0.4767
 4423SOL    HW217458   5.687   0.064   5.044 -1.1012  0.0496  0.9417
 4423SOL    HW317459   5.670  -0.020   4.919  0.4137 -0.1754  0.8668
 4423SOL    MW417460   5.656   0.054   4.964 -0.1808 -0.1187  0.5895
 4424SOL     OW17461   1.628   3.958   5.229  0.1981 -0.4097  0.1221
 4424SOL    HW217462   1.569   3.883   5.218  0.2688 -0.4622  0.0971
 4424SOL    HW317463   1.663   3.948   5.317 -1.8100  1.0461  1.1700
 4424SOL    MW417464   1.625   3.947   5.239 -0.0575 -0.2246  0.2570
 4425SOL     OW17465   4.459   4.566   2.796 -0.1598 -0.5983 -0.2178
 4425SOL    HW217466   4.486   4.476   2.815 -0.9914 -1.1618 -1.5848
 4425SOL    HW317467   4.499   4.585   2.711 -1.6297 -0.4130 -0.8936
 4425SOL    MW417468   4.468   4.556   2.787 -0.4635 -0.6482 -0.4873
 4426SOL     OW17469   0.082   1.094   3.461 -0.7942 -0.3843  0.1283
 4426SOL    HW217470   0.055   1.011   3.421  0.5251 -0.5698 -0.3950
 4426SOL    HW317471   0.092   1.072   3.554  0.4361 -1.0530 -0.1451
 4426SOL    MW417472   0.080   1.080   3.468 -0.4578 -0.4970  0.0232
 4427SOL     OW17473   6.164   0.477   6.047  0.1875 -0.4789  0.6677
 4427SOL    HW217474   6.210   0.537   5.989  0.2630  0.2330  1.4440
 4427SOL    HW317475   6.074   0.476   6.014 -0.3362  1.6928  1.8456
 4427SOL    MW417476   6.158   0.485   6.035  0.1284 -0.0984  0.9255
 4428SOL     OW17477   5.348   3.651   4.593  0.1229 -0.1831  0.0040
 4428SOL    HW217478   5.423   3.684   4.643  0.7481  0.3189 -1.2275
 4428SOL    HW317479   5.327   3.567   4.634  0.4950  0.2999  1.2204
 4428SOL    MW417480   5.355   3.644   4.605  0.2545 -0.0531  0.0020
 4429SOL     OW17481   2.109   6.391   5.501 -0.5274  0.3064 -0.3678
 4429SOL    HW217482   2.080   6.460   5.441 -1.5984  1.8962  1.8316
 4429SOL    HW317483   2.174   6.343   5.451  0.0498  2.6939 -2.1482
 4429SOL    MW417484   2.113   6.394   5.486 -0.5926  0.8312 -0.3125
 4430SOL     OW17485   2.252   6.114   5.131 -0.3763  0.7453 -0.0295
 4430SOL    HW217486   2.257   6.202   5.094  0.7838  1.2004  1.1222
 4430SOL    HW317487   2.243   6.128   5.225  0.1620 -0.3512  0.2104
 4430SOL    MW417488   2.252   6.127   5.139 -0.1522  0.6607  0.1541
 4431SOL     OW17489   2.298   0.653   0.092  0.0701 -0.1079 -0.3344
 4431SOL    HW217490   2.379   0.700   0.076  0.1256 -0.0292  0.1678
 4431SOL    HW317491   2.258   0.643   0.006  0.4392  0.1668 -0.5361
 4431SOL    MW417492   2.303   0.658   0.079  0.1261 -0.0613 -0.2948
 4432SOL     OW17493   1.822   6.379   5.514  1.0299 -0.3862 -0.4319
 4432SOL    HW217494   1.917   6.364   5.520  0.9139 -1.4879 -1.1090
 4432SOL    HW317495   1.783   6.301   5.552  0.4031 -1.0554 -2.3550
 4432SOL    MW417496   1.830   6.367   5.520  0.9319 -0.6198 -0.7750
 4433SOL     OW17497   3.965   1.193   2.751 -0.3340 -0.0177 -0.2105
 4433SOL    HW217498   3.948   1.100   2.733 -2.5172  0.2048  0.3770
 4433SOL    HW317499   3.988   1.197   2.843 -1.4633  0.1336  0.0750
 4433SOL    MW417500   3.966   1.181   2.761 -0.7710  0.0316 -0.0954
 4434SOL     OW17501   5.564   4.786   6.102 -1.0576  0.0263  0.0389
 4434SOL    HW217502   5.547   4.710   6.046 -0.4504 -0.0166 -0.1004
 4434SOL    HW317503   5.610   4.749   6.178  2.0483  0.5841 -1.4159
 4434SOL    MW417504   5.568   4.771   6.105 -0.5677  0.0943 -0.1714
 4435SOL     OW17505   0.462   0.476   6.083  0.3651 -0.5300 -0.6117
 4435SOL    HW217506   0.538   0.503   6.135  1.1519 -1.9694 -0.9699
 4435SOL    HW317507   0.386   0.497   6.138  0.9642  1.4169 -0.4635
 4435SOL    MW417508   0.462   0.483   6.097  0.5479 -0.4631 -0.6394
 4436SOL     OW17509   2.528   5.744   4.762  0.6798  0.2319 -0.2068
 4436SOL    HW217510   2.469   5.820   4.765  0.7525  0.3404 -1.1474
 4436SOL    HW317511   2.476   5.673   4.799 -1.0572 -0.2999 -3.3274
 4436SOL    MW417512   2.513   5.745   4.767  0.4602  0.1761 -0.7426
 4437SOL     OW17513   1.092   2.279   4.289 -0.2182  0.1843 -0.2967
 4437SOL    HW217514   1.169   2.245   4.244 -1.1952 -1.4909 -0.8099
 4437SOL    HW317515   1.127   2.340   4.354  1.3313  1.6140 -2.3287
 4437SOL    MW417516   1.107   2.282   4.292 -0.1426  0.1519 -0.6325
 4438SOL     OW17517   5.737   0.962   3.721 -0.8549  0.0540  0.1104
 4438SOL    HW217518   5.663   0.945   3.778  0.0386  0.8015  1.5551
 4438SOL    HW317519   5.791   1.024   3.770  2.0880 -2.4559  0.3693
 4438SOL    MW417520   5.735   0.968   3.735 -0.3487 -0.1785  0.3351
 4439SOL     OW17521   6.007   4.454   4.540  0.1493 -0.2144  0.2684
 4439SOL    HW217522   6.060   4.445   4.620  1.4527 -0.4411 -0.5814
 4439SOL    HW317523   5.968   4.541   4.548 -1.6890 -1.1337  2.2474
 4439SOL    MW417524   6.009   4.464   4.552  0.0787 -0.3656  0.4174
 4440SOL     OW17525   5.725   5.453   3.742 -0.0473 -0.4209  0.7741
 4440SOL    HW217526   5.699   5.415   3.826 -1.9169  1.1465  0.9939
 4440SOL    HW317527   5.771   5.383   3.696 -0.4920 -1.8538  2.4254
 4440SOL    MW417528   5.727   5.439   3.747 -0.3526 -0.4031  1.0210
 4441SOL     OW17529   2.397   0.176   0.195 -0.1604  0.9711 -0.5132
 4441SOL    HW217530   2.459   0.162   0.267  1.1557  1.8960 -1.3951
 4441SOL    HW317531   2.315   0.137   0.225  0.4494  0.9804  1.3132
 4441SOL    MW417532   2.395   0.169   0.209  0.0937  1.0944 -0.3886
 4442SOL     OW17533   1.676   2.070   3.426  0.2999  0.0486  0.2135
 4442SOL    HW217534   1.716   2.141   3.476 -0.0168  0.2951  0.1199
 4442SOL    HW317535   1.607   2.112   3.375  2.1519  0.2458 -2.3132
 4442SOL    MW417536   1.672   2.085   3.426  0.5025  0.1071 -0.1322
 4443SOL     OW17537   3.451   4.437   2.056 -0.2803  0.9368 -0.0949
 4443SOL    HW217538   3.496   4.504   2.005 -1.2768  1.4458 -0.3331
 4443SOL    HW317539   3.360   4.441   2.026  0.1158 -2.4405 -2.1603
 4443SOL    MW417540   3.445   4.447   2.045 -0.3595  0.5584 -0.3989
 4444SOL     OW17541   3.525   2.848   2.064  0.0640 -0.7458  0.7164
 4444SOL    HW217542   3.466   2.773   2.056 -2.0306  0.7115  1.2579
 4444SOL    HW317543   3.529   2.865   2.159 -1.7896  1.3960  0.5045
 4444SOL    MW417544   3.517   2.841   2.076 -0.4569 -0.2709  0.7599
 4445SOL     OW17545   6.036   2.156   2.980 -0.0905 -0.2662 -0.0326
 4445SOL    HW217546   5.981   2.160   2.902  0.1822  0.1717 -0.2052
 4445SOL    HW317547   6.018   2.238   3.027  0.0165 -0.3647  0.1840
 4445SOL    MW417548   6.026   2.167   2.976 -0.0404 -0.2215 -0.0268
 4446SOL     OW17549   2.817   1.519   3.721  0.4402  0.0859  0.2248
 4446SOL    HW217550   2.799   1.506   3.628 -1.2488  1.8247  0.2327
 4446SOL    HW317551   2.906   1.556   3.723  0.0285  1.2196 -0.8485
 4446SOL    MW417552   2.827   1.522   3.709  0.1630  0.4649  0.0842
 4447SOL     OW17553   0.188   5.708   0.320  0.6209 -0.2483  0.2539
 4447SOL    HW217554   0.186   5.731   0.227  0.9187 -1.8041 -0.1658
 4447SOL    HW317555   0.279   5.717   0.346  0.2644  2.0396  0.9359
 4447SOL    MW417556   0.199   5.712   0.311  0.6131 -0.1517  0.2885
 4448SOL     OW17557   5.861   4.013   5.544 -0.4239  0.5807 -0.3510
 4448SOL    HW217558   5.893   3.937   5.494  0.6760  1.7851 -1.5618
 4448SOL    HW317559   5.796   3.977   5.603 -0.4086 -1.2142 -1.3563
 4448SOL    MW417560   5.857   3.998   5.545 -0.2768  0.5028 -0.6434
 4449SOL     OW17561   4.710   6.056   1.292  0.3633  0.1218 -0.4585
 4449SOL    HW217562   4.761   6.117   1.238  1.1707  0.9607  1.1586
 4449SOL    HW317563   4.644   6.111   1.334  2.8655  0.6694  3.2873
 4449SOL    MW417564   4.708   6.071   1.290  0.7999  0.3047  0.2491
 4450SOL     OW17565   1.154   4.197   6.279  0.8246  0.1885  0.1128
 4450SOL    HW217566   1.124   4.225   6.193  0.6029  0.4762  0.2848
 4450SOL    HW317567   1.184   4.107   6.265 -0.7133 -0.3346  0.0863
 4450SOL    MW417568   1.154   4.189   6.266  0.5924  0.1574  0.1320
 4451SOL     OW17569   4.196   1.134   4.797  0.7848  0.1198  0.4883
 4451SOL    HW217570   4.156   1.175   4.720  2.6320 -0.5939 -0.9273
 4451SOL    HW317571   4.223   1.207   4.852  0.1499  0.6664  0.0909
 4451SOL    MW417572   4.195   1.149   4.794  0.9447  0.0977  0.2491
 4452SOL     OW17573   5.811   3.573   0.235 -0.3075  0.0810  0.3722
 4452SOL    HW217574   5.819   3.478   0.241  1.3238  0.2511  1.6464
 4452SOL    HW317575   5.846   3.595   0.149  0.8938 -0.3710  0.7228
 4452SOL    MW417576   5.817   3.564   0.225  0.0662  0.0438  0.5865
 4453SOL     OW17577   1.533   3.107   0.955 -0.0570  0.4284 -0.1580
 4453SOL    HW217578   1.512   3.086   0.864  0.5906  0.4950 -0.3324
 4453SOL    HW317579   1.467   3.060   1.007  0.4452 -0.8125 -0.5979
 4453SOL    MW417580   1.522   3.098   0.950  0.0947  0.2734 -0.2391
 4454SOL     OW17581   5.527   1.370   2.717 -0.5188 -0.3880  0.1408
 4454SOL    HW217582   5.499   1.283   2.746 -2.0794 -0.1897 -0.6394
 4454SOL    HW317583   5.591   1.353   2.649  0.0206 -0.8982  0.7599
 4454SOL    MW417584   5.532   1.357   2.712 -0.6535 -0.4292  0.1196
 4455SOL     OW17585   4.582   0.622   4.921 -0.2287  0.3659  0.2710
 4455SOL    HW217586   4.598   0.548   4.978  1.9033  0.6929  0.1683
 4455SOL    HW317587   4.528   0.682   4.974 -0.4374 -0.4435  0.9955
 4455SOL    MW417588   4.577   0.620   4.936  0.0250  0.3023  0.3530
 4456SOL     OW17589   3.635   0.983   5.721 -0.5054  0.0945  0.3591
 4456SOL    HW217590   3.726   0.998   5.747 -0.4939 -0.3279  0.5839
 4456SOL    HW317591   3.639   0.968   5.627 -0.3293  0.0059  0.3800
 4456SOL    MW417592   3.648   0.983   5.712 -0.4806  0.0270  0.3915
 4457SOL     OW17593   2.352   2.252   2.166 -0.1984 -0.8711 -0.0733
 4457SOL    HW217594   2.303   2.210   2.236 -2.1243 -0.2868 -1.0114
 4457SOL    HW317595   2.405   2.318   2.211  0.5755 -2.2026  1.0669
 4457SOL    MW417596   2.353   2.255   2.181 -0.3504 -0.9697 -0.0466
 4458SOL     OW17597   1.941   4.193   0.353  0.1016 -0.0856  0.0211
 4458SOL    HW217598   2.023   4.195   0.402 -0.5246  0.5395  1.0886
 4458SOL    HW317599   1.878   4.154   0.414 -0.8092  1.1736 -0.0616
 4458SOL    MW417600   1.943   4.189   0.368 -0.1012  0.1630  0.1510
 4459SOL     OW17601   0.881   5.111   3.155 -0.0717  0.0102  0.1410
 4459SOL    HW217602   0.849   5.023   3.135 -2.1579  0.9402 -0.9118
 4459SOL    HW317603   0.976   5.103   3.152 -0.1895 -2.3367  0.7162
 4459SOL    MW417604   0.889   5.098   3.152 -0.3625 -0.1767  0.0780
 4460SOL     OW17605   1.784   1.209   4.555 -0.0345  0.2993  0.2878
 4460SOL    HW217606   1.775   1.119   4.525 -0.3959 -0.5598  2.7706
 4460SOL    HW317607   1.712   1.222   4.617  1.1447  1.6209  1.4754
 4460SOL    MW417608   1.773   1.199   4.559  0.0734  0.3604  0.7721
 4461SOL     OW17609   5.183   5.978   1.111 -0.1248 -0.2445 -0.2703
 4461SOL    HW217610   5.248   5.908   1.114 -0.3567 -0.4633 -0.3533
 4461SOL    HW317611   5.168   6.001   1.202 -0.2248 -0.4670 -0.2306
 4461SOL    MW417612   5.190   5.972   1.123 -0.1686 -0.3027 -0.2760
 4462SOL     OW17613   1.620   4.969   2.750  0.5208  0.5412  0.1658
 4462SOL    HW217614   1.596   4.991   2.660 -3.1731 -1.5255  0.4439
 4462SOL    HW317615   1.591   5.044   2.802 -0.7602  0.2437 -0.0747
 4462SOL    MW417616   1.613   4.982   2.745 -0.1356  0.2293  0.1708
 4463SOL     OW17617   0.161   0.154   1.817 -0.0967 -0.3691  0.0217
 4463SOL    HW217618   0.227   0.221   1.834  0.2400 -0.2397 -1.6333
 4463SOL    HW317619   0.211   0.078   1.789 -0.5850 -0.7553  0.1813
 4463SOL    MW417620   0.177   0.153   1.816 -0.1167 -0.4030 -0.1756
 4464SOL     OW17621   1.093   3.246   3.997  0.2081 -0.1607  0.1642
 4464SOL    HW217622   1.054   3.305   3.931  2.0407  1.6568  0.6151
 4464SOL    HW317623   1.157   3.195   3.948 -0.4073 -0.8438  0.0450
 4464SOL    MW417624   1.096   3.247   3.981  0.3687 -0.0110  0.2080
 4465SOL     OW17625   2.941   5.754   3.062 -0.9501  0.6822  0.0204
 4465SOL    HW217626   2.904   5.799   3.138 -0.5050  0.7521  0.1983
 4465SOL    HW317627   2.999   5.818   3.022  1.5620 -0.4202  1.6226
 4465SOL    MW417628   2.943   5.768   3.067 -0.5599  0.5459  0.2553
 4466SOL     OW17629   2.865   5.597   2.173  0.1352 -0.1674  0.0521
 4466SOL    HW217630   2.797   5.579   2.237  0.0972 -1.6185 -0.3612
 4466SOL    HW317631   2.818   5.633   2.098 -0.2728 -1.6475 -0.4296
 4466SOL    MW417632   2.850   5.600   2.171  0.0764 -0.5541 -0.0659
 4467SOL     OW17633   5.958   2.485   4.481 -0.1012  0.3623 -0.1526
 4467SOL    HW217634   6.000   2.558   4.436  0.0616 -0.3863 -1.2709
 4467SOL    HW317635   5.870   2.481   4.443 -0.5858  0.8006  0.8805
 4467SOL    MW417636   5.952   2.494   4.470 -0.1436  0.3214 -0.1638
 4468SOL     OW17637   5.876   2.673   1.440  0.3478  0.3065 -0.4111
 4468SOL    HW217638   5.808   2.612   1.469 -1.1405  2.0625  0.0389
 4468SOL    HW317639   5.946   2.617   1.406 -0.9903 -1.6179 -0.1850
 4468SOL    MW417640   5.876   2.658   1.439 -0.0251  0.2843 -0.3219
 4469SOL     OW17641   3.776   1.729   2.352  0.1270 -0.7349 -0.0330
 4469SOL    HW217642   3.776   1.723   2.256 -2.0317  1.2567 -0.2695
 4469SOL    HW317643   3.698   1.681   2.378 -0.1175 -0.0292  0.5672
 4469SOL    MW417644   3.765   1.722   2.343 -0.1901 -0.3790  0.0150
 4470SOL     OW17645   2.461   2.348   2.578 -0.2029  0.3203 -0.8542
 4470SOL    HW217646   2.366   2.343   2.572 -0.4414  1.1461  1.2909
 4470SOL    HW317647   2.483   2.429   2.532 -0.8221  1.3632  0.6168
 4470SOL    MW417648   2.451   2.358   2.571 -0.3160  0.5668 -0.3771
 4471SOL     OW17649   5.049   2.951   1.137  0.0750  0.3902  0.0084
 4471SOL    HW217650   5.070   3.004   1.060 -0.2947 -0.4149 -0.6637
 4471SOL    HW317651   4.989   2.884   1.105 -0.3220  0.2135  1.0644
 4471SOL    MW417652   5.044   2.949   1.123 -0.0261  0.2607  0.0590
 4472SOL     OW17653   6.333   3.935   1.319 -0.1042 -0.6336 -1.0016
 4472SOL    HW217654   6.298   3.996   1.384 -2.5249 -2.3881 -0.5103
 4472SOL    HW317655   6.318   3.979   1.235 -1.1906 -0.2129 -0.6117
 4472SOL    MW417656   6.326   3.949   1.316 -0.5669 -0.8096 -0.8854
 4473SOL     OW17657   3.494   5.423   4.750  0.3877  0.5101  0.4948
 4473SOL    HW217658   3.430   5.442   4.820 -0.1082 -0.2804  0.2810
 4473SOL    HW317659   3.448   5.362   4.692  0.1686  2.4355 -1.4831
 4473SOL    MW417660   3.479   5.417   4.752  0.2933  0.6599  0.2056
 4474SOL     OW17661   4.403   3.216   0.362 -0.1578  0.3155  0.5536
 4474SOL    HW217662   4.333   3.260   0.410 -1.2456 -1.9813  1.2124
 4474SOL    HW317663   4.360   3.143   0.318  1.6000 -0.3009 -0.2558
 4474SOL    MW417664   4.388   3.213   0.363 -0.0694 -0.0689  0.5337
 4475SOL     OW17665   5.461   2.250   2.555  0.4636  0.0797 -0.3519
 4475SOL    HW217666   5.422   2.208   2.478  2.1143  0.7021 -1.6044
 4475SOL    HW317667   5.540   2.198   2.573  0.6778  0.5974  0.2418
 4475SOL    MW417668   5.466   2.237   2.547  0.7096  0.2301 -0.4388
 4476SOL     OW17669   1.948   3.295   4.020 -0.5629 -0.2388  0.0461
 4476SOL    HW217670   2.017   3.304   3.954 -0.5621 -1.2503 -0.1050
 4476SOL    HW317671   1.891   3.370   4.005  0.9463  1.1156  0.7189
 4476SOL    MW417672   1.950   3.306   4.009 -0.3637 -0.1936  0.1149
 4477SOL     OW17673   1.029   5.880   5.718 -0.2471 -0.1304 -0.3875
 4477SOL    HW217674   0.993   5.792   5.731 -0.8734 -0.0252 -1.2400
 4477SOL    HW317675   1.092   5.892   5.788 -0.4331 -1.1191 -0.0406
 4477SOL    MW417676   1.032   5.870   5.729 -0.3542 -0.2470 -0.4542
 4478SOL     OW17677   4.279   0.151   6.289 -0.0841 -0.1567  0.1138
 4478SOL    HW217678   4.188   0.160   6.317  0.1162 -1.3668  1.2834
 4478SOL    HW317679   4.280   0.071   6.235  1.0587 -3.5273  4.5004
 4478SOL    MW417680   4.267   0.141   6.286  0.0931 -0.7611  0.8469
 4479SOL     OW17681   6.175   0.265   5.600 -0.1654  0.1562  0.1978
 4479SOL    HW217682   6.210   0.259   5.689  0.2623  3.2987  0.3774
 4479SOL    HW317683   6.088   0.227   5.606 -0.0885  0.1776  1.9613
 4479SOL    MW417684   6.168   0.259   5.613 -0.0988  0.5737  0.4542
 4480SOL     OW17685   4.162   1.231   5.954 -0.7958  0.2750 -0.0769
 4480SOL    HW217686   4.188   1.226   5.862 -1.1850  0.7282 -0.2149
 4480SOL    HW317687   4.067   1.239   5.951 -0.6693  2.4907  0.2786
 4480SOL    MW417688   4.153   1.231   5.941 -0.8305  0.6271 -0.0482
 4481SOL     OW17689   2.678   2.069   6.096  0.1291 -0.1890 -0.0381
 4481SOL    HW217690   2.730   2.108   6.167  0.0005  1.0424 -0.5995
 4481SOL    HW317691   2.604   2.028   6.140  0.2126  0.3021  0.5700
 4481SOL    MW417692   2.675   2.069   6.111  0.1232  0.0382 -0.0320
 4482SOL     OW17693   3.956   6.421   0.281 -0.4694 -0.2395  0.0007
 4482SOL    HW217694   3.905   6.403   0.360 -1.8918 -1.3454 -1.1061
 4482SOL    HW317695   4.018   6.489   0.307  0.8447 -2.2874  2.7625
 4482SOL    MW417696   3.957   6.428   0.294 -0.4837 -0.6556  0.2190
 4483SOL     OW17697   4.458   0.259   5.677 -0.2760  0.2081 -0.2206
 4483SOL    HW217698   4.476   0.353   5.682  0.5869 -0.0290  2.2088
 4483SOL    HW317699   4.393   0.243   5.745  0.8340 -1.1750  0.5791
 4483SOL    MW417700   4.452   0.269   5.686 -0.0157 -0.0057  0.2055
 4484SOL     OW17701   4.355   2.542   0.094  0.7327 -0.0768 -0.0326
 4484SOL    HW217702   4.393   2.629   0.111 -0.3852  0.4336 -0.0496
 4484SOL    HW317703   4.304   2.554   0.014  2.9567 -1.5275 -1.8182
 4484SOL    MW417704   4.354   2.555   0.085  0.8786 -0.2009 -0.2704
 4485SOL     OW17705   2.279   5.365   0.705 -0.2799 -0.1187 -0.3676
 4485SOL    HW217706   2.190   5.333   0.721 -0.2892  1.0505  2.4888
 4485SOL    HW317707   2.282   5.450   0.749  2.2441 -0.0774 -0.4834
 4485SOL    MW417708   2.267   5.372   0.713  0.0519  0.0410 -0.0060
 4486SOL     OW17709   2.150   3.335   5.121 -0.0333  0.2241 -0.4208
 4486SOL    HW217710   2.083   3.339   5.190 -0.2395 -1.1803 -0.5088
 4486SOL    HW317711   2.149   3.243   5.093 -0.5954  0.9298 -2.9234
 4486SOL    MW417712   2.141   3.323   5.127 -0.1347  0.1319 -0.7626
 4487SOL     OW17713   5.482   1.353   3.742 -0.1912 -0.0975  0.0102
 4487SOL    HW217714   5.469   1.313   3.656 -1.0426 -1.5098  0.7625
 4487SOL    HW317715   5.538   1.292   3.790  0.8865  1.0329  0.2363
 4487SOL    MW417716   5.488   1.340   3.737 -0.1613 -0.1347  0.1393
 4488SOL     OW17717   5.323   2.319   5.856 -0.1355  0.1646  0.2903
 4488SOL    HW217718   5.324   2.319   5.952 -2.9328  0.0752  0.4015
 4488SOL    HW317719   5.334   2.228   5.832 -1.0557 -0.0519  0.6329
 4488SOL    MW417720   5.324   2.307   5.866 -0.6260  0.1242  0.3501
 4489SOL     OW17721   1.227   5.211   0.053 -0.0492  0.2517  0.1986
 4489SOL    HW217722   1.157   5.234  -0.008  0.2040 -1.4562 -0.8071
 4489SOL    HW317723   1.187   5.223   0.140 -1.1566  0.5674 -0.3310
 4489SOL    MW417724   1.212   5.216   0.056 -0.1619  0.0680 -0.0040
 4490SOL     OW17725   5.269   0.582   0.366 -0.0117 -0.1641  0.1222
 4490SOL    HW217726   5.300   0.552   0.452 -1.4864 -1.1108  0.3679
 4490SOL    HW317727   5.238   0.671   0.382 -1.0181 -0.6085  0.7951
 4490SOL    MW417728   5.269   0.590   0.380 -0.3390 -0.3477  0.2434
 4491SOL     OW17729   1.175   0.688   4.875  0.1891 -0.3604  0.0888
 4491SOL    HW217730   1.264   0.652   4.875 -0.0913 -1.2155  2.7535
 4491SOL    HW317731   1.121   0.619   4.836 -0.0975 -2.4368  3.7485
 4491SOL    MW417732   1.179   0.674   4.870  0.1143 -0.7471  0.9232
 4492SOL     OW17733   5.394   5.919   0.808  0.0450 -0.0744  0.6969
 4492SOL    HW217734   5.356   5.990   0.861 -0.9368 -1.1108  1.4471
 4492SOL    HW317735   5.326   5.852   0.806  0.8691 -0.9194 -0.1708
 4492SOL    MW417736   5.380   5.919   0.815  0.0242 -0.3226  0.6814
 4493SOL     OW17737   5.686   1.458   2.972  0.1997 -0.1024  0.8640
 4493SOL    HW217738   5.626   1.531   2.986 -0.9210 -0.5162 -1.3331
 4493SOL    HW317739   5.674   1.434   2.880  1.6724 -2.0652  1.1099
 4493SOL    MW417740   5.677   1.465   2.961  0.2462 -0.4159  0.6065
 4494SOL     OW17741   2.525   5.419   2.162  0.2194  0.0320 -0.1135
 4494SOL    HW217742   2.554   5.345   2.110  0.3910  0.1199 -0.1436
 4494SOL    HW317743   2.431   5.408   2.170  0.2555 -0.2308 -0.0523
 4494SOL    MW417744   2.517   5.408   2.156  0.2468  0.0090 -0.1094
 4495SOL     OW17745   5.127   2.710   2.878 -0.2631 -0.0909 -0.4860
 4495SOL    HW217746   5.102   2.711   2.971 -1.3632  0.4856 -0.7747
 4495SOL    HW317747   5.205   2.655   2.876  0.5584  0.9400  0.9781
 4495SOL    MW417748   5.134   2.703   2.890 -0.2999  0.1212 -0.3310
 4496SOL     OW17749   2.994   0.455   4.512  0.4974 -0.3227  0.1336
 4496SOL    HW217750   2.975   0.361   4.509 -0.2448 -0.2264  1.2019
 4496SOL    HW317751   2.910   0.496   4.530  0.6531  0.6369 -1.2193
 4496SOL    MW417752   2.980   0.448   4.514  0.4200 -0.1834  0.0961
 4497SOL     OW17753   0.083   4.280   5.014  0.1325 -0.6511 -0.1997
 4497SOL    HW217754   0.132   4.293   5.096  1.7479 -0.6276 -1.1129
 4497SOL    HW317755   0.098   4.360   4.964 -0.4322 -0.8616 -0.7179
 4497SOL    MW417756   0.092   4.292   5.018  0.2711 -0.6757 -0.3886
 4498SOL     OW17757   4.955   4.150   2.590  0.2626  0.0076  0.1609
 4498SOL    HW217758   5.045   4.181   2.602 -0.1879  1.1685  0.6325
 4498SOL    HW317759   4.902   4.229   2.594 -1.1225 -0.9465  3.2504
 4498SOL    MW417760   4.960   4.164   2.592  0.0204  0.0349  0.6307
 4499SOL     OW17761   2.282   2.176   0.831 -0.5660  0.0961 -0.2867
 4499SOL    HW217762   2.322   2.212   0.751 -0.5555 -0.3356 -0.4794
 4499SOL    HW317763   2.251   2.253   0.879  0.2184  0.4198 -0.2792
 4499SOL    MW417764   2.283   2.191   0.826 -0.4612  0.0819 -0.3111
 4500SOL     OW17765   3.307   4.772   3.781  0.1453  0.2792  0.2364
 4500SOL    HW217766   3.363   4.772   3.704 -0.7544 -1.1558 -0.4605
 4500SOL    HW317767   3.218   4.773   3.746 -0.2962  1.7384  1.3072
 4500SOL    MW417768   3.303   4.772   3.766 -0.0316  0.2824  0.2858
 4501SOL     OW17769   1.465   1.082   5.180  0.3555  0.2509 -0.0884
 4501SOL    HW217770   1.513   1.087   5.262  1.2260 -0.1927 -0.5523
 4501SOL    HW317771   1.405   1.007   5.191 -3.1367  3.0122  1.9267
 4501SOL    MW417772   1.463   1.073   5.192  0.0096  0.5567  0.1162
 4502SOL     OW17773   6.413   2.654   1.548 -0.1046 -0.1302 -0.1335
 4502SOL    HW217774   6.444   2.586   1.488  0.6539 -0.4851  0.6379
 4502SOL    HW317775   6.426   2.617   1.635 -0.1384  0.8131  0.2848
 4502SOL    MW417776   6.419   2.640   1.551 -0.0090 -0.0525  0.0234
 4503SOL     OW17777   2.380   1.476   2.670  0.6825  0.1203 -0.1482
 4503SOL    HW217778   2.356   1.559   2.711  0.6891 -0.5426  1.2374
 4503SOL    HW317779   2.302   1.450   2.621  0.2661  0.3559  0.3863
 4503SOL    MW417780   2.367   1.484   2.669  0.6285  0.0640  0.1051
 4504SOL     OW17781   1.955   3.393   5.327 -0.0353 -0.2257 -0.0818
 4504SOL    HW217782   2.018   3.357   5.390  1.4164  0.0141 -1.3295
 4504SOL    HW317783   1.927   3.476   5.366  0.6745 -0.1799  0.3608
 4504SOL    MW417784   1.960   3.399   5.340  0.2499 -0.1880 -0.1880
 4505SOL     OW17785   2.251   3.718   3.458  0.0182  0.0055 -0.1032
 4505SOL    HW217786   2.210   3.803   3.441 -0.0119  0.3683  1.6578
 4505SOL    HW317787   2.211   3.688   3.539  2.2642 -0.2387  0.9737
 4505SOL    MW417788   2.240   3.725   3.466  0.3106  0.0212  0.2712
 4506SOL     OW17789   3.318   5.613   2.393 -0.6227 -0.2755  0.2385
 4506SOL    HW217790   3.269   5.660   2.461 -2.2874 -3.7251  1.6844
 4506SOL    HW317791   3.250   5.583   2.332  0.0197 -2.3194  0.4470
 4506SOL    MW417792   3.302   5.615   2.394 -0.7576 -1.0003  0.4568
 4507SOL     OW17793   0.807   5.563   1.350 -0.0427  0.1022  0.0108
 4507SOL    HW217794   0.754   5.574   1.271 -1.3163 -1.7873  0.5421
 4507SOL    HW317795   0.812   5.469   1.363  2.3466  0.2669  0.7761
 4507SOL    MW417796   0.801   5.552   1.341  0.1045 -0.1254  0.1819
 4508SOL     OW17797   0.435   0.431   2.519  0.0856 -0.4598 -0.1543
 4508SOL    HW217798   0.404   0.355   2.568 -2.9749  1.4775  1.1492
 4508SOL    HW317799   0.366   0.449   2.456  0.5631  1.4412 -0.1946
 4508SOL    MW417800   0.422   0.423   2.517 -0.2552  0.0466  0.0123
 4509SOL     OW17801   1.025   2.830   5.561  0.2411  0.5340 -0.2033
 4509SOL    HW217802   1.067   2.860   5.642  0.2015 -0.9880  0.4160
 4509SOL    HW317803   0.933   2.853   5.572  0.0082 -0.7162  0.7563
 4509SOL    MW417804   1.018   2.837   5.573  0.2052  0.1683  0.0050
 4510SOL     OW17805   4.233   4.280   0.654 -0.0950 -0.2365 -0.4509
 4510SOL    HW217806   4.201   4.360   0.613  0.1773 -0.8003 -1.8316
 4510SOL    HW317807   4.164   4.216   0.638  1.1646 -1.1883 -2.5498
 4510SOL    MW417808   4.220   4.282   0.646  0.1071 -0.4364 -0.9100
 4511SOL     OW17809   4.729   1.173   5.132 -0.0257 -0.4235  0.4139
 4511SOL    HW217810   4.739   1.222   5.214 -0.3388 -0.6647  0.5989
 4511SOL    HW317811   4.791   1.214   5.071 -0.9652  0.8444  0.2694
 4511SOL    MW417812   4.738   1.185   5.135 -0.1910 -0.2881  0.4192
 4512SOL     OW17813   3.725   2.506   4.012  0.3859 -0.7863 -0.1709
 4512SOL    HW217814   3.738   2.431   4.070  2.1595 -1.0455 -0.8154
 4512SOL    HW317815   3.667   2.565   4.060  2.0521 -0.8234  2.0680
 4512SOL    MW417816   3.719   2.504   4.026  0.8398 -0.8254  0.0394
 4513SOL     OW17817   3.714   4.561   3.863  0.1091  0.1429 -0.3575
 4513SOL    HW217818   3.619   4.556   3.875  0.0187  2.1208  0.1688
 4513SOL    HW317819   3.732   4.504   3.789 -1.7275  0.8408 -1.4144
 4513SOL    MW417820   3.704   4.553   3.854 -0.1451  0.4959 -0.4275
 4514SOL     OW17821   3.476   3.928   1.128  0.0261  0.0300  0.1593
 4514SOL    HW217822   3.421   3.930   1.207 -1.4634 -0.2749 -0.8402
 4514SOL    HW317823   3.417   3.950   1.057  0.2618 -3.7856 -1.4617
 4514SOL    MW417824   3.461   3.931   1.129 -0.1393 -0.5136 -0.1865
 4515SOL     OW17825   0.037   0.048   5.776  0.0110  0.0729  0.5601
 4515SOL    HW217826   0.035  -0.037   5.820 -2.7030 -1.7284 -2.6165
 4515SOL    HW317827  -0.009   0.107   5.836 -0.8946 -1.5184  1.5030
 4515SOL    MW417828   0.030   0.045   5.790 -0.4665 -0.3747  0.2654
 4516SOL     OW17829   0.249   6.054   1.493 -0.7925 -0.5861  0.3232
 4516SOL    HW217830   0.165   6.031   1.453 -1.8790  0.2816  1.9942
 4516SOL    HW317831   0.226   6.102   1.573  1.2680 -1.3745  1.4849
 4516SOL    MW417832   0.235   6.057   1.498 -0.6640 -0.5756  0.6969
 4517SOL     OW17833   2.669   3.595   2.442 -0.1172  0.3971  0.5721
 4517SOL    HW217834   2.697   3.633   2.358  0.6466  0.6239  0.9153
 4517SOL    HW317835   2.591   3.544   2.421  1.3127 -1.4102 -0.7095
 4517SOL    MW417836   2.662   3.593   2.428  0.1722  0.1886  0.4483
 4518SOL     OW17837   4.692   5.398   2.098 -0.5093  0.0845 -0.5781
 4518SOL    HW217838   4.635   5.347   2.040 -1.1359 -0.7438  0.7083
 4518SOL    HW317839   4.683   5.355   2.183  0.6912  1.0218  0.0464
 4518SOL    MW417840   4.683   5.386   2.101 -0.4336  0.0989 -0.3260
 4519SOL     OW17841   2.497   5.954   0.271  0.2909 -0.0570 -0.3319
 4519SOL    HW217842   2.418   5.902   0.262 -0.9102  1.4165  1.0310
 4519SOL    HW317843   2.522   5.943   0.363  0.1707  1.4884 -0.0858
 4519SOL    MW417844   2.490   5.946   0.282  0.1165  0.3413 -0.1196
 4520SOL     OW17845   6.072   3.761   0.994 -0.1146  0.0756 -0.4161
 4520SOL    HW217846   6.141   3.735   1.055 -1.4811  0.1185  1.2080
 4520SOL    HW317847   6.095   3.850   0.968 -0.0955  0.4874  0.9452
 4520SOL    MW417848   6.084   3.769   0.998 -0.2923  0.1356 -0.0222
 4521SOL     OW17849   3.899   1.238   2.467 -0.8425  0.4395 -0.2575
 4521SOL    HW217850   3.963   1.224   2.397 -0.4153  2.0342 -0.2306
 4521SOL    HW317851   3.943   1.207   2.546 -0.2976  1.0485 -0.3155
 4521SOL    MW417852   3.913   1.232   2.468 -0.7142  0.7303 -0.2616
 4522SOL     OW17853   1.285   3.644   3.653 -0.1923  0.0689 -0.5070
 4522SOL    HW217854   1.277   3.712   3.720 -1.6138 -0.7633  0.2305
 4522SOL    HW317855   1.354   3.587   3.686 -0.5173 -0.0424  0.0021
 4522SOL    MW417856   1.293   3.645   3.666 -0.4227 -0.0556 -0.3425
 4523SOL     OW17857   2.529   0.471   4.024 -0.0540  0.1463  0.2845
 4523SOL    HW217858   2.539   0.380   3.994  0.0372 -0.5909  2.3606
 4523SOL    HW317859   2.435   0.489   4.014 -0.3358 -0.7210  1.2224
 4523SOL    MW417860   2.518   0.461   4.019 -0.0792 -0.0654  0.6821
 4524SOL     OW17861   1.701   3.878   1.552  0.0252  0.0368 -0.3182
 4524SOL    HW217862   1.735   3.926   1.628 -1.2691 -2.8103  2.2910
 4524SOL    HW317863   1.778   3.860   1.498  1.7325 -0.9030  2.2261
 4524SOL    MW417864   1.716   3.882   1.555  0.0797 -0.4628  0.3617
 4525SOL     OW17865   1.440   2.525   4.396  0.5311 -0.6410  0.5862
 4525SOL    HW217866   1.496   2.448   4.382  1.2972 -0.0694  0.4909
 4525SOL    HW317867   1.414   2.551   4.307  0.2723 -0.7824  0.6183
 4525SOL    MW417868   1.444   2.518   4.382  0.5980 -0.5842  0.5779
 4526SOL     OW17869   5.243   4.843   6.058 -0.0388  0.8710 -0.4700
 4526SOL    HW217870   5.238   4.826   6.152 -2.1666 -2.2062 -1.0002
 4526SOL    HW317871   5.334   4.828   6.035  0.4400  1.3329  1.0268
 4526SOL    MW417872   5.254   4.839   6.067 -0.2564  0.5259 -0.3425
 4527SOL     OW17873   0.532   5.989   1.582  0.0634 -0.6032 -0.3441
 4527SOL    HW217874   0.602   5.980   1.518 -0.3236  0.0623 -0.8869
 4527SOL    HW317875   0.509   6.082   1.579  0.0606 -0.5591  0.7915
 4527SOL    MW417876   0.538   6.000   1.573  0.0119 -0.5096 -0.2659
 4528SOL     OW17877   4.826   0.600   2.787 -0.1223  0.4094  0.4487
 4528SOL    HW217878   4.840   0.523   2.843 -0.6513 -0.9144 -1.1634
 4528SOL    HW317879   4.902   0.656   2.804  1.4975 -1.5310  0.0016
 4528SOL    MW417880   4.838   0.597   2.797  0.0216 -0.0213  0.1770
 4529SOL     OW17881   3.964   4.166   3.702 -0.4600  0.0470  0.0084
 4529SOL    HW217882   3.875   4.147   3.731 -0.4742  0.2402  0.0922
 4529SOL    HW317883   4.010   4.192   3.782  0.7262 -3.7828  0.7946
 4529SOL    MW417884   3.958   4.167   3.717 -0.3053 -0.4328  0.1232
 4530SOL     OW17885   2.852   1.570   5.681 -0.1329  0.1490 -0.7553
 4530SOL    HW217886   2.819   1.563   5.771 -0.7003  0.3924 -0.9396
 4530SOL    HW317887   2.897   1.654   5.678  0.0989  0.0281 -0.6288
 4530SOL    MW417888   2.853   1.580   5.693 -0.1772  0.1652 -0.7629
 4531SOL     OW17889   4.407   3.033   5.878  0.1032  0.1457 -0.4112
 4531SOL    HW217890   4.313   3.048   5.890 -0.0357 -0.0309 -1.2214
 4531SOL    HW317891   4.437   3.111   5.831  0.1086 -0.3666 -1.2819
 4531SOL    MW417892   4.398   3.045   5.873  0.0856  0.0548 -0.6329
 4532SOL     OW17893   5.429   6.406   5.313  0.0266  0.0206 -0.1086
 4532SOL    HW217894   5.369   6.478   5.331  0.3957  0.0856  0.9353
 4532SOL    HW317895   5.477   6.394   5.395  2.4836  0.9449 -1.3422
 4532SOL    MW417896   5.427   6.414   5.326  0.3995  0.1511 -0.1336
 4533SOL     OW17897   3.356   0.669   4.928 -0.4909  0.1837 -0.3740
 4533SOL    HW217898   3.398   0.584   4.935 -2.7225 -0.9211  0.6223
 4533SOL    HW317899   3.408   0.716   4.863  0.5435 -2.1037 -1.3226
 4533SOL    MW417900   3.368   0.664   4.920 -0.6488 -0.2639 -0.3677
 4534SOL     OW17901   5.014   2.399   5.159  0.0627 -0.0480  0.2778
 4534SOL    HW217902   5.085   2.383   5.222 -0.4089 -1.6881  0.4329
 4534SOL    HW317903   5.005   2.494   5.158  1.1021  0.1067  1.5538
 4534SOL    MW417904   5.022   2.409   5.168  0.1376 -0.2440  0.4666
 4535SOL     OW17905   5.953   2.341   3.158 -0.0736 -0.6919 -0.4845
 4535SOL    HW217906   5.893   2.415   3.165 -0.1364 -0.7981  0.1357
 4535SOL    HW317907   6.036   2.372   3.193 -0.0014 -0.8084 -0.5475
 4535SOL    MW417908   5.956   2.355   3.163 -0.0724 -0.7213 -0.4110
 4536SOL     OW17909   5.149   4.716   2.533  0.3266  0.0978 -0.4014
 4536SOL    HW217910   5.164   4.729   2.440 -0.7844 -3.5305 -1.2476
 4536SOL    HW317911   5.054   4.702   2.540  0.4396 -0.0608  1.2391
 4536SOL    MW417912   5.138   4.716   2.522  0.1949 -0.4018 -0.2966
 4537SOL     OW17913   0.553   1.741   2.879  0.8196  0.4150 -0.1539
 4537SOL    HW217914   0.470   1.698   2.900  0.4728  1.0264 -0.2371
 4537SOL    HW317915   0.548   1.825   2.925  1.0301  0.8054 -0.8322
 4537SOL    MW417916   0.541   1.746   2.888  0.8016  0.5471 -0.2544
 4538SOL     OW17917   2.567   1.613   4.542 -0.0645  0.5540  0.6808
 4538SOL    HW217918   2.631   1.680   4.565  1.8379 -1.4304  1.5518
 4538SOL    HW317919   2.550   1.566   4.624 -1.0013 -0.3253  0.0140
 4538SOL    MW417920   2.573   1.615   4.556  0.0629  0.1762  0.7077
 4539SOL     OW17921   1.448   1.817   3.021 -0.7307 -0.2008 -0.5048
 4539SOL    HW217922   1.533   1.849   2.992 -1.3204  1.6013 -0.3571
 4539SOL    HW317923   1.385   1.872   2.976 -1.7290  0.8670  2.0045
 4539SOL    MW417924   1.451   1.828   3.011 -0.9402  0.1779 -0.1543
 4540SOL     OW17925   1.987   2.340   6.213 -0.8656 -0.4165  0.4662
 4540SOL    HW217926   1.995   2.394   6.292  0.2775 -1.2224  0.9343
 4540SOL    HW317927   1.893   2.338   6.194 -1.0733  0.4773  1.3087
 4540SOL    MW417928   1.976   2.347   6.221 -0.7422 -0.4049  0.6391
 4541SOL     OW17929   5.551   6.004   3.819  0.0187 -0.0560  0.6971
 4541SOL    HW217930   5.559   6.097   3.798  1.4629 -0.3649 -0.2765
 4541SOL    HW317931   5.528   5.962   3.735  0.2131 -0.6749  0.9485
 4541SOL    MW417932   5.549   6.010   3.805  0.2349 -0.1784  0.6018
 4542SOL     OW17933   3.784   3.189   0.545  0.0142 -0.7539  0.0486
 4542SOL    HW217934   3.850   3.126   0.516 -1.1210 -1.9902  0.0628
 4542SOL    HW317935   3.751   3.227   0.464  2.4617  1.8049  0.0909
 4542SOL    MW417936   3.789   3.186   0.531  0.1874 -0.5794  0.0560
 4543SOL     OW17937   0.075   3.717   1.061 -0.1082  0.4388 -0.0383
 4543SOL    HW217938  -0.008   3.698   1.105 -1.6061  3.4095 -1.2632
 4543SOL    HW317939   0.124   3.769   1.125 -0.1757  0.6062 -0.1223
 4543SOL    MW417940   0.071   3.722   1.076 -0.3148  0.8528 -0.2110
 4544SOL     OW17941   4.580   4.599   3.889 -0.1701  0.0964  0.0849
 4544SOL    HW217942   4.620   4.684   3.904 -0.8947  0.5925 -0.7324
 4544SOL    HW317943   4.486   4.614   3.902 -0.2659 -0.6895  0.3886
 4544SOL    MW417944   4.573   4.612   3.893 -0.2784  0.0582  0.0172
 4545SOL     OW17945   3.470   4.524   3.187  0.0057  0.2015 -0.2096
 4545SOL    HW217946   3.420   4.606   3.190  0.5967  0.5675 -0.1785
 4545SOL    HW317947   3.532   4.537   3.115  1.6403  0.6854  1.2315
 4545SOL    MW417948   3.472   4.537   3.178  0.2993  0.3136 -0.0153
 4546SOL     OW17949   1.950   0.839   2.204  0.3538  0.3402  0.2641
 4546SOL    HW217950   1.997   0.779   2.146  0.1108  1.0213 -0.6564
 4546SOL    HW317951   1.870   0.792   2.228 -0.1380  0.5111 -0.9523
 4546SOL    MW417952   1.946   0.825   2.200  0.2568  0.4526 -0.0178
 4547SOL     OW17953   2.845   1.494   1.500  0.8716  0.2556 -0.0021
 4547SOL    HW217954   2.836   1.581   1.540  0.3224  0.6365 -0.9230
 4547SOL    HW317955   2.769   1.445   1.533  0.1496  0.7218 -0.9349
 4547SOL    MW417956   2.834   1.499   1.510  0.7039  0.3674 -0.2467
 4548SOL     OW17957   1.862   1.078   4.272 -0.4110  0.1426 -0.3212
 4548SOL    HW217958   1.939   1.134   4.270  0.2958 -0.8029 -0.2850
 4548SOL    HW317959   1.796   1.125   4.221 -0.3278  1.6866  0.9221
 4548SOL    MW417960   1.863   1.091   4.265 -0.3068  0.2215 -0.1524
 4549SOL     OW17961   2.202   1.217   2.995  0.0408  0.3161  0.5419
 4549SOL    HW217962   2.159   1.298   2.969  0.6249  1.1698  2.1303
 4549SOL    HW317963   2.283   1.215   2.945 -0.9958 -0.4665 -1.2047
 4549SOL    MW417964   2.207   1.227   2.985 -0.0189  0.3255  0.5210
 4550SOL     OW17965   0.570   4.354   4.850 -0.0479  0.1220 -0.1808
 4550SOL    HW217966   0.617   4.322   4.772  1.0593  1.9786 -0.3355
 4550SOL    HW317967   0.572   4.449   4.841  0.1505  0.3804  2.1436
 4550SOL    MW417968   0.577   4.362   4.838  0.1244  0.4010  0.1055
 4551SOL     OW17969   4.941   1.098   3.819 -0.3108  0.3229 -0.1878
 4551SOL    HW217970   4.893   1.097   3.901  0.7672  1.6457  0.4959
 4551SOL    HW317971   4.963   1.190   3.804 -0.7610  0.1544 -2.1361
 4551SOL    MW417972   4.938   1.110   3.827 -0.2280  0.4752 -0.3546
 4552SOL     OW17973   2.559   5.696   4.029  0.2887  0.5685  0.0775
 4552SOL    HW217974   2.569   5.670   4.121  0.6805  0.5809  0.0399
 4552SOL    HW317975   2.643   5.735   4.006  0.1958  0.5539 -0.2901
 4552SOL    MW417976   2.572   5.697   4.038  0.3281  0.5682  0.0240
 4553SOL     OW17977   5.798   3.302   5.647  0.7304 -0.2164  0.3115
 4553SOL    HW217978   5.772   3.307   5.555 -1.8968  1.1078  1.0217
 4553SOL    HW317979   5.825   3.391   5.669  1.3105 -0.5156  0.8515
 4553SOL    MW417980   5.798   3.314   5.638  0.4603 -0.0811  0.4764
 4554SOL     OW17981   1.092   5.353   3.312 -0.6098  0.6147 -0.3813
 4554SOL    HW217982   1.125   5.367   3.401 -1.3494  2.4140 -0.3524
 4554SOL    HW317983   1.170   5.333   3.260  0.0393  1.1010  0.3818
 4554SOL    MW417984   1.107   5.352   3.317 -0.6218  0.9163 -0.2768
 4555SOL     OW17985   6.183   3.967   2.573 -0.4879 -0.1205  0.2727
 4555SOL    HW217986   6.221   3.965   2.661 -0.2833  1.5660  0.2528
 4555SOL    HW317987   6.094   3.935   2.585  0.2090 -2.0888  0.6778
 4555SOL    MW417988   6.177   3.962   2.586 -0.3690 -0.1577  0.3235
 4556SOL     OW17989   0.846   5.287   2.896  0.1240 -0.3881  0.1056
 4556SOL    HW217990   0.886   5.236   2.827 -0.0460  0.6025 -0.7439
 4556SOL    HW317991   0.864   5.237   2.976  0.4143 -1.4873 -0.6238
 4556SOL    MW417992   0.853   5.274   2.898  0.1399 -0.4024 -0.1027
 4557SOL     OW17993   0.226   6.432   3.591  0.2268  0.0840  0.5357
 4557SOL    HW217994   0.184   6.518   3.590  0.8163  0.4334  2.4275
 4557SOL    HW317995   0.227   6.405   3.499 -0.5635  1.7972 -0.0193
 4557SOL    MW417996   0.221   6.440   3.579  0.2003  0.3561  0.7120
 4558SOL     OW17997   5.820   1.978   0.310 -0.3087  0.0325 -0.0418
 4558SOL    HW217998   5.752   2.022   0.259 -1.3053 -1.0551  0.3132
 4558SOL    HW317999   5.841   2.040   0.380 -3.6584 -0.9802  2.1162
 4558SOL    MW418000   5.814   1.992   0.312 -0.8822 -0.2446  0.2898
 4559SOL     OW18001   4.799   2.178   2.552 -0.4782 -0.9859 -0.2677
 4559SOL    HW218002   4.739   2.171   2.627 -1.6617  1.3077 -0.9077
 4559SOL    HW318003   4.884   2.199   2.591 -0.3409 -2.9339  0.5742
 4559SOL    MW418004   4.802   2.180   2.567 -0.6162 -0.9403 -0.2410
 4560SOL     OW18005   2.826   0.275   3.520 -0.5702 -0.4684 -0.0157
 4560SOL    HW218006   2.890   0.246   3.585 -0.9093  1.1676  1.1022
 4560SOL    HW318007   2.748   0.221   3.538 -0.8820  0.3818  1.4223
 4560SOL    MW418008   2.824   0.264   3.531 -0.6561 -0.1404  0.3215
 4561SOL     OW18009   3.476   6.233   6.293  0.4623  0.2006  0.3284
 4561SOL    HW218010   3.521   6.296   6.349 -0.9702  0.4246  1.2748
 4561SOL    HW318011   3.544   6.172   6.266  1.6542  1.4788  0.3262
 4561SOL    MW418012   3.491   6.234   6.297  0.4306  0.3988  0.4530
 4562SOL     OW18013   4.109   0.376   3.780 -0.0990 -0.3879  0.2264
 4562SOL    HW218014   4.201   0.400   3.767 -0.2025 -0.2039 -0.1681
 4562SOL    HW318015   4.112   0.307   3.847  0.4574 -1.4162 -0.8266
 4562SOL    MW418016   4.121   0.370   3.787 -0.0392 -0.4993  0.0354
 4563SOL     OW18017   1.363   3.520   3.954  0.2236  0.4597  0.9304
 4563SOL    HW218018   1.364   3.469   4.035 -0.3601 -0.6865  0.2368
 4563SOL    HW318019   1.275   3.557   3.951 -0.5291 -1.2886 -0.2260
 4563SOL    MW418020   1.351   3.518   3.965  0.0473  0.0778  0.6863
 4564SOL     OW18021   1.920   4.222   4.940 -0.1888 -0.1786 -0.0346
 4564SOL    HW218022   1.892   4.147   4.994 -1.0909 -0.7925 -1.3013
 4564SOL    HW318023   1.985   4.267   4.994 -0.2733 -1.3705  1.1280
 4564SOL    MW418024   1.925   4.218   4.955 -0.3189 -0.4169 -0.0483
 4565SOL     OW18025   2.713   3.117   1.306  0.5822 -0.9797  0.1986
 4565SOL    HW218026   2.695   3.200   1.261  0.4540 -1.2555 -0.2643
 4565SOL    HW318027   2.660   3.121   1.385 -0.3649 -1.1265 -0.4078
 4565SOL    MW418028   2.704   3.128   1.310  0.4403 -1.0354  0.0575
 4566SOL     OW18029   0.091   5.847   5.370 -0.0910  0.2328  0.0494
 4566SOL    HW218030   0.132   5.791   5.303 -1.2034  0.9186 -1.2591
 4566SOL    HW318031   0.031   5.902   5.320 -1.1450  0.5945  1.6756
 4566SOL    MW418032   0.089   5.847   5.354 -0.3768  0.3710  0.0913
 4567SOL     OW18033   2.431   5.646   3.084 -0.1645  0.8155 -0.4467
 4567SOL    HW218034   2.441   5.623   2.991 -0.8478 -0.0272 -0.3274
 4567SOL    HW318035   2.512   5.616   3.125  0.8356  2.6115 -1.0008
 4567SOL    MW418036   2.443   5.639   3.077 -0.1227  0.9413 -0.5041
 4568SOL     OW18037   1.056   4.352   1.288 -0.0295 -0.2204 -0.7129
 4568SOL    HW218038   1.094   4.348   1.375 -0.4671 -0.2293 -0.5214
 4568SOL    HW318039   1.131   4.360   1.229  0.2056  1.5602 -0.2293
 4568SOL    MW418040   1.071   4.352   1.292 -0.0562  0.0133 -0.6239
 4569SOL     OW18041   4.736   6.062   0.267  0.2126  0.3136  0.0141
 4569SOL    HW218042   4.824   6.047   0.302  0.3899  1.0811 -0.0738
 4569SOL    HW318043   4.694   5.976   0.269  0.0951  0.3612  2.4230
 4569SOL    MW418044   4.742   6.049   0.272  0.2205  0.4211  0.3203
 4570SOL     OW18045   0.299   3.645   3.414  0.2846  0.2179  0.9220
 4570SOL    HW218046   0.368   3.649   3.481  1.0761 -0.0549  0.1398
 4570SOL    HW318047   0.304   3.729   3.370  0.6231 -0.0819  0.3794
 4570SOL    MW418048   0.309   3.657   3.417  0.4337  0.1423  0.7472
 4571SOL     OW18049   1.781   4.239   0.930  0.0937 -0.0390 -0.4424
 4571SOL    HW218050   1.756   4.178   0.861 -2.4352  1.3814 -0.8959
 4571SOL    HW318051   1.778   4.188   1.010  0.7741 -1.1438 -1.0923
 4571SOL    MW418052   1.777   4.224   0.931 -0.1502  0.0026 -0.5880
 4572SOL     OW18053   3.071   4.241   5.487  0.2934  0.7685  0.0222
 4572SOL    HW218054   3.103   4.180   5.421 -0.6943  1.3727 -1.0600
 4572SOL    HW318055   3.006   4.294   5.441  0.2388  1.8207  1.2513
 4572SOL    MW418056   3.067   4.240   5.472  0.1559  0.9870  0.0416
 4573SOL     OW18057   4.857   1.745   5.930  0.1226  0.1281 -0.6253
 4573SOL    HW218058   4.935   1.790   5.898  0.1449 -1.2415 -2.6794
 4573SOL    HW318059   4.794   1.753   5.858 -0.7711 -0.8354  0.0289
 4573SOL    MW418060   4.859   1.752   5.916  0.0076 -0.1798 -0.8100
 4574SOL     OW18061   0.744   4.395   0.411  0.4400 -0.4936 -0.4826
 4574SOL    HW218062   0.699   4.476   0.389  0.3947 -0.4686 -0.2957
 4574SOL    HW318063   0.809   4.384   0.342  1.9322  0.8238  0.6669
 4574SOL    MW418064   0.746   4.404   0.399  0.6309 -0.3165 -0.3063
 4575SOL     OW18065   2.624   5.539   3.265  0.2220  0.0749  0.0760
 4575SOL    HW218066   2.649   5.458   3.309 -0.6501  0.1206  0.6759
 4575SOL    HW318067   2.650   5.608   3.326  1.3733  0.2871 -0.6269
 4575SOL    MW418068   2.631   5.538   3.279  0.2588  0.1090  0.0624
 4576SOL     OW18069   2.935   4.817   5.224  0.0151 -0.1945 -0.2700
 4576SOL    HW218070   2.867   4.750   5.233  1.8104 -2.0523  0.2506
 4576SOL    HW318071   2.957   4.840   5.315  0.2581  0.2174 -0.4313
 4576SOL    MW418072   2.928   4.811   5.237  0.2840 -0.3853 -0.2226
 4577SOL     OW18073   3.387   5.148   1.987  0.3205  0.2105 -0.8874
 4577SOL    HW218074   3.442   5.072   2.004 -1.0889 -0.7125 -0.1709
 4577SOL    HW318075   3.415   5.213   2.051 -0.2765 -0.7268  0.3744
 4577SOL    MW418076   3.398   5.146   1.997  0.0558 -0.0349 -0.6264
 4578SOL     OW18077   1.416   1.659   2.615 -0.3174  0.3087 -0.7792
 4578SOL    HW218078   1.373   1.603   2.550  0.8311 -1.1946 -0.2957
 4578SOL    HW318079   1.386   1.624   2.699  0.3693  0.4494 -0.4713
 4578SOL    MW418080   1.406   1.647   2.617 -0.0753  0.1290 -0.6748
 4579SOL     OW18081   2.510   2.480   2.262 -0.3447  0.6530 -1.0524
 4579SOL    HW218082   2.591   2.493   2.311 -0.2697  0.9488 -1.2522
 4579SOL    HW318083   2.483   2.568   2.235  0.3479  0.3929 -2.7049
 4579SOL    MW418084   2.517   2.493   2.265 -0.2434  0.6577 -1.2968
 4580SOL     OW18085   0.501   0.229   0.964  0.3973 -0.2174  0.3313
 4580SOL    HW218086   0.421   0.280   0.978  0.2712 -0.4613  0.5237
 4580SOL    HW318087   0.571   0.294   0.961  0.2706 -0.0544  0.8279
 4580SOL    MW418088   0.500   0.244   0.965  0.3640 -0.2281  0.4222
 4581SOL     OW18089   2.315   4.195   5.403  0.3253 -0.3974 -0.8020
 4581SOL    HW218090   2.290   4.110   5.369 -0.3581 -0.2031 -0.8061
 4581SOL    HW318091   2.407   4.186   5.428 -0.2102 -1.6630  0.8599
 4581SOL    MW418092   2.324   4.183   5.402  0.1645 -0.5388 -0.5833
 4582SOL     OW18093   5.658   4.081   1.915  0.4964 -0.4954 -0.5869
 4582SOL    HW218094   5.623   4.101   1.829 -0.7780 -1.0347 -0.2196
 4582SOL    HW318095   5.581   4.080   1.973  1.4755  1.2645  0.8398
 4582SOL    MW418096   5.643   4.083   1.911  0.4575 -0.3344 -0.3502
 4583SOL     OW18097   5.891   2.197   1.913 -0.9709 -0.5590 -0.2784
 4583SOL    HW218098   5.906   2.225   1.823 -1.5620 -0.2713 -0.2885
 4583SOL    HW318099   5.933   2.111   1.918  0.3337  0.0447 -0.4065
 4583SOL    MW418100   5.898   2.189   1.901 -0.8767 -0.4414 -0.2966
 4584SOL     OW18101   0.664   1.236   6.413  0.1506  0.1570  1.2159
 4584SOL    HW218102   0.630   1.149   6.437  1.7170 -1.4782 -1.8778
 4584SOL    HW318103   0.589   1.282   6.376 -0.3820 -0.4388  1.5243
 4584SOL    MW418104   0.650   1.230   6.412  0.2870 -0.1373  0.8484
 4585SOL     OW18105   4.540   0.464   2.276  0.2445 -0.7066 -0.0877
 4585SOL    HW218106   4.470   0.527   2.260 -0.0625 -0.6820  1.2983
 4585SOL    HW318107   4.498   0.393   2.325  1.6539  0.5075  3.1344
 4585SOL    MW418108   4.525   0.463   2.280  0.3899 -0.5432  0.5203
 4586SOL     OW18109   0.331   5.759   6.045 -0.2160  0.5768 -0.7191
 4586SOL    HW218110   0.422   5.749   6.071 -0.2858  1.7991  0.0687
 4586SOL    HW318111   0.282   5.759   6.127 -1.5226 -4.4141 -1.1696
 4586SOL    MW418112   0.336   5.758   6.059 -0.3976  0.0796 -0.6746
 4587SOL     OW18113   3.589   1.001   2.224 -0.5126 -0.6045 -0.1637
 4587SOL    HW218114   3.605   0.944   2.149  0.6806 -1.5369  0.7506
 4587SOL    HW318115   3.499   0.983   2.249 -1.0829  0.0655 -1.6298
 4587SOL    MW418116   3.579   0.991   2.217 -0.4304 -0.6391 -0.2365
 4588SOL     OW18117   3.625   5.711   1.935 -0.0751  0.5478 -1.1717
 4588SOL    HW218118   3.590   5.695   1.848  1.4812 -0.4421 -1.6515
 4588SOL    HW318119   3.572   5.656   1.993  0.4241 -0.6560 -1.8305
 4588SOL    MW418120   3.613   5.701   1.931  0.1961  0.2583 -1.3219
 4589SOL     OW18121   6.382   3.611   0.755  0.5607  0.5991  0.2157
 4589SOL    HW218122   6.437   3.536   0.776  1.0272  0.9736  0.3335
 4589SOL    HW318123   6.443   3.682   0.738  0.2538  0.3813 -2.2691
 4589SOL    MW418124   6.397   3.610   0.755  0.5818  0.6198 -0.0966
 4590SOL     OW18125   0.992   2.240   5.124 -0.4828 -0.8703 -0.3962
 4590SOL    HW218126   0.946   2.280   5.050 -1.0606 -0.4671  0.1686
 4590SOL    HW318127   1.054   2.307   5.153 -1.2699 -0.4605  0.3869
 4590SOL    MW418128   0.994   2.254   5.118 -0.6629 -0.7631 -0.2183
 4591SOL     OW18129   3.098   6.010   0.497 -0.2933  0.3242  0.0056
 4591SOL    HW218130   3.073   5.933   0.445  1.1802  0.2766 -0.6941
 4591SOL    HW318131   3.032   6.076   0.475  0.7841  0.6284 -2.7635
 4591SOL    MW418132   3.086   6.008   0.487  0.0432  0.3580 -0.4521
 4592SOL     OW18133   2.735   5.153   2.306 -0.3419  0.1303  0.2726
 4592SOL    HW218134   2.642   5.163   2.328 -0.6786 -0.3569 -0.8372
 4592SOL    HW318135   2.751   5.059   2.310 -0.1408  0.1279 -0.4606
 4592SOL    MW418136   2.725   5.142   2.309 -0.3598  0.0657  0.0295
 4593SOL     OW18137   2.787   4.542   5.188  0.3118 -0.1532 -0.4689
 4593SOL    HW218138   2.692   4.545   5.182  0.4015 -0.3556 -2.2801
 4593SOL    HW318139   2.817   4.518   5.101  2.0710  0.5900 -0.1143
 4593SOL    MW418140   2.779   4.539   5.176  0.5557 -0.0819 -0.6611
 4594SOL     OW18141   0.036   6.186   2.367 -0.7690 -0.7021 -0.0195
 4594SOL    HW218142  -0.047   6.234   2.364 -0.5457 -0.3409 -0.5245
 4594SOL    HW318143   0.099   6.244   2.324 -0.5332 -1.5090 -0.8152
 4594SOL    MW418144   0.033   6.200   2.361 -0.7084 -0.7609 -0.1911
 4595SOL     OW18145   4.990   4.000   0.375 -0.5390  0.2094 -0.4945
 4595SOL    HW218146   4.936   3.931   0.414 -1.0894  0.3127 -1.0600
 4595SOL    HW318147   5.073   3.994   0.421 -1.0277  0.0390  0.3876
 4595SOL    MW418148   4.994   3.990   0.386 -0.6761  0.2006 -0.4528
 4596SOL     OW18149   3.146   0.525   5.065 -0.5300  0.0493 -0.0253
 4596SOL    HW218150   3.084   0.500   4.996  2.1504 -0.8267 -2.2869
 4596SOL    HW318151   3.190   0.603   5.031  0.2147  0.1500  1.1147
 4596SOL    MW418152   3.144   0.532   5.051 -0.0781 -0.0530 -0.1733
 4597SOL     OW18153   2.971   5.277   3.418 -0.0349  0.1278  0.2039
 4597SOL    HW218154   3.016   5.196   3.442  0.7825 -0.0007 -1.6272
 4597SOL    HW318155   2.966   5.327   3.499  0.7073 -1.1542  1.0637
 4597SOL    MW418156   2.976   5.273   3.432  0.1709 -0.0583  0.0757
 4598SOL     OW18157   4.776   3.007   2.569  0.6033 -0.2331 -0.4651
 4598SOL    HW218158   4.819   3.085   2.606 -0.0438 -0.6834  1.2958
 4598SOL    HW318159   4.835   2.935   2.590  0.8947 -0.3411 -1.5597
 4598SOL    MW418160   4.789   3.008   2.576  0.5563 -0.3067 -0.3772
 4599SOL     OW18161   0.286   2.008   0.395  0.5304  0.3619  0.4221
 4599SOL    HW218162   0.301   1.929   0.343 -0.1086  0.5281 -0.0173
 4599SOL    HW318163   0.354   2.004   0.463 -0.6774 -1.5694  1.6119
 4599SOL    MW418164   0.297   1.997   0.397  0.2868  0.1290  0.5211
 4600SOL     OW18165   3.031   1.142   5.752 -0.5334 -0.0910 -0.0651
 4600SOL    HW218166   3.001   1.056   5.722 -1.5910  0.1861  0.1525
 4600SOL    HW318167   3.016   1.200   5.676  2.5856 -0.5324 -1.1676
 4600SOL    MW418168   3.025   1.139   5.738 -0.2614 -0.1126 -0.1818
 4601SOL     OW18169   5.211   0.031   0.321  0.2582 -0.0954 -0.1677
 4601SOL    HW218170   5.274  -0.022   0.271 -0.5163 -0.4120 -0.8311
 4601SOL    HW318171   5.265   0.092   0.371  1.1986 -1.6030  0.7433
 4601SOL    MW418172   5.227   0.032   0.321  0.2801 -0.3361 -0.1350
 4602SOL     OW18173   0.216   0.440   4.829 -0.2908 -0.4984  0.5494
 4602SOL    HW218174   0.287   0.502   4.847  1.3085 -2.1675  0.2840
 4602SOL    HW318175   0.183   0.466   4.743  1.1318 -0.6606 -0.0850
 4602SOL    MW418176   0.221   0.452   4.820  0.1079 -0.7400  0.4307
 4603SOL     OW18177   2.989   3.160   1.081  0.0573  0.1892  0.2229
 4603SOL    HW218178   2.976   3.162   1.176 -2.7868 -1.2636 -0.0548
 4603SOL    HW318179   3.054   3.091   1.068 -0.4532 -0.4641  1.0461
 4603SOL    MW418180   2.996   3.151   1.092 -0.3853 -0.0887  0.2949
 4604SOL     OW18181   0.362   2.072   3.539  0.3739  0.2973 -0.5773
 4604SOL    HW218182   0.340   2.157   3.575 -0.9870  0.6151 -2.0318
 4604SOL    HW318183   0.408   2.026   3.610 -0.4530  1.5725  0.8316
 4604SOL    MW418184   0.365   2.077   3.553  0.0853  0.5075 -0.5833
 4605SOL     OW18185   2.681   5.538   6.285 -0.2795  0.1329  0.3450
 4605SOL    HW218186   2.708   5.585   6.206  0.0952  0.9231  0.9209
 4605SOL    HW318187   2.682   5.446   6.260  0.5510  0.3189 -0.3595
 4605SOL    MW418188   2.685   5.532   6.271 -0.1205  0.2617  0.3280
 4606SOL     OW18189   2.122   4.590   6.279 -0.4209  0.5256 -0.5014
 4606SOL    HW218190   2.212   4.563   6.299 -1.0456 -1.3632 -0.0010
 4606SOL    HW318191   2.093   4.639   6.356 -0.8119 -1.5646  0.7594
 4606SOL    MW418192   2.130   4.593   6.292 -0.5549  0.0006 -0.2691
 4607SOL     OW18193   1.692   1.683   6.371 -0.0062  0.3027 -0.1997
 4607SOL    HW218194   1.768   1.714   6.321  0.5247 -0.5459  0.0634
 4607SOL    HW318195   1.654   1.614   6.317  1.1393 -1.3051  0.9318
 4607SOL    MW418196   1.697   1.678   6.357  0.2150 -0.0214 -0.0157
 4608SOL     OW18197   5.376   5.330   1.655  0.5377 -0.0313  0.1048
 4608SOL    HW218198   5.383   5.420   1.690 -1.5624 -0.3133  1.4204
 4608SOL    HW318199   5.465   5.308   1.629  1.4128  1.8662  1.2539
 4608SOL    MW418200   5.389   5.339   1.657  0.3761  0.1818  0.4300
 4609SOL     OW18201   4.852   6.288   2.937 -0.4881 -0.3519 -0.1836
 4609SOL    HW218202   4.831   6.311   3.028 -0.8282  2.3872 -0.8709
 4609SOL    HW318203   4.771   6.252   2.902 -0.8409  0.0975  0.1579
 4609SOL    MW418204   4.839   6.286   2.944 -0.5795  0.0687 -0.2292
 4610SOL     OW18205   1.818   2.233   3.593 -0.2227  0.3216 -0.0895
 4610SOL    HW218206   1.810   2.312   3.647  0.7966  0.6775 -0.4379
 4610SOL    HW318207   1.876   2.259   3.521  1.2022 -1.0850  0.4834
 4610SOL    MW418208   1.825   2.247   3.591  0.0998  0.1830 -0.0598
 4611SOL     OW18209   4.242   1.527   5.967 -0.3361 -0.3582  0.3925
 4611SOL    HW218210   4.219   1.437   5.944  2.2960 -0.2385 -3.7268
 4611SOL    HW318211   4.333   1.522   5.996 -0.2844  0.9351  0.5215
 4611SOL    MW418212   4.251   1.515   5.968  0.0180 -0.1718 -0.1339
 4612SOL     OW18213   3.651   2.553   3.721 -0.2237  0.8054  0.1024
 4612SOL    HW218214   3.592   2.624   3.747 -0.5503  0.4002  0.4901
 4612SOL    HW318215   3.695   2.528   3.803  0.6889  1.2806 -0.2264
 4612SOL    MW418216   3.649   2.559   3.736 -0.1464  0.8146  0.1102
 4613SOL     OW18217   2.681   2.533   1.269 -0.0129 -0.4221  0.2955
 4613SOL    HW218218   2.627   2.607   1.297  1.4562  0.9247 -0.2298
 4613SOL    HW318219   2.667   2.527   1.175  1.2545  0.4286  0.0251
 4613SOL    MW418220   2.672   2.542   1.260  0.3482 -0.1322  0.1905
 4614SOL     OW18221   2.928   5.450   0.454  0.0163  0.2804  0.3712
 4614SOL    HW218222   2.996   5.486   0.397  0.9546 -2.3299 -0.3031
 4614SOL    HW318223   2.887   5.380   0.402  0.2609 -1.5742  2.4984
 4614SOL    MW418224   2.931   5.445   0.439  0.1724 -0.3087  0.5629
 4615SOL     OW18225   1.334   1.464   1.621 -0.0108  0.4345  0.3424
 4615SOL    HW218226   1.277   1.484   1.695 -1.8157 -0.6904 -0.6680
 4615SOL    HW318227   1.423   1.470   1.657 -0.6619  2.9337  1.8097
 4615SOL    MW418228   1.338   1.467   1.636 -0.3348  0.6158  0.4027
 4616SOL     OW18229   1.947   3.121   0.628 -0.5115 -0.2151 -0.3388
 4616SOL    HW218230   1.942   3.048   0.566 -0.7938  0.0946 -0.6866
 4616SOL    HW318231   1.882   3.183   0.597 -2.0499 -0.8683  1.3819
 4616SOL    MW418232   1.938   3.119   0.616 -0.7517 -0.2604 -0.1577
 4617SOL     OW18233   4.484   4.749   2.015 -0.0455  0.4448 -0.0231
 4617SOL    HW218234   4.525   4.707   1.939  0.2167 -0.3828  0.5561
 4617SOL    HW318235   4.518   4.700   2.090  1.5750  2.7125  0.8320
 4617SOL    MW418236   4.494   4.737   2.015  0.2029  0.6348  0.1661
 4618SOL     OW18237   1.202   2.923   0.250  0.3422  0.2722 -0.0362
 4618SOL    HW218238   1.196   2.977   0.329  1.7427 -0.6590  0.7486
 4618SOL    HW318239   1.291   2.938   0.217  0.5484 -1.0766 -0.1388
 4618SOL    MW418240   1.213   2.932   0.256  0.5542 -0.0286  0.0538
 4619SOL     OW18241   2.300   5.571   5.226  0.3132 -0.3645 -0.3158
 4619SOL    HW218242   2.354   5.650   5.228 -0.2901  0.0420  0.8526
 4619SOL    HW318243   2.362   5.499   5.237  0.5425  0.1753  2.7903
 4619SOL    MW418244   2.315   5.572   5.228  0.2639 -0.2396  0.2482
 4620SOL     OW18245   0.440   1.420   2.708 -0.3872 -0.1159  0.0430
 4620SOL    HW218246   0.523   1.452   2.673 -1.3287  1.5108 -0.8448
 4620SOL    HW318247   0.465   1.360   2.779  1.5600 -1.3061 -1.5248
 4620SOL    MW418248   0.454   1.416   2.713 -0.2545 -0.0583 -0.2810
 4621SOL     OW18249   3.888   5.787   5.732  0.0822 -0.2796  0.5461
 4621SOL    HW218250   3.827   5.843   5.781 -0.2224  0.3204 -0.4904
 4621SOL    HW318251   3.969   5.838   5.727 -0.3849  0.3550 -0.9228
 4621SOL    MW418252   3.891   5.801   5.738 -0.0196 -0.1167  0.2156
 4622SOL     OW18253   4.072   0.203   1.132 -0.4435 -0.3293 -0.5630
 4622SOL    HW218254   4.147   0.262   1.140 -0.4274 -0.2783 -1.0697
 4622SOL    HW318255   4.011   0.250   1.074 -0.3360 -0.9026 -1.1516
 4622SOL    MW418256   4.074   0.217   1.125 -0.4272 -0.3982 -0.7075
 4623SOL     OW18257   4.774   6.392   2.165  0.3694  0.2416  0.0060
 4623SOL    HW218258   4.716   6.419   2.236  0.8766  1.7709 -0.1138
 4623SOL    HW318259   4.744   6.442   2.090  3.6538  3.6290  0.6301
 4623SOL    MW418260   4.762   6.402   2.165  0.8697  0.8903  0.0725
 4624SOL     OW18261   1.713   4.694   4.553  0.4027  0.6833 -0.7142
 4624SOL    HW218262   1.628   4.653   4.573  0.7316 -0.4625 -1.5715
 4624SOL    HW318263   1.748   4.642   4.480  1.7764  1.2390 -0.4728
 4624SOL    MW418264   1.706   4.682   4.546  0.6273  0.6055 -0.7955
 4625SOL     OW18265   4.410   3.229   3.352  0.1971 -0.3380 -0.2369
 4625SOL    HW218266   4.367   3.165   3.294  0.6790 -1.8901  1.0579
 4625SOL    HW318267   4.353   3.234   3.428  1.0662 -0.6212  0.4550
 4625SOL    MW418268   4.397   3.221   3.354  0.3754 -0.5802  0.0252
 4626SOL     OW18269   0.439   0.749   1.991  0.5740  0.4982  1.0477
 4626SOL    HW218270   0.407   0.662   1.966  0.3600  0.6330  0.8605
 4626SOL    HW318271   0.534   0.745   1.975  0.8572 -0.2656  2.6113
 4626SOL    MW418272   0.448   0.737   1.986  0.5831  0.4152  1.2293
 4627SOL     OW18273   5.623   5.257   1.562  0.9354  0.1804 -0.0416
 4627SOL    HW218274   5.634   5.167   1.593 -0.1830  0.5306  1.4749
 4627SOL    HW318275   5.603   5.248   1.469 -1.7119 -1.3408  0.5771
 4627SOL    MW418276   5.622   5.244   1.554  0.4386  0.0259  0.2401
 4628SOL     OW18277   4.925   4.661   2.062 -0.0552  0.1551 -0.3658
 4628SOL    HW218278   4.922   4.717   2.139  1.5727 -0.3607  0.1115
 4628SOL    HW318279   4.842   4.614   2.063 -0.3465  0.6648  0.6895
 4628SOL    MW418280   4.914   4.662   2.072  0.1211  0.1543 -0.1636
 4629SOL     OW18281   4.434   4.989   3.295  0.0512 -0.0878  0.3328
 4629SOL    HW218282   4.432   5.063   3.356 -1.2280  0.2426 -0.0891
 4629SOL    HW318283   4.388   5.021   3.218  0.4347 -0.9750 -0.2746
 4629SOL    MW418284   4.428   5.003   3.293 -0.0670 -0.1613  0.1970
 4630SOL     OW18285   3.340   4.509   6.302  0.1047 -0.4914 -0.2747
 4630SOL    HW218286   3.375   4.577   6.359 -1.1857 -0.4584  0.5327
 4630SOL    HW318287   3.293   4.450   6.361 -1.5424 -0.2945 -1.3214
 4630SOL    MW418288   3.338   4.510   6.317 -0.2828 -0.4611 -0.3063
 4631SOL     OW18289   3.202   1.756   2.013  0.3197 -0.1476 -0.3160
 4631SOL    HW218290   3.230   1.743   1.922  1.2110 -0.7539  0.0227
 4631SOL    HW318291   3.272   1.809   2.052  0.6724 -1.0707  0.3646
 4631SOL    MW418292   3.215   1.761   2.006  0.4838 -0.3494 -0.1815
 4632SOL     OW18293   1.753   5.427   4.297  0.4149  0.1985 -0.3234
 4632SOL    HW218294   1.664   5.443   4.329  0.3404  0.8899 -0.8613
 4632SOL    HW318295   1.750   5.337   4.264  0.2567 -0.2175  0.7576
 4632SOL    MW418296   1.741   5.417   4.297  0.3842  0.2349 -0.2517
 4633SOL     OW18297   3.380   6.177   0.810  0.0080 -0.1290 -0.2633
 4633SOL    HW218298   3.412   6.164   0.899 -1.4362  0.3974  0.3680
 4633SOL    HW318299   3.353   6.090   0.781 -0.0396 -0.2092  0.0255
 4633SOL    MW418300   3.380   6.164   0.818 -0.1888 -0.0701 -0.1419
 4634SOL     OW18301   2.878   0.659   1.270  0.2958  0.2462  0.1302
 4634SOL    HW218302   2.820   0.716   1.321  0.3714  0.5824 -0.1640
 4634SOL    HW318303   2.819   0.612   1.211  0.5447  2.3393 -1.8810
 4634SOL    MW418304   2.862   0.660   1.269  0.3387  0.5667 -0.1740
 4635SOL     OW18305   3.040   3.722   1.859 -0.0148 -0.0112 -0.7408
 4635SOL    HW218306   2.971   3.748   1.798  1.2046  3.9038 -0.7470
 4635SOL    HW318307   3.013   3.759   1.943  1.4495  0.5671 -0.4923
 4635SOL    MW418308   3.028   3.730   1.862  0.3393  0.5817 -0.7089
 4636SOL     OW18309   5.618   4.008   4.170  0.5712 -0.0880  0.7586
 4636SOL    HW218310   5.526   4.036   4.168  0.9124  1.2983  2.1779
 4636SOL    HW318311   5.668   4.090   4.166  1.7967 -0.8383 -0.5423
 4636SOL    MW418312   5.612   4.023   4.169  0.7779 -0.0041  0.7742
 4637SOL     OW18313   4.403   4.863   5.858  0.2128 -0.4997 -0.1473
 4637SOL    HW218314   4.472   4.814   5.903  0.7358 -0.0982 -0.5047
 4637SOL    HW318315   4.376   4.806   5.786  0.6242 -0.3792 -0.3959
 4637SOL    MW418316   4.408   4.849   5.855  0.3361 -0.4308 -0.2273
 4638SOL     OW18317   3.354   3.929   1.469  0.3967  0.0491 -0.5211
 4638SOL    HW218318   3.331   4.019   1.492  0.7921  0.1026 -0.3081
 4638SOL    HW318319   3.431   3.911   1.523 -0.5311 -0.9190  0.5352
 4638SOL    MW418320   3.361   3.939   1.479  0.3265 -0.0716 -0.3536
 4639SOL     OW18321   0.625   5.560   4.016  0.3302 -0.3342  0.6920
 4639SOL    HW218322   0.708   5.543   3.972 -1.0283  0.1708 -2.3394
 4639SOL    HW318323   0.647   5.563   4.109  4.0245  1.5840 -0.0519
 4639SOL    MW418324   0.639   5.558   4.022  0.6384 -0.0145  0.1939
 4640SOL     OW18325   5.096   4.356   1.306  0.0284  0.5961 -0.0881
 4640SOL    HW218326   5.026   4.293   1.327  0.2836  0.4175  0.2284
 4640SOL    HW318327   5.049   4.432   1.272 -0.3049  0.3659 -0.1603
 4640SOL    MW418328   5.080   4.358   1.304  0.0181  0.5422 -0.0559
 4641SOL     OW18329   3.043   5.701   0.745 -0.2687  0.2630 -1.0138
 4641SOL    HW218330   2.967   5.650   0.717  0.3529 -1.4230  0.2877
 4641SOL    HW318331   3.088   5.722   0.663 -1.7348  0.7250 -1.7546
 4641SOL    MW418332   3.039   5.697   0.730 -0.3802  0.1015 -0.9399
 4642SOL     OW18333   5.945   1.963   5.408 -0.1366 -0.6962 -0.1328
 4642SOL    HW218334   5.964   1.875   5.441  1.9829 -0.7562 -1.4107
 4642SOL    HW318335   5.965   1.959   5.315 -1.4187  0.7820 -0.5142
 4642SOL    MW418336   5.950   1.951   5.400 -0.0262 -0.5091 -0.3517
 4643SOL     OW18337   0.864   4.541   1.312 -0.1611  0.0783 -0.5098
 4643SOL    HW218338   0.828   4.560   1.399  0.5332 -0.4812 -0.0907
 4643SOL    HW318339   0.916   4.462   1.324  0.2027  0.1755 -1.3708
 4643SOL    MW418340   0.866   4.533   1.325 -0.0215  0.0173 -0.5681
 4644SOL     OW18341   0.561   0.809   0.921  0.3061  0.3380 -0.2482
 4644SOL    HW218342   0.579   0.779   1.010  2.2098  0.5633 -0.5097
 4644SOL    HW318343   0.628   0.875   0.904  0.4443 -0.2106 -2.0771
 4644SOL    MW418344   0.572   0.814   0.930  0.5755  0.2953 -0.5240
 4645SOL     OW18345   1.643   3.361   0.760  0.1000 -0.0209  0.5998
 4645SOL    HW218346   1.572   3.388   0.819 -0.4328 -1.0039  0.4372
 4645SOL    HW318347   1.678   3.282   0.801  0.0719 -0.4130 -0.1179
 4645SOL    MW418348   1.638   3.354   0.774  0.0260 -0.2023  0.4837
 4646SOL     OW18349   2.862   4.241   4.934 -0.3890 -0.0516  0.2872
 4646SOL    HW218350   2.938   4.296   4.920 -0.0661 -0.1505  1.5162
 4646SOL    HW318351   2.870   4.171   4.869  0.2929  0.2201  0.0742
 4646SOL    MW418352   2.873   4.239   4.924 -0.2564 -0.0288  0.4212
 4647SOL     OW18353   4.951   0.029   3.827  0.4764 -0.3411  0.3012
 4647SOL    HW218354   4.926  -0.062   3.811 -0.6185  0.2689 -1.9973
 4647SOL    HW318355   4.955   0.037   3.922 -4.3834 -1.5904  0.9001
 4647SOL    MW418356   4.948   0.018   3.837 -0.3093 -0.4254  0.0769
 4648SOL     OW18357   2.543   2.953   2.820  0.0159  0.0692  0.2060
 4648SOL    HW218358   2.551   3.028   2.878 -1.7265  1.5741 -1.3667
 4648SOL    HW318359   2.482   2.894   2.864 -1.9045  1.5543 -0.3394
 4648SOL    MW418360   2.536   2.955   2.833 -0.4674  0.4637 -0.0734
 4649SOL     OW18361   0.454   3.784   2.135  1.2104  0.4556  0.7084
 4649SOL    HW218362   0.416   3.852   2.080 -0.3747 -0.6546  0.3825
 4649SOL    HW318363   0.427   3.808   2.224  0.2729  0.0363  0.5486
 4649SOL    MW418364   0.446   3.797   2.140  0.8776  0.2538  0.6443
 4650SOL     OW18365   1.773   3.829   3.434 -1.1103 -0.9696  0.5264
 4650SOL    HW218366   1.744   3.858   3.348 -2.1470 -1.1089  0.8172
 4650SOL    HW318367   1.735   3.742   3.444  0.9857 -1.9966  0.1470
 4650SOL    MW418368   1.764   3.821   3.424 -0.9705 -1.1234  0.5147
 4651SOL     OW18369   3.907   0.927   2.660 -0.2607 -0.1107  0.1223
 4651SOL    HW218370   3.841   0.924   2.591 -0.3433 -0.4527  0.2121
 4651SOL    HW318371   3.859   0.910   2.741 -0.3919  1.6397  0.4495
 4651SOL    MW418372   3.892   0.924   2.662 -0.2889  0.0751  0.1773
 4652SOL     OW18373   4.755   5.318   2.561 -0.1464 -0.0970 -0.0757
 4652SOL    HW218374   4.793   5.302   2.648 -0.5271  1.4535  0.3921
 4652SOL    HW318375   4.830   5.344   2.507 -0.1782  0.7124  0.2607
 4652SOL    MW418376   4.770   5.319   2.565 -0.2008  0.2144  0.0304
 4653SOL     OW18377   4.817   1.124   1.974  0.3907 -0.1831 -0.1347
 4653SOL    HW218378   4.741   1.183   1.964 -0.4305 -1.5139 -2.5527
 4653SOL    HW318379   4.892   1.178   1.952  0.3559  1.3974  3.1057
 4653SOL    MW418380   4.817   1.139   1.970  0.2777 -0.1501 -0.0262
 4654SOL     OW18381   0.284   1.332   1.698  0.3829  0.3010 -0.2486
 4654SOL    HW218382   0.289   1.405   1.760  0.6459 -0.0925  0.2017
 4654SOL    HW318383   0.357   1.346   1.639  0.1282  0.6826 -0.4749
 4654SOL    MW418384   0.294   1.344   1.699  0.3840  0.2995 -0.2190
 4655SOL     OW18385   1.166   1.728   5.165  0.3957  0.2622  0.1707
 4655SOL    HW218386   1.155   1.823   5.168  1.0012  0.3396 -0.0700
 4655SOL    HW318387   1.249   1.714   5.121 -0.6897 -0.4428 -1.7554
 4655SOL    MW418388   1.175   1.739   5.160  0.3324  0.1794 -0.1152
 4656SOL     OW18389   4.817   6.221   3.750 -0.1704  0.3723 -0.0929
 4656SOL    HW218390   4.737   6.272   3.737 -0.1147  0.3016 -0.7253
 4656SOL    HW318391   4.807   6.146   3.692 -1.2111 -1.5055  2.3196
 4656SOL    MW418392   4.805   6.218   3.740 -0.3004  0.1152  0.1420
 4657SOL     OW18393   3.991   5.994   3.732 -0.3332 -0.6050  0.0271
 4657SOL    HW218394   3.952   6.025   3.650 -0.8194 -3.3029 -0.8718
 4657SOL    HW318395   4.085   5.999   3.717 -0.3812  0.8320  0.1135
 4657SOL    MW418396   3.998   5.998   3.719 -0.4037 -0.7713 -0.0801
 4658SOL     OW18397   4.650   0.043   2.397 -0.3366  0.0518  0.2377
 4658SOL    HW218398   4.723   0.076   2.450 -0.4063  0.0424  0.3392
 4658SOL    HW318399   4.579   0.106   2.412 -0.4728 -0.1456  0.4388
 4658SOL    MW418400   4.650   0.056   2.406 -0.3638  0.0245  0.2776
 4659SOL     OW18401   1.222   5.895   4.956 -0.0982 -0.2309  0.4049
 4659SOL    HW218402   1.206   5.961   4.889  1.3069  0.0535  0.3184
 4659SOL    HW318403   1.312   5.911   4.985 -0.1226 -1.3768  1.2000
 4659SOL    MW418404   1.232   5.906   4.951  0.0840 -0.3446  0.4984
 4660SOL     OW18405   5.746   5.833   5.508  0.2723  0.3358 -0.2144
 4660SOL    HW218406   5.674   5.799   5.561  0.4007  0.3796 -0.0139
 4660SOL    HW318407   5.806   5.872   5.570  0.9653 -0.6044 -0.2734
 4660SOL    MW418408   5.744   5.833   5.523  0.3807  0.2175 -0.1958
 4661SOL     OW18409   1.635   1.395   3.356  0.0673 -0.3192 -0.0828
 4661SOL    HW218410   1.592   1.325   3.405 -1.4159  1.2610  0.9863
 4661SOL    HW318411   1.570   1.465   3.350  1.2364  0.7116 -1.7618
 4661SOL    MW418412   1.621   1.395   3.362  0.0258  0.0253 -0.1633
 4662SOL     OW18413   2.453   2.742   1.328 -0.5634  0.5969 -0.6642
 4662SOL    HW218414   2.380   2.782   1.281  1.0355  1.5674 -2.4734
 4662SOL    HW318415   2.531   2.781   1.289  0.9541 -0.4990  1.0916
 4662SOL    MW418416   2.453   2.753   1.316 -0.1523  0.5804 -0.6713
 4663SOL     OW18417   5.772   0.421   1.911  0.1270 -0.3261  0.2152
 4663SOL    HW218418   5.728   0.496   1.870 -0.5132  0.1500  1.6936
 4663SOL    HW318419   5.865   0.443   1.908 -0.0589  0.5713  0.6692
 4663SOL    MW418420   5.778   0.434   1.905  0.0180 -0.1449  0.4702
 4664SOL     OW18421   1.878   2.152   2.122 -0.4115 -0.2466 -0.4413
 4664SOL    HW218422   1.909   2.198   2.200 -0.8812 -1.1205  0.2697
 4664SOL    HW318423   1.926   2.194   2.050  1.4486 -0.6614  0.4717
 4664SOL    MW418424   1.889   2.164   2.123 -0.2280 -0.4166 -0.2270
 4665SOL     OW18425   4.779   3.087   0.510 -0.4285 -0.5914 -0.3284
 4665SOL    HW218426   4.777   3.142   0.431 -0.0409 -0.1679 -0.0491
 4665SOL    HW318427   4.687   3.067   0.527 -0.4220 -2.0341 -1.8051
 4665SOL    MW418428   4.766   3.092   0.502 -0.3765 -0.7259 -0.4864
 4666SOL     OW18429   5.360   3.416   6.170 -0.4903  0.6424 -0.7154
 4666SOL    HW218430   5.345   3.328   6.135 -2.2249  0.6839 -0.1852
 4666SOL    HW318431   5.410   3.461   6.102  0.2549 -0.6822 -1.0785
 4666SOL    MW418432   5.365   3.410   6.156 -0.6208  0.4731 -0.6934
 4667SOL     OW18433   3.932   1.794   5.202  0.2099  0.2358 -0.0264
 4667SOL    HW218434   3.900   1.881   5.224  1.0771  0.4341  0.4895
 4667SOL    HW318435   3.948   1.797   5.107 -1.3630  0.0938 -0.3187
 4667SOL    MW418436   3.930   1.806   5.192  0.1168  0.2433  0.0031
 4668SOL     OW18437   0.325   3.076   5.191 -0.4470  0.0856  0.3419
 4668SOL    HW218438   0.305   2.983   5.179 -2.4754  0.3509  1.2775
 4668SOL    HW318439   0.415   3.078   5.221 -0.0193 -1.4922 -0.7190
 4668SOL    MW418440   0.334   3.064   5.193 -0.6582 -0.0875  0.3254
 4669SOL     OW18441   0.199   5.803   1.716  0.0917  0.0057  0.4914
 4669SOL    HW218442   0.113   5.825   1.682 -0.3876 -1.3888  0.7391
 4669SOL    HW318443   0.189   5.808   1.811  0.0416 -0.9688  0.5455
 4669SOL    MW418444   0.187   5.807   1.724  0.0219 -0.3069  0.5312
 4670SOL     OW18445   4.142   1.928   3.275  0.1532 -0.0882  0.3251
 4670SOL    HW218446   4.087   1.960   3.205  1.1126  0.7060 -0.0836
 4670SOL    HW318447   4.094   1.949   3.355  0.3469  1.5546  0.0253
 4670SOL    MW418448   4.128   1.935   3.277  0.3054  0.2333  0.2317
 4671SOL     OW18449   2.756   4.906   1.396 -0.3367  0.6505 -0.4255
 4671SOL    HW218450   2.733   4.824   1.440  2.1587  0.0248 -0.1308
 4671SOL    HW318451   2.677   4.959   1.401 -0.9440 -0.3476  2.6195
 4671SOL    MW418452   2.743   4.902   1.402 -0.0876  0.4362  0.0151
 4672SOL     OW18453   2.248   0.873   3.574 -0.0440  0.1289  0.5632
 4672SOL    HW218454   2.155   0.863   3.557  0.1144  0.2159 -0.3953
 4672SOL    HW318455   2.283   0.913   3.494  1.2003 -1.9621 -0.0146
 4672SOL    MW418456   2.241   0.877   3.561  0.1411 -0.1355  0.3605
 4673SOL     OW18457   2.208   1.774   0.873 -0.1626  0.6590  0.0874
 4673SOL    HW218458   2.275   1.706   0.871 -1.2665 -0.4903  0.7982
 4673SOL    HW318459   2.230   1.828   0.949  0.4125  0.7824 -0.1630
 4673SOL    MW418460   2.219   1.772   0.883 -0.2324  0.5237  0.1481
 4674SOL     OW18461   2.668   3.572   4.325 -0.1932  0.1639  0.2899
 4674SOL    HW218462   2.714   3.656   4.323  0.6067 -0.2731 -0.4217
 4674SOL    HW318463   2.684   3.538   4.413 -0.7281  0.8528  0.6653
 4674SOL    MW418464   2.676   3.579   4.336 -0.1582  0.1972  0.2455
 4675SOL     OW18465   4.031   1.872   1.703 -0.8425 -0.3623  0.1169
 4675SOL    HW218466   4.051   1.966   1.698  0.4985 -0.6006  0.5275
 4675SOL    HW318467   4.080   1.841   1.779 -1.8852 -1.2695  0.4504
 4675SOL    MW418468   4.040   1.880   1.712 -0.8031 -0.5134  0.2151
 4676SOL     OW18469   3.814   2.720   0.623  0.1505 -0.8311 -0.0415
 4676SOL    HW218470   3.795   2.805   0.663  1.3746  0.9186 -2.8990
 4676SOL    HW318471   3.734   2.669   0.638 -2.4011  2.2950 -1.8027
 4676SOL    MW418472   3.801   2.725   0.630 -0.0247 -0.1878 -0.6509
 4677SOL     OW18473   4.192   0.179   2.495 -0.2964  0.3025  0.0966
 4677SOL    HW218474   4.199   0.242   2.566  2.7374  1.1294 -0.7985
 4677SOL    HW318475   4.199   0.094   2.538  4.0724  0.8096  0.7680
 4677SOL    MW418476   4.194   0.176   2.510  0.6803  0.4785  0.0671
 4678SOL     OW18477   5.206   0.755   5.192  0.0564  0.3581  0.6879
 4678SOL    HW218478   5.233   0.833   5.144 -1.0863  0.5326  0.2873
 4678SOL    HW318479   5.271   0.689   5.169 -0.1763  0.5835 -0.7139
 4678SOL    MW418480   5.218   0.757   5.183 -0.1251  0.4108  0.4501
 4679SOL     OW18481   5.962   2.866   0.589  0.1110 -0.0169 -0.4168
 4679SOL    HW218482   5.876   2.904   0.607 -0.3178 -0.2902 -1.7394
 4679SOL    HW318483   6.012   2.937   0.548  1.0919  0.6211  1.7599
 4679SOL    MW418484   5.957   2.880   0.586  0.1839  0.0312 -0.3041
 4680SOL     OW18485   2.886   2.098   2.565 -0.2168  0.3469  0.0239
 4680SOL    HW218486   2.817   2.156   2.599 -0.1485 -0.1954  1.1434
 4680SOL    HW318487   2.967   2.145   2.584 -0.2214  0.4946 -0.3125
 4680SOL    MW418488   2.888   2.112   2.572 -0.2084  0.2949  0.1272
 4681SOL     OW18489   2.091   6.040   0.543 -0.2787  0.3467 -0.4487
 4681SOL    HW218490   2.179   6.068   0.519 -0.4563  1.2043 -0.1258
 4681SOL    HW318491   2.100   5.946   0.561  0.6458  0.5008 -0.0671
 4681SOL    MW418492   2.104   6.031   0.543 -0.1802  0.4802 -0.3558
 4682SOL     OW18493   2.557   4.650   5.453  0.2455 -0.6107  0.5301
 4682SOL    HW218494   2.558   4.745   5.463 -0.9122 -0.6562  1.2970
 4682SOL    HW318495   2.545   4.635   5.359  1.0616 -0.0168  0.3262
 4682SOL    MW418496   2.555   4.660   5.442  0.2004 -0.5384  0.6044
 4683SOL     OW18497   3.157   4.240   6.191  0.3265  0.2170 -0.0683
 4683SOL    HW218498   3.079   4.292   6.210  1.1704  2.5468 -2.3117
 4683SOL    HW318499   3.228   4.287   6.234  0.7901 -0.5882  0.0625
 4683SOL    MW418500   3.156   4.253   6.199  0.4990  0.4181 -0.3471
 4684SOL     OW18501   6.043   2.028   5.119  0.0045  0.3228  0.7603
 4684SOL    HW218502   6.125   2.072   5.140  0.4732  1.3204 -2.5966
 4684SOL    HW318503   6.064   1.934   5.123  1.3458  0.5681 -0.0921
 4684SOL    MW418504   6.056   2.021   5.122  0.2433  0.4868  0.2049
 4685SOL     OW18505   3.033   0.373   0.593  0.6799  0.0891 -0.2980
 4685SOL    HW218506   3.109   0.324   0.625  1.1860 -0.0026 -1.5483
 4685SOL    HW318507   2.978   0.385   0.670  0.9727 -1.6522  0.2446
 4685SOL    MW418508   3.036   0.368   0.607  0.7853 -0.1528 -0.3913
 4686SOL     OW18509   2.745   3.845   4.287  0.2691  0.2132  0.1362
 4686SOL    HW218510   2.782   3.931   4.309 -1.5158  0.8192  0.9818
 4686SOL    HW318511   2.650   3.857   4.295  0.0081 -2.2421  1.8393
 4686SOL    MW418512   2.737   3.858   4.291 -0.0008 -0.0308  0.4725
 4687SOL     OW18513   4.270   3.616   3.321  0.2377 -0.0274  0.8971
 4687SOL    HW218514   4.352   3.596   3.275  0.5058  0.7284  1.0461
 4687SOL    HW318515   4.283   3.702   3.359 -1.0745  0.6567 -0.0967
 4687SOL    MW418516   4.282   3.624   3.320  0.1000  0.1626  0.7857
 4688SOL     OW18517   0.278   4.371   4.602 -0.1218 -0.1132  0.5465
 4688SOL    HW218518   0.322   4.455   4.595  1.0617 -0.6623  1.2127
 4688SOL    HW318519   0.188   4.389   4.575  0.6312  0.9007 -1.4081
 4688SOL    MW418520   0.272   4.384   4.598  0.1337 -0.0518  0.3765
 4689SOL     OW18521   5.526   4.896   2.948  0.4687 -0.3238 -0.2526
 4689SOL    HW218522   5.433   4.880   2.967  0.9811 -0.0576  3.0913
 4689SOL    HW318523   5.572   4.820   2.984  1.6208 -0.0743 -1.1421
 4689SOL    MW418524   5.520   4.884   2.956  0.6883 -0.2557  0.0712
 4690SOL     OW18525   1.354   0.616   1.325 -1.0697 -0.1834 -0.0021
 4690SOL    HW218526   1.283   0.656   1.374 -1.1794  0.0389 -0.3414
 4690SOL    HW318527   1.428   0.676   1.334 -0.7694 -0.6525  0.7606
 4690SOL    MW418528   1.355   0.629   1.333 -1.0445 -0.2159  0.0538
 4691SOL     OW18529   3.324   2.347   5.938  0.2313  0.1828 -0.4300
 4691SOL    HW218530   3.312   2.422   5.996 -0.3120 -0.5272  0.3950
 4691SOL    HW318531   3.391   2.294   5.981 -1.7318 -1.4806  0.7741
 4691SOL    MW418532   3.331   2.350   5.952 -0.0994 -0.1303 -0.1623
 4692SOL     OW18533   0.081   1.955   1.255 -0.1406 -0.3639 -0.1197
 4692SOL    HW218534   0.090   2.039   1.301  0.1064 -1.6225  2.2684
 4692SOL    HW318535   0.161   1.949   1.202 -0.6459  1.3310 -1.1736
 4692SOL    MW418536   0.093   1.966   1.254 -0.1747 -0.3063  0.0563
 4693SOL     OW18537   4.147   2.444   2.064 -0.0103 -0.1317  0.3548
 4693SOL    HW218538   4.239   2.456   2.089  0.2318 -0.5773 -0.2757
 4693SOL    HW318539   4.127   2.354   2.090 -0.7736  0.4699  1.9665
 4693SOL    MW418540   4.157   2.434   2.070 -0.0791 -0.1111  0.4842
 4694SOL     OW18541   4.369   4.493   6.093  0.4166  0.0934 -0.4338
 4694SOL    HW218542   4.371   4.577   6.139 -0.1440 -1.2685  2.2777
 4694SOL    HW318543   4.451   4.450   6.118  1.6708  0.4849 -3.3862
 4694SOL    MW418544   4.380   4.498   6.103  0.5081 -0.0346 -0.4656
 4695SOL     OW18545   6.283   5.189   0.485  0.2479 -0.6579  0.2333
 4695SOL    HW218546   6.261   5.276   0.517  2.5995 -0.1934  0.7576
 4695SOL    HW318547   6.286   5.198   0.390 -0.1846 -0.3615  0.2447
 4695SOL    MW418548   6.280   5.201   0.477  0.5011 -0.5575  0.3040
 4696SOL     OW18549   3.302   3.226   4.353 -0.3352 -0.7509  0.4224
 4696SOL    HW218550   3.322   3.320   4.356  1.4411 -1.0523 -0.7348
 4696SOL    HW318551   3.222   3.220   4.301 -0.5134  0.1201  0.5807
 4696SOL    MW418552   3.294   3.238   4.347 -0.1243 -0.6757  0.2906
 4697SOL     OW18553   2.737   2.674   4.195  1.1393  0.0942 -0.1874
 4697SOL    HW218554   2.752   2.637   4.282 -0.3157  0.3961  0.2139
 4697SOL    HW318555   2.746   2.768   4.207 -3.3619  0.6455  0.7435
 4697SOL    MW418556   2.740   2.681   4.208  0.3535  0.2068 -0.0116
 4698SOL     OW18557   2.704   3.632   2.992  0.1294 -0.1930  0.0012
 4698SOL    HW218558   2.702   3.621   2.897 -1.6051 -0.8444  0.0735
 4698SOL    HW318559   2.637   3.698   3.010  0.1804 -0.3462  0.7801
 4698SOL    MW418560   2.695   3.639   2.982 -0.0927 -0.2992  0.1135
 4699SOL     OW18561   4.342   1.330   2.382 -0.1619  0.4850  0.3207
 4699SOL    HW218562   4.389   1.254   2.415  0.5697 -0.1966 -2.1253
 4699SOL    HW318563   4.263   1.295   2.342 -0.8344  1.2354  0.9561
 4699SOL    MW418564   4.338   1.315   2.381 -0.1541  0.4941  0.0818
 4700SOL     OW18565   2.577   4.489   6.192  0.1226  0.6994  0.1260
 4700SOL    HW218566   2.499   4.486   6.247  0.1986 -0.3480  0.2108
 4700SOL    HW318567   2.630   4.415   6.223  0.7912  0.9355 -0.4390
 4700SOL    MW418568   2.573   4.479   6.203  0.2208  0.5924  0.0626
 4701SOL     OW18569   2.446   4.284   1.147  0.4314 -0.0180  0.2657
 4701SOL    HW218570   2.353   4.271   1.129  0.4120  0.4380  0.0077
 4701SOL    HW318571   2.449   4.324   1.233  0.3346  0.7628 -0.0865
 4701SOL    MW418572   2.434   4.287   1.156  0.4161  0.1452  0.1852
 4702SOL     OW18573   1.108   3.321   4.262  0.4588  0.2486  0.5112
 4702SOL    HW218574   1.180   3.384   4.256  0.5530  0.0238 -2.3848
 4702SOL    HW318575   1.100   3.286   4.173 -0.6049 -2.7161  1.6359
 4702SOL    MW418576   1.116   3.325   4.249  0.3309 -0.1722  0.2775
 4703SOL     OW18577   0.540   1.462   5.949 -0.1603 -0.5061 -0.0723
 4703SOL    HW218578   0.599   1.435   6.019  1.4148 -0.2249 -1.2454
 4703SOL    HW318579   0.549   1.558   5.946 -0.5251 -0.4789 -0.3893
 4703SOL    MW418580   0.549   1.471   5.958 -0.0006 -0.4654 -0.2689
 4704SOL     OW18581   2.340   4.281   6.055  0.5049  0.9258 -0.4991
 4704SOL    HW218582   2.384   4.367   6.056 -0.6518  1.5433  0.6856
 4704SOL    HW318583   2.267   4.293   5.995  1.0319  0.3607 -1.2841
 4704SOL    MW418584   2.336   4.294   6.047  0.4218  0.9327 -0.4464
 4705SOL     OW18585   1.369   1.236   6.359 -0.4858  0.0778 -0.7473
 4705SOL    HW218586   1.361   1.184   6.439  0.1799  2.0839  0.7117
 4705SOL    HW318587   1.308   1.196   6.298 -1.8273 -0.8952  1.1199
 4705SOL    MW418588   1.360   1.224   6.362 -0.5750  0.2141 -0.3084
 4706SOL     OW18589   5.049   5.156   2.644 -0.3504 -0.0231 -0.1317
 4706SOL    HW218590   5.108   5.231   2.636  1.2905 -1.2237  0.0795
 4706SOL    HW318591   5.053   5.113   2.558 -0.5865 -0.3376  0.0121
 4706SOL    MW418592   5.057   5.160   2.632 -0.1651 -0.2230 -0.0849
 4707SOL     OW18593   1.917   4.247   2.753 -0.3918  0.1843  0.2402
 4707SOL    HW218594   1.981   4.306   2.793 -1.4374  1.0777  0.6346
 4707SOL    HW318595   1.888   4.191   2.825 -0.3668  0.0580  0.1527
 4707SOL    MW418596   1.922   4.248   2.768 -0.5265  0.2856  0.2807
 4708SOL     OW18597   2.022   2.749   4.729 -0.2637  0.0760  0.2455
 4708SOL    HW218598   1.961   2.718   4.662 -0.5004 -0.2489  0.6103
 4708SOL    HW318599   2.046   2.671   4.779 -4.0131  0.8313  3.8206
 4708SOL    MW418600   2.018   2.735   4.727 -0.7896  0.1328  0.7653
 4709SOL     OW18601   2.878   5.515   1.842  0.1722  0.2482  0.3520
 4709SOL    HW218602   2.922   5.430   1.848  1.1443  0.7733  0.8272
 4709SOL    HW318603   2.948   5.576   1.817 -0.6630  0.7911 -0.7535
 4709SOL    MW418604   2.893   5.512   1.839  0.1903  0.3891  0.2688
 4710SOL     OW18605   0.020   4.315   0.511  0.1211  0.2784 -0.1010
 4710SOL    HW218606   0.014   4.302   0.417  1.3820  0.1341 -0.1754
 4710SOL    HW318607  -0.067   4.347   0.537 -0.5801 -0.7210 -1.1286
 4710SOL    MW418608   0.008   4.317   0.502  0.1950  0.1275 -0.2464
 4711SOL     OW18609   5.186   6.022   6.112  0.3105 -0.2805 -0.4173
 4711SOL    HW218610   5.187   6.087   6.182 -1.2376 -1.4854  0.8060
 4711SOL    HW318611   5.115   5.962   6.136 -0.3400 -0.7011 -3.0854
 4711SOL    MW418612   5.177   6.022   6.125  0.0205 -0.4950 -0.6080
 4712SOL     OW18613   2.159   3.573   0.588  0.2880  0.2174  0.4784
 4712SOL    HW218614   2.225   3.506   0.604 -0.4876 -0.2959  1.5969
 4712SOL    HW318615   2.079   3.540   0.629 -0.2077  1.6566  0.7493
 4712SOL    MW418616   2.157   3.560   0.595  0.1202  0.3395  0.6617
 4713SOL     OW18617   4.540   1.832   1.721  0.1153  0.5315 -0.6008
 4713SOL    HW218618   4.603   1.886   1.674  3.4691 -1.4247  1.2651
 4713SOL    HW318619   4.530   1.753   1.668  0.2196  0.3195 -0.3122
 4713SOL    MW418620   4.547   1.828   1.708  0.5716  0.2454 -0.3165
 4714SOL     OW18621   2.243   0.575   4.256 -0.0843  0.2639  0.1609
 4714SOL    HW218622   2.168   0.524   4.287  0.1844 -0.6932 -0.7049
 4714SOL    HW318623   2.271   0.626   4.332  0.6232 -2.0680  1.5732
 4714SOL    MW418624   2.237   0.575   4.270  0.0445 -0.1700  0.2330
 4715SOL     OW18625   2.869   3.533   3.931  0.0896 -0.1559  0.0031
 4715SOL    HW218626   2.915   3.491   3.858 -0.3046 -0.4290 -0.0905
 4715SOL    HW318627   2.939   3.565   3.988  0.4479 -2.6171  1.0700
 4715SOL    MW418628   2.884   3.531   3.929  0.0848 -0.5167  0.1315
 4716SOL     OW18629   1.051   0.148   0.579 -0.1503 -0.7061  0.0101
 4716SOL    HW218630   1.081   0.208   0.647 -0.5124  0.2589 -0.6552
 4716SOL    HW318631   1.041   0.203   0.501 -0.1161 -1.7122 -0.7264
 4716SOL    MW418632   1.053   0.163   0.577 -0.1935 -0.7115 -0.1749
 4717SOL     OW18633   5.271   5.989   5.356  0.0232 -0.0831 -0.8501
 4717SOL    HW218634   5.282   6.066   5.301  1.8366 -1.5283 -2.6512
 4717SOL    HW318635   5.320   6.008   5.435 -0.5021  1.0331 -0.7744
 4717SOL    MW418636   5.279   6.001   5.359  0.1931 -0.1265 -1.0777
 4718SOL     OW18637   6.395   5.036   2.662  0.3872  0.0738  0.5771
 4718SOL    HW218638   6.342   5.081   2.728 -0.3644 -0.1608  0.1399
 4718SOL    HW318639   6.386   4.943   2.683  1.0492  0.0604  0.8134
 4718SOL    MW418640   6.387   5.030   2.674  0.3754  0.0411  0.5506
 4719SOL     OW18641   5.967   3.898   0.604  0.0751  0.9467  0.5405
 4719SOL    HW218642   5.995   3.867   0.518 -0.4823  2.4020 -0.2102
 4719SOL    HW318643   5.968   3.993   0.596  0.7865  1.1358  2.4148
 4719SOL    MW418644   5.971   3.907   0.592  0.0954  1.1637  0.6887
 4720SOL     OW18645   3.185   5.373   3.734 -0.3380  0.1253  0.5296
 4720SOL    HW218646   3.265   5.425   3.747  0.0520 -0.1497 -0.6718
 4720SOL    HW318647   3.214   5.282   3.743 -0.5386  0.0290  0.1991
 4720SOL    MW418648   3.199   5.368   3.737 -0.3130  0.0763  0.3275
 4721SOL     OW18649   4.766   0.454   4.045 -0.2006  0.8401  0.2031
 4721SOL    HW218650   4.752   0.383   4.108 -2.2064  0.4250 -0.5990
 4721SOL    HW318651   4.816   0.520   4.092  1.2928 -0.8760  1.1381
 4721SOL    MW418652   4.771   0.453   4.059 -0.2682  0.5589  0.2206
 4722SOL     OW18653   5.537   5.978   2.673 -0.0553  0.4370  0.5438
 4722SOL    HW218654   5.472   5.916   2.707 -0.2727 -0.6474 -1.6010
 4722SOL    HW318655   5.507   5.996   2.584  1.2406  1.9115  0.3728
 4722SOL    MW418656   5.524   5.972   2.665  0.0870  0.4885  0.2383
 4723SOL     OW18657   6.004   2.216   6.405 -0.0441 -0.2922  0.4741
 4723SOL    HW218658   6.059   2.139   6.392  1.3192  0.4934  1.3932
 4723SOL    HW318659   6.013   2.237   6.498  0.7121  1.7331  0.0009
 4723SOL    MW418660   6.013   2.209   6.415  0.2355  0.0787  0.5329
 4724SOL     OW18661   0.310   0.705   2.698 -0.2292 -0.2308  0.4949
 4724SOL    HW218662   0.252   0.642   2.656 -0.6712  0.0643  0.6620
 4724SOL    HW318663   0.380   0.651   2.737 -0.1202 -0.5462 -0.1249
 4724SOL    MW418664   0.312   0.689   2.698 -0.2732 -0.2335  0.4352
 4725SOL     OW18665   4.181   2.314   3.118 -0.2432  0.2325  0.6056
 4725SOL    HW218666   4.237   2.318   3.040  1.1718  2.0445  1.6372
 4725SOL    HW318667   4.228   2.255   3.178  0.9061  2.0908  1.6398
 4725SOL    MW418668   4.195   2.306   3.116  0.0951  0.7167  0.8782
 4726SOL     OW18669   3.443   2.125   2.952 -0.1238  0.2324  0.3864
 4726SOL    HW218670   3.399   2.188   2.894  0.6874  0.6108  0.1607
 4726SOL    HW318671   3.426   2.040   2.912  1.0174  0.5385 -0.8483
 4726SOL    MW418672   3.435   2.122   2.939  0.1338  0.3227  0.1937
 4727SOL     OW18673   0.015   3.822   3.325  0.5008 -0.2798  0.8546
 4727SOL    HW218674  -0.017   3.738   3.358  1.3607 -0.8984  0.1756
 4727SOL    HW318675   0.089   3.799   3.269  1.2239  0.9960  1.2414
 4727SOL    MW418676   0.020   3.808   3.322  0.7097 -0.1931  0.8161
 4728SOL     OW18677   3.911   2.933   2.892 -0.0122  0.6734 -0.2252
 4728SOL    HW218678   3.910   2.860   2.953  0.2079  0.0199 -0.9742
 4728SOL    HW318679   4.003   2.957   2.884 -0.3079  3.0068  2.2474
 4728SOL    MW418680   3.923   2.927   2.899 -0.0222  0.8950  0.0022
 4729SOL     OW18681   6.265   6.325   6.024  0.4006  0.2350  0.2550
 4729SOL    HW218682   6.333   6.276   6.069 -0.0888  0.8035  1.6446
 4729SOL    HW318683   6.225   6.261   5.964  0.9011 -0.5979  0.7922
 4729SOL    MW418684   6.268   6.310   6.022  0.4021  0.2001  0.5092
 4730SOL     OW18685   4.550   5.854   4.936  0.2299 -0.3401 -0.5272
 4730SOL    HW218686   4.533   5.865   5.030  0.3651 -1.8958 -0.3065
 4730SOL    HW318687   4.631   5.902   4.921  0.7642 -0.9347  0.3731
 4730SOL    MW418688   4.558   5.862   4.947  0.3183 -0.6238 -0.3793
 4731SOL     OW18689   4.275   0.371   4.982 -0.2400  0.2010  0.3437
 4731SOL    HW218690   4.227   0.448   4.952  0.1558  0.1156 -0.5433
 4731SOL    HW318691   4.272   0.311   4.907  1.0700  0.1051  0.3592
 4731SOL    MW418692   4.268   0.373   4.968 -0.0149  0.1771  0.2288
 4732SOL     OW18693   0.573   6.093   4.222  0.0948 -0.1810 -0.1091
 4732SOL    HW218694   0.549   6.085   4.130  0.3239 -2.8685 -0.0236
 4732SOL    HW318695   0.659   6.135   4.221 -0.5058  1.0760 -1.0033
 4732SOL    MW418696   0.581   6.097   4.210  0.0458 -0.3697 -0.2158
 4733SOL     OW18697   2.083   0.310   4.111 -0.4212 -0.7953  0.3978
 4733SOL    HW218698   2.035   0.236   4.073 -0.2725 -0.6613 -0.0544
 4733SOL    HW318699   2.168   0.273   4.135 -0.3908 -0.8025  0.2822
 4733SOL    MW418700   2.088   0.295   4.109 -0.3976 -0.7786  0.3229
 4734SOL     OW18701   4.902   3.007   5.788 -0.7091  0.1510  0.6605
 4734SOL    HW218702   4.990   2.986   5.819  0.0593  0.8657 -0.9352
 4734SOL    HW318703   4.853   2.925   5.798  0.7742 -0.9353 -0.5605
 4734SOL    MW418704   4.907   2.993   5.793 -0.4120  0.1020  0.2889
 4735SOL     OW18705   3.757   5.749   6.347 -0.4307 -0.3671  0.9152
 4735SOL    HW218706   3.717   5.670   6.311 -0.2413 -0.4210  0.8209
 4735SOL    HW318707   3.683   5.802   6.377 -0.8231  0.8852 -1.9496
 4735SOL    MW418708   3.742   5.746   6.346 -0.4575 -0.2090  0.5248
 4736SOL     OW18709   4.679   1.360   1.911  0.3642  0.1078 -0.1585
 4736SOL    HW218710   4.596   1.383   1.954  0.0313  1.2074 -1.3332
 4736SOL    HW318711   4.747   1.396   1.967  0.0015  0.1526  0.2518
 4736SOL    MW418712   4.677   1.367   1.924  0.2724  0.2588 -0.2594
 4737SOL     OW18713   3.894   4.039   6.135 -0.3138 -0.2025 -0.2751
 4737SOL    HW218714   3.894   3.944   6.134  2.3546 -0.3369  1.8008
 4737SOL    HW318715   3.972   4.064   6.086 -2.1963  1.1093 -2.8214
 4737SOL    MW418716   3.904   4.030   6.129 -0.2101 -0.0472 -0.3372
 4738SOL     OW18717   5.961   3.588   5.086 -0.4227  0.5062  0.3075
 4738SOL    HW218718   5.993   3.648   5.018 -0.1157  0.5516  0.4908
 4738SOL    HW318719   6.039   3.568   5.138  0.2332 -2.5050 -1.5620
 4738SOL    MW418720   5.976   3.593   5.084 -0.2957  0.1149  0.0850
 4739SOL     OW18721   1.860   5.219   1.987  0.0946  0.8549 -0.3304
 4739SOL    HW218722   1.823   5.131   1.983 -0.7258  1.1919 -0.2668
 4739SOL    HW318723   1.930   5.219   1.922  1.6341 -0.5331  1.2243
 4739SOL    MW418724   1.864   5.207   1.978  0.1895  0.7162 -0.1169
 4740SOL     OW18725   2.905   4.963   3.333  0.2263  0.2070  0.6805
 4740SOL    HW218726   2.821   4.998   3.304  0.3445  0.1137  0.2133
 4740SOL    HW318727   2.899   4.869   3.315  0.6276  0.2792  0.1498
 4740SOL    MW418728   2.893   4.955   3.327  0.2949  0.2042  0.5489
 4741SOL     OW18729   3.259   5.532   0.846 -0.3490 -0.4234  0.5074
 4741SOL    HW218730   3.200   5.583   0.791 -0.3878  0.2619  1.1650
 4741SOL    HW318731   3.272   5.450   0.798 -1.5192 -0.4270  0.1604
 4741SOL    MW418732   3.253   5.528   0.832 -0.5085 -0.3334  0.5484
 4742SOL     OW18733   6.410   3.429   4.332  0.0687  0.1893  0.4147
 4742SOL    HW218734   6.413   3.525   4.331  1.0395  0.1727  0.8288
 4742SOL    HW318735   6.475   3.403   4.267 -1.0897 -0.2024 -0.6397
 4742SOL    MW418736   6.419   3.438   4.323  0.0440  0.1355  0.3303
 4743SOL     OW18737   1.547   2.446   2.067  0.1623 -0.0030  0.1397
 4743SOL    HW218738   1.497   2.468   1.988 -1.3426 -3.0010  0.1212
 4743SOL    HW318739   1.580   2.358   2.051 -0.0633 -0.6611  2.7622
 4743SOL    MW418740   1.544   2.438   2.054 -0.0661 -0.4854  0.4833
 4744SOL     OW18741   3.409   3.074   5.403 -0.1475 -0.8842  0.4500
 4744SOL    HW218742   3.367   3.107   5.323  0.4986 -1.6897 -0.2466
 4744SOL    HW318743   3.382   3.134   5.471 -1.2290 -0.5357 -0.2620
 4744SOL    MW418744   3.400   3.086   5.401 -0.2049 -0.9445  0.2641
 4745SOL     OW18745   2.063   3.372   1.900  0.4488  0.0467 -0.2133
 4745SOL    HW218746   2.042   3.282   1.873 -1.6384  0.8113 -1.3286
 4745SOL    HW318747   1.993   3.396   1.960 -1.0041  2.0603 -2.5587
 4745SOL    MW418748   2.051   3.363   1.904 -0.0183  0.4133 -0.6699
 4746SOL     OW18749   5.619   1.819   0.421 -0.2383 -0.0898 -0.6711
 4746SOL    HW218750   5.688   1.881   0.398 -1.1147  0.5820 -1.5325
 4746SOL    HW318751   5.599   1.774   0.339  0.8969 -2.0935  0.0666
 4746SOL    MW418752   5.625   1.821   0.407 -0.2042 -0.2655 -0.6874
 4747SOL     OW18753   1.402   5.857   2.001 -0.0651  0.1454  0.3057
 4747SOL    HW218754   1.352   5.853   2.082 -0.6258 -0.9062 -0.0708
 4747SOL    HW318755   1.364   5.788   1.946  1.3277 -0.2102 -0.2546
 4747SOL    MW418756   1.390   5.848   2.004  0.0447 -0.0403  0.1821
 4748SOL     OW18757   3.607   1.980   2.326 -0.0020  0.5499  0.0272
 4748SOL    HW218758   3.696   1.991   2.292 -0.0984  1.7077  0.1078
 4748SOL    HW318759   3.590   1.886   2.320  0.9492  0.4111 -0.6936
 4748SOL    MW418760   3.616   1.969   2.320  0.1108  0.6843 -0.0573
 4749SOL     OW18761   1.681   0.880   5.759  0.2530 -0.0912  0.3700
 4749SOL    HW218762   1.589   0.872   5.784 -0.2089  2.3219 -0.3132
 4749SOL    HW318763   1.712   0.959   5.803  1.5146  0.0628 -0.7107
 4749SOL    MW418764   1.673   0.889   5.768  0.3585  0.2475  0.1372
 4750SOL     OW18765   3.074   1.215   6.024  0.3726 -0.7356 -0.3945
 4750SOL    HW218766   3.101   1.208   5.933  0.7621  0.6512 -0.4123
 4750SOL    HW318767   2.996   1.160   6.031  1.0692 -1.8856 -1.2297
 4750SOL    MW418768   3.067   1.207   6.013  0.5159 -0.7044 -0.5070
 4751SOL     OW18769   3.738   3.659   4.334  0.3039  0.6752 -0.1306
 4751SOL    HW218770   3.653   3.660   4.289  1.1693  1.4103 -1.8522
 4751SOL    HW318771   3.718   3.685   4.424 -1.5205 -0.9650 -0.0065
 4751SOL    MW418772   3.724   3.663   4.340  0.1774  0.5557 -0.3413
 4752SOL     OW18773   1.776   2.012   5.728  0.7640  0.5200 -0.1552
 4752SOL    HW218774   1.806   2.089   5.679  1.9886 -0.8920 -1.7489
 4752SOL    HW318775   1.685   2.000   5.701  0.8148  0.9291 -0.5182
 4752SOL    MW418776   1.768   2.021   5.718  0.9323  0.3877 -0.4134
 4753SOL     OW18777   5.907   6.437   4.637 -0.5474 -0.2238  0.0459
 4753SOL    HW218778   5.939   6.433   4.727 -1.5037 -1.1583  0.3634
 4753SOL    HW318779   5.906   6.346   4.607 -0.2510  0.0743 -0.9056
 4753SOL    MW418780   5.911   6.425   4.645 -0.6345 -0.3078 -0.0378
 4754SOL     OW18781   0.679   4.935   5.165  0.1570 -0.4017  0.1075
 4754SOL    HW218782   0.617   4.864   5.185 -0.8297  0.0512 -1.2229
 4754SOL    HW318783   0.629   4.995   5.111  2.0959 -0.5740 -2.0102
 4754SOL    MW418784   0.664   4.933   5.161  0.2826 -0.3646 -0.3474
 4755SOL     OW18785   3.680   2.339   6.170 -0.0052  0.3404  0.3755
 4755SOL    HW218786   3.627   2.284   6.113 -1.6102  2.4747 -0.3408
 4755SOL    HW318787   3.770   2.323   6.143 -0.4768 -1.3447 -0.2810
 4755SOL    MW418788   3.685   2.330   6.159 -0.2792  0.3997  0.1944
 4756SOL     OW18789   0.062   2.297   5.023 -0.7972  0.4860  0.0980
 4756SOL    HW218790   0.038   2.389   5.036  0.1171  0.6799  0.4569
 4756SOL    HW318791   0.157   2.299   5.009 -0.5378 -0.5341  1.5417
 4756SOL    MW418792   0.071   2.310   5.023 -0.6423  0.3770  0.3359
 4757SOL     OW18793   4.649   0.948   0.101  0.0158 -0.0121  0.1828
 4757SOL    HW218794   4.555   0.963   0.110 -0.0089  0.5471 -0.8905
 4757SOL    HW318795   4.661   0.917   0.012  0.8848  0.2623  0.1848
 4757SOL    MW418796   4.639   0.946   0.091  0.1272  0.0979  0.0415
 4758SOL     OW18797   6.080   3.098   5.197 -0.2171 -0.0307  0.0049
 4758SOL    HW218798   6.017   3.153   5.150 -0.5747  0.1505  0.6784
 4758SOL    HW318799   6.100   3.148   5.276  2.2152  0.8171 -1.0459
 4758SOL    MW418800   6.075   3.112   5.201  0.0566  0.1051 -0.0449
 4759SOL     OW18801   3.668   6.296   3.644  0.2608 -0.0367 -0.2770
 4759SOL    HW218802   3.620   6.224   3.686  0.8274 -0.8143 -0.9216
 4759SOL    HW318803   3.740   6.253   3.598  0.4140  0.9179 -0.9569
 4759SOL    MW418804   3.671   6.281   3.643  0.3558 -0.0134 -0.4517
 4760SOL     OW18805   0.430   5.756   4.928  0.4984 -0.2997  0.5314
 4760SOL    HW218806   0.348   5.797   4.903  0.8129  0.3237  0.4924
 4760SOL    HW318807   0.408   5.664   4.943 -0.1269 -0.2132  0.1623
 4760SOL    MW418808   0.416   5.749   4.927  0.4574 -0.2061  0.4775
 4761SOL     OW18809   6.129   2.207   4.126 -0.5180 -0.0800  0.1088
 4761SOL    HW218810   6.204   2.261   4.102  1.0759 -1.5818  1.4476
 4761SOL    HW318811   6.131   2.205   4.222 -0.4521 -2.5043  0.1178
 4761SOL    MW418812   6.139   2.214   4.136 -0.2990 -0.5980  0.2866
 4762SOL     OW18813   0.753   0.690   2.678  0.7123  0.5734  0.1669
 4762SOL    HW218814   0.794   0.604   2.662 -1.2665 -0.5173  0.7272
 4762SOL    HW318815   0.721   0.716   2.592  0.5012  0.3076  0.1627
 4762SOL    MW418816   0.754   0.682   2.664  0.4234  0.3944  0.2403
 4763SOL     OW18817   3.359   4.806   3.155 -0.2395 -0.5858 -0.6042
 4763SOL    HW218818   3.390   4.869   3.221  0.1220 -1.2351 -0.1446
 4763SOL    HW318819   3.384   4.845   3.071 -1.2286  0.5475 -0.4100
 4763SOL    MW418820   3.366   4.820   3.153 -0.3223 -0.5219 -0.5179
 4764SOL     OW18821   2.660   5.615   4.993  0.1224  0.0649  0.8073
 4764SOL    HW218822   2.675   5.703   4.960  2.1305 -0.5381 -0.0768
 4764SOL    HW318823   2.671   5.559   4.917  1.6993 -1.1327  1.8355
 4764SOL    MW418824   2.663   5.619   4.979  0.5954 -0.1727  0.8263
 4765SOL     OW18825   4.932   4.167   6.348  0.0882 -0.1371  0.1217
 4765SOL    HW218826   4.969   4.237   6.402 -1.6780  2.0742 -1.3865
 4765SOL    HW318827   4.922   4.093   6.409  0.2425  1.4956  2.2557
 4765SOL    MW418828   4.936   4.166   6.363 -0.1245  0.3701  0.2042
 4766SOL     OW18829   3.028   1.758   0.968 -0.2874 -0.1424 -0.6378
 4766SOL    HW218830   2.937   1.742   0.992 -0.4180  1.2687 -0.1201
 4766SOL    HW318831   3.061   1.672   0.944 -0.6196 -1.5015  3.0512
 4766SOL    MW418832   3.020   1.745   0.968 -0.3484 -0.1355 -0.0828
 4767SOL     OW18833   3.088   0.805   4.926  0.1294  0.3281  0.5243
 4767SOL    HW218834   3.007   0.847   4.897  0.0181 -0.1724  0.0885
 4767SOL    HW318835   3.112   0.748   4.853  0.4493 -0.1232  0.9806
 4767SOL    MW418836   3.080   0.803   4.913  0.1569  0.2026  0.5270
 4768SOL     OW18837   6.170   1.670   2.254  0.3018  0.3574  0.2043
 4768SOL    HW218838   6.239   1.605   2.266  0.6289  0.7570  0.4859
 4768SOL    HW318839   6.092   1.618   2.232  0.1274 -0.2781  2.1507
 4768SOL    MW418840   6.169   1.654   2.253  0.3220  0.3263  0.4982
 4769SOL     OW18841   3.403   5.760   0.312 -0.3270 -0.0711 -0.2693
 4769SOL    HW218842   3.498   5.753   0.325 -0.0756  2.3892 -0.3507
 4769SOL    HW318843   3.385   5.709   0.233  1.0287 -0.0373 -0.6148
 4769SOL    MW418844   3.413   5.752   0.304 -0.1150  0.2579 -0.3256
 4770SOL     OW18845   0.359   6.026   2.120 -0.2532 -0.3710  0.2080
 4770SOL    HW218846   0.275   6.054   2.083  0.3765  2.2502  0.5171
 4770SOL    HW318847   0.340   6.012   2.213 -0.2792  0.8248  0.4060
 4770SOL    MW418848   0.345   6.028   2.128 -0.1736  0.1326  0.2749
 4771SOL     OW18849   5.118   3.096   1.988 -0.4465  0.4551  0.0459
 4771SOL    HW218850   5.033   3.081   2.028 -0.7286 -0.9489 -0.9779
 4771SOL    HW318851   5.180   3.048   2.043 -0.6199 -0.2042 -0.3190
 4771SOL    MW418852   5.115   3.088   2.000 -0.5066  0.1829 -0.1374
 4772SOL     OW18853   2.140   6.403   3.842 -0.0361 -0.0009  0.4143
 4772SOL    HW218854   2.127   6.311   3.819 -0.8369  0.2178 -0.0664
 4772SOL    HW318855   2.075   6.450   3.790 -0.9749  0.6632  2.0863
 4772SOL    MW418856   2.130   6.397   3.832 -0.2656  0.1156  0.5715
 4773SOL     OW18857   1.638   5.702   1.055  0.0872  0.4193 -0.1946
 4773SOL    HW218858   1.693   5.775   1.084  0.6464  0.7600 -2.0058
 4773SOL    HW318859   1.574   5.692   1.125  1.3462  1.2013  1.1160
 4773SOL    MW418860   1.637   5.711   1.068  0.3271  0.5674 -0.2606
 4774SOL     OW18861   1.387   1.783   3.527  0.0460 -0.4136 -0.0570
 4774SOL    HW218862   1.470   1.736   3.535  0.4080 -0.0926 -1.5910
 4774SOL    HW318863   1.374   1.792   3.433 -1.1193  0.6216  0.1797
 4774SOL    MW418864   1.396   1.778   3.516 -0.0600 -0.2346 -0.2282
 4775SOL     OW18865   3.480   6.179   0.351 -0.4516 -0.0037  0.5285
 4775SOL    HW218866   3.506   6.102   0.401  2.0374 -0.7372 -1.6840
 4775SOL    HW318867   3.428   6.144   0.279  1.9443  0.0352 -1.3610
 4775SOL    MW418868   3.477   6.164   0.348  0.1929 -0.0953 -0.0127
 4776SOL     OW18869   3.503   5.425   2.858 -0.8488 -0.4972  0.1607
 4776SOL    HW218870   3.461   5.510   2.847  0.0682 -0.0235  0.2243
 4776SOL    HW318871   3.471   5.373   2.785 -1.7016 -0.2196  0.3246
 4776SOL    MW418872   3.494   5.429   2.847 -0.8403 -0.3980  0.1907
 4777SOL     OW18873   2.358   4.572   5.648 -0.8839  0.2003  0.1928
 4777SOL    HW218874   2.427   4.606   5.591 -1.6305 -0.1824 -0.9802
 4777SOL    HW318875   2.393   4.581   5.736  0.2406  0.9751 -0.3074
 4777SOL    MW418876   2.372   4.577   5.652 -0.8341  0.2520 -0.0280
 4778SOL     OW18877   4.514   1.044   4.430 -0.1061 -0.3293 -0.3549
 4778SOL    HW218878   4.490   1.061   4.521  1.9286 -1.9002  0.5497
 4778SOL    HW318879   4.451   0.977   4.401 -0.1056 -0.5920  0.2397
 4778SOL    MW418880   4.502   1.038   4.438  0.1624 -0.5712 -0.1571
 4779SOL     OW18881   2.677   6.041   3.099 -0.3547 -0.2260  0.5364
 4779SOL    HW218882   2.589   6.022   3.129 -0.7571  0.8979  0.1068
 4779SOL    HW318883   2.685   5.995   3.015 -0.9698  0.6535 -0.0169
 4779SOL    MW418884   2.667   6.032   3.092 -0.4890  0.0383  0.4067
 4780SOL     OW18885   5.384   4.017   1.811 -0.1087 -0.4274  0.0130
 4780SOL    HW218886   5.383   4.097   1.864  0.4816 -1.3301  1.4410
 4780SOL    HW318887   5.368   4.048   1.722 -0.1680  1.2504  0.5594
 4780SOL    MW418888   5.382   4.032   1.807 -0.0387 -0.3251  0.2735
 4781SOL     OW18889   3.019   4.970   1.402  0.0528 -0.3068  0.5852
 4781SOL    HW218890   2.987   5.019   1.478 -1.0813 -1.3406  0.8183
 4781SOL    HW318891   2.950   4.905   1.385  1.2493 -1.4656 -0.0368
 4781SOL    MW418892   3.005   4.968   1.410  0.0611 -0.5961  0.5339
 4782SOL     OW18893   1.668   4.845   4.327 -0.1630 -0.3206  0.1723
 4782SOL    HW218894   1.671   4.770   4.387 -0.2664  0.2414  0.8984
 4782SOL    HW318895   1.581   4.881   4.338  0.7075  1.4454  1.7953
 4782SOL    MW418896   1.657   4.840   4.336 -0.0618 -0.0135  0.4823
 4783SOL     OW18897   0.541   4.509   3.543  0.1785 -0.3910 -0.2274
 4783SOL    HW218898   0.513   4.572   3.477 -0.7613  0.1335  0.6458
 4783SOL    HW318899   0.462   4.459   3.564  1.0237 -2.2283 -1.2746
 4783SOL    MW418900   0.527   4.511   3.537  0.1661 -0.5642 -0.2504
 4784SOL     OW18901   4.289   5.201   3.910  0.2582  0.0979  0.6247
 4784SOL    HW218902   4.312   5.115   3.874  1.2086  0.1629  1.0344
 4784SOL    HW318903   4.209   5.185   3.960 -0.1213 -0.3410 -0.0991
 4784SOL    MW418904   4.282   5.187   3.912  0.3335  0.0485  0.5833
 4785SOL     OW18905   0.453   4.992   3.310  0.4098  0.0973 -0.1412
 4785SOL    HW218906   0.456   5.006   3.215  2.9852 -0.5870 -0.2341
 4785SOL    HW318907   0.529   5.040   3.343 -0.2560  0.0372  1.5557
 4785SOL    MW418908   0.464   5.000   3.302  0.6617 -0.0009  0.0705
 4786SOL     OW18909   4.351   3.345   3.781  0.4182 -0.4122 -0.1101
 4786SOL    HW218910   4.393   3.429   3.764 -0.1514  0.1567  1.2069
 4786SOL    HW318911   4.421   3.281   3.768  0.1775 -0.1113 -4.1201
 4786SOL    MW418912   4.366   3.347   3.777  0.3113 -0.2975 -0.4654
 4787SOL     OW18913   6.300   2.070   4.889  0.4542 -0.3546 -0.0923
 4787SOL    HW218914   6.326   2.129   4.959  1.9283 -0.8495 -0.1751
 4787SOL    HW318915   6.372   2.076   4.826  0.0410 -1.3237 -0.6715
 4787SOL    MW418916   6.313   2.079   4.890  0.5941 -0.5478 -0.1796
 4788SOL     OW18917   5.441   4.324   0.703  0.4480  0.0051  0.1072
 4788SOL    HW218918   5.370   4.317   0.639 -0.8623  1.2481  1.3280
 4788SOL    HW318919   5.442   4.240   0.748  0.7983 -0.5648 -0.9461
 4788SOL    MW418920   5.432   4.312   0.701  0.3213  0.0939  0.1293
 4789SOL     OW18921   3.970   6.197   1.767 -0.0676  0.0083 -0.0087
 4789SOL    HW218922   4.009   6.123   1.814 -1.3391  0.0551  1.2218
 4789SOL    HW318923   3.991   6.182   1.675 -0.9516 -2.3349  0.1110
 4789SOL    MW418924   3.978   6.185   1.761 -0.3520 -0.2947  0.1694
 4790SOL     OW18925   0.891   1.495   2.169 -0.0800  0.1746  0.0390
 4790SOL    HW218926   0.798   1.507   2.191  0.1042  0.0579  0.9255
 4790SOL    HW318927   0.920   1.581   2.139 -0.4091  0.2721 -0.0075
 4790SOL    MW418928   0.882   1.508   2.168 -0.0991  0.1721  0.1498
 4791SOL     OW18929   6.249   3.862   0.709  0.4436  0.0888 -0.1219
 4791SOL    HW218930   6.154   3.869   0.712  0.4159  0.3437 -1.0573
 4791SOL    HW318931   6.268   3.771   0.734  0.0006  0.2056  0.6479
 4791SOL    MW418932   6.239   3.851   0.713  0.3815  0.1379 -0.1437
 4792SOL     OW18933   5.002   3.319   1.837  0.2090  0.1523  0.5498
 4792SOL    HW218934   4.996   3.272   1.754 -1.2368  0.8432  0.2300
 4792SOL    HW318935   5.066   3.270   1.888  0.8472 -0.4984 -0.8308
 4792SOL    MW418936   5.009   3.306   1.833  0.1025  0.1576  0.3255
 4793SOL     OW18937   4.247   1.570   5.081 -0.3271 -0.3178 -0.6118
 4793SOL    HW218938   4.326   1.518   5.096 -0.1042 -0.1574 -1.1830
 4793SOL    HW318939   4.218   1.596   5.168  1.2712  1.1320 -0.4642
 4793SOL    MW418940   4.253   1.567   5.094 -0.0868 -0.1053 -0.6677
 4794SOL     OW18941   0.362   4.321   0.440 -0.5404  0.1375 -0.0642
 4794SOL    HW218942   0.405   4.336   0.355 -0.0417 -0.1604  0.1325
 4794SOL    HW318943   0.344   4.227   0.441  2.8818 -0.6602  1.7048
 4794SOL    MW418944   0.366   4.311   0.429 -0.0231 -0.0071  0.1951
 4795SOL     OW18945   2.595   0.346   0.489  0.4821  0.1957  0.1058
 4795SOL    HW218946   2.623   0.421   0.437  0.3589  1.4539  1.7620
 4795SOL    HW318947   2.504   0.365   0.511 -0.0174 -1.1738 -0.6593
 4795SOL    MW418948   2.587   0.358   0.485  0.4000  0.1810  0.2234
 4796SOL     OW18949   2.037   5.032   0.454  0.4589  0.0400 -0.2680
 4796SOL    HW218950   1.978   5.000   0.386  0.4265  0.8606 -0.6426
 4796SOL    HW318951   2.037   4.964   0.521 -0.4435 -0.2346 -0.5404
 4796SOL    MW418952   2.029   5.019   0.454  0.3355  0.1121 -0.3534
 4797SOL     OW18953   1.983   2.795   0.249  0.2690 -0.0971  0.5431
 4797SOL    HW218954   1.997   2.835   0.335 -3.1891  0.8183  0.7897
 4797SOL    HW318955   2.006   2.703   0.262  2.6847  0.5734  1.5503
 4797SOL    MW418956   1.988   2.788   0.262  0.1315  0.1121  0.7085
 4798SOL     OW18957   5.208   5.245   1.873 -0.2296  0.1858  0.0891
 4798SOL    HW218958   5.272   5.288   1.816  1.0003 -0.2270  1.1132
 4798SOL    HW318959   5.232   5.273   1.961 -1.0054 -0.5757  0.5586
 4798SOL    MW418960   5.220   5.254   1.877 -0.1697  0.0309  0.2862
 4799SOL     OW18961   1.202   0.459   0.298 -0.3043 -0.1442  0.2653
 4799SOL    HW218962   1.230   0.386   0.243  1.3854 -1.2787  2.4988
 4799SOL    HW318963   1.125   0.425   0.345  0.0254 -0.2248  0.7495
 4799SOL    MW418964   1.195   0.445   0.297 -0.0378 -0.3045  0.6239
 4800SOL     OW18965   3.504   0.536   2.966 -0.1691  0.0142 -0.3931
 4800SOL    HW218966   3.417   0.542   2.926 -1.0507  0.4198  1.4416
 4800SOL    HW318967   3.565   0.555   2.895 -1.5597 -0.5492 -1.7938
 4800SOL    MW418968   3.501   0.539   2.951 -0.4689 -0.0066 -0.3358
 4801SOL     OW18969   0.088   2.024   3.400  0.2977 -0.0493  0.3458
 4801SOL    HW218970   0.179   2.005   3.421  0.5113  0.1669 -0.3815
 4801SOL    HW318971   0.085   2.032   3.305 -0.2046  1.3668  0.4544
 4801SOL    MW418972   0.099   2.022   3.390  0.2596  0.1661  0.2642
 4802SOL     OW18973   5.113   1.536   5.679  0.9132 -0.0914  0.7289
 4802SOL    HW218974   5.155   1.501   5.601  1.6334  0.3569  0.9002
 4802SOL    HW318975   5.145   1.626   5.685  0.0685  0.1960  0.9772
 4802SOL    MW418976   5.123   1.543   5.670  0.8968  0.0057  0.7843
 4803SOL     OW18977   1.159   2.004   0.400 -0.1353 -0.6551  0.6200
 4803SOL    HW218978   1.172   1.911   0.384 -0.5948 -0.5176 -0.6058
 4803SOL    HW318979   1.097   2.032   0.333 -0.8167  0.3208  1.6229
 4803SOL    MW418980   1.153   1.995   0.389 -0.2858 -0.5082  0.5906
 4804SOL     OW18981   3.097   5.495   6.134 -0.1839  0.4964  0.0176
 4804SOL    HW218982   3.108   5.581   6.093 -0.8935  0.5983  0.0164
 4804SOL    HW318983   3.054   5.442   6.068  1.7115 -0.3758 -0.5717
 4804SOL    MW418984   3.092   5.500   6.120 -0.0275  0.3948 -0.0603
 4805SOL     OW18985   6.378   3.446   3.959 -0.1441 -0.5868 -0.2768
 4805SOL    HW218986   6.321   3.382   3.916  1.1434 -0.8543 -1.6836
 4805SOL    HW318987   6.322   3.486   4.026 -1.9332 -0.9440 -1.4624
 4805SOL    MW418988   6.363   3.443   3.962 -0.2103 -0.6692 -0.6188
 4806SOL     OW18989   4.402   2.245   1.668 -0.1834  0.1784  0.3756
 4806SOL    HW218990   4.324   2.290   1.636  0.8412  0.3098 -2.1755
 4806SOL    HW318991   4.369   2.164   1.706 -1.5328 -0.4190 -1.8913
 4806SOL    MW418992   4.387   2.240   1.669 -0.2262  0.1169 -0.2601
 4807SOL     OW18993   2.309   4.451   2.088 -0.0843  0.0412  0.0643
 4807SOL    HW218994   2.312   4.356   2.097  2.1806  0.0928  0.5216
 4807SOL    HW318995   2.222   4.476   2.120 -1.0545 -1.9101 -0.8833
 4807SOL    MW418996   2.298   4.442   2.093  0.0865 -0.2095 -0.0004
 4808SOL     OW18997   3.859   5.105   1.482  0.1006 -0.0660  0.1011
 4808SOL    HW218998   3.803   5.057   1.422  1.2499 -1.9864  0.4714
 4808SOL    HW318999   3.908   5.166   1.427 -0.8935  0.1961 -0.4928
 4808SOL    MW419000   3.858   5.107   1.467  0.1211 -0.2848  0.0716
 4809SOL     OW19001   5.943   2.009   1.338  0.1554 -0.3195  0.1704
 4809SOL    HW219002   5.904   2.082   1.290  0.8634  0.2198  0.4072
 4809SOL    HW319003   5.990   1.959   1.271  0.1497 -0.2335  0.1023
 4809SOL    MW419004   5.944   2.012   1.323  0.2481 -0.2370  0.1927
 4810SOL     OW19005   5.538   4.369   2.783  0.0961 -0.3101 -0.4405
 4810SOL    HW219006   5.481   4.447   2.782  1.4190  0.7132 -2.1925
 4810SOL    HW319007   5.477   4.296   2.793 -1.0842  0.9234  3.0316
 4810SOL    MW419008   5.522   4.370   2.784  0.1149 -0.0124 -0.2136
 4811SOL     OW19009   3.996   3.377   2.193 -0.4942 -0.8120  0.2985
 4811SOL    HW219010   3.901   3.390   2.192 -0.9218 -3.5148 -0.7274
 4811SOL    HW319011   4.011   3.319   2.267  0.7897  1.6425  2.1144
 4811SOL    MW419012   3.985   3.371   2.202 -0.3813 -0.8448  0.4027
 4812SOL     OW19013   5.056   0.778   2.864  0.0288  0.8157  0.3675
 4812SOL    HW219014   5.147   0.763   2.891 -0.0610  0.4544  0.4747
 4812SOL    HW319015   5.044   0.873   2.873  1.0884  1.2189 -1.8210
 4812SOL    MW419016   5.066   0.789   2.869  0.1567  0.8212  0.0929
 4813SOL     OW19017   3.802   2.588   0.384 -0.3382 -0.2620 -0.3061
 4813SOL    HW219018   3.830   2.618   0.471  1.3601  1.4665 -1.3599
 4813SOL    HW319019   3.812   2.493   0.388 -2.4825 -0.4859  2.0564
 4813SOL    MW419020   3.807   2.579   0.396 -0.3970 -0.0635 -0.1335
 4814SOL     OW19021   1.777   4.903   0.342  0.2366  0.4605 -0.5118
 4814SOL    HW219022   1.786   4.855   0.424 -0.4970  0.7995 -0.2188
 4814SOL    HW319023   1.792   4.838   0.274 -0.0547 -0.0255 -0.1173
 4814SOL    MW419024   1.780   4.888   0.344  0.1014  0.4411 -0.4211
 4815SOL     OW19025   3.569   0.612   2.621 -0.3084  0.1855  0.1431
 4815SOL    HW219026   3.553   0.517   2.625 -1.8979  0.4572  2.0708
 4815SOL    HW319027   3.547   0.636   2.531 -0.4905 -1.1762 -0.2049
 4815SOL    MW419028   3.564   0.603   2.610 -0.5422  0.0417  0.3515
 4816SOL     OW19029   6.327   5.565   5.298  0.0566 -0.1694  0.2212
 4816SOL    HW219030   6.409   5.573   5.248  0.8272 -0.5890  1.3738
 4816SOL    HW319031   6.282   5.648   5.283  0.5217 -0.0713 -0.7177
 4816SOL    MW419032   6.332   5.577   5.290  0.2197 -0.2118  0.2494
 4817SOL     OW19033   4.268   5.546   3.438 -0.3541 -0.0350 -0.5729
 4817SOL    HW219034   4.315   5.564   3.520 -1.0942 -0.1816 -0.1028
 4817SOL    HW319035   4.177   5.568   3.458 -0.1730  2.6225 -2.2188
 4817SOL    MW419036   4.262   5.551   3.452 -0.4279  0.2963 -0.7281
 4818SOL     OW19037   4.723   5.285   0.795  0.0036 -0.4126  0.0653
 4818SOL    HW219038   4.804   5.234   0.806 -0.7105 -1.7195 -0.4275
 4818SOL    HW319039   4.656   5.233   0.839 -1.2907 -1.4269 -2.8516
 4818SOL    MW419040   4.725   5.271   0.802 -0.2614 -0.7188 -0.3846
 4819SOL     OW19041   4.003   4.766   1.222 -0.4225 -0.6834 -0.0990
 4819SOL    HW219042   4.091   4.756   1.185 -0.5564 -0.1849 -0.5674
 4819SOL    HW319043   3.980   4.679   1.254  0.0298 -0.9358 -0.4470
 4819SOL    MW419044   4.012   4.753   1.222 -0.3805 -0.6510 -0.2067
 4820SOL     OW19045   0.222   1.708   5.752  0.5318 -0.1425  0.6010
 4820SOL    HW219046   0.300   1.693   5.698  0.2903 -1.6097  0.6149
 4820SOL    HW319047   0.201   1.622   5.787 -2.0200 -0.0818 -0.6134
 4820SOL    MW419048   0.230   1.695   5.750  0.1633 -0.3281  0.4426
 4821SOL     OW19049   2.278   2.585   2.422 -0.5876 -0.3476 -0.3717
 4821SOL    HW219050   2.272   2.654   2.488  0.2746 -2.3446  1.9736
 4821SOL    HW319051   2.372   2.573   2.408 -0.7205 -1.0467 -0.7360
 4821SOL    MW419052   2.289   2.592   2.429 -0.4914 -0.7033 -0.1103
 4822SOL     OW19053   2.301   2.196   4.064  0.2415 -0.4011 -0.2917
 4822SOL    HW219054   2.370   2.140   4.100 -0.4701  0.4495  2.6704
 4822SOL    HW319055   2.327   2.285   4.089 -0.6584  0.2084 -1.4031
 4822SOL    MW419056   2.314   2.201   4.072  0.0289 -0.2084 -0.0475
 4823SOL     OW19057   4.467   3.672   1.498 -0.5724  0.1567 -0.6376
 4823SOL    HW219058   4.462   3.758   1.539  1.3537  0.8143 -1.6633
 4823SOL    HW319059   4.438   3.612   1.567  1.8095  1.2659  1.5300
 4823SOL    MW419060   4.463   3.675   1.513 -0.0040  0.3898 -0.4869
 4824SOL     OW19061   1.180   0.569   5.328 -0.0377  0.2908 -0.0616
 4824SOL    HW219062   1.267   0.591   5.294  0.5938  0.4254  1.5408
 4824SOL    HW319063   1.198   0.518   5.407 -1.4351 -0.1109  0.0128
 4824SOL    MW419064   1.194   0.565   5.334 -0.1388  0.2555  0.1596
 4825SOL     OW19065   0.866   3.637   5.891  0.0350  0.5819 -0.2172
 4825SOL    HW219066   0.832   3.653   5.980  0.8724  0.0347  0.2068
 4825SOL    HW319067   0.811   3.566   5.857  1.0431 -0.6718  0.6678
 4825SOL    MW419068   0.854   3.630   5.898  0.2785  0.3443 -0.0445
 4826SOL     OW19069   4.390   2.482   1.424 -0.3051 -0.0367  0.6095
 4826SOL    HW219070   4.414   2.426   1.350  1.0409  0.5779  0.5459
 4826SOL    HW319071   4.304   2.450   1.452  0.8463 -2.8524  1.2664
 4826SOL    MW419072   4.382   2.470   1.418  0.0244 -0.3271  0.6878
 4827SOL     OW19073   3.028   2.177   0.041 -0.0078 -0.3158 -0.4069
 4827SOL    HW219074   2.945   2.163  -0.004  0.7394 -1.5853 -1.4879
 4827SOL    HW319075   3.007   2.174   0.134 -1.2831  0.2413 -0.6665
 4827SOL    MW419076   3.014   2.174   0.047 -0.0775 -0.4098 -0.5838
 4828SOL     OW19077   2.817   4.825   3.070  0.4604 -0.0089 -0.3949
 4828SOL    HW219078   2.909   4.807   3.091  0.3209 -0.8131 -0.4519
 4828SOL    HW319079   2.787   4.746   3.025 -1.1378 -1.1429  2.3640
 4828SOL    MW419080   2.825   4.812   3.067  0.2311 -0.2646 -0.0384
 4829SOL     OW19081   2.884   6.189   0.454  0.1307 -0.2630  0.2288
 4829SOL    HW219082   2.923   6.268   0.415  1.3643 -0.7982  0.3496
 4829SOL    HW319083   2.844   6.220   0.535  1.0209  0.1631  0.5137
 4829SOL    MW419084   2.884   6.204   0.460  0.4109 -0.2774  0.2823
 4830SOL     OW19085   5.867   6.001   6.414  0.2152  0.0136 -0.2520
 4830SOL    HW219086   5.897   5.939   6.347 -2.9672  0.0094 -1.8821
 4830SOL    HW319087   5.889   6.087   6.379  0.4545 -0.0629 -0.2865
 4830SOL    MW419088   5.874   6.004   6.401 -0.1731  0.0030 -0.4716
 4831SOL     OW19089   0.638   1.471   2.326 -0.3020  0.5682  0.5516
 4831SOL    HW219090   0.542   1.477   2.332 -0.4862 -1.2003  0.0359
 4831SOL    HW319091   0.668   1.471   2.416 -0.8971 -0.1188  0.7581
 4831SOL    MW419092   0.629   1.472   2.338 -0.4048  0.2442  0.5108
 4832SOL     OW19093   1.185   2.623   6.124 -0.1121  0.3988 -1.0569
 4832SOL    HW219094   1.262   2.631   6.181  0.5107 -0.8879 -1.6915
 4832SOL    HW319095   1.210   2.670   6.044  0.1616 -0.3174 -1.3984
 4832SOL    MW419096   1.199   2.631   6.121  0.0062  0.1345 -1.1857
 4833SOL     OW19097   2.106   0.490   3.063  0.2257 -0.0339 -0.1661
 4833SOL    HW219098   2.091   0.399   3.091  1.6168 -0.0236  0.7294
 4833SOL    HW319099   2.181   0.519   3.116 -0.4139  1.7585 -0.1725
 4833SOL    MW419100   2.114   0.482   3.074  0.3248  0.2040 -0.0488
 4834SOL     OW19101   0.117   2.685   1.177 -0.0655  0.3695  0.2491
 4834SOL    HW219102   0.140   2.768   1.220 -1.5802  1.0202 -0.1151
 4834SOL    HW319103   0.172   2.683   1.099  0.8878  0.4106  0.9070
 4834SOL    MW419104   0.127   2.696   1.173 -0.1396  0.4608  0.2879
 4835SOL     OW19105   3.208   2.245   5.546 -0.4530  0.1511 -0.5933
 4835SOL    HW219106   3.116   2.237   5.573 -0.7809 -0.4838 -1.7810
 4835SOL    HW319107   3.207   2.223   5.453  1.1382 -1.4020 -0.2895
 4835SOL    MW419108   3.196   2.241   5.537 -0.2863 -0.1376 -0.7099
 4836SOL     OW19109   3.232   0.536   0.707  0.0664 -0.3542  0.3594
 4836SOL    HW219110   3.185   0.505   0.629  1.4179  1.1158 -1.1085
 4836SOL    HW319111   3.163   0.572   0.763 -0.8530 -0.7214 -0.4874
 4836SOL    MW419112   3.216   0.537   0.704  0.1234 -0.2087  0.0540
 4837SOL     OW19113   6.297   0.509   6.291 -0.2011 -0.1881  0.3212
 4837SOL    HW219114   6.248   0.488   6.211 -1.7639  0.6699  1.0113
 4837SOL    HW319115   6.345   0.429   6.311 -0.0330 -0.5260 -1.2936
 4837SOL    MW419116   6.296   0.495   6.283 -0.3851 -0.1195  0.1992
 4838SOL     OW19117   1.983   4.040   5.514 -0.1980  0.0417 -0.4091
 4838SOL    HW219118   1.902   3.989   5.513 -0.2786  0.1525  0.1475
 4838SOL    HW319119   2.045   3.988   5.463 -0.5271 -0.1999 -0.5648
 4838SOL    MW419120   1.980   4.026   5.507 -0.2521  0.0245 -0.3562
 4839SOL     OW19121   4.148   1.694   5.323 -0.2818 -0.3669  0.1667
 4839SOL    HW219122   4.077   1.738   5.277 -0.3549 -1.7969 -1.1683
 4839SOL    HW319123   4.105   1.626   5.374 -0.2179  1.2767  2.5897
 4839SOL    MW419124   4.133   1.691   5.323 -0.2830 -0.3387  0.3103
 4840SOL     OW19125   2.935   5.632   3.458 -0.0181 -0.3211  0.5570
 4840SOL    HW219126   2.896   5.715   3.483 -1.5199 -0.3165 -1.5550
 4840SOL    HW319127   3.006   5.656   3.398 -0.6955 -0.5570 -0.3513
 4840SOL    MW419128   2.939   5.646   3.453 -0.3056 -0.3516  0.1585
 4841SOL     OW19129   6.204   2.217   3.306 -0.5422 -0.3932 -0.2685
 4841SOL    HW219130   6.196   2.248   3.397  0.1632 -0.3351 -0.2205
 4841SOL    HW319131   6.283   2.260   3.273 -0.1943 -1.2408 -0.5693
 4841SOL    MW419132   6.214   2.227   3.314 -0.4032 -0.4974 -0.3019
 4842SOL     OW19133   3.405   0.740   0.399  0.4948  0.0828  0.0464
 4842SOL    HW219134   3.463   0.806   0.360  0.8678  0.1696  0.7308
 4842SOL    HW319135   3.422   0.661   0.348  0.0907  0.4875 -0.7399
 4842SOL    MW419136   3.415   0.739   0.387  0.4907  0.1476  0.0329
 4843SOL     OW19137   6.128   1.114   4.000  0.3847 -0.1903 -0.2176
 4843SOL    HW219138   6.186   1.162   3.942 -1.1921  1.6637 -0.3769
 4843SOL    HW319139   6.042   1.118   3.957 -0.7976  1.0528  2.0365
 4843SOL    MW419140   6.124   1.121   3.987  0.0207  0.2184  0.0588
 4844SOL     OW19141   3.936   2.293   6.088  0.2076 -0.1549  0.8206
 4844SOL    HW219142   4.025   2.326   6.077  0.0154  0.1278 -0.0149
 4844SOL    HW319143   3.916   2.250   6.005  0.0552 -1.4494  1.5064
 4844SOL    MW419144   3.945   2.292   6.076  0.1621 -0.2884  0.8008
 4845SOL     OW19145   6.263   2.535   5.843  0.1753  0.1225 -0.4987
 4845SOL    HW219146   6.259   2.628   5.821 -0.6079  0.6006  1.4909
 4845SOL    HW319147   6.215   2.528   5.926  0.2286 -2.0560 -0.6057
 4845SOL    MW419148   6.256   2.546   5.851  0.0790 -0.1018 -0.2503
 4846SOL     OW19149   5.978   4.614   4.006  0.0438  0.6379  0.1986
 4846SOL    HW219150   5.887   4.634   3.987  0.4303  1.1355 -1.2010
 4846SOL    HW319151   5.979   4.598   4.101 -1.1797  2.2704  0.5296
 4846SOL    MW419152   5.966   4.614   4.016 -0.0666  0.9190  0.0576
 4847SOL     OW19153   5.542   3.498   3.010  0.6592  0.6108  0.4217
 4847SOL    HW219154   5.492   3.516   3.090 -0.4237 -0.8734  0.1249
 4847SOL    HW319155   5.489   3.538   2.941  1.4291  1.6070  0.3789
 4847SOL    MW419156   5.528   3.506   3.011  0.6179  0.5464  0.3769
 4848SOL     OW19157   2.895   2.322   4.827 -0.5707 -0.0519 -0.2801
 4848SOL    HW219158   2.871   2.413   4.813 -1.2008 -0.2808 -0.7634
 4848SOL    HW319159   2.846   2.274   4.760  0.3839 -0.6631 -0.5511
 4848SOL    MW419160   2.885   2.327   4.817 -0.5279 -0.1628 -0.3796
 4849SOL     OW19161   0.163   2.780   3.960 -0.4896 -0.3655 -0.9898
 4849SOL    HW219162   0.215   2.827   4.025  0.2604  0.9850 -2.5290
 4849SOL    HW319163   0.222   2.764   3.887 -1.6925 -0.6032 -1.9573
 4849SOL    MW419164   0.177   2.784   3.959 -0.5493 -0.2186 -1.3206
 4850SOL     OW19165   2.462   5.247   2.404  0.1421 -0.0109  0.2340
 4850SOL    HW219166   2.427   5.277   2.488 -0.7883 -0.9162  0.1988
 4850SOL    HW319167   2.384   5.223   2.353  0.6905  0.5699 -0.9046
 4850SOL    MW419168   2.447   5.247   2.409  0.0917 -0.0538  0.0791
 4851SOL     OW19169   5.901   5.661   3.993  0.1997  0.1475 -0.6319
 4851SOL    HW219170   5.855   5.745   3.984  0.1837  0.5242  2.0037
 4851SOL    HW319171   5.965   5.662   3.922  2.8067  4.2616  1.3461
 4851SOL    MW419172   5.904   5.672   3.983  0.5415  0.7400 -0.0232
 4852SOL     OW19173   3.888   4.250   6.342  0.2566 -0.1414  0.0980
 4852SOL    HW219174   3.966   4.302   6.321  0.3373  0.4076  1.5802
 4852SOL    HW319175   3.900   4.167   6.295  0.4105  0.9304 -1.8330
 4852SOL    MW419176   3.900   4.246   6.333  0.2875  0.0724  0.0388
 4853SOL     OW19177   6.139   2.532   1.665 -0.0928 -0.3038  0.1946
 4853SOL    HW219178   6.126   2.619   1.702 -1.0218 -0.8885  1.3373
 4853SOL    HW319179   6.178   2.481   1.737  0.0069 -0.9458 -0.3017
 4853SOL    MW419180   6.142   2.537   1.679 -0.2022 -0.4656  0.2799
 4854SOL     OW19181   4.226   4.971   2.278  0.4337  0.4871 -0.3638
 4854SOL    HW219182   4.272   4.901   2.326 -0.6861  0.2156  0.3651
 4854SOL    HW319183   4.164   5.006   2.342  0.6948  1.8967 -0.8485
 4854SOL    MW419184   4.224   4.966   2.293  0.3204  0.6373 -0.3316
 4855SOL     OW19185   2.415   2.354   1.605 -0.4097  0.0702  0.2148
 4855SOL    HW219186   2.404   2.349   1.700 -0.5895  0.6936  0.2309
 4855SOL    HW319187   2.364   2.430   1.579 -0.1343  0.0680 -0.3496
 4855SOL    MW419188   2.407   2.364   1.614 -0.3971  0.1522  0.1425
 4856SOL     OW19189   4.979   0.327   5.117 -0.2314  0.4456  0.3202
 4856SOL    HW219190   4.913   0.388   5.086  0.4298  0.8642 -0.2959
 4856SOL    HW319191   5.038   0.380   5.171 -0.1959  0.1471  0.5792
 4856SOL    MW419192   4.978   0.342   5.120 -0.1395  0.4614  0.2731
 4857SOL     OW19193   0.082   5.369   5.892  0.4221 -0.4064 -0.1588
 4857SOL    HW219194   0.100   5.431   5.963  0.1670 -0.8303  0.2914
 4857SOL    HW319195   0.151   5.385   5.828  0.6795 -0.0328  0.2029
 4857SOL    MW419196   0.094   5.379   5.893  0.4224 -0.4131 -0.0517
 4858SOL     OW19197   3.462   5.016   3.382  0.4512  0.5466  0.5572
 4858SOL    HW219198   3.450   5.109   3.403 -0.9388  1.0321 -2.0225
 4858SOL    HW319199   3.557   5.005   3.377  0.7117  1.3295  2.7123
 4858SOL    MW419200   3.473   5.027   3.384  0.3022  0.7140  0.5012
 4859SOL     OW19201   4.668   4.064   5.557 -0.0056  0.5025 -0.6087
 4859SOL    HW219202   4.764   4.066   5.561 -0.0221  0.4014 -0.0223
 4859SOL    HW319203   4.642   4.153   5.579 -0.0519  0.4640 -0.5080
 4859SOL    MW419204   4.678   4.076   5.560 -0.0138  0.4841 -0.5180
 4860SOL     OW19205   2.568   4.512   0.988  0.4744 -0.4264 -0.1130
 4860SOL    HW219206   2.525   4.444   1.041  0.4578  0.3596  0.9033
 4860SOL    HW319207   2.661   4.502   1.007  0.5713 -0.8327 -0.7734
 4860SOL    MW419208   2.574   4.501   0.998  0.4850 -0.3763 -0.0661
 4861SOL     OW19209   0.698   4.839   4.308 -0.4722 -0.2495  0.3109
 4861SOL    HW219210   0.778   4.888   4.326 -0.1145 -0.0682 -1.6376
 4861SOL    HW319211   0.630   4.886   4.356  0.1252  1.2419 -0.2343
 4861SOL    MW419212   0.700   4.851   4.317 -0.3462 -0.0288 -0.0181
 4862SOL     OW19213   6.060   2.934   0.300 -0.5190 -0.3511  0.0213
 4862SOL    HW219214   5.995   2.865   0.316  1.0300 -1.6342  1.0402
 4862SOL    HW319215   6.141   2.900   0.337  1.1767  0.4948 -2.6420
 4862SOL    MW419216   6.062   2.920   0.307 -0.0909 -0.4088 -0.1956
 4863SOL     OW19217   0.728   3.165   5.661  0.0591 -0.6399 -0.3885
 4863SOL    HW219218   0.802   3.191   5.716 -1.5435 -0.1076  1.6924
 4863SOL    HW319219   0.753   3.080   5.625  1.5048 -0.6838  0.6095
 4863SOL    MW419220   0.741   3.157   5.664  0.0384 -0.5755  0.0177
 4864SOL     OW19221   1.476   3.657   3.439  0.7266  0.3039 -0.2047
 4864SOL    HW219222   1.484   3.752   3.449  0.4581  0.3551 -0.4711
 4864SOL    HW319223   1.420   3.629   3.512  0.5540  0.3899 -0.3050
 4864SOL    MW419224   1.470   3.666   3.450  0.6684  0.3220 -0.2530
 4865SOL     OW19225   2.974   3.325   4.901  0.1531  0.3082 -0.1320
 4865SOL    HW219226   3.038   3.384   4.940 -0.5684  0.9938  0.0580
 4865SOL    HW319227   2.996   3.239   4.937 -0.2940  0.8663  1.5885
 4865SOL    MW419228   2.985   3.321   4.911 -0.0011  0.4723  0.1200
 4866SOL     OW19229   0.407   5.044   1.203 -0.6001 -0.3971 -0.5179
 4866SOL    HW219230   0.350   5.018   1.131 -0.2328 -0.3252 -0.8399
 4866SOL    HW319231   0.485   4.989   1.193 -0.8399 -0.9041  0.2558
 4866SOL    MW419232   0.410   5.033   1.192 -0.5833 -0.4545 -0.4583
 4867SOL     OW19233   1.081   2.881   5.122 -0.0271 -0.2386  0.0688
 4867SOL    HW219234   1.103   2.937   5.047 -2.1344 -0.9306 -1.1596
 4867SOL    HW319235   1.045   2.802   5.082  0.0005 -1.1765  1.8252
 4867SOL    MW419236   1.079   2.878   5.107 -0.3015 -0.4536  0.1384
 4868SOL     OW19237   0.717   0.855   6.224  0.2750  0.9945  0.1212
 4868SOL    HW219238   0.771   0.925   6.186  0.0434  0.2645 -1.6616
 4868SOL    HW319239   0.651   0.838   6.157 -0.6650  0.1723  1.2299
 4868SOL    MW419240   0.716   0.862   6.210  0.1204  0.7897  0.0323
 4869SOL     OW19241   2.124   6.091   4.714  0.1470  0.2041  0.7399
 4869SOL    HW219242   2.205   6.043   4.697 -0.2309 -0.3796  0.5480
 4869SOL    HW319243   2.056   6.038   4.672 -0.0387  2.0295 -1.4493
 4869SOL    MW419244   2.126   6.078   4.706  0.0726  0.3679  0.4258
 4870SOL     OW19245   4.511   5.896   5.646  1.2512 -0.1046 -0.2424
 4870SOL    HW219246   4.426   5.885   5.689  0.9376  0.4924 -0.6969
 4870SOL    HW319247   4.551   5.970   5.691  0.9097  0.5420 -0.9846
 4870SOL    MW419248   4.506   5.904   5.658  1.1648  0.0595 -0.4003
 4871SOL     OW19249   0.486   5.449   0.948 -0.1031 -0.1060 -0.1423
 4871SOL    HW219250   0.433   5.392   1.004  0.4079 -1.3961 -0.9378
 4871SOL    HW319251   0.542   5.389   0.899  1.8032  1.1749  0.3558
 4871SOL    MW419252   0.487   5.433   0.949  0.2158 -0.1072 -0.1816
 4872SOL     OW19253   1.343   4.288   0.314 -0.7443  0.0610 -0.1188
 4872SOL    HW219254   1.306   4.201   0.330  0.1670 -0.1428  1.0096
 4872SOL    HW319255   1.437   4.277   0.327 -0.6859  1.3612  0.7833
 4872SOL    MW419256   1.350   4.275   0.318 -0.6164  0.2057  0.1491
 4873SOL     OW19257   5.627   1.859   2.727  0.4982  0.0284 -0.0495
 4873SOL    HW219258   5.649   1.898   2.812  0.9005  1.7495 -0.8940
 4873SOL    HW319259   5.686   1.784   2.720 -0.9756 -1.4541  2.0622
 4873SOL    MW419260   5.638   1.854   2.738  0.3568  0.0599  0.1177
 4874SOL     OW19261   5.096   3.178   0.954  0.2866  0.6595 -0.4157
 4874SOL    HW219262   5.152   3.108   0.920 -0.1837 -0.4423  0.9757
 4874SOL    HW319263   5.155   3.235   1.002  0.3179 -0.2431  0.6564
 4874SOL    MW419264   5.111   3.176   0.956  0.2287  0.3951 -0.0906
 4875SOL     OW19265   4.997   1.913   1.650 -0.2290  0.2798 -0.1815
 4875SOL    HW219266   5.043   1.942   1.571  1.2190  0.7464  0.7931
 4875SOL    HW319267   4.995   1.991   1.706 -2.0725  0.2103 -0.1150
 4875SOL    MW419268   5.003   1.927   1.647 -0.2812  0.3322 -0.0442
 4876SOL     OW19269   0.406   2.735   3.350 -0.5896  1.0203 -0.1659
 4876SOL    HW219270   0.368   2.656   3.387  1.3374 -0.0307 -0.3067
 4876SOL    HW319271   0.413   2.796   3.424 -2.6208  1.3628 -0.1702
 4876SOL    MW419272   0.402   2.733   3.365 -0.6033  0.9268 -0.1851
 4877SOL     OW19273   0.117   3.468   1.951  0.5400  0.2736  0.5433
 4877SOL    HW219274   0.051   3.419   2.000  0.2265  0.0139 -0.1209
 4877SOL    HW319275   0.069   3.540   1.911  0.9596  1.0118  1.3293
 4877SOL    MW419276   0.102   3.471   1.952  0.5540  0.3368  0.5593
 4878SOL     OW19277   4.303   5.678   1.511 -0.2173  0.7106  0.0915
 4878SOL    HW219278   4.287   5.704   1.601 -0.8053  0.5632  0.0314
 4878SOL    HW319279   4.226   5.628   1.486  1.0354 -1.4956  0.3561
 4878SOL    MW419280   4.291   5.675   1.519 -0.1296  0.4001  0.1185
 4879SOL     OW19281   3.510   6.089   3.724  0.5813 -0.7070 -0.4128
 4879SOL    HW219282   3.471   6.159   3.777  0.0403 -0.9825 -0.4402
 4879SOL    HW319283   3.468   6.009   3.755  0.8105 -0.9596 -0.7452
 4879SOL    MW419284   3.500   6.088   3.735  0.5402 -0.7767 -0.4603
 4880SOL     OW19285   1.514   0.929   2.786 -0.4899  0.1622  0.1659
 4880SOL    HW219286   1.426   0.910   2.819 -0.0551 -1.9786  0.2666
 4880SOL    HW319287   1.515   0.890   2.698  0.8466 -1.3819  0.8216
 4880SOL    MW419288   1.502   0.921   2.779 -0.2562 -0.3240  0.2657
 4881SOL     OW19289   2.181   3.393   5.524  0.2471  0.2525 -0.1360
 4881SOL    HW219290   2.241   3.337   5.475  0.7666  0.2116  0.5344
 4881SOL    HW319291   2.145   3.336   5.593  1.7170  1.0203  1.3295
 4881SOL    MW419292   2.184   3.378   5.527  0.5096  0.3484  0.1458
 4882SOL     OW19293   0.143   5.043   2.362 -0.1800  0.1329  0.2670
 4882SOL    HW219294   0.060   5.092   2.362 -1.3992 -1.7829 -1.2686
 4882SOL    HW319295   0.183   5.065   2.446 -2.4493  0.7917  1.2699
 4882SOL    MW419296   0.137   5.053   2.373 -0.6403 -0.0329  0.1967
 4883SOL     OW19297   2.525   0.801   6.420  0.5205 -0.5084 -0.1461
 4883SOL    HW219298   2.488   0.881   6.383 -0.2557 -0.4718  0.6552
 4883SOL    HW319299   2.599   0.832   6.473 -0.1986 -0.2251  0.7218
 4883SOL    MW419300   2.530   0.816   6.422  0.3232 -0.4662  0.0741
 4884SOL     OW19301   2.932   0.906   6.399 -0.2127 -0.6687  0.8514
 4884SOL    HW219302   2.902   0.829   6.351  2.4127 -0.5171 -1.2965
 4884SOL    HW319303   2.899   0.980   6.348  1.3882 -0.4910  0.0061
 4884SOL    MW419304   2.924   0.905   6.386  0.3449 -0.6253  0.4565
 4885SOL     OW19305   5.424   4.544   2.992 -0.1162 -0.1776  0.4155
 4885SOL    HW219306   5.348   4.552   3.050  0.1392 -0.1317  0.7428
 4885SOL    HW319307   5.498   4.575   3.044  0.2185 -0.7464  0.2862
 4885SOL    MW419308   5.424   4.549   3.006 -0.0383 -0.2466  0.4416
 4886SOL     OW19309   1.703   3.443   6.196 -0.4581  0.2144 -0.0923
 4886SOL    HW219310   1.633   3.384   6.225 -0.2970  0.3920  0.6820
 4886SOL    HW319311   1.677   3.529   6.230 -0.2516  0.4327 -0.4737
 4886SOL    MW419312   1.690   3.447   6.204 -0.4096  0.2666 -0.0404
 4887SOL     OW19313   2.461   4.782   3.425 -0.3116 -0.3234  0.1581
 4887SOL    HW219314   2.513   4.814   3.499 -0.8221  2.1876 -0.4703
 4887SOL    HW319315   2.377   4.757   3.463  0.0632 -0.8572  0.6567
 4887SOL    MW419316   2.457   4.783   3.440 -0.3295 -0.0625  0.1410
 4888SOL     OW19317   3.286   2.088   2.343  0.0409  0.1336 -0.7230
 4888SOL    HW219318   3.298   2.140   2.422  0.0893 -0.2077 -0.5061
 4888SOL    HW319319   3.372   2.088   2.301 -0.1301  0.8180 -1.0883
 4888SOL    MW419320   3.298   2.095   2.348  0.0247  0.1789 -0.7426
 4889SOL     OW19321   1.602   0.626   3.518  0.3690 -0.4586 -0.7716
 4889SOL    HW219322   1.625   0.631   3.611 -0.1058 -0.9354 -0.6233
 4889SOL    HW319323   1.677   0.585   3.477  0.8121  0.2503 -0.6892
 4889SOL    MW419324   1.615   0.622   3.525  0.3648 -0.4280 -0.7412
 4890SOL     OW19325   3.206   2.001   4.852 -0.2145 -0.1175  0.4159
 4890SOL    HW219326   3.192   1.907   4.859  0.2935 -0.6005 -3.3800
 4890SOL    HW319327   3.221   2.017   4.759  0.7216  3.6082  1.0420
 4890SOL    MW419328   3.206   1.991   4.841 -0.0240  0.3104 -0.0024
 4891SOL     OW19329   2.436   0.638   1.529  0.2251 -0.1585 -0.0204
 4891SOL    HW219330   2.398   0.553   1.507  0.7856 -0.6542  0.8779
 4891SOL    HW319331   2.465   0.629   1.620 -1.7062  1.7108  0.8622
 4891SOL    MW419332   2.435   0.626   1.538  0.0443  0.0227  0.2145
 4892SOL     OW19333   5.704   6.363   3.904 -0.4008  0.2208 -0.6988
 4892SOL    HW219334   5.797   6.352   3.920 -0.2629  0.9366 -0.9654
 4892SOL    HW319335   5.662   6.337   3.985 -0.0171 -0.8230 -0.8301
 4892SOL    MW419336   5.711   6.358   3.917 -0.3320  0.1775 -0.7513
 4893SOL     OW19337   1.236   6.116   0.925 -0.0533 -0.1142  0.7302
 4893SOL    HW219338   1.314   6.098   0.978 -0.3469  0.2806  1.3027
 4893SOL    HW319339   1.264   6.098   0.835  1.0618  1.1663  0.7839
 4893SOL    MW419340   1.250   6.111   0.920  0.0551  0.1069  0.8128
 4894SOL     OW19341   6.085   2.997   2.329  0.2897 -0.1792 -0.6621
 4894SOL    HW219342   6.081   3.034   2.417  1.2981 -0.6629 -0.3954
 4894SOL    HW319343   5.998   2.959   2.315 -0.1593  0.6630 -0.2266
 4894SOL    MW419344   6.073   2.997   2.339  0.3635 -0.1319 -0.5695
 4895SOL     OW19345   2.256   4.284   0.778 -0.1368 -0.4811 -0.4850
 4895SOL    HW219346   2.200   4.340   0.831  1.4418 -0.1035  0.8445
 4895SOL    HW319347   2.243   4.196   0.814 -0.9243 -0.6504 -1.1304
 4895SOL    MW419348   2.247   4.280   0.789 -0.0324 -0.4536 -0.3947
 4896SOL     OW19349   2.084   3.120   4.584 -0.5106 -0.5316  0.1813
 4896SOL    HW219350   2.146   3.048   4.575 -1.3682 -1.1228 -1.3791
 4896SOL    HW319351   2.117   3.188   4.525  0.1828  0.3272  1.4930
 4896SOL    MW419352   2.096   3.119   4.575 -0.5323 -0.4963  0.1485
 4897SOL     OW19353   3.268   2.936   5.772  0.2724 -0.2317 -0.6076
 4897SOL    HW219354   3.328   2.901   5.707 -0.8265 -0.9294 -1.2764
 4897SOL    HW319355   3.208   2.992   5.722  0.4995  0.6509  0.0840
 4897SOL    MW419356   3.268   2.939   5.757  0.1574 -0.2073 -0.6046
 4898SOL     OW19357   2.994   4.636   1.040  0.7443  0.3969 -0.1196
 4898SOL    HW219358   2.982   4.669   0.951  1.0174  0.4727 -0.1308
 4898SOL    HW319359   3.083   4.602   1.040  0.3549 -0.6395 -0.2012
 4898SOL    MW419360   3.004   4.636   1.028  0.7290  0.2702 -0.1319
 4899SOL     OW19361   5.958   2.720   6.117  0.3153  0.3323  0.2949
 4899SOL    HW219362   6.051   2.743   6.126  0.4842  0.4446 -1.4440
 4899SOL    HW319363   5.957   2.644   6.059 -0.6799  0.1355  0.5474
 4899SOL    MW419364   5.970   2.713   6.111  0.2063  0.3212  0.0988
 4900SOL     OW19365   1.416   5.302   2.283 -0.6425  0.0059 -0.0545
 4900SOL    HW219366   1.332   5.347   2.281 -0.0012  1.3595  1.3509
 4900SOL    HW319367   1.452   5.320   2.370  0.4434 -1.8047 -0.0560
 4900SOL    MW419368   1.410   5.310   2.294 -0.4146 -0.0544  0.1307
 4901SOL     OW19369   1.903   1.679   4.620  0.3092  0.0272  0.2083
 4901SOL    HW219370   1.881   1.709   4.532 -1.1716 -1.3138  0.0712
 4901SOL    HW319371   1.909   1.584   4.612 -2.3901 -0.4174  1.9712
 4901SOL    MW419372   1.901   1.671   4.607 -0.2423 -0.2084  0.4228
 4902SOL     OW19373   3.255   3.141   0.409 -0.1292  0.4739  0.3192
 4902SOL    HW219374   3.204   3.221   0.422 -1.2806 -0.0311 -0.9056
 4902SOL    HW319375   3.286   3.118   0.496  0.3148  2.2907  0.6943
 4902SOL    MW419376   3.252   3.149   0.422 -0.2225  0.6470  0.2071
 4903SOL     OW19377   0.439   4.225   3.806 -0.6427 -0.3401  0.3360
 4903SOL    HW219378   0.387   4.256   3.732  3.0097  1.3300 -1.7497
 4903SOL    HW319379   0.429   4.293   3.873 -0.7062  0.2365 -0.2523
 4903SOL    MW419380   0.430   4.238   3.805 -0.1692 -0.0437 -0.0168
 4904SOL     OW19381   3.022   2.543   3.426  0.4282  0.1604  0.3231
 4904SOL    HW219382   3.013   2.591   3.509  3.1135  1.6298 -0.1113
 4904SOL    HW319383   3.043   2.454   3.452  1.2196  0.5981  1.2573
 4904SOL    MW419384   3.023   2.538   3.440  0.8869  0.4120  0.3891
 4905SOL     OW19385   1.713   1.280   5.643 -0.0991  0.3661 -0.0606
 4905SOL    HW219386   1.801   1.270   5.606 -0.1538  1.9861 -0.7371
 4905SOL    HW319387   1.720   1.248   5.732  1.3817  1.1183  0.1299
 4905SOL    MW419388   1.725   1.275   5.650  0.0890  0.6791 -0.1247
 4906SOL     OW19389   6.333   1.068   2.100  0.0317 -0.2253  0.2563
 4906SOL    HW219390   6.240   1.084   2.084  0.4038 -0.0209 -2.0690
 4906SOL    HW319391   6.374   1.154   2.087  0.7477 -0.7013 -0.7804
 4906SOL    MW419392   6.326   1.082   2.096  0.1752 -0.2611 -0.1873
 4907SOL     OW19393   2.405   1.227   5.760  0.7166 -0.1695  0.1005
 4907SOL    HW219394   2.490   1.236   5.803 -0.0603 -0.3010  1.7740
 4907SOL    HW319395   2.366   1.150   5.802 -0.6173  0.4770  0.0963
 4907SOL    MW419396   2.411   1.218   5.771  0.4381 -0.1015  0.3207
 4908SOL     OW19397   1.505   1.193   2.515 -0.2139  0.3111  0.5960
 4908SOL    HW219398   1.561   1.237   2.580 -0.5382 -0.0271  1.1074
 4908SOL    HW319399   1.441   1.260   2.490  0.7803  0.9061 -0.4606
 4908SOL    MW419400   1.504   1.208   2.520 -0.1255  0.3450  0.5240
 4909SOL     OW19401   3.463   4.922   2.912 -0.2811  0.2156  0.0614
 4909SOL    HW219402   3.438   5.006   2.873 -1.0145  1.3170  2.6429
 4909SOL    HW319403   3.559   4.927   2.919 -0.3445  0.9960  0.4716
 4909SOL    MW419404   3.472   4.934   2.908 -0.3862  0.4639  0.4561
 4910SOL     OW19405   1.408   5.796   5.447 -0.4377  0.0562 -0.4069
 4910SOL    HW219406   1.497   5.776   5.418  0.0520  1.0185  0.3617
 4910SOL    HW319407   1.389   5.882   5.410 -0.1169  0.9335  1.3308
 4910SOL    MW419408   1.417   5.805   5.438 -0.3308  0.2989 -0.0762
 4911SOL     OW19409   2.698   1.939   0.120 -0.2469 -0.1482  0.5214
 4911SOL    HW219410   2.703   1.851   0.157 -1.5472 -0.4797 -0.0155
 4911SOL    HW319411   2.773   1.945   0.062 -0.0502 -0.8544  0.6885
 4911SOL    MW419412   2.708   1.928   0.117 -0.3925 -0.2851  0.4726
 4912SOL     OW19413   5.128   4.862   3.302 -0.8693  0.0575  0.0879
 4912SOL    HW219414   5.097   4.778   3.335 -2.1880  0.7104  0.5804
 4912SOL    HW319415   5.220   4.866   3.328 -0.2374 -2.0323 -1.5972
 4912SOL    MW419416   5.136   4.851   3.310 -0.9599 -0.1321 -0.0694
 4913SOL     OW19417   1.527   4.645   1.628  0.1331  0.5072  0.5626
 4913SOL    HW219418   1.562   4.715   1.574  2.0391  0.3119  1.4596
 4913SOL    HW319419   1.459   4.688   1.681  0.9475  1.5775  0.7768
 4913SOL    MW419420   1.522   4.660   1.628  0.4920  0.6227  0.7092
 4914SOL     OW19421   6.168   4.768   0.556  0.7716 -0.0115 -0.0661
 4914SOL    HW219422   6.216   4.819   0.621  1.3092 -0.4908 -0.0789
 4914SOL    HW319423   6.219   4.688   0.545 -1.3307 -1.7201  1.7613
 4914SOL    MW419424   6.181   4.764   0.563  0.5651 -0.3002  0.1733
 4915SOL     OW19425   4.931   1.099   4.814  0.6568 -0.5056  0.0898
 4915SOL    HW219426   5.012   1.053   4.790  0.3544 -0.9110 -0.1710
 4915SOL    HW319427   4.862   1.038   4.791  0.1113  0.8454 -2.1649
 4915SOL    MW419428   4.933   1.085   4.808  0.5449 -0.3808 -0.2421
 4916SOL     OW19429   2.507   3.902   2.439 -0.2476 -0.2830 -0.1537
 4916SOL    HW219430   2.594   3.909   2.399 -0.3826  3.3225 -0.1602
 4916SOL    HW319431   2.447   3.930   2.370 -0.9119  1.4996  1.0648
 4916SOL    MW419432   2.511   3.907   2.424 -0.3530  0.4279  0.0062
 4917SOL     OW19433   6.380   3.902   4.831 -0.0040 -0.1019  0.3881
 4917SOL    HW219434   6.454   3.930   4.885 -0.7861  1.1772  0.8481
 4917SOL    HW319435   6.420   3.851   4.760  1.2579  0.1226  0.9078
 4917SOL    MW419436   6.395   3.899   4.828  0.0593  0.0965  0.5173
 4918SOL     OW19437   1.563   2.977   3.560 -0.0065 -0.0488  0.2641
 4918SOL    HW219438   1.567   3.073   3.568 -0.1577 -0.1536  1.9108
 4918SOL    HW319439   1.470   2.958   3.555  0.0314 -0.1078 -0.2812
 4918SOL    MW419440   1.551   2.987   3.561 -0.0214 -0.0704  0.4094
 4919SOL     OW19441   4.223   1.791   2.407  0.3246  0.5204  0.0881
 4919SOL    HW219442   4.292   1.731   2.380  0.1444  0.2128  0.3027
 4919SOL    HW319443   4.159   1.735   2.451 -0.8165  0.5457 -1.4648
 4919SOL    MW419444   4.223   1.775   2.410  0.1503  0.4831 -0.0885
 4920SOL     OW19445   1.297   2.562   5.126  0.1283  0.2039 -0.3980
 4920SOL    HW219446   1.261   2.582   5.040  1.4947  0.6066 -0.9099
 4920SOL    HW319447   1.318   2.647   5.164  0.6778 -0.0119 -0.2001
 4920SOL    MW419448   1.295   2.576   5.119  0.3811  0.2286 -0.4395
 4921SOL     OW19449   2.495   0.689   3.534  0.0931  0.1172 -0.4276
 4921SOL    HW219450   2.483   0.616   3.595 -0.3590 -1.0210 -1.8326
 4921SOL    HW319451   2.421   0.747   3.551 -0.1190 -0.2736 -0.0096
 4921SOL    MW419452   2.484   0.687   3.544  0.0055 -0.0845 -0.5578
 4922SOL     OW19453   1.354   4.028   2.650  0.3616  0.1132 -0.2930
 4922SOL    HW219454   1.299   4.022   2.728  1.1923 -1.4426  0.2200
 4922SOL    HW319455   1.360   3.938   2.618  2.1938  0.3024 -0.6031
 4922SOL    MW419456   1.348   4.015   2.656  0.7130 -0.0671 -0.2662
 4923SOL     OW19457   5.884   3.385   1.673 -0.1824  0.2119 -0.7638
 4923SOL    HW219458   5.909   3.331   1.599 -1.0876 -1.2143 -0.0781
 4923SOL    HW319459   5.866   3.471   1.636 -0.1594 -0.3508 -2.1165
 4923SOL    MW419460   5.885   3.389   1.658 -0.2988 -0.0505 -0.8518
 4924SOL     OW19461   1.143   5.365   2.251  0.3428 -0.2207 -0.2380
 4924SOL    HW219462   1.154   5.449   2.207  0.3791 -0.0032  0.1808
 4924SOL    HW319463   1.064   5.377   2.305  0.7549 -0.2118  0.3733
 4924SOL    MW419464   1.134   5.378   2.252  0.4020 -0.1909 -0.1021
 4925SOL     OW19465   4.204   0.923   1.585  0.6561  0.3531 -0.5451
 4925SOL    HW219466   4.248   0.852   1.631 -0.0462  0.4591  0.3093
 4925SOL    HW319467   4.254   1.001   1.609  1.5049  0.1604 -1.5841
 4925SOL    MW419468   4.217   0.924   1.594  0.6754  0.3417 -0.5695
 4926SOL     OW19469   2.583   3.404   5.316  0.2724  0.5340  0.1330
 4926SOL    HW219470   2.671   3.383   5.282  0.1185 -1.1580  0.6649
 4926SOL    HW319471   2.597   3.418   5.410 -0.0181  0.2976  0.2125
 4926SOL    MW419472   2.597   3.403   5.324  0.2138  0.2796  0.2137
 4927SOL     OW19473   4.956   1.025   0.280 -0.1625 -0.3351 -0.1231
 4927SOL    HW219474   4.969   1.103   0.334 -1.4913 -0.9089  1.0866
 4927SOL    HW319475   4.960   0.952   0.343  1.3800 -1.3011 -1.2708
 4927SOL    MW419476   4.958   1.026   0.296 -0.1343 -0.5382 -0.1149
 4928SOL     OW19477   1.230   2.652   2.119  0.2847  0.0063  0.3996
 4928SOL    HW219478   1.151   2.689   2.159 -1.0108  1.8666 -3.3487
 4928SOL    HW319479   1.199   2.573   2.075  0.8593 -0.1421  0.2583
 4928SOL    MW419480   1.215   2.647   2.119  0.1896  0.2322 -0.1136
 4929SOL     OW19481   2.660   4.402   4.835 -0.2154 -0.0630 -0.1168
 4929SOL    HW219482   2.672   4.491   4.869 -1.2699 -0.6832  1.9829
 4929SOL    HW319483   2.724   4.349   4.883 -0.6565 -0.7035 -0.2241
 4929SOL    MW419484   2.670   4.407   4.845 -0.4127 -0.2293  0.1460
 4930SOL     OW19485   2.286   0.616   0.936 -0.3711 -0.1107 -0.1774
 4930SOL    HW219486   2.200   0.640   0.901 -0.7477 -1.9402 -0.6475
 4930SOL    HW319487   2.288   0.520   0.929  2.0613 -0.0649 -0.9825
 4930SOL    MW419488   2.275   0.606   0.931 -0.0999 -0.3461 -0.3456
 4931SOL     OW19489   5.048   4.797   3.651  0.1581 -0.3867  0.5494
 4931SOL    HW219490   5.066   4.757   3.566 -1.3877  0.2177 -0.1157
 4931SOL    HW319491   5.017   4.725   3.706  0.9623 -0.7436  0.5402
 4931SOL    MW419492   5.046   4.782   3.647  0.0603 -0.3540  0.4605
 4932SOL     OW19493   5.664   6.162   0.496 -0.1387 -0.4259  0.3917
 4932SOL    HW219494   5.736   6.127   0.444  0.5916  1.4697  0.0724
 4932SOL    HW319495   5.666   6.111   0.577  0.0437 -1.9776 -0.5566
 4932SOL    MW419496   5.673   6.151   0.500 -0.0183 -0.3805  0.2245
 4933SOL     OW19497   1.475   3.793   2.973  0.0398  0.4953  0.2057
 4933SOL    HW219498   1.496   3.788   3.066  0.0520 -0.5183  0.1619
 4933SOL    HW319499   1.541   3.853   2.937  0.5245  0.2769  0.7141
 4933SOL    MW419500   1.487   3.800   2.980  0.1053  0.3328  0.2670
 4934SOL     OW19501   2.917   4.976   2.550  0.2664 -0.5845  0.2022
 4934SOL    HW219502   2.860   4.907   2.584 -1.1188  1.1803  1.6594
 4934SOL    HW319503   2.902   4.974   2.455 -3.1321  0.4369  0.5680
 4934SOL    MW419504   2.907   4.967   2.542 -0.3647 -0.2169  0.4427
 4935SOL     OW19505   6.269   2.233   6.109 -0.2253 -0.5787 -0.4519
 4935SOL    HW219506   6.212   2.174   6.059 -0.4785 -0.1068 -0.7302
 4935SOL    HW319507   6.343   2.249   6.051  0.5370 -1.7109  0.1617
 4935SOL    MW419508   6.272   2.227   6.095 -0.1581 -0.6658 -0.4076
 4936SOL     OW19509   2.476   3.470   5.789 -1.0879 -0.2063  0.1943
 4936SOL    HW219510   2.387   3.502   5.777 -0.2012  2.2877 -0.3274
 4936SOL    HW319511   2.518   3.483   5.704 -0.5832 -2.7873 -0.0281
 4936SOL    MW419512   2.470   3.476   5.776 -0.9043 -0.2177  0.0961
 4937SOL     OW19513   3.349   2.173   1.895 -0.1322 -0.3792  0.3133
 4937SOL    HW219514   3.392   2.137   1.973 -1.6640 -1.5481  0.6664
 4937SOL    HW319515   3.358   2.104   1.829 -0.9458 -0.4087  0.2213
 4937SOL    MW419516   3.356   2.159   1.897 -0.4417 -0.5373  0.3478
 4938SOL     OW19517   0.119   2.577   2.317 -0.0507  0.0656  0.0856
 4938SOL    HW219518   0.037   2.529   2.306  1.0832 -1.6590 -1.5960
 4938SOL    HW319519   0.144   2.561   2.408 -2.4972  2.3482  1.3006
 4938SOL    MW419520   0.112   2.568   2.327 -0.2239  0.1392  0.0240
 4939SOL     OW19521   2.596   6.316   5.261  0.2869  0.2655 -0.1305
 4939SOL    HW219522   2.605   6.239   5.319 -1.2251 -0.6830 -1.0864
 4939SOL    HW319523   2.686   6.335   5.234  0.5969 -2.1615 -1.0968
 4939SOL    MW419524   2.609   6.308   5.265  0.1283 -0.1799 -0.3841
 4940SOL     OW19525   5.273   3.778   0.088 -0.3339  0.5371 -0.1874
 4940SOL    HW219526   5.206   3.718   0.056  2.0562 -2.9304  0.7392
 4940SOL    HW319527   5.314   3.732   0.161  1.0504  3.8212  1.3094
 4940SOL    MW419528   5.270   3.764   0.094  0.1641  0.5129  0.1323
 4941SOL     OW19529   5.514   3.571   0.681  0.2086 -0.0945 -1.1452
 4941SOL    HW219530   5.608   3.562   0.668  0.4028 -0.6204  0.4636
 4941SOL    HW319531   5.488   3.493   0.730 -0.9044  0.4537 -0.8092
 4941SOL    MW419532   5.523   3.560   0.686  0.0874 -0.0915 -0.8886
 4942SOL     OW19533   6.271   2.723   0.680  0.4716 -0.0077  0.0454
 4942SOL    HW219534   6.351   2.676   0.705  0.4641 -0.3040 -0.4734
 4942SOL    HW319535   6.201   2.659   0.689  0.0825  0.6072  1.7606
 4942SOL    MW419536   6.272   2.709   0.685  0.4193  0.0343  0.2032
 4943SOL     OW19537   5.642   0.158   0.895 -0.0277  0.6369 -0.5957
 4943SOL    HW219538   5.689   0.075   0.894  0.3958  0.8634 -0.0992
 4943SOL    HW319539   5.580   0.149   0.967 -0.2545  0.6067 -0.7937
 4943SOL    MW419540   5.640   0.146   0.904 -0.0018  0.6628 -0.5564
 4944SOL     OW19541   6.120   2.262   4.786  0.7958 -0.5346  0.3632
 4944SOL    HW219542   6.109   2.335   4.848  1.5345 -0.1127  0.0207
 4944SOL    HW319543   6.173   2.198   4.834  0.5140 -0.6620  0.5112
 4944SOL    MW419544   6.126   2.264   4.801  0.8561 -0.4957  0.3375
 4945SOL     OW19545   1.759   0.304   0.587 -0.0783  0.0932  0.2075
 4945SOL    HW219546   1.766   0.248   0.664  0.1869  1.6552  1.3579
 4945SOL    HW319547   1.821   0.375   0.603 -0.7150  0.9542 -1.0133
 4945SOL    MW419548   1.768   0.306   0.599 -0.1273  0.4129  0.1982
 4946SOL     OW19549   2.036   0.074   3.404  0.8556  0.2702  0.3085
 4946SOL    HW219550   2.003   0.142   3.345  0.7177  0.3833  0.5128
 4946SOL    HW319551   1.997   0.096   3.489  0.9863  0.0613  0.4220
 4946SOL    MW419552   2.026   0.086   3.407  0.8546  0.2576  0.3504
 4947SOL     OW19553   1.468   6.405   1.613  0.2435  0.0029  0.0887
 4947SOL    HW219554   1.444   6.376   1.701 -0.1340  0.3150  0.0885
 4947SOL    HW319555   1.550   6.359   1.595  0.1327 -0.3484  0.4582
 4947SOL    MW419556   1.475   6.395   1.622  0.1791 -0.0023  0.1374
 4948SOL     OW19557   1.371   0.978   3.830  0.4447 -0.1907 -0.7751
 4948SOL    HW219558   1.315   1.043   3.872  0.5731  0.2461 -1.2609
 4948SOL    HW319559   1.422   0.940   3.902  1.7249  1.5804 -0.6549
 4948SOL    MW419560   1.371   0.982   3.845  0.6306  0.1006 -0.8233
 4949SOL     OW19561   4.128   1.322   6.284  0.1436 -0.2849 -0.2469
 4949SOL    HW219562   4.085   1.314   6.369  1.2309 -0.2041  0.3378
 4949SOL    HW319563   4.122   1.235   6.245  4.0985 -1.9792  2.1877
 4949SOL    MW419564   4.122   1.310   6.290  0.8089 -0.4978  0.1515
 4950SOL     OW19565   5.762   1.117   2.679  0.4430  0.0299 -0.1417
 4950SOL    HW219566   5.746   1.051   2.613 -2.1608 -0.4702  0.8586
 4950SOL    HW319567   5.833   1.081   2.733  0.3920 -1.0359 -0.7628
 4950SOL    MW419568   5.769   1.104   2.678  0.0928 -0.1767 -0.0917
 4951SOL     OW19569   6.082   1.342   5.163 -0.1700 -0.0145  0.3003
 4951SOL    HW219570   6.006   1.338   5.221 -2.2295  2.5533 -1.8950
 4951SOL    HW319571   6.055   1.295   5.084 -0.4851  2.6177 -1.3215
 4951SOL    MW419572   6.068   1.336   5.160 -0.4833  0.6716 -0.2034
 4952SOL     OW19573   0.332   6.186   5.270 -0.1072 -0.5419  0.3052
 4952SOL    HW219574   0.252   6.225   5.235  0.6500  0.3242 -0.5317
 4952SOL    HW319575   0.398   6.205   5.203  0.8913 -0.8691  1.1805
 4952SOL    MW419576   0.330   6.194   5.256  0.1244 -0.4708  0.3102
 4953SOL     OW19577   0.280   6.319   2.251 -0.3426 -0.4564  0.8266
 4953SOL    HW219578   0.350   6.291   2.191 -0.2509  1.1169  0.1591
 4953SOL    HW319579   0.323   6.380   2.311 -0.8730 -0.4815  1.2363
 4953SOL    MW419580   0.295   6.323   2.251 -0.4005 -0.2522  0.7926
 4954SOL     OW19581   3.220   5.302   6.389 -0.4672  0.2130 -0.4287
 4954SOL    HW219582   3.286   5.249   6.435  0.1845  0.2336 -1.3231
 4954SOL    HW319583   3.269   5.378   6.357 -1.4196  1.5246  1.0351
 4954SOL    MW419584   3.235   5.305   6.391 -0.5069  0.3888 -0.3536
 4955SOL     OW19585   4.204   5.771   4.417 -0.3777 -0.4937  0.0892
 4955SOL    HW219586   4.211   5.685   4.376  1.5871 -0.1306 -0.4043
 4955SOL    HW319587   4.286   5.782   4.465 -0.2547  1.4011 -0.4810
 4955SOL    MW419588   4.216   5.761   4.418 -0.1023 -0.1958 -0.0512
 4956SOL     OW19589   1.512   3.762   4.065  1.0245  0.5692  0.8196
 4956SOL    HW219590   1.576   3.736   4.131  1.0120 -0.9903  0.2619
 4956SOL    HW319591   1.476   3.679   4.033  0.0975  1.3467 -0.2187
 4956SOL    MW419592   1.516   3.747   4.070  0.9005  0.4660  0.6090
 4957SOL     OW19593   3.455   2.789   6.172  0.2180  0.0292 -0.4314
 4957SOL    HW219594   3.446   2.876   6.134 -1.1540  0.9570  1.8549
 4957SOL    HW319595   3.520   2.799   6.242  1.5428 -1.2823 -1.3944
 4957SOL    MW419596   3.462   2.802   6.176  0.2118 -0.0214 -0.2568
 4958SOL     OW19597   5.666   4.325   5.838 -0.3189 -0.2716  0.2616
 4958SOL    HW219598   5.727   4.269   5.886  0.0813  1.1477  1.4671
 4958SOL    HW319599   5.687   4.309   5.746  0.1253 -1.6960  0.5807
 4958SOL    MW419600   5.677   4.316   5.832 -0.2075 -0.2723  0.4628
 4959SOL     OW19601   3.850   5.201   2.769 -0.1477  0.1300  0.0403
 4959SOL    HW219602   3.835   5.162   2.855 -1.1994  0.8199  0.1896
 4959SOL    HW319603   3.845   5.295   2.785  1.1996  0.3116 -0.5160
 4959SOL    MW419604   3.847   5.208   2.783 -0.1087  0.2450 -0.0134
 4960SOL     OW19605   4.739   0.892   0.548 -0.5538 -0.2999  0.2306
 4960SOL    HW219606   4.738   0.863   0.457 -1.4649 -0.6671  0.3452
 4960SOL    HW319607   4.650   0.924   0.564 -0.0307  1.0645  0.5860
 4960SOL    MW419608   4.727   0.893   0.538 -0.6050 -0.1683  0.2926
 4961SOL     OW19609   2.131   4.432   2.329  0.3307 -0.0164 -0.1797
 4961SOL    HW219610   2.037   4.418   2.333  0.4341 -0.8994 -0.6705
 4961SOL    HW319611   2.165   4.397   2.412  0.3431 -0.6968 -0.4682
 4961SOL    MW419612   2.123   4.426   2.341  0.3460 -0.2227 -0.2825
 4962SOL     OW19613   2.453   3.474   2.843  0.0010 -0.0548 -0.3603
 4962SOL    HW219614   2.534   3.523   2.831  0.0003 -0.5161 -2.6324
 4962SOL    HW319615   2.468   3.422   2.922  1.5722  0.4967 -0.2634
 4962SOL    MW419616   2.466   3.474   2.852  0.2082 -0.0429 -0.6473
 4963SOL     OW19617   0.202   3.970   6.003  0.3253  0.4296  0.0632
 4963SOL    HW219618   0.272   4.025   6.038 -0.3714  1.0888  0.4240
 4963SOL    HW319619   0.240   3.882   6.000 -0.2708 -0.2029  4.6893
 4963SOL    MW419620   0.216   3.965   6.007  0.1547  0.4331  0.7212
 4964SOL     OW19621   4.837   0.580   1.128  0.0415 -0.2778  0.6731
 4964SOL    HW219622   4.853   0.515   1.060 -1.2422 -0.4863  0.5457
 4964SOL    HW319623   4.852   0.664   1.085  1.6984 -0.4471  0.8354
 4964SOL    MW419624   4.841   0.582   1.113  0.0908 -0.3277  0.6777
 4965SOL     OW19625   4.036   5.991   2.849  0.4055 -0.3222  0.6874
 4965SOL    HW219626   4.088   6.072   2.851  0.1132 -0.1068 -0.2090
 4965SOL    HW319627   3.996   5.990   2.762 -2.2959  0.2575  1.8323
 4965SOL    MW419628   4.038   6.001   2.838  0.0105 -0.2173  0.7202
 4966SOL     OW19629   1.967   1.065   1.308  0.4395  0.6819 -0.2622
 4966SOL    HW219630   2.007   0.980   1.328  1.3522  0.7559 -1.6844
 4966SOL    HW319631   1.943   1.059   1.216 -1.4523  1.2188  0.1529
 4966SOL    MW419632   1.969   1.053   1.299  0.3103  0.7625 -0.3950
 4967SOL     OW19633   3.541   0.103   4.262  0.3419 -0.5616 -0.0902
 4967SOL    HW219634   3.457   0.118   4.218  1.1986  0.5813 -1.3829
 4967SOL    HW319635   3.561   0.187   4.304  2.3538  0.2715 -2.4933
 4967SOL    MW419636   3.532   0.116   4.262  0.7204 -0.3009 -0.5778
 4968SOL     OW19637   5.764   0.408   0.926  0.3607  0.4544  0.5663
 4968SOL    HW219638   5.680   0.453   0.911  0.2917  0.3624  0.6708
 4968SOL    HW319639   5.741   0.315   0.929  0.7243  0.2877 -1.1812
 4968SOL    MW419640   5.750   0.402   0.925  0.3996  0.4203  0.3495
 4969SOL     OW19641   6.000   0.536   3.269 -0.2618  0.0088  0.1758
 4969SOL    HW219642   6.069   0.485   3.312  0.2335 -0.6471 -1.3374
 4969SOL    HW319643   6.047   0.601   3.218 -0.7819 -0.0586 -0.3984
 4969SOL    MW419644   6.015   0.538   3.268 -0.2650 -0.0866 -0.0996
 4970SOL     OW19645   6.086   0.429   3.616 -0.1445 -0.2264  0.4867
 4970SOL    HW219646   6.109   0.374   3.691  0.4109  0.0478  0.5223
 4970SOL    HW319647   6.022   0.491   3.651  0.4716  0.2115  0.8647
 4970SOL    MW419648   6.081   0.430   3.630  0.0101 -0.1325  0.5412
 4971SOL     OW19649   4.923   3.357   5.477 -0.2369 -0.0174  0.4196
 4971SOL    HW219650   5.008   3.389   5.447 -1.0783  0.7067 -1.3154
 4971SOL    HW319651   4.939   3.266   5.503  0.5926 -0.6780 -2.1850
 4971SOL    MW419652   4.936   3.349   5.477 -0.2385 -0.0090 -0.1530
 4972SOL     OW19653   0.288   1.592   6.146  0.2673  0.6306  0.3408
 4972SOL    HW219654   0.270   1.630   6.232  0.0425  0.2469  0.4657
 4972SOL    HW319655   0.362   1.642   6.112  0.5669  0.5685  0.8974
 4972SOL    MW419656   0.295   1.604   6.153  0.2772  0.5718  0.4307
 4973SOL     OW19657   2.767   2.528   6.277 -0.9823 -0.0550  0.8485
 4973SOL    HW219658   2.763   2.567   6.189  1.1222 -0.3131  0.5893
 4973SOL    HW319659   2.677   2.500   6.294 -2.1257  2.7340  0.0700
 4973SOL    MW419660   2.754   2.529   6.267 -0.8555  0.2789  0.7116
 4974SOL     OW19661   4.737   2.080   0.567  0.0398  0.1039  0.0235
 4974SOL    HW219662   4.828   2.069   0.539  0.1880  0.0959  0.5110
 4974SOL    HW319663   4.710   1.994   0.597 -1.0404 -0.6435 -2.7253
 4974SOL    MW419664   4.745   2.067   0.567 -0.0832  0.0042 -0.2749
 4975SOL     OW19665   5.229   5.166   1.494 -0.0713 -0.5591 -0.3408
 4975SOL    HW219666   5.190   5.106   1.558  1.1065 -1.0998 -0.1061
 4975SOL    HW319667   5.270   5.234   1.548 -0.0418 -0.4053 -0.5588
 4975SOL    MW419668   5.229   5.167   1.510  0.0880 -0.6102 -0.3386
 4976SOL     OW19669   0.144   1.413   4.073 -0.1984  0.4524 -0.1039
 4976SOL    HW219670   0.209   1.451   4.132  0.2804 -0.0980 -0.2644
 4976SOL    HW319671   0.181   1.424   3.985  0.0934 -0.6146 -0.1367
 4976SOL    MW419672   0.157   1.419   4.069 -0.0967  0.2390 -0.1294
 4977SOL     OW19673   0.850   0.208   1.618  0.1687  0.1599 -0.0497
 4977SOL    HW219674   0.863   0.148   1.691  0.6277  0.9940  0.5735
 4977SOL    HW319675   0.929   0.198   1.564 -0.4470 -0.9066 -0.7765
 4977SOL    MW419676   0.862   0.199   1.620  0.1480  0.1292 -0.0634
 4978SOL     OW19677   0.491   3.003   1.418  0.4894 -0.1372 -0.0972
 4978SOL    HW219678   0.486   3.097   1.400  1.1177 -0.1310 -0.2368
 4978SOL    HW319679   0.406   2.969   1.390  1.6003 -0.2497 -3.8516
 4978SOL    MW419680   0.479   3.011   1.412  0.7188 -0.1512 -0.6109
 4979SOL     OW19681   4.998   2.419   4.729 -0.0010  0.1063 -0.1468
 4979SOL    HW219682   4.951   2.380   4.802  1.5130 -0.0420  0.8096
 4979SOL    HW319683   5.065   2.474   4.770  1.5489 -0.7601 -1.3522
 4979SOL    MW419684   5.001   2.421   4.744  0.4033 -0.0276 -0.1797
 4980SOL     OW19685   5.279   0.107   2.247 -0.1042  0.1357 -0.1732
 4980SOL    HW219686   5.247   0.085   2.334 -0.1042  0.4294 -0.0971
 4980SOL    HW319687   5.221   0.061   2.187 -0.2298  0.0981 -0.0228
 4980SOL    MW419688   5.267   0.098   2.251 -0.1208  0.1695 -0.1433
 4981SOL     OW19689   5.514   0.540   0.075 -0.0163  0.2019  0.0025
 4981SOL    HW219690   5.500   0.454   0.034 -0.8319  1.7835 -3.4219
 4981SOL    HW319691   5.575   0.523   0.147  0.0590 -3.1957 -0.7052
 4981SOL    MW419692   5.521   0.526   0.079 -0.1139 -0.0377 -0.5427
 4982SOL     OW19693   3.739   1.259   4.370  0.0462  0.1983 -0.2721
 4982SOL    HW219694   3.718   1.166   4.383  0.8359 -0.2091 -1.7052
 4982SOL    HW319695   3.688   1.304   4.436 -2.0170 -1.0891 -0.8972
 4982SOL    MW419696   3.730   1.252   4.380 -0.1218 -0.0253 -0.5437
 4983SOL     OW19697   2.924   0.813   2.770 -0.0072  0.2837  0.4055
 4983SOL    HW219698   3.008   0.849   2.741 -1.1862  1.7867 -1.4279
 4983SOL    HW319699   2.929   0.814   2.865  2.4074 -0.6245  0.3712
 4983SOL    MW419700   2.936   0.818   2.779  0.1558  0.3622  0.1591
 4984SOL     OW19701   3.840   4.750   0.594 -0.4213 -0.3638 -0.1243
 4984SOL    HW219702   3.795   4.729   0.513  1.0099 -0.3106 -0.9822
 4984SOL    HW319703   3.927   4.712   0.583  0.2978  0.9496  0.7365
 4984SOL    MW419704   3.846   4.742   0.582 -0.1376 -0.1835 -0.1239
 4985SOL     OW19705   0.961   4.971   4.345 -0.3245  0.8866  0.1296
 4985SOL    HW219706   0.990   5.016   4.424 -0.4567 -0.6063  1.0598
 4985SOL    HW319707   0.987   5.029   4.273 -1.6056  3.0463  1.3011
 4985SOL    MW419708   0.968   4.985   4.346 -0.5110  0.9746  0.4069
 4986SOL     OW19709   1.234   0.586   6.148 -0.5692 -0.2682  0.0189
 4986SOL    HW219710   1.160   0.643   6.125  1.0200  1.4437 -1.1829
 4986SOL    HW319711   1.276   0.629   6.222  0.7248  0.2670 -0.9768
 4986SOL    MW419712   1.230   0.599   6.155 -0.1888  0.0283 -0.2711
 4987SOL     OW19713   3.150   4.608   4.762 -0.3029 -0.2604 -0.1651
 4987SOL    HW219714   3.120   4.549   4.830  0.5428 -0.9564 -0.3832
 4987SOL    HW319715   3.221   4.658   4.802 -1.8026  1.5362  0.4176
 4987SOL    MW419716   3.155   4.607   4.776 -0.3892 -0.1152 -0.1170
 4988SOL     OW19717   5.474   3.826   0.408 -0.5539 -0.0366  0.0923
 4988SOL    HW219718   5.544   3.836   0.472  1.2802  0.8468 -1.9224
 4988SOL    HW319719   5.496   3.747   0.360 -2.4853 -1.2855  1.1126
 4988SOL    MW419720   5.486   3.817   0.410 -0.5667 -0.0848 -0.0389
 4989SOL     OW19721   5.560   2.445   1.754 -0.3336  0.3841  0.5519
 4989SOL    HW219722   5.467   2.456   1.736 -0.5023 -1.8303 -0.2479
 4989SOL    HW319723   5.567   2.358   1.794  1.5029 -0.0447 -0.5874
 4989SOL    MW419724   5.549   2.435   1.757 -0.1135  0.0354  0.2961
 4990SOL     OW19725   4.182   3.555   4.143  0.1175  0.1476  0.2650
 4990SOL    HW219726   4.186   3.484   4.207  1.9617 -0.3672 -0.3680
 4990SOL    HW319727   4.137   3.626   4.189 -0.7973 -1.0328  1.2736
 4990SOL    MW419728   4.176   3.555   4.157  0.2401 -0.0761  0.3146
 4991SOL     OW19729   4.568   1.920   6.250  0.3797 -0.4124 -0.9750
 4991SOL    HW219730   4.494   1.956   6.201 -0.9804 -2.8446 -0.8940
 4991SOL    HW319731   4.588   1.986   6.316 -1.3918  0.5423 -1.3324
 4991SOL    MW419732   4.561   1.933   6.252 -0.0335 -0.6073 -1.0115
 4992SOL     OW19733   4.431   6.431   6.023  0.1334 -0.1483 -0.2727
 4992SOL    HW219734   4.454   6.520   5.998 -0.1808 -0.1860 -0.7157
 4992SOL    HW319735   4.509   6.379   6.003 -0.0350 -0.1404 -0.9794
 4992SOL    MW419736   4.444   6.436   6.017  0.0697 -0.1522 -0.4244
 4993SOL     OW19737   2.399   6.438   3.980 -0.1640  0.0840 -0.6462
 4993SOL    HW219738   2.445   6.359   3.953  0.0008 -0.1545  0.2890
 4993SOL    HW319739   2.324   6.444   3.920 -1.2538 -1.8286  0.4265
 4993SOL    MW419740   2.395   6.428   3.968 -0.2860 -0.1998 -0.3813
 4994SOL     OW19741   1.262   3.520   2.790 -0.2318  0.5790 -0.2601
 4994SOL    HW219742   1.183   3.466   2.787  0.5687 -0.5954 -2.4887
 4994SOL    HW319743   1.323   3.469   2.844 -0.2700  0.3787 -0.4027
 4994SOL    MW419744   1.260   3.506   2.797 -0.1312  0.3977 -0.5729
 4995SOL     OW19745   1.979   2.269   2.349 -0.2059  0.5868 -0.7851
 4995SOL    HW219746   2.043   2.272   2.420 -0.8881  0.1726 -0.1471
 4995SOL    HW319747   1.923   2.345   2.363  0.1015  0.9117 -1.3041
 4995SOL    MW419748   1.980   2.279   2.360 -0.2554  0.5750 -0.7694
 4996SOL     OW19749   2.725   0.849   1.704 -0.6361 -0.4502  0.0086
 4996SOL    HW219750   2.812   0.820   1.732 -0.8547 -0.6403  0.5058
 4996SOL    HW319751   2.664   0.800   1.760 -1.0406  0.2081  0.1620
 4996SOL    MW419752   2.729   0.838   1.715 -0.7183 -0.3884  0.0945
 4997SOL     OW19753   2.076   4.597   1.339 -0.0099  0.4608 -0.1534
 4997SOL    HW219754   2.155   4.607   1.391  1.9957 -0.2943 -2.8106
 4997SOL    HW319755   2.067   4.502   1.327  0.0127  0.6206 -1.6742
 4997SOL    MW419756   2.085   4.586   1.344  0.2577  0.3822 -0.7046
 4998SOL     OW19757   0.333   2.850   4.198 -0.7722  0.0053 -0.4093
 4998SOL    HW219758   0.425   2.855   4.175 -0.4237 -1.0869  0.6271
 4998SOL    HW319759   0.319   2.758   4.221 -2.0318  0.2312 -0.1807
 4998SOL    MW419760   0.343   2.839   4.198 -0.8924 -0.1090 -0.2424
 4999SOL     OW19761   2.605   2.510   0.984  0.5902 -0.5827 -0.7709
 4999SOL    HW219762   2.554   2.524   0.904  1.1468 -2.8189 -1.6070
 4999SOL    HW319763   2.690   2.479   0.953  0.9467 -1.1442  0.6804
 4999SOL    MW419764   2.610   2.507   0.969  0.7106 -0.9518 -0.6897
 5000SOL     OW19765   1.427   2.650   3.737 -0.2120  0.6888  0.0275
 5000SOL    HW219766   1.355   2.700   3.775  1.7793  1.3761  3.1845
 5000SOL    HW319767   1.499   2.712   3.729  0.8625 -0.5722 -0.5496
 5000SOL    MW419768   1.427   2.665   3.741  0.1925  0.6131  0.3679
 5001SOL     OW19769   0.492   2.563   4.196 -0.1567 -0.1999 -0.3360
 5001SOL    HW219770   0.553   2.552   4.123 -0.7123 -0.1806 -0.8176
 5001SOL    HW319771   0.419   2.505   4.174 -1.9921  2.3889 -1.6500
 5001SOL    MW419772   0.490   2.554   4.183 -0.4722  0.1442 -0.5729
 5002SOL     OW19773   4.804   2.533   2.218 -0.1312  0.1142  0.3300
 5002SOL    HW219774   4.790   2.438   2.226  0.6979 -0.0757 -0.3728
 5002SOL    HW319775   4.860   2.543   2.142 -1.0556  1.2597 -0.2368
 5002SOL    MW419776   4.810   2.522   2.209 -0.1438  0.2403  0.1625
 5003SOL     OW19777   1.393   3.554   6.345 -0.0363  0.1904 -0.1596
 5003SOL    HW219778   1.300   3.573   6.354  0.0584  0.8235 -0.4475
 5003SOL    HW319779   1.415   3.586   6.257  0.3320 -0.4549 -0.3099
 5003SOL    MW419780   1.384   3.561   6.334  0.0248  0.1888 -0.2174
 5004SOL     OW19781   5.240   4.250   2.655 -0.4831 -0.0409 -0.3538
 5004SOL    HW219782   5.277   4.338   2.646 -0.0998 -0.1391  0.1908
 5004SOL    HW319783   5.316   4.194   2.672 -0.9155 -0.1759  1.2616
 5004SOL    MW419784   5.255   4.254   2.656 -0.4896 -0.0717 -0.0688
 5005SOL     OW19785   4.810   3.497   0.473  0.0873  0.2490  0.0785
 5005SOL    HW219786   4.743   3.463   0.532  0.7179  0.5729  1.0222
 5005SOL    HW319787   4.880   3.431   0.476 -0.0576  0.0556 -0.6578
 5005SOL    MW419788   4.811   3.484   0.481  0.1514  0.2662  0.1058
 5006SOL     OW19789   4.956   1.557   0.818  0.2574 -0.4089  0.1454
 5006SOL    HW219790   4.894   1.570   0.888 -1.3729 -2.2871 -0.8477
 5006SOL    HW319791   4.903   1.549   0.739  1.8933 -0.1206 -1.0529
 5006SOL    MW419792   4.941   1.558   0.816  0.2581 -0.6187 -0.1437
 5007SOL     OW19793   2.754   4.439   1.404  0.5095  0.4029  0.1260
 5007SOL    HW219794   2.743   4.392   1.486 -1.8671  0.5414 -0.0465
 5007SOL    HW319795   2.683   4.503   1.403  1.1282  1.1192 -1.5640
 5007SOL    MW419796   2.743   4.441   1.414  0.2776  0.5157 -0.1197
 5008SOL     OW19797   3.768   4.549   5.761  0.4748  0.1613  0.4554
 5008SOL    HW219798   3.806   4.636   5.770 -0.3702  0.5769  0.1026
 5008SOL    HW319799   3.685   4.554   5.808 -0.4471  0.1146 -1.0730
 5008SOL    MW419800   3.762   4.561   5.768  0.2416  0.2099  0.2072
 5009SOL     OW19801   0.295   0.548   6.279  0.6694  0.3295  0.2007
 5009SOL    HW219802   0.262   0.519   6.364 -2.3933  0.7217 -0.7388
 5009SOL    HW319803   0.283   0.643   6.279 -0.4632  0.2243 -1.0293
 5009SOL    MW419804   0.289   0.557   6.290  0.1159  0.3674 -0.0855
 5010SOL     OW19805   1.369   3.130   3.209 -0.3183 -0.5856 -0.1680
 5010SOL    HW219806   1.317   3.114   3.130 -0.4195 -0.6444 -0.0908
 5010SOL    HW319807   1.318   3.194   3.258  1.2234  1.8905 -1.5834
 5010SOL    MW419808   1.355   3.136   3.205 -0.1282 -0.2666 -0.3445
 5011SOL     OW19809   2.761   5.997   0.987 -0.5207 -0.1804  0.0687
 5011SOL    HW219810   2.801   5.936   1.049  0.7954  0.0890 -0.5033
 5011SOL    HW319811   2.821   6.000   0.913 -1.6320  0.1878 -0.8496
 5011SOL    MW419812   2.774   5.990   0.986 -0.4937 -0.0962 -0.1280
 5012SOL     OW19813   1.324   2.608   4.130  0.0608  0.9680  0.0187
 5012SOL    HW219814   1.342   2.701   4.118  1.9711  0.5480 -0.7132
 5012SOL    HW319815   1.361   2.566   4.053 -0.5137 -0.4277  0.4734
 5012SOL    MW419816   1.331   2.614   4.118  0.2370  0.7284 -0.0179
 5013SOL     OW19817   6.388   1.372   0.291 -0.0653 -0.0570  0.1087
 5013SOL    HW219818   6.440   1.453   0.300  1.4255 -1.1754  2.3835
 5013SOL    HW319819   6.446   1.312   0.244 -0.4854 -0.3909  0.0105
 5013SOL    MW419820   6.403   1.375   0.286  0.0760 -0.2486  0.3959
 5014SOL     OW19821   2.748   2.328   2.632 -0.1290 -0.2866  0.9617
 5014SOL    HW219822   2.809   2.367   2.695 -1.6863  1.4692  1.4781
 5014SOL    HW319823   2.664   2.329   2.677 -0.5771 -2.7638  0.3187
 5014SOL    MW419824   2.745   2.334   2.647 -0.3936 -0.3818  0.9450
 5015SOL     OW19825   3.207   6.336   4.352  0.4020 -0.2666  0.2323
 5015SOL    HW219826   3.192   6.380   4.435 -1.9484  0.0477 -0.2872
 5015SOL    HW319827   3.146   6.262   4.352  0.0234 -0.0047 -1.3634
 5015SOL    MW419828   3.197   6.332   4.363  0.0420 -0.1906 -0.0468
 5016SOL     OW19829   4.522   0.746   3.154  0.1435 -0.3931 -0.2908
 5016SOL    HW219830   4.541   0.763   3.062  1.5231 -0.0796  0.0234
 5016SOL    HW319831   4.457   0.813   3.178  3.2339  2.7924  0.1174
 5016SOL    MW419832   4.516   0.757   3.145  0.7333  0.0686 -0.1955
 5017SOL     OW19833   0.595   1.081   2.658 -0.6414 -0.2945  0.5998
 5017SOL    HW219834   0.616   1.144   2.727 -1.5212  0.4468  0.2198
 5017SOL    HW319835   0.521   1.031   2.694  0.5387 -1.6788  1.2171
 5017SOL    MW419836   0.588   1.082   2.672 -0.6018 -0.3793  0.6311
 5018SOL     OW19837   4.945   5.705   5.083  0.1750  0.1027  0.5149
 5018SOL    HW219838   4.888   5.639   5.124  0.4173 -0.0102  0.6766
 5018SOL    HW319839   4.930   5.785   5.134  0.1224  0.0854  0.5265
 5018SOL    MW419840   4.936   5.707   5.095  0.2000  0.0856  0.5377
 5019SOL     OW19841   1.510   5.871   1.270 -0.0300  0.7323  0.0326
 5019SOL    HW219842   1.459   5.864   1.351 -3.2012  1.3049 -1.7852
 5019SOL    HW319843   1.513   5.965   1.252  0.4814  0.5916 -0.6591
 5019SOL    MW419844   1.504   5.882   1.279 -0.3810  0.7893 -0.2985
 5020SOL     OW19845   6.296   4.556   0.865 -0.3428  0.3237 -0.6162
 5020SOL    HW219846   6.299   4.527   0.956  1.0421  1.4118 -0.2769
 5020SOL    HW319847   6.307   4.651   0.870  0.0293  0.3694 -1.9389
 5020SOL    MW419848   6.298   4.565   0.878 -0.1110  0.4733 -0.7460
 5021SOL     OW19849   3.953   4.414   1.801 -0.0302  0.0657  0.6052
 5021SOL    HW219850   3.953   4.484   1.865  0.6720 -0.0431  0.7352
 5021SOL    HW319851   4.018   4.441   1.736 -2.7297  1.5781 -1.6559
 5021SOL    MW419852   3.962   4.427   1.801 -0.2937  0.2509  0.3240
 5022SOL     OW19853   4.301   1.182   5.691 -0.4205 -0.6224  0.8528
 5022SOL    HW219854   4.268   1.111   5.637 -0.1564 -1.0893  1.2912
 5022SOL    HW319855   4.389   1.154   5.717 -0.8737 -0.8235  2.2474
 5022SOL    MW419856   4.308   1.169   5.688 -0.4455 -0.7106  1.0947
 5023SOL     OW19857   0.995   5.080   2.475  0.0024  0.6341 -0.2340
 5023SOL    HW219858   1.087   5.064   2.453 -0.0934  0.5444 -0.5699
 5023SOL    HW319859   0.990   5.062   2.569  0.2959  0.4993 -0.2413
 5023SOL    MW419860   1.007   5.076   2.484  0.0285  0.6045 -0.2793
 5024SOL     OW19861   4.999   0.938   1.495 -0.4923 -0.1894 -0.5288
 5024SOL    HW219862   5.059   0.960   1.424  0.5201 -1.4711 -0.1088
 5024SOL    HW319863   4.968   0.850   1.473 -2.0994  0.3709 -0.6354
 5024SOL    MW419864   5.003   0.929   1.483 -0.5708 -0.2846 -0.4875
 5025SOL     OW19865   0.552   1.722   6.125  0.3979 -0.1074  0.4174
 5025SOL    HW219866   0.558   1.736   6.220 -0.6680 -0.3758  0.5333
 5025SOL    HW319867   0.508   1.801   6.092 -0.0912 -0.4423  0.2683
 5025SOL    MW419868   0.547   1.734   6.133  0.1927 -0.1870  0.4130
 5026SOL     OW19869   2.340   2.162   6.273  0.4886  0.0076 -0.0775
 5026SOL    HW219870   2.375   2.076   6.248  2.4865  0.7186  0.0972
 5026SOL    HW319871   2.258   2.142   6.318 -0.1173 -1.6650 -1.7708
 5026SOL    MW419872   2.333   2.148   6.276  0.6722 -0.1193 -0.2779
 5027SOL     OW19873   1.859   5.863   6.373  0.0800 -0.5403  0.0647
 5027SOL    HW219874   1.827   5.791   6.318 -1.1631 -0.2700  0.4077
 5027SOL    HW319875   1.954   5.858   6.366 -0.0282 -0.1262 -2.6187
 5027SOL    MW419876   1.867   5.853   6.365 -0.0983 -0.4500 -0.2441
 5028SOL     OW19877   4.225   1.767   4.885 -0.2697 -0.2035  0.4259
 5028SOL    HW219878   4.223   1.729   4.797  0.2593  0.2100  0.2370
 5028SOL    HW319879   4.251   1.694   4.941  1.0324 -0.0626  0.0266
 5028SOL    MW419880   4.228   1.752   4.881 -0.0281 -0.1304  0.3483
 5029SOL     OW19881   5.772   2.069   4.270  0.0735  0.6141 -0.5094
 5029SOL    HW219882   5.731   2.143   4.315  0.7452  0.2318  0.7924
 5029SOL    HW319883   5.821   2.024   4.339  0.2875 -0.6109 -1.4339
 5029SOL    MW419884   5.773   2.073   4.285  0.1903  0.4021 -0.4596
 5030SOL     OW19885   5.584   0.419   4.992  0.3181 -0.0344 -0.0282
 5030SOL    HW219886   5.605   0.427   4.899  1.6174  0.5754  0.2907
 5030SOL    HW319887   5.569   0.325   5.005  2.1056 -0.4218 -0.4784
 5030SOL    MW419888   5.585   0.408   4.981  0.7254 -0.0051 -0.0455
 5031SOL     OW19889   1.095   4.301   6.026 -0.4266  0.2517  0.2700
 5031SOL    HW219890   1.009   4.290   5.985 -0.8365 -1.7347  1.5232
 5031SOL    HW319891   1.157   4.264   5.962 -0.5730  1.0156 -0.3230
 5031SOL    MW419892   1.092   4.294   6.012 -0.5000  0.0904  0.3571
 5032SOL     OW19893   1.744   4.453   1.383 -0.0923  0.3020 -0.0705
 5032SOL    HW219894   1.686   4.486   1.315 -2.3433  0.4295  1.8046
 5032SOL    HW319895   1.748   4.523   1.448 -2.1232 -1.6318  2.3022
 5032SOL    MW419896   1.737   4.466   1.382 -0.6573  0.0637  0.4899
 5033SOL     OW19897   4.269   0.097   0.550  0.4509  0.2709 -0.3346
 5033SOL    HW219898   4.299   0.014   0.513 -2.0496 -0.5986 -0.6154
 5033SOL    HW319899   4.241   0.147   0.474 -2.3703 -0.5332  0.0646
 5033SOL    MW419900   4.269   0.092   0.535 -0.2512  0.0501 -0.3190
 5034SOL     OW19901   2.934   1.593   5.339  0.4042  0.3765 -0.5223
 5034SOL    HW219902   2.872   1.537   5.292  0.8751 -0.9166  0.3507
 5034SOL    HW319903   2.976   1.535   5.402  0.3413  1.8893  0.9782
 5034SOL    MW419904   2.931   1.578   5.341  0.4580  0.4055 -0.2091
 5035SOL     OW19905   5.410   1.099   2.450 -0.3761 -0.4645  0.9122
 5035SOL    HW219906   5.386   1.188   2.425 -0.7619 -0.1116  2.4314
 5035SOL    HW319907   5.498   1.087   2.415 -1.0476 -0.1858 -0.9515
 5035SOL    MW419908   5.418   1.109   2.442 -0.5156 -0.3812  0.8667
 5036SOL     OW19909   4.359   1.749   2.852 -0.4882 -0.0506 -0.1818
 5036SOL    HW219910   4.388   1.729   2.763 -0.9033 -2.6669  0.1856
 5036SOL    HW319911   4.438   1.742   2.906 -0.7995 -2.1863  0.1059
 5036SOL    MW419912   4.373   1.745   2.848 -0.5840 -0.6776 -0.0954
 5037SOL     OW19913   2.295   0.744   2.289 -0.2382 -0.0955  0.2045
 5037SOL    HW219914   2.299   0.831   2.249 -1.4003  0.2698  0.8385
 5037SOL    HW319915   2.218   0.747   2.346  1.4952 -0.5051  2.7321
 5037SOL    MW419916   2.285   0.756   2.291 -0.1628 -0.1014  0.6216
 5038SOL     OW19917   0.747   4.477   3.747 -0.4005 -0.0211  0.1327
 5038SOL    HW219918   0.729   4.383   3.750  0.1264 -0.1205  0.4359
 5038SOL    HW319919   0.681   4.513   3.689 -2.0815 -0.2404  1.8010
 5038SOL    MW419920   0.736   4.469   3.740 -0.5527 -0.0632  0.3928
 5039SOL     OW19921   3.118   1.487   6.010 -0.6526 -0.5779 -0.2465
 5039SOL    HW219922   3.089   1.397   6.024 -0.9064 -0.6825 -1.3816
 5039SOL    HW319923   3.161   1.485   5.925 -0.0097  0.2267  0.0517
 5039SOL    MW419924   3.120   1.475   6.001 -0.6012 -0.4855 -0.3569
 5040SOL     OW19925   6.381   4.902   4.506  0.2973  0.3052 -0.2796
 5040SOL    HW219926   6.366   4.992   4.480  0.9122  0.0724 -1.4966
 5040SOL    HW319927   6.472   4.884   4.482  1.1926  0.2724  2.6886
 5040SOL    MW419928   6.391   4.911   4.500  0.4965  0.2702 -0.0486
 5041SOL     OW19929   3.537   2.728   0.350 -0.0681  0.0926  0.0851
 5041SOL    HW219930   3.512   2.680   0.272  0.1295  0.5680 -0.2738
 5041SOL    HW319931   3.632   2.722   0.353 -0.0075  0.7820 -0.1813
 5041SOL    MW419932   3.546   2.721   0.340 -0.0341  0.2463  0.0026
 5042SOL     OW19933   1.531   6.251   2.385 -0.3710 -0.4047  0.1377
 5042SOL    HW219934   1.493   6.321   2.439 -0.9667 -3.0290  3.4423
 5042SOL    HW319935   1.625   6.263   2.393 -0.4584  0.4738 -0.0317
 5042SOL    MW419936   1.538   6.262   2.394 -0.4611 -0.6350  0.5513
 5043SOL     OW19937   0.678   5.525   2.112 -0.1216 -0.0712  0.0354
 5043SOL    HW219938   0.610   5.460   2.130 -2.1590  1.4920 -1.5252
 5043SOL    HW319939   0.696   5.564   2.198 -1.7685 -0.0430  0.4219
 5043SOL    MW419940   0.671   5.522   2.126 -0.6077  0.1387 -0.1195
 5044SOL     OW19941   4.123   5.307   3.006  0.3292 -0.1637 -0.9579
 5044SOL    HW219942   4.160   5.350   2.929 -0.0814  1.1522 -0.4586
 5044SOL    HW319943   4.181   5.332   3.077 -0.7847  0.9393 -0.3812
 5044SOL    MW419944   4.136   5.316   3.005  0.1280  0.1555 -0.8159
 5045SOL     OW19945   0.571   4.034   3.039  0.5884 -0.2838 -0.3003
 5045SOL    HW219946   0.534   3.950   3.066 -0.8951  0.9624  1.8834
 5045SOL    HW319947   0.508   4.067   2.974 -0.1908  0.1859  0.6639
 5045SOL    MW419948   0.558   4.027   3.034  0.2899 -0.0574  0.1150
 5046SOL     OW19949   1.017   3.462   2.054  0.0929  0.1401 -0.4382
 5046SOL    HW219950   0.976   3.507   1.981 -1.5137 -0.8790 -0.2117
 5046SOL    HW319951   0.949   3.456   2.120  1.7292  1.7768  1.5431
 5046SOL    MW419952   1.003   3.467   2.053  0.0968  0.2216 -0.1469
 5047SOL     OW19953   5.801   5.954   3.930 -0.2764  0.2060  0.4360
 5047SOL    HW219954   5.816   6.005   4.010 -0.4985  2.2251 -0.7642
 5047SOL    HW319955   5.718   5.987   3.896 -0.0562 -0.4551 -0.7693
 5047SOL    MW419956   5.792   5.965   3.936 -0.2767  0.3852  0.1186
 5048SOL     OW19957   5.997   0.713   1.744 -0.7082  0.3265 -0.3826
 5048SOL    HW219958   5.903   0.727   1.732 -1.1707 -1.5977  0.4194
 5048SOL    HW319959   6.018   0.642   1.683  0.1060  0.3659 -0.1546
 5048SOL    MW419960   5.987   0.705   1.734 -0.6618  0.0778 -0.2467
 5049SOL     OW19961   4.682   3.073   1.099  0.1191 -0.0123 -0.1881
 5049SOL    HW219962   4.757   3.114   1.142 -1.1889  0.8747  1.3661
 5049SOL    HW319963   4.712   2.985   1.078  1.9480  0.6711 -0.6580
 5049SOL    MW419964   4.696   3.067   1.102  0.1879  0.1949 -0.0450
 5050SOL     OW19965   3.237   1.832   3.473  0.0696  0.3677  0.1962
 5050SOL    HW219966   3.318   1.841   3.423 -0.4785  2.5636 -0.4144
 5050SOL    HW319967   3.220   1.919   3.507 -1.9023 -0.0921  0.5210
 5050SOL    MW419968   3.245   1.844   3.471 -0.2629  0.5967  0.1585
 5051SOL     OW19969   5.322   5.405   4.794  0.2206 -0.3662 -0.0189
 5051SOL    HW219970   5.265   5.422   4.719 -0.2555 -1.3017  0.1152
 5051SOL    HW319971   5.392   5.350   4.758 -0.5170 -1.6096  0.4005
 5051SOL    MW419972   5.324   5.400   4.779  0.0605 -0.6537  0.0542
 5052SOL     OW19973   2.819   4.385   4.181  0.2347  0.0652 -0.0247
 5052SOL    HW219974   2.831   4.475   4.211 -0.7266  0.2103 -0.0704
 5052SOL    HW319975   2.845   4.387   4.089  0.3963  0.2455  0.0216
 5052SOL    MW419976   2.824   4.397   4.173  0.1292  0.1082 -0.0246
 5053SOL     OW19977   5.146   6.010   2.375  0.7105 -0.1610 -0.1390
 5053SOL    HW219978   5.139   5.926   2.420  0.4409 -1.3761 -2.3100
 5053SOL    HW319979   5.103   5.996   2.291  0.3436  2.2751 -0.4451
 5053SOL    MW419980   5.139   5.997   2.370  0.6265  0.0001 -0.4658
 5054SOL     OW19981   1.742   1.050   1.485 -0.7039 -0.0145 -0.2884
 5054SOL    HW219982   1.692   1.121   1.445 -0.2579 -0.2675 -1.3261
 5054SOL    HW319983   1.817   1.037   1.426  0.5869  0.3397  1.1950
 5054SOL    MW419984   1.746   1.058   1.472 -0.4748 -0.0012 -0.2296
 5055SOL     OW19985   1.853   6.211   1.317  0.6104  0.4954  0.3890
 5055SOL    HW219986   1.931   6.247   1.359  1.0820 -0.6301  0.5230
 5055SOL    HW319987   1.848   6.121   1.350 -1.0787  0.7103  0.8439
 5055SOL    MW419988   1.863   6.204   1.327  0.4498  0.3753  0.4667
 5056SOL     OW19989   4.603   3.247   4.460 -0.1702  0.5816 -0.2111
 5056SOL    HW219990   4.558   3.292   4.388  1.6612 -0.0819 -1.8687
 5056SOL    HW319991   4.554   3.166   4.472 -1.2650  1.2771  0.2444
 5056SOL    MW419992   4.590   3.242   4.452 -0.0730  0.5858 -0.3697
 5057SOL     OW19993   3.428   2.981   3.144 -0.8765  0.5208 -0.3838
 5057SOL    HW219994   3.442   3.053   3.206 -1.5774 -0.7170  1.2843
 5057SOL    HW319995   3.473   3.009   3.064  0.7860  1.8119  0.9439
 5057SOL    MW419996   3.436   2.994   3.141 -0.7496  0.5279  0.0115
 5058SOL     OW19997   2.210   5.307   0.067  0.1305  0.4827 -0.0035
 5058SOL    HW219998   2.252   5.242   0.123 -1.5473 -0.1929  0.5222
 5058SOL    HW319999   2.281   5.343   0.014  0.9651 -2.5091 -1.0708
 5058SOL    MW420000   2.225   5.303   0.067  0.0193 -0.0012 -0.0749
 5059SOL     OW20001   3.260   2.945   1.940 -0.0238  0.3974 -0.1845
 5059SOL    HW220002   3.212   2.996   2.006 -1.4861 -1.1041 -0.0082
 5059SOL    HW320003   3.287   2.866   1.986 -1.9147 -1.1411 -1.5223
 5059SOL    MW420004   3.257   2.941   1.955 -0.4662 -0.0037 -0.3378
 5060SOL     OW20005   3.686   4.723   5.146  0.1509  0.0856  0.1314
 5060SOL    HW220006   3.648   4.663   5.081  0.6731  2.2049 -2.2911
 5060SOL    HW320007   3.616   4.785   5.165  0.3851  0.1742  0.7425
 5060SOL    MW420008   3.672   4.723   5.140  0.2507  0.3769 -0.1076
 5061SOL     OW20009   5.701   1.832   4.850  0.4601 -0.4603  0.1498
 5061SOL    HW220010   5.706   1.926   4.869 -0.8488 -0.3669  0.1789
 5061SOL    HW320011   5.674   1.827   4.759 -0.9140 -0.7562  0.5443
 5061SOL    MW420012   5.698   1.844   4.841  0.1061 -0.4870  0.2057
 5062SOL     OW20013   1.347   4.051   5.652  0.8579 -0.0168  0.0914
 5062SOL    HW220014   1.430   4.084   5.620 -0.0649  1.8035 -0.5531
 5062SOL    HW320015   1.324   4.109   5.724 -0.4221  0.2883 -0.5352
 5062SOL    MW420016   1.355   4.063   5.657  0.5673  0.2636 -0.0763
 5063SOL     OW20017   4.630   2.245   3.393  0.0361 -0.0018  0.0161
 5063SOL    HW220018   4.599   2.211   3.308 -1.0182 -0.5538  0.5923
 5063SOL    HW320019   4.649   2.166   3.444  1.8560  0.3299 -0.0975
 5063SOL    MW420020   4.628   2.230   3.388  0.1371 -0.0309  0.0772
 5064SOL     OW20021   1.368   2.945   1.084 -0.2852 -0.4863 -0.6584
 5064SOL    HW220022   1.389   2.998   1.161 -1.2328  1.1978 -1.4942
 5064SOL    HW320023   1.439   2.880   1.079  1.3237  1.1342  0.0277
 5064SOL    MW420024   1.380   2.943   1.093 -0.1979 -0.0503 -0.6781
 5065SOL     OW20025   0.346   5.287   4.188 -0.3129  0.0431 -0.7648
 5065SOL    HW220026   0.415   5.259   4.249 -0.8591 -0.4197 -0.3475
 5065SOL    HW320027   0.389   5.290   4.103  0.0740 -0.8319 -0.6087
 5065SOL    MW420028   0.361   5.284   4.185 -0.3339 -0.1334 -0.6892
 5066SOL     OW20029   2.624   1.226   0.313 -0.2367 -0.0872 -0.1898
 5066SOL    HW220030   2.665   1.149   0.353  1.6655  1.1550  0.4304
 5066SOL    HW320031   2.544   1.240   0.362 -0.3418 -1.3696  0.0197
 5066SOL    MW420032   2.619   1.218   0.325  0.0004 -0.0925 -0.0803
 5067SOL     OW20033   3.933   5.938   2.566 -0.0371  0.0643 -0.5579
 5067SOL    HW220034   4.013   5.886   2.557 -0.6869 -1.3942  1.5373
 5067SOL    HW320035   3.867   5.876   2.596 -0.9976  1.9379  1.5058
 5067SOL    MW420036   3.935   5.923   2.569 -0.2495  0.1191 -0.0092
 5068SOL     OW20037   1.951   3.259   6.313  0.7033  0.0757 -0.0403
 5068SOL    HW220038   1.892   3.190   6.341  0.4813 -1.1675 -3.1918
 5068SOL    HW320039   1.897   3.316   6.258  1.4193  1.5343  0.6996
 5068SOL    MW420040   1.936   3.258   6.309  0.7685  0.1041 -0.3585
 5069SOL     OW20041   5.049   1.775   2.084  0.3188  0.5716 -0.2712
 5069SOL    HW220042   4.989   1.738   2.019  0.3411  0.3254 -0.1540
 5069SOL    HW320043   5.051   1.710   2.154  4.2713 -1.8136 -2.2111
 5069SOL    MW420044   5.041   1.761   2.085  0.8432  0.2244 -0.5117
 5070SOL     OW20045   0.781   4.863   1.651 -0.2941 -0.4653 -0.0914
 5070SOL    HW220046   0.698   4.910   1.657  0.3123  0.5397  0.8890
 5070SOL    HW320047   0.832   4.895   1.726  0.0211 -3.0155  0.8862
 5070SOL    MW420048   0.777   4.874   1.662 -0.1725 -0.6692  0.1669
 5071SOL     OW20049   3.736   3.416   3.386 -0.4669 -0.2418 -0.2295
 5071SOL    HW220050   3.688   3.349   3.435  0.3370 -0.5760  0.1253
 5071SOL    HW320051   3.819   3.374   3.364 -0.3586  0.3013 -0.8876
 5071SOL    MW420052   3.741   3.402   3.389 -0.3465 -0.2143 -0.2695
 5072SOL     OW20053   1.769   2.419   4.838 -0.2229  0.3984  0.0672
 5072SOL    HW220054   1.833   2.359   4.875  1.0964  1.3637 -0.5682
 5072SOL    HW320055   1.713   2.364   4.783 -0.3024 -0.5415  1.0587
 5072SOL    MW420056   1.770   2.404   4.835 -0.0594  0.4018  0.1142
 5073SOL     OW20057   2.287   0.663   4.805 -0.1088  0.2005 -0.9388
 5073SOL    HW220058   2.194   0.670   4.829 -0.3929  0.1474 -1.9722
 5073SOL    HW320059   2.316   0.580   4.843 -0.2389  0.6288  0.1411
 5073SOL    MW420060   2.278   0.653   4.813 -0.1634  0.2500 -0.9327
 5074SOL     OW20061   0.849   1.938   4.983  0.6505 -0.1495 -0.2064
 5074SOL    HW220062   0.940   1.927   4.954 -0.1076 -0.3907 -2.7318
 5074SOL    HW320063   0.812   1.850   4.982  0.4282 -0.0928  1.1003
 5074SOL    MW420064   0.857   1.925   4.979  0.5212 -0.1738 -0.3672
 5075SOL     OW20065   2.149   5.849   3.443  0.2695  0.2969 -0.2649
 5075SOL    HW220066   2.216   5.900   3.488  0.6371  1.4603 -2.0514
 5075SOL    HW320067   2.186   5.761   3.436  0.8891  0.5106  0.2243
 5075SOL    MW420068   2.163   5.844   3.448  0.3998  0.4786 -0.4361
 5076SOL     OW20069   4.857   4.519   4.648 -0.4804 -0.4257  0.3578
 5076SOL    HW220070   4.949   4.521   4.675 -0.9947 -2.0682  2.4815
 5076SOL    HW320071   4.844   4.429   4.617 -0.8576  0.4112 -2.1903
 5076SOL    MW420072   4.868   4.507   4.647 -0.5981 -0.5320  0.3018
 5077SOL     OW20073   4.228   6.345   1.704  0.6757 -0.1550  0.5549
 5077SOL    HW220074   4.144   6.304   1.723  0.6405 -0.4082 -0.1416
 5077SOL    HW320075   4.217   6.386   1.618  1.9894 -2.2484 -0.6997
 5077SOL    MW420076   4.216   6.345   1.695  0.8444 -0.4646  0.2975
 5078SOL     OW20077   3.866   4.388   0.368 -0.6614  0.0409 -0.2317
 5078SOL    HW220078   3.796   4.454   0.364  0.5174  1.4070  0.7006
 5078SOL    HW320079   3.845   4.336   0.445 -1.6166 -0.7534 -0.9903
 5078SOL    MW420080   3.854   4.390   0.377 -0.6319  0.1163 -0.2088
 5079SOL     OW20081   0.717   2.839   6.301  0.4192 -0.5920 -0.1777
 5079SOL    HW220082   0.714   2.758   6.352  1.8226 -0.8027 -0.3971
 5079SOL    HW320083   0.723   2.909   6.366  1.8348 -0.8394 -0.0221
 5079SOL    MW420084   0.717   2.838   6.316  0.7912 -0.6525 -0.1861
 5080SOL     OW20085   0.867   4.576   5.297 -0.5335 -0.5325 -0.3642
 5080SOL    HW220086   0.797   4.543   5.354 -2.0535  0.8495 -1.3498
 5080SOL    HW320087   0.900   4.653   5.343 -2.2280  0.9889 -1.5910
 5080SOL    MW420088   0.862   4.582   5.311 -0.9576 -0.1494 -0.6561
 5081SOL     OW20089   0.193   1.234   4.438 -0.4012 -0.1924 -0.4348
 5081SOL    HW220090   0.098   1.241   4.426 -0.2055  0.8086 -1.6465
 5081SOL    HW320091   0.229   1.302   4.382  1.0603 -0.8081 -0.2870
 5081SOL    MW420092   0.185   1.244   4.429 -0.1825 -0.1416 -0.5752
 5082SOL     OW20093   1.140   0.991   4.756  0.6746  1.1672 -0.3469
 5082SOL    HW220094   1.202   1.029   4.818  1.1401 -0.7669  0.4682
 5082SOL    HW320095   1.105   0.914   4.802  0.9568 -0.2842 -2.4159
 5082SOL    MW420096   1.143   0.986   4.770  0.7732  0.7206 -0.5123
 5083SOL     OW20097   0.329   6.248   4.869  0.1919 -0.1715  0.4579
 5083SOL    HW220098   0.305   6.324   4.816  0.5225 -0.4449 -0.0867
 5083SOL    HW320099   0.247   6.220   4.910  0.1129  0.6247  0.8587
 5083SOL    MW420100   0.315   6.254   4.868  0.2251 -0.1026  0.4389
 5084SOL     OW20101   2.943   4.955   2.248  0.1519  0.0090 -0.0589
 5084SOL    HW220102   2.912   4.873   2.209 -0.5132 -0.3007  1.0837
 5084SOL    HW320103   3.013   4.984   2.189  2.8563 -3.1689  1.3039
 5084SOL    MW420104   2.948   4.948   2.235  0.4209 -0.4511  0.2717
 5085SOL     OW20105   5.140   4.625   5.307  0.0117  0.3093 -0.6084
 5085SOL    HW220106   5.198   4.553   5.330  0.1607  0.4192 -0.6361
 5085SOL    HW320107   5.154   4.639   5.213 -0.7563 -0.2800 -0.8183
 5085SOL    MW420108   5.149   4.617   5.298 -0.0700  0.2461 -0.6397
 5086SOL     OW20109   0.919   4.013   3.272  0.2064 -0.0208  0.5989
 5086SOL    HW220110   1.002   3.968   3.281  0.4644  0.0815 -0.9613
 5086SOL    HW320111   0.938   4.103   3.298  0.9014  0.2748 -0.8285
 5086SOL    MW420112   0.932   4.019   3.277  0.3321  0.0317  0.2047
 5087SOL     OW20113   1.114   4.422   2.162 -0.5104 -0.1189 -0.2150
 5087SOL    HW220114   1.093   4.330   2.176  1.9667 -0.8903 -1.1321
 5087SOL    HW320115   1.142   4.454   2.248 -0.7699 -0.3983 -0.0266
 5087SOL    MW420116   1.115   4.414   2.176 -0.2178 -0.2575 -0.3112
 5088SOL     OW20117   2.547   5.969   0.548  0.2951  0.2614  0.4839
 5088SOL    HW220118   2.625   5.917   0.566  0.9229  0.7123 -0.7901
 5088SOL    HW320119   2.475   5.907   0.554  1.0691 -0.9413 -1.5973
 5088SOL    MW420120   2.548   5.954   0.551  0.4800  0.1622  0.0412
 5089SOL     OW20121   2.364   2.532   0.396 -0.2354 -0.4240  0.0813
 5089SOL    HW220122   2.275   2.532   0.361  0.2449  1.7157 -1.2901
 5089SOL    HW320123   2.416   2.485   0.331 -0.2070 -1.0258  0.5242
 5089SOL    MW420124   2.360   2.526   0.383 -0.1683 -0.2211 -0.0412
 5090SOL     OW20125   3.005   6.400   1.371 -0.2247  0.2490 -0.6405
 5090SOL    HW220126   3.030   6.310   1.349  3.2643  1.3849 -2.0036
 5090SOL    HW320127   3.088   6.445   1.386 -1.8800  2.2697  4.7635
 5090SOL    MW420128   3.019   6.394   1.370  0.0172  0.6655 -0.1073
 5091SOL     OW20129   0.449   6.078   5.894 -0.3097 -0.5626 -0.3451
 5091SOL    HW220130   0.481   6.065   5.983  0.4369  1.2140 -0.3123
 5091SOL    HW320131   0.354   6.083   5.903 -0.1914  0.5274  0.5106
 5091SOL    MW420132   0.441   6.077   5.907 -0.1956 -0.1844 -0.2279
 5092SOL     OW20133   4.140   5.025   4.077  0.7161  0.4723 -0.4970
 5092SOL    HW220134   4.081   4.963   4.033  1.7621 -0.3276 -0.7955
 5092SOL    HW320135   4.113   5.023   4.169  0.6501 -0.3237 -0.5325
 5092SOL    MW420136   4.128   5.017   4.083  0.8454  0.2618 -0.5410
 5093SOL     OW20137   0.762   1.333   3.739  0.5360  0.2848  0.8851
 5093SOL    HW220138   0.789   1.410   3.790  2.1232 -0.0353  0.5933
 5093SOL    HW320139   0.738   1.368   3.653 -1.5485  0.7537  1.6110
 5093SOL    MW420140   0.762   1.348   3.734  0.4704  0.3044  0.9424
 5094SOL     OW20141   3.838   5.356   0.553 -0.5207  0.4195 -0.1007
 5094SOL    HW220142   3.809   5.447   0.565 -2.3257 -0.2440  0.9993
 5094SOL    HW320143   3.800   5.329   0.470 -1.7202  0.0770  0.5356
 5094SOL    MW420144   3.829   5.365   0.544 -0.9171  0.2868  0.1284
 5095SOL     OW20145   3.500   6.422   3.441 -0.0464 -0.5026  0.1324
 5095SOL    HW220146   3.432   6.363   3.473  0.0620 -1.7010 -1.7320
 5095SOL    HW320147   3.565   6.423   3.512 -2.2771  1.4042  2.3752
 5095SOL    MW420148   3.500   6.414   3.455 -0.3264 -0.4092  0.1823
 5096SOL     OW20149   4.802   5.670   0.261 -0.1365 -0.2772  0.0838
 5096SOL    HW220150   4.735   5.730   0.293  0.5136 -0.1939  1.3553
 5096SOL    HW320151   4.847   5.719   0.192  0.8826  1.0507  1.6103
 5096SOL    MW420152   4.800   5.684   0.256  0.0837 -0.0910  0.4529
 5097SOL     OW20153   4.390   6.060   0.932  0.3035  0.2905 -0.1787
 5097SOL    HW220154   4.425   6.117   0.864  1.8160  0.2224  0.5010
 5097SOL    HW320155   4.465   6.041   0.988 -0.6180 -0.7316  0.7535
 5097SOL    MW420156   4.405   6.065   0.930  0.3815  0.1467  0.0340
 5098SOL     OW20157   5.343   0.444   0.615 -0.2412 -0.6691  0.7809
 5098SOL    HW220158   5.398   0.396   0.677  1.3701  0.2132  0.0894
 5098SOL    HW320159   5.274   0.482   0.670  0.8838 -0.2838  1.9859
 5098SOL    MW420160   5.341   0.443   0.630  0.1198 -0.5018  0.8486
 5099SOL     OW20161   5.136   2.955   3.679  0.2503 -0.3352  0.1193
 5099SOL    HW220162   5.133   2.909   3.595 -0.3263  1.3583 -0.8485
 5099SOL    HW320163   5.198   3.026   3.665  0.8906 -0.6056  1.4654
 5099SOL    MW420164   5.143   2.958   3.666  0.2587 -0.1475  0.1692
 5100SOL     OW20165   5.065   3.072   0.535  0.1120  0.2524 -0.4001
 5100SOL    HW220166   4.979   3.059   0.494 -0.0261 -0.6700  0.1605
 5100SOL    HW320167   5.074   3.167   0.541  0.0966  0.4274 -2.4615
 5100SOL    MW420168   5.055   3.083   0.530  0.0917  0.1538 -0.5981
 5101SOL     OW20169   5.124   1.118   2.631  0.6621 -0.2713 -0.1096
 5101SOL    HW220170   5.188   1.188   2.614  0.1927 -0.0196 -0.8628
 5101SOL    HW320171   5.114   1.119   2.727  2.3789 -0.8562  0.1064
 5101SOL    MW420172   5.131   1.128   2.642  0.8266 -0.3153 -0.1805
 5102SOL     OW20173   2.657   4.393   3.800  0.4534 -0.4255 -0.0382
 5102SOL    HW220174   2.638   4.411   3.708  1.5098 -2.4217 -0.7107
 5102SOL    HW320175   2.602   4.318   3.822 -0.2958  0.4451  1.1980
 5102SOL    MW420176   2.647   4.385   3.791  0.4939 -0.5740  0.0361
 5103SOL     OW20177   5.097   6.034   5.856  0.0173  0.3998 -0.1093
 5103SOL    HW220178   5.135   6.039   5.943  0.2166  1.5838 -0.2371
 5103SOL    HW320179   5.172   6.044   5.797 -0.1362 -0.2089 -0.4076
 5103SOL    MW420180   5.112   6.036   5.859  0.0234  0.4757 -0.1655
 5104SOL     OW20181   2.917   0.165   4.919 -0.2041 -0.1542  0.2068
 5104SOL    HW220182   2.938   0.254   4.890 -1.1915  0.0223 -0.0315
 5104SOL    HW320183   2.826   0.172   4.949 -1.3902 -1.7142 -2.6607
 5104SOL    MW420184   2.907   0.178   4.919 -0.4908 -0.3367 -0.2030
 5105SOL     OW20185   4.848   5.847   5.301  0.2660  0.5977 -0.1747
 5105SOL    HW220186   4.795   5.802   5.367 -1.2922  0.8813 -1.1867
 5105SOL    HW320187   4.872   5.930   5.342  1.0281 -0.0599  0.7590
 5105SOL    MW420188   4.844   5.852   5.315  0.1610  0.5483 -0.1850
 5106SOL     OW20189   3.954   4.548   3.982  0.2358  0.3909 -0.3049
 5106SOL    HW220190   3.938   4.544   4.076  2.0919  1.6004  0.1155
 5106SOL    HW320191   3.867   4.543   3.942 -0.4964 -2.2155  1.3442
 5106SOL    MW420192   3.941   4.547   3.989  0.3841  0.2066 -0.0319
 5107SOL     OW20193   6.045   1.457   1.823  0.3204  0.6256 -0.1255
 5107SOL    HW220194   6.126   1.471   1.872  0.8583 -0.2393 -0.7405
 5107SOL    HW320195   6.043   1.362   1.807 -0.5393  0.7148 -0.5832
 5107SOL    MW420196   6.055   1.446   1.827  0.2780  0.5233 -0.2670
 5108SOL     OW20197   5.271   2.984   2.190  0.0222  0.2414  0.2248
 5108SOL    HW220198   5.348   2.929   2.178 -0.8976 -1.4857  1.7554
 5108SOL    HW320199   5.202   2.924   2.218 -1.5355  1.9304  0.2269
 5108SOL    MW420200   5.272   2.969   2.192 -0.3047  0.2363  0.4271
 5109SOL     OW20201   3.923   1.077   3.254 -0.8667  0.0959  0.5123
 5109SOL    HW220202   3.949   1.160   3.294  0.7153 -0.5874  0.9928
 5109SOL    HW320203   3.971   1.010   3.304 -3.0809 -1.2417  0.9654
 5109SOL    MW420204   3.933   1.079   3.266 -0.9501 -0.1708  0.6355
 5110SOL     OW20205   2.016   2.816   1.523 -0.1559 -0.7815  0.1858
 5110SOL    HW220206   1.996   2.724   1.534 -0.2039 -0.7598  0.2767
 5110SOL    HW320207   1.937   2.862   1.551  0.3210 -0.6643  1.3939
 5110SOL    MW420208   2.003   2.810   1.528 -0.0993 -0.7632  0.3572
 5111SOL     OW20209   3.931   1.492   5.847 -0.2906  0.6455  0.0275
 5111SOL    HW220210   3.948   1.512   5.939 -0.1318  3.0198 -0.4483
 5111SOL    HW320211   3.835   1.492   5.839 -0.4516 -2.4161  0.6696
 5111SOL    MW420212   3.921   1.495   5.858 -0.2909  0.5548  0.0494
 5112SOL     OW20213   4.534   2.509   6.114  0.4515 -0.2961  0.1001
 5112SOL    HW220214   4.515   2.447   6.184 -1.2359  1.8646  1.7250
 5112SOL    HW320215   4.473   2.485   6.044  2.2752 -2.5913 -0.8289
 5112SOL    MW420216   4.523   2.498   6.114  0.4695 -0.3139  0.1919
 5113SOL     OW20217   5.726   3.475   3.506 -0.3406 -0.6533  0.1596
 5113SOL    HW220218   5.727   3.422   3.427 -1.7768 -0.9306  0.2944
 5113SOL    HW320219   5.812   3.462   3.546 -0.1682 -1.7370 -0.5461
 5113SOL    MW420220   5.737   3.466   3.501 -0.5074 -0.8329  0.0843
 5114SOL     OW20221   1.204   1.022   1.463  0.2193 -0.1548 -0.8518
 5114SOL    HW220222   1.232   0.938   1.499  1.8816  0.7160  0.0339
 5114SOL    HW320223   1.208   1.082   1.538 -0.7046  0.7669 -1.5151
 5114SOL    MW420224   1.208   1.019   1.478  0.3167  0.0817 -0.8225
 5115SOL     OW20225   2.951   0.287   6.064 -0.3586  0.0805 -0.4450
 5115SOL    HW220226   3.030   0.250   6.104  0.8692  0.0343 -2.7308
 5115SOL    HW320227   2.931   0.363   6.118 -0.3794 -1.4029  1.7668
 5115SOL    MW420228   2.959   0.292   6.077 -0.1994 -0.1213 -0.4548
 5116SOL     OW20229   5.877   0.083   2.596 -0.2639  0.8861 -0.5130
 5116SOL    HW220230   5.933   0.093   2.519 -0.3778  0.2832 -0.6750
 5116SOL    HW320231   5.835   0.168   2.606 -0.8343  0.7375 -1.5672
 5116SOL    MW420232   5.879   0.096   2.587 -0.3542  0.7870 -0.6735
 5117SOL     OW20233   1.380   3.355   2.986  0.3051  0.3209  0.0228
 5117SOL    HW220234   1.327   3.276   2.976  1.8795 -1.0237  1.6757
 5117SOL    HW320235   1.353   3.391   3.071 -0.4737  1.6823 -0.7566
 5117SOL    MW420236   1.369   3.349   2.996  0.4101  0.3231  0.1381
 5118SOL     OW20237   3.984   3.942   4.104 -0.3317 -0.5108 -0.1932
 5118SOL    HW220238   3.969   4.025   4.150  0.0364 -0.8065  0.4753
 5118SOL    HW320239   4.001   3.879   4.174 -1.8629 -1.4305 -0.6136
 5118SOL    MW420240   3.985   3.945   4.119 -0.4851 -0.6712 -0.1605
 5119SOL     OW20241   2.900   4.519   0.458 -0.4680  0.3062 -0.4220
 5119SOL    HW220242   2.869   4.496   0.546  1.6615  0.2867  0.3881
 5119SOL    HW320243   2.926   4.611   0.465  0.5735  0.0518 -0.7417
 5119SOL    MW420244   2.899   4.528   0.471 -0.0497  0.2701 -0.3573
 5120SOL     OW20245   5.088   1.473   5.312 -0.0144  0.6326 -0.1762
 5120SOL    HW220246   5.106   1.385   5.344  1.2263  0.5864 -0.8919
 5120SOL    HW320247   5.167   1.523   5.335 -1.0729  1.8076  1.0320
 5120SOL    MW420248   5.101   1.468   5.319  0.0097  0.7816 -0.1112
 5121SOL     OW20249   0.765   4.229   5.022 -0.3009 -0.2764  0.4131
 5121SOL    HW220250   0.741   4.226   5.115 -0.3436  1.1016  0.4630
 5121SOL    HW320251   0.697   4.284   4.983 -0.5297 -1.2024 -0.5289
 5121SOL    MW420252   0.753   4.236   5.029 -0.3367 -0.2168  0.2954
 5122SOL     OW20253   3.241   4.380   3.249 -0.3838 -0.5848  0.3639
 5122SOL    HW220254   3.268   4.290   3.263 -1.4861 -1.2130 -1.2480
 5122SOL    HW320255   3.320   4.426   3.222 -0.1533 -1.4832 -0.5189
 5122SOL    MW420256   3.255   4.374   3.248 -0.4988 -0.7862  0.0348
 5123SOL     OW20257   1.290   1.981   4.435 -0.3923  0.2109 -0.5046
 5123SOL    HW220258   1.336   1.898   4.428 -0.4915  0.2685 -1.9599
 5123SOL    HW320259   1.218   1.963   4.497  1.7452  0.2405  2.1632
 5123SOL    MW420260   1.286   1.968   4.443 -0.1234  0.2224 -0.3446
 5124SOL     OW20261   1.627   2.647   0.395  0.0791  0.7496 -0.8785
 5124SOL    HW220262   1.636   2.554   0.418 -1.9010  0.1984 -2.0680
 5124SOL    HW320263   1.647   2.694   0.476 -0.8968 -0.8179  0.3304
 5124SOL    MW420264   1.631   2.641   0.409 -0.3109  0.4701 -0.8759
 5125SOL     OW20265   4.987   4.695   0.218 -0.3689  0.1993  0.4934
 5125SOL    HW220266   5.082   4.695   0.220 -0.3314  1.2494 -0.5417
 5125SOL    HW320267   4.964   4.715   0.127 -1.5881 -1.0047  0.4957
 5125SOL    MW420268   4.996   4.697   0.207 -0.5248  0.1790  0.3571
 5126SOL     OW20269   2.858   2.289   1.725 -0.2382  0.2117  0.2335
 5126SOL    HW220270   2.856   2.223   1.656  0.7948 -1.7343  1.9235
 5126SOL    HW320271   2.943   2.276   1.767 -0.8378  1.2889  1.8617
 5126SOL    MW420272   2.869   2.278   1.722 -0.1810  0.0971  0.6713
 5127SOL     OW20273   2.695   2.197   0.192  0.4105 -0.1727  0.2518
 5127SOL    HW220274   2.780   2.209   0.234  0.6643 -1.7313  0.2212
 5127SOL    HW320275   2.696   2.107   0.159 -0.7241  0.2181 -0.9607
 5127SOL    MW420276   2.706   2.187   0.193  0.2943 -0.3267  0.0878
 5128SOL     OW20277   4.934   4.414   2.326 -0.0810  0.5203  0.1204
 5128SOL    HW220278   4.873   4.352   2.287  0.2733 -0.3326  0.9112
 5128SOL    HW320279   4.982   4.450   2.251 -1.3585  1.0259 -0.4870
 5128SOL    MW420280   4.933   4.411   2.311 -0.2028  0.4745  0.1446
 5129SOL     OW20281   2.999   3.870   0.811  0.2742 -0.1285  0.3819
 5129SOL    HW220282   3.062   3.842   0.877  1.8993  1.7204 -0.2770
 5129SOL    HW320283   2.955   3.945   0.851  0.2348  0.0986 -0.0806
 5129SOL    MW420284   3.001   3.877   0.825  0.4834  0.1454  0.2339
 5130SOL     OW20285   4.041   5.097   0.486 -0.1255  0.1982  0.0507
 5130SOL    HW220286   3.946   5.089   0.495 -0.3041 -0.5967 -1.9790
 5130SOL    HW320287   4.075   5.015   0.521 -0.2559  0.1028 -0.0456
 5130SOL    MW420288   4.033   5.085   0.492 -0.1663  0.0807 -0.2298
 5131SOL     OW20289   0.150   0.616   1.370 -0.2276  0.0516  0.0933
 5131SOL    HW220290   0.127   0.531   1.333  1.4288  0.0456 -1.0230
 5131SOL    HW320291   0.066   0.656   1.394 -1.1182 -1.3152 -0.6565
 5131SOL    MW420292   0.136   0.610   1.369 -0.1265 -0.1295 -0.1529
 5132SOL     OW20293   5.893   2.713   0.372 -0.0563 -0.3016 -0.4469
 5132SOL    HW220294   5.931   2.718   0.460  0.6444 -0.4164 -0.7329
 5132SOL    HW320295   5.962   2.673   0.319 -0.4768 -0.2389 -1.0490
 5132SOL    MW420296   5.907   2.708   0.377 -0.0194 -0.3084 -0.5641
 5133SOL     OW20297   6.088   4.905   5.803 -0.1144 -0.5009  0.2360
 5133SOL    HW220298   6.110   4.929   5.893 -0.7470 -1.2317  0.6046
 5133SOL    HW320299   6.142   4.829   5.784 -1.3797 -1.5807  0.7341
 5133SOL    MW420300   6.098   4.898   5.812 -0.3648 -0.7398  0.3503
 5134SOL     OW20301   0.850   3.014   3.106  0.0126  0.4415 -0.0543
 5134SOL    HW220302   0.848   2.972   3.020 -1.6975  2.6006 -1.1652
 5134SOL    HW320303   0.760   3.008   3.137  0.6944 -0.7215  1.8786
 5134SOL    MW420304   0.838   3.008   3.099 -0.1231  0.5729  0.0541
 5135SOL     OW20305   5.134   6.234   2.949  0.6737 -0.8295 -0.0169
 5135SOL    HW220306   5.156   6.260   3.039  2.6373 -0.4681 -0.5480
 5135SOL    HW320307   5.039   6.244   2.944  0.4223 -1.4018  2.1817
 5135SOL    MW420308   5.125   6.239   2.960  0.8996 -0.8573  0.2031
 5136SOL     OW20309   3.193   0.784   4.248  0.4187 -0.1887 -0.2344
 5136SOL    HW220310   3.107   0.745   4.235 -0.0500  0.3998  0.8858
 5136SOL    HW320311   3.185   0.833   4.330  2.2848 -1.4390  0.7781
 5136SOL    MW420312   3.181   0.785   4.257  0.6031 -0.2760  0.0470
 5137SOL     OW20313   3.363   3.098   1.657  0.1826 -0.1676 -0.6258
 5137SOL    HW220314   3.310   3.122   1.733  0.8798  1.6377 -0.6743
 5137SOL    HW320315   3.441   3.057   1.695 -0.0219 -0.3836 -0.4344
 5137SOL    MW420316   3.366   3.095   1.672  0.2476  0.0421 -0.6070
 5138SOL     OW20317   3.928   5.082   5.608 -0.3624 -0.3290 -0.1406
 5138SOL    HW220318   3.908   4.989   5.614 -0.8066 -0.2761 -0.7617
 5138SOL    HW320319   3.921   5.114   5.698 -0.7323 -0.7891 -0.0018
 5138SOL    MW420320   3.925   5.074   5.621 -0.4698 -0.3827 -0.2042
 5139SOL     OW20321   1.134   3.065   0.499  0.2972  0.5823  0.2176
 5139SOL    HW220322   1.178   2.997   0.550 -1.3972 -0.0040  0.9767
 5139SOL    HW320323   1.173   3.147   0.530  2.4853 -0.0001 -0.8380
 5139SOL    MW420324   1.145   3.067   0.510  0.3623  0.4281  0.1785
 5140SOL     OW20325   0.397   2.951   3.557 -0.2127 -0.6238 -0.0292
 5140SOL    HW220326   0.476   2.994   3.527 -0.8427  1.3867  1.0249
 5140SOL    HW320327   0.332   2.970   3.490 -0.2994 -0.5900  0.0635
 5140SOL    MW420328   0.398   2.959   3.544 -0.3073 -0.3541  0.1221
 5141SOL     OW20329   2.777   3.973   0.191  0.0958  0.3778  0.4478
 5141SOL    HW220330   2.756   3.905   0.127  0.2929  0.4212  0.3381
 5141SOL    HW320331   2.846   4.025   0.150 -0.0990  0.6810  0.5084
 5141SOL    MW420332   2.783   3.971   0.177  0.0961  0.4235  0.4413
 5142SOL     OW20333   3.865   1.755   2.069  0.0663 -0.2462  0.2649
 5142SOL    HW220334   3.874   1.693   1.997  0.7322 -0.0458  0.1608
 5142SOL    HW320335   3.809   1.825   2.035  2.6679  1.3361 -1.1391
 5142SOL    MW420336   3.859   1.756   2.055  0.4974 -0.0110  0.0659
 5143SOL     OW20337   1.321   6.369   1.841  0.1362  0.3424 -0.1383
 5143SOL    HW220338   1.343   6.279   1.866  0.6483  0.1425 -1.2616
 5143SOL    HW320339   1.299   6.412   1.924  0.6484 -0.6042  0.5075
 5143SOL    MW420340   1.321   6.363   1.856  0.2713  0.1912 -0.2013
 5144SOL     OW20341   4.472   1.111   2.505  0.0096  0.2251  0.0273
 5144SOL    HW220342   4.552   1.072   2.540  0.2756  0.1623 -0.6304
 5144SOL    HW320343   4.418   1.128   2.582  0.8885  0.7914  0.5475
 5144SOL    MW420344   4.476   1.108   2.519  0.1607  0.2915  0.0091
 5145SOL     OW20345   0.978   2.554   5.699  0.0449 -0.3360 -0.0469
 5145SOL    HW220346   0.982   2.630   5.641  0.2084  0.5994  1.1455
 5145SOL    HW320347   1.070   2.531   5.715 -0.0037 -0.7557 -0.3615
 5145SOL    MW420348   0.991   2.561   5.694  0.0601 -0.2680  0.0689
 5146SOL     OW20349   5.712   2.715   4.753 -0.4586 -0.0242  0.0039
 5146SOL    HW220350   5.633   2.720   4.699 -0.7175  2.2246  0.4815
 5146SOL    HW320351   5.680   2.698   4.841 -0.3532  0.2586  0.0967
 5146SOL    MW420352   5.698   2.714   4.758 -0.4789  0.3098  0.0792
 5147SOL     OW20353   0.450   5.377   2.144 -0.1787  0.5942 -0.2772
 5147SOL    HW220354   0.369   5.381   2.196 -0.2914 -1.4497 -0.2305
 5147SOL    HW320355   0.503   5.309   2.186  1.3360  1.4882 -0.6652
 5147SOL    MW420356   0.446   5.369   2.157  0.0063  0.4425 -0.3222
 5148SOL     OW20357   0.731   0.558   2.102 -0.3516 -0.4172  0.4376
 5148SOL    HW220358   0.697   0.531   2.188  1.0315  0.0428  1.1546
 5148SOL    HW320359   0.797   0.492   2.081  1.7231  1.2664  1.3404
 5148SOL    MW420360   0.735   0.546   2.111  0.1046 -0.1343  0.6513
 5149SOL     OW20361   2.190   6.071   2.063 -0.4737  0.4522 -0.0292
 5149SOL    HW220362   2.193   5.996   2.122  0.0305  0.4676 -0.0353
 5149SOL    HW320363   2.120   6.050   2.001  0.8878 -0.8933 -1.2042
 5149SOL    MW420364   2.181   6.058   2.062 -0.2275  0.2767 -0.1850
 5150SOL     OW20365   5.384   4.922   1.503 -0.3293  0.0229  0.0760
 5150SOL    HW220366   5.303   4.871   1.495 -0.5328  0.0311  1.7273
 5150SOL    HW320367   5.355   5.013   1.499 -0.4066  0.0238  0.5287
 5150SOL    MW420368   5.369   4.927   1.502 -0.3663  0.0241  0.3536
 5151SOL     OW20369   0.106   3.178   5.353  0.5255  0.2115  0.2871
 5151SOL    HW220370   0.147   3.199   5.437 -1.1642  0.1359  1.1781
 5151SOL    HW320371   0.176   3.139   5.301  1.2626 -1.2483  2.2354
 5151SOL    MW420372   0.120   3.176   5.358  0.3998  0.0089  0.6617
 5152SOL     OW20373   1.862   6.381   1.097 -0.0197  0.4998 -0.7765
 5152SOL    HW220374   1.835   6.322   1.167  0.2050  0.7510 -0.4749
 5152SOL    HW320375   1.821   6.465   1.119  0.4139  0.6966 -0.6997
 5152SOL    MW420376   1.853   6.384   1.109  0.0671  0.5589 -0.7266
 5153SOL     OW20377   1.683   0.601   3.139 -0.6887  0.8565  0.0518
 5153SOL    HW220378   1.775   0.612   3.160 -0.4678  1.1977 -0.9980
 5153SOL    HW320379   1.676   0.631   3.048 -1.9756  1.6078  0.3734
 5153SOL    MW420380   1.694   0.607   3.129 -0.8293  1.0007 -0.0443
 5154SOL     OW20381   5.520   4.595   5.895  0.0987 -0.3181  0.6781
 5154SOL    HW220382   5.498   4.595   5.801 -1.3407  0.6891  0.9824
 5154SOL    HW320383   5.550   4.506   5.912 -0.8403 -0.9007 -0.4829
 5154SOL    MW420384   5.521   4.583   5.885 -0.2151 -0.2621  0.5651
 5155SOL     OW20385   0.637   1.808   1.847 -0.1100 -0.0451  0.2152
 5155SOL    HW220386   0.635   1.837   1.756  0.7660  0.1402  0.2542
 5155SOL    HW320387   0.564   1.855   1.888 -0.1904  0.2624 -0.2673
 5155SOL    MW420388   0.627   1.818   1.840 -0.0050  0.0199  0.1567
 5156SOL     OW20389   4.928   4.768   6.377  0.2654  0.2401  0.1854
 5156SOL    HW220390   5.009   4.773   6.326  0.5728  0.2790  0.6693
 5156SOL    HW320391   4.858   4.779   6.312  0.6784  1.7187 -0.0373
 5156SOL    MW420392   4.930   4.770   6.361  0.3604  0.4403  0.2199
 5157SOL     OW20393   1.602   3.370   1.553 -0.0538 -0.3669  1.1215
 5157SOL    HW220394   1.601   3.466   1.560 -0.6947 -0.3597  0.9386
 5157SOL    HW320395   1.521   3.348   1.508  0.3809 -0.9557  0.6092
 5157SOL    MW420396   1.591   3.380   1.548 -0.0810 -0.4436  1.0298
 5158SOL     OW20397   5.239   4.128   3.396  0.8127 -0.0840 -0.0886
 5158SOL    HW220398   5.291   4.183   3.455 -0.6644  0.2169  1.0094
 5158SOL    HW320399   5.206   4.188   3.329  0.6525  0.0230  0.0852
 5158SOL    MW420400   5.241   4.143   3.395  0.5966 -0.0302  0.0792
 5159SOL     OW20401   5.002   4.139   1.871 -0.2846 -0.7705  0.4376
 5159SOL    HW220402   4.908   4.151   1.858 -0.2402 -0.9387 -0.0469
 5159SOL    HW320403   5.026   4.068   1.811  0.2810 -0.2298  0.0065
 5159SOL    MW420404   4.993   4.132   1.861 -0.2041 -0.7214  0.3168
 5160SOL     OW20405   2.341   3.454   1.614 -0.0380  0.5566  0.3144
 5160SOL    HW220406   2.334   3.361   1.637  0.7417  0.1226 -1.0826
 5160SOL    HW320407   2.260   3.493   1.647 -0.2594 -0.5524  1.1586
 5160SOL    MW420408   2.330   3.447   1.622  0.0356  0.3530  0.2415
 5161SOL     OW20409   4.315   1.117   1.003  0.0018 -0.2813  0.5339
 5161SOL    HW220410   4.315   1.193   0.945 -0.7722 -0.0633  0.8110
 5161SOL    HW320411   4.223   1.090   1.008  0.2885 -1.3728  0.2679
 5161SOL    MW420412   4.303   1.123   0.996 -0.0625 -0.3965  0.5354
 5162SOL     OW20413   2.882   0.572   3.438  0.1121  0.3847  0.4134
 5162SOL    HW220414   2.895   0.485   3.474 -2.0354 -0.0138  0.3461
 5162SOL    HW320415   2.852   0.625   3.513 -0.2591  0.6318  0.0921
 5162SOL    MW420416   2.880   0.568   3.453 -0.2202  0.3647  0.3621
 5163SOL     OW20417   5.451   0.368   3.645 -0.5342  0.1358  0.9778
 5163SOL    HW220418   5.386   0.438   3.640 -1.4461 -0.5610  2.5211
 5163SOL    HW320419   5.449   0.340   3.737 -1.5597 -3.1737  0.0644
 5163SOL    MW420420   5.442   0.374   3.657 -0.7898 -0.3928  1.0609
 5164SOL     OW20421   3.540   1.361   1.608 -0.0067  0.0151 -0.2779
 5164SOL    HW220422   3.525   1.266   1.613 -0.5280  0.0126 -1.5425
 5164SOL    HW320423   3.459   1.399   1.643  0.2553  0.0007  0.3539
 5164SOL    MW420424   3.527   1.353   1.613 -0.0409  0.0128 -0.3614
 5165SOL     OW20425   1.092   4.440   5.685  0.4486  0.2471  0.1317
 5165SOL    HW220426   1.104   4.427   5.591 -1.1394  0.8689 -0.1897
 5165SOL    HW320427   1.001   4.469   5.694  0.6728  0.5399  1.8318
 5165SOL    MW420428   1.081   4.442   5.674  0.2687  0.3678  0.3136
 5166SOL     OW20429   1.892   0.638   6.396  0.2244  0.4253  0.4606
 5166SOL    HW220430   1.810   0.648   6.446 -0.8636  1.7353 -1.4567
 5166SOL    HW320431   1.863   0.610   6.309  1.7939  1.3404 -0.3905
 5166SOL    MW420432   1.877   0.635   6.391  0.2880  0.7189  0.0954
 5167SOL     OW20433   4.093   5.361   0.393  0.0810  0.5924 -0.7220
 5167SOL    HW220434   4.081   5.269   0.420  2.7404  0.7992  1.6159
 5167SOL    HW320435   4.050   5.411   0.462  4.1875  1.0787  1.7903
 5167SOL    MW420436   4.085   5.355   0.406  0.9737  0.6838 -0.0820
 5168SOL     OW20437   4.146   3.925   2.155 -0.5731 -0.3133  0.6744
 5168SOL    HW220438   4.163   3.838   2.191  0.5528  0.1331  1.2533
 5168SOL    HW320439   4.229   3.972   2.164 -0.4619  0.0871 -1.7993
 5168SOL    MW420440   4.159   3.920   2.161 -0.4099 -0.2016  0.4244
 5169SOL     OW20441   5.222   5.748   5.035  0.4115  0.2166  0.2712
 5169SOL    HW220442   5.128   5.737   5.045  0.3834 -0.7744 -0.9151
 5169SOL    HW320443   5.259   5.726   5.121 -0.4304  0.6797  0.7574
 5169SOL    MW420444   5.215   5.744   5.048  0.2967  0.1469  0.1788
 5170SOL     OW20445   1.510   1.116   3.070 -0.1620 -0.3317 -0.0697
 5170SOL    HW220446   1.452   1.045   3.098  0.4502 -0.3005  1.4061
 5170SOL    HW320447   1.597   1.087   3.098  0.3956  0.0661 -1.3535
 5170SOL    MW420448   1.514   1.103   3.078 -0.0077 -0.2751 -0.0443
 5171SOL     OW20449   6.191   5.008   6.274  0.2697  0.0636 -0.6325
 5171SOL    HW220450   6.098   5.032   6.271  0.0700 -0.6869 -0.6664
 5171SOL    HW320451   6.209   4.970   6.188  0.0479 -1.7369  0.0750
 5171SOL    MW420452   6.181   5.006   6.262  0.2141 -0.2730 -0.5436
 5172SOL     OW20453   0.645   1.272   1.333 -0.5930  0.4258  0.0307
 5172SOL    HW220454   0.592   1.193   1.330 -0.4209  0.2969  0.4025
 5172SOL    HW320455   0.594   1.334   1.385 -0.5033  0.3910  0.1611
 5172SOL    MW420456   0.632   1.270   1.339 -0.5584  0.4042  0.0970
 5173SOL     OW20457   1.390   6.134   0.171 -0.0053 -0.7577  0.1909
 5173SOL    HW220458   1.477   6.141   0.210 -0.3667  0.8169  0.7742
 5173SOL    HW320459   1.331   6.120   0.246 -0.5470  0.8907  0.1008
 5173SOL    MW420460   1.394   6.133   0.186 -0.1244 -0.3324  0.2560
 5174SOL     OW20461   6.226   0.499   0.793  0.1773 -0.0744 -0.3146
 5174SOL    HW220462   6.152   0.521   0.737  0.0321 -0.1085 -0.1382
 5174SOL    HW320463   6.296   0.558   0.765 -0.6958  1.7952  1.2465
 5174SOL    MW420464   6.226   0.509   0.782  0.0429  0.1678 -0.0853
 5175SOL     OW20465   2.468   3.193   1.803 -0.3275  0.5284 -0.2430
 5175SOL    HW220466   2.559   3.213   1.826 -0.1680 -0.3198 -0.0923
 5175SOL    HW320467   2.448   3.113   1.852 -0.2934 -0.8073 -2.2643
 5175SOL    MW420468   2.477   3.185   1.812 -0.3020  0.2403 -0.4898
 5176SOL     OW20469   1.132   6.103   5.147 -0.0551  0.1938  0.5300
 5176SOL    HW220470   1.038   6.086   5.151 -0.3925  1.7346 -0.0835
 5176SOL    HW320471   1.159   6.068   5.062 -0.6699  2.1860 -0.5584
 5176SOL    MW420472   1.123   6.096   5.136 -0.1808  0.6599  0.3055
 5177SOL     OW20473   4.352   3.330   5.355 -0.2902  0.6718 -0.2719
 5177SOL    HW220474   4.311   3.383   5.423  0.3496  0.0896  0.6036
 5177SOL    HW320475   4.411   3.390   5.310 -0.6712  1.0500 -0.2650
 5177SOL    MW420476   4.355   3.345   5.358 -0.2560  0.6449 -0.1555
 5178SOL     OW20477   4.475   1.906   5.840 -0.1868  0.2132  0.2687
 5178SOL    HW220478   4.458   1.979   5.780  1.0653 -1.0551 -1.7710
 5178SOL    HW320479   4.408   1.841   5.818 -0.1549  0.0070  0.7677
 5178SOL    MW420480   4.464   1.907   5.829 -0.0174  0.0186  0.0654
 5179SOL     OW20481   2.502   2.877   3.205 -0.2364 -0.0655  0.2110
 5179SOL    HW220482   2.461   2.836   3.128 -1.0971  0.2124  0.5087
 5179SOL    HW320483   2.537   2.959   3.172  0.4514 -0.4865 -0.1336
 5179SOL    MW420484   2.501   2.882   3.190 -0.2592 -0.0844  0.2049
 5180SOL     OW20485   0.039   5.266   1.701 -0.4339 -0.2471 -0.1773
 5180SOL    HW220486   0.011   5.357   1.699  0.4987  0.0357 -1.7072
 5180SOL    HW320487   0.131   5.270   1.727 -0.5116 -0.8052  0.2049
 5180SOL    MW420488   0.047   5.278   1.704 -0.3211 -0.2834 -0.3288
 5181SOL     OW20489   1.610   5.196   5.778  0.1093  0.6269 -0.0624
 5181SOL    HW220490   1.612   5.233   5.867  1.6474 -0.3760  0.3660
 5181SOL    HW320491   1.674   5.125   5.781  0.5445  0.8774 -2.1166
 5181SOL    MW420492   1.619   5.192   5.790  0.3696  0.5277 -0.2769
 5182SOL     OW20493   3.081   0.054   4.581 -0.5314  0.1374 -0.3259
 5182SOL    HW220494   3.030   0.021   4.655 -0.4364  0.1778 -0.2407
 5182SOL    HW320495   3.169   0.066   4.617 -0.3376 -0.4182 -0.6025
 5182SOL    MW420496   3.086   0.051   4.596 -0.4933  0.0694 -0.3511
 5183SOL     OW20497   5.839   3.792   4.845 -0.2538 -0.3511 -0.1389
 5183SOL    HW220498   5.857   3.855   4.776 -1.1967 -2.1306 -2.1317
 5183SOL    HW320499   5.743   3.788   4.849 -0.3026 -3.2589 -1.7405
 5183SOL    MW420500   5.828   3.799   4.836 -0.3847 -0.9695 -0.6132
 5184SOL     OW20501   1.865   3.188   3.026  0.2766 -0.4117 -0.4223
 5184SOL    HW220502   1.773   3.198   3.003  0.5844  0.8036 -1.2110
 5184SOL    HW320503   1.877   3.093   3.035 -0.6863 -0.7038 -1.8289
 5184SOL    MW420504   1.854   3.177   3.024  0.1902 -0.2899 -0.7119
 5185SOL     OW20505   3.521   2.972   1.167  0.4257 -0.8469  0.3328
 5185SOL    HW220506   3.521   3.050   1.111  0.8678 -0.2844  1.0838
 5185SOL    HW320507   3.614   2.956   1.184  0.2936 -0.8657  1.0749
 5185SOL    MW420508   3.533   2.980   1.162  0.4666 -0.7751  0.5298
 5186SOL     OW20509   0.301   3.880   4.527 -0.1653 -0.3634  0.6378
 5186SOL    HW220510   0.322   3.895   4.435 -1.2396 -0.5982  0.3412
 5186SOL    HW320511   0.359   3.939   4.575  0.4324 -0.2676 -0.1830
 5186SOL    MW420512   0.311   3.890   4.522 -0.2282 -0.3817  0.4904
 5187SOL     OW20513   2.966   0.818   5.980  0.2107 -0.5352  0.1175
 5187SOL    HW220514   2.909   0.745   5.958  1.2432 -1.0343 -1.0445
 5187SOL    HW320515   3.023   0.785   6.050  0.9741 -1.0277 -0.7126
 5187SOL    MW420516   2.966   0.804   5.986  0.4477 -0.6661 -0.1453
 5188SOL     OW20517   1.735   0.869   6.137 -0.1146  0.2173  0.1901
 5188SOL    HW220518   1.728   0.774   6.146  0.5112  0.2191  0.7771
 5188SOL    HW320519   1.800   0.882   6.068  1.3128  0.1980  1.4690
 5188SOL    MW420520   1.743   0.858   6.129  0.1563  0.2150  0.4363
 5189SOL     OW20521   6.391   0.246   6.349 -0.0667 -0.6962 -0.0080
 5189SOL    HW220522   6.306   0.226   6.310 -0.2984 -1.0622  0.6747
 5189SOL    HW320523   6.403   0.179   6.416 -0.1748  0.5434  1.3122
 5189SOL    MW420524   6.381   0.235   6.353 -0.1115 -0.5810  0.2562
 5190SOL     OW20525   3.706   0.647   3.339  0.3935  0.4910  0.1592
 5190SOL    HW220526   3.615   0.655   3.312  1.2302  0.5068 -3.1213
 5190SOL    HW320527   3.712   0.561   3.379 -0.8771  0.0696 -0.5001
 5190SOL    MW420528   3.695   0.637   3.340  0.3363  0.4375 -0.3606
 5191SOL     OW20529   1.254   1.968   2.891 -0.3626  0.2023  0.3088
 5191SOL    HW220530   1.173   1.932   2.855  0.0550  0.8427 -1.3895
 5191SOL    HW320531   1.226   2.044   2.941 -0.7057  2.0868 -2.5167
 5191SOL    MW420532   1.240   1.973   2.893 -0.3528  0.5354 -0.2881
 5192SOL     OW20533   4.022   1.875   2.852 -0.2817  0.2744 -0.4916
 5192SOL    HW220534   4.073   1.814   2.904  0.0064  1.1531  0.2898
 5192SOL    HW320535   4.077   1.894   2.776 -0.1345  0.0094 -0.4524
 5192SOL    MW420536   4.036   1.870   2.849 -0.2243  0.3554 -0.3833
 5193SOL     OW20537   2.467   5.569   4.293  0.0058 -0.0967  0.0097
 5193SOL    HW220538   2.535   5.502   4.301 -1.3494 -1.4549  0.6357
 5193SOL    HW320539   2.402   5.531   4.235  0.1744  1.5725 -1.3584
 5193SOL    MW420540   2.468   5.555   4.287 -0.1508 -0.0556 -0.0883
 5194SOL     OW20541   1.543   2.573   2.489 -0.4191 -0.7144 -0.3379
 5194SOL    HW220542   1.568   2.664   2.507  0.5567 -1.0400  0.0009
 5194SOL    HW320543   1.451   2.569   2.515 -0.5903  0.2725 -0.7284
 5194SOL    MW420544   1.534   2.585   2.495 -0.3130 -0.6272 -0.3447
 5195SOL     OW20545   1.252   4.398   3.259  0.1578  0.3282 -0.1984
 5195SOL    HW220546   1.226   4.307   3.244  0.3143  0.4790 -1.5525
 5195SOL    HW320547   1.210   4.422   3.341 -0.3602 -0.7903 -0.1172
 5195SOL    MW420548   1.243   4.389   3.268  0.1101  0.2005 -0.3663
 5196SOL     OW20549   1.728   4.389   0.482  0.1028  0.0589  0.2022
 5196SOL    HW220550   1.726   4.356   0.393 -0.6493  0.4342  0.0796
 5196SOL    HW320551   1.813   4.433   0.489  0.9145 -1.4672  0.2233
 5196SOL    MW420552   1.739   4.391   0.471  0.1107 -0.0929  0.1888
 5197SOL     OW20553   3.711   1.820   5.766  0.4648 -0.7606  0.5176
 5197SOL    HW220554   3.725   1.803   5.859  1.2431 -2.1335  0.1795
 5197SOL    HW320555   3.705   1.915   5.760 -0.9547 -0.6883  2.1346
 5197SOL    MW420556   3.712   1.830   5.778  0.3802 -0.9322  0.6863
 5198SOL     OW20557   6.243   1.724   1.756 -0.7188  0.7128 -0.3283
 5198SOL    HW220558   6.231   1.721   1.661  0.8632  0.1847 -0.5410
 5198SOL    HW320559   6.338   1.725   1.768 -0.8983  1.0563  1.2483
 5198SOL    MW420560   6.254   1.724   1.745 -0.5338  0.6885 -0.1484
 5199SOL     OW20561   0.143   1.020   3.733 -0.1736 -0.1958 -0.5369
 5199SOL    HW220562   0.094   0.939   3.751  0.0228 -0.1718  0.1535
 5199SOL    HW320563   0.233   0.991   3.718 -0.0495 -0.0870 -0.0225
 5199SOL    MW420564   0.148   1.005   3.734 -0.1313 -0.1783 -0.3779
 5200SOL     OW20565   2.666   3.765   1.810 -0.5789 -0.0205 -0.6690
 5200SOL    HW220566   2.671   3.799   1.721 -0.9038  0.2785 -0.5721
 5200SOL    HW320567   2.657   3.842   1.865 -0.8789 -0.2347 -0.4148
 5200SOL    MW420568   2.666   3.779   1.806 -0.6613 -0.0093 -0.6227
 5201SOL     OW20569   2.133   1.639   3.194  0.8209  0.1265  0.1606
 5201SOL    HW220570   2.094   1.592   3.267  0.3013 -2.1566 -1.4725
 5201SOL    HW320571   2.109   1.587   3.117  1.8159  2.1099 -1.5763
 5201SOL    MW420572   2.125   1.626   3.193  0.8836  0.0869 -0.2840
 5202SOL     OW20573   4.556   1.092   5.767 -0.0552 -0.6991 -0.1976
 5202SOL    HW220574   4.544   1.019   5.827  1.8006 -1.0782 -0.2415
 5202SOL    HW320575   4.582   1.052   5.685 -1.9944 -0.1422 -1.1520
 5202SOL    MW420576   4.558   1.077   5.764 -0.0662 -0.6757 -0.3293
 5203SOL     OW20577   4.070   4.589   4.459 -0.3624 -0.3645 -0.2274
 5203SOL    HW220578   4.056   4.537   4.538  0.8124 -1.5449 -0.7524
 5203SOL    HW320579   4.130   4.658   4.486 -1.6751  0.5589  0.4015
 5203SOL    MW420580   4.076   4.591   4.473 -0.3806 -0.3984 -0.2137
 5204SOL     OW20581   3.854   1.855   1.501  0.4840 -0.5514  0.2435
 5204SOL    HW220582   3.927   1.837   1.442  0.3995  0.4802 -0.1982
 5204SOL    HW320583   3.893   1.853   1.589  0.4201 -3.0834  0.2819
 5204SOL    MW420584   3.869   1.853   1.505  0.4644 -0.7493  0.1903
 5205SOL     OW20585   1.379   3.040   1.960  0.5261 -0.1267  0.0174
 5205SOL    HW220586   1.307   3.100   1.938  1.4035  0.2443 -1.9728
 5205SOL    HW320587   1.407   3.068   2.047 -1.3866  0.0421  0.6330
 5205SOL    MW420588   1.373   3.052   1.969  0.3895 -0.0555 -0.1640
 5206SOL     OW20589   5.473   1.461   4.450  0.0577  0.2051 -0.0433
 5206SOL    HW220590   5.544   1.509   4.407 -0.1171  0.6145  0.1222
 5206SOL    HW320591   5.473   1.493   4.540  0.1526 -0.3496  0.1603
 5206SOL    MW420592   5.482   1.472   4.456  0.0472  0.1860  0.0054
 5207SOL     OW20593   1.347   5.234   4.635  0.0494 -0.1395  0.3953
 5207SOL    HW220594   1.407   5.231   4.560 -0.1941 -0.6692  0.2203
 5207SOL    HW320595   1.373   5.160   4.690 -0.9705 -0.8681 -0.0854
 5207SOL    MW420596   1.359   5.224   4.632 -0.1173 -0.3055  0.3088
 5208SOL     OW20597   4.160   2.652   2.304  0.3863  0.2016 -0.3156
 5208SOL    HW220598   4.240   2.606   2.283  0.6791  0.2801  0.5918
 5208SOL    HW320599   4.095   2.618   2.243  1.5025  1.4155 -2.2804
 5208SOL    MW420600   4.162   2.642   2.293  0.5722  0.3722 -0.4551
 5209SOL     OW20601   4.065   5.045   4.363  0.1436  0.8704 -0.2583
 5209SOL    HW220602   4.110   4.969   4.401  0.0278  0.1188 -1.5612
 5209SOL    HW320603   4.048   5.102   4.437  1.5018  0.2749  0.5573
 5209SOL    MW420604   4.069   5.042   4.377  0.3075  0.6926 -0.3226
 5210SOL     OW20605   3.753   5.274   5.516  0.0069 -0.0038 -0.0391
 5210SOL    HW220606   3.719   5.237   5.435 -2.8396  0.3724  0.8917
 5210SOL    HW320607   3.807   5.203   5.553  0.3427 -0.6151 -1.6248
 5210SOL    MW420608   3.756   5.260   5.510 -0.3244 -0.0348 -0.1255
 5211SOL     OW20609   3.810   3.396   4.823  0.4350  0.0048 -0.1610
 5211SOL    HW220610   3.792   3.409   4.729  1.0482 -0.0566 -0.2907
 5211SOL    HW320611   3.853   3.311   4.828 -0.7002 -0.5646  0.3293
 5211SOL    MW420612   3.813   3.386   4.811  0.3662 -0.0784 -0.1134
 5212SOL     OW20613   4.742   3.935   4.278 -0.0717  0.5123  0.0764
 5212SOL    HW220614   4.746   4.029   4.260  1.5102  0.8001  1.6748
 5212SOL    HW320615   4.677   3.927   4.348  0.3297  0.5031  0.4472
 5212SOL    MW420616   4.734   3.946   4.285  0.1900  0.5491  0.3362
 5213SOL     OW20617   5.864   5.077   4.543 -0.4866 -0.2139  0.1678
 5213SOL    HW220618   5.827   5.063   4.456  0.3000 -0.6739 -0.1002
 5213SOL    HW320619   5.831   5.004   4.596  1.4499 -1.6785 -0.5389
 5213SOL    MW420620   5.855   5.066   4.539 -0.1273 -0.4678  0.0392
 5214SOL     OW20621   3.506   5.510   0.958 -0.4213 -0.1755 -0.8668
 5214SOL    HW220622   3.417   5.522   0.924 -0.5788 -0.4673 -0.5552
 5214SOL    HW320623   3.494   5.475   1.046 -0.0052  0.4714 -0.5485
 5214SOL    MW420624   3.493   5.507   0.965 -0.3872 -0.1286 -0.7837
 5215SOL     OW20625   5.887   1.633   1.236  0.5988  0.0353 -0.2022
 5215SOL    HW220626   5.907   1.564   1.300  1.4147  1.0936  0.7242
 5215SOL    HW320627   5.858   1.585   1.158 -0.7027 -1.3052  1.0128
 5215SOL    MW420628   5.886   1.617   1.234  0.5348 -0.0020  0.0804
 5216SOL     OW20629   3.483   2.364   2.122 -0.6475  0.7969  0.3955
 5216SOL    HW220630   3.533   2.349   2.202 -1.3859 -0.2032  0.6851
 5216SOL    HW320631   3.397   2.393   2.153 -0.7023  1.1372 -0.0646
 5216SOL    MW420632   3.478   2.366   2.137 -0.7521  0.7099  0.3730
 5217SOL     OW20633   2.482   1.806   2.951 -1.0396  0.6263 -0.0973
 5217SOL    HW220634   2.487   1.888   3.001 -2.0512  1.5548 -1.4227
 5217SOL    HW320635   2.569   1.795   2.914 -0.8792  1.0936  0.1306
 5217SOL    MW420636   2.494   1.816   2.953 -1.1519  0.8105 -0.2421
 5218SOL     OW20637   2.015   0.977   5.115 -0.4758  0.4751 -0.4057
 5218SOL    HW220638   1.945   1.014   5.168  0.1776  2.0177 -0.5664
 5218SOL    HW320639   2.072   0.934   5.178  0.0440  1.8884  0.1342
 5218SOL    MW420640   2.013   0.976   5.130 -0.3210  0.8651 -0.3557
 5219SOL     OW20641   3.654   4.038   2.367 -0.2912 -0.4110  0.1864
 5219SOL    HW220642   3.627   4.098   2.297  0.6376  0.1293  0.2783
 5219SOL    HW320643   3.658   3.952   2.324 -1.1670 -0.3334 -0.0606
 5219SOL    MW420644   3.651   4.034   2.352 -0.2842 -0.3295  0.1659
 5220SOL     OW20645   4.051   5.668   0.358 -0.2012 -0.0789 -0.5424
 5220SOL    HW220646   4.029   5.699   0.270 -0.0695  0.8608 -0.2575
 5220SOL    HW320647   4.122   5.726   0.386  0.3137 -0.8923 -0.1323
 5220SOL    MW420648   4.058   5.680   0.350 -0.1159 -0.0622 -0.4507
 5221SOL     OW20649   3.109   2.490   3.848 -0.4907  0.3439  0.0178
 5221SOL    HW220650   3.039   2.492   3.782 -1.0563  0.3538  0.6162
 5221SOL    HW320651   3.080   2.550   3.916 -1.9581 -2.6945  2.3132
 5221SOL    MW420652   3.096   2.498   3.848 -0.7589 -0.0557  0.3996
 5222SOL     OW20653   0.461   1.425   3.031  0.7721 -0.1252  0.1570
 5222SOL    HW220654   0.517   1.372   2.975 -0.6168 -0.1031 -1.3243
 5222SOL    HW320655   0.422   1.363   3.092 -0.3330 -0.7623 -1.1395
 5222SOL    MW420656   0.463   1.410   3.031  0.4430 -0.2063 -0.2095
 5223SOL     OW20657   0.522   5.008   3.004  0.1107 -0.2401 -0.3659
 5223SOL    HW220658   0.573   5.075   2.957  0.3997  1.0834  1.7361
 5223SOL    HW320659   0.588   4.945   3.034  0.3008  0.4198  0.6468
 5223SOL    MW420660   0.538   5.008   3.002  0.1739  0.0216  0.0451
 5224SOL     OW20661   0.552   4.570   0.597  0.0579 -0.0758  0.0232
 5224SOL    HW220662   0.623   4.527   0.645 -0.0001  0.8217  0.9310
 5224SOL    HW320663   0.477   4.510   0.606  0.0126  0.1497  1.1637
 5224SOL    MW420664   0.551   4.556   0.604  0.0443  0.0724  0.2935
 5225SOL     OW20665   3.291   1.742   0.666 -0.1547 -0.0846  0.2547
 5225SOL    HW220666   3.288   1.692   0.585  2.7018 -1.0475  0.6550
 5225SOL    HW320667   3.248   1.686   0.731 -1.5340  0.2578 -0.3225
 5225SOL    MW420668   3.285   1.728   0.664  0.0402 -0.1664  0.2314
 5226SOL     OW20669   4.612   1.074   1.000  0.5866 -0.0996  0.1121
 5226SOL    HW220670   4.518   1.092   0.996  0.4807 -0.8636 -1.3222
 5226SOL    HW320671   4.625   1.034   1.086 -0.2057  0.9958  0.7653
 5226SOL    MW420672   4.601   1.071   1.011  0.4681 -0.0559  0.0090
 5227SOL     OW20673   5.216   0.649   2.199 -0.2248  0.0432  0.2081
 5227SOL    HW220674   5.204   0.742   2.217  0.0920 -0.2492  2.1955
 5227SOL    HW320675   5.211   0.607   2.285 -1.6658 -1.9464 -0.7552
 5227SOL    MW420676   5.214   0.656   2.213 -0.3731 -0.2579  0.3432
 5228SOL     OW20677   4.853   0.115   2.813 -0.3088 -0.1984 -0.1236
 5228SOL    HW220678   4.757   0.120   2.819 -0.3493 -0.6258 -0.3279
 5228SOL    HW320679   4.876   0.039   2.867  0.0337  0.6191  0.8989
 5228SOL    MW420680   4.843   0.106   2.821 -0.2690 -0.1469 -0.0157
 5229SOL     OW20681   4.567   0.955   1.293  0.2056  0.1641 -0.1462
 5229SOL    HW220682   4.475   0.936   1.308  0.1986 -0.0707 -0.4712
 5229SOL    HW320683   4.585   1.031   1.348  0.3673 -1.0637  1.5804
 5229SOL    MW420684   4.557   0.963   1.302  0.2260 -0.0289  0.0387
 5230SOL     OW20685   2.826   1.464   6.211 -0.0350  0.1189 -0.0920
 5230SOL    HW220686   2.917   1.480   6.237  0.1193  1.2749 -1.2352
 5230SOL    HW320687   2.774   1.507   6.279  0.1838 -1.9168  1.4561
 5230SOL    MW420688   2.831   1.472   6.224  0.0142  0.0029 -0.0386
 5231SOL     OW20689   5.171   4.303   4.521 -0.0191  0.0620  0.0692
 5231SOL    HW220690   5.185   4.378   4.579  1.5374 -0.5492  0.5482
 5231SOL    HW320691   5.120   4.241   4.573  0.0476  0.1467  0.2352
 5231SOL    MW420692   5.166   4.305   4.535  0.1950 -0.0074  0.1543
 5232SOL     OW20693   2.555   5.221   5.168  0.8114 -0.2179 -0.4292
 5232SOL    HW220694   2.602   5.152   5.216  0.0937  0.7250  1.8013
 5232SOL    HW320695   2.583   5.302   5.210 -0.4550  0.6096 -1.1242
 5232SOL    MW420696   2.565   5.223   5.180  0.5497  0.0157 -0.2266
 5233SOL     OW20697   5.178   2.883   5.834 -0.2497 -0.1152 -0.0979
 5233SOL    HW220698   5.208   2.846   5.750 -2.1438  0.4112 -1.0618
 5233SOL    HW320699   5.258   2.916   5.875  0.8088 -0.9057 -1.4248
 5233SOL    MW420700   5.192   2.882   5.828 -0.3599 -0.1500 -0.4001
 5234SOL     OW20701   3.134   3.873   2.396 -0.3539 -0.0348  0.1612
 5234SOL    HW220702   3.206   3.924   2.358  0.4495 -1.1444  0.1534
 5234SOL    HW320703   3.178   3.806   2.449 -1.4259  0.5258  1.8172
 5234SOL    MW420704   3.150   3.871   2.398 -0.3893 -0.1072  0.3787
 5235SOL     OW20705   1.170   3.389   5.262 -0.4311  0.4837  0.6951
 5235SOL    HW220706   1.226   3.337   5.204 -0.8896  0.8399 -0.0922
 5235SOL    HW320707   1.229   3.426   5.326 -0.1861 -1.7326  1.8515
 5235SOL    MW420708   1.185   3.387   5.262 -0.4593  0.2383  0.7438
 5236SOL     OW20709   3.855   3.423   0.753  0.8876 -0.6304 -0.2305
 5236SOL    HW220710   3.859   3.404   0.846 -0.3244 -0.1574 -0.0553
 5236SOL    HW320711   3.843   3.337   0.711 -3.5136 -0.5995  0.4731
 5236SOL    MW420712   3.854   3.409   0.760  0.1470 -0.5639 -0.1146
 5237SOL     OW20713   4.235   3.041   1.733 -0.0050 -0.0712  0.6890
 5237SOL    HW220714   4.193   3.011   1.813 -1.0588  0.1886  0.2482
 5237SOL    HW320715   4.242   2.962   1.679  1.8063 -0.5008  1.4722
 5237SOL    MW420716   4.230   3.026   1.736  0.0950 -0.0936  0.7342
 5238SOL     OW20717   3.251   5.590   1.154  0.0845 -0.0958 -0.1035
 5238SOL    HW220718   3.259   5.616   1.062  0.4677  0.3466  0.0555
 5238SOL    HW320719   3.254   5.495   1.152 -0.4223 -0.1067 -0.6011
 5238SOL    MW420720   3.252   5.581   1.142  0.0682 -0.0389 -0.1482
 5239SOL     OW20721   1.920   3.497   5.713 -0.7764 -0.6437 -0.0848
 5239SOL    HW220722   1.842   3.496   5.770 -0.8892 -0.2272 -0.2290
 5239SOL    HW320723   1.947   3.405   5.709  0.3422 -0.4737  2.1468
 5239SOL    MW420724   1.913   3.485   5.720 -0.6437 -0.5664  0.1906
 5240SOL     OW20725   2.757   2.699   6.054 -0.1916  0.1832  0.3400
 5240SOL    HW220726   2.688   2.666   5.996  0.0471  1.7617 -0.9404
 5240SOL    HW320727   2.833   2.709   5.996 -0.0792  2.2519  0.7624
 5240SOL    MW420728   2.758   2.696   6.038 -0.1453  0.6644  0.2268
 5241SOL     OW20729   6.106   4.998   1.779 -0.6026 -0.0551  0.3253
 5241SOL    HW220730   6.170   5.009   1.709 -0.9202 -2.0253 -0.3192
 5241SOL    HW320731   6.152   4.948   1.846 -0.8475  0.2925  0.7573
 5241SOL    MW420732   6.121   4.993   1.779 -0.6768 -0.2692  0.2973
 5242SOL     OW20733   2.123   1.112   3.266  0.3921  0.0400 -0.2685
 5242SOL    HW220734   2.034   1.142   3.288  0.2798  0.5669 -1.3199
 5242SOL    HW320735   2.145   1.162   3.187  2.0977  0.7894  0.6344
 5242SOL    MW420736   2.114   1.123   3.258  0.6023  0.2084 -0.2881
 5243SOL     OW20737   0.755   0.608   4.907 -0.2150 -0.1075  0.0075
 5243SOL    HW220738   0.836   0.564   4.883  0.6685  1.8243 -0.7562
 5243SOL    HW320739   0.715   0.551   4.973  1.3714 -1.4685 -0.1454
 5243SOL    MW420740   0.760   0.595   4.913  0.1109 -0.0322 -0.1134
 5244SOL     OW20741   3.682   0.834   6.356 -0.0586  0.5280 -0.8743
 5244SOL    HW220742   3.686   0.759   6.415  2.2523 -0.0704 -1.6896
 5244SOL    HW320743   3.589   0.845   6.337 -0.6018 -1.0073  0.6318
 5244SOL    MW420744   3.670   0.826   6.361  0.1746  0.2465 -0.7832
 5245SOL     OW20745   0.442   5.708   0.428 -0.0312 -0.3598  0.0217
 5245SOL    HW220746   0.454   5.708   0.523 -1.4204 -1.9747  0.2260
 5245SOL    HW320747   0.487   5.629   0.398 -2.8542 -2.0329 -0.1410
 5245SOL    MW420748   0.450   5.698   0.437 -0.5870 -0.7936  0.0272
 5246SOL     OW20749   3.925   5.688   4.064 -0.3608 -0.3659 -0.4315
 5246SOL    HW220750   3.883   5.757   4.011 -1.8651  0.2760  1.4960
 5246SOL    HW320751   4.001   5.731   4.102 -0.9406  0.0564  0.2629
 5246SOL    MW420752   3.930   5.703   4.062 -0.6358 -0.2255 -0.0856
 5247SOL     OW20753   3.952   6.040   5.172 -0.0757 -0.2989 -0.0074
 5247SOL    HW220754   4.044   6.053   5.148 -0.5937  1.3835 -1.2754
 5247SOL    HW320755   3.953   6.029   5.267  1.7799 -4.3097 -0.2666
 5247SOL    MW420756   3.964   6.040   5.181  0.1008 -0.6061 -0.2089
 5248SOL     OW20757   1.217   1.140   0.554  0.1530 -0.2020 -0.2084
 5248SOL    HW220758   1.186   1.215   0.604  0.9335  0.2895 -0.4429
 5248SOL    HW320759   1.206   1.065   0.613  1.0227  0.3648  0.7016
 5248SOL    MW420760   1.211   1.140   0.569  0.3707 -0.0624 -0.1193
 5249SOL     OW20761   5.824   5.018   5.069  0.0120 -0.6646  0.8695
 5249SOL    HW220762   5.919   5.023   5.061 -0.0187  0.9642  1.3215
 5249SOL    HW320763   5.808   4.934   5.112  1.1782 -1.3452  0.0300
 5249SOL    MW420764   5.835   5.007   5.074  0.1618 -0.5395  0.8184
 5250SOL     OW20765   3.508   5.669   1.658 -0.0287  0.1079 -0.1920
 5250SOL    HW220766   3.552   5.746   1.622  0.0804 -0.0893 -0.4816
 5250SOL    HW320767   3.534   5.598   1.600  1.3769 -0.5176  1.1372
 5250SOL    MW420768   3.517   5.670   1.646  0.1712 -0.0006 -0.0549
 5251SOL     OW20769   3.364   6.126   2.288 -0.0164 -0.7519 -0.6273
 5251SOL    HW220770   3.352   6.179   2.209  1.2460  0.9522  0.2572
 5251SOL    HW320771   3.457   6.135   2.309 -0.6811  0.6066  2.2158
 5251SOL    MW420772   3.375   6.134   2.280  0.0625 -0.3478 -0.1355
 5252SOL     OW20773   0.468   4.667   2.878 -0.0388 -0.5337  0.5088
 5252SOL    HW220774   0.493   4.626   2.961 -0.6902 -0.4321  0.7610
 5252SOL    HW320775   0.402   4.608   2.841  0.9488 -1.1085 -0.4330
 5252SOL    MW420776   0.463   4.654   2.884  0.0055 -0.5961  0.4178
 5253SOL     OW20777   5.841   1.397   4.292 -0.2697 -0.2437  0.1123
 5253SOL    HW220778   5.921   1.399   4.240  0.5282  1.2486  1.3320
 5253SOL    HW320779   5.867   1.359   4.375 -0.8318  0.2303  0.5118
 5253SOL    MW420780   5.855   1.392   4.296 -0.2386  0.0157  0.3259
 5254SOL     OW20781   6.280   4.418   2.976  0.5647  0.2678  0.0896
 5254SOL    HW220782   6.336   4.479   2.930 -0.3671  0.4088 -0.8922
 5254SOL    HW320783   6.324   4.333   2.969  1.5843  0.7025  0.9810
 5254SOL    MW420784   6.293   4.415   2.969  0.5763  0.3438  0.0777
 5255SOL     OW20785   4.426   4.656   0.687  0.4960 -0.1516 -0.6716
 5255SOL    HW220786   4.468   4.714   0.750  0.8839 -0.9300 -0.2070
 5255SOL    HW320787   4.491   4.589   0.669 -0.1978 -0.8331 -0.6686
 5255SOL    MW420788   4.440   4.655   0.693  0.4556 -0.3442 -0.6099
 5256SOL     OW20789   3.659   3.000   4.508  0.1731 -0.0452  0.3869
 5256SOL    HW220790   3.684   2.926   4.452  0.6167  1.0226 -0.8724
 5256SOL    HW320791   3.566   2.986   4.527 -0.4193  0.3251 -1.9043
 5256SOL    MW420792   3.650   2.988   4.503  0.1535  0.1445 -0.0815
 5257SOL     OW20793   3.563   5.514   0.484  0.1566 -0.3751 -0.2021
 5257SOL    HW220794   3.600   5.450   0.423  0.5014 -1.0813  0.7252
 5257SOL    HW320795   3.470   5.494   0.485  0.2484 -0.8157  0.0156
 5257SOL    MW420796   3.556   5.503   0.476  0.2142 -0.5264 -0.0510
 5258SOL     OW20797   3.101   5.794   6.335  0.1647 -0.3580 -0.5877
 5258SOL    HW220798   3.038   5.725   6.356  1.6902 -1.5246  0.3923
 5258SOL    HW320799   3.071   5.870   6.384 -0.4722 -0.9004 -0.1152
 5258SOL    MW420800   3.089   5.795   6.344  0.2819 -0.5835 -0.3961
 5259SOL     OW20801   3.164   3.969   0.603 -1.1009  0.1217 -0.1063
 5259SOL    HW220802   3.110   3.927   0.670 -0.8431 -1.7273 -0.9874
 5259SOL    HW320803   3.156   3.912   0.526  0.2542  1.0559 -0.9876
 5259SOL    MW420804   3.156   3.956   0.602 -0.8881  0.0010 -0.3389
 5260SOL     OW20805   5.414   0.817   0.051  0.0486  0.1707 -0.0182
 5260SOL    HW220806   5.486   0.875   0.027 -0.4030  1.0667  0.7341
 5260SOL    HW320807   5.451   0.729   0.047  0.4696  0.3788 -2.2795
 5260SOL    MW420808   5.428   0.813   0.047  0.0446  0.3164 -0.2173
 5261SOL     OW20809   0.516   4.233   5.755  0.3454 -0.6805 -0.5116
 5261SOL    HW220810   0.587   4.168   5.752 -0.4428 -1.8527  2.2240
 5261SOL    HW320811   0.453   4.202   5.691  0.7057 -1.7494 -0.3797
 5261SOL    MW420812   0.517   4.220   5.746  0.2889 -0.9762 -0.1333
 5262SOL     OW20813   2.815   3.575   6.327  0.1711 -0.2562 -0.2423
 5262SOL    HW220814   2.810   3.668   6.348  0.2667 -0.4512  0.6921
 5262SOL    HW320815   2.905   3.550   6.348 -0.3167 -0.9284  1.2567
 5262SOL    MW420816   2.826   3.584   6.333  0.1193 -0.3706  0.0788
 5263SOL     OW20817   0.501   2.672   1.593  0.3302  0.2066  0.4326
 5263SOL    HW220818   0.480   2.683   1.500  0.9990 -1.0917  0.0957
 5263SOL    HW320819   0.456   2.591   1.617  1.1505 -0.1105  0.9159
 5263SOL    MW420820   0.492   2.662   1.584  0.5267 -0.0065  0.4519
 5264SOL     OW20821   3.286   5.871   1.650  0.9700  0.7941  0.1710
 5264SOL    HW220822   3.307   5.873   1.557 -2.8445 -0.2935 -0.8972
 5264SOL    HW320823   3.358   5.824   1.690  1.7963 -0.4725 -2.5623
 5264SOL    MW420824   3.298   5.865   1.643  0.5757  0.4835 -0.3305
 5265SOL     OW20825   0.842   4.243   5.896 -0.2359 -0.0181  0.2460
 5265SOL    HW220826   0.781   4.269   5.966 -0.1567  1.4802 -0.2155
 5265SOL    HW320827   0.833   4.312   5.830  0.6221 -0.7539 -0.6577
 5265SOL    MW420828   0.833   4.256   5.897 -0.1122  0.0825  0.0659
 5266SOL     OW20829   5.756   2.013   3.982  0.4075  0.4551  0.3367
 5266SOL    HW220830   5.742   1.923   3.955  0.5711  0.5447 -0.0508
 5266SOL    HW320831   5.742   2.012   4.077  0.1531  0.0766  0.2966
 5266SOL    MW420832   5.752   2.001   3.991  0.3955  0.4170  0.2803
 5267SOL     OW20833   3.931   0.645   5.157 -0.4823  0.5243  0.2451
 5267SOL    HW220834   3.996   0.622   5.091 -1.2496  1.2306 -0.7943
 5267SOL    HW320835   3.892   0.726   5.124 -0.2972  1.3796  2.0073
 5267SOL    MW420836   3.935   0.652   5.144 -0.5591  0.7304  0.3405
 5268SOL     OW20837   5.733   1.475   1.654 -0.3275 -0.4205 -0.1995
 5268SOL    HW220838   5.763   1.416   1.723  0.4315 -1.3450 -1.2871
 5268SOL    HW320839   5.707   1.555   1.701  0.7146 -0.8019  1.0997
 5268SOL    MW420840   5.733   1.478   1.670 -0.0898 -0.5928 -0.1716
 5269SOL     OW20841   4.269   4.196   2.796 -0.5486 -0.4302 -0.1218
 5269SOL    HW220842   4.351   4.227   2.835 -1.2734 -0.2807  1.3346
 5269SOL    HW320843   4.266   4.239   2.710  0.5176  0.1783  0.1215
 5269SOL    MW420844   4.280   4.206   2.790 -0.5035 -0.3302  0.1025
 5270SOL     OW20845   3.125   4.294   0.862  0.0469  0.0755  0.1866
 5270SOL    HW220846   3.215   4.290   0.830 -0.3009 -1.4154 -0.6529
 5270SOL    HW320847   3.085   4.364   0.810  0.6225  0.5307  0.3421
 5270SOL    MW420848   3.131   4.303   0.851  0.0769 -0.0611  0.0963
 5271SOL     OW20849   0.706   2.985   5.942 -0.3291 -0.0413 -0.2740
 5271SOL    HW220850   0.625   2.987   5.993 -1.0086 -0.5208 -1.3154
 5271SOL    HW320851   0.764   2.929   5.992 -0.1976  1.2350  1.0942
 5271SOL    MW420852   0.703   2.978   5.955 -0.4014  0.0638 -0.2309
 5272SOL     OW20853   4.478   6.206   0.710  0.0855  0.3869  0.0791
 5272SOL    HW220854   4.533   6.283   0.698  2.4046 -0.6966  2.7605
 5272SOL    HW320855   4.520   6.137   0.659  0.0672  0.0526  0.5055
 5272SOL    MW420856   4.491   6.207   0.702  0.3890  0.1998  0.4892
 5273SOL     OW20857   1.517   4.664   2.443  0.7517  0.3477  0.3476
 5273SOL    HW220858   1.443   4.704   2.396  0.1944 -0.4055  0.5652
 5273SOL    HW320859   1.486   4.653   2.533  0.4562 -1.5814  0.0620
 5273SOL    MW420860   1.503   4.668   2.449  0.6392 -0.0062  0.3386
 5274SOL     OW20861   6.300   2.445   4.132 -0.3294  0.3819 -0.0040
 5274SOL    HW220862   6.348   2.477   4.208 -0.8138 -0.4830  0.6901
 5274SOL    HW320863   6.222   2.500   4.127 -0.6203  0.0275  0.5300
 5274SOL    MW420864   6.296   2.456   4.141 -0.4317  0.2211  0.1580
 5275SOL     OW20865   4.380   0.951   4.005 -0.3210 -0.0123  0.4268
 5275SOL    HW220866   4.412   0.912   3.924 -0.3938  0.8228 -0.0174
 5275SOL    HW320867   4.447   0.930   4.070  0.4184  0.4813 -0.1616
 5275SOL    MW420868   4.393   0.943   4.003 -0.2331  0.1630  0.2905
 5276SOL     OW20869   1.766   2.983   6.059 -0.7138 -0.0946 -0.2416
 5276SOL    HW220870   1.730   3.034   5.987 -0.6693 -1.1629 -1.0589
 5276SOL    HW320871   1.711   2.905   6.063  0.5361 -1.0303 -0.4944
 5276SOL    MW420872   1.754   2.979   6.050 -0.5430 -0.3590 -0.3828
 5277SOL     OW20873   2.639   0.738   5.296 -0.4980 -0.8446 -0.9307
 5277SOL    HW220874   2.710   0.691   5.339 -0.3386  1.5983  1.7845
 5277SOL    HW320875   2.588   0.669   5.252  0.9543 -3.2452  0.8795
 5277SOL    MW420876   2.641   0.722   5.296 -0.2853 -0.8390 -0.3336
 5278SOL     OW20877   0.978   5.216   1.137 -0.0524 -0.2427 -0.0682
 5278SOL    HW220878   1.044   5.285   1.126 -0.7750  0.5005  0.2199
 5278SOL    HW320879   0.900   5.261   1.169 -0.7110 -1.1141 -0.3932
 5278SOL    MW420880   0.977   5.231   1.140 -0.2346 -0.2596 -0.0730
 5279SOL     OW20881   3.463   4.650   4.173 -0.3907  0.1889 -0.3068
 5279SOL    HW220882   3.378   4.665   4.214  0.1097  1.2941  0.3577
 5279SOL    HW320883   3.507   4.735   4.176  1.0887 -0.5480  0.1871
 5279SOL    MW420884   3.458   4.663   4.179 -0.1295  0.2375 -0.1540
 5280SOL     OW20885   4.507   4.334   3.163 -0.1418  0.1930 -0.4065
 5280SOL    HW220886   4.417   4.359   3.185  0.6722  2.9011  0.2426
 5280SOL    HW320887   4.525   4.257   3.217 -1.0431  1.5379  1.9276
 5280SOL    MW420888   4.498   4.327   3.173 -0.1533  0.7277 -0.0129
 5281SOL     OW20889   3.347   2.638   2.010 -0.0939  0.1365  0.1285
 5281SOL    HW220890   3.296   2.597   2.079  0.1556 -3.0432 -1.3686
 5281SOL    HW320891   3.341   2.576   1.936  0.4518  2.8362 -2.3636
 5281SOL    MW420892   3.339   2.624   2.009  0.0110  0.0732 -0.3979
 5282SOL     OW20893   6.162   0.121   3.186  0.2163 -0.4501  0.4014
 5282SOL    HW220894   6.084   0.084   3.228  1.2900 -1.3953  1.6527
 5282SOL    HW320895   6.194   0.187   3.248  1.1303 -0.9871  0.5208
 5282SOL    MW420896   6.156   0.125   3.200  0.4785 -0.6456  0.5823
 5283SOL     OW20897   3.750   3.402   4.551  0.4271  0.2667  0.4933
 5283SOL    HW220898   3.786   3.319   4.518 -0.1354  0.6800 -1.2981
 5283SOL    HW320899   3.662   3.406   4.514 -0.3545  0.7015  2.2999
 5283SOL    MW420900   3.743   3.391   4.542  0.2498  0.3786  0.4953
 5284SOL     OW20901   0.883   6.287   5.863 -0.4798 -0.7899 -0.0324
 5284SOL    HW220902   0.932   6.357   5.821  1.9685 -1.7693  0.9974
 5284SOL    HW320903   0.853   6.232   5.791 -0.4958  0.1074 -0.7247
 5284SOL    MW420904   0.886   6.289   5.848 -0.1589 -0.8007  0.0121
 5285SOL     OW20905   3.215   5.295   5.077 -0.1607 -0.3649  0.1212
 5285SOL    HW220906   3.125   5.304   5.107 -0.0352 -0.0802  0.4232
 5285SOL    HW320907   3.262   5.265   5.155  0.1864  0.4475  0.2292
 5285SOL    MW420908   3.210   5.292   5.092 -0.0984 -0.2202  0.1753
 5286SOL     OW20909   0.747   2.163   4.110 -0.4195  0.3524 -0.1308
 5286SOL    HW220910   0.817   2.121   4.061 -1.4046 -1.3189 -0.1713
 5286SOL    HW320911   0.690   2.201   4.044 -2.1530 -2.5427 -0.4574
 5286SOL    MW420912   0.748   2.162   4.095 -0.7782 -0.2501 -0.1792
 5287SOL     OW20913   1.128   1.708   5.464 -0.0677 -0.3247 -0.1366
 5287SOL    HW220914   1.134   1.662   5.380  0.9435 -1.5881  0.5939
 5287SOL    HW320915   1.219   1.720   5.491 -0.3903 -0.7089  1.1682
 5287SOL    MW420916   1.141   1.703   5.456  0.0232 -0.5421  0.1319
 5288SOL     OW20917   6.348   4.782   5.429  0.5278 -0.8589 -0.7797
 5288SOL    HW220918   6.267   4.739   5.457  0.3383  0.5378  1.0469
 5288SOL    HW320919   6.338   4.873   5.458  2.1318 -0.2852 -1.8643
 5288SOL    MW420920   6.336   4.788   5.436  0.7144 -0.5989 -0.6818
 5289SOL     OW20921   4.624   1.856   1.980 -0.3661  0.4416  0.3872
 5289SOL    HW220922   4.545   1.855   2.034 -0.0569 -0.1346  0.8297
 5289SOL    HW320923   4.592   1.843   1.891 -0.9532  2.1166  0.3063
 5289SOL    MW420924   4.609   1.854   1.975 -0.4028  0.5866  0.4349
 5290SOL     OW20925   2.753   2.798   2.906  0.2173  0.0596 -0.4932
 5290SOL    HW220926   2.679   2.852   2.880  0.5593  0.5553 -0.4403
 5290SOL    HW320927   2.821   2.860   2.931  0.5723 -0.3941 -0.3163
 5290SOL    MW420928   2.752   2.813   2.906  0.3093  0.0651 -0.4629
 5291SOL     OW20929   3.822   6.232   2.839  0.0430  0.6383 -0.2470
 5291SOL    HW220930   3.748   6.198   2.789 -0.7976 -1.6019  2.2496
 5291SOL    HW320931   3.888   6.163   2.833 -0.6702 -0.4805  2.7542
 5291SOL    MW420932   3.821   6.218   2.832 -0.1620  0.1951  0.4784
 5292SOL     OW20933   3.409   4.722   0.018 -0.2381 -0.0724  0.2660
 5292SOL    HW220934   3.315   4.741   0.016 -0.2783 -0.1883  0.8419
 5292SOL    HW320935   3.444   4.770  -0.056 -0.8695 -0.6961 -0.4533
 5292SOL    MW420936   3.401   4.731   0.008 -0.3267 -0.1700  0.2471
 5293SOL     OW20937   2.695   2.252   5.396  0.2087  0.0904  0.0293
 5293SOL    HW220938   2.707   2.238   5.302 -3.0314 -0.1674 -0.4884
 5293SOL    HW320939   2.607   2.218   5.414  0.1681  1.3759  2.8773
 5293SOL    MW420940   2.685   2.246   5.386 -0.2241  0.2260  0.3367
 5294SOL     OW20941   6.063   0.957   5.698 -0.5058 -0.2648  0.1218
 5294SOL    HW220942   6.051   0.968   5.604 -1.1801  0.1175  0.2458
 5294SOL    HW320943   5.988   1.001   5.737 -0.6521 -1.1012  0.8112
 5294SOL    MW420944   6.052   0.964   5.691 -0.6141 -0.3247  0.2291
 5295SOL     OW20945   0.769   3.751   1.176 -0.1683 -0.0367  0.2725
 5295SOL    HW220946   0.704   3.821   1.182 -0.5526 -0.4341  1.0367
 5295SOL    HW320947   0.840   3.779   1.234 -0.1115 -0.0581  0.2128
 5295SOL    MW420948   0.770   3.764   1.185 -0.2115 -0.0920  0.3655
 5296SOL     OW20949   0.117   6.329   2.615  0.0819 -0.0464  0.5061
 5296SOL    HW220950   0.209   6.310   2.633 -0.0799  0.1772  1.6225
 5296SOL    HW320951   0.088   6.255   2.560  1.0532  0.1613 -0.3272
 5296SOL    MW420952   0.125   6.317   2.610  0.1887  0.0105  0.5434
 5297SOL     OW20953   0.679   3.266   3.768  0.1648  0.0378  0.6902
 5297SOL    HW220954   0.592   3.256   3.728  0.8178  1.6242 -1.2484
 5297SOL    HW320955   0.666   3.238   3.859 -2.1361 -0.6798  0.2103
 5297SOL    MW420956   0.665   3.261   3.775 -0.0526  0.1525  0.3711
 5298SOL     OW20957   1.574   5.547   2.228 -0.0951  0.3971  0.1302
 5298SOL    HW220958   1.578   5.485   2.155 -0.0906 -0.2337  0.6536
 5298SOL    HW320959   1.590   5.633   2.189 -0.0601  0.0576 -0.6007
 5298SOL    MW420960   1.577   5.550   2.214 -0.0899  0.2691  0.1028
 5299SOL     OW20961   5.028   4.509   6.221  0.2756 -0.1560 -0.2105
 5299SOL    HW220962   5.102   4.456   6.190 -0.6873 -1.7247  0.0642
 5299SOL    HW320963   4.953   4.477   6.171 -1.2850 -2.5348  3.2527
 5299SOL    MW420964   5.028   4.498   6.210 -0.0573 -0.6768  0.2827
 5300SOL     OW20965   3.975   0.157   2.077  0.3840 -0.1711  0.0007
 5300SOL    HW220966   4.053   0.187   2.031  1.0134  0.4352  1.4177
 5300SOL    HW320967   3.911   0.227   2.062  0.8386  0.4033  0.6664
 5300SOL    MW420968   3.977   0.170   2.069  0.5270 -0.0153  0.2755
 5301SOL     OW20969   1.500   3.476   3.704 -0.5791  1.2878  0.2352
 5301SOL    HW220970   1.476   3.472   3.796  1.8746  1.2285  0.9571
 5301SOL    HW320971   1.549   3.557   3.695 -0.7933  1.3035 -1.0333
 5301SOL    MW420972   1.504   3.486   3.715 -0.2836  1.2821  0.1631
 5302SOL     OW20973   0.217   2.909   1.299  0.6334  0.0379  0.2501
 5302SOL    HW220974   0.202   2.990   1.251  0.5767 -0.9939 -1.5507
 5302SOL    HW320975   0.176   2.924   1.385 -0.8826  1.2839 -0.6360
 5302SOL    MW420976   0.210   2.922   1.304  0.4259  0.0661 -0.1044
 5303SOL     OW20977   3.878   2.155   0.606  0.2325  0.1373 -0.0084
 5303SOL    HW220978   3.790   2.119   0.600  0.7201 -0.9283 -1.2448
 5303SOL    HW320979   3.932   2.082   0.634  0.6882  0.8606  1.0321
 5303SOL    MW420980   3.874   2.141   0.609  0.3569  0.0921 -0.0342
 5304SOL     OW20981   4.420   4.137   4.929 -0.5370 -0.2161  0.0990
 5304SOL    HW220982   4.381   4.204   4.985 -0.1842  0.5322 -0.5294
 5304SOL    HW320983   4.387   4.157   4.842  0.3150 -0.2857 -0.2497
 5304SOL    MW420984   4.410   4.148   4.925 -0.3780 -0.1265 -0.0299
 5305SOL     OW20985   0.081   2.605   0.743  0.1254  0.3774 -0.6107
 5305SOL    HW220986   0.093   2.510   0.744 -1.4839  0.1063 -2.3802
 5305SOL    HW320987   0.128   2.635   0.666  0.0286  0.9201 -0.4656
 5305SOL    MW420988   0.089   2.596   0.733 -0.0997  0.4132 -0.8250
 5306SOL     OW20989   6.280   6.369   5.592  0.0871  0.6734  0.1481
 5306SOL    HW220990   6.321   6.299   5.541 -3.7226 -1.0460 -0.9411
 5306SOL    HW320991   6.348   6.398   5.652  2.4579 -2.6536 -0.6523
 5306SOL    MW420992   6.295   6.364   5.593 -0.1027  0.0076 -0.1012
 5307SOL     OW20993   0.645   4.894   1.211  0.0373 -0.5919  0.7294
 5307SOL    HW220994   0.709   4.942   1.263 -2.4977  2.4436  1.4153
 5307SOL    HW320995   0.609   4.828   1.270  0.3628 -0.2211  1.3496
 5307SOL    MW420996   0.648   4.892   1.225 -0.2542 -0.1425  0.9017
 5308SOL     OW20997   5.778   3.158   3.666  0.3090 -0.3880 -0.1733
 5308SOL    HW220998   5.705   3.129   3.610  0.7004 -1.2046 -0.2699
 5308SOL    HW320999   5.735   3.206   3.737 -0.2299  0.2692 -0.9238
 5308SOL    MW421000   5.763   3.161   3.668  0.2895 -0.4090 -0.2850
 5309SOL     OW21001   4.723   1.640   2.732 -0.1233  0.1815 -0.2633
 5309SOL    HW221002   4.730   1.693   2.653 -0.4691  0.2270 -0.2620
 5309SOL    HW321003   4.745   1.700   2.804 -2.4039  0.8749 -0.0600
 5309SOL    MW421004   4.727   1.655   2.731 -0.4698  0.2790 -0.2363
 5310SOL     OW21005   3.600   6.214   2.683  0.4408  0.0504  0.2452
 5310SOL    HW221006   3.552   6.276   2.739  0.6620 -0.7891  1.3911
 5310SOL    HW321007   3.592   6.130   2.728  1.4129 -0.4690 -0.5270
 5310SOL    MW421008   3.592   6.211   2.696  0.5983 -0.1289  0.2945
 5311SOL     OW21009   4.650   5.323   5.428 -0.1896  0.5487  0.1634
 5311SOL    HW221010   4.562   5.361   5.440 -1.0785 -0.9421 -1.2595
 5311SOL    HW321011   4.652   5.248   5.487  0.1224  0.5564  0.1647
 5311SOL    MW421012   4.638   5.318   5.437 -0.2657  0.3530 -0.0242
 5312SOL     OW21013   1.271   4.052   5.109  0.3840 -0.5851 -0.0111
 5312SOL    HW221014   1.349   4.106   5.101  0.1297 -0.1766  0.2252
 5312SOL    HW321015   1.198   4.115   5.108  0.1754 -0.6239  3.2256
 5312SOL    MW421016   1.271   4.068   5.108  0.3230 -0.5364  0.4471
 5313SOL     OW21017   6.208   2.802   1.421 -0.1649 -0.2008  0.0312
 5313SOL    HW221018   6.270   2.737   1.453  0.1296  0.0937  0.0614
 5313SOL    HW321019   6.172   2.842   1.500 -0.8017 -0.7497  0.0255
 5313SOL    MW421020   6.211   2.799   1.436 -0.2101 -0.2344  0.0344
 5314SOL     OW21021   2.877   1.930   6.316  0.1986 -0.1088  0.1096
 5314SOL    HW221022   2.822   1.886   6.251 -0.1085  1.3733 -0.6807
 5314SOL    HW321023   2.960   1.883   6.312 -0.1453 -0.6904 -0.6198
 5314SOL    MW421024   2.880   1.918   6.307  0.1127  0.0100 -0.0909
 5315SOL     OW21025   4.442   4.172   4.608 -0.1642  0.2858  0.3235
 5315SOL    HW221026   4.350   4.192   4.588 -0.5638 -0.2127  1.5577
 5315SOL    HW321027   4.491   4.242   4.566 -1.1344  0.7559 -0.0695
 5315SOL    MW421028   4.436   4.184   4.599 -0.3449  0.2821  0.4345
 5316SOL     OW21029   3.925   2.952   2.580  0.7337  0.3416 -0.1389
 5316SOL    HW221030   3.914   2.971   2.674  0.6187  0.2357 -0.1304
 5316SOL    HW321031   3.941   2.858   2.576 -0.4054  0.1297 -0.3066
 5316SOL    MW421032   3.925   2.942   2.592  0.5683  0.2996 -0.1599
 5317SOL     OW21033   4.537   3.462   0.894  0.7470  0.0206  0.7264
 5317SOL    HW221034   4.575   3.375   0.887  0.1053 -0.2093 -0.0101
 5317SOL    HW321035   4.462   3.451   0.954  0.4283 -0.0250  0.3259
 5317SOL    MW421036   4.532   3.449   0.901  0.6203 -0.0158  0.5764
 5318SOL     OW21037   0.529   5.005   1.651 -0.1856  0.0387 -0.1781
 5318SOL    HW221038   0.573   5.089   1.643  0.0257  0.0306  0.7448
 5318SOL    HW321039   0.496   5.004   1.741 -0.3030 -0.8103 -0.2222
 5318SOL    MW421040   0.530   5.016   1.662 -0.1732 -0.0744 -0.0622
 5319SOL     OW21041   1.375   1.956   4.857 -0.4200 -0.4472  0.1848
 5319SOL    HW221042   1.461   1.970   4.817 -0.4037 -0.5324  0.1884
 5319SOL    HW321043   1.383   1.870   4.899 -0.9542 -1.0780 -0.9791
 5319SOL    MW421044   1.387   1.946   4.858 -0.4883 -0.5417  0.0317
 5320SOL     OW21045   5.218   3.539   0.961 -0.0260 -0.2088 -0.2397
 5320SOL    HW221046   5.262   3.454   0.951  0.2336 -0.2931  1.3396
 5320SOL    HW321047   5.256   3.594   0.892 -0.8817 -1.6076 -1.9172
 5320SOL    MW421048   5.229   3.535   0.950 -0.1047 -0.4045 -0.2527
 5321SOL     OW21049   2.651   5.367   4.327 -0.9047 -0.1724 -0.2871
 5321SOL    HW221050   2.601   5.307   4.272 -0.6697 -1.2150  0.6091
 5321SOL    HW321051   2.737   5.371   4.286 -0.6197 -1.2196  0.1736
 5321SOL    MW421052   2.655   5.360   4.314 -0.8361 -0.4481 -0.1081
 5322SOL     OW21053   4.265   1.982   1.078 -0.3780 -0.0287 -0.0438
 5322SOL    HW221054   4.181   1.988   1.032  0.1335 -1.1821 -1.2038
 5322SOL    HW321055   4.330   2.008   1.013  0.2062  0.6852  0.7922
 5322SOL    MW421056   4.263   1.986   1.064 -0.2335 -0.0866 -0.0865
 5323SOL     OW21057   5.708   6.423   0.472 -0.2109 -0.0171  0.3672
 5323SOL    HW221058   5.761   6.413   0.551  0.0929 -0.3663  0.1249
 5323SOL    HW321059   5.679   6.334   0.452 -1.1375  0.2093  0.6623
 5323SOL    MW421060   5.711   6.410   0.480 -0.2931 -0.0333  0.3742
 5324SOL     OW21061   4.961   2.272   0.691 -0.0554 -0.0916 -0.2193
 5324SOL    HW221062   4.990   2.189   0.729  1.5523 -0.1731 -1.4843
 5324SOL    HW321063   4.936   2.326   0.766  0.4581 -1.1417  0.7399
 5324SOL    MW421064   4.962   2.268   0.706  0.2244 -0.2409 -0.2597
 5325SOL     OW21065   2.096   2.926   3.484 -0.3028  0.1549 -0.3064
 5325SOL    HW221066   2.099   3.013   3.444  1.9172  0.5971  0.7085
 5325SOL    HW321067   2.186   2.908   3.509 -1.0862 -1.5140  1.5232
 5325SOL    MW421068   2.108   2.935   3.482 -0.1133 -0.0070  0.0689
 5326SOL     OW21069   0.560   2.800   4.520  0.2358 -0.1461  0.0839
 5326SOL    HW221070   0.573   2.800   4.425 -1.8703  0.8687 -0.2640
 5326SOL    HW321071   0.466   2.816   4.532  0.3727 -0.6068  2.3479
 5326SOL    MW421072   0.549   2.802   4.509 -0.0240 -0.0730  0.3367
 5327SOL     OW21073   3.643   5.065   0.234 -0.3907 -0.3931 -0.2511
 5327SOL    HW221074   3.656   5.064   0.139  0.0798  1.1472 -0.2334
 5327SOL    HW321075   3.697   4.993   0.266 -0.6332 -0.9985 -1.1551
 5327SOL    MW421076   3.652   5.056   0.225 -0.3606 -0.2697 -0.3680
 5328SOL     OW21077   5.946   4.835   0.270 -0.4168 -0.1657  0.2386
 5328SOL    HW221078   5.929   4.788   0.351 -1.1090 -0.5056 -0.0994
 5328SOL    HW321079   5.981   4.920   0.298 -2.2216  0.3845  0.9742
 5328SOL    MW421080   5.948   4.840   0.284 -0.7463 -0.1379  0.2911
 5329SOL     OW21081   3.423   6.061   1.184 -0.3451  0.0257 -0.7804
 5329SOL    HW221082   3.506   6.088   1.145  0.9058 -0.2740  1.4853
 5329SOL    HW321083   3.387   5.997   1.123  0.4299  1.1162 -2.4425
 5329SOL    MW421084   3.429   6.056   1.171 -0.0778  0.1300 -0.7008
 5330SOL     OW21085   2.947   5.765   5.010 -0.1028  0.2326 -0.2219
 5330SOL    HW221086   2.943   5.796   4.920  1.1774  0.6477 -0.1509
 5330SOL    HW321087   3.037   5.782   5.038 -0.3983 -0.1486  1.0422
 5330SOL    MW421088   2.958   5.771   5.002  0.0271  0.2371 -0.0457
 5331SOL     OW21089   1.608   5.738   4.788 -0.5580 -0.6445  0.4507
 5331SOL    HW221090   1.598   5.802   4.717  1.9676  0.3774  0.9030
 5331SOL    HW321091   1.652   5.664   4.746  0.0430 -0.4495  0.7309
 5331SOL    MW421092   1.612   5.737   4.773 -0.1455 -0.4840  0.5474
 5332SOL     OW21093   2.909   3.562   5.090 -0.4458 -0.2412 -0.2012
 5332SOL    HW221094   2.981   3.613   5.052  1.2706 -2.6255 -0.3804
 5332SOL    HW321095   2.916   3.576   5.184 -1.1810  1.2218 -0.3179
 5332SOL    MW421096   2.919   3.571   5.097 -0.3164 -0.3627 -0.2402
 5333SOL     OW21097   1.381   2.027   0.114 -0.3408  0.7469 -0.1011
 5333SOL    HW221098   1.441   1.966   0.157 -0.8520 -0.5159 -1.1292
 5333SOL    HW321099   1.438   2.084   0.062  0.0449  0.3792 -0.0834
 5333SOL    MW421100   1.397   2.027   0.113 -0.3574  0.5318 -0.2344
 5334SOL     OW21101   6.365   2.992   4.387 -0.1366  0.3140  0.1309
 5334SOL    HW221102   6.335   3.006   4.477  0.2114 -1.4000  0.5365
 5334SOL    HW321103   6.455   3.025   4.387  0.0791 -0.2633  0.5877
 5334SOL    MW421104   6.373   2.998   4.399 -0.0622  0.0117  0.2447
 5335SOL     OW21105   4.694   4.756   6.199  0.1910 -0.0523  0.0178
 5335SOL    HW221106   4.600   4.760   6.216  0.2597  0.4710  0.2895
 5335SOL    HW321107   4.700   4.731   6.107 -0.2911  2.8600 -0.9227
 5335SOL    MW421108   4.682   4.754   6.189  0.1365  0.4010 -0.0705
 5336SOL     OW21109   0.874   1.497   3.180  0.5223  0.6676  0.2246
 5336SOL    HW221110   0.942   1.439   3.215  1.1554  0.4724 -1.2478
 5336SOL    HW321111   0.793   1.449   3.193  0.6477  0.8291  1.8530
 5336SOL    MW421112   0.873   1.483   3.186  0.6224  0.6631  0.2452
 5337SOL     OW21113   3.768   1.601   3.016 -0.5128  0.8891 -0.3547
 5337SOL    HW221114   3.686   1.592   2.967 -1.3894  3.0482  0.5949
 5337SOL    HW321115   3.756   1.546   3.094  0.0217 -0.8106 -1.4056
 5337SOL    MW421116   3.756   1.592   3.020 -0.5579  0.9497 -0.3680
 5338SOL     OW21117   0.392   4.621   4.599  0.4146 -0.4285 -0.2386
 5338SOL    HW221118   0.483   4.617   4.569 -0.2312  0.3934 -2.5157
 5338SOL    HW321119   0.391   4.692   4.664  1.2125  0.3210 -1.0126
 5338SOL    MW421120   0.404   4.630   4.604  0.4347 -0.2212 -0.6411
 5339SOL     OW21121   1.475   4.640   0.511  0.4231 -0.2731 -0.0890
 5339SOL    HW221122   1.399   4.582   0.505  0.4386 -0.3440  0.3924
 5339SOL    HW321123   1.441   4.727   0.489  0.7275 -0.6945 -2.5149
 5339SOL    MW421124   1.460   4.644   0.507  0.4653 -0.3381 -0.3456
 5340SOL     OW21125   2.883   1.857   1.247 -0.3456  0.3913  0.5679
 5340SOL    HW221126   2.862   1.763   1.241 -1.5841  0.6924 -0.1615
 5340SOL    HW321127   2.956   1.861   1.308  0.5881 -1.1736 -0.3655
 5340SOL    MW421128   2.890   1.845   1.254 -0.3858  0.2246  0.3485
 5341SOL     OW21129   4.682   5.257   1.720 -0.3875 -0.9698  0.1543
 5341SOL    HW221130   4.637   5.247   1.637 -1.7148  0.7691  0.6072
 5341SOL    HW321131   4.775   5.266   1.697 -0.8886  1.2012 -1.3445
 5341SOL    MW421132   4.688   5.257   1.706 -0.6287 -0.4539  0.0163
 5342SOL     OW21133   2.232   5.240   3.096  0.1222  0.0736 -0.3977
 5342SOL    HW221134   2.186   5.255   3.179 -0.9342 -0.2285 -0.9051
 5342SOL    HW321135   2.321   5.273   3.111 -0.2436  0.6333  0.6375
 5342SOL    MW421136   2.238   5.246   3.109 -0.0655  0.1076 -0.3281
 5343SOL     OW21137   0.031   5.405   2.851  0.0367 -0.1030 -0.0700
 5343SOL    HW221138   0.111   5.356   2.830 -0.5026 -0.4874 -1.2776
 5343SOL    HW321139   0.038   5.485   2.799 -1.4936 -1.2392 -2.1883
 5343SOL    MW421140   0.043   5.409   2.842 -0.2364 -0.3036 -0.5088
 5344SOL     OW21141   3.109   4.419   0.324  0.0985 -0.4629 -0.3225
 5344SOL    HW221142   3.028   4.456   0.360 -0.6072  0.4914 -2.6998
 5344SOL    HW321143   3.124   4.341   0.377 -0.9026  0.7157  1.8896
 5344SOL    MW421144   3.100   4.414   0.336 -0.1267 -0.1815 -0.3443
 5345SOL     OW21145   3.379   4.697   4.852 -0.2981 -0.3653  0.0921
 5345SOL    HW221146   3.377   4.788   4.882 -0.7725 -0.2987 -0.1244
 5345SOL    HW321147   3.389   4.704   4.757 -1.3988 -0.5096 -0.0473
 5345SOL    MW421148   3.380   4.710   4.843 -0.5059 -0.3756  0.0452
 5346SOL     OW21149   4.653   4.228   1.987 -0.3741  0.1570  0.3010
 5346SOL    HW221150   4.695   4.311   2.008  0.0263  0.1826 -0.5684
 5346SOL    HW321151   4.646   4.227   1.892 -0.8014 -0.5998  0.3276
 5346SOL    MW421152   4.657   4.239   1.977 -0.3776  0.0605  0.1898
 5347SOL     OW21153   2.357   0.085   2.180 -0.0229 -0.8379  0.3930
 5347SOL    HW221154   2.277   0.069   2.130  1.4762 -0.1665 -2.3943
 5347SOL    HW321155   2.363   0.180   2.185  1.6066 -0.7954 -1.3058
 5347SOL    MW421156   2.347   0.095   2.174  0.3899 -0.7437 -0.1989
 5348SOL     OW21157   2.216   2.708   3.170 -0.8898  0.3743  0.4657
 5348SOL    HW221158   2.124   2.687   3.156 -0.4764 -1.5578  0.2899
 5348SOL    HW321159   2.234   2.680   3.259 -0.0566 -1.0785 -0.1200
 5348SOL    MW421160   2.207   2.702   3.180 -0.7254 -0.0723  0.3653
 5349SOL     OW21161   3.135   3.165   5.929  0.2562 -0.4888  0.0559
 5349SOL    HW221162   3.134   3.239   5.868 -1.6600 -0.8544 -0.4389
 5349SOL    HW321163   3.126   3.204   6.016  1.1041 -0.0649 -0.0388
 5349SOL    MW421164   3.134   3.180   5.932  0.1153 -0.4811 -0.0219
 5350SOL     OW21165   3.367   5.904   2.940  0.3065  0.8459  0.2547
 5350SOL    HW221166   3.272   5.914   2.951 -0.3693 -1.3299 -2.4906
 5350SOL    HW321167   3.391   5.841   3.008 -0.6301 -0.1182 -0.2729
 5350SOL    MW421168   3.357   5.897   2.950  0.0938  0.4316 -0.1771
 5351SOL     OW21169   6.327   3.949   0.993 -0.0341 -0.7367  0.3668
 5351SOL    HW221170   6.295   3.958   0.903  0.3431 -0.6077  0.2433
 5351SOL    HW321171   6.373   4.031   1.010  2.1437 -1.7511 -0.2450
 5351SOL    MW421172   6.329   3.961   0.983  0.3030 -0.8535  0.2698
 5352SOL     OW21173   5.472   0.163   1.114  0.4825  0.5774 -0.2118
 5352SOL    HW221174   5.493   0.237   1.170  1.3041 -0.8371  1.4140
 5352SOL    HW321175   5.529   0.093   1.144  0.7002 -0.3602 -2.6006
 5352SOL    MW421176   5.482   0.164   1.125  0.6197  0.2670 -0.3125
 5353SOL     OW21177   1.506   1.995   5.641 -0.3920  0.3471  0.5880
 5353SOL    HW221178   1.455   1.922   5.607 -0.3043  0.4542  0.2147
 5353SOL    HW321179   1.471   2.072   5.595  0.9481  0.2611 -0.6275
 5353SOL    MW421180   1.494   1.996   5.630 -0.2036  0.3499  0.3784
 5354SOL     OW21181   2.175   2.505   4.870 -0.2409 -0.3645  0.4391
 5354SOL    HW221182   2.212   2.570   4.930 -1.2789 -0.3777  1.1159
 5354SOL    HW321183   2.205   2.420   4.905  0.3106 -0.2953  0.1263
 5354SOL    MW421184   2.184   2.502   4.883 -0.3051 -0.3571  0.4871
 5355SOL     OW21185   3.443   4.634   2.509  0.1560 -0.4622 -0.3590
 5355SOL    HW221186   3.408   4.649   2.597 -0.6641 -1.8505 -0.4159
 5355SOL    HW321187   3.434   4.718   2.465  0.8044  0.3318  0.9416
 5355SOL    MW421188   3.437   4.647   2.515  0.1334 -0.5406 -0.1949
 5356SOL     OW21189   3.611   1.005   4.458 -0.4104 -0.6982  0.1065
 5356SOL    HW221190   3.601   1.005   4.363  2.0733  0.3745 -0.2372
 5356SOL    HW321191   3.525   1.029   4.491 -0.4723  2.7676 -2.0581
 5356SOL    MW421192   3.599   1.008   4.450 -0.0909 -0.0994 -0.2245
 5357SOL     OW21193   1.283   5.472   0.176  0.3710  0.1476  0.3549
 5357SOL    HW221194   1.362   5.483   0.229  0.4491 -1.4988  0.6480
 5357SOL    HW321195   1.301   5.395   0.122 -0.1851  1.0752 -1.2051
 5357SOL    MW421196   1.296   5.463   0.176  0.3080  0.0528  0.1878
 5358SOL     OW21197   5.556   3.887   4.545  0.0341  0.3536 -0.2435
 5358SOL    HW221198   5.461   3.900   4.540  0.0496  0.4874 -0.1917
 5358SOL    HW321199   5.576   3.894   4.638  0.2264  1.2679 -0.3402
 5358SOL    MW421200   5.546   3.890   4.557  0.0615  0.4919 -0.2494
 5359SOL     OW21201   5.733   4.937   2.341  0.4261 -0.2008 -0.7229
 5359SOL    HW221202   5.776   4.871   2.394 -1.1733 -0.5889  0.1749
 5359SOL    HW321203   5.646   4.946   2.380  0.1536  1.5201 -1.5978
 5359SOL    MW421204   5.727   4.930   2.354  0.1791 -0.0250 -0.7199
 5360SOL     OW21205   0.418   5.576   5.839 -0.1838  0.3003 -0.2567
 5360SOL    HW221206   0.364   5.645   5.879  0.8634  0.8046  0.3111
 5360SOL    HW321207   0.488   5.623   5.794  0.4833 -0.3790  0.0515
 5360SOL    MW421208   0.420   5.591   5.839  0.0424  0.2772 -0.1411
 5361SOL     OW21209   1.806   4.106   1.172 -0.3240  0.6365  0.0463
 5361SOL    HW221210   1.847   4.189   1.198 -1.1174  0.6188  1.4417
 5361SOL    HW321211   1.879   4.051   1.143  0.4893  1.0518  1.2589
 5361SOL    MW421212   1.821   4.110   1.171 -0.3213  0.6889  0.3904
 5362SOL     OW21213   1.318   2.598   5.469 -0.0861 -0.3021 -0.3925
 5362SOL    HW221214   1.249   2.535   5.449 -0.3774  0.0807 -0.5955
 5362SOL    HW321215   1.322   2.655   5.392 -0.2754  0.3323  0.0569
 5362SOL    MW421216   1.310   2.597   5.456 -0.1495 -0.1679 -0.3600
 5363SOL     OW21217   1.938   5.099   4.890  0.1291  0.1298  0.1820
 5363SOL    HW221218   1.975   5.165   4.831  0.3572 -0.0734  0.0950
 5363SOL    HW321219   1.885   5.043   4.833  0.8578 -0.4500  0.0437
 5363SOL    MW421220   1.936   5.100   4.874  0.2553  0.0265  0.1523
 5364SOL     OW21221   1.808   4.774   3.351  0.1881  0.4215 -0.6983
 5364SOL    HW221222   1.811   4.679   3.346 -1.7166  0.3619 -1.5837
 5364SOL    HW321223   1.784   4.803   3.263  0.0240  1.6719 -0.2711
 5364SOL    MW421224   1.805   4.765   3.339 -0.0849  0.5786 -0.7587
 5365SOL     OW21225   1.978   0.454   4.326 -0.6791  0.1190  0.1875
 5365SOL    HW221226   1.905   0.503   4.288 -0.2323  1.0610  0.5201
 5365SOL    HW321227   1.993   0.382   4.264 -1.8167 -0.0351  0.0684
 5365SOL    MW421228   1.970   0.451   4.313 -0.7703  0.2230  0.2157
 5366SOL     OW21229   1.713   6.374   0.503  0.2776 -0.3039 -0.1550
 5366SOL    HW221230   1.808   6.363   0.499  0.3439  0.2792 -0.1561
 5366SOL    HW321231   1.682   6.345   0.417  0.5644  0.5850 -0.5638
 5366SOL    MW421232   1.721   6.368   0.491  0.3242 -0.1097 -0.2091
 5367SOL     OW21233   0.682   6.234   1.906  0.2371 -0.3234 -0.3877
 5367SOL    HW221234   0.722   6.148   1.893  0.7318 -0.1865  0.2000
 5367SOL    HW321235   0.654   6.235   1.997  1.4433  0.6193  0.0028
 5367SOL    MW421236   0.683   6.223   1.916  0.4615 -0.1810 -0.2586
 5368SOL     OW21237   0.125   5.287   0.157 -0.1378  0.4945  0.1020
 5368SOL    HW221238   0.076   5.244   0.087 -2.3466  1.5019  0.9432
 5368SOL    HW321239   0.071   5.361   0.183  0.6253  0.2144  2.8334
 5368SOL    MW421240   0.112   5.291   0.152 -0.3285  0.5904  0.5733
 5369SOL     OW21241   1.078   0.674   1.468  0.1559 -0.4631 -0.0284
 5369SOL    HW221242   1.106   0.729   1.542  1.8979 -0.1021 -0.9063
 5369SOL    HW321243   1.100   0.585   1.495 -1.1078 -0.5686  0.7050
 5369SOL    MW421244   1.085   0.670   1.481  0.2190 -0.4294 -0.0475
 5370SOL     OW21245   0.836   5.455   3.299  0.0073  0.1160 -0.2190
 5370SOL    HW221246   0.852   5.477   3.207 -1.7662  0.4530 -0.4824
 5370SOL    HW321247   0.921   5.426   3.332  0.6061 -0.3068 -2.0393
 5370SOL    MW421248   0.849   5.454   3.291 -0.1477  0.1047 -0.4939
 5371SOL     OW21249   3.322   6.331   5.101  0.7680  0.0565  0.4576
 5371SOL    HW221250   3.417   6.315   5.107  0.5968 -1.2387 -0.0343
 5371SOL    HW321251   3.315   6.425   5.085  2.0612 -0.0920 -1.2941
 5371SOL    MW421252   3.334   6.341   5.100  0.9160 -0.1340  0.1616
 5372SOL     OW21253   5.950   1.912   1.929 -0.6104 -0.6400 -0.2527
 5372SOL    HW221254   6.045   1.920   1.927 -0.5912 -0.5137  0.5824
 5372SOL    HW321255   5.925   1.886   1.840  0.2116 -0.7835 -0.4436
 5372SOL    MW421256   5.959   1.909   1.917 -0.4994 -0.6423 -0.1677
 5373SOL     OW21257   3.465   4.750   4.566 -0.0843 -0.0787  0.3555
 5373SOL    HW221258   3.404   4.687   4.528  0.7919  0.7480 -2.6794
 5373SOL    HW321259   3.552   4.714   4.546  0.4783  0.2896  1.9118
 5373SOL    MW421260   3.469   4.737   4.559  0.1055  0.0790  0.1604
 5374SOL     OW21261   3.026   3.077   5.038  0.3432  0.1423  0.0742
 5374SOL    HW221262   2.974   3.036   5.107 -0.3733 -0.0562 -0.5707
 5374SOL    HW321263   3.051   3.005   4.980  0.5842  0.3657 -0.1013
 5374SOL    MW421264   3.023   3.062   5.040  0.2805  0.1456 -0.0340
 5375SOL     OW21265   0.346   1.889   5.951  0.1282 -0.3175  0.6603
 5375SOL    HW221266   0.406   1.932   5.890 -2.0639 -0.3124 -1.6661
 5375SOL    HW321267   0.284   1.842   5.895 -2.0796 -0.2783  2.8708
 5375SOL    MW421268   0.345   1.889   5.936 -0.4523 -0.3116  0.6450
 5376SOL     OW21269   1.797   4.740   5.914 -0.6694  0.1075 -0.5672
 5376SOL    HW221270   1.877   4.688   5.929 -1.1809  0.0614  2.9080
 5376SOL    HW321271   1.738   4.680   5.869 -0.4496 -1.6892  1.3511
 5376SOL    MW421272   1.800   4.725   5.910 -0.7079 -0.1356  0.1444
 5377SOL     OW21273   0.853   1.125   5.845 -0.0506  0.3076 -0.1441
 5377SOL    HW221274   0.855   1.051   5.783 -3.0942  0.6222 -0.8065
 5377SOL    HW321275   0.897   1.196   5.798  0.7009 -0.3971 -0.5323
 5377SOL    MW421276   0.859   1.124   5.830 -0.3530  0.2561 -0.2827
 5378SOL     OW21277   6.294   5.553   0.941 -0.2153  0.1655  0.4606
 5378SOL    HW221278   6.327   5.569   0.852 -0.0320 -0.4337  0.4162
 5378SOL    HW321279   6.332   5.623   0.994  0.0175  0.2785  0.1461
 5378SOL    MW421280   6.304   5.564   0.936 -0.1604  0.1014  0.4133
 5379SOL     OW21281   5.013   1.770   5.406 -0.5057 -0.4117 -0.6606
 5379SOL    HW221282   4.960   1.693   5.428  1.2471 -2.0490 -1.7470
 5379SOL    HW321283   5.029   1.813   5.490  1.0380 -3.0658  0.5347
 5379SOL    MW421284   5.008   1.765   5.420 -0.0707 -0.9779 -0.6462
 5380SOL     OW21285   6.268   4.199   0.840  0.2541  0.4555 -0.7118
 5380SOL    HW221286   6.263   4.192   0.936  0.3543  1.5654 -0.6089
 5380SOL    HW321287   6.362   4.203   0.822  0.2814  3.4346 -0.5304
 5380SOL    MW421288   6.280   4.199   0.850  0.2709  0.9950 -0.6743
 5381SOL     OW21289   3.212   6.180   1.449  0.6391 -0.5694 -0.6118
 5381SOL    HW221290   3.268   6.120   1.401  1.1249  0.3404 -1.2161
 5381SOL    HW321291   3.272   6.246   1.484  0.0329  0.0209 -0.6625
 5381SOL    MW421292   3.227   6.181   1.448  0.6232 -0.3715 -0.6982
 5382SOL     OW21293   0.811   2.892   5.266  0.4855  0.4064  0.4162
 5382SOL    HW221294   0.777   2.803   5.253  0.0626  0.6293 -0.0554
 5382SOL    HW321295   0.901   2.888   5.232  0.2144  0.3445 -0.3195
 5382SOL    MW421296   0.818   2.880   5.260  0.3939  0.4277  0.2569
 5383SOL     OW21297   5.500   1.715   0.170  0.1183  0.0621  0.4026
 5383SOL    HW221298   5.478   1.633   0.215  0.2923 -0.6116 -0.7171
 5383SOL    HW321299   5.587   1.701   0.133  0.6776  1.1997  1.2059
 5383SOL    MW421300   5.508   1.703   0.171  0.2151  0.1233  0.3608
 5384SOL     OW21301   1.623   0.069   3.335 -0.2054  0.2306 -0.3551
 5384SOL    HW221302   1.549   0.017   3.367  0.7853 -1.7324 -1.0677
 5384SOL    HW321303   1.591   0.109   3.254 -1.6890  2.6421  1.2957
 5384SOL    MW421304   1.609   0.067   3.328 -0.2705  0.2898 -0.2313
 5385SOL     OW21305   2.960   2.483   2.065 -0.7011  0.2167 -0.1406
 5385SOL    HW221306   2.941   2.577   2.060 -0.2901  0.2427 -1.6514
 5385SOL    HW321307   2.888   2.442   2.016 -1.0420 -0.2999  0.7595
 5385SOL    MW421308   2.948   2.490   2.058 -0.6919  0.1519 -0.2212
 5386SOL     OW21309   4.011   6.179   1.485 -0.4381 -0.1781 -0.4185
 5386SOL    HW221310   4.074   6.220   1.426  0.1466  0.5033  0.6483
 5386SOL    HW321311   4.012   6.087   1.461 -0.4959  0.1439 -1.7168
 5386SOL    MW421312   4.020   6.173   1.474 -0.3686 -0.0457 -0.4491
 5387SOL     OW21313   3.020   5.305   3.963 -0.5265 -0.3031  0.4239
 5387SOL    HW221314   2.987   5.371   4.024 -0.8162 -0.7812  0.7874
 5387SOL    HW321315   3.061   5.356   3.893 -0.9789  0.2702  0.5686
 5387SOL    MW421316   3.021   5.321   3.962 -0.6244 -0.2905  0.4910
 5388SOL     OW21317   5.244   3.466   1.908 -0.4512 -0.2099 -0.1595
 5388SOL    HW221318   5.162   3.426   1.880 -3.0070  2.8578  2.1199
 5388SOL    HW321319   5.242   3.461   2.004  2.6059 -0.8661 -0.0041
 5388SOL    MW421320   5.233   3.460   1.917 -0.3850  0.1083  0.1617
 5389SOL     OW21321   1.181   4.463   2.813  0.5123 -0.6718 -0.0287
 5389SOL    HW221322   1.103   4.470   2.758  0.8572 -0.5792 -0.5074
 5389SOL    HW321323   1.170   4.532   2.878 -0.6615 -1.7746  1.0018
 5389SOL    MW421324   1.169   4.473   2.814  0.4029 -0.8051  0.0441
 5390SOL     OW21325   4.996   1.284   2.239  0.3214  0.7356  0.0272
 5390SOL    HW221326   5.068   1.259   2.180  0.5759  1.2354  0.1199
 5390SOL    HW321327   4.978   1.205   2.290  0.9724  0.6754  0.1743
 5390SOL    MW421328   5.003   1.270   2.238  0.4408  0.7936  0.0589
 5391SOL     OW21329   3.015   5.626   2.479 -0.4025 -0.6806  0.4014
 5391SOL    HW221330   2.990   5.676   2.402 -2.0599 -2.1576 -0.0926
 5391SOL    HW321331   3.078   5.562   2.446  0.8083  0.2685  0.8011
 5391SOL    MW421332   3.020   5.624   2.464 -0.4614 -0.7503  0.3890
 5392SOL     OW21333   6.176   4.095   6.132 -0.3201 -0.4737  0.3520
 5392SOL    HW221334   6.143   4.181   6.106 -1.9484 -0.9212  0.7679
 5392SOL    HW321335   6.139   4.082   6.220 -0.6096 -1.8382  0.0457
 5392SOL    MW421336   6.167   4.105   6.140 -0.5731 -0.7127  0.3664
 5393SOL     OW21337   2.451   0.846   2.479 -0.1072 -0.0273 -0.7378
 5393SOL    HW221338   2.402   0.802   2.409 -1.4784  1.4513 -0.7521
 5393SOL    HW321339   2.420   0.805   2.559  0.6930 -1.0019 -0.9144
 5393SOL    MW421340   2.440   0.835   2.480 -0.1826  0.0392 -0.7630
 5394SOL     OW21341   6.056   5.598   5.978  0.2439  0.0766  0.0378
 5394SOL    HW221342   6.071   5.674   5.921  0.5336  1.2279  1.5809
 5394SOL    HW321343   5.966   5.571   5.958 -0.3865  1.7388  0.4369
 5394SOL    MW421344   6.046   5.604   5.968  0.1990  0.4478  0.2940
 5395SOL     OW21345   1.457   6.269   6.136 -0.1703  0.2518  0.1838
 5395SOL    HW221346   1.478   6.362   6.128  0.3029  0.1289  0.0085
 5395SOL    HW321347   1.454   6.253   6.231 -0.4805  0.4932  0.2169
 5395SOL    MW421348   1.459   6.279   6.148 -0.1488  0.2674  0.1650
 5396SOL     OW21349   6.365   3.859   0.461 -0.1968  0.6222  0.1890
 5396SOL    HW221350   6.362   3.942   0.414 -0.7723 -0.0946 -1.0936
 5396SOL    HW321351   6.322   3.877   0.545 -0.5004  1.5600 -0.1563
 5396SOL    MW421352   6.359   3.872   0.466 -0.3128  0.6514 -0.0258
 5397SOL     OW21353   5.174   5.414   2.597  0.5292 -0.1078  0.1601
 5397SOL    HW221354   5.152   5.459   2.679  1.3142 -0.3412  0.5008
 5397SOL    HW321355   5.094   5.421   2.544  0.2772  0.7296  0.6360
 5397SOL    MW421356   5.160   5.421   2.601  0.5995 -0.0281  0.2678
 5398SOL     OW21357   3.548   1.943   4.829 -0.0818 -0.8815  0.4241
 5398SOL    HW221358   3.624   1.911   4.780 -0.4412 -2.1802  0.6581
 5398SOL    HW321359   3.508   2.009   4.773  0.7817 -0.7274 -0.0300
 5398SOL    MW421360   3.553   1.947   4.815 -0.0153 -1.0325  0.3950
 5399SOL     OW21361   1.840   6.256   4.991 -0.1153 -0.0732 -0.2896
 5399SOL    HW221362   1.901   6.182   4.985  0.6833  0.5768 -0.2687
 5399SOL    HW321363   1.858   6.295   5.077  1.7024  2.0443 -1.5386
 5399SOL    MW421364   1.850   6.251   5.002  0.2299  0.2920 -0.4516
 5400SOL     OW21365   0.323   4.383   4.004  0.3597  0.1142 -0.3864
 5400SOL    HW221366   0.360   4.471   4.015 -0.8488  0.6687 -0.6427
 5400SOL    HW321367   0.275   4.368   4.085  0.0988 -0.0835 -0.5808
 5400SOL    MW421368   0.322   4.393   4.016  0.1658  0.1613 -0.4459
 5401SOL     OW21369   4.688   3.746   5.989  0.3539  0.2215 -0.1407
 5401SOL    HW221370   4.660   3.763   6.079 -2.0857 -1.3428 -0.5113
 5401SOL    HW321371   4.633   3.804   5.936  1.2581  0.6064 -0.6732
 5401SOL    MW421372   4.677   3.756   5.994  0.1513  0.0659 -0.2599
 5402SOL     OW21373   5.833   5.115   2.152  0.0420 -0.0320  0.0606
 5402SOL    HW221374   5.751   5.154   2.121  0.1496  0.2957  0.1848
 5402SOL    HW321375   5.808   5.061   2.226  0.1374  1.3577  1.1588
 5402SOL    MW421376   5.819   5.113   2.157  0.0688  0.1946  0.2219
 5403SOL     OW21377   3.440   4.603   5.421  0.0745  0.1511 -0.1086
 5403SOL    HW221378   3.527   4.572   5.448  0.0880 -0.3386 -0.7073
 5403SOL    HW321379   3.380   4.564   5.485  0.2181 -0.1066 -0.1307
 5403SOL    MW421380   3.444   4.594   5.433  0.0952  0.0525 -0.1905
 5404SOL     OW21381   3.016   4.021   1.640 -0.3657 -0.2428  0.0688
 5404SOL    HW221382   2.962   3.942   1.631 -1.8412  0.6664  0.5609
 5404SOL    HW321383   3.101   3.988   1.670 -0.5620 -1.7397 -0.8989
 5404SOL    MW421384   3.020   4.006   1.643 -0.5863 -0.3203  0.0061
 5405SOL     OW21385   4.017   1.383   0.951 -0.0577 -0.2041  0.0717
 5405SOL    HW221386   4.028   1.335   1.033  0.2469 -0.3774 -0.0705
 5405SOL    HW321387   4.071   1.336   0.888  1.7348  1.3618  0.3482
 5405SOL    MW421388   4.025   1.370   0.954  0.2190 -0.0204  0.0894
 5406SOL     OW21389   3.602   5.705   5.082 -0.0980 -0.2457  0.6133
 5406SOL    HW221390   3.617   5.740   4.994  0.3070 -1.7573  0.0426
 5406SOL    HW321391   3.630   5.774   5.141 -0.9592  1.0370 -0.4387
 5406SOL    MW421392   3.608   5.718   5.078 -0.1582 -0.2759  0.3992
 5407SOL     OW21393   1.970   3.101   2.538  0.1165  0.0874  0.0247
 5407SOL    HW221394   1.990   3.182   2.584  0.8727  0.3811 -0.7867
 5407SOL    HW321395   2.044   3.089   2.478 -0.9309 -0.1625 -1.2475
 5407SOL    MW421396   1.983   3.110   2.536  0.0781  0.0932 -0.2502
 5408SOL     OW21397   4.080   3.699   1.724 -0.0259 -0.1829  0.0523
 5408SOL    HW221398   4.018   3.662   1.661  1.8847 -0.1013 -1.9857
 5408SOL    HW321399   4.053   3.790   1.735 -0.7094 -0.3516 -0.1943
 5408SOL    MW421400   4.068   3.706   1.717  0.1360 -0.1944 -0.2492
 5409SOL     OW21401   0.194   5.838   4.843  0.8687  0.2357 -0.3855
 5409SOL    HW221402   0.172   5.929   4.825  0.1180 -0.1411 -1.4945
 5409SOL    HW321403   0.208   5.799   4.757 -0.2280 -1.0324 -0.0286
 5409SOL    MW421404   0.193   5.845   4.829  0.6250  0.0187 -0.4847
 5410SOL     OW21405   2.911   3.336   2.113  0.3007  0.2753  0.0909
 5410SOL    HW221406   2.918   3.251   2.069  1.2740 -0.2973  1.2629
 5410SOL    HW321407   2.839   3.381   2.068 -1.4147 -1.8459  0.5231
 5410SOL    MW421408   2.902   3.331   2.101  0.2028 -0.0801  0.3026
 5411SOL     OW21409   3.768   0.482   1.813 -0.0402 -0.4177  0.5168
 5411SOL    HW221410   3.845   0.427   1.800  1.4305  1.7097 -0.2405
 5411SOL    HW321411   3.695   0.430   1.779  1.5971 -1.0533 -2.3124
 5411SOL    MW421412   3.768   0.468   1.806  0.3699 -0.2209  0.0436
 5412SOL     OW21413   1.980   3.416   4.277  0.2496  0.3409  0.2683
 5412SOL    HW221414   2.052   3.367   4.316 -0.6904 -0.3674  1.1725
 5412SOL    HW321415   1.978   3.388   4.186  0.0018 -1.0069  0.6667
 5412SOL    MW421416   1.989   3.406   4.270  0.0929  0.0696  0.4401
 5413SOL     OW21417   3.260   2.184   3.282 -0.0543 -0.1078 -0.0511
 5413SOL    HW221418   3.253   2.113   3.219  0.4070 -0.5282  0.3629
 5413SOL    HW321419   3.297   2.144   3.360 -0.6858  0.3889  0.5187
 5413SOL    MW421420   3.264   2.170   3.284 -0.0768 -0.0978  0.0787
 5414SOL     OW21421   1.458   5.485   1.211 -0.1571 -0.3278 -0.3752
 5414SOL    HW221422   1.543   5.442   1.213  0.6675  1.2312  1.0349
 5414SOL    HW321423   1.427   5.480   1.302 -0.6894  0.7580 -0.4834
 5414SOL    MW421424   1.465   5.479   1.223 -0.1185  0.0211 -0.2034
 5415SOL     OW21425   4.540   5.614   2.234 -0.0039  0.0442  0.4016
 5415SOL    HW221426   4.536   5.664   2.153 -1.8584 -1.2751 -0.3916
 5415SOL    HW321427   4.585   5.533   2.210  1.3794  0.5285  1.2468
 5415SOL    MW421428   4.545   5.610   2.220 -0.0661 -0.0659  0.4085
 5416SOL     OW21429   5.167   3.631   1.478 -0.0903  0.2108 -0.2690
 5416SOL    HW221430   5.196   3.600   1.392  0.1577 -1.2391  0.3125
 5416SOL    HW321431   5.199   3.565   1.539  1.9587  2.5004  1.2809
 5416SOL    MW421432   5.175   3.618   1.474  0.2128  0.3216  0.0122
 5417SOL     OW21433   6.204   5.433   0.584  0.6858 -0.1539  0.2840
 5417SOL    HW221434   6.127   5.422   0.640  0.0956  0.7451 -0.3211
 5417SOL    HW321435   6.181   5.507   0.527  2.8129  1.5010  1.4533
 5417SOL    MW421436   6.191   5.441   0.584  0.8886  0.1831  0.3585
 5418SOL     OW21437   0.813   4.012   0.339 -0.0592  0.0291  0.2709
 5418SOL    HW221438   0.747   3.950   0.370  0.5910 -0.2467  1.1376
 5418SOL    HW321439   0.862   3.964   0.272  0.4422 -0.4029  0.9390
 5418SOL    MW421440   0.811   3.998   0.334  0.0927 -0.0643  0.4734
 5419SOL     OW21441   5.450   1.778   2.527 -0.0331  0.5041 -0.8251
 5419SOL    HW221442   5.375   1.730   2.561  0.8462 -1.3111 -1.3302
 5419SOL    HW321443   5.494   1.811   2.606 -2.8355  4.2307 -0.5269
 5419SOL    MW421444   5.446   1.776   2.542 -0.2868  0.7563 -0.8524
 5420SOL     OW21445   5.931   2.259   2.726  0.0213 -0.3737 -0.1591
 5420SOL    HW221446   5.890   2.333   2.770  1.5600 -0.6995  1.9978
 5420SOL    HW321447   5.859   2.212   2.686 -1.4452  0.3210  1.5292
 5420SOL    MW421448   5.916   2.263   2.726  0.0308 -0.3250  0.3482
 5421SOL     OW21449   3.834   1.882   0.348  0.1081 -0.1845  0.4286
 5421SOL    HW221450   3.923   1.901   0.376  0.7835  0.8937 -2.1886
 5421SOL    HW321451   3.779   1.926   0.413  1.5650  2.1640  0.2042
 5421SOL    MW421452   3.838   1.890   0.360  0.3894  0.2676  0.0537
 5422SOL     OW21453   0.170   4.292   1.462 -0.2475  0.0478 -0.5020
 5422SOL    HW221454   0.149   4.200   1.476  0.7108 -0.3830 -1.6498
 5422SOL    HW321455   0.264   4.298   1.478 -0.4221  0.9866  0.2509
 5422SOL    MW421456   0.180   4.281   1.466 -0.1441  0.1148 -0.5541
 5423SOL     OW21457   6.151   4.756   3.201  0.4348  0.3571  0.7354
 5423SOL    HW221458   6.130   4.663   3.213  0.1909  0.6784  3.2754
 5423SOL    HW321459   6.201   4.780   3.278 -0.5612  2.6370  0.7683
 5423SOL    MW421460   6.154   4.747   3.213  0.2712  0.7003  1.0748
 5424SOL     OW21461   2.825   6.422   3.810  0.1854  0.0230 -0.4028
 5424SOL    HW221462   2.886   6.496   3.805 -0.2979  0.4269 -0.4167
 5424SOL    HW321463   2.850   6.375   3.889  0.4752  0.2209 -0.3748
 5424SOL    MW421464   2.837   6.426   3.820  0.1599  0.1024 -0.4009
 5425SOL     OW21465   6.181   2.846   6.226  0.2959  0.2958 -0.2537
 5425SOL    HW221466   6.251   2.817   6.167 -0.6942 -0.1677 -1.2340
 5425SOL    HW321467   6.165   2.770   6.283  0.4166  0.3212 -0.1841
 5425SOL    MW421468   6.188   2.832   6.226  0.1812  0.2380 -0.3738
 5426SOL     OW21469   5.864   6.121   3.543 -0.4085  0.3275 -0.3451
 5426SOL    HW221470   5.841   6.063   3.615 -1.7210 -0.3646 -1.2854
 5426SOL    HW321471   5.782   6.137   3.497  0.3704  0.8039 -1.6505
 5426SOL    MW421472   5.850   6.116   3.546 -0.4789  0.2991 -0.6414
 5427SOL     OW21473   1.093   5.643   3.503 -0.3141  0.0398 -0.2533
 5427SOL    HW221474   1.126   5.636   3.413 -0.8103 -1.4376 -0.3451
 5427SOL    HW321475   1.149   5.584   3.553 -0.3819  0.4538  0.3129
 5427SOL    MW421476   1.105   5.635   3.497 -0.3885 -0.1005 -0.1907
 5428SOL     OW21477   1.634   4.142   5.602 -0.2463  0.5937  0.0191
 5428SOL    HW221478   1.698   4.192   5.551 -0.6456  0.4361 -0.6405
 5428SOL    HW321479   1.682   4.117   5.681  0.9496 -0.7011 -1.0604
 5428SOL    MW421480   1.649   4.146   5.606 -0.1412  0.4020 -0.2103
 5429SOL     OW21481   3.481   4.340   4.540 -0.4155  0.2791  0.1580
 5429SOL    HW221482   3.409   4.403   4.534 -0.5795  0.0190 -0.7973
 5429SOL    HW321483   3.547   4.373   4.479  0.3294  0.5635  1.0904
 5429SOL    MW421484   3.480   4.353   4.531 -0.3388  0.2823  0.1550
 5430SOL     OW21485   2.021   0.079   3.022 -0.6952  0.1505 -0.8040
 5430SOL    HW221486   1.930   0.050   3.009 -0.2090 -1.3631 -1.1193
 5430SOL    HW321487   2.042   0.128   2.942 -1.2513  0.5696 -0.6967
 5430SOL    MW421488   2.012   0.081   3.009 -0.7044  0.0061 -0.8314
 5431SOL     OW21489   4.536   1.932   5.052  0.2712 -0.3921 -0.1377
 5431SOL    HW221490   4.494   1.872   4.991 -1.9814  1.0305 -0.1241
 5431SOL    HW321491   4.490   1.917   5.135  1.2816 -0.2468  0.4669
 5431SOL    MW421492   4.524   1.922   5.055  0.1073 -0.1853 -0.0562
 5432SOL     OW21493   3.325   0.465   2.209  0.5620 -0.5161  0.2558
 5432SOL    HW221494   3.276   0.411   2.272  0.1373 -1.8449 -1.1347
 5432SOL    HW321495   3.335   0.408   2.133  2.3285  0.5365 -0.3416
 5432SOL    MW421496   3.320   0.450   2.207  0.7390 -0.5525 -0.0065
 5433SOL     OW21497   1.935   5.925   4.603 -0.8573 -0.3126  0.0443
 5433SOL    HW221498   1.842   5.906   4.591 -0.4150 -1.7279 -1.5619
 5433SOL    HW321499   1.967   5.854   4.658 -0.3923 -0.8552 -0.9055
 5433SOL    MW421500   1.927   5.914   4.609 -0.7376 -0.5709 -0.2929
 5434SOL     OW21501   2.375   1.828   1.104 -0.3688 -0.1391  0.2816
 5434SOL    HW221502   2.410   1.908   1.065  0.5838 -0.7336 -0.1208
 5434SOL    HW321503   2.309   1.858   1.167 -0.2460  0.9362 -0.0912
 5434SOL    MW421504   2.371   1.842   1.108 -0.2269 -0.0756  0.1793
 5435SOL     OW21505   4.691   5.100   5.595  0.5230  0.1227 -0.4465
 5435SOL    HW221506   4.637   5.126   5.671  0.8898  0.1383 -0.1909
 5435SOL    HW321507   4.655   5.015   5.569  1.3051 -0.5665  0.6343
 5435SOL    MW421508   4.679   5.092   5.602  0.6746  0.0339 -0.2702
 5436SOL     OW21509   1.150   0.331   5.830  0.3034  0.4784 -0.4361
 5436SOL    HW221510   1.130   0.237   5.835  2.5004 -0.0035  0.7528
 5436SOL    HW321511   1.136   0.363   5.919 -0.2215  1.2575 -0.7872
 5436SOL    MW421512   1.145   0.322   5.842  0.5240  0.5176 -0.3256
 5437SOL     OW21513   2.607   4.416   3.536 -0.0523 -0.7750 -0.3379
 5437SOL    HW221514   2.616   4.321   3.526  1.1446 -0.8786  1.3762
 5437SOL    HW321515   2.691   4.451   3.506 -0.5971 -0.2092 -1.2464
 5437SOL    MW421516   2.620   4.408   3.530  0.0337 -0.7140 -0.2316
 5438SOL     OW21517   3.658   5.297   0.771  0.5770 -0.5107  0.1164
 5438SOL    HW221518   3.570   5.317   0.737 -0.2613 -2.4897  0.9711
 5438SOL    HW321519   3.716   5.313   0.697 -0.3970  1.4634 -0.2934
 5438SOL    MW421520   3.654   5.302   0.757  0.3379 -0.5114  0.1751
 5439SOL     OW21521   4.530   5.984   1.603 -0.6728 -0.1144  0.2483
 5439SOL    HW221522   4.535   6.079   1.602 -1.9553 -0.0328 -0.2640
 5439SOL    HW321523   4.575   5.958   1.683 -0.3510  0.9158  0.4129
 5439SOL    MW421524   4.537   5.993   1.613 -0.7996  0.0323  0.2025
 5440SOL     OW21525   0.646   4.544   2.645 -0.1069 -0.9496 -0.0356
 5440SOL    HW221526   0.734   4.510   2.660  0.2743  0.1882  0.4338
 5440SOL    HW321527   0.641   4.622   2.700 -1.3867 -0.9543 -0.1161
 5440SOL    MW421528   0.657   4.550   2.654 -0.2254 -0.8001  0.0157
 5441SOL     OW21529   1.504   1.397   3.015  0.4574 -0.1270 -0.0700
 5441SOL    HW221530   1.476   1.309   3.042 -0.3755  0.6252  1.6965
 5441SOL    HW321531   1.520   1.443   3.097  1.8722  1.0877 -0.9892
 5441SOL    MW421532   1.502   1.392   3.029  0.5342  0.1325  0.0418
 5442SOL     OW21533   2.369   0.973   1.811  0.0517 -0.3392 -0.3049
 5442SOL    HW221534   2.296   1.024   1.775 -0.4281 -0.7754  0.0329
 5442SOL    HW321535   2.445   1.002   1.761 -0.0565  1.2589  0.3795
 5442SOL    MW421536   2.369   0.984   1.800 -0.0259 -0.1859 -0.1700
 5443SOL     OW21537   4.627   2.924   2.820  0.6146  0.2610 -0.5018
 5443SOL    HW221538   4.679   2.846   2.836 -0.8930 -0.9532 -1.2855
 5443SOL    HW321539   4.669   2.965   2.744  3.4413  2.1497  1.8853
 5443SOL    MW421540   4.639   2.919   2.812  0.7887  0.3500 -0.2902
 5444SOL     OW21541   3.562   4.650   5.905 -0.8166  0.0778  0.6032
 5444SOL    HW221542   3.481   4.611   5.937 -0.6953 -0.8415 -0.1699
 5444SOL    HW321543   3.601   4.691   5.982 -1.0780 -1.1302  1.4123
 5444SOL    MW421544   3.557   4.650   5.919 -0.8351 -0.2029  0.6080
 5445SOL     OW21545   1.731   4.196   3.289 -0.3897 -0.5069  0.0593
 5445SOL    HW221546   1.688   4.159   3.212 -0.7783 -0.8165  0.4177
 5445SOL    HW321547   1.824   4.184   3.273 -0.4529 -0.3226 -0.4843
 5445SOL    MW421548   1.737   4.190   3.277 -0.4493 -0.5234  0.0349
 5446SOL     OW21549   2.510   1.371   3.955  0.0335 -0.0171 -0.4922
 5446SOL    HW221550   2.584   1.422   3.989 -0.3081  0.3611 -0.3032
 5446SOL    HW321551   2.550   1.305   3.899  0.4881  0.4320 -0.7049
 5446SOL    MW421552   2.525   1.369   3.952  0.0484  0.0920 -0.4953
 5447SOL     OW21553   3.577   3.840   6.009 -0.5252 -0.0516 -0.6128
 5447SOL    HW221554   3.577   3.806   6.099  1.6408 -0.4247 -0.6892
 5447SOL    HW321555   3.537   3.770   5.957 -0.5762 -0.4078 -0.1086
 5447SOL    MW421556   3.572   3.826   6.014 -0.2461 -0.1478 -0.5564
 5448SOL     OW21557   2.656   4.155   3.495  0.2207  0.1963 -0.1470
 5448SOL    HW221558   2.626   4.156   3.404 -2.3344  1.4527  0.5859
 5448SOL    HW321559   2.751   4.163   3.490  0.0144  2.4326 -2.7056
 5448SOL    MW421560   2.664   4.156   3.482 -0.1436  0.6571 -0.3879
 5449SOL     OW21561   1.898   2.866   6.422 -0.8556 -0.4977  0.0705
 5449SOL    HW221562   1.979   2.913   6.403 -1.3272  1.1123  1.6931
 5449SOL    HW321563   1.916   2.818   6.502 -1.4582 -0.1952  0.3958
 5449SOL    MW421564   1.911   2.866   6.430 -0.9973 -0.2454  0.3275
 5450SOL     OW21565   5.655   3.043   2.008  0.3863  0.1137 -0.1174
 5450SOL    HW221566   5.606   3.125   2.018 -0.1594 -0.3333  0.9671
 5450SOL    HW321567   5.631   3.012   1.921 -1.6673 -0.3350  0.5680
 5450SOL    MW421568   5.645   3.050   1.998  0.0433 -0.0045  0.1161
 5451SOL     OW21569   4.007   0.743   1.104 -0.2082  0.3352  0.0120
 5451SOL    HW221570   3.988   0.797   1.180 -0.5158 -1.8033  1.5232
 5451SOL    HW321571   3.928   0.691   1.091 -0.0932  0.5062 -1.7009
 5451SOL    MW421572   3.994   0.744   1.112 -0.2336  0.0756 -0.0146
 5452SOL     OW21573   2.717   4.956   4.355 -0.3528  0.0968 -0.3826
 5452SOL    HW221574   2.691   4.889   4.291 -1.1315  0.8496 -0.8880
 5452SOL    HW321575   2.782   5.009   4.309  0.6530 -0.6083  0.1989
 5452SOL    MW421576   2.722   4.954   4.340 -0.3229  0.1031 -0.3725
 5453SOL     OW21577   5.035   2.642   2.457  0.4495  0.0827  0.2391
 5453SOL    HW221578   5.065   2.572   2.515  1.1734 -0.5525 -0.8510
 5453SOL    HW321579   4.940   2.631   2.453  0.4140  0.0229  1.1467
 5453SOL    MW421580   5.026   2.631   2.464  0.5403 -0.0090  0.2150
 5454SOL     OW21581   3.418   3.009   4.974 -0.0252 -0.0987  0.3588
 5454SOL    HW221582   3.510   3.031   4.963 -0.1790  0.1843 -0.4090
 5454SOL    HW321583   3.418   2.925   5.019  0.5982  0.2846  1.0911
 5454SOL    MW421584   3.430   3.001   4.979  0.0368 -0.0108  0.3541
 5455SOL     OW21585   0.036   2.126   5.419 -0.4104 -0.0400  0.3265
 5455SOL    HW221586   0.015   2.219   5.427 -0.5393  0.0349 -0.7445
 5455SOL    HW321587  -0.028   2.081   5.475 -1.8603  0.3647 -0.9345
 5455SOL    MW421588   0.025   2.132   5.427 -0.6187  0.0233  0.0189
 5456SOL     OW21589   4.100   5.028   0.086  0.1929  0.5830  0.3710
 5456SOL    HW221590   4.121   5.075   0.167  0.2994  0.5400  0.3689
 5456SOL    HW321591   4.014   5.061   0.061 -0.4871 -0.4404  1.2537
 5456SOL    MW421592   4.092   5.039   0.093  0.1173  0.4423  0.4872
 5457SOL     OW21593   6.049   2.716   4.354  0.1354  0.6101 -0.0751
 5457SOL    HW221594   6.026   2.726   4.262  1.2814  0.2038 -0.4333
 5457SOL    HW321595   6.144   2.703   4.353 -0.1390 -2.2667  0.8936
 5457SOL    MW421596   6.059   2.715   4.342  0.2504  0.1769  0.0055
 5458SOL     OW21597   1.134   6.442   3.562  0.0215  0.3429  0.5327
 5458SOL    HW221598   1.088   6.359   3.577  2.2296 -1.1371 -0.3396
 5458SOL    HW321599   1.079   6.508   3.603 -2.7016 -1.3157 -0.2481
 5458SOL    MW421600   1.121   6.440   3.570 -0.0464 -0.0712  0.3146
 5459SOL     OW21601   6.145   3.544   4.092  0.0337  0.6517 -0.0281
 5459SOL    HW221602   6.079   3.478   4.071  0.0311  0.2669  1.1172
 5459SOL    HW321603   6.139   3.554   4.187  0.9188  1.3675 -0.0369
 5459SOL    MW421604   6.136   3.537   4.102  0.1501  0.6954  0.1218
 5460SOL     OW21605   3.640   5.431   5.714  0.2030 -0.5780 -0.0024
 5460SOL    HW221606   3.630   5.522   5.683  2.9777  0.4530  1.7682
 5460SOL    HW321607   3.671   5.384   5.637  3.7539  1.2071  0.1369
 5460SOL    MW421608   3.643   5.437   5.699  1.0376 -0.2064  0.2496
 5461SOL     OW21609   6.093   5.504   1.661 -0.1705  0.3064 -0.0985
 5461SOL    HW221610   6.107   5.420   1.617 -1.7883  0.2433 -0.5691
 5461SOL    HW321611   6.026   5.485   1.727  0.1159  1.0336  0.4098
 5461SOL    MW421612   6.086   5.491   1.664 -0.3462  0.3940 -0.0935
 5462SOL     OW21613   3.464   4.968   6.242 -0.5886 -0.0032 -0.3027
 5462SOL    HW221614   3.382   4.954   6.196 -0.1943 -2.1764 -0.4614
 5462SOL    HW321615   3.505   5.041   6.196 -2.5107  1.3147 -0.0427
 5462SOL    MW421616   3.459   4.976   6.230 -0.7902 -0.1160 -0.2893
 5463SOL     OW21617   1.406   4.905   5.032  0.0819 -0.6640 -0.0140
 5463SOL    HW221618   1.353   4.973   5.074  0.7985  1.3010 -2.1257
 5463SOL    HW321619   1.486   4.900   5.085 -0.2147 -0.2698  0.4769
 5463SOL    MW421620   1.409   4.913   5.045  0.1373 -0.3528 -0.2278
 5464SOL     OW21621   4.247   6.007   1.172  0.8223 -0.2160  0.5902
 5464SOL    HW221622   4.279   6.069   1.237 -0.4821  2.5634 -1.2262
 5464SOL    HW321623   4.307   6.018   1.098 -0.8070  0.7633 -0.6499
 5464SOL    MW421624   4.259   6.017   1.171  0.4353  0.2799  0.1869
 5465SOL     OW21625   5.305   4.549   0.005 -0.0578 -0.4020 -0.5484
 5465SOL    HW221626   5.309   4.462  -0.034 -1.7368 -1.9969  2.4417
 5465SOL    HW321627   5.387   4.558   0.053 -0.3090 -0.8186 -0.0271
 5465SOL    MW421628   5.316   4.539   0.006 -0.3125 -0.6674 -0.0851
 5466SOL     OW21629   2.101   1.002   6.297  0.4305 -0.1500 -0.3051
 5466SOL    HW221630   2.061   1.088   6.280  1.1870 -0.1001 -2.0250
 5466SOL    HW321631   2.039   0.958   6.355 -0.7072  0.9980 -0.6051
 5466SOL    MW421632   2.088   1.008   6.302  0.3802  0.0081 -0.5716
 5467SOL     OW21633   4.311   0.872   4.371  0.0742  0.3967  0.1918
 5467SOL    HW221634   4.226   0.911   4.390  0.6340  2.9185 -1.8104
 5467SOL    HW321635   4.293   0.809   4.301 -0.0349  1.9760 -1.2633
 5467SOL    MW421636   4.297   0.869   4.364  0.1337  0.9378 -0.2644
 5468SOL     OW21637   0.331   5.294   1.093  0.0901  0.2718 -0.2925
 5468SOL    HW221638   0.296   5.344   1.167 -2.2132 -0.4351 -0.8278
 5468SOL    HW321639   0.369   5.215   1.134  0.9990  0.9945  0.2962
 5468SOL    MW421640   0.332   5.290   1.108 -0.0938  0.2738 -0.2854
 5469SOL     OW21641   5.074   3.034   0.198 -0.1463 -0.1077  0.4052
 5469SOL    HW221642   5.066   3.124   0.228  0.7937  0.1171  0.0322
 5469SOL    HW321643   5.057   3.039   0.104  3.0822  0.2676 -0.2704
 5469SOL    MW421644   5.071   3.046   0.189  0.4037 -0.0285  0.2668
 5470SOL     OW21645   0.736   4.854   3.066 -0.2105  0.5096  0.3562
 5470SOL    HW221646   0.714   4.807   3.147 -0.4406  2.0626  1.2237
 5470SOL    HW321647   0.776   4.787   3.010  0.0922 -0.5707  1.8026
 5470SOL    MW421648   0.738   4.839   3.069 -0.2009  0.5720  0.6615
 5471SOL     OW21649   4.883   2.064   3.549 -0.4359  0.3310 -0.3266
 5471SOL    HW221650   4.817   2.091   3.613 -1.5680 -0.1930 -1.2275
 5471SOL    HW321651   4.952   2.023   3.601 -0.6237  1.2302  0.6782
 5471SOL    MW421652   4.883   2.062   3.564 -0.6101  0.3805 -0.3129
 5472SOL     OW21653   1.078   1.553   2.946  0.3939 -0.0278 -0.3248
 5472SOL    HW221654   1.166   1.580   2.923  0.1879 -0.6532 -1.9492
 5472SOL    HW321655   1.079   1.545   3.042  1.8908  0.5931 -0.2720
 5472SOL    MW421656   1.090   1.556   2.956  0.5642 -0.0284 -0.5322
 5473SOL     OW21657   6.323   2.460   2.876 -0.1165 -0.8224 -0.3099
 5473SOL    HW221658   6.402   2.493   2.918 -0.9988  0.3357  0.5294
 5473SOL    HW321659   6.319   2.368   2.901  0.5711 -0.7071  0.2642
 5473SOL    MW421660   6.333   2.452   2.885 -0.1422 -0.6544 -0.1234
 5474SOL     OW21661   0.575   6.323   5.511 -0.3374 -0.4943 -0.0085
 5474SOL    HW221662   0.575   6.340   5.605 -0.0928  1.3220 -0.3008
 5474SOL    HW321663   0.519   6.390   5.474 -0.7765 -1.4430 -1.1438
 5474SOL    MW421664   0.568   6.334   5.519 -0.3631 -0.3798 -0.1968
 5475SOL     OW21665   3.998   3.715   3.302 -0.2157 -0.2214 -0.2730
 5475SOL    HW221666   3.925   3.668   3.262 -0.0527 -0.3276 -0.4471
 5475SOL    HW321667   4.071   3.653   3.299  0.2596  0.3623 -1.3533
 5475SOL    MW421668   3.998   3.701   3.296 -0.1315 -0.1584 -0.4385
 5476SOL     OW21669   3.403   2.041   0.858  0.2922  0.6213  0.1258
 5476SOL    HW221670   3.348   2.039   0.780  1.2325 -1.0783 -0.5348
 5476SOL    HW321671   3.356   1.990   0.923 -0.0669  1.2881  0.4050
 5476SOL    MW421672   3.390   2.034   0.856  0.3689  0.4851  0.0755
 5477SOL     OW21673   2.563   5.811   1.788 -0.6079  0.0017 -0.3996
 5477SOL    HW221674   2.545   5.903   1.769 -0.6314 -0.1405 -1.1090
 5477SOL    HW321675   2.482   5.779   1.828 -1.4367 -0.2509 -2.1702
 5477SOL    MW421676   2.550   5.819   1.791 -0.7204 -0.0504 -0.7268
 5478SOL     OW21677   0.079   3.376   2.958 -0.1668  0.2247 -0.7380
 5478SOL    HW221678   0.159   3.331   2.987 -0.1270  0.7655  0.0174
 5478SOL    HW321679   0.101   3.469   2.964 -0.6101  0.3683 -1.2582
 5478SOL    MW421680   0.093   3.383   2.962 -0.2201  0.3150 -0.7069
 5479SOL     OW21681   3.739   0.889   5.194  0.0932 -0.3910 -0.3871
 5479SOL    HW221682   3.758   0.861   5.283  2.3630  1.1836 -0.2925
 5479SOL    HW321683   3.656   0.847   5.172 -0.6378 -0.6379  2.5357
 5479SOL    MW421684   3.730   0.880   5.203  0.2963 -0.2159  0.0110
 5480SOL     OW21685   3.598   6.154   1.001 -0.3700 -0.4582  0.4136
 5480SOL    HW221686   3.663   6.223   1.015 -0.8966  0.1911 -0.2909
 5480SOL    HW321687   3.641   6.093   0.941 -0.0324 -0.5619  0.7574
 5480SOL    MW421688   3.612   6.155   0.995 -0.3949 -0.3862  0.3660
 5481SOL     OW21689   2.218   4.030   0.875  0.1319  0.1068  0.1861
 5481SOL    HW221690   2.284   3.983   0.927 -0.5078  0.9826  1.8513
 5481SOL    HW321691   2.233   3.999   0.786  1.6462 -1.0381  0.7749
 5481SOL    MW421692   2.229   4.019   0.871  0.2473  0.0713  0.4835
 5482SOL     OW21693   5.506   1.915   4.639 -0.4999 -0.0318  0.3790
 5482SOL    HW221694   5.444   1.965   4.585  1.4400  1.7150 -0.3584
 5482SOL    HW321695   5.574   1.887   4.578  0.3109 -0.4728  1.4515
 5482SOL    MW421696   5.507   1.918   4.624 -0.1370  0.1405  0.4232
 5483SOL     OW21697   0.991   6.153   0.146  0.3131  0.0003  0.4037
 5483SOL    HW221698   0.983   6.206   0.225  2.2447  0.1700  0.5477
 5483SOL    HW321699   1.059   6.197   0.095 -0.0319 -0.7931 -0.7756
 5483SOL    MW421700   0.999   6.165   0.150  0.5224 -0.0820  0.2671
 5484SOL     OW21701   3.784   4.409   4.611 -0.4632 -0.0959 -0.8526
 5484SOL    HW221702   3.860   4.438   4.661 -1.5483  0.0616  0.7701
 5484SOL    HW321703   3.817   4.339   4.555  1.0588  0.6151 -0.8897
 5484SOL    MW421704   3.798   4.404   4.610 -0.4055  0.0187 -0.6434
 5485SOL     OW21705   1.667   3.679   2.272 -0.2967  0.0547 -0.0634
 5485SOL    HW221706   1.684   3.589   2.299  0.4514 -0.2478 -1.4923
 5485SOL    HW321707   1.742   3.729   2.303 -0.4232  0.0846  0.1986
 5485SOL    MW421708   1.679   3.674   2.280 -0.2147  0.0187 -0.2174
 5486SOL     OW21709   1.381   6.419   0.734  0.5067 -0.3623 -0.4397
 5486SOL    HW221710   1.396   6.510   0.707 -2.4904  0.1520 -0.7211
 5486SOL    HW321711   1.331   6.426   0.815 -0.5312 -1.6952 -0.9210
 5486SOL    MW421712   1.376   6.432   0.741 -0.0256 -0.4703 -0.5403
 5487SOL     OW21713   1.496   5.529   6.164  0.0807 -0.6450 -0.3200
 5487SOL    HW221714   1.562   5.566   6.105 -1.4224  1.4230 -0.7900
 5487SOL    HW321715   1.416   5.577   6.143 -1.4943 -2.7586  0.5490
 5487SOL    MW421716   1.494   5.540   6.153 -0.3254 -0.6510 -0.2673
 5488SOL     OW21717   1.023   2.154   6.019 -0.0041 -0.1716  0.2125
 5488SOL    HW221718   1.113   2.168   5.990 -0.3760 -0.1884 -1.0181
 5488SOL    HW321719   0.990   2.241   6.039 -0.0675 -0.0415 -0.4460
 5488SOL    MW421720   1.031   2.167   6.018 -0.0615 -0.1567 -0.0367
 5489SOL     OW21721   4.808   6.432   5.721  0.5815  0.1011  0.2828
 5489SOL    HW221722   4.852   6.366   5.776  0.4609  0.4082  0.7537
 5489SOL    HW321723   4.789   6.504   5.781  3.1254  1.7600 -0.7591
 5489SOL    MW421724   4.811   6.432   5.736  0.9012  0.3605  0.2074
 5490SOL     OW21725   4.579   5.872   1.116  0.5206 -0.0648 -0.6622
 5490SOL    HW221726   4.625   5.923   1.182 -0.1630  0.8184 -0.8488
 5490SOL    HW321727   4.523   5.812   1.166  0.4032  0.2306 -0.4365
 5490SOL    MW421728   4.578   5.871   1.131  0.4149  0.0907 -0.6570
 5491SOL     OW21729   4.495   0.359   3.949  0.7148 -0.3137  0.2882
 5491SOL    HW221730   4.579   0.314   3.940  0.6346 -0.8809  1.9326
 5491SOL    HW321731   4.432   0.288   3.962 -0.0442  0.1017 -0.9875
 5491SOL    MW421732   4.498   0.343   3.950  0.6041 -0.3338  0.3369
 5492SOL     OW21733   1.860   6.432   4.764  0.5441  0.1092  0.0472
 5492SOL    HW221734   1.876   6.392   4.849  0.2468  0.3868  0.2380
 5492SOL    HW321735   1.765   6.426   4.752  0.8300 -3.2891 -1.9336
 5492SOL    MW421736   1.849   6.426   4.773  0.5426 -0.3025 -0.1890
 5493SOL     OW21737   5.135   5.130   4.440 -0.7347 -0.0556  1.0207
 5493SOL    HW221738   5.181   5.213   4.457 -1.8749  1.1457 -1.2869
 5493SOL    HW321739   5.046   5.145   4.470 -1.7149  0.6953 -1.8792
 5493SOL    MW421740   5.129   5.143   4.446 -1.0145  0.2020  0.3336
 5494SOL     OW21741   2.930   4.125   2.870 -0.1574 -0.3592  0.1312
 5494SOL    HW221742   2.848   4.094   2.909 -0.7491 -0.5137 -1.1703
 5494SOL    HW321743   2.948   4.063   2.800  2.7543 -2.1546  2.2594
 5494SOL    MW421744   2.922   4.113   2.866  0.1487 -0.6165  0.2402
 5495SOL     OW21745   0.729   4.589   3.997  0.3859 -0.5453 -0.6983
 5495SOL    HW221746   0.798   4.560   4.057  0.2400  0.9457  0.2423
 5495SOL    HW321747   0.741   4.535   3.919  1.1102 -1.9669  0.3481
 5495SOL    MW421748   0.740   4.578   3.995  0.4622 -0.5361 -0.4362
 5496SOL     OW21749   2.137   2.527   2.765 -0.5825 -0.1702 -0.1883
 5496SOL    HW221750   2.172   2.485   2.844 -0.9871 -1.6583 -0.7747
 5496SOL    HW321751   2.049   2.555   2.790 -1.5211 -2.5095 -0.6742
 5496SOL    MW421752   2.130   2.526   2.779 -0.7597 -0.6752 -0.3298
 5497SOL     OW21753   3.985   3.711   1.259 -0.2574  0.1275 -0.0219
 5497SOL    HW221754   3.946   3.797   1.275  1.9598  1.1504  0.2007
 5497SOL    HW321755   3.962   3.692   1.168 -2.2426  0.0898  0.4276
 5497SOL    MW421756   3.977   3.720   1.249 -0.2268  0.2575  0.0667
 5498SOL     OW21757   0.677   4.363   3.342  0.0274  0.4282  0.0263
 5498SOL    HW221758   0.599   4.342   3.290 -0.4609 -0.3260  1.0374
 5498SOL    HW321759   0.644   4.415   3.415  0.6042  0.8135  0.0252
 5498SOL    MW421760   0.662   4.367   3.344  0.0391  0.3796  0.1595
 5499SOL     OW21761   2.145   2.858   4.132 -0.5441  0.1938 -0.3022
 5499SOL    HW221762   2.163   2.864   4.038 -1.4181  0.8234 -0.4432
 5499SOL    HW321763   2.114   2.769   4.145  0.0362 -0.0452 -0.5236
 5499SOL    MW421764   2.144   2.847   4.121 -0.5829  0.2453 -0.3500
 5500SOL     OW21765   6.345   3.120   5.991  0.4434 -0.0908 -0.0289
 5500SOL    HW221766   6.252   3.140   5.979  0.5652  0.2864 -0.3600
 5500SOL    HW321767   6.384   3.203   6.018  0.3656 -0.6569  1.9874
 5500SOL    MW421768   6.338   3.133   5.993  0.4492 -0.1157  0.1935
 5501SOL     OW21769   1.540   3.879   3.233  0.2146 -0.5065  0.2284
 5501SOL    HW221770   1.575   3.952   3.182  1.0690 -0.4840  0.8347
 5501SOL    HW321771   1.450   3.905   3.252 -0.2872 -0.7026 -1.6155
 5501SOL    MW421772   1.533   3.892   3.228  0.2611 -0.5294  0.0651
 5502SOL     OW21773   1.489   0.076   2.531 -0.3448  0.1167  0.4556
 5502SOL    HW221774   1.567   0.066   2.585 -0.5472 -3.3948  0.2923
 5502SOL    HW321775   1.510   0.148   2.472  3.2287 -1.3281 -0.2691
 5502SOL    MW421776   1.502   0.084   2.530  0.1000 -0.5372  0.3385
 5503SOL     OW21777   2.744   2.414   4.067 -0.5069  0.2211  0.0793
 5503SOL    HW221778   2.734   2.502   4.102  2.3506  1.0966 -0.9633
 5503SOL    HW321779   2.704   2.357   4.132  0.6301  2.0451  2.5363
 5503SOL    MW421780   2.738   2.418   4.080  0.0201  0.5773  0.2659
 5504SOL     OW21781   3.506   3.088   0.030  0.5933 -0.2562 -0.2207
 5504SOL    HW221782   3.530   3.011  -0.021 -1.1981 -0.1366 -1.3613
 5504SOL    HW321783   3.533   3.068   0.119  0.9151 -1.8551 -0.6442
 5504SOL    MW421784   3.513   3.075   0.035  0.3994 -0.4514 -0.4270
 5505SOL     OW21785   4.702   4.668   4.813 -0.2333  0.5886 -0.0181
 5505SOL    HW221786   4.758   4.606   4.767 -2.3813 -0.5580 -1.2802
 5505SOL    HW321787   4.757   4.744   4.829  1.4012 -0.0916 -1.9869
 5505SOL    MW421788   4.717   4.670   4.809 -0.3010  0.3476 -0.4444
 5506SOL     OW21789   6.251   4.431   1.112 -0.3428  0.0002 -0.3632
 5506SOL    HW221790   6.286   4.466   1.195 -0.3358 -1.2091  0.1712
 5506SOL    HW321791   6.157   4.447   1.117 -0.5291 -1.2257  0.4947
 5506SOL    MW421792   6.243   4.438   1.124 -0.3665 -0.3211 -0.1795
 5507SOL     OW21793   3.730   6.440   5.638 -0.3557  0.4676  0.3709
 5507SOL    HW221794   3.645   6.454   5.681  1.0647  0.1364  3.6319
 5507SOL    HW321795   3.742   6.345   5.640 -0.6279  0.3413 -1.7715
 5507SOL    MW421796   3.720   6.429   5.644 -0.2042  0.4073  0.5185
 5508SOL     OW21797   4.340   0.954   6.263 -0.0132 -0.2555  0.3031
 5508SOL    HW221798   4.379   1.017   6.203 -0.1083 -0.7078 -0.2467
 5508SOL    HW321799   4.335   1.000   6.347 -0.8547  0.7609 -0.2840
 5508SOL    MW421800   4.344   0.968   6.266 -0.1367 -0.1811  0.1531
 5509SOL     OW21801   2.653   4.243   6.321 -0.4160  0.5313 -0.3422
 5509SOL    HW221802   2.621   4.202   6.401 -1.3640  1.2253 -0.3504
 5509SOL    HW321803   2.634   4.179   6.252 -1.0904  0.6111 -0.2362
 5509SOL    MW421804   2.646   4.229   6.322 -0.6300  0.6334 -0.3293
 5510SOL     OW21805   1.333   2.789   5.272  0.8906  0.5856  0.0920
 5510SOL    HW221806   1.417   2.827   5.246  0.7287  0.6434 -0.3492
 5510SOL    HW321807   1.268   2.837   5.220  0.5629  0.7285  0.6296
 5510SOL    MW421808   1.336   2.800   5.262  0.8260  0.6121  0.1047
 5511SOL     OW21809   0.844   1.094   2.888  0.1472 -0.0895 -0.0139
 5511SOL    HW221810   0.923   1.149   2.884 -0.5358  0.8649 -0.7088
 5511SOL    HW321811   0.848   1.054   2.975  2.8480 -2.2934 -0.9948
 5511SOL    MW421812   0.855   1.096   2.899  0.4134 -0.2543 -0.2350
 5512SOL     OW21813   2.689   3.983   0.590 -0.0363  0.0415 -0.0803
 5512SOL    HW221814   2.651   3.912   0.642  0.7070 -0.8308 -0.6852
 5512SOL    HW321815   2.748   3.938   0.529  0.5076  1.1972 -0.4234
 5512SOL    MW421816   2.691   3.968   0.589  0.1335  0.0789 -0.2054
 5513SOL     OW21817   0.353   0.682   0.198 -0.7427  0.1249  0.3374
 5513SOL    HW221818   0.324   0.592   0.184  1.8783 -0.3793 -3.0327
 5513SOL    HW321819   0.314   0.732   0.126  0.2374  1.0583  0.4242
 5513SOL    MW421820   0.344   0.677   0.186 -0.2676  0.1815 -0.0958
 5514SOL     OW21821   5.702   3.443   0.885  0.1706  0.7158 -0.2600
 5514SOL    HW221822   5.762   3.373   0.910 -0.2409 -0.1619 -1.5953
 5514SOL    HW321823   5.733   3.470   0.798 -1.5645 -0.0238 -1.1488
 5514SOL    MW421824   5.714   3.437   0.876 -0.1126  0.5024 -0.5534
 5515SOL     OW21825   1.079   1.249   2.896 -0.1872  0.0517  0.0485
 5515SOL    HW221826   1.068   1.343   2.882  0.5699  0.1345 -0.0369
 5515SOL    HW321827   1.165   1.230   2.860 -0.8327 -0.9079 -1.0722
 5515SOL    MW421828   1.089   1.259   2.889 -0.1724 -0.0640 -0.1106
 5516SOL     OW21829   5.187   5.331   2.140  0.1546 -0.3169  0.6055
 5516SOL    HW221830   5.172   5.297   2.229 -0.7716 -1.1673  0.1422
 5516SOL    HW321831   5.105   5.376   2.118  0.9069  1.1714  0.7204
 5516SOL    MW421832   5.174   5.332   2.149  0.1317 -0.2327  0.5595
 5517SOL     OW21833   4.002   5.466   3.287  0.1940 -0.1525 -0.3642
 5517SOL    HW221834   4.016   5.540   3.228  2.7420  0.6612  1.1148
 5517SOL    HW321835   3.919   5.485   3.330 -0.0403  0.9367 -1.2351
 5517SOL    MW421836   3.993   5.478   3.285  0.4993  0.0985 -0.2839
 5518SOL     OW21837   4.680   3.418   5.389 -0.1022  0.2058 -0.0805
 5518SOL    HW221838   4.772   3.402   5.413  0.1039  0.1125 -0.9205
 5518SOL    HW321839   4.644   3.464   5.465  0.7022  0.4545  0.1624
 5518SOL    MW421840   4.687   3.422   5.402  0.0311  0.2263 -0.1593
 5519SOL     OW21841   4.279   0.230   3.003 -0.1712  0.1471  0.2528
 5519SOL    HW221842   4.332   0.249   3.080 -0.8249 -0.3376  0.8394
 5519SOL    HW321843   4.342   0.221   2.932  0.4285  0.7715  0.6911
 5519SOL    MW421844   4.294   0.231   3.004 -0.1783  0.1655  0.3880
 5520SOL     OW21845   5.518   4.733   3.560 -0.2619  0.7034  0.0304
 5520SOL    HW221846   5.561   4.809   3.600  0.2068  1.3723 -1.6761
 5520SOL    HW321847   5.581   4.700   3.496 -0.1914 -1.5594  1.1538
 5520SOL    MW421848   5.532   4.738   3.557 -0.1908  0.4931 -0.0466
 5521SOL     OW21849   2.712   5.623   1.205 -0.3480 -0.0069 -0.7059
 5521SOL    HW221850   2.652   5.691   1.177  1.4920  1.9363 -0.1572
 5521SOL    HW321851   2.788   5.632   1.149  0.5915 -0.5505  0.4257
 5521SOL    MW421852   2.714   5.633   1.194  0.0188  0.1777 -0.4842
 5522SOL     OW21853   4.435   2.506   4.321 -0.2237 -0.5726 -0.0122
 5522SOL    HW221854   4.493   2.452   4.376  0.3781 -0.7727 -0.8206
 5522SOL    HW321855   4.415   2.582   4.375 -0.2297 -1.1049  0.7558
 5522SOL    MW421856   4.440   2.509   4.336 -0.1451 -0.6692 -0.0176
 5523SOL     OW21857   4.521   2.363   6.353  0.0032  0.0454  0.0939
 5523SOL    HW221858   4.611   2.367   6.386 -0.2381  0.6793  0.7142
 5523SOL    HW321859   4.470   2.416   6.415 -0.7140  0.1075 -0.5235
 5523SOL    MW421860   4.526   2.370   6.366 -0.1233  0.1372  0.0943
 5524SOL     OW21861   5.462   0.391   3.205 -0.2706  0.2521 -0.1930
 5524SOL    HW221862   5.428   0.434   3.126  0.3851 -0.0196 -0.6282
 5524SOL    HW321863   5.383   0.367   3.254 -0.7719 -1.0727 -1.5596
 5524SOL    MW421864   5.447   0.393   3.201 -0.2502  0.0414 -0.4308
 5525SOL     OW21865   1.955   2.911   3.036  0.0712 -0.0987 -0.8019
 5525SOL    HW221866   1.864   2.882   3.032 -0.0022  0.2615 -2.1732
 5525SOL    HW321867   1.995   2.876   2.956  0.7962  0.8794 -0.8792
 5525SOL    MW421868   1.948   2.902   3.025  0.1572  0.0779 -0.9930
 5526SOL     OW21869   4.511   4.899   1.692 -0.0608  0.3132  0.2555
 5526SOL    HW221870   4.590   4.876   1.740  0.8735  0.9482 -0.9501
 5526SOL    HW321871   4.476   4.975   1.739  0.2961  0.3274  0.4975
 5526SOL    MW421872   4.517   4.906   1.705  0.1096  0.3988  0.1283
 5527SOL     OW21873   2.384   3.495   4.564  0.0902 -0.0330  0.4435
 5527SOL    HW221874   2.332   3.528   4.637 -0.4062  1.2099 -0.4329
 5527SOL    HW321875   2.365   3.555   4.492  3.4065  1.0641  0.3037
 5527SOL    MW421876   2.375   3.507   4.564  0.4623  0.2757  0.3094
 5528SOL     OW21877   5.973   5.460   0.037 -0.2540 -0.2993  0.9761
 5528SOL    HW221878   5.886   5.499   0.028  0.5402  1.5274  0.7947
 5528SOL    HW321879   5.992   5.423  -0.049  0.2491  1.8089  0.1138
 5528SOL    MW421880   5.964   5.460   0.024 -0.0829  0.2198  0.8384
 5529SOL     OW21881   4.223   6.071   5.124  0.5762  0.0058 -0.1627
 5529SOL    HW221882   4.236   5.978   5.141  0.1707 -0.5874 -2.6742
 5529SOL    HW321883   4.267   6.087   5.041 -1.2247  1.5357 -0.9030
 5529SOL    MW421884   4.230   6.061   5.115  0.2851  0.1294 -0.5918
 5530SOL     OW21885   3.039   0.643   0.907  0.2058 -0.6829  0.2629
 5530SOL    HW221886   2.972   0.595   0.860  0.1751 -1.8985  1.4840
 5530SOL    HW321887   3.057   0.590   0.985  1.3149  0.4972  0.8583
 5530SOL    MW421888   3.033   0.630   0.911  0.3481 -0.6876  0.5026
 5531SOL     OW21889   3.414   4.841   0.761  0.1217 -0.4841  0.2562
 5531SOL    HW221890   3.450   4.920   0.720  0.7866 -0.7021  0.3996
 5531SOL    HW321891   3.319   4.849   0.749  0.3016 -0.7090 -1.6382
 5531SOL    MW421892   3.406   4.853   0.754  0.2331 -0.5425  0.0252
 5532SOL     OW21893   1.452   2.065   3.603  0.1747  0.8729 -0.1068
 5532SOL    HW221894   1.421   1.978   3.580 -0.3850  1.2125 -0.6606
 5532SOL    HW321895   1.532   2.076   3.552  0.7913  0.3051  0.7173
 5532SOL    MW421896   1.459   2.055   3.593  0.1822  0.8428 -0.0712
 5533SOL     OW21897   5.657   4.557   2.353  0.0172  0.1555  0.0771
 5533SOL    HW221898   5.618   4.575   2.268 -1.4562  1.4987  0.9915
 5533SOL    HW321899   5.640   4.463   2.368  0.9880 -0.2880 -1.4001
 5533SOL    MW421900   5.650   4.547   2.344 -0.0491  0.2742  0.0029
 5534SOL     OW21901   4.913   2.254   1.019 -0.0037 -0.2212  0.3696
 5534SOL    HW221902   4.999   2.294   1.013 -0.4074  0.8041  1.1905
 5534SOL    HW321903   4.929   2.170   1.061  0.7220 -0.5241 -0.4726
 5534SOL    MW421904   4.926   2.248   1.024  0.0388 -0.1259  0.3668
 5535SOL     OW21905   4.320   2.329   0.943 -0.3119 -0.0065  0.3903
 5535SOL    HW221906   4.370   2.267   0.889 -1.4661 -1.2806  0.7321
 5535SOL    HW321907   4.276   2.385   0.880 -0.9662 -0.9366 -0.0127
 5535SOL    MW421908   4.321   2.328   0.928 -0.5505 -0.2973  0.3822
 5536SOL     OW21909   0.140   3.738   1.812 -0.7635 -0.6506  0.1640
 5536SOL    HW221910   0.083   3.782   1.875  0.2906  1.8823 -0.5586
 5536SOL    HW321911   0.103   3.758   1.726 -0.9862 -2.3211 -0.1751
 5536SOL    MW421912   0.128   3.746   1.809 -0.6538 -0.5368  0.0239
 5537SOL     OW21913   0.357   0.532   5.161 -0.2020 -0.3684 -0.5781
 5537SOL    HW221914   0.264   0.552   5.157 -0.1211  0.0319 -0.4823
 5537SOL    HW321915   0.388   0.543   5.071 -0.3692 -1.1255 -0.7380
 5537SOL    MW421916   0.349   0.536   5.148 -0.2134 -0.4155 -0.5865
 5538SOL     OW21917   2.038   4.583   3.089 -0.4905 -0.5700  0.3776
 5538SOL    HW221918   1.987   4.525   3.146  0.8612 -0.9144  1.3058
 5538SOL    HW321919   2.053   4.661   3.141  0.5223 -0.7715  0.4089
 5538SOL    MW421920   2.033   4.585   3.103 -0.1785 -0.6421  0.5042
 5539SOL     OW21921   5.915   0.502   0.681  0.3879 -0.1928 -0.4884
 5539SOL    HW221922   5.861   0.470   0.754  1.2601  0.6779  0.5794
 5539SOL    HW321923   5.872   0.582   0.653 -0.0567 -0.6302 -1.0827
 5539SOL    MW421924   5.902   0.508   0.687  0.4443 -0.1356 -0.4260
 5540SOL     OW21925   4.502   5.285   2.996  0.3316  0.0883  0.1732
 5540SOL    HW221926   4.579   5.334   2.967 -0.1578 -0.0959 -1.5271
 5540SOL    HW321927   4.494   5.307   3.089  2.0096  0.6655  0.2133
 5540SOL    MW421928   4.511   5.295   3.004  0.4884  0.1401 -0.0458
 5541SOL     OW21929   0.173   4.376   3.368  0.0896 -0.0805 -0.5006
 5541SOL    HW221930   0.115   4.307   3.400  0.9215  0.1057  1.5323
 5541SOL    HW321931   0.114   4.442   3.333 -0.7165 -2.2212 -3.5772
 5541SOL    MW421932   0.158   4.375   3.368  0.0930 -0.3384 -0.6383
 5542SOL     OW21933   1.656   1.677   4.753  0.4155 -0.4071 -0.6607
 5542SOL    HW221934   1.650   1.621   4.830 -0.6306  1.1790  0.4605
 5542SOL    HW321935   1.748   1.671   4.727  0.9667 -0.3969  1.1614
 5542SOL    MW421936   1.667   1.669   4.760  0.3502 -0.1965 -0.2724
 5543SOL     OW21937   4.097   1.176   5.187 -0.6097 -0.2274  0.3286
 5543SOL    HW221938   4.186   1.187   5.220 -0.6030 -2.0652  1.0641
 5543SOL    HW321939   4.084   1.248   5.126  1.1792  0.3858  0.6322
 5543SOL    MW421940   4.107   1.187   5.183 -0.3728 -0.3890  0.4657
 5544SOL     OW21941   2.969   3.281   5.423 -0.3224 -0.2787  0.0403
 5544SOL    HW221942   2.919   3.332   5.488  0.9016 -0.2417  1.0009
 5544SOL    HW321943   2.910   3.273   5.349 -1.3992  0.5828  0.7571
 5544SOL    MW421944   2.955   3.287   5.422 -0.3030 -0.1601  0.2616
 5545SOL     OW21945   5.227   2.399   4.421 -0.2108  0.3549  0.4304
 5545SOL    HW221946   5.219   2.342   4.344  1.1014  1.4372 -0.5566
 5545SOL    HW321947   5.149   2.454   4.419 -3.0015 -3.0477  2.9520
 5545SOL    MW421948   5.216   2.399   4.411 -0.4059  0.0488  0.6329
 5546SOL     OW21949   3.531   5.314   3.379  0.0001  0.2179  0.2593
 5546SOL    HW221950   3.576   5.396   3.398 -1.3752  0.7836  1.3343
 5546SOL    HW321951   3.553   5.294   3.288  1.9554  0.7031  0.5869
 5546SOL    MW421952   3.540   5.322   3.369  0.0766  0.3566  0.4443
 5547SOL     OW21953   0.377   2.911   1.028 -0.3011  0.2059 -0.3390
 5547SOL    HW221954   0.448   2.970   1.055 -1.3594  0.7890  1.2981
 5547SOL    HW321955   0.411   2.823   1.047  0.3696  0.4111 -0.5425
 5547SOL    MW421956   0.391   2.907   1.034 -0.3523  0.3099 -0.1498
 5548SOL     OW21957   1.434   1.822   6.327 -0.0932 -0.3407  0.1777
 5548SOL    HW221958   1.401   1.905   6.361  0.5459  0.2402 -0.6056
 5548SOL    HW321959   1.506   1.799   6.387 -1.1515 -1.0530  1.2246
 5548SOL    MW421960   1.439   1.830   6.340 -0.1485 -0.3581  0.2125
 5549SOL     OW21961   5.055   0.047   3.432 -0.0100  0.1119  0.1603
 5549SOL    HW221962   4.960   0.048   3.442 -0.0063 -0.1895  0.2126
 5549SOL    HW321963   5.085   0.121   3.485 -0.0580 -0.9515  1.7363
 5549SOL    MW421964   5.046   0.057   3.440 -0.0158 -0.0682  0.3752
 5550SOL     OW21965   4.760   1.017   2.854  0.3323  0.0327  0.0857
 5550SOL    HW221966   4.735   1.083   2.918  0.0391 -0.1501  0.1612
 5550SOL    HW321967   4.711   0.938   2.880 -0.6866  0.2686 -1.0234
 5550SOL    MW421968   4.750   1.015   2.866  0.1592  0.0397 -0.0507
 5551SOL     OW21969   1.578   1.324   1.938 -0.3244  0.2847  0.0493
 5551SOL    HW221970   1.541   1.267   2.005 -1.6716  0.9014 -0.1449
 5551SOL    HW321971   1.569   1.412   1.973  3.6523  0.3956  1.3022
 5551SOL    MW421972   1.572   1.328   1.951  0.0225  0.3807  0.1890
 5552SOL     OW21973   1.834   1.139   5.869 -0.7521  0.0290  0.2447
 5552SOL    HW221974   1.825   1.142   5.964 -1.9886  1.7884  0.1177
 5552SOL    HW321975   1.922   1.172   5.852 -0.5488 -0.2359  0.7727
 5552SOL    MW421976   1.845   1.144   5.879 -0.8884  0.2262  0.2976
 5553SOL     OW21977   4.100   4.757   5.797 -0.1137  0.5176 -0.4732
 5553SOL    HW221978   4.031   4.752   5.731 -1.6725 -1.6514  1.1249
 5553SOL    HW321979   4.055   4.734   5.879  1.7594  2.8731  1.3364
 5553SOL    MW421980   4.085   4.753   5.799 -0.0722  0.5422 -0.0236
 5554SOL     OW21981   5.882   2.252   5.062 -0.7547  0.4029  0.4648
 5554SOL    HW221982   5.920   2.168   5.088  0.5723  0.5322 -0.9301
 5554SOL    HW321983   5.811   2.229   5.003  0.2855  0.2449 -0.7699
 5554SOL    MW421984   5.878   2.238   5.058 -0.4424  0.3991  0.1179
 5555SOL     OW21985   0.488   4.415   2.447 -0.0944  0.2772 -0.4246
 5555SOL    HW221986   0.561   4.443   2.502 -1.4946  1.4947  0.9288
 5555SOL    HW321987   0.422   4.484   2.458 -1.0835 -0.2832 -2.3662
 5555SOL    MW421988   0.489   4.428   2.456 -0.4096  0.3639 -0.5022
 5556SOL     OW21989   5.202   5.017   5.629  0.1051 -0.3101 -0.0816
 5556SOL    HW221990   5.270   5.001   5.695  2.1992  0.8764 -1.8036
 5556SOL    HW321991   5.208   5.111   5.612 -1.7989 -0.2372 -0.5252
 5556SOL    MW421992   5.212   5.028   5.636  0.1301 -0.1439 -0.3673
 5557SOL     OW21993   0.900   5.793   2.261  0.1940  0.0780 -0.4236
 5557SOL    HW221994   0.945   5.855   2.318 -1.7076  2.0235 -0.9092
 5557SOL    HW321995   0.852   5.736   2.321  0.0440  0.6366 -0.0015
 5557SOL    MW421996   0.899   5.794   2.277 -0.0767  0.4084 -0.4320
 5558SOL     OW21997   2.948   1.282   0.144  0.7776  0.1738  0.5562
 5558SOL    HW221998   3.009   1.238   0.203  0.9378  0.4037  0.5617
 5558SOL    HW321999   2.913   1.211   0.089  1.0198  0.0357  0.5771
 5558SOL    MW422000   2.952   1.267   0.145  0.8307  0.1859  0.5597
 5559SOL     OW22001   5.341   0.938   2.642 -0.1581  0.1051 -0.3674
 5559SOL    HW222002   5.246   0.948   2.652 -0.3464 -0.3834 -1.4869
 5559SOL    HW322003   5.365   1.000   2.573  0.5715  1.1530  0.7739
 5559SOL    MW422004   5.332   0.947   2.634 -0.0866  0.1789 -0.3645
 5560SOL     OW22005   1.558   5.295   6.039 -0.0070  0.2428 -0.3922
 5560SOL    HW222006   1.624   5.258   6.097 -1.6396 -0.8877  0.8250
 5560SOL    HW322007   1.521   5.368   6.087 -0.1361  0.4405 -0.7829
 5560SOL    MW422008   1.562   5.299   6.053 -0.2394  0.1197 -0.2831
 5561SOL     OW22009   2.666   5.667   2.722  0.7808 -0.1085  0.4530
 5561SOL    HW222010   2.677   5.635   2.811 -0.8362  1.2466  1.1983
 5561SOL    HW322011   2.749   5.711   2.702  1.4659 -1.1382  0.9442
 5561SOL    MW422012   2.678   5.669   2.731  0.6578 -0.0656  0.6161
 5562SOL     OW22013   4.380   5.500   1.248  0.0574 -0.4674 -0.6672
 5562SOL    HW222014   4.328   5.575   1.216  1.2400 -0.2787 -2.3018
 5562SOL    HW322015   4.342   5.479   1.333 -1.5708  0.7511 -1.0328
 5562SOL    MW422016   4.368   5.507   1.255 -0.0014 -0.2817 -0.9311
 5563SOL     OW22017   2.198   4.003   4.487 -0.6787  0.6605  0.0021
 5563SOL    HW222018   2.137   4.075   4.470  0.7961  2.3530  1.4823
 5563SOL    HW322019   2.283   4.038   4.462  0.1594 -0.3454  1.3602
 5563SOL    MW422020   2.201   4.017   4.481 -0.3735  0.7511  0.3766
 5564SOL     OW22021   5.411   3.095   0.530 -0.2588  0.1818  0.1179
 5564SOL    HW222022   5.351   3.141   0.472 -0.7607  1.9209  1.8938
 5564SOL    HW322023   5.375   3.007   0.538 -1.7588  0.7565 -0.0105
 5564SOL    MW422024   5.398   3.090   0.523 -0.5229  0.4871  0.3353
 5565SOL     OW22025   1.303   1.075   5.492  0.0305  0.4066 -0.5781
 5565SOL    HW222026   1.389   1.116   5.483  0.0892  0.6849  1.0014
 5565SOL    HW322027   1.246   1.129   5.438  0.7443  0.5434 -1.2152
 5565SOL    MW422028   1.307   1.088   5.484  0.1324  0.4613 -0.4537
 5566SOL     OW22029   5.441   3.954   5.966  0.4548  0.1363 -0.8020
 5566SOL    HW222030   5.368   4.014   5.983  0.6305  0.2458 -0.4380
 5566SOL    HW322031   5.513   3.989   6.017 -0.1703 -1.9433  1.7359
 5566SOL    MW422032   5.441   3.967   5.975  0.3955 -0.1237 -0.4191
 5567SOL     OW22033   1.924   5.483   1.667  0.2124 -0.3063 -0.2569
 5567SOL    HW222034   1.838   5.464   1.631 -0.2634 -0.1986  0.8065
 5567SOL    HW322035   1.908   5.510   1.757  1.2685  0.6740 -0.3305
 5567SOL    MW422036   1.911   5.484   1.674  0.2890 -0.1628 -0.1263
 5568SOL     OW22037   2.038   5.117   5.746 -0.2193  0.2272 -0.1997
 5568SOL    HW222038   2.028   5.124   5.652  3.3112  0.3676 -0.7269
 5568SOL    HW322039   2.031   5.207   5.778  2.8849  0.9076 -1.0668
 5568SOL    MW422040   2.036   5.130   5.738  0.6561  0.3355 -0.3837
 5569SOL     OW22041   0.842   5.906   0.131  0.2469  0.0531  0.1241
 5569SOL    HW222042   0.841   5.862   0.216  0.9249  1.4137  0.8642
 5569SOL    HW322043   0.913   5.969   0.136  0.8239 -0.3669 -1.7620
 5569SOL    MW422044   0.851   5.909   0.143  0.4125  0.1772 -0.0271
 5570SOL     OW22045   5.628   6.136   3.385 -0.3260  0.2182  0.0708
 5570SOL    HW222046   5.560   6.102   3.442  0.4176  1.1882  1.5837
 5570SOL    HW322047   5.589   6.132   3.297 -2.0812  0.1372  0.8023
 5570SOL    MW422048   5.614   6.131   3.381 -0.4595  0.3355  0.3669
 5571SOL     OW22049   5.429   0.737   1.406  0.1812  0.6092  0.0141
 5571SOL    HW222050   5.390   0.704   1.486 -0.6083 -1.8208 -1.2657
 5571SOL    HW322051   5.520   0.706   1.409  0.1336  0.4619 -0.0418
 5571SOL    MW422052   5.436   0.728   1.417  0.0708  0.2692 -0.1622
 5572SOL     OW22053   4.567   6.425   4.363 -0.1756 -0.2786 -0.2214
 5572SOL    HW222054   4.601   6.366   4.296 -0.1329  0.2017 -0.6255
 5572SOL    HW322055   4.487   6.461   4.326  0.3243  0.6790 -0.3952
 5572SOL    MW422056   4.561   6.422   4.349 -0.1040 -0.0889 -0.2976
 5573SOL     OW22057   1.758   1.680   4.177  0.1084  0.1464  0.1637
 5573SOL    HW222058   1.746   1.759   4.124 -2.0914  0.1927  0.6371
 5573SOL    HW322059   1.802   1.710   4.256  0.0567  0.7308 -0.0250
 5573SOL    MW422060   1.762   1.694   4.180 -0.1887  0.2296  0.2013
 5574SOL     OW22061   0.683   3.580   2.186  0.5098  0.2156 -0.1378
 5574SOL    HW222062   0.599   3.590   2.140  0.4038  0.5032  0.1210
 5574SOL    HW322063   0.710   3.490   2.166 -0.1952 -0.1097  0.3371
 5574SOL    MW422064   0.676   3.569   2.177  0.4028  0.2106 -0.0410
 5575SOL     OW22065   2.244   0.437   3.484 -0.4593 -0.3520 -0.2687
 5575SOL    HW222066   2.261   0.458   3.392 -2.3872 -0.2781 -0.6397
 5575SOL    HW322067   2.330   0.443   3.525  0.7047 -1.7393 -2.3013
 5575SOL    MW422068   2.258   0.441   3.477 -0.5601 -0.5253 -0.5858
 5576SOL     OW22069   0.904   1.557   5.611 -0.3301 -0.4579  0.0768
 5576SOL    HW222070   0.971   1.588   5.551 -0.3789 -1.8234 -0.7192
 5576SOL    HW322071   0.906   1.619   5.683  0.5816  0.5109 -0.7541
 5576SOL    MW422072   0.913   1.569   5.613 -0.2163 -0.5103 -0.1379
 5577SOL     OW22073   4.636   1.534   2.334 -0.7560  0.0165 -0.0312
 5577SOL    HW222074   4.623   1.464   2.397  0.1752  0.7574  1.0259
 5577SOL    HW322075   4.547   1.561   2.309 -1.1291 -2.0425 -1.0833
 5577SOL    MW422076   4.622   1.529   2.339 -0.6824 -0.1574 -0.0305
 5578SOL     OW22077   0.128   3.394   0.767 -0.0681 -0.0946 -0.0534
 5578SOL    HW222078   0.068   3.324   0.742 -0.9230  0.4697  0.3546
 5578SOL    HW322079   0.113   3.407   0.861 -0.5866  1.2081 -0.2829
 5578SOL    MW422080   0.118   3.387   0.776 -0.2493  0.1518 -0.0298
 5579SOL     OW22081   4.435   4.499   4.517 -0.0839  0.6191  0.1400
 5579SOL    HW222082   4.522   4.472   4.486 -0.7013 -0.4085 -0.7479
 5579SOL    HW322083   4.384   4.511   4.437 -1.0031  0.4069  0.6894
 5579SOL    MW422084   4.440   4.497   4.502 -0.2867  0.4556  0.0954
 5580SOL     OW22085   0.661   3.326   3.012 -0.5782  0.2714  0.1062
 5580SOL    HW222086   0.670   3.275   3.093  0.2939  0.3925  0.1001
 5580SOL    HW322087   0.636   3.262   2.946  0.5564 -0.1857  0.0910
 5580SOL    MW422088   0.659   3.311   3.014 -0.3134  0.2271  0.1034
 5581SOL     OW22089   4.811   5.955   0.991  0.3105 -0.7158  0.0766
 5581SOL    HW222090   4.876   5.901   1.036 -1.3973 -2.0012  1.1368
 5581SOL    HW322091   4.731   5.902   0.992 -0.7626  0.7975 -1.1719
 5581SOL    MW422092   4.809   5.941   0.997 -0.0564 -0.6857  0.0518
 5582SOL     OW22093   4.690   5.390   3.440 -0.0508 -0.5461 -0.4912
 5582SOL    HW222094   4.642   5.461   3.397 -0.1836 -0.5637 -0.3729
 5582SOL    HW322095   4.622   5.327   3.464 -0.0370 -0.2807  0.2430
 5582SOL    MW422096   4.674   5.391   3.437 -0.0665 -0.5134 -0.3787
 5583SOL     OW22097   6.028   5.792   0.113  0.0256  0.1961 -0.5239
 5583SOL    HW222098   5.936   5.816   0.101  0.0475 -0.2180 -1.6032
 5583SOL    HW322099   6.039   5.710   0.064  1.0552  0.4369 -0.7274
 5583SOL    MW422100   6.017   5.784   0.105  0.1644  0.1732 -0.6932
 5584SOL     OW22101   1.535   4.138   4.957  0.4724  0.3575 -0.3756
 5584SOL    HW222102   1.572   4.052   4.940 -0.4095 -0.3655  1.1897
 5584SOL    HW322103   1.585   4.171   5.032 -1.3674 -0.2656  1.2030
 5584SOL    MW422104   1.546   4.131   4.964  0.1133  0.1799  0.0392
 5585SOL     OW22105   4.853   4.085   0.884  0.2295  0.2135 -0.6072
 5585SOL    HW222106   4.948   4.102   0.881  0.1373  0.8240 -0.3239
 5585SOL    HW322107   4.819   4.130   0.807  0.2137 -0.3479 -0.9334
 5585SOL    MW422108   4.861   4.094   0.873  0.2152  0.2200 -0.6129
 5586SOL     OW22109   5.076   1.463   3.362  0.1181 -0.1989  0.8096
 5586SOL    HW222110   5.028   1.381   3.372 -0.3220 -0.2131 -1.1101
 5586SOL    HW322111   5.039   1.504   3.284  2.4698  0.3139 -0.1097
 5586SOL    MW422112   5.065   1.458   3.353  0.3703 -0.1331  0.4350
 5587SOL     OW22113   5.332   3.361   5.024  0.6530  0.1203  0.0533
 5587SOL    HW222114   5.312   3.356   4.931  2.8991 -1.7954 -0.4329
 5587SOL    HW322115   5.266   3.307   5.066  0.4034 -0.0786 -0.5882
 5587SOL    MW422116   5.321   3.353   5.017  0.9164 -0.1587 -0.0955
 5588SOL     OW22117   5.854   4.498   0.841  0.7336 -0.4674 -0.1520
 5588SOL    HW222118   5.873   4.591   0.854 -1.7320  0.5375 -2.6717
 5588SOL    HW322119   5.936   4.461   0.808  0.7874  1.8339 -3.0473
 5588SOL    MW422120   5.867   4.505   0.838  0.4154 -0.0312 -0.8665
 5589SOL     OW22121   2.609   1.583   6.404 -0.3295 -0.5650  0.5074
 5589SOL    HW222122   2.597   1.488   6.401  1.3141 -0.7689 -0.6356
 5589SOL    HW322123   2.629   1.602   6.496  0.9205 -1.5549  0.4623
 5589SOL    MW422124   2.610   1.573   6.416  0.0522 -0.7225  0.3507
 5590SOL     OW22125   5.473   4.697   5.334 -0.4041 -0.6099  0.6508
 5590SOL    HW222126   5.445   4.648   5.256 -0.3064  1.1245 -0.5278
 5590SOL    HW322127   5.408   4.767   5.342  1.3054  1.0932  0.2556
 5590SOL    MW422128   5.460   4.700   5.324 -0.1656 -0.1564  0.4432
 5591SOL     OW22129   3.102   6.405   5.731 -0.0318  0.2534 -0.4648
 5591SOL    HW222130   3.155   6.394   5.810 -0.8261 -0.6584 -0.0417
 5591SOL    HW322131   3.021   6.357   5.749 -0.5220  0.6394 -1.5524
 5591SOL    MW422132   3.099   6.397   5.744 -0.2013  0.1840 -0.5524
 5592SOL     OW22133   3.976   3.887   4.545  0.0986 -0.2986 -0.1137
 5592SOL    HW222134   4.017   3.832   4.611 -1.0979 -0.0746  0.8628
 5592SOL    HW322135   3.974   3.974   4.585 -0.2885 -0.0811 -0.5990
 5592SOL    MW422136   3.981   3.891   4.559 -0.1104 -0.2404 -0.0489
 5593SOL     OW22137   1.425   1.502   5.455  0.3264  0.5682 -0.4835
 5593SOL    HW222138   1.413   1.468   5.367 -0.6373  1.2473 -0.6288
 5593SOL    HW322139   1.396   1.432   5.513 -0.0748  0.5267 -0.7357
 5593SOL    MW422140   1.419   1.489   5.451  0.1463  0.6523 -0.5359
 5594SOL     OW22141   0.768   2.584   5.137  0.2231  0.0464  0.2982
 5594SOL    HW222142   0.776   2.493   5.107  1.1775  0.3547 -0.4227
 5594SOL    HW322143   0.817   2.635   5.073  0.8254  0.9373  1.4330
 5594SOL    MW422144   0.775   2.578   5.124  0.4285  0.2047  0.3528
 5595SOL     OW22145   4.764   5.625   3.180 -0.5764 -0.4766 -0.1187
 5595SOL    HW222146   4.750   5.584   3.094 -1.0106  0.8571 -0.7148
 5595SOL    HW322147   4.859   5.619   3.194 -0.4953 -0.6703 -0.7010
 5595SOL    MW422148   4.775   5.618   3.170 -0.6230 -0.3262 -0.2742
 5596SOL     OW22149   4.003   4.470   2.695  0.1646 -0.0432  0.0814
 5596SOL    HW222150   3.967   4.534   2.634 -1.3181  0.0345  1.0016
 5596SOL    HW322151   3.934   4.404   2.704  0.6632 -0.4566  1.0792
 5596SOL    MW422152   3.989   4.469   2.688  0.0348 -0.0875  0.3345
 5597SOL     OW22153   3.309   0.983   5.549  0.2475  0.1539  0.5635
 5597SOL    HW222154   3.227   0.984   5.498  0.6709 -4.9102 -0.7979
 5597SOL    HW322155   3.374   1.019   5.489 -0.2051 -0.5887 -0.4139
 5597SOL    MW422156   3.306   0.987   5.534  0.2436 -0.6122  0.2550
 5598SOL     OW22157   1.880   3.745   6.048  0.1332  0.0033 -0.1884
 5598SOL    HW222158   1.943   3.811   6.018 -0.5275  0.8006  0.1325
 5598SOL    HW322159   1.933   3.666   6.062  1.3756  1.0605  1.5362
 5598SOL    MW422160   1.895   3.743   6.046  0.2099  0.2480  0.0815
 5599SOL     OW22161   0.452   2.562   2.200 -0.0943 -0.3091  0.3964
 5599SOL    HW222162   0.385   2.495   2.185 -1.4879  0.2142  3.5113
 5599SOL    HW322163   0.403   2.640   2.223  1.5781  0.9848 -0.2629
 5599SOL    MW422164   0.437   2.563   2.201 -0.0575 -0.0694  0.7204
 5600SOL     OW22165   3.730   4.670   4.532  0.0164  0.1987 -0.1443
 5600SOL    HW222166   3.751   4.577   4.526  0.0789  0.1858  0.2363
 5600SOL    HW322167   3.785   4.712   4.465  0.2190 -0.0002 -0.1028
 5600SOL    MW422168   3.740   4.663   4.522  0.0514  0.1707 -0.0886
 5601SOL     OW22169   4.133   5.207   1.664  0.0668  0.5576 -0.4434
 5601SOL    HW222170   4.175   5.290   1.643  0.9685  0.2712  0.1149
 5601SOL    HW322171   4.201   5.158   1.712 -1.2766  0.5088  1.5364
 5601SOL    MW422172   4.148   5.211   1.668  0.0085  0.5133 -0.1085
 5602SOL     OW22173   5.523   1.639   1.081 -0.4579 -0.0140 -0.0295
 5602SOL    HW222174   5.472   1.701   1.134 -1.6205  0.1985 -1.3364
 5602SOL    HW322175   5.563   1.693   1.013  1.9119 -0.1149  1.1663
 5602SOL    MW422176   5.522   1.655   1.079 -0.2986  0.0007 -0.0441
 5603SOL     OW22177   0.374   0.337   5.493  0.1161 -0.3723 -0.2557
 5603SOL    HW222178   0.375   0.292   5.577 -0.5950 -0.6303 -0.3820
 5603SOL    HW322179   0.357   0.269   5.429  1.0306 -0.2369 -0.6573
 5603SOL    MW422180   0.372   0.322   5.496  0.1430 -0.3884 -0.3253
 5604SOL     OW22181   6.100   1.340   4.204 -0.1443  0.2381 -0.1099
 5604SOL    HW222182   6.133   1.378   4.285  1.5599 -0.7805 -0.2615
 5604SOL    HW322183   6.097   1.246   4.222 -0.6926  0.0931 -0.9178
 5604SOL    MW422184   6.104   1.332   4.217  0.0082  0.0845 -0.2365
 5605SOL     OW22185   4.087   2.837   3.655  0.1524  0.1002  0.6211
 5605SOL    HW222186   4.056   2.927   3.662  0.2708  0.1467  0.5601
 5605SOL    HW322187   4.010   2.786   3.631  0.5473  0.5449 -1.8608
 5605SOL    MW422188   4.073   2.842   3.653  0.2201  0.1650  0.2856
 5606SOL     OW22189   0.921   3.285   0.019  0.0358  0.2297  0.3504
 5606SOL    HW222190   1.013   3.291   0.047 -0.2501  1.9997  1.0306
 5606SOL    HW322191   0.894   3.197   0.047  0.4840  0.9720  3.5383
 5606SOL    MW422192   0.930   3.274   0.027  0.0572  0.5612  0.8608
 5607SOL     OW22193   0.612   2.973   3.244 -0.1786  0.1601 -0.0697
 5607SOL    HW222194   0.544   2.908   3.225 -0.2150 -0.8125  2.8714
 5607SOL    HW322195   0.563   3.052   3.270 -0.1755  0.0089  0.3987
 5607SOL    MW422196   0.597   2.975   3.245 -0.1830  0.0118  0.3802
 5608SOL     OW22197   4.688   5.905   2.282 -0.2027 -0.2341  0.1645
 5608SOL    HW222198   4.719   5.977   2.228 -0.1150 -0.5551 -0.2200
 5608SOL    HW322199   4.721   5.925   2.370  1.0671 -0.5436 -0.2183
 5608SOL    MW422200   4.696   5.917   2.287 -0.0236 -0.3173  0.0632
 5609SOL     OW22201   5.673   5.969   4.538 -0.0341 -0.0874  0.1518
 5609SOL    HW222202   5.605   5.926   4.591  0.1059 -1.3041 -0.6160
 5609SOL    HW322203   5.625   6.032   4.484 -0.6540 -1.3014 -0.7604
 5609SOL    MW422204   5.657   5.972   4.538 -0.0974 -0.4081 -0.0699
 5610SOL     OW22205   1.905   5.602   2.232  0.1325  0.0816 -0.1463
 5610SOL    HW222206   1.910   5.507   2.242  0.7857  0.3022  2.2864
 5610SOL    HW322207   1.993   5.629   2.206 -0.1908  0.0207 -1.3991
 5610SOL    MW422208   1.917   5.593   2.230  0.1760  0.1026  0.0094
 5611SOL     OW22209   3.491   5.229   1.694 -0.0693  0.1834  0.0397
 5611SOL    HW222210   3.458   5.212   1.606 -0.9959 -1.1298  0.5970
 5611SOL    HW322211   3.577   5.268   1.681  0.9317 -2.3067 -1.4834
 5611SOL    MW422212   3.498   5.232   1.681 -0.0595 -0.3184 -0.0877
 5612SOL     OW22213   1.299   5.784   1.081  0.0871  0.0781  0.6044
 5612SOL    HW222214   1.369   5.791   1.147 -0.9039 -1.8448  1.9586
 5612SOL    HW322215   1.235   5.850   1.107  0.9659  1.2492 -0.1287
 5612SOL    MW422216   1.300   5.793   1.093  0.0723 -0.0211  0.6863
 5613SOL     OW22217   5.513   2.424   2.183  0.3872 -0.4534 -0.2457
 5613SOL    HW222218   5.525   2.334   2.153  0.9668 -1.1246  1.8102
 5613SOL    HW322219   5.562   2.477   2.120 -0.0905 -1.5345 -1.5786
 5613SOL    MW422220   5.521   2.419   2.171  0.4007 -0.6846 -0.1503
 5614SOL     OW22221   2.471   5.667   2.030 -0.3220 -0.2534 -0.3681
 5614SOL    HW222222   2.491   5.733   2.096 -0.5350 -1.0247  0.4962
 5614SOL    HW322223   2.500   5.585   2.069 -1.3107 -0.8534 -0.8420
 5614SOL    MW422224   2.478   5.665   2.044 -0.4805 -0.4343 -0.3166
 5615SOL     OW22225   1.149   2.028   5.206 -0.0354  0.0373  0.0334
 5615SOL    HW222226   1.149   2.065   5.294  0.6886  0.7188 -0.2463
 5615SOL    HW322227   1.097   2.090   5.154 -1.1199 -0.7617  0.1295
 5615SOL    MW422228   1.142   2.041   5.210 -0.0830  0.0218  0.0092
 5616SOL     OW22229   3.169   2.796   5.462 -0.7032 -0.4452  0.0846
 5616SOL    HW222230   3.143   2.887   5.480 -0.0384 -0.2471  0.0437
 5616SOL    HW322231   3.243   2.780   5.519 -0.1164 -0.6025 -0.7078
 5616SOL    MW422232   3.175   2.806   5.472 -0.5381 -0.4398 -0.0253
 5617SOL     OW22233   6.420   0.713   5.587  0.3508 -0.7187 -0.2324
 5617SOL    HW222234   6.474   0.641   5.555  1.4625 -0.8711  1.7989
 5617SOL    HW322235   6.397   0.689   5.676 -2.1717 -0.0868 -0.6206
 5617SOL    MW422236   6.424   0.700   5.594  0.1647 -0.6555 -0.0156
 5618SOL     OW22237   2.923   3.395   1.479  0.3229 -0.0831  0.5905
 5618SOL    HW222238   2.942   3.302   1.475 -2.2689 -0.6496 -0.9995
 5618SOL    HW322239   2.831   3.400   1.505  0.8304  2.1300  2.2656
 5618SOL    MW422240   2.913   3.384   1.482  0.0479  0.1342  0.6017
 5619SOL     OW22241   1.148   1.376   0.305 -0.2473 -0.0827 -0.0455
 5619SOL    HW222242   1.172   1.436   0.234 -0.5977 -0.1553 -0.2319
 5619SOL    HW322243   1.222   1.378   0.365 -0.6963  1.3715  0.5122
 5619SOL    MW422244   1.161   1.384   0.303 -0.3527  0.0996  0.0035
 5620SOL     OW22245   0.458   4.756   5.223 -0.0543  0.1550  0.5423
 5620SOL    HW222246   0.434   4.672   5.185  1.2355  0.5598 -1.3209
 5620SOL    HW322247   0.389   4.775   5.286 -0.4671 -2.1936  0.8636
 5620SOL    MW422248   0.446   4.748   5.226  0.0614 -0.1014  0.3389
 5621SOL     OW22249   2.958   5.188   0.039  0.0327  0.6078 -0.4167
 5621SOL    HW222250   2.917   5.225   0.117  0.7684 -1.1861  0.8893
 5621SOL    HW322251   3.041   5.235   0.032  0.3095  0.2493  0.3502
 5621SOL    MW422252   2.964   5.199   0.049  0.1663  0.3238 -0.1432
 5622SOL     OW22253   4.040   3.595   3.702 -0.2188  0.0626  0.1532
 5622SOL    HW222254   4.107   3.625   3.764 -2.0522  1.2866  1.6738
 5622SOL    HW322255   4.006   3.675   3.663 -0.8489 -0.5293 -0.5420
 5622SOL    MW422256   4.045   3.609   3.705 -0.5438  0.1460  0.2621
 5623SOL     OW22257   2.210   3.391   2.257  0.4516  0.3219 -0.3321
 5623SOL    HW222258   2.224   3.353   2.170 -0.1179  1.6692 -1.0586
 5623SOL    HW322259   2.129   3.350   2.288  1.8057 -1.8136  0.5749
 5623SOL    MW422260   2.201   3.380   2.250  0.5551  0.2179 -0.3083
 5624SOL     OW22261   4.051   1.965   0.714 -0.2490  0.5508  0.1181
 5624SOL    HW222262   4.022   1.876   0.693 -0.9104  1.0285 -1.0445
 5624SOL    HW322263   4.143   1.967   0.688 -0.8931  0.9560 -2.3832
 5624SOL    MW422264   4.059   1.953   0.708 -0.4212  0.6673 -0.3653
 5625SOL     OW22265   2.630   4.155   4.179 -0.4562 -0.2252 -0.1169
 5625SOL    HW222266   2.667   4.242   4.171 -2.5394  0.7362  0.0919
 5625SOL    HW322267   2.629   4.120   4.090  0.2439  0.0115 -0.2204
 5625SOL    MW422268   2.635   4.162   4.166 -0.6387 -0.0671 -0.1030
 5626SOL     OW22269   1.414   4.194   4.489  0.2609  0.0572 -0.4239
 5626SOL    HW222270   1.500   4.232   4.476  0.6086 -0.3711  0.5063
 5626SOL    HW322271   1.419   4.107   4.449  0.0500  0.2758 -0.9339
 5626SOL    MW422272   1.426   4.187   4.482  0.2789  0.0296 -0.3684
 5627SOL     OW22273   5.537   4.376   6.189  0.1226  0.8232  0.4303
 5627SOL    HW222274   5.557   4.351   6.279 -0.8044  0.9535  0.6869
 5627SOL    HW322275   5.581   4.311   6.136 -0.1066  0.1843  1.0117
 5627SOL    MW422276   5.545   4.364   6.194 -0.0299  0.7561  0.5409
 5628SOL     OW22277   5.367   3.725   3.431 -0.2758 -0.7575 -0.6488
 5628SOL    HW222278   5.335   3.740   3.520 -3.9165 -1.6198 -1.6459
 5628SOL    HW322279   5.428   3.796   3.416 -2.1028  1.4541  1.4276
 5628SOL    MW422280   5.371   3.736   3.441 -0.9972 -0.5795 -0.5064
 5629SOL     OW22281   2.564   0.360   5.804  0.2830  0.2187  0.0772
 5629SOL    HW222282   2.507   0.414   5.859 -1.5252 -0.5822 -0.9181
 5629SOL    HW322283   2.590   0.418   5.732  0.5429  0.5202  0.4096
 5629SOL    MW422284   2.560   0.375   5.802  0.0788  0.1528 -0.0103
 5630SOL     OW22285   2.556   1.735   1.291  0.9235  0.0377 -0.4294
 5630SOL    HW222286   2.493   1.769   1.229 -0.1606 -0.1827  0.5164
 5630SOL    HW322287   2.509   1.667   1.340  1.6336  0.3973  0.8241
 5630SOL    MW422288   2.542   1.731   1.289  0.8741  0.0560 -0.1392
 5631SOL     OW22289   4.095   2.141   0.175  0.3525  0.7220 -0.6396
 5631SOL    HW222290   4.043   2.211   0.136  1.0084  0.6994 -1.5767
 5631SOL    HW322291   4.175   2.138   0.122  0.0971 -1.1202 -0.9717
 5631SOL    MW422292   4.099   2.150   0.163  0.4054  0.4760 -0.8071
 5632SOL     OW22293   5.954   0.726   1.378 -0.4153 -0.0828  0.2265
 5632SOL    HW222294   5.933   0.817   1.361  1.4795  0.0430 -1.8352
 5632SOL    HW322295   5.940   0.682   1.294  2.5457 -0.8643  0.0225
 5632SOL    MW422296   5.949   0.732   1.365  0.2254 -0.1693 -0.0724
 5633SOL     OW22297   5.832   6.031   1.784  0.2795 -0.8476  0.0003
 5633SOL    HW222298   5.851   6.025   1.878  0.0039  2.8062  0.4025
 5633SOL    HW322299   5.912   6.001   1.742  1.9027  1.0803  1.5209
 5633SOL    MW422300   5.845   6.026   1.791  0.4573 -0.1112  0.2540
 5634SOL     OW22301   4.699   0.463   1.721  0.5820  0.8453  0.6055
 5634SOL    HW222302   4.615   0.423   1.745  1.4995 -0.9774  0.8935
 5634SOL    HW322303   4.714   0.436   1.631 -0.5195  3.6713 -0.5334
 5634SOL    MW422304   4.690   0.454   1.713  0.5577  0.9777  0.4932
 5635SOL     OW22305   2.677   6.079   4.196 -0.1479 -0.0520  0.2432
 5635SOL    HW222306   2.720   6.106   4.277 -2.0396  1.1453  0.9136
 5635SOL    HW322307   2.588   6.114   4.203 -0.7773 -1.0843 -1.7589
 5635SOL    MW422308   2.671   6.087   4.207 -0.4805 -0.0302  0.0675
 5636SOL     OW22309   5.780   5.200   1.115  0.3916 -0.1685 -0.2569
 5636SOL    HW222310   5.710   5.147   1.154  1.5321  0.0366  2.2403
 5636SOL    HW322311   5.739   5.240   1.038 -1.8238 -1.1125  0.3509
 5636SOL    MW422312   5.765   5.198   1.110  0.2497 -0.2660  0.1528
 5637SOL     OW22313   1.867   4.794   2.241 -0.2753  0.0812 -0.5804
 5637SOL    HW222314   1.945   4.800   2.185 -1.1623  1.5417 -1.7416
 5637SOL    HW322315   1.881   4.860   2.308  0.2038 -0.7922  0.2043
 5637SOL    MW422316   1.879   4.803   2.242 -0.3291  0.1587 -0.6301
 5638SOL     OW22317   1.641   5.065   2.479 -0.1068 -0.3965 -0.1156
 5638SOL    HW222318   1.614   5.029   2.394  0.5860  0.3967 -0.6914
 5638SOL    HW322319   1.582   5.140   2.493 -1.9539 -2.0190  1.3672
 5638SOL    MW422320   1.630   5.070   2.470 -0.2591 -0.5059  0.0041
 5639SOL     OW22321   6.279   3.636   5.971  0.0286  0.7654 -0.2955
 5639SOL    HW222322   6.297   3.702   5.904  0.6334  1.8429  0.8914
 5639SOL    HW322323   6.188   3.650   5.996 -0.4592 -0.1910 -1.4561
 5639SOL    MW422324   6.269   3.647   5.966  0.0440  0.7814 -0.2920
 5640SOL     OW22325   5.470   4.973   6.350 -0.0615  0.3224 -0.1932
 5640SOL    HW222326   5.449   5.066   6.346  2.6688  1.0135 -0.0406
 5640SOL    HW322327   5.519   4.955   6.269  2.6820 -0.0124  1.4157
 5640SOL    MW422328   5.474   4.983   6.339  0.6607  0.3694  0.0392
 5641SOL     OW22329   2.288   2.189   5.846 -0.1327 -0.3086  0.1503
 5641SOL    HW222330   2.330   2.125   5.789 -2.6425 -0.6872 -1.4399
 5641SOL    HW322331   2.272   2.264   5.790  0.4410  0.7281  1.3273
 5641SOL    MW422332   2.291   2.190   5.831 -0.3882 -0.2218  0.0958
 5642SOL     OW22333   5.149   4.277   3.196  0.0860 -0.1598  0.0383
 5642SOL    HW222334   5.066   4.282   3.243 -0.0488  0.2360 -0.2303
 5642SOL    HW322335   5.124   4.251   3.107  0.3273 -0.8088  0.1612
 5642SOL    MW422336   5.135   4.274   3.190  0.1001 -0.1932  0.0191
 5643SOL     OW22337   4.680   2.232   0.813 -0.1130  0.6040  0.0966
 5643SOL    HW222338   4.703   2.201   0.726  1.4545  0.4775  0.5174
 5643SOL    HW322339   4.764   2.239   0.859 -0.7968  1.7236  1.2486
 5643SOL    MW422340   4.694   2.229   0.808  0.0036  0.7351  0.3041
 5644SOL     OW22341   1.038   3.017   4.364  0.3893  0.0910  0.4464
 5644SOL    HW222342   1.094   3.091   4.338  1.5556 -1.2829 -1.2504
 5644SOL    HW322343   0.971   3.013   4.296  1.5536 -1.5729 -0.7158
 5644SOL    MW422344   1.037   3.026   4.351  0.6968 -0.3098  0.0692
 5645SOL     OW22345   0.534   0.862   6.001 -0.4014 -0.5012 -0.3656
 5645SOL    HW222346   0.585   0.830   5.927 -0.8980 -1.8466 -0.1460
 5645SOL    HW322347   0.448   0.822   5.990 -0.7336 -0.0312  0.4735
 5645SOL    MW422348   0.530   0.853   5.990 -0.5108 -0.6167 -0.2259
 5646SOL     OW22349   5.058   3.046   4.409 -0.5072  0.4180 -0.0188
 5646SOL    HW222350   4.991   3.111   4.433 -0.4050  0.8499 -0.8621
 5646SOL    HW322351   5.072   3.060   4.315  0.1028 -0.2914 -0.0411
 5646SOL    MW422352   5.051   3.056   4.400 -0.4132  0.3814 -0.1330
 5647SOL     OW22353   5.087   6.246   0.439 -0.3630  0.1509  0.2651
 5647SOL    HW222354   5.144   6.312   0.399  1.5772 -1.8630 -0.5147
 5647SOL    HW322355   5.112   6.247   0.532 -1.0857  1.1617  0.4717
 5647SOL    MW422356   5.098   6.255   0.446 -0.2024  0.0185  0.1895
 5648SOL     OW22357   2.439   0.351   2.706  0.4285 -0.5053  0.1576
 5648SOL    HW222358   2.480   0.315   2.627 -0.3801 -2.2956  0.4934
 5648SOL    HW322359   2.353   0.381   2.677  0.7498  0.3521  0.0627
 5648SOL    MW422360   2.433   0.350   2.692  0.3642 -0.6284  0.1894
 5649SOL     OW22361   5.628   2.229   2.019 -0.3763 -0.1137 -0.0571
 5649SOL    HW222362   5.592   2.151   2.061  0.0257  0.1465  0.8075
 5649SOL    HW322363   5.710   2.199   1.980 -0.4345 -0.2262 -0.0915
 5649SOL    MW422364   5.634   2.215   2.020 -0.3310 -0.0942  0.0524
 5650SOL     OW22365   1.223   2.508   1.621  0.1581 -0.5117 -0.2776
 5650SOL    HW222366   1.185   2.585   1.661  0.9720 -0.4769  0.4597
 5650SOL    HW322367   1.150   2.466   1.575 -0.5294  0.0927  0.2397
 5650SOL    MW422368   1.208   2.512   1.620  0.1747 -0.4274 -0.1121
 5651SOL     OW22369   2.410   5.084   2.902 -0.0729  0.1165 -0.2827
 5651SOL    HW222370   2.373   5.140   2.970 -0.0634  2.6810 -2.2398
 5651SOL    HW322371   2.452   5.012   2.950 -0.1764  1.7051  2.3846
 5651SOL    MW422372   2.411   5.082   2.917 -0.0853  0.6645 -0.1890
 5652SOL     OW22373   2.309   2.685   5.045  0.4043  0.0917 -0.1100
 5652SOL    HW222374   2.231   2.726   5.082 -1.1651 -1.3457 -1.6609
 5652SOL    HW322375   2.360   2.658   5.122 -2.0208 -1.4747  1.0871
 5652SOL    MW422376   2.306   2.687   5.060 -0.1227 -0.3046 -0.1566
 5653SOL     OW22377   5.487   3.993   3.374  0.1384  0.1846  0.4794
 5653SOL    HW222378   5.539   4.028   3.301 -0.2666  0.1288  0.1600
 5653SOL    HW322379   5.403   4.037   3.366 -0.2281 -0.5222  0.3409
 5653SOL    MW422380   5.483   4.004   3.363  0.0366  0.0840  0.4190
 5654SOL     OW22381   0.377   4.040   3.561  0.5955 -0.0980 -0.0056
 5654SOL    HW222382   0.405   4.039   3.470  1.8354 -1.9627  0.3381
 5654SOL    HW322383   0.281   4.031   3.556  0.6290  0.0128 -1.1307
 5654SOL    MW422384   0.368   4.038   3.549  0.7635 -0.3294 -0.1087
 5655SOL     OW22385   3.756   0.605   1.013 -0.5586 -0.4669 -0.4688
 5655SOL    HW222386   3.704   0.666   1.066 -4.1143 -3.9104  0.4630
 5655SOL    HW322387   3.749   0.638   0.924 -1.4860  1.0317  0.1202
 5655SOL    MW422388   3.748   0.618   1.009 -1.1501 -0.7235 -0.2682
 5656SOL     OW22389   0.621   1.276   2.892 -0.2151  0.4417  0.2784
 5656SOL    HW222390   0.692   1.338   2.878 -0.9029  1.5718  1.5824
 5656SOL    HW322391   0.664   1.198   2.929  0.6882 -0.0501 -1.6464
 5656SOL    MW422392   0.636   1.274   2.895 -0.1867  0.5259  0.1965
 5657SOL     OW22393   2.340   6.034   6.147  0.0760 -0.1754  1.0462
 5657SOL    HW222394   2.328   6.106   6.085  0.4872  0.4482  1.6754
 5657SOL    HW322395   2.292   5.960   6.108  1.4656 -0.2172 -0.6898
 5657SOL    MW422396   2.332   6.033   6.134  0.3136 -0.0986  0.9001
 5658SOL     OW22397   4.573   4.254   0.033  0.6248  0.5189 -0.5200
 5658SOL    HW222398   4.632   4.220   0.101  0.5958 -1.3138 -1.3728
 5658SOL    HW322399   4.629   4.311  -0.020  0.4832  2.5799  1.4004
 5658SOL    MW422400   4.588   4.257   0.035  0.6023  0.5490 -0.3791
 5659SOL     OW22401   5.078   5.550   1.773 -0.2497 -0.3566 -0.2777
 5659SOL    HW222402   5.051   5.632   1.732  1.1600 -0.7595 -2.1850
 5659SOL    HW322403   5.174   5.554   1.775 -0.1271 -2.0288 -0.6502
 5659SOL    MW422404   5.087   5.561   1.768 -0.0475 -0.6304 -0.5785
 5660SOL     OW22405   5.721   6.050   4.201 -0.0045 -0.5389 -0.1496
 5660SOL    HW222406   5.666   5.972   4.210  0.3614 -0.8427 -0.5069
 5660SOL    HW322407   5.809   6.020   4.223  0.0802 -0.1373  0.0729
 5660SOL    MW422408   5.725   6.036   4.205  0.0550 -0.5260 -0.1674
 5661SOL     OW22409   3.656   4.107   4.502  0.3866  0.0576 -0.2440
 5661SOL    HW222410   3.750   4.113   4.483  0.3685 -0.4796 -0.5302
 5661SOL    HW322411   3.632   4.195   4.531  0.5354  0.7522 -2.1281
 5661SOL    MW422412   3.665   4.119   4.504  0.4039  0.0783 -0.5304
 5662SOL     OW22413   4.147   3.087   4.437 -0.2936 -0.2186 -0.1747
 5662SOL    HW222414   4.130   3.164   4.384 -0.9288  0.5030  1.0391
 5662SOL    HW322415   4.243   3.082   4.442 -0.2088  1.5986  1.2199
 5662SOL    MW422416   4.158   3.097   4.431 -0.3663  0.1163  0.1695
 5663SOL     OW22417   4.391   5.292   0.695  0.0701  0.2936  0.4653
 5663SOL    HW222418   4.388   5.353   0.621  1.8922 -0.1219 -0.0072
 5663SOL    HW322419   4.437   5.339   0.764  1.9017 -0.6347 -0.0581
 5663SOL    MW422420   4.397   5.306   0.694  0.5522  0.1163  0.3339
 5664SOL     OW22421   1.122   0.041   5.781  0.3336  0.3375 -0.6514
 5664SOL    HW222422   1.147   0.003   5.697 -3.8064 -3.8341 -0.3862
 5664SOL    HW322423   1.150  -0.023   5.846 -1.3587  0.7112  0.5219
 5664SOL    MW422424   1.129   0.028   5.778 -0.4359 -0.1636 -0.4616
 5665SOL     OW22425   1.176   0.763   5.622 -0.5013  0.0179 -0.3924
 5665SOL    HW222426   1.135   0.678   5.632  0.6497 -0.5173 -0.0416
 5665SOL    HW322427   1.259   0.756   5.669  0.5492  0.6626 -2.0319
 5665SOL    MW422428   1.182   0.751   5.630 -0.2109  0.0324 -0.5625
 5666SOL     OW22429   4.333   4.159   2.187 -0.0100  0.0688  0.0113
 5666SOL    HW222430   4.270   4.184   2.255 -1.9621 -1.2780 -1.1871
 5666SOL    HW322431   4.322   4.225   2.119 -2.2316 -1.5861 -1.3842
 5666SOL    MW422432   4.323   4.171   2.187 -0.5607 -0.3272 -0.3310
 5667SOL     OW22433   0.926   1.194   4.875 -0.3780 -0.3580  0.3777
 5667SOL    HW222434   0.858   1.213   4.939 -0.0090  0.4234  0.5444
 5667SOL    HW322435   0.933   1.098   4.875 -0.5418 -0.3778  1.3276
 5667SOL    MW422436   0.918   1.183   4.883 -0.3510 -0.2575  0.5250
 5668SOL     OW22437   3.518   5.886   6.349  0.0745 -0.2178  0.0829
 5668SOL    HW222438   3.481   5.880   6.261  0.8599 -1.2849 -0.1927
 5668SOL    HW322439   3.446   5.918   6.403 -0.4599  0.3074 -0.9138
 5668SOL    MW422440   3.504   5.889   6.344  0.1076 -0.2893 -0.0850
 5669SOL     OW22441   2.927   2.415   2.838 -0.2433  0.6646 -0.9001
 5669SOL    HW222442   2.895   2.464   2.914  0.0106  1.1918 -1.1336
 5669SOL    HW322443   2.967   2.336   2.876 -0.3547  0.7963 -0.5032
 5669SOL    MW422444   2.928   2.411   2.853 -0.2245  0.7515 -0.8786
 5670SOL     OW22445   2.307   4.602   2.659  0.3099 -0.6766 -0.5758
 5670SOL    HW222446   2.252   4.658   2.605 -1.0346 -1.0698  0.3171
 5670SOL    HW322447   2.277   4.513   2.640  0.0621 -0.8448  0.5098
 5670SOL    MW422448   2.296   4.598   2.650  0.0998 -0.7507 -0.3147
 5671SOL     OW22449   5.244   0.179   5.349 -0.4649 -0.1792 -0.2886
 5671SOL    HW222450   5.228   0.264   5.307  0.0001 -0.0754 -0.2568
 5671SOL    HW322451   5.163   0.130   5.335 -0.2799 -0.1798 -1.3689
 5671SOL    MW422452   5.231   0.184   5.342 -0.3791 -0.1656 -0.4270
 5672SOL     OW22453   5.558   3.446   4.791  0.0409  0.1663  0.1399
 5672SOL    HW222454   5.574   3.444   4.885 -1.2155  1.0459  0.4001
 5672SOL    HW322455   5.629   3.395   4.753  0.6210 -0.1144  1.5559
 5672SOL    MW422456   5.569   3.439   4.799 -0.0483  0.2453  0.3610
 5673SOL     OW22457   1.215   6.105   0.412  0.1635  0.0691 -0.4146
 5673SOL    HW222458   1.250   6.110   0.500 -3.4332  0.5245  1.1594
 5673SOL    HW322459   1.152   6.176   0.406  0.1543 -0.0355 -3.3585
 5673SOL    MW422460   1.211   6.115   0.423 -0.3123  0.1154 -0.5953
 5674SOL     OW22461   3.300   1.175   6.230 -0.5407 -0.0951  0.1616
 5674SOL    HW222462   3.221   1.192   6.180 -1.8997  0.0827  2.2467
 5674SOL    HW322463   3.328   1.088   6.202 -1.9740 -0.5256  0.0233
 5674SOL    MW422464   3.293   1.166   6.220 -0.9091 -0.1284  0.4184
 5675SOL     OW22465   4.320   0.748   1.760 -0.3194  0.2011 -0.1092
 5675SOL    HW222466   4.284   0.800   1.831 -0.3016 -2.0688  1.6928
 5675SOL    HW322467   4.415   0.752   1.772 -0.3545 -1.5623  1.1509
 5675SOL    MW422468   4.328   0.755   1.771 -0.3217 -0.3311  0.2948
 5676SOL     OW22469   0.390   3.913   4.253  0.1351  0.1411 -0.8616
 5676SOL    HW222470   0.430   3.907   4.166  0.8751  2.6951 -0.7690
 5676SOL    HW322471   0.448   3.862   4.309 -0.1795 -1.2704 -1.7730
 5676SOL    MW422472   0.403   3.905   4.249  0.1913  0.2918 -0.9696
 5677SOL     OW22473   1.707   3.823   0.786 -0.2825  0.7558 -0.0764
 5677SOL    HW222474   1.640   3.834   0.854 -0.3432  0.6928 -0.1266
 5677SOL    HW322475   1.760   3.750   0.817  1.1676  2.2468  1.1260
 5677SOL    MW422476   1.705   3.815   0.799 -0.0992  0.9442  0.0756
 5678SOL     OW22477   5.863   2.376   0.702  0.1300  0.6264  0.2224
 5678SOL    HW222478   5.793   2.441   0.692 -0.9253 -0.5228 -0.0887
 5678SOL    HW322479   5.832   2.317   0.771  1.6159  1.1078  1.3494
 5678SOL    MW422480   5.850   2.377   0.710  0.1869  0.5383  0.3301
 5679SOL     OW22481   3.526   1.987   1.718  0.0734  0.0834 -0.3312
 5679SOL    HW222482   3.543   1.924   1.648 -1.2984 -1.3159  0.5213
 5679SOL    HW322483   3.556   1.942   1.798  0.0375  0.9557  0.1853
 5679SOL    MW422484   3.532   1.973   1.719 -0.1123  0.0139 -0.1506
 5680SOL     OW22485   0.197   2.985   5.674 -0.1722  0.3431  0.6431
 5680SOL    HW222486   0.196   3.075   5.707 -1.9176  1.7218 -2.6478
 5680SOL    HW322487   0.111   2.974   5.634  1.0188 -1.7594 -1.5890
 5680SOL    MW422488   0.185   2.996   5.673 -0.2453  0.2476 -0.0856
 5681SOL     OW22489   5.418   5.108   0.901  0.3020  0.2414 -0.3713
 5681SOL    HW222490   5.388   5.051   0.972  0.6212  0.5297  0.0036
 5681SOL    HW322491   5.508   5.079   0.883  0.1034 -0.0590 -0.9005
 5681SOL    MW422492   5.426   5.097   0.908  0.3179  0.2398 -0.3917
 5682SOL     OW22493   1.132   1.207   3.590 -0.7673 -0.2630  0.0760
 5682SOL    HW222494   1.220   1.178   3.564 -0.5925  1.3925 -1.4189
 5682SOL    HW322495   1.142   1.302   3.603 -2.1389 -0.1999  0.8240
 5682SOL    MW422496   1.145   1.216   3.588 -0.9252 -0.0362 -0.0225
 5683SOL     OW22497   3.666   4.566   2.964 -0.1955  0.1734  0.1671
 5683SOL    HW222498   3.628   4.525   2.886  1.6403  1.0302 -1.2544
 5683SOL    HW322499   3.699   4.651   2.933  1.5296  0.0903  1.6043
 5683SOL    MW422500   3.665   4.572   2.950  0.2743  0.2755  0.1692
 5684SOL     OW22501   5.412   0.147   1.795 -0.0539 -0.0620 -0.4657
 5684SOL    HW222502   5.438   0.205   1.867  0.3869  1.0527 -1.4957
 5684SOL    HW322503   5.482   0.082   1.789  0.9009  0.9992 -1.1249
 5684SOL    MW422504   5.425   0.146   1.804  0.1302  0.2251 -0.6885
 5685SOL     OW22505   1.131   1.834   5.854 -0.5005 -0.5430 -0.2089
 5685SOL    HW222506   1.215   1.870   5.883 -0.0028 -2.4332  0.8641
 5685SOL    HW322507   1.124   1.861   5.762  0.5703  0.8790  0.0979
 5685SOL    MW422508   1.142   1.842   5.846 -0.2936 -0.6048 -0.0268
 5686SOL     OW22509   6.014   0.577   4.369 -0.1318  0.6765  0.5372
 5686SOL    HW222510   6.039   0.489   4.341  1.0626  1.1639  0.0261
 5686SOL    HW322511   6.062   0.636   4.310 -0.1898  1.6829  1.4677
 5686SOL    MW422512   6.023   0.573   4.357  0.0181  0.8736  0.5925
 5687SOL     OW22513   4.144   5.435   1.021 -0.3148 -0.5701  0.1712
 5687SOL    HW222514   4.093   5.395   0.951 -0.1543 -0.4473 -0.0183
 5687SOL    HW322515   4.174   5.518   0.984  0.6393 -0.9715  0.0155
 5687SOL    MW422516   4.141   5.441   1.007 -0.1677 -0.6068  0.1257
 5688SOL     OW22517   3.321   0.743   5.418  0.6435  0.1408 -0.1732
 5688SOL    HW222518   3.230   0.732   5.388 -0.2460  1.1843  1.9602
 5688SOL    HW322519   3.322   0.828   5.460  2.3034 -0.3978  0.9670
 5688SOL    MW422520   3.309   0.752   5.419  0.7452  0.2074  0.2587
 5689SOL     OW22521   1.388   3.381   4.219 -0.0718  0.7000  0.1114
 5689SOL    HW222522   1.464   3.425   4.258 -1.4819  2.4250  1.0614
 5689SOL    HW322523   1.398   3.290   4.245  1.2047  1.0500  0.9860
 5689SOL    MW422524   1.399   3.375   4.227 -0.0894  0.9738  0.3521
 5690SOL     OW22525   4.237   1.796   3.764  0.0128  0.4673 -0.6058
 5690SOL    HW222526   4.316   1.799   3.817  0.1138  1.1018 -0.7825
 5690SOL    HW322527   4.176   1.743   3.815  0.5023  0.0924 -0.4067
 5690SOL    MW422528   4.239   1.790   3.778  0.0907  0.5016 -0.6029
 5691SOL     OW22529   3.825   4.225   2.679  0.7237  0.3783  0.2643
 5691SOL    HW222530   3.736   4.193   2.693 -0.6111  4.2880  2.3985
 5691SOL    HW322531   3.851   4.189   2.594 -2.6241 -1.4590 -0.1347
 5691SOL    MW422532   3.816   4.216   2.669  0.1059  0.6517  0.4932
 5692SOL     OW22533   2.217   6.375   1.797  0.2897 -0.3389  0.2949
 5692SOL    HW222534   2.292   6.426   1.769  0.9172 -0.8485  1.0081
 5692SOL    HW322535   2.249   6.285   1.801 -0.9491 -0.9044 -1.5008
 5692SOL    MW422536   2.231   6.370   1.794  0.2090 -0.4807  0.1521
 5693SOL     OW22537   4.192   4.572   5.039  0.0267 -0.1999  0.0267
 5693SOL    HW222538   4.258   4.503   5.043  1.4282  1.1485  2.6795
 5693SOL    HW322539   4.231   4.640   4.985  0.6893  0.4202  1.2496
 5693SOL    MW422540   4.206   4.572   5.032  0.2991  0.0599  0.5380
 5694SOL     OW22541   5.094   6.084   3.376 -0.3484 -0.3283  0.5307
 5694SOL    HW222542   5.169   6.100   3.319  0.2164  0.9846  1.5878
 5694SOL    HW322543   5.086   5.989   3.379  0.4535 -0.4520 -0.6366
 5694SOL    MW422544   5.103   6.074   3.369 -0.1681 -0.1714  0.5161
 5695SOL     OW22545   0.023   0.183   2.659  0.2632  0.6713 -0.0679
 5695SOL    HW222546   0.071   0.219   2.734  0.6670  1.6208 -0.7513
 5695SOL    HW322547   0.059   0.095   2.647 -1.0410 -0.1969  1.9047
 5695SOL    MW422548   0.034   0.176   2.667  0.1444  0.6820  0.1022
 5696SOL     OW22549   0.614   3.253   4.040  0.3868 -0.3389 -0.1354
 5696SOL    HW222550   0.550   3.209   4.096  1.4352 -1.1212  0.5036
 5696SOL    HW322551   0.596   3.346   4.051  0.3628 -0.4907  1.2818
 5696SOL    MW422552   0.603   3.260   4.049  0.5220 -0.4621  0.1359
 5697SOL     OW22553   2.274   4.025   5.040  0.6102 -0.3049  0.0998
 5697SOL    HW222554   2.335   3.951   5.032 -0.6567 -1.2194 -1.8911
 5697SOL    HW322555   2.327   4.102   5.018  1.2070 -1.0087 -1.0142
 5697SOL    MW422556   2.289   4.025   5.036  0.5218 -0.5184 -0.3098
 5698SOL     OW22557   0.836   2.577   0.500  0.7325  0.1805 -0.3120
 5698SOL    HW222558   0.925   2.562   0.531  0.2734 -1.2019  0.4022
 5698SOL    HW322559   0.786   2.598   0.578  0.2802  0.2281 -0.6098
 5698SOL    MW422560   0.841   2.578   0.514  0.6123  0.0044 -0.2571
 5699SOL     OW22561   1.124   4.588   1.779  0.1672 -0.0883  0.0595
 5699SOL    HW222562   1.115   4.493   1.786 -0.2343  0.0191  1.1009
 5699SOL    HW322563   1.113   4.606   1.685 -0.2980 -1.0144 -0.0739
 5699SOL    MW422564   1.122   4.578   1.767  0.0529 -0.1963  0.1793
 5700SOL     OW22565   3.961   5.500   4.908  0.2985 -0.2188  1.0193
 5700SOL    HW222566   3.911   5.484   4.828  0.6885  1.1261  0.4719
 5700SOL    HW322567   3.896   5.501   4.978 -0.4418  1.3497  0.3408
 5700SOL    MW422568   3.946   5.498   4.907  0.2523  0.1656  0.8575
 5701SOL     OW22569   3.515   1.908   3.401 -0.5240 -0.4283  0.0696
 5701SOL    HW222570   3.519   1.996   3.438 -0.7146 -0.9062  1.2931
 5701SOL    HW322571   3.577   1.909   3.328 -0.3708  0.6543  0.2089
 5701SOL    MW422572   3.524   1.920   3.396 -0.5290 -0.3485  0.2494
 5702SOL     OW22573   2.724   1.298   1.825 -0.0851 -0.1733  0.3396
 5702SOL    HW222574   2.758   1.385   1.847  0.1980 -0.5343  1.3356
 5702SOL    HW322575   2.802   1.245   1.811 -0.2568 -0.3893  0.1993
 5702SOL    MW422576   2.738   1.303   1.826 -0.0704 -0.2494  0.4525
 5703SOL     OW22577   0.759   5.585   2.395 -0.8003 -0.3299 -0.2562
 5703SOL    HW222578   0.672   5.562   2.426 -0.2511 -2.0420  0.1302
 5703SOL    HW322579   0.818   5.531   2.448  0.4228 -0.1176 -1.3549
 5703SOL    MW422580   0.755   5.575   2.406 -0.5665 -0.5277 -0.3502
 5704SOL     OW22581   0.394   3.210   4.644 -1.0753  0.5988  0.2510
 5704SOL    HW222582   0.372   3.131   4.693  0.5807 -0.4914 -0.6507
 5704SOL    HW322583   0.388   3.281   4.709 -1.4743 -0.4246  1.3732
 5704SOL    MW422584   0.391   3.209   4.659 -0.9095  0.3200  0.2801
 5705SOL     OW22585   0.245   5.031   5.202  0.5753  0.0149  0.0681
 5705SOL    HW222586   0.195   5.016   5.121  0.6689  0.3899 -0.0588
 5705SOL    HW322587   0.320   4.973   5.195 -0.7061 -1.8839  1.0458
 5705SOL    MW422588   0.248   5.022   5.190  0.4186 -0.1861  0.1804
 5706SOL     OW22589   3.801   6.078   2.173 -0.6574 -0.5392 -0.2820
 5706SOL    HW222590   3.744   6.152   2.194  0.1202 -0.0734  0.2777
 5706SOL    HW322591   3.772   6.008   2.231 -0.9411 -0.4404 -0.3069
 5706SOL    MW422592   3.790   6.078   2.184 -0.5922 -0.4647 -0.2114
 5707SOL     OW22593   0.391   1.688   1.454 -0.1442  0.0971  0.2949
 5707SOL    HW222594   0.429   1.669   1.368  0.6759 -2.5926  1.1524
 5707SOL    HW322595   0.457   1.742   1.497  1.5025 -2.0539  0.6797
 5707SOL    MW422596   0.405   1.692   1.448  0.1813 -0.5416  0.4588
 5708SOL     OW22597   4.418   6.125   1.931  0.0496 -0.6586  0.5976
 5708SOL    HW222598   4.434   6.181   2.007  0.2041 -0.3430  0.3332
 5708SOL    HW322599   4.471   6.163   1.861  0.5657 -1.4343  0.5482
 5708SOL    MW422600   4.427   6.137   1.932  0.1381 -0.7193  0.5562
 5709SOL     OW22601   2.856   5.072   0.983 -0.1824 -0.2758 -0.3081
 5709SOL    HW222602   2.782   5.133   0.978 -0.4626 -0.6741 -1.0461
 5709SOL    HW322603   2.826   5.002   1.041 -0.7697 -0.9552 -1.4121
 5709SOL    MW422604   2.842   5.071   0.990 -0.2969 -0.4180 -0.5511
 5710SOL     OW22605   0.622   1.408   5.586 -0.0689 -0.2692  0.5616
 5710SOL    HW222606   0.609   1.332   5.643  0.0518 -1.8720 -1.4459
 5710SOL    HW322607   0.716   1.426   5.591 -0.1032 -0.2144  1.0772
 5710SOL    MW422608   0.632   1.400   5.594 -0.0575 -0.4735  0.3647
 5711SOL     OW22609   0.904   1.915   4.219 -0.4392 -0.2817  0.2944
 5711SOL    HW222610   0.846   1.980   4.258 -1.1574 -0.8607  0.2209
 5711SOL    HW322611   0.910   1.846   4.284  0.4168 -0.1047  0.4230
 5711SOL    MW422612   0.897   1.915   4.232 -0.4210 -0.3348  0.3016
 5712SOL     OW22613   0.950   1.573   4.723  0.3515  0.1205 -0.5315
 5712SOL    HW222614   0.908   1.501   4.769  0.1407 -0.3380 -1.4071
 5712SOL    HW322615   0.909   1.652   4.756  0.4592 -0.1718  0.3127
 5712SOL    MW422616   0.939   1.574   4.733  0.3379  0.0214 -0.5357
 5713SOL     OW22617   6.277   1.485   1.936  0.4117  0.2751 -0.1108
 5713SOL    HW222618   6.336   1.466   1.863  0.5303  0.4966 -0.0733
 5713SOL    HW322619   6.320   1.445   2.012  1.0338  1.2992  0.1040
 5713SOL    MW422620   6.291   1.477   1.936  0.5094  0.4395 -0.0775
 5714SOL     OW22621   0.358   0.696   0.628 -0.4864 -0.0555 -0.1288
 5714SOL    HW222622   0.447   0.670   0.608 -0.2728  0.3588  0.2666
 5714SOL    HW322623   0.309   0.681   0.547 -0.1010 -0.4691 -0.2819
 5714SOL    MW422624   0.363   0.691   0.615 -0.4074 -0.0554 -0.0968
 5715SOL     OW22625   4.607   1.347   4.012 -0.4849 -0.2018 -0.6617
 5715SOL    HW222626   4.627   1.254   4.005 -1.7968 -0.4979 -0.6898
 5715SOL    HW322627   4.582   1.373   3.924 -1.5416 -0.1790 -0.3692
 5715SOL    MW422628   4.607   1.338   4.000 -0.7974 -0.2378 -0.6269
 5716SOL     OW22629   1.405   5.348   0.801 -0.6522 -0.1208  0.0422
 5716SOL    HW222630   1.310   5.353   0.810 -0.6012  1.1704  0.0743
 5716SOL    HW322631   1.436   5.311   0.884 -1.0404  0.7132  0.5747
 5716SOL    MW422632   1.396   5.344   0.813 -0.6967  0.1596  0.1167
 5717SOL     OW22633   3.331   4.575   0.371  0.4095 -0.2173 -0.3466
 5717SOL    HW222634   3.325   4.671   0.373  0.3106 -0.2194 -0.4990
 5717SOL    HW322635   3.241   4.545   0.363  0.3604 -0.3587  0.6906
 5717SOL    MW422636   3.318   4.584   0.370  0.3900 -0.2362 -0.2299
 5718SOL     OW22637   4.941   0.808   0.721  0.2327 -0.2574  0.3394
 5718SOL    HW222638   4.864   0.834   0.671  1.6528  2.1803 -0.7584
 5718SOL    HW322639   4.913   0.814   0.813 -1.2002 -0.6347 -0.0452
 5718SOL    MW422640   4.927   0.812   0.727  0.2310  0.0145  0.1438
 5719SOL     OW22641   0.309   0.389   1.856  0.0738 -0.2787 -0.0643
 5719SOL    HW222642   0.402   0.414   1.855 -0.4110  1.6420 -0.0282
 5719SOL    HW322643   0.263   0.465   1.820 -1.5144 -1.1603  0.0133
 5719SOL    MW422644   0.315   0.402   1.851 -0.1997 -0.1416 -0.0493
 5720SOL     OW22645   2.196   1.597   0.486 -0.2470  0.0502 -0.1918
 5720SOL    HW222646   2.132   1.571   0.420 -0.2021  0.6215 -0.4649
 5720SOL    HW322647   2.220   1.515   0.530 -1.8531 -0.0502  0.5475
 5720SOL    MW422648   2.191   1.583   0.484 -0.4530  0.1123 -0.1303
 5721SOL     OW22649   2.359   3.094   2.645 -0.3159 -0.5689  0.2739
 5721SOL    HW222650   2.415   3.052   2.710  0.9257 -0.6488 -0.8143
 5721SOL    HW322651   2.345   3.182   2.679  2.2905  0.1984 -0.4192
 5721SOL    MW422652   2.365   3.100   2.658  0.1918 -0.4782  0.0389
 5722SOL     OW22653   2.102   4.288   5.918  0.5353 -0.3429 -0.4993
 5722SOL    HW222654   2.122   4.215   5.859  0.6778 -1.0432  0.3972
 5722SOL    HW322655   2.013   4.270   5.949 -0.5185  1.3153 -2.3560
 5722SOL    MW422656   2.093   4.276   5.914  0.4150 -0.2165 -0.6260
 5723SOL     OW22657   5.709   2.108   2.585 -0.1125  0.2465 -0.3143
 5723SOL    HW222658   5.735   2.082   2.497  0.6904 -0.0260 -0.0070
 5723SOL    HW322659   5.696   2.025   2.631 -1.6225  0.3718 -0.4704
 5723SOL    MW422660   5.711   2.094   2.580 -0.2058  0.2271 -0.2944
 5724SOL     OW22661   0.365   5.175   1.451  0.2057 -0.3930 -0.2276
 5724SOL    HW222662   0.390   5.112   1.383 -0.6052 -0.9273 -0.0579
 5724SOL    HW322663   0.343   5.255   1.403  1.7863 -0.0375 -0.4034
 5724SOL    MW422664   0.365   5.177   1.435  0.3072 -0.4166 -0.2284
 5725SOL     OW22665   0.094   3.520   1.430 -0.3414 -0.1768 -0.3360
 5725SOL    HW222666   0.109   3.468   1.509 -1.5163  0.2781  0.1985
 5725SOL    HW322667   0.106   3.611   1.458 -0.5255 -0.0226 -0.7473
 5725SOL    MW422668   0.098   3.525   1.444 -0.5207 -0.0964 -0.3198
 5726SOL     OW22669   2.986   2.701   3.992 -0.4041  0.4256  0.1122
 5726SOL    HW222670   2.909   2.754   3.975 -1.4259 -1.2696 -0.8542
 5726SOL    HW322671   2.954   2.625   4.039  0.5553 -0.5815 -0.7830
 5726SOL    MW422672   2.972   2.698   3.996 -0.4123  0.0691 -0.1334
 5727SOL     OW22673   3.983   0.332   5.762  0.2636 -0.1976 -0.6047
 5727SOL    HW222674   4.026   0.409   5.724 -1.3408  0.7804 -0.5473
 5727SOL    HW322675   3.927   0.367   5.832  0.8620 -1.6354  0.6611
 5727SOL    MW422676   3.981   0.347   5.766  0.1309 -0.2582 -0.4301
 5728SOL     OW22677   1.912   2.604   0.580 -0.2089  0.7164  0.0439
 5728SOL    HW222678   1.970   2.580   0.653  0.3171 -2.6771 -1.2804
 5728SOL    HW322679   1.839   2.543   0.586 -2.4393  3.2168  0.1375
 5728SOL    MW422680   1.910   2.593   0.590 -0.4338  0.5986 -0.1185
 5729SOL     OW22681   4.851   6.093   4.315 -0.1954 -0.2825  0.0979
 5729SOL    HW222682   4.873   6.125   4.403 -1.7698 -0.8980  0.7695
 5729SOL    HW322683   4.809   6.008   4.331 -0.6453 -0.3343 -1.2341
 5729SOL    MW422684   4.848   6.086   4.329 -0.4625 -0.3706  0.0108
 5730SOL     OW22685   2.885   4.023   6.253 -0.1636 -0.0822 -0.3017
 5730SOL    HW222686   2.966   3.977   6.233 -1.5492 -2.4954 -0.7633
 5730SOL    HW322687   2.904   4.073   6.333  0.8867 -3.2830  1.6430
 5730SOL    MW422688   2.898   4.023   6.261 -0.2079 -0.8229 -0.1060
 5731SOL     OW22689   4.653   1.921   5.411 -0.7395  0.2503  0.0717
 5731SOL    HW222690   4.647   1.967   5.495 -0.1108  1.3688 -0.4915
 5731SOL    HW322691   4.680   1.987   5.348  1.3484 -1.1084 -0.5570
 5731SOL    MW422692   4.656   1.936   5.414 -0.3811  0.2186 -0.0856
 5732SOL     OW22693   0.265   5.391   5.691  0.2178 -0.3573  0.3856
 5732SOL    HW222694   0.233   5.425   5.607 -1.5494 -1.0104  0.7623
 5732SOL    HW322695   0.324   5.460   5.723 -0.6121  0.7932 -0.4625
 5732SOL    MW422696   0.269   5.405   5.684 -0.1249 -0.2917  0.3234
 5733SOL     OW22697   1.911   1.288   0.629 -0.1155 -0.4674 -0.1013
 5733SOL    HW222698   1.873   1.312   0.713  0.9126 -1.3900  0.6662
 5733SOL    HW322699   1.896   1.364   0.572 -1.3125 -0.0513  0.7389
 5733SOL    MW422700   1.904   1.301   0.632 -0.1378 -0.5342  0.1108
 5734SOL     OW22701   2.222   1.582   1.999  0.3090 -0.2862  0.1834
 5734SOL    HW222702   2.243   1.656   2.056 -3.1878 -1.5831  3.5842
 5734SOL    HW322703   2.136   1.603   1.962  0.1730 -1.7804 -0.4336
 5734SOL    MW422704   2.214   1.595   2.001 -0.1703 -0.6545  0.5507
 5735SOL     OW22705   0.224   0.421   0.104 -0.0289  0.1853  0.4083
 5735SOL    HW222706   0.221   0.326   0.110 -1.1827  0.0972 -1.2198
 5735SOL    HW322707   0.135   0.450   0.122 -0.1604  0.8064 -1.1335
 5735SOL    MW422708   0.212   0.412   0.107 -0.1984  0.2556 -0.0099
 5736SOL     OW22709   3.886   4.467   4.256  0.2766 -0.4449  0.2447
 5736SOL    HW222710   3.924   4.466   4.344 -0.8577 -0.1299  0.7537
 5736SOL    HW322711   3.792   4.462   4.271  0.0051  0.8964 -0.8980
 5736SOL    MW422712   3.879   4.466   4.270  0.0912 -0.2263  0.1611
 5737SOL     OW22713   4.924   0.414   0.913  0.5271 -0.1969 -0.5822
 5737SOL    HW222714   4.886   0.433   0.827 -1.8354 -0.1748  0.3989
 5737SOL    HW322715   4.879   0.335   0.942  0.9258  0.0736  0.8477
 5737SOL    MW422716   4.913   0.406   0.905  0.2680 -0.1583 -0.2641
 5738SOL     OW22717   2.112   4.562   0.622  0.0009 -0.8829  0.1582
 5738SOL    HW222718   2.086   4.652   0.644  1.7734 -0.0274 -0.9766
 5738SOL    HW322719   2.207   4.561   0.635  0.1670 -2.2563 -0.9390
 5738SOL    MW422720   2.121   4.574   0.627  0.2567 -0.9512 -0.1363
 5739SOL     OW22721   3.968   2.823   5.672 -0.2381 -0.0832 -0.4922
 5739SOL    HW222722   4.013   2.904   5.649 -0.2808 -0.2633 -1.2202
 5739SOL    HW322723   3.880   2.850   5.696  0.3149  0.3083  1.2250
 5739SOL    MW422724   3.962   2.837   5.672 -0.1708 -0.0553 -0.3617
 5740SOL     OW22725   0.736   2.317   0.104 -0.3442  0.1236 -0.3256
 5740SOL    HW222726   0.713   2.401   0.065  2.1295  0.1851 -1.8719
 5740SOL    HW322727   0.752   2.259   0.029  1.2796 -0.7174  0.6056
 5740SOL    MW422728   0.735   2.320   0.089  0.1964  0.0208 -0.4067
 5741SOL     OW22729   0.297   4.485   1.031 -0.0208 -0.4129 -0.1049
 5741SOL    HW222730   0.239   4.424   0.985  0.8510 -0.6354 -0.9404
 5741SOL    HW322731   0.371   4.431   1.060 -0.4975 -0.2536  1.4859
 5741SOL    MW422732   0.299   4.470   1.029  0.0313 -0.4213 -0.0052
 5742SOL     OW22733   1.566   1.606   0.752 -0.1634 -0.0095  0.2553
 5742SOL    HW222734   1.474   1.625   0.770 -0.5145 -0.0513 -1.3673
 5742SOL    HW322735   1.566   1.565   0.666  1.4948  1.1307 -0.3421
 5742SOL    MW422736   1.554   1.603   0.743  0.0091  0.1354 -0.0376
 5743SOL     OW22737   0.715   1.020   5.478  0.3105 -0.0412  0.5248
 5743SOL    HW222738   0.676   0.933   5.474  1.9382 -0.7758 -0.6413
 5743SOL    HW322739   0.684   1.064   5.400 -1.2031  0.7760  1.5499
 5743SOL    MW422740   0.706   1.014   5.467  0.3255 -0.0303  0.5062
 5744SOL     OW22741   6.064   2.467   4.981  0.4548  0.4127 -0.0467
 5744SOL    HW222742   6.000   2.398   4.997  0.3585  0.6423  0.5602
 5744SOL    HW322743   6.040   2.503   4.895 -0.4533  0.7477  0.3367
 5744SOL    MW422744   6.053   2.463   4.972  0.3223  0.4872  0.0839
 5745SOL     OW22745   6.057   1.578   3.255 -0.0287 -0.1891  0.0660
 5745SOL    HW222746   6.136   1.623   3.223 -1.1845  1.7730 -0.1973
 5745SOL    HW322747   6.083   1.544   3.341  2.2206 -2.9793 -1.5242
 5745SOL    MW422748   6.071   1.579   3.262  0.1156 -0.2983 -0.1786
 5746SOL     OW22749   4.109   3.792   3.069  0.0616 -0.4549 -0.4640
 5746SOL    HW222750   4.062   3.852   3.011  0.7163 -1.4480 -2.0905
 5746SOL    HW322751   4.049   3.775   3.141 -0.1142  2.2060  0.1255
 5746SOL    MW422752   4.095   3.798   3.071  0.1248 -0.2348 -0.6008
 5747SOL     OW22753   5.013   3.527   2.454 -0.3674  0.6944 -0.1398
 5747SOL    HW222754   5.017   3.518   2.359 -0.1283  0.5494 -0.1175
 5747SOL    HW322755   4.955   3.602   2.469 -1.1386  0.1514 -0.3700
 5747SOL    MW422756   5.006   3.536   2.444 -0.4376  0.6036 -0.1672
 5748SOL     OW22757   1.193   6.350   4.558  0.4347 -0.0261 -0.0877
 5748SOL    HW222758   1.286   6.371   4.554  0.0591  1.9445  0.4214
 5748SOL    HW322759   1.163   6.389   4.640 -1.1355  0.7099 -0.9607
 5748SOL    MW422760   1.201   6.358   4.568  0.1780  0.3310 -0.1357
 5749SOL     OW22761   5.995   3.771   0.359  0.1397  0.3412 -0.0263
 5749SOL    HW222762   6.081   3.729   0.358  0.4621  1.0004 -1.5587
 5749SOL    HW322763   5.941   3.718   0.302 -0.4698 -0.0091  0.8480
 5749SOL    MW422764   5.999   3.759   0.352  0.1018  0.3820 -0.1131
 5750SOL     OW22765   0.986   3.922   0.136 -0.3431  0.2536  0.0530
 5750SOL    HW222766   1.061   3.951   0.188  0.7025 -0.8177 -0.7969
 5750SOL    HW322767   0.956   4.000   0.090  0.7684  0.5423 -0.1986
 5750SOL    MW422768   0.992   3.936   0.137 -0.0585  0.1504 -0.0923
 5751SOL     OW22769   5.464   2.092   3.936  0.0702 -0.0562 -0.0014
 5751SOL    HW222770   5.551   2.065   3.906  0.6407 -0.8162  2.1589
 5751SOL    HW322771   5.438   2.024   3.998 -1.3510  1.0487  0.6707
 5751SOL    MW422772   5.472   2.079   3.940 -0.0420 -0.0107  0.3723
 5752SOL     OW22773   4.912   1.503   1.531 -0.2434 -0.3224 -0.3352
 5752SOL    HW222774   4.974   1.493   1.460  0.1639  0.7892 -0.1672
 5752SOL    HW322775   4.962   1.544   1.602 -1.1801  0.7559 -0.2555
 5752SOL    MW422776   4.927   1.507   1.531 -0.3133 -0.0335 -0.3025
 5753SOL     OW22777   4.053   6.228   2.089  0.7575 -0.0189 -0.1533
 5753SOL    HW222778   3.986   6.274   2.039  0.4442 -2.0768 -1.7500
 5753SOL    HW322779   4.005   6.184   2.159  0.4077 -1.3471 -1.1913
 5753SOL    MW422780   4.038   6.228   2.092  0.6700 -0.4657 -0.5009
 5754SOL     OW22781   5.514   1.211   1.595  0.2490  0.4863  0.3018
 5754SOL    HW222782   5.533   1.302   1.616  0.8333  0.2738  0.7206
 5754SOL    HW322783   5.463   1.215   1.514  0.2949  1.1821  0.3017
 5754SOL    MW422784   5.510   1.223   1.587  0.3322  0.5501  0.3570
 5755SOL     OW22785   1.835   5.880   1.744  0.2614 -0.7673  0.4341
 5755SOL    HW222786   1.771   5.828   1.695 -0.0240 -0.4588  0.4776
 5755SOL    HW322787   1.919   5.839   1.723  0.0227 -1.3855  0.6345
 5755SOL    MW422788   1.837   5.867   1.735  0.1923 -0.8082  0.4663
 5756SOL     OW22789   2.142   0.826   3.267 -0.3242 -0.1557  0.6421
 5756SOL    HW222790   2.117   0.918   3.272  1.0626  0.2722  0.2617
 5756SOL    HW322791   2.062   0.780   3.242 -0.4981  1.2701 -1.7312
 5756SOL    MW422792   2.128   0.832   3.264 -0.1642  0.0889  0.2788
 5757SOL     OW22793   4.234   4.905   1.987  0.3685  0.1914 -0.7841
 5757SOL    HW222794   4.314   4.853   2.001 -0.2771 -0.5948  0.1680
 5757SOL    HW322795   4.208   4.932   2.075  0.5016  1.8909 -1.2402
 5757SOL    MW422796   4.242   4.901   2.000  0.3009  0.3119 -0.7186
 5758SOL     OW22797   1.760   2.598   0.157 -0.3770 -0.1493 -0.6592
 5758SOL    HW222798   1.734   2.634   0.242 -0.1261  0.3658 -0.7965
 5758SOL    HW322799   1.731   2.507   0.160  0.6062 -0.4586  0.4106
 5758SOL    MW422800   1.753   2.591   0.169 -0.2142 -0.1221 -0.5362
 5759SOL     OW22801   2.430   1.272   2.347  0.1698  0.2912  0.2352
 5759SOL    HW222802   2.380   1.278   2.266  1.1483  0.5431 -0.3635
 5759SOL    HW322803   2.395   1.193   2.390 -0.4403  0.2198 -0.3633
 5759SOL    MW422804   2.418   1.262   2.342  0.2184  0.3150  0.0773
 5760SOL     OW22805   5.844   1.117   6.336 -0.6488  0.0420 -0.2877
 5760SOL    HW222806   5.855   1.135   6.243 -0.3608 -0.2941 -0.3198
 5760SOL    HW322807   5.884   1.193   6.380 -0.0462 -0.1857 -0.4297
 5760SOL    MW422808   5.851   1.130   6.329 -0.5313 -0.0324 -0.3106
 5761SOL     OW22809   2.345   1.335   2.083  0.3202 -0.1855 -0.6737
 5761SOL    HW222810   2.301   1.414   2.051 -0.1337  0.3286  1.1430
 5761SOL    HW322811   2.282   1.265   2.067 -0.1864  0.1745 -0.2905
 5761SOL    MW422812   2.331   1.336   2.076  0.1935 -0.0702 -0.3835
 5762SOL     OW22813   5.920   1.278   2.207  0.7487  0.0669 -0.4158
 5762SOL    HW222814   5.924   1.366   2.170 -2.9798  0.0686 -1.2220
 5762SOL    HW322815   5.963   1.223   2.141  1.7724  1.0559 -0.6172
 5762SOL    MW422816   5.926   1.282   2.193  0.3918  0.1976 -0.5487
 5763SOL     OW22817   1.052   1.269   2.565  0.3158  0.3724 -0.3340
 5763SOL    HW222818   1.049   1.358   2.529 -1.0122 -0.3227 -2.0726
 5763SOL    HW322819   1.138   1.263   2.606  0.4949  2.4037 -0.2794
 5763SOL    MW422820   1.063   1.280   2.566  0.1642  0.5487 -0.5562
 5764SOL     OW22821   3.093   0.597   4.734  0.0300  0.1180 -0.0474
 5764SOL    HW222822   3.159   0.533   4.760  1.0520  0.9835 -0.4533
 5764SOL    HW322823   3.071   0.574   4.644  0.3431  0.2926 -0.1683
 5764SOL    MW422824   3.099   0.586   4.726  0.2061  0.2553 -0.1169
 5765SOL     OW22825   0.211   3.060   3.364  0.2154  0.0235 -0.3706
 5765SOL    HW222826   0.179   3.140   3.405  1.7846  1.3715 -1.6249
 5765SOL    HW322827   0.203   3.077   3.270  2.0866 -0.6116 -0.6872
 5765SOL    MW422828   0.206   3.073   3.357  0.6694  0.1175 -0.5778
 5766SOL     OW22829   1.992   3.765   5.141 -0.7020  0.2368 -0.0400
 5766SOL    HW222830   2.024   3.722   5.221 -2.4051 -2.1807 -0.5543
 5766SOL    HW322831   2.032   3.714   5.070 -0.7699  1.1340 -0.7332
 5766SOL    MW422832   2.002   3.753   5.142 -0.9357  0.0362 -0.1993
 5767SOL     OW22833   1.552   6.005   4.688 -0.1164 -0.1106  0.0869
 5767SOL    HW222834   1.564   6.031   4.780 -1.0281 -0.2873  0.2679
 5767SOL    HW322835   1.588   6.078   4.638  2.6318 -1.0506  0.5510
 5767SOL    MW422836   1.558   6.018   4.694  0.1259 -0.2579  0.1720
 5768SOL     OW22837   5.362   2.405   5.501 -0.2743 -0.4203 -0.0640
 5768SOL    HW222838   5.367   2.316   5.536 -1.0384 -0.7164 -0.6830
 5768SOL    HW322839   5.447   2.420   5.460 -0.2889 -1.0142 -0.3116
 5768SOL    MW422840   5.374   2.395   5.501 -0.3770 -0.5377 -0.1783
 5769SOL     OW22841   0.714   3.595   3.786 -0.3401 -0.8808  0.6613
 5769SOL    HW222842   0.792   3.545   3.805 -0.7411 -1.6717  0.2639
 5769SOL    HW322843   0.746   3.674   3.741  0.3217 -0.5590  1.6788
 5769SOL    MW422844   0.728   3.599   3.782 -0.3057 -0.9427  0.7431
 5770SOL     OW22845   1.420   4.925   5.811 -0.8469 -0.2515 -0.3136
 5770SOL    HW222846   1.381   4.918   5.724  0.3447 -0.1057 -0.8926
 5770SOL    HW322847   1.459   4.839   5.827  1.0386  0.4213 -1.0156
 5770SOL    MW422848   1.420   4.913   5.802 -0.4409 -0.1435 -0.4826
 5771SOL     OW22849   6.266   4.059   5.384  0.0328 -0.4266 -0.4823
 5771SOL    HW222850   6.217   4.007   5.322 -0.3980  0.2192 -0.6903
 5771SOL    HW322851   6.351   4.016   5.390  0.6332  0.3169 -2.6505
 5771SOL    MW422852   6.271   4.047   5.377  0.0552 -0.2433 -0.7958
 5772SOL     OW22853   4.728   4.567   0.440 -0.4173 -1.1382  0.4668
 5772SOL    HW222854   4.799   4.604   0.492 -2.1630  1.2351  1.3576
 5772SOL    HW322855   4.707   4.635   0.376 -0.2529 -2.8327 -1.4938
 5772SOL    MW422856   4.735   4.581   0.439 -0.6260 -1.0486  0.3256
 5773SOL     OW22857   6.125   0.405   2.495  0.2818 -0.2551  0.3718
 5773SOL    HW222858   6.151   0.377   2.583  0.0841  0.7295  0.7524
 5773SOL    HW322859   6.030   0.393   2.493  0.3737 -1.0058  0.0139
 5773SOL    MW422860   6.116   0.400   2.506  0.2679 -0.2242  0.3748
 5774SOL     OW22861   2.814   5.936   5.204  0.0712 -0.1276 -0.4160
 5774SOL    HW222862   2.848   5.859   5.159  2.0383  0.8685 -0.7372
 5774SOL    HW322863   2.854   5.933   5.291  1.0015  1.0626 -0.7862
 5774SOL    MW422864   2.824   5.926   5.210  0.4535  0.1609 -0.5072
 5775SOL     OW22865   0.220   5.995   3.646  0.0567 -0.2836  0.4680
 5775SOL    HW222866   0.148   6.052   3.672 -0.5220 -0.4853 -0.6195
 5775SOL    HW322867   0.179   5.909   3.637  0.5969 -0.5513  0.5725
 5775SOL    MW422868   0.205   5.991   3.648  0.0516 -0.3456  0.3383
 5776SOL     OW22869   3.502   0.426   4.950 -0.4046  0.1239  0.4437
 5776SOL    HW222870   3.573   0.445   5.011 -1.8213 -1.7258  2.8464
 5776SOL    HW322871   3.536   0.355   4.895  0.4193  0.9168 -0.1056
 5776SOL    MW422872   3.516   0.419   4.951 -0.4828 -0.0155  0.6882
 5777SOL     OW22873   4.432   2.478   3.926  0.2305  0.1809  0.5550
 5777SOL    HW222874   4.495   2.422   3.972 -0.5311  1.1758  2.9425
 5777SOL    HW322875   4.393   2.421   3.860 -0.4017 -2.1016  2.7543
 5777SOL    MW422876   4.435   2.463   3.923  0.0466  0.0110  1.1602
 5778SOL     OW22877   2.900   2.479   5.429 -0.3926 -0.6643 -0.1006
 5778SOL    HW222878   2.971   2.418   5.408 -0.0816 -1.4081  2.6125
 5778SOL    HW322879   2.929   2.521   5.511 -1.9515  0.9544 -0.3183
 5778SOL    MW422880   2.913   2.477   5.437 -0.5573 -0.5489  0.2286
 5779SOL     OW22881   3.784   0.859   2.915  0.3161  0.0282 -0.4387
 5779SOL    HW222882   3.697   0.854   2.875  0.5766  0.8715 -1.1282
 5779SOL    HW322883   3.794   0.774   2.960 -0.4756 -0.4480 -1.1301
 5779SOL    MW422884   3.773   0.847   2.916  0.2460  0.0767 -0.6209
 5780SOL     OW22885   1.064   6.121   1.860 -0.3936 -0.1932 -0.1219
 5780SOL    HW222886   1.047   6.211   1.832  3.3128  0.3851 -1.1741
 5780SOL    HW322887   1.089   6.129   1.952 -0.5269 -0.1809 -0.0879
 5780SOL    MW422888   1.065   6.134   1.868  0.0779 -0.1153 -0.2562
 5781SOL     OW22889   2.501   2.155   4.983  0.0383 -0.8055 -0.1062
 5781SOL    HW222890   2.483   2.062   4.968  0.0855 -1.0205  1.0623
 5781SOL    HW322891   2.586   2.157   5.025 -0.2509 -0.2915  0.4763
 5781SOL    MW422892   2.510   2.143   4.987  0.0064 -0.7660  0.1248
 5782SOL     OW22893   2.376   2.588   4.381 -0.2513 -0.4396  0.3339
 5782SOL    HW222894   2.387   2.680   4.359  0.4906 -0.9305 -1.5393
 5782SOL    HW322895   2.315   2.588   4.455  0.1022  1.5585  0.6845
 5782SOL    MW422896   2.370   2.600   4.388 -0.1068 -0.2408  0.1330
 5783SOL     OW22897   4.279   5.567   6.260 -0.4913 -0.4086  0.7442
 5783SOL    HW222898   4.186   5.568   6.281 -0.7469  3.5050  0.1738
 5783SOL    HW322899   4.294   5.649   6.213  2.9464 -1.7143 -0.8014
 5783SOL    MW422900   4.269   5.578   6.257 -0.0714 -0.0646  0.4650
 5784SOL     OW22901   4.787   5.700   1.950  0.3659  0.6777 -0.3282
 5784SOL    HW222902   4.837   5.725   1.873 -0.8344  1.1176 -0.9802
 5784SOL    HW322903   4.704   5.747   1.942 -0.4537 -0.5835  0.3479
 5784SOL    MW422904   4.783   5.709   1.939  0.0994  0.5693 -0.3250
 5785SOL     OW22905   4.805   6.369   0.485  0.9689 -0.6201 -0.3886
 5785SOL    HW222906   4.870   6.338   0.422  1.5252 -0.7121  0.2236
 5785SOL    HW322907   4.722   6.333   0.453  1.0129  0.4869 -1.8564
 5785SOL    MW422908   4.803   6.360   0.472  1.0481 -0.4862 -0.5015
 5786SOL     OW22909   4.977   0.380   2.482 -0.2862  0.6404 -0.1945
 5786SOL    HW222910   4.911   0.447   2.471  0.9747  1.8240 -0.8120
 5786SOL    HW322911   5.052   0.426   2.520  1.2725  0.0130 -2.3452
 5786SOL    MW422912   4.978   0.395   2.486  0.0858  0.7138 -0.5597
 5787SOL     OW22913   2.836   5.903   3.261 -0.1174  0.2953  0.3034
 5787SOL    HW222914   2.780   5.960   3.208 -0.2539  0.5336  0.7013
 5787SOL    HW322915   2.778   5.870   3.330  0.0824  0.0618  0.3617
 5787SOL    MW422916   2.821   5.906   3.263 -0.1090  0.2959  0.3636
 5788SOL     OW22917   0.539   2.663   1.064 -0.0947  0.0922 -0.4896
 5788SOL    HW222918   0.561   2.639   1.154  1.1589 -0.7385 -0.9769
 5788SOL    HW322919   0.459   2.614   1.044 -0.9318  1.0416  0.4705
 5788SOL    MW422920   0.532   2.653   1.073 -0.0398  0.1079 -0.4272
 5789SOL     OW22921   6.423   4.160   1.923  0.1952  0.0150  0.2642
 5789SOL    HW222922   6.438   4.213   1.845 -0.8014 -0.5788 -0.3546
 5789SOL    HW322923   6.331   4.175   1.946 -0.0212 -1.1700  0.2603
 5789SOL    MW422924   6.413   4.169   1.916  0.0351 -0.2197  0.1820
 5790SOL     OW22925   2.780   2.468   2.379  0.1925  0.5239 -0.0042
 5790SOL    HW222926   2.790   2.386   2.330  3.2238  0.5005  0.4163
 5790SOL    HW322927   2.772   2.439   2.470  0.2457  0.6746  0.0474
 5790SOL    MW422928   2.780   2.453   2.385  0.5995  0.5407  0.0580
 5791SOL     OW22929   1.212   4.447   2.429  0.1163 -0.6102 -0.4881
 5791SOL    HW222930   1.305   4.425   2.434  0.7298  1.3690 -1.8556
 5791SOL    HW322931   1.167   4.374   2.473  2.3383 -1.1730  0.9982
 5791SOL    MW422932   1.218   4.434   2.435  0.4904 -0.4233 -0.4724
 5792SOL     OW22933   2.480   1.532   2.981  0.3701  0.6366 -0.0681
 5792SOL    HW222934   2.550   1.516   2.917 -0.0746  1.3258 -0.7333
 5792SOL    HW322935   2.500   1.618   3.018 -0.9756  1.5556 -1.4001
 5792SOL    MW422936   2.492   1.541   2.978  0.1339  0.8488 -0.3316
 5793SOL     OW22937   5.976   1.570   1.582  0.2719 -0.1744 -0.1296
 5793SOL    HW222938   6.025   1.554   1.663 -0.1373  2.1339  0.6546
 5793SOL    HW322939   5.890   1.531   1.597 -0.9991  3.0435  2.0465
 5793SOL    MW422940   5.971   1.563   1.595  0.0502  0.5547  0.2609
 5794SOL     OW22941   1.387   0.544   2.000  0.4378 -0.0935 -0.0518
 5794SOL    HW222942   1.396   0.454   1.970  3.3530  0.5921 -1.5934
 5794SOL    HW322943   1.476   0.569   2.027 -0.8148  1.4373  3.1564
 5794SOL    MW422944   1.400   0.535   2.000  0.6572  0.1989  0.1681
 5795SOL     OW22945   2.631   3.665   2.728 -0.0531 -0.5573  0.9875
 5795SOL    HW222946   2.651   3.639   2.638  0.5583 -0.1047  0.9853
 5795SOL    HW322947   2.579   3.744   2.718 -1.0856 -1.2160  1.0142
 5795SOL    MW422948   2.627   3.672   2.714 -0.1087 -0.5845  0.9908
 5796SOL     OW22949   2.068   1.908   1.683 -0.1488 -0.2165  0.8374
 5796SOL    HW222950   2.026   1.827   1.710  0.3149 -1.3799 -1.6488
 5796SOL    HW322951   1.997   1.971   1.678 -0.9761 -1.1752  0.2509
 5796SOL    MW422952   2.053   1.906   1.686 -0.1968 -0.4965  0.4320
 5797SOL     OW22953   0.370   3.775   0.849 -0.2290 -0.0358 -0.7343
 5797SOL    HW222954   0.275   3.784   0.839 -0.4372 -1.6463 -0.4029
 5797SOL    HW322955   0.394   3.847   0.908 -0.7836  2.0693 -2.9023
 5797SOL    MW422956   0.361   3.786   0.856 -0.3297  0.0295 -0.9766
 5798SOL     OW22957   0.462   2.522   5.010  0.0196  0.5608 -0.0710
 5798SOL    HW222958   0.533   2.496   5.068  1.3086  2.4583 -0.6942
 5798SOL    HW322959   0.438   2.610   5.039 -0.2831  0.9791 -1.5004
 5798SOL    MW422960   0.468   2.530   5.022  0.1497  0.8664 -0.3419
 5799SOL     OW22961   4.131   3.244   6.187  0.6134 -0.4622  0.1075
 5799SOL    HW222962   4.040   3.274   6.186  1.3149  1.8190 -0.9507
 5799SOL    HW322963   4.164   3.271   6.272  0.4274 -0.8931  0.3177
 5799SOL    MW422964   4.123   3.251   6.198  0.6814 -0.2180 -0.0044
 5800SOL     OW22965   6.070   5.221   3.870 -0.3991 -0.1597  0.1949
 5800SOL    HW222966   5.987   5.173   3.867 -0.3269 -0.4824  2.1516
 5800SOL    HW322967   6.136   5.156   3.846 -0.5854 -0.2743 -0.0108
 5800SOL    MW422968   6.068   5.206   3.867 -0.4142 -0.2174  0.4260
 5801SOL     OW22969   5.296   4.213   2.313 -0.5609 -0.1930 -0.0444
 5801SOL    HW222970   5.296   4.308   2.313  0.7051 -0.1269 -2.2703
 5801SOL    HW322971   5.210   4.189   2.276 -0.8668  0.0661  0.4907
 5801SOL    MW422972   5.285   4.222   2.308 -0.4342 -0.1501 -0.2675
 5802SOL     OW22973   2.478   1.626   0.872 -0.5658 -0.0222  0.6518
 5802SOL    HW222974   2.489   1.560   0.803 -0.2438  0.6438  0.0630
 5802SOL    HW322975   2.437   1.578   0.944 -1.7866 -0.5247 -0.3376
 5802SOL    MW422976   2.474   1.611   0.873 -0.6844 -0.0007  0.4436
 5803SOL     OW22977   1.266   4.215   2.920 -0.3107 -0.0820  0.4599
 5803SOL    HW222978   1.224   4.296   2.890  1.4734 -0.0111 -2.1653
 5803SOL    HW322979   1.360   4.232   2.911  0.2789 -1.2278  3.3842
 5803SOL    MW422980   1.273   4.228   2.915  0.0025 -0.2239  0.4993
 5804SOL     OW22981   2.278   5.864   0.877  0.1618  0.2286  0.5863
 5804SOL    HW222982   2.372   5.880   0.881  0.1095  0.6050  0.2873
 5804SOL    HW322983   2.270   5.769   0.887  0.5256  0.2649  1.3689
 5804SOL    MW422984   2.289   5.853   0.879  0.2029  0.2831  0.6501
 5805SOL     OW22985   0.735   5.963   1.782  0.3243 -0.6384 -0.0216
 5805SOL    HW222986   0.712   5.892   1.842  0.7469  0.3064  1.3093
 5805SOL    HW322987   0.659   5.971   1.724 -0.3649 -1.1561  0.7936
 5805SOL    MW422988   0.722   5.955   1.782  0.2891 -0.5820  0.2616
 5806SOL     OW22989   0.012   2.063   5.768  0.2070 -0.3831 -0.4965
 5806SOL    HW222990  -0.010   2.009   5.844  0.0140 -1.8483 -1.5482
 5806SOL    HW322991  -0.048   2.033   5.700 -0.6816  1.9485 -0.8460
 5806SOL    MW422992   0.001   2.052   5.769  0.0643 -0.2688 -0.6814
 5807SOL     OW22993   2.573   0.165   3.607  0.0215  0.6178  0.5227
 5807SOL    HW222994   2.590   0.072   3.622 -0.2581  0.8986  2.8901
 5807SOL    HW322995   2.485   0.168   3.569 -0.6502 -0.0495  1.9311
 5807SOL    MW422996   2.564   0.153   3.604 -0.1040  0.5668  1.0208
 5808SOL     OW22997   5.529   5.063   3.212 -0.2444 -0.1012  0.0050
 5808SOL    HW222998   5.495   5.010   3.284 -2.3262  1.5533  0.3572
 5808SOL    HW322999   5.478   5.034   3.136 -0.7489  0.7213  0.0182
 5808SOL    MW423000   5.518   5.052   3.212 -0.5856  0.2256  0.0532
 5809SOL     OW23001   1.647   2.178   2.000 -0.6467  0.0828  0.7981
 5809SOL    HW223002   1.600   2.099   2.027  1.8316 -0.9804  2.3785
 5809SOL    HW323003   1.726   2.178   2.053  0.6236  2.3423 -0.9179
 5809SOL    MW423004   1.651   2.167   2.010 -0.1521  0.2406  0.7802
 5810SOL     OW23005   1.215   6.388   5.499 -0.0525 -0.2708 -0.0148
 5810SOL    HW223006   1.212   6.479   5.468  0.2769 -0.0995  0.4405
 5810SOL    HW323007   1.307   6.362   5.489  0.0458 -0.2410  0.7121
 5810SOL    MW423008   1.227   6.397   5.494  0.0039 -0.2443  0.1412
 5811SOL     OW23009   4.699   4.340   4.991  0.0470  0.2646  0.7103
 5811SOL    HW223010   4.665   4.255   5.019  1.4736 -0.3493  0.6954
 5811SOL    HW323011   4.784   4.346   5.034  0.4296  1.2138 -0.1419
 5811SOL    MW423012   4.706   4.330   5.000  0.2857  0.3088  0.5959
 5812SOL     OW23013   0.286   4.285   6.361 -0.2081  0.3810  0.0168
 5812SOL    HW223014   0.205   4.282   6.310  0.8011 -2.1369 -1.6601
 5812SOL    HW323015   0.347   4.332   6.305  0.6295 -1.5396 -0.7805
 5812SOL    MW423016   0.283   4.291   6.347  0.0355 -0.2046 -0.3096
 5813SOL     OW23017   4.422   1.274   3.763 -0.1159 -0.4262  0.5361
 5813SOL    HW223018   4.364   1.250   3.835  1.0260  0.9779  1.9924
 5813SOL    HW323019   4.498   1.216   3.773  0.1945 -0.0005  0.6860
 5813SOL    MW423020   4.424   1.263   3.773  0.0757 -0.1848  0.7480
 5814SOL     OW23021   3.503   2.387   3.491 -0.9311  0.1124 -0.2061
 5814SOL    HW223022   3.500   2.432   3.407 -1.4972 -1.6312 -1.1793
 5814SOL    HW323023   3.573   2.430   3.540 -0.0559  0.6479 -1.8792
 5814SOL    MW423024   3.512   2.399   3.487 -0.8903 -0.0470 -0.5552
 5815SOL     OW23025   1.116   4.187   2.539  0.1202 -0.2991  0.4926
 5815SOL    HW223026   1.205   4.171   2.571  0.5982  0.9601 -0.1526
 5815SOL    HW323027   1.122   4.170   2.445 -0.1802  0.3348  0.3567
 5815SOL    MW423028   1.128   4.182   2.531  0.1436 -0.0493  0.3896
 5816SOL     OW23029   3.543   5.753   5.655  0.0153  0.2924 -0.8412
 5816SOL    HW223030   3.571   5.798   5.735 -1.2840  0.0403 -0.2281
 5816SOL    HW323031   3.449   5.740   5.666 -0.0814 -0.2730 -2.1604
 5816SOL    MW423032   3.535   5.758   5.667 -0.1689  0.1846 -0.9343
 5817SOL     OW23033   5.382   5.916   4.635  0.1801  0.2734  0.2371
 5817SOL    HW223034   5.385   5.840   4.694 -0.5758 -1.0847 -1.4047
 5817SOL    HW323035   5.376   5.991   4.694 -1.0028 -1.0537  1.9122
 5817SOL    MW423036   5.382   5.916   4.651 -0.0757 -0.0809  0.2415
 5818SOL     OW23037   1.000   1.759   0.128  0.4391 -0.2055 -0.5463
 5818SOL    HW223038   1.055   1.757   0.049  1.5502  0.5260  0.1835
 5818SOL    HW323039   1.057   1.728   0.198 -0.4768 -0.6614  0.0117
 5818SOL    MW423040   1.015   1.755   0.126  0.4648 -0.1692 -0.3764
 5819SOL     OW23041   4.673   2.726   6.248  0.3616 -0.4110 -0.1426
 5819SOL    HW223042   4.604   2.788   6.226 -0.1868 -0.7075  0.7117
 5819SOL    HW323043   4.639   2.641   6.217  0.2588 -0.5875  0.4512
 5819SOL    MW423044   4.660   2.723   6.241  0.2757 -0.4734  0.0485
 5820SOL     OW23045   1.877   3.495   0.108  0.2369 -0.8337 -0.3195
 5820SOL    HW223046   1.916   3.523   0.025  0.4441 -0.8205 -0.2183
 5820SOL    HW323047   1.856   3.577   0.153 -0.7258 -0.8318 -0.7512
 5820SOL    MW423048   1.880   3.510   0.103  0.1372 -0.8317 -0.3631
 5821SOL     OW23049   5.473   5.315   3.364  0.1272  0.5968  0.3409
 5821SOL    HW223050   5.505   5.239   3.315  0.9201  1.6163 -0.7884
 5821SOL    HW323051   5.382   5.323   3.336 -0.4249 -0.7785  1.5963
 5821SOL    MW423052   5.465   5.306   3.354  0.1590  0.5499  0.3576
 5822SOL     OW23053   0.731   5.585   4.280  0.5280  0.4323  0.1230
 5822SOL    HW223054   0.804   5.626   4.234  2.2532  0.1271  2.3886
 5822SOL    HW323055   0.694   5.656   4.333  0.7496  0.0537  0.7927
 5822SOL    MW423056   0.736   5.600   4.281  0.7848  0.3421  0.5103
 5823SOL     OW23057   6.360   2.378   2.584  0.5408 -0.2032 -0.6045
 5823SOL    HW223058   6.434   2.438   2.585  0.0155  0.4795  1.0316
 5823SOL    HW323059   6.343   2.359   2.676 -0.8673 -0.9042 -0.9703
 5823SOL    MW423060   6.367   2.383   2.596  0.2857 -0.2056 -0.4369
 5824SOL     OW23061   2.117   1.852   4.945 -0.1074 -0.6830  0.0407
 5824SOL    HW223062   2.093   1.761   4.928 -0.5402 -0.7108  0.7397
 5824SOL    HW323063   2.082   1.901   4.870 -0.9933 -0.9386  0.2740
 5824SOL    MW423064   2.109   1.847   4.933 -0.2814 -0.7204  0.1637
 5825SOL     OW23065   2.351   6.090   4.034  0.3270 -0.4355 -0.0053
 5825SOL    HW223066   2.257   6.103   4.052  0.4978  0.4739  0.2741
 5825SOL    HW323067   2.355   6.004   3.993 -0.9668  0.4944 -2.3538
 5825SOL    MW423068   2.339   6.081   4.031  0.1788 -0.1929 -0.2783
 5826SOL     OW23069   2.991   0.919   0.908 -0.4365 -0.2411 -0.0542
 5826SOL    HW223070   3.039   0.906   0.826 -1.6252 -1.0177 -0.6553
 5826SOL    HW323071   2.979   0.830   0.942 -0.5359  0.0280  0.6216
 5826SOL    MW423072   2.996   0.905   0.902 -0.6064 -0.3081 -0.0444
 5827SOL     OW23073   1.035   4.137   2.052  0.6846  0.2418  0.0634
 5827SOL    HW223074   1.088   4.141   1.973  0.1976 -0.4947 -0.3127
 5827SOL    HW323075   1.096   4.110   2.120  1.2481  1.5066  0.0951
 5827SOL    MW423076   1.050   4.134   2.051  0.6947  0.3115  0.0180
 5828SOL     OW23077   1.404   0.829   5.446 -0.3451  0.3123 -0.0018
 5828SOL    HW223078   1.353   0.902   5.481  1.4021  2.4045 -1.5544
 5828SOL    HW323079   1.382   0.755   5.503 -2.4119  1.9442  1.4795
 5828SOL    MW423080   1.394   0.829   5.458 -0.3873  0.8036 -0.0112
 5829SOL     OW23081   0.426   6.027   1.257 -0.0379  0.2109  0.0024
 5829SOL    HW223082   0.346   6.027   1.203 -0.4255  2.5421  0.4657
 5829SOL    HW323083   0.395   6.049   1.345  1.1146  1.3954  0.1383
 5829SOL    MW423084   0.411   6.030   1.261  0.0630  0.6747  0.0815
 5830SOL     OW23085   0.098   2.904   1.562  0.1407 -0.4559 -0.1078
 5830SOL    HW223086   0.168   2.894   1.627 -0.4195 -1.4847  0.3540
 5830SOL    HW323087   0.058   2.817   1.556 -1.3937  0.2097 -0.0234
 5830SOL    MW423088   0.102   2.891   1.570 -0.1356 -0.5038 -0.0357
 5831SOL     OW23089   5.613   5.667   2.178  0.1382 -0.1091 -0.5575
 5831SOL    HW223090   5.563   5.604   2.124  1.4090 -0.4155 -1.4234
 5831SOL    HW323091   5.704   5.647   2.159  0.6097  0.3566  1.1010
 5831SOL    MW423092   5.618   5.656   2.168  0.3681 -0.0881 -0.4529
 5832SOL     OW23093   0.503   3.610   5.573  0.7923 -0.5596  0.3266
 5832SOL    HW223094   0.475   3.558   5.497  0.1597 -1.4102  1.1022
 5832SOL    HW323095   0.584   3.652   5.546 -0.1221  0.2454 -1.2842
 5832SOL    MW423096   0.510   3.609   5.559  0.5882 -0.5656  0.2164
 5833SOL     OW23097   1.569   1.687   5.901 -0.4208  0.3301 -0.7533
 5833SOL    HW223098   1.600   1.612   5.952 -0.4886 -0.9023 -2.4373
 5833SOL    HW323099   1.587   1.664   5.810  0.9545  3.0258 -1.2747
 5833SOL    MW423100   1.575   1.674   5.896 -0.2483  0.5232 -1.0443
 5834SOL     OW23101   3.764   5.227   3.936 -0.2479 -1.2665  0.1226
 5834SOL    HW223102   3.816   5.308   3.938  1.9457 -2.5610 -0.9041
 5834SOL    HW323103   3.786   5.187   3.852 -0.4097 -3.4516  1.0729
 5834SOL    MW423104   3.774   5.233   3.926  0.0202 -1.7256  0.1125
 5835SOL     OW23105   4.561   3.922   5.788  0.1744 -0.3280 -0.1147
 5835SOL    HW223106   4.602   3.954   5.708 -0.4994  1.8262  0.3377
 5835SOL    HW323107   4.548   4.000   5.841 -0.2358 -1.5856  1.7260
 5835SOL    MW423108   4.565   3.936   5.784  0.0314 -0.2097  0.1879
 5836SOL     OW23109   4.873   4.390   0.307 -0.2509 -0.4984 -0.5000
 5836SOL    HW223110   4.961   4.391   0.344 -0.1326 -3.5952 -0.4499
 5836SOL    HW323111   4.831   4.468   0.344  1.2627 -0.9918  2.6293
 5836SOL    MW423112   4.879   4.400   0.317 -0.0356 -0.9721 -0.0805
 5837SOL     OW23113   1.307   2.298   4.666 -0.0977 -0.0178  0.0734
 5837SOL    HW223114   1.213   2.287   4.679  0.0622 -0.0544  1.3857
 5837SOL    HW323115   1.342   2.307   4.755  0.9953  1.2009 -0.4464
 5837SOL    MW423116   1.299   2.298   4.680  0.0676  0.1382  0.1779
 5838SOL     OW23117   1.570   3.186   4.832 -0.3396 -0.2769  0.4983
 5838SOL    HW223118   1.534   3.271   4.856 -1.2364  0.2277 -2.2530
 5838SOL    HW323119   1.660   3.205   4.806  0.1597 -0.5715  1.9536
 5838SOL    MW423120   1.577   3.200   4.831 -0.3921 -0.2492  0.3273
 5839SOL     OW23121   3.595   0.167   3.852 -0.2920 -0.2390  0.0311
 5839SOL    HW223122   3.536   0.093   3.862  0.1639 -0.6558 -0.2885
 5839SOL    HW323123   3.683   0.129   3.859 -0.0038  0.6951  2.9591
 5839SOL    MW423124   3.599   0.152   3.854 -0.1938 -0.1707  0.3752
 5840SOL     OW23125   2.470   1.505   4.303 -0.1445 -0.0267 -0.0275
 5840SOL    HW223126   2.509   1.541   4.384 -0.5001  2.1235 -0.7516
 5840SOL    HW323127   2.377   1.494   4.324 -0.4567  1.6095 -0.4538
 5840SOL    MW423128   2.463   1.508   4.317 -0.2326  0.4729 -0.1793
 5841SOL     OW23129   2.514   3.160   6.129  0.1466 -0.2354  0.2965
 5841SOL    HW223130   2.514   3.123   6.217  1.7430 -0.6661  0.1562
 5841SOL    HW323131   2.572   3.102   6.079 -0.0085  0.5205 -0.7972
 5841SOL    MW423132   2.522   3.147   6.134  0.3367 -0.1925  0.1337
 5842SOL     OW23133   2.106   4.821   2.080 -0.3475 -0.2065 -1.1241
 5842SOL    HW223134   2.175   4.813   2.146 -1.4111  0.2517  0.0778
 5842SOL    HW323135   2.147   4.869   2.008  1.6087 -2.9401 -1.9836
 5842SOL    MW423136   2.120   4.826   2.080 -0.2297 -0.5067 -1.0789
 5843SOL     OW23137   3.141   2.813   0.010 -0.3403  0.2843  0.4713
 5843SOL    HW223138   3.057   2.817  -0.037  0.7249 -1.4812 -1.7534
 5843SOL    HW323139   3.156   2.720   0.025  0.4930  0.6620  2.3522
 5843SOL    MW423140   3.132   2.801   0.006 -0.0898  0.1012  0.4259
 5844SOL     OW23141   2.704   0.169   6.140 -0.0960  0.1847 -0.2666
 5844SOL    HW223142   2.789   0.200   6.107 -1.0398  2.8076 -0.4311
 5844SOL    HW323143   2.671   0.113   6.070  1.1190 -0.1751 -0.5826
 5844SOL    MW423144   2.711   0.166   6.126 -0.0602  0.4833 -0.3300
 5845SOL     OW23145   4.334   2.139   3.254  0.0079 -0.1380  0.0246
 5845SOL    HW223146   4.288   2.055   3.256 -0.0426 -0.1397 -0.8627
 5845SOL    HW323147   4.370   2.148   3.342 -1.1702 -0.4264  0.5667
 5845SOL    MW423148   4.333   2.129   3.266 -0.1542 -0.1762 -0.0210
 5846SOL     OW23149   1.945   3.459   1.525  0.0993 -0.2997 -0.2822
 5846SOL    HW223150   1.936   3.495   1.437  1.7667  1.8432  0.3224
 5846SOL    HW323151   1.857   3.464   1.562 -0.1662  1.0816 -1.0234
 5846SOL    MW423152   1.932   3.464   1.518  0.2843  0.1653 -0.3002
 5847SOL     OW23153   2.550   3.055   1.551 -0.5613  0.3386  0.2163
 5847SOL    HW223154   2.512   2.967   1.554 -0.0286  0.1268  0.7838
 5847SOL    HW323155   2.518   3.097   1.631 -1.6729  1.0263 -0.5633
 5847SOL    MW423156   2.540   3.049   1.562 -0.6377  0.4014  0.1883
 5848SOL     OW23157   4.764   4.806   1.881  0.1476  0.4913  0.0302
 5848SOL    HW223158   4.823   4.765   1.945 -0.4854  0.2633  0.4682
 5848SOL    HW323159   4.712   4.868   1.932 -0.1598  0.5207 -0.3150
 5848SOL    MW423160   4.765   4.809   1.896  0.0235  0.4651  0.0425
 5849SOL     OW23161   5.352   5.729   5.297 -0.1428  0.1116 -0.0297
 5849SOL    HW223162   5.322   5.817   5.319 -0.8182  0.1656 -1.0686
 5849SOL    HW323163   5.302   5.671   5.353 -0.5875  0.3311 -0.1963
 5849SOL    MW423164   5.342   5.733   5.307 -0.2906  0.1477 -0.1888
 5850SOL     OW23165   0.121   2.802   4.921  0.0287 -0.4756  0.2110
 5850SOL    HW223166   0.103   2.818   4.829 -2.0140  0.9235  0.7773
 5850SOL    HW323167   0.071   2.723   4.942  0.0251 -0.4626  0.2518
 5850SOL    MW423168   0.112   2.794   4.912 -0.2413 -0.2893  0.2911
 5851SOL     OW23169   0.146   1.177   2.877  0.2728 -0.2739  0.0928
 5851SOL    HW223170   0.225   1.130   2.849  0.1216  0.6898 -2.1522
 5851SOL    HW323171   0.143   1.164   2.972  2.6754 -0.9974  0.1365
 5851SOL    MW423172   0.156   1.169   2.886  0.5698 -0.2422 -0.1976
 5852SOL     OW23173   4.081   4.304   3.922  0.5645  0.6648 -0.1787
 5852SOL    HW223174   4.033   4.386   3.929 -0.7437 -0.1127  0.2307
 5852SOL    HW323175   4.163   4.328   3.879  0.0234  2.1049 -0.4588
 5852SOL    MW423176   4.086   4.318   3.918  0.3205  0.7522 -0.1616
 5853SOL     OW23177   3.127   3.169   0.766  0.2652  0.0483  0.6547
 5853SOL    HW223178   3.082   3.088   0.789  0.1855 -0.5916 -1.5333
 5853SOL    HW323179   3.216   3.142   0.743  0.3767  0.6350  0.3522
 5853SOL    MW423180   3.133   3.155   0.766  0.2694  0.0413  0.3261
 5854SOL     OW23181   5.174   3.146   1.348 -0.1658 -0.7705 -0.2703
 5854SOL    HW223182   5.125   3.114   1.272 -0.4864 -1.3039  0.1502
 5854SOL    HW323183   5.264   3.116   1.333 -0.3000 -1.1885 -0.2730
 5854SOL    MW423184   5.179   3.137   1.336 -0.2258 -0.8960 -0.2152
 5855SOL     OW23185   6.333   4.731   4.762 -0.2662 -0.7545 -0.3607
 5855SOL    HW223186   6.348   4.782   4.682  0.3548 -0.8733 -0.3271
 5855SOL    HW323187   6.243   4.750   4.786 -0.0648  0.2898 -0.3800
 5855SOL    MW423188   6.323   4.740   4.754 -0.1577 -0.6324 -0.3588
 5856SOL     OW23189   2.309   4.335   3.719 -0.3042 -0.1437  0.4172
 5856SOL    HW223190   2.351   4.415   3.750  1.4033 -1.1373  0.8005
 5856SOL    HW323191   2.314   4.341   3.623 -0.0035  0.1169  0.4483
 5856SOL    MW423192   2.316   4.346   3.710 -0.0392 -0.2404  0.4718
 5857SOL     OW23193   4.426   0.771   0.310  0.6143  0.6160 -0.1721
 5857SOL    HW223194   4.438   0.737   0.222 -1.5602 -0.0747 -0.2697
 5857SOL    HW323195   4.475   0.711   0.366  1.4637  0.6795 -0.8376
 5857SOL    MW423196   4.434   0.759   0.306  0.4394  0.5333 -0.2728
 5858SOL     OW23197   0.115   0.816   3.346 -0.2112 -0.0834 -0.0526
 5858SOL    HW223198   0.197   0.862   3.326 -0.4743  0.1592 -0.5681
 5858SOL    HW323199   0.142   0.747   3.408  0.0484  1.3021  1.4460
 5858SOL    MW423200   0.130   0.813   3.352 -0.2117  0.1314  0.0771
 5859SOL     OW23201   5.396   2.337   6.166  0.6008 -0.0811  0.5097
 5859SOL    HW223202   5.378   2.255   6.212 -1.2956  0.9165  1.6828
 5859SOL    HW323203   5.461   2.381   6.221  0.1709  0.0347  0.9317
 5859SOL    MW423204   5.402   2.332   6.180  0.2939  0.0658  0.7202
 5860SOL     OW23205   0.264   1.695   0.971  0.6902 -0.8334 -0.2008
 5860SOL    HW223206   0.235   1.619   1.021  1.2573 -1.0380 -0.1730
 5860SOL    HW323207   0.288   1.661   0.885 -1.3181 -0.3161 -1.0162
 5860SOL    MW423208   0.263   1.681   0.967  0.5000 -0.7922 -0.3047
 5861SOL     OW23209   0.754   5.301   6.322 -0.1662 -0.3652  0.1819
 5861SOL    HW223210   0.672   5.347   6.341 -1.4113 -2.1992 -0.3679
 5861SOL    HW323211   0.727   5.227   6.267  2.3317  0.9005 -3.0388
 5861SOL    MW423212   0.739   5.297   6.317 -0.0009 -0.4402 -0.3156
 5862SOL     OW23213   0.824   2.598   5.923  0.0525  0.6611  0.2140
 5862SOL    HW223214   0.882   2.588   5.847  0.7352  1.7012  0.5799
 5862SOL    HW323215   0.845   2.684   5.958 -1.0324  0.6477  0.9488
 5862SOL    MW423216   0.834   2.608   5.917 -0.0005  0.7966  0.3593
 5863SOL     OW23217   5.277   2.528   1.785 -0.0935 -0.0901 -0.0350
 5863SOL    HW223218   5.265   2.448   1.835  0.9030 -0.7367 -0.7900
 5863SOL    HW323219   5.255   2.599   1.846 -0.2222 -0.8992  0.8762
 5863SOL    MW423220   5.272   2.527   1.799  0.0210 -0.2822 -0.0144
 5864SOL     OW23221   5.019   5.936   4.682  0.4142 -0.0779  0.0660
 5864SOL    HW223222   5.082   5.964   4.749  0.6726 -0.7416  0.1095
 5864SOL    HW323223   4.935   5.931   4.729 -0.5041  4.1230 -0.6908
 5864SOL    MW423224   5.016   5.939   4.697  0.3271  0.3888 -0.0281
 5865SOL     OW23225   0.123   5.052   0.280  0.6944  0.2648 -0.5342
 5865SOL    HW223226   0.121   5.136   0.233 -3.8382 -1.0787 -3.5099
 5865SOL    HW323227   0.176   4.995   0.224  1.4437  0.4366 -0.0076
 5865SOL    MW423228   0.130   5.055   0.266  0.1952  0.1102 -0.8573
 5866SOL     OW23229   3.667   1.040   4.925  0.1952  0.2175 -0.2172
 5866SOL    HW223230   3.736   1.054   4.991  1.8220 -1.1229 -1.5299
 5866SOL    HW323231   3.586   1.062   4.971  1.2268 -0.7248  2.2854
 5866SOL    MW423232   3.665   1.045   4.940  0.5460 -0.0837 -0.0602
 5867SOL     OW23233   3.789   2.327   5.133  0.0150 -0.8211 -0.0919
 5867SOL    HW223234   3.790   2.303   5.040  0.3776  0.3379 -0.4054
 5867SOL    HW323235   3.882   2.329   5.159  0.3053  2.7360 -0.8148
 5867SOL    MW423236   3.802   2.324   5.124  0.1011 -0.1988 -0.2286
 5868SOL     OW23237   4.429   0.348   1.763  0.8230 -0.3078  0.3316
 5868SOL    HW223238   4.426   0.353   1.859 -1.2677 -0.3658  0.3241
 5868SOL    HW323239   4.479   0.269   1.744  0.9531 -0.4942  1.3961
 5868SOL    MW423240   4.435   0.338   1.773  0.5643 -0.3401  0.4711
 5869SOL     OW23241   3.338   5.877   0.984 -0.1425  0.1320 -0.1874
 5869SOL    HW223242   3.428   5.846   0.993 -0.0166  0.5961  0.2177
 5869SOL    HW323243   3.310   5.844   0.899  0.1630 -0.6303 -0.0074
 5869SOL    MW423244   3.346   5.868   0.974 -0.0856  0.0927 -0.1102
 5870SOL     OW23245   3.520   1.093   1.659  0.0385 -0.0668  0.2993
 5870SOL    HW223246   3.613   1.087   1.681  0.0932 -0.7849 -0.1098
 5870SOL    HW323247   3.491   1.002   1.651  0.1858  0.0559 -3.2347
 5870SOL    MW423248   3.528   1.080   1.661  0.0651 -0.1454 -0.2209
 5871SOL     OW23249   4.491   3.994   6.409  0.0785 -0.4296  0.1563
 5871SOL    HW223250   4.522   4.084   6.397  1.1228 -0.8884 -0.8004
 5871SOL    HW323251   4.552   3.956   6.472  1.2719 -1.1989 -1.3794
 5871SOL    MW423252   4.504   4.001   6.416  0.3738 -0.5916 -0.1725
 5872SOL     OW23253   4.243   2.295   4.868 -0.1082  0.3520  0.3531
 5872SOL    HW223254   4.207   2.275   4.782  0.4718  0.8345 -0.0085
 5872SOL    HW323255   4.248   2.210   4.912  1.6758 -0.2603 -0.9046
 5872SOL    MW423256   4.239   2.281   4.863  0.2037  0.3349  0.1394
 5873SOL     OW23257   1.005   5.877   4.684  0.4301  0.0033 -0.3408
 5873SOL    HW223258   1.097   5.899   4.675  0.5596 -0.5900 -0.5080
 5873SOL    HW323259   0.962   5.924   4.612  0.2039  2.4222  1.2846
 5873SOL    MW423260   1.011   5.886   4.673  0.4173  0.2442 -0.1484
 5874SOL     OW23261   6.401   3.979   4.395  0.2959 -0.4010  0.4464
 5874SOL    HW223262   6.331   3.968   4.330  0.7239 -1.3140  0.1177
 5874SOL    HW323263   6.466   4.034   4.352  0.6473 -1.1279  0.0270
 5874SOL    MW423264   6.400   3.985   4.381  0.3988 -0.6174  0.3477
 5875SOL     OW23265   2.069   0.882   2.452  0.4788 -0.1403  0.2002
 5875SOL    HW223266   2.033   0.836   2.528  2.1713 -1.3031  0.3564
 5875SOL    HW323267   2.007   0.864   2.382  0.0142 -0.9087  0.7835
 5875SOL    MW423268   2.056   0.873   2.453  0.6408 -0.3951  0.2978
 5876SOL     OW23269   3.268   1.782   1.728  0.0418  0.1363  0.0411
 5876SOL    HW223270   3.341   1.841   1.711 -0.5297  0.7240 -0.4248
 5876SOL    HW323271   3.301   1.696   1.704  1.3922 -0.0118  2.1216
 5876SOL    MW423272   3.282   1.779   1.723  0.1445  0.1943  0.2542
 5877SOL     OW23273   3.922   1.557   1.854 -0.4689 -0.1912  0.1202
 5877SOL    HW223274   3.861   1.511   1.796  0.8951 -1.6630 -0.2286
 5877SOL    HW323275   3.977   1.608   1.795 -0.8413  0.5020  0.3671
 5877SOL    MW423276   3.921   1.558   1.838 -0.3380 -0.2939  0.1068
 5878SOL     OW23277   1.659   4.293   0.213  0.4972  0.1929  0.1909
 5878SOL    HW223278   1.689   4.281   0.123  0.6532  0.6555  0.1753
 5878SOL    HW323279   1.658   4.388   0.224  3.0231  0.1515  1.5296
 5878SOL    MW423280   1.663   4.304   0.202  0.8511  0.2485  0.3655
 5879SOL     OW23281   5.229   4.727   5.048 -0.3778  0.0707 -0.4756
 5879SOL    HW223282   5.314   4.735   5.006 -0.4155  1.0513 -0.3779
 5879SOL    HW323283   5.185   4.810   5.031 -0.9608 -0.0719  0.2627
 5879SOL    MW423284   5.234   4.739   5.041 -0.4597  0.1813 -0.3653
 5880SOL     OW23285   0.123   1.618   0.349 -0.1229  0.2891  0.2648
 5880SOL    HW223286   0.212   1.616   0.316  0.0362  0.6456  0.6713
 5880SOL    HW323287   0.089   1.703   0.323 -0.2421  0.2746  0.3695
 5880SOL    MW423288   0.130   1.629   0.342 -0.1177  0.3343  0.3323
 5881SOL     OW23289   5.973   1.693   4.189 -0.6796  0.2314  0.3788
 5881SOL    HW223290   6.036   1.757   4.224  0.3653  0.2576 -1.4079
 5881SOL    HW323291   5.950   1.639   4.264 -0.2925  1.6645  1.5792
 5881SOL    MW423292   5.978   1.694   4.204 -0.4907  0.4239  0.3014
 5882SOL     OW23293   4.512   2.738   2.266  0.5601 -0.2235 -0.8889
 5882SOL    HW223294   4.503   2.787   2.348  2.8126  0.3602 -0.9299
 5882SOL    HW323295   4.504   2.805   2.197  2.0757 -0.1082 -0.9933
 5882SOL    MW423296   4.510   2.753   2.268  1.0572 -0.1313 -0.9081
 5883SOL     OW23297   0.981   4.384   0.267  0.3224  0.2337  0.0525
 5883SOL    HW223298   0.972   4.478   0.283 -0.7762  0.1101  0.2268
 5883SOL    HW323299   1.016   4.349   0.348  1.0792  0.5386 -0.1367
 5883SOL    MW423300   0.984   4.391   0.280  0.2773  0.2576  0.0506
 5884SOL     OW23301   1.681   4.329   2.640 -0.4586 -0.2428 -0.3844
 5884SOL    HW223302   1.760   4.280   2.664 -0.9705 -0.7070  0.4086
 5884SOL    HW323303   1.668   4.390   2.712 -2.2748 -1.9667  0.8606
 5884SOL    MW423304   1.690   4.330   2.652 -0.7657 -0.5315 -0.1155
 5885SOL     OW23305   4.674   3.654   2.696  0.4598 -0.2165  0.1017
 5885SOL    HW223306   4.627   3.571   2.692 -0.1530  0.0630  1.1452
 5885SOL    HW323307   4.622   3.708   2.756  1.7462  0.3380  0.7562
 5885SOL    MW423308   4.661   3.651   2.704  0.5487 -0.1065  0.3257
 5886SOL     OW23309   2.242   3.338   6.339 -0.1717 -0.4276 -0.1258
 5886SOL    HW223310   2.148   3.327   6.353 -0.1300 -2.6673 -1.1860
 5886SOL    HW323311   2.282   3.277   6.401  0.6410  0.7760  0.5773
 5886SOL    MW423312   2.235   3.328   6.349 -0.0590 -0.5643 -0.1729
 5887SOL     OW23313   5.566   0.681   3.728  0.0104  0.6188  0.8041
 5887SOL    HW223314   5.653   0.641   3.723  0.1220  0.9101  0.3501
 5887SOL    HW323315   5.567   0.731   3.810  0.9790  2.2355 -0.1420
 5887SOL    MW423316   5.578   0.682   3.738  0.1529  0.8705  0.6193
 5888SOL     OW23317   4.616   1.859   1.057 -0.0119  0.1914  0.0525
 5888SOL    HW223318   4.543   1.797   1.057  1.4428 -1.6747  1.1061
 5888SOL    HW323319   4.600   1.915   1.133 -1.0383  0.7013 -0.5348
 5888SOL    MW423320   4.604   1.858   1.067  0.0446  0.0125  0.1140
 5889SOL     OW23321   3.194   1.323   1.927 -0.6353 -0.3817 -0.3226
 5889SOL    HW223322   3.273   1.269   1.934 -0.4382 -0.0921 -0.3210
 5889SOL    HW323323   3.181   1.359   2.015 -2.3807 -2.6690  0.4724
 5889SOL    MW423324   3.203   1.320   1.940 -0.8396 -0.6453 -0.2175
 5890SOL     OW23325   0.076   1.257   1.302  0.0860 -0.6429 -0.9013
 5890SOL    HW223326   0.127   1.325   1.258 -0.6154  0.2815 -0.3192
 5890SOL    HW323327  -0.013   1.270   1.269 -0.6512  0.6594  1.4205
 5890SOL    MW423328   0.071   1.268   1.292 -0.1038 -0.3491 -0.5182
 5891SOL     OW23329   4.792   5.981   6.045  0.1249  0.9614 -0.0790
 5891SOL    HW223330   4.870   5.936   6.013  0.9326  0.9470  1.7984
 5891SOL    HW323331   4.719   5.934   6.004  1.0362 -0.0260 -0.6241
 5891SOL    MW423332   4.793   5.969   6.035  0.3517  0.8293  0.0968
 5892SOL     OW23333   4.251   5.353   2.070 -0.7340  0.0133  0.4330
 5892SOL    HW223334   4.174   5.298   2.082 -0.3042 -0.8417 -0.5673
 5892SOL    HW323335   4.223   5.422   2.011 -1.0020  0.2935  0.8840
 5892SOL    MW423336   4.237   5.355   2.064 -0.7127 -0.0626  0.3605
 5893SOL     OW23337   0.861   3.615   0.794 -0.8178  0.8560 -0.4472
 5893SOL    HW223338   0.808   3.672   0.737  0.0277  2.5240  0.3429
 5893SOL    HW323339   0.801   3.589   0.864 -1.6225 -0.5001 -1.5783
 5893SOL    MW423340   0.846   3.619   0.796 -0.8124  0.8972 -0.4922
 5894SOL     OW23341   3.335   3.840   2.698  0.0525 -0.2310 -0.3072
 5894SOL    HW223342   3.410   3.784   2.719  1.4990  1.3597 -0.9489
 5894SOL    HW323343   3.262   3.801   2.745  1.4509 -1.3816  1.0248
 5894SOL    MW423344   3.336   3.827   2.707  0.4279 -0.1729 -0.2162
 5895SOL     OW23345   0.249   2.920   5.948  0.6038  0.1580  0.0405
 5895SOL    HW223346   0.328   2.971   5.968  0.0067  1.2729 -0.3800
 5895SOL    HW323347   0.234   2.934   5.855  1.0574 -1.7395 -0.3722
 5895SOL    MW423348   0.258   2.928   5.939  0.5849  0.0548 -0.0695
 5896SOL     OW23349   2.693   1.512   4.124 -0.5312 -0.2418 -0.5963
 5896SOL    HW223350   2.758   1.452   4.161  0.4757  1.7798  1.1126
 5896SOL    HW323351   2.616   1.500   4.179 -0.9026 -1.0734 -1.2685
 5896SOL    MW423352   2.691   1.502   4.136 -0.4473 -0.0848 -0.4596
 5897SOL     OW23353   1.428   1.957   5.201  0.4004  0.2085 -0.1918
 5897SOL    HW223354   1.480   2.007   5.139 -0.9494  1.1177 -0.6402
 5897SOL    HW323355   1.338   1.988   5.187 -0.2576 -1.2688  0.5761
 5897SOL    MW423356   1.423   1.968   5.191  0.1355  0.1335 -0.1496
 5898SOL     OW23357   2.926   4.719   0.771  0.2664 -0.3338 -0.2614
 5898SOL    HW223358   2.837   4.750   0.783  0.4919 -0.6124  2.6516
 5898SOL    HW323359   2.918   4.625   0.758  0.0893 -0.1397 -1.8850
 5898SOL    MW423360   2.913   4.711   0.771  0.2728 -0.3449 -0.0913
 5899SOL     OW23361   4.267   5.591   3.989 -0.5986 -0.6693 -0.0927
 5899SOL    HW223362   4.188   5.598   3.936 -0.3746  1.9218 -0.2362
 5899SOL    HW323363   4.241   5.542   4.067 -2.2546 -0.1995 -0.3250
 5899SOL    MW423364   4.253   5.586   3.992 -0.7875 -0.2655 -0.1422
 5900SOL     OW23365   0.013   1.876   5.986  0.3889 -0.2331  0.1482
 5900SOL    HW223366   0.022   1.833   6.071  1.3166 -0.8933 -0.2730
 5900SOL    HW323367  -0.005   1.805   5.925 -0.5124  0.2655 -0.1825
 5900SOL    MW423368   0.012   1.861   5.990  0.3924 -0.2544  0.0490
 5901SOL     OW23369   0.472   2.429   4.551  0.4805 -0.2869 -0.3705
 5901SOL    HW223370   0.523   2.454   4.628  0.6942  2.2423 -1.2552
 5901SOL    HW323371   0.537   2.420   4.481  0.1158 -0.9439 -0.6363
 5901SOL    MW423372   0.487   2.431   4.552  0.4606 -0.0399 -0.5223
 5902SOL     OW23373   3.768   5.928   0.822 -0.5995 -0.2654  0.4767
 5902SOL    HW223374   3.795   5.944   0.732  1.3882 -0.5739  0.9736
 5902SOL    HW323375   3.699   5.862   0.815 -1.9136  1.1835 -0.9152
 5902SOL    MW423376   3.762   5.921   0.809 -0.5106 -0.1149  0.3586
 5903SOL     OW23377   2.324   5.467   4.850 -0.1923  0.0444  0.1777
 5903SOL    HW223378   2.373   5.456   4.768 -1.3607 -1.8129 -0.3119
 5903SOL    HW323379   2.320   5.380   4.888 -2.2172  0.3079  0.7067
 5903SOL    MW423380   2.330   5.454   4.844 -0.6136 -0.1659  0.1829
 5904SOL     OW23381   3.603   0.103   5.163  0.3549 -0.2027 -0.0394
 5904SOL    HW223382   3.651   0.039   5.215  0.1256 -0.2875  0.0677
 5904SOL    HW323383   3.583   0.174   5.224 -1.9929 -1.3620  0.6120
 5904SOL    MW423384   3.607   0.104   5.178  0.0149 -0.3668  0.0607
 5905SOL     OW23385   3.966   5.194   3.273 -0.1626  0.3202 -0.0472
 5905SOL    HW223386   3.976   5.289   3.267 -1.1981  0.4340 -0.1481
 5905SOL    HW323387   3.935   5.167   3.187 -1.7078  0.1507  0.5255
 5905SOL    MW423388   3.964   5.203   3.261 -0.5031  0.3129  0.0151
 5906SOL     OW23389   6.346   3.573   3.395  0.2970 -0.5172  0.6252
 5906SOL    HW223390   6.276   3.517   3.361  0.4072 -0.4986  0.3644
 5906SOL    HW323391   6.355   3.548   3.487 -0.8176  0.2615  0.9640
 5906SOL    MW423392   6.338   3.563   3.403  0.1645 -0.4120  0.6354
 5907SOL     OW23393   0.095   5.205   4.669 -0.3828 -0.0526  0.4232
 5907SOL    HW223394   0.104   5.301   4.665  0.5342 -0.1522 -0.0324
 5907SOL    HW323395   0.045   5.182   4.591  0.2029 -0.0273  0.0326
 5907SOL    MW423396   0.090   5.215   4.658 -0.1845 -0.0624  0.3115
 5908SOL     OW23397   5.152   1.805   3.155 -0.1945 -0.0812 -0.4111
 5908SOL    HW223398   5.067   1.759   3.158 -1.2444  1.7040 -1.1887
 5908SOL    HW323399   5.200   1.760   3.086 -0.9835 -0.3765 -0.7881
 5908SOL    MW423400   5.147   1.793   3.146 -0.4372  0.1154 -0.5635
 5909SOL     OW23401   3.512   3.533   6.419 -0.2418  0.2817 -0.1103
 5909SOL    HW223402   3.540   3.466   6.356 -0.5396  0.2247 -0.1807
 5909SOL    HW323403   3.569   3.519   6.495 -1.9422 -1.7221  0.9180
 5909SOL    MW423404   3.523   3.522   6.421 -0.5055  0.0098  0.0161
 5910SOL     OW23405   5.348   1.821   2.033 -0.8647  0.4455 -0.1687
 5910SOL    HW223406   5.407   1.756   2.070 -0.0458  0.5965 -1.1439
 5910SOL    HW323407   5.264   1.804   2.075 -0.6121 -1.0869 -0.2168
 5910SOL    MW423408   5.345   1.810   2.043 -0.7233  0.2632 -0.3037
 5911SOL     OW23409   4.846   3.977   4.604 -0.5857 -0.0830 -0.1597
 5911SOL    HW223410   4.872   3.925   4.680 -0.7157 -1.6751 -1.1333
 5911SOL    HW323411   4.753   3.956   4.592 -0.4051 -0.3982 -1.1248
 5911SOL    MW423412   4.837   3.967   4.612 -0.5790 -0.3346 -0.4155
 5912SOL     OW23413   5.507   1.017   5.963  0.2715  0.7786 -0.0655
 5912SOL    HW223414   5.596   1.031   5.993  0.0127  0.6251  0.8157
 5912SOL    HW323415   5.455   1.082   6.011  0.0582  1.6577 -1.4415
 5912SOL    MW423416   5.512   1.027   5.973  0.2092  0.8744 -0.1308
 5913SOL     OW23417   4.335   5.097   1.814  0.5152 -0.1831  0.0547
 5913SOL    HW223418   4.301   5.027   1.870 -0.6307 -0.9345 -1.4865
 5913SOL    HW323419   4.389   5.151   1.872  0.1567 -1.4529  1.6344
 5913SOL    MW423420   4.337   5.095   1.829  0.3167 -0.4498  0.0598
 5914SOL     OW23421   0.281   4.493   0.654 -0.3125 -0.0243 -0.0242
 5914SOL    HW223422   0.295   4.419   0.594 -3.0477 -1.0239  0.4271
 5914SOL    HW323423   0.235   4.558   0.602  1.0666  0.9124 -0.1026
 5914SOL    MW423424   0.277   4.492   0.639 -0.4914 -0.0326  0.0250
 5915SOL     OW23425   3.353   5.517   4.972  0.3687 -0.5029  0.0225
 5915SOL    HW223426   3.386   5.568   5.046  0.1651 -1.0433  0.4917
 5915SOL    HW323427   3.287   5.459   5.009  0.3959 -0.9162 -0.5484
 5915SOL    MW423428   3.349   5.516   4.986  0.3454 -0.6287  0.0091
 5916SOL     OW23429   1.032   5.919   6.030 -0.2437  0.0498  0.4262
 5916SOL    HW223430   1.102   5.969   5.989 -0.0078 -1.4120 -1.0610
 5916SOL    HW323431   1.059   5.911   6.121  3.0899 -2.8543 -0.5960
 5916SOL    MW423432   1.045   5.925   6.036  0.2272 -0.5262  0.0951
 5917SOL     OW23433   2.524   6.106   6.343  0.0762 -0.2024 -0.3841
 5917SOL    HW223434   2.554   6.034   6.398 -0.2903 -0.1471 -0.1116
 5917SOL    HW323435   2.488   6.064   6.265 -0.3286 -0.3207 -0.1316
 5917SOL    MW423436   2.523   6.091   6.340 -0.0256 -0.2107 -0.3148
 5918SOL     OW23437   2.723   1.474   3.468 -0.3785 -0.3440  0.8551
 5918SOL    HW223438   2.759   1.388   3.449  0.4318 -0.4547  2.7024
 5918SOL    HW323439   2.633   1.457   3.495  0.1135 -0.7791  2.3250
 5918SOL    MW423440   2.716   1.461   3.469 -0.2067 -0.4160  1.2928
 5919SOL     OW23441   3.124   6.053   4.040  0.2065 -0.3870 -0.3650
 5919SOL    HW223442   3.068   6.116   4.086 -1.6519 -1.2237 -1.3884
 5919SOL    HW323443   3.201   6.044   4.097 -0.2311  1.5053  0.6292
 5919SOL    MW423444   3.127   6.060   4.053 -0.0965 -0.2477 -0.3689
 5920SOL     OW23445   6.099   5.046   5.068  0.1092 -0.3650  0.1180
 5920SOL    HW223446   6.164   4.996   5.119 -1.0921 -1.7154  0.4135
 5920SOL    HW323447   6.148   5.082   4.995  1.7130  0.8526  1.7120
 5920SOL    MW423448   6.114   5.044   5.065  0.1623 -0.3825  0.3673
 5921SOL     OW23449   0.161   1.863   2.201 -0.3275 -0.7995 -0.2847
 5921SOL    HW223450   0.112   1.829   2.126 -1.0118  2.5938 -1.5255
 5921SOL    HW323451   0.129   1.812   2.276 -5.1733  0.5265 -1.1248
 5921SOL    MW423452   0.151   1.852   2.201 -1.0571 -0.1768 -0.5592
 5922SOL     OW23453   4.606   1.974   1.315  0.0973  0.0199 -0.6233
 5922SOL    HW223454   4.518   2.002   1.339  0.4521 -0.0039  0.7675
 5922SOL    HW323455   4.655   1.975   1.397  2.1825  2.8405 -1.7275
 5922SOL    MW423456   4.601   1.978   1.329  0.4192  0.3889 -0.5855
 5923SOL     OW23457   6.078   4.526   1.994 -0.7762  0.7136  0.6123
 5923SOL    HW223458   6.161   4.520   2.042  0.0763  2.4452 -0.5441
 5923SOL    HW323459   6.036   4.605   2.028 -0.4416  1.6275 -0.9932
 5923SOL    MW423460   6.083   4.536   2.005 -0.6195  1.0627  0.2479
 5924SOL     OW23461   0.672   5.093   4.019  0.0486  0.5706 -0.4783
 5924SOL    HW223462   0.658   4.999   4.012 -1.0126  0.7950 -1.8863
 5924SOL    HW323463   0.640   5.116   4.106 -0.8024 -0.2068 -0.5700
 5924SOL    MW423464   0.666   5.084   4.029 -0.2037  0.4976 -0.6762
 5925SOL     OW23465   4.268   6.148   3.058 -0.3347  0.8796 -0.5015
 5925SOL    HW223466   4.317   6.114   2.983  1.3324 -2.3977  1.8150
 5925SOL    HW323467   4.304   6.235   3.074  0.2118  1.0836 -2.6232
 5925SOL    MW423468   4.279   6.155   3.050 -0.0426  0.4741 -0.4758
 5926SOL     OW23469   5.959   0.508   1.554 -0.4264  0.0668  0.1792
 5926SOL    HW223470   6.017   0.440   1.521 -0.9814 -0.2438 -0.1757
 5926SOL    HW323471   5.959   0.575   1.486  0.9706  0.9580  0.9963
 5926SOL    MW423472   5.967   0.508   1.541 -0.3153  0.1434  0.2401
 5927SOL     OW23473   0.564   5.423   3.207  0.5693 -0.2617  0.4092
 5927SOL    HW223474   0.496   5.407   3.273  2.2915  0.1938  2.4012
 5927SOL    HW323475   0.646   5.396   3.250  1.8350  0.6684 -1.3039
 5927SOL    MW423476   0.566   5.417   3.222  0.9635 -0.0789  0.4460
 5928SOL     OW23477   0.947   2.698   4.940 -0.5255  0.3958  0.1454
 5928SOL    HW223478   1.029   2.663   4.904 -0.6557 -0.5301  0.7200
 5928SOL    HW323479   0.896   2.724   4.863  1.2027  3.1898 -0.2084
 5928SOL    MW423480   0.951   2.697   4.925 -0.3147  0.6423  0.1745
 5929SOL     OW23481   3.859   5.718   0.978  0.1378  0.5506 -0.8267
 5929SOL    HW223482   3.770   5.687   0.997  0.3168 -3.0299 -4.3895
 5929SOL    HW323483   3.847   5.795   0.923 -0.6700  0.8375 -0.2723
 5929SOL    MW423484   3.846   5.724   0.974  0.0549  0.1161 -1.2236
 5930SOL     OW23485   4.527   2.297   2.322  0.0135  0.1594  0.1180
 5930SOL    HW223486   4.481   2.213   2.311  2.5735 -1.4792  1.0899
 5930SOL    HW323487   4.475   2.359   2.271 -1.3933 -2.2111 -1.5503
 5930SOL    MW423488   4.514   2.294   2.314  0.1657 -0.3696  0.0261
 5931SOL     OW23489   5.597   0.161   3.137  0.2564  0.2713  0.1385
 5931SOL    HW223490   5.557   0.242   3.170  0.8694  1.1155 -1.1352
 5931SOL    HW323491   5.691   0.177   3.143  0.3905  0.2907 -1.5762
 5931SOL    MW423492   5.604   0.174   3.142  0.3550  0.3852 -0.2557
 5932SOL     OW23493   4.964   3.578   4.438  0.6008  0.4046 -0.4193
 5932SOL    HW223494   4.991   3.523   4.364 -0.9054  0.3816 -0.9921
 5932SOL    HW323495   4.868   3.585   4.429  0.7938  4.5983 -1.5064
 5932SOL    MW423496   4.955   3.572   4.427  0.4275  0.9549 -0.6383
 5933SOL     OW23497   1.825   2.458   3.769  0.0057  0.0792 -0.5933
 5933SOL    HW223498   1.858   2.451   3.858  1.3283  2.1302 -0.8404
 5933SOL    HW323499   1.766   2.534   3.771 -0.4746 -0.2606 -1.3214
 5933SOL    MW423500   1.821   2.467   3.781  0.1168  0.3050 -0.7219
 5934SOL     OW23501   2.061   6.137   3.053  0.1518 -0.4843 -0.0069
 5934SOL    HW223502   2.127   6.205   3.071  0.4786 -1.4025  2.7560
 5934SOL    HW323503   1.979   6.185   3.046  0.5217  0.3287  0.9343
 5934SOL    MW423504   2.059   6.152   3.055  0.2437 -0.4982  0.4818
 5935SOL     OW23505   3.378   0.248   5.596 -0.2065 -0.6332  0.5564
 5935SOL    HW223506   3.419   0.272   5.513  1.4478 -2.2351  0.8299
 5935SOL    HW323507   3.405   0.157   5.610 -1.8760 -0.9470  2.0155
 5935SOL    MW423508   3.387   0.239   5.587 -0.2085 -0.8860  0.7850
 5936SOL     OW23509   5.867   2.639   2.454  0.3471  0.6485 -0.0321
 5936SOL    HW223510   5.957   2.607   2.455  0.4537  0.9404  0.7778
 5936SOL    HW323511   5.815   2.563   2.428  0.8265  0.4882 -0.5379
 5936SOL    MW423512   5.872   2.625   2.451  0.4244  0.6659  0.0081
 5937SOL     OW23513   3.370   5.222   5.950 -0.3861 -0.6554 -0.0925
 5937SOL    HW223514   3.306   5.187   6.012 -0.0296  1.2976  1.5094
 5937SOL    HW323515   3.444   5.161   5.955 -1.3660 -1.9119 -0.5531
 5937SOL    MW423516   3.371   5.210   5.959 -0.4684 -0.5635  0.0581
 5938SOL     OW23517   3.258   0.093   2.247 -0.3254  0.2106  0.1232
 5938SOL    HW223518   3.352   0.080   2.262  0.5121  2.0086 -2.8766
 5938SOL    HW323519   3.243   0.185   2.269 -1.0194  0.3841 -1.0375
 5938SOL    MW423520   3.268   0.104   2.252 -0.3065  0.4707 -0.4257
 5939SOL     OW23521   3.314   3.807   4.892 -0.0435 -0.3840 -0.7355
 5939SOL    HW223522   3.351   3.836   4.809 -1.5858 -0.1559 -1.3793
 5939SOL    HW323523   3.289   3.716   4.876  1.6267 -1.0636  0.2002
 5939SOL    MW423524   3.316   3.799   4.879 -0.0267 -0.4436 -0.6970
 5940SOL     OW23525   2.142   2.925   3.842 -0.2833 -0.4137  0.0276
 5940SOL    HW223526   2.052   2.959   3.847  0.0871  0.5087  0.6303
 5940SOL    HW323527   2.197   3.003   3.837  0.6406 -0.8620  2.1039
 5940SOL    MW423528   2.137   2.939   3.842 -0.1125 -0.3511  0.3811
 5941SOL     OW23529   6.043   4.386   5.729 -0.1496  0.5916 -0.4218
 5941SOL    HW223530   5.952   4.410   5.711 -0.4474 -0.5080 -0.4633
 5941SOL    HW323531   6.055   4.301   5.687  0.4185 -0.0240  0.8940
 5941SOL    MW423532   6.033   4.378   5.721 -0.1140  0.3653 -0.2537
 5942SOL     OW23533   1.610   4.730   2.890 -0.0180  0.3528  0.2442
 5942SOL    HW223534   1.530   4.679   2.874 -1.0457  2.0286 -0.2296
 5942SOL    HW323535   1.595   4.813   2.845  1.3792  1.2737  1.3776
 5942SOL    MW423536   1.597   4.734   2.882  0.0308  0.6954  0.3312
 5943SOL     OW23537   3.905   1.017   1.918 -0.0321  0.4061 -0.3285
 5943SOL    HW223538   3.865   1.074   1.983 -1.0429  1.5104 -1.8570
 5943SOL    HW323539   3.865   1.043   1.835 -1.0994 -2.9883 -1.0548
 5943SOL    MW423540   3.894   1.028   1.916 -0.3063  0.1040 -0.6260
 5944SOL     OW23541   1.110   1.667   6.267 -0.0515 -0.4090  0.1808
 5944SOL    HW223542   1.137   1.629   6.183  1.6266  0.7597  0.1481
 5944SOL    HW323543   1.063   1.747   6.243 -0.9735 -0.8800  0.3434
 5944SOL    MW423544   1.107   1.672   6.253  0.0482 -0.3170  0.1979
 5945SOL     OW23545   2.926   1.331   5.576  0.0983 -0.3259  0.3918
 5945SOL    HW223546   2.907   1.422   5.599 -2.0192 -0.0970 -1.8052
 5945SOL    HW323547   2.999   1.336   5.516 -0.0061 -0.0656  0.2847
 5945SOL    MW423548   2.933   1.343   5.572 -0.1948 -0.2614  0.0878
 5946SOL     OW23549   2.825   5.717   1.472  0.7900  0.4579 -0.8694
 5946SOL    HW223550   2.857   5.807   1.461 -0.0675  0.5576 -3.3246
 5946SOL    HW323551   2.805   5.688   1.383 -2.1258 -0.9584  0.1118
 5946SOL    MW423552   2.826   5.725   1.459  0.2922  0.2842 -1.0639
 5947SOL     OW23553   6.258   2.825   5.821  0.2229  0.6297  0.2459
 5947SOL    HW223554   6.301   2.872   5.750 -0.2636 -1.7197 -1.7443
 5947SOL    HW323555   6.309   2.847   5.899  1.2600  2.6881 -0.9178
 5947SOL    MW423556   6.270   2.834   5.822  0.2956  0.5913 -0.1703
 5948SOL     OW23557   3.100   1.442   6.395  0.2036 -0.1099  0.1979
 5948SOL    HW223558   3.066   1.373   6.452 -1.4067 -0.4981 -1.1699
 5948SOL    HW323559   3.193   1.422   6.387  0.2354 -0.7181  1.7331
 5948SOL    MW423560   3.108   1.430   6.402 -0.0046 -0.2414  0.2200
 5949SOL     OW23561   2.337   5.173   4.601  0.0945  0.1675 -0.5781
 5949SOL    HW223562   2.314   5.266   4.608  0.2101  0.1445  0.3094
 5949SOL    HW323563   2.421   5.166   4.647 -0.6152 -0.6204  0.6517
 5949SOL    MW423564   2.345   5.184   4.608  0.0161  0.0605 -0.2988
 5950SOL     OW23565   2.417   2.973   0.664 -0.1567  0.7346  0.3075
 5950SOL    HW223566   2.378   3.042   0.610 -1.4518  0.1040  0.3876
 5950SOL    HW323567   2.488   3.016   0.711 -0.4753  1.8384 -0.1873
 5950SOL    MW423568   2.421   2.988   0.663 -0.3696  0.7970  0.2528
 5951SOL     OW23569   4.422   5.976   2.352  0.0863  0.1631 -1.1109
 5951SOL    HW223570   4.366   5.899   2.358  1.1071 -0.5253 -0.2044
 5951SOL    HW323571   4.504   5.944   2.316  0.0698  1.0918 -2.0318
 5951SOL    MW423572   4.425   5.962   2.348  0.2188  0.1948 -1.1128
 5952SOL     OW23573   5.945   0.886   2.471  0.4766 -0.0538  0.9950
 5952SOL    HW223574   5.999   0.847   2.402 -0.1981  2.4659 -1.1022
 5952SOL    HW323575   5.993   0.965   2.497  0.4857 -0.7116  3.1908
 5952SOL    MW423576   5.959   0.891   2.465  0.3888  0.1919  1.0080
 5953SOL     OW23577   5.644   6.029   0.737 -0.2775  0.3555  0.4632
 5953SOL    HW223578   5.561   5.981   0.727  0.2070 -0.6553  1.1368
 5953SOL    HW323579   5.637   6.072   0.822 -0.8859  1.8891 -0.3198
 5953SOL    MW423580   5.632   6.029   0.747 -0.2939  0.4244  0.4488
 5954SOL     OW23581   1.602   3.224   2.834  0.4956 -0.0034  0.1830
 5954SOL    HW223582   1.519   3.261   2.865  1.4782  0.7274  2.0971
 5954SOL    HW323583   1.583   3.131   2.819 -0.6894  0.1758  0.4699
 5954SOL    MW423584   1.588   3.217   2.836  0.4689  0.1167  0.4734
 5955SOL     OW23585   0.775   0.169   6.002  0.0902 -0.7370  0.3541
 5955SOL    HW223586   0.750   0.230   5.934  1.0931 -1.8579 -1.0702
 5955SOL    HW323587   0.720   0.193   6.077  0.0604  1.5008 -0.3227
 5955SOL    MW423588   0.764   0.180   6.003  0.2186 -0.5896  0.0769
 5956SOL     OW23589   5.410   5.370   1.233  0.3464  0.3071  0.4878
 5956SOL    HW223590   5.432   5.388   1.141 -1.1710  0.2316  0.0870
 5956SOL    HW323591   5.315   5.367   1.235  0.3676 -0.4055  1.9436
 5956SOL    MW423592   5.400   5.372   1.221  0.1490  0.2031  0.6270
 5957SOL     OW23593   5.257   0.165   5.911 -0.4311  0.0315  0.2562
 5957SOL    HW223594   5.247   0.164   5.816 -2.0390 -1.3155  0.3794
 5957SOL    HW323595   5.331   0.107   5.928  0.3855  0.9202 -0.1954
 5957SOL    MW423596   5.265   0.157   5.901 -0.5355 -0.0290  0.2128
 5958SOL     OW23597   4.634   4.070   5.080  0.4560 -0.4613  0.0695
 5958SOL    HW223598   4.564   4.084   5.016  0.9948  0.4237 -0.3342
 5958SOL    HW323599   4.588   4.044   5.160 -0.5199  2.1368  0.4422
 5958SOL    MW423600   4.619   4.068   5.082  0.3984 -0.0017  0.0654
 5959SOL     OW23601   3.454   0.073   0.935 -0.2537  0.2654 -0.4129
 5959SOL    HW223602   3.435   0.158   0.896 -0.7295  0.0132 -0.7314
 5959SOL    HW323603   3.524   0.036   0.881  0.1566  0.5705 -0.1023
 5959SOL    MW423604   3.461   0.079   0.923 -0.2624  0.2724 -0.4140
 5960SOL     OW23605   5.816   0.564   1.138  0.3620 -0.0910 -0.3679
 5960SOL    HW223606   5.907   0.570   1.108  0.5541 -1.4604 -0.1320
 5960SOL    HW323607   5.773   0.508   1.073  0.1627 -0.9925  0.5210
 5960SOL    MW423608   5.822   0.558   1.125  0.3610 -0.3906 -0.2195
 5961SOL     OW23609   3.832   6.387   1.948  0.3064  0.1650 -0.0329
 5961SOL    HW223610   3.844   6.388   1.853  0.0167  0.2664 -0.0692
 5961SOL    HW323611   3.872   6.468   1.978  1.4893 -0.4405  0.0686
 5961SOL    MW423612   3.839   6.398   1.939  0.4243  0.0985 -0.0243
 5962SOL     OW23613   2.408   0.760   3.154 -0.2676  0.5302 -0.2295
 5962SOL    HW223614   2.322   0.793   3.182 -0.8850 -0.8846 -0.3783
 5962SOL    HW323615   2.470   0.802   3.214 -1.2496  0.0575  1.1775
 5962SOL    MW423616   2.404   0.770   3.165 -0.4786  0.2811 -0.0635
 5963SOL     OW23617   2.174   4.436   3.996  0.0697 -0.4481 -0.7528
 5963SOL    HW223618   2.247   4.378   3.976 -1.0243 -2.1045 -0.2402
 5963SOL    HW323619   2.197   4.475   4.081  1.0410  0.2624 -1.3362
 5963SOL    MW423620   2.187   4.433   4.005  0.0535 -0.5729 -0.7621
 5964SOL     OW23621   3.718   4.138   5.704 -0.3294 -0.3390 -0.1228
 5964SOL    HW223622   3.703   4.152   5.798  0.2860 -0.7668  0.0420
 5964SOL    HW323623   3.691   4.048   5.689  1.0661 -0.7998 -0.0237
 5964SOL    MW423624   3.712   4.128   5.715 -0.0641 -0.4563 -0.0880
 5965SOL     OW23625   2.671   2.210   4.261  0.7006  0.0323  1.3163
 5965SOL    HW223626   2.604   2.148   4.233  1.3822  0.3875 -1.4526
 5965SOL    HW323627   2.626   2.269   4.322 -0.7660 -1.2909  1.5661
 5965SOL    MW423628   2.656   2.210   4.265  0.5970 -0.0954  0.9840
 5966SOL     OW23629   2.899   4.634   2.339 -0.2851 -0.0689  0.6869
 5966SOL    HW223630   2.993   4.620   2.326 -0.4632 -0.3610 -0.4419
 5966SOL    HW323631   2.891   4.660   2.430  1.0475  1.2603  0.4647
 5966SOL    MW423632   2.911   4.635   2.349 -0.1327  0.0679  0.5087
 5967SOL     OW23633   3.750   4.818   2.749 -0.1466  0.0537  0.2536
 5967SOL    HW223634   3.821   4.849   2.805 -0.9945  0.6639  1.0089
 5967SOL    HW323635   3.698   4.896   2.730 -0.0908 -0.2029 -1.1024
 5967SOL    MW423636   3.753   4.832   2.754 -0.2511  0.1004  0.1743
 5968SOL     OW23637   1.870   0.737   4.015  0.7993  0.3903  0.4264
 5968SOL    HW223638   1.901   0.658   3.972  1.2007  1.8543 -2.1664
 5968SOL    HW323639   1.945   0.767   4.066  1.0822 -0.1989  0.3696
 5968SOL    MW423640   1.884   0.731   4.016  0.8896  0.5057  0.0768
 5969SOL     OW23641   1.248   4.668   5.702  0.3126 -0.1050  0.2752
 5969SOL    HW223642   1.197   4.588   5.709 -0.5161  0.4505  0.7803
 5969SOL    HW323643   1.266   4.677   5.608 -1.2110  0.0924 -0.0253
 5969SOL    MW423644   1.244   4.659   5.690  0.0023 -0.0057  0.3022
 5970SOL     OW23645   3.235   5.302   4.125 -0.1364 -0.0688  0.1895
 5970SOL    HW223646   3.158   5.316   4.070 -0.1945  0.7690  0.4615
 5970SOL    HW323647   3.237   5.208   4.140 -0.5251 -0.2270 -0.6541
 5970SOL    MW423648   3.225   5.291   4.119 -0.1953  0.0209  0.1141
 5971SOL     OW23649   2.470   2.238   4.692  0.2095  0.2401  0.0260
 5971SOL    HW223650   2.468   2.292   4.613 -1.3061 -1.2127 -0.9942
 5971SOL    HW323651   2.468   2.302   4.764  1.4211  1.5820 -1.0628
 5971SOL    MW423652   2.469   2.254   4.691  0.1694  0.2255 -0.2523
 5972SOL     OW23653   2.051   1.665   2.829 -0.1593  0.5655 -0.2102
 5972SOL    HW223654   2.029   1.678   2.737  1.8374  3.1410 -0.4134
 5972SOL    HW323655   2.039   1.751   2.869  1.0666  0.0094  1.4577
 5972SOL    MW423656   2.046   1.678   2.822  0.2659  0.8319 -0.0170
 5973SOL     OW23657   2.958   2.823   1.812  0.7760  0.0950 -0.3741
 5973SOL    HW223658   2.967   2.917   1.802  3.9877 -0.1759 -0.9817
 5973SOL    HW323659   2.892   2.798   1.748  0.7043  1.7785 -1.0051
 5973SOL    MW423660   2.950   2.832   1.802  1.1903  0.2814 -0.5375
 5974SOL     OW23661   5.784   3.548   0.632  0.0756  0.2241 -0.3960
 5974SOL    HW223662   5.799   3.640   0.609  1.4629  0.4887  1.4095
 5974SOL    HW323663   5.858   3.502   0.593  0.1810  0.0788 -0.0206
 5974SOL    MW423664   5.795   3.554   0.624  0.2725  0.2399 -0.1082
 5975SOL     OW23665   3.109   6.291   1.068  0.1145  0.2883  0.2966
 5975SOL    HW223666   3.097   6.240   1.148  0.9756 -1.6305 -0.7227
 5975SOL    HW323667   3.021   6.316   1.041 -0.3080 -0.4067  0.9946
 5975SOL    MW423668   3.096   6.288   1.075  0.1723 -0.0566  0.2542
 5976SOL     OW23669   5.329   1.007   0.700  0.3443 -0.2346  0.2803
 5976SOL    HW223670   5.299   1.034   0.787  0.3048 -0.7486  0.4287
 5976SOL    HW323671   5.366   0.920   0.713 -0.1813 -0.5544 -0.3236
 5976SOL    MW423672   5.330   0.999   0.713  0.2698 -0.3446  0.2202
 5977SOL     OW23673   5.673   3.869   0.594  0.0749  0.3275  0.3074
 5977SOL    HW223674   5.685   3.864   0.689 -0.7311  1.5519  0.4890
 5977SOL    HW323675   5.755   3.905   0.561  1.1919 -2.0718  0.2718
 5977SOL    MW423676   5.685   3.873   0.602  0.1159  0.1725  0.3267
 5978SOL     OW23677   2.675   4.742   6.274  0.0995  0.1227 -0.4674
 5978SOL    HW223678   2.647   4.653   6.254 -2.1175  0.3073  1.4367
 5978SOL    HW323679   2.595   4.794   6.271  1.0584  1.7120  0.1853
 5978SOL    MW423680   2.661   4.737   6.271 -0.0665  0.3567 -0.1301
 5979SOL     OW23681   2.918   3.544   5.631 -0.1157 -0.0476  0.4888
 5979SOL    HW223682   2.925   3.630   5.672 -0.6368  0.1187  0.2438
 5979SOL    HW323683   2.906   3.563   5.538  1.9493 -0.4399  0.1096
 5979SOL    MW423684   2.917   3.558   5.624  0.0880 -0.0775  0.4065
 5980SOL     OW23685   2.612   4.446   0.476 -0.1439  0.2391 -0.3196
 5980SOL    HW223686   2.523   4.434   0.443  0.0753 -1.0828 -0.4829
 5980SOL    HW323687   2.617   4.391   0.554  0.2215  1.1090  0.2810
 5980SOL    MW423688   2.601   4.437   0.482 -0.0668  0.1795 -0.2619
 5981SOL     OW23689   1.875   2.852   2.640  0.1199  0.0077  0.7468
 5981SOL    HW223690   1.844   2.820   2.555  0.2669 -1.6606  1.2717
 5981SOL    HW323691   1.897   2.944   2.625 -2.0568  0.4179 -0.4344
 5981SOL    MW423692   1.874   2.860   2.627 -0.1479 -0.1583  0.6602
 5982SOL     OW23693   0.012   5.495   0.385 -0.0920  0.2757 -0.2242
 5982SOL    HW223694   0.082   5.558   0.367  0.6363  0.0381  1.5567
 5982SOL    HW323695  -0.037   5.490   0.303  0.5702  2.2112 -0.7996
 5982SOL    MW423696   0.015   5.503   0.371  0.0915  0.4997 -0.0652
 5983SOL     OW23697   6.101   3.872   5.152  0.3901 -0.5206 -0.0249
 5983SOL    HW223698   6.088   3.940   5.086 -3.0872 -1.2383 -0.2620
 5983SOL    HW323699   6.137   3.798   5.103  2.4830  0.4410 -0.0833
 5983SOL    MW423700   6.104   3.871   5.137  0.2075 -0.4884 -0.0639
 5984SOL     OW23701   4.499   1.424   5.494 -0.1958 -0.4903 -0.0121
 5984SOL    HW223702   4.512   1.494   5.430  0.4116 -1.3356 -0.8498
 5984SOL    HW323703   4.414   1.442   5.532  1.1227  2.3752  1.9280
 5984SOL    MW423704   4.490   1.436   5.490  0.0583 -0.2237  0.1334
 5985SOL     OW23705   5.123   1.929   5.949  0.4087 -0.0331 -0.5118
 5985SOL    HW223706   5.075   2.010   5.969  0.5893 -0.0015 -0.2005
 5985SOL    HW323707   5.131   1.885   6.034  1.0345  0.0169 -0.5452
 5985SOL    MW423708   5.117   1.934   5.963  0.5151 -0.0223 -0.4752
 5986SOL     OW23709   0.997   5.939   4.260  0.1557 -0.5561 -0.2727
 5986SOL    HW223710   1.075   5.888   4.280  0.2370 -0.6401 -0.8088
 5986SOL    HW323711   0.977   5.985   4.342  1.6928  0.6992 -0.5579
 5986SOL    MW423712   1.004   5.938   4.274  0.3693 -0.4016 -0.3810
 5987SOL     OW23713   1.701   3.203   1.916 -0.1790 -1.0123 -0.6276
 5987SOL    HW223714   1.664   3.163   1.837 -0.8076  1.0896 -1.4744
 5987SOL    HW323715   1.625   3.228   1.968  0.2133 -1.2450  0.0767
 5987SOL    MW423716   1.686   3.201   1.912 -0.2102 -0.7656 -0.6464
 5988SOL     OW23717   3.433   1.769   1.150 -0.5790 -0.5974 -0.7978
 5988SOL    HW223718   3.502   1.774   1.084 -1.4763  0.8899 -1.6778
 5988SOL    HW323719   3.356   1.809   1.108 -0.6140  2.5007  1.8012
 5988SOL    MW423720   3.432   1.775   1.136 -0.7020  0.0076 -0.5710
 5989SOL     OW23721   3.459   4.540   1.385  0.6119 -0.2767 -0.5260
 5989SOL    HW223722   3.433   4.589   1.463 -0.4818 -1.1011 -0.3402
 5989SOL    HW323723   3.538   4.584   1.353  0.9209  0.2363  0.8901
 5989SOL    MW423724   3.466   4.552   1.391  0.5084 -0.3178 -0.3146
 5990SOL     OW23725   5.426   5.078   5.260 -0.0292 -0.2261 -0.2338
 5990SOL    HW223726   5.352   5.029   5.296  0.0459 -1.0407 -1.1607
 5990SOL    HW323727   5.429   5.158   5.312 -0.1174 -1.2232  1.3676
 5990SOL    MW423728   5.417   5.082   5.272 -0.0309 -0.4651 -0.1448
 5991SOL     OW23729   4.650   4.345   4.407 -0.4356 -0.4227 -0.0638
 5991SOL    HW223730   4.744   4.336   4.391 -0.2575 -0.2636  0.8690
 5991SOL    HW323731   4.614   4.261   4.377  0.0479 -0.6222 -0.1103
 5991SOL    MW423732   4.658   4.333   4.401 -0.3483 -0.4280  0.0531
 5992SOL     OW23733   5.647   3.832   1.157  0.4759  0.2149  0.2870
 5992SOL    HW223734   5.606   3.772   1.094 -0.3291  0.4729  0.5514
 5992SOL    HW323735   5.658   3.913   1.108  0.9041  0.0753  0.1449
 5992SOL    MW423736   5.643   3.834   1.142  0.4262  0.2305  0.3031
 5993SOL     OW23737   1.185   3.662   3.043 -0.0155  0.4010  0.1349
 5993SOL    HW223738   1.208   3.646   2.952 -0.2357  3.0496 -0.4808
 5993SOL    HW323739   1.259   3.628   3.093  0.7928  0.2327 -1.1407
 5993SOL    MW423740   1.198   3.656   3.038  0.0621  0.7282 -0.1146
 5994SOL     OW23741   5.748   0.531   5.172 -0.2767  0.0798 -0.5876
 5994SOL    HW223742   5.696   0.482   5.108  2.0331 -2.0727 -0.9759
 5994SOL    HW323743   5.762   0.469   5.243  0.4005  1.1549  0.2442
 5994SOL    MW423744   5.743   0.516   5.173  0.1174 -0.0623 -0.5291
 5995SOL     OW23745   2.209   2.658   2.136  0.2680 -0.3396  0.3994
 5995SOL    HW223746   2.234   2.621   2.221 -1.0162 -2.6114 -0.1149
 5995SOL    HW323747   2.291   2.661   2.087  1.0432  1.0965  1.7174
 5995SOL    MW423748   2.223   2.653   2.141  0.2009 -0.4499  0.5054
 5996SOL     OW23749   4.004   1.504   5.493 -0.0388  0.2545 -0.1120
 5996SOL    HW223750   3.992   1.586   5.541  0.7133  0.4148 -0.1839
 5996SOL    HW323751   3.924   1.495   5.441 -1.7521 -0.8713  2.5115
 5996SOL    MW423752   3.992   1.514   5.492 -0.1656  0.1271  0.2247
 5997SOL     OW23753   5.232   2.734   5.618  0.0926 -0.8662  0.4965
 5997SOL    HW223754   5.179   2.664   5.579  0.8219 -1.2468  0.1667
 5997SOL    HW323755   5.318   2.694   5.631  1.1854  0.5766 -1.7131
 5997SOL    MW423756   5.236   2.719   5.614  0.3330 -0.7261  0.1615
 5998SOL     OW23757   5.685   4.263   3.343  0.0580  0.4483 -0.3201
 5998SOL    HW223758   5.760   4.310   3.381 -0.2007 -0.6765  1.7111
 5998SOL    HW323759   5.721   4.179   3.315 -0.5032 -0.2954  1.1153
 5998SOL    MW423760   5.700   4.258   3.344 -0.0501  0.2017  0.1373
 5999SOL     OW23761   1.424   5.001   4.759 -0.6256  0.2971 -0.2063
 5999SOL    HW223762   1.401   4.965   4.845  0.8203  2.9173  1.4433
 5999SOL    HW323763   1.519   5.011   4.763 -0.6977  1.8531 -1.5083
 5999SOL    MW423764   1.434   4.998   4.771 -0.4444  0.8481 -0.1604
 6000SOL     OW23765   2.817   6.224   2.715 -0.2900  0.4440 -0.0912
 6000SOL    HW223766   2.759   6.175   2.656  1.2972 -1.8073  0.0750
 6000SOL    HW323767   2.766   6.237   2.794 -0.6377 -1.4669  0.0402
 6000SOL    MW423768   2.803   6.219   2.718 -0.1265 -0.1052 -0.0519
 6001SOL     OW23769   3.062   6.388   0.356  0.0314 -0.2268  0.0655
 6001SOL    HW223770   3.091   6.420   0.271  0.1975 -0.2749  0.1048
 6001SOL    HW323771   3.130   6.418   0.417 -1.1450  1.7113  0.5253
 6001SOL    MW423772   3.075   6.396   0.353 -0.1019  0.0226  0.1314
 6002SOL     OW23773   5.506   2.544   4.356 -0.6114 -0.1485  0.2079
 6002SOL    HW223774   5.490   2.613   4.420 -0.9139 -1.1007  1.1955
 6002SOL    HW323775   5.424   2.496   4.351 -0.7024  0.1108 -1.1795
 6002SOL    MW423776   5.493   2.547   4.364 -0.6633 -0.2399  0.1551
 6003SOL     OW23777   4.013   3.313   3.330 -0.0367  0.1426 -0.1671
 6003SOL    HW223778   4.061   3.347   3.405 -0.4052 -1.2304  0.7438
 6003SOL    HW323779   4.037   3.220   3.326  0.5388  0.3238 -2.2147
 6003SOL    MW423780   4.022   3.305   3.339 -0.0094 -0.0147 -0.3170
 6004SOL     OW23781   3.859   0.763   0.327 -0.7475 -0.0969 -0.2436
 6004SOL    HW223782   3.938   0.737   0.374 -0.9535 -0.2731  0.0118
 6004SOL    HW323783   3.890   0.797   0.244 -0.4913 -1.5190 -0.7558
 6004SOL    MW423784   3.873   0.764   0.322 -0.7409 -0.3078 -0.2775
 6005SOL     OW23785   0.148   3.374   4.137  1.0577 -0.3894 -0.1726
 6005SOL    HW223786   0.085   3.399   4.068 -0.0303 -1.3997  0.4139
 6005SOL    HW323787   0.208   3.448   4.143 -0.5310  0.9597 -0.2377
 6005SOL    MW423788   0.147   3.387   4.128  0.7046 -0.3447 -0.1038
 6006SOL     OW23789   3.230   0.196   0.757  0.1704 -0.0957 -0.1813
 6006SOL    HW223790   3.183   0.119   0.790  1.2778  0.5111  3.1315
 6006SOL    HW323791   3.298   0.159   0.701 -0.6323 -1.3485 -0.3885
 6006SOL    MW423792   3.233   0.181   0.754  0.2106 -0.1809  0.2284
 6007SOL     OW23793   2.217   1.273   4.664  0.2485 -0.2287 -0.1050
 6007SOL    HW223794   2.252   1.235   4.745 -0.9442 -1.1109  0.0378
 6007SOL    HW323795   2.288   1.328   4.630  1.1293 -0.6272  1.0148
 6007SOL    MW423796   2.231   1.275   4.670  0.2073 -0.3977  0.0616
 6008SOL     OW23797   2.069   6.108   4.104 -0.0321  0.4161 -0.2111
 6008SOL    HW223798   2.032   6.191   4.132 -0.8324 -0.0596  0.1657
 6008SOL    HW323799   2.039   6.045   4.169  0.1695 -0.2542 -0.7510
 6008SOL    MW423800   2.060   6.111   4.116 -0.1111  0.2649 -0.2326
 6009SOL     OW23801   0.662   4.125   0.120 -0.2580  0.0402 -0.1880
 6009SOL    HW223802   0.737   4.176   0.089  0.6397 -0.6198  0.7858
 6009SOL    HW323803   0.698   4.073   0.192 -1.0772 -2.0435 -1.1864
 6009SOL    MW423804   0.677   4.125   0.125 -0.2476 -0.3218 -0.1913
 6010SOL     OW23805   3.203   3.515   4.901  0.3287 -0.5024 -0.0864
 6010SOL    HW223806   3.148   3.523   4.823  1.1120  0.3012 -0.5744
 6010SOL    HW323807   3.272   3.454   4.875  1.0159  0.3476 -0.2826
 6010SOL    MW423808   3.205   3.508   4.887  0.5227 -0.2842 -0.1767
 6011SOL     OW23809   4.159   2.177   2.806 -0.1304  0.0545 -0.3465
 6011SOL    HW223810   4.099   2.247   2.779 -2.0345 -1.9350 -1.6064
 6011SOL    HW323811   4.143   2.106   2.744  2.2890 -1.2488  0.3975
 6011SOL    MW423812   4.149   2.177   2.794 -0.0624 -0.3799 -0.4146
 6012SOL     OW23813   0.985   0.879   5.431  0.5945  0.1289 -0.1514
 6012SOL    HW223814   0.949   0.810   5.375  0.6404 -0.5361  0.6303
 6012SOL    HW323815   1.074   0.849   5.451  0.4346  0.1582  0.6178
 6012SOL    MW423816   0.992   0.866   5.426  0.5794  0.0451  0.0533
 6013SOL     OW23817   4.219   5.968   0.502  0.4587 -0.2578  0.7552
 6013SOL    HW223818   4.175   5.971   0.587 -0.8475 -0.9100  0.1324
 6013SOL    HW323819   4.223   6.060   0.475 -0.6336 -0.1750  0.7963
 6013SOL    MW423820   4.213   5.981   0.510  0.1423 -0.3329  0.6784
 6014SOL     OW23821   3.883   4.680   5.381 -0.4353 -0.6747  0.8090
 6014SOL    HW223822   3.816   4.686   5.313 -1.1418  1.8984  1.6339
 6014SOL    HW323823   3.965   4.676   5.333 -1.0405 -1.5698 -0.1961
 6014SOL    MW423824   3.885   4.680   5.366 -0.6084 -0.4533  0.7852
 6015SOL     OW23825   5.267   3.992   0.503 -0.4702  0.3754 -0.1282
 6015SOL    HW223826   5.232   3.938   0.574 -0.3469  1.2062  0.5866
 6015SOL    HW323827   5.342   3.942   0.470  1.1960  1.1799  2.1898
 6015SOL    MW423828   5.272   3.978   0.508 -0.2341  0.5912  0.2719
 6016SOL     OW23829   6.029   1.893   1.091  0.0894 -0.1816 -0.1374
 6016SOL    HW223830   6.047   1.804   1.119  0.5861 -0.4121 -1.1372
 6016SOL    HW323831   6.115   1.932   1.076 -0.1051  0.6368  0.7698
 6016SOL    MW423832   6.042   1.886   1.092  0.1293 -0.1040 -0.1496
 6017SOL     OW23833   0.203   1.122   4.049  0.3854 -0.5192  0.4104
 6017SOL    HW223834   0.211   1.122   3.954 -0.7454 -1.4130  0.2902
 6017SOL    HW323835   0.186   1.214   4.071  0.2959 -0.3594 -0.2867
 6017SOL    MW423836   0.202   1.134   4.039  0.2244 -0.6160  0.3026
 6018SOL     OW23837   2.880   4.093   4.319 -0.6854 -0.3653  0.5067
 6018SOL    HW223838   2.854   4.173   4.272  1.2995 -0.3688 -0.7363
 6018SOL    HW323839   2.941   4.124   4.386 -1.9412 -0.5986  1.8038
 6018SOL    MW423840   2.885   4.108   4.321 -0.5892 -0.3965  0.5139
 6019SOL     OW23841   0.633   3.032   2.484 -0.1309 -0.1127  0.4436
 6019SOL    HW223842   0.694   3.076   2.424  0.8748 -1.5821  0.3482
 6019SOL    HW323843   0.549   3.075   2.467  0.8646  2.0469  0.6675
 6019SOL    MW423844   0.630   3.044   2.474  0.1331 -0.0217  0.4605
 6020SOL     OW23845   2.801   3.941   2.458  0.0485  0.2854  0.9475
 6020SOL    HW223846   2.808   3.868   2.520  3.8501 -0.8294 -0.5227
 6020SOL    HW323847   2.873   4.000   2.484  1.2789  0.1368 -1.8274
 6020SOL    MW423848   2.812   3.940   2.470  0.7124  0.1187  0.3874
 6021SOL     OW23849   0.470   5.340   3.939  0.1010 -0.2191  0.3697
 6021SOL    HW223850   0.531   5.407   3.971 -0.9592  0.5736  0.7885
 6021SOL    HW323851   0.393   5.389   3.911 -0.7723 -1.2772  0.8407
 6021SOL    MW423852   0.468   5.355   3.939 -0.1541 -0.2541  0.4871
 6022SOL     OW23853   2.501   0.401   4.511  0.3666 -0.0743 -0.3779
 6022SOL    HW223854   2.418   0.447   4.496  0.9868  1.2499  0.1800
 6022SOL    HW323855   2.532   0.378   4.423 -0.6220 -0.6865 -0.5890
 6022SOL    MW423856   2.494   0.404   4.497  0.3180  0.0196 -0.3321
 6023SOL     OW23857   2.391   5.600   2.774  0.3297  0.4134  0.0880
 6023SOL    HW223858   2.337   5.678   2.762 -0.0063  0.1178 -0.3575
 6023SOL    HW323859   2.473   5.621   2.730  0.1087  0.3840 -0.3503
 6023SOL    MW423860   2.394   5.613   2.766  0.2562  0.3705 -0.0286
 6024SOL     OW23861   2.690   1.703   3.910 -0.3969 -0.0737  0.0181
 6024SOL    HW223862   2.681   1.647   3.987  1.1651 -0.6410 -0.1686
 6024SOL    HW323863   2.703   1.642   3.837 -1.4414  0.4664 -0.6462
 6024SOL    MW423864   2.690   1.688   3.910 -0.3286 -0.0773 -0.0942
 6025SOL     OW23865   4.979   0.131   5.939 -0.6140  0.0002 -0.2838
 6025SOL    HW223866   4.971   0.039   5.914  2.0006  0.2368 -2.4985
 6025SOL    HW323867   5.073   0.150   5.930 -0.6406  2.2854  2.5856
 6025SOL    MW423868   4.991   0.122   5.935 -0.2726  0.3330 -0.1974
 6026SOL     OW23869   5.187   6.450   1.895  0.3032  0.3278 -0.2470
 6026SOL    HW223870   5.137   6.491   1.966 -0.7458 -0.5535 -0.4516
 6026SOL    HW323871   5.263   6.508   1.883  0.7816  0.2505  1.9156
 6026SOL    MW423872   5.191   6.463   1.903  0.2279  0.2014  0.0113
 6027SOL     OW23873   2.887   4.478   0.075 -0.3189 -0.3212 -0.2822
 6027SOL    HW223874   2.807   4.441   0.111  0.2121  0.1173  1.4607
 6027SOL    HW323875   2.956   4.451   0.136  0.9816 -1.1800 -2.0498
 6027SOL    MW423876   2.886   4.470   0.088 -0.0773 -0.3767 -0.2855
 6028SOL     OW23877   0.138   3.160   4.957 -0.5875  0.2439 -0.0399
 6028SOL    HW223878   0.161   3.080   4.910 -1.1272  0.0039  0.1055
 6028SOL    HW323879   0.213   3.175   5.015  0.3707  0.8769 -1.3840
 6028SOL    MW423880   0.151   3.151   4.958 -0.5323  0.2958 -0.1981
 6029SOL     OW23881   1.620   5.341   2.032 -0.4669  0.4978  0.3845
 6029SOL    HW223882   1.548   5.299   1.984  1.2055  0.6937 -2.4809
 6029SOL    HW323883   1.698   5.296   2.002  0.7253  0.0318  3.7042
 6029SOL    MW423884   1.621   5.329   2.022 -0.0890  0.4621  0.4444
 6030SOL     OW23885   1.396   2.020   2.048  0.1881 -0.1247  0.4419
 6030SOL    HW223886   1.312   2.039   2.089  0.0180 -0.9466  0.4875
 6030SOL    HW323887   1.432   1.949   2.100  0.6941 -0.1061  0.1201
 6030SOL    MW423888   1.390   2.013   2.060  0.2324 -0.2307  0.4054
 6031SOL     OW23889   2.718   1.992   3.913  0.2670  0.2932 -0.1693
 6031SOL    HW223890   2.654   2.011   3.844 -0.1178  0.7124  0.2959
 6031SOL    HW323891   2.718   1.897   3.921 -0.1618  0.2832 -0.2995
 6031SOL    MW423892   2.710   1.982   3.905  0.1596  0.3472 -0.1251
 6032SOL     OW23893   1.616   4.219   0.663 -0.0119 -0.5537 -0.3701
 6032SOL    HW223894   1.521   4.230   0.662 -0.2379 -1.9659  1.1127
 6032SOL    HW323895   1.648   4.285   0.601 -1.8483  0.8184  0.0366
 6032SOL    MW423896   1.607   4.229   0.655 -0.2840 -0.5590 -0.1208
 6033SOL     OW23897   6.186   3.289   3.859  0.0839  0.1235 -0.1138
 6033SOL    HW223898   6.158   3.314   3.770  0.7591 -1.9654 -0.9671
 6033SOL    HW323899   6.118   3.229   3.889  0.2467  0.2407  0.5028
 6033SOL    MW423900   6.173   3.285   3.851  0.1944 -0.1367 -0.1450
 6034SOL     OW23901   1.453   4.640   5.894 -0.5735 -0.2008 -0.0407
 6034SOL    HW223902   1.471   4.547   5.904  1.7054 -0.0018 -1.5617
 6034SOL    HW323903   1.377   4.644   5.836  0.2518 -1.1396 -1.2265
 6034SOL    MW423904   1.445   4.629   5.888 -0.1640 -0.2984 -0.3979
 6035SOL     OW23905   1.611   2.134   5.086  0.0802 -0.0875 -0.2179
 6035SOL    HW223906   1.578   2.216   5.123  0.5821 -1.0048  2.5136
 6035SOL    HW323907   1.697   2.156   5.050  0.0365  0.6762  0.1298
 6035SOL    MW423908   1.618   2.147   5.086  0.1406 -0.1077  0.1883
 6036SOL     OW23909   5.071   2.505   3.228 -0.2145 -0.0656 -0.1249
 6036SOL    HW223910   5.101   2.459   3.149 -3.7888  0.6156 -2.0815
 6036SOL    HW323911   5.024   2.438   3.278 -0.5467  0.1738 -0.1152
 6036SOL    MW423912   5.069   2.490   3.224 -0.7299  0.0559 -0.3818
 6037SOL     OW23913   3.782   4.839   0.316  0.2660  0.8323 -0.1753
 6037SOL    HW223914   3.870   4.810   0.292 -0.1196  2.1313 -3.7661
 6037SOL    HW323915   3.724   4.772   0.280 -0.2842  0.9639  0.4562
 6037SOL    MW423916   3.786   4.826   0.308  0.1426  1.0211 -0.5658
 6038SOL     OW23917   4.788   1.856   3.408  0.4735 -0.3646  0.1954
 6038SOL    HW223918   4.835   1.778   3.439  1.2550 -1.0258 -2.3634
 6038SOL    HW323919   4.827   1.929   3.456  1.1134 -1.3506  1.2159
 6038SOL    MW423920   4.799   1.855   3.418  0.6611 -0.5820 -0.0076
 6039SOL     OW23921   2.546   0.053   1.986 -0.2143  0.2067 -0.0505
 6039SOL    HW223922   2.592  -0.030   1.992 -0.0742  0.3497  1.2181
 6039SOL    HW323923   2.478   0.047   2.054 -1.6683  0.2482 -1.4520
 6039SOL    MW423924   2.543   0.042   1.996 -0.3876  0.2310 -0.0681
 6040SOL     OW23925   3.930   3.152   4.826  0.0886  0.0224 -0.1850
 6040SOL    HW223926   4.010   3.127   4.781 -0.1576 -1.2633  0.0613
 6040SOL    HW323927   3.870   3.079   4.811 -0.6963  0.5117  0.4748
 6040SOL    MW423928   3.932   3.139   4.818 -0.0474 -0.0827 -0.0655
 6041SOL     OW23929   0.080   3.799   2.746 -0.1735 -0.1297 -0.2296
 6041SOL    HW223930   0.116   3.772   2.661  1.3185 -0.5435  0.5167
 6041SOL    HW323931  -0.013   3.813   2.728  0.2915  0.8522 -2.1824
 6041SOL    MW423932   0.072   3.797   2.732  0.0847 -0.0547 -0.3888
 6042SOL     OW23933   2.444   3.752   1.005 -0.0691  0.0368  0.4533
 6042SOL    HW223934   2.477   3.827   1.054  1.2578 -0.1785 -0.0574
 6042SOL    HW323935   2.470   3.676   1.056  1.7356 -0.2134 -0.7318
 6042SOL    MW423936   2.451   3.752   1.018  0.3441 -0.0246  0.2296
 6043SOL     OW23937   4.621   0.797   2.880 -0.2168 -0.1040 -0.6358
 6043SOL    HW223938   4.610   0.775   2.788 -1.6916 -1.0017 -0.2761
 6043SOL    HW323939   4.692   0.740   2.910  0.3678  0.2961 -1.2256
 6043SOL    MW423940   4.629   0.787   2.872 -0.3343 -0.1696 -0.6662
 6044SOL     OW23941   1.727   1.108   2.843  0.2754  0.3250  0.2683
 6044SOL    HW223942   1.774   1.035   2.884 -0.0976 -1.3905 -2.1743
 6044SOL    HW323943   1.638   1.074   2.829 -0.0392  1.4262 -0.4900
 6044SOL    MW423944   1.721   1.094   2.847  0.1847  0.2440 -0.1540
 6045SOL     OW23945   6.374   4.560   3.598 -0.0847 -0.5560  0.0859
 6045SOL    HW223946   6.292   4.590   3.638 -1.4182 -1.5054 -1.7631
 6045SOL    HW323947   6.437   4.559   3.670 -2.3949 -2.4556  2.2849
 6045SOL    MW423948   6.371   4.564   3.613 -0.5654 -0.9319  0.1321
 6046SOL     OW23949   2.912   4.007   1.896  0.1634  0.6008 -0.3068
 6046SOL    HW223950   2.977   4.022   1.965 -1.5842  1.4311  1.2258
 6046SOL    HW323951   2.954   4.041   1.816  1.0995  2.4111  0.8877
 6046SOL    MW423952   2.926   4.014   1.894  0.0563  0.9492  0.0530
 6047SOL     OW23953   1.409   3.012   1.573  0.5679 -0.2142  0.4191
 6047SOL    HW223954   1.321   3.023   1.607  0.2543 -0.5913 -0.2609
 6047SOL    HW323955   1.450   2.947   1.630 -0.1752 -1.3426 -0.2983
 6047SOL    MW423956   1.403   3.005   1.585  0.4285 -0.4128  0.2348
 6048SOL     OW23957   1.590   0.341   4.213 -0.4251 -0.8132 -0.3115
 6048SOL    HW223958   1.525   0.271   4.211 -0.1778 -1.2423  2.3513
 6048SOL    HW323959   1.642   0.323   4.291  0.6725  1.4567 -0.4294
 6048SOL    MW423960   1.588   0.329   4.223 -0.2476 -0.5704  0.0243
 6049SOL     OW23961   0.401   5.415   2.877 -1.1746 -0.4324 -0.4614
 6049SOL    HW223962   0.349   5.384   2.803 -1.6374 -3.5327  0.9688
 6049SOL    HW323963   0.342   5.408   2.952  0.2118 -0.5125  0.6682
 6049SOL    MW423964   0.387   5.410   2.877 -1.0527 -0.8520 -0.1237
 6050SOL     OW23965   0.763   1.599   4.397 -0.1840 -0.0400 -0.2990
 6050SOL    HW223966   0.751   1.633   4.486 -0.5085 -2.3054  0.5944
 6050SOL    HW323967   0.848   1.556   4.399  0.0094  0.2789 -1.2370
 6050SOL    MW423968   0.773   1.598   4.409 -0.2013 -0.2968 -0.3049
 6051SOL     OW23969   2.217   2.524   1.479 -0.2867 -0.7267 -0.2559
 6051SOL    HW223970   2.206   2.429   1.489  1.2596 -1.1153 -1.7837
 6051SOL    HW323971   2.184   2.542   1.391  1.2324 -0.1829 -0.7288
 6051SOL    MW423972   2.211   2.514   1.469  0.1177 -0.7062 -0.5199
 6052SOL     OW23973   3.141   2.870   6.105 -0.3422  0.5342  0.2072
 6052SOL    HW223974   3.183   2.813   6.170 -0.1814  0.0545 -0.3166
 6052SOL    HW323975   3.187   2.953   6.114  0.6223  0.0672 -0.2374
 6052SOL    MW423976   3.153   2.873   6.115 -0.1937  0.4093  0.0795
 6053SOL     OW23977   3.791   0.161   4.594  1.2017 -0.7308 -0.0299
 6053SOL    HW223978   3.823   0.233   4.540 -0.2588  1.0987  1.3983
 6053SOL    HW323979   3.850   0.159   4.670 -0.3421  0.8846  1.2950
 6053SOL    MW423980   3.803   0.170   4.597  0.8053 -0.2763  0.3333
 6054SOL     OW23981   1.529   0.130   6.064 -0.4761  0.1568 -0.3105
 6054SOL    HW223982   1.581   0.131   5.984  0.6428 -1.8493  0.3182
 6054SOL    HW323983   1.535   0.219   6.098 -0.6133  0.9288 -2.2074
 6054SOL    MW423984   1.537   0.142   6.058 -0.3466 -0.0060 -0.4778
 6055SOL     OW23985   0.865   0.153   5.659 -0.1614 -0.1195  0.6746
 6055SOL    HW223986   0.938   0.117   5.710 -0.7281 -1.4397  0.5900
 6055SOL    HW323987   0.896   0.153   5.569  0.0789  0.2469  0.7539
 6055SOL    MW423988   0.879   0.149   5.654 -0.2045 -0.2453  0.6739
 6056SOL     OW23989   6.310   2.472   0.288 -0.1320  0.3684 -0.2011
 6056SOL    HW223990   6.223   2.514   0.290 -0.6483 -0.6441  2.1021
 6056SOL    HW323991   6.293   2.384   0.255 -0.0172  0.1255  0.3803
 6056SOL    MW423992   6.296   2.466   0.284 -0.1850  0.2028  0.1795
 6057SOL     OW23993   3.825   0.404   3.706 -0.4685 -0.0038 -0.1959
 6057SOL    HW223994   3.813   0.467   3.777  0.4786  0.4522 -0.4178
 6057SOL    HW323995   3.910   0.363   3.724 -0.4537 -0.2513 -0.7807
 6057SOL    MW423996   3.835   0.407   3.718 -0.3416  0.0237 -0.3023
 6058SOL     OW23997   4.300   5.875   4.698  0.0218  0.1801  0.7684
 6058SOL    HW223998   4.204   5.874   4.692 -0.1515 -1.6409  2.7353
 6058SOL    HW323999   4.317   5.901   4.788  1.3504 -0.5380  0.7370
 6058SOL    MW424000   4.289   5.878   4.709  0.1742 -0.1549  1.0238
 6059SOL     OW24001   2.198   3.109   4.981  0.2259  0.3291  0.7577
 6059SOL    HW224002   2.234   3.051   5.048 -1.1457 -0.7962  0.5771
 6059SOL    HW324003   2.275   3.146   4.938  1.1338  0.9186  2.7854
 6059SOL    MW424004   2.213   3.106   4.984  0.1648  0.2584  1.0014
 6060SOL     OW24005   2.991   2.757   0.539 -0.3148  0.0677  0.4979
 6060SOL    HW224006   3.039   2.778   0.459 -0.1542 -0.2387  0.5091
 6060SOL    HW324007   3.041   2.685   0.578 -1.1559 -0.7212  0.1603
 6060SOL    MW424008   3.004   2.750   0.534 -0.4046 -0.0768  0.4549
 6061SOL     OW24009   5.919   4.476   4.260  0.2391  0.1925  0.2169
 6061SOL    HW224010   5.966   4.457   4.342  2.3781  0.0408 -0.9746
 6061SOL    HW324011   5.869   4.555   4.279 -0.1549 -0.4337  1.9742
 6061SOL    MW424012   5.918   4.484   4.274  0.4693  0.0899  0.2915
 6062SOL     OW24013   2.681   0.504   2.415  0.0220 -0.0721  0.2349
 6062SOL    HW224014   2.637   0.531   2.334  1.0416 -0.6148 -0.5250
 6062SOL    HW324015   2.672   0.580   2.473 -0.4823  0.4350 -0.4813
 6062SOL    MW424016   2.674   0.518   2.412  0.0900 -0.0768  0.0402
 6063SOL     OW24017   5.437   2.226   2.844  0.1395  0.2465  0.3697
 6063SOL    HW224018   5.378   2.157   2.876 -1.9199  1.7909  0.0691
 6063SOL    HW324019   5.461   2.197   2.756 -2.1453  0.6786 -0.4679
 6063SOL    MW424020   5.433   2.213   2.837 -0.4336  0.5073  0.2195
 6064SOL     OW24021   5.677   1.624   1.405 -0.0179 -0.0471  0.2633
 6064SOL    HW224022   5.699   1.570   1.480  0.5105 -0.6379 -0.3115
 6064SOL    HW324023   5.750   1.613   1.344 -1.1865 -0.8815 -1.0470
 6064SOL    MW424024   5.690   1.616   1.407 -0.1023 -0.2352  0.0146
 6065SOL     OW24025   5.670   3.466   2.060 -0.2164 -0.5439  0.2454
 6065SOL    HW224026   5.654   3.528   1.990  0.8053 -1.0703 -0.4841
 6065SOL    HW324027   5.696   3.521   2.135 -1.4476  0.0233  0.2777
 6065SOL    MW424028   5.671   3.482   2.061 -0.2441 -0.5385  0.1534
 6066SOL     OW24029   1.685   1.189   1.110 -0.6054  0.3316 -0.4998
 6066SOL    HW224030   1.671   1.190   1.205  0.4195 -0.4009 -0.3200
 6066SOL    HW324031   1.702   1.280   1.087  1.4576  0.2266  0.4166
 6066SOL    MW424032   1.685   1.201   1.120 -0.1980  0.2211 -0.3552
 6067SOL     OW24033   4.880   6.269   1.617  0.0619  0.0031 -0.3774
 6067SOL    HW224034   4.961   6.313   1.592  0.2247 -0.5362 -0.8257
 6067SOL    HW324035   4.879   6.189   1.564 -0.1828 -0.5719  0.4859
 6067SOL    MW424036   4.891   6.264   1.606  0.0511 -0.1439 -0.3226
 6068SOL     OW24037   5.417   3.428   3.843  0.3775  0.3953  0.2954
 6068SOL    HW224038   5.424   3.442   3.749  1.4983 -1.6211  0.0218
 6068SOL    HW324039   5.506   3.409   3.872  0.2581  2.1251  2.0080
 6068SOL    MW424040   5.430   3.427   3.835  0.5097  0.3575  0.4853
 6069SOL     OW24041   3.077   4.404   4.952  0.2103 -0.4884  0.0095
 6069SOL    HW224042   3.146   4.339   4.965 -0.9709 -1.8400 -0.2403
 6069SOL    HW324043   3.074   4.452   5.035  1.3434 -0.4773  0.0685
 6069SOL    MW424044   3.086   4.401   4.965  0.2039 -0.6652 -0.0157
 6070SOL     OW24045   0.967   0.199   5.391  0.6093  0.6922  0.0398
 6070SOL    HW224046   1.061   0.218   5.384  0.9315  0.2595  2.4205
 6070SOL    HW324047   0.958   0.111   5.355  0.8386  1.2683 -1.5052
 6070SOL    MW424048   0.978   0.190   5.385  0.6820  0.7111  0.1500
 6071SOL     OW24049   2.709   5.249   6.299  0.5093 -0.1725 -0.4171
 6071SOL    HW224050   2.786   5.230   6.353  0.9934  0.0481 -1.0320
 6071SOL    HW324051   2.731   5.216   6.212 -0.4423 -0.9333 -0.3920
 6071SOL    MW424052   2.722   5.242   6.295  0.4477 -0.2438 -0.4949
 6072SOL     OW24053   3.856   0.102   2.826  0.1910  0.5319  0.2084
 6072SOL    HW224054   3.805   0.146   2.894  1.6625  1.3461  0.8480
 6072SOL    HW324055   3.843   0.009   2.842 -0.4991  0.7258  0.8153
 6072SOL    MW424056   3.848   0.096   2.837  0.2941  0.6649  0.3728
 6073SOL     OW24057   1.358   4.762   2.224  0.6290 -0.3385  0.7062
 6073SOL    HW224058   1.426   4.821   2.191  0.1202 -0.7623 -1.2338
 6073SOL    HW324059   1.378   4.678   2.185  0.3686 -1.0806  2.1011
 6073SOL    MW424060   1.370   4.759   2.215  0.5275 -0.4923  0.6343
 6074SOL     OW24061   2.128   0.611   3.678 -0.1569  0.3481  0.5164
 6074SOL    HW224062   2.188   0.551   3.633 -0.3550  0.2621  0.3666
 6074SOL    HW324063   2.185   0.665   3.732  0.1183  0.6803 -0.0952
 6074SOL    MW424064   2.143   0.610   3.679 -0.1467  0.3806  0.4160
 6075SOL     OW24065   3.894   5.805   2.329  0.3170  0.0436 -0.0270
 6075SOL    HW224066   3.932   5.862   2.397  2.9003 -1.8531  0.2368
 6075SOL    HW324067   3.963   5.796   2.263  0.4241 -3.4114  0.3720
 6075SOL    MW424068   3.908   5.812   2.330  0.6720 -0.6625  0.0604
 6076SOL     OW24069   4.334   2.128   5.270 -0.0175 -0.4821  0.1315
 6076SOL    HW224070   4.404   2.188   5.242 -0.5432 -0.0138 -0.2106
 6076SOL    HW324071   4.258   2.157   5.221 -0.5894 -0.6357  0.9133
 6076SOL    MW424072   4.333   2.140   5.260 -0.1623 -0.4405  0.1895
 6077SOL     OW24073   2.676   0.996   5.707  0.3247 -0.5855  0.3777
 6077SOL    HW224074   2.760   0.958   5.681 -0.6369 -2.6642  0.1231
 6077SOL    HW324075   2.637   1.026   5.626  0.7186  0.2074  0.4728
 6077SOL    MW424076   2.682   0.995   5.693  0.2498 -0.7551  0.3566
 6078SOL     OW24077   5.584   4.290   0.039  0.0050  0.5651 -0.0609
 6078SOL    HW224078   5.666   4.250   0.071  0.2794  1.4752  0.4099
 6078SOL    HW324079   5.515   4.236   0.076  0.3886 -0.1762 -0.4080
 6078SOL    MW424080   5.586   4.278   0.048  0.0918  0.5874 -0.0446
 6079SOL     OW24081   1.489   6.414   4.455 -0.3314  0.0733  0.1479
 6079SOL    HW224082   1.534   6.497   4.472 -1.1651  0.6664 -0.4396
 6079SOL    HW324083   1.472   6.414   4.361  0.8982 -1.4369 -0.1191
 6079SOL    MW424084   1.492   6.425   4.445 -0.2792 -0.0477  0.0351
 6080SOL     OW24085   5.008   1.748   0.095  0.4210 -0.6436 -0.0651
 6080SOL    HW224086   5.089   1.724   0.050  1.8959  1.1414  1.4349
 6080SOL    HW324087   5.020   1.715   0.184 -1.4566 -2.1446 -0.3092
 6080SOL    MW424088   5.020   1.741   0.101  0.3678 -0.6061  0.1006
 6081SOL     OW24089   4.621   0.191   0.479  0.1103 -0.3249 -0.2313
 6081SOL    HW224090   4.706   0.219   0.445  1.0587 -2.0658  0.5638
 6081SOL    HW324091   4.571   0.168   0.401  1.4076 -1.9819 -0.6413
 6081SOL    MW424092   4.626   0.191   0.464  0.4066 -0.7732 -0.1805
 6082SOL     OW24093   2.912   6.103   4.930  0.3734 -0.2686 -0.3448
 6082SOL    HW224094   2.998   6.141   4.913  0.2441 -0.0528 -0.5215
 6082SOL    HW324095   2.915   6.076   5.022  0.1717  0.9479  0.0378
 6082SOL    MW424096   2.924   6.104   4.940  0.3298 -0.0796 -0.3177
 6083SOL     OW24097   2.539   4.635   2.483 -0.1458 -0.4002  0.2960
 6083SOL    HW224098   2.469   4.626   2.548  0.2032 -0.1236  0.7100
 6083SOL    HW324099   2.545   4.549   2.442 -0.3722 -0.5714  0.6232
 6083SOL    MW424100   2.531   4.623   2.486 -0.1296 -0.3863  0.3938
 6084SOL     OW24101   4.918   3.796   4.826 -0.5241  0.6363 -0.3345
 6084SOL    HW224102   5.012   3.816   4.829  0.0805 -1.5039 -2.2270
 6084SOL    HW324103   4.905   3.734   4.898 -0.1194 -0.2625 -1.0162
 6084SOL    MW424104   4.929   3.791   4.836 -0.3909  0.2354 -0.6741
 6085SOL     OW24105   3.350   5.251   4.607  0.1258  0.3497  0.2902
 6085SOL    HW224106   3.389   5.175   4.563 -1.0632 -0.3768  0.4391
 6085SOL    HW324107   3.281   5.214   4.661  0.9170  1.3338  2.0572
 6085SOL    MW424108   3.346   5.236   4.608  0.0733  0.3837  0.5429
 6086SOL     OW24109   0.313   3.605   4.184  0.4195 -0.2329  0.0432
 6086SOL    HW224110   0.264   3.676   4.142 -0.3607 -0.2285  0.9450
 6086SOL    HW324111   0.399   3.643   4.202  0.0351  0.4585  0.4425
 6086SOL    MW424112   0.318   3.619   4.181  0.2658 -0.1411  0.2148
 6087SOL     OW24113   1.222   5.679   1.880  0.3605 -0.2399 -0.3074
 6087SOL    HW224114   1.173   5.666   1.960  1.0852  1.4962  0.4778
 6087SOL    HW324115   1.167   5.737   1.827  1.0680  0.8799  0.1453
 6087SOL    MW424116   1.209   5.685   1.883  0.5494  0.1369 -0.1440
 6088SOL     OW24117   6.018   4.209   2.665  0.1875 -0.6922 -0.7867
 6088SOL    HW224118   6.062   4.147   2.606 -0.3328 -0.9318 -0.9261
 6088SOL    HW324119   5.990   4.156   2.739 -0.2625 -0.6264 -0.9085
 6088SOL    MW424120   6.020   4.194   2.667  0.0595 -0.7151 -0.8211
 6089SOL     OW24121   5.597   0.520   2.838 -0.5403 -0.3945 -0.1054
 6089SOL    HW224122   5.505   0.524   2.862 -0.7400 -2.4197 -0.3652
 6089SOL    HW324123   5.597   0.517   2.742 -0.2320 -0.8049 -0.0959
 6089SOL    MW424124   5.585   0.520   2.828 -0.5260 -0.7159 -0.1384
 6090SOL     OW24125   3.667   5.202   6.231 -0.3013 -0.2171  0.0510
 6090SOL    HW224126   3.653   5.297   6.230 -0.7313 -0.2648 -1.7968
 6090SOL    HW324127   3.743   5.188   6.175  0.4425 -0.8920  1.1988
 6090SOL    MW424128   3.675   5.213   6.223 -0.2599 -0.3125 -0.0414
 6091SOL     OW24129   5.404   0.273   0.333  0.7870  0.3306  0.2753
 6091SOL    HW224130   5.489   0.234   0.315  0.5637  0.4437 -1.1014
 6091SOL    HW324131   5.398   0.273   0.429  1.8136 -0.7812  0.3647
 6091SOL    MW424132   5.414   0.268   0.343  0.8930  0.1988  0.1054
 6092SOL     OW24133   0.704   3.909   2.128  0.2372  0.5383  0.7014
 6092SOL    HW224134   0.637   3.841   2.120 -0.0835  0.2599  4.0283
 6092SOL    HW324135   0.787   3.861   2.132  0.5212  0.7555 -1.6246
 6092SOL    MW424136   0.706   3.894   2.128  0.2324  0.5302  0.8335
 6093SOL     OW24137   2.043   2.214   5.204 -0.0233  0.7504 -0.1831
 6093SOL    HW224138   2.077   2.127   5.182 -0.7714  0.3569  0.1947
 6093SOL    HW324139   2.112   2.253   5.258  0.1294  0.2257  0.0054
 6093SOL    MW424140   2.057   2.208   5.208 -0.1019  0.6293 -0.1084
 6094SOL     OW24141   1.685   5.745   4.467 -0.0551  0.2032  0.0719
 6094SOL    HW224142   1.622   5.740   4.395  1.9049 -1.1116 -1.6601
 6094SOL    HW324143   1.725   5.658   4.469  0.5423  0.4763  2.2480
 6094SOL    MW424144   1.682   5.733   4.458  0.2823  0.0658  0.1305
 6095SOL     OW24145   0.873   0.825   0.122 -0.3019  0.4894  0.5609
 6095SOL    HW224146   0.802   0.788   0.173 -1.9502  3.8193  0.9263
 6095SOL    HW324147   0.834   0.843   0.036  1.1170 -0.7245 -0.3889
 6095SOL    MW424148   0.859   0.822   0.117 -0.3322  0.7686  0.4838
 6096SOL     OW24149   0.008   1.331   6.225  0.2319  0.5184  0.7123
 6096SOL    HW224150   0.100   1.322   6.199 -0.1218 -2.0054  0.0214
 6096SOL    HW324151   0.007   1.407   6.283  2.4474  1.6071 -0.5533
 6096SOL    MW424152   0.020   1.340   6.229  0.4775  0.3291  0.4541
 6097SOL     OW24153   5.717   6.347   2.434  0.2567 -0.0330  0.1976
 6097SOL    HW224154   5.752   6.416   2.490 -0.6461 -0.9059  1.9026
 6097SOL    HW324155   5.661   6.392   2.371 -0.8409  0.7824  1.6921
 6097SOL    MW424156   5.714   6.362   2.433 -0.0072 -0.0406  0.6197
 6098SOL     OW24157   3.460   0.659   3.224 -0.0276 -0.1991 -0.4012
 6098SOL    HW224158   3.468   0.636   3.131  0.1924 -0.4904 -0.3127
 6098SOL    HW324159   3.403   0.736   3.225  0.7911  0.4331 -0.8638
 6098SOL    MW424160   3.453   0.666   3.211  0.1095 -0.1541 -0.4506
 6099SOL     OW24161   5.327   6.212   0.195 -0.0957  0.5408 -0.0573
 6099SOL    HW224162   5.369   6.181   0.276  0.5667 -0.9061 -0.9040
 6099SOL    HW324163   5.400   6.227   0.135 -0.6522  0.1502 -0.8452
 6099SOL    MW424164   5.342   6.210   0.198 -0.0818  0.2984 -0.2730
 6100SOL     OW24165   6.109   3.551   2.711 -0.4804 -0.0310 -0.2677
 6100SOL    HW224166   6.078   3.620   2.769 -2.1357 -0.1422 -0.9755
 6100SOL    HW324167   6.030   3.515   2.671  0.3923 -1.8367 -0.4950
 6100SOL    MW424168   6.095   3.555   2.713 -0.5836 -0.2839 -0.3911
 6101SOL     OW24169   2.385   2.346   6.052 -0.0260  0.0617 -0.1639
 6101SOL    HW224170   2.378   2.310   5.964 -0.7369 -0.6409  0.1735
 6101SOL    HW324171   2.367   2.272   6.110 -0.2359  0.6703  0.5633
 6101SOL    MW424172   2.382   2.332   6.048 -0.1475  0.0493 -0.0235
 6102SOL     OW24173   1.245   3.197   2.686 -0.3977  1.0561 -0.4658
 6102SOL    HW224174   1.307   3.202   2.613 -1.6469  2.5674 -1.4935
 6102SOL    HW324175   1.174   3.256   2.661 -1.1735  1.1200  1.7063
 6102SOL    MW424176   1.244   3.205   2.673 -0.6649  1.2639 -0.3148
 6103SOL     OW24177   5.137   0.337   2.249  0.0208  0.0293 -0.2739
 6103SOL    HW224178   5.092   0.337   2.333 -0.3393  0.9108 -0.4608
 6103SOL    HW324179   5.181   0.252   2.246  1.9812  0.8537  1.8332
 6103SOL    MW424180   5.137   0.325   2.260  0.2320  0.2544 -0.0206
 6104SOL     OW24181   0.753   5.701   1.571 -0.3856 -0.2119  0.3406
 6104SOL    HW224182   0.691   5.634   1.601  0.1513 -0.5524  0.7185
 6104SOL    HW324183   0.773   5.677   1.481  0.0933 -0.7962  0.5904
 6104SOL    MW424184   0.747   5.689   1.563 -0.2515 -0.3339  0.4234
 6105SOL     OW24185   4.921   1.330   4.975  0.0091  0.6557  0.0500
 6105SOL    HW224186   5.011   1.353   4.996  0.1406  2.2056 -1.9216
 6105SOL    HW324187   4.928   1.260   4.911 -0.2313 -0.0943  0.8361
 6105SOL    MW424188   4.934   1.324   4.969 -0.0053  0.7613 -0.1064
 6106SOL     OW24189   5.274   4.075   6.373  0.2322  0.2254  0.1131
 6106SOL    HW224190   5.209   4.015   6.334  1.7150 -1.4505  0.0877
 6106SOL    HW324191   5.258   4.159   6.330 -3.2227  0.4747  1.5360
 6106SOL    MW424192   5.263   4.078   6.362 -0.0280  0.0372  0.2975
 6107SOL     OW24193   0.645   3.809   0.418  0.0813 -0.1989 -0.4376
 6107SOL    HW224194   0.655   3.714   0.430 -0.8600 -0.6641 -2.7180
 6107SOL    HW324195   0.573   3.817   0.355  0.5243  2.0250 -0.7263
 6107SOL    MW424196   0.637   3.797   0.411  0.0156  0.0332 -0.7766
 6108SOL     OW24197   0.809   6.108   5.664 -0.9903 -0.3871 -0.3493
 6108SOL    HW224198   0.845   6.022   5.687  0.8470  0.7630  1.4187
 6108SOL    HW324199   0.874   6.146   5.604 -1.5670 -0.0344 -0.7663
 6108SOL    MW424200   0.822   6.102   5.659 -0.8240 -0.1888 -0.1710
 6109SOL     OW24201   0.653   5.654   1.128  0.0047 -0.2954  0.6654
 6109SOL    HW224202   0.598   5.591   1.081 -1.2614  0.2352  1.3696
 6109SOL    HW324203   0.696   5.704   1.059  0.3443 -1.3506  0.0994
 6109SOL    MW424204   0.651   5.652   1.113 -0.1175 -0.3646  0.6836
 6110SOL     OW24205   4.571   1.731   4.861  0.0728 -0.8091 -0.1121
 6110SOL    HW224206   4.652   1.775   4.838 -0.3817 -1.2605 -3.0122
 6110SOL    HW324207   4.598   1.645   4.894  0.8093 -0.7637 -0.5833
 6110SOL    MW424208   4.585   1.725   4.862  0.1100 -0.8627 -0.5569
 6111SOL     OW24209   5.039   1.268   0.848 -0.0282  0.3718 -0.1118
 6111SOL    HW224210   5.050   1.335   0.915  0.5144  0.1140  0.0658
 6111SOL    HW324211   5.100   1.198   0.874 -1.4425 -0.7214  0.3698
 6111SOL    MW424212   5.049   1.268   0.860 -0.1432  0.1935 -0.0248
 6112SOL     OW24213   3.517   4.427   2.330 -0.3468  0.5489  0.1588
 6112SOL    HW224214   3.492   4.505   2.379 -1.6120  0.6340 -0.5864
 6112SOL    HW324215   3.483   4.442   2.242  2.6992  0.8457 -1.0911
 6112SOL    MW424216   3.509   4.439   2.325 -0.1118  0.5993 -0.1045
 6113SOL     OW24217   5.168   2.783   1.302  0.2407 -0.3159  0.4378
 6113SOL    HW224218   5.152   2.852   1.237 -2.1987  1.1285  2.3999
 6113SOL    HW324219   5.085   2.735   1.306  1.2921 -2.1990  0.4944
 6113SOL    MW424220   5.155   2.786   1.294  0.0576 -0.3738  0.7042
 6114SOL     OW24221   5.793   6.324   0.945  0.1973 -0.5188 -0.1110
 6114SOL    HW224222   5.875   6.277   0.932  0.8422  0.2145  1.1153
 6114SOL    HW324223   5.788   6.337   1.040 -0.0941  1.6417 -0.3774
 6114SOL    MW424224   5.803   6.319   0.956  0.2439 -0.1370  0.0157
 6115SOL     OW24225   0.740   3.061   0.051 -0.2318 -0.0229  0.3176
 6115SOL    HW224226   0.739   3.061   0.147  0.7195  0.9902  0.3615
 6115SOL    HW324227   0.675   3.126   0.026 -0.9143 -0.7269  0.2528
 6115SOL    MW424228   0.731   3.070   0.061 -0.1964  0.0179  0.3149
 6116SOL     OW24229   4.554   5.609   5.294 -0.3441  0.3081  0.3961
 6116SOL    HW224230   4.520   5.576   5.377  3.0012 -1.2335  1.3584
 6116SOL    HW324231   4.576   5.701   5.312 -0.3422  0.1981  0.9805
 6116SOL    MW424232   4.553   5.617   5.308  0.0975  0.0902  0.6002
 6117SOL     OW24233   2.047   1.922   2.364 -0.4330 -0.4801 -0.0657
 6117SOL    HW224234   1.955   1.911   2.339 -0.4895 -2.1271  0.7091
 6117SOL    HW324235   2.094   1.858   2.311 -0.0435 -1.1856  1.0918
 6117SOL    MW424236   2.041   1.912   2.354 -0.3890 -0.7905  0.1893
 6118SOL     OW24237   1.565   0.738   4.368  0.2114  0.2445  0.2813
 6118SOL    HW224238   1.529   0.682   4.437 -1.1081  0.2852 -0.3437
 6118SOL    HW324239   1.635   0.686   4.328 -0.0570 -0.3937  0.6309
 6118SOL    MW424240   1.569   0.724   4.372  0.0019  0.1657  0.2450
 6119SOL     OW24241   4.601   3.217   3.749  0.7049 -0.4441 -0.2923
 6119SOL    HW224242   4.633   3.131   3.776  0.0821 -0.6178 -0.0915
 6119SOL    HW324243   4.625   3.275   3.821 -0.0234 -0.7041  0.1664
 6119SOL    MW424244   4.609   3.213   3.762  0.5266 -0.5013 -0.2053
 6120SOL     OW24245   1.210   3.798   2.339  0.1922 -0.2890 -0.0791
 6120SOL    HW224246   1.152   3.771   2.410 -0.6257  1.4860 -0.0028
 6120SOL    HW324247   1.209   3.725   2.277 -5.3497  0.9285 -2.0755
 6120SOL    MW424248   1.202   3.785   2.340 -0.6469  0.1058 -0.3324
 6121SOL     OW24249   5.122   5.693   4.547 -0.1660 -0.1407 -0.5288
 6121SOL    HW224250   5.202   5.725   4.504  0.5136 -0.1059  0.6913
 6121SOL    HW324251   5.087   5.770   4.591 -0.0447 -0.4749  0.1596
 6121SOL    MW424252   5.128   5.708   4.547 -0.0603 -0.1802 -0.2770
 6122SOL     OW24253   4.644   2.276   5.533  0.1069  0.2752 -0.1076
 6122SOL    HW224254   4.588   2.354   5.537  0.0039  0.1700  0.8113
 6122SOL    HW324255   4.733   2.309   5.543  0.0684  0.2943  0.2061
 6122SOL    MW424256   4.648   2.291   5.535  0.0883  0.2638  0.0550
 6123SOL     OW24257   4.928   2.442   4.014  0.0742  0.0572 -0.4324
 6123SOL    HW224258   4.870   2.485   4.076  0.0834 -1.7280  0.8893
 6123SOL    HW324259   4.978   2.514   3.974  0.5190  1.2578  2.0766
 6123SOL    MW424260   4.927   2.457   4.017  0.1341 -0.0199  0.0730
 6124SOL     OW24261   5.997   0.686   5.713  0.4516 -0.2273 -0.3606
 6124SOL    HW224262   6.046   0.643   5.643  1.2884 -0.3224  0.2655
 6124SOL    HW324263   6.034   0.774   5.717  0.7588 -0.3808  0.2857
 6124SOL    MW424264   6.009   0.692   5.704  0.6026 -0.2601 -0.1927
 6125SOL     OW24265   1.867   6.432   1.862 -0.1735 -0.5229  0.5063
 6125SOL    HW224266   1.855   6.354   1.809 -0.7543 -0.0804 -0.0258
 6125SOL    HW324267   1.945   6.414   1.914  0.1755 -1.1257 -0.2125
 6125SOL    MW424268   1.876   6.419   1.861 -0.2041 -0.5441  0.3413
 6126SOL     OW24269   3.016   1.128   1.519  0.4672  0.2678 -0.1320
 6126SOL    HW224270   3.037   1.216   1.490  0.3281 -0.0456 -1.2225
 6126SOL    HW324271   2.950   1.097   1.457 -0.0304 -0.3394  0.6720
 6126SOL    MW424272   3.010   1.135   1.507  0.3832  0.1463 -0.1698
 6127SOL     OW24273   1.769   2.063   3.144 -0.1934 -0.2318 -0.1964
 6127SOL    HW224274   1.748   1.979   3.102 -0.0182 -0.7898  0.7985
 6127SOL    HW324275   1.736   2.054   3.233 -2.2167  1.6276 -0.6820
 6127SOL    MW424276   1.762   2.051   3.150 -0.4372 -0.0601 -0.1292
 6128SOL     OW24277   5.070   3.523   5.233  0.3834  0.3109 -0.4981
 6128SOL    HW224278   5.080   3.430   5.211 -0.2510  0.3780 -1.1204
 6128SOL    HW324279   5.159   3.555   5.244  0.6558 -0.1283 -1.3457
 6128SOL    MW424280   5.083   3.515   5.231  0.3356  0.2618 -0.6920
 6129SOL     OW24281   0.481   0.504   1.182  0.3155  0.2173  0.3734
 6129SOL    HW224282   0.498   0.598   1.184  0.2590  0.2733 -0.9378
 6129SOL    HW324283   0.390   0.496   1.153  0.2236 -0.2357  0.7758
 6129SOL    MW424284   0.471   0.516   1.178  0.2959  0.1649  0.2535
 6130SOL     OW24285   4.471   0.169   3.689  0.2702  0.6885  0.3048
 6130SOL    HW224286   4.426   0.187   3.607  0.8030  2.7424  0.3896
 6130SOL    HW324287   4.403   0.172   3.756  0.0617  0.5686  0.0972
 6130SOL    MW424288   4.456   0.172   3.687  0.3130  0.9437  0.2886
 6131SOL     OW24289   4.876   4.654   2.471 -0.2876 -0.2706 -0.0162
 6131SOL    HW224290   4.891   4.583   2.407  0.7262  2.0281 -2.5246
 6131SOL    HW324291   4.785   4.679   2.457  0.1089  0.6654 -1.1630
 6131SOL    MW424292   4.866   4.648   2.460 -0.1015  0.1562 -0.4985
 6132SOL     OW24293   2.475   1.953   5.422  0.0827  0.1643 -0.4110
 6132SOL    HW224294   2.532   1.926   5.350  0.8036 -1.5192  0.7205
 6132SOL    HW324295   2.394   1.905   5.408  0.8355 -1.5536  0.7838
 6132SOL    MW424296   2.472   1.943   5.411  0.2771 -0.2845 -0.1040
 6133SOL     OW24297   2.918   1.779   2.033 -0.0256  0.4171 -0.4309
 6133SOL    HW224298   2.891   1.706   1.977 -1.1474  0.7945 -0.3987
 6133SOL    HW324299   3.013   1.780   2.026 -0.0439 -0.5666 -1.0414
 6133SOL    MW424300   2.927   1.769   2.025 -0.1760  0.3371 -0.5072
 6134SOL     OW24301   4.304   1.199   0.511 -0.1825 -0.2384 -0.7955
 6134SOL    HW224302   4.347   1.121   0.548 -0.4693  0.5636  1.3952
 6134SOL    HW324303   4.375   1.261   0.497 -0.3782  0.7943  2.0707
 6134SOL    MW424304   4.319   1.197   0.514 -0.2461  0.0037 -0.1283
 6135SOL     OW24305   1.474   5.978   6.053 -0.8986  0.3304 -0.3772
 6135SOL    HW224306   1.419   5.960   6.129 -0.7308 -0.3888 -0.4264
 6135SOL    HW324307   1.481   6.074   6.051 -1.5588  0.3880  0.0414
 6135SOL    MW424308   1.468   5.989   6.063 -0.9636  0.2431 -0.3285
 6136SOL     OW24309   4.810   3.709   2.461  0.3426 -0.3013  0.0828
 6136SOL    HW224310   4.769   3.705   2.548  0.2936  0.7226  0.1240
 6136SOL    HW324311   4.866   3.787   2.465  1.0512 -0.7701 -0.5073
 6136SOL    MW424312   4.812   3.719   2.473  0.4297 -0.2281  0.0103
 6137SOL     OW24313   4.575   3.880   2.325  0.1264  0.4324  0.0515
 6137SOL    HW224314   4.656   3.836   2.347  0.7680  1.7400  0.4235
 6137SOL    HW324315   4.578   3.892   2.230  0.7664  1.1882  0.1568
 6137SOL    MW424316   4.586   3.876   2.315  0.2955  0.7046  0.1144
 6138SOL     OW24317   6.387   1.491   3.150  0.0712 -0.1050 -0.2712
 6138SOL    HW224318   6.407   1.531   3.065  0.5097  0.3686  0.0499
 6138SOL    HW324319   6.439   1.541   3.213 -0.1437 -0.5437  0.2617
 6138SOL    MW424320   6.396   1.503   3.147  0.1007 -0.1004 -0.1585
 6139SOL     OW24321   3.364   1.265   4.429 -0.0290 -0.3302 -0.3092
 6139SOL    HW224322   3.311   1.186   4.426 -0.0901 -0.2941 -0.1742
 6139SOL    HW324323   3.404   1.270   4.342  0.3423 -0.7595 -0.1656
 6139SOL    MW424324   3.362   1.255   4.417  0.0120 -0.3821 -0.2725
 6140SOL     OW24325   4.414   2.517   2.164  0.0255  0.3313  0.4480
 6140SOL    HW224326   4.464   2.581   2.215  0.9210 -1.2137  1.5936
 6140SOL    HW324327   4.465   2.505   2.084 -0.3796  1.3396  0.0155
 6140SOL    MW424328   4.427   2.524   2.160  0.0902  0.2605  0.5421
 6141SOL     OW24329   4.606   1.557   3.528 -0.6452  0.2254  0.2362
 6141SOL    HW224330   4.548   1.627   3.557  1.9692  3.3868 -1.4961
 6141SOL    HW324331   4.672   1.551   3.597 -0.2255  0.3173 -0.1521
 6141SOL    MW424332   4.607   1.565   3.541 -0.2449  0.6546 -0.0436
 6142SOL     OW24333   0.674   3.948   4.473  0.8096 -0.0782  0.2656
 6142SOL    HW224334   0.619   4.011   4.519  0.7634 -0.2980  0.5167
 6142SOL    HW324335   0.764   3.975   4.494  0.8257  0.8292 -0.8871
 6142SOL    MW424336   0.679   3.960   4.482  0.8056  0.0125  0.1466
 6143SOL     OW24337   1.106   3.799   5.848  0.0914 -0.1938  0.9180
 6143SOL    HW224338   1.060   3.879   5.871  2.1186  1.2725  0.1102
 6143SOL    HW324339   1.044   3.729   5.869 -2.9833  1.6390 -1.2286
 6143SOL    MW424340   1.092   3.800   5.854 -0.0468  0.2415  0.5282
 6144SOL     OW24341   3.708   4.036   0.450 -0.3363  0.0184  0.5954
 6144SOL    HW224342   3.673   4.085   0.376  0.4319  0.7397  0.6956
 6144SOL    HW324343   3.677   3.946   0.436 -0.0200  0.0966 -0.7257
 6144SOL    MW424344   3.699   4.030   0.438 -0.1932  0.1239  0.4343
 6145SOL     OW24345   1.009   3.403   1.146 -0.7025  0.5378  0.0265
 6145SOL    HW224346   1.029   3.490   1.181 -1.6591  1.0243 -0.5824
 6145SOL    HW324347   0.955   3.362   1.214  0.9031 -0.1459  0.9382
 6145SOL    MW424348   1.004   3.409   1.160 -0.6169  0.5118  0.0665
 6146SOL     OW24349   5.763   5.694   4.543 -0.7094  0.4568 -0.1781
 6146SOL    HW224350   5.774   5.690   4.638 -0.6485  0.6406 -0.1760
 6146SOL    HW324351   5.752   5.787   4.525 -1.0602  0.3884 -0.3136
 6146SOL    MW424352   5.763   5.706   4.553 -0.7476  0.4720 -0.1957
 6147SOL     OW24353   1.849   3.226   4.767  0.1737 -0.0341 -0.4173
 6147SOL    HW224354   1.868   3.243   4.675  0.6582 -2.3912 -0.8198
 6147SOL    HW324355   1.911   3.157   4.792  0.5061  0.9725  1.8891
 6147SOL    MW424356   1.860   3.219   4.758  0.2815 -0.2123 -0.1661
 6148SOL     OW24357   6.128   3.132   1.945  0.4813 -0.3648 -0.2440
 6148SOL    HW224358   6.073   3.200   1.906  0.9465  0.4228  0.4092
 6148SOL    HW324359   6.069   3.061   1.966 -0.2090  0.2588 -0.0332
 6148SOL    MW424360   6.113   3.132   1.943  0.4516 -0.1786 -0.1300
 6149SOL     OW24361   3.634   5.040   4.851 -0.3210  0.1292 -0.0321
 6149SOL    HW224362   3.552   5.001   4.882 -0.6963  1.8245  1.2311
 6149SOL    HW324363   3.695   4.966   4.847 -1.5536 -0.9489  0.1922
 6149SOL    MW424364   3.631   5.025   4.854 -0.5331  0.2106  0.1641
 6150SOL     OW24365   4.174   0.580   0.961  0.1010 -0.1229 -0.1432
 6150SOL    HW224366   4.267   0.603   0.965  0.2321 -0.7373  0.5701
 6150SOL    HW324367   4.130   0.650   1.008  0.2712 -0.1846  0.1094
 6150SOL    MW424368   4.181   0.592   0.968  0.1408 -0.2121 -0.0157
 6151SOL     OW24369   1.876   2.289   2.776 -0.3143 -0.0878 -0.2610
 6151SOL    HW224370   1.882   2.210   2.723 -0.3897 -0.9149  0.9450
 6151SOL    HW324371   1.798   2.334   2.743  0.8964  0.6037 -2.3846
 6151SOL    MW424372   1.866   2.285   2.764 -0.1645 -0.1057 -0.3820
 6152SOL     OW24373   3.149   0.041   5.476 -0.4287  0.7062  0.3621
 6152SOL    HW224374   3.243   0.046   5.458 -0.5260  2.8829  0.2305
 6152SOL    HW324375   3.143   0.009   5.566  0.2982 -2.4104 -0.5833
 6152SOL    MW424376   3.161   0.037   5.485 -0.3456  0.5822  0.2200
 6153SOL     OW24377   4.653   3.747   4.730  0.3201 -0.2410 -0.2924
 6153SOL    HW224378   4.637   3.660   4.694 -0.3080  0.0053 -0.6386
 6153SOL    HW324379   4.722   3.735   4.795  0.2113 -0.9979 -0.3150
 6153SOL    MW424380   4.660   3.734   4.734  0.2229 -0.3084 -0.3410
 6154SOL     OW24381   5.106   3.991   5.287 -0.1424 -0.2039  0.1840
 6154SOL    HW224382   5.051   3.995   5.208 -0.0285  1.3293  0.1614
 6154SOL    HW324383   5.140   4.080   5.297  0.9020 -0.6985  1.2294
 6154SOL    MW424384   5.103   4.003   5.278  0.0104 -0.0669  0.3189
 6155SOL     OW24385   1.443   5.228   1.851 -0.1403 -0.2803  0.1904
 6155SOL    HW224386   1.364   5.200   1.897  0.7779  0.7674  2.5146
 6155SOL    HW324387   1.412   5.294   1.789 -1.4713 -2.0865 -1.2015
 6155SOL    MW424388   1.429   5.233   1.849 -0.1947 -0.3804  0.3134
 6156SOL     OW24389   1.247   0.454   2.239 -0.3650 -0.2038  0.0392
 6156SOL    HW224390   1.280   0.477   2.326  0.1470 -2.1075  0.4069
 6156SOL    HW324391   1.316   0.482   2.179 -0.1304 -0.0444  0.3795
 6156SOL    MW424392   1.261   0.461   2.243 -0.2665 -0.4340  0.1326
 6157SOL     OW24393   1.697   5.494   2.480  0.0750 -0.0889 -0.1609
 6157SOL    HW224394   1.686   5.528   2.391 -0.0504 -2.3302 -1.0642
 6157SOL    HW324395   1.710   5.572   2.534  2.0081  1.2583 -2.3877
 6157SOL    MW424396   1.697   5.509   2.475  0.3135 -0.2069 -0.5739
 6158SOL     OW24397   1.690   4.626   5.677  0.4385  0.4899  0.7924
 6158SOL    HW224398   1.772   4.591   5.642  0.5568  0.5828  0.9713
 6158SOL    HW324399   1.628   4.553   5.672  0.6846  0.2505  1.1654
 6158SOL    MW424400   1.693   4.611   5.672  0.4866  0.4706  0.8652
 6159SOL     OW24401   3.169   1.582   5.568  0.1695 -0.6298  0.1474
 6159SOL    HW224402   3.192   1.526   5.643  0.1236  0.3276  0.8941
 6159SOL    HW324403   3.253   1.616   5.537  0.1794 -0.9536 -0.1935
 6159SOL    MW424404   3.183   1.579   5.574  0.1647 -0.5462  0.2009
 6160SOL     OW24405   1.571   2.173   4.062 -0.4366  0.4506 -0.0759
 6160SOL    HW224406   1.548   2.219   3.982 -0.6043 -0.6554 -0.6819
 6160SOL    HW324407   1.488   2.147   4.101 -0.3354 -0.0922 -0.2023
 6160SOL    MW424408   1.557   2.175   4.057 -0.4454  0.2330 -0.1725
 6161SOL     OW24409   4.395   0.792   5.071 -0.3190 -0.2570  0.0321
 6161SOL    HW224410   4.447   0.853   5.123 -0.1270  0.8423 -1.3826
 6161SOL    HW324411   4.312   0.837   5.056 -1.2261 -1.4724  1.1872
 6161SOL    MW424412   4.391   0.806   5.076 -0.4134 -0.2723 -0.0022
 6162SOL     OW24413   6.268   1.607   5.472 -0.2947  0.0504  0.0561
 6162SOL    HW224414   6.328   1.681   5.462  0.6358 -0.8378 -1.1975
 6162SOL    HW324415   6.324   1.533   5.493 -1.3633 -0.0256  3.1742
 6162SOL    MW424416   6.283   1.607   5.474 -0.3129 -0.0768  0.3021
 6163SOL     OW24417   6.107   5.467   2.390 -0.3058 -0.1953 -0.1449
 6163SOL    HW224418   6.130   5.442   2.480  1.8665 -0.6422 -0.7592
 6163SOL    HW324419   6.025   5.421   2.373 -0.6069 -0.3307  1.5048
 6163SOL    MW424420   6.099   5.457   2.400 -0.0589 -0.2721 -0.0083
 6164SOL     OW24421   0.709   6.211   4.626  0.0617 -0.0880  0.4335
 6164SOL    HW224422   0.635   6.173   4.673  2.1827 -0.8261  3.5130
 6164SOL    HW324423   0.777   6.221   4.693  2.1079  2.3928 -1.7787
 6164SOL    MW424424   0.709   6.208   4.641  0.6115  0.1419  0.5479
 6165SOL     OW24425   3.235   3.609   5.850  0.0961 -0.8409 -0.1621
 6165SOL    HW224426   3.202   3.533   5.802 -2.8614 -0.3675  0.9447
 6165SOL    HW324427   3.246   3.676   5.783  1.2224 -1.7414 -0.9177
 6165SOL    MW424428   3.232   3.607   5.835 -0.1455 -0.8972 -0.1158
 6166SOL     OW24429   1.878   1.261   3.278  0.0336  0.1100  0.2497
 6166SOL    HW224430   1.849   1.298   3.195  0.9920  0.4700  0.0654
 6166SOL    HW324431   1.812   1.290   3.341 -1.5028 -1.3767 -0.6082
 6166SOL    MW424432   1.865   1.270   3.276 -0.0427 -0.0386  0.1122
 6167SOL     OW24433   2.080   6.131   3.797 -0.2744  0.0246  0.4082
 6167SOL    HW224434   2.042   6.150   3.883 -0.2551  1.7224  0.0753
 6167SOL    HW324435   2.005   6.124   3.738 -0.3058 -1.4447  0.5957
 6167SOL    MW424436   2.065   6.133   3.801 -0.2760  0.0547  0.3890
 6168SOL     OW24437   0.667   2.413   4.350  0.1890 -0.1284  0.1143
 6168SOL    HW224438   0.733   2.481   4.365  0.3967 -0.4547  0.6825
 6168SOL    HW324439   0.595   2.460   4.306  0.9143  0.1640 -0.8141
 6168SOL    MW424440   0.666   2.428   4.346  0.3121 -0.1329  0.0667
 6169SOL     OW24441   6.379   4.069   0.272 -0.1380 -0.3928 -0.4246
 6169SOL    HW224442   6.365   4.014   0.195 -0.6116  0.5423 -1.0209
 6169SOL    HW324443   6.473   4.089   0.272  0.3350 -2.3510  0.6164
 6169SOL    MW424444   6.390   4.065   0.262 -0.1380 -0.5278 -0.3659
 6170SOL     OW24445   6.032   4.093   3.192  0.0268  0.2644 -0.2488
 6170SOL    HW224446   5.940   4.068   3.182  0.0354  1.2262 -4.2277
 6170SOL    HW324447   6.079   4.009   3.189 -0.6291 -0.3378  2.8830
 6170SOL    MW424448   6.026   4.078   3.190 -0.0586  0.3118 -0.3606
 6171SOL     OW24449   4.415   5.684   1.974 -0.4736 -0.1341 -0.3252
 6171SOL    HW224450   4.405   5.753   1.909 -0.6583  0.1761  0.0327
 6171SOL    HW324451   4.470   5.618   1.931  0.6523  0.7338 -0.2741
 6171SOL    MW424452   4.421   5.684   1.960 -0.3494  0.0214 -0.2712
 6172SOL     OW24453   2.243   4.945   5.338  0.5011 -0.1055  0.2172
 6172SOL    HW224454   2.173   5.003   5.368  0.1054 -0.4154 -0.0983
 6172SOL    HW324455   2.228   4.935   5.244  0.2697 -1.0916  0.3401
 6172SOL    MW424456   2.232   4.951   5.330  0.4184 -0.2765  0.1918
 6173SOL     OW24457   0.091   3.318   6.073  0.5115 -0.5957 -0.0931
 6173SOL    HW224458   0.108   3.271   6.155  2.4741 -1.8800 -1.1413
 6173SOL    HW324459   0.178   3.326   6.032 -0.3368  0.5159 -1.7918
 6173SOL    MW424460   0.105   3.313   6.079  0.6585 -0.6185 -0.4555
 6174SOL     OW24461   0.464   4.939   4.465  0.1585  0.4031  0.1267
 6174SOL    HW224462   0.531   4.928   4.531  1.1073  0.1780 -0.8428
 6174SOL    HW324463   0.403   4.867   4.479 -0.1925  0.9103  1.3477
 6174SOL    MW424464   0.465   4.928   4.475  0.2373  0.4403  0.1599
 6175SOL     OW24465   5.523   0.395   5.554 -0.0309 -0.4622 -0.3411
 6175SOL    HW224466   5.460   0.452   5.510 -1.4027 -0.9066  0.9429
 6175SOL    HW324467   5.570   0.453   5.614 -0.6375 -0.4623  0.1469
 6175SOL    MW424468   5.521   0.410   5.557 -0.2919 -0.5208 -0.1073
 6176SOL     OW24469   0.781   0.985   3.703  0.2826  0.0256 -0.2154
 6176SOL    HW224470   0.858   0.943   3.665 -0.3743 -0.9167 -0.5577
 6176SOL    HW324471   0.741   0.916   3.758  1.3070  1.3738  2.4080
 6176SOL    MW424472   0.786   0.970   3.705  0.3311  0.0791  0.0856
 6177SOL     OW24473   2.390   2.968   3.481 -0.1009 -0.0929  0.0619
 6177SOL    HW224474   2.460   3.003   3.536 -0.9714  1.2300  0.3588
 6177SOL    HW324475   2.436   2.931   3.405  1.0921 -1.7538  1.5064
 6177SOL    MW424476   2.405   2.968   3.478 -0.0584 -0.1375  0.2916
 6178SOL     OW24477   0.007   6.142   3.720  0.2403  0.7802 -0.4629
 6178SOL    HW224478  -0.017   6.235   3.723  0.0289  0.7096  0.2859
 6178SOL    HW324479  -0.048   6.101   3.787 -1.5748 -0.3447 -2.4991
 6178SOL    MW424480  -0.004   6.149   3.729 -0.0271  0.6225 -0.6328
 6179SOL     OW24481   3.354   5.496   6.228  0.2154  0.5311  0.0673
 6179SOL    HW224482   3.413   5.536   6.164  0.3723  1.3261  0.6965
 6179SOL    HW324483   3.268   5.496   6.184  0.7620 -1.2561 -1.1164
 6179SOL    MW424484   3.350   5.501   6.214  0.3082  0.4002 -0.0059
 6180SOL     OW24485   4.533   4.302   2.861 -0.1057  0.1279 -0.1572
 6180SOL    HW224486   4.555   4.282   2.952  0.1565 -3.4592 -0.8478
 6180SOL    HW324487   4.591   4.246   2.810 -0.0827  2.2068 -2.5939
 6180SOL    MW424488   4.543   4.292   2.866 -0.0681 -0.0711 -0.5698
 6181SOL     OW24489   4.179   4.590   2.235 -0.1201 -0.2526  0.0772
 6181SOL    HW224490   4.146   4.500   2.238  2.1162 -1.2833 -2.0357
 6181SOL    HW324491   4.136   4.629   2.159 -0.6647  0.2904  0.6572
 6181SOL    MW424492   4.169   4.583   2.225  0.1031 -0.3169 -0.1250
 6182SOL     OW24493   5.763   6.346   2.815  0.3997 -0.0633  0.0724
 6182SOL    HW224494   5.810   6.387   2.743  0.8186  0.6113  0.7148
 6182SOL    HW324495   5.826   6.285   2.854 -0.0658 -0.9921 -0.5779
 6182SOL    MW424496   5.777   6.343   2.811  0.3936 -0.0969  0.0714
 6183SOL     OW24497   2.565   4.001   1.115  0.1794  0.0072  0.2021
 6183SOL    HW224498   2.528   4.073   1.166  1.0692  0.7880 -0.2124
 6183SOL    HW324499   2.594   4.043   1.034  2.4153 -0.4344  0.7082
 6183SOL    MW424500   2.564   4.016   1.111  0.5918  0.0519  0.2142
 6184SOL     OW24501   4.627   0.904   4.156 -0.6512 -0.0158 -0.2885
 6184SOL    HW224502   4.628   0.864   4.243  1.5162 -0.3269 -0.3878
 6184SOL    HW324503   4.628   0.829   4.096 -0.3867  0.1804 -0.5334
 6184SOL    MW424504   4.628   0.889   4.160 -0.3303 -0.0309 -0.3339
 6185SOL     OW24505   3.419   5.191   0.362  0.4973 -0.1388 -1.0765
 6185SOL    HW224506   3.478   5.170   0.290  0.1232 -0.0901 -1.3997
 6185SOL    HW324507   3.332   5.169   0.330  0.3152 -0.0304 -0.6729
 6185SOL    MW424508   3.416   5.186   0.349  0.4239 -0.1181 -1.0659
 6186SOL     OW24509   0.387   4.779   1.541 -0.4169  0.1907 -0.3129
 6186SOL    HW224510   0.424   4.865   1.562 -2.4664  0.6450  1.7618
 6186SOL    HW324511   0.292   4.792   1.545 -0.7822 -2.1615 -0.0593
 6186SOL    MW424512   0.379   4.792   1.544 -0.7355 -0.0597 -0.0057
 6187SOL     OW24513   5.886   3.389   4.222  0.2114  0.6004  0.2814
 6187SOL    HW224514   5.874   3.458   4.157 -0.2164  0.0655 -0.2268
 6187SOL    HW324515   5.928   3.432   4.296  1.9676  0.9613 -0.8666
 6187SOL    MW424516   5.890   3.404   4.223  0.3866  0.5775  0.0629
 6188SOL     OW24517   0.994   3.343   3.416  0.5052 -0.0271  0.4449
 6188SOL    HW224518   1.069   3.374   3.465  1.4388 -1.2428 -0.1446
 6188SOL    HW324519   0.990   3.400   3.339  0.8676  0.0139  0.4554
 6188SOL    MW424520   1.003   3.355   3.412  0.6762 -0.1821  0.3685
 6189SOL     OW24521   5.860   2.245   1.203  0.1511  0.1856 -0.3029
 6189SOL    HW224522   5.775   2.259   1.243 -0.4218 -3.4359  0.1135
 6189SOL    HW324523   5.913   2.319   1.231 -2.0923  1.1468  1.6947
 6189SOL    MW424524   5.856   2.256   1.212 -0.2205 -0.1654  0.0156
 6190SOL     OW24525   4.949   5.288   1.660  0.7374  0.0436 -0.4772
 6190SOL    HW224526   4.955   5.195   1.636 -1.1799 -0.0428 -0.7665
 6190SOL    HW324527   5.012   5.298   1.731  0.8539 -1.5292 -0.3240
 6190SOL    MW424528   4.958   5.277   1.666  0.4998 -0.1753 -0.4952
 6191SOL     OW24529   3.867   2.147   1.988  0.0325 -0.0108  0.2519
 6191SOL    HW224530   3.961   2.148   1.974  0.1233 -1.0723  0.7402
 6191SOL    HW324531   3.830   2.178   1.905  0.7821 -0.1760 -0.1456
 6191SOL    MW424532   3.874   2.152   1.975  0.1434 -0.1726  0.2639
 6192SOL     OW24533   0.898   3.003   1.195 -0.5567  0.3662 -0.0973
 6192SOL    HW224534   0.920   3.056   1.118  0.7730 -1.5512 -1.1304
 6192SOL    HW324535   0.883   2.916   1.159  0.0476 -0.5615  1.8240
 6192SOL    MW424536   0.899   2.999   1.180 -0.3015 -0.0092  0.0199
 6193SOL     OW24537   3.739   6.171   1.384 -0.3372  0.7394 -0.3773
 6193SOL    HW224538   3.754   6.093   1.330 -1.5133  1.1206 -1.2968
 6193SOL    HW324539   3.825   6.191   1.420  0.0916 -0.6805 -0.5280
 6193SOL    MW424540   3.752   6.163   1.382 -0.4358  0.6023 -0.5185
 6194SOL     OW24541   1.824   5.567   5.002 -0.2479 -0.3140 -0.1174
 6194SOL    HW224542   1.900   5.509   4.997  0.0385  0.1423 -1.4363
 6194SOL    HW324543   1.833   5.626   4.927 -1.6187  0.1085  0.0130
 6194SOL    MW424544   1.835   5.568   4.992 -0.3909 -0.1980 -0.2742
 6195SOL     OW24545   2.879   4.756   0.057  0.1278 -0.5544  0.1107
 6195SOL    HW224546   2.891   4.664   0.079 -1.9303 -1.0026 -0.4128
 6195SOL    HW324547   2.828   4.755  -0.025  0.4332  1.0408 -0.1395
 6195SOL    MW424548   2.874   4.744   0.049 -0.1035 -0.4031  0.0086
 6196SOL     OW24549   2.132   6.378   4.790  0.2557 -0.6059  0.5094
 6196SOL    HW224550   2.057   6.429   4.761  0.9287  0.5855  0.8246
 6196SOL    HW324551   2.122   6.294   4.744 -1.2837 -0.5062  0.5947
 6196SOL    MW424552   2.121   6.373   4.780  0.1414 -0.4355  0.5623
 6197SOL     OW24553   6.091   3.250   5.423  0.4310 -0.4025 -0.5366
 6197SOL    HW224554   6.175   3.267   5.467  1.1807 -2.1516 -1.2095
 6197SOL    HW324555   6.034   3.217   5.492  0.7491 -0.5715 -0.3515
 6197SOL    MW424556   6.095   3.248   5.438  0.5719 -0.6556 -0.6009
 6198SOL     OW24557   2.424   0.098   1.735 -0.8757 -0.5048  0.2109
 6198SOL    HW224558   2.469   0.073   1.816 -2.8020  0.3317  1.6010
 6198SOL    HW324559   2.477   0.058   1.666  0.6976 -1.4682  1.8717
 6198SOL    MW424560   2.437   0.089   1.737 -0.9223 -0.5215  0.6134
 6199SOL     OW24561   0.612   5.778   5.756 -0.2330  0.0332  0.5513
 6199SOL    HW224562   0.679   5.822   5.810  1.1894  0.2105 -1.2630
 6199SOL    HW324563   0.568   5.849   5.709  0.4648 -0.2752 -0.6112
 6199SOL    MW424564   0.615   5.793   5.757  0.0467  0.0159  0.1585
 6200SOL     OW24565   0.471   6.393   5.069 -0.0865 -0.4660  0.1008
 6200SOL    HW224566   0.566   6.389   5.086 -0.2004  0.2164  0.9943
 6200SOL    HW324567   0.457   6.334   4.995  1.1716  0.0643 -0.5933
 6200SOL    MW424568   0.482   6.385   5.062  0.0645 -0.3060  0.1271
 6201SOL     OW24569   1.499   5.833   5.050  0.4369  0.3845 -0.6823
 6201SOL    HW224570   1.543   5.776   5.113 -1.0973 -1.2625 -0.9993
 6201SOL    HW324571   1.523   5.797   4.964 -2.2387 -1.2496 -0.8466
 6201SOL    MW424572   1.508   5.821   5.047 -0.1185 -0.0484 -0.7458
 6202SOL     OW24573   1.280   3.847   0.140 -0.2193  0.0708  0.0232
 6202SOL    HW224574   1.347   3.915   0.137 -0.0510 -0.1058 -0.2184
 6202SOL    HW324575   1.273   3.824   0.233 -0.2073  0.3464  0.0935
 6202SOL    MW424576   1.288   3.853   0.152 -0.1956  0.0838  0.0006
 6203SOL     OW24577   2.870   5.305   2.106 -0.7956 -0.0145  0.0393
 6203SOL    HW224578   2.845   5.245   2.177 -1.6866  0.5600  0.2269
 6203SOL    HW324579   2.859   5.392   2.144  1.3966  0.2827  0.0747
 6203SOL    MW424580   2.865   5.308   2.120 -0.6239  0.1005  0.0687
 6204SOL     OW24581   0.904   5.620   5.721  0.2813 -0.0188  0.1535
 6204SOL    HW224582   0.818   5.588   5.695  0.7888 -1.0784 -0.2819
 6204SOL    HW324583   0.936   5.556   5.784  0.3082  0.9543  1.1585
 6204SOL    MW424584   0.897   5.607   5.726  0.3518 -0.0302  0.2286
 6205SOL     OW24585   5.832   5.497   5.885  0.1273  0.1655  0.3225
 6205SOL    HW224586   5.868   5.459   5.805  1.2473  0.2805  0.7471
 6205SOL    HW324587   5.813   5.422   5.942  0.8223  0.1422  0.5404
 6205SOL    MW424588   5.834   5.482   5.882  0.3668  0.1776  0.4073
 6206SOL     OW24589   1.525   4.688   5.324 -0.0592  0.4641  0.1105
 6206SOL    HW224590   1.590   4.636   5.371  0.5552 -1.0558 -2.2319
 6206SOL    HW324591   1.575   4.758   5.283 -0.3592  0.9393  0.5488
 6206SOL    MW424592   1.540   4.690   5.325 -0.0177  0.3263 -0.1407
 6207SOL     OW24593   2.944   2.189   0.292  0.4322 -0.7609 -0.3854
 6207SOL    HW224594   2.983   2.268   0.330 -1.5636  0.0359  0.1595
 6207SOL    HW324595   2.944   2.125   0.364  0.7183 -0.7465 -0.3747
 6207SOL    MW424596   2.949   2.191   0.307  0.2066 -0.6539 -0.3121
 6208SOL     OW24597   1.336   0.722   0.714 -0.3191  0.4627  0.3654
 6208SOL    HW224598   1.341   0.656   0.645 -1.4453  1.8491 -1.1318
 6208SOL    HW324599   1.423   0.761   0.716 -0.0414 -0.1401  0.2937
 6208SOL    MW424600   1.348   0.719   0.705 -0.4311  0.5661  0.1584
 6209SOL     OW24601   6.066   1.881   4.840 -0.4100  0.1748  0.1621
 6209SOL    HW224602   6.005   1.953   4.825  0.3481  0.6997 -0.4410
 6209SOL    HW324603   6.136   1.919   4.892 -1.0774 -0.6838  1.7783
 6209SOL    MW424604   6.067   1.895   4.845 -0.3981  0.1307  0.2957
 6210SOL     OW24605   0.548   4.761   0.384 -0.9330 -0.3715 -0.2898
 6210SOL    HW224606   0.535   4.694   0.451  3.2568 -0.5167  0.6246
 6210SOL    HW324607   0.604   4.720   0.319  1.2751  1.9263 -0.0155
 6210SOL    MW424608   0.553   4.747   0.385 -0.0889 -0.0875 -0.1330
 6211SOL     OW24609   0.421   0.608   4.564  0.4549  0.7530  0.2899
 6211SOL    HW224610   0.413   0.535   4.626  0.1003  1.6085  1.2840
 6211SOL    HW324611   0.502   0.653   4.590  0.8473  0.5207 -0.5276
 6211SOL    MW424612   0.430   0.604   4.576  0.4599  0.8352  0.3132
 6212SOL     OW24613   4.027   1.919   1.276 -0.0858 -0.3837  0.2002
 6212SOL    HW224614   4.010   1.949   1.186  2.2341 -1.5981 -0.7121
 6212SOL    HW324615   4.081   1.988   1.314  0.8831 -0.9358 -0.1477
 6212SOL    MW424616   4.032   1.932   1.269  0.3481 -0.6167  0.0339
 6213SOL     OW24617   2.080   0.144   6.136 -0.0321  0.0720 -0.5163
 6213SOL    HW224618   2.041   0.127   6.050 -0.9676 -3.3346  0.4295
 6213SOL    HW324619   2.173   0.123   6.125  0.5035  2.5559 -1.3341
 6213SOL    MW424620   2.087   0.139   6.123 -0.0849 -0.0498 -0.4994
 6214SOL     OW24621   3.523   0.477   6.357  0.1357 -0.0197 -0.0698
 6214SOL    HW224622   3.534   0.460   6.450 -1.7685 -0.7953  0.0741
 6214SOL    HW324623   3.584   0.418   6.314 -1.2200 -2.0850  0.6517
 6214SOL    MW424624   3.532   0.467   6.364 -0.2944 -0.3945  0.0444
 6215SOL     OW24625   2.488   4.059   6.131 -0.3371 -0.4026  0.0119
 6215SOL    HW224626   2.446   4.131   6.084 -0.1162 -0.7933 -0.7817
 6215SOL    HW324627   2.547   4.019   6.068  1.3469  0.1918  1.1356
 6215SOL    MW424628   2.490   4.063   6.117 -0.0858 -0.3757  0.0554
 6216SOL     OW24629   6.284   2.780   2.516 -0.2718  0.3283 -0.1138
 6216SOL    HW224630   6.331   2.821   2.443 -0.4824  0.3387 -0.2431
 6216SOL    HW324631   6.241   2.704   2.477  2.4322 -1.7567  0.6400
 6216SOL    MW424632   6.285   2.776   2.501  0.0572  0.0545 -0.0314
 6217SOL     OW24633   6.180   4.739   3.704  0.0054  0.2684  0.0935
 6217SOL    HW224634   6.138   4.823   3.686  0.5438  0.1272 -2.1679
 6217SOL    HW324635   6.257   4.761   3.757 -0.7006  1.0045  0.8294
 6217SOL    MW424636   6.185   4.753   3.708 -0.0167  0.3469 -0.1078
 6218SOL     OW24637   1.042   5.055   0.918  0.3176 -0.1689  0.3111
 6218SOL    HW224638   1.060   4.967   0.950 -3.2750 -1.0301  0.4264
 6218SOL    HW324639   1.028   5.107   0.997 -1.8244 -0.6272  0.2849
 6218SOL    MW424640   1.043   5.050   0.932 -0.4390 -0.3430  0.3229
 6219SOL     OW24641   1.803   3.037   2.209  1.0334  0.3463 -0.5434
 6219SOL    HW224642   1.753   3.054   2.130  1.3008  0.4176 -0.6994
 6219SOL    HW324643   1.848   3.120   2.226 -0.5965  1.0125  0.8293
 6219SOL    MW424644   1.802   3.050   2.201  0.8536  0.4436 -0.3828
 6220SOL     OW24645   3.798   1.875   4.726 -0.2540  0.5125 -0.2338
 6220SOL    HW224646   3.828   1.936   4.659 -1.5671  0.8884 -0.5119
 6220SOL    HW324647   3.805   1.789   4.685  0.7833  0.5512 -0.1496
 6220SOL    MW424648   3.803   1.872   4.711 -0.2904  0.5672 -0.2594
 6221SOL     OW24649   1.680   1.911   3.995  0.4302 -0.0498 -0.0058
 6221SOL    HW224650   1.666   2.002   4.022 -0.1587 -0.5987  1.6923
 6221SOL    HW324651   1.594   1.870   4.004 -0.2083 -0.0393 -4.2049
 6221SOL    MW424652   1.667   1.918   4.000  0.2682 -0.1209 -0.3358
 6222SOL     OW24653   1.198   6.406   0.943  0.3196  0.1684 -0.4969
 6222SOL    HW224654   1.112   6.448   0.943  0.2975  0.2273  1.2877
 6222SOL    HW324655   1.181   6.316   0.971  0.8265  0.2255  0.0341
 6222SOL    MW424656   1.185   6.400   0.947  0.3836  0.1837 -0.1914
 6223SOL     OW24657   1.812   5.810   5.883  0.1095 -0.1693  0.5905
 6223SOL    HW224658   1.765   5.734   5.918 -0.6536 -0.7081 -1.4389
 6223SOL    HW324659   1.905   5.784   5.886  0.1123 -0.0752  2.3704
 6223SOL    MW424660   1.818   5.796   5.888  0.0092 -0.2280  0.5576
 6224SOL     OW24661   6.221   4.561   6.365  0.3071 -0.1050 -0.3936
 6224SOL    HW224662   6.136   4.580   6.404 -0.3605  0.4501 -2.0481
 6224SOL    HW324663   6.274   4.638   6.386 -0.3742  0.6758 -1.4607
 6224SOL    MW424664   6.217   4.574   6.373  0.1292  0.0712 -0.7527
 6225SOL     OW24665   0.895   1.289   4.622  0.4630 -0.0917 -0.0413
 6225SOL    HW224666   0.887   1.242   4.704  2.4266 -1.4674 -0.5696
 6225SOL    HW324667   0.806   1.294   4.588 -0.3933  0.5811  2.1610
 6225SOL    MW424668   0.882   1.284   4.628  0.6091 -0.1844  0.1796
 6226SOL     OW24669   3.567   5.982   5.500 -0.0543 -0.7927  0.7264
 6226SOL    HW224670   3.626   5.968   5.426 -0.3781  1.3011  0.0017
 6226SOL    HW324671   3.574   5.901   5.552  0.6814 -2.0485 -1.2123
 6226SOL    MW424672   3.576   5.969   5.497  0.0000 -0.6822  0.3750
 6227SOL     OW24673   0.356   4.650   6.192 -0.4142 -0.4884 -0.0598
 6227SOL    HW224674   0.419   4.704   6.144 -0.7190  0.3260  0.4423
 6227SOL    HW324675   0.271   4.676   6.158 -0.6319  0.0638  0.8775
 6227SOL    MW424676   0.353   4.660   6.181 -0.4831 -0.3081  0.1301
 6228SOL     OW24677   4.685   4.181   0.291 -0.0816  0.0836  0.4191
 6228SOL    HW224678   4.692   4.106   0.350  2.1003 -0.9642 -1.0374
 6228SOL    HW324679   4.767   4.228   0.302 -0.1896  0.6030 -0.8281
 6228SOL    MW424680   4.697   4.178   0.300  0.1920  0.0139  0.0624
 6229SOL     OW24681   3.283   2.787   1.699  0.1335 -0.1846  0.3816
 6229SOL    HW224682   3.229   2.709   1.694  1.1047 -0.8744  0.4159
 6229SOL    HW324683   3.253   2.833   1.778 -0.1646 -0.7339  0.5868
 6229SOL    MW424684   3.272   2.783   1.709  0.2223 -0.3481  0.4132
 6230SOL     OW24685   1.951   4.102   6.177 -0.0948 -0.7520 -0.3481
 6230SOL    HW224686   2.006   4.179   6.192 -2.1892  0.5192  1.3580
 6230SOL    HW324687   2.000   4.049   6.114  2.4281  0.9078  0.1030
 6230SOL    MW424688   1.965   4.105   6.170 -0.0383 -0.3653 -0.0635
 6231SOL     OW24689   0.996   6.195   5.475 -0.7426 -0.3036 -0.1769
 6231SOL    HW224690   1.071   6.224   5.528  0.1452 -0.1544 -1.4708
 6231SOL    HW324691   1.020   6.107   5.446 -1.8059 -0.9069  0.7283
 6231SOL    MW424692   1.009   6.187   5.478 -0.7657 -0.3635 -0.2282
 6232SOL     OW24693   4.023   4.217   5.109 -0.0239 -0.5971 -0.0830
 6232SOL    HW224694   3.942   4.263   5.130  1.1200  1.8574 -0.7070
 6232SOL    HW324695   4.061   4.194   5.194  0.0843  0.9676  0.3150
 6232SOL    MW424696   4.018   4.220   5.123  0.1413 -0.0668 -0.1128
 6233SOL     OW24697   5.902   0.965   3.091  0.0409  0.0183 -0.2999
 6233SOL    HW224698   5.885   1.054   3.122 -0.5767 -0.4070  0.6037
 6233SOL    HW324699   5.816   0.923   3.089  0.4296 -0.8064  0.0490
 6233SOL    MW424700   5.888   0.971   3.095  0.0107 -0.1467 -0.1347
 6234SOL     OW24701   6.382   5.373   1.326 -0.0947  0.0282  0.3901
 6234SOL    HW224702   6.317   5.333   1.383 -1.4757  1.1728 -0.3414
 6234SOL    HW324703   6.361   5.466   1.325  1.3726  0.3851 -0.1060
 6234SOL    MW424704   6.371   5.380   1.333 -0.0833  0.2263  0.2281
 6235SOL     OW24705   2.514   1.422   4.759  0.0274 -0.3697  0.2160
 6235SOL    HW224706   2.597   1.422   4.807 -0.0000 -0.0982  0.2680
 6235SOL    HW324707   2.504   1.332   4.728  0.4129 -0.3731  0.0870
 6235SOL    MW424708   2.524   1.410   4.761  0.0746 -0.3343  0.2058
 6236SOL     OW24709   2.522   5.168   1.294 -0.6114 -0.0095 -0.2639
 6236SOL    HW224710   2.593   5.228   1.269 -1.7921  2.0134  0.9470
 6236SOL    HW324711   2.458   5.177   1.224 -0.9578  0.4857  0.1051
 6236SOL    MW424712   2.523   5.177   1.281 -0.8129  0.3227 -0.0554
 6237SOL     OW24713   3.153   1.969   2.693  0.2049 -0.0995  0.2179
 6237SOL    HW224714   3.172   1.920   2.612  0.8146 -0.7413  0.7301
 6237SOL    HW324715   3.167   2.060   2.669 -0.4365 -0.2016 -0.6208
 6237SOL    MW424716   3.158   1.974   2.679  0.2007 -0.1976  0.1748
 6238SOL     OW24717   5.880   6.060   0.330  0.1887 -0.5008 -0.1636
 6238SOL    HW224718   5.828   5.986   0.300 -0.9930  0.1838  0.1315
 6238SOL    HW324719   5.916   6.031   0.414 -0.5620 -0.6203  0.1253
 6238SOL    MW424720   5.878   6.047   0.337 -0.0663 -0.4262 -0.0866
 6239SOL     OW24721   5.577   5.705   0.877 -0.0682 -0.1718 -0.4411
 6239SOL    HW224722   5.512   5.774   0.864 -0.7340 -0.2866  1.7739
 6239SOL    HW324723   5.661   5.745   0.856 -0.5439  1.0213 -0.1309
 6239SOL    MW424724   5.579   5.719   0.872 -0.2188 -0.0296 -0.1079
 6240SOL     OW24725   3.839   0.402   2.075  0.6242  0.1870  0.7313
 6240SOL    HW224726   3.777   0.392   2.147  1.7684 -0.6686  1.6440
 6240SOL    HW324727   3.785   0.413   1.997 -0.6506 -0.2028  1.5377
 6240SOL    MW424728   3.824   0.402   2.074  0.6069  0.0227  0.9581
 6241SOL     OW24729   3.458   2.564   1.683  0.2862 -0.0918  0.4759
 6241SOL    HW224730   3.545   2.565   1.722  0.5220  0.0840 -0.0431
 6241SOL    HW324731   3.432   2.656   1.681  0.0664 -0.1485  0.6747
 6241SOL    MW424732   3.466   2.576   1.688  0.2883 -0.0761  0.4336
 6242SOL     OW24733   0.537   0.502   2.769 -0.7750  0.9167 -0.6701
 6242SOL    HW224734   0.511   0.468   2.683  0.5668 -0.7652 -0.4551
 6242SOL    HW324735   0.605   0.567   2.750 -1.1557  1.2488 -0.9175
 6242SOL    MW424736   0.542   0.506   2.755 -0.6482  0.7386 -0.6744
 6243SOL     OW24737   4.355   5.381   6.056  0.3486  0.0906  0.0504
 6243SOL    HW224738   4.383   5.291   6.074 -0.7745  0.1416  2.4484
 6243SOL    HW324739   4.345   5.420   6.142 -0.6527  2.0735 -0.9127
 6243SOL    MW424740   4.357   5.374   6.070  0.0683  0.3589  0.2397
 6244SOL     OW24741   5.218   4.491   4.154  0.1653 -0.2043 -0.1369
 6244SOL    HW224742   5.308   4.523   4.150  0.2021 -0.3913 -2.6856
 6244SOL    HW324743   5.226   4.401   4.185  1.0343 -0.5929 -1.3862
 6244SOL    MW424744   5.231   4.483   4.157  0.2848 -0.2802 -0.6380
 6245SOL     OW24745   4.485   5.819   4.493  0.3870  0.4688 -0.0511
 6245SOL    HW224746   4.532   5.738   4.512  0.8746  1.0793  1.5975
 6245SOL    HW324747   4.450   5.846   4.578 -0.0112  1.8247 -0.6189
 6245SOL    MW424748   4.487   5.812   4.507  0.3988  0.7282  0.0915
 6246SOL     OW24749   3.433   2.183   5.701 -0.2615  0.1358 -0.1440
 6246SOL    HW224750   3.355   2.185   5.646 -0.4162  1.7261  0.0897
 6246SOL    HW324751   3.400   2.178   5.791 -0.0698  0.1053 -0.0733
 6246SOL    MW424752   3.418   2.182   5.706 -0.2566  0.3416 -0.1038
 6247SOL     OW24753   5.905   2.097   4.715 -0.5568  0.3889 -0.8130
 6247SOL    HW224754   5.971   2.160   4.745 -0.7400  0.0682  0.3348
 6247SOL    HW324755   5.944   2.057   4.638  0.8754 -0.1956  0.1580
 6247SOL    MW424756   5.919   2.100   4.709 -0.3920  0.2695 -0.5334
 6248SOL     OW24757   5.952   4.285   1.338  0.2732  0.1245 -0.4090
 6248SOL    HW224758   5.944   4.372   1.299  1.7678  0.8480  0.8129
 6248SOL    HW324759   6.012   4.238   1.279 -0.6783 -0.1872 -1.1708
 6248SOL    MW424760   5.958   4.290   1.325  0.3449  0.1788 -0.3483
 6249SOL     OW24761   2.092   4.812   0.940 -0.2807  0.1592  0.5492
 6249SOL    HW224762   2.063   4.881   1.000 -0.8773  0.1108  0.3283
 6249SOL    HW324763   2.118   4.740   0.997  2.5135  1.3251  0.8980
 6249SOL    MW424764   2.091   4.812   0.955  0.0093  0.3066  0.5661
 6250SOL     OW24765   2.548   0.600   2.798  0.3606  0.0104  0.0096
 6250SOL    HW224766   2.514   0.511   2.784 -1.4293  0.2386  2.4058
 6250SOL    HW324767   2.598   0.595   2.879  3.2459  0.5252 -1.5914
 6250SOL    MW424768   2.550   0.588   2.807  0.5051  0.1085  0.1145
 6251SOL     OW24769   0.300   0.626   3.010  0.5864 -0.7827  0.0353
 6251SOL    HW224770   0.330   0.599   3.097  2.3851 -1.3741 -0.7191
 6251SOL    HW324771   0.290   0.544   2.962 -3.8901 -0.7879  0.6288
 6251SOL    MW424772   0.303   0.612   3.015  0.2331 -0.8614  0.0141
 6252SOL     OW24773   1.610   0.676   2.882  1.0985 -0.1906 -0.0280
 6252SOL    HW224774   1.585   0.764   2.856 -0.9809 -0.1878  1.7098
 6252SOL    HW324775   1.646   0.636   2.802 -2.7941  0.4985 -2.3577
 6252SOL    MW424776   1.612   0.682   2.868  0.3106 -0.0993 -0.1061
 6253SOL     OW24777   6.173   2.574   0.945 -0.2806 -0.5886 -0.2884
 6253SOL    HW224778   6.157   2.667   0.930  1.1879 -0.4964 -1.5106
 6253SOL    HW324779   6.150   2.532   0.863 -0.9480 -1.3291  0.2642
 6253SOL    MW424780   6.168   2.581   0.933 -0.1749 -0.6741 -0.3768
 6254SOL     OW24781   4.697   1.848   0.702 -0.1191  0.5669 -0.1484
 6254SOL    HW224782   4.756   1.878   0.771 -0.0239  0.6991 -0.2857
 6254SOL    HW324783   4.747   1.781   0.656 -0.6057 -0.3399  0.6173
 6254SOL    MW424784   4.711   1.843   0.705 -0.1708  0.4647 -0.0655
 6255SOL     OW24785   3.700   2.975   5.053  0.3318  0.3091  0.2545
 6255SOL    HW224786   3.727   2.922   4.978 -1.2815  1.2297 -1.0491
 6255SOL    HW324787   3.663   2.912   5.115  2.3274 -0.5450  0.6461
 6255SOL    MW424788   3.699   2.960   5.051  0.3822  0.3178  0.1342
 6256SOL     OW24789   0.191   3.792   3.979  0.4275 -0.1946  0.0050
 6256SOL    HW224790   0.222   3.869   3.932 -0.4372 -0.2232 -0.6491
 6256SOL    HW324791   0.098   3.809   3.994 -0.1035 -1.6451 -1.3248
 6256SOL    MW424792   0.182   3.804   3.975  0.2433 -0.3897 -0.2567
 6257SOL     OW24793   1.570   1.360   2.738  0.4549  0.0666  0.2886
 6257SOL    HW224794   1.560   1.355   2.833  0.5684  1.5565  0.4155
 6257SOL    HW324795   1.481   1.350   2.703  0.6044 -2.1330  0.4154
 6257SOL    MW424796   1.557   1.358   2.746  0.4896 -0.0270  0.3221
 6258SOL     OW24797   1.838   2.572   1.503  0.1982  0.0079  0.1452
 6258SOL    HW224798   1.757   2.614   1.532 -0.5062 -0.4558 -1.0963
 6258SOL    HW324799   1.866   2.519   1.577 -0.7869 -0.0568  0.4750
 6258SOL    MW424800   1.831   2.571   1.516 -0.0247 -0.0618  0.0249
 6259SOL     OW24801   6.147   6.215   0.587  0.2147 -0.3450  0.0439
 6259SOL    HW224802   6.207   6.198   0.515  0.5016 -2.7859  0.7770
 6259SOL    HW324803   6.084   6.278   0.551  1.5555  0.1281 -1.6231
 6259SOL    MW424804   6.147   6.221   0.573  0.4294 -0.6046 -0.0793
 6260SOL     OW24805   3.430   6.356   2.874  0.1836 -0.0986 -0.1071
 6260SOL    HW224806   3.426   6.447   2.844 -2.0593  0.2465  0.9929
 6260SOL    HW324807   3.372   6.309   2.814  0.5667 -0.6296 -0.0729
 6260SOL    MW424808   3.422   6.361   2.862 -0.0618 -0.1231  0.0426
 6261SOL     OW24809   3.141   0.486   5.904  0.7052  0.2793  0.0195
 6261SOL    HW224810   3.065   0.473   5.961  0.3830  1.0857 -0.2092
 6261SOL    HW324811   3.126   0.426   5.830  0.4400  0.2170  0.1219
 6261SOL    MW424812   3.129   0.476   5.902  0.6277  0.3775  0.0029
 6262SOL     OW24813   3.811   2.923   1.182 -0.0059  0.0900  0.0460
 6262SOL    HW224814   3.853   2.953   1.262  1.8667 -0.3959 -0.6890
 6262SOL    HW324815   3.866   2.958   1.112 -1.1546 -0.1471 -0.9958
 6262SOL    MW424816   3.824   2.931   1.183  0.0896 -0.0054 -0.1884
 6263SOL     OW24817   5.253   3.300   5.456 -0.2387 -0.2793 -0.8306
 6263SOL    HW224818   5.240   3.341   5.542 -1.2542 -1.0569 -0.5996
 6263SOL    HW324819   5.332   3.247   5.466  0.2800  0.4934 -0.7177
 6263SOL    MW424820   5.262   3.299   5.469 -0.3042 -0.2799 -0.7852
 6264SOL     OW24821   4.850   2.637   1.612  0.1172  0.0838 -0.2293
 6264SOL    HW224822   4.768   2.598   1.643  0.2714  0.9678  1.3840
 6264SOL    HW324823   4.871   2.703   1.677  1.3596  0.8956 -1.4046
 6264SOL    MW424824   4.842   2.640   1.624  0.3014  0.3075 -0.1715
 6265SOL     OW24825   2.917   2.638   1.382 -0.3523  0.2396 -0.7988
 6265SOL    HW224826   2.901   2.673   1.470 -0.4934  2.1692 -1.5535
 6265SOL    HW324827   2.834   2.596   1.358 -1.2801  2.1520 -1.0761
 6265SOL    MW424828   2.904   2.637   1.391 -0.4933  0.7465 -0.9350
 6266SOL     OW24829   5.931   0.713   3.471 -0.1326 -0.3252  0.4233
 6266SOL    HW224830   6.016   0.753   3.486 -0.5843  0.1290  1.9654
 6266SOL    HW324831   5.943   0.658   3.394  0.9431  1.4850 -0.7531
 6266SOL    MW424832   5.944   0.711   3.463 -0.0503 -0.0264  0.4716
 6267SOL     OW24833   2.991   4.125   4.003  0.1589 -1.1872  0.0257
 6267SOL    HW224834   2.956   4.043   4.037 -0.7147  0.4478  3.5147
 6267SOL    HW324835   3.053   4.155   4.071  1.7184  0.2665 -1.9058
 6267SOL    MW424836   2.995   4.118   4.017  0.2494 -0.7797  0.2312
 6268SOL     OW24837   6.086   4.996   3.686  0.4876  0.1162  0.0126
 6268SOL    HW224838   6.138   5.069   3.652  0.2681  0.4166  0.3124
 6268SOL    HW324839   6.030   4.971   3.613  1.0708 -0.2340 -0.3262
 6268SOL    MW424840   6.086   5.002   3.672  0.5356  0.1096  0.0074
 6269SOL     OW24841   1.825   2.573   4.627  0.4347 -0.0102  0.0918
 6269SOL    HW224842   1.851   2.503   4.568 -1.7310 -1.3649  0.6447
 6269SOL    HW324843   1.820   2.532   4.713 -0.6794  0.8433  0.4633
 6269SOL    MW424844   1.828   2.559   4.630  0.0020 -0.0763  0.2137
 6270SOL     OW24845   1.692   5.577   5.958 -0.6431 -0.0358 -0.3209
 6270SOL    HW224846   1.668   5.533   5.877  2.6997  0.9491 -2.0234
 6270SOL    HW324847   1.755   5.517   6.000 -0.4967  0.5298  0.2868
 6270SOL    MW424848   1.697   5.563   5.953 -0.1827  0.1688 -0.4653
 6271SOL     OW24849   4.386   0.534   2.881  1.1352  0.0051 -0.5261
 6271SOL    HW224850   4.437   0.481   2.942  1.1015 -0.4672 -0.8986
 6271SOL    HW324851   4.441   0.539   2.802  0.1222 -1.5433 -1.3886
 6271SOL    MW424852   4.400   0.528   2.879  0.9971 -0.2615 -0.6890
 6272SOL     OW24853   0.477   3.620   3.623 -0.0030 -0.8418  0.4716
 6272SOL    HW224854   0.565   3.613   3.661  0.3832 -1.4365 -0.5023
 6272SOL    HW324855   0.420   3.586   3.692  0.6265 -1.3804  0.7463
 6272SOL    MW424856   0.481   3.615   3.637  0.1310 -0.9913  0.3793
 6273SOL     OW24857   2.704   3.345   1.155  0.2238  0.2405  0.3097
 6273SOL    HW224858   2.785   3.396   1.162  1.4699 -1.4277 -1.1567
 6273SOL    HW324859   2.706   3.308   1.067 -1.3769 -1.1090  0.7911
 6273SOL    MW424860   2.715   3.347   1.145  0.1770 -0.1576  0.1798
 6274SOL     OW24861   3.254   4.420   5.589  0.0157  0.0703 -0.2281
 6274SOL    HW224862   3.195   4.349   5.561 -0.8231  0.5478  0.2903
 6274SOL    HW324863   3.203   4.470   5.652  0.9248  0.6155  0.0896
 6274SOL    MW424864   3.239   4.417   5.593  0.0250  0.2053 -0.1178
 6275SOL     OW24865   0.181   2.745   0.526  0.3144  0.0327 -0.0499
 6275SOL    HW224866   0.147   2.702   0.447  1.5325 -0.6398 -0.2344
 6275SOL    HW324867   0.134   2.828   0.530 -0.8965 -0.5828 -0.6160
 6275SOL    MW424868   0.170   2.750   0.516  0.3154 -0.1372 -0.1489
 6276SOL     OW24869   1.710   2.731   3.794  0.4723  0.0520 -0.4155
 6276SOL    HW224870   1.683   2.776   3.875 -2.1562  0.3138 -1.3547
 6276SOL    HW324871   1.761   2.797   3.746 -0.5926  0.9658 -0.3248
 6276SOL    MW424872   1.713   2.746   3.798 -0.0150  0.2071 -0.5275
 6277SOL     OW24873   4.341   1.220   2.767  0.1073  0.3527  0.3525
 6277SOL    HW224874   4.271   1.279   2.737 -0.1746  1.1759  2.4925
 6277SOL    HW324875   4.419   1.276   2.771  0.4230 -0.0525  0.0181
 6277SOL    MW424876   4.342   1.236   2.763  0.1118  0.4078  0.5908
 6278SOL     OW24877   4.508   5.296   4.850  0.0336  0.6114  0.0865
 6278SOL    HW224878   4.499   5.338   4.936  0.1395 -0.7701  0.8109
 6278SOL    HW324879   4.596   5.318   4.822  0.6592 -0.3663  1.1792
 6278SOL    MW424880   4.518   5.304   4.858  0.1301  0.3001  0.3263
 6279SOL     OW24881   1.054   3.410   0.885 -0.2765 -0.3469  0.1202
 6279SOL    HW224882   0.973   3.453   0.856 -1.6247 -1.5871  1.7700
 6279SOL    HW324883   1.050   3.415   0.981  0.7900 -1.8580  0.2725
 6279SOL    MW424884   1.043   3.417   0.894 -0.3137 -0.7099  0.3580
 6280SOL     OW24885   4.897   0.887   3.501 -0.0112 -0.3001  0.1588
 6280SOL    HW224886   4.868   0.859   3.588  2.1565 -1.0874  0.7030
 6280SOL    HW324887   4.816   0.902   3.453 -1.2844 -1.0170  1.9343
 6280SOL    MW424888   4.883   0.885   3.506  0.1068 -0.4986  0.4648
 6281SOL     OW24889   2.382   1.031   6.315  0.1685  0.2396  0.2099
 6281SOL    HW224890   2.437   1.051   6.240  0.3702  0.0840  0.3154
 6281SOL    HW324891   2.307   0.984   6.279  0.3643 -0.0098  0.1329
 6281SOL    MW424892   2.379   1.028   6.301  0.2209  0.1862  0.2136
 6282SOL     OW24893   0.858   5.284   1.403 -0.5024  0.5014  0.3722
 6282SOL    HW224894   0.908   5.320   1.476 -1.6940  0.9524  1.0016
 6282SOL    HW324895   0.872   5.189   1.409  0.2962  0.6254  0.5077
 6282SOL    MW424896   0.866   5.276   1.414 -0.5543  0.5772  0.4731
 6283SOL     OW24897   1.264   5.990   4.615 -0.7558 -0.2913 -0.3188
 6283SOL    HW224898   1.274   5.981   4.521  0.1241 -0.0236 -0.2597
 6283SOL    HW324899   1.353   5.996   4.649 -1.0188 -1.2078  0.6188
 6283SOL    MW424900   1.277   5.989   4.607 -0.6744 -0.3769 -0.1873
 6284SOL     OW24901   6.082   0.366   0.347  0.0263  0.5026 -0.3129
 6284SOL    HW224902   6.100   0.368   0.253  0.2039 -0.6166 -0.3085
 6284SOL    HW324903   5.986   0.368   0.353 -0.0233 -0.6743 -0.5671
 6284SOL    MW424904   6.072   0.367   0.335  0.0431  0.1997 -0.3458
 6285SOL     OW24905   6.266   1.766   3.564  0.6461  0.1157 -0.4487
 6285SOL    HW224906   6.223   1.682   3.554 -1.8975  0.9010  2.3231
 6285SOL    HW324907   6.293   1.790   3.475 -0.9539 -2.3781 -1.7250
 6285SOL    MW424908   6.264   1.758   3.551  0.0994 -0.1097 -0.2514
 6286SOL     OW24909   5.835   5.728   3.049  0.1688  0.1242  0.1109
 6286SOL    HW224910   5.806   5.813   3.017  0.4306  0.2435  0.1854
 6286SOL    HW324911   5.882   5.748   3.130  0.0109 -0.1173  0.2637
 6286SOL    MW424912   5.837   5.742   3.055  0.1825  0.1081  0.1409
 6287SOL     OW24913   6.174   3.365   2.278 -0.0098 -0.1823 -0.6966
 6287SOL    HW224914   6.205   3.316   2.354 -0.7535  0.1283 -0.1839
 6287SOL    HW324915   6.091   3.325   2.255 -0.5731  0.7442 -0.3423
 6287SOL    MW424916   6.167   3.353   2.285 -0.1823 -0.0191 -0.5822
 6288SOL     OW24917   4.888   5.989   2.996  0.2543 -0.0916  0.0317
 6288SOL    HW224918   4.877   5.957   3.086  1.5067  0.0045  0.2370
 6288SOL    HW324919   4.842   6.073   2.994  0.2207 -0.0958  0.5808
 6288SOL    MW424920   4.880   5.996   3.008  0.4151 -0.0794  0.1312
 6289SOL     OW24921   1.005   1.082   1.289 -0.2179  0.1337 -0.2291
 6289SOL    HW224922   1.062   1.054   1.361 -0.1875  1.0914  0.1317
 6289SOL    HW324923   0.921   1.040   1.308  0.1424 -0.6608 -0.3445
 6289SOL    MW424924   1.002   1.073   1.301 -0.1663  0.1552 -0.1967
 6290SOL     OW24925   4.183   4.629   0.852  0.1440  0.1399  0.0314
 6290SOL    HW224926   4.102   4.595   0.814  0.3253  0.8770 -1.0441
 6290SOL    HW324927   4.239   4.648   0.778  0.7723  0.9615  0.6895
 6290SOL    MW424928   4.180   4.627   0.837  0.2508  0.3456 -0.0237
 6291SOL     OW24929   4.757   6.036   2.517  0.6192 -0.2119 -0.0186
 6291SOL    HW224930   4.686   6.101   2.511  0.3273 -0.6285 -1.4434
 6291SOL    HW324931   4.837   6.087   2.506  0.4388  0.0191 -0.2641
 6291SOL    MW424932   4.758   6.051   2.515  0.5569 -0.2364 -0.2389
 6292SOL     OW24933   4.211   4.817   4.503  0.1421 -0.6287 -0.5669
 6292SOL    HW224934   4.183   4.837   4.593 -0.5500 -0.2439 -0.8588
 6292SOL    HW324935   4.300   4.850   4.498 -0.5572  1.4064 -0.6777
 6292SOL    MW424936   4.219   4.824   4.514 -0.0415 -0.3094 -0.6200
 6293SOL     OW24937   3.461   1.406   4.971  0.2824  0.4778 -0.0446
 6293SOL    HW224938   3.441   1.500   4.967 -0.2416  0.3676 -0.0826
 6293SOL    HW324939   3.446   1.374   4.882  3.5951  0.9499 -0.9145
 6293SOL    MW424940   3.457   1.414   4.959  0.6503  0.5255 -0.1644
 6294SOL     OW24941   1.975   2.277   3.032 -0.1724  0.0813  0.5975
 6294SOL    HW224942   1.951   2.284   2.940 -0.0682 -1.7115  0.3994
 6294SOL    HW324943   2.005   2.187   3.042  1.4466  0.7297  2.0171
 6294SOL    MW424944   1.976   2.266   3.021  0.0549 -0.0697  0.7586
 6295SOL     OW24945   0.086   2.026   3.132 -0.2508 -0.0977  0.4288
 6295SOL    HW224946   0.007   2.060   3.089  0.6948  0.3961 -0.9982
 6295SOL    HW324947   0.123   1.965   3.068  0.0063 -1.0962  1.4996
 6295SOL    MW424948   0.080   2.022   3.118 -0.0921 -0.1643  0.3818
 6296SOL     OW24949   6.330   0.762   4.623  0.5212 -0.3222  0.5597
 6296SOL    HW224950   6.306   0.782   4.713  0.7731 -1.0254  0.7875
 6296SOL    HW324951   6.425   0.751   4.625  0.7807  1.4066 -0.1363
 6296SOL    MW424952   6.340   0.763   4.635  0.5887 -0.1869  0.4979
 6297SOL     OW24953   3.786   3.600   3.160 -0.0110  0.7869 -0.3791
 6297SOL    HW224954   3.756   3.535   3.223  1.4736 -0.8702 -1.3066
 6297SOL    HW324955   3.719   3.669   3.164 -1.7170 -0.8157  0.5650
 6297SOL    MW424956   3.773   3.600   3.168 -0.0402  0.3568 -0.3769
 6298SOL     OW24957   0.240   4.010   2.106  0.7483 -0.2865  0.3989
 6298SOL    HW224958   0.172   3.950   2.138  1.1221 -1.6606 -1.2505
 6298SOL    HW324959   0.297   4.024   2.181 -1.0962  0.5963  1.7176
 6298SOL    MW424960   0.238   4.004   2.120  0.5542 -0.3513  0.3552
 6299SOL     OW24961   2.135   5.836   0.012  0.1532  0.1277  0.4925
 6299SOL    HW224962   2.163   5.925  -0.009 -0.5755  0.2369 -0.0696
 6299SOL    HW324963   2.153   5.826   0.105 -1.6345  1.6158  1.0751
 6299SOL    MW424964   2.141   5.846   0.021 -0.1788  0.3384  0.4952
 6300SOL     OW24965   0.529   2.245   1.889  0.3749 -0.3819 -0.1362
 6300SOL    HW224966   0.574   2.237   1.805 -0.4616  1.1571 -0.7591
 6300SOL    HW324967   0.583   2.193   1.950  0.4290 -2.4085 -1.7920
 6300SOL    MW424968   0.542   2.237   1.886  0.2716 -0.4462 -0.4369
 6301SOL     OW24969   5.024   3.703   3.414  0.0422  1.2449 -0.4066
 6301SOL    HW224970   5.024   3.797   3.433  0.1973  0.8853  1.5779
 6301SOL    HW324971   5.112   3.685   3.380  0.6666  1.5015  1.0333
 6301SOL    MW424972   5.035   3.713   3.412  0.1450  1.2313  0.0452
 6302SOL     OW24973   3.404   3.036   6.024 -0.2775  0.2707  0.3301
 6302SOL    HW224974   3.414   3.128   6.050 -1.3994  0.8322 -1.0844
 6302SOL    HW324975   3.332   3.037   5.961 -1.6341 -1.8672  1.7110
 6302SOL    MW424976   3.396   3.048   6.019 -0.6045  0.0627  0.3256
 6303SOL     OW24977   3.591   3.692   4.608  0.3154  0.1563 -0.5485
 6303SOL    HW224978   3.541   3.773   4.613  2.3400  1.4211  1.4330
 6303SOL    HW324979   3.634   3.685   4.693  1.5573 -2.1161 -1.2619
 6303SOL    MW424980   3.590   3.702   4.620  0.7464  0.0234 -0.3812
 6304SOL     OW24981   0.289   2.187   6.010 -0.5672  0.6184 -0.0326
 6304SOL    HW224982   0.382   2.211   6.008 -0.7898  1.4996 -1.5446
 6304SOL    HW324983   0.286   2.105   5.961 -0.5699  0.5078  0.1523
 6304SOL    MW424984   0.301   2.179   6.003 -0.5969  0.7201 -0.2077
 6305SOL     OW24985   2.492   3.509   2.139  0.2926  0.1969 -0.1379
 6305SOL    HW224986   2.482   3.604   2.148 -1.7660 -0.0227  0.4189
 6305SOL    HW324987   2.404   3.477   2.121  0.8640 -1.6693  0.1363
 6305SOL    MW424988   2.479   3.518   2.138  0.0964 -0.0783 -0.0283
 6306SOL     OW24989   4.884   1.573   6.149 -0.2888  0.0344  0.7045
 6306SOL    HW224990   4.809   1.597   6.204 -0.0571  1.0348  0.5976
 6306SOL    HW324991   4.873   1.625   6.070  2.3030  2.9306  2.0343
 6306SOL    MW424992   4.873   1.583   6.146  0.0837  0.5485  0.8658
 6307SOL     OW24993   1.343   2.690   5.736  0.2046  0.1183 -0.4893
 6307SOL    HW224994   1.334   2.690   5.641 -0.6735 -1.3426 -0.4379
 6307SOL    HW324995   1.295   2.612   5.765 -0.5698  1.1823  1.2591
 6307SOL    MW424996   1.336   2.680   5.727 -0.0134  0.0659 -0.2518
 6308SOL     OW24997   1.415   2.655   3.166  0.8322  0.0605  0.2594
 6308SOL    HW224998   1.500   2.613   3.151  0.0975 -2.0497  1.5150
 6308SOL    HW324999   1.351   2.589   3.138 -0.4121  1.3652 -0.0652
 6308SOL    MW425000   1.418   2.641   3.160  0.5711 -0.0458  0.3822
 6309SOL     OW25001   3.670   2.419   2.817 -0.0151 -0.9811 -0.8312
 6309SOL    HW225002   3.716   2.482   2.762  1.6892 -2.3664 -1.0645
 6309SOL    HW325003   3.719   2.419   2.900 -1.3218 -0.4316 -0.0252
 6309SOL    MW425004   3.682   2.428   2.821  0.0374 -1.0914 -0.7556
 6310SOL     OW25005   1.403   4.631   3.766 -0.3066  0.0062 -0.2096
 6310SOL    HW225006   1.328   4.688   3.785  1.9419  2.5620  1.7530
 6310SOL    HW325007   1.441   4.668   3.686 -0.0122 -0.0501 -0.0949
 6310SOL    MW425008   1.398   4.643   3.758  0.0289  0.3360  0.0645
 6311SOL     OW25009   0.757   2.880   5.557  0.0117 -0.4295 -0.1905
 6311SOL    HW225010   0.763   2.877   5.461 -1.4894 -1.1363 -0.2921
 6311SOL    HW325011   0.693   2.811   5.579  0.3620 -0.2995  1.3191
 6311SOL    MW425012   0.749   2.871   5.547 -0.1401 -0.5056 -0.0047
 6312SOL     OW25013   1.564   3.902   6.166  0.2333  0.4891  0.5513
 6312SOL    HW225014   1.475   3.889   6.134 -0.1833  2.3897  0.8128
 6312SOL    HW325015   1.572   3.843   6.240 -1.2625  1.1755  1.2959
 6312SOL    MW425016   1.553   3.893   6.171 -0.0190  0.8304  0.6840
 6313SOL     OW25017   1.311   4.101   1.872 -0.0992 -0.3521 -0.9587
 6313SOL    HW225018   1.296   4.112   1.778  0.6552 -0.1844 -1.0635
 6313SOL    HW325019   1.334   4.009   1.883  1.6980  0.0338 -1.2149
 6313SOL    MW425020   1.312   4.090   1.861  0.2374 -0.2791 -1.0063
 6314SOL     OW25021   5.972   5.787   5.787  0.4437  0.0398  0.3197
 6314SOL    HW225022   6.035   5.857   5.775 -0.8764  1.0948 -0.8643
 6314SOL    HW325023   5.988   5.727   5.714  0.9223 -0.3824  0.7667
 6314SOL    MW425024   5.982   5.788   5.776  0.3327  0.1233  0.2225
 6315SOL     OW25025   3.754   3.227   5.832 -0.5566 -0.2550  0.5302
 6315SOL    HW225026   3.843   3.255   5.854 -0.1000 -0.5526 -0.8009
 6315SOL    HW325027   3.763   3.186   5.746 -2.0935  0.3145  0.0604
 6315SOL    MW425028   3.767   3.226   5.823 -0.6991 -0.2191  0.2926
 6316SOL     OW25029   0.857   3.132   2.709  0.1474 -0.0417 -0.0287
 6316SOL    HW225030   0.915   3.208   2.713  0.3357 -0.2375  1.4640
 6316SOL    HW325031   0.770   3.167   2.725  0.0065  0.0755 -1.0032
 6316SOL    MW425032   0.853   3.146   2.712  0.1537 -0.0521  0.0397
 6317SOL     OW25033   0.751   6.349   5.065  0.0736  0.3864 -0.2718
 6317SOL    HW225034   0.766   6.340   5.160  3.3234 -0.8009 -0.7668
 6317SOL    HW325035   0.803   6.425   5.040 -1.9341  1.5958 -0.9590
 6317SOL    MW425036   0.760   6.358   5.075  0.2375  0.3893 -0.4278
 6318SOL     OW25037   0.952   6.264   1.116  0.1417  0.2799 -0.0854
 6318SOL    HW225038   0.909   6.300   1.038  1.0496 -1.6374 -1.5814
 6318SOL    HW325039   0.929   6.171   1.115  2.1923 -0.2915  0.5105
 6318SOL    MW425040   0.943   6.256   1.105  0.5321 -0.0484 -0.2041
 6319SOL     OW25041   1.034   0.767   3.025 -0.2598 -0.2323  0.2629
 6319SOL    HW225042   1.045   0.853   3.066  0.0093  0.2451 -0.7624
 6319SOL    HW325043   0.939   0.756   3.020 -0.3161  0.4723 -0.4934
 6319SOL    MW425044   1.023   0.777   3.030 -0.2317 -0.0764  0.0278
 6320SOL     OW25045   4.815   1.623   0.567 -0.4458  0.1536 -0.4037
 6320SOL    HW225046   4.884   1.678   0.530  0.2626  0.4099  1.2475
 6320SOL    HW325047   4.777   1.579   0.491  2.7282 -1.4341 -1.2542
 6320SOL    MW425048   4.819   1.624   0.552  0.0664 -0.0221 -0.2981
 6321SOL     OW25049   0.833   1.533   3.916  0.2841 -0.0018  0.0854
 6321SOL    HW225050   0.920   1.571   3.926  0.0754  0.8107 -1.0124
 6321SOL    HW325051   0.779   1.605   3.884 -0.8741 -0.4182  1.0209
 6321SOL    MW425052   0.837   1.548   3.913  0.1037  0.0504  0.0640
 6322SOL     OW25053   1.863   3.450   3.599  0.1912 -0.0573  0.5433
 6322SOL    HW225054   1.819   3.369   3.622 -1.1351  0.7232  0.8910
 6322SOL    HW325055   1.811   3.487   3.529  0.5454  0.6827  0.6532
 6322SOL    MW425056   1.851   3.444   3.593  0.0630  0.1433  0.6037
 6323SOL     OW25057   2.276   5.713   1.830 -0.3096  0.3001  0.1335
 6323SOL    HW225058   2.206   5.737   1.891 -0.5387 -1.0535  0.4439
 6323SOL    HW325059   2.342   5.671   1.885  0.4302  0.9304 -0.2664
 6323SOL    MW425060   2.276   5.711   1.845 -0.2422  0.2046  0.1217
 6324SOL     OW25061   2.046   2.169   1.911  0.2322  0.3468 -0.5127
 6324SOL    HW225062   2.092   2.253   1.914  1.8442 -0.4183 -1.8380
 6324SOL    HW325063   2.011   2.163   1.822  1.4221 -0.9712 -0.9408
 6324SOL    MW425064   2.048   2.179   1.900  0.6019  0.0720 -0.7440
 6325SOL     OW25065   1.658   6.106   0.988 -0.4331  0.1323 -0.1967
 6325SOL    HW225066   1.585   6.055   0.952 -0.2900  0.5926 -1.1958
 6325SOL    HW325067   1.664   6.182   0.930  1.1127 -0.1153 -0.4150
 6325SOL    MW425068   1.649   6.109   0.975 -0.2103  0.1604 -0.3573
 6326SOL     OW25069   2.290   2.913   0.910  0.0080 -0.1375 -0.8075
 6326SOL    HW225070   2.302   2.917   0.816 -0.2089  0.8572 -0.8024
 6326SOL    HW325071   2.196   2.928   0.923 -0.6753 -3.7388 -0.6089
 6326SOL    MW425072   2.279   2.915   0.900 -0.1108 -0.4814 -0.7806
 6327SOL     OW25073   1.681   4.015   4.060  0.2851 -0.2541  0.8175
 6327SOL    HW225074   1.642   3.935   4.096 -0.0873  0.3309  1.7416
 6327SOL    HW325075   1.638   4.027   3.976 -1.7614  0.4984  1.9038
 6327SOL    MW425076   1.670   4.006   4.054 -0.0340 -0.0777  1.0827
 6328SOL     OW25077   5.109   4.982   0.632  0.0709  0.1523  0.0846
 6328SOL    HW225078   5.196   5.012   0.607  0.0038 -0.0507 -0.4158
 6328SOL    HW325079   5.056   4.994   0.553 -0.1008 -0.7126  0.0583
 6328SOL    MW425080   5.113   4.987   0.618  0.0394  0.0114  0.0151
 6329SOL     OW25081   5.648   4.918   0.352  0.2193  0.1177  0.2947
 6329SOL    HW225082   5.637   4.837   0.400  0.7442  0.0380  0.2835
 6329SOL    HW325083   5.730   4.907   0.303  1.2868  1.3467  1.7045
 6329SOL    MW425084   5.657   4.906   0.352  0.4294  0.2693  0.4792
 6330SOL     OW25085   4.258   2.844   3.437 -0.3213 -0.6011  0.3772
 6330SOL    HW225086   4.191   2.849   3.504 -1.8084 -0.8782 -1.0265
 6330SOL    HW325087   4.294   2.755   3.445 -0.0158 -0.4067  1.2158
 6330SOL    MW425088   4.254   2.833   3.447 -0.4772 -0.6120  0.3027
 6331SOL     OW25089   2.863   0.186   4.510  0.3325  0.2090 -0.2413
 6331SOL    HW225090   2.942   0.142   4.541 -0.3631 -0.8255  0.1183
 6331SOL    HW325091   2.797   0.167   4.577  0.2096  2.5391  0.3727
 6331SOL    MW425092   2.865   0.178   4.523  0.2245  0.3799 -0.1128
 6332SOL     OW25093   5.624   1.804   0.881  0.4839 -0.2332 -0.0421
 6332SOL    HW225094   5.583   1.845   0.804  0.6162  3.0253  1.4326
 6332SOL    HW325095   5.717   1.819   0.869  0.5109  0.2125  0.6500
 6332SOL    MW425096   5.631   1.812   0.869  0.5049  0.2555  0.2438
 6333SOL     OW25097   3.379   4.948   4.950  0.0835  0.0165 -0.0008
 6333SOL    HW225098   3.337   4.927   5.033  1.0410 -0.3704  0.3960
 6333SOL    HW325099   3.327   5.021   4.915  0.8215  1.5185  1.8694
 6333SOL    MW425100   3.366   4.955   4.956  0.3072  0.1636  0.2983
 6334SOL     OW25101   2.685   6.272   3.365  0.3443 -0.0169 -0.0573
 6334SOL    HW225102   2.615   6.338   3.362  0.4730  0.0890 -1.3154
 6334SOL    HW325103   2.639   6.188   3.366  0.1880  0.0742  0.4486
 6334SOL    MW425104   2.670   6.270   3.365  0.3406  0.0091 -0.1565
 6335SOL     OW25105   4.864   3.313   0.806  0.3392  0.3810  0.0505
 6335SOL    HW225106   4.901   3.237   0.851  0.2412 -0.8932 -1.9168
 6335SOL    HW325107   4.902   3.388   0.852  1.4695 -0.8541  1.2264
 6335SOL    MW425108   4.874   3.313   0.818  0.4754  0.0499 -0.0539
 6336SOL     OW25109   3.978   5.484   1.688  0.1275  0.0444  0.3013
 6336SOL    HW225110   3.934   5.569   1.698  0.3963  0.3432 -0.8770
 6336SOL    HW325111   3.906   5.420   1.685 -0.1920  0.4368 -0.7213
 6336SOL    MW425112   3.962   5.487   1.689  0.1208  0.1356  0.0109
 6337SOL     OW25113   5.603   3.369   5.046 -0.0278  0.1290 -0.6762
 6337SOL    HW225114   5.616   3.447   5.100  0.2299  0.7377 -1.5864
 6337SOL    HW325115   5.509   3.352   5.050 -0.2537  1.1483 -1.3408
 6337SOL    MW425116   5.593   3.377   5.054 -0.0236  0.3438 -0.8840
 6338SOL     OW25117   4.331   4.666   5.680  0.3852 -0.2054 -0.7417
 6338SOL    HW225118   4.324   4.707   5.593  2.2260  1.2184 -0.3037
 6338SOL    HW325119   4.246   4.681   5.721 -0.3965 -0.5880 -2.1488
 6338SOL    MW425120   4.319   4.673   5.674  0.5249 -0.0680 -0.8695
 6339SOL     OW25121   0.600   4.802   5.559 -0.2738 -0.1277 -0.3120
 6339SOL    HW225122   0.516   4.835   5.528  0.0252  0.3441 -0.6373
 6339SOL    HW325123   0.663   4.869   5.532  0.1395 -0.2427  0.3515
 6339SOL    MW425124   0.597   4.816   5.551 -0.1798 -0.0806 -0.2674
 6340SOL     OW25125   0.129   0.737   4.957 -0.0704  0.3853 -0.0979
 6340SOL    HW225126   0.154   0.823   4.990 -0.4453  1.6400 -2.7420
 6340SOL    HW325127   0.174   0.730   4.873  0.2951 -2.2411  0.2436
 6340SOL    MW425128   0.138   0.748   4.950 -0.0716  0.2043 -0.4017
 6341SOL     OW25129   6.202   5.840   0.361 -0.2517 -0.1080  0.0874
 6341SOL    HW225130   6.180   5.748   0.349  2.2123 -0.4520 -3.3788
 6341SOL    HW325131   6.161   5.884   0.286  1.9201  0.8610 -0.6036
 6341SOL    MW425132   6.194   5.834   0.349  0.3599 -0.0255 -0.4611
 6342SOL     OW25133   5.171   1.703   3.953 -0.0788 -0.1403 -0.5026
 6342SOL    HW225134   5.254   1.704   3.905 -0.1289  1.3661 -0.5803
 6342SOL    HW325135   5.186   1.643   4.026  0.9015 -0.2988 -0.8220
 6342SOL    MW425136   5.184   1.695   3.956  0.0439  0.0375 -0.5550
 6343SOL     OW25137   3.878   0.692   5.613  0.7679  0.6732 -0.2083
 6343SOL    HW225138   3.852   0.602   5.593  1.3610  0.4315  0.0868
 6343SOL    HW325139   3.858   0.702   5.707 -1.3925  1.5884 -0.6947
 6343SOL    MW425140   3.872   0.681   5.623  0.5611  0.7621 -0.2336
 6344SOL     OW25141   2.747   3.958   1.319  0.2107  0.0375  0.1033
 6344SOL    HW225142   2.684   3.985   1.252  1.0494 -0.4298 -0.9234
 6344SOL    HW325143   2.802   3.893   1.274 -0.6664 -2.1005  1.9541
 6344SOL    MW425144   2.746   3.953   1.304  0.2057 -0.3062  0.2120
 6345SOL     OW25145   0.799   3.641   1.689  0.4322  0.2038  0.0617
 6345SOL    HW225146   0.816   3.653   1.782  3.7211  1.8729 -0.6204
 6345SOL    HW325147   0.789   3.730   1.654 -1.3615 -0.4023 -1.1639
 6345SOL    MW425148   0.800   3.655   1.696  0.6295  0.3441 -0.1900
 6346SOL     OW25149   4.817   4.162   2.196  0.6401  0.0107  0.7575
 6346SOL    HW225150   4.760   4.168   2.273  1.4794 -0.1931  1.4165
 6346SOL    HW325151   4.760   4.178   2.122  0.0823  1.7720  1.5215
 6346SOL    MW425152   4.802   4.165   2.197  0.6772  0.2162  0.9452
 6347SOL     OW25153   1.355   1.477   0.475  0.0847  0.6018  0.1951
 6347SOL    HW225154   1.431   1.432   0.512 -0.3367 -0.9638 -0.7593
 6347SOL    HW325155   1.290   1.476   0.545 -0.7668 -2.4793 -0.4949
 6347SOL    MW425156   1.356   1.471   0.489 -0.0832 -0.0113 -0.0218
 6348SOL     OW25157   5.194   3.793   5.962 -0.4756 -0.1145  0.6848
 6348SOL    HW225158   5.189   3.713   6.015 -2.6636  1.5140  3.1570
 6348SOL    HW325159   5.197   3.864   6.026 -0.3265  1.9011 -1.4277
 6348SOL    MW425160   5.194   3.792   5.978 -0.7446  0.3663  0.7323
 6349SOL     OW25161   2.999   1.827   3.705 -0.8027 -0.2839 -0.3992
 6349SOL    HW225162   2.908   1.815   3.679 -0.5184 -0.8767 -1.1462
 6349SOL    HW325163   2.998   1.818   3.801 -1.2219 -2.4710 -0.5706
 6349SOL    MW425164   2.987   1.824   3.714 -0.8205 -0.6507 -0.5204
 6350SOL     OW25165   2.268   4.296   0.105  0.5023  0.0983  0.4710
 6350SOL    HW225166   2.266   4.204   0.080  0.0332 -0.0031  0.8703
 6350SOL    HW325167   2.177   4.319   0.120  0.3707  1.2093 -1.6420
 6350SOL    MW425168   2.256   4.287   0.104  0.4230  0.2315  0.2449
 6351SOL     OW25169   5.313   1.504   0.959  0.2393 -0.1165 -0.6195
 6351SOL    HW225170   5.400   1.520   0.995 -0.0634 -1.2642  0.7222
 6351SOL    HW325171   5.280   1.428   1.008 -0.8012 -0.8412 -2.3414
 6351SOL    MW425172   5.320   1.496   0.970  0.0621 -0.3636 -0.6697
 6352SOL     OW25173   1.570   3.242   3.518  0.0211  0.6018 -0.1785
 6352SOL    HW225174   1.657   3.233   3.480  0.8129  0.3634  1.5752
 6352SOL    HW325175   1.583   3.298   3.595 -1.2748  0.1774  0.3845
 6352SOL    MW425176   1.583   3.249   3.523 -0.0454  0.5144  0.1272
 6353SOL     OW25177   6.166   4.762   1.385  0.1801  0.3587  0.8544
 6353SOL    HW225178   6.236   4.698   1.403 -2.4056 -2.8620  0.4416
 6353SOL    HW325179   6.110   4.758   1.463 -0.4622  1.6068  0.4793
 6353SOL    MW425180   6.168   4.753   1.398 -0.2458  0.0984  0.7504
 6354SOL     OW25181   0.396   2.796   5.078  0.4291 -0.1398  0.3913
 6354SOL    HW225182   0.320   2.809   5.022 -0.3522 -1.4927  1.0790
 6354SOL    HW325183   0.471   2.820   5.024 -0.2595 -1.7789 -1.3971
 6354SOL    MW425184   0.396   2.800   5.064  0.2352 -0.5345  0.2461
 6355SOL     OW25185   2.143   2.644   5.634  0.4730 -0.0717 -0.0878
 6355SOL    HW225186   2.162   2.642   5.728 -2.0505  1.3283  0.5530
 6355SOL    HW325187   2.190   2.721   5.602  1.1265 -0.3989  0.0724
 6355SOL    MW425188   2.151   2.654   5.643  0.2263  0.0698  0.0178
 6356SOL     OW25189   3.216   2.853   1.428 -0.0713  0.4077  0.7977
 6356SOL    HW225190   3.267   2.929   1.399 -0.7431  0.3626 -0.5832
 6356SOL    HW325191   3.221   2.856   1.524  3.3201 -0.1544  0.7546
 6356SOL    MW425192   3.224   2.863   1.437  0.2875  0.3276  0.6098
 6357SOL     OW25193   0.731   3.768   5.488  0.2566  0.5221  0.2588
 6357SOL    HW225194   0.722   3.785   5.394  2.6146  1.6165  0.1626
 6357SOL    HW325195   0.699   3.848   5.530  0.3752  0.5261  0.3401
 6357SOL    MW425196   0.726   3.780   5.481  0.5834  0.6670  0.2568
 6358SOL     OW25197   0.818   1.095   2.060  0.4996  0.2653 -0.2334
 6358SOL    HW225198   0.733   1.137   2.072 -0.7425 -2.3208  0.8788
 6358SOL    HW325199   0.801   1.022   2.001  1.7420 -0.7914  0.6354
 6358SOL    MW425200   0.805   1.091   2.054  0.4996 -0.2153  0.0280
 6359SOL     OW25201   2.505   4.916   5.443  0.4697 -0.3275 -0.0793
 6359SOL    HW225202   2.572   4.953   5.385  1.0621 -0.1698  0.6926
 6359SOL    HW325203   2.422   4.939   5.400  0.8677  0.6083 -0.3860
 6359SOL    MW425204   2.503   4.924   5.430  0.6004 -0.1832 -0.0179
 6360SOL     OW25205   4.990   5.798   5.999  0.1058  0.0305  0.2287
 6360SOL    HW225206   5.007   5.756   5.914 -2.2711 -1.0144  0.2053
 6360SOL    HW325207   4.959   5.727   6.055  0.6445  0.9067  1.6970
 6360SOL    MW425208   4.988   5.783   5.995 -0.1368  0.0083  0.4193
 6361SOL     OW25209   3.606   5.047   5.951 -0.9419 -0.2652 -0.7032
 6361SOL    HW225210   3.575   5.058   5.862 -1.7448  0.3930 -0.3572
 6361SOL    HW325211   3.672   5.115   5.963  0.9889 -1.8920 -1.5563
 6361SOL    MW425212   3.611   5.057   5.941 -0.7931 -0.3930 -0.7701
 6362SOL     OW25213   5.827   3.882   1.670 -0.1055  0.3738 -0.2479
 6362SOL    HW225214   5.862   3.856   1.756 -0.2362 -0.9479 -0.5744
 6362SOL    HW325215   5.732   3.883   1.683 -0.1155  0.3761 -0.3248
 6362SOL    MW425216   5.819   3.879   1.683 -0.1241  0.1997 -0.3011
 6363SOL     OW25217   4.648   2.187   5.267 -0.5110  0.0038 -0.1154
 6363SOL    HW225218   4.641   2.249   5.195  1.9174  0.3593 -0.1196
 6363SOL    HW325219   4.640   2.240   5.346  1.4366  0.3546 -0.1203
 6363SOL    MW425220   4.646   2.202   5.268  0.0664  0.0970 -0.1166
 6364SOL     OW25221   2.581   2.758   3.624  0.3667  0.0584 -0.3987
 6364SOL    HW225222   2.489   2.784   3.619  0.6408  0.8960 -1.2702
 6364SOL    HW325223   2.578   2.662   3.631 -0.5670  0.0785 -0.3274
 6364SOL    MW425224   2.568   2.749   3.625  0.2797  0.1716 -0.5042
 6365SOL     OW25225   5.347   1.088   3.029  0.8999 -0.4259 -0.1350
 6365SOL    HW225226   5.407   1.102   2.955 -1.2382  0.9534 -1.7379
 6365SOL    HW325227   5.404   1.069   3.103  3.2789  0.3892 -1.6512
 6365SOL    MW425228   5.362   1.087   3.029  0.9317 -0.1364 -0.5466
 6366SOL     OW25229   2.188   1.681   3.922 -0.4246  0.3245 -0.2673
 6366SOL    HW225230   2.256   1.735   3.883  0.4344 -0.5775 -0.0445
 6366SOL    HW325231   2.194   1.597   3.877 -0.3066 -0.2885  0.8444
 6366SOL    MW425232   2.198   1.677   3.911 -0.2956  0.1246 -0.0912
 6367SOL     OW25233   5.948   4.915   5.438 -0.5773  0.2348 -0.4559
 6367SOL    HW225234   5.983   4.859   5.370 -1.9345 -1.5636  0.2307
 6367SOL    HW325235   5.991   5.000   5.425  1.0670 -0.7675 -1.9343
 6367SOL    MW425236   5.958   4.919   5.428 -0.5394 -0.1347 -0.5604
 6368SOL     OW25237   0.937   0.513   0.672 -0.2208 -0.4089  0.6083
 6368SOL    HW225238   0.919   0.567   0.596 -2.4369 -1.6124  0.2036
 6368SOL    HW325239   0.871   0.538   0.737 -1.5726 -2.8050  0.2624
 6368SOL    MW425240   0.926   0.523   0.671 -0.6916 -0.8838  0.5093
 6369SOL     OW25241   6.001   0.273   5.269  0.0759  0.0508  0.3380
 6369SOL    HW225242   6.044   0.216   5.333 -0.7569 -1.8728 -0.7141
 6369SOL    HW325243   6.056   0.351   5.264  0.8207 -0.2872  2.4513
 6369SOL    MW425244   6.014   0.276   5.277  0.0643 -0.2476  0.4780
 6370SOL     OW25245   0.354   1.304   4.639 -0.3508 -0.1047  0.2171
 6370SOL    HW225246   0.301   1.278   4.564 -0.0308  2.9653 -1.2399
 6370SOL    HW325247   0.439   1.326   4.601  0.6159 -0.7872  1.8771
 6370SOL    MW425248   0.359   1.303   4.624 -0.1811  0.2103  0.2439
 6371SOL     OW25249   1.746   1.010   3.187  0.0215 -0.2500 -0.2866
 6371SOL    HW225250   1.812   0.967   3.133 -0.2103 -1.9401  0.7389
 6371SOL    HW325251   1.788   1.092   3.214  1.5866 -1.1259  0.0726
 6371SOL    MW425252   1.760   1.015   3.184  0.1974 -0.5886 -0.1039
 6372SOL     OW25253   0.143   3.981   5.008 -0.2528 -0.3472 -0.3853
 6372SOL    HW225254   0.230   3.942   5.018  0.5042  0.6582 -2.4577
 6372SOL    HW325255   0.159   4.075   5.013 -1.4184 -0.1629  0.3090
 6372SOL    MW425256   0.157   3.988   5.010 -0.3067 -0.1903 -0.5671
 6373SOL     OW25257   6.365   3.220   0.666  0.3494  0.0139  0.1006
 6373SOL    HW225258   6.287   3.184   0.708  1.4396  0.3236  2.5458
 6373SOL    HW325259   6.408   3.144   0.627 -0.5215 -0.3383 -0.2089
 6373SOL    MW425260   6.360   3.205   0.666  0.3783  0.0083  0.3824
 6374SOL     OW25261   5.786   5.420   2.628 -0.7316  0.1099  0.1991
 6374SOL    HW225262   5.856   5.374   2.674 -1.8784 -1.9532  0.0044
 6374SOL    HW325263   5.822   5.506   2.610  1.1431 -0.3251  1.5528
 6374SOL    MW425264   5.800   5.425   2.632 -0.6356 -0.2197  0.3520
 6375SOL     OW25265   0.657   6.145   1.147  0.2689  0.1240  0.2528
 6375SOL    HW225266   0.577   6.103   1.177 -0.7145  1.0669 -0.9719
 6375SOL    HW325267   0.727   6.089   1.180 -0.8657 -0.5376  1.6229
 6375SOL    MW425268   0.656   6.132   1.155 -0.0106  0.1611  0.2720
 6376SOL     OW25269   2.897   4.183   0.639 -0.1296 -0.0225 -0.3569
 6376SOL    HW225270   2.844   4.112   0.603  0.8296 -0.4155 -1.0441
 6376SOL    HW325271   2.983   4.172   0.598  0.6982  0.1821  1.2338
 6376SOL    MW425272   2.901   4.172   0.629  0.1062 -0.0474 -0.2377
 6377SOL     OW25273   2.743   6.321   0.640 -0.0409  0.1196  0.6529
 6377SOL    HW225274   2.651   6.319   0.611  0.2235  0.1156 -0.2039
 6377SOL    HW325275   2.741   6.280   0.727 -0.8541  0.1324  0.6532
 6377SOL    MW425276   2.730   6.315   0.648 -0.1133  0.1208  0.5399
 6378SOL     OW25277   0.700   0.732   5.805  0.0568 -0.2787 -0.3918
 6378SOL    HW225278   0.643   0.688   5.742 -1.5013  1.0434  0.0064
 6378SOL    HW325279   0.749   0.795   5.752 -1.5213  1.0932 -0.3069
 6378SOL    MW425280   0.699   0.735   5.790 -0.3570  0.0768 -0.3280
 6379SOL     OW25281   5.871   6.251   5.048  0.3047 -0.8800 -0.4063
 6379SOL    HW225282   5.855   6.195   4.972  0.0956 -0.5616 -0.5971
 6379SOL    HW325283   5.924   6.323   5.014 -0.2401 -0.4576 -0.3627
 6379SOL    MW425284   5.876   6.253   5.034  0.2052 -0.7822 -0.4257
 6380SOL     OW25285   5.081   0.715   3.734  0.6472  0.3763 -0.4452
 6380SOL    HW225286   5.142   0.788   3.733 -0.5742  1.4930  1.1276
 6380SOL    HW325287   5.060   0.702   3.826 -0.9498 -0.4161 -0.8727
 6380SOL    MW425288   5.086   0.723   3.746  0.2753  0.4191 -0.2941
 6381SOL     OW25289   2.370   2.922   1.879  0.3762  0.3610 -0.3688
 6381SOL    HW225290   2.320   2.923   1.797  1.6562  0.4623 -1.1796
 6381SOL    HW325291   2.367   2.831   1.908  0.4710  0.1897 -0.8900
 6381SOL    MW425292   2.363   2.910   1.872  0.5576  0.3517 -0.5445
 6382SOL     OW25293   5.117   0.323   0.393  0.1729  0.4605 -0.3136
 6382SOL    HW225294   5.197   0.369   0.370  1.9281 -1.2495  1.9073
 6382SOL    HW325295   5.129   0.297   0.484 -2.3300 -1.0425 -0.3134
 6382SOL    MW425296   5.129   0.325   0.402  0.0742  0.0366 -0.0206
 6383SOL     OW25297   5.568   1.244   0.420  0.4728 -0.1732 -0.2473
 6383SOL    HW225298   5.612   1.163   0.394  0.8982 -0.5917  1.6118
 6383SOL    HW325299   5.549   1.232   0.513 -0.7112  1.3149 -0.2645
 6383SOL    MW425300   5.572   1.232   0.429  0.3727 -0.0321 -0.0043
 6384SOL     OW25301   1.968   1.230   5.512  0.4843 -0.5191  0.5465
 6384SOL    HW225302   1.977   1.294   5.441 -1.6936  0.0143  0.6799
 6384SOL    HW325303   1.921   1.157   5.473 -0.7164 -0.2305  1.4041
 6384SOL    MW425304   1.963   1.229   5.498  0.0385 -0.4107  0.6772
 6385SOL     OW25305   5.651   2.437   3.447 -0.6993  0.0150 -0.1485
 6385SOL    HW225306   5.649   2.460   3.540  0.9377 -1.0059  0.1956
 6385SOL    HW325307   5.737   2.396   3.435 -0.7110  0.5075 -2.2169
 6385SOL    MW425308   5.662   2.435   3.458 -0.4849 -0.0547 -0.3760
 6386SOL     OW25309   0.366   1.681   3.578 -0.1724  0.0521  0.0926
 6386SOL    HW225310   0.427   1.744   3.540  0.1813 -0.2264  0.1904
 6386SOL    HW325311   0.281   1.703   3.540 -0.0185  0.4745 -0.0068
 6386SOL    MW425312   0.363   1.692   3.568 -0.1054  0.0711  0.0924
 6387SOL     OW25313   0.350   1.087   5.453 -0.0131 -0.4224  0.2489
 6387SOL    HW225314   0.382   1.037   5.528 -2.5103  0.5845  2.1469
 6387SOL    HW325315   0.266   1.047   5.431 -0.3967  0.7307 -0.4917
 6387SOL    MW425316   0.343   1.075   5.460 -0.3932 -0.1374  0.4016
 6388SOL     OW25317   1.959   1.757   1.367  0.0759  0.9885 -0.1922
 6388SOL    HW225318   1.931   1.689   1.307  0.8252 -0.8926  1.4989
 6388SOL    HW325319   1.880   1.810   1.381 -1.8991 -2.1428  1.7756
 6388SOL    MW425320   1.945   1.755   1.361 -0.0858  0.3272  0.2905
 6389SOL     OW25321   3.734   4.826   3.169  0.5760 -0.0062 -0.8585
 6389SOL    HW225322   3.770   4.745   3.205 -1.2125 -0.1886  0.7033
 6389SOL    HW325323   3.760   4.893   3.231  0.5390  0.3107 -1.1852
 6389SOL    MW425324   3.742   4.824   3.182  0.3351  0.0116 -0.6956
 6390SOL     OW25325   3.542   4.052   2.621 -0.2080  0.2341  0.0823
 6390SOL    HW225326   3.596   4.033   2.544  0.6657 -1.8003  1.0985
 6390SOL    HW325327   3.482   3.977   2.627  0.0437  0.1179  1.6045
 6390SOL    MW425328   3.541   4.039   2.612 -0.0595 -0.0497  0.4172
 6391SOL     OW25329   5.795   2.213   0.909 -0.0219 -0.2367  0.1461
 6391SOL    HW225330   5.847   2.227   0.988  0.1747  1.5857 -0.2648
 6391SOL    HW325331   5.709   2.249   0.930 -0.1123 -0.1844 -0.3125
 6391SOL    MW425332   5.791   2.219   0.922 -0.0079  0.0106  0.0314
 6392SOL     OW25333   3.407   6.195   4.742 -0.3873  0.3440 -0.3074
 6392SOL    HW225334   3.458   6.248   4.803 -1.1987  0.2674  0.4586
 6392SOL    HW325335   3.456   6.198   4.660  0.6993  0.4899  0.3329
 6392SOL    MW425336   3.420   6.202   4.739 -0.3510  0.3532 -0.1219
 6393SOL     OW25337   4.060   0.709   2.728  0.9213 -0.1680  0.7510
 6393SOL    HW225338   4.108   0.708   2.645  0.2928  0.9879  0.3547
 6393SOL    HW325339   3.997   0.781   2.719  0.2739 -0.5577  1.9122
 6393SOL    MW425340   4.058   0.718   2.716  0.7530 -0.0669  0.8519
 6394SOL     OW25341   3.822   4.250   0.606 -0.0845  0.2413 -0.0138
 6394SOL    HW225342   3.806   4.310   0.679  0.8970 -1.1654  1.4237
 6394SOL    HW325343   3.749   4.189   0.609  0.2715 -0.1813  0.1981
 6394SOL    MW425344   3.811   4.250   0.616  0.0920 -0.0000  0.2038
 6395SOL     OW25345   1.333   0.512   0.548 -0.2760 -0.0000 -0.3174
 6395SOL    HW225346   1.380   0.428   0.554 -0.4547 -0.0315  0.6428
 6395SOL    HW325347   1.283   0.505   0.466 -1.0147 -1.2052  0.2164
 6395SOL    MW425348   1.333   0.500   0.538 -0.3970 -0.1632 -0.1203
 6396SOL     OW25349   3.489   5.530   5.974 -0.3274 -0.1582  0.0460
 6396SOL    HW225350   3.583   5.520   5.991 -0.5816 -1.7219  0.6872
 6396SOL    HW325351   3.457   5.440   5.960 -1.8826  0.2608  0.7066
 6396SOL    MW425352   3.497   5.517   5.974 -0.5661 -0.3092  0.2177
 6397SOL     OW25353   2.666   5.595   0.439  0.0061 -0.4200 -0.2609
 6397SOL    HW225354   2.748   5.545   0.438  0.2787  0.0192 -0.8991
 6397SOL    HW325355   2.664   5.636   0.525 -1.3816 -3.3672  1.2300
 6397SOL    MW425356   2.677   5.594   0.450 -0.1410 -0.7509 -0.1484
 6398SOL     OW25357   2.326   5.011   4.381 -0.0116 -0.0352  0.0290
 6398SOL    HW225358   2.326   5.087   4.440  0.1744 -0.4958  0.6175
 6398SOL    HW325359   2.245   5.022   4.330 -0.6606 -0.1351  1.0159
 6398SOL    MW425360   2.315   5.023   4.382 -0.0727 -0.1092  0.2369
 6399SOL     OW25361   3.385   5.258   0.726  0.0519 -0.5317 -0.0634
 6399SOL    HW225362   3.369   5.215   0.811  1.8656 -0.7147  0.2147
 6399SOL    HW325363   3.406   5.186   0.667  2.0785 -0.1553  0.1530
 6399SOL    MW425364   3.385   5.243   0.730  0.5586 -0.5062  0.0019
 6400SOL     OW25365   2.141   6.073   1.184 -0.2714  0.4270 -0.2877
 6400SOL    HW225366   2.068   6.040   1.132  0.4914 -1.1266 -0.4430
 6400SOL    HW325367   2.166   5.999   1.240 -0.1165  1.5873  1.2362
 6400SOL    MW425368   2.135   6.059   1.185 -0.1503  0.3751 -0.1071
 6401SOL     OW25369   5.960   1.565   2.982 -0.4626 -0.1113 -0.4422
 6401SOL    HW225370   5.981   1.569   3.075  0.0946  1.0682 -0.5966
 6401SOL    HW325371   5.880   1.514   2.977 -0.6357  0.0330  0.7101
 6401SOL    MW425372   5.952   1.559   2.994 -0.4119  0.0633 -0.3105
 6402SOL     OW25373   4.716   5.139   3.991  0.0077 -0.4791  0.3866
 6402SOL    HW225374   4.721   5.123   4.085  2.0779 -0.3164  0.3445
 6402SOL    HW325375   4.804   5.166   3.966 -0.4533 -0.6541 -1.6337
 6402SOL    MW425376   4.728   5.141   4.000  0.2200 -0.4807  0.1145
 6403SOL     OW25377   0.450   3.443   2.431  0.3728 -0.5077  0.3239
 6403SOL    HW225378   0.396   3.476   2.359  1.1252 -0.6241 -0.3068
 6403SOL    HW325379   0.512   3.383   2.389  0.0193 -1.5476  1.2389
 6403SOL    MW425380   0.451   3.439   2.416  0.4254 -0.6602  0.3614
 6404SOL     OW25381   5.272   2.598   6.190  0.0986 -0.5906 -0.5681
 6404SOL    HW225382   5.221   2.618   6.111  0.6725  0.3550 -0.7145
 6404SOL    HW325383   5.320   2.518   6.169  0.2647 -0.3290 -1.1918
 6404SOL    MW425384   5.271   2.590   6.177  0.1962 -0.4313 -0.6697
 6405SOL     OW25385   1.156   2.525   4.512 -0.1851 -0.4664  0.4922
 6405SOL    HW225386   1.249   2.506   4.496  0.1044 -0.5165  2.1131
 6405SOL    HW325387   1.151   2.621   4.511 -0.5309 -0.4548 -1.6294
 6405SOL    MW425388   1.168   2.535   4.510 -0.1925 -0.4714  0.4262
 6406SOL     OW25389   2.873   2.929   5.224  0.1863  0.4074  0.0627
 6406SOL    HW225390   2.945   2.866   5.216 -0.0370  0.2577 -0.8895
 6406SOL    HW325391   2.848   2.924   5.317 -0.7347 -1.9730 -0.2234
 6406SOL    MW425392   2.879   2.920   5.235  0.0353  0.0736 -0.1006
 6407SOL     OW25393   5.746   5.774   5.937  0.4933 -0.5361 -0.6320
 6407SOL    HW225394   5.831   5.760   5.897  2.0250  0.2443  2.0668
 6407SOL    HW325395   5.720   5.687   5.969  1.6816 -0.3439  0.9742
 6407SOL    MW425396   5.754   5.761   5.936  0.8522 -0.4078 -0.0640
 6408SOL     OW25397   1.143   3.027   1.329  0.3001  0.4218 -0.0374
 6408SOL    HW225398   1.190   3.077   1.262 -1.6834  0.4856 -1.4500
 6408SOL    HW325399   1.055   3.016   1.294 -0.1545 -1.5757  1.5481
 6408SOL    MW425400   1.138   3.032   1.316 -0.0216  0.1666 -0.0145
 6409SOL     OW25401   1.807   4.018   0.133  0.5527  0.2141 -0.0844
 6409SOL    HW225402   1.896   3.986   0.119  0.4855 -0.6628  1.3468
 6409SOL    HW325403   1.814   4.079   0.207 -0.1101 -0.2490  0.3688
 6409SOL    MW425404   1.819   4.022   0.141  0.4564  0.0373  0.1642
 6410SOL     OW25405   4.890   5.944   5.649 -0.3661 -0.3928 -0.3493
 6410SOL    HW225406   4.966   5.925   5.704  0.2862 -1.2972 -1.5092
 6410SOL    HW325407   4.830   5.990   5.707  1.5596  1.4824  0.3041
 6410SOL    MW425408   4.892   5.948   5.664 -0.0260 -0.2647 -0.4162
 6411SOL     OW25409   6.204   5.434   3.012 -0.5602 -0.2706  0.0529
 6411SOL    HW225410   6.138   5.459   2.948  0.5822  0.9973 -0.6759
 6411SOL    HW325411   6.287   5.443   2.966  0.1807 -1.1192  1.1707
 6411SOL    MW425412   6.206   5.438   2.998 -0.3117 -0.2153  0.1042
 6412SOL     OW25413   3.987   0.971   4.848  0.5042 -0.0020  0.0180
 6412SOL    HW225414   4.000   0.948   4.940 -1.7984  1.2219  0.7257
 6412SOL    HW325415   4.037   1.052   4.837  1.0966 -0.3543  0.0720
 6412SOL    MW425416   3.995   0.979   4.859  0.2786  0.1130  0.1185
 6413SOL     OW25417   6.270   2.042   1.118  0.0725 -0.3928  0.0464
 6413SOL    HW225418   6.351   2.010   1.159  0.6923  0.9557 -0.0669
 6413SOL    HW325419   6.293   2.053   1.026 -0.2350 -0.0159  0.0125
 6413SOL    MW425420   6.284   2.039   1.111  0.1137 -0.1651  0.0270
 6414SOL     OW25421   2.276   4.162   2.149  0.1926 -0.4204 -0.1396
 6414SOL    HW225422   2.229   4.129   2.226 -2.2693  1.4739 -0.6973
 6414SOL    HW325423   2.282   4.088   2.090 -0.7393 -1.1047  0.6025
 6414SOL    MW425424   2.271   4.148   2.152 -0.2552 -0.2608 -0.1152
 6415SOL     OW25425   5.931   5.054   3.426 -0.3242  0.0645  0.2338
 6415SOL    HW225426   5.870   5.125   3.445 -1.0836  0.1836 -2.2118
 6415SOL    HW325427   6.009   5.098   3.391 -0.3753 -0.2239 -0.2649
 6415SOL    MW425428   5.933   5.069   3.424 -0.4311  0.0422 -0.1547
 6416SOL     OW25429   5.531   3.251   0.242 -0.4849 -0.1144  0.0803
 6416SOL    HW225430   5.577   3.270   0.323 -0.7460 -2.5207  0.8583
 6416SOL    HW325431   5.438   3.252   0.266 -0.5543 -1.0718 -0.1111
 6416SOL    MW425432   5.525   3.254   0.256 -0.5285 -0.5582  0.1577
 6417SOL     OW25433   4.270   2.817   6.281  0.1151 -0.3114 -0.2572
 6417SOL    HW225434   4.335   2.867   6.232  0.0306 -0.5184 -0.5811
 6417SOL    HW325435   4.194   2.875   6.286 -0.1594 -0.5876 -1.0596
 6417SOL    MW425436   4.269   2.831   6.275  0.0677 -0.3751 -0.4058
 6418SOL     OW25437   6.236   6.133   4.939 -0.3937 -0.3186  0.2630
 6418SOL    HW225438   6.160   6.075   4.940 -1.3884  0.9244 -0.3712
 6418SOL    HW325439   6.237   6.174   5.025 -0.8021  0.1070  0.0663
 6418SOL    MW425440   6.226   6.131   4.950 -0.5788 -0.0984  0.1533
 6419SOL     OW25441   1.940   6.223   2.104 -0.3922 -0.6074 -0.3220
 6419SOL    HW225442   1.911   6.141   2.143  0.6343 -0.2770  1.2578
 6419SOL    HW325443   2.034   6.212   2.092 -0.2138  0.3866  0.0599
 6419SOL    MW425444   1.949   6.211   2.108 -0.2332 -0.4326 -0.0632
 6420SOL     OW25445   3.532   3.681   3.678  0.2527  0.0609 -0.6493
 6420SOL    HW225446   3.621   3.716   3.682 -0.2632  1.7304 -2.5499
 6420SOL    HW325447   3.485   3.725   3.749 -0.1197  2.6539 -2.3664
 6420SOL    MW425448   3.537   3.691   3.688  0.1355  0.6233 -1.1266
 6421SOL     OW25449   1.818   5.875   4.947 -0.0677 -0.1694 -0.5964
 6421SOL    HW225450   1.801   5.878   4.853  1.5202 -1.3812 -0.9622
 6421SOL    HW325451   1.895   5.930   4.960 -1.6275  1.8936  0.3944
 6421SOL    MW425452   1.826   5.883   4.937 -0.0640 -0.0571 -0.5139
 6422SOL     OW25453   4.823   0.601   6.235 -0.7330 -0.0536  0.0860
 6422SOL    HW225454   4.728   0.601   6.236 -0.7462 -0.6001 -0.7656
 6422SOL    HW325455   4.847   0.515   6.200  0.0729  0.0023  0.4783
 6422SOL    MW425456   4.814   0.590   6.231 -0.6284 -0.1183  0.0254
 6423SOL     OW25457   0.391   1.914   0.044  0.0455  0.6642  0.4931
 6423SOL    HW225458   0.330   1.943  -0.023  0.6642  0.9370  0.0312
 6423SOL    HW325459   0.417   1.994   0.090 -1.0086  0.3903  1.6359
 6423SOL    MW425460   0.387   1.928   0.041 -0.0120  0.6640  0.5829
 6424SOL     OW25461   0.618   2.260   3.112  0.3255 -0.1018  0.0389
 6424SOL    HW225462   0.657   2.177   3.140 -0.4733 -1.1790 -1.8555
 6424SOL    HW325463   0.524   2.250   3.131  0.4290  1.1453  1.4708
 6424SOL    MW425464   0.611   2.248   3.119  0.2337 -0.0794 -0.0222
 6425SOL     OW25465   0.125   0.215   4.978  0.0512  0.1864  0.3211
 6425SOL    HW225466   0.037   0.184   4.956 -0.0256 -0.3493  1.3394
 6425SOL    HW325467   0.131   0.301   4.936 -0.5978 -0.1839 -0.5653
 6425SOL    MW425468   0.114   0.223   4.969 -0.0445  0.0669  0.3385
 6426SOL     OW25469   6.025   1.834   0.188 -0.4297  0.4953  0.1974
 6426SOL    HW225470   5.949   1.789   0.151 -0.6613  0.7741  0.3324
 6426SOL    HW325471   5.989   1.888   0.258  0.0272 -0.1329  0.9288
 6426SOL    MW425472   6.010   1.835   0.192 -0.4000  0.4492  0.3117
 6427SOL     OW25473   1.295   4.151   5.410  0.1832 -0.4761 -0.0346
 6427SOL    HW225474   1.265   4.076   5.358  1.4565 -1.3685  0.4660
 6427SOL    HW325475   1.291   4.120   5.501 -1.7799  0.9809  0.4355
 6427SOL    MW425476   1.291   4.137   5.415  0.0922 -0.4016  0.0935
 6428SOL     OW25477   1.853   3.783   3.861  0.5450 -0.2042 -0.5521
 6428SOL    HW225478   1.874   3.866   3.902 -1.2968 -0.0219  0.1304
 6428SOL    HW325479   1.770   3.799   3.815 -0.7302 -2.0443  0.9446
 6428SOL    MW425480   1.845   3.796   3.860  0.1337 -0.4229 -0.2645
 6429SOL     OW25481   5.062   2.499   1.590  0.3472  0.5518  0.5208
 6429SOL    HW225482   5.099   2.509   1.678 -2.1864  2.9548  1.4687
 6429SOL    HW325483   4.975   2.539   1.596 -0.4799 -0.4437 -2.7663
 6429SOL    MW425484   5.055   2.506   1.602 -0.0962  0.7375  0.2122
 6430SOL     OW25485   1.237   4.984   1.573  0.0008  0.1595  0.2714
 6430SOL    HW225486   1.186   5.027   1.504 -0.5377 -0.8384  0.0185
 6430SOL    HW325487   1.252   4.895   1.539  1.3299  0.2208  0.6512
 6430SOL    MW425488   1.232   4.978   1.559  0.1051  0.0360  0.2881
 6431SOL     OW25489   2.038   2.734   1.906 -0.3214 -0.4259  0.1470
 6431SOL    HW225490   2.063   2.810   1.957 -1.1568 -0.3536  0.4546
 6431SOL    HW325491   2.020   2.666   1.971  1.1918 -1.1529 -0.1389
 6431SOL    MW425492   2.039   2.735   1.921 -0.2319 -0.5123  0.1499
 6432SOL     OW25493   3.611   6.128   2.406  0.0610 -0.2388 -0.4448
 6432SOL    HW225494   3.705   6.150   2.411  0.2906 -1.2676 -0.1039
 6432SOL    HW325495   3.574   6.166   2.486  0.0524  0.7226 -0.8845
 6432SOL    MW425496   3.619   6.136   2.417  0.0902 -0.2477 -0.4578
 6433SOL     OW25497   6.285   0.122   4.905 -0.8764 -0.0200 -0.1008
 6433SOL    HW225498   6.254   0.196   4.853 -1.5928  0.0000  0.3450
 6433SOL    HW325499   6.282   0.048   4.844 -0.6997  0.2042 -0.3872
 6433SOL    MW425500   6.280   0.122   4.890 -0.9476  0.0122 -0.0797
 6434SOL     OW25501   5.211   0.219   5.628  0.1187 -0.0576 -0.0846
 6434SOL    HW225502   5.253   0.207   5.543 -0.0382  0.4917 -0.2472
 6434SOL    HW325503   5.117   0.223   5.608  0.0724 -0.0602  0.1311
 6434SOL    MW425504   5.204   0.218   5.614  0.0919  0.0146 -0.0776
 6435SOL     OW25505   1.524   2.939   2.803 -0.1562  0.2823  0.6019
 6435SOL    HW225506   1.548   2.908   2.716 -1.3779 -0.1610  0.4025
 6435SOL    HW325507   1.582   2.892   2.862 -0.4426 -0.6952  0.1305
 6435SOL    MW425508   1.534   2.929   2.799 -0.3552  0.0948  0.5134
 6436SOL     OW25509   0.509   0.735   5.273 -0.0583  0.1787 -0.0005
 6436SOL    HW225510   0.593   0.706   5.237 -0.0370  2.2261 -1.7879
 6436SOL    HW325511   0.449   0.661   5.255  1.2959 -1.3227  1.3500
 6436SOL    MW425512   0.512   0.721   5.266  0.1232  0.2507 -0.0582
 6437SOL     OW25513   0.914   2.073   1.497  0.6388  0.3074  0.0182
 6437SOL    HW225514   0.929   2.019   1.575 -1.9814  0.4685  0.7318
 6437SOL    HW325515   0.971   2.149   1.509 -0.2757  0.7177  2.2267
 6437SOL    MW425516   0.923   2.076   1.509  0.1724  0.3828  0.4037
 6438SOL     OW25517   5.998   5.297   2.788  0.4410  0.5777  0.4192
 6438SOL    HW225518   6.052   5.258   2.858 -0.0242  0.6864  0.8385
 6438SOL    HW325519   5.971   5.222   2.735  0.9037  0.5082  0.2721
 6438SOL    MW425520   6.002   5.282   2.790  0.4407  0.5829  0.4551
 6439SOL     OW25521   5.841   5.538   1.833 -0.5596  0.7259 -0.3261
 6439SOL    HW225522   5.835   5.445   1.810 -5.4168  1.0454 -1.3498
 6439SOL    HW325523   5.841   5.539   1.928 -0.0105 -0.2841 -0.2965
 6439SOL    MW425524   5.840   5.526   1.842 -1.1280  0.6348 -0.4573
 6440SOL     OW25525   2.331   3.624   4.333 -0.4282  0.4160  0.2450
 6440SOL    HW225526   2.235   3.618   4.342 -0.4501  1.3919  0.7360
 6440SOL    HW325527   2.348   3.591   4.245 -1.1342 -0.5011  0.4293
 6440SOL    MW425528   2.320   3.619   4.323 -0.5243  0.4238  0.3341
 6441SOL     OW25529   4.879   4.810   1.616  0.6046  0.1093 -0.5553
 6441SOL    HW225530   4.877   4.812   1.712  2.0395 -1.1002 -0.4649
 6441SOL    HW325531   4.830   4.731   1.592  1.1496 -0.1733 -0.7571
 6441SOL    MW425532   4.873   4.800   1.626  0.8658 -0.0876 -0.5700
 6442SOL     OW25533   0.531   3.227   3.286  0.1481 -0.1994 -0.3302
 6442SOL    HW225534   0.564   3.297   3.342 -1.1754  0.3580 -0.2322
 6442SOL    HW325535   0.465   3.268   3.231  0.6807 -0.9626 -1.6053
 6442SOL    MW425536   0.527   3.241   3.286  0.0437 -0.2266 -0.4855
 6443SOL     OW25537   2.458   0.746   4.182  0.5339 -0.0124 -0.4106
 6443SOL    HW225538   2.392   0.677   4.170  0.1672  0.2616  0.0326
 6443SOL    HW325539   2.436   0.811   4.115 -1.9625  1.8654  2.0082
 6443SOL    MW425540   2.446   0.745   4.171  0.1562  0.2715 -0.0330
 6444SOL     OW25541   5.798   4.904   5.997  0.5314  0.0307 -0.4337
 6444SOL    HW225542   5.830   4.950   6.075  1.7597  0.2550 -1.0517
 6444SOL    HW325543   5.707   4.882   6.018  0.5411  0.9608  0.6693
 6444SOL    MW425544   5.790   4.907   6.010  0.6947  0.1830 -0.3697
 6445SOL     OW25545   0.322   3.231   0.970  0.8062 -0.6620 -0.2581
 6445SOL    HW225546   0.295   3.322   0.978 -0.1590 -0.5657 -3.3140
 6445SOL    HW325547   0.408   3.227   1.012  1.0949  1.7920 -0.4986
 6445SOL    MW425548   0.330   3.242   0.976  0.7170 -0.3256 -0.6930
 6446SOL     OW25549   0.877   5.203   3.905 -0.1100 -0.2219  0.3641
 6446SOL    HW225550   0.801   5.161   3.944 -0.3735 -1.4467 -1.3654
 6446SOL    HW325551   0.952   5.169   3.955 -0.5571 -0.1878  1.0746
 6446SOL    MW425552   0.877   5.193   3.917 -0.2038 -0.3790  0.2297
 6447SOL     OW25553   6.208   2.984   1.184  0.7609 -0.3986  0.4980
 6447SOL    HW225554   6.254   2.948   1.108  0.1542  0.2561 -0.2002
 6447SOL    HW325555   6.195   2.909   1.242 -0.0045 -1.2065 -0.6858
 6447SOL    MW425556   6.212   2.969   1.182  0.5798 -0.4188  0.2497
 6448SOL     OW25557   2.971   3.867   3.380  0.3288  0.3365 -0.7381
 6448SOL    HW225558   2.948   3.957   3.402 -1.5997 -0.2883  0.0146
 6448SOL    HW325559   2.927   3.850   3.297 -0.9043 -0.4348  0.0236
 6448SOL    MW425560   2.962   3.876   3.372 -0.0883  0.1523 -0.5383
 6449SOL     OW25561   0.761   1.757   0.567 -0.1204  0.2577 -1.2182
 6449SOL    HW225562   0.724   1.769   0.655 -1.9704  2.6748 -2.2424
 6449SOL    HW325563   0.841   1.809   0.567  1.3748 -1.8720 -0.2320
 6449SOL    MW425564   0.766   1.765   0.579 -0.1672  0.2956 -1.2232
 6450SOL     OW25565   2.010   3.236   5.754 -0.2386  0.2305  0.1484
 6450SOL    HW225566   1.917   3.215   5.748 -0.5071  0.8860  1.6244
 6450SOL    HW325567   2.038   3.199   5.838  1.3437 -1.7187 -1.1464
 6450SOL    MW425568   2.002   3.229   5.764 -0.0653  0.0598  0.1723
 6451SOL     OW25569   3.416   1.598   4.085  0.1390 -0.0533  0.6975
 6451SOL    HW225570   3.479   1.593   4.157  0.7886  0.8436  0.2037
 6451SOL    HW325571   3.409   1.508   4.054  0.6471 -0.2775  1.2059
 6451SOL    MW425572   3.423   1.585   4.090  0.2917  0.0354  0.6994
 6452SOL     OW25573   3.863   5.379   0.952  0.2457  0.3735  0.7921
 6452SOL    HW225574   3.810   5.398   1.029 -0.7633 -0.0124  0.2127
 6452SOL    HW325575   3.800   5.370   0.880  1.2731  2.6779 -0.5209
 6452SOL    MW425576   3.848   5.380   0.952  0.2482  0.6266  0.5424
 6453SOL     OW25577   6.266   5.185   3.590  0.0025 -0.0109 -0.0711
 6453SOL    HW225578   6.311   5.265   3.618 -1.3650  0.7694 -0.0252
 6453SOL    HW325579   6.239   5.203   3.500 -0.3777 -0.3872 -0.0339
 6453SOL    MW425580   6.269   5.198   3.582 -0.2281  0.0424 -0.0601
 6454SOL     OW25581   0.012   0.610   0.200  0.1111 -0.1544  0.1323
 6454SOL    HW225582   0.039   0.667   0.272 -0.4751 -1.1141  1.1335
 6454SOL    HW325583  -0.026   0.669   0.135  0.6813  0.7284  0.5881
 6454SOL    MW425584   0.011   0.625   0.201  0.1090 -0.1646  0.3245
 6455SOL     OW25585   5.615   5.017   1.689  0.2166  0.2692 -0.2203
 6455SOL    HW225586   5.679   4.986   1.753  0.7382  0.5636 -0.5941
 6455SOL    HW325587   5.613   4.948   1.622  0.1573  0.2727 -0.2225
 6455SOL    MW425588   5.623   5.004   1.689  0.2776  0.3085 -0.2699
 6456SOL     OW25589   5.303   3.190   6.396  0.5476  0.3450  0.2466
 6456SOL    HW225590   5.225   3.245   6.405  0.6822  0.4203  1.0523
 6456SOL    HW325591   5.309   3.171   6.302  1.0278  2.4555 -0.2030
 6456SOL    MW425592   5.294   3.195   6.385  0.6287  0.6334  0.2936
 6457SOL     OW25593   1.208   0.227   0.092 -0.2673 -0.1749 -0.3608
 6457SOL    HW225594   1.284   0.178   0.125 -1.0688 -0.2967  1.4758
 6457SOL    HW325595   1.244   0.291   0.032  1.3052 -0.1951  0.5141
 6457SOL    MW425596   1.223   0.229   0.089 -0.1656 -0.1936 -0.0030
 6458SOL     OW25597   3.427   0.933   6.162 -0.0835 -0.0156 -0.0835
 6458SOL    HW225598   3.385   0.866   6.215 -1.3119  1.5568  1.0192
 6458SOL    HW325599   3.457   0.886   6.084  0.0272 -2.0158  1.0918
 6458SOL    MW425600   3.426   0.918   6.159 -0.2310 -0.0721  0.2171
 6459SOL     OW25601   5.215   0.958   3.763  0.2375 -0.7682  0.2952
 6459SOL    HW225602   5.266   0.980   3.841  0.3361 -0.0268  0.0230
 6459SOL    HW325603   5.128   0.995   3.780  0.4475 -0.0113 -0.2263
 6459SOL    MW425604   5.210   0.966   3.775  0.2782 -0.5705  0.1905
 6460SOL     OW25605   5.997   3.380   0.572 -0.5294  0.2046 -0.0994
 6460SOL    HW225606   6.002   3.337   0.658  1.1612  1.3264  0.4180
 6460SOL    HW325607   6.081   3.426   0.563 -1.7099  2.3414 -1.1466
 6460SOL    MW425608   6.009   3.381   0.583 -0.4621  0.6345 -0.1693
 6461SOL     OW25609   4.781   6.106   2.135 -0.0374  0.6281  0.2564
 6461SOL    HW225610   4.761   6.123   2.043 -1.7521 -2.0056  0.0645
 6461SOL    HW325611   4.775   6.192   2.176  0.0544  1.7636 -1.9320
 6461SOL    MW425612   4.777   6.120   2.128 -0.2515  0.4305 -0.0576
 6462SOL     OW25613   5.701   1.892   1.323  0.2230  0.0913  0.5507
 6462SOL    HW225614   5.786   1.930   1.344 -0.0532  1.9065 -1.2765
 6462SOL    HW325615   5.711   1.799   1.342  2.6243  0.2504  0.3738
 6462SOL    MW425616   5.713   1.885   1.328  0.5033  0.3518  0.2863
 6463SOL     OW25617   0.899   5.564   2.991  0.2075 -0.2862 -0.4316
 6463SOL    HW225618   0.871   5.486   2.943  0.7959 -0.4174 -0.5612
 6463SOL    HW325619   0.824   5.623   2.986 -1.6299 -2.0989  2.5142
 6463SOL    MW425620   0.885   5.561   2.984  0.0427 -0.5427 -0.0601
 6464SOL     OW25621   6.425   5.924   3.266  0.2498 -0.2879 -0.5027
 6464SOL    HW225622   6.420   5.835   3.233 -0.4901  0.3424 -2.2198
 6464SOL    HW325623   6.377   5.922   3.349 -0.3403 -1.3433 -0.8614
 6464SOL    MW425624   6.418   5.912   3.273  0.0743 -0.3440 -0.7765
 6465SOL     OW25625   5.513   2.728   5.377 -0.2569  0.1893  0.4247
 6465SOL    HW225626   5.524   2.693   5.465  0.7157  0.3950  0.4014
 6465SOL    HW325627   5.422   2.756   5.372  0.3355  2.7710  2.3220
 6465SOL    MW425628   5.503   2.727   5.388 -0.0504  0.5570  0.6719
 6466SOL     OW25629   1.096   5.246   6.059  0.5020 -0.0774  0.3508
 6466SOL    HW225630   1.187   5.217   6.067  1.0999  1.0795 -1.5058
 6466SOL    HW325631   1.081   5.300   6.136  2.0374  1.2267 -0.2119
 6466SOL    MW425632   1.106   5.249   6.070  0.7835  0.2473  0.0316
 6467SOL     OW25633   3.246   0.088   3.626  0.1666 -0.0566  0.5189
 6467SOL    HW225634   3.285   0.146   3.561 -2.5839  2.8525  1.2189
 6467SOL    HW325635   3.195   0.025   3.576  0.0028  0.6466 -0.2116
 6467SOL    MW425636   3.245   0.088   3.611 -0.2179  0.4200  0.5149
 6468SOL     OW25637   0.775   3.387   6.220 -0.1951 -0.1315 -0.1126
 6468SOL    HW225638   0.817   3.347   6.296 -1.4986 -2.5467 -0.5570
 6468SOL    HW325639   0.844   3.393   6.154  1.4450  3.6107  1.6002
 6468SOL    MW425640   0.790   3.383   6.221 -0.1507  0.0436  0.0548
 6469SOL     OW25641   0.867   1.401   0.789 -0.2041  0.0276 -0.0368
 6469SOL    HW225642   0.784   1.392   0.837  0.6413 -1.2641  1.2759
 6469SOL    HW325643   0.886   1.313   0.758  0.4772  0.3980 -0.6874
 6469SOL    MW425644   0.858   1.388   0.791 -0.0027 -0.0939  0.0506
 6470SOL     OW25645   1.972   2.683   6.205  0.0002 -0.0232 -0.7827
 6470SOL    HW225646   1.899   2.653   6.150  0.0119  0.3869 -1.0247
 6470SOL    HW325647   1.937   2.759   6.252  0.8334  1.3579 -2.3122
 6470SOL    MW425648   1.958   2.689   6.204  0.1117  0.2131 -1.0165
 6471SOL     OW25649   0.133   5.108   5.953  0.3140 -0.4050 -0.3126
 6471SOL    HW225650   0.132   5.203   5.955  1.2379 -0.3766  1.5648
 6471SOL    HW325651   0.063   5.082   6.013 -0.3230 -0.9391 -1.2577
 6471SOL    MW425652   0.124   5.117   5.961  0.3519 -0.4717 -0.1896
 6472SOL     OW25653   3.816   6.062   0.557  0.3142 -0.9758 -0.0353
 6472SOL    HW225654   3.895   6.043   0.506  0.2341 -0.5897 -0.3093
 6472SOL    HW325655   3.837   6.142   0.605  0.1222 -0.9227 -0.0389
 6472SOL    MW425656   3.829   6.070   0.557  0.2783 -0.9179 -0.0719
 6473SOL     OW25657   0.036   0.240   3.561  0.6352 -0.3563  0.5024
 6473SOL    HW225658   0.027   0.198   3.476  1.8810  1.4921 -0.6048
 6473SOL    HW325659  -0.053   0.267   3.585  0.4403  0.3063 -0.8835
 6473SOL    MW425660   0.023   0.238   3.553  0.7739 -0.0250  0.1734
 6474SOL     OW25661   1.231   6.246   5.962 -0.4887  0.4839 -0.3887
 6474SOL    HW225662   1.147   6.257   6.007 -1.2195 -2.2540 -0.9183
 6474SOL    HW325663   1.297   6.267   6.028 -1.5566  0.2614  0.7903
 6474SOL    MW425664   1.229   6.250   5.976 -0.7260  0.0933 -0.3030
 6475SOL     OW25665   3.787   6.226   4.058 -0.1851  0.7012  0.2765
 6475SOL    HW225666   3.808   6.161   4.126 -0.9262  0.1679  0.0092
 6475SOL    HW325667   3.858   6.217   3.995 -0.0176  0.4938  0.4889
 6475SOL    MW425668   3.799   6.216   4.059 -0.2608  0.6035  0.2693
 6476SOL     OW25669   1.802   4.590   2.481  0.4081 -0.3527 -0.0978
 6476SOL    HW225670   1.723   4.644   2.479  1.2584  0.9556 -2.9742
 6476SOL    HW325671   1.790   4.527   2.410  1.4239 -0.9610  0.2472
 6476SOL    MW425672   1.790   4.589   2.471  0.6543 -0.2603 -0.4318
 6477SOL     OW25673   0.080   2.805   2.691 -0.2929  0.1420  0.4507
 6477SOL    HW225674   0.009   2.783   2.632 -0.3309 -0.8732  0.8483
 6477SOL    HW325675   0.119   2.885   2.655  0.6632 -1.2635 -1.8112
 6477SOL    MW425676   0.076   2.813   2.679 -0.1718 -0.1774  0.2047
 6478SOL     OW25677   1.252   2.452   3.060  0.0615 -0.6342  0.2366
 6478SOL    HW225678   1.167   2.465   3.018  0.4154 -0.8520 -0.5831
 6478SOL    HW325679   1.255   2.358   3.081  1.4892 -1.5292 -3.0828
 6478SOL    MW425680   1.241   2.441   3.057  0.2966 -0.7810 -0.3095
 6479SOL     OW25681   1.026   1.179   5.414  0.0244 -0.3441 -0.5160
 6479SOL    HW225682   0.974   1.100   5.429  0.0598 -0.1468  0.7383
 6479SOL    HW325683   0.963   1.243   5.380  0.1226 -1.0764 -2.1788
 6479SOL    MW425684   1.011   1.177   5.412  0.0421 -0.4147 -0.5699
 6480SOL     OW25685   3.437   1.275   2.228  0.0572 -0.8037 -0.3936
 6480SOL    HW225686   3.450   1.188   2.190 -0.4250 -0.7223 -0.7632
 6480SOL    HW325687   3.437   1.260   2.323 -0.1006 -1.2217 -0.4559
 6480SOL    MW425688   3.439   1.261   2.236 -0.0272 -0.8481 -0.4506
 6481SOL     OW25689   4.045   3.500   4.931  0.2588  0.2507 -0.2854
 6481SOL    HW225690   3.961   3.459   4.909  0.0208  0.7315 -0.2888
 6481SOL    HW325691   4.077   3.449   5.006 -0.0168  0.0414 -0.3045
 6481SOL    MW425692   4.038   3.488   4.938  0.1910  0.2865 -0.2884
 6482SOL     OW25693   2.964   2.928   0.791 -0.4007 -0.5134 -0.0127
 6482SOL    HW225694   2.986   2.878   0.712 -0.5500 -1.1778  0.3574
 6482SOL    HW325695   2.942   2.861   0.856 -2.9492  0.0562 -0.1682
 6482SOL    MW425696   2.964   2.913   0.789 -0.7567 -0.5259  0.0156
 6483SOL     OW25697   4.699   1.751   5.712  0.5643  0.0449 -0.9457
 6483SOL    HW225698   4.664   1.663   5.696  3.3054 -1.2437 -0.4487
 6483SOL    HW325699   4.626   1.799   5.751 -1.2216 -1.7669 -1.8638
 6483SOL    MW425700   4.684   1.746   5.715  0.6903 -0.3641 -1.0013
 6484SOL     OW25701   0.551   0.213   6.175  0.5839 -0.2033  0.4351
 6484SOL    HW225702   0.475   0.167   6.139  0.3320  1.3030 -1.0745
 6484SOL    HW325703   0.552   0.298   6.130  1.4654  0.9891  2.5524
 6484SOL    MW425704   0.541   0.218   6.164  0.6670  0.1528  0.5153
 6485SOL     OW25705   3.473   0.037   1.818 -0.3284 -0.0796  0.0842
 6485SOL    HW225706   3.532   0.106   1.787  1.1138 -1.5029 -0.5160
 6485SOL    HW325707   3.452  -0.013   1.739 -0.7613 -0.7460  0.6167
 6485SOL    MW425708   3.478   0.040   1.803 -0.1952 -0.3553  0.0752
 6486SOL     OW25709   0.269   1.422   3.830  0.4254  0.5048 -0.4287
 6486SOL    HW225710   0.219   1.457   3.756  0.8246  3.3641  0.5136
 6486SOL    HW325711   0.302   1.500   3.875  1.5829 -1.1723  1.8225
 6486SOL    MW425712   0.266   1.437   3.826  0.6308  0.6608 -0.0074
 6487SOL     OW25713   6.153   1.065   2.541  0.3994  0.2619  0.0015
 6487SOL    HW225714   6.230   1.076   2.597 -1.1031  1.7164  1.9047
 6487SOL    HW325715   6.130   1.153   2.513  0.0049 -0.2587 -1.3867
 6487SOL    MW425716   6.160   1.078   2.545  0.1491  0.3851  0.0695
 6488SOL     OW25717   4.274   3.113   5.056  0.0512  0.0415  0.4648
 6488SOL    HW225718   4.345   3.072   5.105  0.7590 -1.4831 -1.6336
 6488SOL    HW325719   4.314   3.190   5.016  0.3238 -0.3702 -0.0702
 6488SOL    MW425720   4.288   3.117   5.057  0.1805 -0.2140  0.1173
 6489SOL     OW25721   0.510   4.517   4.232  0.0907 -0.4728 -0.2846
 6489SOL    HW225722   0.497   4.604   4.270 -0.2184 -0.6056 -0.0833
 6489SOL    HW325723   0.565   4.533   4.155 -0.9469  0.0645 -0.9436
 6489SOL    MW425724   0.516   4.531   4.227 -0.0870 -0.4194 -0.3450
 6490SOL     OW25725   1.080   0.582   3.254  0.1222 -0.1011  0.7294
 6490SOL    HW225726   1.107   0.490   3.250  2.6827  0.5380  1.7461
 6490SOL    HW325727   1.079   0.609   3.162  3.3752 -0.1537  0.5615
 6490SOL    MW425728   1.083   0.573   3.241  0.8892 -0.0237  0.8414
 6491SOL     OW25729   0.705   0.480   1.629  0.0897  0.4219 -0.2490
 6491SOL    HW225730   0.673   0.444   1.547  1.0505  0.4086 -0.6335
 6491SOL    HW325731   0.776   0.421   1.655 -0.7367 -0.0604  1.0318
 6491SOL    MW425732   0.710   0.467   1.622  0.1074  0.3565 -0.1307
 6492SOL     OW25733   1.099   2.171   2.650  0.1329  0.2357 -0.0548
 6492SOL    HW225734   1.194   2.167   2.659  0.2541 -2.4618 -1.6267
 6492SOL    HW325735   1.067   2.180   2.740  1.7997 -2.2597  0.8892
 6492SOL    MW425736   1.107   2.172   2.663  0.3688 -0.4494 -0.1376
 6493SOL     OW25737   4.666   1.884   3.858  0.0033 -0.3461 -0.9717
 6493SOL    HW225738   4.589   1.850   3.904  0.5992 -0.9577 -0.3941
 6493SOL    HW325739   4.736   1.825   3.884  1.1782  1.5175  0.3285
 6493SOL    MW425740   4.665   1.871   3.868  0.2369 -0.1809 -0.7240
 6494SOL     OW25741   5.523   4.507   5.114  0.5761  0.8458 -0.4878
 6494SOL    HW225742   5.462   4.479   5.047  2.3927 -0.5297 -1.6749
 6494SOL    HW325743   5.540   4.429   5.166  2.9422  0.5696 -1.5563
 6494SOL    MW425744   5.517   4.493   5.112  1.1279  0.6279 -0.7854
 6495SOL     OW25745   2.675   1.301   5.387 -0.0792 -0.0928  0.0092
 6495SOL    HW225746   2.724   1.327   5.465 -0.5960  0.1092  0.2685
 6495SOL    HW325747   2.673   1.381   5.333 -2.3963  0.7243  1.1790
 6495SOL    MW425748   2.681   1.315   5.390 -0.4531  0.0417  0.1978
 6496SOL     OW25749   6.030   3.852   1.382  0.3630  0.0073 -0.0259
 6496SOL    HW225750   6.094   3.845   1.454  0.3617 -2.5251 -0.1757
 6496SOL    HW325751   6.082   3.879   1.306  0.9291 -0.2801  0.2525
 6496SOL    MW425752   6.045   3.855   1.382  0.4375 -0.3648 -0.0089
 6497SOL     OW25753   5.227   2.015   4.891 -0.0879  0.0838 -0.4775
 6497SOL    HW225754   5.242   1.927   4.857  0.2899  0.1232 -0.4112
 6497SOL    HW325755   5.239   2.006   4.986 -0.9792  0.0082 -0.3560
 6497SOL    MW425756   5.230   2.002   4.899 -0.1557  0.0790 -0.4527
 6498SOL     OW25757   1.631   1.512   2.362  0.4673  0.1496 -0.0952
 6498SOL    HW225758   1.633   1.570   2.439  1.6391  3.1275 -2.1863
 6498SOL    HW325759   1.709   1.458   2.371  0.9833  0.9562  0.4652
 6498SOL    MW425760   1.641   1.512   2.374  0.6900  0.6489 -0.2971
 6499SOL     OW25761   5.309   6.003   5.676 -0.2133 -0.0146  0.2516
 6499SOL    HW225762   5.337   6.087   5.713 -0.6339  0.6741 -0.9265
 6499SOL    HW325763   5.389   5.950   5.673  0.5547  1.1363 -1.0226
 6499SOL    MW425764   5.323   6.007   5.680 -0.1675  0.2281 -0.0719
 6500SOL     OW25765   2.654   0.159   4.962  0.2264 -0.2475  0.5625
 6500SOL    HW225766   2.628   0.173   4.870  0.2530  0.2336  0.6280
 6500SOL    HW325767   2.620   0.072   4.983  1.4637 -0.9814 -0.3463
 6500SOL    MW425768   2.646   0.149   4.952  0.3932 -0.2809  0.4513
 6501SOL     OW25769   0.454   5.061   0.440  0.2663  0.0434 -0.0402
 6501SOL    HW225770   0.486   4.979   0.404 -0.6762 -0.0089 -0.7840
 6501SOL    HW325771   0.379   5.036   0.494  0.0768  0.4041 -0.1369
 6501SOL    MW425772   0.449   5.047   0.442  0.1170  0.0841 -0.1511
 6502SOL     OW25773   2.858   6.129   6.044  0.6461  0.4705 -0.4717
 6502SOL    HW225774   2.843   6.197   6.111  0.6455 -1.0979  1.1814
 6502SOL    HW325775   2.802   6.057   6.071  0.2877 -0.0562 -2.4727
 6502SOL    MW425776   2.848   6.129   6.056  0.5987  0.1941 -0.5176
 6503SOL     OW25777   1.068   4.469   3.993  0.5652  0.2136  0.0430
 6503SOL    HW225778   1.100   4.381   3.972  0.3613 -0.7995  3.4323
 6503SOL    HW325779   1.064   4.514   3.908  0.1317 -3.1916 -1.9064
 6503SOL    MW425780   1.072   4.463   3.979  0.4811 -0.3694  0.2330
 6504SOL     OW25781   2.839   1.732   0.664 -0.1129 -0.2036  0.3222
 6504SOL    HW225782   2.891   1.800   0.621 -0.4797 -0.4843 -0.5889
 6504SOL    HW325783   2.777   1.780   0.719  1.2237  0.1359  1.5997
 6504SOL    MW425784   2.838   1.747   0.665  0.0150 -0.1958  0.3705
 6505SOL     OW25785   5.310   6.141   0.928 -0.4819  0.3435  0.4073
 6505SOL    HW225786   5.403   6.125   0.946 -0.3388  0.1263 -0.4994
 6505SOL    HW325787   5.265   6.102   1.003  0.1502  0.4128  0.8353
 6505SOL    MW425788   5.317   6.134   0.940 -0.3797  0.3240  0.3441
 6506SOL     OW25789   5.789   1.474   5.014  0.2225 -0.1525  0.3692
 6506SOL    HW225790   5.864   1.521   4.976 -0.1429  0.2852  0.1698
 6506SOL    HW325791   5.731   1.544   5.045  0.0650 -0.4962  0.8463
 6506SOL    MW425792   5.791   1.490   5.013  0.1535 -0.1401  0.4058
 6507SOL     OW25793   5.288   3.415   2.222 -0.2836  0.0950 -0.1948
 6507SOL    HW225794   5.322   3.496   2.259  0.5710 -0.0167 -0.7170
 6507SOL    HW325795   5.195   3.433   2.206 -0.0476  1.0512 -0.5449
 6507SOL    MW425796   5.280   3.428   2.225 -0.1397  0.2064 -0.3099
 6508SOL     OW25797   0.566   2.127   5.107  0.3310 -0.0788 -0.3803
 6508SOL    HW225798   0.626   2.071   5.157 -0.2573 -0.1372  0.2903
 6508SOL    HW325799   0.574   2.097   5.017  0.3883 -0.9191 -0.1040
 6508SOL    MW425800   0.575   2.116   5.102  0.2610 -0.1974 -0.2554
 6509SOL     OW25801   0.364   1.196   3.509  0.2891  0.5839  0.2136
 6509SOL    HW225802   0.373   1.181   3.603  0.3541  0.0474  0.1243
 6509SOL    HW325803   0.273   1.173   3.490  0.3236  0.5304  0.1144
 6509SOL    MW425804   0.353   1.191   3.519  0.3022  0.5061  0.1888
 6510SOL     OW25805   4.014   3.116   5.086  0.1270  0.1640 -0.1056
 6510SOL    HW225806   3.972   3.130   5.002 -0.1055  1.5765  0.2135
 6510SOL    HW325807   4.107   3.110   5.065  0.3329  2.8466 -0.3006
 6510SOL    MW425808   4.021   3.117   5.073  0.1235  0.7043 -0.0893
 6511SOL     OW25809   5.895   4.854   3.223 -0.0591 -0.5925  0.4568
 6511SOL    HW225810   5.889   4.916   3.296 -1.3140 -1.5081  1.1555
 6511SOL    HW325811   5.986   4.823   3.227  1.0019  2.0609 -0.6816
 6511SOL    MW425812   5.906   4.858   3.233 -0.0847 -0.3632  0.3988
 6512SOL     OW25813   2.947   3.124   1.429 -0.1023  0.3706 -0.2452
 6512SOL    HW225814   2.983   3.042   1.398 -1.5276 -0.3126 -0.1970
 6512SOL    HW325815   2.865   3.134   1.379  0.6659  2.4409 -1.2379
 6512SOL    MW425816   2.941   3.115   1.418 -0.1890  0.5536 -0.3698
 6513SOL     OW25817   3.909   0.035   1.449 -0.3788  0.9833 -0.4118
 6513SOL    HW225818   3.940   0.122   1.422 -2.3860  1.8188 -0.1502
 6513SOL    HW325819   3.902  -0.014   1.367 -1.3333  1.7887 -0.8258
 6513SOL    MW425820   3.912   0.040   1.435 -0.7695  1.1998 -0.4319
 6514SOL     OW25821   0.376   5.872   4.388  0.1428  0.2333 -0.3838
 6514SOL    HW225822   0.356   5.817   4.464  3.1738 -0.3183  0.1208
 6514SOL    HW325823   0.366   5.961   4.420 -0.3440  0.0042  0.1258
 6514SOL    MW425824   0.372   5.876   4.402  0.4785  0.1303 -0.2500
 6515SOL     OW25825   3.541   1.113   3.832  0.4890  0.1130 -0.4540
 6515SOL    HW225826   3.587   1.182   3.880 -0.8484  0.0993  0.9011
 6515SOL    HW325827   3.495   1.159   3.761  1.8663  0.2229 -1.3158
 6515SOL    MW425828   3.541   1.128   3.829  0.4943  0.1257 -0.3889
 6516SOL     OW25829   3.168   2.443   1.485  0.0722  0.1431 -0.5430
 6516SOL    HW225830   3.176   2.517   1.546  2.5470 -1.1274  0.8700
 6516SOL    HW325831   3.086   2.400   1.510 -0.2925  1.1621  0.0735
 6516SOL    MW425832   3.158   2.447   1.497  0.3506  0.1099 -0.2753
 6517SOL     OW25833   1.813   0.301   1.813  0.2206  0.1191 -0.3276
 6517SOL    HW225834   1.859   0.219   1.831 -0.4057 -0.4115 -1.0325
 6517SOL    HW325835   1.838   0.324   1.723 -0.7719 -0.1246 -0.6877
 6517SOL    MW425836   1.822   0.293   1.803  0.0070  0.0170 -0.4681
 6518SOL     OW25837   0.134   4.226   5.320 -0.2959  0.0706  0.2307
 6518SOL    HW225838   0.178   4.210   5.403 -0.2100 -3.3548 -0.3372
 6518SOL    HW325839   0.053   4.270   5.344  0.1697  0.0025  2.0306
 6518SOL    MW425840   0.129   4.230   5.334 -0.2231 -0.3903  0.3932
 6519SOL     OW25841   1.119   5.529   4.373  0.5260 -0.2953  0.5550
 6519SOL    HW225842   1.065   5.554   4.299  0.1575  1.5333  1.3780
 6519SOL    HW325843   1.062   5.540   4.449  1.1368 -1.3547  1.1923
 6519SOL    MW425844   1.104   5.534   4.373  0.5580 -0.1938  0.7477
 6520SOL     OW25845   3.972   5.315   4.222 -0.0578  0.4387 -0.1548
 6520SOL    HW225846   3.988   5.226   4.192  1.5665  0.8644 -0.6815
 6520SOL    HW325847   3.891   5.310   4.273 -0.1189 -1.2730 -0.3774
 6520SOL    MW425848   3.963   5.303   4.224  0.1484  0.2691 -0.2537
 6521SOL     OW25849   2.606   4.636   3.949  0.0448  0.0726 -0.3929
 6521SOL    HW225850   2.642   4.555   3.912  0.8054  0.2110  0.0407
 6521SOL    HW325851   2.521   4.646   3.905  0.6206 -0.1385 -1.5962
 6521SOL    MW425852   2.599   4.627   3.938  0.2212  0.0630 -0.4944
 6522SOL     OW25853   4.457   0.270   2.460 -0.1228  0.0721  0.4892
 6522SOL    HW225854   4.364   0.244   2.461 -0.2657  0.5822  1.0433
 6522SOL    HW325855   4.462   0.343   2.522  0.6439  0.0795  0.4248
 6522SOL    MW425856   4.445   0.276   2.468 -0.0405  0.1404  0.5538
 6523SOL     OW25857   4.234   5.767   5.161  0.2663 -0.0935 -0.3543
 6523SOL    HW225858   4.174   5.748   5.089  0.2993 -2.9833  0.2789
 6523SOL    HW325859   4.317   5.728   5.134  0.8155  0.4658  0.4710
 6523SOL    MW425860   4.237   5.760   5.148  0.3431 -0.4010 -0.1619
 6524SOL     OW25861   0.351   2.221   2.678  0.2206  0.1485 -0.0017
 6524SOL    HW225862   0.310   2.211   2.764 -0.6921  1.2963 -0.2738
 6524SOL    HW325863   0.371   2.315   2.673  1.1030 -0.0672 -0.6790
 6524SOL    MW425864   0.348   2.232   2.689  0.2166  0.2715 -0.1270
 6525SOL     OW25865   2.787   6.021   3.829 -0.4733 -0.2152  0.0548
 6525SOL    HW225866   2.698   6.052   3.846 -0.2177  0.9502 -0.5846
 6525SOL    HW325867   2.809   5.966   3.904 -0.6002  1.9967  1.8095
 6525SOL    MW425868   2.778   6.018   3.841 -0.4563  0.2304  0.2019
 6526SOL     OW25869   0.783   0.948   1.395 -0.2418 -0.6026  0.0088
 6526SOL    HW225870   0.697   0.966   1.355 -0.4264 -1.8519 -0.1971
 6526SOL    HW325871   0.772   0.973   1.487 -0.3462  0.6591 -0.3249
 6526SOL    MW425872   0.770   0.954   1.402 -0.2799 -0.6010 -0.0624
 6527SOL     OW25873   6.389   3.622   6.383 -0.2037 -0.3672  0.1539
 6527SOL    HW225874   6.435   3.571   6.449 -1.4536  1.0509  2.2693
 6527SOL    HW325875   6.435   3.604   6.301  1.5905 -2.0103  1.4423
 6527SOL    MW425876   6.401   3.613   6.381 -0.1319 -0.3969  0.6030
 6528SOL     OW25877   2.364   2.101   2.903 -0.3985 -0.0739  0.0806
 6528SOL    HW225878   2.327   2.059   2.826  1.6462  1.5296 -1.8972
 6528SOL    HW325879   2.459   2.094   2.891  0.0556 -0.9136  3.1544
 6528SOL    MW425880   2.372   2.094   2.892 -0.0688  0.0269  0.2252
 6529SOL     OW25881   2.229   1.003   0.759  0.3156  0.2063 -0.7275
 6529SOL    HW225882   2.198   1.000   0.850  1.6161 -0.0915 -0.2577
 6529SOL    HW325883   2.152   1.024   0.707 -0.5387 -0.0197  0.4122
 6529SOL    MW425884   2.215   1.005   0.764  0.3744  0.1372 -0.5152
 6530SOL     OW25885   2.529   2.615   2.539  0.3601  0.4155  0.0854
 6530SOL    HW225886   2.486   2.682   2.591  0.8648  2.2346 -1.7011
 6530SOL    HW325887   2.623   2.629   2.554  0.5714  1.7044 -2.0363
 6530SOL    MW425888   2.536   2.626   2.548  0.4545  0.8256 -0.4302
 6531SOL     OW25889   0.574   1.530   1.794  0.1252 -0.0901 -0.1686
 6531SOL    HW225890   0.581   1.625   1.806  1.9018 -0.2539  0.3667
 6531SOL    HW325891   0.552   1.519   1.701  1.7556  0.8195 -0.6941
 6531SOL    MW425892   0.572   1.541   1.783  0.5747  0.0083 -0.1673
 6532SOL     OW25893   2.046   1.498   3.408  0.2442  0.6807 -0.2389
 6532SOL    HW225894   2.084   1.497   3.496 -2.4457  1.2168  1.0275
 6532SOL    HW325895   1.998   1.415   3.402  1.5066 -0.0225 -1.8377
 6532SOL    MW425896   2.045   1.487   3.419  0.0559  0.6586 -0.2828
 6533SOL     OW25897   1.709   0.280   0.057  0.2115 -0.2029  0.4872
 6533SOL    HW225898   1.690   0.209   0.118 -0.1689 -1.4653 -1.0106
 6533SOL    HW325899   1.798   0.307   0.079  0.2286 -0.8904  1.3354
 6533SOL    MW425900   1.718   0.274   0.068  0.1635 -0.4601  0.4015
 6534SOL     OW25901   5.826   3.158   5.959 -0.6264  0.0924  0.1967
 6534SOL    HW225902   5.794   3.070   5.978  0.7543 -0.3704  0.5281
 6534SOL    HW325903   5.775   3.215   6.017 -2.0081 -0.3830 -0.5077
 6534SOL    MW425904   5.815   3.154   5.969 -0.6265 -0.0314  0.1475
 6535SOL     OW25905   4.421   1.368   1.424 -0.2045 -0.1831  0.3015
 6535SOL    HW225906   4.439   1.453   1.464 -1.8868  0.5604 -0.4176
 6535SOL    HW325907   4.389   1.315   1.497 -2.3667  0.8863  0.2380
 6535SOL    MW425908   4.419   1.372   1.439 -0.7118  0.0561  0.1983
 6536SOL     OW25909   2.084   2.584   4.165 -0.3856  0.0415  0.2620
 6536SOL    HW225910   2.062   2.619   4.251 -0.7715 -0.2771  0.2996
 6536SOL    HW325911   2.176   2.559   4.172 -0.0376  1.2586  0.1533
 6536SOL    MW425912   2.093   2.585   4.177 -0.3906  0.1600  0.2526
 6537SOL     OW25913   4.772   4.811   5.706  0.0993 -0.6967  0.2098
 6537SOL    HW225914   4.803   4.793   5.618  1.3310  2.4688 -0.1309
 6537SOL    HW325915   4.826   4.884   5.736  0.2287 -2.0921  3.9113
 6537SOL    MW425916   4.783   4.818   5.699  0.2789 -0.4632  0.6532
 6538SOL     OW25917   4.865   3.558   5.738  0.1700  0.1061  0.1782
 6538SOL    HW225918   4.914   3.565   5.656  1.7893 -0.8003  1.0317
 6538SOL    HW325919   4.879   3.642   5.782  0.1253  0.2210 -0.0273
 6538SOL    MW425920   4.873   3.570   5.733  0.3778  0.0017  0.2637
 6539SOL     OW25921   4.354   3.552   5.134 -0.3089  0.1804 -0.0229
 6539SOL    HW225922   4.293   3.582   5.202  1.8919  0.2881  2.0516
 6539SOL    HW325923   4.354   3.622   5.069  0.4806  2.1328  1.9130
 6539SOL    MW425924   4.346   3.565   5.135  0.0857  0.4522  0.5062
 6540SOL     OW25925   2.083   6.241   6.183  0.2069  0.4172  0.4820
 6540SOL    HW225926   2.086   6.153   6.148 -0.4423  0.1064  1.1760
 6540SOL    HW325927   2.003   6.279   6.147  0.0581  0.4382  0.8332
 6540SOL    MW425928   2.073   6.235   6.174  0.1016  0.3790  0.6199
 6541SOL     OW25929   5.584   6.132   0.991 -0.1945  0.7325  0.5451
 6541SOL    HW225930   5.658   6.192   0.986  0.0322  0.4301  0.3017
 6541SOL    HW325931   5.621   6.049   1.022 -0.0829  0.0066 -1.4033
 6541SOL    MW425932   5.599   6.129   0.994 -0.1499  0.5968  0.2559
 6542SOL     OW25933   0.485   1.013   1.328  0.1924 -0.1885  0.0823
 6542SOL    HW225934   0.446   1.001   1.242 -0.6724  0.0724  0.4235
 6542SOL    HW325935   0.417   0.988   1.390  0.6655  0.0008  0.7007
 6542SOL    MW425936   0.471   1.008   1.325  0.1407 -0.1291  0.2089
 6543SOL     OW25937   0.597   2.671   0.255 -0.1506  0.0561  0.1424
 6543SOL    HW225938   0.687   2.694   0.276  0.2210 -0.8898 -0.3617
 6543SOL    HW325939   0.575   2.602   0.317 -0.3296 -0.1273 -0.1242
 6543SOL    MW425940   0.606   2.665   0.266 -0.1252 -0.0929  0.0407
 6544SOL     OW25941   6.227   1.811   3.073  0.1763 -0.0506 -0.1302
 6544SOL    HW225942   6.278   1.816   3.154 -0.0745 -0.3457  0.0518
 6544SOL    HW325943   6.277   1.752   3.016 -0.3247 -0.9512  0.3313
 6544SOL    MW425944   6.240   1.804   3.076  0.0771 -0.2084 -0.0453
 6545SOL     OW25945   5.676   1.722   6.166 -0.0499 -0.1448  0.4416
 6545SOL    HW225946   5.635   1.683   6.089  0.5555 -0.2720  0.1832
 6545SOL    HW325947   5.628   1.805   6.178  0.4938  0.3588 -0.6706
 6545SOL    MW425948   5.664   1.728   6.157  0.1017 -0.0951  0.2608
 6546SOL     OW25949   2.196   2.347   2.546 -0.0170 -0.2085  0.0389
 6546SOL    HW225950   2.203   2.435   2.510 -2.6721  0.3355  0.6634
 6546SOL    HW325951   2.150   2.358   2.629 -0.7750 -2.2165 -0.0549
 6546SOL    MW425952   2.191   2.360   2.553 -0.4674 -0.4017  0.1089
 6547SOL     OW25953   5.793   4.400   2.624  0.1635 -0.1535 -0.2055
 6547SOL    HW225954   5.857   4.329   2.620  0.2777 -0.0740  0.1628
 6547SOL    HW325955   5.709   4.356   2.641  0.0611 -0.2871 -1.0391
 6547SOL    MW425956   5.790   4.385   2.626  0.1651 -0.1607 -0.2669
 6548SOL     OW25957   4.462   1.622   1.539 -0.3055 -0.2332 -0.2853
 6548SOL    HW225958   4.542   1.618   1.487  0.1812 -0.0546  0.4204
 6548SOL    HW325959   4.405   1.681   1.491 -0.0748 -0.4997 -0.8888
 6548SOL    MW425960   4.465   1.629   1.526 -0.2109 -0.2448 -0.2718
 6549SOL     OW25961   0.505   3.260   2.187 -0.5143  0.1435 -0.1529
 6549SOL    HW225962   0.591   3.294   2.163 -0.6655  1.4156  0.9500
 6549SOL    HW325963   0.445   3.300   2.124 -0.5831  1.3524  0.6339
 6549SOL    MW425964   0.508   3.270   2.176 -0.5433  0.4708  0.0965
 6550SOL     OW25965   0.488   4.230   2.686 -0.2315  0.3226 -0.1360
 6550SOL    HW225966   0.475   4.264   2.598  2.3019 -0.7199 -0.9894
 6550SOL    HW325967   0.561   4.282   2.721  0.2026 -0.6989  0.5121
 6550SOL    MW425968   0.496   4.241   2.679  0.1601  0.0503 -0.1631
 6551SOL     OW25969   3.731   5.253   4.323  0.4535 -0.1716 -0.6975
 6551SOL    HW225970   3.702   5.342   4.301  2.7086  0.6711 -0.5755
 6551SOL    HW325971   3.722   5.248   4.418  1.8427  0.5710 -0.5001
 6551SOL    MW425972   3.726   5.264   4.333  0.9343  0.0376 -0.6553
 6552SOL     OW25973   2.209   6.181   4.443 -0.2116 -0.0482  0.2217
 6552SOL    HW225974   2.116   6.196   4.458 -0.1965  0.8669 -0.5153
 6552SOL    HW325975   2.213   6.092   4.409 -0.7992 -0.1567  0.4159
 6552SOL    MW425976   2.197   6.171   4.441 -0.2871  0.0582  0.1501
 6553SOL     OW25977   4.271   3.922   5.989 -0.3080 -0.1498  0.3106
 6553SOL    HW225978   4.359   3.939   6.024  1.0724 -1.6524 -2.0816
 6553SOL    HW325979   4.244   3.841   6.031  0.0478 -0.3703  0.1266
 6553SOL    MW425980   4.279   3.914   5.999 -0.0789 -0.3772 -0.0293
 6554SOL     OW25981   4.932   1.769   4.493  0.3865 -0.1935 -0.3353
 6554SOL    HW225982   4.943   1.808   4.407 -0.9608  1.0068  0.0050
 6554SOL    HW325983   5.015   1.785   4.538  0.1609  1.5900 -0.4972
 6554SOL    MW425984   4.944   1.776   4.488  0.1789  0.2002 -0.3117
 6555SOL     OW25985   5.226   1.695   2.675 -0.4649 -0.1965  0.4904
 6555SOL    HW225986   5.182   1.780   2.673  2.0217  1.2091  1.1329
 6555SOL    HW325987   5.237   1.677   2.769  0.3056 -0.4982  0.3457
 6555SOL    MW425988   5.221   1.704   2.687 -0.0352 -0.0509  0.5561
 6556SOL     OW25989   5.022   4.190   4.892 -0.3489  0.1540 -0.7491
 6556SOL    HW225990   4.968   4.118   4.924 -0.6409  0.2395 -1.0375
 6556SOL    HW325991   4.992   4.267   4.940  1.2763 -0.2246  0.9914
 6556SOL    MW425992   5.011   4.191   4.902 -0.1730  0.1153 -0.5575
 6557SOL     OW25993   3.291   0.270   2.992  0.1274 -0.4200  0.6470
 6557SOL    HW225994   3.215   0.213   2.980 -1.1790  1.3064  0.5112
 6557SOL    HW325995   3.257   0.359   2.983  2.2656  0.3967  0.0152
 6557SOL    MW425996   3.277   0.274   2.989  0.2371 -0.0845  0.5457
 6558SOL     OW25997   5.479   6.440   5.963 -0.1688  0.1579  0.5501
 6558SOL    HW225998   5.521   6.418   6.046 -3.2434 -2.1174  1.6916
 6558SOL    HW325999   5.469   6.355   5.919 -0.7682  1.0202 -1.0479
 6558SOL    MW426000   5.483   6.426   5.968 -0.6535 -0.0285  0.4899
 6559SOL     OW26001   0.221   5.102   3.786  0.0664 -0.0739  0.0675
 6559SOL    HW226002   0.157   5.073   3.722 -1.4386  0.3131  1.3365
 6559SOL    HW326003   0.306   5.080   3.747 -0.8119 -0.4635 -1.7208
 6559SOL    MW426004   0.224   5.096   3.773 -0.2481 -0.0742 -0.0010
 6560SOL     OW26005   0.925   2.288   5.590 -0.9023 -0.2410 -0.5901
 6560SOL    HW226006   0.932   2.373   5.634 -1.7376 -0.1116 -0.6912
 6560SOL    HW326007   0.891   2.229   5.658 -0.3474 -0.4937 -0.5264
 6560SOL    MW426008   0.921   2.291   5.605 -0.9393 -0.2572 -0.5950
 6561SOL     OW26009   0.011   1.888   5.083  0.0700  0.7294  0.1048
 6561SOL    HW226010   0.056   1.806   5.063  1.1730  1.6328 -1.1986
 6561SOL    HW326011  -0.034   1.911   5.002 -0.8325  1.0594  0.6857
 6561SOL    MW426012   0.011   1.880   5.070  0.0965  0.8921  0.0094
 6562SOL     OW26013   3.056   5.516   0.204 -0.0280  0.3960  0.1716
 6562SOL    HW226014   3.151   5.518   0.189 -0.0366  0.0496  0.0692
 6562SOL    HW326015   3.018   5.534   0.118 -0.0704 -0.9900 -0.1262
 6562SOL    MW426016   3.064   5.519   0.190 -0.0347  0.1674  0.1188
 6563SOL     OW26017   5.789   0.292   1.646  0.1712 -0.5961  0.2001
 6563SOL    HW226018   5.767   0.321   1.735 -3.2342  2.4019 -1.3622
 6563SOL    HW326019   5.832   0.368   1.606 -0.6514 -0.9650 -1.4438
 6563SOL    MW426020   5.792   0.306   1.653 -0.3866 -0.2492 -0.2229
 6564SOL     OW26021   0.868   2.533   2.115 -0.6508  0.3963 -0.2352
 6564SOL    HW226022   0.782   2.534   2.073  0.5398  1.3396 -2.8185
 6564SOL    HW326023   0.928   2.498   2.049  1.2897  1.5877  0.7852
 6564SOL    MW426024   0.865   2.529   2.101 -0.2377  0.6779 -0.4414
 6565SOL     OW26025   0.704   6.009   0.724  0.0220  0.4579  0.3598
 6565SOL    HW226026   0.745   6.091   0.750  0.5662 -0.0223  1.0449
 6565SOL    HW326027   0.682   5.966   0.806  0.8824 -0.6426  0.0322
 6565SOL    MW426028   0.706   6.014   0.738  0.2073  0.2493  0.4070
 6566SOL     OW26029   3.322   0.908   0.620 -0.5564 -0.4711 -0.1312
 6566SOL    HW226030   3.361   0.859   0.548  1.2084  1.7070 -0.7586
 6566SOL    HW326031   3.342   0.856   0.698 -0.1484 -1.5298 -0.9239
 6566SOL    MW426032   3.330   0.895   0.621 -0.2697 -0.3234 -0.3186
 6567SOL     OW26033   2.144   2.974   6.340 -0.1888  0.4671  0.0150
 6567SOL    HW226034   2.191   2.981   6.258  0.5269  1.0155  0.4636
 6567SOL    HW326035   2.191   2.907   6.390 -2.7976 -2.7229 -1.4305
 6567SOL    MW426036   2.156   2.966   6.336 -0.4386  0.1186 -0.1165
 6568SOL     OW26037   2.223   3.135   0.492  0.3501  0.6471  0.9778
 6568SOL    HW226038   2.237   3.064   0.430  1.3618  2.3167 -0.8081
 6568SOL    HW326039   2.129   3.135   0.508 -0.1717  1.0083 -1.6845
 6568SOL    MW426040   2.212   3.125   0.486  0.4147  0.9151  0.3909
 6569SOL     OW26041   4.326   2.041   1.336  0.1947 -0.1069 -0.1410
 6569SOL    HW226042   4.297   2.014   1.249  0.9159 -1.7528  0.0983
 6569SOL    HW326043   4.349   2.133   1.325  0.6296 -0.3695 -1.8011
 6569SOL    MW426044   4.325   2.050   1.323  0.3472 -0.3587 -0.3284
 6570SOL     OW26045   5.958   1.013   5.209  0.0658  0.7779 -0.2301
 6570SOL    HW226046   6.013   1.032   5.133 -0.9587  4.8941 -0.2220
 6570SOL    HW326047   6.014   1.030   5.285 -0.5107  2.9782 -0.2194
 6570SOL    MW426048   5.972   1.018   5.209 -0.1454  1.6113 -0.2276
 6571SOL     OW26049   3.390   1.761   5.514 -0.5169 -0.2627 -0.1242
 6571SOL    HW226050   3.451   1.732   5.446 -1.5897 -0.7658 -0.8919
 6571SOL    HW326051   3.435   1.741   5.596  0.3898 -0.5415 -0.6681
 6571SOL    MW426052   3.404   1.755   5.516 -0.5388 -0.3659 -0.2972
 6572SOL     OW26053   5.043   5.637   3.182  0.1324 -0.0899 -0.5183
 6572SOL    HW226054   5.109   5.570   3.201 -0.6867 -0.7705 -0.0162
 6572SOL    HW326055   5.081   5.688   3.111  1.3628 -0.2360  0.0034
 6572SOL    MW426056   5.057   5.635   3.175  0.1867 -0.1990 -0.3832
 6573SOL     OW26057   2.156   0.240   1.225  0.0581 -0.2826  0.6052
 6573SOL    HW226058   2.109   0.249   1.143  0.1204  1.2881  0.6987
 6573SOL    HW326059   2.222   0.173   1.209 -0.0869 -0.1604 -0.5437
 6573SOL    MW426060   2.159   0.233   1.212  0.0472 -0.0593  0.4660
 6574SOL     OW26061   5.098   3.367   0.002 -0.1948  0.2324 -0.5719
 6574SOL    HW226062   5.032   3.352  -0.066 -1.5900  0.4153  0.6857
 6574SOL    HW326063   5.110   3.461   0.004 -0.2041  0.2324 -0.5170
 6574SOL    MW426064   5.091   3.377  -0.006 -0.3801  0.2565 -0.3987
 6575SOL     OW26065   6.377   4.214   5.743 -0.2514  0.1447  0.2506
 6575SOL    HW226066   6.293   4.217   5.697 -0.2383  0.6381  0.2552
 6575SOL    HW326067   6.422   4.294   5.716  0.8896 -0.8786 -1.0279
 6575SOL    MW426068   6.372   4.225   5.733 -0.0991  0.0748  0.0825
 6576SOL     OW26069   5.689   4.676   1.711  0.3373 -0.3116  0.4975
 6576SOL    HW226070   5.709   4.589   1.678  1.0797  0.6324 -1.7645
 6576SOL    HW326071   5.772   4.724   1.703 -0.2233  0.7900  1.0460
 6576SOL    MW426072   5.703   4.671   1.706  0.3613 -0.0417  0.2714
 6577SOL     OW26073   0.179   5.630   5.202  0.0019  0.8062 -0.0240
 6577SOL    HW226074   0.154   5.647   5.111  0.9430 -1.4913 -0.7796
 6577SOL    HW326075   0.275   5.639   5.203  0.5591 -3.2566 -0.3887
 6577SOL    MW426076   0.189   5.633   5.190  0.1996 -0.0330 -0.1718
 6578SOL     OW26077   2.804   1.438   0.321 -0.0021 -0.0938  0.2703
 6578SOL    HW226078   2.738   1.373   0.345  0.0194 -0.2689 -0.1322
 6578SOL    HW326079   2.856   1.395   0.253 -2.0547  1.5152 -2.5018
 6578SOL    MW426080   2.802   1.423   0.315 -0.2701  0.0954 -0.1486
 6579SOL     OW26081   2.173   5.609   4.487  0.4529 -0.3481  0.0672
 6579SOL    HW226082   2.225   5.655   4.553 -1.3251 -0.0188  1.3015
 6579SOL    HW326083   2.195   5.653   4.405  2.9966 -1.0078  0.2920
 6579SOL    MW426084   2.183   5.621   4.485  0.5539 -0.3917  0.2597
 6580SOL     OW26085   5.683   5.020   0.883  0.6955  0.0664  0.0909
 6580SOL    HW226086   5.711   4.993   0.795  1.5989  0.3970  0.2627
 6580SOL    HW326087   5.654   4.939   0.925 -0.3940  0.0123 -0.7326
 6580SOL    MW426088   5.683   5.006   0.877  0.6709  0.1029  0.0049
 6581SOL     OW26089   3.061   2.170   1.906  0.4597  0.3466  0.4404
 6581SOL    HW226090   3.156   2.176   1.918  0.3007  0.1819  1.9771
 6581SOL    HW326091   3.026   2.169   1.995 -0.8318 -2.1755 -0.0051
 6581SOL    MW426092   3.069   2.171   1.919  0.2683 -0.0079  0.5844
 6582SOL     OW26093   5.596   3.633   5.550 -0.2718 -0.3095  0.0924
 6582SOL    HW226094   5.532   3.667   5.613 -0.3823 -1.6030  0.7100
 6582SOL    HW326095   5.554   3.555   5.513  1.5246 -2.1049  1.6477
 6582SOL    MW426096   5.582   3.627   5.553 -0.0494 -0.7170  0.3791
 6583SOL     OW26097   4.068   4.496   0.019 -0.3159  0.5121  0.1973
 6583SOL    HW226098   4.022   4.573  -0.013 -0.3068  0.1704 -0.6672
 6583SOL    HW326099   4.099   4.452  -0.060  2.3816  1.2453  0.7745
 6583SOL    MW426100   4.066   4.500   0.005  0.0412  0.5638  0.1594
 6584SOL     OW26101   1.946   5.514   3.853  0.3200  0.0399 -0.3738
 6584SOL    HW226102   1.960   5.561   3.935 -0.0828 -1.7617  0.7871
 6584SOL    HW326103   1.925   5.582   3.789  0.2684  1.4565  1.0926
 6584SOL    MW426104   1.945   5.529   3.856  0.2600 -0.0109 -0.0271
 6585SOL     OW26105   0.806   0.579   4.405  0.2766  0.4225 -0.4974
 6585SOL    HW226106   0.889   0.617   4.377 -0.2194  1.4313 -0.6625
 6585SOL    HW326107   0.778   0.634   4.478 -1.2968  1.4924 -1.8406
 6585SOL    MW426108   0.813   0.591   4.411  0.0036  0.6968 -0.6964
 6586SOL     OW26109   0.058   3.710   4.303  0.3396  0.5929  0.5407
 6586SOL    HW226110  -0.027   3.745   4.273 -1.1328 -1.7504  1.6681
 6586SOL    HW326111   0.094   3.779   4.358 -1.2075  1.3743  0.6432
 6586SOL    MW426112   0.051   3.724   4.306 -0.0588  0.3868  0.7030
 6587SOL     OW26113   3.815   1.115   1.683 -0.0580 -0.2427  0.2777
 6587SOL    HW226114   3.875   1.180   1.647  0.0051  0.5560  1.7606
 6587SOL    HW326115   3.837   1.034   1.637 -0.7397  0.9118 -2.2733
 6587SOL    MW426116   3.826   1.113   1.672 -0.1396  0.0150  0.1368
 6588SOL     OW26117   3.152   4.787  -0.002  0.1630 -0.0295  0.1762
 6588SOL    HW226118   3.162   4.774  -0.096  0.3902 -1.3737  0.3651
 6588SOL    HW326119   3.058   4.799   0.011  0.1813  0.6223 -0.2667
 6588SOL    MW426120   3.141   4.787  -0.012  0.1954 -0.1208  0.1427
 6589SOL     OW26121   1.386   2.918   4.502 -0.7434 -0.1397  0.0468
 6589SOL    HW226122   1.370   2.956   4.589 -0.2565  0.7591 -0.2437
 6589SOL    HW326123   1.468   2.871   4.511 -0.7939 -0.2120  0.1281
 6589SOL    MW426124   1.395   2.917   4.515 -0.6858 -0.0306  0.0192
 6590SOL     OW26125   2.107   2.195   5.568 -0.3290  0.8292  0.0993
 6590SOL    HW226126   2.088   2.259   5.637  0.2490  1.4901 -0.3443
 6590SOL    HW326127   2.148   2.246   5.498 -0.8560  0.1556 -0.7221
 6590SOL    MW426128   2.110   2.210   5.568 -0.3222  0.8276 -0.0676
 6591SOL     OW26129   2.579   1.131   5.111 -0.4283 -0.3291 -0.2142
 6591SOL    HW226130   2.509   1.080   5.151 -0.0178 -0.8558 -0.1508
 6591SOL    HW326131   2.559   1.222   5.133  0.9737 -0.6752  3.2505
 6591SOL    MW426132   2.567   1.137   5.119 -0.1892 -0.4443  0.2513
 6592SOL     OW26133   2.887   2.498   0.354  0.0906  0.5222 -0.0115
 6592SOL    HW226134   2.829   2.545   0.295 -1.1268 -0.4480  0.3740
 6592SOL    HW326135   2.958   2.559   0.372 -0.6569  1.6277 -0.7327
 6592SOL    MW426136   2.889   2.512   0.348 -0.1686  0.5401 -0.0558
 6593SOL     OW26137   1.649   6.189   4.483 -0.2005  0.0946 -0.2949
 6593SOL    HW226138   1.588   6.263   4.492  1.5374  1.4892  0.5316
 6593SOL    HW326139   1.669   6.186   4.390 -0.4149  0.5747 -0.3615
 6593SOL    MW426140   1.643   6.199   4.472  0.0005  0.3419 -0.1946
 6594SOL     OW26141   5.829   4.948   0.646  0.1030  0.2060  0.5179
 6594SOL    HW226142   5.901   4.998   0.608 -0.5426  0.8212  0.0957
 6594SOL    HW326143   5.843   4.858   0.615  0.2971  0.4554 -0.1353
 6594SOL    MW426144   5.841   4.943   0.637  0.0435  0.3201  0.3760
 6595SOL     OW26145   5.428   2.112   1.409 -0.0385 -0.2057 -0.0075
 6595SOL    HW226146   5.367   2.186   1.414 -0.6661 -0.7307  0.2907
 6595SOL    HW326147   5.413   2.075   1.322 -0.6175 -0.7174  0.2989
 6595SOL    MW426148   5.418   2.117   1.398 -0.1977 -0.3425  0.0723
 6596SOL     OW26149   1.878   3.101   0.221  0.3261 -0.3301  0.4872
 6596SOL    HW226150   1.906   3.013   0.195  1.2149 -0.6549  2.3883
 6596SOL    HW326151   1.800   3.086   0.274 -1.4340  0.3143 -1.7641
 6596SOL    MW426152   1.871   3.087   0.225  0.2112 -0.2879  0.4410
 6597SOL     OW26153   5.005   2.830   2.660 -0.2148 -0.5471 -0.1061
 6597SOL    HW226154   5.025   2.786   2.742  2.2072  0.2156 -0.2293
 6597SOL    HW326155   5.026   2.766   2.592 -1.5895 -0.9403 -0.2023
 6597SOL    MW426156   5.010   2.816   2.662 -0.0766 -0.4983 -0.1351
 6598SOL     OW26157   0.961   4.903   5.093 -0.1941  0.1052  0.0043
 6598SOL    HW226158   0.878   4.918   5.138  0.5038 -0.1135  1.4300
 6598SOL    HW326159   0.965   4.972   5.026 -1.2003  0.5412  0.3788
 6598SOL    MW426160   0.950   4.914   5.090 -0.2348  0.1339  0.2418
 6599SOL     OW26161   4.998   1.488   1.272  0.4454  0.5656  0.1804
 6599SOL    HW226162   4.923   1.440   1.235  0.5920 -0.2118  0.8658
 6599SOL    HW326163   4.977   1.580   1.256 -1.9533  0.5795  2.5744
 6599SOL    MW426164   4.985   1.493   1.265  0.1482  0.4649  0.5867
 6600SOL     OW26165   2.109   1.877   4.416 -0.2363  0.2205 -0.6507
 6600SOL    HW226166   2.111   1.947   4.350 -1.4889 -0.3667 -1.3474
 6600SOL    HW326167   2.127   1.798   4.366 -0.6837 -0.1755 -0.1905
 6600SOL    MW426168   2.112   1.876   4.400 -0.4605  0.0908 -0.6819
 6601SOL     OW26169   5.493   0.778   4.375  0.3921 -0.9296 -0.1874
 6601SOL    HW226170   5.443   0.697   4.362  0.0045 -0.7334  0.0729
 6601SOL    HW326171   5.441   0.829   4.436  2.1922 -1.8412  2.2740
 6601SOL    MW426172   5.479   0.774   4.381  0.5784 -1.0240  0.1717
 6602SOL     OW26173   2.062   1.575   2.337  0.1070  0.1043  0.3163
 6602SOL    HW226174   1.997   1.603   2.273 -0.0658 -1.7519 -0.3649
 6602SOL    HW326175   2.146   1.605   2.301 -0.2765  2.1656  1.0109
 6602SOL    MW426176   2.065   1.583   2.324  0.0336  0.1314  0.3181
 6603SOL     OW26177   5.942   1.679   6.059 -0.6254 -0.0685 -0.3712
 6603SOL    HW226178   6.001   1.725   5.999 -0.8034 -0.1080 -0.5764
 6603SOL    HW326179   5.856   1.717   6.043 -0.6941 -0.1581 -0.2209
 6603SOL    MW426180   5.939   1.690   6.049 -0.6580 -0.0856 -0.3784
 6604SOL     OW26181   1.111   0.629   0.073 -0.1075 -0.0784 -0.6909
 6604SOL    HW226182   1.061   0.703   0.108  0.6551  0.8071 -1.4156
 6604SOL    HW326183   1.157   0.593   0.150 -0.4061  0.2640 -0.3477
 6604SOL    MW426184   1.111   0.634   0.088 -0.0463  0.0836 -0.7412
 6605SOL     OW26185   4.703   4.175   1.120 -0.0435  0.3641  0.1784
 6605SOL    HW226186   4.732   4.143   1.035 -1.9754 -0.0586 -0.3645
 6605SOL    HW326187   4.781   4.174   1.174  1.2959  0.8850 -1.6483
 6605SOL    MW426188   4.717   4.171   1.116 -0.1217  0.3770 -0.1343
 6606SOL     OW26189   5.571   5.827   5.714  0.1423 -0.1643  0.0919
 6606SOL    HW226190   5.490   5.777   5.728 -0.5459  0.6570 -0.8200
 6606SOL    HW326191   5.615   5.826   5.799 -1.1456 -0.0681  0.7806
 6606SOL    MW426192   5.566   5.820   5.727 -0.1184 -0.0433  0.0624
 6607SOL     OW26193   1.933   5.681   4.731  0.4043  0.8559 -0.7228
 6607SOL    HW226194   1.923   5.625   4.655  2.8898 -0.7226 -0.0178
 6607SOL    HW326195   2.023   5.666   4.761  0.7068  4.0584  0.4712
 6607SOL    MW426196   1.943   5.672   4.725  0.7721  1.0702 -0.4722
 6608SOL     OW26197   2.379   4.496   6.385 -0.0228  0.2737 -0.4628
 6608SOL    HW226198   2.340   4.417   6.423  1.7825 -0.1604  0.6393
 6608SOL    HW326199   2.453   4.516   6.443  2.4138  0.0854 -3.2860
 6608SOL    MW426200   2.383   4.488   6.398  0.5369  0.1916 -0.6899
 6609SOL     OW26201   4.322   4.433   4.774  0.0626 -0.0544 -0.0387
 6609SOL    HW226202   4.378   4.423   4.851  0.0047 -0.0627  0.0025
 6609SOL    HW326203   4.362   4.504   4.724 -0.1939  0.3064  0.2604
 6609SOL    MW426204   4.335   4.441   4.778  0.0211 -0.0079  0.0062
 6610SOL     OW26205   0.719   2.165   2.311 -0.4387  0.0038 -0.2475
 6610SOL    HW226206   0.718   2.168   2.216  0.1845  1.0768 -0.2451
 6610SOL    HW326207   0.780   2.095   2.333 -0.3798 -0.0673 -0.6366
 6610SOL    MW426208   0.727   2.156   2.301 -0.3487  0.1360 -0.2985
 6611SOL     OW26209   2.597   3.238   2.151 -0.1890 -0.1330  0.2898
 6611SOL    HW226210   2.550   3.321   2.159 -1.2054 -0.7432  0.7888
 6611SOL    HW326211   2.535   3.172   2.181 -0.8465 -1.5980 -3.7248
 6611SOL    MW426212   2.583   3.241   2.156 -0.4099 -0.4068 -0.1740
 6612SOL     OW26213   2.100   0.740   0.280 -0.3902 -0.5774 -0.3180
 6612SOL    HW226214   2.035   0.796   0.236  0.2039 -0.1770 -0.6981
 6612SOL    HW326215   2.160   0.714   0.211  0.9174  0.5653  0.3238
 6612SOL    MW426216   2.099   0.744   0.265 -0.1393 -0.3738 -0.2835
 6613SOL     OW26217   5.963   2.116   3.677  0.3119 -0.5634 -0.5461
 6613SOL    HW226218   5.972   2.024   3.653 -0.4352 -0.6174 -0.6581
 6613SOL    HW326219   5.980   2.117   3.772  0.3870 -0.8069 -0.5556
 6613SOL    MW426220   5.966   2.104   3.687  0.2233 -0.6027 -0.5621
 6614SOL     OW26221   3.413   2.269   0.599 -0.1243  0.5459  0.0929
 6614SOL    HW226222   3.476   2.260   0.671  2.6387  0.4782 -2.1337
 6614SOL    HW326223   3.386   2.179   0.580 -0.9574  0.5714  1.0319
 6614SOL    MW426224   3.418   2.256   0.606  0.1303  0.5403 -0.0770
 6615SOL     OW26225   2.250   5.812   0.263  0.4748  0.1044  0.1472
 6615SOL    HW226226   2.182   5.813   0.331  0.2576  1.3266 -0.0518
 6615SOL    HW326227   2.295   5.729   0.275 -2.0848 -1.5179 -0.7703
 6615SOL    MW426228   2.247   5.801   0.274  0.1084  0.0516 -0.0001
 6616SOL     OW26229   3.191   1.085   0.977 -0.1920 -0.0115  0.1198
 6616SOL    HW226230   3.138   1.005   0.970  1.6670 -1.6362  2.8502
 6616SOL    HW326231   3.274   1.055   1.012  1.8837  2.7199 -2.0395
 6616SOL    MW426232   3.195   1.070   0.981  0.3271  0.1346  0.1951
 6617SOL     OW26233   4.443   6.366   3.318 -0.5400  0.5419 -0.2606
 6617SOL    HW226234   4.514   6.338   3.376 -0.3927  0.5919 -0.4112
 6617SOL    HW326235   4.364   6.360   3.371 -0.3615  0.9466  0.0593
 6617SOL    MW426236   4.442   6.361   3.332 -0.4970  0.6019 -0.2382
 6618SOL     OW26237   5.593   4.561   0.091 -0.3825 -0.1419 -0.0086
 6618SOL    HW226238   5.582   4.466   0.086  1.7645 -0.3757 -1.9425
 6618SOL    HW326239   5.596   4.580   0.185  1.2943 -2.3128  0.4442
 6618SOL    MW426240   5.592   4.551   0.103  0.1220 -0.4592 -0.2040
 6619SOL     OW26241   3.529   4.529   5.018 -0.2889 -0.0468  0.8549
 6619SOL    HW226242   3.466   4.577   4.964 -2.1997 -0.5047  2.5703
 6619SOL    HW326243   3.571   4.468   4.957 -1.6128  0.1755 -0.3237
 6619SOL    MW426244   3.526   4.527   5.003 -0.7156 -0.0779  0.9257
 6620SOL     OW26245   4.217   1.519   0.680 -0.0906 -0.0410 -0.1720
 6620SOL    HW226246   4.290   1.564   0.637  1.8015 -2.5447  0.1916
 6620SOL    HW326247   4.160   1.492   0.607  0.3580  0.2426 -0.6345
 6620SOL    MW426248   4.219   1.521   0.665  0.2182 -0.3339 -0.1850
 6621SOL     OW26249   0.185   0.651   1.763 -0.1444 -0.1705 -0.3581
 6621SOL    HW226250   0.233   0.725   1.727  0.6616 -0.8560 -0.7195
 6621SOL    HW326251   0.114   0.636   1.701 -0.7684  0.7685  0.1126
 6621SOL    MW426252   0.182   0.659   1.750 -0.1204 -0.1371 -0.3437
 6622SOL     OW26253   3.553   4.929   1.963  0.0888  0.2004 -0.5603
 6622SOL    HW226254   3.584   4.956   1.876  1.1585 -0.7199 -0.4968
 6622SOL    HW326255   3.633   4.900   2.008 -0.4307  0.8490  0.8018
 6622SOL    MW426256   3.568   4.929   1.957  0.1614  0.1645 -0.3722
 6623SOL     OW26257   5.328   3.119   3.596 -0.0653  0.0826 -0.0904
 6623SOL    HW226258   5.420   3.099   3.579  0.6622  0.9850  2.4135
 6623SOL    HW326259   5.315   3.205   3.557 -0.1826 -0.4563 -1.3139
 6623SOL    MW426260   5.338   3.127   3.589  0.0152  0.1306  0.0785
 6624SOL     OW26261   4.120   0.608   4.959 -0.1110  0.3445  0.1982
 6624SOL    HW226262   4.181   0.680   4.972  1.3826 -0.8066 -0.1657
 6624SOL    HW326263   4.077   0.628   4.876  0.9989  0.3438 -0.3927
 6624SOL    MW426264   4.122   0.620   4.950  0.2325  0.1925  0.0722
 6625SOL     OW26265   4.127   3.441   0.731  0.4065  0.4218 -0.5633
 6625SOL    HW226266   4.039   3.456   0.766  0.4594 -1.2235  0.4298
 6625SOL    HW326267   4.180   3.509   0.772  0.0575 -0.1727  0.9591
 6625SOL    MW426268   4.122   3.452   0.741  0.3674  0.1263 -0.2314
 6626SOL     OW26269   6.345   0.506   3.689 -0.0294  0.1032 -0.7173
 6626SOL    HW226270   6.258   0.496   3.651 -0.6050  1.4267  0.1734
 6626SOL    HW326271   6.330   0.508   3.784  1.4167 -3.6351 -0.2298
 6626SOL    MW426272   6.332   0.505   3.697  0.0854 -0.2154 -0.5355
 6627SOL     OW26273   2.257   0.552   3.979 -0.2679  0.2498 -0.3978
 6627SOL    HW226274   2.230   0.552   4.070  0.4621 -0.5531 -0.1618
 6627SOL    HW326275   2.255   0.644   3.952 -1.2678  0.4000  0.1832
 6627SOL    MW426276   2.253   0.564   3.987 -0.3035  0.1637 -0.2900
 6628SOL     OW26277   0.388   4.674   0.055 -0.1462  0.1754 -0.2482
 6628SOL    HW226278   0.392   4.675  -0.040 -1.9358  0.8555 -0.3435
 6628SOL    HW326279   0.480   4.665   0.082  0.2401 -1.9438 -2.0173
 6628SOL    MW426280   0.401   4.673   0.046 -0.3313 -0.0144 -0.4942
 6629SOL     OW26281   1.749   1.058   2.104 -0.0031  0.2231 -0.3353
 6629SOL    HW226282   1.818   1.004   2.142  1.2897 -0.0640 -2.9016
 6629SOL    HW326283   1.790   1.144   2.090 -0.4078  0.3092 -1.0637
 6629SOL    MW426284   1.764   1.063   2.107  0.1141  0.1966 -0.7700
 6630SOL     OW26285   1.567   1.282   4.717 -0.1327  0.6086  0.0939
 6630SOL    HW226286   1.505   1.348   4.685 -1.4727 -0.3505  0.6002
 6630SOL    HW326287   1.513   1.222   4.768  0.7942 -1.6723 -1.4827
 6630SOL    MW426288   1.551   1.283   4.720 -0.1872  0.1811 -0.0473
 6631SOL     OW26289   0.081   0.567   5.205 -0.7089  0.3246  0.2135
 6631SOL    HW226290   0.076   0.609   5.120  1.5175  1.5005  0.6013
 6631SOL    HW326291   0.032   0.485   5.194 -2.2333  1.3994 -1.5445
 6631SOL    MW426292   0.074   0.562   5.193 -0.6163  0.6216  0.0327
 6632SOL     OW26293   1.195   0.711   4.535  0.1892  0.5512 -0.1106
 6632SOL    HW226294   1.145   0.696   4.616 -0.8286 -0.4100 -0.8801
 6632SOL    HW326295   1.276   0.661   4.547  0.2677  0.8237  0.5184
 6632SOL    MW426296   1.199   0.702   4.548  0.0653  0.4603 -0.1291
 6633SOL     OW26297   2.444   2.990   4.761 -0.0407 -0.1596  0.3294
 6633SOL    HW226298   2.469   3.078   4.792  0.8360 -0.3238  0.1315
 6633SOL    HW326299   2.464   2.932   4.834  2.0137 -0.5447 -0.4715
 6633SOL    MW426300   2.450   2.994   4.775  0.3460 -0.2320  0.1976
 6634SOL     OW26301   4.584   2.528   1.642 -0.0031  0.1271 -0.5109
 6634SOL    HW226302   4.520   2.595   1.665  0.7410  0.5743  0.3274
 6634SOL    HW326303   4.549   2.487   1.563 -1.6216 -0.0519  0.2493
 6634SOL    MW426304   4.571   2.531   1.635 -0.1185  0.1625 -0.3000
 6635SOL     OW26305   5.403   4.768   1.747  0.3817  0.2080 -0.4467
 6635SOL    HW226306   5.494   4.786   1.769  0.4484  2.0144 -1.9616
 6635SOL    HW326307   5.382   4.831   1.678 -1.9336 -0.3518 -0.3328
 6635SOL    MW426308   5.412   4.778   1.741  0.0850  0.3725 -0.6316
 6636SOL     OW26309   2.774   1.349   3.069 -0.6057 -0.2472  0.0981
 6636SOL    HW226310   2.860   1.381   3.094 -0.9119  0.1993  0.5935
 6636SOL    HW326311   2.756   1.391   2.985 -0.2185 -0.5768 -0.1549
 6636SOL    MW426312   2.783   1.358   3.061 -0.5950 -0.2318  0.1301
 6637SOL     OW26313   5.423   1.016   1.189  0.4825 -0.1984  0.1267
 6637SOL    HW226314   5.486   1.079   1.224 -0.6770  1.4348 -0.5956
 6637SOL    HW326315   5.473   0.935   1.178  2.1535  0.7290  0.6153
 6637SOL    MW426316   5.438   1.014   1.192  0.5500  0.1395  0.0959
 6638SOL     OW26317   3.297   0.551   4.358 -0.7276  0.2566 -0.9837
 6638SOL    HW226318   3.364   0.584   4.418 -0.7236 -1.6346  0.1214
 6638SOL    HW326319   3.256   0.630   4.322  1.3667  1.4390 -0.8902
 6638SOL    MW426320   3.300   0.566   4.361 -0.4507  0.1631 -0.8255
 6639SOL     OW26321   3.715   2.095   1.063  0.1238 -0.3860 -0.9322
 6639SOL    HW226322   3.635   2.136   1.095  0.1952  0.2212 -1.5003
 6639SOL    HW326323   3.686   2.010   1.028 -0.3298 -0.0391 -1.4208
 6639SOL    MW426324   3.700   2.089   1.062  0.0734 -0.2601 -1.0716
 6640SOL     OW26325   0.895   3.065   3.406  0.0232 -0.3579  0.4712
 6640SOL    HW226326   0.895   3.021   3.321  0.5598 -1.3159  0.9539
 6640SOL    HW326327   0.929   3.153   3.388  0.4481 -0.6617 -0.2429
 6640SOL    MW426328   0.899   3.071   3.392  0.1501 -0.5244  0.4406
 6641SOL     OW26329   0.364   3.914   5.461  0.2925  0.1876 -0.3367
 6641SOL    HW226330   0.419   3.853   5.413 -0.5137 -0.7331 -0.1301
 6641SOL    HW326331   0.287   3.927   5.404 -0.1253  0.0066  0.1791
 6641SOL    MW426332   0.361   3.907   5.447  0.1310  0.0422 -0.2414
 6642SOL     OW26333   3.318   6.217   3.564  0.2174  0.2734  0.2119
 6642SOL    HW226334   3.392   6.164   3.595 -0.5222  1.0322  3.7848
 6642SOL    HW326335   3.247   6.196   3.625 -1.9504  1.0391 -1.8875
 6642SOL    MW426336   3.319   6.207   3.576 -0.1662  0.4746  0.4063
 6643SOL     OW26337   5.750   1.079   6.065 -0.0334 -0.0430 -0.3832
 6643SOL    HW226338   5.790   1.096   5.980 -0.4963  0.1334 -0.5683
 6643SOL    HW326339   5.759   0.985   6.077 -1.7892 -0.4096 -1.5733
 6643SOL    MW426340   5.757   1.069   6.056 -0.3261 -0.0681 -0.5647
 6644SOL     OW26341   3.594   0.306   3.205 -0.1758  0.5109  0.3605
 6644SOL    HW226342   3.566   0.382   3.154  0.5017  0.5766  0.0692
 6644SOL    HW326343   3.516   0.279   3.253 -0.5952  0.9893 -0.0366
 6644SOL    MW426344   3.580   0.313   3.205 -0.1418  0.5827  0.2697
 6645SOL     OW26345   1.728   5.754   0.709  0.5664  0.7168  0.2386
 6645SOL    HW226346   1.738   5.710   0.624  0.3067  1.1672 -0.0282
 6645SOL    HW326347   1.653   5.712   0.749 -0.5701  1.8371 -0.6191
 6645SOL    MW426348   1.720   5.743   0.703  0.3822  0.9240  0.0902
 6646SOL     OW26349   3.492   3.152   2.067  0.4718  0.4264 -0.1508
 6646SOL    HW226350   3.457   3.063   2.079 -1.8386  0.9857 -1.8452
 6646SOL    HW326351   3.585   3.139   2.050  0.8331 -1.3727  2.5692
 6646SOL    MW426352   3.499   3.138   2.066  0.2146  0.2628 -0.0155
 6647SOL     OW26353   5.945   3.512   3.174 -0.2157 -1.0615 -0.2541
 6647SOL    HW226354   5.958   3.501   3.080 -2.5672  0.5458 -0.8413
 6647SOL    HW326355   5.876   3.450   3.196 -0.5073 -0.5901  0.1674
 6647SOL    MW426356   5.938   3.502   3.165 -0.5644 -0.7873 -0.2760
 6648SOL     OW26357   4.837   3.853   1.961  0.3468 -0.6775  0.4152
 6648SOL    HW226358   4.754   3.886   1.994  0.4182  1.0327 -1.0157
 6648SOL    HW326359   4.878   3.928   1.918  2.1591 -1.7483  0.1595
 6648SOL    MW426360   4.832   3.867   1.960  0.5953 -0.5932  0.1926
 6649SOL     OW26361   5.788   2.439   2.861  0.9178  0.2714  0.1081
 6649SOL    HW226362   5.725   2.410   2.927  0.6701  0.0044 -0.2389
 6649SOL    HW326363   5.784   2.534   2.863  2.2861  0.3642  1.8027
 6649SOL    MW426364   5.780   2.448   2.870  1.0657  0.2485  0.2859
 6650SOL     OW26365   6.003   4.395   3.812  0.0477 -0.2249  0.4125
 6650SOL    HW226366   5.987   4.455   3.885 -0.1275  1.2293 -0.7647
 6650SOL    HW326367   5.994   4.450   3.734  0.5055 -1.6696 -0.6977
 6650SOL    MW426368   6.000   4.411   3.811  0.0850 -0.2236  0.1107
 6651SOL     OW26369   5.218   1.851   4.300  0.1566 -0.9312 -0.0720
 6651SOL    HW226370   5.294   1.828   4.246  1.0895 -0.9477  1.1896
 6651SOL    HW326371   5.143   1.843   4.241  1.1759 -0.4313 -1.4973
 6651SOL    MW426372   5.218   1.847   4.285  0.4141 -0.8674 -0.0936
 6652SOL     OW26373   4.508   3.094   4.782 -0.0812 -0.2727 -0.0739
 6652SOL    HW226374   4.522   3.162   4.847  2.0995 -0.6286 -0.1107
 6652SOL    HW326375   4.494   3.014   4.832  0.0990 -0.2798 -0.0345
 6652SOL    MW426376   4.508   3.093   4.797  0.2303 -0.3206 -0.0735
 6653SOL     OW26377   5.377   0.159   5.012 -0.4162  0.6090  0.5649
 6653SOL    HW226378   5.308   0.094   5.024  0.5926 -1.1458 -2.0730
 6653SOL    HW326379   5.455   0.107   4.991  2.1192  2.3951  4.3668
 6653SOL    MW426380   5.378   0.143   5.011  0.0514  0.6131  0.7185
 6654SOL     OW26381   5.000   0.289   3.644 -0.2076  0.9345 -0.5525
 6654SOL    HW226382   4.966   0.204   3.672 -1.4145  1.0576 -1.5404
 6654SOL    HW326383   4.927   0.330   3.598 -0.4466  3.4714  1.7726
 6654SOL    MW426384   4.986   0.283   3.642 -0.3984  1.2855 -0.3761
 6655SOL     OW26385   1.108   5.458   1.408  0.3857 -0.0767  0.1556
 6655SOL    HW226386   1.194   5.488   1.435  1.4013  0.2078 -2.9377
 6655SOL    HW326387   1.092   5.503   1.325 -0.6261 -3.5735 -1.7628
 6655SOL    MW426388   1.117   5.468   1.400  0.3862 -0.5005 -0.5056
 6656SOL     OW26389   4.663   3.850   4.021 -0.2307  0.1696  0.0785
 6656SOL    HW226390   4.663   3.861   4.116 -0.0400 -0.4289  0.1523
 6656SOL    HW326391   4.585   3.897   3.991  1.3585  3.1485  0.1662
 6656SOL    MW426392   4.653   3.858   4.029  0.0041  0.4837  0.0998
 6657SOL     OW26393   1.908   5.602   4.138 -0.4740  0.6356 -0.5384
 6657SOL    HW226394   1.868   5.530   4.186 -1.0468  0.6974 -0.9107
 6657SOL    HW326395   1.852   5.677   4.157 -0.9845  0.5575 -1.6676
 6657SOL    MW426396   1.895   5.602   4.147 -0.6169  0.6334 -0.7365
 6658SOL     OW26397   5.650   6.142   5.185  0.3822 -0.2710  0.5029
 6658SOL    HW226398   5.640   6.077   5.116  2.0568 -0.3337  0.2927
 6658SOL    HW326399   5.714   6.204   5.151 -0.6045  1.0857  1.0148
 6658SOL    MW426400   5.657   6.142   5.171  0.4730 -0.1003  0.5427
 6659SOL     OW26401   0.087   4.809   1.298  0.0135  0.6552  0.2665
 6659SOL    HW226402   0.081   4.835   1.390 -0.0542  2.4685 -0.1990
 6659SOL    HW326403   0.139   4.878   1.257  2.2143 -1.4036 -0.6273
 6659SOL    MW426404   0.093   4.822   1.304  0.2949  0.6228  0.0872
 6660SOL     OW26405   1.784   4.071   2.122 -0.1659 -0.2069 -0.6674
 6660SOL    HW226406   1.695   4.039   2.135  0.1185 -0.5455  0.6149
 6660SOL    HW326407   1.826   4.060   2.207  1.1212 -0.1095 -1.2605
 6660SOL    MW426408   1.778   4.065   2.135  0.0414 -0.2387 -0.5764
 6661SOL     OW26409   1.507   1.068   6.042  0.9649  0.0427 -0.0986
 6661SOL    HW226410   1.429   1.016   6.023 -0.2950  1.6435  0.4821
 6661SOL    HW326411   1.576   1.003   6.058 -0.6295 -1.4557  1.0289
 6661SOL    MW426412   1.506   1.052   6.042  0.5883  0.0562  0.1268
 6662SOL     OW26413   1.799   3.582   0.918  0.4629 -0.6232  0.0073
 6662SOL    HW226414   1.743   3.523   0.868  2.2568 -1.9598 -0.4854
 6662SOL    HW326415   1.878   3.531   0.937  1.8346  1.4157  0.0836
 6662SOL    MW426416   1.802   3.567   0.914  0.8806 -0.5305 -0.0477
 6663SOL     OW26417   5.645   4.945   5.389 -0.0733 -0.4239 -0.3326
 6663SOL    HW226418   5.574   4.983   5.337  0.3263  2.1999  0.8696
 6663SOL    HW326419   5.723   4.953   5.334  0.0538  0.8177  0.0072
 6663SOL    MW426420   5.646   4.951   5.375 -0.0038  0.0861 -0.1292
 6664SOL     OW26421   5.558   2.727   5.919  0.1755  0.4478  0.4396
 6664SOL    HW226422   5.632   2.787   5.926  0.3839  0.0833  1.6284
 6664SOL    HW326423   5.482   2.779   5.944  0.0022  0.8439 -0.8596
 6664SOL    MW426424   5.557   2.742   5.923  0.1801  0.4520  0.4250
 6665SOL     OW26425   4.256   3.604   2.932  0.0938  0.1904 -0.2745
 6665SOL    HW226426   4.216   3.653   3.004  1.4471  0.4858  0.2967
 6665SOL    HW326427   4.239   3.512   2.954 -0.2146  0.3083 -0.0100
 6665SOL    MW426428   4.248   3.598   2.945  0.2317  0.2449 -0.1643
 6666SOL     OW26429   5.710   2.969   4.655 -0.1742 -0.0048 -0.3290
 6666SOL    HW226430   5.716   2.889   4.707 -0.2028 -0.1094 -0.4853
 6666SOL    HW326431   5.783   2.963   4.593  0.0376  0.2592 -0.1100
 6666SOL    MW426432   5.720   2.958   4.654 -0.1501  0.0162 -0.3208
 6667SOL     OW26433   0.012   3.239   3.506  0.4936 -0.1234  0.7292
 6667SOL    HW226434   0.078   3.291   3.553  1.4776 -0.2748 -0.4473
 6667SOL    HW326435  -0.005   3.289   3.426  1.6460 -1.6830 -0.5608
 6667SOL    MW426436   0.018   3.253   3.502  0.7755 -0.3492  0.4038
 6668SOL     OW26437   6.405   5.161   6.379  0.3375  0.0990 -0.2273
 6668SOL    HW226438   6.484   5.124   6.339 -0.3301 -2.9683  1.0531
 6668SOL    HW326439   6.333   5.110   6.343 -1.1619  2.6591 -1.1505
 6668SOL    MW426440   6.406   5.149   6.369  0.0516  0.0321 -0.1802
 6669SOL     OW26441   1.219   1.308   0.970 -0.1939  0.7357  0.0396
 6669SOL    HW226442   1.203   1.399   0.997 -0.1657  1.3159 -1.7625
 6669SOL    HW326443   1.142   1.260   1.000 -1.1112  1.7353 -0.6248
 6669SOL    MW426444   1.207   1.314   0.978 -0.3112  0.9441 -0.2858
 6670SOL     OW26445   6.015   3.292   3.584  0.2496 -0.1746  0.2912
 6670SOL    HW226446   6.035   3.315   3.493  0.9390  1.0816  0.7308
 6670SOL    HW326447   5.930   3.249   3.580 -0.3478  1.0405 -0.8117
 6670SOL    MW426448   6.007   3.289   3.571  0.2617  0.1515  0.2037
 6671SOL     OW26449   3.667   3.749   0.219  0.0777 -0.0224 -1.1202
 6671SOL    HW226450   3.575   3.739   0.193  0.4339 -2.7926 -1.6438
 6671SOL    HW326451   3.710   3.671   0.183  2.1282 -0.1439  1.3518
 6671SOL    MW426452   3.660   3.737   0.211  0.3952 -0.4039 -0.8632
 6672SOL     OW26453   3.120   6.360   0.776 -0.4521  0.0077  0.4421
 6672SOL    HW226454   3.185   6.331   0.712 -0.8897  0.7899 -0.3895
 6672SOL    HW326455   3.151   6.325   0.860 -0.4513 -1.9742 -0.3382
 6672SOL    MW426456   3.133   6.352   0.779 -0.5098 -0.1506  0.2295
 6673SOL     OW26457   4.736   2.408   5.968  0.7317 -0.0706  0.1209
 6673SOL    HW226458   4.739   2.476   5.900  0.9227 -0.8568 -0.6811
 6673SOL    HW326459   4.673   2.440   6.032  0.9797  0.9581 -0.1365
 6673SOL    MW426460   4.728   2.421   5.967  0.7896 -0.0386 -0.0189
 6674SOL     OW26461   4.291   5.101   5.821  0.4661 -0.5006  0.1116
 6674SOL    HW226462   4.327   5.021   5.859 -1.9096 -1.2722  0.9105
 6674SOL    HW326463   4.262   5.075   5.734  1.8351  0.1493 -0.5771
 6674SOL    MW426464   4.292   5.087   5.815  0.3333 -0.5166  0.1261
 6675SOL     OW26465   1.937   0.484   3.429  0.0467 -0.3761 -0.0264
 6675SOL    HW226466   1.875   0.413   3.447 -2.0870  1.4958  0.4049
 6675SOL    HW326467   2.023   0.442   3.438 -1.0748 -3.1520 -0.9351
 6675SOL    MW426468   1.940   0.469   3.433 -0.3828 -0.4954 -0.0894
 6676SOL     OW26469   0.233   1.996   6.235  0.0046  0.6894  0.3208
 6676SOL    HW226470   0.225   1.989   6.140  2.6363  0.9963  0.0121
 6676SOL    HW326471   0.164   2.058   6.261 -0.3952  1.0200 -1.4499
 6676SOL    MW426472   0.223   2.004   6.226  0.2991  0.7735  0.0465
 6677SOL     OW26473   0.164   2.551   2.613 -0.4962  0.1888  0.6193
 6677SOL    HW226474   0.243   2.514   2.654 -0.3770 -1.7209 -1.1925
 6677SOL    HW326475   0.139   2.624   2.671  3.3446  1.7790  0.5687
 6677SOL    MW426476   0.171   2.556   2.626  0.0263  0.1466  0.3736
 6678SOL     OW26477   2.949   2.236   0.613  0.2394 -0.0717  0.5814
 6678SOL    HW226478   2.954   2.224   0.708  0.6757 -0.0177  0.5700
 6678SOL    HW326479   2.868   2.283   0.598 -0.1685 -0.6687  0.8687
 6678SOL    MW426480   2.939   2.240   0.624  0.2431 -0.1434  0.6178
 6679SOL     OW26481   4.747   2.225   1.637  0.2515 -0.3284 -0.3036
 6679SOL    HW226482   4.679   2.291   1.627  1.1376  0.4534 -1.3659
 6679SOL    HW326483   4.775   2.233   1.728 -2.7010 -2.3461  0.9360
 6679SOL    MW426484   4.742   2.234   1.648 -0.0211 -0.4915 -0.2802
 6680SOL     OW26485   5.536   3.586   1.067 -0.5850 -0.0324  0.3748
 6680SOL    HW226486   5.575   3.526   1.005 -0.9575  0.6925 -0.5821
 6680SOL    HW326487   5.507   3.531   1.140 -0.0156 -0.8692 -0.0259
 6680SOL    MW426488   5.537   3.571   1.069 -0.5590 -0.0472  0.1957
 6681SOL     OW26489   2.970   1.182   1.799 -0.1979 -0.0188 -0.0320
 6681SOL    HW226490   3.026   1.259   1.787 -1.0697  0.8288  1.1429
 6681SOL    HW326491   2.966   1.143   1.712  0.6711  0.9770 -0.5522
 6681SOL    MW426492   2.977   1.187   1.786 -0.1983  0.2244  0.0544
 6682SOL     OW26493   4.149   3.631   2.678  0.1396  0.2112  0.0590
 6682SOL    HW226494   4.185   3.613   2.764 -0.0325 -3.1388 -0.4268
 6682SOL    HW326495   4.202   3.577   2.618 -0.6927  1.2803 -1.7321
 6682SOL    MW426496   4.161   3.621   2.681  0.0071 -0.0897 -0.2414
 6683SOL     OW26497   1.273   2.711   1.842  0.2147 -0.3401 -0.1108
 6683SOL    HW226498   1.195   2.744   1.798  0.4112  1.4276  0.7656
 6683SOL    HW326499   1.264   2.742   1.933  1.7331 -0.4223  0.0965
 6683SOL    MW426500   1.261   2.720   1.849  0.4410 -0.1177  0.0322
 6684SOL     OW26501   6.121   2.981   1.632 -0.1988  0.4236  0.1138
 6684SOL    HW226502   6.168   3.032   1.566  1.2827  0.0625  0.8241
 6684SOL    HW326503   6.031   2.976   1.600  0.5063  0.0724 -1.9642
 6684SOL    MW426504   6.116   2.987   1.619  0.0897  0.3296 -0.0666
 6685SOL     OW26505   1.793   6.328   5.256 -0.0781 -0.4093 -0.0439
 6685SOL    HW226506   1.793   6.416   5.217 -1.5031 -1.1439 -1.8505
 6685SOL    HW326507   1.814   6.343   5.348 -0.8582  1.8939 -0.1604
 6685SOL    MW426508   1.796   6.342   5.263 -0.3690 -0.2024 -0.2976
 6686SOL     OW26509   0.861   4.812   2.642  0.7857 -0.4112 -0.3709
 6686SOL    HW226510   0.916   4.755   2.589  0.4220 -0.6959 -0.4436
 6686SOL    HW326511   0.865   4.773   2.730  2.1373  0.5813  0.0430
 6686SOL    MW426512   0.869   4.799   2.647  0.9161 -0.3178 -0.3259
 6687SOL     OW26513   1.285   2.623   1.022 -0.1862  0.5579 -0.4120
 6687SOL    HW226514   1.267   2.649   1.112 -1.2968 -2.7283  0.4600
 6687SOL    HW326515   1.200   2.623   0.979 -0.4013 -2.0526 -0.1388
 6687SOL    MW426516   1.272   2.626   1.028 -0.3611 -0.2201 -0.2609
 6688SOL     OW26517   3.058   0.213   1.041 -0.0060  0.3790 -0.2856
 6688SOL    HW226518   2.975   0.201   1.088  0.4424 -1.5520  0.1232
 6688SOL    HW326519   3.042   0.175   0.955  1.0249 -2.0534  0.5102
 6688SOL    MW426520   3.045   0.206   1.036  0.1892 -0.1967 -0.1267
 6689SOL     OW26521   0.994   0.494   4.807  0.0861 -0.1303  0.1244
 6689SOL    HW226522   0.939   0.473   4.732 -0.1141 -0.8458  0.4593
 6689SOL    HW326523   1.050   0.417   4.818  1.2650  0.6426 -0.2964
 6689SOL    MW426524   0.994   0.481   4.799  0.2152 -0.1228  0.1131
 6690SOL     OW26525   4.367   6.055   4.375 -0.0805  0.3997 -0.3165
 6690SOL    HW226526   4.418   5.975   4.383  0.8657  1.1396  2.0620
 6690SOL    HW326527   4.365   6.073   4.281  0.2137 -2.0369 -0.8557
 6690SOL    MW426528   4.374   6.047   4.364  0.0831  0.1758 -0.0738
 6691SOL     OW26529   4.208   3.407   0.459  0.3087 -0.1942  0.1621
 6691SOL    HW226530   4.179   3.491   0.423  3.5611  0.2336 -1.8947
 6691SOL    HW326531   4.182   3.410   0.551  0.5787  3.2453  0.2461
 6691SOL    MW426532   4.201   3.418   0.467  0.7734  0.3160 -0.0982
 6692SOL     OW26533   1.364   1.340   5.207 -0.0755 -0.1601 -0.2551
 6692SOL    HW226534   1.320   1.361   5.125 -2.7171 -1.1631  0.7764
 6692SOL    HW326535   1.421   1.267   5.187 -0.1103  0.0973 -1.3334
 6692SOL    MW426536   1.366   1.333   5.194 -0.4286 -0.2585 -0.2613
 6693SOL     OW26537   1.324   0.338   5.068  0.0550 -0.6734  0.5966
 6693SOL    HW226538   1.272   0.329   4.988  1.5463  0.1391 -0.5199
 6693SOL    HW326539   1.366   0.253   5.080  0.5483 -0.5256 -0.0295
 6693SOL    MW426540   1.322   0.326   5.059  0.3168 -0.5467  0.3667
 6694SOL     OW26541   3.806   0.172   3.095  0.0863 -0.6517  0.2207
 6694SOL    HW226542   3.731   0.224   3.125 -1.1253 -0.5740 -2.5508
 6694SOL    HW326543   3.880   0.233   3.099 -0.9647  0.8308 -1.3024
 6694SOL    MW426544   3.806   0.187   3.099 -0.2122 -0.4458 -0.3459
 6695SOL     OW26545   0.723   2.957   4.689 -0.0918 -0.4775 -0.0126
 6695SOL    HW226546   0.738   3.049   4.667 -1.6311 -0.0146  0.7565
 6695SOL    HW326547   0.666   2.924   4.620 -0.8027 -0.4203  0.5407
 6695SOL    MW426548   0.718   2.965   4.677 -0.3887 -0.4089  0.1619
 6696SOL     OW26549   6.274   1.918   2.150  0.1617 -0.1529 -0.2253
 6696SOL    HW226550   6.241   1.834   2.180 -2.3661  0.5314 -0.8218
 6696SOL    HW326551   6.284   1.970   2.230 -2.4203  0.2900 -0.1049
 6696SOL    MW426552   6.271   1.914   2.165 -0.5125 -0.0042 -0.2881
 6697SOL     OW26553   0.802   1.300   4.056  0.1295  0.6656 -0.1603
 6697SOL    HW226554   0.876   1.293   4.116 -0.4345  0.4192  0.5196
 6697SOL    HW326555   0.806   1.390   4.024  0.8008  0.6135 -0.2405
 6697SOL    MW426556   0.812   1.311   4.060  0.1436  0.6262 -0.0812
 6698SOL     OW26557   0.586   0.692   4.253 -0.3002  0.2390  0.0185
 6698SOL    HW226558   0.590   0.664   4.162 -1.1465  0.3095 -0.0417
 6698SOL    HW326559   0.672   0.668   4.289  0.5724  1.4626 -1.1369
 6698SOL    MW426560   0.598   0.685   4.246 -0.2967  0.4097 -0.1419
 6699SOL     OW26561   4.214   0.425   4.540 -0.2223  0.3304 -0.4769
 6699SOL    HW226562   4.241   0.517   4.546 -0.8860  0.4698  0.5731
 6699SOL    HW326563   4.266   0.380   4.606  0.3663 -0.1321 -1.2342
 6699SOL    MW426564   4.224   0.431   4.549 -0.2322  0.2877 -0.4383
 6700SOL     OW26565   4.614   4.929   0.538 -0.6538 -0.5792  0.1000
 6700SOL    HW226566   4.647   5.017   0.520 -0.5768 -0.9257 -1.5644
 6700SOL    HW326567   4.675   4.893   0.603 -0.2404  0.3038  0.2138
 6700SOL    MW426568   4.626   4.936   0.545 -0.5891 -0.5084 -0.1046
 6701SOL     OW26569   3.994   2.833   5.049 -0.1505 -0.1610  0.0051
 6701SOL    HW226570   3.979   2.927   5.060  0.4327  0.0212 -0.7228
 6701SOL    HW326571   4.021   2.823   4.958 -0.0472 -1.0150  0.1229
 6701SOL    MW426572   3.995   2.844   5.039 -0.0599 -0.2497 -0.0754
 6702SOL     OW26573   3.834   4.906   1.043  0.1061  0.7768  0.5492
 6702SOL    HW226574   3.860   4.991   1.006 -1.1461  3.2705  4.7652
 6702SOL    HW326575   3.912   4.874   1.087  0.9629 -1.0980 -2.1153
 6702SOL    MW426576   3.847   4.913   1.044  0.0539  0.8584  0.7539
 6703SOL     OW26577   3.234   0.327   5.233 -0.4054  1.1204  0.3229
 6703SOL    HW226578   3.211   0.403   5.180 -0.8532  1.4772  1.0260
 6703SOL    HW326579   3.195   0.344   5.318 -0.4542  0.1346  0.5080
 6703SOL    MW426580   3.225   0.339   5.237 -0.4709  1.0374  0.4401
 6704SOL     OW26581   4.235   4.367   2.023  0.0125  0.2031 -0.1333
 6704SOL    HW226582   4.141   4.362   2.040 -0.0011  0.9924  0.0597
 6704SOL    HW326583   4.253   4.461   2.019  0.9797  0.0737  0.9134
 6704SOL    MW426584   4.225   4.379   2.025  0.1383  0.2901  0.0302
 6705SOL     OW26585   0.420   5.693   2.894 -0.3125  0.0438  0.2167
 6705SOL    HW226586   0.423   5.597   2.890 -0.2536  0.0486  0.1367
 6705SOL    HW326587   0.329   5.713   2.916 -0.3333 -0.0289  0.1994
 6705SOL    MW426588   0.409   5.683   2.896 -0.3074  0.0348  0.2038
 6706SOL     OW26589   1.949   0.613   0.879  0.5631  1.3421 -0.2569
 6706SOL    HW226590   1.896   0.555   0.933 -1.0775  3.0714  0.0490
 6706SOL    HW326591   1.939   0.578   0.790  0.9669  0.1949  0.1304
 6706SOL    MW426592   1.941   0.600   0.874  0.3999  1.4189 -0.1655
 6707SOL     OW26593   2.544   1.851   3.392 -0.0169  0.3077  0.0966
 6707SOL    HW226594   2.473   1.908   3.422 -0.4328  0.2409 -0.7154
 6707SOL    HW326595   2.500   1.771   3.364  0.2450  0.6607 -1.4135
 6707SOL    MW426596   2.529   1.848   3.392 -0.0372  0.3454 -0.2097
 6708SOL     OW26597   2.695   1.204   2.567  0.3292 -0.3502  0.5298
 6708SOL    HW226598   2.697   1.176   2.659  2.7677 -0.0606  0.6253
 6708SOL    HW326599   2.654   1.291   2.569 -1.4390 -1.1529  1.0429
 6708SOL    MW426600   2.689   1.212   2.579  0.4176 -0.4179  0.6101
 6709SOL     OW26601   5.275   3.718   3.088  0.2760 -0.6806  0.5387
 6709SOL    HW226602   5.315   3.685   3.007  1.9445  0.4524  0.8561
 6709SOL    HW326603   5.296   3.653   3.154  0.9553 -0.4728  0.5346
 6709SOL    MW426604   5.283   3.705   3.086  0.5858 -0.5037  0.5800
 6710SOL     OW26605   3.473   4.868   5.291  0.4353 -0.2296 -0.3372
 6710SOL    HW226606   3.481   4.810   5.367  0.6702 -0.9589 -0.9165
 6710SOL    HW326607   3.385   4.852   5.258  0.2514  0.2531 -0.0964
 6710SOL    MW426608   3.462   4.858   5.297  0.4420 -0.2622 -0.3819
 6711SOL     OW26609   6.048   5.516   3.516  0.2082  0.0752  0.0091
 6711SOL    HW226610   6.026   5.503   3.424  0.0445 -0.5976  0.1418
 6711SOL    HW326611   6.142   5.537   3.515  0.0679  0.7243 -0.3595
 6711SOL    MW426612   6.057   5.517   3.504  0.1681  0.0721 -0.0220
 6712SOL     OW26613   0.951   4.785   4.042 -0.4466  0.4524 -0.1581
 6712SOL    HW226614   0.971   4.763   4.133 -0.9652  2.3925  0.4730
 6712SOL    HW326615   0.862   4.751   4.028 -0.3327  0.0731  0.0264
 6712SOL    MW426616   0.942   4.778   4.052 -0.5000  0.6583 -0.0505
 6713SOL     OW26617   1.620   0.349   4.877  0.2363  0.2029  0.0279
 6713SOL    HW226618   1.588   0.299   4.952  0.7508 -0.0105  0.1076
 6713SOL    HW326619   1.596   0.296   4.801 -0.3136  0.4345  0.0303
 6713SOL    MW426620   1.612   0.335   4.876  0.2316  0.2053  0.0387
 6714SOL     OW26621   2.301   6.104   1.614 -0.4391 -0.5363  0.2939
 6714SOL    HW226622   2.354   6.037   1.570  0.4627  0.6797 -0.5335
 6714SOL    HW326623   2.314   6.183   1.562 -2.7741 -0.0688  0.2787
 6714SOL    MW426624   2.309   6.106   1.601 -0.6282 -0.3142  0.1828
 6715SOL     OW26625   3.459   2.215   4.619 -0.2804  0.5905  0.6875
 6715SOL    HW226626   3.532   2.236   4.561 -0.7398  1.9658  0.5755
 6715SOL    HW326627   3.395   2.172   4.562 -0.2242  0.8315  0.4410
 6715SOL    MW426628   3.460   2.212   4.604 -0.3336  0.8038  0.6402
 6716SOL     OW26629   5.176   4.748   0.905  0.8319 -0.2930 -0.5152
 6716SOL    HW226630   5.246   4.684   0.893 -0.8049 -2.3656  0.3984
 6716SOL    HW326631   5.097   4.703   0.876 -0.3420  1.5146 -0.2820
 6716SOL    MW426632   5.175   4.734   0.899  0.4611 -0.3280 -0.3639
 6717SOL     OW26633   6.280   1.827   0.690 -0.2324 -0.1943 -0.1792
 6717SOL    HW226634   6.371   1.802   0.672 -0.0582  0.8276 -0.8170
 6717SOL    HW326635   6.287   1.897   0.756 -0.5471 -0.0238 -0.3241
 6717SOL    MW426636   6.293   1.833   0.697 -0.2510 -0.0370 -0.2825
 6718SOL     OW26637   2.776   2.905   5.510  0.1141 -0.1929  0.5261
 6718SOL    HW226638   2.760   2.833   5.572  1.2648  1.2640  2.6311
 6718SOL    HW326639   2.754   2.984   5.559  1.0814  1.0290 -0.9298
 6718SOL    MW426640   2.771   2.906   5.525  0.3936  0.1605  0.6117
 6719SOL     OW26641   2.585   4.190   3.243  0.5636  0.1310 -0.2831
 6719SOL    HW226642   2.640   4.259   3.207  0.3963  0.0896 -0.6196
 6719SOL    HW326643   2.499   4.204   3.203  0.4430 -0.0702 -0.0989
 6719SOL    MW426644   2.581   4.201   3.233  0.5256  0.0990 -0.3032
 6720SOL     OW26645   2.402   5.181   3.470  0.0954 -0.2327  0.6519
 6720SOL    HW226646   2.355   5.162   3.551 -0.7816 -1.3210 -0.0887
 6720SOL    HW326647   2.484   5.223   3.499 -0.4893 -0.0065  2.0504
 6720SOL    MW426648   2.407   5.184   3.485 -0.0975 -0.3464  0.7387
 6721SOL     OW26649   2.553   0.219   3.900 -0.2478 -0.5796  0.5465
 6721SOL    HW226650   2.504   0.143   3.929  0.2750 -1.4157 -0.6705
 6721SOL    HW326651   2.557   0.210   3.805 -0.2663  1.0336  0.3620
 6721SOL    MW426652   2.547   0.208   3.891 -0.1813 -0.4771  0.3616
 6722SOL     OW26653   3.137   6.276   4.877  0.5740 -0.1339  0.1165
 6722SOL    HW226654   3.178   6.309   4.957 -0.3641  1.3318  0.0114
 6722SOL    HW326655   3.210   6.258   4.818  1.2123 -0.3016  0.9406
 6722SOL    MW426656   3.152   6.278   4.880  0.5345  0.0373  0.2114
 6723SOL     OW26657   2.797   6.118   4.451  0.2535 -0.4283  0.0946
 6723SOL    HW226658   2.766   6.033   4.481  0.4045 -0.3509  0.4723
 6723SOL    HW326659   2.771   6.179   4.520 -2.0315  0.2547 -1.2632
 6723SOL    MW426660   2.790   6.115   4.464 -0.0280 -0.3280 -0.0347
 6724SOL     OW26661   2.566   4.371   0.748  0.7817 -0.2866  0.3033
 6724SOL    HW226662   2.574   4.410   0.835  0.0991 -1.1510  0.7589
 6724SOL    HW326663   2.474   4.348   0.740 -0.1943  3.5423 -2.2796
 6724SOL    MW426664   2.555   4.373   0.758  0.5629  0.1046  0.0226
 6725SOL     OW26665   5.999   3.690   2.934  0.6007  0.1935 -0.0036
 6725SOL    HW226666   5.913   3.716   2.966  1.4297  2.8754  0.3182
 6725SOL    HW326667   6.060   3.720   3.002  1.8733 -0.8265 -0.6428
 6725SOL    MW426668   5.996   3.698   2.947  0.8780  0.4128 -0.0454
 6726SOL     OW26669   1.735   3.723   6.286 -0.1796 -0.1389 -0.2954
 6726SOL    HW226670   1.792   3.754   6.356 -0.8238 -0.3782  0.3518
 6726SOL    HW326671   1.782   3.743   6.205  0.6163  0.0598  0.2088
 6726SOL    MW426672   1.748   3.730   6.284 -0.1595 -0.1442 -0.1435
 6727SOL     OW26673   1.749   3.219   5.576  0.3124  0.3859 -0.4414
 6727SOL    HW226674   1.765   3.172   5.494 -0.9566 -0.5058 -0.2133
 6727SOL    HW326675   1.702   3.298   5.550 -0.6407 -0.1933 -0.5526
 6727SOL    MW426676   1.745   3.223   5.562  0.0192  0.1918 -0.4260
 6728SOL     OW26677   2.689   3.089   0.380  0.8095  0.2906  0.0366
 6728SOL    HW226678   2.635   3.146   0.325 -0.8364  0.4517  1.7328
 6728SOL    HW326679   2.723   3.146   0.448 -1.0609 -0.7058  1.9087
 6728SOL    MW426680   2.687   3.104   0.382  0.3456  0.1804  0.5074
 6729SOL     OW26681   3.789   1.256   1.168 -0.2333 -0.0457  0.0584
 6729SOL    HW226682   3.717   1.245   1.230  0.4148 -0.4154  0.7669
 6729SOL    HW326683   3.763   1.331   1.114 -3.4014 -2.9345 -2.9383
 6729SOL    MW426684   3.776   1.265   1.169 -0.5658 -0.4757 -0.2435
 6730SOL     OW26685   2.441   1.578   1.471  0.0781 -0.1622 -0.0698
 6730SOL    HW226686   2.468   1.604   1.559 -1.1610 -1.8144  0.8423
 6730SOL    HW326687   2.487   1.496   1.456 -2.2651 -1.6439  0.4499
 6730SOL    MW426688   2.451   1.571   1.481 -0.3946 -0.5757  0.1191
 6731SOL     OW26689   4.236   1.344   0.275 -0.0161  0.7136  0.0772
 6731SOL    HW226690   4.224   1.270   0.335 -1.2669  1.9045  1.3693
 6731SOL    HW326691   4.330   1.363   0.279  0.1328 -0.0658  0.6162
 6731SOL    MW426692   4.247   1.336   0.284 -0.1614  0.7679  0.3188
 6732SOL     OW26693   3.803   4.466   1.016  0.7362  0.2865  0.0027
 6732SOL    HW226694   3.821   4.532   0.950  0.0076  0.4385 -0.0583
 6732SOL    HW326695   3.805   4.383   0.969  0.7558  0.3489 -0.1059
 6732SOL    MW426696   3.806   4.464   1.001  0.6427  0.3148 -0.0197
 6733SOL     OW26697   2.438   2.285   1.870  0.3366 -0.1722 -0.3047
 6733SOL    HW226698   2.393   2.253   1.948  0.1531  1.1247  0.1595
 6733SOL    HW326699   2.499   2.216   1.847 -2.0406 -2.1082 -1.1043
 6733SOL    MW426700   2.440   2.272   1.878 -0.0012 -0.2565 -0.3490
 6734SOL     OW26701   4.333   5.783   5.859 -0.0826  0.0317 -0.0546
 6734SOL    HW226702   4.258   5.816   5.811  0.1363 -0.9143 -1.0882
 6734SOL    HW326703   4.328   5.688   5.849  1.1941 -0.0495 -0.0580
 6734SOL    MW426704   4.323   5.775   5.851  0.1147 -0.1038 -0.1914
 6735SOL     OW26705   4.534   6.393   3.047  0.4262 -0.0443 -0.3098
 6735SOL    HW226706   4.600   6.323   3.049  1.1237  0.6064  0.4762
 6735SOL    HW326707   4.508   6.404   3.138  1.9854  2.2003 -0.0517
 6735SOL    MW426708   4.540   6.385   3.059  0.7240  0.3377 -0.1720
 6736SOL     OW26709   1.960   4.042   3.835 -0.0335 -0.2129  0.5995
 6736SOL    HW226710   1.920   4.034   3.748  0.0924 -0.7338  0.5866
 6736SOL    HW326711   2.051   4.015   3.822 -0.1065 -0.6353  0.9638
 6736SOL    MW426712   1.966   4.037   3.822 -0.0265 -0.3374  0.6459
 6737SOL     OW26713   3.304   4.159   4.679 -0.1909  0.1958 -0.2777
 6737SOL    HW226714   3.370   4.226   4.662 -0.2634  0.5726  0.8519
 6737SOL    HW326715   3.349   4.076   4.662  0.0135  0.4971 -1.3058
 6737SOL    MW426716   3.318   4.157   4.674 -0.1735  0.2853 -0.2643
 6738SOL     OW26717   6.167   3.779   6.300  0.9970  0.1577 -0.1638
 6738SOL    HW226718   6.243   3.734   6.338 -0.0999 -0.5338  1.2823
 6738SOL    HW326719   6.185   3.872   6.316  0.5677 -0.1034  2.1817
 6738SOL    MW426720   6.180   3.785   6.307  0.7956  0.0320  0.3364
 6739SOL     OW26721   0.010   0.667   0.719  0.5358 -0.2430  0.5766
 6739SOL    HW226722   0.069   0.730   0.758  0.9662 -0.2464 -0.0603
 6739SOL    HW326723  -0.056   0.720   0.673  0.8489 -0.2499  0.1127
 6739SOL    MW426724   0.009   0.682   0.718  0.6339 -0.2444  0.4314
 6740SOL     OW26725   1.013   0.553   5.686  0.3471  0.0132 -0.2264
 6740SOL    HW226726   0.988   0.576   5.775  1.8610  1.3167 -0.0896
 6740SOL    HW326727   1.065   0.473   5.694  1.8625  1.0148  0.2920
 6740SOL    MW426728   1.016   0.545   5.699  0.7468  0.3173 -0.1399
 6741SOL     OW26729   2.997   5.235   1.855 -0.1417  0.4525 -0.3305
 6741SOL    HW226730   3.060   5.165   1.874  0.9429  1.5708  0.3410
 6741SOL    HW326731   2.930   5.227   1.923 -0.0732  0.0113 -0.3137
 6741SOL    MW426732   2.997   5.225   1.866  0.0104  0.5418 -0.2397
 6742SOL     OW26733   2.139   5.098   1.433  0.2767  0.1205  0.3786
 6742SOL    HW226734   2.168   5.187   1.450 -0.8837  0.5527  0.1482
 6742SOL    HW326735   2.205   5.062   1.373 -0.6099  1.7247 -1.7036
 6742SOL    MW426736   2.152   5.105   1.427  0.0066  0.3892  0.0735
 6743SOL     OW26737   2.449   3.568   1.846 -0.5136 -0.2476  0.3440
 6743SOL    HW226738   2.428   3.533   1.759 -0.2857 -0.2451  0.2859
 6743SOL    HW326739   2.523   3.627   1.830 -1.0290  0.4317  0.4048
 6743SOL    MW426740   2.456   3.571   1.832 -0.5515 -0.1576  0.3443
 6744SOL     OW26741   6.330   1.385   4.678 -0.4414  0.3045 -0.1972
 6744SOL    HW226742   6.313   1.391   4.584 -1.7592  1.4477  0.0748
 6744SOL    HW326743   6.254   1.336   4.712 -1.2647  2.0227  0.5551
 6744SOL    MW426744   6.318   1.379   4.670 -0.7239  0.6820 -0.0621
 6745SOL     OW26745   4.475   2.430   4.796 -0.0729  0.5095 -0.7143
 6745SOL    HW226746   4.418   2.355   4.808 -1.8138  1.8265 -0.4113
 6745SOL    HW326747   4.505   2.424   4.705  0.7196 -1.1143 -0.3806
 6745SOL    MW426748   4.472   2.419   4.785 -0.1980  0.4690 -0.6303
 6746SOL     OW26749   2.624   0.596   3.311  0.2971  0.0752  0.3993
 6746SOL    HW226750   2.576   0.622   3.389  2.3581  0.0178  1.7605
 6746SOL    HW326751   2.713   0.578   3.342  0.9331 -0.9193 -1.8040
 6746SOL    MW426752   2.629   0.597   3.325  0.6529 -0.0636  0.2882
 6747SOL     OW26753   4.252   0.264   5.852 -0.2935  0.2216 -0.2751
 6747SOL    HW226754   4.242   0.319   5.929  0.8141 -0.7983  0.6384
 6747SOL    HW326755   4.171   0.276   5.803 -1.1836  0.6050  1.2432
 6747SOL    MW426756   4.240   0.273   5.856 -0.2648  0.1376  0.0457
 6748SOL     OW26757   3.889   6.404   1.160 -0.3062 -0.2379 -0.3826
 6748SOL    HW226758   3.809   6.454   1.178  0.6550  0.6384  1.8358
 6748SOL    HW326759   3.959   6.470   1.163  1.0541 -1.6042  2.9889
 6748SOL    MW426760   3.888   6.419   1.163  0.0001 -0.3025  0.3549
 6749SOL     OW26761   3.323   1.333   4.712  0.3193 -0.0037 -0.2070
 6749SOL    HW226762   3.307   1.253   4.762  1.9294  0.4169  1.0604
 6749SOL    HW326763   3.328   1.304   4.621 -1.8135 -0.9167 -0.1046
 6749SOL    MW426764   3.321   1.318   4.706  0.2503 -0.0686 -0.0263
 6750SOL     OW26765   1.620   2.209   0.685  0.0736 -0.2600 -0.1493
 6750SOL    HW226766   1.530   2.175   0.689  0.2943 -1.0065 -1.0989
 6750SOL    HW326767   1.673   2.140   0.722  0.1618  0.6770  1.5450
 6750SOL    MW426768   1.615   2.196   0.690  0.1143 -0.2349 -0.0511
 6751SOL     OW26769   0.117   4.100   0.682 -0.1087  0.3253  0.2275
 6751SOL    HW226770   0.194   4.141   0.720 -0.6513 -0.2867  2.0909
 6751SOL    HW326771   0.077   4.168   0.628  1.1254  0.9859  0.1189
 6751SOL    MW426772   0.122   4.114   0.680 -0.0175  0.3317  0.4590
 6752SOL     OW26773   4.490   4.927   3.688 -0.2741 -0.2124 -0.2958
 6752SOL    HW226774   4.491   4.855   3.625 -1.8009  0.5337 -1.2329
 6752SOL    HW326775   4.397   4.945   3.702  0.0727  1.8657 -0.4433
 6752SOL    MW426776   4.478   4.920   3.682 -0.4298  0.1602 -0.4389
 6753SOL     OW26777   3.715   5.763   4.279  0.2178 -0.3002 -0.1185
 6753SOL    HW226778   3.631   5.786   4.317  1.2781  1.3491  1.3738
 6753SOL    HW326779   3.711   5.668   4.267 -1.4210 -0.3979  0.9666
 6753SOL    MW426780   3.703   5.753   4.282  0.1414 -0.0955  0.2216
 6754SOL     OW26781   1.270   2.815   2.957  0.0189 -0.3914  0.1175
 6754SOL    HW226782   1.351   2.810   3.009  0.1376 -0.1847 -0.0455
 6754SOL    HW326783   1.245   2.908   2.961 -0.4541 -0.5282  0.5355
 6754SOL    MW426784   1.277   2.827   2.965 -0.0279 -0.3822  0.1512
 6755SOL     OW26785   2.603   2.120   0.438  0.2006 -0.4571  0.1777
 6755SOL    HW226786   2.627   2.134   0.347 -2.5666 -2.3618 -0.9695
 6755SOL    HW326787   2.631   2.200   0.483  0.2035  1.2217 -2.6253
 6755SOL    MW426788   2.610   2.133   0.432 -0.1641 -0.4869 -0.3435
 6756SOL     OW26789   4.235   3.459   5.599 -0.1033 -0.0735 -0.1533
 6756SOL    HW226790   4.151   3.485   5.561 -0.9539 -2.3863  0.0083
 6756SOL    HW326791   4.278   3.542   5.619 -2.2239  1.1934 -0.4882
 6756SOL    MW426792   4.229   3.473   5.597 -0.4953 -0.2115 -0.1762
 6757SOL     OW26793   2.992   4.676   3.375 -0.2111  0.2906  0.3529
 6757SOL    HW226794   2.945   4.597   3.403 -0.6532  0.9936  1.6611
 6757SOL    HW326795   3.015   4.659   3.284 -1.3720 -0.8386  0.2472
 6757SOL    MW426796   2.989   4.663   3.367 -0.4226  0.2343  0.5116
 6758SOL     OW26797   3.893   2.093   5.468 -0.2772  0.0487 -0.1108
 6758SOL    HW226798   3.931   2.180   5.478 -0.9386  0.7073 -2.6166
 6758SOL    HW326799   3.948   2.037   5.522  0.4546  1.9301  1.2071
 6758SOL    MW426800   3.905   2.097   5.476 -0.2679  0.3838 -0.2675
 6759SOL     OW26801   4.686   5.022   2.372  0.0058 -0.2012 -0.2475
 6759SOL    HW226802   4.689   5.006   2.467 -0.3071 -1.3142 -0.4087
 6759SOL    HW326803   4.596   5.000   2.348 -0.2846  1.3053 -0.6116
 6759SOL    MW426804   4.674   5.017   2.381 -0.0738 -0.1493 -0.3168
 6760SOL     OW26805   2.435   0.916   4.410 -0.0178 -0.9705  0.3365
 6760SOL    HW226806   2.426   0.870   4.326 -1.3151 -1.2218  0.5852
 6760SOL    HW326807   2.355   0.969   4.417  1.2940  1.1621  0.1844
 6760SOL    MW426808   2.423   0.917   4.400 -0.0159 -0.7223  0.3493
 6761SOL     OW26809   2.883   4.601   3.684 -0.5576 -0.8637 -0.2536
 6761SOL    HW226810   2.931   4.678   3.656  1.2860 -0.4870  3.3502
 6761SOL    HW326811   2.951   4.535   3.701 -1.8314 -2.2843 -0.4404
 6761SOL    MW426812   2.898   4.602   3.683 -0.4824 -1.0014  0.1973
 6762SOL     OW26813   5.363   0.145   0.568  0.0396  0.3680 -0.1986
 6762SOL    HW226814   5.371   0.050   0.571 -1.1519  0.2627  0.1909
 6762SOL    HW326815   5.448   0.177   0.600  0.2108 -0.5645  0.3354
 6762SOL    MW426816   5.376   0.137   0.573 -0.0950  0.2311 -0.0768
 6763SOL     OW26817   1.671   2.802   2.024  0.1816  0.2261  0.5421
 6763SOL    HW226818   1.616   2.831   1.952  0.7614 -2.8794 -1.3139
 6763SOL    HW326819   1.610   2.788   2.097 -0.5613  2.3250  0.3938
 6763SOL    MW426820   1.656   2.804   2.024  0.1601  0.0933  0.2776
 6764SOL     OW26821   1.324   4.100   1.579 -0.1395 -0.0038 -0.1934
 6764SOL    HW226822   1.341   4.006   1.586  0.8607  0.0014 -1.9098
 6764SOL    HW326823   1.409   4.139   1.562 -0.6886  1.0786 -0.5796
 6764SOL    MW426824   1.337   4.093   1.577 -0.0800  0.1397 -0.4708
 6765SOL     OW26825   1.381   4.584   5.087 -0.1214  0.0946 -0.2650
 6765SOL    HW226826   1.351   4.674   5.074  1.4605  0.4304 -2.0982
 6765SOL    HW326827   1.448   4.591   5.154 -1.4736 -0.0998  1.1651
 6765SOL    MW426828   1.386   4.597   5.094 -0.0911  0.1133 -0.3182
 6766SOL     OW26829   1.937   4.860   4.270  0.0847 -0.5471  0.6261
 6766SOL    HW226830   1.956   4.781   4.220  1.8299  0.7491 -0.8834
 6766SOL    HW326831   1.841   4.866   4.270 -0.0068 -1.2395 -1.5457
 6766SOL    MW426832   1.927   4.850   4.263  0.3029 -0.4674  0.1404
 6767SOL     OW26833   1.424   3.272   5.574  0.0981 -0.3144  0.6154
 6767SOL    HW226834   1.338   3.290   5.536  0.6074  0.5308 -0.1617
 6767SOL    HW326835   1.449   3.188   5.536 -0.4850 -0.6906  1.0411
 6767SOL    MW426836   1.416   3.263   5.564  0.0884 -0.2525  0.5690
 6768SOL     OW26837   1.150   4.426   5.052  0.3024  0.3204  0.1985
 6768SOL    HW226838   1.229   4.475   5.076  0.4599  0.9412 -1.4257
 6768SOL    HW326839   1.080   4.491   5.051 -0.2902 -0.2444  1.7184
 6768SOL    MW426840   1.151   4.441   5.055  0.2450  0.3278  0.1847
 6769SOL     OW26841   5.664   0.693   4.120 -0.2530  0.0794 -0.3565
 6769SOL    HW226842   5.600   0.685   4.191 -0.4432  1.7491 -0.3005
 6769SOL    HW326843   5.683   0.603   4.095 -1.4952 -0.4970  0.6426
 6769SOL    MW426844   5.658   0.680   4.126 -0.4420  0.2236 -0.2173
 6770SOL     OW26845   4.807   2.716   0.524 -0.0756 -0.0093 -0.0545
 6770SOL    HW226846   4.805   2.622   0.506 -0.1094 -0.1178  0.4876
 6770SOL    HW326847   4.846   2.755   0.446  0.9150 -0.5776  0.1359
 6770SOL    MW426848   4.812   2.709   0.511  0.0507 -0.0986  0.0422
 6771SOL     OW26849   4.699   1.766   4.152 -0.2365  0.5323  0.1959
 6771SOL    HW226850   4.754   1.747   4.076  0.7241 -0.9217  1.1932
 6771SOL    HW326851   4.611   1.776   4.116  0.1128 -0.6268 -1.0699
 6771SOL    MW426852   4.695   1.765   4.137 -0.0637  0.1875  0.1604
 6772SOL     OW26853   1.649   3.004   0.370 -0.6257 -0.1414  0.3381
 6772SOL    HW226854   1.652   2.948   0.448 -0.4020  0.8940  1.0935
 6772SOL    HW326855   1.563   3.047   0.374 -0.7929 -0.4069 -0.2293
 6772SOL    MW426856   1.638   3.002   0.381 -0.6182 -0.0398  0.3629
 6773SOL     OW26857   5.036   3.493   2.176  0.1320  0.0016  0.0294
 6773SOL    HW226858   5.011   3.583   2.154 -0.7113 -0.2409 -0.0450
 6773SOL    HW326859   4.961   3.440   2.148 -0.2557 -0.5100  1.8993
 6773SOL    MW426860   5.023   3.498   2.169 -0.0304 -0.0979  0.2663
 6774SOL     OW26861   1.908   5.510   4.521 -0.3981 -0.5977  0.0194
 6774SOL    HW226862   1.983   5.555   4.482 -0.4424  0.8560  1.5304
 6774SOL    HW326863   1.862   5.471   4.446  0.6747  0.2879 -1.1393
 6774SOL    MW426864   1.912   5.511   4.506 -0.2624 -0.2890  0.0659
 6775SOL     OW26865   1.202   0.039   4.069  0.5217  0.5964 -0.0042
 6775SOL    HW226866   1.167  -0.047   4.043  0.0987  0.7198  0.1522
 6775SOL    HW326867   1.127   0.099   4.060  0.1893  0.5456  2.0779
 6775SOL    MW426868   1.187   0.036   4.064  0.4220  0.6059  0.2912
 6776SOL     OW26869   1.530   2.382   5.156  0.3795  0.0449  0.9727
 6776SOL    HW226870   1.468   2.451   5.136  0.5464 -0.2916 -0.9562
 6776SOL    HW326871   1.615   2.426   5.162  0.4857  0.0480 -0.2587
 6776SOL    MW426872   1.533   2.397   5.154  0.4155  0.0009  0.5557
 6777SOL     OW26873   4.396   0.412   6.253 -0.4819  0.0201 -0.3820
 6777SOL    HW226874   4.375   0.319   6.266 -2.0103  0.4133  0.1328
 6777SOL    HW326875   4.343   0.458   6.318  0.3929  1.2537 -0.5102
 6777SOL    MW426876   4.386   0.406   6.263 -0.5681  0.2348 -0.3310
 6778SOL     OW26877   5.795   3.331   4.679 -0.4196 -0.1340 -0.0695
 6778SOL    HW226878   5.852   3.272   4.728  0.4083  0.5170 -0.2181
 6778SOL    HW326879   5.836   3.417   4.689 -0.0980 -0.0135 -2.0363
 6778SOL    MW426880   5.808   3.335   4.687 -0.2680 -0.0322 -0.3486
 6779SOL     OW26881   3.451   3.388   3.128 -0.2580  0.3032  0.5669
 6779SOL    HW226882   3.439   3.306   3.080  0.9348 -0.3237  1.2760
 6779SOL    HW326883   3.427   3.367   3.218 -1.5217  1.1998  0.4615
 6779SOL    MW426884   3.447   3.374   3.134 -0.2674  0.3388  0.6465
 6780SOL     OW26885   3.782   4.138   1.707 -0.2569 -0.0197 -0.3943
 6780SOL    HW226886   3.850   4.200   1.732 -0.6850  0.7722 -1.1401
 6780SOL    HW326887   3.750   4.170   1.623 -1.7685 -0.1946  0.0850
 6780SOL    MW426888   3.787   4.150   1.699 -0.5128  0.0617 -0.4295
 6781SOL     OW26889   2.263   4.908   1.195  0.0244  0.3345  0.1022
 6781SOL    HW226890   2.352   4.875   1.203 -0.3018 -0.6391 -0.2739
 6781SOL    HW326891   2.222   4.856   1.126 -0.6930  1.0943 -0.0722
 6781SOL    MW426892   2.269   4.897   1.187 -0.1133  0.3063  0.0296
 6782SOL     OW26893   1.493   3.056   0.693 -0.5414  0.6031 -0.1784
 6782SOL    HW226894   1.416   3.000   0.687 -0.6411  0.5755  1.1613
 6782SOL    HW326895   1.467   3.138   0.652 -0.3215 -0.3574 -2.3979
 6782SOL    MW426896   1.480   3.059   0.687 -0.5255  0.4728 -0.2945
 6783SOL     OW26897   4.734   3.432   3.216  0.8010  0.0653  0.1706
 6783SOL    HW226898   4.730   3.523   3.243 -0.9984 -0.0270  0.3768
 6783SOL    HW326899   4.722   3.382   3.297 -0.3219 -0.2891 -0.1904
 6783SOL    MW426900   4.732   3.437   3.230  0.4154  0.0064  0.1502
 6784SOL     OW26901   0.732   4.290   0.918 -0.5767  0.3396  0.6643
 6784SOL    HW226902   0.776   4.373   0.897 -0.0603  0.1697  1.0633
 6784SOL    HW326903   0.742   4.237   0.839  0.8885 -0.1002  1.1207
 6784SOL    MW426904   0.739   4.294   0.905 -0.3153  0.2592  0.7771
 6785SOL     OW26905   2.176   5.356   4.362  0.5429 -0.7050  0.3018
 6785SOL    HW226906   2.193   5.445   4.395  1.0120 -1.0565  1.0521
 6785SOL    HW326907   2.241   5.344   4.293 -0.0632 -0.1708 -0.3726
 6785SOL    MW426908   2.187   5.366   4.357  0.5248 -0.6809  0.3118
 6786SOL     OW26909   0.731   4.498   2.114 -0.6115  0.5598  0.0717
 6786SOL    HW226910   0.760   4.412   2.143  0.4512  1.0150  0.3892
 6786SOL    HW326911   0.636   4.497   2.128 -0.3445  0.2445  2.2270
 6786SOL    MW426912   0.722   4.486   2.119 -0.4360  0.5783  0.3980
 6787SOL     OW26913   6.232   2.288   1.231  0.5481  0.0315  0.4178
 6787SOL    HW226914   6.282   2.347   1.176 -0.7064 -0.7517 -1.6935
 6787SOL    HW326915   6.246   2.201   1.192  0.3769 -0.7259  1.9403
 6787SOL    MW426916   6.240   2.284   1.219  0.3600 -0.1717  0.3401
 6788SOL     OW26917   3.481   2.898   3.584 -0.4827  0.3997 -0.0942
 6788SOL    HW226918   3.475   2.867   3.494  0.5486  1.1390 -0.4281
 6788SOL    HW326919   3.402   2.952   3.596 -2.2547 -2.1436  0.4662
 6788SOL    MW426920   3.470   2.901   3.574 -0.5805  0.1617 -0.0643
 6789SOL     OW26921   1.033   0.633   5.101 -0.1040  0.0180  0.5885
 6789SOL    HW226922   1.086   0.618   5.179 -0.2342 -0.3252  0.6120
 6789SOL    HW326923   1.096   0.641   5.030  0.0565  0.9869  0.8196
 6789SOL    MW426924   1.048   0.632   5.102 -0.1000  0.1006  0.6221
 6790SOL     OW26925   2.719   4.874   4.629  0.1554  0.6043 -0.3165
 6790SOL    HW226926   2.686   4.784   4.628  0.9125  0.3190 -0.1686
 6790SOL    HW326927   2.714   4.902   4.537 -0.6018  0.6161 -0.2807
 6790SOL    MW426928   2.714   4.866   4.617  0.1554  0.5682 -0.2923
 6791SOL     OW26929   3.319   3.608   3.003 -0.1285  0.1343 -0.4704
 6791SOL    HW226930   3.389   3.656   2.960 -0.3451  0.6794 -0.2357
 6791SOL    HW326931   3.358   3.524   3.028  0.0780 -0.0651 -1.4469
 6791SOL    MW426932   3.333   3.603   3.001 -0.1299  0.1799 -0.5683
 6792SOL     OW26933   2.809   2.279   1.303  0.4692 -0.4177 -0.0602
 6792SOL    HW226934   2.788   2.372   1.314  0.4787 -0.3650 -0.4682
 6792SOL    HW326935   2.760   2.235   1.372  1.0600 -0.0360  0.6182
 6792SOL    MW426936   2.800   2.286   1.313  0.5484 -0.3604 -0.0245
 6793SOL     OW26937   4.690   3.221   0.246  0.3139  0.0968  0.3197
 6793SOL    HW226938   4.675   3.190   0.157 -1.7162 -0.1808  0.7153
 6793SOL    HW326939   4.606   3.254   0.275  0.4670 -1.3313  2.7013
 6793SOL    MW426940   4.677   3.221   0.238  0.0663 -0.1282  0.6861
 6794SOL     OW26941   5.032   2.700   0.683 -0.4848 -0.2577 -0.4527
 6794SOL    HW226942   4.963   2.722   0.620 -0.5037  0.6256 -0.1263
 6794SOL    HW326943   5.105   2.755   0.658  0.4547 -1.8404 -1.3771
 6794SOL    MW426944   5.032   2.710   0.671 -0.3634 -0.3500 -0.5316
 6795SOL     OW26945   3.173   1.470   2.168  0.3946  0.2515  0.2220
 6795SOL    HW226946   3.199   1.400   2.227 -0.5403 -1.2482 -1.0608
 6795SOL    HW326947   3.077   1.469   2.170  0.3401  2.3668  1.1313
 6795SOL    MW426948   3.164   1.460   2.176  0.2641  0.3327  0.1728
 6796SOL     OW26949   4.501   6.168   6.392  0.0893 -0.2014  0.3123
 6796SOL    HW226950   4.588   6.208   6.390 -0.6956  1.5474 -0.3208
 6796SOL    HW326951   4.444   6.235   6.429 -0.8594 -1.6884  1.6990
 6796SOL    MW426952   4.505   6.182   6.397 -0.1394 -0.1668  0.4117
 6797SOL     OW26953   1.596   1.329   6.036  0.1951 -0.2439  0.0999
 6797SOL    HW226954   1.571   1.241   6.063 -2.5952  0.3798 -0.0343
 6797SOL    HW326955   1.562   1.385   6.107 -0.5032  0.8611 -1.0652
 6797SOL    MW426956   1.588   1.325   6.049 -0.2652 -0.0158 -0.0715
 6798SOL     OW26957   0.464   0.573   4.885 -0.0021 -0.0459 -0.4019
 6798SOL    HW226958   0.493   0.495   4.838 -0.8823 -0.9705  0.5443
 6798SOL    HW326959   0.502   0.646   4.835 -1.2771 -0.9289 -2.8470
 6798SOL    MW426960   0.473   0.573   4.872 -0.2864 -0.2844 -0.5997
 6799SOL     OW26961   3.816   3.607   5.183  0.3671 -0.1193 -0.0609
 6799SOL    HW226962   3.871   3.529   5.178  2.2013  1.1656 -2.8317
 6799SOL    HW326963   3.859   3.662   5.248  1.0273 -0.1302 -0.4671
 6799SOL    MW426964   3.829   3.604   5.191  0.6962  0.0488 -0.4801
 6800SOL     OW26965   5.186   4.949   2.038  0.3938 -0.2181 -0.0383
 6800SOL    HW226966   5.136   5.028   2.017  2.1236  0.5879 -1.3059
 6800SOL    HW326967   5.150   4.882   1.980  1.0141  0.4641 -1.2513
 6800SOL    MW426968   5.174   4.951   2.028  0.7039 -0.0218 -0.3656
 6801SOL     OW26969   1.988   5.459   0.118  0.5095  0.1370 -0.3411
 6801SOL    HW226970   1.973   5.480   0.210  1.3749  0.5991 -0.2960
 6801SOL    HW326971   2.073   5.415   0.117 -0.5680 -2.0565 -0.6327
 6801SOL    MW426972   1.997   5.456   0.130  0.4815 -0.0914 -0.3736
 6802SOL     OW26973   5.639   4.073   4.790  0.0804 -0.5008 -0.3648
 6802SOL    HW226974   5.604   4.107   4.872 -0.1165  0.1001 -0.6877
 6802SOL    HW326975   5.695   4.144   4.757  0.1381 -0.7260 -0.7617
 6802SOL    MW426976   5.642   4.087   4.796  0.0621 -0.4512 -0.4598
 6803SOL     OW26977   5.814   1.365   1.371 -0.5672  0.6590  0.4731
 6803SOL    HW226978   5.816   1.298   1.438  2.7879 -0.9444 -0.9702
 6803SOL    HW326979   5.764   1.327   1.299  2.5704 -1.2049 -0.9446
 6803SOL    MW426980   5.808   1.351   1.370  0.2895  0.2016  0.0956
 6804SOL     OW26981   2.543   2.723   6.406 -0.0605  0.1222 -0.2771
 6804SOL    HW226982   2.533   2.662   6.333 -1.7705 -0.9455  0.7676
 6804SOL    HW326983   2.454   2.735   6.440  0.9297 -2.3111  3.8772
 6804SOL    MW426984   2.530   2.717   6.401 -0.1555 -0.3397  0.4089
 6805SOL     OW26985   3.162   1.831   0.350 -1.0520  0.1068  0.2495
 6805SOL    HW226986   3.078   1.857   0.389 -2.2646  0.9927 -2.6852
 6805SOL    HW326987   3.146   1.743   0.317 -1.2774  0.7242 -1.3698
 6805SOL    MW426988   3.149   1.823   0.351 -1.2417  0.3051 -0.3513
 6806SOL     OW26989   4.279   4.729   1.631  0.6576 -0.0951  0.3724
 6806SOL    HW226990   4.361   4.760   1.668 -0.1351 -0.2507  2.3567
 6806SOL    HW326991   4.214   4.792   1.660 -0.0779 -0.4736 -0.3999
 6806SOL    MW426992   4.281   4.741   1.640  0.4560 -0.1655  0.5323
 6807SOL     OW26993   4.995   4.218   0.557  0.3946  0.3593 -0.2599
 6807SOL    HW226994   4.988   4.161   0.481 -0.4579  1.7191 -1.2418
 6807SOL    HW326995   5.053   4.289   0.529  1.6998 -0.1259  1.0444
 6807SOL    MW426996   5.002   4.220   0.543  0.4543  0.4747 -0.2174
 6808SOL     OW26997   0.492   3.781   5.255 -0.7202  0.8069  0.5735
 6808SOL    HW226998   0.530   3.718   5.194  0.3485  1.3465  0.6646
 6808SOL    HW326999   0.478   3.860   5.204 -0.7747  0.9355  0.7845
 6808SOL    MW427000   0.495   3.783   5.240 -0.5864  0.8951  0.6133
 6809SOL     OW27001   0.050   2.198   3.604  0.4883 -0.4194  0.2513
 6809SOL    HW227002   0.063   2.137   3.531 -0.4631  0.3596 -0.6089
 6809SOL    HW327003  -0.045   2.210   3.608  0.6866  2.3330 -0.7804
 6809SOL    MW427004   0.039   2.192   3.595  0.3889  0.0465  0.0017
 6810SOL     OW27005   4.974   1.669   3.505  0.0477  0.8150 -0.1190
 6810SOL    HW227006   5.048   1.697   3.558  1.2089 -0.2731 -1.0967
 6810SOL    HW327007   5.008   1.597   3.451 -2.6649 -2.5033  2.1498
 6810SOL    MW427008   4.988   1.663   3.505 -0.1569  0.2336  0.0513
 6811SOL     OW27009   2.160   4.068   5.725  0.0794  0.7367  0.0429
 6811SOL    HW227010   2.117   4.087   5.642  1.8874  0.3752 -1.0432
 6811SOL    HW327011   2.243   4.027   5.700 -0.3235 -1.5648  2.0931
 6811SOL    MW427012   2.166   4.065   5.711  0.2648  0.3854  0.1701
 6812SOL     OW27013   1.553   2.854   5.646 -0.6518  0.0523  0.6917
 6812SOL    HW227014   1.507   2.909   5.582 -0.1970  0.1681  0.4637
 6812SOL    HW327015   1.486   2.834   5.712 -0.6827  1.3283  1.0703
 6812SOL    MW427016   1.538   2.859   5.646 -0.5959  0.2359  0.7115
 6813SOL     OW27017   2.022   4.292   3.693 -0.4885 -0.0071 -0.0583
 6813SOL    HW227018   2.117   4.298   3.705 -0.5086 -0.0981  0.1688
 6813SOL    HW327019   1.998   4.210   3.736 -0.6588 -0.0281 -0.1932
 6813SOL    MW427020   2.032   4.282   3.701 -0.5136 -0.0219 -0.0461
 6814SOL     OW27021   4.428   3.948   1.017 -0.5631 -0.3052  0.3605
 6814SOL    HW227022   4.361   3.947   0.948  0.8736  1.2997 -1.1847
 6814SOL    HW327023   4.495   3.887   0.987 -0.1035  0.1125  0.5100
 6814SOL    MW427024   4.428   3.940   1.004 -0.3129 -0.0383  0.1764
 6815SOL     OW27025   2.658   6.267   4.641  0.3557 -0.2063 -0.4461
 6815SOL    HW227026   2.732   6.304   4.688  0.1743 -0.7179  0.2684
 6815SOL    HW327027   2.596   6.339   4.632  0.6124  0.0261 -0.3568
 6815SOL    MW427028   2.660   6.281   4.646  0.3656 -0.2432 -0.3400
 6816SOL     OW27029   5.641   5.469   0.644  0.1176  0.2728  0.4695
 6816SOL    HW227030   5.702   5.434   0.580  0.7313  0.3019  1.0221
 6816SOL    HW327031   5.658   5.418   0.723 -1.9333 -1.0914  0.1208
 6816SOL    MW427032   5.651   5.457   0.646 -0.0720  0.0966  0.4964
 6817SOL     OW27033   5.182   4.499   1.542 -0.4151  0.0334 -0.3709
 6817SOL    HW227034   5.172   4.461   1.455  0.0749 -0.8394 -0.0512
 6817SOL    HW327035   5.266   4.466   1.574 -0.7508  0.0593  0.5711
 6817SOL    MW427036   5.192   4.490   1.535 -0.3948 -0.0784 -0.2045
 6818SOL     OW27037   4.488   3.584   3.765  0.1345 -0.2191 -0.1268
 6818SOL    HW227038   4.567   3.578   3.819  0.0102  0.8225  0.2027
 6818SOL    HW327039   4.505   3.658   3.706 -1.1248  0.9360  0.8873
 6818SOL    MW427040   4.501   3.593   3.764 -0.0480  0.0707  0.0505
 6819SOL     OW27041   5.391   0.535   4.270  0.0354 -0.0123 -0.5926
 6819SOL    HW227042   5.325   0.486   4.320  0.3824 -0.3777 -0.4901
 6819SOL    HW327043   5.470   0.482   4.277  0.2361  0.2237 -1.0512
 6819SOL    MW427044   5.393   0.522   4.277  0.1077 -0.0293 -0.6396
 6820SOL     OW27045   3.224   2.003   3.089 -0.3689 -0.4870  0.0119
 6820SOL    HW227046   3.148   1.966   3.044 -1.9359  0.2693  1.8695
 6820SOL    HW327047   3.281   2.033   3.018 -1.7434 -1.1727 -1.4594
 6820SOL    MW427048   3.221   2.002   3.073 -0.7570 -0.4777  0.0629
 6821SOL     OW27049   4.648   0.043   0.747 -0.2057 -0.0399 -0.2812
 6821SOL    HW227050   4.608   0.115   0.795 -1.3599 -0.6629 -0.2730
 6821SOL    HW327051   4.665   0.079   0.660 -2.2437 -0.1703 -0.7941
 6821SOL    MW427052   4.645   0.057   0.742 -0.6269 -0.1393 -0.3478
 6822SOL     OW27053   2.744   5.560   2.962 -0.0913 -0.3586  0.2177
 6822SOL    HW227054   2.773   5.473   2.989 -0.1148 -0.3176  0.3778
 6822SOL    HW327055   2.797   5.620   3.015 -1.0127 -0.2874  1.0936
 6822SOL    MW427056   2.755   5.557   2.973 -0.2160 -0.3438  0.3544
 6823SOL     OW27057   2.119   4.054   2.613 -0.1457 -0.2312 -0.3813
 6823SOL    HW227058   2.033   4.081   2.645 -0.5716 -1.6378 -0.2705
 6823SOL    HW327059   2.123   3.960   2.633  1.4161 -0.1842 -0.3896
 6823SOL    MW427060   2.108   4.045   2.620  0.0041 -0.4106 -0.3678
 6824SOL     OW27061   1.996   5.677   1.220 -0.0501  0.6437 -0.0635
 6824SOL    HW227062   1.928   5.743   1.236  0.0526  0.6461  0.3931
 6824SOL    HW327063   2.061   5.693   1.289  0.8862  1.2632 -1.0644
 6824SOL    MW427064   1.996   5.688   1.232  0.0870  0.7257 -0.1353
 6825SOL     OW27065   6.099   6.324   4.362  0.3243  0.1232 -0.3042
 6825SOL    HW227066   6.019   6.377   4.362  0.5843  0.5275  0.2363
 6825SOL    HW327067   6.169   6.388   4.352  0.5956 -0.2047 -0.4925
 6825SOL    MW427068   6.097   6.339   4.361  0.3944  0.1333 -0.2577
 6826SOL     OW27069   6.053   0.747   5.059  0.1244  0.0335 -0.1927
 6826SOL    HW227070   5.995   0.713   4.990 -0.9001 -2.0314  1.5738
 6826SOL    HW327071   6.002   0.814   5.103 -0.4576 -0.8546  0.5167
 6826SOL    MW427072   6.039   0.751   5.056 -0.0875 -0.3561  0.1339
 6827SOL     OW27073   6.082   5.234   4.458  0.4797 -0.0008 -0.1272
 6827SOL    HW227074   6.058   5.251   4.367  0.0440 -0.1615 -0.0448
 6827SOL    HW327075   6.024   5.163   4.485  0.7343 -0.0785  0.2192
 6827SOL    MW427076   6.071   5.227   4.449  0.4558 -0.0322 -0.0707
 6828SOL     OW27077   3.698   4.826   4.139  1.1186 -0.2883  0.2295
 6828SOL    HW227078   3.666   4.915   4.142 -0.5865 -0.9029  2.3010
 6828SOL    HW327079   3.765   4.821   4.207  0.1537 -0.9051  1.1795
 6828SOL    MW427080   3.703   4.837   4.148  0.7664 -0.4508  0.6281
 6829SOL     OW27081   6.103   6.159   2.611  0.1685 -0.0632  0.6133
 6829SOL    HW227082   6.116   6.121   2.524  2.2006 -0.9610  1.2675
 6829SOL    HW327083   6.139   6.248   2.604 -1.7951  0.7353 -0.0581
 6829SOL    MW427084   6.109   6.166   2.598  0.1776 -0.0763  0.6110
 6830SOL     OW27085   6.088   1.072   4.283 -0.1716  0.1280  0.0362
 6830SOL    HW227086   6.073   1.054   4.191 -0.6134 -0.2266  0.1747
 6830SOL    HW327087   6.183   1.079   4.291 -0.1971  3.9256 -1.1249
 6830SOL    MW427088   6.099   1.071   4.272 -0.2333  0.5823 -0.0987
 6831SOL     OW27089   4.887   4.194   1.349 -0.0140 -0.0926 -0.3984
 6831SOL    HW227090   4.809   4.210   1.401 -0.6882  1.1930 -1.7281
 6831SOL    HW327091   4.929   4.120   1.391 -2.3288 -1.3005 -0.0426
 6831SOL    MW427092   4.882   4.186   1.361 -0.4084 -0.0823 -0.5269
 6832SOL     OW27093   1.585   3.745   3.777  0.4487  0.1881  0.0500
 6832SOL    HW227094   1.545   3.808   3.716  2.3565 -0.0691 -1.5557
 6832SOL    HW327095   1.560   3.777   3.864 -0.1156  2.1305 -0.7697
 6832SOL    MW427096   1.576   3.758   3.780  0.6259  0.4105 -0.2700
 6833SOL     OW27097   6.278   0.853   1.172 -0.1132  0.5812 -0.1083
 6833SOL    HW227098   6.231   0.919   1.222 -0.6119 -0.8529  1.4105
 6833SOL    HW327099   6.211   0.793   1.140  0.3106  0.8620 -1.6000
 6833SOL    MW427100   6.263   0.854   1.174 -0.1231  0.4290 -0.1047
 6834SOL     OW27101   0.011   5.268   1.993  0.3236 -0.2171  0.1070
 6834SOL    HW227102  -0.012   5.350   2.037 -1.1244  0.3668 -1.5821
 6834SOL    HW327103   0.060   5.296   1.916 -2.3612 -0.6207 -1.8986
 6834SOL    MW427104   0.014   5.283   1.988 -0.2217 -0.1933 -0.3805
 6835SOL     OW27105   0.253   2.090   2.431 -0.3230 -0.3529 -0.6040
 6835SOL    HW227106   0.283   2.143   2.505  0.1119 -1.7400  0.2515
 6835SOL    HW327107   0.334   2.064   2.386 -0.4202 -1.4207 -0.1908
 6835SOL    MW427108   0.268   2.093   2.435 -0.2784 -0.6768 -0.4366
 6836SOL     OW27109   2.266   1.764   6.056  0.3918  0.4029 -0.5148
 6836SOL    HW227110   2.287   1.733   5.968 -0.0635 -0.7723 -0.2302
 6836SOL    HW327111   2.198   1.830   6.043 -0.1044 -0.2042 -0.9979
 6836SOL    MW427112   2.260   1.769   6.043  0.2662  0.1677 -0.5410
 6837SOL     OW27113   5.219   6.322   3.197 -0.6050  0.1172 -0.4661
 6837SOL    HW227114   5.311   6.338   3.215 -0.6269 -1.4347  1.3786
 6837SOL    HW327115   5.175   6.346   3.279 -1.4655 -1.7707 -0.3154
 6837SOL    MW427116   5.225   6.327   3.210 -0.7214 -0.3367 -0.2029
 6838SOL     OW27117   6.039   4.801   2.284  0.0797  0.4243 -0.0734
 6838SOL    HW227118   6.101   4.851   2.337 -1.4727  1.3269  0.9935
 6838SOL    HW327119   6.003   4.736   2.344  1.7077 -1.7269 -1.3232
 6838SOL    MW427120   6.043   4.799   2.299  0.0896  0.2595 -0.0975
 6839SOL     OW27121   0.423   5.657   5.537  0.1839  0.0969 -0.0862
 6839SOL    HW227122   0.380   5.743   5.534 -0.6323 -0.3132 -1.2748
 6839SOL    HW327123   0.360   5.598   5.493  1.3448 -0.8077 -0.5783
 6839SOL    MW427124   0.409   5.661   5.531  0.2294 -0.0766 -0.3080
 6840SOL     OW27125   1.828   4.777   4.969 -0.4903 -0.6571  0.0217
 6840SOL    HW227126   1.884   4.731   5.031 -2.2843  1.0034  3.1449
 6840SOL    HW327127   1.778   4.708   4.926  1.0132 -1.8961  0.1676
 6840SOL    MW427128   1.829   4.762   4.972 -0.5286 -0.6015  0.4530
 6841SOL     OW27129   2.537   2.402   6.348 -0.1120 -0.6716  0.1272
 6841SOL    HW227130   2.518   2.393   6.441 -0.3988 -0.2843  0.1107
 6841SOL    HW327131   2.464   2.357   6.305 -1.2099  1.0752  0.0569
 6841SOL    MW427132   2.525   2.395   6.355 -0.2947 -0.3900  0.1157
 6842SOL     OW27133   2.836   4.226   1.258  0.3296 -0.1700 -0.1019
 6842SOL    HW227134   2.815   4.145   1.305 -0.1050 -0.5766 -0.9590
 6842SOL    HW327135   2.812   4.296   1.318 -1.2563 -0.6545 -0.1143
 6842SOL    MW427136   2.830   4.224   1.272  0.0630 -0.2876 -0.2166
 6843SOL     OW27137   4.940   3.533   1.666 -0.0724  0.1509 -0.0584
 6843SOL    HW227138   4.859   3.560   1.710 -0.5922 -1.2620 -0.0706
 6843SOL    HW327139   4.978   3.468   1.725 -0.5085 -1.3920 -1.3796
 6843SOL    MW427140   4.934   3.528   1.680 -0.1985 -0.2391 -0.2343
 6844SOL     OW27141   3.334   4.689   2.774 -0.3833  0.3325 -0.4976
 6844SOL    HW227142   3.240   4.703   2.779 -0.5000 -0.2226 -1.0059
 6844SOL    HW327143   3.373   4.770   2.807 -1.0342  0.2780  0.4319
 6844SOL    MW427144   3.327   4.701   2.779 -0.4846  0.2520 -0.4420
 6845SOL     OW27145   5.845   2.120   5.653  0.2788  0.0442  0.0339
 6845SOL    HW227146   5.862   2.061   5.580  0.1992  1.1865 -0.9265
 6845SOL    HW327147   5.918   2.181   5.653  0.0651  0.3194  0.6531
 6845SOL    MW427148   5.857   2.120   5.644  0.2401  0.2312 -0.0111
 6846SOL     OW27149   2.530   2.772   2.206  0.0012 -0.0143  0.0225
 6846SOL    HW227150   2.524   2.782   2.111  0.6070  1.2142  0.0896
 6846SOL    HW327151   2.464   2.832   2.241  1.0776  0.9839  0.3986
 6846SOL    MW427152   2.520   2.781   2.198  0.2231  0.2794  0.0810
 6847SOL     OW27153   2.333   1.250   4.136 -0.2762 -0.3520  0.2754
 6847SOL    HW227154   2.381   1.294   4.066 -3.1081  1.7379 -0.5277
 6847SOL    HW327155   2.400   1.231   4.202  2.4633 -2.1935 -2.7599
 6847SOL    MW427156   2.349   1.253   4.136 -0.2884 -0.3193 -0.2310
 6848SOL     OW27157   6.405   3.088   1.935  0.1661 -0.4435 -0.1904
 6848SOL    HW227158   6.411   3.103   1.841  0.1254 -1.8399 -0.4313
 6848SOL    HW327159   6.312   3.097   1.956  0.5074  3.1959  0.3549
 6848SOL    MW427160   6.394   3.091   1.925  0.2058 -0.1476 -0.1502
 6849SOL     OW27161   5.067   3.641   6.401  0.5947 -0.4592 -0.0624
 6849SOL    HW227162   5.099   3.638   6.311 -2.1049  1.6197 -1.2105
 6849SOL    HW327163   4.972   3.640   6.393  0.2673 -0.5064  2.8151
 6849SOL    MW427164   5.059   3.640   6.388  0.1954 -0.1911  0.1658
 6850SOL     OW27165   4.185   2.558   6.295  0.5069  0.2947  0.4626
 6850SOL    HW227166   4.097   2.556   6.333  1.1170  1.7928  2.0926
 6850SOL    HW327167   4.201   2.651   6.278  1.6612  0.0039 -0.1141
 6850SOL    MW427168   4.175   2.570   6.297  0.7397  0.4540  0.6016
 6851SOL     OW27169   4.467   1.102   4.697  0.0040 -0.8701 -0.1226
 6851SOL    HW227170   4.373   1.092   4.707  0.0421 -0.6403  0.5350
 6851SOL    HW327171   4.482   1.196   4.708  0.4666 -1.0882  1.2861
 6851SOL    MW427172   4.457   1.113   4.699  0.0701 -0.8685  0.1500
 6852SOL     OW27173   2.323   5.361   5.566 -0.5219  0.0848 -0.1927
 6852SOL    HW227174   2.328   5.454   5.542 -1.2591 -0.1281 -1.2487
 6852SOL    HW327175   2.249   5.328   5.516 -0.8700 -0.8700  0.9024
 6852SOL    MW427176   2.314   5.369   5.556 -0.6651 -0.0693 -0.1876
 6853SOL     OW27177   1.496   3.925   2.123 -0.0386  0.3907 -0.1465
 6853SOL    HW227178   1.521   3.858   2.186 -0.2456  0.2013 -0.2667
 6853SOL    HW327179   1.459   3.996   2.177  1.5783  1.0778  0.1302
 6853SOL    MW427180   1.494   3.926   2.139  0.1474  0.4563 -0.1259
 6854SOL     OW27181   5.900   5.100   2.621  0.7005 -0.0763 -0.0404
 6854SOL    HW227182   5.822   5.118   2.569  0.8257  0.9960  0.1202
 6854SOL    HW327183   5.870   5.041   2.690  0.3748 -0.8981 -0.8763
 6854SOL    MW427184   5.886   5.095   2.623  0.6741 -0.0432 -0.1295
 6855SOL     OW27185   3.138   4.456   4.238  0.7264 -0.4730  0.1903
 6855SOL    HW227186   3.169   4.367   4.220  1.6744 -0.4174  1.3793
 6855SOL    HW327187   3.055   4.444   4.284  1.1614 -0.7880  0.9185
 6855SOL    MW427188   3.131   4.442   4.242  0.9089 -0.5072  0.4433
 6856SOL     OW27189   2.587   2.192   1.469  0.3115  0.6890 -0.7806
 6856SOL    HW227190   2.532   2.252   1.520 -1.8223 -2.5019  1.0015
 6856SOL    HW327191   2.645   2.151   1.534  0.6301 -0.3003 -1.6626
 6856SOL    MW427192   2.588   2.195   1.485  0.0720  0.1375 -0.6619
 6857SOL     OW27193   1.196   2.370   3.897 -0.5502 -0.0559 -0.6794
 6857SOL    HW227194   1.286   2.401   3.909 -0.6639  0.1199 -0.2521
 6857SOL    HW327195   1.200   2.277   3.919 -1.2014  0.6810  3.3547
 6857SOL    MW427196   1.208   2.362   3.901 -0.6511  0.0645 -0.0908
 6858SOL     OW27197   5.636   0.909   0.866  0.4435 -0.2308 -0.0307
 6858SOL    HW227198   5.706   0.973   0.853  1.1213 -1.1138 -0.7932
 6858SOL    HW327199   5.621   0.909   0.961 -2.1877  3.7867 -0.2101
 6858SOL    MW427200   5.643   0.918   0.877  0.1858  0.1827 -0.1550
 6859SOL     OW27201   2.997   0.202   3.730  0.2294 -0.3139  0.2399
 6859SOL    HW227202   3.002   0.288   3.771  2.8577  1.6525 -3.5253
 6859SOL    HW327203   3.088   0.176   3.718 -0.4903 -3.0860  0.1059
 6859SOL    MW427204   3.010   0.210   3.734  0.4812 -0.4202 -0.2745
 6860SOL     OW27205   4.007   4.143   3.274  0.2023  0.3141  0.6655
 6860SOL    HW227206   3.940   4.081   3.305  0.2904 -0.1915 -0.1162
 6860SOL    HW327207   3.991   4.223   3.325 -1.8070  0.6344 -0.3723
 6860SOL    MW427208   3.996   4.145   3.285 -0.0512  0.2897  0.4254
 6861SOL     OW27209   6.143   3.417   1.252  0.0002  0.6154  0.4754
 6861SOL    HW227210   6.213   3.365   1.213  0.8976  2.5702 -0.6472
 6861SOL    HW327211   6.067   3.400   1.197  0.6704  1.6028 -0.7955
 6861SOL    MW427212   6.143   3.408   1.240  0.2070  1.0036  0.1596
 6862SOL     OW27213   3.822   2.430   3.057 -0.3583 -0.0930  0.2590
 6862SOL    HW227214   3.912   2.440   3.025 -0.3261  0.4436  0.5088
 6862SOL    HW327215   3.824   2.351   3.110 -0.1011 -0.2492  0.0182
 6862SOL    MW427216   3.834   2.421   3.059 -0.3201 -0.0428  0.2602
 6863SOL     OW27217   5.111   1.225   4.585  0.4805  0.3663  0.2165
 6863SOL    HW227218   5.142   1.228   4.495 -0.0064  1.8179  0.0775
 6863SOL    HW327219   5.090   1.315   4.606  0.5921  0.0515  1.7972
 6863SOL    MW427220   5.112   1.237   4.576  0.4310  0.5163  0.4067
 6864SOL     OW27221   3.951   4.913   5.120  0.1704  0.3078 -0.3738
 6864SOL    HW227222   3.919   5.002   5.131 -1.1685 -0.3364  1.6331
 6864SOL    HW327223   3.878   4.865   5.080  1.0269  0.1710 -1.8280
 6864SOL    MW427224   3.937   4.918   5.116  0.1067  0.2048 -0.3009
 6865SOL     OW27225   0.748   3.125   0.329 -0.5914 -0.3893  0.1551
 6865SOL    HW227226   0.662   3.131   0.370 -0.8241 -2.4492  0.1027
 6865SOL    HW327227   0.798   3.067   0.388 -0.2667 -1.7154 -1.3433
 6865SOL    MW427228   0.743   3.118   0.342 -0.5792 -0.8360 -0.0495
 6866SOL     OW27229   0.622   4.507   5.811 -0.0479  0.0852  0.4314
 6866SOL    HW227230   0.591   4.420   5.785 -0.1495 -0.2965  1.7498
 6866SOL    HW327231   0.545   4.563   5.802 -0.0462 -0.0131 -0.1941
 6866SOL    MW427232   0.607   4.503   5.807 -0.0611  0.0219  0.5228
 6867SOL     OW27233   2.751   5.819   1.991  0.5192 -0.4056  0.3485
 6867SOL    HW227234   2.695   5.796   1.918  0.0401 -0.7834  0.8286
 6867SOL    HW327235   2.692   5.852   2.059  0.7074 -1.9558  1.3209
 6867SOL    MW427236   2.736   5.820   1.990  0.4808 -0.6600  0.5401
 6868SOL     OW27237   5.127   5.243   0.067  0.3202  0.4300  0.9123
 6868SOL    HW227238   5.111   5.152   0.093 -0.2804 -0.2111 -1.4572
 6868SOL    HW327239   5.070   5.257  -0.008 -0.7404  3.3141  2.1082
 6868SOL    MW427240   5.118   5.233   0.061  0.1011  0.7259  0.7574
 6869SOL     OW27241   3.156   0.970   2.705 -0.2148 -0.1086 -0.8647
 6869SOL    HW227242   3.213   0.929   2.770 -0.3823  0.5763 -0.2779
 6869SOL    HW327243   3.117   1.044   2.750  0.1074  0.7265 -1.9146
 6869SOL    MW427244   3.158   0.974   2.719 -0.1944  0.0920 -0.9258
 6870SOL     OW27245   0.292   2.195   2.966  0.3445  0.5332 -0.1168
 6870SOL    HW227246   0.232   2.151   3.025  1.5993 -0.3907  0.5127
 6870SOL    HW327247   0.292   2.286   2.995  0.2921  0.2601  0.7588
 6870SOL    MW427248   0.284   2.201   2.978  0.5031  0.3752  0.0818
 6871SOL     OW27249   3.243   2.736   0.855 -0.2071  0.2066  0.2640
 6871SOL    HW227250   3.288   2.721   0.772  1.2742  0.1684  1.0529
 6871SOL    HW327251   3.313   2.740   0.920 -1.3366  0.3332  1.5043
 6871SOL    MW427252   3.258   2.735   0.853 -0.1606  0.2183  0.5317
 6872SOL     OW27253   0.038   2.572   1.815 -0.1317  0.2195 -0.1963
 6872SOL    HW227254   0.125   2.552   1.850 -0.1469  0.6531  0.0964
 6872SOL    HW327255  -0.020   2.509   1.857 -0.0306  0.2365 -0.0299
 6872SOL    MW427256   0.042   2.561   1.825 -0.1203  0.2789 -0.1357
 6873SOL     OW27257   5.796   3.192   1.145 -0.2314  0.1522 -0.2186
 6873SOL    HW227258   5.848   3.132   1.091 -0.0201 -0.7067  0.8943
 6873SOL    HW327259   5.835   3.278   1.129 -1.5028  0.3292 -3.0428
 6873SOL    MW427260   5.808   3.195   1.136 -0.3713  0.0622 -0.4444
 6874SOL     OW27261   0.878   5.889   4.932  0.3076  0.3830  1.0051
 6874SOL    HW227262   0.904   5.875   4.841 -0.0911  1.3025  0.7409
 6874SOL    HW327263   0.947   5.847   4.983  0.7053  0.1376  0.2827
 6874SOL    MW427264   0.890   5.882   4.927  0.3075  0.4719  0.8749
 6875SOL     OW27265   2.523   2.635   5.892 -0.0964  0.2341 -0.0404
 6875SOL    HW227266   2.430   2.646   5.876  0.1257  1.6364 -0.5032
 6875SOL    HW327267   2.565   2.673   5.814  0.8631  0.1094  0.4071
 6875SOL    MW427268   2.516   2.642   5.879  0.0595  0.4027 -0.0424
 6876SOL     OW27269   5.669   0.980   0.351 -0.2367 -0.3969  0.1633
 6876SOL    HW227270   5.674   0.960   0.257 -1.6767  1.8583 -0.4911
 6876SOL    HW327271   5.620   0.907   0.389 -2.7067  0.2520 -1.5146
 6876SOL    MW427272   5.663   0.968   0.343 -0.7526 -0.0137 -0.1444
 6877SOL     OW27273   1.207   4.794   3.892  0.1401  0.2934  0.2458
 6877SOL    HW227274   1.130   4.751   3.927 -0.7203  1.8043  0.3164
 6877SOL    HW327275   1.254   4.826   3.970 -0.0305  0.7839  0.1519
 6877SOL    MW427276   1.203   4.793   3.907  0.0040  0.5575  0.2428
 6878SOL     OW27277   2.931   3.765   1.603 -0.2190 -0.3571  0.2007
 6878SOL    HW227278   2.846   3.738   1.568  0.3033 -0.8242 -0.7298
 6878SOL    HW327279   2.992   3.752   1.531  0.8582 -1.1045  1.2095
 6878SOL    MW427280   2.928   3.760   1.589 -0.0080 -0.5173  0.2110
 6879SOL     OW27281   4.428   2.369   0.337 -0.0815  0.1767 -0.5461
 6879SOL    HW227282   4.447   2.403   0.250  1.1704 -0.2314 -0.4485
 6879SOL    HW327283   4.447   2.442   0.396 -0.9585  0.4626 -0.6053
 6879SOL    MW427284   4.433   2.383   0.333 -0.0321  0.1605 -0.5411
 6880SOL     OW27285   0.370   3.144   2.448  0.0253  0.3252  0.1652
 6880SOL    HW227286   0.303   3.121   2.383 -2.2219  1.8206  1.7969
 6880SOL    HW327287   0.383   3.238   2.436 -0.5233  0.6515  1.8774
 6880SOL    MW427288   0.363   3.153   2.438 -0.3436  0.5656  0.6064
 6881SOL     OW27289   6.106   5.909   2.100 -0.0295 -0.0977  0.1083
 6881SOL    HW227290   6.020   5.943   2.075 -0.3311 -0.0854  1.1059
 6881SOL    HW327291   6.088   5.829   2.149  0.3820  0.9560  2.0778
 6881SOL    MW427292   6.093   5.903   2.103 -0.0150  0.0429  0.4998
 6882SOL     OW27293   3.149   1.720   4.904  0.1292 -0.1855 -0.0566
 6882SOL    HW227294   3.137   1.719   4.999  0.7620  1.6160  0.0780
 6882SOL    HW327295   3.068   1.759   4.870  0.0969 -0.3923 -0.2156
 6882SOL    MW427296   3.136   1.725   4.912  0.2084  0.0249 -0.0599
 6883SOL     OW27297   0.853   2.681   4.692  0.1881  0.0918  0.4039
 6883SOL    HW227298   0.874   2.623   4.618  0.4670  0.2168  0.3826
 6883SOL    HW327299   0.835   2.766   4.651  1.2926  0.4110  0.5417
 6883SOL    MW427300   0.853   2.685   4.677  0.3706  0.1504  0.4193
 6884SOL     OW27301   2.684   5.816   2.365  0.0447  0.1190  0.0575
 6884SOL    HW227302   2.689   5.728   2.403  3.3388 -0.5302 -1.4465
 6884SOL    HW327303   2.674   5.874   2.440  0.1193 -1.4296  1.3232
 6884SOL    MW427304   2.683   5.812   2.380  0.4892 -0.1709  0.0261
 6885SOL     OW27305   6.236   6.018   3.871  0.0834 -0.8337 -0.2006
 6885SOL    HW227306   6.218   6.050   3.960  1.3564  0.4675 -0.3786
 6885SOL    HW327307   6.149   6.009   3.831 -0.4497 -0.1932  0.7614
 6885SOL    MW427308   6.222   6.021   3.878  0.1810 -0.5775 -0.0972
 6886SOL     OW27309   6.262   1.497   6.082 -0.2670 -0.0613 -0.7041
 6886SOL    HW227310   6.343   1.453   6.108  0.5456  1.2120 -1.0093
 6886SOL    HW327311   6.290   1.563   6.018 -1.7248 -0.5163 -1.8671
 6886SOL    MW427312   6.277   1.500   6.077 -0.3521  0.0466 -0.8978
 6887SOL     OW27313   6.418   0.029   0.349  0.6364  0.1362 -0.6748
 6887SOL    HW227314   6.361   0.091   0.394  0.4410  0.6800 -1.6556
 6887SOL    HW327315   6.384  -0.057   0.373  0.6173  0.4103  0.3160
 6887SOL    MW427316   6.406   0.026   0.358  0.6081  0.2441 -0.6735
 6888SOL     OW27317   1.891   2.199   4.970 -0.6062 -0.7110  0.3924
 6888SOL    HW227318   1.948   2.218   5.045  0.0239  2.3479 -0.6956
 6888SOL    HW327319   1.948   2.155   4.907 -0.3634 -0.7166  0.6125
 6888SOL    MW427320   1.906   2.196   4.972 -0.4910 -0.3082  0.2779
 6889SOL     OW27321   1.434   1.723   4.050 -0.3389 -0.0904 -0.1410
 6889SOL    HW227322   1.429   1.672   4.131 -0.3662 -0.8274 -0.6061
 6889SOL    HW327323   1.344   1.747   4.031 -0.3875 -0.3325 -0.2174
 6889SOL    MW427324   1.422   1.720   4.058 -0.3489 -0.2196 -0.2124
 6890SOL     OW27325   3.476   1.310   5.649  0.4709 -0.1308  0.1877
 6890SOL    HW227326   3.539   1.369   5.691 -0.2911  0.1831  0.9205
 6890SOL    HW327327   3.517   1.224   5.654  0.8213  0.0607  0.7265
 6890SOL    MW427328   3.489   1.306   5.656  0.4166 -0.0641  0.3555
 6891SOL     OW27329   6.307   0.604   3.336  0.4246  0.0141 -0.5916
 6891SOL    HW227330   6.366   0.614   3.261  0.5495  2.0563 -0.2855
 6891SOL    HW327331   6.286   0.694   3.361 -2.5282 -0.6257 -0.4283
 6891SOL    MW427332   6.312   0.617   3.329  0.0515  0.1991 -0.5296
 6892SOL     OW27333   3.494   1.005   2.607  0.1005  0.0909  0.7190
 6892SOL    HW227334   3.569   0.979   2.555 -1.2515 -1.1027 -0.7568
 6892SOL    HW327335   3.499   0.952   2.687  0.6372 -0.2234  0.4748
 6892SOL    MW427336   3.504   0.995   2.611 -0.0071 -0.1080  0.4920
 6893SOL     OW27337   2.563   6.430   1.529 -0.2404  0.3248  0.3595
 6893SOL    HW227338   2.592   6.342   1.554 -2.0607  0.0152  1.5618
 6893SOL    HW327339   2.636   6.487   1.555  0.8568 -0.7791 -0.1946
 6893SOL    MW427340   2.576   6.426   1.536 -0.3358  0.1383  0.4450
 6894SOL     OW27341   4.134   6.011   1.919 -0.1297 -0.6456  0.6105
 6894SOL    HW227342   4.111   6.084   1.976 -0.2351 -0.5397  0.4336
 6894SOL    HW327343   4.226   6.027   1.896 -1.0735  1.4036 -2.2975
 6894SOL    MW427344   4.143   6.023   1.924 -0.2681 -0.3613  0.2035
 6895SOL     OW27345   2.015   1.487   3.693 -0.6848 -0.3429 -0.1010
 6895SOL    HW227346   1.961   1.429   3.639 -1.4972  0.3468 -0.0503
 6895SOL    HW327347   2.100   1.444   3.696 -1.9581 -2.9954  2.2702
 6895SOL    MW427348   2.019   1.474   3.686 -0.9600 -0.6019  0.2185
 6896SOL     OW27349   1.972   1.876   0.253  0.0546 -0.0791 -0.1891
 6896SOL    HW227350   2.021   1.856   0.333  0.2721 -2.1996 -0.7688
 6896SOL    HW327351   2.026   1.838   0.183 -0.1074  1.7764 -1.3663
 6896SOL    MW427352   1.986   1.868   0.254  0.0620 -0.1140 -0.4209
 6897SOL     OW27353   3.008   5.411   0.962  0.3904  0.2087  0.0685
 6897SOL    HW227354   2.982   5.382   0.875 -2.5701 -0.0757  0.9580
 6897SOL    HW327355   3.104   5.415   0.958  0.3332  1.2272 -3.4794
 6897SOL    MW427356   3.017   5.408   0.950 -0.0078  0.3056 -0.2823
 6898SOL     OW27357   5.396   0.332   6.100 -0.3563 -0.0208  0.5962
 6898SOL    HW227358   5.488   0.327   6.073 -0.2871 -0.1160  0.8439
 6898SOL    HW327359   5.351   0.274   6.038 -0.1456 -0.5263  0.9056
 6898SOL    MW427360   5.402   0.324   6.088 -0.3194 -0.1001  0.6697
 6899SOL     OW27361   2.522   2.890   5.386 -0.1300 -0.0014  1.0871
 6899SOL    HW227362   2.607   2.890   5.431 -0.1565 -0.8926  1.1455
 6899SOL    HW327363   2.458   2.900   5.457 -0.0550  1.7739  0.9560
 6899SOL    MW427364   2.525   2.891   5.402 -0.1236  0.1153  1.0775
 6900SOL     OW27365   5.009   5.804   4.132  0.6000 -0.1698  0.0312
 6900SOL    HW227366   5.056   5.861   4.193 -0.2389  1.4170 -0.7280
 6900SOL    HW327367   5.010   5.853   4.049 -3.2994  0.5552  0.2362
 6900SOL    MW427368   5.015   5.818   4.129 -0.0251  0.1352 -0.0419
 6901SOL     OW27369   6.273   3.704   2.520 -0.5248 -0.5765  0.7264
 6901SOL    HW227370   6.234   3.791   2.529  0.0070 -0.1871 -0.5251
 6901SOL    HW327371   6.219   3.648   2.575 -1.3706  0.3949  0.9176
 6901SOL    MW427372   6.261   3.708   2.529 -0.5662 -0.3970  0.5865
 6902SOL     OW27373   1.379   1.902   3.287  0.0308  0.2397  0.4417
 6902SOL    HW227374   1.406   1.905   3.195  1.0372 -1.2269  0.6636
 6902SOL    HW327375   1.306   1.964   3.292 -0.8737 -0.5760 -1.6203
 6902SOL    MW427376   1.373   1.911   3.275  0.0443 -0.0614  0.1989
 6903SOL     OW27377   5.759   0.234   3.886  0.2564  0.1654  0.3520
 6903SOL    HW227378   5.743   0.140   3.894 -0.2999  0.1683 -0.6083
 6903SOL    HW327379   5.769   0.249   3.792  1.3437  0.9145  0.5538
 6903SOL    MW427380   5.758   0.224   3.875  0.3265  0.2646  0.2519
 6904SOL     OW27381   4.896   5.107   6.034 -0.3557 -0.3555  0.0904
 6904SOL    HW227382   4.809   5.070   6.045  0.4952 -2.3559  0.5925
 6904SOL    HW327383   4.927   5.069   5.951  1.4717 -2.9218  1.7970
 6904SOL    MW427384   4.889   5.097   6.024 -0.0023 -0.9581  0.3818
 6905SOL     OW27385   3.725   5.624   3.105  0.6879  0.9755  0.2267
 6905SOL    HW227386   3.769   5.707   3.086 -0.2610  1.2809 -0.6789
 6905SOL    HW327387   3.772   5.559   3.053  0.1391  1.2928 -0.6912
 6905SOL    MW427388   3.737   5.626   3.096  0.4903  1.0577 -0.0139
 6906SOL     OW27389   5.191   5.310   5.651 -0.0946  0.1781  0.4922
 6906SOL    HW227390   5.098   5.295   5.637 -0.5912  0.7043  2.7516
 6906SOL    HW327391   5.206   5.399   5.619 -0.1139 -0.2397 -0.7458
 6906SOL    MW427392   5.181   5.320   5.645 -0.1627  0.1924  0.6270
 6907SOL     OW27393   0.729   4.082   5.298  0.6944 -0.0611 -0.5742
 6907SOL    HW227394   0.816   4.054   5.327  1.7637  1.1359 -2.4364
 6907SOL    HW327395   0.687   4.002   5.268 -0.0424 -1.1739  2.9202
 6907SOL    MW427396   0.735   4.068   5.298  0.7383 -0.0500 -0.3589
 6908SOL     OW27397   1.850   2.938   3.637 -0.2434 -0.4484 -0.2927
 6908SOL    HW227398   1.906   2.956   3.561 -1.4335  0.2680 -1.0381
 6908SOL    HW327399   1.762   2.929   3.600 -0.8205 -0.2830  0.9874
 6908SOL    MW427400   1.846   2.939   3.622 -0.4765 -0.3321 -0.2222
 6909SOL     OW27401   5.796   4.192   0.733 -0.3013 -0.2371  0.0447
 6909SOL    HW227402   5.750   4.181   0.649 -0.5732 -0.6144  0.2423
 6909SOL    HW327403   5.730   4.232   0.790  0.5311  2.1788 -0.5455
 6909SOL    MW427404   5.781   4.196   0.729 -0.2274  0.0319 -0.0071
 6910SOL     OW27405   4.731   2.005   4.678 -1.3525  0.3702 -0.3462
 6910SOL    HW227406   4.797   2.024   4.745 -0.7613 -0.2165 -0.7496
 6910SOL    HW327407   4.758   2.056   4.602 -0.6159 -0.8457 -0.9345
 6910SOL    MW427408   4.743   2.014   4.677 -1.1773  0.1324 -0.4771
 6911SOL     OW27409   4.945   1.275   6.099  0.5644  1.0384  1.0604
 6911SOL    HW227410   4.935   1.371   6.101  2.8191  1.3701  0.0243
 6911SOL    HW327411   4.889   1.247   6.026  1.2603  1.8191  0.1976
 6911SOL    MW427412   4.936   1.284   6.090  0.9537  1.1852  0.8099
 6912SOL     OW27413   2.534   2.002   3.164  0.3896 -0.1883  0.4641
 6912SOL    HW227414   2.507   2.087   3.200 -1.3093  0.1423 -1.4277
 6912SOL    HW327415   2.559   1.951   3.241 -0.0240  1.5084  1.8023
 6912SOL    MW427416   2.534   2.007   3.179  0.1109  0.0792  0.3911
 6913SOL     OW27417   1.171   1.829   4.150  0.0011  0.5142  0.1663
 6913SOL    HW227418   1.099   1.893   4.147 -1.0206 -0.5611  0.9965
 6913SOL    HW327419   1.161   1.786   4.234  0.6494 -0.7923 -0.4041
 6913SOL    MW427420   1.160   1.832   4.160 -0.0482  0.1999  0.2006
 6914SOL     OW27421   0.706   3.526   1.029 -0.3372  0.7258 -0.7733
 6914SOL    HW227422   0.733   3.602   1.081  0.3875 -0.2875  0.3900
 6914SOL    HW327423   0.611   3.537   1.019 -0.9750 -0.1185  2.7810
 6914SOL    MW427424   0.697   3.537   1.035 -0.3257  0.4807 -0.1509
 6915SOL     OW27425   1.716   0.988   6.374 -0.7046 -0.0640 -0.1062
 6915SOL    HW227426   1.674   1.074   6.370  1.4739  1.3398  3.0329
 6915SOL    HW327427   1.742   0.970   6.284 -1.8667  2.2216 -0.9741
 6915SOL    MW427428   1.714   0.997   6.362 -0.5705  0.4228  0.1935
 6916SOL     OW27429   5.177   2.608   4.820 -0.0287  0.1045 -0.3830
 6916SOL    HW227430   5.167   2.698   4.792  2.8761  1.3554  1.9887
 6916SOL    HW327431   5.249   2.574   4.767  0.6639  0.1074  0.5324
 6916SOL    MW427432   5.185   2.615   4.810  0.4459  0.2699  0.0507
 6917SOL     OW27433   1.726   3.660   1.982  1.0245 -0.2597 -0.3698
 6917SOL    HW227434   1.765   3.746   1.965 -0.4003  0.2703 -1.0440
 6917SOL    HW327435   1.680   3.671   2.065  1.4898 -0.6003 -0.0661
 6917SOL    MW427436   1.725   3.673   1.991  0.8979 -0.2347 -0.4187
 6918SOL     OW27437   4.630   2.406   4.529 -0.0319 -0.2808  0.0853
 6918SOL    HW227438   4.647   2.499   4.542 -1.6687  0.5968 -3.1138
 6918SOL    HW327439   4.713   2.371   4.497  0.3891  0.2033  0.6217
 6918SOL    MW427440   4.643   2.414   4.527 -0.1923 -0.1012 -0.2660
 6919SOL     OW27441   4.975   4.538   5.571  0.2573  0.0260 -0.1584
 6919SOL    HW227442   4.974   4.472   5.641 -1.6643 -0.2061 -0.3436
 6919SOL    HW327443   5.068   4.554   5.555  0.8582 -3.0042 -0.4191
 6919SOL    MW427444   4.987   4.531   5.578  0.0831 -0.4044 -0.2172
 6920SOL     OW27445   0.507   5.074   3.749  0.2209  0.0035 -0.0054
 6920SOL    HW227446   0.546   5.120   3.823 -1.9856  1.6050  0.2658
 6920SOL    HW327447   0.482   5.143   3.688  0.1185 -1.1362 -1.3167
 6920SOL    MW427448   0.509   5.089   3.751 -0.0837  0.0644 -0.1426
 6921SOL     OW27449   3.113   5.285   2.354 -0.6713 -0.2514  0.0066
 6921SOL    HW227450   3.106   5.191   2.334  1.3999 -1.3401  3.4708
 6921SOL    HW327451   3.026   5.309   2.386 -0.8653 -1.3648  0.3629
 6921SOL    MW427452   3.101   5.276   2.356 -0.4236 -0.5420  0.5107
 6922SOL     OW27453   2.772   4.844   1.112 -0.2234 -0.0646 -0.0642
 6922SOL    HW227454   2.778   4.854   1.207  1.1035  0.9966 -0.2244
 6922SOL    HW327455   2.843   4.785   1.090  1.1276  1.6982 -0.6269
 6922SOL    MW427456   2.782   4.838   1.122  0.1299  0.3080 -0.1596
 6923SOL     OW27457   0.484   4.635   1.789 -0.0691 -0.2632  0.1233
 6923SOL    HW227458   0.465   4.676   1.704  0.2750  0.8919  0.5760
 6923SOL    HW327459   0.554   4.573   1.770 -0.5225 -0.5765 -0.5744
 6923SOL    MW427460   0.490   4.632   1.775 -0.0835 -0.1521  0.0910
 6924SOL     OW27461   5.392   2.985   5.974  0.1528  0.2020  0.6043
 6924SOL    HW227462   5.449   2.976   6.050  0.4217 -0.0206  0.3792
 6924SOL    HW327463   5.446   3.028   5.907  0.3461 -0.7941  0.0971
 6924SOL    MW427464   5.407   2.989   5.975  0.2137  0.0412  0.5077
 6925SOL     OW27465   2.714   0.629   2.039 -0.1198  0.3235 -0.2831
 6925SOL    HW227466   2.628   0.632   2.081 -0.6309  0.0026 -1.2639
 6925SOL    HW327467   2.760   0.706   2.073 -0.6891  0.3514  0.4583
 6925SOL    MW427468   2.709   0.639   2.049 -0.2623  0.2848 -0.3147
 6926SOL     OW27469   1.883   2.317   4.536  0.0522 -0.1298  0.2991
 6926SOL    HW227470   1.851   2.246   4.592 -1.6709  0.9849  0.8043
 6926SOL    HW327471   1.976   2.297   4.523 -0.2190 -2.0873  0.9815
 6926SOL    MW427472   1.891   2.305   4.542 -0.2109 -0.2410  0.4558
 6927SOL     OW27473   4.553   6.214   2.512  0.6191 -0.0884 -0.1822
 6927SOL    HW227474   4.580   6.305   2.497 -1.4745  0.3976 -1.3645
 6927SOL    HW327475   4.522   6.184   2.427  0.6876 -1.7285  0.3376
 6927SOL    MW427476   4.553   6.222   2.499  0.3519 -0.2407 -0.2696
 6928SOL     OW27477   1.474   1.190   2.145  0.0416  0.4297  0.1652
 6928SOL    HW227478   1.396   1.232   2.183 -0.6497  2.0762 -2.7838
 6928SOL    HW327479   1.440   1.140   2.071  1.7499  0.9927 -1.0501
 6928SOL    MW427480   1.459   1.189   2.141  0.1757  0.7212 -0.3842
 6929SOL     OW27481   1.023   0.044   4.745  0.3114  0.2627 -0.1502
 6929SOL    HW227482   1.014   0.023   4.838  1.9016 -2.6348 -0.5263
 6929SOL    HW327483   0.933   0.057   4.715 -0.4109 -0.8460  1.3903
 6929SOL    MW427484   1.010   0.043   4.753  0.4259 -0.2659  0.0035
 6930SOL     OW27485   4.161   4.131   4.625 -0.0653 -0.7698  0.3583
 6930SOL    HW227486   4.129   4.103   4.710  1.5048  0.3432  1.3801
 6930SOL    HW327487   4.179   4.049   4.578 -0.0929 -1.4175  1.4415
 6930SOL    MW427488   4.159   4.116   4.630  0.1382 -0.7084  0.6360
 6931SOL     OW27489   1.470   3.906   3.570 -0.5059 -0.3354 -0.6540
 6931SOL    HW227490   1.482   3.999   3.550  1.6673 -0.3561  0.2374
 6931SOL    HW327491   1.399   3.904   3.634  1.2890  1.0702  1.5070
 6931SOL    MW427492   1.462   3.918   3.576  0.0176 -0.1527 -0.2513
 6932SOL     OW27493   0.991   5.799   0.682  0.4834 -0.1379 -0.0085
 6932SOL    HW227494   1.031   5.824   0.598 -1.2499  1.9054 -0.3306
 6932SOL    HW327495   0.984   5.881   0.730  0.6575 -1.1491  1.8146
 6932SOL    MW427496   0.995   5.813   0.677  0.2777 -0.0017  0.1895
 6933SOL     OW27497   3.920   0.399   4.485  0.2365 -0.1737 -0.0376
 6933SOL    HW227498   3.868   0.458   4.540 -0.4833 -0.7683 -0.0617
 6933SOL    HW327499   4.010   0.413   4.513 -0.1940 -1.2056  2.0200
 6933SOL    MW427500   3.925   0.409   4.496  0.0847 -0.3883  0.2307
 6934SOL     OW27501   2.712   2.373   0.524 -0.2676  0.1578 -0.4454
 6934SOL    HW227502   2.777   2.424   0.475  0.0166  2.0930  1.7522
 6934SOL    HW327503   2.672   2.437   0.582  0.6816 -2.2341  3.1207
 6934SOL    MW427504   2.716   2.389   0.525 -0.1048  0.0976  0.3151
 6935SOL     OW27505   0.429   5.289   3.597  0.3425 -0.6765  0.2486
 6935SOL    HW227506   0.383   5.336   3.666 -0.9199 -0.1560 -0.9157
 6935SOL    HW327507   0.514   5.334   3.590  0.4740 -0.7121  1.4056
 6935SOL    MW427508   0.434   5.301   3.605  0.1933 -0.6125  0.2477
 6936SOL     OW27509   4.246   5.730   1.158 -0.0841  0.1396 -0.2995
 6936SOL    HW227510   4.234   5.728   1.063 -3.0086  0.9885 -0.0660
 6936SOL    HW327511   4.252   5.823   1.179 -0.1597 -0.0115  0.4034
 6936SOL    MW427512   4.245   5.742   1.148 -0.4799  0.2317 -0.1759
 6937SOL     OW27513   0.542   2.962   0.709  0.5003  0.7489  0.3575
 6937SOL    HW227514   0.464   2.994   0.755  0.4297 -0.6666  1.2737
 6937SOL    HW327515   0.509   2.902   0.643  0.8383 -0.6984  1.4630
 6937SOL    MW427516   0.527   2.959   0.707  0.5356  0.3712  0.6242
 6938SOL     OW27517   3.305   5.429   4.365 -0.0487 -0.4978 -0.5013
 6938SOL    HW227518   3.287   5.356   4.306 -0.6040 -0.1289 -0.7921
 6938SOL    HW327519   3.317   5.388   4.451  2.4737 -1.2356 -1.1126
 6938SOL    MW427520   3.305   5.414   4.369  0.2108 -0.5465 -0.6203
 6939SOL     OW27521   4.684   1.634   1.410 -0.3512  0.3143 -0.5197
 6939SOL    HW227522   4.719   1.701   1.351 -1.1681 -1.1505 -2.7961
 6939SOL    HW327523   4.760   1.580   1.433  0.1447  1.4517  0.5887
 6939SOL    MW427524   4.699   1.636   1.405 -0.3936  0.2711 -0.6738
 6940SOL     OW27525   2.070   3.237   1.615 -0.1579  0.4375  0.4281
 6940SOL    HW227526   2.012   3.172   1.577 -0.6115  0.6523  0.7359
 6940SOL    HW327527   2.027   3.321   1.597 -0.3178  0.5490  1.2832
 6940SOL    MW427528   2.057   3.240   1.608 -0.2388  0.4806  0.5815
 6941SOL     OW27529   6.051   6.226   0.881  0.2032  0.2296 -0.1885
 6941SOL    HW227530   6.053   6.213   0.786  0.6939 -0.9306 -0.0394
 6941SOL    HW327531   6.132   6.186   0.912 -0.9141 -1.3152  0.9281
 6941SOL    MW427532   6.062   6.219   0.872  0.1205 -0.1273 -0.0215
 6942SOL     OW27533   2.956   4.640   1.469  0.7024  0.6585 -0.4985
 6942SOL    HW227534   2.894   4.570   1.451  2.0818 -0.7115 -0.1391
 6942SOL    HW327535   3.026   4.628   1.404  1.5109  0.9830  0.2774
 6942SOL    MW427536   2.957   4.629   1.458  0.9910  0.5206 -0.3487
 6943SOL     OW27537   0.447   1.316   1.005  0.4839  0.0508 -0.3055
 6943SOL    HW227538   0.471   1.223   1.006 -0.6678 -0.3154  2.1591
 6943SOL    HW327539   0.529   1.362   1.024  0.9150 -0.5185 -0.7607
 6943SOL    MW427540   0.461   1.310   1.008  0.3888 -0.0726 -0.0404
 6944SOL     OW27541   6.331   0.808   5.339 -0.2816  0.5129 -0.4066
 6944SOL    HW227542   6.371   0.741   5.283 -0.6723  0.3571 -0.5041
 6944SOL    HW327543   6.327   0.768   5.426  0.2517  0.7245 -0.2844
 6944SOL    MW427544   6.336   0.794   5.343 -0.2628  0.5202 -0.4033
 6945SOL     OW27545   3.171   4.563   1.271 -0.0136  0.0893  0.4613
 6945SOL    HW227546   3.263   4.540   1.283 -0.0159 -0.1852 -0.0105
 6945SOL    HW327547   3.127   4.479   1.257  0.0911  0.3883 -2.0637
 6945SOL    MW427548   3.178   4.549   1.271 -0.0001  0.0926  0.0659
 6946SOL     OW27549   4.717   4.009   3.635 -0.7562  0.2338 -0.1720
 6946SOL    HW227550   4.648   4.071   3.657  0.2068  0.9369  1.0359
 6946SOL    HW327551   4.744   4.034   3.547 -1.7896  0.1853 -0.5100
 6946SOL    MW427552   4.712   4.021   3.626 -0.7655  0.3202 -0.0572
 6947SOL     OW27553   1.958   0.819   3.592  0.1912 -0.5839 -0.0809
 6947SOL    HW227554   1.881   0.814   3.534  1.0678 -0.1274 -1.3206
 6947SOL    HW327555   1.979   0.728   3.612 -0.5458 -0.7225  0.1235
 6947SOL    MW427556   1.950   0.806   3.587  0.2096 -0.5419 -0.2175
 6948SOL     OW27557   4.372   3.292   1.584  0.5665 -0.0354  0.1281
 6948SOL    HW227558   4.369   3.226   1.653  0.6718 -1.2951 -1.0132
 6948SOL    HW327559   4.437   3.259   1.522 -0.8302  0.0762 -1.4895
 6948SOL    MW427560   4.380   3.279   1.585  0.3961 -0.1868 -0.2359
 6949SOL     OW27561   2.785   1.158   4.779  0.3916 -0.5652 -0.0881
 6949SOL    HW227562   2.704   1.144   4.731 -0.1997  1.6322  0.1726
 6949SOL    HW327563   2.852   1.168   4.711 -0.3187  1.8136 -0.5079
 6949SOL    MW427564   2.783   1.157   4.764  0.2199  0.0386 -0.1091
 6950SOL     OW27565   1.342   4.177   0.728 -0.2267 -0.1692 -0.0456
 6950SOL    HW227566   1.369   4.151   0.816 -0.4128  0.0250  0.0698
 6950SOL    HW327567   1.352   4.098   0.675 -0.6597 -0.4377  0.2675
 6950SOL    MW427568   1.347   4.163   0.733 -0.3084 -0.1790  0.0109
 6951SOL     OW27569   4.392   1.865   2.109  0.5369 -0.2304 -0.3085
 6951SOL    HW227570   4.376   1.782   2.155  2.4326 -0.7162 -0.4128
 6951SOL    HW327571   4.396   1.931   2.178  0.3388 -0.4572 -0.0812
 6951SOL    MW427572   4.391   1.862   2.124  0.7609 -0.3244 -0.2923
 6952SOL     OW27573   1.020   3.683   5.235  0.0793  0.2975 -0.2317
 6952SOL    HW227574   1.000   3.605   5.288 -1.1831  1.1606  0.6200
 6952SOL    HW327575   0.934   3.722   5.217  0.6198  0.9780 -1.4858
 6952SOL    MW427576   1.006   3.678   5.239 -0.0160  0.5011 -0.2848
 6953SOL     OW27577   0.207   2.045   5.200 -0.0903 -0.3182 -0.2014
 6953SOL    HW227578   0.156   1.973   5.163 -0.2010  0.0521 -0.7800
 6953SOL    HW327579   0.147   2.088   5.261 -0.5354  0.2075 -0.9911
 6953SOL    MW427580   0.192   2.041   5.203 -0.1636 -0.2000 -0.3819
 6954SOL     OW27581   2.010   5.292   4.086 -0.7208  0.1108 -0.3031
 6954SOL    HW227582   2.096   5.325   4.062 -0.6639  0.3532  0.2226
 6954SOL    HW327583   1.997   5.321   4.176 -2.4348  2.3360 -1.1630
 6954SOL    MW427584   2.019   5.300   4.094 -0.9395  0.4364 -0.3472
 6955SOL     OW27585   2.184   1.049   4.481  0.1931 -0.1040 -0.2581
 6955SOL    HW227586   2.184   1.120   4.545  0.5746 -0.5946  0.3091
 6955SOL    HW327587   2.097   1.011   4.487 -0.6436  1.4297 -1.8743
 6955SOL    MW427588   2.173   1.053   4.490  0.1330  0.0336 -0.3965
 6956SOL     OW27589   3.798   5.857   2.985  0.1062  0.3790 -0.2973
 6956SOL    HW227590   3.891   5.872   2.969  0.4068 -0.2439  0.7214
 6956SOL    HW327591   3.779   5.910   3.063 -0.5962  1.1320 -0.9661
 6956SOL    MW427592   3.808   5.866   2.993  0.0532  0.3961 -0.2511
 6957SOL     OW27593   4.438   5.481   5.511  0.3012 -0.4376 -0.2342
 6957SOL    HW227594   4.350   5.514   5.494  0.8366  0.4089 -1.4832
 6957SOL    HW327595   4.437   5.456   5.603 -1.2776 -0.5661 -0.2601
 6957SOL    MW427596   4.426   5.482   5.521  0.1635 -0.3429 -0.4024
 6958SOL     OW27597   1.369   5.793   1.533  0.0972  0.0069  0.0020
 6958SOL    HW227598   1.394   5.877   1.570  2.1610 -0.9488  0.9491
 6958SOL    HW327599   1.273   5.794   1.534  0.0731  2.2701  0.0692
 6958SOL    MW427600   1.359   5.804   1.538  0.3663  0.1794  0.1358
 6959SOL     OW27601   4.839   6.188   3.371 -0.4755  0.1889 -0.3105
 6959SOL    HW227602   4.818   6.132   3.446 -0.3463  1.4577  0.7133
 6959SOL    HW327603   4.935   6.186   3.367 -0.5051 -0.5781 -1.0271
 6959SOL    MW427604   4.849   6.180   3.380 -0.4624  0.2551 -0.2700
 6960SOL     OW27605   3.164   5.759   1.354  0.8603 -0.0068 -0.1563
 6960SOL    HW227606   3.156   5.720   1.441 -1.5559  0.2559 -0.1898
 6960SOL    HW327607   3.166   5.685   1.293 -0.9144 -0.1789 -0.0502
 6960SOL    MW427608   3.163   5.744   1.357  0.3074  0.0052 -0.1467
 6961SOL     OW27609   5.894   0.996   1.335  0.2294 -0.0028  0.1175
 6961SOL    HW227610   5.988   1.012   1.339  0.2301  0.2854 -0.8271
 6961SOL    HW327611   5.866   1.037   1.253 -0.5389 -0.9581 -0.1194
 6961SOL    MW427612   5.903   1.003   1.325  0.1282 -0.0908 -0.0384
 6962SOL     OW27613   1.370   1.251   4.456 -0.2748  0.2277 -0.7087
 6962SOL    HW227614   1.413   1.168   4.476 -0.3510  0.0912 -1.1005
 6962SOL    HW327615   1.302   1.259   4.523 -0.4602 -0.1714 -0.8461
 6962SOL    MW427616   1.367   1.241   4.467 -0.3093  0.1570 -0.7785
 6963SOL     OW27617   1.022   6.300   0.366  0.3424 -0.5126  0.1093
 6963SOL    HW227618   1.021   6.385   0.322  0.4586 -0.6271 -0.1142
 6963SOL    HW327619   0.976   6.316   0.449 -1.1881 -0.6489 -0.6838
 6963SOL    MW427620   1.016   6.314   0.371  0.1558 -0.5457 -0.0248
 6964SOL     OW27621   5.326   0.577   5.444 -0.5580  0.2768  0.0668
 6964SOL    HW227622   5.404   0.626   5.420 -0.3105  0.0713  0.4357
 6964SOL    HW327623   5.278   0.637   5.502 -0.0440 -0.0675  0.8646
 6964SOL    MW427624   5.330   0.592   5.449 -0.4576  0.2043  0.2207
 6965SOL     OW27625   1.676   3.111   2.458  0.3813 -0.1009 -0.2391
 6965SOL    HW227626   1.767   3.108   2.486  0.5589 -1.0090 -0.8864
 6965SOL    HW327627   1.680   3.105   2.363 -0.2707  1.7501 -0.4338
 6965SOL    MW427628   1.688   3.110   2.449  0.3187  0.0235 -0.3502
 6966SOL     OW27629   2.041   1.030   0.563  0.0326  0.2122  0.1167
 6966SOL    HW227630   2.029   1.040   0.468  1.7056  1.8230  0.0190
 6966SOL    HW327631   1.990   1.101   0.601 -2.7880 -1.9571  0.6767
 6966SOL    MW427632   2.033   1.041   0.555 -0.1188  0.1385  0.1777
 6967SOL     OW27633   5.455   4.935   2.459 -0.1391  0.5149  0.2229
 6967SOL    HW227634   5.391   4.910   2.392  1.3790 -0.3008 -0.9919
 6967SOL    HW327635   5.465   4.857   2.514  1.0360  0.0159 -0.6448
 6967SOL    MW427636   5.448   4.921   2.457  0.2162  0.3414 -0.0519
 6968SOL     OW27637   1.601   2.718   4.511  0.3966 -0.0188 -0.3886
 6968SOL    HW227638   1.675   2.684   4.561 -0.4783  0.0320  0.9909
 6968SOL    HW327639   1.555   2.639   4.481  0.9195 -0.0490 -1.1589
 6968SOL    MW427640   1.605   2.703   4.514  0.3502 -0.0161 -0.3082
 6969SOL     OW27641   3.377   6.366   3.157  0.0011 -0.0693  0.7637
 6969SOL    HW227642   3.368   6.356   3.062 -2.3369 -0.6557  0.9904
 6969SOL    HW327643   3.455   6.314   3.179 -1.1077 -2.4784 -0.5069
 6969SOL    MW427644   3.386   6.357   3.147 -0.4537 -0.4645  0.6260
 6970SOL     OW27645   5.122   2.867   4.771 -0.1910  0.1583 -0.1100
 6970SOL    HW227646   5.190   2.933   4.757  0.0750  0.1550  1.0465
 6970SOL    HW327647   5.081   2.891   4.854 -0.4545 -0.8110  0.0599
 6970SOL    MW427648   5.126   2.879   4.780 -0.1906  0.0300  0.0650
 6971SOL     OW27649   0.531   2.867   2.833 -0.6250  0.0059 -0.0588
 6971SOL    HW227650   0.477   2.846   2.909 -1.3723  0.5025 -0.4384
 6971SOL    HW327651   0.482   2.831   2.759 -0.3804  0.3692 -0.3996
 6971SOL    MW427652   0.518   2.859   2.833 -0.6913  0.1194 -0.1538
 6972SOL     OW27653   3.341   1.907   5.971 -0.4262 -0.6902 -0.4359
 6972SOL    HW227654   3.265   1.962   5.955  0.3244  0.2509 -0.8130
 6972SOL    HW327655   3.308   1.837   6.027 -1.2784  0.4283  0.4944
 6972SOL    MW427656   3.327   1.905   5.976 -0.4396 -0.4185 -0.3629
 6973SOL     OW27657   4.755   0.790   0.304  0.3905 -0.3777 -0.3135
 6973SOL    HW227658   4.813   0.730   0.257  0.8470 -0.8836  0.8480
 6973SOL    HW327659   4.718   0.847   0.236  1.6156 -0.5749 -1.1682
 6973SOL    MW427660   4.758   0.790   0.289  0.6124 -0.4704 -0.2731
 6974SOL     OW27661   4.365   1.836   5.251  0.4356 -0.2398 -0.3380
 6974SOL    HW227662   4.357   1.905   5.318 -0.8202  0.4866 -1.1926
 6974SOL    HW327663   4.298   1.772   5.274  1.3309 -1.0023  0.2187
 6974SOL    MW427664   4.355   1.837   5.263  0.3880 -0.2445 -0.3773
 6975SOL     OW27665   2.909   3.025   2.998  0.4898 -0.7707  0.4116
 6975SOL    HW227666   2.999   3.021   3.032 -0.2163 -0.4381  2.4643
 6975SOL    HW327667   2.920   3.044   2.905  2.5411 -0.5478  0.6375
 6975SOL    MW427668   2.923   3.027   2.991  0.6673 -0.6974  0.7122
 6976SOL     OW27669   0.275   3.439   4.474 -0.1498 -0.5749  0.3966
 6976SOL    HW227670   0.223   3.459   4.552  1.4606  0.6487  1.2303
 6976SOL    HW327671   0.257   3.511   4.413  1.5044  0.6170  1.2294
 6976SOL    MW427672   0.266   3.451   4.476  0.2809 -0.2562  0.6165
 6977SOL     OW27673   6.101   3.118   0.532  0.3830 -0.1321  0.5219
 6977SOL    HW227674   6.051   3.198   0.545  1.7966  0.7874  0.5627
 6977SOL    HW327675   6.103   3.106   0.437 -0.4320 -0.5341  0.5485
 6977SOL    MW427676   6.095   3.127   0.521  0.4620 -0.0638  0.5308
 6978SOL     OW27677   5.803   4.047   3.792  0.1942  0.2158 -0.1613
 6978SOL    HW227678   5.721   4.076   3.832 -0.4007  0.5674 -1.5693
 6978SOL    HW327679   5.832   4.122   3.741 -0.3301 -0.9353 -2.2771
 6978SOL    MW427680   5.796   4.061   3.791  0.0465  0.1103 -0.6262
 6979SOL     OW27681   3.191   4.171   1.464  0.4919 -0.0082 -0.1589
 6979SOL    HW227682   3.122   4.133   1.519 -0.5260  0.2417 -1.2264
 6979SOL    HW327683   3.152   4.175   1.377  2.0001 -0.2083 -0.8683
 6979SOL    MW427684   3.176   4.166   1.460  0.5566 -0.0016 -0.3933
 6980SOL     OW27685   2.923   0.370   2.492 -0.2483  0.3853  0.1737
 6980SOL    HW227686   2.835   0.405   2.477 -1.3860 -1.3844  2.1588
 6980SOL    HW327687   2.946   0.327   2.410 -1.4533  0.4538 -0.2216
 6980SOL    MW427688   2.915   0.369   2.479 -0.5574  0.1609  0.3835
 6981SOL     OW27689   4.470   4.510   2.223 -0.5780 -0.3438  0.0106
 6981SOL    HW227690   4.497   4.505   2.315  1.5532  1.2867 -0.4331
 6981SOL    HW327691   4.395   4.571   2.223 -3.0546 -3.1627  1.0037
 6981SOL    MW427692   4.464   4.518   2.235 -0.6236 -0.5006  0.0831
 6982SOL     OW27693   0.190   5.096   3.385 -0.1766 -0.0734 -0.6420
 6982SOL    HW227694   0.162   5.143   3.307  1.1169  1.5796 -0.1504
 6982SOL    HW327695   0.278   5.066   3.365  0.2354  0.5148  0.2325
 6982SOL    MW427696   0.198   5.098   3.372  0.0484  0.2223 -0.4617
 6983SOL     OW27697   2.990   1.222   4.604 -0.0477  0.6837 -0.1922
 6983SOL    HW227698   2.973   1.304   4.557 -0.0303  1.1814  0.6630
 6983SOL    HW327699   2.963   1.153   4.543 -0.3240  1.3325 -0.8061
 6983SOL    MW427700   2.984   1.223   4.590 -0.0819  0.8350 -0.1603
 6984SOL     OW27701   6.381   0.261   1.641 -0.2242 -0.2035  0.0597
 6984SOL    HW227702   6.369   0.355   1.625 -0.3651 -0.4800 -1.5530
 6984SOL    HW327703   6.461   0.257   1.694 -1.1315  0.9091  1.6362
 6984SOL    MW427704   6.390   0.273   1.646 -0.3625 -0.0932  0.0549
 6985SOL     OW27705   6.043   0.168   2.338 -0.2686  0.3244  0.4437
 6985SOL    HW227706   6.116   0.160   2.399  0.0484 -1.4931 -0.1068
 6985SOL    HW327707   6.074   0.230   2.271  1.2637 -1.2378 -0.3813
 6985SOL    MW427708   6.057   0.175   2.337 -0.0246 -0.1215  0.2623
 6986SOL     OW27709   6.372   3.890   1.921  0.6318 -0.1704 -0.2331
 6986SOL    HW227710   6.279   3.896   1.898  0.3361 -0.0999  0.9248
 6986SOL    HW327711   6.401   3.981   1.927  0.6505 -0.1838 -0.1209
 6986SOL    MW427712   6.363   3.903   1.919  0.5953 -0.1629 -0.0655
 6987SOL     OW27713   4.223   4.890   3.729  0.1224  0.1625  0.4343
 6987SOL    HW227714   4.169   4.915   3.654  0.8187  0.3635 -0.0133
 6987SOL    HW327715   4.160   4.865   3.797 -0.5257  0.3492 -0.0850
 6987SOL    MW427716   4.207   4.890   3.728  0.1288  0.2136  0.3067
 6988SOL     OW27717   1.037   2.461   1.293 -0.0822  0.3787  0.0256
 6988SOL    HW227718   1.037   2.555   1.306  4.6347  1.3297 -3.7363
 6988SOL    HW327719   0.987   2.448   1.212  1.0957  0.0402 -0.6686
 6988SOL    MW427720   1.030   2.472   1.284  0.6955  0.4595 -0.5623
 6989SOL     OW27721   1.384   1.450   3.525  0.7776 -0.0646 -0.4593
 6989SOL    HW227722   1.399   1.514   3.457  0.3338  0.0536 -0.4460
 6989SOL    HW327723   1.466   1.448   3.575  0.6853  0.7062 -0.2765
 6989SOL    MW427724   1.397   1.458   3.523  0.7068  0.0527 -0.4334
 6990SOL     OW27725   1.153   2.878   0.898  0.4777 -0.1669  0.0583
 6990SOL    HW227726   1.234   2.906   0.940  0.4697  0.7296 -0.5001
 6990SOL    HW327727   1.093   2.951   0.910  0.1197 -0.3569 -0.5237
 6990SOL    MW427728   1.156   2.891   0.905  0.4294 -0.0737 -0.0921
 6991SOL     OW27729   5.152   1.853   4.637 -0.2723 -0.2008 -0.6688
 6991SOL    HW227730   5.089   1.914   4.675 -0.3713 -0.1363 -0.9299
 6991SOL    HW327731   5.208   1.908   4.583 -1.2905 -0.5196 -2.1150
 6991SOL    MW427732   5.151   1.868   4.635 -0.4197 -0.2344 -0.8941
 6992SOL     OW27733   0.126   6.403   3.039 -0.4217  0.2674 -0.2399
 6992SOL    HW227734   0.186   6.370   2.972  0.1206  2.3361 -0.8632
 6992SOL    HW327735   0.151   6.495   3.050 -1.5595  0.4006  1.6583
 6992SOL    MW427736   0.137   6.411   3.032 -0.5003  0.5579 -0.0717
 6993SOL     OW27737   0.908   0.898   5.688  0.2060  0.2579 -0.1783
 6993SOL    HW227738   0.987   0.870   5.736 -1.4370 -1.7797  1.5355
 6993SOL    HW327739   0.925   0.873   5.597  1.5603 -0.0550  0.1344
 6993SOL    MW427740   0.921   0.891   5.682  0.1679 -0.0522  0.0891
 6994SOL     OW27741   1.343   2.883   4.087 -0.3724 -0.1048 -0.0796
 6994SOL    HW227742   1.298   2.879   4.002  0.7996 -0.5895 -0.7060
 6994SOL    HW327743   1.435   2.900   4.064 -0.3390  1.7358  1.1896
 6994SOL    MW427744   1.350   2.885   4.073 -0.2133  0.0741  0.0052
 6995SOL     OW27745   3.413   5.709   4.097  0.2766 -0.0684 -0.1877
 6995SOL    HW227746   3.452   5.753   4.021 -0.5608  0.1803 -0.4941
 6995SOL    HW327747   3.402   5.618   4.068 -0.5835  0.1515 -0.6008
 6995SOL    MW427748   3.416   5.703   4.083  0.0527 -0.0066 -0.2826
 6996SOL     OW27749   6.209   1.989   0.041  0.7828  0.1313  0.1992
 6996SOL    HW227750   6.293   1.964   0.078  0.1291 -1.8297  0.4599
 6996SOL    HW327751   6.148   1.921   0.070 -0.7090  0.9863 -0.7635
 6996SOL    MW427752   6.212   1.977   0.050  0.4997 -0.0146  0.1066
 6997SOL     OW27753   2.541   3.891   5.885 -0.0959  0.3816 -0.0384
 6997SOL    HW227754   2.485   3.856   5.953  2.4247 -0.1741  1.8713
 6997SOL    HW327755   2.601   3.820   5.862  0.5395  1.2464 -1.2461
 6997SOL    MW427756   2.542   3.877   5.891  0.3205  0.4224  0.0543
 6998SOL     OW27757   4.714   4.220   4.119 -0.8163  0.5080 -0.1027
 6998SOL    HW227758   4.625   4.207   4.086 -1.5025  2.0240  1.0275
 6998SOL    HW327759   4.722   4.315   4.130  1.1080  0.4426 -0.5978
 6998SOL    MW427760   4.703   4.231   4.116 -0.6530  0.6994 -0.0189
 6999SOL     OW27761   0.806   2.040   3.246 -0.3490 -0.0633  0.5490
 6999SOL    HW227762   0.861   2.114   3.219 -0.0435 -0.4131  0.1949
 6999SOL    HW327763   0.853   1.963   3.214 -0.6211 -0.4177  0.9899
 6999SOL    MW427764   0.820   2.039   3.238 -0.3446 -0.1562  0.5604
 7000SOL     OW27765   1.711   0.610   5.655 -0.5232  0.2747  0.1947
 7000SOL    HW227766   1.772   0.630   5.584 -1.3530  0.4266 -0.4913
 7000SOL    HW327767   1.702   0.693   5.702  1.6452 -0.3213  1.7954
 7000SOL    MW427768   1.718   0.624   5.652 -0.3466  0.2161  0.3154
 7001SOL     OW27769   2.881   5.354   2.461  0.0938 -0.1334  0.2762
 7001SOL    HW227770   2.830   5.274   2.451 -0.4494  0.1616  0.6973
 7001SOL    HW327771   2.901   5.359   2.554  0.5728 -0.0433  0.1760
 7001SOL    MW427772   2.877   5.344   2.472  0.0854 -0.0826  0.3185
 7002SOL     OW27773   1.290   2.254   5.980  0.0255 -0.2834  0.5301
 7002SOL    HW227774   1.345   2.180   5.955 -0.8377 -1.0074  0.7252
 7002SOL    HW327775   1.339   2.299   6.049 -0.0575 -1.4992  1.4052
 7002SOL    MW427776   1.304   2.250   5.985 -0.0993 -0.5393  0.6713
 7003SOL     OW27777   4.204   2.845   1.520  0.1990 -0.5956 -0.1700
 7003SOL    HW227778   4.297   2.867   1.516  0.0428 -0.1510 -2.6961
 7003SOL    HW327779   4.198   2.780   1.590  2.6737 -1.8814 -1.0287
 7003SOL    MW427780   4.215   2.840   1.529  0.5049 -0.7066 -0.6166
 7004SOL     OW27781   5.459   5.014   1.991  0.4274 -0.4489 -0.2438
 7004SOL    HW227782   5.368   4.996   2.013  0.2236  0.4351 -0.3005
 7004SOL    HW327783   5.455   5.057   1.905  0.8705 -0.1481 -0.1211
 7004SOL    MW427784   5.447   5.018   1.982  0.4590 -0.2926 -0.2351
 7005SOL     OW27785   2.593   2.843   0.380  0.0740  0.1513 -0.7669
 7005SOL    HW227786   2.629   2.809   0.462 -2.7058 -0.0435  0.4948
 7005SOL    HW327787   2.641   2.924   0.365  0.6929  0.1757  1.0465
 7005SOL    MW427788   2.604   2.849   0.389 -0.2111  0.1288 -0.3612
 7006SOL     OW27789   1.427   4.382   5.351 -0.4962  0.4452 -0.0138
 7006SOL    HW227790   1.356   4.425   5.303  0.0034  0.1312 -1.0570
 7006SOL    HW327791   1.396   4.293   5.367 -0.9887  0.7796  0.9778
 7006SOL    MW427792   1.414   4.376   5.347 -0.4953  0.4479 -0.0206
 7007SOL     OW27793   6.313   5.522   2.153  0.0885 -0.0672 -0.0889
 7007SOL    HW227794   6.244   5.522   2.087  0.6298 -0.1746 -0.6633
 7007SOL    HW327795   6.272   5.486   2.231 -0.6066  0.2222 -0.3158
 7007SOL    MW427796   6.299   5.517   2.155  0.0682 -0.0432 -0.1946
 7008SOL     OW27797   5.543   3.085   1.062  0.2927  0.0659 -0.3719
 7008SOL    HW227798   5.570   3.027   0.991  1.1202  1.4405 -1.2318
 7008SOL    HW327799   5.616   3.147   1.071 -1.2321  2.0159 -0.6622
 7008SOL    MW427800   5.556   3.086   1.054  0.2007  0.5046 -0.5236
 7009SOL     OW27801   3.346   0.715   3.500  0.6781  0.0273 -0.3619
 7009SOL    HW227802   3.302   0.654   3.440  1.2461 -0.9666  0.2102
 7009SOL    HW327803   3.415   0.755   3.447  0.2451  0.2474 -0.7653
 7009SOL    MW427804   3.349   0.712   3.485  0.6959 -0.0748 -0.3396
 7010SOL     OW27805   1.950   4.872   3.842  0.0537  0.4745 -0.1044
 7010SOL    HW227806   1.907   4.950   3.878 -0.5532  0.0660  0.0834
 7010SOL    HW327807   1.877   4.814   3.818  0.4829 -1.0333  1.9806
 7010SOL    MW427808   1.934   4.875   3.843  0.0302  0.2217  0.1955
 7011SOL     OW27809   6.280   3.461   0.545 -0.1114 -0.0017  0.2159
 7011SOL    HW227810   6.323   3.516   0.611  1.9954 -0.2837 -0.8256
 7011SOL    HW327811   6.293   3.371   0.577  0.5053 -0.1144 -0.3428
 7011SOL    MW427812   6.288   3.456   0.558  0.2479 -0.0538  0.0047
 7012SOL     OW27813   4.281   3.661   0.828  0.6179 -0.2734 -0.4684
 7012SOL    HW227814   4.302   3.683   0.737  0.0577  0.1385 -0.5052
 7012SOL    HW327815   4.366   3.651   0.870  0.9101  1.2009 -0.6361
 7012SOL    MW427816   4.295   3.663   0.821  0.5825 -0.0245 -0.4954
 7013SOL     OW27817   6.349   5.173   4.453  0.1838 -0.0615 -0.3554
 7013SOL    HW227818   6.372   5.214   4.370  0.6070  1.1799  0.3507
 7013SOL    HW327819   6.260   5.204   4.471  0.2375 -0.0205 -0.1581
 7013SOL    MW427820   6.340   5.182   4.444  0.2467  0.1077 -0.2362
 7014SOL     OW27821   5.969   3.977   4.656  0.0595  0.0662  0.1247
 7014SOL    HW227822   6.064   3.974   4.643 -0.1335 -1.6696 -1.3097
 7014SOL    HW327823   5.945   4.068   4.640  1.7842  1.3551  3.6059
 7014SOL    MW427824   5.979   3.988   4.653  0.2616  0.0073  0.3947
 7015SOL     OW27825   2.227   2.339   5.354  0.3890  0.1532 -0.5804
 7015SOL    HW227826   2.299   2.284   5.322  0.4362  1.0985 -2.1872
 7015SOL    HW327827   2.268   2.396   5.420  1.2230  0.9239 -1.7242
 7015SOL    MW427828   2.242   2.339   5.359  0.5053  0.3796 -0.9433
 7016SOL     OW27829   6.323   4.508   2.130  0.5307  0.5623 -0.0027
 7016SOL    HW227830   6.365   4.423   2.135 -0.7697 -0.1613 -0.9071
 7016SOL    HW327831   6.279   4.519   2.214  0.7521  0.3857  0.1370
 7016SOL    MW427832   6.323   4.498   2.142  0.3884  0.4435 -0.1036
 7017SOL     OW27833   6.130   0.479   0.099 -0.0574  0.2352  0.2338
 7017SOL    HW227834   6.177   0.466   0.017 -1.0774 -1.3079 -0.1540
 7017SOL    HW327835   6.070   0.552   0.082 -0.4446 -0.2431 -0.5041
 7017SOL    MW427836   6.128   0.487   0.086 -0.2430 -0.0315  0.0853
 7018SOL     OW27837   4.629   4.993   6.051  0.6696  0.3793  0.4134
 7018SOL    HW227838   4.549   5.017   6.097  0.8780  1.5539  0.1927
 7018SOL    HW327839   4.671   4.928   6.108 -0.4984 -0.3756  0.4494
 7018SOL    MW427840   4.624   4.988   6.064  0.5430  0.4346  0.3890
 7019SOL     OW27841   4.774   2.707   2.960  0.1550 -0.2968  0.3308
 7019SOL    HW227842   4.710   2.654   3.008  1.2418 -1.3573  0.6515
 7019SOL    HW327843   4.849   2.714   3.018  1.1464 -0.8454 -0.8386
 7019SOL    MW427844   4.775   2.701   2.974  0.4292 -0.5091  0.2188
 7020SOL     OW27845   2.276   5.384   5.834  0.3708  0.2557 -1.0637
 7020SOL    HW227846   2.292   5.355   5.744  0.5694  0.9438 -1.2569
 7020SOL    HW327847   2.325   5.466   5.842  2.0152 -0.7918  0.3156
 7020SOL    MW427848   2.284   5.391   5.823  0.6140  0.2083 -0.9072
 7021SOL     OW27849   0.009   3.079   3.143  0.1218  0.3462  0.3394
 7021SOL    HW227850  -0.079   3.107   3.169  0.2190  0.8137  0.1692
 7021SOL    HW327851  -0.006   3.012   3.076 -0.1056  0.6568  0.0726
 7021SOL    MW427852  -0.005   3.074   3.138  0.1046  0.4489  0.2818
 7022SOL     OW27853   1.625   3.226   5.842  0.0736  0.2245  0.3020
 7022SOL    HW227854   1.652   3.318   5.848  0.0815  0.2054  0.6275
 7022SOL    HW327855   1.613   3.210   5.749  1.3905  0.1666  0.1262
 7022SOL    MW427856   1.627   3.236   5.831  0.2483  0.2144  0.3217
 7023SOL     OW27857   4.915   4.231   4.630 -0.6960  0.0159  0.1316
 7023SOL    HW227858   4.884   4.143   4.608 -0.6887 -0.5100  2.0971
 7023SOL    HW327859   4.944   4.225   4.720  0.9893  1.6240 -0.2436
 7023SOL    MW427860   4.915   4.218   4.639 -0.4727  0.1586  0.3414
 7024SOL     OW27861   2.007   0.367   0.084  0.3262 -0.0019  0.2198
 7024SOL    HW227862   1.977   0.435   0.024  0.3570 -1.0534 -1.0523
 7024SOL    HW327863   2.001   0.286   0.033 -1.6252 -1.2847  2.3091
 7024SOL    MW427864   2.002   0.365   0.069  0.0728 -0.3099  0.3276
 7025SOL     OW27865   4.918   6.334   0.223 -0.3403  0.2433 -0.0475
 7025SOL    HW227866   5.002   6.332   0.268 -0.8907  0.3460  1.0186
 7025SOL    HW327867   4.909   6.425   0.194 -0.6722  0.5594  1.0128
 7025SOL    MW427868   4.928   6.346   0.225 -0.4567  0.2986  0.2330
 7026SOL     OW27869   4.400   1.677   1.101  0.5110  0.4253 -0.4885
 7026SOL    HW227870   4.335   1.699   1.035  0.0365  0.7375  0.0677
 7026SOL    HW327871   4.427   1.587   1.080 -1.2574 -0.3162  0.1675
 7026SOL    MW427872   4.395   1.668   1.090  0.2151  0.3687 -0.3286
 7027SOL     OW27873   5.239   5.352   3.706  0.0920  0.1629 -0.2882
 7027SOL    HW227874   5.189   5.421   3.664  1.1186  0.6675 -0.6936
 7027SOL    HW327875   5.185   5.273   3.694 -1.0737  0.8635  0.1638
 7027SOL    MW427876   5.225   5.350   3.699  0.0737  0.3219 -0.2821
 7028SOL     OW27877   4.619   5.307   1.217 -0.0595 -0.2765  0.0418
 7028SOL    HW227878   4.710   5.284   1.200  0.5710  0.5995  2.0145
 7028SOL    HW327879   4.617   5.402   1.215 -1.0326 -0.2909 -0.3515
 7028SOL    MW427880   4.631   5.316   1.214 -0.1047 -0.1628  0.2502
 7029SOL     OW27881   2.397   3.432   2.435  0.6563 -0.0980 -0.5960
 7029SOL    HW227882   2.368   3.379   2.509  1.7124 -0.1793 -0.2153
 7029SOL    HW327883   2.341   3.404   2.362  1.1342 -1.7238 -0.3973
 7029SOL    MW427884   2.386   3.421   2.435  0.8587 -0.3233 -0.5196
 7030SOL     OW27885   0.033   5.750   3.573  0.6444  0.0552  0.6568
 7030SOL    HW227886  -0.033   5.819   3.574 -0.6156 -1.0740 -0.5474
 7030SOL    HW327887   0.008   5.690   3.644 -0.4937 -1.0925 -0.6525
 7030SOL    MW427888   0.021   5.751   3.582  0.3280 -0.2452  0.3252
 7031SOL     OW27889   1.250   1.278   3.248  0.8154  0.5745 -0.1841
 7031SOL    HW227890   1.273   1.220   3.176 -0.9835 -0.0095 -0.3387
 7031SOL    HW327891   1.280   1.233   3.327  0.0399 -0.2616 -0.3558
 7031SOL    MW427892   1.257   1.265   3.249  0.4757  0.3872 -0.2271
 7032SOL     OW27893   0.270   1.027   1.937 -0.0330  0.3061  0.2940
 7032SOL    HW227894   0.201   0.984   1.885  3.0784 -1.4261 -2.8138
 7032SOL    HW327895   0.258   0.991   2.025 -3.5511  0.7971  0.1816
 7032SOL    MW427896   0.259   1.016   1.942 -0.0867  0.1424 -0.1308
 7033SOL     OW27897   4.849   3.297   5.975  0.6946 -0.5899 -0.1704
 7033SOL    HW227898   4.809   3.265   5.894  1.5998 -0.4266 -0.6911
 7033SOL    HW327899   4.934   3.331   5.948  0.3537  0.9819  0.5808
 7033SOL    MW427900   4.855   3.297   5.960  0.7691 -0.3610 -0.1400
 7034SOL     OW27901   2.769   2.531   5.195 -0.6235  0.0884 -0.0240
 7034SOL    HW227902   2.852   2.543   5.148 -1.2784  0.8145 -1.0124
 7034SOL    HW327903   2.796   2.515   5.286  0.7355 -2.8131 -0.8112
 7034SOL    MW427904   2.784   2.530   5.201 -0.5306 -0.1986 -0.2583
 7035SOL     OW27905   2.941   5.330   5.982  0.7391  0.4879 -0.3403
 7035SOL    HW227906   2.967   5.319   5.890  2.0559 -2.9325  0.3021
 7035SOL    HW327907   2.878   5.259   5.997 -1.2431  2.3975  0.8849
 7035SOL    MW427908   2.936   5.319   5.972  0.6513  0.2886 -0.0939
 7036SOL     OW27909   1.363   4.794   1.825  0.7224  0.0073 -0.0464
 7036SOL    HW227910   1.390   4.723   1.883 -0.1111 -0.1430  0.1725
 7036SOL    HW327911   1.276   4.768   1.795  0.9178  0.3561 -0.9245
 7036SOL    MW427912   1.355   4.781   1.829  0.6382  0.0335 -0.1334
 7037SOL     OW27913   6.067   2.580   0.205 -0.5875  0.3899 -0.3452
 7037SOL    HW227914   6.094   2.599   0.115 -2.0353 -0.2617 -0.9384
 7037SOL    HW327915   6.036   2.489   0.203  3.0325 -1.1204  1.6932
 7037SOL    MW427916   6.067   2.570   0.193 -0.3009  0.1047 -0.1545
 7038SOL     OW27917   5.012   5.661   5.746 -0.0206  0.4879 -0.1675
 7038SOL    HW227918   4.996   5.668   5.652  3.2611 -0.7974 -0.9245
 7038SOL    HW327919   5.002   5.568   5.766 -0.2155  0.6791  0.6753
 7038SOL    MW427920   5.008   5.650   5.736  0.3867  0.3435 -0.1562
 7039SOL     OW27921   2.330   6.158   0.407 -0.2297 -0.1906 -0.6342
 7039SOL    HW227922   2.274   6.186   0.334 -2.8017 -2.9908  0.0719
 7039SOL    HW327923   2.387   6.091   0.370 -1.1516 -1.2186 -0.2121
 7039SOL    MW427924   2.330   6.153   0.392 -0.6907 -0.6957 -0.4854
 7040SOL     OW27925   5.018   3.341   0.562  0.0086  0.0356 -0.3540
 7040SOL    HW227926   4.963   3.328   0.640  2.0201 -2.7793  0.7523
 7040SOL    HW327927   5.069   3.419   0.581 -1.3885  0.9037 -0.0580
 7040SOL    MW427928   5.017   3.349   0.575  0.0897 -0.2213 -0.1690
 7041SOL     OW27929   1.659   0.257   3.707  0.3719 -0.3803 -0.1067
 7041SOL    HW227930   1.642   0.332   3.764  2.3830 -0.6933  1.0028
 7041SOL    HW327931   1.574   0.238   3.667 -1.2514 -0.2545  2.9397
 7041SOL    MW427932   1.645   0.264   3.710  0.4231 -0.4050  0.4416
 7042SOL     OW27933   3.856   3.062   2.130  0.2564 -0.2603 -0.0821
 7042SOL    HW227934   3.802   2.998   2.176  0.7760 -0.4515  0.2764
 7042SOL    HW327935   3.888   3.120   2.199  1.1171 -0.6033 -0.1800
 7042SOL    MW427936   3.853   3.061   2.145  0.4385 -0.3308 -0.0477
 7043SOL     OW27937   5.675   5.607   1.183  0.5223  0.3887 -0.2330
 7043SOL    HW227938   5.614   5.621   1.256  0.9829 -0.7625  0.3954
 7043SOL    HW327939   5.620   5.580   1.110  0.3220 -1.5929  0.5985
 7043SOL    MW427940   5.660   5.606   1.183  0.5567 -0.0246 -0.0404
 7044SOL     OW27941   0.278   1.025   4.764 -0.1183 -0.6130  0.6429
 7044SOL    HW227942   0.183   1.035   4.755 -0.1024 -1.2151 -0.2810
 7044SOL    HW327943   0.314   1.106   4.729 -0.3236  0.4545  2.7214
 7044SOL    MW427944   0.270   1.037   4.758 -0.1433 -0.5516  0.7953
 7045SOL     OW27945   2.920   0.547   1.831 -0.1999 -0.3361  0.1252
 7045SOL    HW227946   2.942   0.624   1.778 -1.1241 -0.6665 -0.7728
 7045SOL    HW327947   2.871   0.583   1.906 -1.8877 -0.1305 -1.0119
 7045SOL    MW427948   2.916   0.562   1.834 -0.5446 -0.3526 -0.1433
 7046SOL     OW27949   0.103   2.477   3.957  0.2218 -0.2692  0.2274
 7046SOL    HW227950   0.015   2.456   3.988 -0.4700  1.8081 -0.1516
 7046SOL    HW327951   0.102   2.572   3.947  2.5961 -0.1740  0.4155
 7046SOL    MW427952   0.091   2.487   3.960  0.4438  0.0175  0.2022
 7047SOL     OW27953   5.989   6.369   0.375  0.3115  0.2368 -0.3055
 7047SOL    HW227954   5.897   6.376   0.403  0.1450  1.8405 -1.0985
 7047SOL    HW327955   5.983   6.340   0.284  0.6435 -0.4105 -0.1261
 7047SOL    MW427956   5.976   6.366   0.367  0.3333  0.3630 -0.3864
 7048SOL     OW27957   0.360   4.545   5.492  0.1365  0.0174 -0.7466
 7048SOL    HW227958   0.453   4.526   5.483 -0.0137 -0.9943 -0.2803
 7048SOL    HW327959   0.352   4.588   5.578  0.0156 -1.0916 -0.1853
 7048SOL    MW427960   0.371   4.548   5.502  0.1007 -0.2624 -0.6110
 7049SOL     OW27961   2.764   1.198   1.103 -0.0098  0.2493  0.0981
 7049SOL    HW227962   2.760   1.118   1.050 -1.2719 -0.1100  0.7092
 7049SOL    HW327963   2.857   1.222   1.103 -0.0684  0.9317 -3.2137
 7049SOL    MW427964   2.776   1.191   1.096 -0.1840  0.2919 -0.2582
 7050SOL     OW27965   5.501   1.938   0.652 -0.0371  0.1252 -0.1458
 7050SOL    HW227966   5.423   1.887   0.673 -0.7779  1.2988  0.0368
 7050SOL    HW327967   5.539   1.894   0.576 -1.0745 -0.2609 -0.4600
 7050SOL    MW427968   5.496   1.926   0.645 -0.2717  0.2291 -0.1632
 7051SOL     OW27969   6.390   0.270   5.431 -0.1916  0.2025  0.3788
 7051SOL    HW227970   6.438   0.345   5.465 -1.2659  1.4628 -0.7761
 7051SOL    HW327971   6.306   0.273   5.476 -0.9899  0.9021 -1.0999
 7051SOL    MW427972   6.386   0.280   5.441 -0.4387  0.4611  0.0313
 7052SOL     OW27973   5.546   1.645   2.144 -0.0091  0.2782 -0.2584
 7052SOL    HW227974   5.629   1.692   2.144  1.4153 -2.0778 -1.9099
 7052SOL    HW327975   5.536   1.614   2.234 -0.2270  2.2955  0.4750
 7052SOL    MW427976   5.555   1.647   2.156  0.1501  0.2335 -0.3795
 7053SOL     OW27977   3.947   2.356   2.731 -0.9559 -0.1999  0.3248
 7053SOL    HW227978   3.959   2.380   2.640 -3.2721  1.4139  0.3577
 7053SOL    HW327979   3.881   2.287   2.730 -0.7805 -0.3843  0.7777
 7053SOL    MW427980   3.940   2.350   2.719 -1.2383 -0.0113  0.3889
 7054SOL     OW27981   3.500   0.230   2.809 -0.1659 -0.6095  0.4455
 7054SOL    HW227982   3.429   0.257   2.868 -1.9027  0.1018 -1.8025
 7054SOL    HW327983   3.576   0.280   2.838 -0.9185 -0.3830  2.1326
 7054SOL    MW427984   3.500   0.240   2.821 -0.4943 -0.4858  0.3715
 7055SOL     OW27985   1.403   3.564   4.522  0.5948 -0.1566  0.5073
 7055SOL    HW227986   1.367   3.499   4.583  0.6699  0.5895  1.3666
 7055SOL    HW327987   1.435   3.635   4.578 -0.1368  0.9570 -0.4314
 7055SOL    MW427988   1.402   3.565   4.538  0.5082  0.0888  0.4968
 7056SOL     OW27989   0.319   5.907   5.519  0.0940 -0.0906  0.7098
 7056SOL    HW227990   0.254   5.899   5.449  0.7330  0.9852 -0.0270
 7056SOL    HW327991   0.267   5.914   5.599 -0.6875  0.3431  0.1753
 7056SOL    MW427992   0.304   5.907   5.520  0.0752  0.1086  0.5421
 7057SOL     OW27993   3.891   5.993   4.243  0.0082  0.0014  0.6548
 7057SOL    HW227994   3.819   5.929   4.239 -0.4142  0.4984  0.1761
 7057SOL    HW327995   3.970   5.940   4.231 -0.3308 -0.4449  0.3362
 7057SOL    MW427996   3.892   5.977   4.241 -0.0922  0.0081  0.5496
 7058SOL     OW27997   2.984   5.113   0.729 -0.1018 -0.0940  0.4292
 7058SOL    HW227998   2.909   5.082   0.679 -0.3070  0.8863  0.0931
 7058SOL    HW327999   2.958   5.101   0.821 -1.1999  1.3497  0.3404
 7058SOL    MW428000   2.971   5.108   0.735 -0.2738  0.2258  0.3731
 7059SOL     OW28001   5.339   3.440   4.209 -0.2606  0.0589 -0.0026
 7059SOL    HW228002   5.394   3.470   4.282  2.0152 -2.9935 -0.2612
 7059SOL    HW328003   5.343   3.511   4.145  2.2477  0.5818  0.6167
 7059SOL    MW428004   5.346   3.453   4.210  0.3706 -0.2748  0.0450
 7060SOL     OW28005   0.718   5.782   1.990  0.4954 -0.4298 -0.1492
 7060SOL    HW228006   0.775   5.834   2.047 -2.5091  1.6479  1.2108
 7060SOL    HW328007   0.731   5.692   2.020  1.4672  0.2236  1.5660
 7060SOL    MW428008   0.727   5.777   2.001  0.2272 -0.0694  0.2566
 7061SOL     OW28009   1.714   1.338   5.189 -0.3892 -0.2899  0.0149
 7061SOL    HW228010   1.681   1.385   5.112 -2.4523  0.5402  1.3170
 7061SOL    HW328011   1.804   1.368   5.197 -0.0707 -0.4816 -2.1047
 7061SOL    MW428012   1.721   1.348   5.180 -0.6194 -0.2057 -0.0929
 7062SOL     OW28013   0.609   1.520   0.282 -0.3817 -0.2565 -0.5330
 7062SOL    HW228014   0.650   1.525   0.196  1.8258  0.6643  0.4844
 7062SOL    HW328015   0.604   1.427   0.301 -2.0082 -0.5429 -2.0966
 7062SOL    MW428016   0.614   1.509   0.273 -0.3050 -0.1728 -0.6051
 7063SOL     OW28017   2.932   1.854   4.806 -0.2434  0.5723  0.5300
 7063SOL    HW228018   2.845   1.883   4.834  0.0212  0.8427  1.0810
 7063SOL    HW328019   2.965   1.925   4.751 -0.1261  0.7419  0.8171
 7063SOL    MW428020   2.925   1.867   4.802 -0.1930  0.6304  0.6406
 7064SOL     OW28021   2.048   4.594   5.418  0.0897 -0.2075 -0.0507
 7064SOL    HW228022   2.060   4.645   5.498  0.2940 -0.7224  0.2479
 7064SOL    HW328023   2.085   4.508   5.438  2.8551  0.4972 -1.6056
 7064SOL    MW428024   2.055   4.589   5.431  0.4815 -0.1825 -0.2165
 7065SOL     OW28025   0.912   4.492   4.215  0.3785  0.7450  0.5918
 7065SOL    HW228026   0.968   4.539   4.277  2.6379 -0.2883 -0.5519
 7065SOL    HW328027   0.965   4.482   4.136 -0.6541 -2.0500  0.1202
 7065SOL    MW428028   0.926   4.497   4.213  0.5404  0.2399  0.3786
 7066SOL     OW28029   4.980   5.600   0.457 -0.4521 -0.4628 -0.3529
 7066SOL    HW228030   5.041   5.532   0.430  1.0545  0.4582  0.6055
 7066SOL    HW328031   4.928   5.618   0.378 -0.2896 -2.0754 -0.8581
 7066SOL    MW428032   4.981   5.593   0.443 -0.2319 -0.5540 -0.2931
 7067SOL     OW28033   6.028   5.263   4.171  1.2838  0.0340  0.6007
 7067SOL    HW228034   5.944   5.307   4.180  0.9065 -0.7714  1.2260
 7067SOL    HW328035   6.043   5.259   4.077  1.4409  1.6490  0.5288
 7067SOL    MW428036   6.019   5.268   4.160  1.2547  0.1408  0.6737
 7068SOL     OW28037   5.382   5.342   5.349  0.1361 -0.0976  0.0155
 7068SOL    HW228038   5.386   5.377   5.260  1.9370 -0.0869  0.0802
 7068SOL    HW328039   5.365   5.419   5.404  2.3373  0.4845 -0.0226
 7068SOL    MW428040   5.380   5.357   5.344  0.6641 -0.0194  0.0190
 7069SOL     OW28041   3.847   4.679   2.516  0.1886 -0.2443  0.1276
 7069SOL    HW228042   3.933   4.719   2.507 -0.4685  1.3115  0.5381
 7069SOL    HW328043   3.809   4.719   2.595 -1.2187 -0.3071 -0.4782
 7069SOL    MW428044   3.853   4.689   2.526 -0.0838 -0.0473  0.1019
 7070SOL     OW28045   3.270   2.429   1.831 -0.4852  0.5719  0.3667
 7070SOL    HW228046   3.289   2.339   1.859  0.8096  1.7595  3.8523
 7070SOL    HW328047   3.341   2.451   1.770 -0.9931 -0.8008 -0.7738
 7070SOL    MW428048   3.282   2.420   1.826 -0.3814  0.5475  0.6761
 7071SOL     OW28049   3.574   2.316   5.309  0.0850  0.7957 -0.2069
 7071SOL    HW228050   3.655   2.316   5.257  1.6659  0.6129  2.1055
 7071SOL    HW328051   3.551   2.223   5.317  0.9824  0.6505  1.0025
 7071SOL    MW428052   3.582   2.304   5.303  0.4120  0.7525  0.2577
 7072SOL     OW28053   5.044   2.142   6.272  0.5636 -0.0787  0.3255
 7072SOL    HW228054   5.010   2.107   6.355 -0.2081  1.9896  0.9462
 7072SOL    HW328055   4.982   2.110   6.206 -0.2213  0.2186  0.8932
 7072SOL    MW428056   5.031   2.133   6.274  0.3582  0.2334  0.4823
 7073SOL     OW28057   2.888   1.429   0.868  0.3250 -0.0803  0.2221
 7073SOL    HW228058   2.817   1.485   0.902 -1.5847 -1.6069 -1.0176
 7073SOL    HW328059   2.922   1.385   0.945  0.6718  1.4350  0.9852
 7073SOL    MW428060   2.883   1.431   0.882  0.1188 -0.0818  0.1592
 7074SOL     OW28061   1.439   0.520   5.241 -0.1458 -0.1954 -0.5664
 7074SOL    HW228062   1.481   0.578   5.176 -0.8655  0.5669 -0.3677
 7074SOL    HW328063   1.398   0.452   5.189 -0.9514  0.5639 -0.9514
 7074SOL    MW428064   1.439   0.519   5.225 -0.3470  0.0054 -0.5910
 7075SOL     OW28065   3.091   2.757   5.215 -0.0337 -0.0965  0.1411
 7075SOL    HW228066   3.167   2.782   5.161 -0.5792  0.5278 -0.3637
 7075SOL    HW328067   3.121   2.768   5.305  0.4286  0.3145 -0.0556
 7075SOL    MW428068   3.105   2.762   5.220 -0.0447  0.0401  0.0486
 7076SOL     OW28069   5.142   2.706   1.965  0.2873  0.3210 -0.2566
 7076SOL    HW228070   5.146   2.745   2.053 -0.6676  1.4782 -0.6978
 7076SOL    HW328071   5.111   2.777   1.909 -0.6454 -0.8455 -1.2592
 7076SOL    MW428072   5.139   2.721   1.970  0.0383  0.3198 -0.4471
 7077SOL     OW28073   2.461   6.358   5.007 -0.0138 -0.1073  0.2902
 7077SOL    HW228074   2.378   6.395   5.039  0.2456  0.6114  0.1437
 7077SOL    HW328075   2.506   6.328   5.086 -0.1126  0.1336  0.4377
 7077SOL    MW428076   2.456   6.359   5.022  0.0074  0.0193  0.2904
 7078SOL     OW28077   4.944   5.420   2.379 -0.2764 -0.3791 -0.0086
 7078SOL    HW228078   4.917   5.494   2.325  1.1565  0.1489 -0.0561
 7078SOL    HW328079   4.931   5.343   2.324  0.2303  0.0603 -0.7631
 7078SOL    MW428080   4.939   5.420   2.365 -0.0205 -0.2515 -0.1144
 7079SOL     OW28081   3.416   4.937   1.353 -0.0895 -0.0721 -0.4171
 7079SOL    HW228082   3.396   4.882   1.428 -0.1618  0.4670 -0.0313
 7079SOL    HW328083   3.352   4.912   1.287 -0.5844  0.0513  0.0104
 7079SOL    MW428084   3.405   4.927   1.354 -0.1643  0.0153 -0.3098
 7080SOL     OW28085   4.348   2.857   2.765  0.6260 -0.5697  0.1048
 7080SOL    HW228086   4.286   2.930   2.768 -0.0945 -1.1921  1.8943
 7080SOL    HW328087   4.430   2.894   2.796  0.5451 -0.2922 -0.0025
 7080SOL    MW428088   4.350   2.871   2.769  0.5203 -0.6152  0.3267
 7081SOL     OW28089   1.482   0.622   5.994 -0.1803 -0.6593 -0.2087
 7081SOL    HW228090   1.498   0.559   5.924  0.4040 -0.4091 -0.3041
 7081SOL    HW328091   1.401   0.591   6.035 -1.3168 -0.0302 -1.8646
 7081SOL    MW428092   1.474   0.609   5.990 -0.2532 -0.5433 -0.4398
 7082SOL     OW28093   4.833   5.772   0.000  0.7638  0.3252  0.5366
 7082SOL    HW228094   4.741   5.762  -0.026  1.1908 -1.0272 -0.5725
 7082SOL    HW328095   4.859   5.857  -0.034  0.1075  0.4061  0.2258
 7082SOL    MW428096   4.824   5.782  -0.008  0.7335  0.1575  0.3492
 7083SOL     OW28097   3.164   4.477   3.726  0.4704 -0.1040  0.2038
 7083SOL    HW228098   3.168   4.385   3.698  0.5300 -0.3186  0.8893
 7083SOL    HW328099   3.171   4.473   3.821  1.1951  0.6651  0.1921
 7083SOL    MW428100   3.166   4.464   3.735  0.5739 -0.0308  0.2927
 7084SOL     OW28101   1.184   3.196   2.307 -0.1113 -0.5159  0.4853
 7084SOL    HW228102   1.118   3.159   2.366 -2.3800 -1.2712 -2.3106
 7084SOL    HW328103   1.267   3.183   2.353 -1.7441 -0.1918  3.8652
 7084SOL    MW428104   1.186   3.190   2.321 -0.6261 -0.5728  0.5624
 7085SOL     OW28105   5.536   2.246   1.024  0.1929 -0.2664 -0.0530
 7085SOL    HW228106   5.479   2.253   0.947  0.9936 -0.3137 -0.6656
 7085SOL    HW328107   5.531   2.155   1.050 -0.5242 -0.1308  0.3066
 7085SOL    MW428108   5.528   2.235   1.017  0.2039 -0.2548 -0.0864
 7086SOL     OW28109   3.319   4.339   5.954  0.1092  0.3732  0.4337
 7086SOL    HW228110   3.333   4.433   5.968  0.8613  0.3813 -0.3197
 7086SOL    HW328111   3.359   4.321   5.869 -0.5392 -0.5215  0.3005
 7086SOL    MW428112   3.326   4.349   5.944  0.1229  0.2562  0.3168
 7087SOL     OW28113   6.373   2.004   4.149  0.3549 -0.0662  0.2636
 7087SOL    HW228114   6.376   2.066   4.076 -0.1301 -1.3168 -0.8735
 7087SOL    HW328115   6.456   2.016   4.194  1.5902 -0.6657 -1.7385
 7087SOL    MW428116   6.384   2.014   4.145  0.4539 -0.3103 -0.1506
 7088SOL     OW28117   5.982   4.152   4.412  1.2285 -0.7470  0.2935
 7088SOL    HW228118   5.989   4.059   4.394 -0.6166 -0.6775 -1.1848
 7088SOL    HW328119   5.916   4.183   4.349  1.3105  1.4178  1.1895
 7088SOL    MW428120   5.974   4.144   4.401  0.9959 -0.4522  0.2167
 7089SOL     OW28121   4.608   1.638   5.351 -0.3527  0.1918 -0.0726
 7089SOL    HW228122   4.688   1.603   5.391 -0.9582 -1.6858 -0.3745
 7089SOL    HW328123   4.605   1.729   5.379  0.8003 -0.2550  1.6841
 7089SOL    MW428124   4.618   1.645   5.360 -0.2804 -0.1149  0.1193
 7090SOL     OW28125   0.279   4.919   0.066 -0.3113 -0.8341 -0.2078
 7090SOL    HW228126   0.349   4.982   0.049 -0.7416 -0.2363  0.1531
 7090SOL    HW328127   0.321   4.834   0.061  0.7354 -0.4530  1.2494
 7090SOL    MW428128   0.293   4.916   0.063 -0.2300 -0.7049  0.0321
 7091SOL     OW28129   4.201   5.752   0.858 -0.4857 -0.3344  0.0797
 7091SOL    HW228130   4.119   5.711   0.830 -0.2435 -0.2258 -0.8199
 7091SOL    HW328131   4.182   5.846   0.858  0.1486 -0.1746 -1.9290
 7091SOL    MW428132   4.187   5.759   0.855 -0.3701 -0.2990 -0.3040
 7092SOL     OW28133   0.229   2.163   3.952  0.2833 -0.2599 -0.1449
 7092SOL    HW228134   0.218   2.067   3.952 -0.5864 -0.2208  2.3458
 7092SOL    HW328135   0.140   2.197   3.939  0.3551  0.1963  0.5405
 7092SOL    MW428136   0.216   2.155   3.950  0.1780 -0.1946  0.2741
 7093SOL     OW28137   0.700   1.344   6.134  0.7514  0.1151 -0.4104
 7093SOL    HW228138   0.670   1.267   6.087 -2.5234  1.0028 -0.0303
 7093SOL    HW328139   0.716   1.314   6.223  1.2205 -0.4270 -0.6701
 7093SOL    MW428140   0.698   1.330   6.139  0.3812  0.1607 -0.3945
 7094SOL     OW28141   2.773   1.058   0.794 -0.0535 -0.6018 -0.0799
 7094SOL    HW228142   2.694   1.014   0.826 -0.0512 -0.5027  0.0609
 7094SOL    HW328143   2.845   1.004   0.827  0.0524  0.6759  1.9559
 7094SOL    MW428144   2.772   1.045   0.803 -0.0392 -0.4201  0.2073
 7095SOL     OW28145   3.188   5.987   3.291 -0.0471  0.2568 -0.1148
 7095SOL    HW228146   3.199   6.067   3.240 -0.5516 -0.3971 -1.3074
 7095SOL    HW328147   3.172   6.017   3.381  2.1409  1.4074 -0.0485
 7095SOL    MW428148   3.187   6.001   3.296  0.1750  0.3223 -0.2634
 7096SOL     OW28149   3.045   5.007   4.487 -0.1338 -0.0043  0.0190
 7096SOL    HW228150   3.035   4.912   4.475 -0.0599 -0.5812  3.4900
 7096SOL    HW328151   2.984   5.045   4.423 -2.5029 -2.5095  0.5557
 7096SOL    MW428152   3.035   4.999   4.477 -0.4367 -0.4109  0.5477
 7097SOL     OW28153   4.943   4.628   0.606 -0.5521  0.1185  0.4575
 7097SOL    HW228154   4.971   4.569   0.676 -0.4476  1.0584  1.2247
 7097SOL    HW328155   5.025   4.659   0.568 -0.6041 -0.9436 -0.5910
 7097SOL    MW428156   4.958   4.624   0.610 -0.5451  0.1024  0.4204
 7098SOL     OW28157   5.553   6.200   2.039 -0.5399  0.0573 -0.3380
 7098SOL    HW228158   5.544   6.123   2.095 -1.3881  0.1856 -0.2877
 7098SOL    HW328159   5.575   6.272   2.099  1.2484 -0.3080 -0.4923
 7098SOL    MW428160   5.555   6.200   2.055 -0.4159  0.0260 -0.3517
 7099SOL     OW28161   6.381   1.355   3.535  0.7928  0.0058  0.4651
 7099SOL    HW228162   6.469   1.390   3.544  1.8879 -2.3006 -0.5942
 7099SOL    HW328163   6.388   1.287   3.468 -1.7773 -0.3465  0.4215
 7099SOL    MW428164   6.393   1.351   3.527  0.5982 -0.3450  0.3196
 7100SOL     OW28165   5.396   5.820   6.036  0.2341  0.3574  0.1855
 7100SOL    HW228166   5.376   5.789   5.948  0.7176  0.8370 -0.0982
 7100SOL    HW328167   5.321   5.875   6.060  0.8042  1.4653 -0.5358
 7100SOL    MW428168   5.383   5.823   6.028  0.3731  0.5668  0.0529
 7101SOL     OW28169   2.700   2.157   2.991  0.1922  0.9703 -0.2055
 7101SOL    HW228170   2.678   2.234   3.043 -1.9579  0.0608  0.3341
 7101SOL    HW328171   2.665   2.083   3.041  0.0845 -0.1451 -1.8434
 7101SOL    MW428172   2.692   2.158   3.004 -0.1057  0.7031 -0.3504
 7102SOL     OW28173   3.378   0.737   6.349 -0.3923  0.0510 -0.0181
 7102SOL    HW228174   3.421   0.653   6.366 -1.0604 -0.1797  0.6056
 7102SOL    HW328175   3.339   0.761   6.433 -0.2051  0.9890 -0.1903
 7102SOL    MW428176   3.378   0.729   6.362 -0.4557  0.1443  0.0415
 7103SOL     OW28177   1.995   0.762   5.937 -0.0604 -0.1004  0.4219
 7103SOL    HW228178   1.997   0.791   5.846 -2.7338  2.6970  1.0881
 7103SOL    HW328179   2.073   0.801   5.977  0.2078  0.0934 -0.2896
 7103SOL    MW428180   2.006   0.771   5.930 -0.3777  0.2942  0.4159
 7104SOL     OW28181   5.256   3.377   3.469 -0.2423  0.2642 -0.3377
 7104SOL    HW228182   5.322   3.424   3.519 -0.6014 -1.6215  2.0515
 7104SOL    HW328183   5.175   3.386   3.520 -0.6741 -1.5370 -0.6189
 7104SOL    MW428184   5.254   3.384   3.482 -0.3467 -0.2223 -0.0596
 7105SOL     OW28185   2.729   4.833   5.821 -0.0550  0.2956  0.3043
 7105SOL    HW228186   2.711   4.741   5.802  0.5239  0.5364 -1.6863
 7105SOL    HW328187   2.643   4.874   5.821 -0.1432  0.2399 -1.9559
 7105SOL    MW428188   2.715   4.826   5.818  0.0097  0.3200 -0.2566
 7106SOL     OW28189   1.281   5.116   3.917  0.1337 -0.0324 -0.5611
 7106SOL    HW228190   1.285   5.207   3.889  2.5040  0.0751 -0.0858
 7106SOL    HW328191   1.241   5.070   3.843  1.2676  1.0172 -1.8748
 7106SOL    MW428192   1.276   5.122   3.904  0.5961  0.1202 -0.6717
 7107SOL     OW28193   0.566   3.322   4.427 -0.0825  0.1038 -0.6752
 7107SOL    HW228194   0.554   3.256   4.358 -1.8374  0.4324 -0.7326
 7107SOL    HW328195   0.486   3.317   4.478  0.9308  0.3095  1.0000
 7107SOL    MW428196   0.554   3.312   4.425 -0.1804  0.1743 -0.4618
 7108SOL     OW28197   0.932   0.864   4.928 -0.8553  0.8825 -0.3454
 7108SOL    HW228198   0.897   0.775   4.935 -3.8791  2.0766  2.1362
 7108SOL    HW328199   0.864   0.914   4.884 -0.3510  2.4495  0.5576
 7108SOL    MW428200   0.919   0.859   4.923 -1.1877  1.2468  0.1011
 7109SOL     OW28201   0.922   4.454   4.788  0.2022 -0.0014  0.5034
 7109SOL    HW228202   0.893   4.478   4.875 -2.3821 -3.2747  0.7359
 7109SOL    HW328203   1.014   4.428   4.799  1.0619  3.0510  1.3863
 7109SOL    MW428204   0.930   4.453   4.801 -0.0253 -0.0305  0.6506
 7110SOL     OW28205   1.917   1.046   1.050  0.3795 -0.0788  0.1742
 7110SOL    HW228206   1.892   0.979   0.986  0.6693  0.0964 -0.1331
 7110SOL    HW328207   1.845   1.109   1.049 -0.8485 -1.3851  1.9441
 7110SOL    MW428208   1.904   1.046   1.041  0.2557 -0.2280  0.3672
 7111SOL     OW28209   2.890   6.452   2.470 -0.1028 -0.0774  0.3496
 7111SOL    HW228210   2.905   6.360   2.449 -1.9267 -0.8296  2.0588
 7111SOL    HW328211   2.974   6.482   2.505  0.1308 -1.5250  1.1148
 7111SOL    MW428212   2.903   6.444   2.472 -0.3126 -0.3677  0.6761
 7112SOL     OW28213   4.245   4.791   1.081  0.0124  0.0739  0.4240
 7112SOL    HW228214   4.235   4.717   1.022  0.2168  1.3790 -1.3224
 7112SOL    HW328215   4.287   4.754   1.159  0.4863 -1.5493 -0.5535
 7112SOL    MW428216   4.249   4.776   1.084  0.1019  0.0319  0.0646
 7113SOL     OW28217   1.175   4.859   1.096  0.1940 -0.2245  0.4348
 7113SOL    HW228218   1.202   4.769   1.079 -1.2907 -0.5183 -0.4936
 7113SOL    HW328219   1.255   4.901   1.130  1.4723 -1.3669 -0.9892
 7113SOL    MW428220   1.189   4.853   1.098  0.1667 -0.4140  0.1245
 7114SOL     OW28221   6.325   0.726   1.452 -0.0411  0.2996  0.4398
 7114SOL    HW228222   6.319   0.768   1.366 -0.7107  0.9301  0.7833
 7114SOL    HW328223   6.346   0.798   1.512  0.2238 -0.1012  0.8257
 7114SOL    MW428224   6.327   0.741   1.449 -0.0945  0.3299  0.5361
 7115SOL     OW28225   0.664   1.802   5.725  0.1243  0.4714 -0.2151
 7115SOL    HW228226   0.702   1.827   5.641  0.3207  0.3760 -0.1566
 7115SOL    HW328227   0.740   1.782   5.781  0.0347  1.4294  0.2712
 7115SOL    MW428228   0.679   1.803   5.722  0.1384  0.5852 -0.1432
 7116SOL     OW28229   2.369   5.476   3.641  0.1190  0.1760 -0.1574
 7116SOL    HW228230   2.328   5.493   3.557 -0.0201 -1.4498 -0.4571
 7116SOL    HW328231   2.430   5.404   3.624 -0.3326 -0.5811  1.2200
 7116SOL    MW428232   2.371   5.469   3.628  0.0410 -0.1384 -0.0152
 7117SOL     OW28233   0.360   4.753   3.419 -0.1537 -0.3032  0.5272
 7117SOL    HW228234   0.377   4.845   3.401 -2.5207  0.9984  3.8602
 7117SOL    HW328235   0.272   4.737   3.386  0.0708 -1.2885  0.3612
 7117SOL    MW428236   0.351   4.763   3.413 -0.4364 -0.2614  0.9451
 7118SOL     OW28237   0.613   0.057   0.456  1.0025  0.1379  0.6521
 7118SOL    HW228238   0.525   0.093   0.468  1.0860  0.3974  0.5100
 7118SOL    HW328239   0.635   0.078   0.365  0.3804 -1.7890  0.0117
 7118SOL    MW428240   0.604   0.065   0.445  0.9314 -0.0821  0.5488
 7119SOL     OW28241   3.096   2.022   5.996  0.5170 -0.3537  0.6429
 7119SOL    HW228242   3.060   1.933   5.999 -0.3351 -0.0806 -0.5400
 7119SOL    HW328243   3.109   2.046   6.088 -1.6570 -0.7659  1.1166
 7119SOL    MW428244   3.093   2.013   6.009  0.1178 -0.3720  0.5493
 7120SOL     OW28245   5.506   6.218   2.826  0.0401  0.2340  0.2891
 7120SOL    HW228246   5.510   6.144   2.765 -0.0691 -0.7116  1.3911
 7120SOL    HW328247   5.583   6.271   2.803  1.3121 -1.3050  0.7976
 7120SOL    MW428248   5.517   6.215   2.815  0.1935 -0.0938  0.5016
 7121SOL     OW28249   2.849   4.453   3.416 -0.0571  0.2752 -0.5503
 7121SOL    HW228250   2.810   4.430   3.331  0.4344  0.3744 -0.8059
 7121SOL    HW328251   2.914   4.385   3.432 -0.0161  0.3609 -0.3449
 7121SOL    MW428252   2.853   4.441   3.407  0.0131  0.2996 -0.5569
 7122SOL     OW28253   4.563   6.244   0.351  0.6198  0.4839 -0.4031
 7122SOL    HW228254   4.606   6.180   0.294 -0.6882  0.7112 -1.6927
 7122SOL    HW328255   4.563   6.325   0.301 -3.3667 -0.0286 -1.6088
 7122SOL    MW428256   4.569   6.246   0.337 -0.0788  0.4463 -0.7323
 7123SOL     OW28257   3.696   5.482   6.305  0.1460 -0.2002 -0.2406
 7123SOL    HW228258   3.710   5.487   6.400 -0.3068  1.3531 -0.2361
 7123SOL    HW328259   3.784   5.472   6.269  0.4769  0.8548  0.2552
 7123SOL    MW428260   3.710   5.481   6.313  0.1300  0.1439 -0.1746
 7124SOL     OW28261   5.635   1.938   1.608 -0.0085 -0.0516 -0.1807
 7124SOL    HW228262   5.576   2.013   1.615 -1.0699 -0.9263  0.7223
 7124SOL    HW328263   5.663   1.938   1.517 -0.6336  0.9774 -0.3858
 7124SOL    MW428264   5.631   1.948   1.597 -0.2310 -0.0312 -0.0886
 7125SOL     OW28265   0.103   0.371   1.248 -0.2460  0.0666 -0.5382
 7125SOL    HW228266   0.156   0.350   1.172  1.1436 -0.0194  0.4159
 7125SOL    HW328267   0.087   0.287   1.290  1.1037  0.3201  0.5743
 7125SOL    MW428268   0.108   0.358   1.244  0.1154  0.0887 -0.2656
 7126SOL     OW28269   2.984   2.011   5.520  0.4250  0.6726 -0.3328
 7126SOL    HW228270   2.946   2.095   5.547 -0.6620 -0.4450  1.9381
 7126SOL    HW328271   2.909   1.959   5.494  0.7329 -0.4465  0.8968
 7126SOL    MW428272   2.969   2.015   5.520  0.3222  0.3775  0.1290
 7127SOL     OW28273   2.586   4.639   4.580  0.3552 -0.0560  0.1282
 7127SOL    HW228274   2.620   4.550   4.576  1.0847  0.2107  0.2329
 7127SOL    HW328275   2.545   4.645   4.666  0.9827 -0.0615  0.4367
 7127SOL    MW428276   2.585   4.628   4.591  0.5343 -0.0215  0.1827
 7128SOL     OW28277   2.146   1.715   4.197 -0.0572 -0.0998  0.3626
 7128SOL    HW228278   2.095   1.639   4.226 -3.1557  1.1386 -1.4082
 7128SOL    HW328279   2.167   1.695   4.105 -1.8093  1.5074 -0.4526
 7128SOL    MW428280   2.142   1.702   4.189 -0.6972  0.2757  0.0214
 7129SOL     OW28281   2.519   0.706   0.685 -0.2519  0.6075  0.5691
 7129SOL    HW228282   2.442   0.705   0.627  0.2520 -1.4016 -0.1538
 7129SOL    HW328283   2.493   0.652   0.760 -0.4657  2.2003  1.6950
 7129SOL    MW428284   2.505   0.699   0.687 -0.2136  0.5525  0.6223
 7130SOL     OW28285   5.413   3.056   3.863  0.3770  0.1623  0.0546
 7130SOL    HW228286   5.367   3.090   3.787 -1.5164 -0.0841  1.0291
 7130SOL    HW328287   5.420   3.131   3.922 -0.4040 -0.2220  0.6487
 7130SOL    MW428288   5.408   3.070   3.861  0.0242  0.0791  0.2616
 7131SOL     OW28289   2.375   5.637   5.577  0.1721 -0.4143 -0.2082
 7131SOL    HW228290   2.312   5.706   5.558  1.5766  1.4954  1.6453
 7131SOL    HW328291   2.457   5.667   5.536  0.4942 -1.7115 -0.5820
 7131SOL    MW428292   2.378   5.650   5.569  0.3999 -0.3335 -0.0130
 7132SOL     OW28293   5.475   3.495   3.582 -0.1786  0.0768  0.2717
 7132SOL    HW228294   5.571   3.492   3.583 -0.1001  1.6660  0.7527
 7132SOL    HW328295   5.454   3.588   3.572 -1.6640 -0.0767  1.4951
 7132SOL    MW428296   5.485   3.507   3.581 -0.3642  0.2662  0.4966
 7133SOL     OW28297   1.103   0.923   0.696 -0.1340 -0.1554  0.5516
 7133SOL    HW228298   1.166   0.851   0.698  1.5325  1.2387  0.2112
 7133SOL    HW328299   1.031   0.893   0.751 -0.1923 -2.6701 -0.7115
 7133SOL    MW428300   1.101   0.910   0.703  0.0782 -0.3033  0.3401
 7134SOL     OW28301   3.116   3.083   3.937 -0.6043  0.0424 -0.0541
 7134SOL    HW228302   3.119   3.006   3.994 -0.0677  0.3480  0.3302
 7134SOL    HW328303   3.041   3.066   3.879  0.6990 -1.7621 -1.3590
 7134SOL    MW428304   3.106   3.070   3.937 -0.3616 -0.1554 -0.1755
 7135SOL     OW28305   2.240   2.952   6.063  0.1695  0.5734  0.1680
 7135SOL    HW228306   2.161   2.918   6.020  0.5941 -2.0456  1.2489
 7135SOL    HW328307   2.301   2.968   5.991 -0.4741  0.0901 -0.5044
 7135SOL    MW428308   2.238   2.949   6.048  0.1406  0.1641  0.2219
 7136SOL     OW28309   4.104   0.477   2.022 -0.4454  0.3353 -0.7999
 7136SOL    HW228310   4.020   0.435   2.041 -1.5192  2.0415 -1.4827
 7136SOL    HW328311   4.114   0.470   1.927 -0.4888  1.2748 -0.8873
 7136SOL    MW428312   4.094   0.471   2.012 -0.5928  0.6844 -0.9015
 7137SOL     OW28313   0.635   3.868   1.828 -0.0702 -0.2651  0.0238
 7137SOL    HW228314   0.543   3.859   1.803 -0.2425 -2.6651  1.2133
 7137SOL    HW328315   0.633   3.904   1.916  0.0580 -1.2931  0.4576
 7137SOL    MW428316   0.623   3.871   1.836 -0.0760 -0.7174  0.2380
 7138SOL     OW28317   5.630   5.271   2.012  0.1278 -0.1069  0.0451
 7138SOL    HW228318   5.569   5.342   2.027 -0.5299 -0.4091 -1.0863
 7138SOL    HW328319   5.576   5.197   1.985  0.9640 -0.4722 -0.6887
 7138SOL    MW428320   5.615   5.270   2.011  0.1513 -0.1949 -0.2010
 7139SOL     OW28321   5.079   2.654   5.981 -0.4771  0.0833 -0.3513
 7139SOL    HW228322   5.003   2.701   6.016  0.8110  1.4107  0.8216
 7139SOL    HW328323   5.119   2.716   5.920  0.5850  0.0976  0.3263
 7139SOL    MW428324   5.074   2.669   5.978 -0.1670  0.2603 -0.1071
 7140SOL     OW28325   0.429   3.793   6.411  0.0209 -0.5537  0.0368
 7140SOL    HW228326   0.520   3.782   6.385 -0.3363 -1.1975 -0.9843
 7140SOL    HW328327   0.398   3.868   6.360 -0.7694 -2.0097 -1.6895
 7140SOL    MW428328   0.437   3.802   6.401 -0.1305 -0.8307 -0.3257
 7141SOL     OW28329   3.432   4.006   5.045  0.2161  0.5234  0.6691
 7141SOL    HW228330   3.397   4.018   5.133 -0.9641  1.8376  0.0537
 7141SOL    HW328331   3.395   3.923   5.016  0.8392 -0.0623  1.4908
 7141SOL    MW428332   3.423   3.996   5.053  0.1426  0.6195  0.6963
 7142SOL     OW28333   5.507   1.180   4.889  0.0167  0.0929 -0.8840
 7142SOL    HW228334   5.518   1.088   4.914 -0.9858 -0.0433 -0.9012
 7142SOL    HW328335   5.586   1.201   4.839  0.3086 -0.7223 -0.7800
 7142SOL    MW428336   5.519   1.170   4.886 -0.0771 -0.0326 -0.8726
 7143SOL     OW28337   3.624   2.859   6.385  0.6342  0.1919 -0.0339
 7143SOL    HW228338   3.612   2.787   6.448  1.4857  1.1357  1.2571
 7143SOL    HW328339   3.717   2.883   6.394  0.1169  2.1911  0.3979
 7143SOL    MW428340   3.635   2.852   6.395  0.6783  0.5802  0.1934
 7144SOL     OW28341   5.556   0.961   5.659  0.0978  0.2630  0.0225
 7144SOL    HW228342   5.536   1.009   5.739  1.8326  0.8881  0.1075
 7144SOL    HW328343   5.477   0.970   5.606 -0.6857  0.7235  1.2215
 7144SOL    MW428344   5.543   0.969   5.663  0.2233  0.4062  0.1919
 7145SOL     OW28345   3.994   1.233   1.515  0.0043  0.0996  0.0502
 7145SOL    HW228346   3.963   1.318   1.485  0.1615  0.1896  0.1389
 7145SOL    HW328347   3.984   1.176   1.439 -2.7521 -0.5168  0.7918
 7145SOL    MW428348   3.989   1.237   1.501 -0.3387  0.0302  0.1598
 7146SOL     OW28349   5.969   4.062   2.905 -0.2618 -0.3043 -0.4052
 7146SOL    HW228350   5.873   4.061   2.903 -0.4838 -5.0335  1.0174
 7146SOL    HW328351   5.991   4.071   2.998  0.7225  0.5525 -0.7002
 7146SOL    MW428352   5.959   4.063   2.917 -0.1613 -0.8152 -0.2564
 7147SOL     OW28353   5.209   0.091   1.249  0.2448  0.6001 -0.2401
 7147SOL    HW228354   5.214   0.041   1.168 -0.8400 -1.0602  0.6766
 7147SOL    HW328355   5.279   0.056   1.303 -0.7001 -0.1868  0.5135
 7147SOL    MW428356   5.219   0.080   1.245 -0.0230  0.2772 -0.0197
 7148SOL     OW28357   5.997   0.058   4.915 -0.4802  0.2313  0.2413
 7148SOL    HW228358   6.087   0.089   4.922  0.0812 -1.0736 -0.6916
 7148SOL    HW328359   5.943   0.137   4.919  0.8748  1.3880 -2.4421
 7148SOL    MW428360   6.001   0.072   4.917 -0.2274  0.2118 -0.2358
 7149SOL     OW28361   3.609   3.776   2.295 -0.1591 -0.2237  0.0059
 7149SOL    HW228362   3.605   3.760   2.201 -0.7873  0.1473 -0.0363
 7149SOL    HW328363   3.517   3.778   2.323 -0.0108  0.5419  0.4758
 7149SOL    MW428364   3.596   3.774   2.287 -0.2224 -0.0737  0.0623
 7150SOL     OW28365   2.091   2.874   2.307 -0.4788 -0.2724  0.0742
 7150SOL    HW228366   2.134   2.801   2.263  0.0136 -0.1503  0.3419
 7150SOL    HW328367   2.101   2.948   2.246  1.9577  0.4083  1.1852
 7150SOL    MW428368   2.098   2.874   2.293 -0.0924 -0.1665  0.2561
 7151SOL     OW28369   5.679   2.347   0.098 -0.1241  0.8494  0.4038
 7151SOL    HW228370   5.653   2.368   0.008  1.8499  1.1399 -0.1448
 7151SOL    HW328371   5.672   2.430   0.145  0.4142  1.0808  0.0908
 7151SOL    MW428372   5.675   2.361   0.092  0.2073  0.9183  0.2901
 7152SOL     OW28373   0.058   6.279   4.607  0.0383  0.2376 -0.8440
 7152SOL    HW228374   0.136   6.330   4.630 -1.5616  2.6407 -0.4061
 7152SOL    HW328375   0.035   6.308   4.519  0.4930 -1.6668 -1.6456
 7152SOL    MW428376   0.065   6.289   4.598 -0.1128  0.3034 -0.8920
 7153SOL     OW28377   1.399   0.366   3.288  0.0189 -0.6938  0.7588
 7153SOL    HW228378   1.457   0.338   3.359 -0.4286 -0.7416  1.1090
 7153SOL    HW328379   1.386   0.288   3.235  0.0625 -0.7486  0.8295
 7153SOL    MW428380   1.405   0.352   3.291 -0.0344 -0.7074  0.8143
 7154SOL     OW28381   0.607   2.518   4.777 -0.3771 -0.1250 -0.1422
 7154SOL    HW228382   0.651   2.600   4.759 -1.3804  0.3963 -0.3062
 7154SOL    HW328383   0.562   2.532   4.860 -0.0268 -0.7308  0.1545
 7154SOL    MW428384   0.607   2.530   4.785 -0.4633 -0.1362 -0.1247
 7155SOL     OW28385   0.157   4.011   1.427  0.7949 -0.5711 -0.5476
 7155SOL    HW228386   0.214   3.962   1.368  0.6723  0.2269 -1.3317
 7155SOL    HW328387   0.072   4.010   1.384  1.1712  1.8235 -1.4784
 7155SOL    MW428388   0.153   4.004   1.414  0.8284 -0.1499 -0.7739
 7156SOL     OW28389   4.352   1.278   5.302  0.0932 -0.1250  0.3402
 7156SOL    HW228390   4.391   1.305   5.219 -1.6934  0.2466 -0.4305
 7156SOL    HW328391   4.407   1.319   5.369  0.8496  0.5923 -0.6921
 7156SOL    MW428392   4.364   1.287   5.300 -0.0427  0.0187  0.1024
 7157SOL     OW28393   0.951   4.193   0.049 -0.0580 -0.1039  0.2547
 7157SOL    HW228394   0.976   4.257   0.116 -1.4471  1.6303 -0.7793
 7157SOL    HW328395   1.007   4.213  -0.026 -0.9371  0.3898 -0.2964
 7157SOL    MW428396   0.961   4.204   0.048 -0.3572  0.1900  0.0455
 7158SOL     OW28397   4.572   5.720   6.340  0.0116 -0.1898  0.1606
 7158SOL    HW228398   4.575   5.678   6.255  1.1808 -0.2969  0.2495
 7158SOL    HW328399   4.532   5.654   6.398  0.3994 -0.5956 -0.0312
 7158SOL    MW428400   4.567   5.706   6.337  0.2170 -0.2575  0.1470
 7159SOL     OW28401   6.364   5.779   5.829  0.2845  0.0014  0.0559
 7159SOL    HW228402   6.384   5.712   5.764  0.1987  1.0234 -1.0393
 7159SOL    HW328403   6.340   5.856   5.779 -0.0968  0.7275  1.3012
 7159SOL    MW428404   6.364   5.780   5.814  0.2229  0.2320  0.0757
 7160SOL     OW28405   1.186   5.210   1.996  0.7924 -0.1825  0.4334
 7160SOL    HW228406   1.197   5.272   2.068  0.7719 -0.8657  1.0295
 7160SOL    HW328407   1.190   5.124   2.037 -1.8206 -0.5717 -0.0033
 7160SOL    MW428408   1.188   5.207   2.011  0.4450 -0.3240  0.4544
 7161SOL     OW28409   1.544   0.830   4.814  0.5110 -0.1325 -0.1364
 7161SOL    HW228410   1.506   0.743   4.801 -1.3182  0.7462 -0.9815
 7161SOL    HW328411   1.637   0.819   4.792  0.1203 -1.6445 -1.2010
 7161SOL    MW428412   1.551   0.817   4.809  0.2181 -0.2160 -0.3883
 7162SOL     OW28413   2.701   1.814   5.959 -0.1242  0.0368 -0.7941
 7162SOL    HW228414   2.796   1.805   5.954 -0.1586  0.2379 -2.4954
 7162SOL    HW328415   2.687   1.891   6.015  0.5420 -2.0211  2.4596
 7162SOL    MW428416   2.712   1.823   5.965 -0.0408 -0.2082 -0.5892
 7163SOL     OW28417   5.172   4.328   1.981 -0.1783  0.1267 -0.2858
 7163SOL    HW228418   5.262   4.300   1.996 -0.6326 -0.3825  1.9464
 7163SOL    HW328419   5.125   4.246   1.962 -0.5159  0.0835  0.6689
 7163SOL    MW428420   5.178   4.313   1.980 -0.2828  0.0538  0.1347
 7164SOL     OW28421   6.112   1.823   0.474 -0.0280 -0.1524 -0.1426
 7164SOL    HW228422   6.037   1.863   0.517  1.0731  1.5515  0.2879
 7164SOL    HW328423   6.181   1.825   0.541  0.7643 -0.4975 -0.9330
 7164SOL    MW428424   6.111   1.828   0.489  0.2218  0.0269 -0.1901
 7165SOL     OW28425   3.308   3.996   1.743  0.1340  0.4592 -0.1320
 7165SOL    HW228426   3.290   3.902   1.751 -1.4451  0.7573  0.1385
 7165SOL    HW328427   3.290   4.032   1.830  1.2479  0.9466 -0.0885
 7165SOL    MW428428   3.303   3.988   1.755  0.0726  0.5629 -0.0906
 7166SOL     OW28429   4.137   3.665   0.345 -0.3151 -0.2114  0.6929
 7166SOL    HW228430   4.160   3.722   0.272  1.0548 -1.1918  0.3089
 7166SOL    HW328431   4.062   3.707   0.386 -2.8170 -0.8989 -2.7716
 7166SOL    MW428432   4.130   3.678   0.341 -0.4645 -0.4314  0.1851
 7167SOL     OW28433   4.751   0.698   5.208 -0.1285 -0.7252 -0.4997
 7167SOL    HW228434   4.745   0.776   5.152 -1.5251  0.4483  1.1751
 7167SOL    HW328435   4.835   0.708   5.253 -1.5369  1.5630  1.9546
 7167SOL    MW428436   4.761   0.710   5.207 -0.4986 -0.2685  0.0451
 7168SOL     OW28437   3.951   0.138   0.563  0.1016  0.2225 -0.1931
 7168SOL    HW228438   4.014   0.177   0.624  2.1491 -0.9960 -1.4085
 7168SOL    HW328439   3.875   0.196   0.566  1.6593  2.3365  0.6130
 7168SOL    MW428440   3.949   0.151   0.572  0.5773  0.3406 -0.2471
 7169SOL     OW28441   3.733   0.892   3.828  0.5525  0.4358 -0.4340
 7169SOL    HW228442   3.744   0.847   3.744 -3.8764  0.0993 -1.0758
 7169SOL    HW328443   3.685   0.971   3.806  0.9971  1.3164  1.6199
 7169SOL    MW428444   3.728   0.896   3.814  0.0268  0.5076 -0.2477
 7170SOL     OW28445   5.136   6.040   2.727 -0.3850  0.7073  0.0214
 7170SOL    HW228446   5.085   6.063   2.650 -0.5027  2.5240  0.6074
 7170SOL    HW328447   5.143   6.121   2.777  1.4444  0.0699  0.9077
 7170SOL    MW428448   5.130   6.054   2.723 -0.1591  0.8629  0.2156
 7171SOL     OW28449   5.459   5.525   3.566 -0.1416 -0.0212  1.2038
 7171SOL    HW228450   5.469   5.467   3.641  1.6051 -0.8458  0.4190
 7171SOL    HW328451   5.440   5.465   3.493 -2.2444  0.7958  1.0175
 7171SOL    MW428452   5.458   5.509   3.566 -0.1885 -0.0222  1.0757
 7172SOL     OW28453   2.814   5.698   6.062  0.0119 -0.0852  0.5487
 7172SOL    HW228454   2.903   5.718   6.091 -0.0941  0.8156  0.2715
 7172SOL    HW328455   2.765   5.779   6.077 -0.8621 -0.6952  1.0708
 7172SOL    MW428456   2.820   5.711   6.068 -0.1174 -0.0468  0.5810
 7173SOL     OW28457   2.940   1.406   2.695  0.1590  0.0627  0.4353
 7173SOL    HW228458   3.001   1.480   2.698  2.1515 -1.5306  1.4614
 7173SOL    HW328459   2.934   1.383   2.602  0.0811  1.0438  0.1856
 7173SOL    MW428460   2.947   1.413   2.683  0.4116 -0.0181  0.5378
 7174SOL     OW28461   1.545   1.009   0.252 -0.0037 -0.4340  0.2890
 7174SOL    HW228462   1.463   1.043   0.287  1.1720  0.2681  2.5922
 7174SOL    HW328463   1.582   0.957   0.323  2.1238  0.2979 -0.2019
 7174SOL    MW428464   1.539   1.007   0.266  0.4321 -0.2448  0.5281
 7175SOL     OW28465   4.972   2.492   2.721  0.0289 -0.5591  0.2061
 7175SOL    HW228466   4.954   2.583   2.698  1.6259 -0.3426 -0.3358
 7175SOL    HW328467   5.020   2.497   2.804 -0.1920 -0.9372  0.3604
 7175SOL    MW428468   4.976   2.504   2.729  0.2105 -0.5804  0.1550
 7176SOL     OW28469   0.996   2.145   1.983 -0.2719  0.1577  0.2555
 7176SOL    HW228470   1.034   2.106   2.062 -2.1149 -2.0159  0.1424
 7176SOL    HW328471   1.024   2.237   1.987 -0.0515  0.0712  3.2736
 7176SOL    MW428472   1.005   2.152   1.994 -0.4860 -0.1405  0.6388
 7177SOL     OW28473   0.230   2.253   1.131  0.4270 -0.7225  0.8222
 7177SOL    HW228474   0.258   2.177   1.081 -0.7607 -1.9638  1.9541
 7177SOL    HW328475   0.137   2.237   1.149 -0.7243  2.4410 -1.4609
 7177SOL    MW428476   0.222   2.241   1.127  0.1184 -0.4689  0.6703
 7178SOL     OW28477   3.827   2.908   3.889 -0.3164 -0.4622 -0.4384
 7178SOL    HW228478   3.880   2.832   3.913 -1.1569 -0.8290  0.3448
 7178SOL    HW328479   3.875   2.950   3.818  1.0069 -0.7828  0.2338
 7178SOL    MW428480   3.840   2.903   3.883 -0.2527 -0.5529 -0.2464
 7179SOL     OW28481   0.169   4.589   5.283 -0.2386  0.3672 -0.4965
 7179SOL    HW228482   0.115   4.646   5.337 -1.4097 -0.2672 -0.9391
 7179SOL    HW328483   0.233   4.552   5.343 -0.7446  0.6047  0.2076
 7179SOL    MW428484   0.170   4.591   5.298 -0.4599  0.3148 -0.4620
 7180SOL     OW28485   1.402   0.814   3.420 -0.5405  0.6490 -0.0941
 7180SOL    HW228486   1.468   0.746   3.431 -1.4124  0.0406  1.9936
 7180SOL    HW328487   1.394   0.825   3.326  0.6734 -1.1057 -0.4567
 7180SOL    MW428488   1.409   0.806   3.409 -0.4954  0.3372  0.1335
 7181SOL     OW28489   1.123   4.877   0.276  0.7836  0.1607 -0.2232
 7181SOL    HW228490   1.167   4.888   0.192  1.0746  1.8615  0.1188
 7181SOL    HW328491   1.187   4.904   0.341 -0.2480  1.2412  0.3818
 7181SOL    MW428492   1.137   4.882   0.273  0.6859  0.5276 -0.0982
 7182SOL     OW28493   2.544   3.931   4.578 -0.5364  0.0640  0.3310
 7182SOL    HW228494   2.499   3.920   4.494  1.6509 -1.8159 -0.6869
 7182SOL    HW328495   2.546   4.026   4.592  0.3247  0.5510 -2.5080
 7182SOL    MW428496   2.538   3.942   4.569 -0.1342 -0.1198 -0.1779
 7183SOL     OW28497   3.201   0.908   0.107 -0.2820  0.2659  0.3347
 7183SOL    HW228498   3.120   0.918   0.056 -0.0730  0.9887  0.1293
 7183SOL    HW328499   3.178   0.847   0.177 -0.7548 -0.2441 -0.2421
 7183SOL    MW428500   3.187   0.901   0.109 -0.3168  0.2940  0.2315
 7184SOL     OW28501   3.771   2.019   0.107 -0.1652  0.0742 -0.4892
 7184SOL    HW228502   3.849   2.069   0.083 -0.1131  0.3084  0.1495
 7184SOL    HW328503   3.801   1.960   0.176 -0.7614  0.8370  0.4408
 7184SOL    MW428504   3.785   2.018   0.113 -0.2370  0.2058 -0.2822
 7185SOL     OW28505   4.126   5.854   4.159  0.5685 -0.6996  0.1231
 7185SOL    HW228506   4.200   5.898   4.118  0.1488  0.3483  0.4507
 7185SOL    HW328507   4.161   5.822   4.242  0.6633 -0.2276  0.2676
 7185SOL    MW428508   4.140   5.855   4.165  0.5256 -0.4991  0.1854
 7186SOL     OW28509   1.075   4.198   3.959  0.1009  0.3070  0.1116
 7186SOL    HW228510   1.067   4.152   3.875 -0.6238  2.8280 -1.3022
 7186SOL    HW328511   0.990   4.186   4.000  0.6441 -1.4283  0.8329
 7186SOL    MW428512   1.063   4.190   3.953  0.0770  0.4107  0.0202
 7187SOL     OW28513   2.796   0.300   2.841  0.0300  0.2196  0.3725
 7187SOL    HW228514   2.773   0.246   2.916 -0.4083 -0.9599 -0.5727
 7187SOL    HW328515   2.805   0.388   2.876 -3.6003  0.3781  1.2367
 7187SOL    MW428516   2.794   0.304   2.856 -0.5068  0.0849  0.3618
 7188SOL     OW28517   6.284   4.054   2.281  0.0985  0.1658 -0.1031
 7188SOL    HW228518   6.329   3.974   2.254 -0.8219 -0.6275  0.5894
 7188SOL    HW328519   6.250   4.033   2.369 -0.7834  1.0492 -0.2147
 7188SOL    MW428520   6.285   4.040   2.289 -0.1393  0.1777 -0.0264
 7189SOL     OW28521   4.019   0.665   3.688  0.4109 -0.5521 -1.0105
 7189SOL    HW228522   4.011   0.590   3.748 -1.9522  0.3797 -0.0498
 7189SOL    HW328523   3.930   0.682   3.659  1.0855  1.0907 -2.2722
 7189SOL    MW428524   4.007   0.657   3.692  0.1882 -0.2124 -1.0503
 7190SOL     OW28525   0.290   1.312   6.183 -0.4240 -0.0523  0.0160
 7190SOL    HW228526   0.351   1.258   6.132 -0.7563  1.1322 -1.6986
 7190SOL    HW328527   0.323   1.401   6.175 -1.5144  0.4036  0.3566
 7190SOL    MW428528   0.302   1.316   6.175 -0.6117  0.1641 -0.1653
 7191SOL     OW28529   1.546   5.238   1.022  0.2243 -0.0281  0.2811
 7191SOL    HW228530   1.592   5.316   1.054 -2.9125  1.7026  1.0018
 7191SOL    HW328531   1.494   5.208   1.097 -1.0010 -0.9099 -0.8742
 7191SOL    MW428532   1.545   5.245   1.036 -0.3512  0.0839  0.2238
 7192SOL     OW28533   0.805   6.244   0.855  0.1401 -0.2674  0.1684
 7192SOL    HW228534   0.850   6.284   0.781  2.5135 -0.3732  1.4468
 7192SOL    HW328535   0.727   6.298   0.868  0.8919  1.1646 -0.9338
 7192SOL    MW428536   0.801   6.256   0.847  0.5524 -0.0924  0.1917
 7193SOL     OW28537   6.361   5.833   6.090 -0.5070  0.7815  0.3462
 7193SOL    HW228538   6.423   5.774   6.134  1.6765  1.6528 -1.3456
 7193SOL    HW328539   6.375   5.817   5.997 -2.0262  1.8816 -0.1153
 7193SOL    MW428540   6.371   5.823   6.083 -0.4194  1.0416  0.0621
 7194SOL     OW28541   4.258   1.375   1.190  0.1288  0.5456 -0.5319
 7194SOL    HW228542   4.192   1.438   1.217  0.4606  1.1821 -1.1725
 7194SOL    HW328543   4.306   1.354   1.271 -0.9786 -0.0921 -0.0274
 7194SOL    MW428544   4.256   1.380   1.205  0.0265  0.5454 -0.5498
 7195SOL     OW28545   4.462   2.897   1.227  0.0460  0.4363  0.0291
 7195SOL    HW228546   4.466   2.899   1.323 -1.1838  0.9552  0.0987
 7195SOL    HW328547   4.533   2.955   1.199  0.8320 -0.2351  0.5997
 7195SOL    MW428548   4.472   2.905   1.236 -0.0126  0.4162  0.1136
 7196SOL     OW28549   5.698   5.457   0.075 -0.5312  0.0552 -0.4054
 7196SOL    HW228550   5.641   5.396   0.120 -0.7529  0.7375  0.2607
 7196SOL    HW328551   5.644   5.536   0.062  0.3802  0.8933  0.6802
 7196SOL    MW428552   5.684   5.460   0.079 -0.4402  0.2558 -0.1743
 7197SOL     OW28553   1.717   5.360   3.379  0.2589 -0.2536 -0.0180
 7197SOL    HW228554   1.777   5.343   3.306 -0.4406 -1.9072 -0.2540
 7197SOL    HW328555   1.770   5.350   3.457  0.1946 -2.3695 -0.2031
 7197SOL    MW428556   1.732   5.357   3.379  0.1581 -0.7509 -0.0735
 7198SOL     OW28557   1.598   4.436   3.484  0.4866 -0.7659 -0.4847
 7198SOL    HW228558   1.590   4.531   3.485 -2.0859 -0.9377  0.4010
 7198SOL    HW328559   1.576   4.412   3.394  1.5312 -0.5332 -0.8190
 7198SOL    MW428560   1.594   4.445   3.472  0.2851 -0.7579 -0.4119
 7199SOL     OW28561   3.731   2.606   1.362 -0.0870  0.4679 -0.7815
 7199SOL    HW228562   3.674   2.683   1.355 -0.9290 -0.2785 -2.9649
 7199SOL    HW328563   3.754   2.585   1.272  0.7283 -1.4203 -0.1875
 7199SOL    MW428564   3.726   2.613   1.349 -0.0905  0.1203 -0.9912
 7200SOL     OW28565   4.419   4.111   4.253  0.5802 -0.5927 -0.0206
 7200SOL    HW228566   4.344   4.168   4.238 -0.5762 -1.9372  0.5038
 7200SOL    HW328567   4.431   4.064   4.171  0.2411 -1.0666  0.1983
 7200SOL    MW428568   4.411   4.113   4.241  0.3829 -0.8326  0.0775
 7201SOL     OW28569   0.563   3.534   4.015 -0.5055  0.1315 -0.2108
 7201SOL    HW228570   0.607   3.544   3.931  1.5842 -1.4669  0.5890
 7201SOL    HW328571   0.470   3.530   3.994 -0.0340 -0.2445 -2.4258
 7201SOL    MW428572   0.557   3.535   4.001 -0.1676 -0.1290 -0.3975
 7202SOL     OW28573   1.913   3.481   2.108  0.0877  0.3758 -0.3003
 7202SOL    HW228574   1.962   3.552   2.148 -0.7661  0.2162  1.0861
 7202SOL    HW328575   1.854   3.524   2.046  1.1667  0.6535 -1.1735
 7202SOL    MW428576   1.912   3.496   2.105  0.1174  0.3914 -0.2326
 7203SOL     OW28577   3.954   0.242   2.377  0.1926  0.3878 -0.2142
 7203SOL    HW228578   3.968   0.243   2.282  0.4734  1.6460 -0.1773
 7203SOL    HW328579   4.041   0.230   2.414  0.0742 -0.1777 -0.1001
 7203SOL    MW428580   3.967   0.240   2.369  0.2141  0.4792 -0.1943
 7204SOL     OW28581   1.927   6.289   4.528  0.1762 -0.2500  0.0356
 7204SOL    HW228582   1.911   6.316   4.619  0.9756  0.7718 -0.1087
 7204SOL    HW328583   1.844   6.250   4.500 -0.1503 -0.4019  1.1339
 7204SOL    MW428584   1.914   6.287   4.536  0.2386 -0.1352  0.1614
 7205SOL     OW28585   1.522   2.783   6.052  0.2384  0.2740  0.5196
 7205SOL    HW228586   1.479   2.799   6.136 -0.5636 -2.8186  0.8245
 7205SOL    HW328587   1.581   2.709   6.070  1.3474  0.6755 -1.2645
 7205SOL    MW428588   1.524   2.775   6.065  0.2789 -0.0810  0.3245
 7206SOL     OW28589   5.781   1.348   5.250 -0.2768  0.0891 -0.2702
 7206SOL    HW228590   5.812   1.386   5.168  1.8975 -0.8391  0.0552
 7206SOL    HW328591   5.735   1.268   5.224 -0.4774  0.3235 -0.6413
 7206SOL    MW428592   5.779   1.343   5.236 -0.0164 -0.0024 -0.2762
 7207SOL     OW28593   3.430   4.756   1.585 -0.2106  0.2901 -0.2361
 7207SOL    HW228594   3.521   4.785   1.578 -0.2911  0.1658 -2.2334
 7207SOL    HW328595   3.388   4.823   1.640  0.4927  1.8868 -1.5378
 7207SOL    MW428596   3.436   4.769   1.592 -0.1284  0.4844 -0.6714
 7208SOL     OW28597   3.180   1.423   1.255 -0.3858  0.2295  0.4764
 7208SOL    HW228598   3.213   1.504   1.293 -0.1953  0.1319  0.5220
 7208SOL    HW328599   3.257   1.365   1.252 -0.8357 -0.4854  1.8619
 7208SOL    MW428600   3.195   1.426   1.260 -0.4201  0.1223  0.6652
 7209SOL     OW28601   1.000   1.517   1.033  0.3672  0.0911  0.0278
 7209SOL    HW228602   0.948   1.455   0.981 -2.3643  1.6730  0.6637
 7209SOL    HW328603   0.984   1.491   1.123  0.9971  0.4097  0.2370
 7209SOL    MW428604   0.991   1.505   1.038  0.0899  0.3418  0.1393
 7210SOL     OW28605   4.211   5.008   0.918 -0.4241 -0.4354  0.2467
 7210SOL    HW228606   4.235   4.939   0.979 -0.3070 -2.2802 -1.7726
 7210SOL    HW328607   4.278   5.005   0.849 -0.6645  1.4142 -0.1422
 7210SOL    MW428608   4.223   4.999   0.917 -0.4404 -0.4348 -0.0710
 7211SOL     OW28609   4.806   0.237   5.326  0.3206 -0.0626  0.1158
 7211SOL    HW228610   4.715   0.209   5.316  1.2558 -2.5052 -3.7379
 7211SOL    HW328611   4.823   0.290   5.249  2.0548  0.8094  1.0466
 7211SOL    MW428612   4.796   0.240   5.315  0.6728 -0.2699 -0.2698
 7212SOL     OW28613   2.939   5.429   3.185 -0.2548  0.4903 -0.2720
 7212SOL    HW228614   2.949   5.376   3.264  0.6019  2.3026  0.9247
 7212SOL    HW328615   2.869   5.491   3.207 -1.0728  0.0360 -1.5305
 7212SOL    MW428616   2.931   5.430   3.198 -0.2497  0.6695 -0.2802
 7213SOL     OW28617   4.681   4.947   4.634  0.2713 -0.3305 -0.4779
 7213SOL    HW228618   4.702   4.859   4.604  1.6979 -1.3427  2.9321
 7213SOL    HW328619   4.736   5.005   4.581  0.1325 -1.5643 -2.0232
 7213SOL    MW428620   4.691   4.943   4.623  0.4412 -0.6268 -0.2319
 7214SOL     OW28621   5.993   3.903   2.323 -0.0506 -0.0832  0.1916
 7214SOL    HW228622   5.950   3.871   2.402 -0.1655  0.5311  0.3856
 7214SOL    HW328623   6.060   3.837   2.302 -0.8897 -0.9000  0.0493
 7214SOL    MW428624   5.997   3.890   2.330 -0.1765 -0.1099  0.1984
 7215SOL     OW28625   6.352   3.542   3.686 -0.0312 -0.0378  0.5739
 7215SOL    HW228626   6.428   3.597   3.668  0.2421 -1.1335 -2.0404
 7215SOL    HW328627   6.361   3.519   3.779  2.5795  0.2664  0.4816
 7215SOL    MW428628   6.363   3.546   3.696  0.3493 -0.1422  0.2168
 7216SOL     OW28629   4.287   4.658   0.451 -0.6329 -0.0993  0.8513
 7216SOL    HW228630   4.351   4.649   0.522  0.2375 -1.5108 -0.0768
 7216SOL    HW328631   4.302   4.583   0.395 -1.4197  0.8904 -0.7645
 7216SOL    MW428632   4.298   4.647   0.453 -0.6218 -0.1550  0.5156
 7217SOL     OW28633   5.155   2.344   0.166 -0.3673 -0.1625  0.1293
 7217SOL    HW228634   5.211   2.278   0.125  0.2614  0.2105  0.3684
 7217SOL    HW328635   5.114   2.389   0.092 -0.4719 -0.5354 -0.0437
 7217SOL    MW428636   5.157   2.341   0.151 -0.2982 -0.1625  0.1380
 7218SOL     OW28637   6.351   1.565   4.143 -0.2313  0.0870 -0.1715
 7218SOL    HW228638   6.274   1.568   4.086 -0.1333 -0.6630 -0.3588
 7218SOL    HW328639   6.408   1.499   4.103  0.5880  0.7421 -0.1305
 7218SOL    MW428640   6.349   1.557   4.130 -0.1103  0.0745 -0.1908
 7219SOL     OW28641   0.993   4.050   5.378 -0.3682 -0.1380 -0.4411
 7219SOL    HW228642   1.060   3.982   5.387 -1.6141 -1.3898 -0.2673
 7219SOL    HW328643   1.030   4.111   5.314  2.3818  1.0897  2.1182
 7219SOL    MW428644   1.007   4.049   5.370 -0.1697 -0.1412 -0.0805
 7220SOL     OW28645   2.090   5.384   0.992  0.0634  0.2144  0.2924
 7220SOL    HW228646   2.077   5.376   1.086 -0.1045  2.1606  0.4760
 7220SOL    HW328647   2.003   5.401   0.957 -0.5214 -3.8890 -0.7459
 7220SOL    MW428648   2.077   5.385   1.000 -0.0359 -0.0702  0.1796
 7221SOL     OW28649   2.240   5.141   2.301 -0.1818 -0.0790 -0.0800
 7221SOL    HW228650   2.286   5.072   2.253  1.4242  0.1279  1.0780
 7221SOL    HW328651   2.154   5.147   2.259  0.5155 -1.1222 -1.7342
 7221SOL    MW428652   2.235   5.133   2.289  0.1221 -0.1893 -0.1455
 7222SOL     OW28653   3.498   1.955   1.331  0.3258 -0.5743  0.0392
 7222SOL    HW228654   3.469   1.896   1.262 -0.0778  0.5699 -0.8024
 7222SOL    HW328655   3.494   2.042   1.292  2.8761 -0.1340  0.5755
 7222SOL    MW428656   3.494   1.959   1.317  0.6090 -0.3653 -0.0010
 7223SOL     OW28657   6.128   4.148   5.606  0.2817 -0.4760 -0.1055
 7223SOL    HW228658   6.060   4.080   5.605  0.3314 -0.5262 -1.5481
 7223SOL    HW328659   6.175   4.136   5.524 -0.0857  1.6782 -0.6771
 7223SOL    MW428660   6.125   4.137   5.595  0.2397 -0.1984 -0.3713
 7224SOL     OW28661   4.378   5.538   4.656  0.7142 -0.0857  0.3370
 7224SOL    HW228662   4.288   5.526   4.626  1.1208  0.9390 -1.4314
 7224SOL    HW328663   4.371   5.597   4.730 -0.1030 -0.3679  0.4903
 7224SOL    MW428664   4.365   5.544   4.662  0.6600  0.0123  0.1239
 7225SOL     OW28665   5.620   0.601   1.730  0.2666  0.1688 -0.1513
 7225SOL    HW228666   5.527   0.614   1.714  0.2816  0.4578 -0.0109
 7225SOL    HW328667   5.656   0.690   1.734  0.3830  0.0854  0.7954
 7225SOL    MW428668   5.613   0.614   1.728  0.2840  0.1959 -0.0079
 7226SOL     OW28669   4.818   3.365   4.897 -0.7896 -0.6685  0.2716
 7226SOL    HW228670   4.866   3.368   4.814 -0.2281  1.8922  0.6208
 7226SOL    HW328671   4.849   3.285   4.939  2.4327  0.2742  0.0019
 7226SOL    MW428672   4.828   3.355   4.892 -0.2904 -0.2063  0.2821
 7227SOL     OW28673   4.185   4.603   2.897 -0.3059  0.5498  0.5988
 7227SOL    HW228674   4.276   4.596   2.867 -0.5759  0.9218 -0.3372
 7227SOL    HW328675   4.137   4.539   2.845 -0.3798 -0.6343  2.0458
 7227SOL    MW428676   4.191   4.594   2.886 -0.3512  0.4427  0.6663
 7228SOL     OW28677   1.976   6.037   3.303  0.1667 -0.0607  0.3052
 7228SOL    HW228678   2.028   6.075   3.232  0.2270  0.4250  0.6003
 7228SOL    HW328679   2.033   5.971   3.342 -0.6581 -1.9449 -1.4892
 7228SOL    MW428680   1.990   6.034   3.298  0.0659 -0.2452  0.1074
 7229SOL     OW28681   4.491   4.048   0.617  0.1488  0.5333  0.1082
 7229SOL    HW228682   4.442   4.127   0.594 -1.3683 -0.6723 -1.0558
 7229SOL    HW328683   4.571   4.080   0.659 -0.8206  2.6451  0.4730
 7229SOL    MW428684   4.495   4.062   0.619 -0.1792  0.6528  0.0027
 7230SOL     OW28685   3.469   4.862   0.355  0.1265 -0.1493 -0.2260
 7230SOL    HW228686   3.474   4.890   0.446  0.9238 -0.6532 -0.1133
 7230SOL    HW328687   3.520   4.927   0.307  2.2989 -1.5404  0.0817
 7230SOL    MW428688   3.476   4.874   0.360  0.5183 -0.3994 -0.1705
 7231SOL     OW28689   3.643   6.330   2.151  0.0889 -0.0653 -0.0634
 7231SOL    HW228690   3.703   6.338   2.076  0.5467  2.3972  0.4632
 7231SOL    HW328691   3.558   6.311   2.111  0.4950  0.3310 -1.1677
 7231SOL    MW428692   3.640   6.329   2.136  0.2028  0.3119 -0.1396
 7232SOL     OW28693   5.559   1.551   4.724 -0.0032  0.5795  0.3551
 7232SOL    HW228694   5.511   1.627   4.758  0.1317  0.3733  1.0348
 7232SOL    HW328695   5.541   1.482   4.788 -0.4637 -0.0865 -0.4749
 7232SOL    MW428696   5.550   1.552   4.737 -0.0461  0.4644  0.3353
 7233SOL     OW28697   6.235   2.250   0.630  0.3948 -0.3554 -0.1551
 7233SOL    HW228698   6.216   2.199   0.552  0.4177  0.7416 -0.9094
 7233SOL    HW328699   6.327   2.275   0.621  0.2195  0.3366 -0.1219
 7233SOL    MW428700   6.245   2.247   0.619  0.3747 -0.1194 -0.2503
 7234SOL     OW28701   3.260   3.336   0.967 -0.2316  0.2316  0.6868
 7234SOL    HW228702   3.238   3.308   1.056  1.3307 -0.5250  0.8614
 7234SOL    HW328703   3.207   3.279   0.910 -1.1590  0.6525  1.0993
 7234SOL    MW428704   3.250   3.324   0.971 -0.1478  0.1873  0.7643
 7235SOL     OW28705   3.667   1.764   4.450 -0.0188  0.3532 -0.4472
 7235SOL    HW228706   3.743   1.709   4.469  0.8943  1.5704 -0.3894
 7235SOL    HW328707   3.704   1.853   4.442 -1.7472  1.4062  2.0715
 7235SOL    MW428708   3.682   1.769   4.452 -0.1264  0.6527 -0.1073
 7236SOL     OW28709   6.106   3.706   3.667 -0.2928  0.1045  0.5340
 7236SOL    HW228710   6.031   3.663   3.708 -0.3544 -0.3198 -0.0169
 7236SOL    HW328711   6.180   3.650   3.688  0.0065  0.9125  1.7093
 7236SOL    MW428712   6.106   3.693   3.675 -0.2615  0.1551  0.6164
 7237SOL     OW28713   1.362   1.596   2.883 -0.3999  0.0894  0.3148
 7237SOL    HW228714   1.390   1.677   2.927  0.1648  0.2267 -0.2796
 7237SOL    HW328715   1.401   1.526   2.936  0.5525  0.2631 -0.1401
 7237SOL    MW428716   1.371   1.598   2.896 -0.1997  0.1304  0.1764
 7238SOL     OW28717   1.992   6.301   0.554 -0.2554 -0.2188  0.4104
 7238SOL    HW228718   1.969   6.293   0.647  2.2857 -2.3233  0.9704
 7238SOL    HW328719   2.012   6.212   0.526 -1.4939  0.2687 -2.4001
 7238SOL    MW428720   1.991   6.288   0.563 -0.0835 -0.4322  0.1135
 7239SOL     OW28721   2.132   3.848   1.647 -0.2885  0.0404  0.2979
 7239SOL    HW228722   2.057   3.851   1.588 -1.2723 -1.4769  1.3908
 7239SOL    HW328723   2.130   3.760   1.685  1.1672  0.4681  1.4824
 7239SOL    MW428724   2.122   3.837   1.644 -0.2262 -0.1034  0.5984
 7240SOL     OW28725   5.258   3.003   5.477 -0.1567 -0.5656  0.3178
 7240SOL    HW228726   5.184   3.060   5.499 -0.4630 -0.6363 -0.4899
 7240SOL    HW328727   5.239   2.921   5.521  0.5736  0.1047  1.9778
 7240SOL    MW428728   5.245   3.000   5.485 -0.1007 -0.4865  0.4302
 7241SOL     OW28729   1.892   2.274   3.321  0.3268  0.2720  0.2158
 7241SOL    HW228730   1.871   2.244   3.232 -0.7761 -0.4680  0.7051
 7241SOL    HW328731   1.875   2.369   3.318  0.7943  0.3434 -0.4906
 7241SOL    MW428732   1.887   2.283   3.309  0.2429  0.1838  0.1871
 7242SOL     OW28733   3.153   1.585   3.940  0.2566 -0.0601 -0.1712
 7242SOL    HW228734   3.173   1.499   3.978  0.0608 -1.4436 -2.9507
 7242SOL    HW328735   3.233   1.611   3.895 -0.4974 -0.0790 -1.5749
 7242SOL    MW428736   3.166   1.577   3.939  0.1313 -0.2451 -0.7231
 7243SOL     OW28737   5.912   4.741   2.018  0.4332 -0.1839  0.1554
 7243SOL    HW228738   5.865   4.816   1.980 -0.0331 -0.8855 -0.7131
 7243SOL    HW328739   5.948   4.774   2.100  1.2581  1.3462 -0.7592
 7243SOL    MW428740   5.911   4.755   2.024  0.4805 -0.0746 -0.0799
 7244SOL     OW28741   1.938   5.690   0.933  0.1015  0.4869 -0.0607
 7244SOL    HW228742   1.865   5.747   0.910  2.1429  2.3369 -2.6440
 7244SOL    HW328743   1.948   5.700   1.028 -1.7132  1.7196  0.0518
 7244SOL    MW428744   1.930   5.699   0.943  0.1314  0.8936 -0.3867
 7245SOL     OW28745   3.762   1.143   6.346 -0.4851  0.2461 -0.0479
 7245SOL    HW228746   3.781   1.223   6.298  0.1719 -0.2774 -0.6924
 7245SOL    HW328747   3.686   1.164   6.400 -1.8460  0.6093 -1.9992
 7245SOL    MW428748   3.754   1.156   6.347 -0.5780  0.2250 -0.3904
 7246SOL     OW28749   4.097   3.190   0.297 -0.4910 -0.0455  0.3652
 7246SOL    HW228750   4.117   3.269   0.347  0.6577 -0.6940  0.9552
 7246SOL    HW328751   4.038   3.140   0.354 -1.3880  0.4632 -0.0958
 7246SOL    MW428752   4.092   3.194   0.311 -0.4578 -0.0640  0.3823
 7247SOL     OW28753   2.302   1.734   2.749 -0.7439 -0.4858 -0.3262
 7247SOL    HW228754   2.218   1.699   2.777 -0.7071 -0.3622 -0.0502
 7247SOL    HW328755   2.354   1.737   2.830 -1.7509  3.1353  0.3614
 7247SOL    MW428756   2.298   1.730   2.764 -0.8719  0.0082 -0.1990
 7248SOL     OW28757   1.663   5.479   6.408  0.0316 -0.0753 -0.3861
 7248SOL    HW228758   1.696   5.390   6.392  0.3654  0.0564 -0.4246
 7248SOL    HW328759   1.608   5.497   6.331  1.1934  0.3435 -1.1508
 7248SOL    MW428760   1.660   5.469   6.395  0.2289 -0.0027 -0.4921
 7249SOL     OW28761   5.394   3.185   2.347 -0.0417 -0.0163 -0.1462
 7249SOL    HW228762   5.352   3.124   2.287 -0.8446 -0.0010  0.3831
 7249SOL    HW328763   5.342   3.265   2.341 -1.0712 -0.5013  1.6617
 7249SOL    MW428764   5.382   3.188   2.338 -0.2834 -0.0783  0.1621
 7250SOL     OW28765   4.940   4.070   3.104 -0.2261  0.0298  0.2379
 7250SOL    HW228766   4.880   4.097   3.173 -1.2726  0.8738 -0.9663
 7250SOL    HW328767   4.884   4.045   3.031  0.8066 -2.1716  0.1011
 7250SOL    MW428768   4.925   4.070   3.103 -0.2280 -0.1493  0.0610
 7251SOL     OW28769   1.253   3.936   2.923 -0.6647  0.2228 -0.1692
 7251SOL    HW228770   1.269   4.014   2.975  2.0885  0.5349 -1.3093
 7251SOL    HW328771   1.325   3.877   2.943 -0.5473 -0.4185 -2.1708
 7251SOL    MW428772   1.264   3.938   2.932 -0.2860  0.1794 -0.5837
 7252SOL     OW28773   2.393   1.586   5.449  0.0060 -0.1064  0.9103
 7252SOL    HW228774   2.476   1.617   5.484 -0.2080  2.2562 -0.4604
 7252SOL    HW328775   2.357   1.530   5.518  1.8094  0.4234  2.3571
 7252SOL    MW428776   2.399   1.583   5.463  0.2157  0.2752  0.9203
 7253SOL     OW28777   1.154   6.366   5.146 -0.5321  0.6164  0.2496
 7253SOL    HW228778   1.189   6.396   5.230  1.7841 -1.3291  0.1017
 7253SOL    HW328779   1.131   6.275   5.161 -0.7252  0.4336 -1.0406
 7253SOL    MW428780   1.156   6.358   5.159 -0.2520  0.3356  0.0599
 7254SOL     OW28781   5.539   5.623   6.141  0.6128  0.5078 -0.2134
 7254SOL    HW228782   5.519   5.612   6.234  1.8983 -0.2646  0.0086
 7254SOL    HW328783   5.481   5.692   6.111 -0.3993  0.2011  0.9711
 7254SOL    MW428784   5.529   5.631   6.149  0.6489  0.3654 -0.0278
 7255SOL     OW28785   4.851   0.354   1.967  0.2285 -0.9885  0.2849
 7255SOL    HW228786   4.823   0.408   2.042 -0.3205 -1.1610  0.2053
 7255SOL    HW328787   4.815   0.398   1.891  1.7203 -0.1808 -0.0096
 7255SOL    MW428788   4.843   0.367   1.967  0.3528 -0.9047  0.2355
 7256SOL     OW28789   6.225   0.811   0.570  0.6680 -0.0194  0.3975
 7256SOL    HW228790   6.278   0.891   0.568 -0.6752  0.8695 -0.6636
 7256SOL    HW328791   6.248   0.765   0.489 -0.1689  0.3753 -0.0723
 7256SOL    MW428792   6.235   0.816   0.559  0.3803  0.1499  0.1955
 7257SOL     OW28793   0.976   0.368   5.137  0.2942  0.1466  0.1650
 7257SOL    HW228794   0.990   0.461   5.119 -2.0800  0.7663  1.0891
 7257SOL    HW328795   1.036   0.347   5.208 -0.1037  1.3782  0.8953
 7257SOL    MW428796   0.986   0.378   5.144 -0.0716  0.3908  0.3833
 7258SOL     OW28797   0.318   5.408   3.364  0.0842  0.3746  0.2689
 7258SOL    HW228798   0.295   5.491   3.406  0.0991 -0.2217  1.4937
 7258SOL    HW328799   0.362   5.358   3.432  1.3092 -0.1291 -0.8473
 7258SOL    MW428800   0.321   5.413   3.378  0.2478  0.2294  0.2832
 7259SOL     OW28801   5.725   3.280   0.459 -0.1161 -0.2741  0.4198
 7259SOL    HW228802   5.791   3.292   0.390 -0.7519  0.4289 -0.0900
 7259SOL    HW328803   5.752   3.341   0.528 -0.0816 -0.1816  0.3260
 7259SOL    MW428804   5.737   3.289   0.459 -0.1955 -0.1691  0.3402
 7260SOL     OW28805   5.063   0.629   1.672  0.7840 -0.0693  0.3382
 7260SOL    HW228806   5.076   0.546   1.717  0.1330  0.2593  1.1399
 7260SOL    HW328807   5.008   0.607   1.596  1.4785 -0.5347 -0.0454
 7260SOL    MW428808   5.058   0.615   1.668  0.7898 -0.0874  0.3934
 7261SOL     OW28809   4.546   2.447   1.925  0.0047  0.0443  0.3978
 7261SOL    HW228810   4.633   2.409   1.938  0.4624  0.2775 -1.7199
 7261SOL    HW328811   4.545   2.476   1.834 -1.6360  1.7751  0.8951
 7261SOL    MW428812   4.557   2.446   1.915 -0.1514  0.3034  0.1840
 7262SOL     OW28813   2.554   3.502   0.068 -0.3059 -0.1904  0.5018
 7262SOL    HW228814   2.611   3.498  -0.009  1.0045 -1.5145  1.4976
 7262SOL    HW328815   2.544   3.411   0.096 -0.6809  0.2669  1.9684
 7262SOL    MW428816   2.560   3.490   0.061 -0.1825 -0.3048  0.8267
 7263SOL     OW28817   5.881   0.926   0.518  0.6386 -0.1047 -0.2760
 7263SOL    HW228818   5.825   0.971   0.454 -1.2422 -1.5524  0.2645
 7263SOL    HW328819   5.956   0.897   0.466 -0.1284  0.0417 -1.5282
 7263SOL    MW428820   5.884   0.928   0.502  0.2893 -0.2764 -0.3699
 7264SOL     OW28821   4.336   4.516   3.376 -0.7853 -0.4422 -0.3164
 7264SOL    HW228822   4.312   4.549   3.290 -1.9783  0.0857  0.1991
 7264SOL    HW328823   4.382   4.589   3.418 -0.8964 -0.4276 -0.2202
 7264SOL    MW428824   4.339   4.530   3.370 -0.9574 -0.3706 -0.2357
 7265SOL     OW28825   1.687   3.721   1.154 -0.3172 -0.3415  0.1531
 7265SOL    HW228826   1.608   3.757   1.114  0.5108  1.1092 -0.2520
 7265SOL    HW328827   1.744   3.699   1.080  1.4562  2.8817  0.3583
 7265SOL    MW428828   1.684   3.723   1.139  0.0260  0.2752  0.1267
 7266SOL     OW28829   0.058   5.634   2.704  0.0039  0.3403  0.4338
 7266SOL    HW228830   0.004   5.679   2.640  0.2931  0.2378  0.1199
 7266SOL    HW328831   0.097   5.704   2.757  0.3816  0.4576  0.0057
 7266SOL    MW428832   0.056   5.649   2.703  0.0919  0.3422  0.3359
 7267SOL     OW28833   3.467   5.311   5.256 -0.0746 -0.0670 -0.1692
 7267SOL    HW228834   3.530   5.302   5.184  2.0085  1.1337  1.3923
 7267SOL    HW328835   3.468   5.405   5.276 -1.6087 -0.1857  0.5774
 7267SOL    MW428836   3.476   5.323   5.249 -0.0021  0.0758  0.1353
 7268SOL     OW28837   2.678   3.465   4.580  0.1356 -0.1353  0.4977
 7268SOL    HW228838   2.720   3.379   4.586  0.7440  0.1652  0.6220
 7268SOL    HW328839   2.586   3.445   4.567 -0.0492 -0.8291  2.5422
 7268SOL    MW428840   2.672   3.451   4.579  0.1915 -0.1872  0.7839
 7269SOL     OW28841   4.590   0.434   4.462  0.2106  0.1399  0.4357
 7269SOL    HW228842   4.579   0.352   4.511  1.3466 -0.6201 -0.4923
 7269SOL    HW328843   4.571   0.503   4.525  0.9927 -0.8101  1.7762
 7269SOL    MW428844   4.586   0.432   4.477  0.4637 -0.0857  0.4901
 7270SOL     OW28845   3.707   2.164   2.714  0.1485 -0.4624  0.5602
 7270SOL    HW228846   3.716   2.106   2.790  1.4791  0.5186  1.1882
 7270SOL    HW328847   3.668   2.244   2.749 -1.7208 -0.9570 -0.3106
 7270SOL    MW428848   3.703   2.167   2.729  0.0774 -0.3982  0.5282
 7271SOL     OW28849   0.015   3.834   2.193  0.4444 -0.1856  0.3399
 7271SOL    HW228850   0.006   3.741   2.216 -0.3671 -0.3487 -0.5490
 7271SOL    HW328851  -0.019   3.839   2.103  4.6428  0.1199 -1.4984
 7271SOL    MW428852   0.009   3.822   2.184  0.8913 -0.1668 -0.0199
 7272SOL     OW28853   2.748   0.989   0.443 -0.0313  0.4087 -0.3864
 7272SOL    HW228854   2.660   0.965   0.473  0.0990 -1.4710 -1.3389
 7272SOL    HW328855   2.794   1.013   0.523 -0.6844 -1.1034  0.4985
 7272SOL    MW428856   2.742   0.989   0.457 -0.1003 -0.0388 -0.3953
 7273SOL     OW28857   2.325   3.133   1.272  0.2163 -0.2989 -0.0767
 7273SOL    HW228858   2.407   3.142   1.320 -0.6503  1.9932  1.1453
 7273SOL    HW328859   2.331   3.196   1.201 -0.8485  0.6370  0.6322
 7273SOL    MW428860   2.336   3.142   1.269 -0.0385  0.1270  0.1781
 7274SOL     OW28861   0.023   2.153   6.327 -0.5434  0.0415 -0.2524
 7274SOL    HW228862  -0.054   2.146   6.271 -0.9411 -1.6796  0.4604
 7274SOL    HW328863  -0.004   2.116   6.411  1.0119 -0.4478  0.0670
 7274SOL    MW428864   0.009   2.147   6.331 -0.3907 -0.2502 -0.1162
 7275SOL     OW28865   6.367   5.538   1.654  0.4887 -0.1921 -0.1676
 7275SOL    HW228866   6.404   5.551   1.742  0.4218 -0.7191 -0.0632
 7275SOL    HW328867   6.272   5.539   1.668  0.4782 -0.2594 -0.2390
 7275SOL    MW428868   6.359   5.540   1.668  0.4785 -0.2705 -0.1633
 7276SOL     OW28869   4.674   0.611   3.371 -0.4210  0.1771 -0.2163
 7276SOL    HW228870   4.766   0.607   3.347 -0.3638 -0.2477  0.0422
 7276SOL    HW328871   4.627   0.626   3.289 -0.0857  0.9108 -0.2729
 7276SOL    MW428872   4.680   0.612   3.357 -0.3692  0.2179 -0.1897
 7277SOL     OW28873   0.355   0.940   3.273 -0.1220  0.0819  0.9134
 7277SOL    HW228874   0.385   0.917   3.184 -1.6294  0.9006  0.1627
 7277SOL    HW328875   0.398   1.023   3.292  0.7328 -0.4182  1.2557
 7277SOL    MW428876   0.365   0.948   3.264 -0.2081  0.1239  0.8595
 7278SOL     OW28877   3.981   0.646   4.155  0.4844  0.5832 -0.5915
 7278SOL    HW228878   3.928   0.597   4.092 -0.4910  2.0203 -0.9428
 7278SOL    HW328879   4.054   0.588   4.175 -1.0200 -1.3227 -0.3756
 7278SOL    MW428880   3.984   0.632   4.149  0.1572  0.5214 -0.6094
 7279SOL     OW28881   2.956   3.111   1.716 -0.2357 -0.3058  0.3799
 7279SOL    HW228882   3.029   3.167   1.746 -0.8876  0.3151  0.8476
 7279SOL    HW328883   2.979   3.089   1.626 -0.2074  1.1756 -0.0076
 7279SOL    MW428884   2.969   3.116   1.708 -0.3180 -0.0284  0.3905
 7280SOL     OW28885   6.386   5.780   1.065  0.4153  0.1850 -0.4038
 7280SOL    HW228886   6.322   5.826   1.010 -1.6079 -1.3834  0.4925
 7280SOL    HW328887   6.364   5.807   1.154  1.6661  0.3500 -0.1320
 7280SOL    MW428888   6.374   5.790   1.069  0.3134 -0.0002 -0.2497
 7281SOL     OW28889   2.054   3.133   2.817 -0.3488 -0.2518  0.6040
 7281SOL    HW228890   1.986   3.155   2.881  0.8723  0.5928  1.6510
 7281SOL    HW328891   2.093   3.053   2.851 -0.3109 -0.3169  0.4079
 7281SOL    MW428892   2.050   3.125   2.830 -0.1827 -0.1490  0.7162
 7282SOL     OW28893   3.426   2.760   3.339 -0.4268  0.3729 -0.2663
 7282SOL    HW228894   3.446   2.812   3.261 -1.7389  0.5354 -0.5238
 7282SOL    HW328895   3.463   2.674   3.322  1.2009  1.0117 -0.1200
 7282SOL    MW428896   3.433   2.756   3.327 -0.3851  0.4786 -0.2810
 7283SOL     OW28897   6.111   0.285   1.747 -0.2479  0.2671  0.3762
 7283SOL    HW228898   6.201   0.271   1.776 -0.9229 -3.9219  1.1153
 7283SOL    HW328899   6.119   0.311   1.655  1.7108  0.5373  0.5938
 7283SOL    MW428900   6.124   0.286   1.739 -0.0785 -0.2500  0.5024
 7284SOL     OW28901   0.595   0.447   1.898  0.4493  0.1790  0.6743
 7284SOL    HW228902   0.627   0.498   1.823 -0.9594  1.3937  0.8437
 7284SOL    HW328903   0.631   0.491   1.975  0.6167 -0.1182  0.7676
 7284SOL    MW428904   0.604   0.460   1.898  0.2855  0.3001  0.7089
 7285SOL     OW28905   2.812   3.327   5.206 -0.1466  0.4143 -0.5956
 7285SOL    HW228906   2.773   3.296   5.124 -0.6040  0.0988 -0.2569
 7285SOL    HW328907   2.854   3.409   5.182  1.4139 -0.6157 -1.5959
 7285SOL    MW428908   2.813   3.334   5.192 -0.0011  0.2368 -0.6829
 7286SOL     OW28909   3.648   3.314   1.184  0.4822  0.4485 -0.0307
 7286SOL    HW228910   3.667   3.241   1.243 -0.7327 -0.3648 -0.5954
 7286SOL    HW328911   3.611   3.272   1.106  1.0139  1.5870 -0.9140
 7286SOL    MW428912   3.645   3.299   1.181  0.3921  0.4914 -0.2217
 7287SOL     OW28913   4.561   0.575   6.133  0.2215  0.4139  0.0294
 7287SOL    HW228914   4.501   0.508   6.166  0.3709  0.0776 -0.3799
 7287SOL    HW328915   4.609   0.532   6.063  2.8545 -0.2038  2.0281
 7287SOL    MW428916   4.559   0.560   6.128  0.5886  0.2880  0.2391
 7288SOL     OW28917   4.482   1.695   4.593 -0.3789  0.6650 -0.2762
 7288SOL    HW228918   4.536   1.752   4.538  0.6016 -0.8837 -1.0002
 7288SOL    HW328919   4.515   1.709   4.682 -0.5991  1.6853 -0.3445
 7288SOL    MW428920   4.494   1.705   4.598 -0.2786  0.5953 -0.3808
 7289SOL     OW28921   0.294   1.591   2.892 -0.0545 -0.1979  0.1613
 7289SOL    HW228922   0.337   1.531   2.952  1.6426 -1.2458 -1.9289
 7289SOL    HW328923   0.331   1.569   2.806 -1.8457  1.6383 -1.1808
 7289SOL    MW428924   0.305   1.580   2.888 -0.0669 -0.0939 -0.2915
 7290SOL     OW28925   4.132   3.730   4.701 -0.4121 -0.0592  0.7151
 7290SOL    HW228926   4.092   3.745   4.787 -0.5716 -0.8067  0.7802
 7290SOL    HW328927   4.222   3.705   4.721 -0.1102  0.8896  0.6011
 7290SOL    MW428928   4.138   3.729   4.715 -0.3933 -0.0326  0.7086
 7291SOL     OW28929   2.307   6.091   5.402  0.4980  0.3731  0.3421
 7291SOL    HW228930   2.403   6.084   5.398  0.4141 -0.3160 -0.7521
 7291SOL    HW328931   2.286   6.072   5.493  1.3086 -0.7936  0.3061
 7291SOL    MW428932   2.317   6.088   5.413  0.5938  0.1283  0.1930
 7292SOL     OW28933   4.047   2.407   1.799 -0.2690 -0.4045 -0.0108
 7292SOL    HW228934   4.066   2.329   1.746  0.5702  0.5662 -1.1969
 7292SOL    HW328935   4.107   2.401   1.873 -0.2355 -0.9055 -0.0744
 7292SOL    MW428936   4.058   2.396   1.802 -0.1538 -0.3426 -0.1757
 7293SOL     OW28937   2.066   3.182   6.058 -0.1623 -0.6282 -0.1930
 7293SOL    HW228938   2.028   3.166   6.145 -0.1304  2.2960  0.4847
 7293SOL    HW328939   2.136   3.117   6.050 -0.1895 -1.0069  1.9637
 7293SOL    MW428940   2.070   3.171   6.069 -0.1617 -0.2924  0.1810
 7294SOL     OW28941   5.563   2.372   5.250 -0.6479  0.3741 -0.0121
 7294SOL    HW228942   5.615   2.308   5.201 -1.8271  1.6918 -3.2491
 7294SOL    HW328943   5.625   2.443   5.269 -0.3853  0.2485 -0.3869
 7294SOL    MW428944   5.578   2.373   5.246 -0.7689  0.5314 -0.4887
 7295SOL     OW28945   4.936   5.097   1.977  0.2097  0.2303  0.5127
 7295SOL    HW228946   4.969   5.183   1.950 -1.1935  0.4359 -0.6987
 7295SOL    HW328947   4.863   5.080   1.917 -0.6201 -1.0426  1.8289
 7295SOL    MW428948   4.931   5.106   1.965 -0.0849  0.0895  0.5265
 7296SOL     OW28949   1.116   3.999   1.380 -0.5622  0.1382  0.4035
 7296SOL    HW228950   1.189   4.052   1.347 -1.3482  2.2807  1.8919
 7296SOL    HW328951   1.100   4.033   1.468 -2.1266 -1.5888  0.8375
 7296SOL    MW428952   1.124   4.011   1.387 -0.8723  0.1930  0.6571
 7297SOL     OW28953   1.501   0.375   1.511  0.3054 -0.1938 -0.3015
 7297SOL    HW228954   1.512   0.330   1.595  1.1552  0.4032 -0.0774
 7297SOL    HW328955   1.411   0.408   1.513  0.9493  1.7263  1.3647
 7297SOL    MW428956   1.491   0.374   1.523  0.5025  0.1383 -0.0521
 7298SOL     OW28957   5.085   5.978   1.876 -0.1893 -0.0715  0.4841
 7298SOL    HW228958   5.091   5.942   1.965 -0.3666  1.3467  1.0940
 7298SOL    HW328959   5.138   6.057   1.879 -1.6605  0.9811 -0.1486
 7298SOL    MW428960   5.093   5.984   1.888 -0.4068  0.2545  0.4811
 7299SOL     OW28961   2.701   0.461   1.677  0.6349  0.0130 -0.1435
 7299SOL    HW228962   2.785   0.472   1.720 -0.5366  1.4773  1.9162
 7299SOL    HW328963   2.651   0.539   1.700 -0.3423  0.6390 -3.7287
 7299SOL    MW428964   2.706   0.473   1.686  0.3514  0.2888 -0.3448
 7300SOL     OW28965   1.996   0.451   6.147 -0.3128 -0.5300 -0.3255
 7300SOL    HW228966   2.009   0.356   6.147  2.3177 -0.2386  0.0688
 7300SOL    HW328967   1.962   0.471   6.060  1.3492 -1.6017 -1.2645
 7300SOL    MW428968   1.993   0.441   6.136  0.2536 -0.6329 -0.3974
 7301SOL     OW28969   1.701   5.804   3.885 -0.0917  0.2648  0.0489
 7301SOL    HW228970   1.636   5.734   3.883  1.0358 -0.8097 -0.6803
 7301SOL    HW328971   1.653   5.882   3.856 -0.7839 -0.7721 -1.8036
 7301SOL    MW428972   1.686   5.805   3.881 -0.0343 -0.0138 -0.2917
 7302SOL     OW28973   3.748   3.067   5.565  0.1853  0.4856  0.0497
 7302SOL    HW228974   3.770   3.006   5.494 -1.4252  0.6241 -0.6198
 7302SOL    HW328975   3.697   3.015   5.626 -1.9493  1.2908 -0.9546
 7302SOL    MW428976   3.744   3.052   5.563 -0.3088  0.6101 -0.1711
 7303SOL     OW28977   6.054   1.824   6.271  0.7244  0.4407 -0.3215
 7303SOL    HW228978   6.013   1.772   6.202  1.0042  2.3865 -2.0589
 7303SOL    HW328979   5.987   1.887   6.298  1.6927  2.0824 -1.5008
 7303SOL    MW428980   6.040   1.826   6.265  0.8891  0.9140 -0.7064
 7304SOL     OW28981   1.736   4.787   0.602 -0.0200  0.1159 -0.0585
 7304SOL    HW228982   1.767   4.701   0.574  0.5770  0.3479 -0.1258
 7304SOL    HW328983   1.640   4.779   0.605 -0.3934  0.6436 -4.2032
 7304SOL    MW428984   1.727   4.775   0.598  0.0095  0.2161 -0.6142
 7305SOL     OW28985   1.534   2.459   5.766  0.1159 -0.2702 -0.7797
 7305SOL    HW228986   1.484   2.539   5.782  0.6245  0.2875 -1.8920
 7305SOL    HW328987   1.547   2.456   5.672  2.9999  0.1523 -0.5093
 7305SOL    MW428988   1.529   2.469   5.756  0.5635 -0.1409 -0.8908
 7306SOL     OW28989   2.764   1.405   4.927 -0.3024  0.2845  0.0196
 7306SOL    HW228990   2.825   1.456   4.874 -0.0692  0.7296  0.6939
 7306SOL    HW328991   2.775   1.315   4.897 -0.3648  0.5601 -0.8529
 7306SOL    MW428992   2.773   1.400   4.916 -0.2799  0.3796 -0.0065
 7307SOL     OW28993   3.971   2.463   5.740  0.1040  0.1613 -0.3882
 7307SOL    HW228994   3.894   2.519   5.757  0.2084  1.1804 -2.8245
 7307SOL    HW328995   3.946   2.377   5.774 -2.3217  0.3511 -1.4794
 7307SOL    MW428996   3.957   2.459   5.747 -0.2022  0.3208 -0.8536
 7308SOL     OW28997   2.752   3.272   2.802  0.7407 -0.1573  0.2196
 7308SOL    HW228998   2.772   3.318   2.721  1.9352  0.6298  0.9347
 7308SOL    HW328999   2.810   3.311   2.868  0.2056 -1.1572  1.3390
 7308SOL    MW429000   2.762   3.283   2.800  0.8277 -0.1854  0.4617
 7309SOL     OW29001   2.811   2.437   5.786 -0.1386  0.4300 -0.0692
 7309SOL    HW229002   2.891   2.395   5.816 -0.1785 -1.0388 -1.8058
 7309SOL    HW329003   2.748   2.422   5.857  0.0142 -2.0389 -0.3636
 7309SOL    MW429004   2.813   2.429   5.799 -0.1237 -0.0895 -0.3372
 7310SOL     OW29005   2.519   5.126   4.225  0.4402 -0.3970 -0.2201
 7310SOL    HW229006   2.453   5.084   4.280  0.8617 -0.2641  0.3995
 7310SOL    HW329007   2.602   5.091   4.257  0.7039 -0.1928 -0.6675
 7310SOL    MW429008   2.521   5.116   4.236  0.5306 -0.3525 -0.1974
 7311SOL     OW29009   0.165   6.215   5.856 -0.2098 -0.4654  0.2127
 7311SOL    HW229010   0.191   6.226   5.947  1.6190  0.2051 -0.3375
 7311SOL    HW329011   0.147   6.122   5.846 -1.1349 -0.4312  1.4064
 7311SOL    MW429012   0.166   6.205   5.866 -0.0906 -0.3724  0.2976
 7312SOL     OW29013   1.648   3.160   4.225  0.2092  0.1101 -0.4423
 7312SOL    HW229014   1.698   3.115   4.294 -0.3377 -1.3895 -0.9761
 7312SOL    HW329015   1.560   3.123   4.233 -0.5570  1.8998 -0.2371
 7312SOL    MW429016   1.643   3.149   4.235  0.0360  0.1484 -0.4857
 7313SOL     OW29017   5.342   3.199   1.799  0.2494  0.7663 -0.1619
 7313SOL    HW229018   5.371   3.250   1.874 -1.2279  0.1988  0.8525
 7313SOL    HW329019   5.290   3.128   1.837 -0.3214  0.3164 -1.6993
 7313SOL    MW429020   5.339   3.196   1.814 -0.0208  0.6321 -0.2309
 7314SOL     OW29021   4.102   1.588   3.919  0.4460  0.3487  0.5758
 7314SOL    HW229022   4.096   1.579   4.015  0.4004  0.1172  0.5532
 7314SOL    HW329023   4.019   1.554   3.887 -0.0376  1.5750  0.5168
 7314SOL    MW429024   4.090   1.582   3.928  0.3762  0.4799  0.5651
 7315SOL     OW29025   2.751   6.326   6.221 -0.1795 -0.1385  0.1466
 7315SOL    HW229026   2.723   6.418   6.225  0.4072  0.0450  3.4808
 7315SOL    HW329027   2.671   6.276   6.238 -0.8000 -0.4592 -3.0858
 7315SOL    MW429028   2.737   6.332   6.224 -0.1840 -0.1566  0.1600
 7316SOL     OW29029   2.356   2.454   4.145  0.2185  0.4722  0.1596
 7316SOL    HW229030   2.369   2.516   4.074 -2.7427  1.2327  0.1487
 7316SOL    HW329031   2.396   2.496   4.221  3.5913 -0.4375 -0.9384
 7316SOL    MW429032   2.363   2.468   4.146  0.2728  0.4525  0.0133
 7317SOL     OW29033   3.564   3.666   1.100  0.1536 -0.0715  0.7844
 7317SOL    HW229034   3.525   3.752   1.116 -0.7060 -0.3680  0.3394
 7317SOL    HW329035   3.502   3.603   1.137 -0.3631 -0.5983 -0.8857
 7317SOL    MW429036   3.551   3.669   1.107 -0.0280 -0.1801  0.5054
 7318SOL     OW29037   5.229   2.097   2.195 -0.0572  0.2573 -0.4521
 7318SOL    HW229038   5.243   2.064   2.283 -0.0530 -0.8687 -0.8549
 7318SOL    HW329039   5.165   2.168   2.206  0.5654  0.6885  0.5356
 7318SOL    MW429040   5.222   2.102   2.208  0.0255  0.1656 -0.3750
 7319SOL     OW29041   4.027   0.339   3.117  0.3171 -0.2463  0.1616
 7319SOL    HW229042   4.022   0.422   3.071 -0.6478 -0.6169 -0.4248
 7319SOL    HW329043   4.107   0.298   3.084  0.5522  0.2426  0.1165
 7319SOL    MW429044   4.037   0.344   3.107  0.2209 -0.2307  0.0783
 7320SOL     OW29045   2.334   1.656   3.588 -0.2019  0.0050 -0.0168
 7320SOL    HW229046   2.403   1.712   3.622 -0.2993  0.1773 -0.0977
 7320SOL    HW329047   2.371   1.616   3.510  1.1213 -2.7808  1.9031
 7320SOL    MW429048   2.348   1.658   3.582 -0.0402 -0.3398  0.2258
 7321SOL     OW29049   3.295   1.480   5.795 -0.3789 -0.0441 -0.2948
 7321SOL    HW229050   3.356   1.552   5.811 -0.3617 -0.4076  1.4603
 7321SOL    HW329051   3.348   1.411   5.755  0.0223  0.1999 -0.1827
 7321SOL    MW429052   3.310   1.480   5.792 -0.3237 -0.0599 -0.0485
 7322SOL     OW29053   1.197   0.284   4.817  0.6152  0.0450  0.3936
 7322SOL    HW229054   1.159   0.204   4.780  0.4754  0.7771 -1.1251
 7322SOL    HW329055   1.264   0.311   4.754 -1.0483  2.4784 -0.4700
 7322SOL    MW429056   1.201   0.277   4.804  0.3772  0.4626  0.0793
 7323SOL     OW29057   1.993   4.928   6.129 -0.2591  0.0316 -0.1948
 7323SOL    HW229058   2.030   4.976   6.203  0.4129  1.5503 -1.4527
 7323SOL    HW329059   2.068   4.881   6.092 -0.4877 -0.3150 -0.2224
 7323SOL    MW429060   2.008   4.928   6.134 -0.2006  0.1862 -0.3644
 7324SOL     OW29061   1.128   0.325   0.770 -0.1261 -0.5637 -0.0653
 7324SOL    HW229062   1.087   0.268   0.835 -1.3791 -0.3060 -0.5984
 7324SOL    HW329063   1.062   0.392   0.752  0.8092  0.2871 -0.4390
 7324SOL    MW429064   1.114   0.327   0.776 -0.1680 -0.4174 -0.1849
 7325SOL     OW29065   5.500   4.592   2.121  0.0510  0.2428  0.1937
 7325SOL    HW229066   5.492   4.542   2.040  0.6668 -0.4129  0.5208
 7325SOL    HW329067   5.565   4.659   2.102  2.2853 -1.5699  0.8753
 7325SOL    MW429068   5.508   4.594   2.108  0.4270 -0.0828  0.3268
 7326SOL     OW29069   3.363   5.008   4.203 -0.2206 -0.4245 -0.1737
 7326SOL    HW229070   3.379   5.032   4.294 -2.1145 -1.1379  0.4112
 7326SOL    HW329071   3.447   5.018   4.160  0.7496 -0.1548  1.6793
 7326SOL    MW429072   3.376   5.012   4.209 -0.3425 -0.4830  0.1480
 7327SOL     OW29073   1.410   1.023   1.076 -0.1933  0.5508 -0.1241
 7327SOL    HW229074   1.473   0.950   1.073 -1.2132 -0.3546  0.0090
 7327SOL    HW329075   1.324   0.981   1.071 -0.8278  1.7073  0.6459
 7327SOL    MW429076   1.407   1.008   1.075 -0.4116  0.5839 -0.0049
 7328SOL     OW29077   4.676   4.873   3.901 -0.0356  0.5422 -0.2232
 7328SOL    HW229078   4.616   4.897   3.830  2.2846  2.4921 -1.7059
 7328SOL    HW329079   4.703   4.957   3.939 -0.5480 -0.4140  2.4745
 7328SOL    MW429080   4.672   4.887   3.896  0.2029  0.6733 -0.0629
 7329SOL     OW29081   4.488   2.927   6.150  0.3580  0.0763 -0.3858
 7329SOL    HW229082   4.506   3.009   6.196  0.3184 -1.3750  2.4257
 7329SOL    HW329083   4.471   2.954   6.060 -0.1272  3.2024  0.5033
 7329SOL    MW429084   4.488   2.942   6.145  0.2887  0.2973  0.1025
 7330SOL     OW29085   6.189   5.540   4.309 -0.0362  0.4118 -0.3386
 7330SOL    HW229086   6.110   5.513   4.355 -2.2529  2.4164 -2.6731
 7330SOL    HW329087   6.227   5.609   4.363 -0.7298  0.4816  0.0630
 7330SOL    MW429088   6.184   5.545   4.322 -0.4202  0.6855 -0.5936
 7331SOL     OW29089   0.727   4.198   3.803 -0.1047 -0.2117  0.0778
 7331SOL    HW229090   0.752   4.166   3.889 -1.4031 -3.2747 -0.5735
 7331SOL    HW329091   0.632   4.189   3.800 -0.2344  1.1091 -1.2213
 7331SOL    MW429092   0.718   4.193   3.814 -0.2932 -0.4415 -0.1795
 7332SOL     OW29093   4.235   1.388   3.078  0.0817  0.2587 -0.4865
 7332SOL    HW229094   4.186   1.309   3.053 -0.4142  0.6523 -0.7854
 7332SOL    HW329095   4.326   1.359   3.083  0.0306 -0.1421 -1.5018
 7332SOL    MW429096   4.241   1.374   3.075  0.0095  0.2578 -0.6599
 7333SOL     OW29097   5.855   1.130   5.823  0.2038  0.0127 -0.2224
 7333SOL    HW229098   5.795   1.160   5.755 -0.4448 -0.6567  0.0374
 7333SOL    HW329099   5.900   1.209   5.853 -1.1959  0.6759  0.1897
 7333SOL    MW429100   5.853   1.144   5.818 -0.0664  0.0119 -0.1337
 7334SOL     OW29101   2.528   1.703   2.011 -0.5298 -0.0861  0.0082
 7334SOL    HW229102   2.536   1.790   2.049 -1.8311  0.1821 -0.2906
 7334SOL    HW329103   2.510   1.646   2.086 -1.7076  0.2295 -0.0160
 7334SOL    MW429104   2.527   1.707   2.026 -0.8569 -0.0091 -0.0344
 7335SOL     OW29105   0.844   4.092   2.994  0.0153  0.0936  0.0282
 7335SOL    HW229106   0.758   4.064   3.023  0.2619 -0.3099  0.3842
 7335SOL    HW329107   0.901   4.075   3.069  0.5435 -0.3698 -0.4716
 7335SOL    MW429108   0.840   4.086   3.008  0.1175 -0.0208  0.0092
 7336SOL     OW29109   3.553   4.076   1.880 -0.0481  0.2227 -0.1567
 7336SOL    HW229110   3.624   4.095   1.818  0.5693 -1.4349 -0.0040
 7336SOL    HW329111   3.481   4.046   1.825 -0.0546  0.3131 -0.1973
 7336SOL    MW429112   3.553   4.075   1.865  0.0325  0.0160 -0.1419
 7337SOL     OW29113   2.384   5.567   0.323 -0.3971  0.5366 -0.1730
 7337SOL    HW229114   2.437   5.517   0.261  0.8947  0.4484  0.9562
 7337SOL    HW329115   2.319   5.505   0.355  0.8530 -0.2986  0.8110
 7337SOL    MW429116   2.382   5.552   0.319 -0.0617  0.4147  0.1058
 7338SOL     OW29117   3.441   4.556   3.913 -0.1666  1.0834 -0.0422
 7338SOL    HW229118   3.464   4.587   4.001 -1.2551  2.6151 -0.2694
 7338SOL    HW329119   3.393   4.628   3.874 -0.0973  0.2428 -1.7530
 7338SOL    MW429120   3.438   4.569   3.920 -0.3011  1.1745 -0.2979
 7339SOL     OW29121   0.994   3.103   0.939 -0.0701  0.2434  0.0531
 7339SOL    HW229122   1.025   3.194   0.941 -2.0003  0.9957  3.3050
 7339SOL    HW329123   0.907   3.109   0.899 -0.1847 -0.1462  0.2411
 7339SOL    MW429124   0.987   3.116   0.934 -0.3399  0.2912  0.5070
 7340SOL     OW29125   5.239   1.354   2.985 -0.1738  0.1903 -0.0453
 7340SOL    HW229126   5.255   1.354   2.891 -1.2618 -0.1231 -0.2493
 7340SOL    HW329127   5.279   1.273   3.017 -0.0000  0.1870 -0.2686
 7340SOL    MW429128   5.246   1.344   2.977 -0.2944  0.1485 -0.1017
 7341SOL     OW29129   3.240   4.327   0.074 -0.5528  0.3197  0.3527
 7341SOL    HW229130   3.209   4.373   0.152  0.6808  1.4703  0.1851
 7341SOL    HW329131   3.303   4.263   0.108  2.8627  3.2702  0.1362
 7341SOL    MW429132   3.244   4.325   0.089  0.0606  0.8608  0.3020
 7342SOL     OW29133   1.509   1.831   0.270 -0.3179  0.0095 -0.5977
 7342SOL    HW229134   1.559   1.895   0.321 -0.6726 -0.2133  0.0415
 7342SOL    HW329135   1.574   1.766   0.242 -0.1002  0.1930 -0.5228
 7342SOL    MW429136   1.524   1.831   0.273 -0.3360  0.0043 -0.5035
 7343SOL     OW29137   6.349   2.355   5.485 -0.4595  0.2937  0.8094
 7343SOL    HW229138   6.255   2.341   5.472 -0.6610  2.6014 -1.0869
 7343SOL    HW329139   6.354   2.442   5.525  0.8648 -0.1777  1.7119
 7343SOL    MW429140   6.337   2.365   5.489 -0.3114  0.5360  0.6782
 7344SOL     OW29141   4.777   4.726   4.484  0.1379 -0.3118 -0.3561
 7344SOL    HW229142   4.761   4.703   4.393  0.3037 -0.3894 -0.3662
 7344SOL    HW329143   4.812   4.646   4.523  1.8199  0.2350 -0.6695
 7344SOL    MW429144   4.780   4.713   4.477  0.3817 -0.2499 -0.3988
 7345SOL     OW29145   5.559   1.701   3.026  0.0264  0.3080 -0.3302
 7345SOL    HW229146   5.640   1.744   2.998  0.1412  0.4331  0.1775
 7345SOL    HW329147   5.550   1.726   3.118 -0.1219 -0.4239 -0.1427
 7345SOL    MW429148   5.569   1.710   3.034  0.0220  0.2279 -0.2385
 7346SOL     OW29149   1.024   1.458   4.448  0.7757  0.1738  0.0956
 7346SOL    HW229150   1.020   1.382   4.389  1.5957 -1.0046  1.4792
 7346SOL    HW329151   0.982   1.427   4.529 -0.6449  1.8597  0.0590
 7346SOL    MW429152   1.018   1.444   4.451  0.6964  0.2408  0.2733
 7347SOL     OW29153   5.952   2.703   1.858 -0.2550  0.4711 -0.0003
 7347SOL    HW229154   6.011   2.770   1.894  1.2255  0.1190 -1.5991
 7347SOL    HW329155   5.891   2.684   1.928  1.6894  0.7079  1.8658
 7347SOL    MW429156   5.952   2.710   1.872  0.1969  0.4559  0.0350
 7348SOL     OW29157   4.457   2.109   5.661  0.0876 -0.5623 -0.5265
 7348SOL    HW229158   4.531   2.165   5.641  0.0411 -0.4853 -0.4862
 7348SOL    HW329159   4.383   2.150   5.617  0.1796 -0.9735 -1.0666
 7348SOL    MW429160   4.457   2.121   5.653  0.0936 -0.6064 -0.5924
 7349SOL     OW29161   5.905   5.306   3.605 -0.2417 -0.5919  0.1056
 7349SOL    HW229162   5.963   5.263   3.668  1.1578 -0.0501 -0.7613
 7349SOL    HW329163   5.958   5.378   3.569 -1.9543  0.8623  0.3360
 7349SOL    MW429164   5.920   5.310   3.609 -0.2830 -0.3286  0.0216
 7350SOL     OW29165   6.032   5.692   2.253 -0.0273 -0.1666  0.2269
 7350SOL    HW229166   6.077   5.621   2.299 -0.8739 -0.5132  0.5462
 7350SOL    HW329167   5.993   5.745   2.322 -1.6094 -0.8934 -0.0693
 7350SOL    MW429168   6.033   5.689   2.268 -0.3477 -0.3082  0.2299
 7351SOL     OW29169   5.080   3.800   3.964  0.3066  0.1494 -0.3775
 7351SOL    HW229170   5.062   3.821   4.056  1.0817  0.1873 -0.2304
 7351SOL    HW329171   4.996   3.817   3.919  0.0839  0.7035  0.2236
 7351SOL    MW429172   5.066   3.805   3.970  0.3795  0.2275 -0.2788
 7352SOL     OW29173   0.423   2.940   5.526 -0.8587  0.3301  0.3481
 7352SOL    HW229174   0.401   2.867   5.468 -0.0145 -0.0311  0.4566
 7352SOL    HW329175   0.339   2.976   5.554 -1.3232 -1.4914  1.4158
 7352SOL    MW429176   0.409   2.935   5.522 -0.8086  0.0421  0.5033
 7353SOL     OW29177   1.412   2.083   1.143  0.4261 -0.1540  0.3259
 7353SOL    HW229178   1.460   2.164   1.127 -1.2653  0.4778 -2.0608
 7353SOL    HW329179   1.369   2.096   1.227  0.3066  1.3948  0.0555
 7353SOL    MW429180   1.413   2.095   1.152  0.1872  0.1337 -0.0247
 7354SOL     OW29181   1.841   0.466   2.066 -0.3068  0.4119 -0.1074
 7354SOL    HW229182   1.818   0.396   2.005  0.7416  0.1808 -0.2628
 7354SOL    HW329183   1.759   0.511   2.084 -1.0714 -1.1165  0.3308
 7354SOL    MW429184   1.827   0.463   2.060 -0.2694  0.1797 -0.0701
 7355SOL     OW29185   3.133   6.386   3.341  0.2972 -0.1359  0.1535
 7355SOL    HW229186   3.110   6.294   3.350  0.4087 -0.4331 -2.0412
 7355SOL    HW329187   3.219   6.386   3.298 -0.0948  0.9568 -0.6986
 7355SOL    MW429188   3.142   6.374   3.336  0.2602 -0.0310 -0.2485
 7356SOL     OW29189   4.966   4.119   5.906  0.1623 -0.2781  0.0733
 7356SOL    HW229190   4.947   4.037   5.860 -0.0246  0.5489 -1.3905
 7356SOL    HW329191   4.957   4.187   5.838 -2.3566  1.2615  1.7550
 7356SOL    MW429192   4.962   4.117   5.891 -0.1947  0.0341  0.1021
 7357SOL     OW29193   5.712   5.863   0.303  0.3497  0.0111 -0.2312
 7357SOL    HW229194   5.748   5.804   0.369  0.7302  0.0273 -0.4180
 7357SOL    HW329195   5.618   5.847   0.304  0.3352  0.1519  0.4486
 7357SOL    MW429196   5.704   5.853   0.312  0.3980  0.0318 -0.1662
 7358SOL     OW29197   0.955   5.277   5.203  0.6201 -0.0600 -0.1955
 7358SOL    HW229198   0.883   5.331   5.233 -1.5402 -2.2239 -1.1748
 7358SOL    HW329199   0.978   5.312   5.117  0.1728  0.1255 -0.2378
 7358SOL    MW429200   0.949   5.289   5.195  0.2761 -0.3211 -0.3303
 7359SOL     OW29201   2.708   1.493   2.806 -0.2794 -0.7468  0.7243
 7359SOL    HW229202   2.795   1.473   2.772 -1.0310 -3.4513  0.1249
 7359SOL    HW329203   2.670   1.552   2.741  1.1843  0.7345  1.1727
 7359SOL    MW429204   2.714   1.498   2.793 -0.1855 -0.9082  0.7044
 7360SOL     OW29205   4.457   5.058   4.254 -0.2494 -0.3133  0.2625
 7360SOL    HW229206   4.446   5.034   4.346  2.1325  0.4973  0.8199
 7360SOL    HW329207   4.465   4.974   4.209  1.9152 -0.7659  1.3242
 7360SOL    MW429208   4.457   5.043   4.261  0.3504 -0.2661  0.4761
 7361SOL     OW29209   2.710   0.690   0.947 -0.3228  0.6758 -0.0138
 7361SOL    HW229210   2.744   0.602   0.960 -0.5845  0.6319  0.3898
 7361SOL    HW329211   2.759   0.724   0.871 -0.1037  0.2502 -0.0659
 7361SOL    MW429212   2.721   0.683   0.938 -0.3285  0.6139  0.0326
 7362SOL     OW29213   2.951   5.169   1.599 -0.5431  0.1357 -0.2916
 7362SOL    HW229214   2.969   5.195   1.689 -0.3705 -0.6797 -0.0850
 7362SOL    HW329215   2.998   5.233   1.546  0.7876 -0.3874  0.2123
 7362SOL    MW429216   2.959   5.181   1.604 -0.3447 -0.0409 -0.1979
 7363SOL     OW29217   0.798   2.106   0.732  0.5661  0.0722  0.5043
 7363SOL    HW229218   0.856   2.157   0.788  1.5629  0.2409 -0.6218
 7363SOL    HW329219   0.858   2.057   0.675 -0.3795 -1.4086  0.7268
 7363SOL    MW429220   0.814   2.106   0.732  0.5728 -0.1009  0.3850
 7364SOL     OW29221   0.449   6.173   6.357  0.1094 -0.0885  0.1347
 7364SOL    HW229222   0.519   6.145   6.417  0.7921  1.4025  0.0797
 7364SOL    HW329223   0.466   6.124   6.277  0.8685 -0.0488  0.2563
 7364SOL    MW429224   0.461   6.163   6.355  0.2996  0.1134  0.1435
 7365SOL     OW29225   4.211   3.196   3.997  0.5173 -0.2960 -0.2194
 7365SOL    HW229226   4.223   3.117   3.945 -1.5068 -0.0284 -1.1933
 7365SOL    HW329227   4.249   3.266   3.944  2.6758 -0.5920  0.8205
 7365SOL    MW429228   4.217   3.195   3.983  0.5350 -0.2997 -0.2107
 7366SOL     OW29229   2.660   2.964   5.983  0.0542  0.1462  0.1481
 7366SOL    HW229230   2.668   2.870   5.996 -0.6664  0.0868  0.2074
 7366SOL    HW329231   2.750   2.995   5.969  0.7912  0.0383  3.8129
 7366SOL    MW429232   2.673   2.956   5.983  0.0564  0.1241  0.6395
 7367SOL     OW29233   4.502   4.715   3.486 -0.1221 -0.0633  0.4641
 7367SOL    HW229234   4.594   4.692   3.496 -0.0602 -0.1634 -0.2349
 7367SOL    HW329235   4.502   4.783   3.418 -0.6182 -0.5387 -0.0217
 7367SOL    MW429236   4.514   4.721   3.478 -0.1794 -0.1392  0.3078
 7368SOL     OW29237   6.345   2.922   2.899 -0.0788 -0.1127 -0.2536
 7368SOL    HW229238   6.255   2.890   2.889 -0.0713  0.5316 -3.5169
 7368SOL    HW329239   6.396   2.869   2.838  1.0077  2.0758 -1.3324
 7368SOL    MW429240   6.340   2.911   2.890  0.0656  0.2610 -0.8265
 7369SOL     OW29241   5.158   0.167   4.291  0.4895 -0.1885 -0.6766
 7369SOL    HW229242   5.077   0.137   4.250 -0.2884  0.8364  0.0654
 7369SOL    HW329243   5.161   0.120   4.375  0.4514  0.0706 -0.5285
 7369SOL    MW429244   5.148   0.157   4.297  0.3819 -0.0191 -0.5591
 7370SOL     OW29245   1.791   0.249   3.459 -0.0776 -0.2302  0.4525
 7370SOL    HW229246   1.737   0.277   3.533  0.6725 -0.0180  0.9226
 7370SOL    HW329247   1.736   0.185   3.413 -0.0896 -1.3041  1.8919
 7370SOL    MW429248   1.776   0.244   3.463  0.0198 -0.3439  0.7044
 7371SOL     OW29249   1.192   1.539   3.219  0.1124  0.1754 -0.4109
 7371SOL    HW229250   1.201   1.452   3.257  0.0267 -0.0383 -0.8737
 7371SOL    HW329251   1.133   1.585   3.279 -1.5681 -0.7651 -1.2449
 7371SOL    MW429252   1.185   1.534   3.232 -0.1206  0.0231 -0.5820
 7372SOL     OW29253   4.928   0.109   1.265 -0.1933  0.7792  0.1339
 7372SOL    HW229254   4.921   0.013   1.266 -0.7304  0.8042 -0.2687
 7372SOL    HW329255   5.022   0.127   1.263 -0.0391  0.1921 -2.8513
 7372SOL    MW429256   4.939   0.099   1.265 -0.2438  0.7051 -0.3131
 7373SOL     OW29257   5.169   6.393   5.029 -0.2828 -0.1293 -0.2258
 7373SOL    HW229258   5.109   6.412   5.100 -0.5762 -1.8684  0.0277
 7373SOL    HW329259   5.220   6.318   5.059  0.8700  0.2531 -1.1154
 7373SOL    MW429260   5.168   6.386   5.042 -0.1694 -0.3083 -0.3098
 7374SOL     OW29261   3.904   3.659   0.560 -0.1146  0.0578  0.2519
 7374SOL    HW229262   3.880   3.568   0.572 -2.0857  0.1416 -2.1773
 7374SOL    HW329263   3.944   3.685   0.643  1.0747 -3.1292  0.7996
 7374SOL    MW429264   3.906   3.651   0.572 -0.2178 -0.3517  0.0036
 7375SOL     OW29265   1.202   1.301   4.667 -0.4630  0.1607 -0.0475
 7375SOL    HW229266   1.217   1.251   4.747 -0.8985  1.4911  0.9032
 7375SOL    HW329267   1.106   1.306   4.660 -0.4259  0.3012 -0.4983
 7375SOL    MW429268   1.191   1.295   4.676 -0.5156  0.3548  0.0185
 7376SOL     OW29269   0.177   0.312   6.146  0.2364  0.2891 -0.0820
 7376SOL    HW229270   0.123   0.291   6.222  1.8263 -0.2161  0.9594
 7376SOL    HW329271   0.151   0.401   6.122 -1.1184  0.0116  0.3106
 7376SOL    MW429272   0.167   0.321   6.153  0.2674  0.1858  0.1072
 7377SOL     OW29273   5.476   5.186   4.121 -0.6888 -0.1926 -0.6260
 7377SOL    HW229274   5.396   5.222   4.082 -2.2066 -2.0493  0.5538
 7377SOL    HW329275   5.464   5.091   4.117  1.3671 -0.5222 -0.1649
 7377SOL    MW429276   5.464   5.178   4.116 -0.6178 -0.4811 -0.4095
 7378SOL     OW29277   3.203   4.862   1.201  0.0674 -0.2406 -0.0868
 7378SOL    HW229278   3.189   4.768   1.201  0.5838 -0.3222  0.1193
 7378SOL    HW329279   3.145   4.896   1.269 -0.6137 -0.3242 -0.6120
 7378SOL    MW429280   3.194   4.854   1.210  0.0457 -0.2624 -0.1289
 7379SOL     OW29281   0.822   2.359   6.065  0.3223  0.0879 -0.1221
 7379SOL    HW229282   0.838   2.400   6.150  1.0604  1.2334 -0.7865
 7379SOL    HW329283   0.831   2.431   6.001 -0.1382 -0.7572 -1.1703
 7379SOL    MW429284   0.826   2.374   6.067  0.3590  0.1276 -0.3481
 7380SOL     OW29285   6.310   1.451   2.330 -0.4435  0.1463 -0.2862
 7380SOL    HW229286   6.383   1.412   2.379 -0.2393  0.4001 -0.3871
 7380SOL    HW329287   6.234   1.397   2.354 -0.5399  0.8197  1.0375
 7380SOL    MW429288   6.309   1.439   2.340 -0.4293  0.2687 -0.1248
 7381SOL     OW29289   2.202   2.365   3.612 -0.5309 -0.2587  0.4558
 7381SOL    HW229290   2.202   2.287   3.667  1.1157  0.7543  2.0366
 7381SOL    HW329291   2.124   2.414   3.639 -0.3689 -0.3337  1.0836
 7381SOL    MW429292   2.192   2.361   3.623 -0.2923 -0.1349  0.7472
 7382SOL     OW29293   2.318   3.967   2.944 -0.2475  0.7648 -0.8139
 7382SOL    HW229294   2.347   4.057   2.928  2.2160  0.3993  0.9466
 7382SOL    HW329295   2.345   3.919   2.866 -0.6257  1.3534 -1.3118
 7382SOL    MW429296   2.326   3.972   2.932  0.0276  0.7943 -0.6473
 7383SOL     OW29297   3.159   3.575   0.861 -0.5342  0.7072  0.2416
 7383SOL    HW229298   3.075   3.532   0.874  0.6151 -2.4324 -1.5073
 7383SOL    HW329299   3.224   3.512   0.893  1.2346  3.3395  2.2928
 7383SOL    MW429300   3.157   3.561   0.867 -0.1492  0.6403  0.2815
 7384SOL     OW29301   0.296   4.139   5.607  0.2118 -0.2200  0.3352
 7384SOL    HW229302   0.237   4.094   5.668  1.2070 -0.8176  0.8731
 7384SOL    HW329303   0.312   4.075   5.538  1.2235 -0.5357  0.8398
 7384SOL    MW429304   0.290   4.124   5.606  0.4765 -0.3405  0.4728
 7385SOL     OW29305   0.737   1.002   4.445 -0.1745  0.2102  0.1551
 7385SOL    HW229306   0.646   0.974   4.452 -0.3720  0.9669  0.7401
 7385SOL    HW329307   0.773   0.948   4.375 -1.4909  0.9600 -1.1703
 7385SOL    MW429308   0.729   0.991   4.437 -0.3743  0.4090  0.0574
 7386SOL     OW29309   3.789   3.459   1.898 -0.1880  0.6279 -0.9360
 7386SOL    HW229310   3.864   3.511   1.927 -1.4979  1.6400  0.8685
 7386SOL    HW329311   3.731   3.522   1.856 -1.1441  0.4062 -0.0134
 7386SOL    MW429312   3.791   3.474   1.897 -0.4869  0.7322 -0.5762
 7387SOL     OW29313   5.527   0.098   2.860  0.2945 -0.3974 -0.0361
 7387SOL    HW229314   5.527   0.157   2.935  0.0010 -1.1431  0.5634
 7387SOL    HW329315   5.562   0.016   2.894  2.3713 -0.0897 -1.2764
 7387SOL    MW429316   5.532   0.095   2.874  0.5298 -0.4552 -0.1207
 7388SOL     OW29317   4.719   0.917   3.260 -0.1947 -0.1291 -0.1245
 7388SOL    HW229318   4.642   0.863   3.240 -0.0397 -0.7651  0.9140
 7388SOL    HW329319   4.682   0.996   3.299 -0.3474 -0.1855 -0.1530
 7388SOL    MW429320   4.704   0.920   3.262 -0.1944 -0.2205  0.0087
 7389SOL     OW29321   1.307   3.308   3.431 -0.6591  0.5780 -0.5795
 7389SOL    HW229322   1.256   3.286   3.508  0.3668  1.9165  0.5430
 7389SOL    HW329323   1.398   3.289   3.456 -0.2613  1.5061 -1.2639
 7389SOL    MW429324   1.313   3.303   3.444 -0.4713  0.8770 -0.5217
 7390SOL     OW29325   5.413   3.468   0.052 -0.4686  0.2985  0.5124
 7390SOL    HW229326   5.441   3.477  -0.039 -0.7824 -1.3047  0.2249
 7390SOL    HW329327   5.395   3.374   0.063 -1.2358  0.5773  1.9873
 7390SOL    MW429328   5.414   3.457   0.041 -0.6112  0.1238  0.6691
 7391SOL     OW29329   3.435   3.201   3.345 -0.3418 -0.2331 -0.2207
 7391SOL    HW229330   3.479   3.201   3.430  1.5333 -1.9369 -1.0913
 7391SOL    HW329331   3.347   3.233   3.363  0.7088  1.7531  1.9325
 7391SOL    MW429332   3.429   3.205   3.358  0.0442 -0.1958 -0.0514
 7392SOL     OW29333   3.558   4.180   2.149 -0.1643  0.3877 -0.5529
 7392SOL    HW229334   3.547   4.153   2.058  0.4584 -1.7203 -0.0512
 7392SOL    HW329335   3.541   4.274   2.148  0.0375  0.4586 -2.8679
 7392SOL    MW429336   3.554   4.189   2.137 -0.0555  0.1189 -0.7921
 7393SOL     OW29337   1.895   4.406   5.665  0.2473  0.4788  0.6009
 7393SOL    HW229338   1.990   4.411   5.668  0.4029 -1.1298 -0.4346
 7393SOL    HW329339   1.870   4.380   5.754  0.6622  1.8680  1.1497
 7393SOL    MW429340   1.904   4.403   5.677  0.3226  0.4499  0.5367
 7394SOL     OW29341   0.659   6.118   0.114 -0.2776  0.1837 -0.0021
 7394SOL    HW229342   0.641   6.151   0.202 -1.7963 -2.5850  0.8394
 7394SOL    HW329343   0.730   6.055   0.126 -0.4409 -0.1594 -0.7689
 7394SOL    MW429344   0.666   6.114   0.127 -0.4995 -0.2269  0.0078
 7395SOL     OW29345   5.727   5.872   1.092 -0.1213 -0.2913  0.5343
 7395SOL    HW229346   5.821   5.854   1.093 -0.1487 -0.4711  2.1052
 7395SOL    HW329347   5.686   5.786   1.103 -0.3574  0.1052  3.4719
 7395SOL    MW429348   5.734   5.858   1.094 -0.1560 -0.2627  1.1291
 7396SOL     OW29349   3.944   1.701   5.683 -0.1869  0.0278  0.3974
 7396SOL    HW229350   3.865   1.744   5.716  0.2896 -0.6894  2.6451
 7396SOL    HW329351   3.959   1.630   5.745  2.4939  0.4475  0.3175
 7396SOL    MW429352   3.935   1.697   5.696  0.2296 -0.0115  0.6834
 7397SOL     OW29353   2.025   6.056   4.968 -0.1641 -0.0559  0.2163
 7397SOL    HW229354   2.086   6.068   5.041  0.4091  0.1075 -0.2837
 7397SOL    HW329355   2.077   6.071   4.889 -0.1629 -2.6279 -0.3538
 7397SOL    MW429356   2.040   6.060   4.967 -0.0883 -0.3737  0.0751
 7398SOL     OW29357   5.462   5.456   0.956  0.0636 -0.6148  0.0084
 7398SOL    HW229358   5.368   5.453   0.936  0.5330 -3.3465 -2.4028
 7398SOL    HW329359   5.490   5.542   0.925 -1.3016 -0.5267 -1.0668
 7398SOL    MW429360   5.453   5.467   0.950 -0.0546 -0.9636 -0.4516
 7399SOL     OW29361   4.090   2.792   5.944 -0.1780  0.8210  0.2557
 7399SOL    HW229362   4.007   2.786   5.991  0.1698 -0.3313  0.7568
 7399SOL    HW329363   4.067   2.775   5.853 -0.3698 -0.5433  0.5397
 7399SOL    MW429364   4.076   2.789   5.938 -0.1574  0.4890  0.3593
 7400SOL     OW29365   3.980   0.049   5.751 -0.4270  0.3860  0.6693
 7400SOL    HW229366   3.899   0.029   5.703  0.3390 -0.2784 -0.3952
 7400SOL    HW329367   3.981   0.144   5.757 -0.8755  0.4495 -0.0790
 7400SOL    MW429368   3.969   0.059   5.745 -0.3851  0.3068  0.4302
 7401SOL     OW29369   2.999   0.249   2.233 -0.1730 -0.4074 -0.1950
 7401SOL    HW229370   3.008   0.155   2.220 -0.7957 -0.4960  0.0009
 7401SOL    HW329371   2.919   0.272   2.186  0.5299  0.2031 -1.1229
 7401SOL    MW429372   2.990   0.240   2.225 -0.1624 -0.3385 -0.2916
 7402SOL     OW29373   0.162   1.738   4.141  0.6891  0.2638 -0.0008
 7402SOL    HW229374   0.136   1.809   4.200  1.0119  0.5795 -0.2380
 7402SOL    HW329375   0.093   1.673   4.152  0.3132  0.6707  0.1206
 7402SOL    MW429376   0.149   1.739   4.150  0.6821  0.3592 -0.0161
 7403SOL     OW29377   3.693   3.410   2.157 -0.2864 -0.5396 -0.2904
 7403SOL    HW229378   3.714   3.414   2.063  0.4531 -0.4633 -0.1264
 7403SOL    HW329379   3.626   3.477   2.170  1.5822  1.4058 -0.2534
 7403SOL    MW429380   3.687   3.419   2.146  0.0577 -0.2728 -0.2639
 7404SOL     OW29381   2.894   0.815   3.026  0.0373  0.5559 -0.5612
 7404SOL    HW229382   2.886   0.910   3.036  0.3370  0.5165  0.1138
 7404SOL    HW329383   2.896   0.781   3.116  0.6101 -0.0293 -0.7841
 7404SOL    MW429384   2.893   0.823   3.039  0.1524  0.4735 -0.5015
 7405SOL     OW29385   0.107   3.238   5.779  0.3460 -0.0033  0.0958
 7405SOL    HW229386   0.082   3.181   5.852 -0.9742 -1.4062 -1.3624
 7405SOL    HW329387   0.026   3.248   5.728  1.2877  0.7254 -1.3153
 7405SOL    MW429388   0.093   3.232   5.782  0.2960 -0.0923 -0.2828
 7406SOL     OW29389   6.237   4.035   4.629  0.2160  0.1824 -0.3445
 7406SOL    HW229390   6.295   3.997   4.695 -0.2637  0.1906  0.0798
 7406SOL    HW329391   6.277   4.009   4.545  1.2538  0.8234 -0.0694
 7406SOL    MW429392   6.250   4.026   4.626  0.2896  0.2681 -0.2522
 7407SOL     OW29393   3.016   6.118   2.111 -0.2751  0.4364  0.2292
 7407SOL    HW229394   3.026   6.024   2.119 -0.9206  0.2714 -0.6297
 7407SOL    HW329395   2.966   6.129   2.030 -0.4901  1.4953  0.4924
 7407SOL    MW429396   3.010   6.107   2.101 -0.3886  0.5543  0.1506
 7408SOL     OW29397   3.432   2.765   2.332 -0.2626 -0.0502  0.3689
 7408SOL    HW229398   3.340   2.745   2.319 -0.0841 -2.0893  1.8208
 7408SOL    HW329399   3.433   2.830   2.403 -0.5661  0.0978  0.2394
 7408SOL    MW429400   3.420   2.771   2.339 -0.2791 -0.2997  0.5434
 7409SOL     OW29401   4.269   5.807   6.148  0.2294  0.8437 -0.1100
 7409SOL    HW229402   4.177   5.803   6.122  0.3384  0.1419 -0.3936
 7409SOL    HW329403   4.318   5.805   6.066  0.4773  3.0795 -0.0870
 7409SOL    MW429404   4.264   5.806   6.134  0.2765  1.0461 -0.1444
 7410SOL     OW29405   5.253   2.313   3.342  0.2327  0.5311 -0.5659
 7410SOL    HW229406   5.306   2.241   3.377  0.3379 -0.0070 -1.7572
 7410SOL    HW329407   5.173   2.270   3.313 -0.1313  1.0703 -0.3538
 7410SOL    MW429408   5.250   2.298   3.343  0.1986  0.5312 -0.6951
 7411SOL     OW29409   3.705   0.302   0.626  0.5384  0.0453 -0.9031
 7411SOL    HW229410   3.635   0.306   0.691  0.5753 -1.2931 -0.7548
 7411SOL    HW329411   3.666   0.340   0.547 -0.1012  0.0263 -0.6002
 7411SOL    MW429412   3.691   0.307   0.624  0.4589 -0.1338 -0.8436
 7412SOL     OW29413   1.126   2.049   0.010  0.7525 -0.2069  0.1199
 7412SOL    HW229414   1.201   2.015   0.061 -0.3664 -2.7136  0.2437
 7412SOL    HW329415   1.058   2.064   0.076  0.3372 -0.3922 -0.2642
 7412SOL    MW429416   1.127   2.046   0.026  0.5501 -0.5621  0.0856
 7413SOL     OW29417   4.463   0.382   0.584 -0.1471 -0.3414 -0.4982
 7413SOL    HW229418   4.506   0.455   0.539 -0.3528  0.5369  0.6819
 7413SOL    HW329419   4.500   0.303   0.543  1.3616  0.4026 -0.6414
 7413SOL    MW429420   4.474   0.381   0.572  0.0248 -0.1274 -0.3614
 7414SOL     OW29421   0.555   0.220   2.212 -0.2165 -0.6860  0.3286
 7414SOL    HW229422   0.649   0.221   2.230  0.2558  1.2513 -1.7819
 7414SOL    HW329423   0.545   0.160   2.139  0.0243  1.8043 -1.8896
 7414SOL    MW429424   0.566   0.212   2.205 -0.1224 -0.1019 -0.2425
 7415SOL     OW29425   3.051   0.192   2.877 -0.3416  0.3105 -0.1379
 7415SOL    HW229426   3.015   0.116   2.923  0.2836 -0.2236 -0.5180
 7415SOL    HW329427   2.974   0.242   2.849 -0.8729 -1.3666 -1.8616
 7415SOL    MW429428   3.036   0.189   2.879 -0.3292  0.0188 -0.4155
 7416SOL     OW29429   4.415   5.005   2.922 -0.3689  0.1620 -0.3370
 7416SOL    HW229430   4.382   4.978   2.836  1.7143 -0.7791 -0.8855
 7416SOL    HW329431   4.446   5.095   2.909 -0.2961  0.1158 -0.4800
 7416SOL    MW429432   4.415   5.013   2.909 -0.0844  0.0318 -0.4282
 7417SOL     OW29433   6.037   2.959   3.700 -0.2910  0.1353  0.0718
 7417SOL    HW229434   6.104   3.018   3.665 -0.4219  0.0846 -0.2608
 7417SOL    HW329435   6.011   2.999   3.783 -0.0016  0.2681  0.1009
 7417SOL    MW429436   6.043   2.972   3.707 -0.2701  0.1462  0.0317
 7418SOL     OW29437   3.417   2.006   0.374 -0.3135 -0.0694  0.5157
 7418SOL    HW229438   3.420   2.064   0.298 -1.8600 -0.8188 -0.1493
 7418SOL    HW329439   3.325   1.982   0.383  0.2280 -2.1248  0.9896
 7418SOL    MW429440   3.405   2.011   0.365 -0.4461 -0.4394  0.4905
 7419SOL     OW29441   1.010   0.832   3.352  0.3282  0.7704 -0.1024
 7419SOL    HW229442   1.030   0.741   3.333  0.5000  0.8105 -0.1151
 7419SOL    HW329443   1.024   0.841   3.447  1.9011  1.1747 -0.3338
 7419SOL    MW429444   1.015   0.821   3.362  0.5584  0.8290 -0.1346
 7420SOL     OW29445   6.354   2.090   0.853 -0.2294  0.1777 -0.0925
 7420SOL    HW229446   6.305   2.141   0.788 -1.5172 -1.3841 -0.4348
 7420SOL    HW329447   6.443   2.085   0.818 -0.0957  2.0237 -0.1030
 7420SOL    MW429448   6.359   2.096   0.840 -0.3817  0.2152 -0.1391
 7421SOL     OW29449   5.072   4.706   5.913 -0.6545 -0.2897  0.1168
 7421SOL    HW229450   5.141   4.739   5.971 -0.5600 -1.7421  0.8750
 7421SOL    HW329451   5.119   4.669   5.838 -0.7573  1.1319 -0.6928
 7421SOL    MW429452   5.087   4.706   5.911 -0.6556 -0.2938  0.1101
 7422SOL     OW29453   1.388   3.834   1.627  0.2638  0.4993  0.5352
 7422SOL    HW229454   1.320   3.782   1.585 -0.5933  1.8646  0.1535
 7422SOL    HW329455   1.470   3.804   1.587 -0.2830  0.0096 -0.2348
 7422SOL    MW429456   1.390   3.823   1.617  0.0785  0.6149  0.3832
 7423SOL     OW29457   5.916   0.537   5.935 -0.7337  0.4042 -0.3067
 7423SOL    HW229458   5.960   0.579   5.861 -1.3803  1.7410  0.0226
 7423SOL    HW329459   5.886   0.611   5.989 -0.3720 -0.5265  1.2381
 7423SOL    MW429460   5.918   0.553   5.932 -0.7713  0.4577 -0.0595
 7424SOL     OW29461   0.211   4.706   3.715 -0.4684  0.2255 -0.0916
 7424SOL    HW229462   0.262   4.712   3.635  0.2379  1.0626  0.4040
 7424SOL    HW329463   0.142   4.772   3.706 -1.0691 -0.4484 -0.4782
 7424SOL    MW429464   0.208   4.715   3.704 -0.4544  0.2471 -0.0772
 7425SOL     OW29465   2.846   2.227   3.889 -0.3168 -0.4655  0.2254
 7425SOL    HW229466   2.808   2.291   3.949  0.0151  0.0279 -0.0810
 7425SOL    HW329467   2.806   2.143   3.914 -0.2735 -0.2505  1.0483
 7425SOL    MW429468   2.836   2.224   3.900 -0.2673 -0.3720  0.2936
 7426SOL     OW29469   4.337   4.728   2.392 -0.3874 -0.2650 -0.0214
 7426SOL    HW229470   4.280   4.747   2.467  1.1273  4.2538  0.3457
 7426SOL    HW329471   4.285   4.672   2.336 -2.9027 -1.0820  2.8413
 7426SOL    MW429472   4.323   4.723   2.395 -0.5194  0.2234  0.4047
 7427SOL     OW29473   5.702   5.636   3.486 -0.4592 -0.0531 -0.3158
 7427SOL    HW229474   5.761   5.594   3.549 -0.6296  0.0306 -0.0986
 7427SOL    HW329475   5.615   5.604   3.510 -0.8774  2.0472  1.2095
 7427SOL    MW429476   5.698   5.626   3.498 -0.5369  0.2351 -0.0859
 7428SOL     OW29477   4.562   6.242   3.893  0.0390  0.5481 -0.1847
 7428SOL    HW229478   4.576   6.150   3.915  0.7018  0.4641 -0.9379
 7428SOL    HW329479   4.470   6.246   3.864 -0.3184  0.3399  0.8660
 7428SOL    MW429480   4.551   6.231   3.892  0.0793  0.5095 -0.1455
 7429SOL     OW29481   2.688   0.868   4.536  0.1069 -0.1650 -0.2450
 7429SOL    HW229482   2.712   0.777   4.522 -0.8833 -0.5579  0.4215
 7429SOL    HW329483   2.593   0.869   4.524 -0.5125 -0.0595  3.4104
 7429SOL    MW429484   2.678   0.856   4.533 -0.1054 -0.2030  0.3252
 7430SOL     OW29485   6.059   5.167   5.703 -0.3306  0.2160 -0.0858
 7430SOL    HW229486   6.076   5.077   5.732  3.0527  0.3734 -1.1274
 7430SOL    HW329487   6.133   5.217   5.737 -0.7757  2.0724 -1.6911
 7430SOL    MW429488   6.071   5.162   5.711  0.0570  0.4817 -0.4351
 7431SOL     OW29489   1.064   4.309   1.807  0.5094  0.1139  0.1011
 7431SOL    HW229490   1.072   4.301   1.712 -0.5195  1.0081 -0.0728
 7431SOL    HW329491   0.970   4.317   1.823  0.5132 -1.5691  1.3387
 7431SOL    MW429492   1.053   4.309   1.797  0.3742  0.0099  0.2415
 7432SOL     OW29493   2.643   3.498   5.583  0.6682  0.6100  0.2532
 7432SOL    HW229494   2.725   3.538   5.615  0.0846  2.5090 -0.4947
 7432SOL    HW329495   2.590   3.572   5.554 -1.0436 -0.6463  0.0253
 7432SOL    MW429496   2.647   3.513   5.583  0.3654  0.6948  0.1244
 7433SOL     OW29497   5.217   0.970   4.790 -0.3636 -0.1403  0.3004
 7433SOL    HW229498   5.244   1.062   4.781  1.0748 -0.6018 -0.3763
 7433SOL    HW329499   5.204   0.958   4.884  0.0514  0.5929  0.4614
 7433SOL    MW429500   5.219   0.981   4.801 -0.1191 -0.1044  0.2324
 7434SOL     OW29501   4.382   3.095   2.268 -0.9183 -0.3319  0.1446
 7434SOL    HW229502   4.301   3.045   2.273 -1.3689  0.4226  0.5386
 7434SOL    HW329503   4.421   3.088   2.355 -1.6031  0.9919  0.5893
 7434SOL    MW429504   4.377   3.088   2.280 -1.0681 -0.0577  0.2552
 7435SOL     OW29505   0.203   3.673   2.514 -0.0417 -0.1517  0.2977
 7435SOL    HW229506   0.206   3.589   2.559 -0.2997 -0.1860  0.2555
 7435SOL    HW329507   0.159   3.654   2.431 -0.8587  0.1826  0.6426
 7435SOL    MW429508   0.197   3.660   2.509 -0.1835 -0.1121  0.3377
 7436SOL     OW29509   2.965   5.962   0.738 -0.3564  0.0912 -0.0999
 7436SOL    HW229510   3.030   5.984   0.671 -2.5588 -0.2021 -2.4636
 7436SOL    HW329511   2.994   5.878   0.774  0.3084 -0.2854 -1.4783
 7436SOL    MW429512   2.977   5.954   0.734 -0.5592  0.0028 -0.5936
 7437SOL     OW29513   6.144   3.442   5.842 -0.0172  0.0383  0.2865
 7437SOL    HW229514   6.064   3.488   5.818 -0.4434 -0.7214  0.2107
 7437SOL    HW329515   6.197   3.507   5.888 -0.8576  0.4392  0.7109
 7437SOL    MW429516   6.141   3.456   5.845 -0.1843 -0.0090  0.3325
 7438SOL     OW29517   2.090   2.792   5.206 -0.2266 -0.4052  0.2731
 7438SOL    HW229518   2.014   2.834   5.165  0.6720 -0.0558 -1.1139
 7438SOL    HW329519   2.065   2.700   5.215 -0.2911 -0.6212 -1.6091
 7438SOL    MW429520   2.077   2.785   5.201 -0.1165 -0.3876 -0.1582
 7439SOL     OW29521   4.203   0.664   3.467 -0.6260  0.1009 -0.1533
 7439SOL    HW229522   4.191   0.584   3.416  0.5409  0.3655 -0.8775
 7439SOL    HW329523   4.143   0.654   3.541 -1.2649 -0.9609 -0.7892
 7439SOL    MW429524   4.194   0.652   3.470 -0.5563 -0.0043 -0.3327
 7440SOL     OW29525   5.193   0.777   1.277 -0.0438 -0.2173 -0.0604
 7440SOL    HW229526   5.214   0.754   1.187 -1.0368 -1.5471  0.0241
 7440SOL    HW329527   5.277   0.774   1.323  0.7901  2.2215 -1.2481
 7440SOL    MW429528   5.207   0.774   1.271 -0.0648 -0.0710 -0.2060
 7441SOL     OW29529   2.405   4.828   6.249 -0.7429  0.0653 -0.0409
 7441SOL    HW229530   2.351   4.861   6.321 -0.3031  0.8978 -0.0825
 7441SOL    HW329531   2.343   4.800   6.182 -1.1318  1.0345 -0.1000
 7441SOL    MW429532   2.390   4.829   6.250 -0.7362  0.3030 -0.0542
 7442SOL     OW29533   3.942   0.727   2.091 -0.3059 -0.4417  0.0929
 7442SOL    HW229534   3.983   0.641   2.081 -0.5373 -0.6502  0.8620
 7442SOL    HW329535   3.946   0.766   2.004 -1.3121 -1.7278 -0.5555
 7442SOL    MW429536   3.948   0.721   2.078 -0.4692 -0.6389  0.1088
 7443SOL     OW29537   1.732   0.139   0.825  0.5068 -0.0342  0.5482
 7443SOL    HW229538   1.711   0.046   0.815 -1.4296  0.4377 -0.2302
 7443SOL    HW329539   1.698   0.161   0.912  0.5496  0.0602  0.5409
 7443SOL    MW429540   1.725   0.129   0.835  0.2569  0.0406  0.4446
 7444SOL     OW29541   2.455   4.955   1.443  0.2776 -0.2254  0.3232
 7444SOL    HW229542   2.466   4.987   1.533  1.0926  0.6754 -0.0844
 7444SOL    HW329543   2.461   5.034   1.389  0.5972 -0.8630 -0.5836
 7444SOL    MW429544   2.457   4.970   1.448  0.4273 -0.1907  0.1498
 7445SOL     OW29545   1.861   6.166   1.796  0.2972 -0.5030  0.1544
 7445SOL    HW229546   1.856   6.070   1.793 -0.5749 -0.4479 -0.5447
 7445SOL    HW329547   1.873   6.187   1.889 -1.1069 -1.2361  0.5354
 7445SOL    MW429548   1.862   6.156   1.808 -0.0031 -0.5924  0.1124
 7446SOL     OW29549   2.152   4.287   1.483  0.3576  0.7451 -0.0901
 7446SOL    HW229550   2.244   4.311   1.474  0.9887 -1.6954 -0.9072
 7446SOL    HW329551   2.147   4.248   1.571  0.5414 -0.6420 -0.6633
 7446SOL    MW429552   2.164   4.285   1.494  0.4651  0.2401 -0.2735
 7447SOL     OW29553   0.370   3.357   5.081  0.4518 -0.3228 -0.0755
 7447SOL    HW229554   0.455   3.315   5.072  0.9130  0.5119  0.2538
 7447SOL    HW329555   0.364   3.380   5.174  0.1005  0.1020 -0.1998
 7447SOL    MW429556   0.381   3.355   5.092  0.4663 -0.1566 -0.0485
 7448SOL     OW29557   1.196   1.472   1.861  0.5702 -0.1895 -0.3083
 7448SOL    HW229558   1.239   1.506   1.940 -2.3953  0.2064  1.3083
 7448SOL    HW329559   1.145   1.397   1.892  0.4537 -0.9265 -2.1750
 7448SOL    MW429560   1.195   1.467   1.875  0.1636 -0.2345 -0.3413
 7449SOL     OW29561   1.590   4.954   2.197  0.6191 -0.0025  0.1282
 7449SOL    HW229562   1.641   4.874   2.182  0.3646  0.0590 -1.1419
 7449SOL    HW329563   1.642   5.023   2.158  0.1336  0.2333 -0.1115
 7449SOL    MW429564   1.603   4.952   2.190  0.5215  0.0367 -0.0710
 7450SOL     OW29565   0.040   2.866   3.671  0.2510  0.6562  0.3881
 7450SOL    HW229566   0.084   2.862   3.756 -1.4008  1.9806  1.3980
 7450SOL    HW329567  -0.025   2.936   3.682  0.0801  0.9618 -2.0355
 7450SOL    MW429568   0.037   2.875   3.684  0.0105  0.8713  0.2016
 7451SOL     OW29569   1.668   1.597   0.204 -0.3219 -0.3609 -0.0292
 7451SOL    HW229570   1.595   1.536   0.191 -0.4589 -0.4219  0.8942
 7451SOL    HW329571   1.703   1.613   0.117 -1.3254 -0.4772 -0.4642
 7451SOL    MW429572   1.663   1.591   0.191 -0.4724 -0.3843  0.0353
 7452SOL     OW29573   1.346   6.276   4.920 -0.3614  0.2463 -0.2620
 7452SOL    HW229574   1.291   6.308   4.992  0.4339 -2.3655  1.6681
 7452SOL    HW329575   1.297   6.202   4.883  1.8177 -2.4734  1.8285
 7452SOL    MW429576   1.332   6.270   4.925  0.0310 -0.4571  0.2685
 7453SOL     OW29577   5.237   4.877   5.390  0.2668  0.0057 -0.2334
 7453SOL    HW229578   5.175   4.805   5.379  0.5312 -0.1056 -1.0474
 7453SOL    HW329579   5.217   4.912   5.477 -1.3799  0.3931 -0.7145
 7453SOL    MW429580   5.226   4.872   5.400  0.0844  0.0422 -0.4043
 7454SOL     OW29581   5.196   0.972   3.269  0.1650 -0.4486  0.5122
 7454SOL    HW229582   5.187   0.879   3.248  0.3522 -0.2019 -0.7344
 7454SOL    HW329583   5.272   0.976   3.328  0.0912 -1.0851  0.6613
 7454SOL    MW429584   5.205   0.960   3.274  0.1800 -0.5000  0.3674
 7455SOL     OW29585   3.156   0.896   4.487  0.4539 -0.0088  0.0259
 7455SOL    HW229586   3.131   0.817   4.536 -0.4954 -0.5477 -1.2605
 7455SOL    HW329587   3.078   0.951   4.488  0.6276  0.2473 -0.3553
 7455SOL    MW429588   3.142   0.893   4.494  0.3516 -0.0461 -0.1941
 7456SOL     OW29589   5.937   6.322   5.379  0.5312 -0.3058  0.6151
 7456SOL    HW229590   5.867   6.348   5.319 -0.4965 -0.2657  1.7855
 7456SOL    HW329591   6.004   6.389   5.368 -0.9980  1.5505  1.7624
 7456SOL    MW429592   5.936   6.335   5.370  0.1939 -0.0556  0.9209
 7457SOL     OW29593   1.245   4.481   0.482 -0.3356 -0.0972 -0.1073
 7457SOL    HW229594   1.177   4.528   0.433  0.0816 -1.0523 -1.6737
 7457SOL    HW329595   1.286   4.424   0.417  2.0993  0.5535  0.7531
 7457SOL    MW429596   1.241   4.480   0.467  0.0407 -0.1374 -0.2004
 7458SOL     OW29597   2.956   4.180   3.441  0.3693  0.2712 -0.1334
 7458SOL    HW229598   2.985   4.191   3.350  0.9050  0.6890  0.0780
 7458SOL    HW329599   3.036   4.194   3.493 -0.3994  2.5769  0.5386
 7458SOL    MW429600   2.970   4.183   3.436  0.3386  0.6305 -0.0169
 7459SOL     OW29601   2.515   4.526   5.932 -0.4442 -0.5282  0.3494
 7459SOL    HW229602   2.590   4.506   5.876  0.5822 -0.8015  1.7593
 7459SOL    HW329603   2.553   4.549   6.017 -1.9623 -1.1376  1.2540
 7459SOL    MW429604   2.530   4.526   5.936 -0.5091 -0.6446  0.6547
 7460SOL     OW29605   3.916   2.867   1.724 -0.0997 -0.1955 -0.5838
 7460SOL    HW229606   3.932   2.953   1.687 -2.3954  0.4873 -0.1594
 7460SOL    HW329607   3.826   2.847   1.699 -0.1819 -1.7128  0.7892
 7460SOL    MW429608   3.906   2.876   1.716 -0.4134 -0.3056 -0.3467
 7461SOL     OW29609   5.962   3.579   4.442 -0.2931  0.0636 -0.0013
 7461SOL    HW229610   5.875   3.616   4.421 -0.1090 -0.1023 -1.1383
 7461SOL    HW329611   5.955   3.554   4.534 -1.3821  0.2613 -0.0051
 7461SOL    MW429612   5.949   3.581   4.451 -0.4125  0.0678 -0.1519
 7462SOL     OW29613   4.764   4.138   6.123 -0.3084  0.5208 -0.4679
 7462SOL    HW229614   4.833   4.155   6.188  0.8550 -0.9112 -1.2585
 7462SOL    HW329615   4.811   4.134   6.040 -1.0895 -1.8758 -0.8758
 7462SOL    MW429616   4.780   4.139   6.121 -0.2580  0.0157 -0.6261
 7463SOL     OW29617   0.884   5.486   3.905 -0.4875 -0.1513 -0.0434
 7463SOL    HW229618   0.898   5.510   3.814 -1.9734  1.3641  0.0912
 7463SOL    HW329619   0.873   5.391   3.904  0.0347 -0.2118 -1.3496
 7463SOL    MW429620   0.884   5.476   3.893 -0.6147  0.0407 -0.1980
 7464SOL     OW29621   5.662   0.877   2.508 -0.0971 -0.2632  0.5104
 7464SOL    HW229622   5.756   0.871   2.488  0.2027  3.0859  0.3966
 7464SOL    HW329623   5.649   0.814   2.579  1.9290 -1.7278 -0.3208
 7464SOL    MW429624   5.673   0.868   2.515  0.2098 -0.0145  0.3857
 7465SOL     OW29625   5.449   0.254   3.915 -0.4948 -0.5075  0.2652
 7465SOL    HW229626   5.416   0.217   3.997 -1.2525  1.8700  1.1062
 7465SOL    HW329627   5.544   0.243   3.920 -0.6709 -2.1505  0.5158
 7465SOL    MW429628   5.457   0.248   3.926 -0.6180 -0.4106  0.4093
 7466SOL     OW29629   3.219   4.076   2.804 -0.5610  0.3719 -0.0625
 7466SOL    HW229630   3.291   4.029   2.764 -1.3002 -0.2957 -0.6428
 7466SOL    HW329631   3.151   4.078   2.737 -0.1362  3.3670 -0.5161
 7466SOL    MW429632   3.219   4.070   2.790 -0.6025  0.6790 -0.1989
 7467SOL     OW29633   1.477   5.721   4.252 -0.3331  0.4086 -0.0860
 7467SOL    HW229634   1.532   5.782   4.203  1.0243  0.3740  1.3201
 7467SOL    HW329635   1.483   5.639   4.204  1.0534  0.3514  0.1497
 7467SOL    MW429636   1.485   5.719   4.239  0.0289  0.3965  0.1306
 7468SOL     OW29637   4.926   5.275   6.281 -0.0078 -0.0455  0.4425
 7468SOL    HW229638   4.865   5.266   6.354  0.3424 -0.5171  0.6784
 7468SOL    HW329639   4.900   5.207   6.219 -0.3441  0.3922  0.0848
 7468SOL    MW429640   4.914   5.265   6.283 -0.0059 -0.0500  0.4264
 7469SOL     OW29641   2.349   0.975   5.898  0.6801 -0.1025 -0.4573
 7469SOL    HW229642   2.275   0.951   5.953 -0.2678  1.6328 -0.9087
 7469SOL    HW329643   2.425   0.972   5.957 -0.0880  0.2901  0.5840
 7469SOL    MW429644   2.350   0.972   5.913  0.4537  0.1782 -0.3795
 7470SOL     OW29645   5.507   6.185   4.420 -0.5131 -0.4513  0.1027
 7470SOL    HW229646   5.555   6.224   4.347 -1.6443  0.7247 -0.0448
 7470SOL    HW329647   5.416   6.187   4.393 -0.9941  0.2444  1.6477
 7470SOL    MW429648   5.501   6.190   4.407 -0.7258 -0.2043  0.2871
 7471SOL     OW29649   0.785   5.877   6.271 -0.0118  0.5958 -0.3485
 7471SOL    HW229650   0.759   5.879   6.363 -0.2701  0.0685 -0.4071
 7471SOL    HW329651   0.738   5.802   6.234 -0.8365  1.4908 -1.1890
 7471SOL    MW429652   0.775   5.868   6.278 -0.1547  0.6443 -0.4671
 7472SOL     OW29653   1.435   0.201   2.168 -0.0974  0.7916  0.1214
 7472SOL    HW229654   1.476   0.245   2.243  1.4690  1.7362 -1.2117
 7472SOL    HW329655   1.507   0.153   2.127 -0.7367  0.9957 -1.2736
 7472SOL    MW429656   1.450   0.200   2.173  0.0249  0.9432 -0.2386
 7473SOL     OW29657   4.202   6.032   3.400  0.0159 -0.4637 -0.0205
 7473SOL    HW229658   4.168   5.994   3.319  2.2647 -1.1961 -0.6806
 7473SOL    HW329659   4.189   5.962   3.465  0.5740 -0.8857 -0.3525
 7473SOL    MW429660   4.196   6.017   3.398  0.3862 -0.6160 -0.1514
 7474SOL     OW29661   2.546   3.235   3.374  0.3668 -0.4964 -0.2085
 7474SOL    HW229662   2.578   3.319   3.340 -0.0814  0.9440  2.5807
 7474SOL    HW329663   2.459   3.225   3.337  0.5880  0.0534 -0.8935
 7474SOL    MW429664   2.539   3.245   3.365  0.3368 -0.2338  0.0691
 7475SOL     OW29665   6.371   0.768   6.415  1.0634  0.4602 -0.9700
 7475SOL    HW229666   6.308   0.822   6.463  1.1386  0.5910 -1.0159
 7475SOL    HW329667   6.317   0.704   6.368  1.0784 -0.8134  0.6665
 7475SOL    MW429668   6.355   0.767   6.415  1.0753  0.3094 -0.7602
 7476SOL     OW29669   5.366   3.964   2.389  0.1942 -0.0542 -0.1286
 7476SOL    HW229670   5.320   4.047   2.377 -0.9661 -0.3984  1.5677
 7476SOL    HW329671   5.330   3.929   2.471  1.0264 -1.9863 -0.5519
 7476SOL    MW429672   5.355   3.970   2.398  0.1509 -0.3545  0.0394
 7477SOL     OW29673   4.100   2.419   1.091 -0.0433  0.2107 -0.3347
 7477SOL    HW229674   4.043   2.369   1.032 -0.4554 -0.6060  0.7109
 7477SOL    HW329675   4.188   2.397   1.063 -0.2282  0.3091 -1.0237
 7477SOL    MW429676   4.104   2.409   1.080 -0.1221  0.1159 -0.2877
 7478SOL     OW29677   1.457   1.748   4.406 -0.4484  0.4850  0.1285
 7478SOL    HW229678   1.543   1.771   4.371 -0.4041  1.3575  0.7774
 7478SOL    HW329679   1.445   1.656   4.381  0.1208  0.7048 -1.0508
 7478SOL    MW429680   1.467   1.739   4.398 -0.3675  0.6291  0.0585
 7479SOL     OW29681   5.835   2.848   1.653 -0.1808 -0.3787  0.0704
 7479SOL    HW229682   5.839   2.785   1.581 -0.5169  0.4056 -0.6451
 7479SOL    HW329683   5.874   2.802   1.728 -1.4138 -1.8362 -0.1431
 7479SOL    MW429684   5.841   2.834   1.654 -0.3879 -0.4675 -0.0522
 7480SOL     OW29685   5.676   6.240   4.809 -0.2110 -0.3950 -0.4905
 7480SOL    HW229686   5.748   6.206   4.756 -0.1164 -0.8407 -0.0865
 7480SOL    HW329687   5.602   6.245   4.747 -0.2477 -1.4263 -0.5586
 7480SOL    MW429688   5.676   6.236   4.794 -0.2033 -0.5899 -0.4462
 7481SOL     OW29689   0.567   3.607   1.542  0.3760  0.1721 -0.1839
 7481SOL    HW229690   0.494   3.610   1.604  1.0387 -1.6611  0.7671
 7481SOL    HW329691   0.644   3.589   1.597  1.0675 -0.9945 -1.4748
 7481SOL    MW429692   0.568   3.605   1.558  0.5547 -0.2237 -0.2288
 7482SOL     OW29693   1.540   1.842   2.230  0.7080 -0.2745  0.8400
 7482SOL    HW229694   1.486   1.846   2.309  1.1417  0.7808  1.0932
 7482SOL    HW329695   1.625   1.876   2.257  0.4962  1.3615 -0.3631
 7482SOL    MW429696   1.544   1.847   2.244  0.7373  0.0806  0.7146
 7483SOL     OW29697   2.099   3.837   0.494 -0.1776 -0.5407 -0.1667
 7483SOL    HW229698   2.007   3.820   0.474  0.3149 -2.3014 -1.1429
 7483SOL    HW329699   2.136   3.751   0.514  1.2008  0.1669  0.5046
 7483SOL    MW429700   2.092   3.823   0.494  0.0693 -0.6797 -0.2069
 7484SOL     OW29701   1.984   2.896   1.071 -0.2572  0.1027  0.0074
 7484SOL    HW229702   2.053   2.859   1.126 -0.5943  0.4821  0.6998
 7484SOL    HW329703   1.986   2.990   1.090  0.1084  0.3496 -1.1906
 7484SOL    MW429704   1.993   2.904   1.081 -0.2534  0.1853 -0.0593
 7485SOL     OW29705   0.230   4.210   1.182  0.2686 -0.3865 -0.8064
 7485SOL    HW229706   0.222   4.247   1.270 -0.0705  0.8207 -1.3303
 7485SOL    HW329707   0.324   4.196   1.171  0.2198 -1.8231  0.2333
 7485SOL    MW429708   0.242   4.213   1.192  0.2174 -0.4168 -0.7384
 7486SOL     OW29709   5.388   0.074   3.625 -0.2474  0.1156  0.1020
 7486SOL    HW229710   5.388   0.170   3.623  1.4102  0.1414 -1.9093
 7486SOL    HW329711   5.381   0.048   3.533 -0.2610 -1.7053  0.5814
 7486SOL    MW429712   5.387   0.083   3.612 -0.0305 -0.1212 -0.1001
 7487SOL     OW29713   4.405   3.303   2.952  0.0323  0.5183 -0.7042
 7487SOL    HW229714   4.349   3.241   2.998 -0.8895  0.9627 -1.1899
 7487SOL    HW329715   4.436   3.364   3.019  0.2069  0.0774 -0.3807
 7487SOL    MW429716   4.402   3.303   2.967 -0.0663  0.5188 -0.7256
 7488SOL     OW29717   3.527   0.333   2.553  0.4359 -0.1707  0.2717
 7488SOL    HW229718   3.515   0.298   2.641  0.7928  0.3701  0.5395
 7488SOL    HW329719   3.618   0.313   2.531  0.8608  1.1742  0.7093
 7488SOL    MW429720   3.537   0.326   2.562  0.5391  0.0781  0.3648
 7489SOL     OW29721   1.502   5.518   3.403  0.4043  0.0229  0.1072
 7489SOL    HW229722   1.546   5.567   3.472  0.3788  0.3851 -0.1347
 7489SOL    HW329723   1.563   5.447   3.382  1.1411  0.8630 -0.6384
 7489SOL    MW429724   1.515   5.515   3.409  0.4981  0.1816 -0.0231
 7490SOL     OW29725   5.866   4.760   0.919  0.0560 -0.2410  0.1283
 7490SOL    HW229726   5.907   4.834   0.875 -1.5842  0.1055 -0.8775
 7490SOL    HW329727   5.897   4.766   1.010  1.3246  0.6287 -0.3386
 7490SOL    MW429728   5.876   4.771   0.926  0.0070 -0.0805 -0.0660
 7491SOL     OW29729   2.401   5.722   0.575  0.0593 -0.3652  0.5135
 7491SOL    HW229730   2.413   5.657   0.505 -1.7260 -0.7800  0.5662
 7491SOL    HW329731   2.310   5.713   0.602 -0.3114  2.2282  0.4613
 7491SOL    MW429732   2.391   5.713   0.569 -0.2252 -0.0777  0.5136
 7492SOL     OW29733   2.098   3.782   4.656  0.1280  0.3063 -0.3402
 7492SOL    HW229734   2.087   3.735   4.573  1.8596  0.3350 -0.6126
 7492SOL    HW329735   2.101   3.874   4.631 -1.8339  0.5304  0.0523
 7492SOL    MW429736   2.097   3.788   4.642  0.0976  0.3396 -0.3243
 7493SOL     OW29737   5.632   5.183   5.532 -0.0800 -0.3361 -0.5673
 7493SOL    HW229738   5.653   5.099   5.492 -1.3032 -0.8325 -0.2215
 7493SOL    HW329739   5.690   5.190   5.607  0.0666 -0.8499 -0.6343
 7493SOL    MW429740   5.642   5.173   5.537 -0.2220 -0.4693 -0.5305
 7494SOL     OW29741   5.837   2.592   3.194 -0.1024  0.0481 -0.5954
 7494SOL    HW229742   5.845   2.659   3.126  0.1580 -0.7174 -1.3399
 7494SOL    HW329743   5.767   2.624   3.251  2.1501  2.5896  1.0073
 7494SOL    MW429744   5.829   2.605   3.192  0.2291  0.2824 -0.4822
 7495SOL     OW29745   1.332   5.878   6.258 -0.3003 -0.5965  0.1621
 7495SOL    HW229746   1.243   5.910   6.275  0.1568  0.5762  0.4418
 7495SOL    HW329747   1.372   5.871   6.345 -0.8714 -3.5719  0.3006
 7495SOL    MW429748   1.325   5.881   6.272 -0.3154 -0.8344  0.2173
 7496SOL     OW29749   4.504   1.505   6.044 -0.3681  0.1907 -0.1369
 7496SOL    HW229750   4.543   1.436   6.097 -0.4234  1.0344  1.0437
 7496SOL    HW329751   4.543   1.494   5.957  0.2204 -0.8192  0.2430
 7496SOL    MW429752   4.515   1.494   6.039 -0.2977  0.1688  0.0690
 7497SOL     OW29753   3.156   2.228   2.573 -0.2353  0.0159  0.0601
 7497SOL    HW229754   3.126   2.303   2.522  0.3186  0.2521  0.0735
 7497SOL    HW329755   3.201   2.267   2.648 -0.9940 -0.3260  0.7108
 7497SOL    MW429756   3.158   2.243   2.576 -0.2623  0.0020  0.1477
 7498SOL     OW29757   5.603   2.302   1.309 -0.4523 -0.9372 -0.0182
 7498SOL    HW229758   5.582   2.314   1.217  0.0103 -0.0365 -0.0222
 7498SOL    HW329759   5.553   2.226   1.336 -0.4438 -1.3281 -1.0644
 7498SOL    MW429760   5.594   2.294   1.300 -0.3901 -0.8700 -0.1568
 7499SOL     OW29761   2.657   3.991   1.988  0.9249 -0.5763  0.5850
 7499SOL    HW229762   2.749   4.004   1.967  1.0726 -2.3821 -0.1225
 7499SOL    HW329763   2.610   4.040   1.920  1.3806 -0.7808  0.1127
 7499SOL    MW429764   2.663   3.999   1.976  1.0045 -0.8415  0.4294
 7500SOL     OW29765   1.793   4.793   6.278 -0.6172 -0.1845  0.0924
 7500SOL    HW229766   1.855   4.839   6.221  0.8404 -1.7409  0.3469
 7500SOL    HW329767   1.708   4.809   6.238  0.0301  1.2082 -0.8308
 7500SOL    MW429768   1.790   4.801   6.265 -0.3395 -0.2061  0.0042
 7501SOL     OW29769   0.618   2.663   5.431 -0.2488  0.0013  0.4215
 7501SOL    HW229770   0.547   2.686   5.371  0.0225  0.0576  0.1195
 7501SOL    HW329771   0.649   2.578   5.401  0.1467  0.2079  0.2362
 7501SOL    MW429772   0.612   2.655   5.419 -0.1608  0.0360  0.3572
 7502SOL     OW29773   1.634   2.538   3.062  0.3034  0.4266 -0.1836
 7502SOL    HW229774   1.621   2.444   3.049  1.3541  0.0872  1.0513
 7502SOL    HW329775   1.689   2.544   3.140  2.0182  1.9868 -1.4181
 7502SOL    MW429776   1.639   2.526   3.071  0.6683  0.5877 -0.1835
 7503SOL     OW29777   2.434   2.654   1.966 -0.0028  0.4505 -0.4736
 7503SOL    HW229778   2.525   2.652   1.936  0.2003 -0.1000  0.1520
 7503SOL    HW329779   2.386   2.604   1.901  0.4753 -0.9637  0.2031
 7503SOL    MW429780   2.440   2.647   1.954  0.0870  0.1913 -0.3018
 7504SOL     OW29781   0.172   5.831   2.850  0.1856 -0.0078 -0.4492
 7504SOL    HW229782   0.210   5.870   2.771  0.8712 -1.3892 -0.8292
 7504SOL    HW329783   0.136   5.906   2.898  0.3769  0.9422 -1.7210
 7504SOL    MW429784   0.173   5.846   2.846  0.3013 -0.0647 -0.6671
 7505SOL     OW29785   3.107   0.473   1.370 -0.4240 -0.0262  0.1438
 7505SOL    HW229786   3.068   0.392   1.404 -1.1387 -0.3760 -1.4226
 7505SOL    HW329787   3.032   0.526   1.344  0.0520 -0.5683 -2.6353
 7505SOL    MW429788   3.092   0.469   1.371 -0.4555 -0.1439 -0.4295
 7506SOL     OW29789   0.854   3.796   3.658  0.1645  0.0344  0.1491
 7506SOL    HW229790   0.925   3.756   3.607 -0.3716  0.8000 -1.2559
 7506SOL    HW329791   0.803   3.845   3.594 -0.0457  1.7997  1.5811
 7506SOL    MW429792   0.857   3.797   3.643  0.0660  0.3683  0.1527
 7507SOL     OW29793   5.672   2.946   3.840 -0.6427  0.6183 -0.2759
 7507SOL    HW229794   5.734   3.013   3.813  0.1318 -0.1639 -0.5125
 7507SOL    HW329795   5.586   2.989   3.838 -0.6181  0.7431 -3.5471
 7507SOL    MW429796   5.669   2.960   3.836 -0.5373  0.5316 -0.7387
 7508SOL     OW29797   5.496   6.053   4.937  0.3408  0.1690 -0.0357
 7508SOL    HW229798   5.555   5.980   4.958  1.4389  1.3033  0.9767
 7508SOL    HW329799   5.553   6.119   4.898 -0.3930  1.0226  0.3126
 7508SOL    MW429800   5.511   6.052   4.935  0.3889  0.4312  0.1439
 7509SOL     OW29801   3.039   3.540   4.670 -0.1665 -0.2169 -0.3442
 7509SOL    HW229802   2.967   3.603   4.659 -1.7683 -1.9485 -0.2943
 7509SOL    HW329803   3.008   3.461   4.626  1.4272 -1.2362  0.2875
 7509SOL    MW429804   3.025   3.538   4.663 -0.1676 -0.5798 -0.2543
 7510SOL     OW29805   1.225   3.125   2.965 -0.4289 -0.3478  0.0662
 7510SOL    HW229806   1.224   3.128   2.869 -1.9323 -0.6130  0.0525
 7510SOL    HW329807   1.151   3.178   2.992 -0.0866 -0.3700  1.0955
 7510SOL    MW429808   1.215   3.132   2.956 -0.5821 -0.3857  0.2002
 7511SOL     OW29809   4.977   2.751   3.155  0.6615  0.1541 -0.2287
 7511SOL    HW229810   4.934   2.809   3.218  2.1388  1.8907 -0.7403
 7511SOL    HW329811   5.010   2.678   3.208  0.8964  1.0204  0.8605
 7511SOL    MW429812   4.976   2.749   3.171  0.8874  0.4975 -0.1525
 7512SOL     OW29813   3.316   2.746   4.377 -0.4870 -0.2742 -0.1354
 7512SOL    HW229814   3.367   2.667   4.392 -0.3012 -0.1752 -0.2266
 7512SOL    HW329815   3.227   2.723   4.401 -0.0963  0.0990  1.9083
 7512SOL    MW429816   3.311   2.733   4.382 -0.4109 -0.2119  0.1222
 7513SOL     OW29817   5.365   5.318   6.090  0.4956 -0.1156  0.3042
 7513SOL    HW229818   5.347   5.406   6.057  1.7045  0.2033  0.4553
 7513SOL    HW329819   5.292   5.265   6.058 -2.5145  1.6717  3.5519
 7513SOL    MW429820   5.353   5.322   6.081  0.2579  0.1623  0.7526
 7514SOL     OW29821   0.353   4.025   6.292 -0.1561  0.2401 -0.1697
 7514SOL    HW229822   0.334   4.114   6.322  0.9267  0.7979 -1.0743
 7514SOL    HW329823   0.448   4.021   6.286 -0.2552 -0.2757 -2.1513
 7514SOL    MW429824   0.363   4.037   6.295 -0.0263  0.2456 -0.5505
 7515SOL     OW29825   3.930   5.432   3.971  0.4358  0.0411 -0.2840
 7515SOL    HW229826   3.901   5.516   4.005  2.2193 -0.0162  1.5857
 7515SOL    HW329827   3.955   5.382   4.049 -0.2031 -2.0929 -1.3692
 7515SOL    MW429828   3.930   5.436   3.986  0.5868 -0.2480 -0.1805
 7516SOL     OW29829   5.111   2.508   5.451  0.4027 -0.1006 -0.1253
 7516SOL    HW229830   5.200   2.473   5.459  0.0412 -2.6476 -4.1630
 7516SOL    HW329831   5.056   2.444   5.496  0.4749  2.6268  4.4303
 7516SOL    MW429832   5.116   2.495   5.458  0.3646 -0.0768 -0.0569
 7517SOL     OW29833   2.227   2.120   2.378 -0.2963 -0.3557 -0.0277
 7517SOL    HW229834   2.211   2.179   2.452 -1.1565  0.6833 -0.9957
 7517SOL    HW329835   2.145   2.073   2.366  0.1845 -1.3149  0.3349
 7517SOL    MW429836   2.214   2.122   2.386 -0.3463 -0.3451 -0.1076
 7518SOL     OW29837   0.702   4.997   4.657 -0.1451 -0.5680 -0.2317
 7518SOL    HW229838   0.724   5.076   4.608 -0.2802  0.1171  0.7785
 7518SOL    HW329839   0.785   4.968   4.694 -0.3951  0.3115  1.1073
 7518SOL    MW429840   0.715   5.004   4.655 -0.1959 -0.3616  0.0783
 7519SOL     OW29841   3.607   0.322   2.232  0.3219  0.6148  0.0747
 7519SOL    HW229842   3.586   0.242   2.280  0.4368  1.4634  1.6121
 7519SOL    HW329843   3.539   0.385   2.258  1.2356  1.5411  0.3273
 7519SOL    MW429844   3.595   0.320   2.242  0.4576  0.8490  0.3109
 7520SOL     OW29845   5.992   1.146   4.955 -0.2108  0.2232 -0.5662
 7520SOL    HW229846   6.037   1.188   4.881 -0.8880  1.2828 -0.3910
 7520SOL    HW329847   5.923   1.094   4.914 -3.0824  3.7438 -0.6426
 7520SOL    MW429848   5.989   1.145   4.940 -0.6790  0.8275 -0.5532
 7521SOL     OW29849   1.982   5.404   1.270  0.2549  1.0479 -0.2335
 7521SOL    HW229850   2.039   5.394   1.346 -1.7074 -0.8526  1.0863
 7521SOL    HW329851   1.978   5.498   1.255  3.5346  1.2982 -0.3172
 7521SOL    MW429852   1.989   5.415   1.278  0.4287  0.8302 -0.0704
 7522SOL     OW29853   5.326   1.581   5.408 -0.0353  0.2330  0.5543
 7522SOL    HW229854   5.351   1.652   5.467 -0.6713 -0.1142  1.2628
 7522SOL    HW329855   5.401   1.522   5.408 -0.0868  0.1604  1.1442
 7522SOL    MW429856   5.339   1.582   5.416 -0.1260  0.1776  0.7256
 7523SOL     OW29857   0.521   3.240   0.026 -0.7721 -0.4981  0.4729
 7523SOL    HW229858   0.523   3.278  -0.062  3.5297  0.9141  0.9287
 7523SOL    HW329859   0.517   3.315   0.085  1.3972 -1.0141  1.3863
 7523SOL    MW429860   0.521   3.255   0.022  0.0817 -0.3799  0.6535
 7524SOL     OW29861   6.017   1.738   5.569 -0.1172  0.4453 -0.6982
 7524SOL    HW229862   5.956   1.673   5.604  0.3903 -0.2001 -1.0042
 7524SOL    HW329863   6.098   1.690   5.554  0.8422  1.5259  0.7662
 7524SOL    MW429864   6.020   1.723   5.572  0.0763  0.5028 -0.5454
 7525SOL     OW29865   2.642   6.190   1.211 -0.3179 -0.4382  0.7322
 7525SOL    HW229866   2.575   6.162   1.149  1.4766 -0.9329 -1.1022
 7525SOL    HW329867   2.627   6.284   1.221 -1.1581 -0.4969  0.1882
 7525SOL    MW429868   2.631   6.198   1.204 -0.1920 -0.5112  0.4184
 7526SOL     OW29869   5.318   5.251   2.403  0.2571  0.2263 -0.0590
 7526SOL    HW229870   5.314   5.296   2.487  1.1577  0.0428  0.0873
 7526SOL    HW329871   5.407   5.266   2.372  0.4288 -1.0515 -0.2303
 7526SOL    MW429872   5.329   5.259   2.410  0.3986  0.0335 -0.0623
 7527SOL     OW29873   3.632   4.512   0.418  0.2363 -0.2318 -0.5374
 7527SOL    HW229874   3.636   4.496   0.512 -0.8461  2.5460  0.0769
 7527SOL    HW329875   3.539   4.509   0.397  0.2010  1.9237 -0.9003
 7527SOL    MW429876   3.620   4.510   0.427  0.0888  0.4191 -0.5042
 7528SOL     OW29877   2.279   3.358   3.384 -0.4924  0.3704  0.0486
 7528SOL    HW229878   2.353   3.398   3.429  0.0947 -0.8524  0.2027
 7528SOL    HW329879   2.279   3.397   3.297  1.0164 -0.3910 -0.3259
 7528SOL    MW429880   2.288   3.368   3.379 -0.2159  0.1086  0.0195
 7529SOL     OW29881   0.255   5.525   6.419  0.3099  0.7523  0.2819
 7529SOL    HW229882   0.211   5.445   6.449 -1.3499  1.8856  1.0530
 7529SOL    HW329883   0.347   5.500   6.409  0.0019 -1.0093  1.3671
 7529SOL    MW429884   0.261   5.511   6.421  0.0503  0.6694  0.5269
 7530SOL     OW29885   3.779   5.607   1.399 -0.0148 -0.3672  0.1480
 7530SOL    HW229886   3.854   5.628   1.343 -0.6367  0.8503 -0.2674
 7530SOL    HW329887   3.813   5.617   1.489  0.0133  1.4940 -0.0274
 7530SOL    MW429888   3.794   5.611   1.404 -0.0932  0.0390  0.0700
 7531SOL     OW29889   0.495   2.419   6.231  0.3886 -0.4062 -0.5110
 7531SOL    HW229890   0.530   2.474   6.160  1.0769  0.1017  0.2086
 7531SOL    HW329891   0.408   2.454   6.248  1.2100  1.2115  0.6688
 7531SOL    MW429892   0.488   2.431   6.224  0.5878 -0.1258 -0.2604
 7532SOL     OW29893   3.852   6.128   6.299 -0.2981  0.0449  0.0731
 7532SOL    HW229894   3.933   6.109   6.346  0.3353 -0.4008 -1.1631
 7532SOL    HW329895   3.876   6.195   6.235 -0.3174 -1.6874 -1.8394
 7532SOL    MW429896   3.866   6.134   6.296 -0.2171 -0.2425 -0.3424
 7533SOL     OW29897   1.678   3.451   2.432  0.0648 -0.1920  0.4816
 7533SOL    HW229898   1.718   3.367   2.410  0.3798 -0.1849  1.0169
 7533SOL    HW329899   1.678   3.453   2.528 -0.5157  0.1442  0.4792
 7533SOL    MW429900   1.683   3.440   2.442  0.0298 -0.1467  0.5519
 7534SOL     OW29901   3.041   6.025   2.687  0.0169  0.0499  0.3099
 7534SOL    HW229902   2.971   6.091   2.685 -0.7941 -0.7840 -0.0541
 7534SOL    HW329903   3.079   6.028   2.599 -0.3764 -0.3202  0.1221
 7534SOL    MW429904   3.037   6.034   2.675 -0.1420 -0.1090  0.2371
 7535SOL     OW29905   1.984   3.431   3.130  0.2436  0.3357  0.3201
 7535SOL    HW229906   1.935   3.357   3.094 -0.6541  0.5585  1.0504
 7535SOL    HW329907   2.076   3.406   3.118 -0.0235 -1.2161  1.1246
 7535SOL    MW429908   1.990   3.418   3.124  0.0899  0.1604  0.5226
 7536SOL     OW29909   2.585   0.892   1.086  0.9331 -0.2755 -0.6196
 7536SOL    HW229910   2.542   0.902   1.001  0.8615 -0.0083 -0.5523
 7536SOL    HW329911   2.626   0.806   1.082 -1.4859 -1.5616  0.1475
 7536SOL    MW429912   2.585   0.882   1.074  0.6045 -0.4099 -0.5095
 7537SOL     OW29913   2.574   5.819   6.348  0.3552 -1.1245  0.3886
 7537SOL    HW229914   2.645   5.755   6.349 -0.7312 -2.4067 -0.3277
 7537SOL    HW329915   2.495   5.766   6.341 -0.7601  0.2096  1.9622
 7537SOL    MW429916   2.573   5.803   6.347  0.0647 -1.1176  0.5017
 7538SOL     OW29917   5.828   4.459   0.355 -0.2801 -0.0299  0.6415
 7538SOL    HW229918   5.900   4.436   0.296 -1.2142 -0.3992 -0.3959
 7538SOL    HW329919   5.782   4.377   0.369 -0.7939  0.2999  0.8935
 7538SOL    MW429920   5.832   4.445   0.349 -0.4711 -0.0351  0.5379
 7539SOL     OW29921   4.565   5.819   0.333 -0.0095  0.2444  0.2151
 7539SOL    HW229922   4.506   5.797   0.260 -1.8731  1.0618  1.4002
 7539SOL    HW329923   4.555   5.747   0.395 -1.2067  1.2320  1.2265
 7539SOL    MW429924   4.556   5.806   0.331 -0.4133  0.4826  0.5049
 7540SOL     OW29925   4.457   6.043   3.565 -0.2310 -0.0621  0.3012
 7540SOL    HW229926   4.410   6.044   3.482  1.1073  0.6895 -0.4909
 7540SOL    HW329927   4.402   5.992   3.624 -2.3582  1.3270 -0.3600
 7540SOL    MW429928   4.443   6.037   3.562 -0.3351  0.2204  0.1095
 7541SOL     OW29929   0.158   1.216   0.616 -0.4002  0.0203 -0.5207
 7541SOL    HW229930   0.248   1.209   0.649 -0.9563  1.2871  1.4356
 7541SOL    HW329931   0.144   1.310   0.604 -1.1468 -0.2370 -1.7867
 7541SOL    MW429932   0.168   1.228   0.619 -0.5721  0.1535 -0.4296
 7542SOL     OW29933   0.498   4.338   0.165  0.0577  0.4228 -0.0541
 7542SOL    HW229934   0.547   4.256   0.156 -0.5493 -0.0573  0.7927
 7542SOL    HW329935   0.428   4.332   0.100 -1.0537 -0.5625  1.1696
 7542SOL    MW429936   0.495   4.326   0.155 -0.1690  0.2295  0.2191
 7543SOL     OW29937   5.842   2.806   3.025 -0.0734  0.4369 -0.5133
 7543SOL    HW229938   5.866   2.788   2.934  1.3848  0.1181 -0.0819
 7543SOL    HW329939   5.912   2.861   3.059 -1.7634  2.5117 -0.2134
 7543SOL    MW429940   5.854   2.811   3.018 -0.1040  0.6686 -0.4168
 7544SOL     OW29941   6.095   2.988   4.861 -0.6042  0.0995 -0.1023
 7544SOL    HW229942   6.148   3.058   4.900  0.4645 -0.6872 -0.0840
 7544SOL    HW329943   6.005   3.013   4.879 -0.1878  0.6212  1.3938
 7544SOL    MW429944   6.090   3.001   4.869 -0.4083  0.0646  0.0975
 7545SOL     OW29945   6.136   6.238   5.789 -0.0645  0.0188  0.5290
 7545SOL    HW229946   6.176   6.309   5.739 -0.5560  1.4243  2.0528
 7545SOL    HW329947   6.052   6.223   5.746  0.1111  0.2387  0.1029
 7545SOL    MW429948   6.130   6.245   5.777 -0.1061  0.2332  0.6738
 7546SOL     OW29949   1.333   3.544   5.449  0.1430 -0.4301 -0.0622
 7546SOL    HW229950   1.301   3.598   5.522 -0.2786 -0.0112 -0.5520
 7546SOL    HW329951   1.376   3.606   5.391  1.7434 -0.9517  0.4930
 7546SOL    MW429952   1.335   3.559   5.451  0.2985 -0.4437 -0.0536
 7547SOL     OW29953   5.338   2.941   0.200  0.1353 -0.2241  0.2312
 7547SOL    HW229954   5.359   2.912   0.111  0.1965  0.6651 -0.0559
 7547SOL    HW329955   5.251   2.980   0.194  0.2612  0.1120  0.4917
 7547SOL    MW429956   5.329   2.942   0.188  0.1600 -0.0624  0.2277
 7548SOL     OW29957   1.973   0.145   4.412 -0.4364 -0.6990 -0.8327
 7548SOL    HW229958   1.972   0.078   4.481  1.6279 -1.2672 -1.2791
 7548SOL    HW329959   2.061   0.182   4.417 -1.5385  2.0842 -0.5566
 7548SOL    MW429960   1.984   0.141   4.422 -0.3094 -0.4068 -0.8551
 7549SOL     OW29961   2.808   3.814   5.005 -0.5065 -0.3448  0.0332
 7549SOL    HW229962   2.771   3.738   4.959  0.5958  0.6283 -2.6781
 7549SOL    HW329963   2.747   3.885   4.988  0.9770  0.5528 -1.9290
 7549SOL    MW429964   2.795   3.813   4.997 -0.1653 -0.0980 -0.5834
 7550SOL     OW29965   4.617   4.454   5.369 -0.5947  0.0727  0.3897
 7550SOL    HW229966   4.594   4.545   5.346 -2.2780  0.9509  4.6436
 7550SOL    HW329967   4.533   4.408   5.372 -0.3190 -0.4131  2.3914
 7550SOL    MW429968   4.603   4.460   5.366 -0.7805  0.1245  1.2150
 7551SOL     OW29969   5.383   3.654   2.837 -0.5195  0.0135 -0.3189
 7551SOL    HW229970   5.393   3.744   2.805 -1.1695 -0.3742 -1.6534
 7551SOL    HW329971   5.335   3.609   2.768 -1.1011 -1.1112  0.7864
 7551SOL    MW429972   5.378   3.660   2.824 -0.6820 -0.1861 -0.3491
 7552SOL     OW29973   0.873   2.220   4.466  0.3221 -0.3755 -0.3659
 7552SOL    HW229974   0.796   2.263   4.431  1.5327  3.0257  0.7504
 7552SOL    HW329975   0.935   2.219   4.393  0.2433 -0.3889 -0.4329
 7552SOL    MW429976   0.871   2.225   4.451  0.4714  0.0715 -0.2275
 7553SOL     OW29977   6.419   5.774   2.232 -0.0723  0.9465  0.2039
 7553SOL    HW229978   6.502   5.743   2.269 -1.2478 -0.2019  2.0015
 7553SOL    HW329979   6.377   5.695   2.198 -0.2549  1.5906 -1.1523
 7553SOL    MW429980   6.425   5.760   2.232 -0.2515  0.8800  0.2622
 7554SOL     OW29981   1.253   6.100   5.636  0.9112 -0.2451 -0.0317
 7554SOL    HW229982   1.280   6.077   5.725 -3.7837  1.9357  2.3074
 7554SOL    HW329983   1.225   6.016   5.598  2.6238 -1.1502  0.5496
 7554SOL    MW429984   1.253   6.086   5.643  0.5177 -0.0768  0.3536
 7555SOL     OW29985   2.328   0.363   1.451  0.6936 -0.4813 -0.3351
 7555SOL    HW229986   2.422   0.346   1.457  0.7096 -0.4589 -0.5151
 7555SOL    HW329987   2.303   0.335   1.363  0.7722  0.6435 -0.7355
 7555SOL    MW429988   2.337   0.357   1.440  0.7061 -0.3299 -0.4117
 7556SOL     OW29989   4.037   5.563   2.694  0.2047 -0.2453  0.0275
 7556SOL    HW229990   4.084   5.624   2.637  0.2342  0.0341  0.3485
 7556SOL    HW329991   3.983   5.511   2.634  1.8129 -1.4016 -0.4913
 7556SOL    MW429992   4.036   5.564   2.679  0.4208 -0.3610  0.0014
 7557SOL     OW29993   2.979   1.996   0.783 -0.3524 -0.2684  0.4766
 7557SOL    HW229994   2.894   2.017   0.820 -0.0215  0.6707  0.7313
 7557SOL    HW329995   3.009   1.920   0.833 -1.1650 -0.7994  0.1699
 7557SOL    MW429996   2.972   1.988   0.795 -0.4160 -0.2146  0.4697
 7558SOL     OW29997   1.521   1.661   2.020 -0.0850  0.3649  0.2419
 7558SOL    HW229998   1.535   1.730   2.086  0.4664  1.3258 -0.8493
 7558SOL    HW329999   1.519   1.708   1.937 -1.9586 -0.6851 -0.3662
 7558SOL    MW430000   1.522   1.677   2.018 -0.2595  0.3532  0.0177
 7559SOL     OW30001   2.829   1.164   6.315 -0.1756  0.3796 -0.2321
 7559SOL    HW230002   2.766   1.232   6.334 -0.3299  0.1206  0.1994
 7559SOL    HW330003   2.808   1.135   6.227 -1.2662 -0.3476  0.2480
 7559SOL    MW430004   2.818   1.169   6.306 -0.3399  0.2495 -0.1118
 7560SOL     OW30005   3.725   2.177   1.739 -0.1288 -0.1139  0.5144
 7560SOL    HW230006   3.660   2.107   1.736  0.0148 -0.2559  0.6530
 7560SOL    HW330007   3.715   2.223   1.656  0.5794 -1.0333 -0.1035
 7560SOL    MW430008   3.715   2.174   1.728 -0.0164 -0.2539  0.4512
 7561SOL     OW30009   4.212   1.700   0.392  0.2803 -0.0381 -0.0781
 7561SOL    HW230010   4.168   1.666   0.314  0.8994  2.2766 -1.5335
 7561SOL    HW330011   4.177   1.789   0.402  1.3326  0.2379  1.3763
 7561SOL    MW430012   4.201   1.707   0.383  0.5008  0.3037 -0.0782
 7562SOL     OW30013   3.710   6.011   0.150 -0.0378 -0.5902 -0.5435
 7562SOL    HW230014   3.675   6.096   0.178  1.2793 -0.7397  1.7970
 7562SOL    HW330015   3.692   6.008   0.056 -0.8405  1.9143 -0.5539
 7562SOL    MW430016   3.703   6.022   0.141  0.0301 -0.2795 -0.2361
 7563SOL     OW30017   1.327   0.411   6.356 -0.1854 -0.4290  0.3435
 7563SOL    HW230018   1.347   0.503   6.373  0.0316 -0.3461 -0.3496
 7563SOL    HW330019   1.276   0.411   6.275  0.1478 -0.9460  0.1260
 7563SOL    MW430020   1.323   0.423   6.348 -0.1128 -0.4863  0.2234
 7564SOL     OW30021   2.512   4.995   5.850 -0.2669 -0.1597  0.2034
 7564SOL    HW230022   2.418   4.978   5.845 -0.3733 -0.1603  1.7152
 7564SOL    HW330023   2.530   5.053   5.776 -1.7263  0.9017  0.6300
 7564SOL    MW430024   2.502   5.001   5.840 -0.4735 -0.0197  0.4592
 7565SOL     OW30025   1.954   4.336   1.271 -0.6500 -0.3127  0.3378
 7565SOL    HW230026   1.993   4.312   1.355 -1.6232  1.1389  1.2446
 7565SOL    HW330027   1.882   4.395   1.294 -1.1586 -0.1608 -1.5003
 7565SOL    MW430028   1.950   4.341   1.285 -0.8455 -0.1012  0.2149
 7566SOL     OW30029   1.956   1.364   4.932  0.1164 -0.0679 -0.4863
 7566SOL    HW230030   1.990   1.384   4.845 -0.6751 -2.2770 -1.3792
 7566SOL    HW330031   2.002   1.284   4.958  2.0178  1.7223  2.1912
 7566SOL    MW430032   1.966   1.356   4.924  0.2628 -0.1232 -0.2508
 7567SOL     OW30033   2.536   3.223   0.162 -0.3324 -0.0746 -0.1830
 7567SOL    HW230034   2.447   3.227   0.196  0.2213 -2.5564  1.9036
 7567SOL    HW330035   2.529   3.170   0.083 -0.9153  1.2571 -1.0460
 7567SOL    MW430036   2.523   3.217   0.156 -0.3363 -0.2263 -0.0216
 7568SOL     OW30037   5.448   5.468   2.067  0.0520  0.0017 -0.3103
 7568SOL    HW230038   5.409   5.497   1.984  0.8651  1.0242 -0.3564
 7568SOL    HW330039   5.374   5.445   2.122 -0.5065 -0.7920 -1.3413
 7568SOL    MW430040   5.433   5.469   2.063  0.0856  0.0318 -0.4524
 7569SOL     OW30041   1.356   1.069   1.900 -0.2478  0.7041 -0.0248
 7569SOL    HW230042   1.329   1.112   1.819 -0.5043  0.7896  0.1037
 7569SOL    HW330043   1.442   1.031   1.880 -1.2223 -1.1405 -1.0207
 7569SOL    MW430044   1.364   1.070   1.887 -0.4102  0.4720 -0.1393
 7570SOL     OW30045   4.850   4.425   2.915 -0.6590  0.6508 -0.0110
 7570SOL    HW230046   4.927   4.373   2.891 -0.2461  0.9198  0.7226
 7570SOL    HW330047   4.796   4.425   2.836  0.5055  1.2154 -0.8222
 7570SOL    MW430048   4.853   4.418   2.901 -0.4509  0.7607 -0.0213
 7571SOL     OW30049   5.872   6.152   4.620  0.1009  0.3625  0.2317
 7571SOL    HW230050   5.803   6.094   4.588 -1.2458  2.3736 -0.7826
 7571SOL    HW330051   5.953   6.115   4.585 -0.2788 -2.5280  2.1445
 7571SOL    MW430052   5.873   6.139   4.611 -0.1269  0.2465  0.3503
 7572SOL     OW30053   3.079   5.588   1.547 -0.0694  0.5661 -0.2748
 7572SOL    HW230054   3.103   5.613   1.636  1.7440  0.8996 -0.8221
 7572SOL    HW330055   2.991   5.625   1.534 -0.5521  0.1252  1.4964
 7572SOL    MW430056   3.070   5.596   1.557  0.1062  0.5520 -0.1133
 7573SOL     OW30057   5.671   3.294   2.332 -0.3838 -0.5582 -0.4107
 7573SOL    HW230058   5.580   3.274   2.310 -0.4989 -0.4079 -0.0830
 7573SOL    HW330059   5.723   3.242   2.270 -0.6983 -0.0683 -1.1019
 7573SOL    MW430060   5.666   3.285   2.321 -0.4405 -0.4738 -0.4586
 7574SOL     OW30061   0.552   1.113   5.247  0.5312  0.1724 -0.3870
 7574SOL    HW230062   0.491   1.101   5.320  1.2122 -0.2474  0.1254
 7574SOL    HW330063   0.530   1.043   5.186  0.5883 -0.0630 -0.1387
 7574SOL    MW430064   0.541   1.102   5.249  0.6286  0.0860 -0.2867
 7575SOL     OW30065   5.323   0.533   5.042  0.0619  0.0245  0.4875
 7575SOL    HW230066   5.250   0.483   5.005 -0.2885 -1.0201  2.4691
 7575SOL    HW330067   5.400   0.479   5.022 -0.2316 -1.0091  1.9620
 7575SOL    MW430068   5.324   0.519   5.034 -0.0231 -0.2497  0.9435
 7576SOL     OW30069   4.681   0.497   3.731  0.1051 -0.1427 -0.0562
 7576SOL    HW230070   4.661   0.450   3.812 -1.8058 -1.0890 -1.0153
 7576SOL    HW330071   4.719   0.431   3.674  0.1748  0.2014 -0.4103
 7576SOL    MW430072   4.683   0.483   3.734 -0.1378 -0.2222 -0.2294
 7577SOL     OW30073   4.218   2.757   5.496  0.6961  0.0896  0.0260
 7577SOL    HW230074   4.281   2.810   5.546  0.6488  0.1420  0.0301
 7577SOL    HW330075   4.174   2.704   5.562 -0.4061  1.2160  0.2198
 7577SOL    MW430076   4.221   2.757   5.512  0.5445  0.2451  0.0521
 7578SOL     OW30077   0.593   2.970   4.966 -0.0024 -0.1792 -0.2630
 7578SOL    HW230078   0.638   2.959   4.883 -0.1684 -2.5667 -0.1050
 7578SOL    HW330079   0.634   3.047   5.006  2.3441 -0.8946 -1.1333
 7578SOL    MW430080   0.604   2.978   4.961  0.2853 -0.5886 -0.3570
 7579SOL     OW30081   3.101   1.613   2.718 -0.0661  0.1984  0.4704
 7579SOL    HW230082   3.189   1.591   2.685 -0.6134  0.5496 -1.3220
 7579SOL    HW330083   3.112   1.618   2.813  1.7722 -0.1368  0.3168
 7579SOL    MW430084   3.114   1.610   2.726  0.1042  0.2005  0.2136
 7580SOL     OW30085   1.950   4.977   2.958  0.3639  0.3144  0.2224
 7580SOL    HW230086   1.881   4.962   3.023  1.1699 -2.5992  0.5382
 7580SOL    HW330087   1.927   4.922   2.884  1.5722  0.4617 -0.2918
 7580SOL    MW430088   1.938   4.968   2.957  0.6297 -0.0506  0.1962
 7581SOL     OW30089   2.466   0.933   0.448 -0.0048  0.6548 -0.1468
 7581SOL    HW230090   2.398   0.873   0.481 -0.8305  1.0335 -1.1055
 7581SOL    HW330091   2.437   1.020   0.476 -0.1266  0.8593 -0.8877
 7581SOL    MW430092   2.453   0.936   0.456 -0.1298  0.7318 -0.3711
 7582SOL     OW30093   2.646   5.075   3.266  0.1967 -0.1658  0.4963
 7582SOL    HW230094   2.577   5.009   3.267  1.2623 -1.3630 -0.5573
 7582SOL    HW330095   2.668   5.085   3.173 -1.2051  3.1203  0.3808
 7582SOL    MW430096   2.640   5.068   3.254  0.1524  0.1098  0.3421
 7583SOL     OW30097   4.586   2.384   5.043  0.0167 -0.1128  0.5878
 7583SOL    HW230098   4.675   2.370   5.010 -0.1878 -2.9060  1.0024
 7583SOL    HW330099   4.534   2.405   4.965  0.8334  0.4993  0.1979
 7583SOL    MW430100   4.591   2.385   5.028  0.0975 -0.4006  0.5910
 7584SOL     OW30101   1.449   1.212   0.877  0.0686  0.9748  0.6126
 7584SOL    HW230102   1.372   1.262   0.903 -1.2706 -0.6631 -0.0251
 7584SOL    HW330103   1.444   1.131   0.928 -0.1896 -0.3480 -1.3856
 7584SOL    MW430104   1.438   1.208   0.887 -0.1422  0.5842  0.2648
 7585SOL     OW30105   5.038   1.637   1.733  0.2221 -0.1234  0.0782
 7585SOL    HW230106   4.957   1.633   1.785  0.9752  0.0054  1.2838
 7585SOL    HW330107   5.035   1.723   1.691  0.0049  0.1141  0.5706
 7585SOL    MW430108   5.027   1.648   1.735  0.2928 -0.0751  0.3022
 7586SOL     OW30109   2.712   5.319   0.684 -0.4828 -0.2378  0.2770
 7586SOL    HW230110   2.627   5.337   0.645 -0.1319 -0.2904 -0.5411
 7586SOL    HW330111   2.721   5.224   0.681 -0.2149 -0.2070 -0.0545
 7586SOL    MW430112   2.702   5.309   0.678 -0.4012 -0.2407  0.1253
 7587SOL     OW30113   0.746   3.161   0.823  0.0527 -0.3903 -0.0505
 7587SOL    HW230114   0.698   3.103   0.763 -0.5980 -0.0392  0.1245
 7587SOL    HW330115   0.723   3.249   0.793  1.4121 -0.2089 -0.6160
 7587SOL    MW430116   0.736   3.165   0.811  0.1462 -0.3200 -0.1021
 7588SOL     OW30117   3.307   2.682   5.931 -0.3353 -0.0071 -0.5984
 7588SOL    HW230118   3.320   2.768   5.892  0.0704 -0.0388 -0.5334
 7588SOL    HW330119   3.344   2.689   6.019 -1.8050  0.2542  0.0353
 7588SOL    MW430120   3.313   2.694   5.938 -0.4757  0.0232 -0.5062
 7589SOL     OW30121   0.439   0.467   4.294 -0.1658  0.4863 -0.1143
 7589SOL    HW230122   0.482   0.552   4.285 -0.8805  0.7143 -1.7197
 7589SOL    HW330123   0.405   0.467   4.384  1.7209  0.9601  0.6431
 7589SOL    MW430124   0.440   0.478   4.305 -0.0111  0.5789 -0.2262
 7590SOL     OW30125   3.859   3.946   1.344  0.2810  0.0293  0.0064
 7590SOL    HW230126   3.809   4.008   1.398  0.5787 -1.1478  1.7213
 7590SOL    HW330127   3.949   3.980   1.347  0.0408  0.8404 -1.1260
 7590SOL    MW430128   3.864   3.959   1.351  0.2886 -0.0190  0.0833
 7591SOL     OW30129   5.419   2.909   4.251  0.1049 -0.2906 -0.0318
 7591SOL    HW230130   5.505   2.890   4.216  0.0695 -0.0365 -0.2624
 7591SOL    HW330131   5.436   2.962   4.329  0.1842 -0.8984  0.3703
 7591SOL    MW430132   5.432   2.914   4.257  0.1107 -0.3372 -0.0091
 7592SOL     OW30133   1.335   4.854   6.210  0.3142  0.3057 -0.3266
 7592SOL    HW230134   1.375   4.927   6.162  0.7435  0.0700 -0.3386
 7592SOL    HW330135   1.350   4.875   6.303  1.5411 -0.3531 -0.3489
 7592SOL    MW430136   1.342   4.866   6.216  0.5327  0.1877 -0.3311
 7593SOL     OW30137   2.759   4.309   2.103  0.3913  0.2704 -0.3547
 7593SOL    HW230138   2.842   4.262   2.091  0.2589  0.2077 -1.0647
 7593SOL    HW330139   2.703   4.248   2.150  0.8519  0.4379  0.4415
 7593SOL    MW430140   2.763   4.295   2.108  0.4346  0.2842 -0.3433
 7594SOL     OW30141   4.008   2.347   5.497 -0.4818  0.1347  0.4378
 7594SOL    HW230142   4.018   2.403   5.420  1.2855 -0.2227  0.3657
 7594SOL    HW330143   4.002   2.407   5.571  0.9168  0.4587  0.3149
 7594SOL    MW430144   4.008   2.362   5.496 -0.0641  0.1303  0.4121
 7595SOL     OW30145   5.358   0.503   2.982 -0.1900 -0.2415 -0.4490
 7595SOL    HW230146   5.323   0.590   2.962  0.5444  0.0276 -0.6265
 7595SOL    HW330147   5.312   0.445   2.921 -0.8047 -0.0057 -0.2191
 7595SOL    MW430148   5.347   0.507   2.971 -0.1742 -0.1749 -0.4421
 7596SOL     OW30149   3.934   5.106   6.138 -0.1414 -0.2169  0.0411
 7596SOL    HW230150   4.011   5.139   6.184 -0.2143 -0.5201  0.3822
 7596SOL    HW330151   3.910   5.026   6.185 -0.7692 -0.0320  0.0425
 7596SOL    MW430152   3.941   5.100   6.150 -0.2338 -0.2325  0.0863
 7597SOL     OW30153   3.417   0.095   0.596  0.2628  0.4907  0.4234
 7597SOL    HW230154   3.363   0.020   0.572  2.4439 -1.0896  0.1411
 7597SOL    HW330155   3.395   0.162   0.531  0.5336 -1.0501 -1.3385
 7597SOL    MW430156   3.407   0.094   0.584  0.5863  0.0789  0.1537
 7598SOL     OW30157   5.456   4.753   0.759 -0.2599 -0.0063 -0.4862
 7598SOL    HW230158   5.492   4.739   0.847  1.9863  1.6347 -1.0646
 7598SOL    HW330159   5.496   4.685   0.706 -1.1563 -0.6280 -0.3873
 7598SOL    MW430160   5.466   4.742   0.764 -0.0818  0.1282 -0.5494
 7599SOL     OW30161   4.947   5.362   5.348 -0.1197 -0.0943 -0.3874
 7599SOL    HW230162   4.997   5.312   5.283 -0.5922 -0.8192 -0.2058
 7599SOL    HW330163   4.914   5.296   5.409 -0.7253  0.4482 -0.1126
 7599SOL    MW430164   4.949   5.347   5.347 -0.2619 -0.1184 -0.3272
 7600SOL     OW30165   1.017   5.388   6.351 -0.2013 -0.4223  0.1935
 7600SOL    HW230166   0.931   5.347   6.342 -0.4128  0.1137 -0.3458
 7600SOL    HW330167   0.998   5.476   6.384 -0.1890  0.8800 -2.8566
 7600SOL    MW430168   1.003   5.394   6.354 -0.2276 -0.1798 -0.2801
 7601SOL     OW30169   5.617   4.144   1.643  0.5864 -0.0199 -0.9005
 7601SOL    HW230170   5.641   4.099   1.561 -0.5492 -0.4306 -1.0218
 7601SOL    HW330171   5.544   4.201   1.619  1.3063  1.1125 -0.5092
 7601SOL    MW430172   5.610   4.146   1.629  0.5316  0.0753 -0.8649
 7602SOL     OW30173   0.749   2.103   6.328 -0.2869  0.5457  0.5586
 7602SOL    HW230174   0.667   2.104   6.279 -0.1786 -1.5463  0.2482
 7602SOL    HW330175   0.810   2.053   6.274  0.2398 -0.6760  2.1800
 7602SOL    MW430176   0.746   2.097   6.315 -0.2031  0.1085  0.7316
 7603SOL     OW30177   3.356   3.713   1.735  0.1992 -0.3608 -0.1888
 7603SOL    HW230178   3.276   3.662   1.748  0.9935 -1.9165 -1.0918
 7603SOL    HW330179   3.362   3.724   1.640  0.4004  0.8832 -0.0551
 7603SOL    MW430180   3.346   3.708   1.724  0.3305 -0.4019 -0.2903
 7604SOL     OW30181   3.927   2.377   2.400  0.2863  0.3119  0.3861
 7604SOL    HW230182   3.908   2.434   2.325 -0.2001 -1.3340 -0.8112
 7604SOL    HW330183   3.989   2.313   2.365  0.0005 -0.5324  1.3792
 7604SOL    MW430184   3.933   2.376   2.385  0.1844 -0.0167  0.3591
 7605SOL     OW30185   1.172   4.056   0.363  0.5150  0.3867 -0.3377
 7605SOL    HW230186   1.105   4.115   0.397 -0.5462 -0.8370 -0.2596
 7605SOL    HW330187   1.204   4.009   0.439 -0.7129 -1.1962 -0.7608
 7605SOL    MW430188   1.167   4.058   0.377  0.2130  0.0164 -0.3832
 7606SOL     OW30189   5.641   4.839   2.095 -0.1271  0.0722 -0.0785
 7606SOL    HW230190   5.578   4.902   2.058 -2.2291 -1.8510 -0.0074
 7606SOL    HW330191   5.680   4.885   2.169  0.6927  2.3350 -1.7814
 7606SOL    MW430192   5.637   4.854   2.100 -0.2963  0.1170 -0.2938
 7607SOL     OW30193   6.089   2.460   6.102 -0.1118 -0.3279 -0.3006
 7607SOL    HW230194   6.139   2.381   6.078  0.5447 -0.0419  0.0955
 7607SOL    HW330195   6.010   2.427   6.143  1.2382 -0.8347  2.1289
 7607SOL    MW430196   6.085   2.445   6.104  0.1529 -0.3571  0.0722
 7608SOL     OW30197   1.329   0.833   5.193 -0.4337  0.1140  0.4308
 7608SOL    HW230198   1.246   0.882   5.194  0.1361  1.1067  0.8867
 7608SOL    HW330199   1.346   0.813   5.285  0.0718  0.3468  0.3923
 7608SOL    MW430200   1.320   0.837   5.205 -0.2918  0.2757  0.4858
 7609SOL     OW30201   4.944   2.802   0.291 -0.8069 -0.3636  0.4047
 7609SOL    HW230202   4.879   2.794   0.222  0.5412 -1.4924 -0.8129
 7609SOL    HW330203   4.981   2.890   0.279 -0.9237 -0.3667  0.0135
 7609SOL    MW430204   4.940   2.813   0.281 -0.6444 -0.5129  0.1924
 7610SOL     OW30205   3.414   1.265   3.649 -0.0553  0.3587  0.0092
 7610SOL    HW230206   3.355   1.247   3.722 -0.8594  0.2594 -0.6608
 7610SOL    HW330207   3.373   1.225   3.573  2.3550 -2.4840 -0.0003
 7610SOL    MW430208   3.401   1.257   3.649  0.1566 -0.0294 -0.0804
 7611SOL     OW30209   4.995   6.202   2.496 -0.4467 -0.1623 -0.0475
 7611SOL    HW230210   5.002   6.277   2.438  0.0696  0.2006  0.4739
 7611SOL    HW330211   5.042   6.132   2.451 -0.1995  0.0698 -0.1508
 7611SOL    MW430212   5.002   6.202   2.483 -0.3459 -0.0838  0.0076
 7612SOL     OW30213   4.228   5.180   1.139  0.3785  0.3081 -0.3080
 7612SOL    HW230214   4.228   5.265   1.096  2.0332 -0.1572 -1.3422
 7612SOL    HW330215   4.213   5.117   1.068 -0.4199 -0.2878  0.3746
 7612SOL    MW430216   4.226   5.183   1.124  0.4915  0.1681 -0.3544
 7613SOL     OW30217   0.573   0.192   1.788  0.0772 -0.2531 -0.3427
 7613SOL    HW230218   0.558   0.195   1.694  1.2153 -0.3067 -0.5403
 7613SOL    HW330219   0.598   0.281   1.811  0.4865 -0.4008 -0.2135
 7613SOL    MW430220   0.574   0.204   1.779  0.2814 -0.2797 -0.3517
 7614SOL     OW30221   0.322   4.857   5.495 -0.1355 -0.1126 -0.3578
 7614SOL    HW230222   0.273   4.781   5.526 -1.1604  0.3622 -0.7718
 7614SOL    HW330223   0.331   4.912   5.573 -1.3482  0.3598 -0.5245
 7614SOL    MW430224   0.317   4.854   5.509 -0.4307  0.0123 -0.4344
 7615SOL     OW30225   0.701   3.842   5.824 -0.1424 -0.0327  0.3125
 7615SOL    HW230226   0.748   3.760   5.810 -0.2875 -0.4675  2.1484
 7615SOL    HW330227   0.637   3.822   5.892 -0.7497  1.3988  0.1996
 7615SOL    MW430228   0.699   3.828   5.831 -0.2417  0.0988  0.5398
 7616SOL     OW30229   2.755   5.259   4.551 -0.7353  0.0137  0.1617
 7616SOL    HW230230   2.729   5.291   4.464  1.1427 -0.6769 -0.7014
 7616SOL    HW330231   2.686   5.197   4.574  0.6599 -2.8898 -2.7035
 7616SOL    MW430232   2.742   5.255   4.543 -0.3034 -0.4605 -0.3302
 7617SOL     OW30233   0.888   4.467   2.396  0.3881  0.4507 -0.6576
 7617SOL    HW230234   0.837   4.547   2.393 -1.4098 -0.5711  0.7589
 7617SOL    HW330235   0.848   4.409   2.332 -0.3049 -0.3619  0.4676
 7617SOL    MW430236   0.876   4.470   2.387  0.0594  0.2087 -0.3223
 7618SOL     OW30237   3.597   3.294   6.285 -0.2706  0.4487 -0.3657
 7618SOL    HW230238   3.593   3.229   6.355  1.1662 -0.7616 -1.3398
 7618SOL    HW330239   3.513   3.286   6.239  0.5035 -1.9854 -1.4964
 7618SOL    MW430240   3.586   3.285   6.288  0.0211 -0.0321 -0.6434
 7619SOL     OW30241   3.730   3.893   3.733  0.5485  0.1289  0.9933
 7619SOL    HW230242   3.752   3.855   3.818  1.5304 -1.9102 -0.0865
 7619SOL    HW330243   3.814   3.896   3.686 -0.2714 -0.7569 -0.6072
 7619SOL    MW430244   3.744   3.889   3.738  0.5699 -0.2570  0.6397
 7620SOL     OW30245   1.504   4.601   0.793  0.0451 -0.0384  0.1229
 7620SOL    HW230246   1.499   4.614   0.698 -0.3386  1.5596  0.3202
 7620SOL    HW330247   1.593   4.629   0.815 -0.2131  0.6311  0.3482
 7620SOL    MW430248   1.515   4.607   0.783 -0.0396  0.2608  0.1786
 7621SOL     OW30249   4.317   2.820   0.445  0.1091 -0.6321  0.1685
 7621SOL    HW230250   4.381   2.752   0.467  0.0543 -0.2693  1.5620
 7621SOL    HW330251   4.244   2.805   0.506  0.0009  0.5372  0.3588
 7621SOL    MW430252   4.316   2.809   0.456  0.0876 -0.4300  0.3774
 7622SOL     OW30253   5.772   0.029   3.526 -0.1759 -0.3923 -0.7577
 7622SOL    HW230254   5.697  -0.022   3.555 -0.4125 -0.3440 -1.2665
 7622SOL    HW330255   5.744   0.120   3.536  0.2791 -0.3455  0.2384
 7622SOL    MW430256   5.758   0.035   3.531 -0.1471 -0.3797 -0.6934
 7623SOL     OW30257   0.080   3.453   4.964  0.3608  0.1603  0.5299
 7623SOL    HW230258   0.021   3.446   4.889  0.2971 -1.4338  0.6777
 7623SOL    HW330259   0.120   3.366   4.970  0.2809  0.2065  2.3960
 7623SOL    MW430260   0.077   3.440   4.955  0.3419 -0.0439  0.7956
 7624SOL     OW30261   0.585   1.152   5.709 -0.4776  0.0913  0.5820
 7624SOL    HW230262   0.670   1.159   5.751 -0.1108 -0.8147  0.0054
 7624SOL    HW330263   0.600   1.096   5.633 -1.2673  1.1179 -0.3768
 7624SOL    MW430264   0.598   1.146   5.704 -0.5334  0.1072  0.3794
 7625SOL     OW30265   5.710   0.308   5.367 -0.1589  0.4514  0.1259
 7625SOL    HW230266   5.772   0.281   5.435 -0.3729 -1.0761 -0.2476
 7625SOL    HW330267   5.643   0.357   5.414  0.4673  0.6860  0.7895
 7625SOL    MW430268   5.709   0.311   5.382 -0.1045  0.2808  0.1642
 7626SOL     OW30269   1.229   3.674   0.419 -0.1952  0.3379 -0.1282
 7626SOL    HW230270   1.279   3.593   0.419 -0.2174  0.3141  0.9090
 7626SOL    HW330271   1.211   3.692   0.511  0.1880  1.7496 -0.2970
 7626SOL    MW430272   1.233   3.666   0.431 -0.1476  0.5210 -0.0136
 7627SOL     OW30273   6.414   3.099   3.966  0.0595  0.3827 -0.1324
 7627SOL    HW230274   6.365   3.157   4.024 -0.1105  1.0665 -0.9473
 7627SOL    HW330275   6.409   3.013   4.009 -1.9052  0.4088 -0.2314
 7627SOL    MW430276   6.407   3.095   3.980 -0.2222  0.4763 -0.2530
 7628SOL     OW30277   3.421   0.497   0.244  0.2548 -0.0576 -0.3983
 7628SOL    HW230278   3.467   0.421   0.278 -0.4558 -0.2183  0.2283
 7628SOL    HW330279   3.329   0.472   0.245  0.0710  0.5858 -0.7713
 7628SOL    MW430280   3.415   0.484   0.249  0.1368  0.0061 -0.3648
 7629SOL     OW30281   6.037   0.112   1.145 -0.1081  0.1624 -0.7049
 7629SOL    HW230282   6.062   0.177   1.080  0.4204 -0.9721 -1.6707
 7629SOL    HW330283   6.119   0.068   1.168 -0.4700 -0.2417 -0.1702
 7629SOL    MW430284   6.051   0.114   1.139 -0.0862 -0.0406 -0.7618
 7630SOL     OW30285   1.080   1.681   3.432 -0.3345  0.7097 -0.2822
 7630SOL    HW230286   1.051   1.623   3.502 -1.0309 -0.2375 -1.3203
 7630SOL    HW330287   1.153   1.729   3.469  0.2793 -0.8542  0.6114
 7630SOL    MW430288   1.086   1.680   3.446 -0.3454  0.3784 -0.3013
 7631SOL     OW30289   0.395   6.146   4.424  0.4848 -0.7147 -0.2743
 7631SOL    HW230290   0.326   6.184   4.370  0.9885  2.7814  1.2700
 7631SOL    HW330291   0.470   6.139   4.366  0.9512  2.7336 -0.2678
 7631SOL    MW430292   0.396   6.150   4.410  0.6128  0.2015 -0.0697
 7632SOL     OW30293   1.506   3.896   1.343  0.1090 -0.1879  0.3396
 7632SOL    HW230294   1.580   3.889   1.283  0.0577 -2.2721  0.4661
 7632SOL    HW330295   1.547   3.912   1.429  0.2728  0.7070  0.1133
 7632SOL    MW430296   1.521   3.897   1.347  0.1238 -0.3448  0.3265
 7633SOL     OW30297   6.356   2.489   3.399 -0.7377 -0.2329 -0.0901
 7633SOL    HW230298   6.420   2.459   3.464  0.6679 -0.7764 -1.6515
 7633SOL    HW330299   6.279   2.513   3.450 -0.3679 -2.3860  1.6370
 7633SOL    MW430300   6.354   2.488   3.414 -0.5035 -0.5887 -0.0682
 7634SOL     OW30301   3.172   4.422   2.135  0.1989 -0.3269 -0.2224
 7634SOL    HW230302   3.171   4.478   2.212  1.5980  0.3087 -0.6355
 7634SOL    HW330303   3.117   4.469   2.071 -1.4155 -1.1197  0.5097
 7634SOL    MW430304   3.164   4.435   2.137  0.1705 -0.3476 -0.1803
 7635SOL     OW30305   0.882   3.175   5.028  0.1220  0.0912  0.6580
 7635SOL    HW230306   0.902   3.159   5.120 -0.1330  0.9362  0.8700
 7635SOL    HW330307   0.915   3.263   5.011  3.2933 -1.2572 -0.9980
 7635SOL    MW430308   0.889   3.184   5.038  0.5068  0.0248  0.4675
 7636SOL     OW30309   1.560   0.198   4.643 -0.1403 -0.2746  0.1867
 7636SOL    HW230310   1.639   0.242   4.610  0.1996  0.5682  1.9824
 7636SOL    HW330311   1.492   0.265   4.637 -0.6651 -0.8956 -1.0449
 7636SOL    MW430312   1.562   0.213   4.638 -0.1647 -0.2453  0.2611
 7637SOL     OW30313   6.086   0.654   1.083 -0.4943 -0.7432 -0.5655
 7637SOL    HW230314   6.103   0.653   0.988 -0.0037  2.0384 -0.5687
 7637SOL    HW330315   6.135   0.579   1.116  2.6751  0.4676 -2.0470
 7637SOL    MW430316   6.095   0.644   1.075 -0.0114 -0.2164 -0.7614
 7638SOL     OW30317   5.742   4.656   5.375 -0.1351 -0.1508 -0.2701
 7638SOL    HW230318   5.654   4.659   5.337 -0.1824  1.7482 -0.0865
 7638SOL    HW330319   5.756   4.743   5.412  2.0144 -0.2377 -0.7277
 7638SOL    MW430320   5.732   4.668   5.375  0.1422  0.0883 -0.3063
 7639SOL     OW30321   0.240   5.459   6.108 -0.2825 -0.0247 -0.0859
 7639SOL    HW230322   0.177   5.475   6.179  0.0061 -1.4547  0.5235
 7639SOL    HW330323   0.273   5.546   6.085 -0.8243  0.5204  1.1241
 7639SOL    MW430324   0.236   5.473   6.114 -0.3159 -0.1415  0.1542
 7640SOL     OW30325   4.085   0.246   0.794 -0.0983 -0.0994 -0.1586
 7640SOL    HW230326   4.163   0.209   0.836  0.4616 -0.0476 -1.1168
 7640SOL    HW330327   4.046   0.301   0.861  0.3794 -0.5672  0.5209
 7640SOL    MW430328   4.090   0.249   0.808  0.0386 -0.1543 -0.1953
 7641SOL     OW30329   2.370   3.818   3.732 -0.0488 -0.1863  0.2948
 7641SOL    HW230330   2.375   3.847   3.641 -0.0596  1.0637  0.6720
 7641SOL    HW330331   2.291   3.765   3.736  1.0615 -2.0500 -0.8830
 7641SOL    MW430332   2.361   3.815   3.720  0.0962 -0.2673  0.1891
 7642SOL     OW30333   4.914   4.583   1.275 -0.5883  0.5771  0.1821
 7642SOL    HW230334   4.853   4.529   1.224 -1.2673  0.7758  0.7629
 7642SOL    HW330335   4.897   4.673   1.245  1.0088  0.4425 -1.2678
 7642SOL    MW430336   4.904   4.588   1.264 -0.4671  0.5856  0.0675
 7643SOL     OW30337   6.143   4.851   4.391  0.4607 -0.0216  0.1545
 7643SOL    HW230338   6.225   4.875   4.434 -0.1325  2.1060  0.1947
 7643SOL    HW330339   6.147   4.895   4.306  0.1686 -1.4894 -0.6549
 7643SOL    MW430340   6.155   4.860   4.386  0.3439  0.0655  0.0530
 7644SOL     OW30341   6.356   0.681   2.237 -0.2735 -0.6754  0.3224
 7644SOL    HW230342   6.374   0.593   2.270 -0.1682  0.2662  3.0706
 7644SOL    HW330343   6.399   0.739   2.300 -0.3605  1.3707 -1.3894
 7644SOL    MW430344   6.364   0.677   2.250 -0.2711 -0.2812  0.4592
 7645SOL     OW30345   5.837   4.731   2.506  0.0582 -0.6203  0.1417
 7645SOL    HW230346   5.781   4.726   2.583  1.5074 -2.0122  1.1736
 7645SOL    HW330347   5.833   4.644   2.467  1.8432 -0.9019  0.5183
 7645SOL    MW430348   5.829   4.719   2.511  0.4849 -0.8411  0.3275
 7646SOL     OW30349   0.871   0.588   5.970 -0.1536  0.0159  0.2041
 7646SOL    HW230350   0.814   0.641   5.914 -1.1445 -2.1642 -0.9696
 7646SOL    HW330351   0.817   0.569   6.047  0.7785  1.9666  1.4381
 7646SOL    MW430352   0.856   0.592   5.973 -0.1614 -0.0143  0.2120
 7647SOL     OW30353   5.667   4.326   3.025 -0.1172  0.0566  0.3216
 7647SOL    HW230354   5.604   4.358   2.961 -0.7203 -0.7058  0.5189
 7647SOL    HW330355   5.613   4.292   3.097  0.4758 -1.6589 -0.0064
 7647SOL    MW430356   5.652   4.326   3.026 -0.1185 -0.2703  0.3044
 7648SOL     OW30357   3.027   2.879   3.564 -0.5270  0.5376 -0.1103
 7648SOL    HW230358   3.080   2.806   3.597 -3.2947 -1.3179  0.5326
 7648SOL    HW330359   3.044   2.881   3.470  1.5982  0.8818  0.2237
 7648SOL    MW430360   3.036   2.870   3.556 -0.6118  0.3382  0.0186
 7649SOL     OW30361   5.406   6.099   1.461  0.0028 -0.3205 -0.2742
 7649SOL    HW230362   5.432   6.117   1.551 -2.0975  3.7021 -0.2461
 7649SOL    HW330363   5.488   6.080   1.416  1.3803 -0.2853  2.0383
 7649SOL    MW430364   5.420   6.099   1.467 -0.0926  0.2149  0.0346
 7650SOL     OW30365   5.098   4.114   0.777  0.4622 -0.7919  0.0245
 7650SOL    HW230366   5.140   4.030   0.758  0.3370 -0.5968 -1.1259
 7650SOL    HW330367   5.067   4.146   0.693  0.5525  0.4491  0.4405
 7650SOL    MW430368   5.099   4.107   0.764  0.4576 -0.6024 -0.0724
 7651SOL     OW30369   4.289   3.892   5.061  0.5834  0.2040  0.2681
 7651SOL    HW230370   4.333   3.977   5.052  1.6167 -0.3734 -0.2925
 7651SOL    HW330371   4.196   3.913   5.053  0.8018  1.3096  0.3718
 7651SOL    MW430372   4.283   3.906   5.059  0.7486  0.2737  0.2078
 7652SOL     OW30373   5.491   3.652   6.040 -0.9320 -0.3544  0.4522
 7652SOL    HW230374   5.472   3.687   6.127 -0.1070  3.8215 -0.7805
 7652SOL    HW330375   5.444   3.711   5.981  1.4058 -0.7843 -2.0275
 7652SOL    MW430376   5.482   3.665   6.043 -0.5147  0.1398 -0.0376
 7653SOL     OW30377   4.328   2.181   5.951 -0.0813  0.2352  0.2980
 7653SOL    HW230378   4.267   2.136   5.892 -0.4672  1.5369 -0.3257
 7653SOL    HW330379   4.294   2.270   5.957  1.4455  0.8378  0.4006
 7653SOL    MW430380   4.315   2.187   5.944  0.0693  0.4864  0.2293
 7654SOL     OW30381   5.566   1.355   5.692 -0.1966  0.0195  0.4529
 7654SOL    HW230382   5.562   1.406   5.773 -0.8187  1.2954 -0.3494
 7654SOL    HW330383   5.644   1.388   5.648  0.4858 -1.0970  0.7752
 7654SOL    MW430384   5.576   1.366   5.697 -0.1886  0.0405  0.3895
 7655SOL     OW30385   1.216   5.795   4.326  0.3726 -0.3731  0.0774
 7655SOL    HW230386   1.186   5.720   4.378  0.2938  0.3012  1.0191
 7655SOL    HW330387   1.303   5.769   4.295 -0.3612 -1.5568 -1.0702
 7655SOL    MW430388   1.224   5.782   4.329  0.2654 -0.4403  0.0503
 7656SOL     OW30389   3.068   5.978   0.111  0.0733  0.2808  0.0349
 7656SOL    HW230390   3.021   5.920   0.171 -0.5352 -0.6927 -1.3434
 7656SOL    HW330391   3.010   6.053   0.099  0.7257  1.0911  1.5720
 7656SOL    MW430392   3.054   5.980   0.117  0.0791  0.2592  0.0558
 7657SOL     OW30393   5.494   6.385   3.337  0.4419 -0.6552 -0.2307
 7657SOL    HW230394   5.541   6.438   3.273 -0.1247  0.7188  0.4592
 7657SOL    HW330395   5.552   6.310   3.353  0.1997 -1.5211 -2.9760
 7657SOL    MW430396   5.508   6.382   3.331  0.3352 -0.5882 -0.5018
 7658SOL     OW30397   5.059   0.792   0.421 -0.0421 -0.1348 -0.1293
 7658SOL    HW230398   5.124   0.847   0.378 -2.7181  2.9850 -0.6084
 7658SOL    HW330399   5.066   0.815   0.514 -0.5445  0.3715 -0.2093
 7658SOL    MW430400   5.068   0.802   0.428 -0.4615  0.3436 -0.2031
 7659SOL     OW30401   1.378   3.099   4.263  0.2103  0.0202  0.1784
 7659SOL    HW230402   1.351   3.019   4.217  1.9655 -0.5782  0.1326
 7659SOL    HW330403   1.382   3.072   4.355 -0.5537  0.4575  0.3489
 7659SOL    MW430404   1.375   3.085   4.269  0.3411 -0.0011  0.1949
 7660SOL     OW30405   0.219   6.329   1.056 -0.1215 -0.3209  0.5463
 7660SOL    HW230406   0.165   6.250   1.059  1.1574 -1.3671 -1.3336
 7660SOL    HW330407   0.157   6.399   1.033 -0.8082 -1.4274 -1.2763
 7660SOL    MW430408   0.204   6.328   1.053 -0.0434 -0.6049  0.0578
 7661SOL     OW30409   0.283   2.877   4.471  0.5516 -0.3116 -0.0346
 7661SOL    HW230410   0.285   2.782   4.478  0.4929 -0.4887 -1.8907
 7661SOL    HW330411   0.267   2.894   4.378 -2.4228  1.5042  0.6982
 7661SOL    MW430412   0.281   2.867   4.460  0.1514 -0.0954 -0.1828
 7662SOL     OW30413   5.675   0.572   1.440 -0.0490  0.6974  0.1430
 7662SOL    HW230414   5.760   0.616   1.433 -0.5261  1.5315 -0.5046
 7662SOL    HW330415   5.671   0.544   1.531 -0.0302  2.6296  0.7791
 7662SOL    MW430416   5.686   0.574   1.451 -0.1095  1.0624  0.1415
 7663SOL     OW30417   4.721   0.757   4.416 -0.2825 -0.2334 -0.1423
 7663SOL    HW230418   4.661   0.753   4.491 -0.4098 -0.6962 -0.2625
 7663SOL    HW330419   4.800   0.798   4.450  0.2693 -1.8660  0.6825
 7663SOL    MW430420   4.723   0.762   4.431 -0.2265 -0.5099 -0.0494
 7664SOL     OW30421   4.073   5.557   3.769  0.0928  0.2004 -0.0360
 7664SOL    HW230422   4.108   5.489   3.713  1.2926 -0.2034  1.1476
 7664SOL    HW330423   4.002   5.515   3.818  0.3932 -0.0215  0.2117
 7664SOL    MW430424   4.068   5.543   3.768  0.2907  0.1178  0.1528
 7665SOL     OW30425   0.780   4.248   4.656  0.0333 -0.2387  0.1312
 7665SOL    HW230426   0.743   4.282   4.575 -0.5262 -0.4955  0.2773
 7665SOL    HW330427   0.835   4.319   4.689  0.7362 -0.3472 -0.7750
 7665SOL    MW430428   0.783   4.261   4.650  0.0522 -0.2869  0.0310
 7666SOL     OW30429   4.521   1.318   0.357  0.0935 -0.4033  0.1083
 7666SOL    HW230430   4.569   1.264   0.294  0.1963 -0.5453  0.3106
 7666SOL    HW330431   4.554   1.407   0.342  2.5977 -0.8539  2.2127
 7666SOL    MW430432   4.532   1.323   0.347  0.4375 -0.4815  0.4126
 7667SOL     OW30433   2.622   0.113   0.377 -0.2289  0.1103 -0.4670
 7667SOL    HW230434   2.601   0.197   0.420 -0.6419 -0.0457 -0.3654
 7667SOL    HW330435   2.584   0.047   0.434 -1.1657 -0.0867 -1.3040
 7667SOL    MW430436   2.614   0.116   0.391 -0.4070  0.0637 -0.5641
 7668SOL     OW30437   0.444   3.992   1.004  0.2150  0.2293 -0.9858
 7668SOL    HW230438   0.518   4.024   1.055 -2.0371  4.1076  0.2047
 7668SOL    HW330439   0.444   4.046   0.925 -0.7815 -0.4087 -1.4487
 7668SOL    MW430440   0.454   4.003   1.000 -0.2136  0.6568 -0.8898
 7669SOL     OW30441   4.635   6.166   2.834 -0.0865 -0.2471  0.9240
 7669SOL    HW230442   4.575   6.217   2.779  0.1962  1.4062  2.0709
 7669SOL    HW330443   4.582   6.092   2.865 -0.1941 -1.3282 -1.6496
 7669SOL    MW430444   4.620   6.163   2.831 -0.0634 -0.1716  0.7358
 7670SOL     OW30445   5.218   6.004   4.898  0.1111  0.3823  0.3316
 7670SOL    HW230446   5.223   5.920   4.942  0.2911 -0.8005 -1.8101
 7670SOL    HW330447   5.303   6.046   4.915  0.9021 -0.8683 -0.4003
 7670SOL    MW430448   5.230   5.999   4.906  0.2392  0.0613 -0.0476
 7671SOL     OW30449   5.187   2.927   1.597  0.0389  0.8130  0.4679
 7671SOL    HW230450   5.250   2.872   1.643  0.7221  1.3264  0.1615
 7671SOL    HW330451   5.197   2.905   1.505  0.4230  1.5464  0.3261
 7671SOL    MW430452   5.196   2.917   1.591  0.1797  0.9775  0.4088
 7672SOL     OW30453   1.933   1.436   3.986 -0.0760 -0.2445 -0.0993
 7672SOL    HW230454   1.930   1.478   4.072  3.1282 -0.8761  0.4699
 7672SOL    HW330455   1.976   1.501   3.930 -0.1128 -0.6731 -0.6346
 7672SOL    MW430456   1.938   1.450   3.990  0.3419 -0.3843 -0.0948
 7673SOL     OW30457   2.894   4.442   0.758 -0.4432  0.0797  0.1658
 7673SOL    HW230458   2.883   4.361   0.708 -1.1683  0.5059 -0.3755
 7673SOL    HW330459   2.863   4.420   0.846 -1.0569 -0.1115 -0.0909
 7673SOL    MW430460   2.889   4.428   0.763 -0.6199  0.1107  0.0605
 7674SOL     OW30461   3.326   2.513   5.322  0.5675  0.0150 -0.2024
 7674SOL    HW230462   3.301   2.517   5.414  1.1731  0.3554 -0.0417
 7674SOL    HW330463   3.408   2.463   5.322 -1.0887 -2.9253 -0.9380
 7674SOL    MW430464   3.334   2.507   5.334  0.4289 -0.3280 -0.2782
 7675SOL     OW30465   3.145   0.472   3.627 -0.1074 -0.2922  0.1287
 7675SOL    HW230466   3.126   0.556   3.670 -0.2587 -0.6194  0.7039
 7675SOL    HW330467   3.142   0.493   3.533 -1.1375  0.1321  0.2370
 7675SOL    MW430468   3.142   0.486   3.620 -0.2633 -0.2794  0.2189
 7676SOL     OW30469   0.652   4.101   6.279 -0.1331  0.3374 -0.3584
 7676SOL    HW230470   0.710   4.027   6.265 -0.5925 -0.0421 -0.2914
 7676SOL    HW330471   0.649   4.112   6.374 -1.3603 -0.6306 -0.2513
 7676SOL    MW430472   0.659   4.093   6.290 -0.3557  0.1596 -0.3355
 7677SOL     OW30473   5.652   0.779   2.772  0.4677  0.3084  0.3189
 7677SOL    HW230474   5.641   0.830   2.853 -0.4882  0.4965  0.0921
 7677SOL    HW330475   5.624   0.691   2.796  0.3878  0.3150  0.2497
 7677SOL    MW430476   5.647   0.774   2.786  0.3310  0.3341  0.2798
 7678SOL     OW30477   5.530   2.858   2.163  0.1533  0.6474 -0.7997
 7678SOL    HW230478   5.597   2.814   2.214  0.8725 -0.7302 -2.8211
 7678SOL    HW330479   5.578   2.915   2.103 -0.5758  0.8835 -1.1760
 7678SOL    MW430480   5.545   2.860   2.162  0.1520  0.4968 -1.1160
 7679SOL     OW30481   4.380   2.124   0.002 -0.3793 -0.0717  0.1929
 7679SOL    HW230482   4.420   2.207  -0.022  1.1861 -0.2028  2.0846
 7679SOL    HW330483   4.326   2.100  -0.074  0.7506  1.6344 -1.2232
 7679SOL    MW430484   4.378   2.131  -0.012 -0.0237  0.1361  0.2556
 7680SOL     OW30485   6.393   4.277   3.538 -0.3354 -0.2022 -0.1074
 7680SOL    HW230486   6.394   4.369   3.567  0.7917 -0.2157 -0.0547
 7680SOL    HW330487   6.326   4.274   3.471 -0.3800  0.6755 -0.1177
 7680SOL    MW430488   6.385   4.289   3.533 -0.1926 -0.0882 -0.1018
 7681SOL     OW30489   5.971   4.034   0.943  0.1742  0.3838 -0.2838
 7681SOL    HW230490   5.879   4.008   0.943  0.5520 -1.0349  0.3025
 7681SOL    HW330491   5.984   4.077   0.858 -0.8618 -0.0039 -0.6480
 7681SOL    MW430492   5.961   4.036   0.932  0.0874  0.1455 -0.2545
 7682SOL     OW30493   3.078   4.928   1.840 -0.4094 -0.1910  0.0302
 7682SOL    HW230494   3.018   4.864   1.801 -0.4015 -0.1985  0.0302
 7682SOL    HW330495   3.123   4.880   1.909 -1.2386  0.1257  0.8132
 7682SOL    MW430496   3.076   4.913   1.844 -0.5177 -0.1502  0.1335
 7683SOL     OW30497   0.468   5.758   1.320 -0.0624 -0.1593 -0.4997
 7683SOL    HW230498   0.450   5.837   1.270 -1.8000 -0.1496  0.0588
 7683SOL    HW330499   0.530   5.709   1.267 -1.2262  0.2250 -2.2814
 7683SOL    MW430500   0.473   5.762   1.307 -0.4452 -0.1073 -0.6611
 7684SOL     OW30501   2.754   5.601   0.772  0.1178  0.3736 -0.0415
 7684SOL    HW230502   2.742   5.603   0.868 -1.6484  1.1707 -0.2270
 7684SOL    HW330503   2.740   5.510   0.749  0.0157  0.2651  0.4220
 7684SOL    MW430504   2.750   5.590   0.782 -0.1287  0.4644 -0.0048
 7685SOL     OW30505   0.421   3.199   3.708  0.8158  0.2954  0.1305
 7685SOL    HW230506   0.404   3.118   3.661 -0.4005  0.5713  0.0809
 7685SOL    HW330507   0.380   3.186   3.794 -1.9754  1.9073 -0.8455
 7685SOL    MW430508   0.414   3.187   3.713  0.2871  0.5445 -0.0048
 7686SOL     OW30509   0.033   2.861   3.385 -0.0116  0.3465 -0.1373
 7686SOL    HW230510   0.087   2.938   3.366  0.9719  0.0627  1.3321
 7686SOL    HW330511   0.034   2.855   3.480 -0.9579 -0.8714 -0.1896
 7686SOL    MW430512   0.041   2.870   3.395 -0.0067  0.1484  0.0497
 7687SOL     OW30513   1.815   2.530   1.051 -0.3203 -0.0560  0.3809
 7687SOL    HW230514   1.753   2.513   1.122  0.5900 -2.5720  0.6501
 7687SOL    HW330515   1.880   2.590   1.089 -0.4510 -0.5035  1.3195
 7687SOL    MW430516   1.815   2.536   1.065 -0.2175 -0.4470  0.5403
 7688SOL     OW30517   4.024   5.701   3.138 -0.7852 -0.5590  0.0859
 7688SOL    HW230518   4.029   5.792   3.164 -2.9084 -0.6342  0.9275
 7688SOL    HW330519   4.037   5.703   3.043 -1.7126  0.7240 -0.0337
 7688SOL    MW430520   4.027   5.713   3.129 -1.1877 -0.3997  0.1812
 7689SOL     OW30521   4.288   2.039   4.929  0.3609 -0.1418  0.1212
 7689SOL    HW230522   4.243   1.958   4.906  0.5546 -0.5233  1.0312
 7689SOL    HW330523   4.353   2.012   4.994  0.9743  0.6203 -0.1542
 7689SOL    MW430524   4.291   2.025   4.934  0.4674 -0.0916  0.2049
 7690SOL     OW30525   3.466   0.600   3.758  0.1753 -0.5649  0.3872
 7690SOL    HW230526   3.451   0.688   3.793 -1.3475 -1.2103  1.4751
 7690SOL    HW330527   3.386   0.581   3.708  1.0123 -0.8818 -0.8910
 7690SOL    MW430528   3.453   0.609   3.756  0.0848 -0.6919  0.3621
 7691SOL     OW30529   5.572   3.028   3.519  0.0564  0.1014 -0.2498
 7691SOL    HW230530   5.590   3.042   3.426  0.4406 -0.2201 -0.2259
 7691SOL    HW330531   5.602   2.938   3.536  2.8879  1.1494  0.8815
 7691SOL    MW430532   5.579   3.018   3.509  0.4806  0.1972 -0.0974
 7692SOL     OW30533   2.606   4.138   5.531  0.2742 -0.8706  0.2112
 7692SOL    HW230534   2.642   4.193   5.600 -0.9823 -0.0108  0.2151
 7692SOL    HW330535   2.674   4.137   5.464  0.0342  1.3584 -0.1426
 7692SOL    MW430536   2.620   4.145   5.532  0.0768 -0.4631  0.1650
 7693SOL     OW30537   0.590   0.603   0.501 -0.5646 -0.4539  0.3583
 7693SOL    HW230538   0.596   0.648   0.416 -1.2902  1.1658  1.1091
 7693SOL    HW330539   0.651   0.530   0.494  0.2903  0.3499 -1.1461
 7693SOL    MW430540   0.599   0.600   0.489 -0.5476 -0.1342  0.2589
 7694SOL     OW30541   4.705   0.479   0.153 -0.9209 -0.2585  0.2732
 7694SOL    HW230542   4.785   0.522   0.126 -0.7192  0.6554  2.1281
 7694SOL    HW330543   4.635   0.533   0.117 -0.6685  0.7957  1.2995
 7694SOL    MW430544   4.706   0.492   0.145 -0.8610  0.0012  0.6534
 7695SOL     OW30545   2.228   3.360   2.688 -0.6133  0.4764  0.0864
 7695SOL    HW230546   2.282   3.403   2.754 -0.7374  0.0686  0.4576
 7695SOL    HW330547   2.162   3.312   2.738 -0.5438 -0.0536 -0.3228
 7695SOL    MW430548   2.226   3.359   2.703 -0.6205  0.3527  0.0814
 7696SOL     OW30549   3.902   2.132   4.942 -0.2166 -0.4751 -0.2557
 7696SOL    HW230550   3.909   2.189   4.866  0.5016 -0.3489 -0.1089
 7696SOL    HW330551   3.913   2.044   4.908  0.1618 -0.4146 -0.2940
 7696SOL    MW430552   3.905   2.128   4.928 -0.0719 -0.4505 -0.2414
 7697SOL     OW30553   3.483   4.790   3.555  0.2375  0.0701  0.0244
 7697SOL    HW230554   3.472   4.868   3.502  2.4272  0.1983 -0.3253
 7697SOL    HW330555   3.406   4.737   3.536 -0.4925  1.4230 -0.9566
 7697SOL    MW430556   3.471   4.793   3.546  0.4301  0.2655 -0.1511
 7698SOL     OW30557   3.058   3.764   4.439  0.1682  0.1158  0.2660
 7698SOL    HW230558   3.121   3.708   4.483  1.3549  2.2152  1.4067
 7698SOL    HW330559   3.046   3.724   4.352  4.5809  0.6113 -0.8121
 7698SOL    MW430560   3.064   3.751   4.433  0.9070  0.4581  0.2742
 7699SOL     OW30561   0.871   5.974   1.196 -0.6407  0.2575  0.4900
 7699SOL    HW230562   0.966   5.971   1.207 -0.0818  0.0089 -3.1654
 7699SOL    HW330563   0.836   5.951   1.282  2.5366  1.3260  2.2547
 7699SOL    MW430564   0.879   5.971   1.209 -0.1477  0.3657  0.2406
 7700SOL     OW30565   6.062   2.567   3.371 -0.0205  0.0760 -0.1217
 7700SOL    HW230566   5.991   2.594   3.313 -1.4597 -1.0512  1.0340
 7700SOL    HW330567   6.045   2.612   3.454  0.9448  0.2396  0.0041
 7700SOL    MW430568   6.051   2.576   3.375 -0.0830 -0.0511  0.0474
 7701SOL     OW30569   0.627   3.989   1.217  0.0713  0.1591  0.1993
 7701SOL    HW230570   0.689   4.061   1.232 -1.5778  1.7783 -0.4284
 7701SOL    HW330571   0.583   3.978   1.302  1.8085 -1.6669  0.9388
 7701SOL    MW430572   0.630   3.997   1.230  0.0829  0.1318  0.2141
 7702SOL     OW30573   2.795   4.376   1.829  0.3521 -0.4748 -0.7214
 7702SOL    HW230574   2.776   4.359   1.921 -0.3512 -0.9895 -0.9569
 7702SOL    HW330575   2.884   4.412   1.829 -0.0024  0.4546  0.2508
 7702SOL    MW430576   2.804   4.379   1.841  0.2126 -0.4201 -0.6242
 7703SOL     OW30577   4.451   2.925   2.063  0.2443  0.9821  0.1699
 7703SOL    HW230578   4.525   2.962   2.014 -0.1661  0.6058 -0.7435
 7703SOL    HW330579   4.423   2.997   2.120  0.9911  1.2911  0.1678
 7703SOL    MW430580   4.457   2.939   2.064  0.2887  0.9732  0.0491
 7704SOL     OW30581   3.087   5.020   3.129 -0.0163  0.3909  0.4751
 7704SOL    HW230582   3.019   5.000   3.193 -0.5608 -0.1065 -0.2446
 7704SOL    HW330583   3.046   5.004   3.044  0.9481  0.2352  0.0203
 7704SOL    MW430584   3.073   5.015   3.126  0.0391  0.3047  0.3201
 7705SOL     OW30585   2.058   4.742   5.165 -0.6308  0.2503  0.2761
 7705SOL    HW230586   2.068   4.689   5.245 -0.0740  0.9760  0.6975
 7705SOL    HW330587   2.147   4.751   5.132 -0.9052 -0.4383 -0.7035
 7705SOL    MW430588   2.071   4.736   5.171 -0.5936  0.2552  0.2025
 7706SOL     OW30589   5.296   2.347   1.480 -0.1843 -0.1603  0.0382
 7706SOL    HW230590   5.211   2.376   1.512 -1.3982 -1.6149 -1.6791
 7706SOL    HW330591   5.342   2.428   1.456 -0.3444  0.7669  2.5371
 7706SOL    MW430592   5.291   2.361   1.481 -0.3656 -0.2299  0.1413
 7707SOL     OW30593   0.104   4.224   2.686 -0.1729 -0.3099 -0.9502
 7707SOL    HW230594   0.056   4.302   2.658  0.0668  0.0649 -0.3292
 7707SOL    HW330595   0.133   4.183   2.604 -0.2588  0.2740 -1.2773
 7707SOL    MW430596   0.101   4.229   2.671 -0.1526 -0.1834 -0.9114
 7708SOL     OW30597   0.928   4.833   3.637 -0.4857  0.0444  0.3324
 7708SOL    HW230598   0.834   4.850   3.627 -0.6912 -1.4299 -0.5544
 7708SOL    HW330599   0.962   4.835   3.548  0.4172  0.9455  0.6827
 7708SOL    MW430600   0.920   4.835   3.624 -0.3937 -0.0312  0.2616
 7709SOL     OW30601   5.720   4.413   1.576  0.2427  0.0997  0.5333
 7709SOL    HW230602   5.718   4.323   1.608  0.6184  0.9330  3.0861
 7709SOL    HW330603   5.799   4.417   1.522  0.2817 -1.0449  0.4764
 7709SOL    MW430604   5.730   4.402   1.573  0.2974  0.0586  0.8626
 7710SOL     OW30605   3.390   3.668   5.280 -0.4038  0.0827 -0.0650
 7710SOL    HW230606   3.445   3.654   5.203  2.5983 -0.1372  1.9584
 7710SOL    HW330607   3.351   3.582   5.297  0.7479 -0.4400 -0.0187
 7710SOL    MW430608   3.392   3.655   5.272  0.1443 -0.0153  0.2080
 7711SOL     OW30609   6.061   5.593   5.609 -0.2551 -0.1480 -0.0374
 7711SOL    HW230610   6.016   5.510   5.595  0.8318 -0.3925 -2.6347
 7711SOL    HW330611   6.052   5.639   5.525 -0.6206  2.2825  1.2411
 7711SOL    MW430612   6.053   5.588   5.596 -0.1599  0.1404 -0.2114
 7712SOL     OW30613   1.971   1.666   0.954  0.4919  0.0509 -0.1505
 7712SOL    HW230614   2.009   1.644   1.039 -0.3816  1.3037  0.5953
 7712SOL    HW330615   2.043   1.705   0.905  0.1285  3.0858  1.4963
 7712SOL    MW430616   1.985   1.668   0.959  0.3287  0.6166  0.1652
 7713SOL     OW30617   4.686   2.704   3.397 -0.4651 -0.0342 -0.4281
 7713SOL    HW230618   4.736   2.776   3.357  0.0910  0.8746  1.7231
 7713SOL    HW330619   4.625   2.748   3.457  0.2751 -1.3290  1.3646
 7713SOL    MW430620   4.685   2.719   3.400 -0.2941 -0.0851  0.0923
 7714SOL     OW30621   5.950   2.710   5.039  0.0047 -0.2484  0.8524
 7714SOL    HW230622   5.961   2.615   5.044  0.8332 -0.2317 -0.2590
 7714SOL    HW330623   6.014   2.738   4.974 -1.1070  0.9243  0.2220
 7714SOL    MW430624   5.960   2.702   5.031 -0.0327 -0.0915  0.6226
 7715SOL     OW30625   1.852   1.078   1.726  0.0384 -0.0497  0.1944
 7715SOL    HW230626   1.808   1.037   1.651 -1.2440 -0.1136  0.9421
 7715SOL    HW330627   1.846   1.172   1.708  2.1230 -0.0981 -1.0505
 7715SOL    MW430628   1.845   1.085   1.713  0.1442 -0.0645  0.1288
 7716SOL     OW30629   4.511   2.568   3.635  0.6459 -0.2038  0.6550
 7716SOL    HW230630   4.580   2.509   3.604  1.5746  1.4377 -0.5825
 7716SOL    HW330631   4.496   2.543   3.726  2.7035 -0.7723  0.8788
 7716SOL    MW430632   4.518   2.557   3.643  1.0399 -0.0622  0.5213
 7717SOL     OW30633   3.025   0.649   2.164  0.6968 -0.0796 -0.1542
 7717SOL    HW230634   2.983   0.578   2.116 -3.3216  1.2448  1.0243
 7717SOL    HW330635   3.111   0.658   2.123 -0.2206 -2.8438 -3.0679
 7717SOL    MW430636   3.031   0.641   2.152  0.0456 -0.2696 -0.3832
 7718SOL     OW30637   1.078   0.227   2.156 -0.6165  0.0113  0.3227
 7718SOL    HW230638   1.121   0.148   2.124 -1.1225  0.9702 -3.0783
 7718SOL    HW330639   1.150   0.290   2.167 -0.6118  0.2566 -0.9593
 7718SOL    MW430640   1.093   0.225   2.153 -0.6826  0.1702 -0.2952
 7719SOL     OW30641   3.535   3.931   0.669 -0.2325  0.1247 -0.1249
 7719SOL    HW230642   3.612   3.964   0.715  0.1396 -0.1119 -0.5682
 7719SOL    HW330643   3.571   3.882   0.595 -0.8160  0.2314 -0.4821
 7719SOL    MW430644   3.550   3.929   0.666 -0.2604  0.1076 -0.2305
 7720SOL     OW30645   1.426   3.150   6.035  0.3669 -0.1799 -0.1634
 7720SOL    HW230646   1.373   3.228   6.050  0.9988  0.5423 -1.4606
 7720SOL    HW330647   1.499   3.181   5.981  1.5786 -1.3364  0.7533
 7720SOL    MW430648   1.429   3.164   6.030  0.6101 -0.2372 -0.2136
 7721SOL     OW30649   3.374   1.579   3.747  0.0847  0.1629 -0.0997
 7721SOL    HW230650   3.432   1.655   3.736  1.2629 -0.4747  1.3279
 7721SOL    HW330651   3.347   1.557   3.658 -1.4205  3.0541 -0.4704
 7721SOL    MW430652   3.378   1.586   3.734  0.0415  0.4602  0.0397
 7722SOL     OW30653   4.947   3.904   0.087 -0.3932  0.1585  0.3589
 7722SOL    HW230654   4.980   3.920   0.176  0.3262 -0.6148  0.2469
 7722SOL    HW330655   4.853   3.895   0.098 -0.3395  0.3463  1.0090
 7722SOL    MW430656   4.939   3.905   0.100 -0.2912  0.0813  0.4299
 7723SOL     OW30657   3.656   1.383   2.558  0.1361  0.2973 -0.2678
 7723SOL    HW230658   3.737   1.347   2.520 -0.1858 -0.5659 -0.1556
 7723SOL    HW330659   3.686   1.449   2.620  0.8387 -0.9235  0.7577
 7723SOL    MW430660   3.671   1.387   2.561  0.1864  0.0223 -0.1177
 7724SOL     OW30661   0.404   2.044   4.447 -0.3675 -0.0632  0.0552
 7724SOL    HW230662   0.413   2.079   4.535 -1.2485 -0.0491  0.1514
 7724SOL    HW330663   0.494   2.029   4.417 -0.0164  1.0204  0.5111
 7724SOL    MW430664   0.417   2.047   4.455 -0.4374  0.0816  0.1281
 7725SOL     OW30665   1.022   5.652   6.124  0.0550  0.4688 -0.0306
 7725SOL    HW230666   0.950   5.593   6.103 -0.3454 -0.4382  3.2958
 7725SOL    HW330667   1.005   5.731   6.073 -2.6538 -0.1494 -0.2086
 7725SOL    MW430668   1.010   5.654   6.114 -0.3552  0.2676  0.3848
 7726SOL     OW30669   5.044   4.389   0.058  0.1655  0.4848  0.6735
 7726SOL    HW230670   5.072   4.465   0.007 -0.1675  1.2423  1.5929
 7726SOL    HW330671   4.999   4.426   0.134 -0.9970 -0.6503  0.5790
 7726SOL    MW430672   5.042   4.404   0.061 -0.0318  0.4350  0.7823
 7727SOL     OW30673   2.460   1.567   6.166  0.1310 -0.0066 -0.1574
 7727SOL    HW230674   2.503   1.582   6.251  0.7666 -0.7877 -0.3199
 7727SOL    HW330675   2.377   1.613   6.172 -0.8825 -1.9055  1.7725
 7727SOL    MW430676   2.455   1.575   6.178  0.0812 -0.3602  0.0758
 7728SOL     OW30677   4.434   3.701   4.474  0.3661 -0.5616 -0.1446
 7728SOL    HW230678   4.390   3.785   4.485  0.5107 -0.6345  1.1213
 7728SOL    HW330679   4.370   3.636   4.503  0.9383 -0.7372  0.7610
 7728SOL    MW430680   4.420   3.704   4.479  0.4607 -0.5944  0.1419
 7729SOL     OW30681   2.285   2.982   5.235  0.6617  0.0759  0.1590
 7729SOL    HW230682   2.370   2.946   5.259  0.5775  1.3087  2.5296
 7729SOL    HW330683   2.223   2.910   5.248  1.1098 -0.3134  0.1279
 7729SOL    MW430684   2.288   2.968   5.240  0.7097  0.1872  0.4676
 7730SOL     OW30685   1.014   1.418   6.236  0.2138  0.2021 -0.3687
 7730SOL    HW230686   0.982   1.383   6.320 -0.3210  0.7313 -0.3509
 7730SOL    HW330687   1.025   1.512   6.252 -0.1562  0.3507 -0.9719
 7730SOL    MW430688   1.011   1.426   6.250  0.0945  0.2915 -0.4459
 7731SOL     OW30689   4.231   1.189   3.423  0.1707  0.3201 -0.4131
 7731SOL    HW230690   4.313   1.236   3.411  0.3321  0.2456  0.3444
 7731SOL    HW330691   4.164   1.248   3.387  0.7267 -0.5323 -3.0958
 7731SOL    MW430692   4.233   1.203   3.417  0.2654  0.1978 -0.6671
 7732SOL     OW30693   0.353   0.159   2.769 -0.3476 -0.0185 -0.3726
 7732SOL    HW230694   0.319   0.076   2.803 -2.6535  2.1820  3.3854
 7732SOL    HW330695   0.416   0.188   2.835  2.0428  0.3895 -2.6556
 7732SOL    MW430696   0.357   0.152   2.782 -0.3365  0.3256 -0.1780
 7733SOL     OW30697   4.892   5.246   1.136 -0.4259  0.5061  0.4524
 7733SOL    HW230698   4.906   5.236   1.042  0.6769 -1.3090  0.7599
 7733SOL    HW330699   4.961   5.306   1.165  0.0418  0.0421  0.3018
 7733SOL    MW430700   4.903   5.253   1.128 -0.2187  0.2054  0.4731
 7734SOL     OW30701   0.085   4.009   3.553 -0.0762 -0.0484 -0.0200
 7734SOL    HW230702   0.059   3.964   3.473 -0.1250  2.2433 -1.4036
 7734SOL    HW330703   0.049   4.097   3.543 -2.1445 -0.2911  3.6529
 7734SOL    MW430704   0.077   4.015   3.541 -0.3555  0.2220  0.2821
 7735SOL     OW30705   5.881   3.315   5.110  0.2616 -0.1439  0.4954
 7735SOL    HW230706   5.802   3.309   5.057  1.1015 -1.2917 -0.7115
 7735SOL    HW330707   5.918   3.401   5.088  0.4646 -0.5016 -0.6206
 7735SOL    MW430708   5.876   3.325   5.100  0.3992 -0.3425  0.1889
 7736SOL     OW30709   0.463   3.076   1.809  0.0671 -0.1725 -0.2906
 7736SOL    HW230710   0.410   3.111   1.881 -0.2757  0.2143 -0.7156
 7736SOL    HW330711   0.533   3.028   1.851  0.6224  1.1359  0.3423
 7736SOL    MW430712   0.465   3.075   1.824  0.0952  0.0512 -0.2632
 7737SOL     OW30713   4.640   0.995   5.530 -0.1702  0.2783 -0.0639
 7737SOL    HW230714   4.732   0.971   5.544 -0.8395 -3.0988 -0.5746
 7737SOL    HW330715   4.643   1.060   5.461  1.8400  0.2263 -0.0990
 7737SOL    MW430716   4.653   1.000   5.523  0.0067 -0.1742 -0.1359
 7738SOL     OW30717   0.399   2.138   3.262 -0.0593 -0.1201 -0.1698
 7738SOL    HW230718   0.403   2.111   3.354  0.4796 -1.1399 -0.4745
 7738SOL    HW330719   0.361   2.225   3.264  0.2088 -0.0150  1.0479
 7738SOL    MW430720   0.395   2.146   3.275  0.0471 -0.2408 -0.0494
 7739SOL     OW30721   3.279   3.561   6.151 -0.3240 -0.3890  0.0774
 7739SOL    HW230722   3.325   3.636   6.189  2.8547 -1.7309 -0.7456
 7739SOL    HW330723   3.265   3.585   6.059 -1.8486  0.2063  0.4329
 7739SOL    MW430724   3.284   3.574   6.144 -0.1058 -0.4875  0.0157
 7740SOL     OW30725   1.816   2.591   5.774  0.0564 -0.0843  0.1849
 7740SOL    HW230726   1.828   2.683   5.751  0.3356 -0.0790  0.3364
 7740SOL    HW330727   1.726   2.571   5.749  0.1551  0.0872 -0.3234
 7740SOL    MW430728   1.806   2.600   5.768  0.1062 -0.0610  0.1378
 7741SOL     OW30729   5.665   0.174   0.275 -0.4404 -0.4124 -0.4574
 7741SOL    HW230730   5.679   0.105   0.340  0.3212  0.9400  0.8900
 7741SOL    HW330731   5.717   0.248   0.307 -0.9591  0.6849 -2.0218
 7741SOL    MW430732   5.673   0.175   0.288 -0.4083 -0.0892 -0.4860
 7742SOL     OW30733   5.709   0.463   4.734 -0.5599 -0.0824  0.2115
 7742SOL    HW230734   5.705   0.369   4.717 -1.3290  0.1260 -0.8500
 7742SOL    HW330735   5.705   0.504   4.648 -3.8231  0.9939  0.7391
 7742SOL    MW430736   5.708   0.456   4.720 -1.0919  0.0871  0.1410
 7743SOL     OW30737   2.983   3.024   4.627 -0.3514  0.0974 -0.0308
 7743SOL    HW230738   3.023   3.008   4.542 -0.8066  2.9280 -0.8731
 7743SOL    HW330739   3.057   3.039   4.686 -0.0274 -2.0684  0.2163
 7743SOL    MW430740   2.998   3.024   4.624 -0.3687  0.1851 -0.1093
 7744SOL     OW30741   2.028   4.146   4.120 -0.3411  0.2717 -0.4449
 7744SOL    HW230742   2.110   4.187   4.092  0.1771  0.5935  1.4206
 7744SOL    HW330743   1.980   4.130   4.039  2.1184 -1.1320 -1.7444
 7744SOL    MW430744   2.032   4.149   4.105  0.0518  0.1289 -0.3702
 7745SOL     OW30745   5.080   4.186   4.213  0.1562 -0.0543  0.4559
 7745SOL    HW230746   5.088   4.112   4.274  0.1220 -0.8124 -0.4370
 7745SOL    HW330747   5.044   4.257   4.267  1.8864 -0.1066  1.7819
 7745SOL    MW430748   5.076   4.185   4.228  0.3800 -0.1613  0.5131
 7746SOL     OW30749   2.321   4.793   2.256  0.0127  0.2684  0.8130
 7746SOL    HW230750   2.393   4.738   2.287  0.3059  0.3569  0.2898
 7746SOL    HW330751   2.255   4.788   2.326 -0.0518 -0.9066  0.6790
 7746SOL    MW430752   2.322   4.785   2.270  0.0428  0.1251  0.7263
 7747SOL     OW30753   4.040   5.124   2.448 -0.2865 -0.2498 -0.3050
 7747SOL    HW230754   3.950   5.120   2.414  0.2270  0.9897 -2.0072
 7747SOL    HW330755   4.074   5.206   2.412  1.4027 -0.5106  0.6347
 7747SOL    MW430756   4.032   5.134   2.439  0.0041 -0.1207 -0.4056
 7748SOL     OW30757   3.776   1.011   3.549 -0.0217  0.4918  0.3373
 7748SOL    HW230758   3.782   1.102   3.577 -1.5725  1.1095 -1.1296
 7748SOL    HW330759   3.860   0.993   3.507 -0.0433  1.5752 -0.2053
 7748SOL    MW430760   3.788   1.021   3.547 -0.2292  0.7163  0.0722
 7749SOL     OW30761   0.013   2.461   4.387 -0.2048 -0.4530  0.0784
 7749SOL    HW230762  -0.049   2.407   4.435 -0.8502 -0.3283 -0.6069
 7749SOL    HW330763   0.087   2.403   4.370  0.2184 -0.3941  1.5449
 7749SOL    MW430764   0.015   2.447   4.392 -0.2341 -0.4287  0.1814
 7750SOL     OW30765   5.796   0.944   4.148 -0.4135 -0.4252 -0.1029
 7750SOL    HW230766   5.748   0.861   4.151 -1.4267  0.0729 -1.4801
 7750SOL    HW330767   5.728   1.011   4.158  0.4702  0.2662  1.6598
 7750SOL    MW430768   5.781   0.942   4.149 -0.4306 -0.2683 -0.0521
 7751SOL     OW30769   3.543   2.335   6.394  0.3204  0.0311  0.0330
 7751SOL    HW230770   3.622   2.314   6.344 -0.3290  0.1460 -1.0745
 7751SOL    HW330771   3.538   2.265   6.460  0.7866 -0.5604 -0.5395
 7751SOL    MW430772   3.553   2.323   6.396  0.2962 -0.0318 -0.1887
 7752SOL     OW30773   0.272   6.197   5.606  0.2349  0.1345  0.2329
 7752SOL    HW230774   0.257   6.288   5.581 -1.9422 -0.2266  0.0555
 7752SOL    HW330775   0.257   6.195   5.700 -2.6400 -0.4879 -0.1416
 7752SOL    MW430776   0.268   6.209   5.615 -0.4317  0.0048  0.1601
 7753SOL     OW30777   2.426   6.213   4.263  0.3115 -0.0476 -0.4745
 7753SOL    HW230778   2.399   6.190   4.174  0.3181 -1.3104 -0.1723
 7753SOL    HW330779   2.346   6.207   4.314  0.5303 -0.5644 -0.1794
 7753SOL    MW430780   2.412   6.209   4.258  0.3412 -0.2824 -0.3957
 7754SOL     OW30781   2.625   3.651   3.952  0.3600 -0.4005 -0.6351
 7754SOL    HW230782   2.560   3.597   3.906  0.7436 -0.5402 -1.0238
 7754SOL    HW330783   2.707   3.602   3.943  0.4360 -0.4293  0.2123
 7754SOL    MW430784   2.627   3.637   3.944  0.4206 -0.4227 -0.5745
 7755SOL     OW30785   5.785   0.998   5.492  0.4170 -0.6139  0.2914
 7755SOL    HW230786   5.828   0.917   5.464  0.0474 -0.8830  0.4809
 7755SOL    HW330787   5.711   0.968   5.545 -0.3453 -0.1859 -0.4980
 7755SOL    MW430788   5.781   0.983   5.496  0.2676 -0.5930  0.2122
 7756SOL     OW30789   2.589   5.463   1.756 -0.3435 -0.0380  0.2913
 7756SOL    HW230790   2.669   5.511   1.779 -0.7424  2.7194 -3.2320
 7756SOL    HW330791   2.616   5.403   1.686 -0.7889 -1.7748  1.5268
 7756SOL    MW430792   2.603   5.461   1.750 -0.4549  0.0966 -0.0106
 7757SOL     OW30793   4.327   2.745   3.806 -0.5252  0.5299  0.1608
 7757SOL    HW230794   4.296   2.688   3.877 -1.3062 -0.8115 -1.2042
 7757SOL    HW330795   4.249   2.767   3.756  0.3226 -0.8553 -1.8960
 7757SOL    MW430796   4.313   2.740   3.809 -0.5164  0.1702 -0.2906
 7758SOL     OW30797   4.364   0.141   4.248 -0.3574 -0.2784  0.7565
 7758SOL    HW230798   4.272   0.126   4.269 -0.8164  0.8992 -0.3012
 7758SOL    HW330799   4.379   0.233   4.269  0.7739 -0.6191  1.5384
 7758SOL    MW430800   4.354   0.151   4.254 -0.2687 -0.1680  0.7201
 7759SOL     OW30801   3.226   2.467   5.032  0.0326 -0.2881  0.4235
 7759SOL    HW230802   3.269   2.385   5.057  1.0543  0.2403  0.4657
 7759SOL    HW330803   3.243   2.526   5.105  0.1433  0.2488 -0.0263
 7759SOL    MW430804   3.234   2.464   5.045  0.1820 -0.1475  0.3697
 7760SOL     OW30805   2.668   5.936   6.098  0.2983 -0.1765 -0.4977
 7760SOL    HW230806   2.618   5.924   6.179  1.6508  0.8812  0.5320
 7760SOL    HW330807   2.601   5.948   6.030 -0.8461  0.0049  0.6236
 7760SOL    MW430808   2.652   5.936   6.099  0.3258 -0.0130 -0.2139
 7761SOL     OW30809   0.203   0.455   0.728 -0.3324  0.0723 -0.3456
 7761SOL    HW230810   0.277   0.502   0.689  0.1540 -0.5216 -0.1481
 7761SOL    HW330811   0.138   0.523   0.745  0.0547  0.5612 -0.7773
 7761SOL    MW430812   0.204   0.470   0.725 -0.2171  0.0585 -0.3765
 7762SOL     OW30813   5.367   2.854   6.368  0.0500 -0.2002 -0.4168
 7762SOL    HW230814   5.353   2.765   6.336  0.9808 -0.6934  0.4852
 7762SOL    HW330815   5.432   2.891   6.308  0.1642 -0.3617 -0.3918
 7762SOL    MW430816   5.374   2.847   6.355  0.1878 -0.2866 -0.2945
 7763SOL     OW30817   4.235   0.611   6.417 -0.3959  0.2147  0.0968
 7763SOL    HW230818   4.183   0.552   6.473 -2.0673  1.0130 -0.5432
 7763SOL    HW330819   4.171   0.671   6.380  1.3197  2.9259  1.2428
 7763SOL    MW430820   4.220   0.611   6.420 -0.3901  0.6778  0.1636
 7764SOL     OW30821   0.194   0.739   0.418 -0.2992 -0.1756  0.0208
 7764SOL    HW230822   0.248   0.739   0.339 -0.2332 -2.3790  0.0029
 7764SOL    HW330823   0.189   0.831   0.444  0.7951  0.4365 -1.7779
 7764SOL    MW430824   0.200   0.751   0.411 -0.1461 -0.3855 -0.2189
 7765SOL     OW30825   0.164   4.622   0.212 -0.4955 -0.0936  0.7380
 7765SOL    HW230826   0.232   4.652   0.151 -1.0254 -0.3524  0.0159
 7765SOL    HW330827   0.153   4.529   0.193 -0.6281 -0.1868  1.2630
 7765SOL    MW430828   0.172   4.614   0.201 -0.5829 -0.1400  0.7120
 7766SOL     OW30829   6.178   1.211   2.842  0.0105 -0.4575 -0.1324
 7766SOL    HW230830   6.103   1.153   2.834  0.3369 -0.9489  0.2573
 7766SOL    HW330831   6.253   1.156   2.820  0.3607 -0.2765  0.5820
 7766SOL    MW430832   6.178   1.196   2.838  0.0998 -0.4985  0.0133
 7767SOL     OW30833   0.592   0.185   4.903 -0.3660  0.2813 -0.0494
 7767SOL    HW230834   0.547   0.125   4.963  2.8493  0.2595  2.6558
 7767SOL    HW330835   0.646   0.239   4.960  0.5805  2.4529 -2.7848
 7767SOL    MW430836   0.593   0.184   4.918  0.1831  0.5649 -0.0534
 7768SOL     OW30837   4.662   6.183   1.032 -0.0339  0.2791  0.0974
 7768SOL    HW230838   4.671   6.246   0.961 -0.1424  1.5023  1.1255
 7768SOL    HW330839   4.706   6.105   1.001 -0.5968  0.5887 -1.5413
 7768SOL    MW430840   4.669   6.181   1.019 -0.1225  0.4814  0.0168
 7769SOL     OW30841   6.186   6.114   4.138  0.0860 -0.4153  0.1202
 7769SOL    HW230842   6.169   6.205   4.112  0.8592 -0.5711 -1.0223
 7769SOL    HW330843   6.239   6.121   4.217 -0.8117  0.0999  0.7029
 7769SOL    MW430844   6.190   6.127   4.145  0.0696 -0.3679  0.0463
 7770SOL     OW30845   2.967   1.411   4.193 -0.1423 -0.1763 -0.1969
 7770SOL    HW230846   3.025   1.487   4.197 -0.0142 -0.3084  0.8547
 7770SOL    HW330847   3.014   1.348   4.139 -0.2347  0.4625 -1.0573
 7770SOL    MW430848   2.981   1.413   4.187 -0.1376 -0.1095 -0.1717
 7771SOL     OW30849   2.429   1.753   4.177  0.0686  0.1188  0.5112
 7771SOL    HW230850   2.339   1.781   4.196 -0.4565 -0.3562 -1.0969
 7771SOL    HW330851   2.431   1.661   4.200 -0.3596 -0.2765 -0.9186
 7771SOL    MW430852   2.417   1.745   4.183 -0.0572  0.0039  0.1104
 7772SOL     OW30853   1.196   2.680   0.394 -0.0123 -0.4768 -0.3131
 7772SOL    HW230854   1.180   2.620   0.321  2.8745  0.6348 -2.0500
 7772SOL    HW330855   1.204   2.766   0.353 -0.0915  0.4815  1.5849
 7772SOL    MW430856   1.195   2.683   0.379  0.3581 -0.2037 -0.2919
 7773SOL     OW30857   0.296   5.701   4.611 -0.4368  0.2278 -0.3726
 7773SOL    HW230858   0.239   5.631   4.579  0.6293  0.0602 -2.0374
 7773SOL    HW330859   0.374   5.655   4.644 -0.8639  0.5051  1.0959
 7773SOL    MW430860   0.299   5.685   4.611 -0.3525  0.2423 -0.3985
 7774SOL     OW30861   2.750   3.230   0.906  0.4123 -0.4014  0.0830
 7774SOL    HW230862   2.822   3.207   0.965  0.9918 -1.2529 -0.9233
 7774SOL    HW330863   2.696   3.151   0.902 -0.0753 -0.0751  0.1080
 7774SOL    MW430864   2.752   3.216   0.913  0.4244 -0.4707 -0.0465
 7775SOL     OW30865   5.874   1.585   0.778  0.0284  0.4049  0.2143
 7775SOL    HW230866   5.855   1.597   0.686 -1.3625 -1.3903  0.2139
 7775SOL    HW330867   5.962   1.622   0.790  0.4575  0.1872 -1.9327
 7775SOL    MW430868   5.883   1.591   0.768 -0.0985  0.1393 -0.0690
 7776SOL     OW30869   5.430   6.249   4.683  0.1206  0.2798 -0.1810
 7776SOL    HW230870   5.440   6.343   4.668  1.4470  0.1222 -0.4751
 7776SOL    HW330871   5.432   6.211   4.595  0.6143 -0.0918 -0.0145
 7776SOL    MW430872   5.432   6.257   4.669  0.3607  0.2100 -0.1978
 7777SOL     OW30873   2.470   0.271   5.154 -0.4670  0.4280  0.1996
 7777SOL    HW230874   2.534   0.247   5.087 -2.2714 -0.7447 -1.1901
 7777SOL    HW330875   2.441   0.188   5.191 -3.1430  0.6208 -1.1607
 7777SOL    MW430876   2.475   0.257   5.150 -1.0582  0.2987 -0.1633
 7778SOL     OW30877   3.658   6.439   0.374  0.3500 -0.1911  0.5875
 7778SOL    HW230878   3.588   6.374   0.366 -0.7713  1.1342 -1.4873
 7778SOL    HW330879   3.626   6.502   0.438  0.6402 -0.7304  1.2690
 7778SOL    MW430880   3.645   6.439   0.381  0.2404 -0.0874  0.4036
 7779SOL     OW30881   4.452   6.060   6.101 -0.1170  0.2308  0.0711
 7779SOL    HW230882   4.490   5.972   6.094  1.6451  0.8858  0.9039
 7779SOL    HW330883   4.431   6.070   6.193  0.4101  0.9530  0.1207
 7779SOL    MW430884   4.454   6.050   6.112  0.1850  0.4125  0.1875
 7780SOL     OW30885   2.543   0.042   5.955 -0.0646 -0.1368  0.6723
 7780SOL    HW230886   2.534   0.102   5.881  0.7259 -1.2659 -0.3857
 7780SOL    HW330887   2.479  -0.027   5.939  0.8454 -0.9529  0.4393
 7780SOL    MW430888   2.534   0.041   5.944  0.1597 -0.3935  0.5019
 7781SOL     OW30889   0.009   6.184   6.227 -0.4790 -0.1464  0.2682
 7781SOL    HW230890  -0.026   6.095   6.226 -1.1625  0.1120  0.7513
 7781SOL    HW330891  -0.021   6.221   6.310  2.7348 -0.6040  1.7975
 7781SOL    MW430892   0.000   6.177   6.238 -0.1452 -0.1727  0.5337
 7782SOL     OW30893   0.584   6.188   2.188  0.1192 -0.5348 -0.2523
 7782SOL    HW230894   0.511   6.136   2.155 -0.7711  0.1964  0.5282
 7782SOL    HW330895   0.655   6.125   2.198 -0.4263 -1.2804 -0.9127
 7782SOL    MW430896   0.584   6.172   2.185 -0.0703 -0.5367 -0.2365
 7783SOL     OW30897   5.578   6.294   3.684  0.0562  0.5635  0.0279
 7783SOL    HW230898   5.619   6.317   3.767  0.4000 -1.4467  0.4731
 7783SOL    HW330899   5.500   6.349   3.679  0.7129  1.6194  1.0585
 7783SOL    MW430900   5.573   6.304   3.694  0.1882  0.4376  0.2226
 7784SOL     OW30901   5.172   2.129   5.200 -0.3897 -0.4222  0.2870
 7784SOL    HW230902   5.077   2.144   5.199 -0.2275  0.7780 -0.9665
 7784SOL    HW330903   5.182   2.041   5.236 -1.9500 -0.4092  0.8558
 7784SOL    MW430904   5.160   2.120   5.205 -0.5741 -0.2622  0.1966
 7785SOL     OW30905   1.632   2.937   4.752 -0.6525  0.2351  0.3758
 7785SOL    HW230906   1.608   3.022   4.788 -0.3216  0.0451  1.0657
 7785SOL    HW330907   1.713   2.913   4.799 -0.2146 -0.0269 -0.4914
 7785SOL    MW430908   1.640   2.945   4.763 -0.5510  0.1755  0.3524
 7786SOL     OW30909   2.737   5.340   5.655 -0.0312  0.1129  0.5450
 7786SOL    HW230910   2.661   5.282   5.650  0.2665 -0.3683  1.3907
 7786SOL    HW330911   2.715   5.403   5.723 -0.1098  0.6492  0.0346
 7786SOL    MW430912   2.724   5.341   5.663 -0.0023  0.1201  0.5893
 7787SOL     OW30913   4.239   3.659   3.889  0.0186  0.1615 -0.4805
 7787SOL    HW230914   4.327   3.638   3.858  0.3629  0.3451  0.3603
 7787SOL    HW330915   4.224   3.601   3.963 -0.0284  1.0538  0.2343
 7787SOL    MW430916   4.248   3.649   3.894  0.0578  0.3035 -0.2752
 7788SOL     OW30917   1.920   6.058   5.368 -1.1107 -0.0354 -0.2970
 7788SOL    HW230918   1.882   6.133   5.322  2.4022  0.9912 -1.9204
 7788SOL    HW330919   1.912   5.985   5.308  0.8205  0.5949 -1.4049
 7788SOL    MW430920   1.914   6.058   5.354 -0.3924  0.1832 -0.6573
 7789SOL     OW30921   1.015   5.056   5.378  0.6803  0.0851 -0.3812
 7789SOL    HW230922   1.024   5.105   5.460 -3.2915  1.4803 -0.5573
 7789SOL    HW330923   0.999   5.123   5.312  2.4273 -1.1182 -2.1451
 7789SOL    MW430924   1.014   5.071   5.380  0.3868  0.1104 -0.6371
 7790SOL     OW30925   5.091   4.878   4.108  0.2262 -0.4774 -0.4288
 7790SOL    HW230926   5.047   4.853   4.189  2.1345 -0.2129  0.7583
 7790SOL    HW330927   5.062   4.968   4.091  1.0705  0.0796  0.9215
 7790SOL    MW430928   5.082   4.887   4.116  0.5894 -0.3690 -0.0940
 7791SOL     OW30929   6.158   3.745   4.895  0.2805 -0.4342  0.3552
 7791SOL    HW230930   6.153   3.671   4.836 -1.4910  0.5798 -0.8530
 7791SOL    HW330931   6.229   3.800   4.860  0.5836 -0.8093  0.3790
 7791SOL    MW430932   6.167   3.743   4.883  0.0868 -0.3499  0.1989
 7792SOL     OW30933   0.965   3.390   5.713  0.4079 -0.4562 -0.4349
 7792SOL    HW230934   0.948   3.379   5.806  1.2400 -0.0788 -0.2293
 7792SOL    HW330935   1.028   3.321   5.692  0.2895 -0.4860 -0.7017
 7792SOL    MW430936   0.971   3.379   5.722  0.5021 -0.4103 -0.4430
 7793SOL     OW30937   1.126   4.397   0.754 -0.2933  0.0912 -0.0708
 7793SOL    HW230938   1.161   4.420   0.668  0.1759 -0.3087  0.0047
 7793SOL    HW330939   1.154   4.306   0.767  2.1975  0.9905  1.7368
 7793SOL    MW430940   1.134   4.388   0.744  0.0973  0.1571  0.1776
 7794SOL     OW30941   1.194   3.780   0.942  0.4746  0.5656  0.3039
 7794SOL    HW230942   1.105   3.809   0.962 -0.1825 -2.1504  1.8991
 7794SOL    HW330943   1.189   3.746   0.853 -0.1269  0.3797  0.4028
 7794SOL    MW430944   1.182   3.779   0.933  0.3085  0.1827  0.5274
 7795SOL     OW30945   4.103   6.403   3.170  0.4986  0.0661 -0.0728
 7795SOL    HW230946   4.190   6.430   3.198 -0.4294  0.6995  2.4984
 7795SOL    HW330947   4.098   6.429   3.078  2.1604  2.2289  0.3728
 7795SOL    MW430948   4.114   6.410   3.161  0.5954  0.4350  0.3252
 7796SOL     OW30949   3.082   5.901   1.124  0.3007 -0.0699 -0.1481
 7796SOL    HW230950   3.112   5.858   1.203 -0.1704  0.9749  0.6180
 7796SOL    HW330951   3.161   5.912   1.071  0.6863 -0.3817  0.3580
 7796SOL    MW430952   3.097   5.897   1.127  0.2894  0.0268  0.0198
 7797SOL     OW30953   1.063   3.678   4.632  0.4002 -0.1886 -0.4310
 7797SOL    HW230954   1.100   3.681   4.543 -0.5063  0.3652 -0.8010
 7797SOL    HW330955   0.981   3.631   4.623  0.6083 -0.7019  0.2468
 7797SOL    MW430956   1.057   3.672   4.619  0.3081 -0.1832 -0.3904
 7798SOL     OW30957   0.868   1.441   3.503 -0.3879 -1.1526  0.4195
 7798SOL    HW230958   0.931   1.454   3.574 -0.1454 -1.4490  0.2640
 7798SOL    HW330959   0.905   1.369   3.451 -0.7828 -1.2332  0.2431
 7798SOL    MW430960   0.881   1.433   3.505 -0.4080 -1.2023  0.3757
 7799SOL     OW30961   5.751   0.636   6.297 -0.2612 -0.2160  0.1098
 7799SOL    HW230962   5.686   0.629   6.367 -0.3605 -0.8687 -0.0330
 7799SOL    HW330963   5.768   0.545   6.272 -0.1083  0.0022 -0.6032
 7799SOL    MW430964   5.744   0.623   6.302 -0.2541 -0.2733 -0.0031
 7800SOL     OW30965   2.746   4.561   3.007 -0.1705 -0.2514 -0.0061
 7800SOL    HW230966   2.665   4.531   2.966  0.1085 -0.8472 -0.1267
 7800SOL    HW330967   2.815   4.520   2.955  0.2366  0.8941 -0.4254
 7800SOL    MW430968   2.745   4.552   2.995 -0.0800 -0.1789 -0.0773
 7801SOL     OW30969   3.324   3.815   2.083  0.2504 -0.0231  0.1493
 7801SOL    HW230970   3.235   3.785   2.098 -0.1786  0.8594 -0.5536
 7801SOL    HW330971   3.377   3.735   2.082 -0.4890 -0.5245  0.8388
 7801SOL    MW430972   3.319   3.801   2.085  0.0963  0.0272  0.1475
 7802SOL     OW30973   3.041   6.033   5.785 -0.3542 -0.1579 -0.0313
 7802SOL    HW230974   2.970   6.097   5.786 -1.8743 -1.7771  0.5612
 7802SOL    HW330975   3.085   6.045   5.869  1.3889  2.1414 -1.1486
 7802SOL    MW430976   3.037   6.043   5.796 -0.3248 -0.0682 -0.1005
 7803SOL     OW30977   4.077   2.233   5.150  0.0574  0.1071 -0.1228
 7803SOL    HW230978   4.049   2.176   5.079 -0.7602  0.9866 -0.5320
 7803SOL    HW330979   4.080   2.321   5.111 -0.5939  0.6347  0.9540
 7803SOL    MW430980   4.074   2.237   5.136 -0.1364  0.2928 -0.0347
 7804SOL     OW30981   0.050   5.182   5.334 -0.0719 -0.0041  0.5135
 7804SOL    HW230982   0.103   5.111   5.297 -1.9403 -2.0638  1.5276
 7804SOL    HW330983   0.112   5.253   5.351  1.7710 -1.1165 -1.2059
 7804SOL    MW430984   0.065   5.182   5.331 -0.0753 -0.4227  0.4204
 7805SOL     OW30985   2.469   1.662   5.158  0.4041  0.0382  0.0872
 7805SOL    HW230986   2.421   1.633   5.080  0.9261 -0.8493  0.0732
 7805SOL    HW330987   2.415   1.633   5.232  0.7009 -0.6028  0.0653
 7805SOL    MW430988   2.456   1.654   5.157  0.5121 -0.1635  0.0825
 7806SOL     OW30989   4.050   0.388   3.385  0.5340 -0.0019 -0.1381
 7806SOL    HW230990   3.961   0.390   3.419  0.4375  0.0648 -0.3937
 7806SOL    HW330991   4.040   0.361   3.294  0.7330  0.5116 -0.3132
 7806SOL    MW430992   4.037   0.385   3.378  0.5475  0.0746 -0.1949
 7807SOL     OW30993   5.734   5.058   4.303  0.0665 -0.1896 -0.4321
 7807SOL    HW230994   5.648   5.017   4.297 -0.0843  0.1890 -0.9246
 7807SOL    HW330995   5.785   5.016   4.233 -0.0886  0.4468 -0.9395
 7807SOL    MW430996   5.730   5.047   4.293  0.0262 -0.0557 -0.5640
 7808SOL     OW30997   3.799   3.091   4.110  0.0933 -0.3035 -0.4862
 7808SOL    HW230998   3.705   3.100   4.129  0.1236 -0.1347 -0.4147
 7808SOL    HW330999   3.802   3.034   4.033 -0.0529 -0.5763 -0.2918
 7808SOL    MW431000   3.787   3.084   4.102  0.0780 -0.3172 -0.4511
 7809SOL     OW31001   4.542   1.414   2.798  0.2925  0.0338  0.0726
 7809SOL    HW231002   4.517   1.402   2.889 -3.8340  1.4460 -0.6992
 7809SOL    HW331003   4.615   1.476   2.801 -0.0993  0.4599  2.3681
 7809SOL    MW431004   4.549   1.420   2.810 -0.3036  0.2763  0.2736
 7810SOL     OW31005   2.288   0.360   2.168  0.1665 -0.1692 -0.0998
 7810SOL    HW231006   2.248   0.371   2.081  0.6946  2.3932 -0.0830
 7810SOL    HW331007   2.227   0.403   2.228  0.7064 -0.2910  0.5455
 7810SOL    MW431008   2.275   0.367   2.164  0.3074  0.1528 -0.0124
 7811SOL     OW31009   3.932   4.576   4.946 -0.0123  0.2639  0.2831
 7811SOL    HW231010   3.900   4.487   4.955 -0.1902  0.4705  2.1543
 7811SOL    HW331011   4.016   4.577   4.992  0.8172  0.6792 -1.1694
 7811SOL    MW431012   3.939   4.565   4.953  0.0737  0.3460  0.3384
 7812SOL     OW31013   4.893   3.992   5.025 -0.1126  0.0545 -0.1852
 7812SOL    HW231014   4.898   3.911   4.974 -0.6284 -0.6838  0.8849
 7812SOL    HW331015   4.799   4.004   5.043 -0.0706  1.0509 -0.5719
 7812SOL    MW431016   4.881   3.983   5.021 -0.1751  0.0885 -0.0951
 7813SOL     OW31017   1.990   3.163   1.141  0.2316 -0.0520  0.5032
 7813SOL    HW231018   1.925   3.173   1.210  0.3796 -0.6707  0.7319
 7813SOL    HW331019   1.946   3.198   1.063 -0.2997 -0.2708  0.6982
 7813SOL    MW431020   1.976   3.169   1.140  0.1810 -0.1625  0.5591
 7814SOL     OW31021   4.019   3.397   1.687 -0.1465 -0.0213 -0.4644
 7814SOL    HW231022   3.924   3.388   1.680 -0.2019 -0.8182  0.9229
 7814SOL    HW331023   4.039   3.368   1.776  1.4377 -0.2080 -0.8574
 7814SOL    MW431024   4.009   3.392   1.698  0.0552 -0.1510 -0.3332
 7815SOL     OW31025   2.947   0.577   0.419 -0.3485  0.4312  0.2683
 7815SOL    HW231026   2.864   0.555   0.376 -0.5063  0.6441  0.4598
 7815SOL    HW331027   2.951   0.518   0.495 -0.8114  1.1084  0.8283
 7815SOL    MW431028   2.936   0.566   0.423 -0.4304  0.5487  0.3674
 7816SOL     OW31029   2.856   5.542   4.501  0.0623 -0.2341  0.4431
 7816SOL    HW231030   2.807   5.503   4.574 -0.7773  0.8029  0.4488
 7816SOL    HW331031   2.899   5.619   4.539  1.4445 -0.9292  0.3525
 7816SOL    MW431032   2.855   5.547   4.516  0.1339 -0.1890  0.4319
 7817SOL     OW31033   4.847   3.245   2.718  0.0902 -0.3726 -0.9251
 7817SOL    HW231034   4.881   3.278   2.636  1.0307  0.9553 -0.0452
 7817SOL    HW331035   4.910   3.274   2.784 -2.2953  1.5826  0.6954
 7817SOL    MW431036   4.860   3.253   2.716 -0.1004  0.0605 -0.5952
 7818SOL     OW31037   3.360   0.169   0.112  0.4018  0.1784  0.6549
 7818SOL    HW231038   3.276   0.124   0.104  0.4588  0.1533  0.1570
 7818SOL    HW331039   3.363   0.227   0.036  0.5530  0.6478  1.0201
 7818SOL    MW431040   3.349   0.170   0.101  0.4292  0.2370  0.6374
 7819SOL     OW31041   1.018   3.001   4.668  0.9342  0.3186 -0.0502
 7819SOL    HW231042   0.933   2.962   4.691  0.4225  1.0656 -0.6159
 7819SOL    HW331043   1.062   2.933   4.617 -1.2038  1.4077 -3.7451
 7819SOL    MW431044   1.012   2.987   4.664  0.5846  0.5609 -0.6123
 7820SOL     OW31045   5.608   5.643   1.681 -0.4253  0.3347  0.2425
 7820SOL    HW231046   5.683   5.620   1.736  0.3928  2.1789 -0.0420
 7820SOL    HW331047   5.627   5.731   1.650 -2.4634  0.6171 -0.3174
 7820SOL    MW431048   5.620   5.651   1.684 -0.5863  0.6153  0.1311
 7821SOL     OW31049   1.824   4.359   5.928  0.1398 -0.0698  0.0938
 7821SOL    HW231050   1.807   4.411   6.006 -0.4495 -0.3417  0.1553
 7821SOL    HW331051   1.807   4.269   5.956 -0.6614 -0.1120 -0.5021
 7821SOL    MW431052   1.820   4.354   5.942 -0.0436 -0.1112  0.0233
 7822SOL     OW31053   4.666   6.248   4.161  0.2261 -0.0643 -0.4396
 7822SOL    HW231054   4.652   6.268   4.068 -2.7208 -1.0668 -0.3102
 7822SOL    HW331055   4.753   6.208   4.164  0.2502 -0.3264 -2.8255
 7822SOL    MW431056   4.676   6.246   4.149 -0.1595 -0.2311 -0.7373
 7823SOL     OW31057   0.714   2.587   0.875  0.1175 -0.5239  0.0923
 7823SOL    HW231058   0.666   2.626   0.948 -0.6348 -0.9761 -0.1554
 7823SOL    HW331059   0.744   2.662   0.824 -1.1704 -0.2411 -0.2841
 7823SOL    MW431060   0.712   2.602   0.878 -0.1516 -0.5463  0.0099
 7824SOL     OW31061   4.390   0.937   0.571  0.1358  0.1628 -0.3403
 7824SOL    HW231062   4.355   0.875   0.634 -2.4233 -0.4018 -2.1451
 7824SOL    HW331063   4.411   0.884   0.494  0.2943  1.2141 -1.0421
 7824SOL    MW431064   4.388   0.922   0.569 -0.1809  0.2270 -0.6710
 7825SOL     OW31065   1.551   2.500   1.685  0.1996  0.3098 -0.4044
 7825SOL    HW231066   1.491   2.439   1.728  1.2092 -0.0023  0.5880
 7825SOL    HW331067   1.630   2.499   1.739  0.4024  2.1765 -0.6028
 7825SOL    MW431068   1.554   2.492   1.697  0.3596  0.5149 -0.2996
 7826SOL     OW31069   6.352   4.438   5.415  0.0112  0.2752 -0.1403
 7826SOL    HW231070   6.410   4.456   5.489  1.7092  0.2756 -1.4083
 7826SOL    HW331071   6.404   4.461   5.337 -1.1013 -1.2892 -1.4112
 7826SOL    MW431072   6.367   4.444   5.414  0.0884  0.0689 -0.4753
 7827SOL     OW31073   5.653   3.883   5.318 -0.1675 -0.0985 -0.0814
 7827SOL    HW231074   5.705   3.824   5.373  0.4662  2.2239  1.9957
 7827SOL    HW331075   5.708   3.898   5.241  1.0774  0.1818  0.8199
 7827SOL    MW431076   5.667   3.877   5.316  0.0804  0.2449  0.3116
 7828SOL     OW31077   6.366   4.827   6.380  0.0649 -0.4914  0.4387
 7828SOL    HW231078   6.444   4.840   6.326  0.0964 -3.0018 -0.2270
 7828SOL    HW331079   6.300   4.884   6.340  1.4152  1.4935  0.8751
 7828SOL    MW431080   6.368   4.836   6.368  0.2472 -0.5608  0.4085
 7829SOL     OW31081   0.516   4.640   1.330  0.2344  0.2119 -0.5263
 7829SOL    HW231082   0.469   4.682   1.402  1.5729  1.1073 -0.1406
 7829SOL    HW331083   0.447   4.609   1.271 -0.8316  2.0161 -0.2888
 7829SOL    MW431084   0.501   4.641   1.332  0.2704  0.5681 -0.4441
 7830SOL     OW31085   0.052   6.108   2.909  0.3495 -0.3532 -0.5906
 7830SOL    HW231086   0.122   6.157   2.865  0.8858 -0.6885 -0.1121
 7830SOL    HW331087  -0.012   6.175   2.935  0.5899 -0.0251 -0.8428
 7830SOL    MW431088   0.053   6.123   2.906  0.4520 -0.3542 -0.5608
 7831SOL     OW31089   5.913   3.708   6.422  0.1173  0.2048  0.0628
 7831SOL    HW231090   6.008   3.705   6.411  0.1479 -0.0305  0.3734
 7831SOL    HW331091   5.891   3.801   6.421  0.3071  0.2462 -0.3642
 7831SOL    MW431092   5.922   3.720   6.420  0.1464  0.1792  0.0474
 7832SOL     OW31093   2.790   2.531   4.429 -0.2431 -0.7052  0.2539
 7832SOL    HW231094   2.804   2.594   4.499 -3.9761  0.5195  0.0824
 7832SOL    HW331095   2.878   2.500   4.408  1.7989  3.7868  0.9095
 7832SOL    MW431096   2.804   2.535   4.435 -0.4662  0.0491  0.3178
 7833SOL     OW31097   2.314   2.022   3.420 -0.0263 -1.0465  1.0290
 7833SOL    HW231098   2.236   1.968   3.407  0.6723 -1.5638 -1.5330
 7833SOL    HW331099   2.284   2.111   3.406  0.1456 -1.3903 -2.1173
 7833SOL    MW431100   2.300   2.026   3.417  0.0886 -1.1601  0.2758
 7834SOL     OW31101   4.842   1.048   6.254 -0.1500 -0.1805 -0.7343
 7834SOL    HW231102   4.871   1.006   6.335 -2.2712  1.5476  1.0821
 7834SOL    HW331103   4.910   1.111   6.234 -0.3065  0.4771  0.6705
 7834SOL    MW431104   4.855   1.051   6.262 -0.4505  0.1343 -0.3093
 7835SOL     OW31105   0.780   0.639   0.883  0.0576  0.6043 -0.1885
 7835SOL    HW231106   0.866   0.679   0.897  0.4156  0.1522 -1.0332
 7835SOL    HW331107   0.718   0.710   0.899  0.6700  1.5226 -1.6760
 7835SOL    MW431108   0.783   0.654   0.887  0.1856  0.6658 -0.4962
 7836SOL     OW31109   6.361   2.707   0.134 -0.1046 -0.2828 -0.1122
 7836SOL    HW231110   6.323   2.639   0.190  0.6688 -0.4039  0.2861
 7836SOL    HW331111   6.353   2.787   0.186 -0.4418 -0.1812 -0.3184
 7836SOL    MW431112   6.355   2.708   0.148 -0.0470 -0.2854 -0.0868
 7837SOL     OW31113   5.316   4.759   3.758 -0.2966  0.5373  0.1002
 7837SOL    HW231114   5.228   4.776   3.724  0.4093  1.3163 -1.4329
 7837SOL    HW331115   5.361   4.713   3.687  0.7573  0.7938  0.5799
 7837SOL    MW431116   5.310   4.755   3.744 -0.0644  0.6739 -0.0388
 7838SOL     OW31117   1.740   5.149   4.183  0.0954  0.3108  0.2567
 7838SOL    HW231118   1.646   5.159   4.170 -0.3935 -1.7774  1.6846
 7838SOL    HW331119   1.776   5.139   4.095 -0.8561  1.9039 -0.3642
 7838SOL    MW431120   1.732   5.149   4.170 -0.0946  0.2455  0.3632
 7839SOL     OW31121   1.064   5.751   1.496  0.2288  0.3587  0.0967
 7839SOL    HW231122   1.019   5.759   1.580 -0.2594  0.0450 -0.1278
 7839SOL    HW331123   1.059   5.657   1.475 -0.2961  0.5362 -0.6200
 7839SOL    MW431124   1.058   5.739   1.504  0.0951  0.3407 -0.0275
 7840SOL     OW31125   2.712   0.417   1.045  0.3099  0.4175 -0.3781
 7840SOL    HW231126   2.675   0.348   0.990  1.5869 -0.3052 -0.3645
 7840SOL    HW331127   2.637   0.456   1.089 -0.4650 -0.7274 -0.6624
 7840SOL    MW431128   2.697   0.413   1.044  0.3762  0.1711 -0.4138
 7841SOL     OW31129   3.339   3.280   6.155 -0.0226 -0.8582 -0.1942
 7841SOL    HW231130   3.262   3.236   6.193  0.5633 -0.9052  0.9980
 7841SOL    HW331131   3.320   3.373   6.165 -0.6470 -0.8336 -1.4404
 7841SOL    MW431132   3.326   3.286   6.161 -0.0276 -0.8611 -0.2013
 7842SOL     OW31133   1.773   4.562   5.400  0.2629  0.0156 -0.2723
 7842SOL    HW231134   1.761   4.468   5.415 -0.5659  0.6101  4.1961
 7842SOL    HW331135   1.868   4.575   5.399  0.4077 -0.8859 -1.9232
 7842SOL    MW431136   1.784   4.551   5.402  0.1727 -0.0249  0.0995
 7843SOL     OW31137   1.022   2.740   1.724  0.2183 -0.0639  0.2130
 7843SOL    HW231138   1.001   2.751   1.631  1.0337  1.2966  0.1650
 7843SOL    HW331139   0.942   2.704   1.762 -0.6107  0.6612 -0.7775
 7843SOL    MW431140   1.008   2.737   1.717  0.2165  0.2112  0.0759
 7844SOL     OW31141   1.114   3.741   0.680  0.2636  0.3159 -0.1938
 7844SOL    HW231142   1.092   3.834   0.689 -0.4358  0.0035  1.8307
 7844SOL    HW331143   1.039   3.695   0.718  0.6508 -1.0920 -1.0634
 7844SOL    MW431144   1.101   3.747   0.686  0.2224  0.0889 -0.0414
 7845SOL     OW31145   1.773   0.361   5.355  0.7228  0.3999  0.3029
 7845SOL    HW231146   1.762   0.454   5.338 -2.2808 -0.0071 -0.5743
 7845SOL    HW331147   1.702   0.340   5.416  0.8602 -1.4513 -0.1276
 7845SOL    MW431148   1.762   0.370   5.361  0.3446  0.1020  0.1304
 7846SOL     OW31149   0.026   4.258   2.186  0.0922 -0.2861  0.1039
 7846SOL    HW231150   0.029   4.210   2.103 -0.2978  0.7030 -0.5016
 7846SOL    HW331151  -0.024   4.201   2.244  0.0237 -0.8158 -0.4592
 7846SOL    MW431152   0.020   4.244   2.182  0.0317 -0.2255 -0.0503
 7847SOL     OW31153   5.638   0.631   2.130 -0.2828  0.1955  0.4003
 7847SOL    HW231154   5.606   0.692   2.195 -0.6263 -2.7891  3.3103
 7847SOL    HW331155   5.561   0.609   2.077 -1.5502 -1.6197  2.8143
 7847SOL    MW431156   5.624   0.636   2.132 -0.4954 -0.4378  1.1027
 7848SOL     OW31157   4.182   0.431   0.604  0.0292 -0.6811 -0.0494
 7848SOL    HW231158   4.277   0.424   0.594  0.2579  0.5865  0.9224
 7848SOL    HW331159   4.161   0.374   0.679 -0.0601 -1.3142 -0.5445
 7848SOL    MW431160   4.192   0.423   0.613  0.0476 -0.5974  0.0135
 7849SOL     OW31161   3.360   5.653   3.499 -0.6428 -0.4219 -0.1030
 7849SOL    HW231162   3.285   5.655   3.439  0.0606 -3.0828 -1.2409
 7849SOL    HW331163   3.420   5.719   3.465 -1.6904  0.4631 -0.2805
 7849SOL    MW431164   3.358   5.662   3.486 -0.6882 -0.6562 -0.2766
 7850SOL     OW31165   0.191   5.050   4.076  0.0962  0.0884  0.2812
 7850SOL    HW231166   0.195   5.076   3.984  0.2476 -1.8974 -0.3187
 7850SOL    HW331167   0.229   5.124   4.124  0.1740  1.0792 -1.2562
 7850SOL    MW431168   0.196   5.063   4.070  0.1265 -0.0429 -0.0008
 7851SOL     OW31169   5.030   1.237   5.463  0.1629 -0.3715 -0.0442
 7851SOL    HW231170   5.088   1.203   5.533  1.0004 -0.1877 -0.6333
 7851SOL    HW331171   5.021   1.163   5.403  0.7439 -0.0341 -0.5506
 7851SOL    MW431172   5.037   1.223   5.465  0.3501 -0.3027 -0.1887
 7852SOL     OW31173   4.805   3.347   2.123 -0.5087  0.0915  0.0968
 7852SOL    HW231174   4.738   3.346   2.192 -1.8169 -1.8888 -1.1108
 7852SOL    HW331175   4.759   3.375   2.044  0.5775  0.6668 -0.3576
 7852SOL    MW431176   4.790   3.351   2.122 -0.5380 -0.0938 -0.1225
 7853SOL     OW31177   4.256   3.983   3.223  0.2350  0.2822  0.0032
 7853SOL    HW231178   4.184   4.042   3.245  0.0790 -0.0932  0.5118
 7853SOL    HW331179   4.214   3.913   3.172  0.6124  1.2272 -1.7122
 7853SOL    MW431180   4.241   3.982   3.219  0.2642  0.3573 -0.1560
 7854SOL     OW31181   3.710   5.319   0.327 -0.2255  0.8040 -0.1163
 7854SOL    HW231182   3.690   5.241   0.275  0.2781  1.4637 -1.3437
 7854SOL    HW331183   3.706   5.391   0.265  0.0492  1.6796  0.8468
 7854SOL    MW431184   3.707   5.318   0.312 -0.1228  1.0066 -0.1512
 7855SOL     OW31185   1.663   6.221   1.521 -0.4979  0.7142  0.3120
 7855SOL    HW231186   1.718   6.243   1.446 -0.6672 -1.2080 -0.4412
 7855SOL    HW331187   1.724   6.213   1.594  0.1933 -0.8849 -0.4010
 7855SOL    MW431188   1.678   6.223   1.521 -0.4291  0.2496  0.1186
 7856SOL     OW31189   3.556   0.570   5.379 -0.2389  0.4884  0.2843
 7856SOL    HW231190   3.568   0.619   5.297 -1.1724 -0.7673 -0.6373
 7856SOL    HW331191   3.481   0.611   5.421 -0.1180  0.7575  0.2451
 7856SOL    MW431192   3.548   0.582   5.374 -0.3461  0.3582  0.1575
 7857SOL     OW31193   5.536   0.889   4.919  0.2007 -0.2390 -0.1178
 7857SOL    HW231194   5.527   0.874   5.013  0.3682 -0.2389 -0.0995
 7857SOL    HW331195   5.510   0.807   4.878 -0.0311 -0.1849 -0.0798
 7857SOL    MW431196   5.532   0.877   4.926  0.1922 -0.2319 -0.1103
 7858SOL     OW31197   4.349   1.320   0.814 -0.2871  0.0168  0.1367
 7858SOL    HW231198   4.410   1.294   0.744 -1.4082 -2.6337  0.0436
 7858SOL    HW331199   4.298   1.391   0.776  1.0837  0.6436 -0.6336
 7858SOL    MW431200   4.350   1.326   0.800 -0.2541 -0.2502  0.0228
 7859SOL     OW31201   1.484   1.129   0.600 -0.2660  0.1493  0.4458
 7859SOL    HW231202   1.483   1.154   0.692 -0.4185  0.2112  0.4289
 7859SOL    HW331203   1.398   1.156   0.567  0.3822  1.6267 -0.1152
 7859SOL    MW431204   1.472   1.136   0.607 -0.2006  0.3524  0.3696
 7860SOL     OW31205   0.111   6.088   1.975  0.3659 -0.1235 -0.2005
 7860SOL    HW231206   0.058   6.150   2.025 -1.2102 -1.2943 -0.3380
 7860SOL    HW331207   0.104   6.119   1.884 -0.7621 -0.7102 -0.3269
 7860SOL    MW431208   0.103   6.100   1.969  0.0091 -0.3554 -0.2353
 7861SOL     OW31209   0.600   5.917   5.062 -0.0338  0.2944 -0.1396
 7861SOL    HW231210   0.547   5.894   4.986  0.8066  1.5397 -1.1342
 7861SOL    HW331211   0.689   5.925   5.028  0.6087 -0.5519  1.2636
 7861SOL    MW431212   0.604   5.915   5.048  0.1618  0.3471 -0.0857
 7862SOL     OW31213   0.993   1.221   1.748  0.6783 -0.1545 -0.4933
 7862SOL    HW231214   0.988   1.212   1.843  0.1157  0.5336 -0.4523
 7862SOL    HW331215   0.915   1.176   1.715 -1.2539  2.8555 -0.3789
 7862SOL    MW431216   0.982   1.214   1.756  0.3491  0.3334 -0.4728
 7863SOL     OW31217   0.582   6.319   2.517 -0.3633  0.0965 -0.4860
 7863SOL    HW231218   0.578   6.274   2.433  0.0648  0.5790 -0.7684
 7863SOL    HW331219   0.512   6.280   2.569  1.3583 -2.4560  0.0596
 7863SOL    MW431220   0.572   6.308   2.513 -0.0797 -0.1766 -0.4513
 7864SOL     OW31221   1.189   0.361   1.243 -0.5114  0.7513  0.5085
 7864SOL    HW231222   1.240   0.300   1.189 -1.7767 -0.0457  0.1631
 7864SOL    HW331223   1.193   0.444   1.196  0.7830  0.8187  0.6963
 7864SOL    MW431224   1.196   0.364   1.230 -0.5076  0.6551  0.4877
 7865SOL     OW31225   5.503   4.425   1.916  0.1018 -0.0791  0.1957
 7865SOL    HW231226   5.488   4.446   1.824  2.2833 -2.6697 -0.8939
 7865SOL    HW331227   5.596   4.446   1.930  0.8917 -3.3635  0.5598
 7865SOL    MW431228   5.513   4.431   1.906  0.4939 -0.8542  0.1000
 7866SOL     OW31229   4.997   4.220   3.949 -0.1322 -0.8009 -0.1415
 7866SOL    HW231230   5.028   4.224   4.040 -0.4440 -0.7578 -0.0349
 7866SOL    HW331231   4.905   4.193   3.956 -0.1387 -0.8654 -0.4481
 7866SOL    MW431232   4.989   4.217   3.962 -0.1742 -0.8037 -0.1679
 7867SOL     OW31233   1.047   5.718   5.059 -0.3984  0.1071 -0.3184
 7867SOL    HW231234   1.038   5.735   5.153 -1.2595  0.8183 -0.5190
 7867SOL    HW331235   1.116   5.778   5.030  0.0174 -0.2636 -0.1052
 7867SOL    MW431236   1.055   5.728   5.068 -0.4571  0.1520 -0.3168
 7868SOL     OW31237   1.399   1.783   5.487  0.2841 -0.3877 -0.5721
 7868SOL    HW231238   1.413   1.837   5.409 -0.7209 -0.3066 -0.7118
 7868SOL    HW331239   1.416   1.694   5.457 -2.0568 -0.5883 -1.4534
 7868SOL    MW431240   1.403   1.779   5.473 -0.1573 -0.4035 -0.7068
 7869SOL     OW31241   5.427   4.222   3.150 -0.9039  0.3890  0.0608
 7869SOL    HW231242   5.337   4.223   3.183 -0.6659 -1.8392  0.9662
 7869SOL    HW331243   5.435   4.137   3.107  0.7269  0.6138 -0.1369
 7869SOL    MW431244   5.416   4.211   3.149 -0.6574  0.1246  0.1542
 7870SOL     OW31245   4.786   2.336   0.018  0.6564 -0.3133 -0.0655
 7870SOL    HW231246   4.817   2.405   0.077  1.9271 -1.3200  0.4856
 7870SOL    HW331247   4.822   2.359  -0.067  1.7216 -0.7028  0.2751
 7870SOL    MW431248   4.795   2.348   0.015  0.9646 -0.4975  0.0521
 7871SOL     OW31249   2.497   1.555   2.221 -0.4767 -0.4158  0.4111
 7871SOL    HW231250   2.426   1.490   2.226 -0.8019 -0.1056 -0.1031
 7871SOL    HW331251   2.562   1.524   2.284  0.1091 -2.1434 -0.9515
 7871SOL    MW431252   2.496   1.542   2.230 -0.4423 -0.6028  0.1635
 7872SOL     OW31253   4.579   0.829   6.261  0.6896 -0.4736 -0.3109
 7872SOL    HW231254   4.497   0.878   6.248 -0.4600 -1.7989  1.3700
 7872SOL    HW331255   4.574   0.757   6.198  0.8980 -0.1785 -0.6689
 7872SOL    MW431256   4.567   0.826   6.251  0.5654 -0.6096 -0.1363
 7873SOL     OW31257   3.964   0.520   2.426 -0.5153 -0.2569  0.6963
 7873SOL    HW231258   3.887   0.562   2.388 -0.5748 -1.8141 -1.0687
 7873SOL    HW331259   3.964   0.432   2.389  2.6388 -0.0217 -0.1923
 7873SOL    MW431260   3.954   0.514   2.416 -0.1070 -0.4314  0.3462
 7874SOL     OW31261   5.067   1.081   2.893 -0.0356  0.8045  0.1172
 7874SOL    HW231262   4.992   1.074   2.953  0.7069  0.7276  1.0526
 7874SOL    HW331263   5.143   1.089   2.951  1.0138 -1.9208 -0.7299
 7874SOL    MW431264   5.067   1.081   2.909  0.2008  0.4348  0.1289
 7875SOL     OW31265   4.869   3.301   6.293  0.2819 -0.2982 -0.5760
 7875SOL    HW231266   4.903   3.264   6.211 -1.4704  0.0202 -1.5062
 7875SOL    HW331267   4.826   3.228   6.336  0.8939 -0.3822 -0.0967
 7875SOL    MW431268   4.868   3.287   6.288  0.1315 -0.2673 -0.6355
 7876SOL     OW31269   3.551   0.358   3.600 -0.1257  0.3839 -0.0739
 7876SOL    HW231270   3.598   0.302   3.661 -0.0619  0.8716  0.3364
 7876SOL    HW331271   3.518   0.430   3.655 -1.6561 -0.1200 -0.2719
 7876SOL    MW431272   3.553   0.360   3.616 -0.3192  0.3818 -0.0459
 7877SOL     OW31273   6.063   2.885   4.049  0.1637  0.0892 -0.0033
 7877SOL    HW231274   6.156   2.866   4.043  0.3689  1.0155  0.1028
 7877SOL    HW331275   6.053   2.939   4.127 -0.4566  0.0201 -0.0243
 7877SOL    MW431276   6.074   2.890   4.058  0.1089  0.2023  0.0079
 7878SOL     OW31277   2.442   1.864   2.412  0.0807 -0.0772 -0.0847
 7878SOL    HW231278   2.499   1.840   2.338 -0.9064  0.4686 -1.0454
 7878SOL    HW331279   2.470   1.953   2.434  1.7058 -0.9202  1.5243
 7878SOL    MW431280   2.453   1.873   2.405  0.1649 -0.1164  0.0008
 7879SOL     OW31281   5.673   1.253   2.303  0.0151 -0.2438  0.1174
 7879SOL    HW231282   5.762   1.252   2.267  0.1197 -2.8706  0.2342
 7879SOL    HW331283   5.620   1.292   2.233  1.0436  0.0132 -0.5506
 7879SOL    MW431284   5.678   1.258   2.289  0.1646 -0.5565  0.0447
 7880SOL     OW31285   3.976   5.704   1.226 -0.1427 -0.2088  0.4572
 7880SOL    HW231286   4.069   5.700   1.205 -0.1042  0.9280  0.3173
 7880SOL    HW331287   3.933   5.723   1.142 -0.6897 -2.2912  0.2126
 7880SOL    MW431288   3.983   5.706   1.212 -0.2098 -0.3336  0.4065
 7881SOL     OW31289   0.433   5.761   2.069  0.4325 -0.0700 -0.8801
 7881SOL    HW231290   0.406   5.852   2.082 -0.0442 -0.2631 -0.5034
 7881SOL    HW331291   0.528   5.766   2.058  0.4418  0.4445 -0.6137
 7881SOL    MW431292   0.442   5.774   2.069  0.3709 -0.0276 -0.7952
 7882SOL     OW31293   4.504   4.168   5.890  1.0063 -0.6097 -0.2863
 7882SOL    HW231294   4.505   4.264   5.892 -0.0795 -0.5943 -0.2472
 7882SOL    HW331295   4.501   4.142   5.982  0.0590 -0.6540 -0.3223
 7882SOL    MW431296   4.504   4.177   5.902  0.7381 -0.6135 -0.2859
 7883SOL     OW31297   5.608   2.074   0.162 -0.1549 -0.2354 -0.2862
 7883SOL    HW231298   5.518   2.040   0.162 -0.0662 -0.4945  0.3999
 7883SOL    HW331299   5.598   2.168   0.151 -0.4364 -0.4015 -1.6409
 7883SOL    MW431300   5.595   2.082   0.160 -0.1803 -0.2915 -0.3744
 7884SOL     OW31301   5.578   3.845   2.701 -0.4024 -0.0048 -0.0229
 7884SOL    HW231302   5.649   3.821   2.760 -1.0193 -4.4761 -0.7280
 7884SOL    HW331303   5.602   3.805   2.617 -2.5108  0.6412 -1.0021
 7884SOL    MW431304   5.591   3.836   2.698 -0.7620 -0.5095 -0.2452
 7885SOL     OW31305   4.048   2.851   4.362 -0.4403  0.4898  0.2628
 7885SOL    HW231306   4.074   2.938   4.391 -1.3581  1.3302 -1.2462
 7885SOL    HW331307   4.111   2.828   4.294 -0.6809  0.3542  0.0807
 7885SOL    MW431308   4.060   2.860   4.357 -0.5931  0.5828  0.0397
 7886SOL     OW31309   1.149   1.406   0.644  0.1660 -0.2365  1.0807
 7886SOL    HW231310   1.126   1.395   0.736  0.7273  2.0425  1.5486
 7886SOL    HW331311   1.066   1.422   0.600 -0.1453 -1.6599  1.0839
 7886SOL    MW431312   1.135   1.406   0.650  0.1990 -0.1236  1.1429
 7887SOL     OW31313   0.345   2.973   4.817 -0.1888  0.3659 -0.5361
 7887SOL    HW231314   0.376   2.902   4.761 -1.6122  0.1987 -1.1650
 7887SOL    HW331315   0.417   2.989   4.878  0.8985 -0.3150 -1.5951
 7887SOL    MW431316   0.358   2.966   4.818 -0.2331  0.2540 -0.7588
 7888SOL     OW31317   3.957   2.262   4.028  0.2869 -0.1946 -0.2182
 7888SOL    HW231318   3.913   2.273   3.943  0.1272  1.4550  0.0352
 7888SOL    HW331319   3.921   2.181   4.063  0.7777 -1.2331 -1.9635
 7888SOL    MW431320   3.946   2.253   4.021  0.3306 -0.1140 -0.4151
 7889SOL     OW31321   1.279   5.413   3.538 -0.2800  0.0138 -0.2291
 7889SOL    HW231322   1.309   5.322   3.538 -0.4782 -0.0523 -0.6529
 7889SOL    HW331323   1.352   5.461   3.498 -0.4337 -0.0499 -0.5954
 7889SOL    MW431324   1.293   5.407   3.533 -0.3264 -0.0034 -0.3333
 7890SOL     OW31325   0.351   6.127   0.312  0.1640 -0.9317  0.6943
 7890SOL    HW231326   0.438   6.165   0.327 -0.8204  2.2708 -0.7521
 7890SOL    HW331327   0.300   6.151   0.389 -0.1981 -0.1574  0.2225
 7890SOL    MW431328   0.356   6.135   0.324 -0.0137 -0.4070  0.4412
 7891SOL     OW31329   6.368   6.418   4.398 -0.2086  0.0907 -0.9044
 7891SOL    HW231330   6.394   6.431   4.307 -0.2060  1.8018 -0.6958
 7891SOL    HW331331   6.361   6.506   4.434  0.8032 -0.5429  1.0365
 7891SOL    MW431332   6.371   6.431   4.391 -0.0748  0.2329 -0.6208
 7892SOL     OW31333   2.364   3.105   3.785  0.3340  0.2941  0.1653
 7892SOL    HW231334   2.400   3.131   3.870  0.7003 -0.5174  0.2640
 7892SOL    HW331335   2.440   3.104   3.727  0.5475 -1.6068  0.4149
 7892SOL    MW431336   2.379   3.109   3.789  0.4105 -0.0637  0.2113
 7893SOL     OW31337   3.255   5.886   4.555  0.0753  0.2833  0.4227
 7893SOL    HW231338   3.325   5.829   4.521  1.0740  1.4196  0.5075
 7893SOL    HW331339   3.175   5.850   4.518  0.8834  0.0005 -1.1433
 7893SOL    MW431340   3.254   5.874   4.546  0.3137  0.3959  0.2273
 7894SOL     OW31341   2.301   5.872   4.969  0.0047  0.1747  0.0979
 7894SOL    HW231342   2.392   5.850   4.985  0.2163  0.6414 -0.4616
 7894SOL    HW331343   2.280   5.937   5.036  0.1382  0.2120  0.1031
 7894SOL    MW431344   2.310   5.878   4.980  0.0502  0.2412  0.0248
 7895SOL     OW31345   3.978   3.093   1.590 -0.8767  0.1399 -0.8785
 7895SOL    HW231346   4.050   3.128   1.642  0.2406 -1.3979 -1.3468
 7895SOL    HW331347   3.914   3.165   1.586  0.8627  1.7471 -0.9571
 7895SOL    MW431348   3.979   3.107   1.596 -0.4998  0.1491 -0.9507
 7896SOL     OW31349   5.650   1.593   4.281 -0.3301  0.6969 -0.2759
 7896SOL    HW231350   5.588   1.563   4.216  0.7257 -0.6825 -0.7002
 7896SOL    HW331351   5.724   1.533   4.274 -0.0286  0.6852  1.9728
 7896SOL    MW431352   5.652   1.581   4.272 -0.1510  0.5134 -0.0352
 7897SOL     OW31353   4.530   0.180   4.600 -0.0843 -0.4019  0.4092
 7897SOL    HW231354   4.540   0.129   4.520  0.3950 -0.8442  0.7416
 7897SOL    HW331355   4.619   0.208   4.622 -0.4918  1.9587 -0.6319
 7897SOL    MW431356   4.543   0.177   4.592 -0.0748 -0.1488  0.3157
 7898SOL     OW31357   2.911   5.779   2.689 -0.0002  0.2037  0.0037
 7898SOL    HW231358   2.951   5.738   2.612 -0.0607  0.1876 -0.0192
 7898SOL    HW331359   2.946   5.868   2.690  0.2130  0.1199  0.1132
 7898SOL    MW431360   2.921   5.785   2.679  0.0200  0.1905  0.0151
 7899SOL     OW31361   4.465   3.538   0.365  0.0840 -0.7220  0.3683
 7899SOL    HW231362   4.375   3.557   0.392 -0.6913 -1.1976 -1.6459
 7899SOL    HW331363   4.506   3.499   0.442 -0.8572  1.1521  1.8923
 7899SOL    MW431364   4.458   3.535   0.378 -0.1425 -0.5375  0.3036
 7900SOL     OW31365   6.163   2.593   6.342  0.3260  0.0683  0.0734
 7900SOL    HW231366   6.156   2.556   6.254  0.0516  0.9393 -0.2714
 7900SOL    HW331367   6.254   2.577   6.367  0.2502 -0.7238 -0.1138
 7900SOL    MW431368   6.174   2.586   6.334  0.2798  0.0787  0.0032
 7901SOL     OW31369   2.459   2.859   4.322  0.6550 -0.6303 -0.5314
 7901SOL    HW231370   2.516   2.882   4.396  1.5474 -1.9951 -0.7469
 7901SOL    HW331371   2.514   2.871   4.245 -0.6084  1.8478 -1.1307
 7901SOL    MW431372   2.474   2.864   4.322  0.6061 -0.4835 -0.6389
 7902SOL     OW31373   0.531   6.262   1.659  0.5103  0.5713 -0.5264
 7902SOL    HW231374   0.584   6.327   1.613 -0.3172  0.6722 -1.3708
 7902SOL    HW331375   0.571   6.254   1.746  3.1195 -0.8167 -1.7496
 7902SOL    MW431376   0.543   6.269   1.665  0.7453  0.4015 -0.7992
 7903SOL     OW31377   3.012   5.006   2.861  0.4494 -0.1479 -0.6352
 7903SOL    HW231378   2.981   5.013   2.771  1.7943 -0.0471 -1.1106
 7903SOL    HW331379   3.030   5.096   2.888  0.0505 -0.1775 -0.2577
 7903SOL    MW431380   3.010   5.019   2.853  0.5742 -0.1385 -0.6481
 7904SOL     OW31381   4.288   1.738   1.347  0.1406 -0.1475  0.4333
 7904SOL    HW231382   4.327   1.716   1.263 -0.7453 -0.8126  0.1830
 7904SOL    HW331383   4.259   1.829   1.338  0.4895 -0.0595  0.1959
 7904SOL    MW431384   4.289   1.747   1.335  0.0697 -0.2236  0.3689
 7905SOL     OW31385   3.969   1.322   2.026 -0.0196 -0.3524 -0.0428
 7905SOL    HW231386   3.878   1.309   2.053 -0.0993  0.0606 -0.1103
 7905SOL    HW331387   3.964   1.387   1.955  0.3772  0.0881  0.3300
 7905SOL    MW431388   3.956   1.329   2.020  0.0223 -0.2398 -0.0025
 7906SOL     OW31389   5.617   2.465   6.279 -0.2538  0.0830  0.2008
 7906SOL    HW231390   5.633   2.559   6.290 -1.1846  0.1630  0.9515
 7906SOL    HW331391   5.689   2.435   6.223  0.7513  0.9990  0.9726
 7906SOL    MW431392   5.629   2.473   6.273 -0.2440  0.2144  0.4017
 7907SOL     OW31393   4.428   1.630   2.603  0.2368  0.2182  0.0252
 7907SOL    HW231394   4.357   1.566   2.616 -1.3293  1.9531  0.4366
 7907SOL    HW331395   4.507   1.584   2.632 -0.4511 -2.2493 -1.6646
 7907SOL    MW431396   4.429   1.616   2.608 -0.0606  0.1215 -0.1435
 7908SOL     OW31397   5.436   1.489   1.352  0.2457 -0.2127 -0.1639
 7908SOL    HW231398   5.377   1.551   1.309 -0.4858 -1.6663 -1.3503
 7908SOL    HW331399   5.517   1.539   1.364 -0.2308  0.9114 -1.3064
 7908SOL    MW431400   5.439   1.504   1.348  0.0863 -0.2562 -0.4712
 7909SOL     OW31401   4.039   4.477   4.719 -0.0260  0.0191 -0.3353
 7909SOL    HW231402   4.131   4.454   4.733 -0.6375 -2.0359  0.7262
 7909SOL    HW331403   4.016   4.533   4.793  0.2908  0.2544 -0.4157
 7909SOL    MW431404   4.048   4.481   4.731 -0.0649 -0.2210 -0.2059
 7910SOL     OW31405   2.516   5.907   2.170 -0.3009 -0.1843 -0.3434
 7910SOL    HW231406   2.567   5.871   2.243  0.0470  0.1671 -0.4098
 7910SOL    HW331407   2.425   5.898   2.198 -0.1483  0.4793  0.3855
 7910SOL    MW431408   2.511   5.901   2.183 -0.2349 -0.0504 -0.2560
 7911SOL     OW31409   1.622   2.735   1.568 -0.0559  0.0361 -0.6538
 7911SOL    HW231410   1.586   2.648   1.584  1.0322 -0.4990 -1.0351
 7911SOL    HW331411   1.628   2.775   1.655  0.9949 -0.9067 -0.2724
 7911SOL    MW431412   1.618   2.729   1.581  0.2263 -0.1589 -0.6538
 7912SOL     OW31413   1.076   1.717   4.384 -0.7992 -0.1252  0.1252
 7912SOL    HW231414   1.078   1.630   4.425  0.0713  0.0722  0.5364
 7912SOL    HW331415   1.060   1.777   4.457  1.9658  0.3414  0.4543
 7912SOL    MW431416   1.074   1.713   4.399 -0.3196 -0.0376  0.2229
 7913SOL     OW31417   3.419   1.515   3.276 -0.3004  0.8944  0.3914
 7913SOL    HW231418   3.505   1.539   3.310 -1.3656  2.6563  1.9821
 7913SOL    HW331419   3.403   1.576   3.205  0.5612 -0.7492 -1.3091
 7913SOL    MW431420   3.428   1.526   3.271 -0.3273  0.9100  0.3769
 7914SOL     OW31421   4.235   6.332   1.017  0.0391  0.3161 -0.4988
 7914SOL    HW231422   4.258   6.399   0.952  1.6238  1.0266  0.7406
 7914SOL    HW331423   4.158   6.289   0.980  1.0787  0.4533 -3.0127
 7914SOL    MW431424   4.228   6.335   1.003  0.3854  0.4279 -0.6670
 7915SOL     OW31425   4.920   6.251   1.208 -0.2170 -0.5924 -0.2289
 7915SOL    HW231426   4.899   6.248   1.115 -0.3193  0.2898 -0.2354
 7915SOL    HW331427   5.014   6.232   1.211 -0.0255  0.2454 -0.5918
 7915SOL    MW431428   4.930   6.248   1.196 -0.2052 -0.3655 -0.2776
 7916SOL     OW31429   1.613   1.119   3.765 -0.0907  0.3464 -0.5498
 7916SOL    HW231430   1.523   1.087   3.780  0.0409  1.0582  2.5488
 7916SOL    HW331431   1.665   1.039   3.757 -0.4782 -0.2510  1.9849
 7916SOL    MW431432   1.608   1.104   3.766 -0.1244  0.3615  0.1934
 7917SOL     OW31433   3.605   2.247   0.817 -0.0593  0.1029  0.4664
 7917SOL    HW231434   3.692   2.226   0.850  0.2463  0.3631 -0.1438
 7917SOL    HW331435   3.552   2.171   0.838  0.3819 -0.1643  0.6239
 7917SOL    MW431436   3.610   2.234   0.824  0.0392  0.1020  0.4067
 7918SOL     OW31437   5.374   3.741   0.873  0.1243  0.1240 -0.2868
 7918SOL    HW231438   5.416   3.709   0.953  0.1991 -1.2394 -0.8451
 7918SOL    HW331439   5.430   3.709   0.803 -0.7936 -0.0656 -0.9505
 7918SOL    MW431440   5.387   3.732   0.875  0.0131 -0.0809 -0.4480
 7919SOL     OW31441   5.322   0.329   1.580  0.3449  0.2297 -0.5054
 7919SOL    HW231442   5.355   0.289   1.661  1.5369  0.6217 -0.7749
 7919SOL    HW331443   5.240   0.284   1.563  0.1767 -0.0049  0.8140
 7919SOL    MW431444   5.316   0.318   1.588  0.4800  0.2505 -0.3669
 7920SOL     OW31445   0.767   5.589   4.778  0.0350  0.3919 -0.3919
 7920SOL    HW231446   0.733   5.676   4.759 -0.7379  0.0642 -0.5286
 7920SOL    HW331447   0.844   5.581   4.720  2.1555  2.2219  1.9562
 7920SOL    MW431448   0.773   5.599   4.768  0.2128  0.5901 -0.1001
 7921SOL     OW31449   5.186   0.374   3.324 -0.0613  0.1118 -0.7824
 7921SOL    HW231450   5.092   0.367   3.307 -0.3913  1.0162  0.4824
 7921SOL    HW331451   5.192   0.429   3.403  1.4075 -1.7815  0.5241
 7921SOL    MW431452   5.174   0.381   3.333  0.0890 -0.0187 -0.4432
 7922SOL     OW31453   3.206   0.161   1.290 -0.4843 -0.8289 -0.1842
 7922SOL    HW231454   3.175   0.211   1.215 -0.6083  0.6601  0.8205
 7922SOL    HW331455   3.260   0.092   1.252 -0.1458  0.1687 -1.6016
 7922SOL    MW431456   3.209   0.158   1.275 -0.4560 -0.5008 -0.2387
 7923SOL     OW31457   5.661   3.912   5.743  0.1692 -0.2489 -0.1306
 7923SOL    HW231458   5.591   3.952   5.794 -1.6263 -1.6464 -1.4004
 7923SOL    HW331459   5.706   3.855   5.805  0.9376  1.4563  0.9651
 7923SOL    MW431460   5.658   3.910   5.758  0.0336 -0.2083 -0.1536
 7924SOL     OW31461   0.815   2.742   3.259 -0.4423  0.2442  0.2811
 7924SOL    HW231462   0.770   2.826   3.264 -0.5356  0.1401  1.4129
 7924SOL    HW331463   0.907   2.764   3.243 -0.2801  0.6208  1.6475
 7924SOL    MW431464   0.822   2.756   3.257 -0.4332  0.2802  0.6107
 7925SOL     OW31465   3.340   1.712   3.051 -0.7763  0.3427 -0.1544
 7925SOL    HW231466   3.405   1.696   2.983  0.0703 -0.0232  0.7284
 7925SOL    HW331467   3.338   1.807   3.060 -0.3443  0.3565 -0.1749
 7925SOL    MW431468   3.348   1.722   3.043 -0.6076  0.2962 -0.0406
 7926SOL     OW31469   3.512   2.569   0.104 -0.3830  0.3356  0.4500
 7926SOL    HW231470   3.552   2.486   0.078  0.2035  0.2955  1.4355
 7926SOL    HW331471   3.427   2.569   0.060  0.7951  0.5804 -1.9592
 7926SOL    MW431472   3.506   2.558   0.095 -0.1502  0.3626  0.2621
 7927SOL     OW31473   3.747   3.691   2.535  0.4815  0.1442  0.1170
 7927SOL    HW231474   3.817   3.754   2.551 -1.2300  1.9255  1.0854
 7927SOL    HW331475   3.709   3.718   2.451  0.3788 -0.2368  0.0375
 7927SOL    MW431476   3.751   3.703   2.526  0.2421  0.3290  0.2342
 7928SOL     OW31477   4.392   4.972   0.016  0.4431 -0.5574  0.1844
 7928SOL    HW231478   4.435   4.902   0.066 -2.0286 -1.1477  1.6331
 7928SOL    HW331479   4.316   4.995   0.069  0.9885  3.0928 -0.3795
 7928SOL    MW431480   4.388   4.966   0.030  0.1889 -0.1537  0.3011
 7929SOL     OW31481   0.549   2.371   5.225 -0.1723  0.4611 -0.1100
 7929SOL    HW231482   0.590   2.363   5.311  1.9585  1.2470 -0.9799
 7929SOL    HW331483   0.552   2.282   5.188  2.9619  0.8107 -1.0131
 7929SOL    MW431484   0.555   2.358   5.231  0.5224  0.6109 -0.3439
 7930SOL     OW31485   1.869   3.066   1.511  0.1173 -0.1896  0.5113
 7930SOL    HW231486   1.805   3.079   1.581  0.2824  0.8364  0.4891
 7930SOL    HW331487   1.846   3.132   1.445  0.0362 -1.0644 -0.3596
 7930SOL    MW431488   1.857   3.077   1.512  0.1284 -0.1697  0.3935
 7931SOL     OW31489   1.758   3.740   0.227  0.3755  0.3655  0.1196
 7931SOL    HW231490   1.668   3.707   0.221  0.8165 -1.2598  1.6429
 7931SOL    HW331491   1.750   3.834   0.213 -1.6195  0.2952  0.4912
 7931SOL    MW431492   1.745   3.748   0.225  0.1705  0.1418  0.3696
 7932SOL     OW31493   3.961   2.994   0.967  0.0134  0.0396  0.2980
 7932SOL    HW231494   4.035   3.055   0.970  0.3496 -0.2135 -1.6239
 7932SOL    HW331495   4.001   2.909   0.946 -0.8208  0.0055 -1.3404
 7932SOL    MW431496   3.976   2.991   0.964 -0.0523  0.0017 -0.1718
 7933SOL     OW31497   0.206   3.705   4.949  0.3707 -0.0018 -0.2011
 7933SOL    HW231498   0.157   3.623   4.943 -1.3328  0.7587  1.8179
 7933SOL    HW331499   0.141   3.774   4.934  1.5184  1.0168 -0.7209
 7933SOL    MW431500   0.191   3.704   4.946  0.2974  0.2329 -0.0033
 7934SOL     OW31501   2.371   0.062   5.306 -0.3539  0.5694  0.0653
 7934SOL    HW231502   2.344   0.071   5.398 -0.6506 -0.9804  0.1604
 7934SOL    HW331503   2.447   0.004   5.310 -0.9431 -0.2708 -0.7396
 7934SOL    MW431504   2.377   0.055   5.319 -0.4708  0.2541 -0.0284
 7935SOL     OW31505   0.214   0.389   2.847  0.0712 -0.3496 -0.2026
 7935SOL    HW231506   0.197   0.421   2.759 -0.9362  0.2902  0.2115
 7935SOL    HW331507   0.260   0.306   2.834 -1.4945 -1.0681 -1.3544
 7935SOL    MW431508   0.218   0.382   2.834 -0.2683 -0.3600 -0.2999
 7936SOL     OW31509   1.433   6.307   5.776  0.4521 -0.7019  0.4590
 7936SOL    HW231510   1.368   6.276   5.840  0.8785 -1.2961  0.6132
 7936SOL    HW331511   1.408   6.263   5.694 -1.8696  2.2568 -0.6013
 7936SOL    MW431512   1.421   6.297   5.773  0.2021 -0.3900  0.3395
 7937SOL     OW31513   5.915   0.711   2.024 -0.0026  0.1325 -0.6399
 7937SOL    HW231514   5.955   0.644   1.969 -1.2946 -1.1227 -0.1273
 7937SOL    HW331515   5.831   0.673   2.050 -0.9144  2.0818 -0.5565
 7937SOL    MW431516   5.909   0.698   2.020 -0.2934  0.2241 -0.5612
 7938SOL     OW31517   3.062   2.053   3.981 -0.1016  0.6542 -0.5439
 7938SOL    HW231518   3.013   1.973   3.999 -0.9276  1.0112 -1.0781
 7938SOL    HW331519   2.995   2.114   3.947  0.9892  0.5759 -3.0727
 7938SOL    MW431520   3.046   2.050   3.979 -0.0667  0.6910 -0.9481
 7939SOL     OW31521   3.173   3.479   1.520 -0.1156  0.3733  0.0428
 7939SOL    HW231522   3.083   3.447   1.512 -0.1460  0.1176  1.2978
 7939SOL    HW331523   3.170   3.569   1.486 -1.4047  1.2867  2.3903
 7939SOL    MW431524   3.161   3.487   1.514 -0.2897  0.4601  0.5181
 7940SOL     OW31525   4.625   5.681   0.573 -0.0663  0.2708 -0.3591
 7940SOL    HW231526   4.562   5.657   0.641  0.0351 -0.6617 -0.5877
 7940SOL    HW331527   4.696   5.618   0.581 -0.5275 -0.5154 -1.9689
 7940SOL    MW431528   4.626   5.670   0.583 -0.1137  0.0440 -0.6016
 7941SOL     OW31529   0.700   0.691   4.651 -0.0005 -0.5428 -0.6683
 7941SOL    HW231530   0.702   0.634   4.727 -1.3675 -0.5568 -0.6186
 7941SOL    HW331531   0.711   0.779   4.686  1.0519 -0.6862 -0.6341
 7941SOL    MW431532   0.701   0.695   4.665 -0.0420 -0.5636 -0.6573
 7942SOL     OW31533   5.214   0.737   6.076  0.2397 -0.1904 -0.1044
 7942SOL    HW231534   5.206   0.808   6.140  0.5216  0.4193 -0.7296
 7942SOL    HW331535   5.154   0.670   6.107 -0.4335  0.5389  0.2180
 7942SOL    MW431536   5.205   0.738   6.089  0.1881 -0.0138 -0.1444
 7943SOL     OW31537   1.798   2.165   1.142  0.2589 -0.5902  0.2024
 7943SOL    HW231538   1.720   2.217   1.127  1.4990  1.4975  0.5796
 7943SOL    HW331539   1.833   2.147   1.055  0.5121  0.3779  0.0924
 7943SOL    MW431540   1.792   2.169   1.129  0.4559 -0.1870  0.2377
 7944SOL     OW31541   5.890   0.194   5.539  0.0201 -0.6230 -0.2656
 7944SOL    HW231542   5.873   0.185   5.633 -1.5741 -1.4897 -0.6065
 7944SOL    HW331543   5.874   0.107   5.503 -1.3904  0.1433 -1.6041
 7944SOL    MW431544   5.885   0.182   5.547 -0.3763 -0.6362 -0.4871
 7945SOL     OW31545   4.899   2.709   1.325  0.5611  0.4823  0.3032
 7945SOL    HW231546   4.841   2.663   1.264 -0.3723  1.2799  0.5718
 7945SOL    HW331547   4.888   2.662   1.408  1.2244 -0.1066  0.0686
 7945SOL    MW431548   4.890   2.696   1.328  0.5255  0.5098  0.3077
 7946SOL     OW31549   1.143   3.700   1.576 -0.7365  0.0468 -0.0805
 7946SOL    HW231550   1.132   3.735   1.664  1.0210 -1.6883  0.9388
 7946SOL    HW331551   1.060   3.717   1.532 -1.5183  1.3344  1.7719
 7946SOL    MW431552   1.131   3.707   1.582 -0.6078 -0.0122  0.2984
 7947SOL     OW31553   1.263   5.048   2.396 -0.8405  0.1806 -0.0632
 7947SOL    HW231554   1.259   4.996   2.316 -0.6113 -0.0687  0.0846
 7947SOL    HW331555   1.303   5.131   2.369 -0.1351 -0.1564 -0.0840
 7947SOL    MW431556   1.268   5.052   2.382 -0.7172  0.1033 -0.0464
 7948SOL     OW31557   5.120   3.574   4.946 -0.2957 -0.3968  0.0572
 7948SOL    HW231558   5.047   3.549   4.889  0.6890 -2.2284 -0.4891
 7948SOL    HW331559   5.086   3.566   5.035 -1.2045  0.3393 -0.2083
 7948SOL    MW431560   5.106   3.570   4.950 -0.2857 -0.5414 -0.0499
 7949SOL     OW31561   4.878   3.570   2.886 -0.1854 -0.6914  0.1859
 7949SOL    HW231562   4.918   3.644   2.931  0.3642 -1.2948  0.7127
 7949SOL    HW331563   4.805   3.607   2.838  0.8457  0.4131 -0.5840
 7949SOL    MW431564   4.874   3.584   2.885  0.0232 -0.6253  0.1538
 7950SOL     OW31565   0.977   3.932   2.467  0.2009 -0.0350 -0.1535
 7950SOL    HW231566   1.030   3.998   2.510 -0.0644 -0.6284  1.1138
 7950SOL    HW331567   0.887   3.951   2.495 -0.0455 -0.1212 -0.8576
 7950SOL    MW431568   0.972   3.943   2.476  0.1334 -0.1247 -0.0792
 7951SOL     OW31569   4.056   2.570   2.891  0.3221  0.3767  0.0870
 7951SOL    HW231570   4.001   2.530   2.823  0.0770 -1.0250  1.0513
 7951SOL    HW331571   4.001   2.638   2.929  0.7378  1.7312 -1.5811
 7951SOL    MW431572   4.042   2.573   2.887  0.3446  0.3705 -0.0058
 7952SOL     OW31573   3.142   2.773   2.344 -0.0750  0.0100  0.4129
 7952SOL    HW231574   3.112   2.738   2.260  0.8369 -0.1583  0.1534
 7952SOL    HW331575   3.144   2.697   2.402  0.6623 -0.1386  0.1984
 7952SOL    MW431576   3.138   2.758   2.341  0.1426 -0.0318  0.3504
 7953SOL     OW31577   1.052   5.482   5.516  0.3922 -0.2626 -0.2624
 7953SOL    HW231578   1.094   5.401   5.547  2.1049  1.3103  1.8552
 7953SOL    HW331579   0.993   5.507   5.586  1.2041  1.2039 -0.0578
 7953SOL    MW431580   1.050   5.475   5.529  0.7253  0.1384  0.0440
 7954SOL     OW31581   1.472   1.404   0.225  0.5405  0.0958  0.7858
 7954SOL    HW231582   1.408   1.411   0.155  1.3736 -0.5463 -0.0762
 7954SOL    HW331583   1.425   1.429   0.305 -0.3289  1.1573 -0.0436
 7954SOL    MW431584   1.457   1.408   0.227  0.5357  0.1511  0.5627
 7955SOL     OW31585   1.987   0.626   4.856 -0.1671 -0.0843  0.0742
 7955SOL    HW231586   1.931   0.698   4.826 -0.2316 -0.5693 -1.0174
 7955SOL    HW331587   1.999   0.571   4.778 -0.0541 -1.2123  0.8658
 7955SOL    MW431588   1.981   0.628   4.842 -0.1607 -0.2971  0.0346
 7956SOL     OW31589   5.869   3.591   3.780  0.0410 -0.0427  0.0212
 7956SOL    HW231590   5.858   3.599   3.875  0.7219  0.4427  0.0629
 7956SOL    HW331591   5.809   3.657   3.744  0.7778  0.7130  0.1625
 7956SOL    MW431592   5.859   3.601   3.788  0.2281  0.1210  0.0453
 7957SOL     OW31593   0.739   3.566   2.616 -0.5761  0.3178  0.2132
 7957SOL    HW231594   0.744   3.637   2.552  0.6373  0.5229  0.5145
 7957SOL    HW331595   0.649   3.570   2.648 -0.2722  2.4391  1.0118
 7957SOL    MW431596   0.728   3.576   2.612 -0.3759  0.6247  0.3583
 7958SOL     OW31597   6.083   3.131   2.564  0.4808 -0.5372 -0.3629
 7958SOL    HW231598   6.028   3.201   2.601  2.4927  0.4679  0.8846
 7958SOL    HW331599   6.077   3.060   2.628  1.4145 -0.0256  0.3162
 7958SOL    MW431600   6.075   3.131   2.577  0.8695 -0.3371 -0.1087
 7959SOL     OW31601   0.448   3.425   5.369 -0.2757  0.3427  0.7550
 7959SOL    HW231602   0.407   3.355   5.418 -0.6821 -0.8502 -1.1844
 7959SOL    HW331603   0.539   3.397   5.358 -0.1707  0.6291  0.8845
 7959SOL    MW431604   0.455   3.412   5.374 -0.3155  0.2231  0.5162
 7960SOL     OW31605   0.216   1.301   5.075  0.1452 -0.1990  0.1315
 7960SOL    HW231606   0.296   1.347   5.048  0.2914 -0.6040 -0.1370
 7960SOL    HW331607   0.179   1.357   5.144  1.0434 -0.3665  0.7823
 7960SOL    MW431608   0.222   1.315   5.081  0.2830 -0.2746  0.1819
 7961SOL     OW31609   0.678   1.777   2.340  0.8326  0.2397  0.7009
 7961SOL    HW231610   0.632   1.699   2.308  1.4023  0.0998  0.2069
 7961SOL    HW331611   0.610   1.829   2.383 -0.2403  1.0389 -1.8132
 7961SOL    MW431612   0.663   1.774   2.342  0.7662  0.3266  0.3040
 7962SOL     OW31613   6.343   3.009   5.612 -0.3410 -0.6603 -0.2251
 7962SOL    HW231614   6.316   3.099   5.593 -0.5217 -0.2030  1.9854
 7962SOL    HW331615   6.354   2.969   5.526 -3.5464  0.4716 -1.3034
 7962SOL    MW431616   6.341   3.015   5.598 -0.7878 -0.4506 -0.0757
 7963SOL     OW31617   3.607   5.197   1.241  0.3636  0.3071  0.4646
 7963SOL    HW231618   3.525   5.209   1.289  0.2007 -0.3308  0.3474
 7963SOL    HW331619   3.642   5.114   1.273  1.5533  1.1113  1.3721
 7963SOL    MW431620   3.601   5.188   1.252  0.4991  0.3290  0.5689
 7964SOL     OW31621   5.362   5.821   3.980  0.1689 -0.0323 -0.2021
 7964SOL    HW231622   5.424   5.867   3.924 -1.6652  0.6764 -1.7606
 7964SOL    HW331623   5.277   5.857   3.956 -0.8169 -0.5777  2.2409
 7964SOL    MW431624   5.359   5.832   3.969 -0.2032 -0.0107 -0.0854
 7965SOL     OW31625   1.628   0.677   3.791  0.3548  0.1532 -0.1131
 7965SOL    HW231626   1.625   0.599   3.846 -0.1770  0.2429 -0.0033
 7965SOL    HW331627   1.595   0.747   3.847 -0.5264  0.1813 -0.6395
 7965SOL    MW431628   1.623   0.676   3.806  0.1683  0.1687 -0.1680
 7966SOL     OW31629   4.612   1.977   2.488  0.1964 -0.0308  0.3362
 7966SOL    HW231630   4.665   1.900   2.467  0.8712  0.9956 -2.1774
 7966SOL    HW331631   4.676   2.049   2.496 -0.5848  0.7156  0.0621
 7966SOL    MW431632   4.628   1.977   2.486  0.1824  0.2031 -0.0316
 7967SOL     OW31633   5.784   2.892   5.941 -0.3783  0.1443  0.5101
 7967SOL    HW231634   5.838   2.846   6.005 -0.6320 -2.5627 -1.0680
 7967SOL    HW331635   5.844   2.907   5.867 -0.7831  0.7342  0.2997
 7967SOL    MW431636   5.799   2.888   5.939 -0.4652 -0.1351  0.2741
 7968SOL     OW31637   6.305   4.651   0.219  0.0419  0.3764  0.3159
 7968SOL    HW231638   6.399   4.644   0.238 -0.0588  1.1376  1.1916
 7968SOL    HW331639   6.290   4.745   0.209 -0.8200  0.3563  1.2670
 7968SOL    MW431640   6.315   4.662   0.220 -0.0851  0.4742  0.5569
 7969SOL     OW31641   1.202   4.809   3.263 -0.7668  0.1359 -0.1043
 7969SOL    HW231642   1.181   4.885   3.209  1.5065 -0.0225 -1.3538
 7969SOL    HW331643   1.296   4.818   3.280 -0.4182 -2.3912 -0.3281
 7969SOL    MW431644   1.212   4.821   3.258 -0.4208 -0.2184 -0.2987
 7970SOL     OW31645   4.976   4.523   0.872  0.8784 -0.3951  0.0717
 7970SOL    HW231646   4.889   4.526   0.911  0.1038  0.4679 -1.6085
 7970SOL    HW331647   5.024   4.459   0.924 -1.0059 -1.4927  0.5253
 7970SOL    MW431648   4.971   4.515   0.884  0.5276 -0.4261 -0.0901
 7971SOL     OW31649   2.360   0.116   6.132  0.0244 -0.1465 -0.3264
 7971SOL    HW231650   2.413   0.084   6.059  2.0717  0.6315  0.7290
 7971SOL    HW331651   2.392   0.066   6.207 -1.4395 -0.3135  0.2118
 7971SOL    MW431652   2.371   0.105   6.132  0.1014 -0.0659 -0.1162
 7972SOL     OW31653   1.491   4.803   3.289  0.1976 -0.5449 -0.2053
 7972SOL    HW231654   1.529   4.766   3.369 -0.1339  1.0353  0.7308
 7972SOL    HW331655   1.564   4.845   3.244 -0.0203  0.6579  0.5212
 7972SOL    MW431656   1.505   4.804   3.294  0.1251 -0.1777  0.0140
 7973SOL     OW31657   3.719   5.127   5.273 -0.1252 -0.1726 -0.5321
 7973SOL    HW231658   3.810   5.142   5.247  0.0681 -1.3117 -0.6059
 7973SOL    HW331659   3.702   5.036   5.247 -0.4959 -0.7932  1.6436
 7973SOL    MW431660   3.729   5.117   5.267 -0.1486 -0.4048 -0.2548
 7974SOL     OW31661   4.618   3.492   6.013  0.7718 -1.1528  0.4000
 7974SOL    HW231662   4.640   3.585   6.003 -1.7669 -0.6488 -1.2286
 7974SOL    HW331663   4.703   3.447   6.007  1.8402  0.8861 -1.2787
 7974SOL    MW431664   4.632   3.499   6.011  0.5778 -0.8173 -0.0363
 7975SOL     OW31665   0.790   1.832   3.048 -0.2144  0.3712  0.3060
 7975SOL    HW231666   0.773   1.773   3.122 -1.0614 -1.9625 -1.6078
 7975SOL    HW331667   0.705   1.873   3.031 -0.0145  0.9205  0.6045
 7975SOL    MW431668   0.777   1.829   3.056 -0.2998  0.1358  0.0929
 7976SOL     OW31669   5.543   2.867   0.859  0.3541  0.0924 -0.3521
 7976SOL    HW231670   5.523   2.788   0.908 -1.2428 -0.1566 -1.3367
 7976SOL    HW331671   5.541   2.840   0.767 -0.0548  1.2207 -0.6922
 7976SOL    MW431672   5.540   2.853   0.853  0.0894  0.2084 -0.5268
 7977SOL     OW31673   3.347   3.695   0.228  0.2017 -0.0648 -0.0352
 7977SOL    HW231674   3.286   3.723   0.296 -1.8186 -3.2740 -0.3201
 7977SOL    HW331675   3.350   3.600   0.235  3.3799 -0.2530 -1.6694
 7977SOL    MW431676   3.340   3.686   0.238  0.3545 -0.5131 -0.2884
 7978SOL     OW31677   4.770   5.506   5.181 -0.2726 -0.5927  0.4181
 7978SOL    HW231678   4.697   5.544   5.230  1.2767  1.4198  1.3273
 7978SOL    HW331679   4.821   5.459   5.247  1.1557  1.0805  0.5581
 7978SOL    MW431680   4.767   5.505   5.196  0.1203 -0.1065  0.5565
 7979SOL     OW31681   1.100   2.735   3.144  0.0772 -0.1371 -0.2202
 7979SOL    HW231682   1.091   2.639   3.142 -2.6369  0.0304 -0.4969
 7979SOL    HW331683   1.166   2.754   3.077 -0.1704 -1.7780 -0.9943
 7979SOL    MW431684   1.108   2.725   3.135 -0.3136 -0.3315 -0.3589
 7980SOL     OW31685   5.909   0.825   3.907  0.5776  0.2472  0.4118
 7980SOL    HW231686   5.852   0.852   3.979  0.7032 -0.8314  0.9425
 7980SOL    HW331687   5.867   0.860   3.828  0.2434  1.1330  0.9719
 7980SOL    MW431688   5.896   0.833   3.906  0.5501  0.2218  0.5557
 7981SOL     OW31689   5.664   3.789   2.118 -0.4445  0.5711 -0.1801
 7981SOL    HW231690   5.579   3.789   2.074 -0.5535 -0.7406 -0.0130
 7981SOL    HW331691   5.729   3.790   2.047 -0.6170 -1.3061 -0.4225
 7981SOL    MW431692   5.661   3.789   2.103 -0.4816  0.1504 -0.1901
 7982SOL     OW31693   5.677   1.653   3.516  0.2001 -0.2560  0.1006
 7982SOL    HW231694   5.727   1.696   3.446 -1.3554 -0.1889 -1.0271
 7982SOL    HW331695   5.684   1.559   3.496  0.9178 -0.3504  0.7097
 7982SOL    MW431696   5.685   1.646   3.504  0.0896 -0.2596  0.0321
 7983SOL     OW31697   6.109   3.649   2.255 -0.1738 -0.4908  0.4128
 7983SOL    HW231698   6.144   3.566   2.288  0.4818 -0.1973  0.4863
 7983SOL    HW331699   6.015   3.636   2.249 -0.1315 -1.0593  0.9520
 7983SOL    MW431700   6.101   3.637   2.259 -0.0818 -0.5271  0.4936
 7984SOL     OW31701   6.205   4.453   4.735 -0.3051 -0.2392 -0.1175
 7984SOL    HW231702   6.253   4.399   4.672  1.5310 -0.7605  1.6374
 7984SOL    HW331703   6.236   4.542   4.719 -0.9927 -0.1302 -0.9249
 7984SOL    MW431704   6.215   4.457   4.725 -0.1536 -0.2936  0.0075
 7985SOL     OW31705   5.885   5.399   5.582 -0.2375  0.4548 -0.3117
 7985SOL    HW231706   5.801   5.430   5.549  0.2232  1.5829 -0.4890
 7985SOL    HW331707   5.917   5.339   5.516 -0.1127  1.3708 -1.1033
 7985SOL    MW431708   5.878   5.395   5.569 -0.1603  0.7245 -0.4395
 7986SOL     OW31709   2.502   6.029   3.388  0.1770  0.2876 -0.0437
 7986SOL    HW231710   2.446   5.985   3.324 -0.5198  0.8256  0.1928
 7986SOL    HW331711   2.446   6.042   3.464  0.2906  1.8305 -0.1986
 7986SOL    MW431712   2.488   6.025   3.389  0.1001  0.5622 -0.0329
 7987SOL     OW31713   3.490   2.100   2.107 -0.5993 -0.0346 -0.0377
 7987SOL    HW231714   3.489   2.196   2.107 -0.8837 -0.0341  0.2209
 7987SOL    HW331715   3.545   2.077   2.182 -0.4462 -0.0735 -0.1620
 7987SOL    MW431716   3.497   2.110   2.117 -0.6166 -0.0397 -0.0200
 7988SOL     OW31717   3.246   5.987   3.779  0.1351  0.2407  0.3000
 7988SOL    HW231718   3.161   5.994   3.733 -0.8090 -2.1057  1.5272
 7988SOL    HW331719   3.229   6.021   3.866  0.0530 -1.4650  0.9745
 7988SOL    MW431720   3.232   5.993   3.784 -0.0003 -0.2939  0.5509
 7989SOL     OW31721   3.995   3.236   5.410  0.0828  0.0541 -0.0775
 7989SOL    HW231722   4.014   3.285   5.330  2.3243  0.2437  0.4770
 7989SOL    HW331723   3.913   3.274   5.443 -1.1028 -0.3151 -2.4346
 7989SOL    MW431724   3.987   3.248   5.404  0.2221  0.0304 -0.3153
 7990SOL     OW31725   0.638   3.609   5.085  0.1238  0.9244 -0.5309
 7990SOL    HW231726   0.591   3.631   5.004  1.0113  2.3412 -0.6888
 7990SOL    HW331727   0.642   3.513   5.084  2.7442  0.8680 -3.7482
 7990SOL    MW431728   0.632   3.599   5.074  0.5866  1.1039 -0.9762
 7991SOL     OW31729   2.503   5.059   6.126 -0.2015 -0.4077  0.6504
 7991SOL    HW231730   2.475   4.975   6.162  1.9176 -1.7262 -0.5725
 7991SOL    HW331731   2.493   5.050   6.032  2.2873 -0.2694  0.2947
 7991SOL    MW431732   2.498   5.047   6.119  0.4065 -0.5634  0.4422
 7992SOL     OW31733   5.198   2.147   0.939  0.1400  0.3129 -0.7702
 7992SOL    HW231734   5.169   2.103   0.859  0.6245  0.2036 -0.8903
 7992SOL    HW331735   5.218   2.236   0.911  0.4261  0.2414 -0.7994
 7992SOL    MW431736   5.197   2.153   0.925  0.2417  0.2891 -0.7899
 7993SOL     OW31737   4.579   0.135   1.700  0.4670 -0.3946 -0.2417
 7993SOL    HW231738   4.553   0.044   1.713  0.7235 -0.3196  0.9526
 7993SOL    HW331739   4.647   0.132   1.633 -0.9960 -0.8356 -1.7451
 7993SOL    MW431740   4.585   0.123   1.693  0.3078 -0.4429 -0.2824
 7994SOL     OW31741   5.334   2.054   4.479  0.3016 -0.1048 -0.4562
 7994SOL    HW231742   5.293   2.001   4.410 -3.8290  1.1996  0.7290
 7994SOL    HW331743   5.370   2.130   4.433 -3.0867  1.1552 -1.3123
 7994SOL    MW431744   5.333   2.057   4.464 -0.6905  0.2335 -0.4128
 7995SOL     OW31745   0.628   0.342   1.356  0.3384 -0.1911  0.2977
 7995SOL    HW231746   0.590   0.412   1.303  1.2834  0.2847  0.2218
 7995SOL    HW331747   0.680   0.291   1.295 -0.7025 -1.2433  0.2679
 7995SOL    MW431748   0.630   0.345   1.341  0.3258 -0.2671  0.2838
 7996SOL     OW31749   0.517   2.014   5.781 -0.0480 -0.2002 -0.4120
 7996SOL    HW231750   0.547   1.930   5.747  2.0171  0.8848 -1.4376
 7996SOL    HW331751   0.597   2.063   5.798 -1.2001  2.2082 -1.5143
 7996SOL    MW431752   0.532   2.009   5.779  0.0725  0.2607 -0.6928
 7997SOL     OW31753   5.758   1.857   2.151 -0.5705  0.9014  0.1144
 7997SOL    HW231754   5.834   1.841   2.095 -0.5457 -3.7509  1.0784
 7997SOL    HW331755   5.793   1.904   2.227  1.5292 -1.4120  0.6864
 7997SOL    MW431756   5.772   1.861   2.153 -0.2902 -0.0176  0.3171
 7998SOL     OW31757   4.106   0.557   1.741 -0.3916 -0.2495  0.0392
 7998SOL    HW231758   4.038   0.615   1.777 -0.1471 -0.4204  0.7907
 7998SOL    HW331759   4.188   0.603   1.759 -0.3192  0.1460 -1.2198
 7998SOL    MW431760   4.108   0.571   1.749 -0.3498 -0.2199 -0.0277
 7999SOL     OW31761   6.195   3.725   1.585 -0.0346 -0.3758  0.0639
 7999SOL    HW231762   6.187   3.631   1.571  0.4279 -0.5206  0.7476
 7999SOL    HW331763   6.169   3.739   1.676  0.6272  0.0611  0.1922
 7999SOL    MW431764   6.190   3.715   1.595  0.1137 -0.3373  0.1710
 8000SOL     OW31765   3.168   3.266   0.114  0.0124 -0.2164  0.0623
 8000SOL    HW231766   3.118   3.205   0.169  1.3284  0.7114  2.3867
 8000SOL    HW331767   3.216   3.209   0.054 -1.0887 -1.2938  0.1672
 8000SOL    MW431768   3.168   3.250   0.113  0.0407 -0.2361  0.3828
 8001SOL     OW31769   1.176   5.712   0.192 -0.0217  0.1546  0.6419
 8001SOL    HW231770   1.252   5.766   0.169 -0.0805  0.1895  0.5297
 8001SOL    HW331771   1.208   5.622   0.186 -0.6778  0.0078 -2.0794
 8001SOL    MW431772   1.191   5.707   0.188 -0.1160  0.1398  0.2681
 8002SOL     OW31773   0.318   3.559   3.837  0.4900 -0.2340 -0.0202
 8002SOL    HW231774   0.261   3.511   3.777 -0.3470  0.7547 -0.0436
 8002SOL    HW331775   0.265   3.633   3.866  1.9625  1.0539 -0.5048
 8002SOL    MW431776   0.303   3.562   3.833  0.5738  0.0664 -0.0872
 8003SOL     OW31777   1.611   0.787   0.093 -0.8700  0.4337  0.1353
 8003SOL    HW231778   1.630   0.854   0.027  1.9901 -0.1220  0.2545
 8003SOL    HW331779   1.585   0.837   0.171  0.2024  1.4024 -0.0910
 8003SOL    MW431780   1.610   0.802   0.095 -0.3512  0.4882  0.1212
 8004SOL     OW31781   3.646   4.476   0.693  0.5073  0.3925  0.1046
 8004SOL    HW231782   3.685   4.548   0.742  0.1560  0.0370  0.9263
 8004SOL    HW331783   3.568   4.452   0.743  0.7760 -0.7525  0.0056
 8004SOL    MW431784   3.641   4.482   0.706  0.4964  0.1946  0.2000
 8005SOL     OW31785   3.432   2.881   4.078  0.2554  0.3690  0.0332
 8005SOL    HW231786   3.450   2.975   4.091 -0.9120  0.4686  1.1111
 8005SOL    HW331787   3.461   2.864   3.988  2.0661  1.3477  0.3634
 8005SOL    MW431788   3.439   2.891   4.068  0.3403  0.5113  0.2190
 8006SOL     OW31789   6.013   5.525   0.871 -0.0193  0.1034 -0.0063
 8006SOL    HW231790   5.974   5.514   0.958 -0.0944  3.4364  0.5203
 8006SOL    HW331791   6.104   5.549   0.888 -0.2268  1.5398 -0.7584
 8006SOL    MW431792   6.020   5.527   0.885 -0.0566  0.7327 -0.0361
 8007SOL     OW31793   4.427   4.240   1.135  0.7667  0.3051  0.0135
 8007SOL    HW231794   4.405   4.288   1.055  1.0548  0.7860  0.2155
 8007SOL    HW331795   4.515   4.204   1.119  0.0715 -1.1966 -0.6025
 8007SOL    MW431796   4.436   4.242   1.123  0.7130  0.1704 -0.0411
 8008SOL     OW31797   6.065   2.542   4.018 -0.2210 -0.1646  0.3571
 8008SOL    HW231798   5.987   2.493   4.042 -0.1357 -0.5504 -0.1379
 8008SOL    HW331799   6.033   2.629   3.995 -0.3785  0.0061  1.1871
 8008SOL    MW431800   6.051   2.547   4.019 -0.2306 -0.1930  0.4013
 8009SOL     OW31801   1.786   3.130   3.349  0.5188 -0.7623 -0.7326
 8009SOL    HW231802   1.878   3.146   3.371  0.0912 -0.1723  0.7716
 8009SOL    HW331803   1.775   3.168   3.262  1.2104  1.0760 -0.0638
 8009SOL    MW431804   1.797   3.137   3.340  0.5537 -0.4419 -0.4459
 8010SOL     OW31805   5.224   6.343   3.809 -0.3783  0.1095 -0.1702
 8010SOL    HW231806   5.283   6.402   3.761  0.0668 -1.5433 -1.7633
 8010SOL    HW331807   5.138   6.385   3.801  0.0865  1.0800 -0.3210
 8010SOL    MW431808   5.220   6.357   3.801 -0.2583  0.0195 -0.4003
 8011SOL     OW31809   3.861   1.529   1.476  0.8277 -0.5119 -0.1644
 8011SOL    HW231810   3.767   1.523   1.460  0.6061  2.7944 -0.8518
 8011SOL    HW331811   3.900   1.532   1.388  1.7726 -2.8237  0.0915
 8011SOL    MW431812   3.854   1.529   1.462  0.9231 -0.3807 -0.2213
 8012SOL     OW31813   0.765   0.778   1.665  0.1047 -0.0151 -0.1287
 8012SOL    HW231814   0.786   0.686   1.655  0.7264  0.1227 -0.1130
 8012SOL    HW331815   0.794   0.801   1.753 -0.7254  0.0214  0.1463
 8012SOL    MW431816   0.772   0.769   1.675  0.0772  0.0079 -0.0904
 8013SOL     OW31817   3.077   4.193   4.526  0.3150 -0.1846  0.0306
 8013SOL    HW231818   3.156   4.185   4.580  0.2040 -2.2176 -0.0253
 8013SOL    HW331819   3.050   4.284   4.537  1.1317 -0.1356  2.2374
 8013SOL    MW431820   3.084   4.204   4.534  0.4082 -0.4464  0.3144
 8014SOL     OW31821   6.247   0.876   3.982 -0.2527 -0.0278 -0.2497
 8014SOL    HW231822   6.335   0.900   4.011 -0.2490 -0.1590 -0.1508
 8014SOL    HW331823   6.199   0.959   3.982  0.1006  0.1911 -1.1499
 8014SOL    MW431824   6.252   0.890   3.986 -0.2056 -0.0163 -0.3554
 8015SOL     OW31825   5.175   0.678   3.188  0.0532 -0.2327 -0.2783
 8015SOL    HW231826   5.217   0.600   3.223  0.0774  0.4231  1.2252
 8015SOL    HW331827   5.094   0.687   3.238 -0.4101  0.1970 -1.0760
 8015SOL    MW431828   5.170   0.669   3.199 -0.0047 -0.0895 -0.1852
 8016SOL     OW31829   3.664   2.804   3.108  0.3131 -0.0023  0.0553
 8016SOL    HW231830   3.647   2.897   3.121  2.0667  0.3387  0.2632
 8016SOL    HW331831   3.708   2.777   3.189  0.3337 -0.8705 -0.2389
 8016SOL    MW431832   3.668   2.812   3.120  0.5472 -0.0719  0.0439
 8017SOL     OW31833   1.950   4.974   1.625  0.8120 -0.3310  0.1736
 8017SOL    HW231834   1.899   5.032   1.682 -0.2499 -0.4972 -0.5879
 8017SOL    HW331835   2.023   5.028   1.595 -0.9057  1.1295 -1.6522
 8017SOL    MW431836   1.953   4.989   1.629  0.4453 -0.1602 -0.1678
 8018SOL     OW31837   4.253   1.695   5.752 -0.3403  0.0549 -0.3613
 8018SOL    HW231838   4.244   1.640   5.830 -0.6938  0.9900  0.2750
 8018SOL    HW331839   4.253   1.633   5.679 -3.4552 -0.7197  0.1178
 8018SOL    MW431840   4.252   1.680   5.752 -0.7979  0.0761 -0.2141
 8019SOL     OW31841   3.596   1.034   0.755  0.1126  0.1058 -0.6774
 8019SOL    HW231842   3.652   1.034   0.833  0.1823  1.4708 -0.7053
 8019SOL    HW331843   3.646   0.985   0.690 -0.3759 -1.9328  0.4024
 8019SOL    MW431844   3.610   1.028   0.757  0.0573  0.0169 -0.5386
 8020SOL     OW31845   5.832   5.306   0.467 -0.0050  0.2873  0.3218
 8020SOL    HW231846   5.780   5.227   0.481  0.8206 -0.0783  1.5051
 8020SOL    HW331847   5.909   5.294   0.523 -0.1524  2.1780  1.0143
 8020SOL    MW431848   5.835   5.294   0.477  0.0845  0.4885  0.5693
 8021SOL     OW31849   0.565   1.246   0.288 -0.4570 -0.0544 -0.2972
 8021SOL    HW231850   0.542   1.162   0.328 -0.4175 -0.4513 -1.0958
 8021SOL    HW331851   0.661   1.246   0.286 -0.3837  0.8977  1.5458
 8021SOL    MW431852   0.575   1.235   0.293 -0.4422  0.0188 -0.1594
 8022SOL     OW31853   0.043   4.581   2.850  0.2426  0.2252 -0.2306
 8022SOL    HW231854   0.123   4.543   2.812  1.0422  0.3142  1.2953
 8022SOL    HW331855   0.010   4.641   2.783  0.4349 -1.1600 -1.6133
 8022SOL    MW431856   0.049   4.584   2.836  0.3734  0.0542 -0.2117
 8023SOL     OW31857   1.784   4.799   1.153  0.3649 -0.2133 -0.0147
 8023SOL    HW231858   1.755   4.879   1.108  1.8524  0.1472 -0.3877
 8023SOL    HW331859   1.818   4.830   1.237  0.8730 -0.4490 -0.1289
 8023SOL    MW431860   1.785   4.814   1.158  0.6282 -0.1968 -0.0790
 8024SOL     OW31861   1.633   1.244   6.321  0.2353  0.0337 -0.4040
 8024SOL    HW231862   1.538   1.253   6.332  0.5650  2.9443  1.0950
 8024SOL    HW331863   1.668   1.251   6.409  1.9371  0.7167 -1.0934
 8024SOL    MW431864   1.625   1.246   6.334  0.5034  0.5078 -0.2971
 8025SOL     OW31865   3.009   4.943   4.079  0.1534 -0.1137  0.1438
 8025SOL    HW231866   2.958   4.880   4.027  0.7091 -0.3474 -0.1235
 8025SOL    HW331867   3.082   4.967   4.022  0.1384  0.5067  0.3836
 8025SOL    MW431868   3.012   4.938   4.064  0.2247 -0.0627  0.1402
 8026SOL     OW31869   5.561   0.263   2.031  0.4008  0.4046  0.3920
 8026SOL    HW231870   5.483   0.310   2.060  0.3752 -0.0140  1.0130
 8026SOL    HW331871   5.623   0.332   2.007  0.4046  0.7622  1.4025
 8026SOL    MW431872   5.559   0.278   2.031  0.3979  0.3965  0.6073
 8027SOL     OW31873   6.280   0.344   4.738 -0.1250 -0.0668  0.3996
 8027SOL    HW231874   6.223   0.420   4.731  0.2794  0.4901  2.4986
 8027SOL    HW331875   6.357   0.366   4.685 -0.4429  0.5470  0.1821
 8027SOL    MW431876   6.282   0.357   4.730 -0.1136  0.0877  0.6479
 8028SOL     OW31877   6.354   1.191   1.517 -0.1992  0.1169 -0.0165
 8028SOL    HW231878   6.421   1.217   1.454  0.2430 -0.1705  0.3298
 8028SOL    HW331879   6.349   1.264   1.579  1.1111 -0.6312  1.0117
 8028SOL    MW431880   6.362   1.204   1.517  0.0320 -0.0197  0.1648
 8029SOL     OW31881   1.800   1.323   3.015 -0.6208  0.3227 -0.4402
 8029SOL    HW231882   1.716   1.368   3.016 -0.9617 -0.2142 -2.1079
 8029SOL    HW331883   1.790   1.254   2.950  0.1956 -1.6098  1.3413
 8029SOL    MW431884   1.788   1.320   3.007 -0.5581 -0.0031 -0.4252
 8030SOL     OW31885   1.850   1.194   6.149 -0.2835 -0.2490 -0.5217
 8030SOL    HW231886   1.767   1.218   6.190 -0.4365 -0.5214 -0.6660
 8030SOL    HW331887   1.915   1.249   6.192 -0.4770 -0.3512 -0.0966
 8030SOL    MW431888   1.847   1.204   6.160 -0.3292 -0.2984 -0.4847
 8031SOL     OW31889   0.769   2.807   0.728 -0.8425  0.5734  0.1922
 8031SOL    HW231890   0.831   2.841   0.663 -1.2920  0.5248 -0.2619
 8031SOL    HW331891   0.697   2.870   0.728 -1.7269 -0.3941 -0.7212
 8031SOL    MW431892   0.768   2.820   0.720 -1.0185  0.4393  0.0118
 8032SOL     OW31893   4.702   5.769   4.147 -0.5231 -0.0037 -0.3279
 8032SOL    HW231894   4.793   5.795   4.162 -0.5369 -0.5034  0.6954
 8032SOL    HW331895   4.708   5.695   4.087 -0.3568  0.9086 -1.4695
 8032SOL    MW431896   4.715   5.763   4.141 -0.5030  0.0507 -0.3435
 8033SOL     OW31897   3.341   4.575   0.666 -0.1446 -0.0475 -0.3430
 8033SOL    HW231898   3.339   4.563   0.571  0.2458 -0.5255 -0.2942
 8033SOL    HW331899   3.372   4.665   0.677  1.4840 -0.5397 -0.6549
 8033SOL    MW431900   3.345   4.585   0.655  0.1218 -0.1755 -0.3777
 8034SOL     OW31901   2.318   3.875   1.306  0.3102  0.7585 -0.3745
 8034SOL    HW231902   2.321   3.928   1.385 -0.8608  0.2892  0.0119
 8034SOL    HW331903   2.333   3.785   1.336 -1.0416  0.4543 -0.5149
 8034SOL    MW431904   2.320   3.870   1.320 -0.0227  0.6564 -0.3421
 8035SOL     OW31905   1.795   4.534   4.359  0.1623  0.1732  0.2347
 8035SOL    HW231906   1.806   4.573   4.273  0.4401  1.2577  0.7415
 8035SOL    HW331907   1.883   4.505   4.384 -0.0232 -0.7139 -0.0925
 8035SOL    MW431908   1.808   4.535   4.351  0.1745  0.1992  0.2584
 8036SOL     OW31909   0.488   1.143   6.042 -0.3364  0.6443 -0.8061
 8036SOL    HW231910   0.436   1.177   5.969  0.6425 -0.3947 -2.0280
 8036SOL    HW331911   0.500   1.050   6.022  0.0453  0.3563  0.6343
 8036SOL    MW431912   0.483   1.135   6.030 -0.1569  0.4692 -0.7773
 8037SOL     OW31913   5.745   0.605   5.597 -0.4100 -0.5435 -0.3035
 8037SOL    HW231914   5.833   0.639   5.614 -0.3375 -1.3314  1.1122
 8037SOL    HW331915   5.695   0.626   5.676 -1.4022 -0.4378 -0.9356
 8037SOL    MW431916   5.750   0.612   5.610 -0.5314 -0.6335 -0.2001
 8038SOL     OW31917   6.355   5.599   3.781  0.6583 -0.1516 -0.2892
 8038SOL    HW231918   6.378   5.522   3.834  1.7002  0.2252 -0.1686
 8038SOL    HW331919   6.376   5.673   3.838  0.6943  0.2397 -0.8135
 8038SOL    MW431920   6.360   5.598   3.796  0.8005 -0.0503 -0.3425
 8039SOL     OW31921   5.775   5.346   4.524  0.0864 -0.5058  0.4275
 8039SOL    HW231922   5.710   5.343   4.454  1.0547  0.7102 -0.5675
 8039SOL    HW331923   5.818   5.260   4.520  1.8601  0.3731 -2.2559
 8039SOL    MW431924   5.772   5.334   4.515  0.4481 -0.2294 -0.0578
 8040SOL     OW31925   1.239   0.956   6.002 -0.3262 -0.2078  0.2676
 8040SOL    HW231926   1.221   1.048   6.025  0.0594 -0.3145  1.0240
 8040SOL    HW331927   1.170   0.907   6.047 -0.5961 -0.2817 -0.2262
 8040SOL    MW431928   1.227   0.962   6.011 -0.3109 -0.2316  0.3022
 8041SOL     OW31929   5.813   5.286   5.195  0.2889  0.3041  0.2464
 8041SOL    HW231930   5.798   5.214   5.134 -0.8934 -0.2735  1.1698
 8041SOL    HW331931   5.882   5.337   5.155  0.6951 -0.9750 -0.7681
 8041SOL    MW431932   5.820   5.283   5.181  0.1865  0.0591  0.2344
 8042SOL     OW31933   2.566   0.659   1.810 -0.6258 -0.3081  0.1289
 8042SOL    HW231934   2.620   0.633   1.884  1.3166  0.4454 -0.9571
 8042SOL    HW331935   2.476   0.648   1.841  0.1199 -0.6863  2.3281
 8042SOL    MW431936   2.561   0.654   1.824 -0.2711 -0.2586  0.2758
 8043SOL     OW31937   2.724   0.593   4.525 -0.1308 -0.0762  0.0187
 8043SOL    HW231938   2.703   0.576   4.433 -0.9512 -0.0439  0.1848
 8043SOL    HW331939   2.658   0.543   4.573  1.2087 -1.3021  0.6321
 8043SOL    MW431940   2.712   0.584   4.519 -0.0623 -0.2337  0.1215
 8044SOL     OW31941   1.216   2.841   5.941 -0.0095 -0.3061 -0.3399
 8044SOL    HW231942   1.290   2.883   5.984 -0.8161  2.1854 -1.2375
 8044SOL    HW331943   1.253   2.799   5.864  0.4494  1.4443 -1.1216
 8044SOL    MW431944   1.230   2.841   5.937 -0.0554  0.2536 -0.5615
 8045SOL     OW31945   1.307   3.733   5.669  0.2114 -0.3145 -0.0089
 8045SOL    HW231946   1.335   3.824   5.675  2.0546 -0.8925  1.1108
 8045SOL    HW331947   1.231   3.727   5.728 -2.0569  1.1429 -2.5856
 8045SOL    MW431948   1.301   3.744   5.678  0.1553 -0.1985 -0.2011
 8046SOL     OW31949   5.485   2.707   4.590  0.7561  0.4358 -0.4279
 8046SOL    HW231950   5.405   2.755   4.569 -0.5715 -0.6169  1.8786
 8046SOL    HW331951   5.456   2.617   4.605  2.5506 -0.2153 -0.5637
 8046SOL    MW431952   5.471   2.702   4.589  0.8177  0.2110 -0.1415
 8047SOL     OW31953   4.110   3.366   5.165  0.1192  0.0464 -0.1904
 8047SOL    HW231954   4.074   3.285   5.130  0.6398 -0.2824  0.0122
 8047SOL    HW331955   4.194   3.340   5.203  1.0067  0.9449 -1.4687
 8047SOL    MW431956   4.117   3.352   5.166  0.3050  0.1216 -0.3323
 8048SOL     OW31957   2.442   3.700   5.548  0.3669 -0.2378  0.1405
 8048SOL    HW231958   2.374   3.673   5.486 -0.6184 -0.4947  1.3170
 8048SOL    HW331959   2.411   3.783   5.583  1.1019  0.0880  0.0417
 8048SOL    MW431960   2.429   3.707   5.544  0.3339 -0.2287  0.2827
 8049SOL     OW31961   1.227   4.585   4.499 -0.3138  0.2826 -0.3860
 8049SOL    HW231962   1.184   4.547   4.575 -2.3548 -0.2318 -1.7286
 8049SOL    HW331963   1.240   4.511   4.439  0.2475  0.8602 -0.9940
 8049SOL    MW431964   1.223   4.570   4.501 -0.5090  0.2909 -0.6434
 8050SOL     OW31965   0.108   4.650   3.303  0.1896  0.2517 -0.5451
 8050SOL    HW231966   0.112   4.680   3.212 -0.0509  0.3104 -0.5370
 8050SOL    HW331967   0.036   4.699   3.341 -0.0541 -0.1641 -0.4691
 8050SOL    MW431968   0.099   4.660   3.296  0.1257  0.2046 -0.5340
 8051SOL     OW31969   6.008   5.948   3.742  0.5863 -0.1827 -0.4456
 8051SOL    HW231970   5.948   5.945   3.816  0.0733  1.7627 -0.7381
 8051SOL    HW331971   6.040   5.858   3.734 -0.7553 -0.8314  0.9562
 8051SOL    MW431972   6.004   5.936   3.751  0.3416 -0.0116 -0.2992
 8052SOL     OW31973   2.801   2.709   2.620 -0.6640 -0.1886 -0.6672
 8052SOL    HW231974   2.809   2.797   2.585 -2.5688 -0.3785 -1.7367
 8052SOL    HW331975   2.779   2.721   2.713  1.7504  0.3696 -0.1161
 8052SOL    MW431976   2.799   2.722   2.628 -0.5967 -0.1400 -0.7356
 8053SOL     OW31977   3.412   1.982   4.245  0.3478  0.3073 -0.0480
 8053SOL    HW231978   3.401   2.076   4.262  0.7856  0.2285  0.7149
 8053SOL    HW331979   3.345   1.940   4.299  1.3447  0.0906  1.0770
 8053SOL    MW431980   3.402   1.989   4.255  0.5371  0.2683  0.2011
 8054SOL     OW31981   3.790   4.670   6.364  0.5562 -0.3457  0.1373
 8054SOL    HW231982   3.742   4.670   6.447  0.8686 -0.1302  0.3193
 8054SOL    HW331983   3.750   4.599   6.313 -1.0072  0.8051 -0.3268
 8054SOL    MW431984   3.778   4.661   6.368  0.3912 -0.1655  0.1001
 8055SOL     OW31985   6.335   5.681   1.368 -0.3590  0.1874 -0.1035
 8055SOL    HW231986   6.350   5.674   1.462  0.3252 -0.6950 -0.2674
 8055SOL    HW331987   6.241   5.669   1.357 -0.3422 -0.4327  0.4030
 8055SOL    MW431988   6.325   5.679   1.379 -0.2665 -0.0108 -0.0583
 8056SOL     OW31989   6.072   2.862   2.696 -0.0321 -0.1779  0.0036
 8056SOL    HW231990   6.152   2.844   2.647 -0.6577  1.1668 -1.6069
 8056SOL    HW331991   6.063   2.788   2.756  2.0522 -0.6774 -0.2280
 8056SOL    MW431992   6.081   2.850   2.697  0.1604 -0.0664 -0.2395
 8057SOL     OW31993   1.130   3.071   4.947 -0.1030 -0.1444  0.6577
 8057SOL    HW231994   1.046   3.114   4.964  0.5035  0.9200  1.0937
 8057SOL    HW331995   1.132   3.060   4.852 -0.5641  0.1867  0.6058
 8057SOL    MW431996   1.119   3.075   4.937 -0.0838  0.0397  0.7084
 8058SOL     OW31997   1.234   5.377   1.077 -0.6788  0.7575  0.1217
 8058SOL    HW231998   1.170   5.439   1.111 -0.6772  0.7065  0.2182
 8058SOL    HW331999   1.312   5.391   1.131 -1.3344 -0.7718  1.5462
 8058SOL    MW432000   1.236   5.387   1.089 -0.7651  0.5490  0.3224
 8059SOL     OW32001   0.004   2.522   6.216  0.0046 -0.0013  0.0431
 8059SOL    HW232002  -0.040   2.439   6.198  0.1586 -0.4238  1.5535
 8059SOL    HW332003   0.085   2.498   6.261  0.1053  0.9608  0.4009
 8059SOL    MW432004   0.009   2.508   6.219  0.0382  0.0699  0.2896
 8060SOL     OW32005   1.065   4.393   5.406  0.4829  0.0723 -0.5429
 8060SOL    HW232006   1.066   4.332   5.332  0.8866  1.9230 -2.1482
 8060SOL    HW332007   1.003   4.462   5.380 -2.7684 -1.2711  2.7285
 8060SOL    MW432008   1.057   4.394   5.393  0.1072  0.1392 -0.3231
 8061SOL     OW32009   2.246   2.241   4.936  0.1024  0.8002 -0.2912
 8061SOL    HW232010   2.202   2.165   4.897 -2.2145  1.1032  1.4618
 8061SOL    HW332011   2.332   2.208   4.962 -1.1768 -1.6519  1.3600
 8061SOL    MW432012   2.251   2.227   4.935 -0.3721  0.5166  0.1579
 8062SOL     OW32013   2.777   1.776   2.945 -0.1467 -0.1022  0.7460
 8062SOL    HW232014   2.772   1.738   3.033 -1.1423 -1.2085  0.2322
 8062SOL    HW332015   2.777   1.701   2.886  1.1222  0.6112 -0.2016
 8062SOL    MW432016   2.777   1.761   2.949 -0.1106 -0.1541  0.5532
 8063SOL     OW32017   5.931   5.454   1.148 -0.5615  0.2812 -0.4485
 8063SOL    HW232018   5.920   5.359   1.137  0.9711  0.1087 -0.7621
 8063SOL    HW332019   5.843   5.486   1.169 -0.7005 -1.5835  2.4836
 8063SOL    MW432020   5.918   5.445   1.150 -0.3776  0.0124 -0.1030
 8064SOL     OW32021   1.481   4.480   6.279  0.2285 -0.3251 -0.0602
 8064SOL    HW232022   1.465   4.399   6.328  1.3636 -1.9711 -2.2048
 8064SOL    HW332023   1.464   4.550   6.342 -1.2633 -2.1886  1.7692
 8064SOL    MW432024   1.477   4.479   6.294  0.1815 -0.7881 -0.1018
 8065SOL     OW32025   3.051   0.680   5.307 -0.2945  0.1038 -0.1538
 8065SOL    HW232026   3.097   0.637   5.235 -1.8666 -0.7562 -0.7135
 8065SOL    HW332027   2.978   0.621   5.327  0.4729 -0.0327  2.6418
 8065SOL    MW432028   3.047   0.666   5.300 -0.4007 -0.0277  0.1412
 8066SOL     OW32029   0.469   5.648   5.190  0.7161 -0.3444  0.5915
 8066SOL    HW232030   0.550   5.619   5.147 -0.5225 -0.6609 -1.7135
 8066SOL    HW332031   0.452   5.734   5.152 -0.1325 -0.3752  0.8861
 8066SOL    MW432032   0.477   5.656   5.179  0.4407 -0.3902  0.3263
 8067SOL     OW32033   1.319   3.345   1.768  0.0905 -0.8953 -0.3100
 8067SOL    HW232034   1.341   3.338   1.675  0.0995 -2.1098 -0.2332
 8067SOL    HW332035   1.234   3.302   1.776 -1.2350  1.5752 -0.1860
 8067SOL    MW432036   1.310   3.338   1.757 -0.0832 -0.7296 -0.2835
 8068SOL     OW32037   2.936   5.561   6.366  0.3627  0.2625 -0.2218
 8068SOL    HW232038   2.984   5.529   6.289 -0.5604  0.0215 -0.7151
 8068SOL    HW332039   2.845   5.533   6.350  0.0590  0.7194  0.6805
 8068SOL    MW432040   2.930   5.553   6.353  0.2008  0.2910 -0.1678
 8069SOL     OW32041   1.838   1.672   1.636 -0.1982  0.2427  0.4455
 8069SOL    HW232042   1.763   1.726   1.610 -2.2708 -2.3807  0.5277
 8069SOL    HW332043   1.899   1.680   1.563 -0.2175  2.9108  0.6276
 8069SOL    MW432044   1.836   1.680   1.623 -0.4742  0.2486  0.4803
 8070SOL     OW32045   2.868   4.668   4.252  0.8798 -0.1826  0.0451
 8070SOL    HW232046   2.775   4.683   4.237  0.7590 -0.6907  0.2436
 8070SOL    HW332047   2.908   4.679   4.165  0.6831  0.3497  0.0197
 8070SOL    MW432048   2.861   4.671   4.238  0.8379 -0.1794  0.0679
 8071SOL     OW32049   6.418   5.155   3.191  0.5356  0.0017 -0.0473
 8071SOL    HW232050   6.373   5.082   3.149  0.1757  0.0073  0.3192
 8071SOL    HW332051   6.458   5.204   3.119 -1.0594  0.6894 -0.4988
 8071SOL    MW432052   6.417   5.151   3.176  0.2777  0.0931 -0.0585
 8072SOL     OW32053   5.260   1.651   6.416  0.0114 -0.1147 -0.0549
 8072SOL    HW232054   5.341   1.670   6.463  0.1129  1.3029 -0.7526
 8072SOL    HW332055   5.260   1.556   6.407  0.5414 -0.3234  1.7873
 8072SOL    MW432056   5.271   1.641   6.421  0.0948  0.0448  0.0961
 8073SOL     OW32057   5.228   2.744   0.361  0.0447 -0.4321  0.1081
 8073SOL    HW232058   5.272   2.812   0.310  0.1453  1.3597  2.4518
 8073SOL    HW332059   5.140   2.740   0.324 -0.2258  1.6091  0.4154
 8073SOL    MW432060   5.222   2.752   0.349  0.0223  0.0736  0.4579
 8074SOL     OW32061   2.202   1.493   1.422  0.1427 -0.1420 -0.0728
 8074SOL    HW232062   2.157   1.572   1.390  0.8669  0.0163 -0.7255
 8074SOL    HW332063   2.290   1.523   1.445 -0.1121 -0.4265  1.3340
 8074SOL    MW432064   2.207   1.508   1.421  0.2046 -0.1587  0.0267
 8075SOL     OW32065   1.912   3.880   1.941 -0.0383  0.1200 -0.0765
 8075SOL    HW232066   1.871   3.927   1.868 -0.2877 -0.6436 -0.4326
 8075SOL    HW332067   1.883   3.928   2.019  0.5256  1.1669 -0.4836
 8075SOL    MW432068   1.902   3.893   1.941  0.0032  0.1574 -0.1772
 8076SOL     OW32069   0.488   2.061   1.493  0.2912  0.3684 -0.3658
 8076SOL    HW232070   0.431   2.053   1.570 -0.7080 -0.5658 -1.1759
 8076SOL    HW332071   0.454   2.138   1.446 -0.5281 -0.3683 -1.0079
 8076SOL    MW432072   0.476   2.070   1.497  0.0513  0.1479 -0.5574
 8077SOL     OW32073   2.067   5.836   5.526 -0.1980 -0.3200 -0.5480
 8077SOL    HW232074   2.046   5.763   5.467 -1.6682  0.1712 -0.6719
 8077SOL    HW332075   2.028   5.912   5.484  0.2043  0.3306  0.2334
 8077SOL    MW432076   2.059   5.836   5.512 -0.3389 -0.1693 -0.4613
 8078SOL     OW32077   4.351   3.673   4.867 -0.0761 -0.1351  1.0399
 8078SOL    HW232078   4.443   3.680   4.841 -0.0711 -1.8881  0.4965
 8078SOL    HW332079   4.333   3.756   4.912  1.5039  0.6149  0.3738
 8078SOL    MW432080   4.360   3.685   4.870  0.1330 -0.2675  0.8803
 8079SOL     OW32081   2.376   3.527   5.194 -0.0875  0.0523  0.0702
 8079SOL    HW232082   2.318   3.453   5.174 -0.4301  0.4064 -0.2652
 8079SOL    HW332083   2.453   3.487   5.233  1.2680 -0.8808 -3.2540
 8079SOL    MW432084   2.378   3.512   5.196  0.0461 -0.0241 -0.4126
 8080SOL     OW32085   3.413   4.171   5.275 -0.1592 -0.1358  0.0573
 8080SOL    HW232086   3.379   4.252   5.236 -0.1650  0.1313  0.6117
 8080SOL    HW332087   3.340   4.136   5.326 -0.7693 -1.4652 -1.6066
 8080SOL    MW432088   3.399   4.177   5.277 -0.2404 -0.2759 -0.0891
 8081SOL     OW32089   5.002   0.905   0.017  0.5442 -0.1867  0.4098
 8081SOL    HW232090   5.003   0.946   0.104  0.2980 -0.9512  0.7887
 8081SOL    HW332091   4.981   0.813   0.035  0.8511 -0.4271 -0.4331
 8081SOL    MW432092   4.999   0.898   0.031  0.5522 -0.3193  0.3486
 8082SOL     OW32093   2.268   2.368   1.061  0.2327  0.4262  0.4702
 8082SOL    HW232094   2.265   2.462   1.041  3.2655 -0.0407 -3.5465
 8082SOL    HW332095   2.347   2.357   1.114 -0.3475  0.1017  1.3030
 8082SOL    MW432096   2.278   2.379   1.065  0.5563  0.3218  0.0501
 8083SOL     OW32097   3.886   4.795   4.353  0.0585 -0.5701 -0.2109
 8083SOL    HW232098   3.914   4.882   4.382 -1.0634 -0.1535 -0.3482
 8083SOL    HW332099   3.958   4.738   4.378  0.9585  0.4451 -0.4100
 8083SOL    MW432100   3.899   4.799   4.360  0.0292 -0.3812 -0.2553
 8084SOL     OW32101   3.455   5.683   3.117 -0.6163  0.1286  0.0997
 8084SOL    HW232102   3.415   5.597   3.123 -0.5573 -0.0336 -1.4540
 8084SOL    HW332103   3.548   5.666   3.106 -0.5057  0.4273  0.5108
 8084SOL    MW432104   3.462   5.670   3.117 -0.5939  0.1466 -0.0511
 8085SOL     OW32105   6.134   4.185   0.335  0.6501  0.1179  0.3027
 8085SOL    HW232106   6.135   4.185   0.431  0.7790 -0.9481  0.3077
 8085SOL    HW332107   6.223   4.160   0.310  0.6256  0.4184 -0.0988
 8085SOL    MW432108   6.146   4.182   0.345  0.6639  0.0169  0.2504
 8086SOL     OW32109   3.136   5.533   2.208 -0.4262 -0.1429  0.2484
 8086SOL    HW232110   3.046   5.563   2.195 -0.1998  0.7079  0.6013
 8086SOL    HW332111   3.126   5.443   2.239 -1.2232  0.3423  1.5000
 8086SOL    MW432112   3.123   5.525   2.211 -0.5015  0.0333  0.4601
 8087SOL     OW32113   3.583   4.635   1.873 -0.0411  0.6330  0.6497
 8087SOL    HW232114   3.559   4.722   1.841 -0.0790 -0.1568 -1.6026
 8087SOL    HW332115   3.625   4.592   1.798 -2.5128 -2.2689  0.7394
 8087SOL    MW432116   3.585   4.641   1.859 -0.3722  0.1459  0.3644
 8088SOL     OW32117   6.021   3.897   4.336  0.2756 -0.0358 -0.3439
 8088SOL    HW232118   6.015   3.874   4.243 -0.8025 -2.1469  0.1789
 8088SOL    HW332119   5.946   3.854   4.376  0.8844  0.5878  1.5620
 8088SOL    MW432120   6.010   3.888   4.329  0.2137 -0.2321 -0.0235
 8089SOL     OW32121   1.582   6.272   0.002 -0.1091  0.6546  0.1119
 8089SOL    HW232122   1.658   6.214  -0.007  0.1075  1.0490 -0.6843
 8089SOL    HW332123   1.522   6.224   0.058  0.8891  0.4928  1.0893
 8089SOL    MW432124   1.584   6.258   0.008  0.0512  0.6853  0.1358
 8090SOL     OW32125   0.492   4.355   2.169  0.4833  0.2588  0.3066
 8090SOL    HW232126   0.495   4.401   2.252  1.0104 -0.0893  0.4845
 8090SOL    HW332127   0.415   4.391   2.124  1.1643  1.6922  0.2160
 8090SOL    MW432128   0.482   4.366   2.174  0.6427  0.4020  0.3181
 8091SOL     OW32129   5.881   4.646   4.997  0.5487  0.2917 -0.0970
 8091SOL    HW232130   5.801   4.677   5.040  0.8314  0.6860  0.1634
 8091SOL    HW332131   5.879   4.551   5.008 -0.4161  0.1881 -1.0426
 8091SOL    MW432132   5.870   4.638   5.004  0.4587  0.3301 -0.1874
 8092SOL     OW32133   3.365   3.974   5.798  0.1262  0.0176  0.5820
 8092SOL    HW232134   3.284   3.974   5.849 -1.6486  0.6049 -2.0338
 8092SOL    HW332135   3.376   4.065   5.769  3.4975  0.6811  3.2962
 8092SOL    MW432136   3.356   3.986   5.800  0.3368  0.1826  0.5950
 8093SOL     OW32137   0.441   0.871   3.016 -0.0934 -0.4018  0.5597
 8093SOL    HW232138   0.402   0.784   3.004 -0.4508 -0.3161  1.0901
 8093SOL    HW332139   0.535   0.854   3.019 -0.1034 -0.6650 -0.2365
 8093SOL    MW432140   0.448   0.857   3.015 -0.1419 -0.4252  0.5246
 8094SOL     OW32141   1.314   0.771   2.953  0.1540 -0.3940  0.2820
 8094SOL    HW232142   1.362   0.709   3.007  0.6125 -0.6976 -0.4529
 8094SOL    HW332143   1.223   0.762   2.979  0.0965 -1.9846 -0.3796
 8094SOL    MW432144   1.308   0.762   2.963  0.2069 -0.6440  0.0978
 8095SOL     OW32145   0.351   3.539   6.300  0.4689  0.0359 -0.2621
 8095SOL    HW232146   0.277   3.548   6.240  0.6811 -0.8908 -0.6755
 8095SOL    HW332147   0.372   3.629   6.326 -1.7327  0.2431  1.0258
 8095SOL    MW432148   0.344   3.552   6.295  0.2065 -0.0590 -0.1467
 8096SOL     OW32149   4.000   5.882   4.704  0.0846  0.5193  0.5183
 8096SOL    HW232150   3.937   5.933   4.755 -0.4628  0.3225  0.0443
 8096SOL    HW332151   3.946   5.832   4.642  0.5717 -1.0845  1.3564
 8096SOL    MW432152   3.984   5.882   4.702  0.0766  0.2817  0.5664
 8097SOL     OW32153   3.534   2.195   3.219  0.9043  0.1287  0.1820
 8097SOL    HW232154   3.456   2.230   3.262  2.5777  2.3828  1.6228
 8097SOL    HW332155   3.506   2.181   3.128 -0.8218  2.2988  0.2838
 8097SOL    MW432156   3.520   2.198   3.212  0.8974  0.7124  0.3855
 8098SOL     OW32157   2.913   5.572   4.048 -0.0689 -0.3688  0.6242
 8098SOL    HW232158   2.980   5.638   4.030  1.0087 -1.6023 -0.0372
 8098SOL    HW332159   2.853   5.578   3.973  0.9977 -1.2934 -0.3384
 8098SOL    MW432160   2.914   5.582   4.035  0.2140 -0.6536  0.4099
 8099SOL     OW32161   1.543   5.681   3.605 -0.0608 -0.1514  1.0895
 8099SOL    HW232162   1.554   5.626   3.682 -1.6079 -0.5614  1.0614
 8099SOL    HW332163   1.511   5.764   3.639  2.0962  0.7102  1.1158
 8099SOL    MW432164   1.540   5.685   3.619  0.0197 -0.0918  1.0893
 8100SOL     OW32165   0.494   3.983   1.462  0.3335 -0.1675  0.0366
 8100SOL    HW232166   0.479   4.067   1.505 -0.2806 -0.0775 -0.3603
 8100SOL    HW332167   0.409   3.939   1.464  0.8848 -1.2674  1.2707
 8100SOL    MW432168   0.481   3.988   1.468  0.3252 -0.3008  0.1470
 8101SOL     OW32169   0.948   4.997   6.065 -0.2778  0.3296  0.3099
 8101SOL    HW232170   0.983   5.085   6.050 -0.9444  0.5379 -0.0496
 8101SOL    HW332171   1.003   4.940   6.012 -0.6491  0.6858 -0.4634
 8101SOL    MW432172   0.960   5.001   6.056 -0.4147  0.4041  0.1604
 8102SOL     OW32173   2.120   1.807   6.411 -0.4258 -0.0169 -0.1226
 8102SOL    HW232174   2.211   1.831   6.396 -0.5293 -1.0896 -3.1677
 8102SOL    HW332175   2.124   1.720   6.451 -0.1194  0.1964  0.3160
 8102SOL    MW432176   2.132   1.799   6.414 -0.3991 -0.1303 -0.4665
 8103SOL     OW32177   4.482   2.039   0.900  0.3164  0.8117  0.1904
 8103SOL    HW232178   4.546   2.109   0.893  1.2565 -0.1468 -1.4802
 8103SOL    HW332179   4.529   1.968   0.943  0.0126  0.5038  0.0240
 8103SOL    MW432180   4.496   2.038   0.905  0.4004  0.6446 -0.0520
 8104SOL     OW32181   2.928   5.411   4.261 -0.1671 -0.0959 -0.3257
 8104SOL    HW232182   2.928   5.451   4.348 -2.9061  0.3601 -0.4275
 8104SOL    HW332183   2.900   5.482   4.203 -0.8270 -1.0152 -1.1681
 8104SOL    MW432184   2.924   5.426   4.265 -0.6156 -0.1571 -0.4503
 8105SOL     OW32185   1.605   5.135   2.987  0.2330 -0.0423  0.3236
 8105SOL    HW232186   1.692   5.175   2.980  0.1695 -0.0983 -1.0619
 8105SOL    HW332187   1.545   5.201   2.954  0.0104 -0.8123 -0.8920
 8105SOL    MW432188   1.609   5.149   2.982  0.1953 -0.1513 -0.0196
 8106SOL     OW32189   5.803   1.633   0.520 -0.1046 -0.3150  0.0625
 8106SOL    HW232190   5.883   1.640   0.468 -0.1779 -0.0422 -0.0188
 8106SOL    HW332191   5.748   1.704   0.488 -0.0646 -0.0077  0.6653
 8106SOL    MW432192   5.807   1.643   0.509 -0.1090 -0.2384  0.1313
 8107SOL     OW32193   5.432   6.025   2.400  0.3399  0.5303 -0.1671
 8107SOL    HW232194   5.443   6.112   2.438 -1.9572  0.5746  0.5920
 8107SOL    HW332195   5.339   6.022   2.376  1.0398 -0.6038 -3.0897
 8107SOL    MW432196   5.421   6.036   2.402  0.1291  0.3865 -0.4526
 8108SOL     OW32197   3.312   0.316   6.303 -0.2957 -0.0909 -0.3114
 8108SOL    HW232198   3.380   0.382   6.314 -0.1064 -0.3118 -0.1509
 8108SOL    HW332199   3.234   0.356   6.341  0.0148 -0.2908  0.5696
 8108SOL    MW432200   3.311   0.330   6.309 -0.2297 -0.1464 -0.1740
 8109SOL     OW32201   4.956   5.182   0.876  0.3240 -0.5625  0.6926
 8109SOL    HW232202   4.935   5.089   0.868 -0.7804 -0.1678 -3.2233
 8109SOL    HW332203   5.052   5.185   0.878  0.3795 -1.8003  0.3887
 8109SOL    MW432204   4.966   5.170   0.875  0.1856 -0.6738  0.1358
 8110SOL     OW32205   4.966   3.544   1.240  0.3978  0.0075  0.2053
 8110SOL    HW232206   4.953   3.605   1.167 -0.8495  1.8345  1.8728
 8110SOL    HW332207   5.058   3.518   1.233  0.8416  1.7135 -0.8490
 8110SOL    MW432208   4.977   3.549   1.229  0.2918  0.4736  0.2862
 8111SOL     OW32209   1.087   4.894   6.333  0.5903 -0.6240 -0.0705
 8111SOL    HW232210   1.176   4.902   6.298  0.5233  2.2906  0.1747
 8111SOL    HW332211   1.030   4.918   6.260  0.3366  2.5244  0.9758
 8111SOL    MW432212   1.091   4.899   6.319  0.5480  0.1759  0.0999
 8112SOL     OW32213   5.861   3.770   3.241  0.4371  0.1041 -0.4010
 8112SOL    HW232214   5.911   3.689   3.247  1.0598  0.6052  1.6639
 8112SOL    HW332215   5.869   3.811   3.327  0.1350  2.3785 -1.3811
 8112SOL    MW432216   5.869   3.764   3.253  0.4794  0.4703 -0.2579
 8113SOL     OW32217   6.099   3.582   1.977  0.3206  0.1611 -0.3727
 8113SOL    HW232218   6.119   3.605   2.068  0.0753  1.2766 -0.5929
 8113SOL    HW332219   6.048   3.501   1.984  2.3785 -1.1645  0.3460
 8113SOL    MW432220   6.095   3.575   1.990  0.5598  0.1334 -0.3069
 8114SOL     OW32221   2.122   2.626   0.750  0.1935 -0.2933 -0.4755
 8114SOL    HW232222   2.160   2.629   0.838  0.0306 -1.0938 -0.3758
 8114SOL    HW332223   2.175   2.688   0.700 -0.5557  1.1991  0.5007
 8114SOL    MW432224   2.134   2.635   0.755  0.0732 -0.2020 -0.3335
 8115SOL     OW32225   6.217   0.324   2.737  0.4438  0.4562  0.5740
 8115SOL    HW232226   6.180   0.270   2.806 -1.7464  0.3037 -0.6214
 8115SOL    HW332227   6.297   0.278   2.711  0.8240  0.0464  2.3665
 8115SOL    MW432228   6.223   0.311   2.743  0.2050  0.3820  0.6528
 8116SOL     OW32229   1.136   2.067   3.944 -0.0402 -0.3922 -0.0223
 8116SOL    HW232230   1.051   2.106   3.922 -0.3084 -1.0009 -0.0793
 8116SOL    HW332231   1.141   1.988   3.889  0.7536 -0.1278 -0.3439
 8116SOL    MW432232   1.126   2.062   3.934  0.0291 -0.4376 -0.0723
 8117SOL     OW32233   5.724   3.786   3.651 -0.0033 -0.5510  0.0620
 8117SOL    HW232234   5.718   3.875   3.687 -3.6828 -0.5381 -0.2128
 8117SOL    HW332235   5.775   3.797   3.571 -1.1877  1.6124 -0.5085
 8117SOL    MW432236   5.730   3.799   3.645 -0.6450 -0.2639 -0.0495
 8118SOL     OW32237   4.896   3.160   3.417 -0.1389  0.3930  0.3636
 8118SOL    HW232238   4.910   3.119   3.503  0.7455  0.8555  0.4608
 8118SOL    HW332239   4.807   3.194   3.421 -1.1336 -1.9464  0.0718
 8118SOL    MW432240   4.886   3.159   3.429 -0.1535  0.1454  0.3379
 8119SOL     OW32241   4.439   3.302   5.762  0.6550  0.0842  0.3164
 8119SOL    HW232242   4.389   3.345   5.831  1.7847  0.6926  0.7694
 8119SOL    HW332243   4.404   3.340   5.681  1.1660  1.3710  0.6808
 8119SOL    MW432244   4.428   3.313   5.760  0.8715  0.3342  0.4242
 8120SOL     OW32245   0.421   2.508   0.598 -0.0827  0.0683  0.1406
 8120SOL    HW232246   0.463   2.473   0.519  0.7193 -1.3764  1.1593
 8120SOL    HW332247   0.414   2.602   0.581  2.1294  0.1446 -0.7700
 8120SOL    MW432248   0.426   2.516   0.585  0.3150 -0.1122  0.1549
 8121SOL     OW32249   6.346   0.295   1.939  0.0418  0.0377 -0.7110
 8121SOL    HW232250   6.403   0.360   1.981 -0.6817 -0.4817  1.1619
 8121SOL    HW332251   6.401   0.218   1.927  0.9746  0.9928 -3.1637
 8121SOL    MW432252   6.361   0.294   1.943  0.0694  0.0951 -0.7875
 8122SOL     OW32253   4.711   5.150   5.221  0.1365 -0.3578  0.2127
 8122SOL    HW232254   4.699   5.218   5.288 -1.5340 -0.2534 -0.1499
 8122SOL    HW332255   4.746   5.197   5.145 -1.2101  0.1664 -0.1078
 8122SOL    MW432256   4.714   5.165   5.220 -0.2616 -0.2749  0.1226
 8123SOL     OW32257   5.330   0.792   2.939 -0.7743  0.3501  0.0254
 8123SOL    HW232258   5.331   0.813   3.033  1.8268 -1.3483  0.4656
 8123SOL    HW332259   5.417   0.817   2.907 -1.8572  1.6125 -2.1786
 8123SOL    MW432260   5.341   0.798   2.947 -0.5740  0.2926 -0.2073
 8124SOL     OW32261   4.116   5.067   2.699 -0.4720 -0.8459 -0.3341
 8124SOL    HW232262   4.082   5.118   2.625  1.3808  3.5014  1.4780
 8124SOL    HW332263   4.051   5.080   2.768  0.5377  0.0502  0.4705
 8124SOL    MW432264   4.103   5.075   2.698 -0.0943 -0.1541  0.0111
 8125SOL     OW32265   2.496   1.984   2.138 -0.2730  0.0708  1.0506
 8125SOL    HW232266   2.428   2.007   2.074  1.5352  1.4653 -0.5032
 8125SOL    HW332267   2.496   2.057   2.200 -1.2595 -0.7368  2.0447
 8125SOL    MW432268   2.487   1.997   2.138 -0.1646  0.1483  0.9768
 8126SOL     OW32269   1.206   4.933   2.827  0.1141 -0.2988  0.1047
 8126SOL    HW232270   1.199   4.886   2.744  2.0704  0.5820 -0.6338
 8126SOL    HW332271   1.235   5.021   2.803  0.2612  0.1279  1.6893
 8126SOL    MW432272   1.209   4.938   2.813  0.3916 -0.1263  0.2163
 8127SOL     OW32273   1.122   4.182   3.149  0.0623 -0.5499 -0.1758
 8127SOL    HW232274   1.146   4.170   3.057  2.7468  0.3748  0.3307
 8127SOL    HW332275   1.044   4.238   3.145  2.7722  3.6596 -2.0037
 8127SOL    MW432276   1.115   4.188   3.136  0.7740  0.1275 -0.3501
 8128SOL     OW32277   2.414   2.958   5.839  0.2591 -0.0307  0.7489
 8128SOL    HW232278   2.441   3.030   5.782  0.0610 -0.2090  0.4275
 8128SOL    HW332279   2.491   2.941   5.894  0.8271 -0.5474 -0.1708
 8128SOL    MW432280   2.428   2.965   5.839  0.3079 -0.1224  0.5852
 8129SOL     OW32281   5.899   5.818   6.154  0.5056 -0.1288  0.2046
 8129SOL    HW232282   5.901   5.733   6.197 -1.7116 -0.4311 -0.1741
 8129SOL    HW332283   5.833   5.808   6.085 -0.0064  1.9575  0.3307
 8129SOL    MW432284   5.891   5.806   6.150  0.1455  0.1066  0.1712
 8130SOL     OW32285   3.334   5.757   5.903  0.0596  0.0456  0.4324
 8130SOL    HW232286   3.295   5.737   5.818  1.2839  1.8928 -0.6292
 8130SOL    HW332287   3.372   5.673   5.932 -0.6932 -0.6934 -0.6458
 8130SOL    MW432288   3.334   5.743   5.895  0.1218  0.1918  0.1501
 8131SOL     OW32289   6.407   6.446   0.789  0.1731  0.5530 -0.1324
 8131SOL    HW232290   6.469   6.501   0.740  1.9604  0.1151  1.5264
 8131SOL    HW332291   6.430   6.356   0.764 -0.4672  0.4082 -0.2295
 8131SOL    MW432292   6.418   6.441   0.779  0.3244  0.4762  0.0737
 8132SOL     OW32293   4.798   1.191   0.573  0.0319 -0.3199  0.3112
 8132SOL    HW232294   4.779   1.212   0.664  0.3217 -0.3009  0.3684
 8132SOL    HW332295   4.809   1.096   0.571  1.3422 -0.1963  0.5527
 8132SOL    MW432296   4.797   1.181   0.585  0.2430 -0.3011  0.3506
 8133SOL     OW32297   3.862   0.315   5.297  0.2120 -0.3101  0.6549
 8133SOL    HW232298   3.924   0.246   5.322  0.7871  0.4494  1.3739
 8133SOL    HW332299   3.853   0.369   5.375 -0.2301  0.4354  0.0993
 8133SOL    MW432300   3.869   0.313   5.310  0.2296 -0.1115  0.6765
 8134SOL     OW32301   5.979   0.579   3.912  0.3419 -0.7314 -0.0628
 8134SOL    HW232302   6.065   0.557   3.947  0.4200  1.2784  1.1363
 8134SOL    HW332303   5.971   0.674   3.924 -1.5748 -0.6866 -1.2167
 8134SOL    MW432304   5.989   0.589   3.918  0.0993 -0.4603 -0.0569
 8135SOL     OW32305   5.120   3.367   5.928  0.2255  0.9691  0.0599
 8135SOL    HW232306   5.156   3.383   5.842 -2.1234  2.2612 -0.7899
 8135SOL    HW332307   5.164   3.288   5.959 -0.1135 -0.6204 -3.0941
 8135SOL    MW432308   5.130   3.359   5.921 -0.1291  0.9298 -0.4683
 8136SOL     OW32309   2.850   6.248   5.770 -0.4303  0.2842  0.3955
 8136SOL    HW232310   2.784   6.252   5.840 -0.7602 -1.2670  0.2126
 8136SOL    HW332311   2.807   6.289   5.695 -1.9168 -2.2257 -0.2270
 8136SOL    MW432312   2.835   6.254   5.769 -0.6699 -0.2516  0.2892
 8137SOL     OW32313   3.388   6.282   2.054 -0.7745 -0.0168 -0.6011
 8137SOL    HW232314   3.416   6.354   1.998 -0.1461  0.3946  0.2215
 8137SOL    HW332315   3.372   6.210   1.994 -2.0026  0.9692 -1.5103
 8137SOL    MW432316   3.390   6.282   2.039 -0.8537  0.1675 -0.6126
 8138SOL     OW32317   1.801   0.468   1.061  0.4696  0.5063  0.2333
 8138SOL    HW232318   1.712   0.487   1.090  0.8803  0.2206  1.7583
 8138SOL    HW332319   1.856   0.487   1.137  1.5882 -0.4770 -0.2950
 8138SOL    MW432320   1.797   0.473   1.075  0.6714  0.3389  0.3648
 8139SOL     OW32321   1.028   6.233   6.136 -0.1393 -0.2293  0.2324
 8139SOL    HW232322   1.039   6.308   6.194 -2.0673  0.0086  0.3477
 8139SOL    HW332323   0.954   6.256   6.080  0.5948 -1.1766 -1.1951
 8139SOL    MW432324   1.020   6.246   6.136 -0.2968 -0.3229  0.0593
 8140SOL     OW32325   0.741   4.682   6.028 -0.1923 -0.3649 -0.3059
 8140SOL    HW232326   0.721   4.601   5.981  1.5126 -1.5580  0.9064
 8140SOL    HW332327   0.774   4.742   5.961  2.2041 -2.0279 -0.7536
 8140SOL    MW432328   0.743   4.679   6.013  0.3488 -0.7417 -0.2050
 8141SOL     OW32329   0.712   3.406   3.488 -0.1003  0.6202 -0.2798
 8141SOL    HW232330   0.807   3.416   3.493  0.0313  0.1127 -1.4567
 8141SOL    HW332331   0.684   3.400   3.579  0.7851  2.5251  0.1719
 8141SOL    MW432332   0.721   3.407   3.500  0.0339  0.8045 -0.3755
 8142SOL     OW32333   1.572   0.332   6.237 -0.2861 -0.0736 -0.8019
 8142SOL    HW232334   1.602   0.292   6.318 -0.6951  1.0422 -0.0823
 8142SOL    HW332335   1.483   0.362   6.256  0.0374  1.2574 -1.2758
 8142SOL    MW432336   1.564   0.331   6.250 -0.2974  0.2492 -0.7695
 8143SOL     OW32337   5.763   0.802   6.033 -0.7850  0.5572  0.2210
 8143SOL    HW232338   5.754   0.751   6.114  0.3376  1.5626  1.0146
 8143SOL    HW332339   5.708   0.755   5.970 -1.0057 -0.7528  1.3147
 8143SOL    MW432340   5.755   0.789   6.035 -0.6660  0.5170  0.4700
 8144SOL     OW32341   5.205   4.520   4.717  0.4904 -0.0421  0.1475
 8144SOL    HW232342   5.131   4.561   4.763  0.7240  0.6442 -0.0786
 8144SOL    HW332343   5.263   4.490   4.787  0.0714 -0.4558  0.3237
 8144SOL    MW432344   5.203   4.521   4.733  0.4660 -0.0061  0.1409
 8145SOL     OW32345   4.458   6.057   5.412 -0.3225  0.4035  0.2442
 8145SOL    HW232346   4.466   6.010   5.494 -2.8591 -1.0258 -0.2296
 8145SOL    HW332347   4.500   6.141   5.429 -2.5721  1.0495  3.7749
 8145SOL    MW432348   4.464   6.062   5.425 -0.9539  0.3002  0.6476
 8146SOL     OW32349   2.746   0.734   6.252  0.2272  0.2494  0.0901
 8146SOL    HW232350   2.670   0.735   6.310  2.2292  3.2920  3.0118
 8146SOL    HW332351   2.715   0.775   6.171 -1.6430 -0.2673  0.4883
 8146SOL    MW432352   2.732   0.740   6.249  0.2446  0.5827  0.5281
 8147SOL     OW32353   4.964   1.378   0.129  0.2430  0.7242  0.2664
 8147SOL    HW232354   4.945   1.354   0.219  0.4226 -1.7107 -0.2731
 8147SOL    HW332355   4.891   1.434   0.103 -0.0367  1.1005  1.7666
 8147SOL    MW432356   4.952   1.382   0.137  0.2298  0.4526  0.3932
 8148SOL     OW32357   0.430   3.645   1.298  0.1210  0.0848  0.3833
 8148SOL    HW232358   0.474   3.628   1.382  0.2449  0.2618  0.3566
 8148SOL    HW332359   0.377   3.567   1.282  0.7594 -0.3205  0.2049
 8148SOL    MW432360   0.429   3.633   1.307  0.2216  0.0547  0.3562
 8149SOL     OW32361   0.871   1.644   5.121  0.1687  0.4131  0.2808
 8149SOL    HW232362   0.957   1.661   5.160 -0.3627  0.7831  1.3430
 8149SOL    HW332363   0.812   1.700   5.171 -1.0862 -1.7356  1.3068
 8149SOL    MW432364   0.875   1.654   5.133 -0.0670  0.1784  0.5563
 8150SOL     OW32365   4.330   4.797   1.352  0.1414 -0.3106  0.2361
 8150SOL    HW232366   4.348   4.891   1.345 -2.5225  0.3391  0.8452
 8150SOL    HW332367   4.325   4.780   1.446 -1.7050 -0.4973  0.1370
 8150SOL    MW432368   4.331   4.807   1.364 -0.4537 -0.2495  0.3034
 8151SOL     OW32369   0.073   2.974   6.178  0.7052 -0.4679  0.2814
 8151SOL    HW232370   0.003   3.017   6.129  0.3157  0.1778  1.3706
 8151SOL    HW332371   0.140   2.955   6.112  0.1484  0.2586 -0.5204
 8151SOL    MW432372   0.073   2.977   6.163  0.5804 -0.2869  0.3193
 8152SOL     OW32373   0.095   4.838   1.557 -0.0842 -0.8226 -0.3598
 8152SOL    HW232374   0.128   4.885   1.634 -1.3164 -0.2210 -0.1886
 8152SOL    HW332375   0.052   4.760   1.594  0.5921 -1.2970 -0.5476
 8152SOL    MW432376   0.094   4.834   1.572 -0.1576 -0.8058 -0.3620
 8153SOL     OW32377   4.152   5.719   2.889  0.3849  0.2580  0.2423
 8153SOL    HW232378   4.114   5.653   2.830  0.1554  0.0038  0.6622
 8153SOL    HW332379   4.117   5.802   2.858  0.7057  0.1822 -0.3170
 8153SOL    MW432380   4.142   5.721   2.877  0.3970  0.2144  0.2239
 8154SOL     OW32381   5.341   2.769   3.231  0.1053 -0.2983  0.1452
 8154SOL    HW232382   5.359   2.675   3.229  0.2575 -0.2552 -0.6884
 8154SOL    HW332383   5.425   2.809   3.253 -0.1033 -0.3883  1.1472
 8154SOL    MW432384   5.354   2.762   3.234  0.0979 -0.3045  0.1674
 8155SOL     OW32385   0.656   4.896   3.569 -0.1219 -0.1041  0.2187
 8155SOL    HW232386   0.682   4.971   3.516  0.4462 -0.3940  0.0768
 8155SOL    HW332387   0.601   4.933   3.638 -0.4953  0.3345 -0.3080
 8155SOL    MW432388   0.653   4.911   3.571 -0.0962 -0.0845  0.1305
 8156SOL     OW32389   0.876   3.944   6.267 -0.3908  0.6542  0.0028
 8156SOL    HW232390   0.815   3.871   6.258 -0.8967  1.0776 -0.0749
 8156SOL    HW332391   0.886   3.978   6.178  3.1713 -1.9083 -0.8033
 8156SOL    MW432392   0.869   3.939   6.254  0.0124  0.3720 -0.1138
 8157SOL     OW32393   2.343   3.686   2.513 -0.1421 -0.0247 -0.0984
 8157SOL    HW232394   2.361   3.596   2.484  0.2971  0.2199 -0.6223
 8157SOL    HW332395   2.404   3.740   2.461  0.8181  0.4240  1.4155
 8157SOL    MW432396   2.354   3.681   2.502  0.0425  0.0668  0.0322
 8158SOL     OW32397   4.131   3.078   2.825  0.3101 -0.3948 -0.7090
 8158SOL    HW232398   4.132   3.132   2.904 -1.8827 -0.9589 -0.2059
 8158SOL    HW332399   4.141   3.140   2.753  0.3475  0.3724 -0.0581
 8158SOL    MW432400   4.132   3.093   2.826  0.0257 -0.3680 -0.5567
 8159SOL     OW32401   2.842   6.375   1.043 -0.2997 -0.1644  0.3857
 8159SOL    HW232402   2.781   6.312   1.005  0.9248 -1.3242  0.3027
 8159SOL    HW332403   2.793   6.413   1.116 -1.4165 -0.4571 -0.1795
 8159SOL    MW432404   2.827   6.372   1.048 -0.2854 -0.3561  0.3002
 8160SOL     OW32405   3.230   6.355   5.980  0.5067 -0.2896 -0.1966
 8160SOL    HW232406   3.218   6.425   6.045 -0.2040  0.1604 -0.7967
 8160SOL    HW332407   3.324   6.339   5.980  0.4664 -0.7432  1.3956
 8160SOL    MW432408   3.240   6.362   5.989  0.4076 -0.2901 -0.0657
 8161SOL     OW32409   2.531   4.450   2.843 -0.2371 -0.0339  0.3314
 8161SOL    HW232410   2.472   4.518   2.812  0.7727  1.2089  1.0476
 8161SOL    HW332411   2.596   4.440   2.772 -1.4696 -1.7019 -0.6466
 8161SOL    MW432412   2.532   4.457   2.829 -0.2665 -0.0900  0.2968
 8162SOL     OW32413   3.197   1.550   0.462  0.6467 -0.5902 -0.0532
 8162SOL    HW232414   3.248   1.469   0.455  1.0858 -0.2749 -0.6151
 8162SOL    HW332415   3.119   1.525   0.511  1.8964 -0.8024  1.9314
 8162SOL    MW432416   3.193   1.536   0.467  0.8695 -0.5766  0.1345
 8163SOL     OW32417   6.298   4.948   3.076 -0.4714  0.2014  0.3301
 8163SOL    HW232418   6.378   4.903   3.049 -2.0499 -1.3616 -2.1913
 8163SOL    HW332419   6.244   4.880   3.116 -1.4540  0.6576 -0.1740
 8163SOL    MW432420   6.301   4.933   3.078 -0.8093  0.0554 -0.0691
 8164SOL     OW32421   3.918   4.302   5.578  0.0979 -0.1078  0.3245
 8164SOL    HW232422   3.842   4.251   5.608  0.4255 -1.2220 -0.6663
 8164SOL    HW332423   3.883   4.390   5.563 -0.5471 -0.0890  1.7906
 8164SOL    MW432424   3.903   4.307   5.580  0.0560 -0.2523  0.3872
 8165SOL     OW32425   5.922   0.684   4.798 -1.2364 -0.1434  0.2508
 8165SOL    HW232426   5.875   0.600   4.797  0.6866 -1.3191  1.7848
 8165SOL    HW332427   5.993   0.672   4.735 -2.0562  1.0976 -0.9751
 8165SOL    MW432428   5.925   0.671   4.789 -1.0909 -0.1347  0.2915
 8166SOL     OW32429   3.746   1.925   2.890 -0.2131 -0.4160  0.0459
 8166SOL    HW232430   3.747   1.935   2.985  2.3714  1.4294 -0.0502
 8166SOL    HW332431   3.837   1.903   2.868 -0.9715 -1.8149 -1.9492
 8166SOL    MW432432   3.758   1.924   2.900  0.0279 -0.3571 -0.2300
 8167SOL     OW32433   0.686   2.754   2.437 -0.1641  0.4676  0.4121
 8167SOL    HW232434   0.684   2.848   2.451  1.3222  1.0105 -2.3131
 8167SOL    HW332435   0.770   2.726   2.474 -1.5815 -0.3350  3.3753
 8167SOL    MW432436   0.697   2.763   2.444 -0.1550  0.4334  0.4435
 8168SOL     OW32437   5.518   0.834   2.276  0.4180  0.5566  0.1370
 8168SOL    HW232438   5.591   0.857   2.334  0.0169 -0.4956  1.0994
 8168SOL    HW332439   5.501   0.914   2.226  1.7698  1.0263  0.3915
 8168SOL    MW432440   5.526   0.848   2.277  0.5435  0.4798  0.2976
 8169SOL     OW32441   3.946   0.081   3.547  0.1327 -0.0539  0.0432
 8169SOL    HW232442   3.891   0.059   3.472 -0.1767 -0.1252  0.2884
 8169SOL    HW332443   3.986   0.165   3.525  0.0110 -0.0569 -0.1838
 8169SOL    MW432444   3.944   0.089   3.534  0.0758 -0.0637  0.0456
 8170SOL     OW32445   2.176   0.192   2.769 -0.4486 -1.0458 -0.7246
 8170SOL    HW232446   2.252   0.171   2.824 -0.5471  0.0452 -0.1334
 8170SOL    HW332447   2.137   0.107   2.748 -1.5925 -1.4777  2.6044
 8170SOL    MW432448   2.181   0.178   2.774 -0.6125 -0.9589 -0.2074
 8171SOL     OW32449   6.274   0.213   0.487 -0.0435  0.2425 -0.4150
 8171SOL    HW232450   6.249   0.186   0.575  0.4009  1.3033  0.0637
 8171SOL    HW332451   6.192   0.235   0.444 -0.2193  0.3501 -0.0287
 8171SOL    MW432452   6.260   0.213   0.493 -0.0081  0.3966 -0.3009
 8172SOL     OW32453   6.364   3.178   2.772 -0.5239  0.0791  0.0137
 8172SOL    HW232454   6.344   3.099   2.823 -1.1313 -0.1877 -0.6266
 8172SOL    HW332455   6.322   3.249   2.821  0.5563  0.1152  0.9343
 8172SOL    MW432456   6.355   3.177   2.785 -0.4615  0.0487  0.0507
 8173SOL     OW32457   0.694   6.424   1.517 -0.0451 -0.1284 -0.1820
 8173SOL    HW232458   0.756   6.497   1.525 -0.1309 -0.1113  0.3320
 8173SOL    HW332459   0.682   6.414   1.423 -0.1245  0.6032 -0.2561
 8173SOL    MW432460   0.700   6.432   1.506 -0.0669 -0.0296 -0.1239
 8174SOL     OW32461   3.442   4.231   0.297 -0.1997  0.2157  0.0211
 8174SOL    HW232462   3.475   4.311   0.257  0.0712 -0.4629 -1.1760
 8174SOL    HW332463   3.484   4.228   0.383 -1.9629  2.4826  1.0794
 8174SOL    MW432464   3.452   4.241   0.303 -0.3966  0.4252  0.0028
 8175SOL     OW32465   5.795   2.804   0.134  0.0451  0.5534 -0.5495
 8175SOL    HW232466   5.762   2.891   0.157  0.0943  0.7545 -1.2089
 8175SOL    HW332467   5.832   2.770   0.215 -2.7152 -0.1237  0.5400
 8175SOL    MW432468   5.795   2.811   0.148 -0.3126  0.4906 -0.4928
 8176SOL     OW32469   3.689   4.513   5.486 -0.2738  0.2316  0.5180
 8176SOL    HW232470   3.693   4.521   5.581 -1.7905  3.5346  0.4447
 8176SOL    HW332471   3.766   4.561   5.455 -0.5861  0.4652  0.0891
 8176SOL    MW432472   3.700   4.520   5.495 -0.5151  0.6982  0.4518
 8177SOL     OW32473   2.480   0.241   3.133  0.2247 -0.2056 -0.5405
 8177SOL    HW232474   2.484   0.174   3.202 -0.3162 -0.0699 -0.3738
 8177SOL    HW332475   2.432   0.199   3.062  0.6756 -0.3030 -0.7879
 8177SOL    MW432476   2.474   0.227   3.133  0.2128 -0.2006 -0.5512
 8178SOL     OW32477   2.247   3.278   3.068  0.1932 -0.1878 -0.0962
 8178SOL    HW232478   2.311   3.280   2.997  0.5007 -1.1841  0.1364
 8178SOL    HW332479   2.226   3.185   3.079 -1.2821  0.1124 -0.1543
 8178SOL    MW432480   2.253   3.266   3.060  0.0391 -0.2796 -0.0732
 8179SOL     OW32481   4.379   3.690   5.727 -0.3395 -0.3571  1.0467
 8179SOL    HW232482   4.405   3.746   5.800  0.6391 -0.1451  0.5610
 8179SOL    HW332483   4.462   3.665   5.686 -0.9136  0.4347 -0.6631
 8179SOL    MW432484   4.394   3.694   5.731 -0.2861 -0.2247  0.7570
 8180SOL     OW32485   5.036   3.644   5.479  0.0711 -0.2268  0.0291
 8180SOL    HW232486   5.115   3.698   5.481 -0.0845  0.0204 -0.3568
 8180SOL    HW332487   5.033   3.608   5.391 -1.0333  0.9693 -0.4511
 8180SOL    MW432488   5.046   3.646   5.468 -0.0951 -0.0364 -0.0852
 8181SOL     OW32489   1.871   4.710   1.520  0.2760 -0.3161 -0.2023
 8181SOL    HW232490   1.898   4.769   1.590  0.1912 -1.0848  0.4912
 8181SOL    HW332491   1.951   4.694   1.470  0.6394 -0.7755  0.4949
 8181SOL    MW432492   1.885   4.715   1.523  0.3127 -0.4782 -0.0188
 8182SOL     OW32493   2.606   4.005   4.978 -0.2937  0.1931  0.2941
 8182SOL    HW232494   2.587   4.083   4.927  2.3473  0.5254 -0.2889
 8182SOL    HW332495   2.555   3.935   4.935 -1.9169  1.3395  0.2435
 8182SOL    MW432496   2.597   4.006   4.966 -0.1594  0.3882  0.2105
 8183SOL     OW32497   1.557   4.083   3.812 -0.6211 -0.0989 -0.3646
 8183SOL    HW232498   1.627   4.142   3.784 -0.1820 -1.1697 -1.6421
 8183SOL    HW332499   1.477   4.123   3.779 -0.6292  1.0689  0.9931
 8183SOL    MW432500   1.556   4.096   3.804 -0.5642 -0.0861 -0.3540
 8184SOL     OW32501   5.250   3.263   0.374  0.0667  0.0383  0.9573
 8184SOL    HW232502   5.287   3.343   0.413 -1.2046  0.8885  0.4846
 8184SOL    HW332503   5.160   3.286   0.353 -0.9144 -2.1090  2.4542
 8184SOL    MW432504   5.243   3.277   0.376 -0.2305 -0.1329  1.0925
 8185SOL     OW32505   4.402   4.299   1.417  0.4528 -0.3412 -0.3630
 8185SOL    HW232506   4.406   4.394   1.403 -0.8847 -0.4658 -1.8926
 8185SOL    HW332507   4.366   4.265   1.335 -2.0866 -1.8658  1.2869
 8185SOL    MW432508   4.398   4.307   1.404 -0.0587 -0.5588 -0.3472
 8186SOL     OW32509   6.259   0.685   5.858  0.9044 -0.3401  0.5931
 8186SOL    HW232510   6.195   0.678   5.787  0.8764  0.2492  0.5581
 8186SOL    HW332511   6.229   0.759   5.910 -0.5466 -2.2744  2.7320
 8186SOL    MW432512   6.247   0.694   5.855  0.7093 -0.5176  0.8707
 8187SOL     OW32513   0.238   2.126   5.588 -0.3229 -0.0050 -0.2821
 8187SOL    HW232514   0.176   2.118   5.516 -0.6436  0.7730 -0.1095
 8187SOL    HW332515   0.185   2.113   5.667 -0.1143 -0.1266 -0.1610
 8187SOL    MW432516   0.223   2.123   5.589 -0.3377  0.0816 -0.2434
 8188SOL     OW32517   4.910   5.264   5.620 -0.2136  0.4147  0.2261
 8188SOL    HW232518   4.854   5.338   5.644 -2.6023 -1.3765  0.4665
 8188SOL    HW332519   4.857   5.187   5.638  1.8928 -1.3644 -0.7907
 8188SOL    MW432520   4.896   5.264   5.626 -0.2508 -0.0564  0.1237
 8189SOL     OW32521   2.392   5.859   3.874  0.3936 -0.5255 -0.3618
 8189SOL    HW232522   2.304   5.856   3.836  0.8736  0.0896 -1.5508
 8189SOL    HW332523   2.390   5.792   3.942 -0.7633 -1.0524 -0.8795
 8189SOL    MW432524   2.380   5.850   3.878  0.3043 -0.5139 -0.5870
 8190SOL     OW32525   3.992   4.236   2.885 -0.4261 -0.0363  0.4823
 8190SOL    HW232526   4.083   4.228   2.856 -0.2131  2.0796  0.4351
 8190SOL    HW332527   3.942   4.237   2.804 -0.3036  0.6152  0.4054
 8190SOL    MW432528   3.998   4.235   2.871 -0.3818  0.3288  0.4660
 8191SOL     OW32529   2.007   5.313   2.224  0.0880  0.4508  0.4106
 8191SOL    HW232530   1.952   5.297   2.301  0.7882 -0.3371  0.7635
 8191SOL    HW332531   1.960   5.271   2.152 -0.3923  0.8736  0.4749
 8191SOL    MW432532   1.993   5.305   2.225  0.1170  0.4026  0.4656
 8192SOL     OW32533   1.277   4.837   2.583  0.7140  0.5626 -0.2108
 8192SOL    HW232534   1.202   4.783   2.557 -0.1214  1.5235  0.1267
 8192SOL    HW332535   1.273   4.912   2.524  0.6229  1.2588  0.6620
 8192SOL    MW432536   1.266   4.840   2.572  0.5918  0.7812 -0.0511
 8193SOL     OW32537   4.337   3.857   3.448 -0.2872  0.4463  0.0013
 8193SOL    HW232538   4.326   3.918   3.375 -1.2913  1.7041  1.1589
 8193SOL    HW332539   4.266   3.879   3.509  1.1054  0.1210  1.8250
 8193SOL    MW432540   4.326   3.868   3.446 -0.2360  0.5693  0.3947
 8194SOL     OW32541   0.761   2.910   1.872  0.1995  0.2004 -0.4239
 8194SOL    HW232542   0.721   2.894   1.958  1.0354  1.2730  0.2009
 8194SOL    HW332543   0.738   2.833   1.820 -4.0230  1.3800 -0.6791
 8194SOL    MW432544   0.753   2.897   1.877 -0.2474  0.4975 -0.3752
 8195SOL     OW32545   2.900   6.266   4.044  0.2034  0.1827 -0.7158
 8195SOL    HW232546   2.838   6.193   4.043  0.5294 -0.1045 -0.4502
 8195SOL    HW332547   2.891   6.304   4.132  0.3045  0.2281 -0.7246
 8195SOL    MW432548   2.890   6.262   4.056  0.2597  0.1508 -0.6819
 8196SOL     OW32549   4.482   2.902   0.820 -0.4632  0.4689 -0.3054
 8196SOL    HW232550   4.478   2.960   0.744 -1.0890 -0.4654 -1.0187
 8196SOL    HW332551   4.575   2.886   0.835 -0.3311  0.8565 -0.7307
 8196SOL    MW432552   4.494   2.907   0.812 -0.5283  0.3968 -0.4556
 8197SOL     OW32553   5.882   5.190   0.198  0.0095 -0.1423 -0.1773
 8197SOL    HW232554   5.898   5.268   0.144 -2.2319  0.8440  0.4978
 8197SOL    HW332555   5.845   5.224   0.279 -1.2500 -1.9119  0.0386
 8197SOL    MW432556   5.880   5.205   0.201 -0.4524 -0.2457 -0.0598
 8198SOL     OW32557   1.568   0.734   5.094 -0.0300 -0.2012  0.3305
 8198SOL    HW232558   1.498   0.787   5.131  0.0608  0.2729 -0.1577
 8198SOL    HW332559   1.591   0.780   5.013  0.9115 -0.2994  0.5405
 8198SOL    MW432560   1.562   0.747   5.088  0.1062 -0.1516  0.2938
 8199SOL     OW32561   4.313   4.173   5.678 -0.4003  0.0358  0.1500
 8199SOL    HW232562   4.239   4.221   5.714 -1.5479 -2.4604  1.3306
 8199SOL    HW332563   4.379   4.176   5.748  0.0147  0.8511 -0.2558
 8199SOL    MW432564   4.312   4.180   5.692 -0.4969 -0.1859  0.2522
 8200SOL     OW32565   6.138   0.509   5.202  0.1292  0.5530 -0.0769
 8200SOL    HW232566   6.206   0.453   5.163  0.8468  1.8380 -0.7541
 8200SOL    HW332567   6.123   0.577   5.136 -0.6074  1.2404  0.7849
 8200SOL    MW432568   6.145   0.511   5.188  0.1267  0.8133 -0.0525
 8201SOL     OW32569   4.928   0.543   0.403 -0.1511 -0.7009 -0.4169
 8201SOL    HW232570   4.998   0.486   0.371  0.5900  1.2505 -2.5787
 8201SOL    HW332571   4.970   0.628   0.417 -1.6950  0.0159  0.1555
 8201SOL    MW432572   4.943   0.547   0.400 -0.2570 -0.3489 -0.6266
 8202SOL     OW32573   2.845   1.797   4.339 -0.1726 -0.4348  0.7668
 8202SOL    HW232574   2.836   1.892   4.331  0.1342 -0.3538  1.3589
 8202SOL    HW332575   2.818   1.763   4.253 -0.6075  0.1608  0.6627
 8202SOL    MW432576   2.840   1.805   4.326 -0.1895 -0.3455  0.8312
 8203SOL     OW32577   4.640   1.868   4.399  0.4086  0.5787  0.0458
 8203SOL    HW232578   4.712   1.859   4.462  0.9793  1.4361 -0.4615
 8203SOL    HW332579   4.663   1.808   4.328 -0.0681 -0.1410  0.4808
 8203SOL    MW432580   4.653   1.859   4.398  0.4210  0.5968  0.0363
 8204SOL     OW32581   5.670   4.705   3.097  0.2847  0.1452  0.2657
 8204SOL    HW232582   5.736   4.644   3.064  1.1834  1.1687  0.0980
 8204SOL    HW332583   5.721   4.775   3.138 -0.7340  0.4712  1.0189
 8204SOL    MW432584   5.686   4.706   3.098  0.2688  0.3232  0.3429
 8205SOL     OW32585   2.703   0.997   2.743 -0.1105  0.5910  0.3590
 8205SOL    HW232586   2.788   0.956   2.759  1.0144  2.0137 -1.5153
 8205SOL    HW332587   2.679   1.035   2.827  1.1004  0.1560  0.9335
 8205SOL    MW432588   2.711   0.997   2.756  0.1977  0.7213  0.1875
 8206SOL     OW32589   5.382   1.008   3.521 -0.2127 -0.5251 -0.2081
 8206SOL    HW232590   5.428   0.924   3.522  0.3361 -0.2313  1.4345
 8206SOL    HW332591   5.318   1.001   3.591  1.2801  1.1773  1.4038
 8206SOL    MW432592   5.379   0.996   3.530  0.0567 -0.2617  0.2213
 8207SOL     OW32593   1.437   3.201   0.316  1.4635 -0.7019 -0.2827
 8207SOL    HW232594   1.496   3.268   0.282  0.8297 -0.2983 -0.5961
 8207SOL    HW332595   1.349   3.233   0.296  1.1542 -1.7600 -0.7039
 8207SOL    MW432596   1.433   3.214   0.309  1.3391 -0.7883 -0.3796
 8208SOL     OW32597   3.592   5.808   1.057  0.1784 -0.0812 -0.1471
 8208SOL    HW232598   3.566   5.730   1.106 -0.6549 -0.1759 -0.7173
 8208SOL    HW332599   3.641   5.861   1.120  0.5600 -0.9545  0.3112
 8208SOL    MW432600   3.595   5.805   1.071  0.1188 -0.2090 -0.1619
 8209SOL     OW32601   2.231   5.298   1.901  0.0231 -0.6189 -0.4862
 8209SOL    HW232602   2.240   5.362   1.971  1.9667 -1.5056  0.1597
 8209SOL    HW332603   2.262   5.344   1.823  2.4054 -0.9858  0.1587
 8209SOL    MW432604   2.237   5.312   1.900  0.5938 -0.7843 -0.3159
 8210SOL     OW32605   4.123   5.406   4.551 -0.5810 -0.9232  0.2415
 8210SOL    HW232606   4.041   5.448   4.576  0.0009 -0.1099  0.8262
 8210SOL    HW332607   4.145   5.445   4.467  0.1072  0.1863  0.9190
 8210SOL    MW432608   4.115   5.416   4.543 -0.4135 -0.6695  0.4080
 8211SOL     OW32609   1.150   4.350   1.548 -0.5295 -0.1109 -0.3418
 8211SOL    HW232610   1.212   4.277   1.548 -0.0925  0.2413  0.7025
 8211SOL    HW332611   1.206   4.428   1.547 -0.9472  0.2082  0.5704
 8211SOL    MW432612   1.166   4.351   1.548 -0.5270 -0.0223 -0.0837
 8212SOL     OW32613   1.027   3.277   4.534 -1.1340  0.2675  0.8620
 8212SOL    HW232614   1.043   3.292   4.441 -2.1564 -0.5126  0.5326
 8212SOL    HW332615   1.039   3.183   4.545  0.8119  0.5893  1.9317
 8212SOL    MW432616   1.031   3.266   4.523 -1.0121  0.2070  0.9597
 8213SOL     OW32617   2.443   3.250   4.882  0.0887  0.1379  0.3923
 8213SOL    HW232618   2.534   3.236   4.909 -0.6172 -0.2153  2.8268
 8213SOL    HW332619   2.442   3.340   4.851  1.1541  0.3555  0.9206
 8213SOL    MW432620   2.455   3.260   4.882  0.1361  0.1200  0.7832
 8214SOL     OW32621   2.533   2.789   4.955  0.1257 -0.0707 -0.1125
 8214SOL    HW232622   2.452   2.758   4.996 -0.4766  0.2857 -0.9916
 8214SOL    HW332623   2.582   2.710   4.934 -0.6616 -0.3746 -0.8780
 8214SOL    MW432624   2.529   2.775   4.957 -0.0577 -0.0638 -0.3295
 8215SOL     OW32625   2.732   1.828   4.580  0.2088  0.5985 -0.7559
 8215SOL    HW232626   2.770   1.816   4.493  1.3435 -2.4479  0.0368
 8215SOL    HW332627   2.802   1.801   4.640 -1.9144 -1.6039  0.9015
 8215SOL    MW432628   2.746   1.823   4.576  0.0784 -0.0940 -0.4327
 8216SOL     OW32629   4.602   5.973   0.581 -0.1953  0.1160  0.6004
 8216SOL    HW232630   4.588   5.981   0.487  3.1141  1.3047  0.0722
 8216SOL    HW332631   4.613   5.879   0.596 -2.5528 -0.2970  0.2351
 8216SOL    MW432632   4.601   5.962   0.571 -0.0697  0.2183  0.4825
 8217SOL     OW32633   0.590   3.477   5.786  0.1551 -0.2660  0.7134
 8217SOL    HW232634   0.557   3.512   5.704  0.6214  0.0923  0.6742
 8217SOL    HW332635   0.580   3.382   5.778  1.3663 -0.3370 -0.2965
 8217SOL    MW432636   0.585   3.469   5.774  0.3764 -0.2281  0.5750
 8218SOL     OW32637   5.707   4.076   2.904 -0.6709 -0.4766 -0.4883
 8218SOL    HW232638   5.696   4.154   2.959 -2.5291 -0.3958 -0.8976
 8218SOL    HW332639   5.625   4.070   2.855 -0.2816 -2.2935 -0.9859
 8218SOL    MW432640   5.694   4.086   2.905 -0.8647 -0.7056 -0.6079
 8219SOL     OW32641   3.617   0.814   1.137  0.3100  0.0484 -0.5007
 8219SOL    HW232642   3.524   0.833   1.147 -0.2377 -1.4797 -2.2765
 8219SOL    HW332643   3.653   0.892   1.094 -0.1059  0.6715  0.2567
 8219SOL    MW432644   3.609   0.827   1.133  0.1828 -0.0710 -0.6350
 8220SOL     OW32645   6.182   3.844   3.152 -0.0388  0.2793 -0.2121
 8220SOL    HW232646   6.231   3.842   3.069 -1.7665 -0.7888 -1.2766
 8220SOL    HW332647   6.250   3.839   3.220  1.3451 -1.3666 -1.6047
 8220SOL    MW432648   6.198   3.843   3.150 -0.0842 -0.0788 -0.5363
 8221SOL     OW32649   5.583   0.671   5.371  0.0099 -0.0299  0.6174
 8221SOL    HW232650   5.643   0.673   5.446  0.4312 -1.3825  0.3460
 8221SOL    HW332651   5.630   0.621   5.304 -1.1910 -0.6223  0.1915
 8221SOL    MW432652   5.597   0.664   5.372 -0.0930 -0.2865  0.5254
 8222SOL     OW32653   2.823   1.052   6.034 -0.0372  0.9608 -0.0331
 8222SOL    HW232654   2.859   0.969   6.002 -1.3012  0.2673  0.2747
 8222SOL    HW332655   2.804   1.102   5.955 -2.6608 -0.5393 -0.4751
 8222SOL    MW432656   2.825   1.047   6.019 -0.5501  0.6714 -0.0508
 8223SOL     OW32657   4.508   5.256   1.490  0.0152 -0.0737  0.2901
 8223SOL    HW232658   4.568   5.267   1.416 -0.0729 -0.5386  0.1477
 8223SOL    HW332659   4.443   5.193   1.460 -0.4214  0.2576  0.5243
 8223SOL    MW432660   4.507   5.249   1.476 -0.0540 -0.0914  0.3022
 8224SOL     OW32661   2.794   0.149   5.797 -0.1403 -0.3354  0.1078
 8224SOL    HW232662   2.746   0.232   5.801  2.1312  1.0461  1.1371
 8224SOL    HW332663   2.856   0.154   5.870  1.3376 -2.1018 -0.9279
 8224SOL    MW432664   2.796   0.161   5.807  0.3544 -0.3862  0.1070
 8225SOL     OW32665   2.446   3.183   5.678  0.2437 -0.5362  0.0092
 8225SOL    HW232666   2.420   3.193   5.586 -0.1754 -0.7293  0.1068
 8225SOL    HW332667   2.447   3.273   5.712 -0.2285 -0.5152 -0.0175
 8225SOL    MW432668   2.443   3.196   5.670  0.1261 -0.5589  0.0186
 8226SOL     OW32669   1.673   1.985   0.434 -0.2616  0.0121 -0.3205
 8226SOL    HW232670   1.609   1.983   0.505 -0.7594  0.4040 -0.7497
 8226SOL    HW332671   1.722   1.903   0.443 -1.8264 -1.0328 -0.9087
 8226SOL    MW432672   1.671   1.974   0.445 -0.5337 -0.0741 -0.4547
 8227SOL     OW32673   5.211   4.815   6.357  0.1328  0.4675  0.5368
 8227SOL    HW232674   5.280   4.874   6.385  1.1492  0.1260 -1.1207
 8227SOL    HW332675   5.240   4.729   6.384  0.8645  0.2037 -0.9693
 8227SOL    MW432676   5.224   4.812   6.364  0.3634  0.3876  0.1194
 8228SOL     OW32677   6.388   5.456   6.249 -0.1476  0.5434 -0.3056
 8228SOL    HW232678   6.415   5.371   6.284 -0.5505  0.4206 -0.2886
 8228SOL    HW332679   6.328   5.435   6.178 -0.3517  0.8182 -0.2149
 8228SOL    MW432680   6.384   5.442   6.245 -0.2277  0.5634 -0.2914
 8229SOL     OW32681   0.594   5.213   2.830 -0.0681  0.2539 -0.0416
 8229SOL    HW232682   0.675   5.262   2.844 -0.2081  1.3094 -2.4253
 8229SOL    HW332683   0.527   5.264   2.874  0.4237 -0.2691  1.3702
 8229SOL    MW432684   0.596   5.226   2.838 -0.0217  0.3242 -0.1698
 8230SOL     OW32685   0.611   1.705   6.394  0.0082  0.3127 -0.2638
 8230SOL    HW232686   0.634   1.784   6.442  1.9574  1.5520 -2.9514
 8230SOL    HW332687   0.687   1.647   6.405  0.0110  0.1793 -0.9099
 8230SOL    MW432688   0.624   1.708   6.401  0.2657  0.4586 -0.7037
 8231SOL     OW32689   5.189   5.841   0.235 -0.1217  0.1287  0.4143
 8231SOL    HW232690   5.222   5.907   0.176 -0.9877  0.7102  0.5585
 8231SOL    HW332691   5.116   5.883   0.280 -0.3987 -0.7708  0.8391
 8231SOL    MW432692   5.183   5.855   0.233 -0.2725  0.0868  0.4893
 8232SOL     OW32693   4.124   0.472   0.229  0.2015  0.1966  0.3842
 8232SOL    HW232694   4.032   0.491   0.210 -0.1563 -0.1847  1.6640
 8232SOL    HW332695   4.157   0.551   0.272  0.6928  0.6184 -0.7385
 8232SOL    MW432696   4.116   0.485   0.232  0.2191  0.2019  0.4049
 8233SOL     OW32697   3.143   3.796   5.310 -0.3455  0.3952  0.4972
 8233SOL    HW232698   3.225   3.753   5.284 -0.0960 -1.2060  3.5121
 8233SOL    HW332699   3.123   3.855   5.237  3.1669  0.4426 -0.6303
 8233SOL    MW432700   3.151   3.798   5.297  0.1508  0.1902  0.7462
 8234SOL     OW32701   5.838   3.677   1.271 -0.2929 -0.4302 -0.4569
 8234SOL    HW232702   5.893   3.747   1.307  2.2172 -1.4868 -2.0106
 8234SOL    HW332703   5.765   3.723   1.229  0.1296  1.1031  0.3968
 8234SOL    MW432704   5.835   3.692   1.270  0.0940 -0.3673 -0.5493
 8235SOL     OW32705   2.948   5.235   5.133 -0.0916  0.1929  0.0381
 8235SOL    HW232706   2.990   5.153   5.109 -1.0333 -0.0595 -0.7709
 8235SOL    HW332707   2.922   5.223   5.225  0.3942 -0.1426  0.1327
 8235SOL    MW432708   2.950   5.223   5.142 -0.1518  0.1153 -0.0561
 8236SOL     OW32709   1.293   3.785   6.085  0.4955  0.4050 -0.2474
 8236SOL    HW232710   1.233   3.835   6.029  0.7391  1.3004  0.2678
 8236SOL    HW332711   1.258   3.797   6.174  1.6693  1.3393  0.1245
 8236SOL    MW432712   1.281   3.793   6.090  0.6825  0.6464 -0.1303
 8237SOL     OW32713   3.825   3.196   0.047 -0.1300 -0.3042  0.1127
 8237SOL    HW232714   3.767   3.271   0.048 -1.1450 -1.0729  0.6850
 8237SOL    HW332715   3.900   3.223   0.100 -0.5692  0.2430  0.4607
 8237SOL    MW432716   3.828   3.209   0.054 -0.3218 -0.3334  0.2341
 8238SOL     OW32717   1.845   1.861   2.021 -0.1100  0.1705  0.5437
 8238SOL    HW232718   1.798   1.898   1.946 -0.2324 -1.0561 -0.0216
 8238SOL    HW332719   1.905   1.930   2.048 -1.2806  1.2702  0.4249
 8238SOL    MW432720   1.847   1.875   2.014 -0.2806  0.1537  0.4534
 8239SOL     OW32721   2.006   4.168   3.250  0.0601  0.8617  0.0685
 8239SOL    HW232722   2.031   4.108   3.179 -1.1669  1.2907 -0.7776
 8239SOL    HW332723   2.067   4.241   3.242  1.5429 -0.1937  1.0797
 8239SOL    MW432724   2.017   4.170   3.239  0.0938  0.7791  0.0903
 8240SOL     OW32725   5.867   5.541   2.099 -0.3089 -0.5181  0.1753
 8240SOL    HW232726   5.937   5.585   2.148  0.1559 -1.9530  0.8681
 8240SOL    HW332727   5.868   5.451   2.133  0.5236 -1.8273 -2.9803
 8240SOL    MW432728   5.876   5.535   2.110 -0.1377 -0.8801 -0.1496
 8241SOL     OW32729   1.593   0.451   0.301  0.1518 -0.4235  0.1956
 8241SOL    HW232730   1.607   0.383   0.235  1.3599 -0.0835  0.0700
 8241SOL    HW332731   1.591   0.404   0.384  0.3315 -0.6892  0.0534
 8241SOL    MW432732   1.595   0.436   0.303  0.3349 -0.4137  0.1603
 8242SOL     OW32733   4.447   4.287   0.412  0.3114 -0.0002  0.1746
 8242SOL    HW232734   4.529   4.252   0.379 -1.1376 -0.6972 -3.0404
 8242SOL    HW332735   4.385   4.275   0.340 -2.4864  1.0190  2.2427
 8242SOL    MW432736   4.450   4.281   0.398 -0.2489  0.0423  0.0233
 8243SOL     OW32737   2.965   1.455   3.225  0.0755  0.6009  0.7287
 8243SOL    HW232738   2.890   1.513   3.242  1.5227  2.4691  1.1089
 8243SOL    HW332739   2.981   1.411   3.308 -1.2464 -0.6663  0.3478
 8243SOL    MW432740   2.957   1.457   3.238  0.0920  0.6802  0.7286
 8244SOL     OW32741   0.434   3.478   2.991 -0.8387  0.1554  0.2300
 8244SOL    HW232742   0.384   3.455   3.070 -1.2890 -2.4899 -0.7081
 8244SOL    HW332743   0.508   3.418   2.991 -0.4216  0.6401 -0.9818
 8244SOL    MW432744   0.437   3.467   3.002 -0.8430 -0.1296 -0.0536
 8245SOL     OW32745   3.218   4.897   6.134 -0.2537  0.2697 -0.0830
 8245SOL    HW232746   3.249   4.885   6.044 -2.0211 -0.0310 -0.6997
 8245SOL    HW332747   3.153   4.968   6.127  0.3262  0.9565  1.1528
 8245SOL    MW432748   3.214   4.905   6.121 -0.4103  0.3207 -0.0013
 8246SOL     OW32749   2.167   4.237   1.119 -0.3116  0.4084 -0.6509
 8246SOL    HW232750   2.091   4.269   1.167  0.0883 -0.8575  0.9192
 8246SOL    HW332751   2.170   4.143   1.138  0.6694  0.1178 -2.0688
 8246SOL    MW432752   2.158   4.229   1.128 -0.1294  0.2030 -0.6308
 8247SOL     OW32753   3.396   2.744   5.624 -0.1824 -0.6137  0.3648
 8247SOL    HW232754   3.478   2.730   5.577 -0.4373 -1.2327  0.0776
 8247SOL    HW332755   3.376   2.659   5.664  0.2733  0.0247  2.0287
 8247SOL    MW432756   3.404   2.731   5.623 -0.1559 -0.6111  0.5464
 8248SOL     OW32757   2.280   0.092   2.485 -0.0865  0.0789 -0.0799
 8248SOL    HW232758   2.254   0.075   2.576 -1.7348  0.0655 -0.5206
 8248SOL    HW332759   2.340   0.167   2.491  0.0054 -0.0643  1.0311
 8248SOL    MW432760   2.284   0.100   2.498 -0.2918  0.0582  0.0085
 8249SOL     OW32761   6.015   0.292   4.280 -0.5411 -0.5578  0.6323
 8249SOL    HW232762   6.064   0.218   4.316 -1.5031 -0.4713  2.2053
 8249SOL    HW332763   5.924   0.275   4.306 -0.8351  0.9664  0.6552
 8249SOL    MW432764   6.009   0.280   4.288 -0.7068 -0.3453  0.8428
 8250SOL     OW32765   1.222   2.314   6.416 -0.1760  0.1901 -0.1930
 8250SOL    HW232766   1.193   2.224   6.408 -0.8201  0.3148  0.6792
 8250SOL    HW332767   1.196   2.341   6.504 -2.1523  1.9789 -1.2213
 8250SOL    MW432768   1.215   2.306   6.426 -0.5217  0.4426 -0.2136
 8251SOL     OW32769   2.585   4.498   1.681  0.2503  0.5913 -0.0790
 8251SOL    HW232770   2.608   4.581   1.640  0.7489  0.2675 -0.4637
 8251SOL    HW332771   2.663   4.473   1.729 -0.2953  0.9221  1.0169
 8251SOL    MW432772   2.598   4.506   1.682  0.2441  0.5922  0.0148
 8252SOL     OW32773   1.167   3.275   3.682 -0.3297 -0.7606  0.5042
 8252SOL    HW232774   1.127   3.189   3.666 -0.1832 -0.7654  0.1594
 8252SOL    HW332775   1.231   3.259   3.752  0.6472 -1.2178 -0.4621
 8252SOL    MW432776   1.171   3.261   3.689 -0.1814 -0.8216  0.3312
 8253SOL     OW32777   4.470   5.520   0.092  0.1374  0.0163  0.5668
 8253SOL    HW232778   4.391   5.488   0.048 -0.6975  0.4980  1.6803
 8253SOL    HW332779   4.497   5.447   0.148 -1.3763  0.9243  2.5896
 8253SOL    MW432780   4.463   5.506   0.094 -0.1725  0.1996  0.9806
 8254SOL     OW32781   5.989   2.893   5.763  0.2785  0.0208 -0.0216
 8254SOL    HW232782   6.075   2.867   5.796  2.3310 -0.6049 -5.0056
 8254SOL    HW332783   6.002   2.982   5.730 -0.6857 -0.3316 -1.4652
 8254SOL    MW432784   6.002   2.901   5.763  0.4221 -0.1083 -0.8697
 8255SOL     OW32785   2.828   3.417   6.102  0.9656  0.5517 -0.2565
 8255SOL    HW232786   2.812   3.472   6.179  1.7590 -0.4458  0.6565
 8255SOL    HW332787   2.741   3.395   6.069  0.6130  0.7816  0.5095
 8255SOL    MW432788   2.815   3.421   6.108  1.0238  0.4504 -0.0350
 8256SOL     OW32789   0.608   0.746   1.208 -0.4485  0.6230  0.1589
 8256SOL    HW232790   0.597   0.771   1.299  0.2416  1.5153  0.0155
 8256SOL    HW332791   0.700   0.719   1.201 -0.9133 -1.0517  0.0783
 8256SOL    MW432792   0.619   0.746   1.219 -0.4188  0.5197  0.1294
 8257SOL     OW32793   3.373   0.257   3.407  0.3466 -0.0592 -0.2801
 8257SOL    HW232794   3.392   0.164   3.416  2.4071  0.2109 -1.1614
 8257SOL    HW332795   3.432   0.299   3.469 -0.1696  0.6855 -0.2827
 8257SOL    MW432796   3.384   0.250   3.416  0.5504  0.0747 -0.3967
 8258SOL     OW32797   3.651   2.591   2.404 -0.2960  0.6905 -0.4280
 8258SOL    HW232798   3.633   2.502   2.374 -0.2307 -0.7004  3.1853
 8258SOL    HW332799   3.571   2.639   2.385 -1.1014 -0.6801 -0.6373
 8258SOL    MW432800   3.638   2.585   2.397 -0.3936  0.3261  0.0211
 8259SOL     OW32801   0.835   0.763   2.379 -0.6239 -0.2491  0.1067
 8259SOL    HW232802   0.761   0.721   2.336 -0.7174  0.4507 -0.4383
 8259SOL    HW332803   0.913   0.725   2.339 -0.7090  0.1750 -0.4706
 8259SOL    MW432804   0.836   0.753   2.368 -0.6474 -0.1008 -0.0414
 8260SOL     OW32805   2.938   3.350   3.493  0.3838 -0.1348 -0.2532
 8260SOL    HW232806   2.926   3.268   3.445  1.5224  0.3231 -1.3952
 8260SOL    HW332807   2.849   3.380   3.513 -0.0926 -0.7640 -1.3591
 8260SOL    MW432808   2.925   3.343   3.489  0.4712 -0.1574 -0.5498
 8261SOL     OW32809   0.793   0.389   4.615 -0.1579  0.3425 -0.7494
 8261SOL    HW232810   0.795   0.428   4.528  0.6638  0.0687 -0.8605
 8261SOL    HW332811   0.785   0.295   4.598  0.6335  0.2358 -0.5474
 8261SOL    MW432812   0.792   0.381   4.601  0.0549  0.2923 -0.7374
 8262SOL     OW32813   6.069   5.020   0.458 -0.1292  0.3378  0.3800
 8262SOL    HW232814   6.142   5.081   0.471 -1.1788  1.7720 -0.1428
 8262SOL    HW332815   6.108   4.933   0.467  0.8021  1.0048  4.6938
 8262SOL    MW432816   6.083   5.016   0.461 -0.1448  0.6151  0.8802
 8263SOL     OW32817   5.854   6.281   1.641 -0.7803 -0.1569  0.2754
 8263SOL    HW232818   5.781   6.318   1.690 -0.0995  0.1419  1.0959
 8263SOL    HW332819   5.873   6.198   1.686 -3.1781 -2.3547 -2.3471
 8263SOL    MW432820   5.847   6.275   1.653 -1.0068 -0.4075  0.0377
 8264SOL     OW32821   3.619   5.974   2.809  0.4008  0.9098  0.0167
 8264SOL    HW232822   3.535   5.951   2.847 -0.1662  0.8803 -1.2154
 8264SOL    HW332823   3.684   5.940   2.872 -0.4821  0.4609  0.7107
 8264SOL    MW432824   3.617   5.966   2.823  0.2095  0.8467 -0.0543
 8265SOL     OW32825   2.021   5.996   6.068 -0.4678  0.0030 -0.0264
 8265SOL    HW232826   1.930   5.985   6.096 -0.4824 -1.3275 -0.5197
 8265SOL    HW332827   2.015   6.015   5.975 -0.2421 -0.3265 -0.1101
 8265SOL    MW432828   2.008   5.997   6.060 -0.4400 -0.2160 -0.1025
 8266SOL     OW32829   3.644   3.283   0.310 -0.0998 -0.6295  0.0386
 8266SOL    HW232830   3.562   3.331   0.301  0.6474  0.7368  0.2293
 8266SOL    HW332831   3.618   3.191   0.312 -1.4936 -0.3255 -1.5496
 8266SOL    MW432832   3.630   3.277   0.309 -0.1851 -0.4091 -0.1458
 8267SOL     OW32833   2.403   5.448   6.362  0.4656  0.0282 -0.4738
 8267SOL    HW232834   2.367   5.533   6.339  0.2988  0.0602 -0.0987
 8267SOL    HW332835   2.469   5.430   6.294  1.3434  0.9836  0.1052
 8267SOL    MW432836   2.407   5.457   6.350  0.5594  0.1585 -0.3479
 8268SOL     OW32837   4.726   3.666   1.779  0.4006  0.3107 -0.4854
 8268SOL    HW232838   4.747   3.734   1.843 -0.1400  1.0655 -1.0865
 8268SOL    HW332839   4.688   3.595   1.830 -1.4375  1.5063 -0.0935
 8268SOL    MW432840   4.723   3.666   1.794  0.0867  0.5680 -0.5130
 8269SOL     OW32841   3.966   6.226   0.951 -0.0470 -0.6743 -0.4235
 8269SOL    HW232842   3.936   6.269   0.870  0.4545 -1.2832 -0.9449
 8269SOL    HW332843   3.947   6.289   1.020 -0.5887 -0.1876 -1.0065
 8269SOL    MW432844   3.960   6.240   0.949 -0.0523 -0.6904 -0.5692
 8270SOL     OW32845   2.024   2.625   3.620 -0.2692  0.4406  0.0709
 8270SOL    HW232846   1.983   2.707   3.593 -2.8852 -1.4217 -2.1038
 8270SOL    HW332847   1.954   2.576   3.663  0.3655 -1.7706 -1.2691
 8270SOL    MW432848   2.009   2.629   3.622 -0.5306 -0.0968 -0.3928
 8271SOL     OW32849   5.465   5.188   3.614 -0.0574  0.5758  0.2046
 8271SOL    HW232850   5.446   5.220   3.526 -1.2357 -1.0099 -0.1579
 8271SOL    HW332851   5.401   5.231   3.670 -0.6561  0.0436 -0.0526
 8271SOL    MW432852   5.454   5.198   3.609 -0.2918  0.2963  0.1228
 8272SOL     OW32853   4.971   0.660   3.372  0.0362  0.3483 -0.0680
 8272SOL    HW232854   5.017   0.612   3.441 -0.4556  0.0057  0.0282
 8272SOL    HW332855   4.942   0.741   3.415  2.3442  1.5832 -0.6671
 8272SOL    MW432856   4.973   0.664   3.387  0.2758  0.4660 -0.1343
 8273SOL     OW32857   1.253   1.756   0.363 -0.6139  0.3839  0.7016
 8273SOL    HW232858   1.330   1.784   0.314 -0.7444  0.1174  0.3434
 8273SOL    HW332859   1.273   1.666   0.389 -0.9461  0.1925  0.3090
 8273SOL    MW432860   1.266   1.748   0.360 -0.6750  0.3235  0.6025
 8274SOL     OW32861   3.143   2.880   0.308 -0.6527 -0.2669 -0.5047
 8274SOL    HW232862   3.197   2.960   0.314  2.5130 -2.0966 -1.7946
 8274SOL    HW332863   3.156   2.850   0.218 -3.3799 -1.2396 -0.6354
 8274SOL    MW432864   3.152   2.887   0.297 -0.5948 -0.6366 -0.6921
 8275SOL     OW32865   3.263   0.308   2.420  0.1571  0.5210  0.1428
 8275SOL    HW232866   3.206   0.251   2.470  1.2476  0.4877  1.3835
 8275SOL    HW332867   3.345   0.310   2.469  1.4620  0.0878 -1.8953
 8275SOL    MW432868   3.266   0.301   2.433  0.4732  0.4595  0.0376
 8276SOL     OW32869   2.454   4.802   3.013 -0.2249  0.2447 -0.5201
 8276SOL    HW232870   2.457   4.848   3.097  1.2392  2.3556 -1.6285
 8276SOL    HW332871   2.360   4.798   2.991 -0.4623  2.0528  0.0129
 8276SOL    MW432872   2.442   4.808   3.021 -0.0631  0.7618 -0.5960
 8277SOL     OW32873   0.681   4.742   0.975  0.1793 -0.1488  0.4051
 8277SOL    HW232874   0.675   4.790   1.057  0.3991 -2.0480  1.5957
 8277SOL    HW332875   0.591   4.720   0.953  0.1185  0.3801  0.0986
 8277SOL    MW432876   0.668   4.745   0.983  0.2003 -0.3296  0.5218
 8278SOL     OW32877   3.980   4.846   6.279 -0.0023 -0.1743  0.0992
 8278SOL    HW232878   4.016   4.868   6.365  1.2610 -2.2092  0.1530
 8278SOL    HW332879   3.913   4.780   6.296 -0.6177  0.3048 -0.3987
 8278SOL    MW432880   3.976   4.840   6.293  0.0832 -0.3796  0.0406
 8279SOL     OW32881   1.760   2.263   0.017  0.2997  0.2368 -0.4322
 8279SOL    HW232882   1.738   2.320  -0.057  0.5673  0.0302 -0.6747
 8279SOL    HW332883   1.849   2.287   0.040 -0.2317  1.2362  0.7023
 8279SOL    MW432884   1.769   2.273   0.010  0.2649  0.3414 -0.3145
 8280SOL     OW32885   2.558   0.364   6.419 -0.1186  0.0145 -0.4846
 8280SOL    HW232886   2.521   0.282   6.450 -0.6508 -0.5501 -2.4287
 8280SOL    HW332887   2.641   0.338   6.378  0.1042  0.5658 -0.3829
 8280SOL    MW432888   2.564   0.350   6.417 -0.1594  0.0127 -0.7276
 8281SOL     OW32889   0.493   6.411   4.492 -0.1175 -0.6082  0.1605
 8281SOL    HW232890   0.499   6.323   4.455 -0.7550 -0.4477 -0.3239
 8281SOL    HW332891   0.496   6.469   4.417  0.6874 -0.1869  0.5024
 8281SOL    MW432892   0.494   6.407   4.477 -0.0954 -0.5315  0.1417
 8282SOL     OW32893   3.808   4.797   4.800  0.8263  0.1300 -0.0326
 8282SOL    HW232894   3.774   4.737   4.733  0.1058 -0.2582  0.6639
 8282SOL    HW332895   3.856   4.740   4.860  0.2840  0.2706  0.5411
 8282SOL    MW432896   3.810   4.781   4.799  0.6597  0.0973  0.1350
 8283SOL     OW32897   5.831   1.656   5.304  0.5085 -0.1071 -0.1043
 8283SOL    HW232898   5.766   1.672   5.236 -1.0168 -0.7101  1.1332
 8283SOL    HW332899   5.812   1.568   5.336  1.1527  0.1581  1.0925
 8283SOL    MW432900   5.820   1.647   5.299  0.3923 -0.1517  0.2169
 8284SOL     OW32901   6.097   4.085   1.184  0.0817  0.1901  0.0437
 8284SOL    HW232902   6.053   4.070   1.101  0.8918  0.3108 -0.4242
 8284SOL    HW332903   6.183   4.121   1.159 -0.6809  2.9037  0.9894
 8284SOL    MW432904   6.103   4.088   1.170  0.0880  0.5641  0.1068
 8285SOL     OW32905   0.580   2.344   3.411  0.2715  0.1664 -0.3249
 8285SOL    HW232906   0.645   2.411   3.431 -0.7982  1.0422  0.3307
 8285SOL    HW332907   0.587   2.330   3.317 -0.2440  2.0290 -0.6787
 8285SOL    MW432908   0.590   2.351   3.401  0.0624  0.5277 -0.2851
 8286SOL     OW32909   4.422   0.504   1.480  0.0809  0.8012 -0.6271
 8286SOL    HW232910   4.466   0.587   1.460  1.1699  0.5016  0.4105
 8286SOL    HW332911   4.484   0.457   1.535 -0.1445 -1.0988 -1.9115
 8286SOL    MW432912   4.436   0.509   1.485  0.1949  0.5110 -0.6597
 8287SOL     OW32913   3.343   5.917   2.062 -0.2594 -0.2894 -0.1860
 8287SOL    HW232914   3.315   5.974   1.991 -1.8682 -0.1995  0.4791
 8287SOL    HW332915   3.405   5.971   2.113 -1.0988  0.5782 -0.0501
 8287SOL    MW432916   3.348   5.932   2.060 -0.5824 -0.1631 -0.0803
 8288SOL     OW32917   5.160   3.586   0.573  0.0876  0.2269  0.6337
 8288SOL    HW232918   5.243   3.566   0.530  0.4211  0.8395  0.9787
 8288SOL    HW332919   5.106   3.625   0.503  0.3155  0.4130  0.5594
 8288SOL    MW432920   5.163   3.589   0.558  0.1617  0.3323  0.6694
 8289SOL     OW32921   4.079   5.789   2.116 -0.0504  0.4292 -0.2657
 8289SOL    HW232922   4.001   5.748   2.080  0.5264 -0.3417 -0.6587
 8289SOL    HW332923   4.108   5.850   2.048 -0.5540  1.0566  0.0665
 8289SOL    MW432924   4.072   5.791   2.102 -0.0407  0.4103 -0.2737
 8290SOL     OW32925   1.224   1.289   2.229  0.4683  0.3663 -0.0216
 8290SOL    HW232926   1.220   1.362   2.166  1.8086 -0.3388 -0.9635
 8290SOL    HW332927   1.146   1.238   2.211 -0.1793  1.2268  0.2469
 8290SOL    MW432928   1.213   1.292   2.218  0.5597  0.3868 -0.1105
 8291SOL     OW32929   4.771   1.239   3.026  0.0603 -0.5386  0.4428
 8291SOL    HW232930   4.816   1.211   3.106 -0.7064  1.6093  1.7282
 8291SOL    HW332931   4.840   1.274   2.970  0.6048 -2.0601  0.1304
 8291SOL    MW432932   4.786   1.240   3.029  0.0310 -0.4559  0.5712
 8292SOL     OW32933   2.880   2.236   5.611 -0.0669  0.5457 -0.0209
 8292SOL    HW232934   2.828   2.250   5.531 -0.3227 -1.1833 -0.2038
 8292SOL    HW332935   2.853   2.307   5.669 -1.2791  0.7653 -0.7958
 8292SOL    MW432936   2.869   2.247   5.608 -0.2606  0.3465 -0.1472
 8293SOL     OW32937   4.845   5.050   2.971  0.5016  0.7145  0.1588
 8293SOL    HW232938   4.875   4.975   2.920  0.6851  1.7729 -1.3336
 8293SOL    HW332939   4.778   5.014   3.029 -1.4867 -0.1319 -2.4980
 8293SOL    MW432940   4.840   5.035   2.972  0.2635  0.7424 -0.3886
 8294SOL     OW32941   5.229   0.577   3.517  0.1671 -0.1924 -0.3444
 8294SOL    HW232942   5.295   0.633   3.476 -1.3668  0.2132 -2.4381
 8294SOL    HW332943   5.195   0.631   3.589  1.2326  0.0673 -0.0074
 8294SOL    MW432944   5.233   0.592   3.521  0.1053 -0.1046 -0.5762
 8295SOL     OW32945   6.328   3.285   1.107 -0.0846  0.3258  0.1916
 8295SOL    HW232946   6.375   3.366   1.084  0.6246 -0.1750 -0.1638
 8295SOL    HW332947   6.395   3.230   1.149 -0.4892 -0.1934  0.1598
 8295SOL    MW432948   6.343   3.289   1.110 -0.0444  0.1912  0.1405
 8296SOL     OW32949   5.643   5.504   3.235 -0.3219 -0.3493  0.0105
 8296SOL    HW232950   5.669   5.562   3.307 -1.7850  0.8234 -0.3816
 8296SOL    HW332951   5.590   5.436   3.278 -1.6032  0.6206 -0.0016
 8296SOL    MW432952   5.640   5.503   3.250 -0.6840 -0.0666 -0.0428
 8297SOL     OW32953   0.962   2.329   3.458 -0.5735  0.3271 -0.4858
 8297SOL    HW232954   0.899   2.399   3.471  0.9911  1.8766 -0.8326
 8297SOL    HW332955   1.047   2.370   3.474  0.4238 -1.3835 -1.1455
 8297SOL    MW432956   0.965   2.343   3.462 -0.2355  0.3058 -0.6186
 8298SOL     OW32957   5.140   4.047   3.766 -0.6542  0.2320 -0.4210
 8298SOL    HW232958   5.209   4.002   3.814 -0.6887  0.3504 -0.2619
 8298SOL    HW332959   5.077   4.074   3.833 -0.8077  0.2093 -0.5551
 8298SOL    MW432960   5.140   4.045   3.781 -0.6790  0.2446 -0.4177
 8299SOL     OW32961   0.914   6.332   2.078  0.2553  0.6997  0.0802
 8299SOL    HW232962   0.860   6.364   2.006  3.4034  1.1983 -2.2972
 8299SOL    HW332963   0.880   6.245   2.097 -1.3717  0.9907 -1.2738
 8299SOL    MW432964   0.903   6.325   2.071  0.4560  0.8039 -0.4121
 8300SOL     OW32965   3.517   3.130   4.156 -0.1092 -0.1853 -0.0352
 8300SOL    HW232966   3.481   3.154   4.241  1.0732 -1.1153  0.7721
 8300SOL    HW332967   3.502   3.207   4.101  0.2383  0.9367  1.3705
 8300SOL    MW432968   3.510   3.143   4.160  0.0927 -0.1600  0.2568
 8301SOL     OW32969   3.890   5.624   2.025  0.4264  0.2724  0.1163
 8301SOL    HW232970   3.861   5.544   2.067  0.7762  0.3347  0.4865
 8301SOL    HW332971   3.810   5.668   1.998  0.1871  0.3069  0.8633
 8301SOL    MW432972   3.876   5.619   2.027  0.4410  0.2852  0.2637
 8302SOL     OW32973   2.543   3.029   6.392 -0.0004  0.4279 -0.1570
 8302SOL    HW232974   2.519   2.939   6.411 -0.3290  0.2957 -1.1695
 8302SOL    HW332975   2.639   3.029   6.392  0.0080  0.3155  0.8989
 8302SOL    MW432976   2.553   3.017   6.395 -0.0426  0.3956 -0.1512
 8303SOL     OW32977   3.983   5.731   6.122  0.1986 -0.7174  0.0674
 8303SOL    HW232978   3.919   5.716   6.191 -0.1027 -0.1300 -0.0816
 8303SOL    HW332979   3.980   5.651   6.069  0.5632 -1.2483  0.8261
 8303SOL    MW432980   3.974   5.718   6.124  0.2069 -0.7099  0.1478
 8304SOL     OW32981   6.017   3.554   0.824 -0.3209  0.0237  0.5053
 8304SOL    HW232982   5.933   3.584   0.789 -0.0229  0.8598  0.4828
 8304SOL    HW332983   6.056   3.632   0.864  1.6732  0.3830 -1.8774
 8304SOL    MW432984   6.011   3.569   0.824 -0.0185  0.1814  0.1880
 8305SOL     OW32985   3.822   2.003   4.435 -0.2735  0.0098  0.3376
 8305SOL    HW232986   3.843   1.998   4.342  0.2391  1.8348  0.3290
 8305SOL    HW332987   3.756   2.072   4.441 -1.2689 -0.9800  1.1927
 8305SOL    MW432988   3.816   2.011   4.424 -0.3372  0.1200  0.4493
 8306SOL     OW32989   4.151   1.264   4.198  0.0339  0.3843  0.2105
 8306SOL    HW232990   4.174   1.231   4.111 -0.8046 -2.6940  1.0276
 8306SOL    HW332991   4.234   1.264   4.246  0.4669  1.9163 -0.4681
 8306SOL    MW432992   4.165   1.259   4.193 -0.0196  0.1803  0.2287
 8307SOL     OW32993   6.370   4.738   2.630  0.2391 -0.0730  0.5120
 8307SOL    HW232994   6.421   4.738   2.549  1.2345 -3.2610  0.9995
 8307SOL    HW332995   6.289   4.693   2.607  1.4847 -3.2229  1.6129
 8307SOL    MW432996   6.366   4.732   2.616  0.5348 -0.9092  0.7216
 8308SOL     OW32997   0.131   2.245   1.623  0.1902  0.1208  0.1467
 8308SOL    HW232998   0.061   2.223   1.684 -0.2438 -0.5043 -0.5663
 8308SOL    HW332999   0.209   2.205   1.661  0.4516  1.8954  1.6143
 8308SOL    MW433000   0.132   2.237   1.636  0.1674  0.2725  0.2463
 8309SOL     OW33001   2.075   1.885   5.648 -0.0480  0.4214 -0.2761
 8309SOL    HW233002   1.996   1.832   5.637 -0.9653  1.7405 -0.3269
 8309SOL    HW333003   2.045   1.975   5.633  1.3536  1.0028  0.2710
 8309SOL    MW433004   2.060   1.890   5.645  0.0159  0.6721 -0.2106
 8310SOL     OW33005   5.704   3.245   4.419 -0.2588  0.1913  0.0153
 8310SOL    HW233006   5.765   3.265   4.490  0.7813  0.7722 -0.9836
 8310SOL    HW333007   5.658   3.328   4.403 -0.1504  0.1991 -0.2760
 8310SOL    MW433008   5.706   3.259   4.426 -0.1072  0.2689 -0.1549
 8311SOL     OW33009   2.126   2.951   2.029 -0.0018  0.5078 -0.1231
 8311SOL    HW233010   2.067   3.012   1.985  0.6909  1.1601 -0.1595
 8311SOL    HW333011   2.214   2.979   2.003  0.3597 -0.0113  0.5050
 8311SOL    MW433012   2.130   2.963   2.020  0.1373  0.5253 -0.0451
 8312SOL     OW33013   6.111   0.220   6.282 -0.4820 -0.4413 -0.0064
 8312SOL    HW233014   6.066   0.195   6.363 -0.7615 -0.5021 -0.1771
 8312SOL    HW333015   6.065   0.300   6.253 -0.7452 -0.7293 -0.3958
 8312SOL    MW433016   6.099   0.227   6.289 -0.5536 -0.4873 -0.0803
 8313SOL     OW33017   3.000   0.460   3.107 -0.5246 -0.7132 -0.3885
 8313SOL    HW233018   2.982   0.375   3.146 -0.4630 -0.5780 -0.0600
 8313SOL    HW333019   2.913   0.497   3.090 -0.5511 -0.8276 -0.4985
 8313SOL    MW433020   2.986   0.454   3.110 -0.5199 -0.7105 -0.3596
 8314SOL     OW33021   1.416   3.194   2.479  0.1153 -0.2181 -0.6255
 8314SOL    HW233022   1.408   3.286   2.453 -1.1072 -0.3522 -0.7933
 8314SOL    HW333023   1.509   3.182   2.496 -0.0492  1.9598  2.8078
 8314SOL    MW433024   1.427   3.205   2.477 -0.0677  0.0516 -0.1946
 8315SOL     OW33025   3.865   4.419   3.065  0.0843  0.7561  1.2321
 8315SOL    HW233026   3.878   4.347   3.003  1.7334  1.2396  0.9837
 8315SOL    HW333027   3.787   4.465   3.033  0.3475  0.4199  0.0853
 8315SOL    MW433028   3.856   4.416   3.053  0.3366  0.7755  1.0480
 8316SOL     OW33029   0.487   4.106   4.616 -0.3483 -0.1299 -0.2263
 8316SOL    HW233030   0.503   4.065   4.701 -0.9035 -1.5016 -0.7669
 8316SOL    HW333031   0.404   4.154   4.628 -1.5765 -2.0753 -0.5708
 8316SOL    MW433032   0.478   4.107   4.629 -0.5836 -0.5676 -0.3431
 8317SOL     OW33033   5.833   5.876   2.398  0.2071 -0.5176 -0.4186
 8317SOL    HW233034   5.850   5.956   2.448 -0.6242 -1.0501  0.7717
 8317SOL    HW333035   5.763   5.899   2.338  0.8832 -0.0008 -1.0233
 8317SOL    MW433036   5.826   5.889   2.397  0.1866 -0.5197 -0.3413
 8318SOL     OW33037   1.149   1.165   3.880  0.4654  0.4681  0.3327
 8318SOL    HW233038   1.131   1.176   3.786  0.3467 -0.6623  0.2092
 8318SOL    HW333039   1.178   1.251   3.909 -0.1087  0.9974 -0.6070
 8318SOL    MW433040   1.150   1.178   3.871  0.3740  0.3888  0.1924
 8319SOL     OW33041   0.457   0.058   2.017  0.3124 -0.2033 -0.4828
 8319SOL    HW233042   0.500   0.094   1.940  0.5255  2.8605  0.9170
 8319SOL    HW333043   0.367   0.088   2.010  0.8199  2.0271  1.4205
 8319SOL    MW433044   0.451   0.067   2.006  0.4075  0.4952 -0.0470
 8320SOL     OW33045   0.532   3.752   3.142  0.4599 -0.3504  0.1731
 8320SOL    HW233046   0.600   3.712   3.197  0.9520 -0.2768 -0.3774
 8320SOL    HW333047   0.532   3.700   3.062 -1.4992 -1.5953  0.9098
 8320SOL    MW433048   0.541   3.740   3.139  0.2664 -0.5049  0.1977
 8321SOL     OW33049   5.906   3.868   2.590 -0.2716  0.2974  0.3527
 8321SOL    HW233050   5.868   3.787   2.624 -0.4499  0.2988  0.1532
 8321SOL    HW333051   5.848   3.937   2.621  1.2138  0.6261  2.6792
 8321SOL    MW433052   5.894   3.866   2.598 -0.0992  0.3410  0.6333
 8322SOL     OW33053   3.097   4.715   3.117 -0.0441  0.1756 -0.2145
 8322SOL    HW233054   3.175   4.769   3.132 -0.4984  0.5971  0.7101
 8322SOL    HW333055   3.131   4.631   3.087  0.8144  0.0943  0.9201
 8322SOL    MW433056   3.111   4.711   3.115  0.0092  0.2205  0.0572
 8323SOL     OW33057   2.245   1.777   2.224 -0.4155  0.3901  0.8004
 8323SOL    HW233058   2.311   1.766   2.292  1.7075 -0.5536 -1.2550
 8323SOL    HW333059   2.243   1.871   2.208  0.0132  0.4912  1.2999
 8323SOL    MW433060   2.254   1.788   2.231 -0.0788  0.2789  0.5951
 8324SOL     OW33061   1.293   0.920   6.343  0.1835  0.0296 -0.5634
 8324SOL    HW233062   1.344   0.929   6.263  0.0653  1.0322 -0.5384
 8324SOL    HW333063   1.329   0.842   6.386  1.3500  0.4182 -0.7974
 8324SOL    MW433064   1.305   0.910   6.338  0.3218  0.2131 -0.5910
 8325SOL     OW33065   3.972   2.592   1.479  0.3246 -0.0447 -0.4427
 8325SOL    HW233066   4.004   2.666   1.531  3.6128 -1.1248 -0.7275
 8325SOL    HW333067   3.888   2.623   1.444  1.3021  3.3745 -0.2044
 8325SOL    MW433068   3.965   2.606   1.481  0.8874  0.2639 -0.4488
 8326SOL     OW33069   2.471   5.910   1.500 -0.1048 -0.2119 -0.2675
 8326SOL    HW233070   2.514   5.825   1.510 -0.8164 -0.5166  0.3552
 8326SOL    HW333071   2.542   5.972   1.487  0.6175 -0.5591  1.6301
 8326SOL    MW433072   2.486   5.907   1.500 -0.1034 -0.2979  0.0650
 8327SOL     OW33073   5.868   6.354   6.129  0.4275 -0.1007 -0.0836
 8327SOL    HW233074   5.929   6.422   6.101  0.5677  0.7394  2.0701
 8327SOL    HW333075   5.919   6.298   6.188  0.3790 -2.2861 -1.9841
 8327SOL    MW433076   5.883   6.356   6.133  0.4396 -0.2782 -0.0502
 8328SOL     OW33077   2.139   5.054   4.182  0.0822 -0.4002 -0.0890
 8328SOL    HW233078   2.072   4.986   4.193 -0.1284 -0.0107  1.1808
 8328SOL    HW333079   2.095   5.122   4.129  0.2952 -1.2165 -1.3659
 8328SOL    MW433080   2.124   5.054   4.176  0.0825 -0.4565 -0.0900
 8329SOL     OW33081   4.925   1.069   1.115  0.0990 -0.0478  0.3238
 8329SOL    HW233082   4.999   1.068   1.176 -0.6570 -0.2662  1.2555
 8329SOL    HW333083   4.872   1.144   1.143  0.0292  0.1940 -0.4260
 8329SOL    MW433084   4.928   1.079   1.127 -0.0099 -0.0447  0.3478
 8330SOL     OW33085   3.197   1.911   5.386 -0.0135  0.2552  0.1297
 8330SOL    HW233086   3.129   1.963   5.428 -1.0295 -0.8130 -0.1102
 8330SOL    HW333087   3.251   1.879   5.458 -0.4889  0.1535  0.4475
 8330SOL    MW433088   3.195   1.913   5.401 -0.2103  0.1008  0.1400
 8331SOL     OW33089   4.995   4.000   1.514 -0.0982  0.1754 -0.0500
 8331SOL    HW233090   5.084   3.972   1.535 -0.7288 -1.5815  0.3874
 8331SOL    HW333091   4.939   3.933   1.551 -1.6486  1.4152 -0.0368
 8331SOL    MW433092   5.000   3.988   1.522 -0.3859  0.1072  0.0095
 8332SOL     OW33093   6.007   2.371   2.085  0.0807  0.1756 -0.6989
 8332SOL    HW233094   5.972   2.358   2.173 -1.4060 -0.7518 -1.3805
 8332SOL    HW333095   5.963   2.305   2.032 -0.6033  1.9967 -2.5451
 8332SOL    MW433096   5.996   2.361   2.089 -0.2057  0.2935 -1.0324
 8333SOL     OW33097   0.937   3.893   0.971  0.6726 -0.4643  0.0031
 8333SOL    HW233098   0.963   3.975   1.013  1.0923 -0.3900 -0.3936
 8333SOL    HW333099   0.881   3.850   1.036  0.9071 -0.1277  0.4379
 8333SOL    MW433100   0.933   3.898   0.985  0.7589 -0.4101  0.0081
 8334SOL     OW33101   5.085   5.101   3.626  1.0773  0.7653 -0.3725
 8334SOL    HW233102   5.083   5.143   3.540 -1.7516  2.0144  0.1881
 8334SOL    HW333103   5.040   5.018   3.613 -1.5952  2.0005  0.2563
 8334SOL    MW433104   5.079   5.096   3.613  0.3514  1.0931 -0.2156
 8335SOL     OW33105   0.869   2.423   4.077  0.7380  0.0106  0.3227
 8335SOL    HW233106   0.831   2.370   4.146 -0.5958  0.9166  0.3260
 8335SOL    HW333107   0.922   2.362   4.025 -0.8985 -1.3462  0.1949
 8335SOL    MW433108   0.871   2.408   4.080  0.3461 -0.0489  0.3063
 8336SOL     OW33109   2.717   3.272   4.956  0.0305  1.0562 -0.4185
 8336SOL    HW233110   2.802   3.310   4.935  1.1339 -0.0917  1.6650
 8336SOL    HW333111   2.736   3.181   4.979 -1.6515  0.9296  0.6719
 8336SOL    MW433112   2.730   3.265   4.957 -0.0458  0.8880  0.0003
 8337SOL     OW33113   5.099   2.015   1.399  0.1482 -0.3320  0.3076
 8337SOL    HW233114   5.066   2.105   1.394 -0.0404 -0.4493 -0.9093
 8337SOL    HW333115   5.165   2.010   1.330  1.4906 -0.6109  1.5736
 8337SOL    MW433116   5.103   2.026   1.389  0.3005 -0.3843  0.3141
 8338SOL     OW33117   2.858   3.834   0.434  0.1825  0.4407  0.3404
 8338SOL    HW233118   2.828   3.873   0.353 -0.4135  0.0273  0.3629
 8338SOL    HW333119   2.846   3.740   0.422  1.4634  0.2567  0.3476
 8338SOL    MW433120   2.853   3.826   0.422  0.2728  0.3619  0.3444
 8339SOL     OW33121   0.979   3.577   5.502 -0.9560 -0.4554 -0.1964
 8339SOL    HW233122   0.961   3.525   5.581 -3.3254  0.3409 -0.1242
 8339SOL    HW333123   0.908   3.641   5.499  0.0317  0.6407 -2.0829
 8339SOL    MW433124   0.967   3.579   5.512 -1.1383 -0.2057 -0.4358
 8340SOL     OW33125   4.322   3.561   1.722  0.0422 -0.0060 -0.1060
 8340SOL    HW233126   4.315   3.468   1.703  1.3340 -0.1239 -0.1269
 8340SOL    HW333127   4.234   3.596   1.708  0.1467 -0.6525 -3.1010
 8340SOL    MW433128   4.309   3.553   1.718  0.2264 -0.1069 -0.5039
 8341SOL     OW33129   6.021   5.423   3.248  0.2658  0.1532  0.5905
 8341SOL    HW233130   6.085   5.450   3.182  1.6312 -0.1337  1.7402
 8341SOL    HW333131   5.938   5.420   3.201  0.8348  1.8775 -0.6412
 8341SOL    MW433132   6.018   5.426   3.233  0.5210  0.3428  0.5797
 8342SOL     OW33133   2.881   1.230   5.183 -0.1715  0.2220 -0.0025
 8342SOL    HW233134   2.902   1.307   5.129  0.0360  0.2697  0.1431
 8342SOL    HW333135   2.827   1.265   5.254  1.0919  0.4918  0.8624
 8342SOL    MW433136   2.877   1.245   5.185  0.0226  0.2639  0.1308
 8343SOL     OW33137   2.387   0.404   6.187 -0.4856 -0.3075 -0.2630
 8343SOL    HW233138   2.365   0.317   6.154  1.0202 -0.5855 -0.6199
 8343SOL    HW333139   2.428   0.388   6.272  0.5651 -0.0305 -0.7041
 8343SOL    MW433140   2.389   0.391   6.194 -0.1483 -0.3076 -0.3683
 8344SOL     OW33141   3.532   3.384   5.687 -0.1066 -0.1794 -0.2925
 8344SOL    HW233142   3.584   3.356   5.762  1.1313  0.6064 -0.8170
 8344SOL    HW333143   3.595   3.393   5.616 -1.0498  0.2961 -1.1065
 8344SOL    MW433144   3.547   3.381   5.687 -0.0677 -0.0130 -0.4691
 8345SOL     OW33145   2.070   0.428   2.358 -0.5765  0.2332  0.8656
 8345SOL    HW233146   2.032   0.340   2.368 -1.5065  0.6128  0.8478
 8345SOL    HW333147   2.111   0.446   2.442 -2.2494  0.6108  1.6518
 8345SOL    MW433148   2.070   0.419   2.370 -0.9199  0.3331  0.9670
 8346SOL     OW33149   5.931   2.936   2.055  0.4663 -0.5129  0.1303
 8346SOL    HW233150   5.919   2.880   2.132  0.6725 -1.0783 -0.2416
 8346SOL    HW333151   5.842   2.966   2.033 -0.0786 -2.9667 -1.3375
 8346SOL    MW433152   5.917   2.933   2.063  0.4216 -0.9112 -0.1124
 8347SOL     OW33153   6.262   6.292   0.000 -0.4739 -0.0536 -0.1238
 8347SOL    HW233154   6.287   6.374   0.043 -1.8423 -0.0050  0.6410
 8347SOL    HW333155   6.223   6.239   0.069  0.8528 -1.5839 -0.5052
 8347SOL    MW433156   6.260   6.296   0.015 -0.4794 -0.2491 -0.0732
 8348SOL     OW33157   2.626   4.902   4.996  0.5774 -0.0601  0.0346
 8348SOL    HW233158   2.665   4.988   4.981  0.1395  0.3017  0.8440
 8348SOL    HW333159   2.540   4.907   4.954  0.6983 -0.2343 -0.2351
 8348SOL    MW433160   2.620   4.914   4.989  0.5356 -0.0354  0.1058
 8349SOL     OW33161   1.942   2.825   0.810  0.2436  0.1217  0.1398
 8349SOL    HW233162   1.953   2.849   0.902 -0.2604  1.2404 -0.0749
 8349SOL    HW333163   1.998   2.748   0.799  2.0182  1.2268  0.8609
 8349SOL    MW433164   1.951   2.818   0.821  0.4113  0.4151  0.2066
 8350SOL     OW33165   3.974   0.304   1.396 -0.3977 -0.3957  0.2351
 8350SOL    HW233166   3.999   0.291   1.305  0.1304  2.1166 -0.0374
 8350SOL    HW333167   4.056   0.325   1.441 -1.1817  3.2873  0.2514
 8350SOL    MW433168   3.988   0.305   1.390 -0.4314  0.4217  0.2013
 8351SOL     OW33169   2.848   1.809   2.605 -0.2554 -0.3838  0.7663
 8351SOL    HW233170   2.927   1.756   2.599  0.6164  0.3338  4.0867
 8351SOL    HW333171   2.878   1.899   2.596 -1.3307 -0.2032 -1.8868
 8351SOL    MW433172   2.862   1.814   2.603 -0.2823 -0.2653  0.8544
 8352SOL     OW33173   4.333   1.918   0.705 -0.4176 -0.2884 -0.0037
 8352SOL    HW233174   4.376   1.833   0.695  0.5827  0.0484  1.1354
 8352SOL    HW333175   4.390   1.966   0.765 -2.1558  0.3597  1.2111
 8352SOL    MW433176   4.346   1.913   0.712 -0.5150 -0.1585  0.3068
 8353SOL     OW33177   0.676   3.465   1.301 -0.0010  0.3235 -0.3247
 8353SOL    HW233178   0.640   3.540   1.348 -0.0425 -0.1749  0.4571
 8353SOL    HW333179   0.681   3.494   1.210  0.2982  1.3833  0.0176
 8353SOL    MW433180   0.672   3.479   1.295  0.0330  0.3976 -0.1764
 8354SOL     OW33181   3.954   3.758   4.917 -0.2588  0.3887  0.3904
 8354SOL    HW233182   3.873   3.764   4.867 -0.2533  1.4167  0.4841
 8354SOL    HW333183   3.969   3.664   4.927 -2.6039  0.1213  2.2470
 8354SOL    MW433184   3.946   3.746   4.912 -0.5675  0.4890  0.6477
 8355SOL     OW33185   4.104   2.678   1.720  0.1564  0.0106 -0.3056
 8355SOL    HW233186   4.029   2.734   1.741  0.1282 -0.5372  1.1501
 8355SOL    HW333187   4.079   2.591   1.751  1.3368 -0.2052  0.1155
 8355SOL    MW433188   4.091   2.674   1.727  0.3084 -0.0902 -0.0580
 8356SOL     OW33189   2.022   0.154   2.422 -0.0164 -0.5686 -0.6606
 8356SOL    HW233190   1.979   0.115   2.498 -1.7555  0.4513 -1.0604
 8356SOL    HW333191   2.105   0.106   2.413 -1.3884 -3.1499 -0.3171
 8356SOL    MW433192   2.028   0.143   2.431 -0.4269 -0.7746 -0.6680
 8357SOL     OW33193   2.950   5.803   0.337 -0.2598 -0.2524 -0.6421
 8357SOL    HW233194   2.882   5.786   0.272  0.0639 -2.0464 -0.5523
 8357SOL    HW333195   3.010   5.729   0.329  0.6733  0.3440  0.5670
 8357SOL    MW433196   2.949   5.791   0.327 -0.0940 -0.4104 -0.4708
 8358SOL     OW33197   0.454   0.886   3.671  0.1685 -0.2911 -0.6053
 8358SOL    HW233198   0.486   0.845   3.591  1.1917 -2.8459  0.9898
 8358SOL    HW333199   0.523   0.869   3.735 -1.0013  0.9143  1.0511
 8358SOL    MW433200   0.468   0.878   3.669  0.1491 -0.4691 -0.1763
 8359SOL     OW33201   3.120   1.729   6.319 -0.1953 -0.4669 -0.1277
 8359SOL    HW233202   3.131   1.790   6.392 -0.2628  0.0846 -0.5721
 8359SOL    HW333203   3.108   1.644   6.361  2.4531 -0.6401  0.4939
 8359SOL    MW433204   3.120   1.726   6.335  0.1452 -0.4170 -0.1043
 8360SOL     OW33205   6.221   4.073   1.520 -0.0510 -0.7236  0.8932
 8360SOL    HW233206   6.247   4.164   1.533  0.9936 -0.8221 -0.3276
 8360SOL    HW333207   6.126   4.076   1.506 -0.2170  0.0196  2.0153
 8360SOL    MW433208   6.212   4.085   1.520  0.0649 -0.6385  0.8802
 8361SOL     OW33209   6.157   1.085   3.364  0.0064  0.0812  0.0595
 8361SOL    HW233210   6.092   1.141   3.407  0.6889  0.6039  0.4357
 8361SOL    HW333211   6.177   1.130   3.282  0.9985  0.7426  0.6309
 8361SOL    MW433212   6.151   1.098   3.359  0.2273  0.2374  0.1845
 8362SOL     OW33213   3.913   1.553   6.369 -0.5972 -0.6446 -0.0129
 8362SOL    HW233214   3.855   1.591   6.436 -0.7670 -0.1510 -0.4331
 8362SOL    HW333215   3.989   1.521   6.419 -1.5317 -1.9621  0.6321
 8362SOL    MW433216   3.915   1.554   6.385 -0.7429 -0.7533  0.0167
 8363SOL     OW33217   4.516   2.514   5.545 -0.1960 -0.0253  0.0697
 8363SOL    HW233218   4.517   2.550   5.456 -1.4399 -1.9251 -0.7663
 8363SOL    HW333219   4.430   2.538   5.580  1.0156  2.5385  1.6626
 8363SOL    MW433220   4.505   2.522   5.538 -0.2003  0.0623  0.1696
 8364SOL     OW33221   0.042   4.342   1.694  0.5005  0.5288 -0.1196
 8364SOL    HW233222   0.093   4.380   1.765  0.6813 -0.2757  0.1972
 8364SOL    HW333223   0.102   4.339   1.620  1.2397 -1.2179  0.4881
 8364SOL    MW433224   0.056   4.346   1.694  0.6219  0.1922  0.0024
 8365SOL     OW33225   6.010   3.713   6.063 -0.3745  0.4228  0.6080
 8365SOL    HW233226   6.051   3.735   6.147 -1.3270  1.6749  0.7816
 8365SOL    HW333227   6.024   3.790   6.008 -0.5111 -0.0433 -0.0955
 8365SOL    MW433228   6.017   3.726   6.067 -0.5182  0.5265  0.5381
 8366SOL     OW33229   3.813   0.396   4.821  0.0698 -0.8729  0.0957
 8366SOL    HW233230   3.789   0.407   4.913  1.0142  2.1510  0.0808
 8366SOL    HW333231   3.888   0.337   4.822  0.5585 -0.2567  1.3640
 8366SOL    MW433232   3.820   0.389   4.833  0.2589 -0.3926  0.2611
 8367SOL     OW33233   5.396   4.209   2.050 -0.2005 -0.0974 -0.0094
 8367SOL    HW233234   5.435   4.291   2.020  1.0163 -0.8461 -0.5446
 8367SOL    HW333235   5.389   4.220   2.145  0.4582  0.4291 -0.0073
 8367SOL    MW433236   5.400   4.221   2.059  0.0470 -0.1268 -0.0797
 8368SOL     OW33237   1.489   2.352   2.326  0.1323  0.1940  0.2581
 8368SOL    HW233238   1.522   2.430   2.371 -1.6244  1.0182  0.2261
 8368SOL    HW333239   1.520   2.360   2.236  0.0984  0.7885  0.2958
 8368SOL    MW433240   1.497   2.364   2.320 -0.1039  0.3812  0.2589
 8369SOL     OW33241   3.030   4.061   2.579 -0.1291  0.2132 -0.2071
 8369SOL    HW233242   3.039   4.141   2.527  0.7330  0.2204 -0.0571
 8369SOL    HW333243   3.086   3.997   2.536 -1.4875 -0.5873 -0.8257
 8369SOL    MW433244   3.038   4.063   2.567 -0.1946  0.1085 -0.2689
 8370SOL     OW33245   3.022   2.776   2.099 -0.2351  0.1434 -0.0457
 8370SOL    HW233246   2.931   2.789   2.125 -0.4669 -0.3185 -0.5954
 8370SOL    HW333247   3.022   2.791   2.004  0.2496  0.0861 -0.0584
 8370SOL    MW433248   3.010   2.780   2.090 -0.2018  0.0749 -0.1199
 8371SOL     OW33249   5.362   6.425   1.465 -0.3419 -0.4252 -0.2992
 8371SOL    HW233250   5.436   6.484   1.477 -0.9260  0.3930 -0.6839
 8371SOL    HW333251   5.397   6.338   1.488  0.4844  0.0756  0.4027
 8371SOL    MW433252   5.377   6.421   1.470 -0.3099 -0.2511 -0.2574
 8372SOL     OW33253   2.943   6.131   3.409 -0.2224 -0.3640 -0.1546
 8372SOL    HW233254   2.928   6.051   3.359 -0.4359 -0.5445  0.1942
 8372SOL    HW333255   2.858   6.175   3.410 -0.1660 -0.2550 -0.1374
 8372SOL    MW433256   2.930   6.126   3.403 -0.2431 -0.3734 -0.1063
 8373SOL     OW33257   1.003   0.257   6.141 -0.0887  0.1345  0.0869
 8373SOL    HW233258   0.936   0.218   6.085  0.0202  0.2053 -0.0961
 8373SOL    HW333259   1.017   0.192   6.210 -0.1070 -0.0301 -0.0609
 8373SOL    MW433260   0.996   0.243   6.143 -0.0767  0.1221  0.0432
 8374SOL     OW33261   4.014   0.736   4.718 -0.0633  0.0039 -0.3861
 8374SOL    HW233262   4.010   0.825   4.753 -0.1035 -0.2172  0.1809
 8374SOL    HW333263   3.959   0.738   4.640 -0.8331  0.2414  0.1574
 8374SOL    MW433264   4.006   0.748   4.713 -0.1701  0.0061 -0.2396
 8375SOL     OW33265   0.942   2.113   0.235  0.0635  0.1554 -0.0913
 8375SOL    HW233266   0.856   2.073   0.249 -0.4323  1.6237  1.4201
 8375SOL    HW333267   0.927   2.206   0.248  1.6637  0.5726 -1.0366
 8375SOL    MW433268   0.929   2.120   0.239  0.2092  0.4042 -0.0166
 8376SOL     OW33269   5.816   4.061   6.356  0.1126  0.4659  0.2232
 8376SOL    HW233270   5.867   4.138   6.383 -0.1943  0.6890  0.1678
 8376SOL    HW333271   5.768   4.035   6.435 -0.0493  0.5404  0.1492
 8376SOL    MW433272   5.816   4.068   6.370  0.0507  0.5052  0.2061
 8377SOL     OW33273   4.521   0.205   5.381 -0.1944 -0.2075  0.0991
 8377SOL    HW233274   4.499   0.224   5.472 -0.7516 -0.1008 -0.0575
 8377SOL    HW333275   4.459   0.138   5.354 -0.3393  0.1017 -0.3449
 8377SOL    MW433276   4.510   0.199   5.390 -0.2870 -0.1526  0.0199
 8378SOL     OW33277   1.405   2.642   0.583  0.0878  0.0676 -0.9845
 8378SOL    HW233278   1.482   2.636   0.527 -0.1379  2.3166 -1.6280
 8378SOL    HW333279   1.331   2.647   0.522 -0.5337 -1.1311 -0.3851
 8378SOL    MW433280   1.405   2.642   0.567 -0.0240  0.2062 -0.9903
 8379SOL     OW33281   5.334   0.595   1.662  0.0572  0.3074 -0.0697
 8379SOL    HW233282   5.245   0.630   1.670  0.0512  0.8404 -2.0127
 8379SOL    HW333283   5.322   0.504   1.636  0.0941 -0.0131  0.9944
 8379SOL    MW433284   5.321   0.587   1.660  0.0613  0.3354 -0.1857
 8380SOL     OW33285   3.682   4.348   4.886 -0.0321  0.2645  0.6481
 8380SOL    HW233286   3.691   4.260   4.923 -3.0009 -0.1909  0.4779
 8380SOL    HW333287   3.702   4.338   4.793 -1.4114 -0.5075  0.4093
 8380SOL    MW433288   3.686   4.335   4.879 -0.6058  0.1025  0.5941
 8381SOL     OW33289   0.364   1.818   3.190  0.2166 -0.2665 -0.6245
 8381SOL    HW233290   0.437   1.787   3.243  0.5951 -1.4030 -1.7680
 8381SOL    HW333291   0.368   1.913   3.197 -0.1386 -0.3657  1.8678
 8381SOL    MW433292   0.374   1.826   3.198  0.2197 -0.4295 -0.4465
 8382SOL     OW33293   0.972   1.965   6.212  0.0598  0.0295 -0.5017
 8382SOL    HW233294   1.031   1.995   6.281 -1.1587 -0.6441  0.8836
 8382SOL    HW333295   1.009   2.001   6.131  2.7381 -0.9751  0.2018
 8382SOL    MW433296   0.985   1.974   6.210  0.2524 -0.1919 -0.2261
 8383SOL     OW33297   3.118   3.826   0.367 -0.5498  0.2135 -0.0847
 8383SOL    HW233298   3.030   3.817   0.403 -1.2831 -0.2192 -1.8470
 8383SOL    HW333299   3.108   3.888   0.295 -0.4644 -3.0672 -3.2153
 8383SOL    MW433300   3.105   3.833   0.362 -0.6353 -0.2764 -0.7303
 8384SOL     OW33301   0.096   4.757   3.040 -0.3147 -0.3108 -0.7312
 8384SOL    HW233302   0.162   4.809   2.994  1.0810 -1.2062  0.1978
 8384SOL    HW333303   0.070   4.690   2.976 -0.6724  0.2989 -1.2441
 8384SOL    MW433304   0.101   4.755   3.025 -0.1778 -0.3485 -0.6763
 8385SOL     OW33305   5.188   0.282   2.815 -0.0607 -0.0751  0.5070
 8385SOL    HW233306   5.137   0.286   2.734  1.9443 -1.6165 -0.9368
 8385SOL    HW333307   5.229   0.195   2.814  1.0769  0.3512  2.5350
 8385SOL    MW433308   5.187   0.271   2.804  0.3539 -0.2222  0.5841
 8386SOL     OW33309   2.445   3.522   3.546  0.2073 -0.4940  0.3408
 8386SOL    HW233310   2.404   3.609   3.548 -1.6542 -1.3135  0.5466
 8386SOL    HW333311   2.412   3.479   3.625  1.0956 -1.3967  0.2329
 8386SOL    MW433312   2.435   3.528   3.557  0.0789 -0.7212  0.3537
 8387SOL     OW33313   0.366   2.088   1.744  0.2191  0.4669  0.0377
 8387SOL    HW233314   0.406   2.150   1.805 -0.9537  0.6638  0.6343
 8387SOL    HW333315   0.319   2.026   1.800 -1.4645  1.0527 -0.6561
 8387SOL    MW433316   0.365   2.088   1.759 -0.1578  0.5702  0.0249
 8388SOL     OW33317   5.630   5.159   4.882 -0.0606  1.0258  0.1656
 8388SOL    HW233318   5.689   5.119   4.946 -1.0911  0.2822  0.6809
 8388SOL    HW333319   5.545   5.162   4.926 -0.6229  1.1939 -0.8994
 8388SOL    MW433320   5.626   5.154   4.896 -0.2707  0.9498  0.0931
 8389SOL     OW33321   4.489   6.290   1.676  0.1633  0.6940 -0.0459
 8389SOL    HW233322   4.500   6.303   1.582  0.0286 -1.6875 -0.4548
 8389SOL    HW333323   4.396   6.270   1.687  0.3771 -0.1114  0.4079
 8389SOL    MW433324   4.479   6.289   1.665  0.1737  0.2735 -0.0400
 8390SOL     OW33325   5.251   5.234   3.036 -0.1434  0.0284  0.6895
 8390SOL    HW233326   5.175   5.290   3.021 -0.8163 -1.1496 -0.4520
 8390SOL    HW333327   5.214   5.147   3.052  0.9338 -0.4000  0.9226
 8390SOL    MW433328   5.236   5.230   3.036 -0.0900 -0.1836  0.5696
 8391SOL     OW33329   6.088   2.657   2.885 -0.2779  0.3200 -0.2405
 8391SOL    HW233330   6.105   2.645   2.978 -1.0426 -0.8011 -0.2291
 8391SOL    HW333331   6.145   2.593   2.842 -1.0489 -0.2261 -0.4563
 8391SOL    MW433332   6.098   2.647   2.891 -0.4805  0.1000 -0.2674
 8392SOL     OW33333   0.583   1.596   3.217 -1.1431 -0.2334  0.1494
 8392SOL    HW233334   0.584   1.515   3.269  1.6309  0.3212  1.1737
 8392SOL    HW333335   0.563   1.567   3.128 -2.5122 -1.7080  0.8900
 8392SOL    MW433336   0.581   1.582   3.212 -0.9577 -0.3548  0.3823
 8393SOL     OW33337   0.282   3.859   3.210  0.4369 -0.4251  0.6449
 8393SOL    HW233338   0.356   3.805   3.183 -1.5839 -2.9200 -0.2630
 8393SOL    HW333339   0.240   3.885   3.129  0.5163  1.4053  1.1292
 8393SOL    MW433340   0.286   3.855   3.196  0.1807 -0.5128  0.5890
 8394SOL     OW33341   6.252   0.681   1.867  0.5206  0.0940 -0.3205
 8394SOL    HW233342   6.164   0.702   1.837  0.8222 -0.7850 -1.9640
 8394SOL    HW333343   6.239   0.622   1.941 -0.2906 -0.3751 -0.8225
 8394SOL    MW433344   6.239   0.676   1.872  0.4534 -0.0839 -0.6036
 8395SOL     OW33345   5.571   4.458   3.720  0.5969  0.1346 -0.2014
 8395SOL    HW233346   5.564   4.531   3.658 -1.2605 -0.5999 -0.9211
 8395SOL    HW333347   5.543   4.381   3.670 -0.5476 -0.5523  1.4105
 8395SOL    MW433348   5.566   4.458   3.705  0.2008 -0.0530 -0.0837
 8396SOL     OW33349   4.980   3.791   4.249 -0.1594  0.3192 -0.1341
 8396SOL    HW233350   4.957   3.726   4.315 -0.4971 -1.8098 -2.2029
 8396SOL    HW333351   4.898   3.838   4.233 -0.2294  0.4182  0.4999
 8396SOL    MW433352   4.966   3.789   4.255 -0.2132  0.0514 -0.3234
 8397SOL     OW33353   3.273   3.066   3.582 -0.6287  0.5800 -0.1950
 8397SOL    HW233354   3.179   3.049   3.588 -1.2748  3.4227 -0.5881
 8397SOL    HW333355   3.294   3.114   3.662  0.6778 -0.6460  0.2336
 8397SOL    MW433356   3.264   3.070   3.593 -0.5416  0.7933 -0.1903
 8398SOL     OW33357   2.017   5.374   5.877 -0.2088 -0.0850  0.1682
 8398SOL    HW233358   1.980   5.410   5.797 -2.9195 -2.0361  0.3991
 8398SOL    HW333359   2.112   5.381   5.865 -0.5385  1.2778 -2.4015
 8398SOL    MW433360   2.025   5.380   5.865 -0.6099 -0.1626 -0.1403
 8399SOL     OW33361   1.188   6.039   1.551 -0.2986 -0.4062  0.0777
 8399SOL    HW233362   1.124   6.107   1.573  0.0740 -0.3173  0.9351
 8399SOL    HW333363   1.265   6.088   1.522 -0.2476 -0.4786  0.0923
 8399SOL    MW433364   1.190   6.055   1.550 -0.2427 -0.4040  0.1927
 8400SOL     OW33365   3.937   1.069   5.675  0.1374 -0.1129  0.2938
 8400SOL    HW233366   3.919   1.126   5.750 -0.5032 -0.1253  0.1564
 8400SOL    HW333367   3.942   1.129   5.600  1.6597  0.0047  0.4538
 8400SOL    MW433368   3.935   1.085   5.675  0.2537 -0.0990  0.2968
 8401SOL     OW33369   2.364   6.292   2.804 -0.4214  0.3008 -0.0876
 8401SOL    HW233370   2.275   6.290   2.770 -0.3000 -0.5571 -0.3679
 8401SOL    HW333371   2.380   6.204   2.837 -0.1627  0.8230  1.2493
 8401SOL    MW433372   2.355   6.280   2.804 -0.3713  0.2565  0.0519
 8402SOL     OW33373   5.550   3.631   0.244  0.0873 -0.0773  0.1940
 8402SOL    HW233374   5.513   3.565   0.185  0.3827 -0.8094  0.8180
 8402SOL    HW333375   5.643   3.609   0.250  0.5375  1.3845 -0.8815
 8402SOL    MW433376   5.558   3.619   0.237  0.1857  0.0189  0.1344
 8403SOL     OW33377   3.441   4.254   5.715  0.4789  0.0138 -0.0128
 8403SOL    HW233378   3.406   4.330   5.668 -0.4058 -0.6743 -0.4934
 8403SOL    HW333379   3.527   4.239   5.676 -0.2424 -0.5507 -1.4615
 8403SOL    MW433380   3.448   4.262   5.704  0.2670 -0.1514 -0.2673
 8404SOL     OW33381   1.610   1.259   1.381 -0.3690  0.4998 -0.1392
 8404SOL    HW233382   1.517   1.239   1.373 -0.1379 -0.2932 -0.9987
 8404SOL    HW333383   1.612   1.344   1.427 -1.5713  1.3629 -1.5887
 8404SOL    MW433384   1.598   1.268   1.386 -0.4972  0.5090 -0.4438
 8405SOL     OW33385   4.148   6.038   0.791  0.4223 -0.1449 -0.5975
 8405SOL    HW233386   4.085   6.093   0.838  0.3226 -2.0949  1.7942
 8405SOL    HW333387   4.233   6.063   0.826  0.3034 -1.9740  1.1884
 8405SOL    MW433388   4.151   6.048   0.802  0.3935 -0.6435 -0.0463
 8406SOL     OW33389   4.185   4.195   1.006 -0.2406  0.1700 -0.1385
 8406SOL    HW233390   4.250   4.148   1.058  0.0165  0.9732  0.2896
 8406SOL    HW333391   4.222   4.196   0.917  0.4357  0.7608  0.1330
 8406SOL    MW433392   4.198   4.189   1.001 -0.1174  0.3539 -0.0462
 8407SOL     OW33393   4.260   0.066   1.479  0.1585 -0.0144  0.3190
 8407SOL    HW233394   4.348   0.103   1.477  0.5792 -0.8951  1.3282
 8407SOL    HW333395   4.202   0.141   1.495  0.6893  0.6009 -0.5847
 8407SOL    MW433396   4.264   0.081   1.481  0.2840 -0.0494  0.3329
 8408SOL     OW33397   1.235   5.757   3.722  0.2109  0.1985  0.0361
 8408SOL    HW233398   1.312   5.814   3.720 -0.1182  0.6181 -0.7713
 8408SOL    HW333399   1.206   5.752   3.631 -0.2435 -0.6145  0.2134
 8408SOL    MW433400   1.242   5.764   3.710  0.1075  0.1466 -0.0471
 8409SOL     OW33401   0.003   6.131   5.471 -0.0252  0.4941  0.7650
 8409SOL    HW233402   0.094   6.128   5.501  0.1508  1.0298  0.2978
 8409SOL    HW333403  -0.041   6.064   5.523  1.2299 -1.8668 -1.0017
 8409SOL    MW433404   0.009   6.122   5.482  0.1636  0.2533  0.4703
 8410SOL     OW33405   3.302   1.661   6.125  0.3070  0.5234  0.4493
 8410SOL    HW233406   3.273   1.688   6.213 -1.5073  1.5100 -0.4075
 8410SOL    HW333407   3.238   1.596   6.098  1.3070 -0.3663  0.1160
 8410SOL    MW433408   3.290   1.656   6.133  0.1996  0.5362  0.2923
 8411SOL     OW33409   4.120   1.975   2.612  0.0865  1.2328 -0.4899
 8411SOL    HW233410   4.153   1.900   2.562  0.6344 -0.0267  1.6598
 8411SOL    HW333411   4.027   1.980   2.589  0.0518 -0.0914 -0.6836
 8411SOL    MW433412   4.112   1.966   2.602  0.1542  0.8919 -0.2319
 8412SOL     OW33413   0.422   3.802   2.832  0.1162  0.1251 -0.5079
 8412SOL    HW233414   0.400   3.856   2.756  2.7110 -1.2025 -2.3420
 8412SOL    HW333415   0.431   3.713   2.797 -0.7639 -0.9738  1.8070
 8412SOL    MW433416   0.420   3.797   2.817  0.3424 -0.1950 -0.4445
 8413SOL     OW33417   0.638   1.094   3.451  0.4540  0.4105  0.1256
 8413SOL    HW233418   0.559   1.125   3.496  0.1343  1.0022 -0.8334
 8413SOL    HW333419   0.689   1.051   3.520 -0.8017 -0.1849  0.7130
 8413SOL    MW433420   0.635   1.092   3.466  0.2461  0.4100  0.0766
 8414SOL     OW33421   1.472   2.747   2.200  0.4920 -0.7421 -0.9033
 8414SOL    HW233422   1.403   2.687   2.170 -1.4104  0.1819  1.3418
 8414SOL    HW333423   1.503   2.709   2.282 -0.1252  0.8328  0.1073
 8414SOL    MW433424   1.467   2.734   2.207  0.1596 -0.4124 -0.4738
 8415SOL     OW33425   1.766   4.335   6.383 -0.0364 -0.7259 -0.2974
 8415SOL    HW233426   1.739   4.267   6.320 -1.5954  0.3716 -0.8942
 8415SOL    HW333427   1.792   4.409   6.328  1.9201 -0.8898  0.3426
 8415SOL    MW433428   1.766   4.336   6.367  0.0160 -0.6027 -0.2917
 8416SOL     OW33429   1.140   5.712   3.021  0.0265  0.7560  0.4889
 8416SOL    HW233430   1.071   5.646   3.021 -0.4443  1.2374  1.0626
 8416SOL    HW333431   1.202   5.682   3.087 -0.1914  0.8850  0.7558
 8416SOL    MW433432   1.139   5.699   3.029 -0.0644  0.8365  0.5998
 8417SOL     OW33433   1.837   1.999   6.123  0.4684  0.0415 -0.5172
 8417SOL    HW233434   1.890   1.993   6.043  0.0827  0.3635 -0.7985
 8417SOL    HW333435   1.757   1.951   6.102  0.1032  0.6529 -0.5455
 8417SOL    MW433436   1.833   1.991   6.109  0.3693  0.1646 -0.5580
 8418SOL     OW33437   1.017   5.462   4.966  0.2627 -0.0689  0.2985
 8418SOL    HW233438   1.032   5.550   5.001 -0.1082  0.3379 -0.5258
 8418SOL    HW333439   1.090   5.448   4.906  0.1511 -0.1981  0.1930
 8418SOL    MW433440   1.028   5.472   4.963  0.1991 -0.0323  0.1759
 8419SOL     OW33441   4.727   3.116   1.649  0.3583 -0.2457  0.2228
 8419SOL    HW233442   4.681   3.135   1.568  0.0383 -4.4259 -0.8047
 8419SOL    HW333443   4.819   3.131   1.629  0.1929 -0.2617 -0.5814
 8419SOL    MW433444   4.733   3.120   1.636  0.2943 -0.7994 -0.0189
 8420SOL     OW33445   3.860   1.626   0.982 -0.4093 -0.3742 -0.0922
 8420SOL    HW233446   3.788   1.584   1.029 -0.5697 -1.1960 -1.0358
 8420SOL    HW333447   3.930   1.562   0.983  1.5595  1.5251  3.5026
 8420SOL    MW433448   3.859   1.612   0.988 -0.1707 -0.2320  0.2576
 8421SOL     OW33449   0.666   3.037   3.593 -0.2017 -0.0665 -0.3011
 8421SOL    HW233450   0.730   3.059   3.526 -0.0071 -0.6261 -0.3077
 8421SOL    HW333451   0.686   3.095   3.666 -0.8180  0.9882 -0.9569
 8421SOL    MW433452   0.677   3.047   3.594 -0.2573 -0.0012 -0.3885
 8422SOL     OW33453   5.497   0.667   4.751 -0.4224  0.0711 -0.2420
 8422SOL    HW233454   5.426   0.632   4.698  2.1809 -1.3964 -3.0803
 8422SOL    HW333455   5.568   0.604   4.741  0.4273 -0.2767  5.0582
 8422SOL    MW433456   5.497   0.654   4.743  0.0331 -0.1684  0.0828
 8423SOL     OW33457   0.886   2.943   0.496  0.2180 -0.0980 -0.2182
 8423SOL    HW233458   0.967   2.992   0.485 -1.3064  2.4992 -0.4628
 8423SOL    HW333459   0.884   2.884   0.421  0.4898  1.9008 -1.8707
 8423SOL    MW433460   0.897   2.941   0.485  0.0527  0.5084 -0.4685
 8424SOL     OW33461   3.469   5.174   0.013 -0.0628 -0.1548  0.2421
 8424SOL    HW233462   3.526   5.216  -0.051 -0.2558  0.1694  0.2797
 8424SOL    HW333463   3.462   5.083  -0.017  0.8957 -0.3402  0.5336
 8424SOL    MW433464   3.476   5.168   0.001  0.0382 -0.1365  0.2855
 8425SOL     OW33465   6.251   2.415   3.833  0.0815  0.1126  0.0684
 8425SOL    HW233466   6.285   2.488   3.781 -2.2735  0.8466 -0.5740
 8425SOL    HW333467   6.204   2.457   3.906 -0.1631 -0.8005  0.4540
 8425SOL    MW433468   6.249   2.430   3.836 -0.2615  0.0890  0.0345
 8426SOL     OW33469   6.117   5.981   6.099 -0.0185  0.1042 -0.1112
 8426SOL    HW233470   6.199   5.937   6.078  0.8672  2.0955 -1.1006
 8426SOL    HW333471   6.064   5.914   6.144  2.1184 -1.2224  0.5559
 8426SOL    MW433472   6.121   5.966   6.102  0.3803  0.1919 -0.1537
 8427SOL     OW33473   1.507   4.915   3.808 -0.1671  0.0857  0.1413
 8427SOL    HW233474   1.451   4.972   3.861  0.3634  1.4468 -0.7073
 8427SOL    HW333475   1.580   4.893   3.866  0.1786  1.1825  0.1324
 8427SOL    MW433476   1.509   4.919   3.823 -0.0515  0.4100  0.0282
 8428SOL     OW33477   3.946   4.291   1.328  0.0703  0.3113 -0.3004
 8428SOL    HW233478   3.915   4.361   1.385  0.0890  0.6021 -0.6454
 8428SOL    HW333479   3.991   4.336   1.256  1.3764 -0.0965  0.2256
 8428SOL    MW433480   3.948   4.306   1.326  0.2451  0.2959 -0.2766
 8429SOL     OW33481   3.814   2.635   1.080 -0.2074 -0.2839  0.3134
 8429SOL    HW233482   3.830   2.724   1.110  0.1583  0.2685 -1.3862
 8429SOL    HW333483   3.724   2.637   1.046  0.4695  0.0144 -1.5590
 8429SOL    MW433484   3.804   2.647   1.079 -0.0698 -0.1717 -0.1579
 8430SOL     OW33485   0.764   0.178   0.727  0.0642  0.1918 -0.2933
 8430SOL    HW233486   0.743   0.254   0.780 -0.4886 -0.8060  0.9531
 8430SOL    HW333487   0.681   0.133   0.714  0.3194 -0.0054 -1.3470
 8430SOL    MW433488   0.750   0.182   0.732  0.0249  0.0341 -0.2679
 8431SOL     OW33489   4.153   4.347   6.226  0.0158 -0.3763 -0.1370
 8431SOL    HW233490   4.109   4.279   6.175  1.4692 -1.0023 -0.5810
 8431SOL    HW333491   4.219   4.383   6.167  0.3594  0.2991  0.6396
 8431SOL    MW433492   4.156   4.343   6.212  0.2528 -0.3698 -0.0931
 8432SOL     OW33493   5.164   6.365   1.013  0.2327  0.1409 -0.8182
 8432SOL    HW233494   5.223   6.293   0.991  0.7230  0.2040  0.2531
 8432SOL    HW333495   5.190   6.436   0.955 -0.5145 -0.6369 -2.1780
 8432SOL    MW433496   5.175   6.365   1.002  0.1988  0.0466 -0.8563
 8433SOL     OW33497   1.189   3.600   1.174  0.0246 -0.0948  0.5497
 8433SOL    HW233498   1.272   3.611   1.221  0.2194 -0.2810  0.2596
 8433SOL    HW333499   1.201   3.648   1.092  0.9953 -2.5127 -0.8539
 8433SOL    MW433500   1.202   3.607   1.169  0.1784 -0.4384  0.3262
 8434SOL     OW33501   2.437   0.526   5.230  0.4505  0.3370 -0.4694
 8434SOL    HW233502   2.453   0.438   5.199  0.0169 -0.7202  2.0384
 8434SOL    HW333503   2.358   0.554   5.184  0.4640 -0.6581 -1.1240
 8434SOL    MW433504   2.429   0.518   5.220  0.3950  0.0662 -0.2249
 8435SOL     OW33505   4.118   2.419   3.574  0.2290  0.0929  0.0712
 8435SOL    HW233506   4.184   2.482   3.547  2.9235 -1.7519  1.7581
 8435SOL    HW333507   4.132   2.409   3.669 -1.0994 -1.8979  0.1276
 8435SOL    MW433508   4.128   2.426   3.583  0.4092 -0.4132  0.3012
 8436SOL     OW33509   5.016   1.299   0.415  0.4459 -0.0163  0.6049
 8436SOL    HW233510   5.093   1.354   0.430  0.6024 -0.1938  0.4617
 8436SOL    HW333511   4.966   1.305   0.496  1.8427 -1.8924  1.6800
 8436SOL    MW433512   5.020   1.307   0.427  0.6508 -0.2872  0.7278
 8437SOL     OW33513   2.406   6.128   0.799 -0.0195 -0.3067 -0.2935
 8437SOL    HW233514   2.433   6.093   0.714  1.9086  1.3251 -0.4377
 8437SOL    HW333515   2.345   6.199   0.778 -0.0246 -0.3114 -0.2945
 8437SOL    MW433516   2.401   6.133   0.785  0.2342 -0.0921 -0.3126
 8438SOL     OW33517   4.428   0.286   3.242 -0.0400  0.2718  0.4940
 8438SOL    HW233518   4.380   0.270   3.324  0.5928  1.1790  1.0569
 8438SOL    HW333519   4.402   0.374   3.216  0.1655  0.1841 -0.0195
 8438SOL    MW433520   4.418   0.295   3.249  0.0706  0.3799  0.5005
 8439SOL     OW33521   5.900   1.153   3.496  0.2515 -0.1553  0.8892
 8439SOL    HW233522   5.838   1.080   3.490  1.4947 -1.3211  1.6348
 8439SOL    HW333523   5.855   1.219   3.548  0.2014 -1.6634  2.8843
 8439SOL    MW433524   5.886   1.152   3.502  0.4089 -0.5080  1.2508
 8440SOL     OW33525   1.667   5.465   5.402 -0.0835 -0.3049  0.1179
 8440SOL    HW233526   1.655   5.557   5.427 -2.1224 -0.3619 -0.5107
 8440SOL    HW333527   1.579   5.429   5.401  0.6973 -2.3724  0.6151
 8440SOL    MW433528   1.654   5.472   5.405 -0.2495 -0.5852  0.1005
 8441SOL     OW33529   5.590   0.166   1.474  0.6746  0.6193  0.4411
 8441SOL    HW233530   5.585   0.234   1.407 -0.9107  0.2997  0.1839
 8441SOL    HW333531   5.647   0.202   1.542  1.5494  1.3257 -0.6461
 8441SOL    MW433532   5.597   0.179   1.474  0.5809  0.6703  0.2637
 8442SOL     OW33533   5.236   6.237   4.343  0.1014  0.4692  0.4962
 8442SOL    HW233534   5.183   6.264   4.268 -0.3843  0.1650  0.7284
 8442SOL    HW333535   5.209   6.294   4.414  1.2088  1.3774  0.2264
 8442SOL    MW433536   5.226   6.248   4.342  0.1834  0.5489  0.4912
 8443SOL     OW33537   4.321   3.492   2.520  0.1177 -0.1768  0.3678
 8443SOL    HW233538   4.372   3.455   2.448 -1.8502  0.3129 -1.3744
 8443SOL    HW333539   4.353   3.582   2.529 -2.7259  1.4830 -3.3377
 8443SOL    MW433540   4.332   3.499   2.512 -0.5171  0.1068 -0.3510
 8444SOL     OW33541   1.069   6.002   6.286  0.4189  0.7456  0.6527
 8444SOL    HW233542   1.046   6.070   6.223  1.2052  0.4089 -0.0087
 8444SOL    HW333543   0.986   5.956   6.303  0.3285  0.3280 -0.7578
 8444SOL    MW433544   1.055   6.005   6.280  0.5107  0.6461  0.3794
 8445SOL     OW33545   2.248   5.585   0.875 -0.2525 -0.0402  0.5537
 8445SOL    HW233546   2.181   5.535   0.922  0.4405  0.7312  2.4371
 8445SOL    HW333547   2.329   5.567   0.922  0.6918 -0.0669 -1.0265
 8445SOL    MW433548   2.250   5.576   0.887 -0.0365  0.0581  0.5937
 8446SOL     OW33549   2.231   2.660   5.927  0.0956 -0.2143  0.3281
 8446SOL    HW233550   2.164   2.728   5.927  0.3349  0.0346  1.5093
 8446SOL    HW333551   2.190   2.585   5.970  0.6842  0.0664  1.4100
 8446SOL    MW433552   2.217   2.659   5.932  0.2049 -0.1444  0.6267
 8447SOL     OW33553   5.452   0.091   4.610 -0.1972  0.0199  0.3554
 8447SOL    HW233554   5.486   0.067   4.524  0.5049 -0.5651  0.7767
 8447SOL    HW333555   5.518   0.151   4.646 -0.6837  0.5714  0.3259
 8447SOL    MW433556   5.466   0.096   4.603 -0.1688  0.0155  0.4071
 8448SOL     OW33557   5.841   3.605   2.246 -0.3643  0.1898 -0.2146
 8448SOL    HW233558   5.792   3.685   2.229  0.3232  1.0770  1.6343
 8448SOL    HW333559   5.784   3.553   2.303  0.1173  0.4566  0.5305
 8448SOL    MW433560   5.827   3.608   2.251 -0.2101  0.3421  0.1277
 8449SOL     OW33561   0.397   4.171   0.773  0.0145 -0.0858  0.4093
 8449SOL    HW233562   0.415   4.234   0.843 -0.9468  1.9371 -1.0819
 8449SOL    HW333563   0.473   4.177   0.716 -1.1084  1.6054 -1.0063
 8449SOL    MW433564   0.409   4.180   0.775 -0.2605  0.4043  0.0258
 8450SOL     OW33565   0.111   4.437   3.831  0.0202  0.7435  0.4079
 8450SOL    HW233566   0.165   4.418   3.908  0.1430  2.4286  0.7731
 8450SOL    HW333567   0.021   4.434   3.864  0.0903  1.9139  0.7553
 8450SOL    MW433568   0.106   4.434   3.846  0.0457  1.1202  0.5019
 8451SOL     OW33569   4.846   4.888   4.912 -0.4284  0.5178 -0.2751
 8451SOL    HW233570   4.761   4.932   4.912 -0.2037  0.9549 -0.8403
 8451SOL    HW333571   4.869   4.882   5.005 -1.1585  0.2252 -0.0998
 8451SOL    MW433572   4.837   4.893   4.924 -0.4951  0.5368 -0.3265
 8452SOL     OW33573   3.758   3.482   0.127  0.3026 -0.3840 -0.2596
 8452SOL    HW233574   3.851   3.502   0.120 -0.0511  0.8848 -2.1409
 8452SOL    HW333575   3.753   3.414   0.194  2.6147 -0.7923 -0.4083
 8452SOL    MW433576   3.769   3.476   0.135  0.5610 -0.2704 -0.5275
 8453SOL     OW33577   4.947   4.057   5.539  0.0318  0.3340  0.2639
 8453SOL    HW233578   4.952   4.111   5.460  0.9615 -0.9790 -0.6139
 8453SOL    HW333579   4.944   3.967   5.507 -0.0828 -0.2135  1.7207
 8453SOL    MW433580   4.947   4.052   5.524  0.1394  0.0885  0.3403
 8454SOL     OW33581   0.394   1.623   4.013 -0.1183  0.1730  0.1483
 8454SOL    HW233582   0.459   1.661   4.073 -0.8739 -0.0050  1.0917
 8454SOL    HW333583   0.311   1.661   4.041 -0.3918  0.7690 -1.3556
 8454SOL    MW433584   0.392   1.633   4.025 -0.2541  0.2281  0.0743
 8455SOL     OW33585   2.811   3.029   2.066 -0.5374 -0.2342 -0.0806
 8455SOL    HW233586   2.781   2.975   1.992 -0.8053 -0.4340  0.1742
 8455SOL    HW333587   2.732   3.068   2.101 -0.2424  1.2944 -0.9948
 8455SOL    MW433588   2.797   3.027   2.061 -0.5338 -0.0589 -0.1676
 8456SOL     OW33589   4.635   5.795   3.769 -0.4449  0.0892  0.3566
 8456SOL    HW233590   4.639   5.871   3.828 -0.1647  0.2477  0.1330
 8456SOL    HW333591   4.646   5.720   3.827 -1.1826  0.1893  0.6431
 8456SOL    MW433592   4.637   5.795   3.785 -0.5053  0.1233  0.3649
 8457SOL     OW33593   2.519   5.148   5.614  0.4763 -0.0588 -0.4841
 8457SOL    HW233594   2.516   5.073   5.556  2.4143  1.7917 -3.2277
 8457SOL    HW333595   2.445   5.203   5.587  0.9719  0.4944 -0.7348
 8457SOL    MW433596   2.509   5.146   5.603  0.7974  0.2584 -0.8792
 8458SOL     OW33597   2.390   0.930   2.919  0.1617  0.1547  0.3017
 8458SOL    HW233598   2.395   0.861   2.985  2.4594  0.7825  0.8931
 8458SOL    HW333599   2.473   0.977   2.927 -0.0669  1.1409 -2.1093
 8458SOL    MW433600   2.401   0.927   2.929  0.4347  0.3676  0.0616
 8459SOL     OW33601   0.851   4.540   5.686 -0.6636 -0.3038 -0.7401
 8459SOL    HW233602   0.764   4.549   5.723 -0.6364  0.9255 -0.9057
 8459SOL    HW333603   0.884   4.630   5.682  1.1400 -0.8500  0.5613
 8459SOL    MW433604   0.844   4.553   5.690 -0.4221 -0.2137 -0.5902
 8460SOL     OW33605   2.595   1.303   0.021 -0.0785  0.4182  0.1451
 8460SOL    HW233606   2.599   1.280   0.114  0.5111 -1.5011 -0.3156
 8460SOL    HW333607   2.504   1.284  -0.005  0.2216 -0.8109 -0.0653
 8460SOL    MW433608   2.583   1.297   0.030  0.0389  0.0028  0.0565
 8461SOL     OW33609   2.600   4.084   2.732 -0.2234 -0.2695  0.2056
 8461SOL    HW233610   2.624   4.092   2.824 -0.5796  0.5655  0.2309
 8461SOL    HW333611   2.683   4.085   2.685 -0.0668 -0.1474  0.4845
 8461SOL    MW433612   2.614   4.085   2.738 -0.2497 -0.1432  0.2458
 8462SOL     OW33613   3.846   0.640   3.079 -0.2271 -0.0359 -0.0696
 8462SOL    HW233614   3.939   0.659   3.091 -0.3869  0.9932 -0.3525
 8462SOL    HW333615   3.809   0.647   3.167  0.0068 -0.7212  0.0860
 8462SOL    MW433616   3.853   0.643   3.092 -0.2173  0.0095 -0.0864
 8463SOL     OW33617   3.620   3.238   3.569 -0.7355  0.2047  0.2614
 8463SOL    HW233618   3.642   3.281   3.652  0.5206  0.3753 -0.1369
 8463SOL    HW333619   3.664   3.153   3.574 -0.3983  0.3357 -0.3328
 8463SOL    MW433620   3.629   3.233   3.581 -0.5253  0.2445  0.1304
 8464SOL     OW33621   0.056   3.777   4.610 -0.2398  0.2341  0.1726
 8464SOL    HW233622  -0.001   3.775   4.533  1.1870 -2.6540 -0.9596
 8464SOL    HW333623   0.142   3.801   4.576  0.1224  0.3571  1.1324
 8464SOL    MW433624   0.060   3.780   4.595 -0.0037 -0.1307  0.1499
 8465SOL     OW33625   3.840   3.170   4.395 -0.8136 -0.6558  0.8185
 8465SOL    HW233626   3.786   3.117   4.455 -2.2240  0.8943  1.0007
 8465SOL    HW333627   3.844   3.118   4.315  0.6887 -2.5412  2.0482
 8465SOL    MW433628   3.833   3.156   4.392 -0.8015 -0.7000  1.0048
 8466SOL     OW33629   1.953   0.675   1.729  0.7069  0.2833 -0.0218
 8466SOL    HW233630   2.017   0.744   1.710  0.6208  0.4549  0.3032
 8466SOL    HW333631   1.875   0.722   1.757  0.9661  0.0372  1.1876
 8466SOL    MW433632   1.951   0.690   1.730  0.7297  0.2734  0.1806
 8467SOL     OW33633   1.774   5.178   6.411 -0.1808  0.0162 -0.1313
 8467SOL    HW233634   1.848   5.239   6.409  0.6339 -0.9336  0.1911
 8467SOL    HW333635   1.770   5.144   6.322  0.3897 -0.6416  0.0881
 8467SOL    MW433636   1.783   5.182   6.399  0.0020 -0.1959 -0.0598
 8468SOL     OW33637   1.419   6.273   2.139 -0.3133  0.2983 -0.2592
 8468SOL    HW233638   1.488   6.297   2.077 -0.9759  1.0347 -0.7196
 8468SOL    HW333639   1.462   6.275   2.224  0.4135  0.0235 -0.6084
 8468SOL    MW433640   1.434   6.276   2.142 -0.3048  0.3592 -0.3660
 8469SOL     OW33641   5.505   0.383   1.308 -0.2817  0.2077 -0.5079
 8469SOL    HW233642   5.434   0.385   1.372 -0.3514  1.1365 -0.6038
 8469SOL    HW333643   5.579   0.422   1.353  0.5581 -1.8673  0.0140
 8469SOL    MW433644   5.505   0.388   1.322 -0.1801  0.0565 -0.4517
 8470SOL     OW33645   6.053   3.218   6.243  0.2261  0.3639 -0.7190
 8470SOL    HW233646   6.087   3.184   6.160  0.5044 -0.7787 -0.1579
 8470SOL    HW333647   6.072   3.311   6.241 -0.4752  0.4977 -2.2749
 8470SOL    MW433648   6.060   3.226   6.232  0.1703  0.2308 -0.8503
 8471SOL     OW33649   4.769   4.420   1.719 -0.4877 -0.0149  0.7495
 8471SOL    HW233650   4.749   4.488   1.655  0.0928  0.1755  0.7697
 8471SOL    HW333651   4.862   4.430   1.737 -0.5036 -0.5003  1.1214
 8471SOL    MW433652   4.778   4.430   1.713 -0.4132 -0.0538  0.8013
 8472SOL     OW33653   1.120   1.483   3.659 -0.3786 -0.1374 -0.3066
 8472SOL    HW233654   1.120   1.516   3.749 -1.5390  0.3910 -0.4792
 8472SOL    HW333655   1.209   1.498   3.628  0.2789 -1.1295  1.0319
 8472SOL    MW433656   1.132   1.489   3.667 -0.4450 -0.1986 -0.1528
 8473SOL     OW33657   0.237   0.755   1.131 -0.4485  0.3232 -0.4554
 8473SOL    HW233658   0.251   0.835   1.182 -0.1906  1.7625 -2.6141
 8473SOL    HW333659   0.199   0.693   1.193  0.9675  1.5104  1.7596
 8473SOL    MW433660   0.234   0.757   1.146 -0.2277  0.6698 -0.4480
 8474SOL     OW33661   4.687   0.719   2.597 -0.0821  0.0044 -0.4146
 8474SOL    HW233662   4.739   0.680   2.668 -0.4568  0.8338  0.3334
 8474SOL    HW333663   4.716   0.672   2.519  3.0241  1.5011 -0.3285
 8474SOL    MW433664   4.698   0.707   2.596  0.2783  0.3113 -0.3046
 8475SOL     OW33665   2.680   3.006   5.038  1.2046  0.6873 -0.1573
 8475SOL    HW233666   2.626   2.936   5.001 -0.3942  0.7334  1.9188
 8475SOL    HW333667   2.728   2.964   5.110  0.5778  1.5632  0.8150
 8475SOL    MW433668   2.680   2.991   5.043  0.9109  0.8090  0.2449
 8476SOL     OW33669   1.453   2.473   3.941 -0.1770 -0.3734 -0.4001
 8476SOL    HW233670   1.468   2.536   3.871 -1.0524  1.5643  1.0606
 8476SOL    HW333671   1.524   2.489   4.004 -1.2995  0.3239  0.7374
 8476SOL    MW433672   1.465   2.484   3.940 -0.4406 -0.0257 -0.0573
 8477SOL     OW33673   4.990   2.009   3.934  0.2410  0.4998  0.1830
 8477SOL    HW233674   5.028   1.973   3.853 -0.8356 -0.9461  0.2799
 8477SOL    HW333675   4.992   1.935   3.995 -0.4187  1.1214  0.9681
 8477SOL    MW433676   4.995   1.994   3.931  0.0119  0.3910  0.2994
 8478SOL     OW33677   1.518   4.395   5.636  0.0127 -0.6443  0.4986
 8478SOL    HW233678   1.461   4.394   5.559 -1.3073 -2.7437  1.4096
 8478SOL    HW333679   1.572   4.317   5.627  2.0182  0.7184  0.2277
 8478SOL    MW433680   1.517   4.385   5.625  0.1032 -0.7415  0.5830
 8479SOL     OW33681   2.648   0.103   2.316  0.0323  0.1144  0.5047
 8479SOL    HW233682   2.684   0.163   2.250  1.6640 -0.4858  0.8117
 8479SOL    HW333683   2.724   0.072   2.364 -0.9013 -1.3532  1.0883
 8479SOL    MW433684   2.663   0.107   2.313  0.1244 -0.1584  0.6222
 8480SOL     OW33685   3.740   5.226   4.620  0.5901  0.0583  0.2746
 8480SOL    HW233686   3.705   5.159   4.679  0.3169 -0.9196 -0.9485
 8480SOL    HW333687   3.833   5.205   4.613  0.9024  0.9772  1.3553
 8480SOL    MW433688   3.747   5.214   4.627  0.5953  0.0505  0.2558
 8481SOL     OW33689   5.697   3.601   5.152  0.7882 -0.2233 -0.3982
 8481SOL    HW233690   5.791   3.607   5.132  0.8243  0.3394 -0.0727
 8481SOL    HW333691   5.687   3.650   5.233 -0.2875  2.5683 -2.0768
 8481SOL    MW433692   5.708   3.608   5.160  0.6510  0.2192 -0.5767
 8482SOL     OW33693   1.281   2.929   2.251  0.1888 -0.4565  0.1933
 8482SOL    HW233694   1.357   2.875   2.228 -0.7707 -1.5408 -0.5258
 8482SOL    HW333695   1.223   2.921   2.175 -1.0504 -0.4066  1.1153
 8482SOL    MW433696   1.283   2.921   2.238 -0.1013 -0.5930  0.2201
 8483SOL     OW33697   6.223   3.385   2.904  0.6284  0.4402  0.0117
 8483SOL    HW233698   6.301   3.436   2.926  0.2632  0.9281  0.1942
 8483SOL    HW333699   6.174   3.442   2.844  0.4952  0.0640 -0.2400
 8483SOL    MW433700   6.227   3.399   2.899  0.5626  0.4549  0.0026
 8484SOL     OW33701   0.068   2.641   3.203 -0.4551  0.1098 -0.0488
 8484SOL    HW233702   0.020   2.573   3.251  1.0458 -1.1873 -0.3197
 8484SOL    HW333703   0.077   2.713   3.266  1.0534 -1.3624  1.5340
 8484SOL    MW433704   0.063   2.642   3.218 -0.0580 -0.2556  0.1243
 8485SOL     OW33705   0.547   2.782   5.721  0.1806  0.5657 -0.7750
 8485SOL    HW233706   0.568   2.847   5.788  0.9462 -0.1251 -0.3210
 8485SOL    HW333707   0.508   2.832   5.650 -0.4760  1.3386  0.1052
 8485SOL    MW433708   0.545   2.797   5.721  0.1950  0.5766 -0.5990
 8486SOL     OW33709   4.151   5.852   5.645 -0.0479 -0.2479 -0.0491
 8486SOL    HW233710   4.176   5.787   5.580 -0.1541  0.7381 -1.1036
 8486SOL    HW333711   4.178   5.935   5.608 -0.2718  0.3594  1.0959
 8486SOL    MW433712   4.158   5.854   5.632 -0.0915 -0.0377 -0.0372
 8487SOL     OW33713   0.329   1.706   5.388 -0.0976 -0.0825  0.9821
 8487SOL    HW233714   0.370   1.793   5.376  0.0480 -0.1273  1.1460
 8487SOL    HW333715   0.386   1.662   5.451  0.2609 -0.5797  0.3280
 8487SOL    MW433716   0.342   1.712   5.395 -0.0311 -0.1540  0.9174
 8488SOL     OW33717   0.425   2.892   6.256 -0.0770  0.5073 -0.0772
 8488SOL    HW233718   0.517   2.879   6.278  0.1572  0.2834 -1.1004
 8488SOL    HW333719   0.385   2.926   6.335  0.9472  0.8737  0.2924
 8488SOL    MW433720   0.431   2.895   6.269  0.0890  0.5261 -0.1634
 8489SOL     OW33721   6.201   3.028   3.350 -0.2295 -0.0629  0.3718
 8489SOL    HW233722   6.199   3.080   3.430  0.0637  0.8157 -0.1870
 8489SOL    HW333723   6.289   2.990   3.348  0.2217  0.9874 -0.2031
 8489SOL    MW433724   6.212   3.030   3.361 -0.1313  0.1916  0.2222
 8490SOL     OW33725   5.833   3.120   4.854 -0.4377 -0.3452  0.6298
 8490SOL    HW233726   5.783   3.111   4.935 -0.5395 -2.4263  0.3897
 8490SOL    HW333727   5.782   3.072   4.789  0.1439  0.4617 -0.4485
 8490SOL    MW433728   5.820   3.113   4.857 -0.3744 -0.5133  0.4558
 8491SOL     OW33729   5.537   3.504   4.392 -0.2723 -0.0716  0.2369
 8491SOL    HW233730   5.580   3.567   4.334 -1.2380 -0.2573 -0.7078
 8491SOL    HW333731   5.488   3.559   4.454 -0.8620  0.1160 -0.3883
 8491SOL    MW433732   5.536   3.520   4.393 -0.4775 -0.0714  0.0298
 8492SOL     OW33733   0.718   4.720   6.395  0.5424 -0.5607 -0.1109
 8492SOL    HW233734   0.777   4.793   6.414  0.3860 -0.4518 -0.0503
 8492SOL    HW333735   0.771   4.661   6.341  1.0989 -1.0193  0.9101
 8492SOL    MW433736   0.733   4.722   6.390  0.5952 -0.6069  0.0318
 8493SOL     OW33737   3.913   2.304   0.379 -0.5245 -0.1023  0.0428
 8493SOL    HW233738   4.001   2.340   0.389 -1.4773  2.2105  0.8534
 8493SOL    HW333739   3.901   2.247   0.456  0.1951 -0.3399 -0.0163
 8493SOL    MW433740   3.923   2.301   0.391 -0.5553  0.1715  0.1420
 8494SOL     OW33741   1.860   5.055   1.306 -0.0744  0.3743  0.3930
 8494SOL    HW233742   1.838   5.145   1.329  1.8016  0.9063  0.3159
 8494SOL    HW333743   1.951   5.045   1.334 -0.4446 -1.7312  1.0328
 8494SOL    MW433744   1.869   5.065   1.313  0.1243  0.1667  0.4673
 8495SOL     OW33745   6.351   1.057   0.634 -0.2359 -0.2577  0.0575
 8495SOL    HW233746   6.432   1.104   0.653 -1.3640  1.7971  0.0626
 8495SOL    HW333747   6.315   1.037   0.720  0.1551 -1.0457  0.0531
 8495SOL    MW433748   6.357   1.060   0.648 -0.3331 -0.0905  0.0576
 8496SOL     OW33749   4.275   0.289   3.514 -0.6597 -0.6981  0.4093
 8496SOL    HW233750   4.318   0.363   3.557  0.7994 -1.5988  0.5765
 8496SOL    HW333751   4.196   0.326   3.474  0.9492  1.3442 -1.0793
 8496SOL    MW433752   4.270   0.303   3.515 -0.2549 -0.5475  0.2350
 8497SOL     OW33753   2.980   2.187   2.944 -0.1207 -0.0515 -0.0019
 8497SOL    HW233754   2.885   2.196   2.953 -0.4011 -0.1379 -2.3883
 8497SOL    HW333755   2.993   2.095   2.921  0.3798  0.2964 -1.1699
 8497SOL    MW433756   2.969   2.176   2.942 -0.0917 -0.0170 -0.4708
 8498SOL     OW33757   4.667   1.578   3.253 -0.3543 -0.2242 -0.3723
 8498SOL    HW233758   4.609   1.642   3.211 -1.8563  0.6214  2.7273
 8498SOL    HW333759   4.636   1.574   3.343  2.0591 -2.6498  0.4468
 8498SOL    MW433760   4.655   1.586   3.259 -0.2341 -0.4326  0.1447
 8499SOL     OW33761   1.796   4.134   4.655 -0.0055 -0.1495  0.1126
 8499SOL    HW233762   1.752   4.179   4.583  0.6938  0.6835  0.1848
 8499SOL    HW333763   1.805   4.201   4.723  1.3174 -0.3046  0.1160
 8499SOL    MW433764   1.792   4.149   4.655  0.2613 -0.0600  0.1225
 8500SOL     OW33765   1.470   4.863   0.889 -0.1968  0.5555 -0.1302
 8500SOL    HW233766   1.459   4.774   0.855 -2.1242  0.2881  1.0125
 8500SOL    HW333767   1.398   4.912   0.849 -0.3087  1.1132  0.7319
 8500SOL    MW433768   1.459   4.857   0.879 -0.4659  0.5938  0.1343
 8501SOL     OW33769   0.601   6.202   0.397 -0.8639  0.0549  0.5857
 8501SOL    HW233770   0.684   6.157   0.410 -0.8809  0.0300  0.6074
 8501SOL    HW333771   0.618   6.293   0.423 -0.5642  0.2857 -0.3846
 8501SOL    MW433772   0.614   6.208   0.402 -0.8266  0.0821  0.4605
 8502SOL     OW33773   3.357   4.444   5.215 -0.5278  0.6470  0.3398
 8502SOL    HW233774   3.401   4.474   5.135 -0.0227  1.1888  0.8107
 8502SOL    HW333775   3.395   4.498   5.284 -0.8235  0.0458  0.9734
 8502SOL    MW433776   3.368   4.455   5.213 -0.5002  0.6391  0.4855
 8503SOL     OW33777   5.129   3.083   2.580  0.3342 -0.4736 -0.6296
 8503SOL    HW233778   5.070   3.122   2.515 -0.6529  2.8295  1.9596
 8503SOL    HW333779   5.085   3.003   2.608 -1.9089  0.8240 -0.2736
 8503SOL    MW433780   5.115   3.077   2.575 -0.0920  0.1334 -0.2410
 8504SOL     OW33781   4.164   0.474   6.044  0.3523 -0.0631 -0.0199
 8504SOL    HW233782   4.244   0.467   6.096  0.2954 -0.1543  0.0551
 8504SOL    HW333783   4.185   0.540   5.978  0.4293  0.0464  0.1122
 8504SOL    MW433784   4.178   0.482   6.042  0.3550 -0.0607  0.0074
 8505SOL     OW33785   1.180   6.196   4.306  0.3555  0.2093 -0.0412
 8505SOL    HW233786   1.106   6.146   4.341 -1.3663  1.3393 -1.8686
 8505SOL    HW333787   1.198   6.262   4.372 -0.7541  0.3593  0.1315
 8505SOL    MW433788   1.173   6.198   4.319 -0.0181  0.3782 -0.2595
 8506SOL     OW33789   4.816   2.794   5.528 -0.6056 -0.2108 -0.4497
 8506SOL    HW233790   4.799   2.710   5.571 -1.3252  0.2717  0.2571
 8506SOL    HW333791   4.741   2.848   5.553  0.3763  0.9721 -0.0085
 8506SOL    MW433792   4.803   2.790   5.537 -0.5710  0.0090 -0.2982
 8507SOL     OW33793   2.954   0.290   1.500  0.3131  0.4274  0.1678
 8507SOL    HW233794   2.911   0.237   1.568  2.4044  0.0010  1.2859
 8507SOL    HW333795   2.934   0.246   1.418 -0.8062 -0.1032  0.7106
 8507SOL    MW433796   2.946   0.277   1.498  0.4414  0.3011  0.3869
 8508SOL     OW33797   4.844   1.858   2.871  0.0216  0.1271  0.0414
 8508SOL    HW233798   4.772   1.905   2.829 -1.0528 -0.6359  0.9693
 8508SOL    HW333799   4.835   1.877   2.964  0.9735 -0.0516  0.1857
 8508SOL    MW433800   4.833   1.867   2.878  0.0054  0.0028  0.1829
 8509SOL     OW33801   6.139   5.695   4.110  0.3207  0.1231  0.4551
 8509SOL    HW233802   6.053   5.697   4.068  1.2644  1.1749 -1.5578
 8509SOL    HW333803   6.135   5.619   4.168 -1.5281 -0.6160 -0.5298
 8509SOL    MW433804   6.127   5.685   4.112  0.2013  0.1643  0.0596
 8510SOL     OW33805   0.052   2.128   4.650  0.2516 -0.4738 -0.2605
 8510SOL    HW233806   0.035   2.050   4.597 -0.1682 -1.3167  1.0732
 8510SOL    HW333807   0.147   2.141   4.644  0.2384 -0.6946 -1.0194
 8510SOL    MW433808   0.062   2.119   4.642  0.1945 -0.6142 -0.1846
 8511SOL     OW33809   1.046   0.478   1.792  0.2751 -0.3676 -0.1109
 8511SOL    HW233810   1.109   0.547   1.811  0.6062 -0.4351 -0.9442
 8511SOL    HW333811   1.081   0.432   1.715 -0.3881 -0.8983 -0.1143
 8511SOL    MW433812   1.059   0.481   1.784  0.2313 -0.4465 -0.2213
 8512SOL     OW33813   5.078   2.549   6.421 -0.5605  0.3084 -0.4249
 8512SOL    HW233814   5.154   2.580   6.371 -0.3215  0.6102  0.1120
 8512SOL    HW333815   5.016   2.518   6.355  1.4801 -3.4700 -0.7901
 8512SOL    MW433816   5.080   2.549   6.406 -0.2597 -0.1503 -0.4022
 8513SOL     OW33817   4.542   2.858   3.594 -0.0594  0.0820 -0.3317
 8513SOL    HW233818   4.464   2.890   3.549  0.0431 -0.0606 -0.6124
 8513SOL    HW333819   4.516   2.774   3.632 -0.0266  0.0106 -0.4685
 8513SOL    MW433820   4.528   2.851   3.593 -0.0415  0.0538 -0.3867
 8514SOL     OW33821   0.150   2.164   0.202  0.1400 -0.3056  0.0219
 8514SOL    HW233822   0.195   2.113   0.269 -0.3379  0.4327  0.9128
 8514SOL    HW333823   0.207   2.239   0.187  0.6076 -0.8263 -0.9510
 8514SOL    MW433824   0.164   2.167   0.209  0.1386 -0.2769  0.0111
 8515SOL     OW33825   5.855   6.105   2.538 -0.1742  0.5095  0.3769
 8515SOL    HW233826   5.939   6.132   2.576  0.2830  2.5180 -1.7668
 8515SOL    HW333827   5.820   6.185   2.499 -1.4293 -0.9868 -1.7844
 8515SOL    MW433828   5.862   6.119   2.538 -0.2795  0.5771 -0.1911
 8516SOL     OW33829   1.498   2.860   1.797  0.0349  0.3251 -0.2684
 8516SOL    HW233830   1.433   2.790   1.800  1.4101 -0.9982  0.0588
 8516SOL    HW333831   1.462   2.929   1.852 -1.4451 -0.0376 -0.7405
 8516SOL    MW433832   1.485   2.860   1.805  0.0211  0.1026 -0.2875
 8517SOL     OW33833   1.911   2.272   0.358  0.3541  0.3713 -0.0643
 8517SOL    HW233834   1.960   2.282   0.440  0.7959  2.5159 -0.5382
 8517SOL    HW333835   1.962   2.208   0.308  1.5682  1.0231  0.2869
 8517SOL    MW433836   1.924   2.265   0.362  0.5726  0.7402 -0.0805
 8518SOL     OW33837   5.025   3.970   3.479 -0.2586 -0.0236  0.0730
 8518SOL    HW233838   5.038   3.978   3.573 -0.1233 -0.0876  0.0587
 8518SOL    HW333839   5.093   4.025   3.440  1.6786 -2.4119 -0.0717
 8518SOL    MW433840   5.035   3.979   3.486  0.0148 -0.3472  0.0520
 8519SOL     OW33841   2.389   4.603   3.784  0.3311  0.5814 -0.1927
 8519SOL    HW233842   2.306   4.647   3.806  0.2931  0.4763 -0.1210
 8519SOL    HW333843   2.432   4.661   3.722 -0.8135 -0.3948 -1.9871
 8519SOL    MW433844   2.383   4.617   3.779  0.1751  0.4387 -0.4200
 8520SOL     OW33845   4.219   2.580   4.074  0.0967  0.2097 -0.4460
 8520SOL    HW233846   4.294   2.535   4.035  0.3559  1.4768 -1.4703
 8520SOL    HW333847   4.258   2.641   4.137 -0.2063 -0.3715  0.3272
 8520SOL    MW433848   4.234   2.582   4.077  0.0909  0.3002 -0.4792
 8521SOL     OW33849   3.648   5.879   5.886 -0.5604 -0.3521  0.7134
 8521SOL    HW233850   3.670   5.864   5.978  2.1095  0.8116  0.3565
 8521SOL    HW333851   3.612   5.967   5.884 -0.8374 -0.4664  0.6784
 8521SOL    MW433852   3.647   5.888   5.898 -0.2447 -0.2136  0.6617
 8522SOL     OW33853   0.074   4.416   4.216 -0.1428  0.3264 -0.3399
 8522SOL    HW233854   0.012   4.472   4.169  1.0103  0.0171 -2.3470
 8522SOL    HW333855   0.019   4.350   4.259 -1.4394  2.2471  1.1513
 8522SOL    MW433856   0.059   4.415   4.215 -0.1617  0.5390 -0.4080
 8523SOL     OW33857   0.125   0.088   5.296  0.1036 -0.2550 -0.2231
 8523SOL    HW233858   0.194   0.148   5.266  0.9435 -0.9390  0.2690
 8523SOL    HW333859   0.056   0.145   5.328  0.2510  0.4555 -1.1339
 8523SOL    MW433860   0.125   0.103   5.296  0.2338 -0.2515 -0.2783
 8524SOL     OW33861   3.690   2.579   2.002  0.0084 -0.1366  0.4039
 8524SOL    HW233862   3.663   2.661   2.042 -2.1198  0.2975 -1.6632
 8524SOL    HW333863   3.624   2.515   2.030 -1.7074  0.2418 -2.3290
 8524SOL    MW433864   3.678   2.581   2.011 -0.4988 -0.0294 -0.2294
 8525SOL     OW33865   4.497   0.324   2.048 -0.2115 -0.2014  0.6458
 8525SOL    HW233866   4.527   0.377   2.123  0.9895 -0.9788  0.7426
 8525SOL    HW333867   4.549   0.244   2.053 -0.2349 -0.3432 -0.9275
 8525SOL    MW433868   4.508   0.321   2.059 -0.0562 -0.3227  0.4510
 8526SOL     OW33869   5.915   4.399   3.388  1.0953  0.2094  0.1639
 8526SOL    HW233870   5.987   4.425   3.331  2.3130  0.6784  1.8343
 8526SOL    HW333871   5.920   4.458   3.463 -0.6278 -0.1859  0.6477
 8526SOL    MW433872   5.925   4.410   3.390  1.0286  0.2191  0.4481
 8527SOL     OW33873   4.089   4.325   5.801 -0.3904  0.4585  0.5625
 8527SOL    HW233874   4.017   4.333   5.738  0.1636 -1.3740 -0.3468
 8527SOL    HW333875   4.049   4.349   5.885 -1.3449  2.1696 -0.3046
 8527SOL    MW433876   4.074   4.329   5.804 -0.4432  0.4425  0.3282
 8528SOL     OW33877   6.059   1.606   4.471  0.0398  0.2032  0.1444
 8528SOL    HW233878   6.102   1.662   4.535  0.6303 -0.2037  0.1189
 8528SOL    HW333879   5.985   1.567   4.518 -1.3192  2.1556 -0.2629
 8528SOL    MW433880   6.055   1.608   4.485 -0.0616  0.4071  0.0873
 8529SOL     OW33881   3.706   4.084   4.975 -0.6380 -0.1398  0.0292
 8529SOL    HW233882   3.743   4.076   5.063 -1.5776  1.1664  0.5748
 8529SOL    HW333883   3.613   4.067   4.987 -0.8339  0.4179 -0.6451
 8529SOL    MW433884   3.699   4.080   4.988 -0.7878  0.1061  0.0122
 8530SOL     OW33885   2.712   0.811   1.419 -0.6626 -0.7109  0.8475
 8530SOL    HW233886   2.620   0.789   1.407 -0.4402 -1.1943 -0.0549
 8530SOL    HW333887   2.721   0.826   1.513 -1.8073  0.0737  0.8493
 8530SOL    MW433888   2.701   0.810   1.430 -0.7843 -0.6711  0.7287
 8531SOL     OW33889   0.652   5.194   0.889  0.3034  0.5623  0.2430
 8531SOL    HW233890   0.717   5.264   0.893 -0.0826  0.9296  0.1843
 8531SOL    HW333891   0.700   5.115   0.914  0.4477  1.0523  1.6006
 8531SOL    MW433892   0.667   5.193   0.893  0.2715  0.6754  0.4144
 8532SOL     OW33893   0.336   4.189   1.914  0.0263  0.0314  0.1320
 8532SOL    HW233894   0.425   4.156   1.931 -0.0326 -1.0503 -1.4600
 8532SOL    HW333895   0.283   4.152   1.984  0.7430  0.3826  0.8857
 8532SOL    MW433896   0.341   4.180   1.926  0.1131 -0.0650  0.0214
 8533SOL     OW33897   6.182   1.272   3.130  0.4733  0.1886  0.7740
 8533SOL    HW233898   6.184   1.269   3.034  0.5773 -0.9969  0.7984
 8533SOL    HW333899   6.222   1.356   3.152  1.9848 -0.2336 -0.1859
 8533SOL    MW433900   6.188   1.282   3.120  0.6864 -0.0235  0.6506
 8534SOL     OW33901   3.876   0.866   1.566 -0.5872 -0.3245 -0.2597
 8534SOL    HW233902   3.969   0.850   1.546 -0.5873 -0.0229 -0.5132
 8534SOL    HW333903   3.829   0.830   1.491 -0.5422  1.5837 -1.2869
 8534SOL    MW433904   3.882   0.859   1.553 -0.5813 -0.0330 -0.4286
 8535SOL     OW33905   4.941   0.272   3.178  0.1166  0.4144 -0.6528
 8535SOL    HW233906   4.945   0.288   3.084 -1.1812  1.1193 -0.6057
 8535SOL    HW333907   4.992   0.192   3.190 -0.3052 -0.1034 -2.0614
 8535SOL    MW433908   4.948   0.263   3.167 -0.1103  0.4391 -0.8324
 8536SOL     OW33909   3.444   5.501   3.738  0.1172 -0.1236  0.1505
 8536SOL    HW233910   3.425   5.547   3.656 -0.1187  1.4943  1.0838
 8536SOL    HW333911   3.494   5.424   3.710 -0.7767 -0.1358 -1.5969
 8536SOL    MW433912   3.448   5.497   3.723 -0.0318  0.0883  0.0431
 8537SOL     OW33913   5.733   5.905   4.991 -0.4684 -0.0634  0.0534
 8537SOL    HW233914   5.745   5.869   5.079  0.8495  0.3873  0.0833
 8537SOL    HW333915   5.717   5.829   4.935 -0.5552 -0.4243  0.5728
 8537SOL    MW433916   5.733   5.891   4.995 -0.3059 -0.0515  0.1259
 8538SOL     OW33917   5.849   4.170   5.289  0.2727 -0.3198  0.3465
 8538SOL    HW233918   5.873   4.253   5.328  0.2867 -0.4607  0.6404
 8538SOL    HW333919   5.836   4.111   5.364  1.0192 -0.7910  0.1133
 8538SOL    MW433920   5.850   4.173   5.304  0.3731 -0.4006  0.3545
 8539SOL     OW33921   4.972   3.070   6.078  0.4005  0.3526 -1.2278
 8539SOL    HW233922   4.930   2.988   6.052  0.2582  0.4179 -1.2038
 8539SOL    HW333923   4.926   3.137   6.028 -1.5059  0.7583  0.9396
 8539SOL    MW433924   4.961   3.068   6.068  0.1302  0.4147 -0.9387
 8540SOL     OW33925   1.804   2.867   5.760  0.3752  0.8704 -0.3126
 8540SOL    HW233926   1.870   2.873   5.691  0.1953 -1.2723 -0.7476
 8540SOL    HW333927   1.721   2.884   5.717  0.5031  2.2529 -0.0375
 8540SOL    MW433928   1.802   2.870   5.746  0.3683  0.7701 -0.3337
 8541SOL     OW33929   0.319   0.264   5.180  0.8296 -0.0999  0.0260
 8541SOL    HW233930   0.269   0.244   5.101 -0.0757  1.3450  0.1895
 8541SOL    HW333931   0.339   0.358   5.172  0.9814 -0.0055  1.3716
 8541SOL    MW433932   0.315   0.274   5.168  0.7302  0.1032  0.2251
 8542SOL     OW33933   6.216   0.603   0.382  0.2074  0.5375  0.1364
 8542SOL    HW233934   6.265   0.607   0.300 -0.0571  1.0001 -0.0064
 8542SOL    HW333935   6.182   0.514   0.386  1.1182  0.1873  0.2791
 8542SOL    MW433936   6.218   0.592   0.372  0.2927  0.5523  0.1364
 8543SOL     OW33937   0.971   1.369   1.293 -0.7218 -0.0659  0.0722
 8543SOL    HW233938   0.956   1.274   1.291  0.7322 -0.3211 -2.0808
 8543SOL    HW333939   1.065   1.378   1.309 -0.6150  0.9484 -0.9858
 8543SOL    MW433940   0.981   1.357   1.295 -0.5159  0.0343 -0.3514
 8544SOL     OW33941   3.989   2.145   6.308 -0.0477  0.2000  0.4480
 8544SOL    HW233942   3.960   2.204   6.378  0.7255 -0.4005  1.3018
 8544SOL    HW333943   3.956   2.186   6.228  1.9812  2.8114  0.7955
 8544SOL    MW433944   3.981   2.158   6.307  0.3220  0.4653  0.6065
 8545SOL     OW33945   2.204   1.044   1.072  0.6414  0.0657  0.3984
 8545SOL    HW233946   2.110   1.024   1.065  0.7715 -0.0440 -1.2239
 8545SOL    HW333947   2.214   1.075   1.163 -0.8607 -0.4060  0.7646
 8545SOL    MW433948   2.193   1.045   1.083  0.4604 -0.0110  0.2327
 8546SOL     OW33949   2.082   2.023   0.728  0.1093 -0.3619 -0.4295
 8546SOL    HW233950   2.115   1.956   0.668 -1.0063  0.7285 -2.3668
 8546SOL    HW333951   2.161   2.066   0.761  0.8171  0.7966 -3.3044
 8546SOL    MW433952   2.097   2.020   0.725  0.0555 -0.0652 -1.0644
 8547SOL     OW33953   2.952   4.137   5.189 -0.1245  0.1713  0.2933
 8547SOL    HW233954   2.924   4.172   5.104 -0.6684 -0.3399  0.2589
 8547SOL    HW333955   3.014   4.067   5.167  1.9714  1.8826  0.3793
 8547SOL    MW433956   2.957   4.132   5.174  0.0803  0.3296  0.3001
 8548SOL     OW33957   3.878   2.833   0.110  0.4276 -0.0616 -0.5855
 8548SOL    HW233958   3.938   2.904   0.085 -0.5265  1.0302  0.1232
 8548SOL    HW333959   3.911   2.803   0.194  0.8915 -0.5281 -0.9331
 8548SOL    MW433960   3.890   2.839   0.118  0.3629  0.0209 -0.5379
 8549SOL     OW33961   6.163   5.170   0.192 -0.5187 -0.3608 -0.4469
 8549SOL    HW233962   6.184   5.078   0.182 -0.8913 -0.6246  0.9241
 8549SOL    HW333963   6.067   5.172   0.198 -0.4698  0.0015  0.3793
 8549SOL    MW433964   6.153   5.158   0.191 -0.5614 -0.3478 -0.1570
 8550SOL     OW33965   1.673   0.707   1.840 -0.2595  0.1278  0.0040
 8550SOL    HW233966   1.641   0.797   1.837 -1.7998 -0.4106 -1.6072
 8550SOL    HW333967   1.681   0.687   1.933 -2.3255  1.1213  0.4470
 8550SOL    MW433968   1.670   0.717   1.852 -0.7353  0.1879 -0.1502
 8551SOL     OW33969   2.314   5.315   4.132  0.6794  0.0481 -0.1135
 8551SOL    HW233970   2.378   5.352   4.072  0.7395 -1.3440 -0.9507
 8551SOL    HW333971   2.350   5.229   4.155  0.8935  0.7054  2.3054
 8551SOL    MW433972   2.327   5.308   4.127  0.7156 -0.0489  0.0952
 8552SOL     OW33973   3.488   5.058   5.714  0.1393 -0.7537  0.0556
 8552SOL    HW233974   3.394   5.039   5.720 -0.4279  1.5804 -0.3987
 8552SOL    HW333975   3.503   5.073   5.621  0.6424  0.1796  0.2694
 8552SOL    MW433976   3.477   5.058   5.702  0.1308 -0.3226  0.0239
 8553SOL     OW33977   5.747   3.026   3.269 -0.5269 -0.3437 -0.1326
 8553SOL    HW233978   5.766   2.982   3.186  1.1857  1.4004 -0.7352
 8553SOL    HW333979   5.818   2.999   3.327 -0.9859 -0.5128  0.3542
 8553SOL    MW433980   5.759   3.016   3.266 -0.3615 -0.1359 -0.1479
 8554SOL     OW33981   2.361   5.184   0.873 -0.4986 -0.2387  0.0273
 8554SOL    HW233982   2.343   5.263   0.821  1.5063  1.1089  1.2568
 8554SOL    HW333983   2.332   5.206   0.961  1.0733 -0.4165  0.6216
 8554SOL    MW433984   2.355   5.197   0.878 -0.0267 -0.0843  0.2680
 8555SOL     OW33985   5.222   2.315   0.564  0.7370  0.0115  0.4067
 8555SOL    HW233986   5.127   2.310   0.574  0.8012 -1.6792  0.5000
 8555SOL    HW333987   5.235   2.374   0.490 -0.4455 -0.6211 -0.3408
 8555SOL    MW433988   5.211   2.322   0.556  0.5895 -0.2950  0.3204
 8556SOL     OW33989   6.079   0.942   6.378 -0.0656 -0.1459  0.5066
 8556SOL    HW233990   5.993   0.984   6.378  0.0361  0.3516 -2.8211
 8556SOL    HW333991   6.141   1.014   6.367  0.3874 -0.7345 -1.2575
 8556SOL    MW433992   6.076   0.957   6.376  0.0076 -0.1579 -0.1652
 8557SOL     OW33993   1.375   3.514   3.230  0.0660  0.0359  0.0884
 8557SOL    HW233994   1.339   3.443   3.283 -0.6350  0.4156  0.1335
 8557SOL    HW333995   1.416   3.574   3.293  2.4403 -1.2865 -0.0911
 8557SOL    MW433996   1.375   3.513   3.245  0.2867 -0.0885  0.0707
 8558SOL     OW33997   4.705   2.677   4.601 -0.1968 -0.6617 -0.6150
 8558SOL    HW233998   4.769   2.727   4.551  0.8308 -0.6956  0.6345
 8558SOL    HW333999   4.739   2.676   4.691 -0.9812 -2.2686 -0.2928
 8558SOL    MW434000   4.718   2.684   4.606 -0.1647 -0.8782 -0.4076
 8559SOL     OW34001   1.280   0.983   4.509 -0.0958 -0.3268 -0.0464
 8559SOL    HW234002   1.277   0.887   4.501 -0.4679 -0.3466  0.2681
 8559SOL    HW334003   1.241   1.000   4.595 -0.0159  0.1083 -0.0963
 8559SOL    MW434004   1.275   0.972   4.520 -0.1344 -0.2720 -0.0115
 8560SOL     OW34005   2.766   5.040   1.991  0.1516 -0.1685 -0.1228
 8560SOL    HW234006   2.717   5.053   2.071  0.0496 -0.6121 -0.1077
 8560SOL    HW334007   2.795   4.949   1.996  1.0231  0.1013 -0.1013
 8560SOL    MW434008   2.764   5.029   2.002  0.2531 -0.1914 -0.1180
 8561SOL     OW34009   5.977   5.723   1.530  0.6232 -0.3707  0.7593
 8561SOL    HW234010   6.005   5.641   1.571  0.6807  0.4634  2.4801
 8561SOL    HW334011   5.888   5.737   1.563  1.1675  1.0030  1.7392
 8561SOL    MW434012   5.969   5.714   1.540  0.7026 -0.0794  1.1156
 8562SOL     OW34013   5.329   0.973   5.501  0.0289  0.0620 -0.0029
 8562SOL    HW234014   5.298   1.053   5.542  1.3780  0.3241  0.5490
 8562SOL    HW334015   5.295   0.902   5.556  0.7109  0.3612  0.8266
 8562SOL    MW434016   5.320   0.974   5.513  0.2969  0.1361  0.1794
 8563SOL     OW34017   3.127   1.356   5.364 -0.5156  0.1873  0.8773
 8563SOL    HW234018   3.124   1.359   5.268  0.0140  1.8627  0.8799
 8563SOL    HW334019   3.217   1.380   5.385 -0.8436  0.6312  1.8099
 8563SOL    MW434020   3.139   1.360   5.354 -0.4890  0.4669  1.0007
 8564SOL     OW34021   4.778   0.048   3.519  0.1427  0.2910  0.0242
 8564SOL    HW234022   4.711  -0.016   3.546  0.1892 -0.8012 -2.1803
 8564SOL    HW334023   4.739   0.093   3.444  1.1012  1.1135 -0.0018
 8564SOL    MW434024   4.764   0.045   3.513  0.2753  0.2554 -0.2701
 8565SOL     OW34025   6.345   5.091   3.979  0.1979  0.3175 -0.3562
 8565SOL    HW234026   6.346   5.186   3.964 -0.8641  0.5247  0.7193
 8565SOL    HW334027   6.420   5.076   4.037 -0.3578  0.7013  0.4804
 8565SOL    MW434028   6.355   5.102   3.985 -0.0155  0.3955 -0.1039
 8566SOL     OW34029   4.617   1.982   2.776 -0.0446  0.2763  0.1550
 8566SOL    HW234030   4.565   2.057   2.804 -0.8291 -0.1831 -0.0460
 8566SOL    HW334031   4.598   1.972   2.683 -0.2570 -0.4059  0.2636
 8566SOL    MW434032   4.608   1.990   2.768 -0.1761  0.1256  0.1428
 8567SOL     OW34033   5.438   4.094   2.798 -0.1854 -0.1694  0.2724
 8567SOL    HW234034   5.397   4.047   2.870  2.0735 -1.4136  0.8276
 8567SOL    HW334035   5.459   4.027   2.734  0.4332  0.5208 -0.2693
 8567SOL    MW434036   5.435   4.079   2.799  0.1942 -0.2425  0.2742
 8568SOL     OW34037   2.331   2.042   1.462 -0.3780 -0.3602  0.2208
 8568SOL    HW234038   2.415   2.086   1.478 -0.9470  0.3151  1.4712
 8568SOL    HW334039   2.325   1.976   1.531 -1.6013  0.7105  1.1847
 8568SOL    MW434040   2.341   2.039   1.473 -0.6145 -0.1299  0.5130
 8569SOL     OW34041   5.600   5.587   2.455 -0.2523 -0.2707  0.4614
 8569SOL    HW234042   5.674   5.630   2.498  0.9639 -1.6148 -0.1792
 8569SOL    HW334043   5.604   5.618   2.364 -1.0127  0.3131  0.6215
 8569SOL    MW434044   5.610   5.597   2.449 -0.1922 -0.3710  0.3980
 8570SOL     OW34045   0.643   5.793   4.434  0.0610  0.3825  0.1445
 8570SOL    HW234046   0.643   5.805   4.528  1.4922  0.4885  0.1559
 8570SOL    HW334047   0.556   5.821   4.405 -0.2713  0.6574  1.3833
 8570SOL    MW434048   0.632   5.798   4.442  0.2060  0.4327  0.3095
 8571SOL     OW34049   2.282   2.745   3.707  0.2688 -0.2470 -0.3400
 8571SOL    HW234050   2.210   2.683   3.704  0.1748 -0.1903  0.4398
 8571SOL    HW334051   2.248   2.819   3.757  0.5517  0.2080 -0.8092
 8571SOL    MW434052   2.268   2.747   3.713  0.2937 -0.1795 -0.2990
 8572SOL     OW34053   0.217   0.032   5.553 -0.1078 -0.2435 -0.2657
 8572SOL    HW234054   0.142   0.039   5.612  0.0469  0.3585 -0.1415
 8572SOL    HW334055   0.181   0.050   5.466 -0.4984 -1.9120 -0.4906
 8572SOL    MW434056   0.202   0.035   5.549 -0.1389 -0.3842 -0.2790
 8573SOL     OW34057   1.113   1.837   1.309  0.4755  0.1844 -1.0037
 8573SOL    HW234058   1.170   1.761   1.300 -0.9182 -0.8050 -1.6590
 8573SOL    HW334059   1.169   1.903   1.350  1.3339 -1.6143  0.8889
 8573SOL    MW434060   1.128   1.836   1.313  0.4049 -0.1835 -0.8404
 8574SOL     OW34061   4.975   5.644   5.430  0.3414 -0.3430  0.3529
 8574SOL    HW234062   4.948   5.710   5.366 -0.0728  0.4506  1.3102
 8574SOL    HW334063   4.948   5.561   5.392  0.5988  0.0547 -0.7468
 8574SOL    MW434064   4.968   5.642   5.416  0.3207 -0.1858  0.3341
 8575SOL     OW34065   0.185   3.168   4.400 -0.0821  0.3048 -0.0750
 8575SOL    HW234066   0.189   3.263   4.388  1.8918 -0.0097 -2.6478
 8575SOL    HW334067   0.216   3.154   4.490 -2.3252  2.1210  1.0942
 8575SOL    MW434068   0.190   3.179   4.411 -0.1176  0.5030 -0.2602
 8576SOL     OW34069   6.337   6.447   4.102  1.0715  0.0802  0.2529
 8576SOL    HW234070   6.383   6.391   4.041 -0.6281  0.9070 -1.9259
 8576SOL    HW334071   6.375   6.534   4.088 -0.6846  0.6764 -1.2309
 8576SOL    MW434072   6.348   6.451   4.092  0.6156  0.2680 -0.2303
 8577SOL     OW34073   4.305   4.539   4.286  0.4824  0.2062 -0.2122
 8577SOL    HW234074   4.307   4.619   4.233 -0.7252  0.0171 -0.5707
 8577SOL    HW334075   4.217   4.537   4.323  0.3695 -1.1533 -0.5088
 8577SOL    MW434076   4.294   4.549   4.284  0.3082  0.0019 -0.2986
 8578SOL     OW34077   0.680   2.539   1.293 -0.0104  0.1451 -0.0075
 8578SOL    HW234078   0.670   2.462   1.238  1.6771 -0.2129  0.1109
 8578SOL    HW334079   0.694   2.504   1.381  2.7212  0.4083 -0.2422
 8578SOL    MW434080   0.681   2.524   1.297  0.5726  0.1326 -0.0228
 8579SOL     OW34081   2.600   4.796   2.761 -0.5645 -0.7722  0.2125
 8579SOL    HW234082   2.558   4.872   2.722  0.1135  0.2488  1.3865
 8579SOL    HW334083   2.571   4.797   2.852  1.6287 -0.2252  0.9906
 8579SOL    MW434084   2.591   4.806   2.768 -0.1857 -0.5653  0.4700
 8580SOL     OW34085   2.006   5.119   5.478 -0.0976 -0.0370  0.1890
 8580SOL    HW234086   1.962   5.048   5.432 -1.4224 -0.1479  1.5330
 8580SOL    HW334087   1.985   5.197   5.428 -1.0739 -0.2239  0.2911
 8580SOL    MW434088   1.997   5.120   5.465 -0.4012 -0.0763  0.3798
 8581SOL     OW34089   0.117   3.434   2.655  0.5307 -0.0043  0.3236
 8581SOL    HW234090   0.170   3.363   2.693 -0.7847 -0.2961  1.7323
 8581SOL    HW334091   0.040   3.438   2.712 -1.6743 -0.5438 -2.4123
 8581SOL    MW434092   0.114   3.425   2.667  0.0663 -0.1139  0.1485
 8582SOL     OW34093   2.284   3.611   4.783 -0.0659 -0.0973 -0.1474
 8582SOL    HW234094   2.352   3.663   4.825  1.8766 -0.7856 -2.2508
 8582SOL    HW334095   2.230   3.675   4.737 -0.7985  0.4377  1.3931
 8582SOL    MW434096   2.286   3.626   4.782  0.0937 -0.1175 -0.2217
 8583SOL     OW34097   2.991   4.189   2.132 -0.5351 -0.1626  0.1786
 8583SOL    HW234098   3.044   4.269   2.124  0.2885 -0.7089 -0.0216
 8583SOL    HW334099   3.017   4.152   2.217 -0.1688 -0.7315 -0.1790
 8583SOL    MW434100   3.002   4.194   2.142 -0.3781 -0.3097  0.1050
 8584SOL     OW34101   3.728   0.391   2.840  0.5865 -0.6520 -0.3955
 8584SOL    HW234102   3.755   0.429   2.924  1.0472 -1.5319 -0.1312
 8584SOL    HW334103   3.807   0.392   2.786  0.7218 -1.6258 -0.2315
 8584SOL    MW434104   3.742   0.396   2.844  0.6651 -0.8966 -0.3390
 8585SOL     OW34105   3.337   2.428   6.242  0.0693 -0.3257  0.4555
 8585SOL    HW234106   3.421   2.399   6.277 -0.0220  0.7482  1.6163
 8585SOL    HW334107   3.278   2.353   6.255  0.3911 -0.4389  1.3029
 8585SOL    MW434108   3.340   2.414   6.248  0.0997 -0.1990  0.7205
 8586SOL     OW34109   0.049   5.397   5.026 -0.4551 -0.0172  0.3332
 8586SOL    HW234110   0.008   5.481   5.003  2.1299  1.5088  0.8515
 8586SOL    HW334111   0.142   5.412   5.011  0.0982 -2.8137  0.5644
 8586SOL    MW434112   0.056   5.410   5.021 -0.0410 -0.1848  0.4321
 8587SOL     OW34113   4.712   3.412   3.927 -0.2243 -0.0435  0.1062
 8587SOL    HW234114   4.802   3.434   3.904 -0.4455 -0.7793 -1.5795
 8587SOL    HW334115   4.720   3.356   4.005  0.7778 -0.2566 -0.1364
 8587SOL    MW434116   4.725   3.407   3.934 -0.1213 -0.1687 -0.1483
 8588SOL     OW34117   6.067   2.091   5.939 -0.6725 -0.1355  0.1681
 8588SOL    HW234118   5.985   2.064   5.980 -1.8286 -0.3558 -2.1095
 8588SOL    HW334119   6.046   2.175   5.898  1.1929  1.4091  2.1706
 8588SOL    MW434120   6.053   2.099   5.939 -0.5789  0.0393  0.1318
 8589SOL     OW34121   5.704   3.313   3.272  0.1521  0.2404  0.3293
 8589SOL    HW234122   5.728   3.222   3.254  0.7757  0.1280  1.6261
 8589SOL    HW334123   5.655   3.341   3.195  0.8787 -0.8593 -0.5542
 8589SOL    MW434124   5.701   3.305   3.260  0.3303  0.0805  0.3838
 8590SOL     OW34125   5.686   5.305   0.877  0.4611  0.3507 -0.7069
 8590SOL    HW234126   5.605   5.348   0.906  0.1488  0.2072 -1.3680
 8590SOL    HW334127   5.658   5.221   0.841  1.1245 -0.7468  1.1734
 8590SOL    MW434128   5.672   5.300   0.876  0.5074  0.1870 -0.5460
 8591SOL     OW34129   5.678   2.489   3.730  0.0251  0.0421 -0.0982
 8591SOL    HW234130   5.666   2.420   3.795  0.4806  2.1515  2.3886
 8591SOL    HW334131   5.773   2.494   3.717  0.0822  0.8448  0.5372
 8591SOL    MW434132   5.689   2.481   3.736  0.0927  0.4264  0.3137
 8592SOL     OW34133   0.133   0.528   2.596 -0.0561  0.9237 -0.3368
 8592SOL    HW234134   0.045   0.563   2.587 -0.3215  0.7682  1.3172
 8592SOL    HW334135   0.174   0.544   2.511 -1.8006  0.5984 -1.2913
 8592SOL    MW434136   0.127   0.534   2.584 -0.3213  0.8602 -0.2446
 8593SOL     OW34137   5.970   4.494   1.146 -0.5290 -0.0993 -0.1858
 8593SOL    HW234138   5.933   4.486   1.058 -2.4800 -2.5668  0.7270
 8593SOL    HW334139   5.971   4.588   1.164 -3.0561  0.3057 -1.6845
 8593SOL    MW434140   5.965   4.505   1.136 -1.1198 -0.3714 -0.2631
 8594SOL     OW34141   0.940   1.795   2.578  0.1562  0.0999 -0.1280
 8594SOL    HW234142   0.973   1.714   2.539  1.0591  1.0522 -1.4326
 8594SOL    HW334143   0.969   1.792   2.669  0.1854 -1.0210 -0.1586
 8594SOL    MW434144   0.948   1.784   2.585  0.2792  0.0776 -0.3042
 8595SOL     OW34145   0.180   0.371   4.193 -0.2105 -0.2142 -0.1362
 8595SOL    HW234146   0.216   0.283   4.202 -1.8733 -1.0479 -1.0895
 8595SOL    HW334147   0.244   0.428   4.235  1.2246 -1.8008 -0.0764
 8595SOL    MW434148   0.193   0.367   4.199 -0.2405 -0.5335 -0.2541
 8596SOL     OW34149   0.895   2.602   4.421  0.1248 -0.0291  0.3093
 8596SOL    HW234150   0.976   2.557   4.447 -0.6009 -1.5104  0.1023
 8596SOL    HW334151   0.914   2.634   4.333  1.4706  2.2133  1.3313
 8596SOL    MW434152   0.908   2.600   4.413  0.2066  0.0713  0.4169
 8597SOL     OW34153   3.739   1.391   5.058  0.5738  0.5492  0.3048
 8597SOL    HW234154   3.646   1.400   5.039  0.9743 -0.3270 -2.7241
 8597SOL    HW334155   3.747   1.305   5.101  0.1432 -0.6124 -1.7807
 8597SOL    MW434156   3.728   1.381   5.061  0.5698  0.2804 -0.3700
 8598SOL     OW34157   1.687   3.313   5.258  0.0789 -0.2429  0.2128
 8598SOL    HW234158   1.780   3.306   5.234 -0.1492 -0.1050 -0.7181
 8598SOL    HW334159   1.647   3.361   5.186 -1.0275 -1.7071 -0.1792
 8598SOL    MW434160   1.694   3.318   5.245 -0.0972 -0.4179  0.0382
 8599SOL     OW34161   3.083   5.577   2.839 -0.3059 -0.3988  0.1260
 8599SOL    HW234162   3.152   5.600   2.776 -1.3623 -0.7674 -1.2098
 8599SOL    HW334163   3.044   5.660   2.865  0.9758 -0.1296  1.3506
 8599SOL    MW434164   3.087   5.591   2.834 -0.2762 -0.4119  0.1113
 8600SOL     OW34165   3.651   2.005   0.535 -0.5724  0.1459  0.0139
 8600SOL    HW234166   3.585   2.033   0.471 -0.2038  1.2747  0.1101
 8600SOL    HW334167   3.607   1.937   0.585 -0.3834 -1.8232 -2.3457
 8600SOL    MW434168   3.636   2.000   0.533 -0.4988  0.0350 -0.2847
 8601SOL     OW34169   3.908   4.011   2.029 -0.2520 -0.0708 -0.2100
 8601SOL    HW234170   3.831   3.956   2.045  0.0230 -0.1869  0.7698
 8601SOL    HW334171   3.977   3.972   2.083  0.2091  0.6628 -0.2588
 8601SOL    MW434172   3.907   3.999   2.038 -0.1549  0.0107 -0.0872
 8602SOL     OW34173   1.481   3.286   6.310  0.1705  0.9190 -0.0303
 8602SOL    HW234174   1.447   3.372   6.337  0.0366  0.8816 -0.0782
 8602SOL    HW334175   1.544   3.263   6.378  0.0685  0.9701  0.0824
 8602SOL    MW434176   1.485   3.294   6.322  0.1394  0.9208 -0.0218
 8603SOL     OW34177   1.252   1.171   1.677  0.6191  0.2027 -0.0280
 8603SOL    HW234178   1.162   1.202   1.689  0.7451  0.4752  0.2131
 8603SOL    HW334179   1.303   1.251   1.665  0.7979  0.0365 -0.3803
 8603SOL    MW434180   1.247   1.186   1.677  0.6593  0.2167 -0.0426
 8604SOL     OW34181   1.415   0.544   4.852  0.3424 -0.2849  0.8650
 8604SOL    HW234182   1.466   0.483   4.905 -0.5647 -1.5581  0.3263
 8604SOL    HW334183   1.396   0.496   4.771 -0.7392  0.5656  0.5781
 8604SOL    MW434184   1.419   0.530   4.848  0.0800 -0.3406  0.7561
 8605SOL     OW34185   0.779   3.059   1.478 -0.1445 -0.3393 -0.2599
 8605SOL    HW234186   0.686   3.072   1.462 -0.0283 -1.2748 -1.9209
 8605SOL    HW334187   0.795   2.968   1.454  1.3696  0.0675 -0.9589
 8605SOL    MW434188   0.769   3.049   1.473  0.0706 -0.4091 -0.5713
 8606SOL     OW34189   0.059   6.166   0.685  0.0374 -0.5083  0.6586
 8606SOL    HW234190   0.128   6.196   0.626  0.2807 -2.5737 -0.2104
 8606SOL    HW334191   0.087   6.078   0.710 -2.7946 -1.9200 -0.6862
 8606SOL    MW434192   0.072   6.158   0.680 -0.3042 -0.9670  0.3665
 8607SOL     OW34193   1.899   5.186   5.153  0.5014  0.0001  0.8696
 8607SOL    HW234194   1.915   5.107   5.205  0.3788 -0.4564  0.2342
 8607SOL    HW334195   1.917   5.159   5.063 -0.0989  0.5407  0.5793
 8607SOL    MW434196   1.903   5.172   5.148  0.4061  0.0112  0.7475
 8608SOL     OW34197   1.805   5.936   1.412 -0.5187 -0.0382  0.8643
 8608SOL    HW234198   1.876   5.961   1.470  0.2042 -0.0970  0.0145
 8608SOL    HW334199   1.747   5.883   1.467 -0.0427  0.2136  1.6238
 8608SOL    MW434200   1.806   5.933   1.427 -0.3605 -0.0128  0.8524
 8609SOL     OW34201   1.878   4.627   4.103 -0.2924  0.6171 -0.7005
 8609SOL    HW234202   1.832   4.698   4.059 -1.6339  1.0580  1.2889
 8609SOL    HW334203   1.882   4.557   4.038 -2.1825  1.2365 -1.5470
 8609SOL    MW434204   1.872   4.627   4.089 -0.7188  0.7570 -0.5497
 8610SOL     OW34205   3.277   5.737   5.596 -0.0787 -0.2593 -0.4805
 8610SOL    HW234206   3.267   5.831   5.587 -0.1636 -0.0380  1.4945
 8610SOL    HW334207   3.295   5.706   5.508 -1.2962  1.4385 -1.3737
 8610SOL    MW434208   3.278   5.745   5.584 -0.2505 -0.0061 -0.3378
 8611SOL     OW34209   3.709   0.935   2.467  0.2256 -0.3799  0.5798
 8611SOL    HW234210   3.708   0.990   2.388  1.5584  1.8418  2.0272
 8611SOL    HW334211   3.711   0.845   2.433 -0.3105  0.4656 -1.8925
 8611SOL    MW434212   3.709   0.930   2.452  0.3307  0.0248  0.4446
 8612SOL     OW34213   4.985   2.180   5.946  0.2243  0.7356 -0.1041
 8612SOL    HW234214   4.907   2.150   5.898 -0.1870 -0.1853  1.0862
 8612SOL    HW334215   5.005   2.265   5.909 -0.9795  0.7055 -0.8714
 8612SOL    MW434216   4.977   2.187   5.935  0.0112  0.6101 -0.0483
 8613SOL     OW34217   0.231   0.806   6.402  0.1802  0.2481  0.2796
 8613SOL    HW234218   0.257   0.887   6.358 -1.3467 -0.1628 -1.5456
 8613SOL    HW334219   0.138   0.819   6.422  0.3014 -0.4699  1.3813
 8613SOL    MW434220   0.222   0.819   6.398 -0.0052  0.0991  0.1841
 8614SOL     OW34221   0.265   5.703   3.428  0.1178 -0.4375 -0.1180
 8614SOL    HW234222   0.179   5.712   3.471  0.0526 -0.6716 -0.1976
 8614SOL    HW334223   0.261   5.763   3.354  0.0908 -0.3090 -0.0113
 8614SOL    MW434224   0.253   5.712   3.424  0.1056 -0.4514 -0.1144
 8615SOL     OW34225   5.523   0.760   0.453 -0.4057 -0.3250 -0.2798
 8615SOL    HW234226   5.449   0.767   0.393 -0.9913 -1.3711  0.3063
 8615SOL    HW334227   5.564   0.676   0.432 -0.9071 -0.9430  1.0764
 8615SOL    MW434228   5.519   0.750   0.442 -0.5491 -0.5445 -0.0235
 8616SOL     OW34229   5.558   6.059   6.079  0.3023  0.4718 -0.5149
 8616SOL    HW234230   5.648   6.042   6.052 -0.1697 -0.4581 -1.5862
 8616SOL    HW334231   5.511   5.979   6.055 -0.8582  1.0604 -0.2433
 8616SOL    MW434232   5.564   6.046   6.072  0.0869  0.4268 -0.6204
 8617SOL     OW34233   6.378   2.630   5.576 -0.5455  0.5684 -0.4657
 8617SOL    HW234234   6.285   2.624   5.558 -0.9386  1.5525  1.0009
 8617SOL    HW334235   6.404   2.715   5.541 -0.0625  0.0662 -1.3555
 8617SOL    MW434236   6.369   2.641   5.569 -0.5336  0.6320 -0.3896
 8618SOL     OW34237   0.451   3.094   6.059 -0.4551  0.2486  1.1353
 8618SOL    HW234238   0.477   3.178   6.096  0.6704 -0.1622  1.3272
 8618SOL    HW334239   0.441   3.036   6.134 -1.1659  0.1831  1.0014
 8618SOL    MW434240   0.453   3.097   6.074 -0.4004  0.1857  1.1429
 8619SOL     OW34241   2.491   0.976   0.823 -0.6071  0.6800 -0.7561
 8619SOL    HW234242   2.502   0.898   0.768 -0.8614  0.6818 -0.8099
 8619SOL    HW334243   2.399   0.999   0.814 -0.6638  0.6467 -0.2829
 8619SOL    MW434244   2.480   0.969   0.815 -0.6481  0.6759 -0.7007
 8620SOL     OW34245   0.001   4.407   2.481  0.3707  0.0221  0.2626
 8620SOL    HW234246  -0.089   4.406   2.449 -0.3105 -0.7440  2.0847
 8620SOL    HW334247   0.032   4.495   2.461 -1.6923  1.2205  1.9140
 8620SOL    MW434248  -0.007   4.418   2.474  0.0086  0.0791  0.7209
 8621SOL     OW34249   2.162   6.328   5.768  0.1394  0.4427  0.2492
 8621SOL    HW234250   2.081   6.277   5.768 -0.5938  1.5680  0.4461
 8621SOL    HW334251   2.170   6.358   5.677 -0.2444  1.1855  0.4475
 8621SOL    MW434252   2.152   6.325   5.756 -0.0080  0.6891  0.3013
 8622SOL     OW34253   0.633   5.379   4.463  0.3088 -0.2190  0.2993
 8622SOL    HW234254   0.585   5.430   4.529 -0.3582  0.6810 -0.8275
 8622SOL    HW334255   0.681   5.445   4.413  0.2441 -0.7970 -0.5433
 8622SOL    MW434256   0.633   5.394   4.465  0.2123 -0.1765  0.0395
 8623SOL     OW34257   4.427   1.717   3.123  0.4319 -0.4177 -0.1326
 8623SOL    HW234258   4.424   1.787   3.189  1.2143 -0.1108 -0.4162
 8623SOL    HW334259   4.338   1.682   3.123  0.3373 -0.2277  0.8759
 8623SOL    MW434260   4.415   1.722   3.132  0.5227 -0.3521 -0.0369
 8624SOL     OW34261   5.927   1.427   5.891  0.3436 -0.6263  0.2227
 8624SOL    HW234262   6.018   1.404   5.873 -0.0695 -2.2167 -0.0152
 8624SOL    HW334263   5.931   1.484   5.968  1.4298 -2.2757  1.4492
 8624SOL    MW434264   5.939   1.431   5.899  0.4324 -1.0538  0.3531
 8625SOL     OW34265   4.884   2.152   4.211 -0.0372 -0.0039  0.3788
 8625SOL    HW234266   4.968   2.197   4.208  1.0989 -2.0109 -0.2128
 8625SOL    HW334267   4.859   2.142   4.119 -1.1625  0.9294  0.5584
 8625SOL    MW434268   4.892   2.157   4.198 -0.0358 -0.1455  0.3244
 8626SOL     OW34269   6.127   0.626   5.465  0.2770 -0.6663 -0.5974
 8626SOL    HW234270   6.155   0.589   5.381 -0.7901 -1.9837 -0.4241
 8626SOL    HW334271   6.045   0.671   5.445  0.1013 -0.8468 -0.2870
 8626SOL    MW434272   6.120   0.627   5.452  0.1130 -0.8639 -0.5336
 8627SOL     OW34273   6.035   5.600   0.384 -0.5795  0.4776 -0.1465
 8627SOL    HW234274   5.962   5.627   0.440  0.1135  0.7624  0.6427
 8627SOL    HW334275   5.996   5.537   0.323 -1.5661  0.9286 -0.0071
 8627SOL    MW434276   6.020   5.595   0.383 -0.6182  0.5746 -0.0239
 8628SOL     OW34277   0.947   1.005   3.972  0.0601 -0.0179 -0.2361
 8628SOL    HW234278   0.969   0.917   3.941 -0.8948 -0.3237 -0.0910
 8628SOL    HW334279   1.026   1.056   3.957  0.8634 -1.0616  0.2970
 8628SOL    MW434280   0.960   1.000   3.966  0.0401 -0.1959 -0.1466
 8629SOL     OW34281   1.258   2.729   3.396 -0.1631  0.2293 -0.0097
 8629SOL    HW234282   1.206   2.751   3.319 -0.4314 -1.5480 -0.3883
 8629SOL    HW334283   1.339   2.691   3.361 -0.4677 -1.0033  0.5464
 8629SOL    MW434284   1.262   2.727   3.381 -0.2387 -0.1678  0.0138
 8630SOL     OW34285   0.789   1.068   3.176 -0.1457 -0.5566  0.0110
 8630SOL    HW234286   0.748   0.985   3.199  1.2472 -1.4775 -0.6625
 8630SOL    HW334287   0.787   1.120   3.256 -0.3029 -1.5600  0.6722
 8630SOL    MW434288   0.784   1.064   3.189  0.0173 -0.8105  0.0094
 8631SOL     OW34289   5.625   3.870   0.080 -0.3498  0.6966  0.6599
 8631SOL    HW234290   5.611   3.793   0.134 -0.3316 -0.8615 -1.4139
 8631SOL    HW334291   5.573   3.854   0.001  0.1732  2.5101 -0.1146
 8631SOL    MW434292   5.617   3.858   0.077 -0.2784  0.7303  0.2841
 8632SOL     OW34293   1.730   0.546   2.637 -0.2249 -0.6358 -0.0436
 8632SOL    HW234294   1.750   0.546   2.544  2.0216  0.7707  0.3624
 8632SOL    HW334295   1.754   0.457   2.666 -2.7975 -1.7595 -1.0642
 8632SOL    MW434296   1.736   0.534   2.629 -0.2679 -0.5985 -0.1247
 8633SOL     OW34297   5.247   4.685   0.315  0.3751 -0.4931 -0.3157
 8633SOL    HW234298   5.255   4.726   0.401 -1.5481 -0.0124 -0.3101
 8633SOL    HW334299   5.319   4.723   0.264 -1.7569  3.7812 -0.6022
 8633SOL    MW434300   5.258   4.696   0.320 -0.1599  0.1343 -0.3528
 8634SOL     OW34301   5.346   5.941   6.414 -0.2350  0.4291 -0.3351
 8634SOL    HW234302   5.437   5.963   6.396 -0.1124 -0.8664 -1.5187
 8634SOL    HW334303   5.301   6.025   6.415  0.9307  1.0762  0.0676
 8634SOL    MW434304   5.352   5.955   6.412 -0.0651  0.3436 -0.4382
 8635SOL     OW34305   5.058   5.158   4.153 -0.2978  0.1435  0.7675
 8635SOL    HW234306   5.078   5.125   4.241  1.2019 -0.0592  0.3859
 8635SOL    HW334307   5.132   5.215   4.132 -0.0333 -0.7155 -0.8049
 8635SOL    MW434308   5.071   5.161   4.162 -0.0650  0.0034  0.5097
 8636SOL     OW34309   2.524   5.821   1.111  0.0314 -0.2696 -0.1372
 8636SOL    HW234310   2.474   5.901   1.127  1.9202  0.8494  0.4767
 8636SOL    HW334311   2.543   5.823   1.017 -0.4048 -0.3009 -0.2280
 8636SOL    MW434312   2.520   5.832   1.100  0.2231 -0.1261 -0.0682
 8637SOL     OW34313   0.331   0.076   6.066  0.2020 -0.2049 -0.4454
 8637SOL    HW234314   0.259   0.134   6.090 -0.8942 -1.3800 -0.7923
 8637SOL    HW334315   0.333   0.078   5.971  1.2518  0.5447 -0.4171
 8637SOL    MW434316   0.322   0.084   6.057  0.1959 -0.2610 -0.4874
 8638SOL     OW34317   4.845   5.226   3.258 -0.3268 -0.0437  1.0572
 8638SOL    HW234318   4.787   5.276   3.315 -1.3444  2.2844 -1.8076
 8638SOL    HW334319   4.795   5.147   3.235 -1.3119  0.6681  0.7003
 8638SOL    MW434320   4.831   5.222   3.263 -0.5911  0.3574  0.6322
 8639SOL     OW34321   4.008   3.760   4.303  0.1735 -0.0510  0.1114
 8639SOL    HW234322   3.921   3.719   4.294  0.4252 -0.3685 -1.0533
 8639SOL    HW334323   4.013   3.784   4.395 -1.3737  0.4621  0.1012
 8639SOL    MW434324   3.997   3.757   4.314  0.0025 -0.0252 -0.0436
 8640SOL     OW34325   6.371   2.167   3.926  0.0049  0.0128 -0.0496
 8640SOL    HW234326   6.334   2.098   3.871  1.6464 -0.0327 -1.1658
 8640SOL    HW334327   6.330   2.248   3.895 -0.8097 -0.2780  0.2520
 8640SOL    MW434328   6.361   2.169   3.915  0.1140 -0.0316 -0.1571
 8641SOL     OW34329   3.187   5.689   4.312 -0.0579  0.6076  0.2595
 8641SOL    HW234330   3.180   5.593   4.311 -0.0009  0.6053  0.0906
 8641SOL    HW334331   3.244   5.709   4.238 -0.9867  0.8564 -0.3943
 8641SOL    MW434332   3.194   5.679   4.302 -0.1729  0.6401  0.1510
 8642SOL     OW34333   1.244   2.357   0.788  0.5021 -0.0670  0.9445
 8642SOL    HW234334   1.274   2.286   0.731 -0.5593 -0.8797  1.3454
 8642SOL    HW334335   1.321   2.382   0.839  0.8943 -0.9359  0.7935
 8642SOL    MW434336   1.258   2.351   0.787  0.4138 -0.2888  0.9775
 8643SOL     OW34337   0.592   2.386   3.721 -0.0525 -0.0201 -0.8144
 8643SOL    HW234338   0.599   2.389   3.626 -0.7902  1.9868 -0.8398
 8643SOL    HW334339   0.505   2.351   3.738 -0.6689  1.4324 -0.9220
 8643SOL    MW434340   0.582   2.382   3.711 -0.2312  0.4363 -0.8320
 8644SOL     OW34341   0.048   0.132   1.392 -0.1746 -0.2928  1.0121
 8644SOL    HW234342   0.133   0.092   1.411  0.1914  0.5789  1.2584
 8644SOL    HW334343   0.012   0.153   1.478 -0.6342 -0.6368  0.9077
 8644SOL    MW434344   0.054   0.130   1.406 -0.1870 -0.2232  1.0308
 8645SOL     OW34345   4.729   4.425   3.727  0.4819  0.3203 -0.1601
 8645SOL    HW234346   4.824   4.429   3.741  0.1765  1.7833  1.9873
 8645SOL    HW334347   4.694   4.497   3.780 -1.7576  0.5456 -1.8108
 8645SOL    MW434348   4.737   4.435   3.736  0.1461  0.5430 -0.0946
 8646SOL     OW34349   1.792   4.647   0.896 -0.2294  0.1282  0.1205
 8646SOL    HW234350   1.811   4.707   0.968  0.3001 -0.0941  0.1679
 8646SOL    HW334351   1.865   4.586   0.895  0.1492  0.5668 -1.0516
 8646SOL    MW434352   1.804   4.647   0.905 -0.1096  0.1567 -0.0279
 8647SOL     OW34353   6.125   2.214   2.535  0.0352  0.2894  0.1093
 8647SOL    HW234354   6.078   2.242   2.614  2.2027  0.3169  1.4907
 8647SOL    HW334355   6.204   2.268   2.535  0.7202 -0.6690 -1.3586
 8647SOL    MW434356   6.129   2.225   2.546  0.4115  0.1666  0.0979
 8648SOL     OW34357   3.840   2.637   4.803 -0.3502 -0.2611 -0.3642
 8648SOL    HW234358   3.796   2.588   4.873 -0.2955 -2.3657 -1.7027
 8648SOL    HW334359   3.933   2.621   4.818 -0.2413  0.6280 -0.0185
 8648SOL    MW434360   3.847   2.628   4.814 -0.3286 -0.4214 -0.4952
 8649SOL     OW34361   3.177   4.474   2.564  0.5189  0.0884  0.0815
 8649SOL    HW234362   3.202   4.535   2.634  0.3849 -0.4853  0.6346
 8649SOL    HW334363   3.239   4.401   2.572  0.6429  0.1187 -0.5425
 8649SOL    MW434364   3.189   4.473   2.574  0.5176  0.0167  0.0722
 8650SOL     OW34365   2.670   5.910   5.667  0.2233  0.0666 -0.1944
 8650SOL    HW234366   2.756   5.901   5.709  1.2611  0.4675 -2.1210
 8650SOL    HW334367   2.663   5.833   5.610 -1.7833 -1.2321  1.6286
 8650SOL    MW434368   2.680   5.898   5.665  0.0955 -0.0519 -0.2081
 8651SOL     OW34369   0.838   0.469   5.494 -0.0091 -0.1485  0.1494
 8651SOL    HW234370   0.898   0.502   5.561 -0.6988 -0.1818  0.7868
 8651SOL    HW334371   0.869   0.380   5.476 -0.2046 -0.3620  0.8727
 8651SOL    MW434372   0.850   0.462   5.500 -0.1259 -0.1810  0.3289
 8652SOL     OW34373   3.869   1.501   3.791  0.7284 -0.4291 -0.5048
 8652SOL    HW234374   3.841   1.575   3.737 -0.6620 -0.3496  0.2725
 8652SOL    HW334375   3.858   1.425   3.734  0.3585 -0.2335 -0.7025
 8652SOL    MW434376   3.864   1.501   3.776  0.4961 -0.3928 -0.4283
 8653SOL     OW34377   4.476   6.217   2.192 -0.4025  0.0363 -0.1118
 8653SOL    HW234378   4.416   6.283   2.227  0.6506  1.4869 -0.9448
 8653SOL    HW334379   4.437   6.134   2.219 -2.7461  0.8948 -0.5579
 8653SOL    MW434380   4.463   6.215   2.200 -0.5728  0.3409 -0.2805
 8654SOL     OW34381   0.969   3.211   5.328  0.4063 -0.3771 -0.3463
 8654SOL    HW234382   0.902   3.272   5.359  1.4381  0.3916  0.4431
 8654SOL    HW334383   1.044   3.266   5.306  1.0808 -1.2946 -0.4126
 8654SOL    MW434384   0.970   3.226   5.329  0.6314 -0.3967 -0.2509
 8655SOL     OW34385   1.418   5.718   2.615 -0.1005 -0.0089  0.1063
 8655SOL    HW234386   1.426   5.633   2.659 -1.7667 -0.7436 -0.9249
 8655SOL    HW334387   1.339   5.756   2.652  0.9721  1.4404  1.0274
 8655SOL    MW434388   1.409   5.712   2.626 -0.1788  0.0854  0.0918
 8656SOL     OW34389   1.656   2.230   5.904  0.3293 -0.3036 -0.0635
 8656SOL    HW234390   1.719   2.181   5.852 -0.6628 -1.0450 -0.6081
 8656SOL    HW334391   1.599   2.272   5.840 -0.1185 -0.1597  0.4153
 8656SOL    MW434392   1.657   2.230   5.889  0.1393 -0.3825 -0.0722
 8657SOL     OW34393   5.738   3.696   5.918 -0.0190  0.0081 -0.5337
 8657SOL    HW234394   5.659   3.687   5.973 -0.0140 -0.5054 -0.6061
 8657SOL    HW334395   5.810   3.697   5.981 -0.1135  1.0845 -0.4254
 8657SOL    MW434396   5.737   3.695   5.934 -0.0308  0.0823 -0.5290
 8658SOL     OW34397   5.048   0.623   4.988 -0.1829 -0.6213  0.1226
 8658SOL    HW234398   5.089   0.641   5.072 -0.2540  0.8681 -0.1288
 8658SOL    HW334399   5.113   0.651   4.923 -0.7102 -0.3682 -0.3036
 8658SOL    MW434400   5.062   0.629   4.990 -0.2619 -0.3914  0.0332
 8659SOL     OW34401   1.534   3.957   4.404 -0.0841  0.4776 -0.0811
 8659SOL    HW234402   1.458   3.941   4.348  0.2801  0.7087 -0.6568
 8659SOL    HW334403   1.529   3.890   4.472 -0.9132  0.6212  0.0070
 8659SOL    MW434404   1.523   3.946   4.406 -0.1455  0.5270 -0.1454
 8660SOL     OW34405   6.204   6.323   2.291 -0.1153 -0.1790 -0.7008
 8660SOL    HW234406   6.158   6.240   2.304 -0.0943 -0.2203 -0.8898
 8660SOL    HW334407   6.135   6.388   2.279 -0.1798  0.0929  0.9193
 8660SOL    MW434408   6.189   6.321   2.291 -0.1211 -0.1486 -0.5120
 8661SOL     OW34409   3.840   0.809   4.466 -0.6114  0.1417 -0.2651
 8661SOL    HW234410   3.780   0.882   4.480 -0.5002  0.2935 -0.5815
 8661SOL    HW334411   3.913   0.846   4.416 -0.1149  0.0223  0.3640
 8661SOL    MW434412   3.842   0.823   4.461 -0.5312  0.1460 -0.2238
 8662SOL     OW34413   4.600   3.558   4.137  0.2395 -0.3599 -0.3989
 8662SOL    HW234414   4.657   3.528   4.067 -1.1247 -0.8957 -1.3263
 8662SOL    HW334415   4.549   3.629   4.097 -1.2823 -1.3617 -0.3025
 8662SOL    MW434416   4.601   3.564   4.122 -0.1412 -0.5628 -0.5086
 8663SOL     OW34417   0.640   5.452   3.519  0.1272  0.1502  0.0435
 8663SOL    HW234418   0.703   5.440   3.448 -2.1168 -2.2495 -1.7830
 8663SOL    HW334419   0.609   5.542   3.509  0.8104  0.2703 -1.2011
 8663SOL    MW434420   0.644   5.462   3.509 -0.0787 -0.1505 -0.3617
 8664SOL     OW34421   2.202   5.749   4.250 -0.2716 -0.1990  0.0277
 8664SOL    HW234422   2.187   5.714   4.162  0.2956 -1.9551  0.6068
 8664SOL    HW334423   2.132   5.813   4.262 -0.8406 -0.5184 -1.3840
 8664SOL    MW434424   2.191   5.753   4.240 -0.2718 -0.4728 -0.0822
 8665SOL     OW34425   0.822   1.751   3.318  0.2922 -0.4885  0.0679
 8665SOL    HW234426   0.893   1.743   3.382 -1.5296 -0.5901  2.1869
 8665SOL    HW334427   0.805   1.661   3.290  0.8324 -0.4826 -0.3099
 8665SOL    MW434428   0.829   1.739   3.323  0.1231 -0.5012  0.2977
 8666SOL     OW34429   4.105   1.626   1.602 -0.1877 -0.2353 -0.1402
 8666SOL    HW234430   4.088   1.717   1.627 -0.0219 -0.6717  1.7378
 8666SOL    HW334431   4.028   1.599   1.553 -0.3380  0.8406 -0.5117
 8666SOL    MW434432   4.093   1.635   1.599 -0.1857 -0.1510  0.0586
 8667SOL     OW34433   0.657   2.564   6.409 -0.1131  0.1991 -0.3006
 8667SOL    HW234434   0.587   2.534   6.352 -1.4021 -1.5579  2.0384
 8667SOL    HW334435   0.613   2.605   6.484  1.4498  1.3162  0.0771
 8667SOL    MW434436   0.642   2.566   6.412 -0.0770  0.1147  0.0578
 8668SOL     OW34437   5.083   5.066   2.387  0.2503  0.3613 -0.0783
 8668SOL    HW234438   5.015   5.118   2.345 -0.1257 -1.0191 -1.2646
 8668SOL    HW334439   5.163   5.116   2.374  0.2529 -0.2647 -3.0486
 8668SOL    MW434440   5.085   5.079   2.380  0.2010  0.0966 -0.6267
 8669SOL     OW34441   4.460   0.645   0.988  0.6698  0.2638 -0.0125
 8669SOL    HW234442   4.512   0.607   0.918  0.2057  1.6961 -1.1830
 8669SOL    HW334443   4.521   0.652   1.062  1.2633 -0.9138 -0.3706
 8669SOL    MW434444   4.475   0.641   0.989  0.6869  0.2974 -0.2142
 8670SOL     OW34445   4.404   4.737   6.235  0.9665 -0.2124 -0.6179
 8670SOL    HW234446   4.331   4.797   6.223  0.3112 -0.8249  0.1789
 8670SOL    HW334447   4.413   4.729   6.330  2.5882  0.4559 -0.6751
 8670SOL    MW434448   4.396   4.744   6.246  1.0940 -0.2050 -0.5203
 8671SOL     OW34449   4.857   4.751   5.424  0.2291  0.0743 -0.4090
 8671SOL    HW234450   4.898   4.819   5.370  0.8392 -1.2190 -1.6276
 8671SOL    HW334451   4.926   4.687   5.439 -0.6545 -0.8648 -0.2838
 8671SOL    MW434452   4.871   4.752   5.419  0.1930 -0.2203 -0.5533
 8672SOL     OW34453   5.186   0.211   0.065  0.0215  0.4397  0.1528
 8672SOL    HW234454   5.192   0.134   0.007  0.5752  0.2068  0.5134
 8672SOL    HW334455   5.175   0.174   0.152  0.6453  0.7618  0.3707
 8672SOL    MW434456   5.186   0.196   0.069  0.1768  0.4515  0.2291
 8673SOL     OW34457   0.758   0.080   4.668 -0.0426 -0.2811 -0.8266
 8673SOL    HW234458   0.730   0.100   4.757  2.2521 -3.3265  0.7748
 8673SOL    HW334459   0.695   0.015   4.637  0.6055 -1.1703 -0.3378
 8673SOL    MW434460   0.746   0.074   4.676  0.3457 -0.8002 -0.5508
 8674SOL     OW34461   2.579   0.275   4.273 -0.0533  0.4217  0.6020
 8674SOL    HW234462   2.591   0.200   4.331 -1.5717  0.4604  1.0083
 8674SOL    HW334463   2.634   0.256   4.197  0.2546 -0.6804  1.0807
 8674SOL    MW434464   2.588   0.263   4.270 -0.2130  0.2814  0.7188
 8675SOL     OW34465   5.357   1.624   5.048  0.5488  0.4423  0.2483
 8675SOL    HW234466   5.285   1.562   5.039 -1.4140  2.4477  1.2027
 8675SOL    HW334467   5.359   1.672   4.965  1.5324 -0.2804 -0.1769
 8675SOL    MW434468   5.348   1.622   5.036  0.4196  0.6115  0.3181
 8676SOL     OW34469   6.077   2.719   5.531 -0.4124  0.0725 -0.1339
 8676SOL    HW234470   6.078   2.798   5.585 -0.3957 -0.0601  0.0607
 8676SOL    HW334471   6.093   2.751   5.442 -0.0489  0.2493 -0.0083
 8676SOL    MW434472   6.079   2.734   5.526 -0.3623  0.0783 -0.0917
 8677SOL     OW34473   4.375   1.567   2.231  0.1648  0.5244 -0.1258
 8677SOL    HW234474   4.407   1.543   2.144 -2.1395  1.0546 -1.2145
 8677SOL    HW334475   4.357   1.483   2.273 -1.5185  0.2151 -1.3512
 8677SOL    MW434476   4.377   1.553   2.225 -0.3613  0.5536 -0.4311
 8678SOL     OW34477   6.063   1.199   0.978 -0.0023  0.2219  0.4490
 8678SOL    HW234478   6.116   1.124   0.950  2.2193  1.4470  1.0805
 8678SOL    HW334479   6.058   1.255   0.901  1.3929  1.0271  0.9072
 8678SOL    MW434480   6.070   1.197   0.964  0.4749  0.4898  0.5927
 8679SOL     OW34481   3.927   5.071   1.818 -0.4322 -0.5476 -0.2935
 8679SOL    HW234482   3.837   5.076   1.785 -0.0187 -1.1447 -1.5426
 8679SOL    HW334483   3.979   5.121   1.756  0.3027 -1.3224 -0.3248
 8679SOL    MW434484   3.922   5.078   1.806 -0.2807 -0.7286 -0.4624
 8680SOL     OW34485   1.757   2.545   5.235  0.7962  0.4112  0.1234
 8680SOL    HW234486   1.732   2.609   5.302 -0.5811 -0.4381  0.4515
 8680SOL    HW334487   1.850   2.528   5.252  0.8626  1.3754  0.8220
 8680SOL    MW434488   1.766   2.552   5.246  0.6233  0.4264  0.2589
 8681SOL     OW34489   2.673   3.103   3.153 -0.3287  0.4332 -0.5876
 8681SOL    HW234490   2.670   3.160   3.229 -1.4096  0.4292 -0.6008
 8681SOL    HW334491   2.765   3.098   3.129  0.3403 -1.0683  1.8607
 8681SOL    MW434492   2.684   3.110   3.160 -0.3830  0.2345 -0.2663
 8682SOL     OW34493   1.958   0.504   3.898  0.4342 -0.7488 -0.2338
 8682SOL    HW234494   2.028   0.463   3.949  0.4287  0.7767  1.0951
 8682SOL    HW334495   2.003   0.540   3.821  2.0774  3.5690  2.3750
 8682SOL    MW434496   1.974   0.503   3.894  0.6503  0.0221  0.2857
 8683SOL     OW34497   6.321   1.209   5.298 -0.9437  0.0355 -0.0673
 8683SOL    HW234498   6.265   1.232   5.224  0.4257  0.4555 -1.0220
 8683SOL    HW334499   6.353   1.293   5.330  0.2985 -0.2582 -0.4949
 8683SOL    MW434500   6.318   1.223   5.292 -0.5992  0.0521 -0.2497
 8684SOL     OW34501   1.136   4.455   3.508 -0.4707 -0.3562  0.3413
 8684SOL    HW234502   1.086   4.375   3.489  1.3678 -1.5197  0.1701
 8684SOL    HW334503   1.095   4.491   3.586 -2.6258 -0.3166 -0.7341
 8684SOL    MW434504   1.124   4.449   3.516 -0.5125 -0.5045  0.1768
 8685SOL     OW34505   0.822   4.637   2.924  0.4969  0.0512 -0.5163
 8685SOL    HW234506   0.914   4.618   2.942  0.5530 -1.6843 -2.3166
 8685SOL    HW334507   0.775   4.558   2.952  0.0750 -0.7411 -3.1537
 8685SOL    MW434508   0.828   4.624   2.930  0.4486 -0.2823 -1.1018
 8686SOL     OW34509   2.297   3.277   2.036  0.1477 -0.3059 -0.0550
 8686SOL    HW234510   2.373   3.261   1.979 -0.3035  0.2643 -0.8285
 8686SOL    HW334511   2.230   3.310   1.977 -0.8893 -1.3018  0.5265
 8686SOL    MW434512   2.298   3.279   2.021 -0.0487 -0.3620 -0.0804
 8687SOL     OW34513   1.550   4.361   2.990 -0.2296  0.3695 -0.2840
 8687SOL    HW234514   1.542   4.420   3.066 -0.2164  0.5446 -0.4169
 8687SOL    HW334515   1.630   4.389   2.946  2.5002 -2.7327  2.2175
 8687SOL    MW434516   1.559   4.373   2.994  0.1323 -0.0167  0.0285
 8688SOL     OW34517   0.181   1.951   4.329 -0.0882  0.4535  0.1680
 8688SOL    HW234518   0.266   1.968   4.370  0.5658 -1.8100 -0.1083
 8688SOL    HW334519   0.137   1.892   4.389 -1.3456  1.2913  0.1092
 8688SOL    MW434520   0.187   1.946   4.342 -0.1678  0.2654  0.1238
 8689SOL     OW34521   1.669   1.236   4.145  0.0932 -0.1602  0.0748
 8689SOL    HW234522   1.672   1.308   4.082  0.3584  0.8700  1.2300
 8689SOL    HW334523   1.576   1.214   4.151  0.2711 -2.7004 -3.2548
 8689SOL    MW434524   1.657   1.243   4.137  0.1517 -0.3594 -0.2121
 8690SOL     OW34525   2.915   4.398   2.841 -0.4119 -0.3604  0.5860
 8690SOL    HW234526   2.861   4.419   2.765 -0.8078  2.5248  1.5364
 8690SOL    HW334527   2.926   4.303   2.838 -0.7245 -0.3880 -2.8153
 8690SOL    MW434528   2.910   4.388   2.831 -0.5054  0.0166  0.2627
 8691SOL     OW34529   2.383   3.276   1.035 -0.2409 -0.2101 -0.6110
 8691SOL    HW234530   2.461   3.225   1.012 -0.2078 -0.6976  0.5579
 8691SOL    HW334531   2.322   3.259   0.963  0.1807 -1.0155 -0.7963
 8691SOL    MW434532   2.385   3.267   1.022 -0.1809 -0.3807 -0.4812
 8692SOL     OW34533   4.920   2.352   5.570  0.2265  0.0491 -0.1330
 8692SOL    HW234534   4.956   2.341   5.657 -1.4462 -0.5553  0.5284
 8692SOL    HW334535   4.938   2.269   5.525 -0.6831 -0.4091  0.3352
 8692SOL    MW434536   4.927   2.340   5.575 -0.1142 -0.0911  0.0160
 8693SOL     OW34537   1.435   5.890   3.995 -0.0183  0.2461 -0.0697
 8693SOL    HW234538   1.454   5.875   3.902  1.8929  0.3203  0.2767
 8693SOL    HW334539   1.370   5.960   3.994  0.5916  0.8378 -1.3530
 8693SOL    MW434540   1.429   5.897   3.983  0.3143  0.3340 -0.1933
 8694SOL     OW34541   5.477   3.141   5.512  0.0994 -0.2347 -0.0081
 8694SOL    HW234542   5.554   3.088   5.492 -0.0983 -1.6754  2.6100
 8694SOL    HW334543   5.403   3.082   5.501 -0.6317  0.9454 -1.8221
 8694SOL    MW434544   5.478   3.126   5.508 -0.0232 -0.2691  0.0980
 8695SOL     OW34545   2.930   0.899   5.645  0.0362 -0.1128  0.3931
 8695SOL    HW234546   2.959   0.808   5.653 -1.3944 -0.5595  0.7092
 8695SOL    HW334547   2.932   0.916   5.550  0.7995 -0.2893  0.3671
 8695SOL    MW434548   2.934   0.889   5.633 -0.0518 -0.1950  0.4314
 8696SOL     OW34549   1.079   2.524   0.643  0.0594  0.0619  0.3105
 8696SOL    HW234550   1.144   2.576   0.594  0.5511  1.7016  2.5451
 8696SOL    HW334551   1.131   2.457   0.687 -0.0786 -0.1043  0.2166
 8696SOL    MW434552   1.095   2.522   0.642  0.1061  0.2563  0.5929
 8697SOL     OW34553   3.572   5.843   4.834 -0.7990 -0.4387 -0.1506
 8697SOL    HW234554   3.489   5.888   4.820 -0.3271  1.5754  2.7334
 8697SOL    HW334555   3.639   5.903   4.799 -0.4101 -1.0473 -0.4768
 8697SOL    MW434556   3.570   5.857   4.828 -0.6855 -0.2533  0.1869
 8698SOL     OW34557   6.082   4.408   5.109  0.0050 -0.1311 -0.3688
 8698SOL    HW234558   6.149   4.344   5.087 -1.0675 -1.4726  0.1331
 8698SOL    HW334559   6.056   4.386   5.199 -0.0756  1.2991 -0.0118
 8698SOL    MW434560   6.087   4.397   5.118 -0.1472 -0.1194 -0.2555
 8699SOL     OW34561   2.595   5.755   5.433 -0.7105  0.0981  0.0461
 8699SOL    HW234562   2.528   5.772   5.367 -0.1870 -0.4614 -0.6466
 8699SOL    HW334563   2.657   5.697   5.389 -0.3531 -0.2831  1.0391
 8699SOL    MW434564   2.594   5.749   5.418 -0.5943 -0.0260  0.0857
 8700SOL     OW34565   4.242   3.660   1.247  0.5000 -0.6818 -0.4118
 8700SOL    HW234566   4.275   3.623   1.330  1.1305 -0.6205 -0.6287
 8700SOL    HW334567   4.148   3.669   1.261  0.7568  0.5894  0.8080
 8700SOL    MW434568   4.234   3.656   1.260  0.6171 -0.5060 -0.2795
 8701SOL     OW34569   5.958   2.291   2.332  0.6230  0.6241 -0.0347
 8701SOL    HW234570   5.877   2.318   2.376  0.9764  2.3764 -0.3587
 8701SOL    HW334571   6.016   2.264   2.402 -0.3373 -1.0386  0.1754
 8701SOL    MW434572   5.955   2.291   2.347  0.5429  0.6359 -0.0497
 8702SOL     OW34573   5.055   1.257   1.875 -0.5214 -0.5143  0.0566
 8702SOL    HW234574   5.084   1.173   1.911  1.7170 -0.3344 -1.2094
 8702SOL    HW334575   5.047   1.243   1.781  3.0586  1.3994 -0.7037
 8702SOL    MW434576   5.058   1.244   1.868  0.2463 -0.2381 -0.2108
 8703SOL     OW34577   6.378   4.318   5.976  0.4913 -0.4175 -0.4469
 8703SOL    HW234578   6.293   4.358   5.995  1.3298  0.3209  2.1627
 8703SOL    HW334579   6.368   4.282   5.887 -0.4943  5.0650 -2.9478
 8703SOL    MW434580   6.365   4.318   5.967  0.4719  0.4033 -0.4326
 8704SOL     OW34581   6.079   0.031   1.608 -0.0407  0.3732  0.7480
 8704SOL    HW234582   6.066   0.103   1.670 -0.1786  2.6956 -1.8024
 8704SOL    HW334583   5.992  -0.006   1.595 -0.3900  1.3708  0.2367
 8704SOL    MW434584   6.066   0.035   1.614 -0.1050  0.8112  0.3440
 8705SOL     OW34585   0.807   3.078   2.255 -0.3065  0.1738 -0.3284
 8705SOL    HW234586   0.883   3.062   2.311 -0.8413  1.3186  0.7779
 8705SOL    HW334587   0.812   3.010   2.188 -0.5089 -2.3844  2.0299
 8705SOL    MW434588   0.818   3.067   2.254 -0.4038 -0.0127  0.1287
 8706SOL     OW34589   1.171   5.690   5.353  0.5392  0.6195 -0.0902
 8706SOL    HW234590   1.259   5.715   5.379  0.7685  0.8116 -1.0074
 8706SOL    HW334591   1.146   5.622   5.415  1.2959  0.6209  0.2308
 8706SOL    MW434592   1.179   5.684   5.364  0.6693  0.6451 -0.1688
 8707SOL     OW34593   5.211   6.096   3.643 -0.0871 -0.2849  0.0216
 8707SOL    HW234594   5.217   6.185   3.677  0.8056 -0.4434  0.2876
 8707SOL    HW334595   5.155   6.104   3.565  0.0788  0.5260 -0.0196
 8707SOL    MW434596   5.204   6.109   3.637  0.0526 -0.1988  0.0512
 8708SOL     OW34597   3.410   2.069   5.284 -0.1975 -0.1186 -0.0898
 8708SOL    HW234598   3.335   2.022   5.319 -1.3601  0.5500 -1.5791
 8708SOL    HW334599   3.463   2.001   5.241 -1.4995 -0.2189 -1.6177
 8708SOL    MW434600   3.407   2.054   5.283 -0.5227 -0.0436 -0.4879
 8709SOL     OW34601   1.296   5.676   6.063  0.0553 -0.6089 -0.6685
 8709SOL    HW234602   1.200   5.676   6.069  0.1152 -0.0484  0.4076
 8709SOL    HW334603   1.324   5.750   6.116  1.1028 -0.8499 -0.8605
 8709SOL    MW434604   1.287   5.686   6.071  0.2014 -0.5667 -0.5519
 8710SOL     OW34605   3.670   1.382   1.836 -0.0477 -0.1198 -0.3779
 8710SOL    HW234606   3.605   1.409   1.901  0.9455  2.1169 -0.1977
 8710SOL    HW334607   3.623   1.384   1.753 -0.5700  0.0275 -0.0844
 8710SOL    MW434608   3.656   1.386   1.834  0.0144  0.1948 -0.3154
 8711SOL     OW34609   3.632   4.657   0.166 -0.2052  0.2455  0.4697
 8711SOL    HW234610   3.557   4.692   0.119  0.7852  2.4267  0.3388
 8711SOL    HW334611   3.598   4.634   0.253 -1.1380  0.6808  0.2344
 8711SOL    MW434612   3.618   4.659   0.172 -0.1976  0.5907  0.4214
 8712SOL     OW34613   2.532   4.123   3.888  0.7825 -0.7073 -0.2989
 8712SOL    HW234614   2.594   4.057   3.860  0.5725 -2.0785  2.2588
 8712SOL    HW334615   2.467   4.076   3.940 -1.2844  0.9975 -1.1528
 8712SOL    MW434616   2.531   4.108   3.891  0.4821 -0.6633 -0.0741
 8713SOL     OW34617   3.809   1.209   0.592 -0.0975  0.0831  0.5226
 8713SOL    HW234618   3.785   1.118   0.574  2.1465 -0.3662 -0.4345
 8713SOL    HW334619   3.732   1.260   0.565  0.1065 -1.2061 -2.9672
 8713SOL    MW434620   3.795   1.204   0.586  0.2255 -0.1463 -0.0641
 8714SOL     OW34621   5.265   4.550   3.525 -0.8746 -0.8202  0.1169
 8714SOL    HW234622   5.341   4.532   3.470  0.4490 -0.1210  1.6547
 8714SOL    HW334623   5.273   4.490   3.599  0.4705  1.9030  2.3575
 8714SOL    MW434624   5.276   4.540   3.528 -0.5225 -0.3687  0.6154
 8715SOL     OW34625   4.706   4.942   2.640  0.2756 -0.1758 -0.2383
 8715SOL    HW234626   4.784   4.915   2.689 -0.8865 -1.4841  0.9957
 8715SOL    HW334627   4.667   5.012   2.692 -0.7431 -1.2950  0.5731
 8715SOL    MW434628   4.711   4.948   2.653 -0.0121 -0.4961  0.0315
 8716SOL     OW34629   1.914   0.087   3.722  0.2145 -0.2063  0.4008
 8716SOL    HW234630   1.854   0.160   3.706  0.3695  0.2567  1.7555
 8716SOL    HW334631   1.885   0.018   3.662  0.3932  1.1322 -1.2978
 8716SOL    MW434632   1.902   0.087   3.712  0.2586  0.0314  0.3554
 8717SOL     OW34633   5.838   5.700   2.608 -0.8648 -0.0069 -0.3411
 8717SOL    HW234634   5.844   5.768   2.541  1.6354 -0.1396 -0.3403
 8717SOL    HW334635   5.798   5.744   2.683 -1.0282  0.9264 -0.9547
 8717SOL    MW434636   5.833   5.715   2.609 -0.5565  0.0988 -0.4219
 8718SOL     OW34637   3.505   1.590   2.852 -0.0978  0.2584 -0.0920
 8718SOL    HW234638   3.538   1.647   2.783  2.1198 -2.4952 -1.5226
 8718SOL    HW334639   3.452   1.525   2.806  1.0283 -1.3567  0.7825
 8718SOL    MW434640   3.502   1.589   2.837  0.3433 -0.3180 -0.1654
 8719SOL     OW34641   5.780   1.314   1.863  0.1402  0.0812  0.2379
 8719SOL    HW234642   5.857   1.353   1.904  1.1972 -1.6365 -0.0005
 8719SOL    HW334643   5.708   1.334   1.923  1.0823  0.2987  1.3318
 8719SOL    MW434644   5.781   1.322   1.877  0.4039 -0.1167  0.3508
 8720SOL     OW34645   1.724   6.451   6.257  0.0668 -0.5965  0.4381
 8720SOL    HW234646   1.654   6.490   6.203  0.1319 -0.2579  0.5918
 8720SOL    HW334647   1.677   6.404   6.326 -0.0127 -0.1144  0.7188
 8720SOL    MW434648   1.708   6.450   6.259  0.0649 -0.4882  0.4954
 8721SOL     OW34649   5.601   2.230   6.016 -0.0746 -0.1353  0.0757
 8721SOL    HW234650   5.535   2.268   6.073  1.1944  0.0956  1.4738
 8721SOL    HW334651   5.645   2.305   5.977 -0.3990 -0.2771 -0.5721
 8721SOL    MW434652   5.598   2.245   6.019  0.0500 -0.1235  0.1747
 8722SOL     OW34653   1.841   3.870   4.715 -0.2860 -0.5848 -0.1348
 8722SOL    HW234654   1.863   3.963   4.725 -0.5608 -0.5348  0.0189
 8722SOL    HW334655   1.925   3.825   4.719 -0.2268 -0.4171  0.6385
 8722SOL    MW434656   1.855   3.877   4.717 -0.3144 -0.5561 -0.0125
 8723SOL     OW34657   4.887   6.359   0.946  0.0938 -0.1872 -0.4030
 8723SOL    HW234658   4.888   6.325   0.856 -2.4039 -2.3198  0.2558
 8723SOL    HW334659   4.979   6.362   0.972  0.7087 -2.0618 -2.1297
 8723SOL    MW434660   4.899   6.355   0.937 -0.1546 -0.7159 -0.5439
 8724SOL     OW34661   0.564   5.477   0.347  0.4478  0.0061  0.1772
 8724SOL    HW234662   0.649   5.459   0.307  0.4731  0.7212 -0.0969
 8724SOL    HW334663   0.507   5.406   0.316  0.1631  1.1287 -2.0759
 8724SOL    MW434664   0.567   5.465   0.338  0.4136  0.2485 -0.1562
 8725SOL     OW34665   1.125   3.410   1.541  0.4558 -0.3015 -0.5379
 8725SOL    HW234666   1.057   3.395   1.475  0.3431 -0.1741 -0.4490
 8725SOL    HW334667   1.124   3.505   1.556  0.1070 -0.3995  0.0550
 8725SOL    MW434668   1.116   3.421   1.534  0.3949 -0.2976 -0.4480
 8726SOL     OW34669   4.763   4.448   1.098  0.0134 -0.1437  0.0615
 8726SOL    HW234670   4.745   4.354   1.104  1.6053 -0.5350 -0.6944
 8726SOL    HW334671   4.678   4.490   1.111 -0.5975 -1.6421  1.2857
 8726SOL    MW434672   4.750   4.441   1.101  0.1428 -0.3930  0.1233
 8727SOL     OW34673   4.422   5.986   2.895 -0.7738  0.1659 -0.1321
 8727SOL    HW234674   4.456   5.923   2.958  1.5738  1.1268 -0.3291
 8727SOL    HW334675   4.382   5.933   2.826 -1.4588 -0.9626  1.1020
 8727SOL    MW434676   4.421   5.971   2.894 -0.5544  0.1437  0.0047
 8728SOL     OW34677   1.031   4.639   0.376 -0.6932  0.2698  0.2425
 8728SOL    HW234678   1.068   4.718   0.337 -1.9322  0.6690 -0.1719
 8728SOL    HW334679   1.010   4.664   0.466 -0.1317  0.0876  0.4313
 8728SOL    MW434680   1.033   4.652   0.382 -0.7826  0.2984  0.2127
 8729SOL     OW34681   3.936   3.953   2.898 -0.0589 -0.2154  0.2539
 8729SOL    HW234682   3.949   4.041   2.934 -1.7624  0.1191  0.1004
 8729SOL    HW334683   3.843   3.935   2.910  0.2470 -1.9912  0.2244
 8729SOL    MW434684   3.926   3.963   2.905 -0.2433 -0.4055  0.2298
 8730SOL     OW34685   5.670   0.397   6.000  0.3270 -0.1486  0.2813
 8730SOL    HW234686   5.742   0.452   5.969 -0.3811  0.3055 -0.6133
 8730SOL    HW334687   5.657   0.333   5.930  0.4656 -0.8143  0.8566
 8730SOL    MW434688   5.678   0.396   5.987  0.2518 -0.1765  0.2392
 8731SOL     OW34689   4.739   5.649   4.877  0.5438 -0.2767 -0.2611
 8731SOL    HW234690   4.664   5.693   4.917  0.3637 -0.1821 -0.6979
 8731SOL    HW334691   4.810   5.662   4.940 -0.0834 -1.3486  0.6899
 8731SOL    MW434692   4.739   5.657   4.890  0.4373 -0.4057 -0.1932
 8732SOL     OW34693   0.916   0.920   4.242  0.2515  0.4795  0.0934
 8732SOL    HW234694   0.902   0.958   4.155  0.7701  0.7339  0.1220
 8732SOL    HW334695   0.957   0.989   4.293 -0.8974  0.6496  0.8307
 8732SOL    MW434696   0.919   0.934   4.237  0.1683  0.5355  0.1945
 8733SOL     OW34697   5.225   0.474   2.575  0.3451  0.1723  0.0870
 8733SOL    HW234698   5.263   0.561   2.563  0.8014  0.0624  0.6629
 8733SOL    HW334699   5.292   0.414   2.543  0.3593  0.0033  0.4294
 8733SOL    MW434700   5.239   0.478   2.569  0.4072  0.1355  0.2082
 8734SOL     OW34701   5.374   4.241   0.434 -0.0551 -0.3989 -0.0012
 8734SOL    HW234702   5.328   4.159   0.446  0.2672 -0.6377 -0.3603
 8734SOL    HW334703   5.409   4.236   0.345  1.1481 -0.4793  0.4478
 8734SOL    MW434704   5.373   4.230   0.424  0.1461 -0.4411  0.0106
 8735SOL     OW34705   5.423   1.024   4.253  0.3585 -0.3832 -0.5457
 8735SOL    HW234706   5.458   1.064   4.333 -0.6464 -0.6383  0.0446
 8735SOL    HW334707   5.427   0.930   4.269 -2.7288 -0.4494  0.5849
 8735SOL    MW434708   5.428   1.017   4.266 -0.1815 -0.4256 -0.3187
 8736SOL     OW34709   1.753   6.179   3.031  0.4951  0.3451 -0.0466
 8736SOL    HW234710   1.738   6.173   3.125  1.3949 -1.5213  0.0314
 8736SOL    HW334711   1.720   6.096   2.996  0.6173  0.8093 -1.3171
 8736SOL    MW434712   1.747   6.168   3.039  0.6299  0.1601 -0.2039
 8737SOL     OW34713   2.756   2.008   2.048 -0.1457 -0.0659 -0.2083
 8737SOL    HW234714   2.819   1.936   2.051  0.8511  0.7874  0.9425
 8737SOL    HW334715   2.671   1.967   2.061  0.1037 -1.2832 -2.0102
 8737SOL    MW434716   2.753   1.993   2.050  0.0187 -0.1139 -0.2942
 8738SOL     OW34717   6.072   1.763   5.225 -0.1877 -0.1077 -0.0458
 8738SOL    HW234718   6.133   1.689   5.223  0.0765  0.0603  0.9734
 8738SOL    HW334719   5.996   1.730   5.274 -1.6506 -0.8166 -2.6316
 8738SOL    MW434720   6.070   1.749   5.231 -0.3459 -0.1791 -0.2525
 8739SOL     OW34721   5.880   4.246   1.850  0.1274 -0.0187  0.0832
 8739SOL    HW234722   5.812   4.182   1.871 -0.1520  0.6881  1.4461
 8739SOL    HW334723   5.913   4.218   1.765 -0.4245 -1.5900  0.3491
 8739SOL    MW434724   5.875   4.234   1.842  0.0178 -0.1328  0.2981
 8740SOL     OW34725   4.691   4.981   1.479  0.3253  0.4698 -0.0400
 8740SOL    HW234726   4.625   4.964   1.546  1.8750 -0.0588  1.3936
 8740SOL    HW334727   4.764   4.924   1.501  1.5722  1.5539 -1.1748
 8740SOL    MW434728   4.692   4.971   1.491  0.6943  0.5431 -0.0006
 8741SOL     OW34729   5.909   3.339   1.971 -0.5303 -0.2743 -0.4134
 8741SOL    HW234730   5.890   3.342   1.877 -1.3086 -1.6820 -0.3353
 8741SOL    HW334731   5.838   3.389   2.012 -1.6707 -1.7929 -0.4364
 8741SOL    MW434732   5.897   3.346   1.964 -0.7834 -0.6604 -0.4061
 8742SOL     OW34733   1.320   6.245   1.396  0.0452 -1.1273 -0.2817
 8742SOL    HW234734   1.232   6.281   1.401 -0.6134 -2.8563  1.2846
 8742SOL    HW334735   1.376   6.316   1.427 -0.7125  0.1072 -1.6069
 8742SOL    MW434736   1.316   6.259   1.400 -0.1416 -1.1925 -0.2499
 8743SOL     OW34737   2.961   1.246   3.733  0.2327  0.0609 -0.5621
 8743SOL    HW234738   2.892   1.306   3.762 -0.1823 -0.1403 -1.1039
 8743SOL    HW334739   2.913   1.169   3.701  0.7458 -0.4312 -0.1735
 8743SOL    MW434740   2.945   1.244   3.733  0.2457 -0.0306 -0.5823
 8744SOL     OW34741   4.075   1.582   1.282  0.9646  0.3382 -0.3554
 8744SOL    HW234742   4.136   1.614   1.348 -3.4125  3.0307  2.8592
 8744SOL    HW334743   4.068   1.653   1.218  1.1997 -0.0027 -0.7685
 8744SOL    MW434744   4.082   1.595   1.282  0.4181  0.6485  0.0142
 8745SOL     OW34745   6.145   1.806   1.498  0.1632 -0.3080  0.2890
 8745SOL    HW234746   6.120   1.890   1.537  0.6633  0.4631 -0.9944
 8745SOL    HW334747   6.064   1.774   1.458  0.2421  0.1303 -0.2242
 8745SOL    MW434748   6.131   1.813   1.498  0.2396 -0.1484  0.0520
 8746SOL     OW34749   2.502   5.125   1.679  0.0250  0.0605  0.7960
 8746SOL    HW234750   2.554   5.171   1.613 -0.1357  0.7074  1.1163
 8746SOL    HW334751   2.520   5.172   1.761 -0.1052 -0.4750  1.1387
 8746SOL    MW434752   2.511   5.137   1.681 -0.0133  0.0752  0.8835
 8747SOL     OW34753   3.902   4.214   0.909 -0.1553 -0.6913  0.0320
 8747SOL    HW234754   3.857   4.145   0.861 -1.9185 -0.6102  1.4697
 8747SOL    HW334755   3.983   4.173   0.941 -0.8349 -1.8758  0.2759
 8747SOL    MW434756   3.907   4.200   0.907 -0.4776 -0.8369  0.2539
 8748SOL     OW34757   2.978   3.655   5.980  0.2247 -0.3713 -0.1050
 8748SOL    HW234758   2.971   3.570   6.022  0.3594 -0.1122  0.4574
 8748SOL    HW334759   3.060   3.652   5.931  1.7387  0.4097  2.2370
 8748SOL    MW434760   2.987   3.643   5.979  0.4422 -0.2341  0.2782
 8749SOL     OW34761   4.517   5.331   3.973 -0.6337  0.5656 -0.3829
 8749SOL    HW234762   4.580   5.262   3.994  0.0468  0.9021 -1.2389
 8749SOL    HW334763   4.439   5.284   3.946 -0.0097  0.1059 -1.4536
 8749SOL    MW434764   4.515   5.316   3.972 -0.4616  0.5493 -0.6371
 8750SOL     OW34765   4.435   2.771   5.111  0.3859  0.0127 -0.0044
 8750SOL    HW234766   4.349   2.743   5.141  0.0823  0.3061 -0.5716
 8750SOL    HW334767   4.451   2.854   5.156  0.4615 -0.1393  0.2508
 8750SOL    MW434768   4.426   2.778   5.121  0.3558  0.0313 -0.0455
 8751SOL     OW34769   3.207   0.492   3.362  0.5129  0.4267  0.0259
 8751SOL    HW234770   3.169   0.501   3.274  0.7767 -1.0307 -0.2651
 8751SOL    HW334771   3.248   0.405   3.361  0.6901  0.4732  1.5270
 8751SOL    MW434772   3.207   0.481   3.350  0.5711  0.2405  0.1856
 8752SOL     OW34773   2.507   2.402   0.198  0.5264  0.3878  0.2499
 8752SOL    HW234774   2.546   2.315   0.214  0.8464  0.5287  0.2526
 8752SOL    HW334775   2.583   2.460   0.190  0.3237  0.6099 -0.0827
 8752SOL    MW434776   2.522   2.398   0.199  0.5419  0.4357  0.2064
 8753SOL     OW34777   4.585   2.114   3.145 -0.0904  0.3318  0.7285
 8753SOL    HW234778   4.499   2.103   3.186 -0.1225  1.9009  1.1388
 8753SOL    HW334779   4.568   2.165   3.066 -0.3399 -4.2524 -2.5867
 8753SOL    MW434780   4.572   2.119   3.140 -0.1276 -0.0660  0.3452
 8754SOL     OW34781   0.004   1.418   1.705  0.3484  0.6915  0.2355
 8754SOL    HW234782   0.015   1.505   1.666  0.1363  0.8101  0.4454
 8754SOL    HW334783   0.083   1.371   1.678 -0.1779  0.5040 -1.0513
 8754SOL    MW434784   0.016   1.424   1.696  0.2510  0.6824  0.0934
 8755SOL     OW34785   0.541   0.263   2.925  0.3377 -0.0473 -0.1839
 8755SOL    HW234786   0.542   0.348   2.882  1.6839  1.0715  1.8760
 8755SOL    HW334787   0.617   0.217   2.890  0.6442  0.3234 -0.0121
 8755SOL    MW434788   0.551   0.268   2.915  0.5558  0.1492  0.1106
 8756SOL     OW34789   3.382   1.005   4.608 -0.5181 -0.3296  0.6065
 8756SOL    HW234790   3.309   0.963   4.562 -0.2309 -0.0085 -0.1722
 8756SOL    HW334791   3.342   1.045   4.685 -1.4687  1.0913 -0.5511
 8756SOL    MW434792   3.367   1.005   4.612 -0.6056 -0.0998  0.3510
 8757SOL     OW34793   2.488   5.345   3.062 -0.0685  0.6301 -0.0793
 8757SOL    HW234794   2.486   5.440   3.048  0.9081  0.7206  0.3328
 8757SOL    HW334795   2.533   5.311   2.984  2.4256  0.8336  1.1503
 8757SOL    MW434796   2.494   5.353   3.050  0.3894  0.6689  0.1373
 8758SOL     OW34797   2.633   1.672   5.557 -0.6378  0.5300 -0.3884
 8758SOL    HW234798   2.588   1.701   5.637 -0.5489  0.4497 -0.3085
 8758SOL    HW334799   2.714   1.633   5.589 -0.3218  1.0378 -0.5627
 8758SOL    MW434800   2.638   1.671   5.572 -0.5844  0.5864 -0.4008
 8759SOL     OW34801   4.870   2.812   6.050 -0.0023  0.8379 -0.1130
 8759SOL    HW234802   4.800   2.816   5.985 -1.3778  1.6468  1.3510
 8759SOL    HW334803   4.827   2.784   6.131  1.6776 -0.2753  0.4513
 8759SOL    MW434804   4.855   2.809   6.052  0.0378  0.7978  0.1546
 8760SOL     OW34805   5.978   3.128   3.939 -0.1153 -0.1233  0.0431
 8760SOL    HW234806   5.898   3.135   3.992  0.0298 -1.7323  0.5401
 8760SOL    HW334807   6.017   3.045   3.966 -0.5371 -1.5692 -3.2518
 8760SOL    MW434808   5.972   3.118   3.950 -0.1518 -0.5263 -0.3260
 8761SOL     OW34809   1.078   5.181   4.493  0.3286 -0.3240  0.0759
 8761SOL    HW234810   1.013   5.235   4.537  1.6192  0.1368  1.5342
 8761SOL    HW334811   1.153   5.180   4.553  0.8254 -2.7100 -0.4812
 8761SOL    MW434812   1.079   5.188   4.507  0.5645 -0.5780  0.1948
 8762SOL     OW34813   3.595   2.984   1.780 -0.0637 -0.3595  0.2377
 8762SOL    HW234814   3.548   2.954   1.857  0.4157  0.0537  0.6950
 8762SOL    HW334815   3.651   3.055   1.811  1.8707 -1.7090 -0.0219
 8762SOL    MW434816   3.596   2.990   1.794  0.2548 -0.4830  0.2638
 8763SOL     OW34817   1.485   4.592   2.009  0.0304 -0.2605 -0.0142
 8763SOL    HW234818   1.465   4.498   2.006  0.8217 -0.4301 -0.3956
 8763SOL    HW334819   1.580   4.595   2.019 -0.1754  0.5107  2.1015
 8763SOL    MW434820   1.495   4.580   2.010  0.1076 -0.1811  0.2146
 8764SOL     OW34821   1.634   1.645   3.522  0.1405 -0.0042 -0.0714
 8764SOL    HW234822   1.671   1.560   3.502  0.2573  0.1950 -0.7354
 8764SOL    HW334823   1.691   1.708   3.477 -0.4262  0.3662 -0.2898
 8764SOL    MW434824   1.646   1.642   3.514  0.0811  0.0710 -0.1878
 8765SOL     OW34825   0.104   4.695   5.640 -0.4360  0.2528  0.4314
 8765SOL    HW234826   0.114   4.772   5.696 -2.9865  0.1349  1.1587
 8765SOL    HW334827   0.036   4.720   5.577 -3.3635 -2.1834  2.3591
 8765SOL    MW434828   0.096   4.709   5.639 -1.1588 -0.0842  0.7817
 8766SOL     OW34829   5.320   3.605   5.178 -0.3043  0.3520  0.3445
 8766SOL    HW234830   5.318   3.534   5.113  1.0446 -1.8541  2.5157
 8766SOL    HW334831   5.383   3.667   5.144  2.8912 -2.3372  0.8760
 8766SOL    MW434832   5.328   3.604   5.165  0.2952 -0.2939  0.7010
 8767SOL     OW34833   5.190   4.261   5.188  0.2797  0.5366  0.5267
 8767SOL    HW234834   5.218   4.315   5.263  1.6995  0.7548 -0.1355
 8767SOL    HW334835   5.106   4.299   5.162 -0.6870 -0.0817  2.5325
 8767SOL    MW434836   5.183   4.273   5.195  0.3395  0.4838  0.7039
 8768SOL     OW34837   1.407   0.086   5.285 -0.3387  0.2467  0.2876
 8768SOL    HW234838   1.474   0.113   5.347  0.0523 -0.0047 -0.0200
 8768SOL    HW334839   1.453   0.075   5.202 -0.7031 -0.2155  0.1391
 8768SOL    MW434840   1.422   0.088   5.282 -0.3352  0.1526  0.2274
 8769SOL     OW34841   6.345   4.822   3.417 -0.3687  0.4708 -0.5081
 8769SOL    HW234842   6.381   4.905   3.448  0.1106  0.2695 -0.5160
 8769SOL    HW334843   6.330   4.771   3.496 -0.2379  0.3997 -0.5268
 8769SOL    MW434844   6.348   4.826   3.431 -0.2882  0.4349 -0.5116
 8770SOL     OW34845   3.177   4.194   0.449  0.0533 -0.8105 -0.3463
 8770SOL    HW234846   3.171   4.124   0.514  0.1441  1.9423  2.9251
 8770SOL    HW334847   3.271   4.215   0.445 -0.0934 -0.0916 -0.3077
 8770SOL    MW434848   3.189   4.188   0.457  0.0460 -0.3524  0.0904
 8771SOL     OW34849   5.135   3.570   6.135  0.3111 -0.5118 -0.2045
 8771SOL    HW234850   5.220   3.535   6.161 -0.0833 -1.2984  0.0628
 8771SOL    HW334851   5.103   3.509   6.069  0.5664  0.5618 -1.3511
 8771SOL    MW434852   5.142   3.557   6.130  0.2928 -0.4739 -0.3205
 8772SOL     OW34853   5.536   3.121   1.583  0.9248  0.0654 -0.3178
 8772SOL    HW234854   5.468   3.149   1.644  0.4474  2.2849 -1.7407
 8772SOL    HW334855   5.578   3.047   1.626  0.2061  1.1023  2.3940
 8772SOL    MW434856   5.533   3.115   1.597  0.7670  0.4950 -0.1478
 8773SOL     OW34857   1.469   4.448   4.868  0.4012  0.5007 -0.6467
 8773SOL    HW234858   1.455   4.494   4.951 -0.6434 -1.2768  0.2340
 8773SOL    HW334859   1.483   4.357   4.894 -0.2686 -0.1511 -2.4467
 8773SOL    MW434860   1.469   4.442   4.882  0.1750  0.1802 -0.7680
 8774SOL     OW34861   3.064   1.004   2.252  0.2460 -0.4912 -0.5770
 8774SOL    HW234862   3.156   0.976   2.245  0.5721  0.7229 -1.6155
 8774SOL    HW334863   3.069   1.098   2.269 -0.8161 -0.8156  1.8408
 8774SOL    MW434864   3.077   1.013   2.253  0.1489 -0.3738 -0.3950
 8775SOL     OW34865   3.316   6.206   5.718 -0.3316  0.3780 -0.0666
 8775SOL    HW234866   3.284   6.140   5.656 -1.2933  1.0102 -0.2553
 8775SOL    HW334867   3.246   6.216   5.782 -0.3151  1.4178 -0.2004
 8775SOL    MW434868   3.303   6.199   5.718 -0.4563  0.5986 -0.1091
 8776SOL     OW34869   0.242   0.745   3.821  0.1004 -0.2988 -0.0236
 8776SOL    HW234870   0.320   0.783   3.780 -0.6986  1.0133 -0.3811
 8776SOL    HW334871   0.204   0.689   3.754  0.6713 -0.8862  0.1268
 8776SOL    MW434872   0.247   0.743   3.807  0.0703 -0.2032 -0.0509
 8777SOL     OW34873   0.294   6.232   3.769  0.4648  0.0269 -0.3709
 8777SOL    HW234874   0.300   6.158   3.709 -0.8037  1.1233 -1.9360
 8777SOL    HW334875   0.268   6.306   3.714 -0.6685  1.1277  1.5221
 8777SOL    MW434876   0.291   6.232   3.754  0.1479  0.3168 -0.3277
 8778SOL     OW34877   1.138   2.800   4.501  0.2867  0.2417 -0.4568
 8778SOL    HW234878   1.105   2.857   4.431  0.2433  1.3392  0.4405
 8778SOL    HW334879   1.230   2.825   4.510 -0.0119  0.9688  0.6990
 8778SOL    MW434880   1.146   2.811   4.493  0.2416  0.4825 -0.1859
 8779SOL     OW34881   0.290   3.391   1.278  0.9556  0.1893 -0.5571
 8779SOL    HW234882   0.331   3.330   1.338  0.8585  1.1280  0.4913
 8779SOL    HW334883   0.225   3.438   1.331 -0.8957 -0.6360 -1.9535
 8779SOL    MW434884   0.286   3.389   1.293  0.6986  0.2043 -0.6030
 8780SOL     OW34885   4.879   1.529   5.487  0.0676 -0.1047 -0.4812
 8780SOL    HW234886   4.932   1.534   5.567  0.1706  0.0565 -0.5576
 8780SOL    HW334887   4.943   1.513   5.417  0.0768  0.5748 -0.6379
 8780SOL    MW434888   4.895   1.528   5.488  0.0824  0.0062 -0.5119
 8781SOL     OW34889   1.469   1.484   4.338 -0.3267  0.4423  1.0531
 8781SOL    HW234890   1.562   1.465   4.330 -0.2293  1.1679  0.3796
 8781SOL    HW334891   1.431   1.404   4.373  0.1496 -0.8498 -1.1888
 8781SOL    MW434892   1.476   1.471   4.341 -0.2510  0.3676  0.6684
 8782SOL     OW34893   5.460   0.758   0.716  0.0635  0.4366  0.5591
 8782SOL    HW234894   5.472   0.765   0.622  0.0428  1.0317  0.5999
 8782SOL    HW334895   5.526   0.816   0.754  0.2646 -0.0156  0.9237
 8782SOL    MW434896   5.470   0.766   0.709  0.0873  0.4554  0.6126
 8783SOL     OW34897   1.773   4.522   6.175 -0.6229  0.0293  0.6091
 8783SOL    HW234898   1.825   4.598   6.200  0.4667  0.1122 -1.6206
 8783SOL    HW334899   1.682   4.547   6.192 -0.4120  2.3853 -1.3093
 8783SOL    MW434900   1.768   4.535   6.181 -0.4513  0.3511  0.0618
 8784SOL     OW34901   3.715   2.591   5.771  0.4297 -0.0934  0.3037
 8784SOL    HW234902   3.658   2.551   5.705  0.9270  0.3905 -0.4328
 8784SOL    HW334903   3.668   2.579   5.853 -0.2966 -0.5306 -0.1634
 8784SOL    MW434904   3.701   2.584   5.773  0.3995 -0.0872  0.1449
 8785SOL     OW34905   4.483   2.012   0.230  0.0292 -0.8355  0.1966
 8785SOL    HW234906   4.434   2.049   0.156 -1.5887  0.4026  1.8004
 8785SOL    HW334907   4.532   2.087   0.265  1.3031 -1.5614  0.0177
 8785SOL    MW434908   4.483   2.027   0.225 -0.0162 -0.7679  0.3846
 8786SOL     OW34909   0.075   0.442   5.785  0.3652  0.0866 -0.4030
 8786SOL    HW234910   0.056   0.527   5.824  1.5300 -0.0215  0.4239
 8786SOL    HW334911   0.151   0.410   5.833 -0.7629 -1.9623  0.1133
 8786SOL    MW434912   0.082   0.449   5.796  0.3701 -0.1980 -0.2258
 8787SOL     OW34913   2.177   1.972   5.186  0.0024 -0.5104 -0.3044
 8787SOL    HW234914   2.162   1.915   5.111 -0.4980 -1.2351  0.3272
 8787SOL    HW334915   2.172   1.914   5.262  0.0111  0.2838  0.3230
 8787SOL    MW434916   2.174   1.957   5.186 -0.0625 -0.5012 -0.1383
 8788SOL     OW34917   1.484   4.671   4.022  0.3658 -0.6074 -0.1016
 8788SOL    HW234918   1.459   4.671   3.930  4.5095  0.1756 -1.4178
 8788SOL    HW334919   1.475   4.579   4.049  0.2252 -1.0702 -1.6399
 8788SOL    MW434920   1.479   4.659   4.013  0.8940 -0.5651 -0.4782
 8789SOL     OW34921   3.825   3.223   2.968 -0.7097  0.2052  0.1947
 8789SOL    HW234922   3.805   3.153   2.906  0.1795  0.7379 -0.7195
 8789SOL    HW334923   3.849   3.298   2.914 -1.2424  1.1101  1.1636
 8789SOL    MW434924   3.826   3.224   2.953 -0.6626  0.3949  0.2019
 8790SOL     OW34925   2.440   1.331   1.815  0.0844 -0.2923 -0.4012
 8790SOL    HW234926   2.529   1.297   1.817  1.1135  2.1934  1.4160
 8790SOL    HW334927   2.410   1.325   1.905 -1.0183  0.2871 -0.7110
 8790SOL    MW434928   2.448   1.326   1.827  0.0747  0.1121 -0.2023
 8791SOL     OW34929   4.494   3.158   2.528  0.1228 -0.3835  0.0597
 8791SOL    HW234930   4.560   3.217   2.566 -0.8591  1.0729 -0.4332
 8791SOL    HW334931   4.412   3.184   2.569 -0.7005  0.1594 -1.8434
 8791SOL    MW434932   4.492   3.169   2.539 -0.1154 -0.1197 -0.2564
 8792SOL     OW34933   4.739   0.960   1.753  0.6566  0.1347 -0.0179
 8792SOL    HW234934   4.771   1.021   1.821  1.4979  0.6895 -0.8801
 8792SOL    HW334935   4.743   1.011   1.672 -2.1337  0.1063 -0.2583
 8792SOL    MW434936   4.744   0.975   1.752  0.3994  0.2042 -0.1634
 8793SOL     OW34937   5.509   4.023   5.531  0.3736 -0.2279  0.6257
 8793SOL    HW234938   5.546   3.979   5.608 -1.5236 -0.0717  1.7121
 8793SOL    HW334939   5.537   3.971   5.457  0.4295 -1.7051  1.6449
 8793SOL    MW434940   5.517   4.011   5.532  0.1307 -0.4022  0.9035
 8794SOL     OW34941   5.078   2.141   4.621 -0.6692 -0.7104  0.1241
 8794SOL    HW234942   5.076   2.224   4.669 -0.5066 -0.9677  0.5795
 8794SOL    HW334943   5.163   2.140   4.577 -1.0969 -0.1584 -0.7427
 8794SOL    MW434944   5.089   2.152   4.621 -0.7042 -0.6715  0.0698
 8795SOL     OW34945   2.465   1.737   0.434 -0.1909 -0.4613  0.3639
 8795SOL    HW234946   2.450   1.823   0.471 -0.8471  0.4012 -1.7305
 8795SOL    HW334947   2.378   1.702   0.418  0.0617 -1.6888  1.4804
 8795SOL    MW434948   2.452   1.744   0.437 -0.2442 -0.5094  0.2349
 8796SOL     OW34949   5.141   0.477   6.183  0.2549  0.0620 -0.2773
 8796SOL    HW234950   5.231   0.447   6.172  0.2707  0.2326 -0.6357
 8796SOL    HW334951   5.133   0.496   6.276  0.3005 -0.8669 -0.0799
 8796SOL    MW434952   5.151   0.475   6.193  0.2630 -0.0381 -0.2985
 8797SOL     OW34953   0.242   4.714   2.159 -0.1214 -0.1313 -0.4575
 8797SOL    HW234954   0.257   4.619   2.151  1.2054 -0.0708  0.9413
 8797SOL    HW334955   0.295   4.752   2.089  1.6997 -0.2826  0.7906
 8797SOL    MW434956   0.251   4.706   2.148  0.2939 -0.1433 -0.1083
 8798SOL     OW34957   3.103   1.566   3.006  0.4565  0.0975  0.5571
 8798SOL    HW234958   3.067   1.565   3.094 -2.6672  0.3323 -0.5907
 8798SOL    HW334959   3.158   1.645   3.003 -2.3000  2.2122  1.3294
 8798SOL    MW434960   3.105   1.576   3.017 -0.3193  0.4075  0.5076
 8799SOL     OW34961   1.009   1.307   2.021  0.4021  0.7402 -0.2176
 8799SOL    HW234962   0.971   1.388   2.056 -0.5801  0.4501 -0.5781
 8799SOL    HW334963   0.951   1.238   2.053  1.2433  0.1681  0.1003
 8799SOL    MW434964   0.997   1.308   2.030  0.3835  0.6265 -0.2232
 8800SOL     OW34965   3.544   2.137   0.164  0.3520 -0.4438 -0.1716
 8800SOL    HW234966   3.632   2.100   0.151  0.7394 -0.1258  1.3722
 8800SOL    HW334967   3.555   2.202   0.233 -1.3913 -1.6469  1.3613
 8800SOL    MW434968   3.557   2.141   0.172  0.1731 -0.5605  0.2343
 8801SOL     OW34969   5.660   2.107   4.963 -0.2129  0.2948  0.0333
 8801SOL    HW234970   5.691   2.103   5.054  1.6277  0.8495 -0.5203
 8801SOL    HW334971   5.574   2.147   4.969 -0.7071 -0.8621  1.6355
 8801SOL    MW434972   5.653   2.111   4.976 -0.0352  0.2154  0.1717
 8802SOL     OW34973   5.075   3.959   2.817 -1.0470 -0.1429 -0.1345
 8802SOL    HW234974   5.011   3.994   2.754 -1.5409 -2.0777 -0.7929
 8802SOL    HW334975   5.021   3.920   2.886 -0.5866 -1.0773 -0.2885
 8802SOL    MW434976   5.059   3.959   2.817 -1.0514 -0.5214 -0.2417
 8803SOL     OW34977   5.910   1.970   0.598  0.1603  0.3322 -0.5630
 8803SOL    HW234978   5.868   2.054   0.581 -0.1319  0.1126 -0.9344
 8803SOL    HW334979   5.880   1.946   0.686  0.5795  0.8141 -0.2862
 8803SOL    MW434980   5.901   1.978   0.608  0.1770  0.3668 -0.5755
 8804SOL     OW34981   0.171   0.944   4.481  0.1507 -1.3799 -0.4754
 8804SOL    HW234982   0.171   0.877   4.413 -1.1120  0.7805 -2.7438
 8804SOL    HW334983   0.189   1.025   4.435  2.0712 -0.1179  2.2349
 8804SOL    MW434984   0.174   0.946   4.466  0.2375 -0.9284 -0.4171
 8805SOL     OW34985   1.478   3.512   0.388 -0.4802  0.2428 -0.0004
 8805SOL    HW234986   1.514   3.581   0.443 -1.3957  0.3929  0.4233
 8805SOL    HW334987   1.477   3.549   0.300  0.2656  0.2810 -0.0012
 8805SOL    MW434988   1.483   3.526   0.384 -0.5026  0.2676  0.0554
 8806SOL     OW34989   2.734   0.150   3.057 -0.1475  0.0583  0.4300
 8806SOL    HW234990   2.772   0.153   3.145 -0.1182  2.2325  0.4054
 8806SOL    HW334991   2.646   0.187   3.068 -0.4288 -0.3720 -0.3342
 8806SOL    MW434992   2.727   0.155   3.070 -0.1808  0.2884  0.3259
 8807SOL     OW34993   4.311   5.330   2.571  0.6262  0.1914 -0.3923
 8807SOL    HW234994   4.283   5.370   2.654 -0.5853 -0.6602 -0.3545
 8807SOL    HW334995   4.241   5.353   2.509  1.6903  1.1069 -1.2863
 8807SOL    MW434996   4.298   5.339   2.574  0.6067  0.1998 -0.5053
 8808SOL     OW34997   4.443   0.583   2.603 -0.2751  0.4699  0.1056
 8808SOL    HW234998   4.519   0.640   2.587 -1.3776  2.4222  1.4465
 8808SOL    HW334999   4.377   0.612   2.541 -0.3478 -0.4389 -0.2609
 8808SOL    MW435000   4.445   0.594   2.593 -0.4302  0.6076  0.2341
 8809SOL     OW35001   0.962   2.036   2.415  0.1270  0.2752 -0.1555
 8809SOL    HW235002   0.991   2.081   2.494  1.0885  0.2261 -0.4671
 8809SOL    HW335003   0.970   1.943   2.436 -0.0463  0.2592 -0.1584
 8809SOL    MW435004   0.967   2.030   2.428  0.2310  0.2666 -0.1970
 8810SOL     OW35005   1.415   0.352   0.888 -0.5889 -0.2848  0.3652
 8810SOL    HW235006   1.455   0.431   0.923 -1.0106  0.0016  0.2166
 8810SOL    HW335007   1.326   0.379   0.865  0.0726 -0.0706 -2.2474
 8810SOL    MW435008   1.408   0.366   0.890 -0.5573 -0.2187  0.0009
 8811SOL     OW35009   2.768   5.120   6.049 -0.1174 -0.2257 -0.8230
 8811SOL    HW235010   2.673   5.109   6.054  0.0131 -1.1264 -0.0385
 8811SOL    HW335011   2.801   5.031   6.039  0.4920  0.2695 -4.5755
 8811SOL    MW435012   2.760   5.107   6.048 -0.0198 -0.2792 -1.2146
 8812SOL     OW35013   6.291   6.119   0.898  0.3832  0.3802  0.2811
 8812SOL    HW235014   6.371   6.142   0.945  0.2710  1.3955 -0.0027
 8812SOL    HW335015   6.309   6.142   0.807  0.5437 -1.4192 -0.1834
 8812SOL    MW435016   6.304   6.125   0.892  0.3896  0.2767  0.1824
 8813SOL     OW35017   4.202   1.426   2.610  0.2983  0.3883  0.2871
 8813SOL    HW235018   4.155   1.495   2.565  1.1193  1.0848  0.4756
 8813SOL    HW335019   4.257   1.386   2.543  0.2055  0.2605  0.2876
 8813SOL    MW435020   4.203   1.430   2.595  0.3944  0.4633  0.3120
 8814SOL     OW35021   5.662   4.068   1.000  0.0623 -0.0510  0.5074
 8814SOL    HW235022   5.577   4.067   0.957  1.4390  0.1408 -2.5360
 8814SOL    HW335023   5.683   4.161   1.010  0.6023 -0.0642 -0.3704
 8814SOL    MW435024   5.654   4.080   0.996  0.3151 -0.0274 -0.0099
 8815SOL     OW35025   5.560   6.185   3.109 -0.2635 -0.3060  0.6521
 8815SOL    HW235026   5.525   6.190   3.020 -2.0076 -3.2306  1.0570
 8815SOL    HW335027   5.655   6.183   3.096 -0.4791 -1.4933 -1.2574
 8815SOL    MW435028   5.568   6.186   3.095 -0.5221 -0.8485  0.4536
 8816SOL     OW35029   5.480   4.818   4.405  0.0753  0.0194  0.4554
 8816SOL    HW235030   5.419   4.860   4.465 -0.5072 -0.9299  0.5421
 8816SOL    HW335031   5.459   4.725   4.410 -1.0666  0.0244 -2.3738
 8816SOL    MW435032   5.469   4.811   4.413 -0.1522 -0.1052  0.0936
 8817SOL     OW35033   5.658   2.286   5.523 -0.5749 -0.8345 -0.2890
 8817SOL    HW235034   5.700   2.223   5.582 -0.2403 -0.6378 -0.3166
 8817SOL    HW335035   5.677   2.254   5.435 -0.4644 -0.7320 -0.3020
 8817SOL    MW435036   5.666   2.274   5.519 -0.5162 -0.7951 -0.2944
 8818SOL     OW35037   4.219   0.347   2.714  0.1123  0.0495  1.0122
 8818SOL    HW235038   4.245   0.409   2.783 -1.5356  0.5636  1.2180
 8818SOL    HW335039   4.131   0.375   2.689 -0.3313 -1.6937  0.4984
 8818SOL    MW435040   4.211   0.359   2.720 -0.1637 -0.1127  0.9715
 8819SOL     OW35041   4.630   5.931   1.867 -0.1129  0.0691  0.0582
 8819SOL    HW235042   4.559   5.983   1.905  0.9717  0.4403  1.7275
 8819SOL    HW335043   4.706   5.989   1.870  0.6382 -0.8817 -0.0878
 8819SOL    MW435044   4.631   5.945   1.873  0.1293 -0.0074  0.2592
 8820SOL     OW35045   5.626   5.596   4.322 -0.1034  0.5963 -0.1778
 8820SOL    HW235046   5.674   5.624   4.400  3.4990  0.7422 -2.2068
 8820SOL    HW335047   5.615   5.676   4.271 -3.0827  0.6304  0.3582
 8820SOL    MW435048   5.631   5.610   4.326 -0.0212  0.6200 -0.3748
 8821SOL     OW35049   1.735   4.925   5.544 -0.1563 -0.2414  0.9631
 8821SOL    HW235050   1.708   4.834   5.553  2.0228 -1.1227 -0.5988
 8821SOL    HW335051   1.761   4.951   5.633 -1.1241 -0.9932  1.4917
 8821SOL    MW435052   1.735   4.917   5.557  0.0035 -0.4569  0.8268
 8822SOL     OW35053   0.411   4.862   1.972 -0.2574 -0.0708 -0.1640
 8822SOL    HW235054   0.443   4.782   1.931  0.5062 -0.4849  1.1465
 8822SOL    HW335055   0.359   4.905   1.905  0.3243 -1.0633 -1.2899
 8822SOL    MW435056   0.408   4.857   1.958 -0.0799 -0.2564 -0.1397
 8823SOL     OW35057   3.023   1.906   1.734 -0.1820 -0.7838  0.4150
 8823SOL    HW235058   3.043   1.987   1.780 -1.1599 -0.2389 -0.0784
 8823SOL    HW335059   3.108   1.867   1.715  0.3296  0.4203  0.1462
 8823SOL    MW435060   3.037   1.911   1.738 -0.2435 -0.5531  0.3144
 8824SOL     OW35061   3.668   1.166   2.815  0.3333  0.1674 -0.1593
 8824SOL    HW235062   3.622   1.124   2.742 -0.2604  0.5384 -0.0058
 8824SOL    HW335063   3.747   1.203   2.775 -1.1117  2.4401 -1.1387
 8824SOL    MW435064   3.672   1.165   2.800  0.0643  0.5162 -0.2682
 8825SOL     OW35065   4.491   0.075   0.246  0.1134  0.0907 -0.2648
 8825SOL    HW235066   4.567   0.101   0.194  3.3556 -3.4117  2.1152
 8825SOL    HW335067   4.442   0.016   0.189  2.4738 -2.0909 -0.2380
 8825SOL    MW435068   4.494   0.070   0.232  0.8526 -0.6592  0.0528
 8826SOL     OW35069   0.005   0.276   3.019  0.4018  0.0667  0.0596
 8826SOL    HW235070   0.079   0.307   2.967 -1.4464  0.3102 -2.6139
 8826SOL    HW335071  -0.037   0.356   3.051  0.0689  0.0205 -0.2573
 8826SOL    MW435072   0.009   0.291   3.017  0.1140  0.0927 -0.3350
 8827SOL     OW35073   4.408   2.703   4.827 -0.1312  0.7454  0.2727
 8827SOL    HW235074   4.414   2.608   4.830  1.7943  0.7504 -1.5354
 8827SOL    HW335075   4.440   2.732   4.913  1.4146 -0.2022  0.0477
 8827SOL    MW435076   4.413   2.694   4.839  0.3268  0.6210  0.0044
 8828SOL     OW35077   2.615   5.290   2.819  0.3975  0.3782 -0.2416
 8828SOL    HW235078   2.615   5.195   2.828  0.3985  0.5363  1.8969
 8828SOL    HW335079   2.542   5.308   2.759  0.4200 -0.9590 -0.7007
 8828SOL    MW435080   2.605   5.280   2.812  0.4006  0.2226 -0.0200
 8829SOL     OW35081   5.351   3.907   3.893 -0.0963  0.5017  0.7561
 8829SOL    HW235082   5.428   3.963   3.890 -0.0423  0.4006 -0.7227
 8829SOL    HW335083   5.312   3.923   3.979  1.7857  0.2359  1.7161
 8829SOL    MW435084   5.356   3.916   3.904  0.1591  0.4533  0.6876
 8830SOL     OW35085   1.093   0.958   5.169 -0.0494 -0.5537  0.0704
 8830SOL    HW235086   1.038   0.904   5.112  0.1612 -0.1967 -0.4765
 8830SOL    HW335087   1.044   0.963   5.251  0.2732 -2.2079  0.4056
 8830SOL    MW435088   1.080   0.951   5.172  0.0209 -0.7249  0.0425
 8831SOL     OW35089   4.544   4.536   1.831 -0.3135 -0.2545  0.5773
 8831SOL    HW235090   4.475   4.476   1.804 -1.4653  1.6411 -1.0150
 8831SOL    HW335091   4.624   4.498   1.795 -0.8243 -1.4126  0.6313
 8831SOL    MW435092   4.546   4.523   1.822 -0.5328 -0.1572  0.3743
 8832SOL     OW35093   5.814   4.862   1.411 -1.0542 -0.1290 -0.1379
 8832SOL    HW235094   5.826   4.957   1.400 -0.6756 -0.2363 -0.7237
 8832SOL    HW335095   5.868   4.840   1.487 -1.9171  0.2715  0.6135
 8832SOL    MW435096   5.823   4.872   1.419 -1.1181 -0.0903 -0.1160
 8833SOL     OW35097   3.202   3.324   2.864  0.4516 -0.4675  0.0106
 8833SOL    HW235098   3.293   3.352   2.855  0.4250  1.1192  3.1470
 8833SOL    HW335099   3.208   3.238   2.907  0.4247 -1.2034 -1.3950
 8833SOL    MW435100   3.215   3.316   2.869  0.4445 -0.3553  0.2390
 8834SOL     OW35101   2.012   3.882   1.001  0.0333  0.3206 -0.0232
 8834SOL    HW235102   2.069   3.947   0.960 -1.0301 -0.1595 -2.4453
 8834SOL    HW335103   2.070   3.810   1.026  0.9403  1.3367  0.8669
 8834SOL    MW435104   2.027   3.881   0.998  0.0127  0.3913 -0.2253
 8835SOL     OW35105   6.253   4.249   4.953  0.4302 -0.0106  0.0003
 8835SOL    HW235106   6.346   4.252   4.975  0.4344 -1.4699  0.2514
 8835SOL    HW335107   6.240   4.325   4.897  1.7887  0.1949 -0.0757
 8835SOL    MW435108   6.263   4.259   4.948  0.6100 -0.1760  0.0234
 8836SOL     OW35109   5.831   3.579   5.414  0.5613 -0.2759  0.0333
 8836SOL    HW235110   5.817   3.487   5.391  0.9793 -0.7226  1.4270
 8836SOL    HW335111   5.750   3.605   5.458  0.6547 -0.1595  0.1394
 8836SOL    MW435112   5.818   3.570   5.417  0.6288 -0.3194  0.2312
 8837SOL     OW35113   0.370   4.292   5.066  0.4188 -0.3515  0.5919
 8837SOL    HW235114   0.422   4.330   5.137  0.4738 -0.8829  0.8388
 8837SOL    HW335115   0.414   4.321   4.986  0.4042  0.1865  0.7680
 8837SOL    MW435116   0.382   4.301   5.065  0.4241 -0.3506  0.6477
 8838SOL     OW35117   3.255   4.772   1.986  0.3303  0.1371  0.4397
 8838SOL    HW235118   3.330   4.747   1.932 -0.1991 -0.5730  0.0065
 8838SOL    HW335119   3.192   4.700   1.973 -0.1445  0.3862  1.3323
 8838SOL    MW435120   3.256   4.759   1.977  0.1978  0.0763  0.5003
 8839SOL     OW35121   3.191   0.178   1.672  0.6378  0.2030  0.3072
 8839SOL    HW235122   3.148   0.203   1.590  1.8935 -1.1413 -0.8139
 8839SOL    HW335123   3.198   0.260   1.721 -0.0748  1.0589 -0.9482
 8839SOL    MW435124   3.186   0.192   1.667  0.7095  0.1385 -0.0064
 8840SOL     OW35125   2.222   3.947   5.331  0.5372 -0.0491  0.4372
 8840SOL    HW235126   2.208   3.852   5.334 -2.7438  0.2667 -0.9078
 8840SOL    HW335127   2.245   3.964   5.239  2.2298  0.3924  0.9130
 8840SOL    MW435128   2.223   3.937   5.319  0.3276  0.0508  0.3225
 8841SOL     OW35129   6.229   4.356   1.565  0.1505 -0.0181  0.4094
 8841SOL    HW235130   6.155   4.399   1.608 -0.2989 -2.7297  2.6632
 8841SOL    HW335131   6.299   4.357   1.630 -0.3082 -3.6189  1.2086
 8841SOL    MW435132   6.229   4.362   1.579  0.0307 -0.8510  0.8122
 8842SOL     OW35133   2.335   1.086   2.560 -0.2892 -0.1700 -0.1651
 8842SOL    HW235134   2.347   0.998   2.524 -1.2623 -0.0120 -0.9328
 8842SOL    HW335135   2.260   1.076   2.620  0.2279 -0.0597  0.5184
 8842SOL    MW435136   2.326   1.073   2.563 -0.3494 -0.1346 -0.1762
 8843SOL     OW35137   5.913   3.566   5.696  0.3222  0.4962 -0.2906
 8843SOL    HW235138   5.898   3.585   5.604 -1.5631 -2.7447 -0.8111
 8843SOL    HW335139   5.844   3.614   5.742 -1.3058 -0.9887 -1.0529
 8843SOL    MW435140   5.902   3.574   5.690 -0.1413 -0.1273 -0.4598
 8844SOL     OW35141   4.546   5.123   0.969  0.4778 -0.1580 -0.2689
 8844SOL    HW235142   4.527   5.214   0.993  1.5207  0.2196 -0.7853
 8844SOL    HW335143   4.592   5.087   1.045  1.1692  0.1422 -0.5310
 8844SOL    MW435144   4.550   5.130   0.982  0.7066 -0.0685 -0.3716
 8845SOL     OW35145   4.671   3.939   0.429 -0.1193  0.0397 -0.0986
 8845SOL    HW235146   4.742   3.885   0.465  0.1322  0.0266 -0.6047
 8845SOL    HW335147   4.614   3.957   0.504  0.8363  0.7158  0.4932
 8845SOL    MW435148   4.673   3.934   0.443  0.0400  0.1272 -0.0873
 8846SOL     OW35149   4.765   1.262   5.861  0.4586  0.2387 -0.2679
 8846SOL    HW235150   4.827   1.190   5.853  0.9947  0.5816  0.5841
 8846SOL    HW335151   4.681   1.225   5.837  1.0260 -0.1646 -1.7593
 8846SOL    MW435152   4.762   1.248   5.857  0.6042  0.2307 -0.3522
 8847SOL     OW35153   3.102   0.059   0.090 -0.6828 -0.1149  0.4614
 8847SOL    HW235154   3.024   0.101   0.055 -0.1088 -0.1963 -0.9934
 8847SOL    HW335155   3.125  -0.007   0.025  0.3901 -0.3341  1.0368
 8847SOL    MW435156   3.095   0.056   0.077 -0.4655 -0.1545  0.3454
 8848SOL     OW35157   5.136   1.958   3.676 -0.3973 -0.2782 -0.0246
 8848SOL    HW235158   5.194   1.888   3.645  0.1080 -0.7659  1.8874
 8848SOL    HW335159   5.192   2.036   3.676 -0.1110 -0.4763  0.5499
 8848SOL    MW435160   5.151   1.959   3.671 -0.2929 -0.3687  0.3034
 8849SOL     OW35161   3.867   2.951   3.274 -0.5279 -0.5992 -0.2568
 8849SOL    HW235162   3.806   3.019   3.245 -0.7814 -1.5217 -1.9839
 8849SOL    HW335163   3.951   2.997   3.282 -0.8743  0.0985 -0.5056
 8849SOL    MW435164   3.870   2.966   3.271 -0.6070 -0.6288 -0.5175
 8850SOL     OW35165   3.266   4.000   5.474 -0.0091 -0.3680  0.1239
 8850SOL    HW235166   3.302   3.965   5.556  0.4617 -0.2251 -0.0158
 8850SOL    HW335167   3.231   3.924   5.429 -0.5431 -0.4074  0.5898
 8850SOL    MW435168   3.266   3.985   5.479 -0.0175 -0.3544  0.1669
 8851SOL     OW35169   4.364   6.155   4.121 -0.0454  0.3136  0.1352
 8851SOL    HW235170   4.443   6.208   4.111 -0.1536  0.5680  0.6321
 8851SOL    HW335171   4.291   6.217   4.113 -0.2015  0.0867 -0.2744
 8851SOL    MW435172   4.365   6.170   4.118 -0.0803  0.3172  0.1467
 8852SOL     OW35173   0.343   0.545   1.554  0.5934 -0.0761  0.3448
 8852SOL    HW235174   0.280   0.562   1.484  0.9189 -0.2748 -0.0029
 8852SOL    HW335175   0.296   0.565   1.635  0.5868  1.3532  0.0253
 8852SOL    MW435176   0.329   0.550   1.555  0.6355  0.0862  0.2568
 8853SOL     OW35177   6.016   3.134   5.683  0.6193 -1.0901  0.3410
 8853SOL    HW235178   6.061   3.163   5.762  1.5618  0.1946 -0.6210
 8853SOL    HW335179   5.933   3.182   5.683  1.5581  0.6067 -0.5174
 8853SOL    MW435180   6.011   3.144   5.693  0.8676 -0.6968  0.1008
 8854SOL     OW35181   3.955   3.870   6.402  0.1561 -0.6837 -0.1091
 8854SOL    HW235182   3.862   3.890   6.407  0.1856 -0.6575  0.4084
 8854SOL    HW335183   3.959   3.784   6.361 -0.0812 -0.5829 -0.3500
 8854SOL    MW435184   3.943   3.861   6.397  0.1287 -0.6670 -0.0726
 8855SOL     OW35185   5.868   4.944   4.094 -0.1379  0.0731  0.6127
 8855SOL    HW235186   5.962   4.930   4.101 -0.1154 -0.6350 -0.7205
 8855SOL    HW335187   5.854   4.972   4.003 -1.0465  1.7212  1.2263
 8855SOL    MW435188   5.879   4.946   4.083 -0.2548  0.1971  0.5178
 8856SOL     OW35189   3.224   4.054   1.995 -0.2731  0.0659  0.5085
 8856SOL    HW235190   3.249   3.968   2.030 -0.6881  0.0915  0.8724
 8856SOL    HW335191   3.219   4.111   2.072  1.1034  0.7071  0.1588
 8856SOL    MW435192   3.227   4.050   2.010 -0.1462  0.1539  0.5104
 8857SOL     OW35193   4.326   0.357   1.146  0.1868  0.1425 -0.4145
 8857SOL    HW235194   4.377   0.331   1.069 -2.2176  1.2605 -2.5724
 8857SOL    HW335195   4.324   0.453   1.142 -1.6308  0.1523 -0.1947
 8857SOL    MW435196   4.332   0.366   1.135 -0.3703  0.2913 -0.6702
 8858SOL     OW35197   2.280   1.251   1.599  0.3546 -0.0990 -0.0248
 8858SOL    HW235198   2.215   1.205   1.652  1.3438 -1.5726 -0.0149
 8858SOL    HW335199   2.350   1.273   1.660  0.0671  1.1056 -0.1123
 8858SOL    MW435200   2.280   1.248   1.614  0.4472 -0.1345 -0.0350
 8859SOL     OW35201   6.299   5.040   5.550 -0.2179  0.1113 -0.2971
 8859SOL    HW235202   6.233   5.110   5.542  1.1398  1.4199 -0.4772
 8859SOL    HW335203   6.376   5.074   5.505  1.8575  0.2584  2.9609
 8859SOL    MW435204   6.300   5.054   5.543  0.2351  0.3033  0.1090
 8860SOL     OW35205   0.408   1.180   3.776 -0.9521  0.1884  0.1051
 8860SOL    HW235206   0.448   1.158   3.860  0.8227  0.8360 -0.5315
 8860SOL    HW335207   0.372   1.268   3.789 -2.3143 -0.4301  0.7051
 8860SOL    MW435208   0.408   1.189   3.789 -0.8976  0.1923  0.1003
 8861SOL     OW35209   1.340   4.130   1.265  0.2676 -0.4240 -0.1195
 8861SOL    HW235210   1.340   4.202   1.328 -2.2689  0.4030 -0.9581
 8861SOL    HW335211   1.410   4.072   1.295  1.0834  1.3932  1.7196
 8861SOL    MW435212   1.349   4.132   1.277  0.0406 -0.0751  0.0125
 8862SOL     OW35213   1.333   1.893   2.482 -0.7046  0.1349 -0.0503
 8862SOL    HW235214   1.369   1.830   2.545 -0.2717 -0.1401 -0.5699
 8862SOL    HW335215   1.328   1.975   2.531  0.7307  0.2097  0.0063
 8862SOL    MW435216   1.337   1.896   2.497 -0.4581  0.1085 -0.1114
 8863SOL     OW35217   0.531   3.837   6.068 -0.1422 -0.2633  0.1655
 8863SOL    HW235218   0.517   3.931   6.059 -0.4824 -0.1605  1.5258
 8863SOL    HW335219   0.455   3.797   6.026  0.7057  0.0038 -1.6989
 8863SOL    MW435220   0.519   3.844   6.061 -0.0752 -0.2145  0.0990
 8864SOL     OW35221   1.383   3.475   2.405 -0.4518 -0.2850  0.0190
 8864SOL    HW235222   1.475   3.493   2.387 -0.8056  1.0218 -0.6477
 8864SOL    HW335223   1.336   3.518   2.333 -1.6565  0.4093  1.1745
 8864SOL    MW435224   1.389   3.483   2.393 -0.6574 -0.0210  0.0835
 8865SOL     OW35225   4.279   0.625   2.181 -0.3674 -0.1943 -0.2467
 8865SOL    HW235226   4.239   0.566   2.117  0.1321  0.3527 -1.0927
 8865SOL    HW335227   4.345   0.673   2.130  1.3132 -1.0069  1.0483
 8865SOL    MW435228   4.283   0.623   2.166 -0.0798 -0.2293 -0.1874
 8866SOL     OW35229   3.687   2.091   5.691  0.0250 -0.2760 -0.5663
 8866SOL    HW235230   3.712   2.098   5.599  0.1853 -0.7404 -0.5583
 8866SOL    HW335231   3.606   2.143   5.698  0.4280  0.3903 -0.8025
 8866SOL    MW435232   3.679   2.099   5.680  0.0993 -0.2493 -0.5964
 8867SOL     OW35233   5.483   0.886   5.217 -0.3339  0.0055 -0.0126
 8867SOL    HW235234   5.411   0.909   5.276 -0.0128  0.7631  0.1037
 8867SOL    HW335235   5.525   0.812   5.259 -0.8302 -0.2168  0.1011
 8867SOL    MW435236   5.479   0.879   5.230 -0.3570  0.0761  0.0178
 8868SOL     OW35237   5.249   3.446   5.688 -0.4594  0.5136  0.0439
 8868SOL    HW235238   5.333   3.438   5.733 -1.2220  1.6654  1.7563
 8868SOL    HW335239   5.242   3.538   5.665 -0.7521  0.2089 -1.1516
 8868SOL    MW435240   5.260   3.457   5.691 -0.5987  0.6253  0.1121
 8869SOL     OW35241   0.715   3.753   2.890  0.3202 -0.3103 -0.3783
 8869SOL    HW235242   0.629   3.794   2.884  0.4254  0.3254  1.6926
 8869SOL    HW335243   0.776   3.819   2.857  0.0743 -0.6092 -1.4643
 8869SOL    MW435244   0.712   3.767   2.885  0.3016 -0.2658 -0.2484
 8870SOL     OW35245   0.185   4.983   1.057  0.1345 -0.1511 -0.2165
 8870SOL    HW235246   0.147   5.069   1.037 -0.4111 -0.4468 -0.4986
 8870SOL    HW335247   0.213   4.949   0.971  2.8429  0.8589  0.1780
 8870SOL    MW435248   0.183   4.990   1.043  0.4198 -0.0568 -0.2016
 8871SOL     OW35249   2.147   5.024   5.066 -0.4931 -0.3568  0.1381
 8871SOL    HW235250   2.179   4.952   5.012 -0.6863 -0.6074  0.3551
 8871SOL    HW335251   2.066   5.052   5.023  0.6760  1.1762 -1.1937
 8871SOL    MW435252   2.140   5.018   5.053 -0.3643 -0.1876 -0.0090
 8872SOL     OW35253   5.815   5.092   3.849 -0.2930 -0.6046  0.2962
 8872SOL    HW235254   5.763   5.053   3.779 -1.7223 -0.4933  1.2507
 8872SOL    HW335255   5.765   5.170   3.876  0.6022 -0.2353  0.9322
 8872SOL    MW435256   5.801   5.097   3.844 -0.3634 -0.5412  0.5061
 8873SOL     OW35257   4.855   0.262   0.310  0.7159 -0.0195  0.1618
 8873SOL    HW235258   4.938   0.276   0.356  1.1637  0.5148 -0.7700
 8873SOL    HW335259   4.826   0.350   0.286  0.1190 -0.2350  0.0783
 8873SOL    MW435260   4.862   0.276   0.313  0.6962  0.0226  0.0279
 8874SOL     OW35261   4.987   5.329   3.051 -0.5897  0.1603 -0.7078
 8874SOL    HW235262   4.944   5.300   2.970 -1.7817  0.1806 -0.1094
 8874SOL    HW335263   4.930   5.297   3.121  1.1659 -1.0882  0.2148
 8874SOL    MW435264   4.974   5.321   3.049 -0.5153 -0.0017 -0.5071
 8875SOL     OW35265   4.124   6.212   0.217 -0.3979 -0.7578 -0.1097
 8875SOL    HW235266   4.066   6.286   0.234  1.1219  0.5480 -0.4335
 8875SOL    HW335267   4.180   6.207   0.295 -1.5989 -2.7327  0.7296
 8875SOL    MW435268   4.123   6.221   0.230 -0.3559 -0.8461 -0.0417
 8876SOL     OW35269   0.517   4.780   2.437 -0.2244  0.4027 -0.3639
 8876SOL    HW235270   0.473   4.852   2.391 -1.3983  1.5849  2.3868
 8876SOL    HW335271   0.550   4.820   2.517  2.1164 -1.4505 -0.2906
 8876SOL    MW435272   0.516   4.795   2.442 -0.0704  0.3142  0.0087
 8877SOL     OW35273   2.534   5.721   3.673  0.1840  0.2087 -0.1470
 8877SOL    HW235274   2.489   5.781   3.734  1.2158 -1.8653  2.9142
 8877SOL    HW335275   2.477   5.643   3.671  1.0359 -0.4169 -0.4396
 8877SOL    MW435276   2.520   5.718   3.681  0.4325 -0.1475  0.2183
 8878SOL     OW35277   1.804   3.146   0.906  0.6245  0.3928  0.2324
 8878SOL    HW235278   1.858   3.077   0.868 -0.1401 -0.1127  0.0383
 8878SOL    HW335279   1.721   3.103   0.926  1.3613  0.2723  3.6523
 8878SOL    MW435280   1.800   3.131   0.904  0.6209  0.3102  0.6580
 8879SOL     OW35281   1.616   3.611   5.023 -0.3380 -0.8754 -0.2214
 8879SOL    HW235282   1.701   3.583   4.988  0.2138  1.4389 -0.8851
 8879SOL    HW335283   1.634   3.632   5.115 -0.1114 -0.0743 -0.4472
 8879SOL    MW435284   1.630   3.610   5.031 -0.2353 -0.4644 -0.3388
 8880SOL     OW35285   5.884   6.388   0.680 -0.1816 -0.1532  0.1758
 8880SOL    HW235286   5.861   6.368   0.771 -0.3513 -0.7173  0.0135
 8880SOL    HW335287   5.963   6.442   0.687  1.0981 -1.9582  0.6153
 8880SOL    MW435288   5.891   6.392   0.693 -0.0352 -0.4658  0.2124
 8881SOL     OW35289   5.667   3.288   6.144 -0.5290  0.7169 -0.3662
 8881SOL    HW235290   5.718   3.365   6.169  1.6712 -0.3247 -1.3741
 8881SOL    HW335291   5.654   3.240   6.225  0.2556  0.9393 -0.1003
 8881SOL    MW435292   5.672   3.292   6.158 -0.1352  0.6088 -0.4641
 8882SOL     OW35293   3.621   5.067   2.702  0.1153  0.1555  0.7395
 8882SOL    HW235294   3.575   5.136   2.655 -0.1858 -0.3141  0.3298
 8882SOL    HW335295   3.705   5.105   2.726  0.3454  0.3484 -0.3514
 8882SOL    MW435296   3.626   5.081   2.699  0.1059  0.1190  0.5415
 8883SOL     OW35297   1.924   3.605   1.297 -0.1812  0.1710 -0.0304
 8883SOL    HW235298   1.957   3.533   1.243 -1.5630 -0.6425  0.1709
 8883SOL    HW335299   1.837   3.624   1.260 -0.8837  0.0295  1.4943
 8883SOL    MW435300   1.917   3.598   1.285 -0.4562  0.0450  0.1973
 8884SOL     OW35301   5.620   5.133   0.597  0.2501  0.0029  0.0284
 8884SOL    HW235302   5.696   5.076   0.612  0.8091  0.4234 -1.0864
 8884SOL    HW335303   5.545   5.075   0.606  0.7416 -0.5912  0.3882
 8884SOL    MW435304   5.620   5.118   0.600  0.3887 -0.0200 -0.0712
 8885SOL     OW35305   4.788   5.542   0.963  0.0274 -0.0685  0.1425
 8885SOL    HW235306   4.743   5.461   0.940  1.4647 -1.1056  0.8684
 8885SOL    HW335307   4.746   5.571   1.043  0.2276 -0.7086  0.4874
 8885SOL    MW435308   4.777   5.535   0.970  0.2435 -0.2898  0.2838
 8886NA      NA35309   2.421   6.378   2.353  0.5720  0.4425 -0.2235
 8887NA      NA35310   4.922   3.608   1.455 -0.6425  0.1960 -0.5540
 8888NA      NA35311   0.433   6.110   5.462  0.2213 -0.4639 -0.3957
 8889NA      NA35312   0.362   5.809   1.543  0.2357  0.3149 -0.1846
 8890NA      NA35313   2.664   0.952   2.488  0.2069 -0.5180  0.2498
 8891NA      NA35314   5.658   5.541   3.008 -0.3899  0.3433 -0.1167
 8892NA      NA35315   0.785   1.143   3.877  0.2989  0.0822 -0.2113
   6.42920   6.42920   6.42920
