A-SYNC WITH FASUDIL
35315
  121NASP     N    1   3.753   0.817   1.739  0.1825  0.3762  0.0124
  121NASP    H1    2   3.685   0.892   1.740  0.3694  0.6607 -2.6127
  121NASP    H2    3   3.724   0.745   1.804  0.2166  1.1193  0.8839
  121NASP    H3    4   3.747   0.776   1.648 -3.4307  0.5672 -0.0090
  121NASP    CA    5   3.885   0.874   1.771 -0.5724  0.5976 -0.5786
  121NASP    HA    6   3.946   0.786   1.792  0.7350  1.8799  1.2734
  121NASP    CB    7   3.951   0.950   1.653  1.0256 -0.1655  0.2996
  121NASP   HB1    8   3.967   0.880   1.571  0.3758  1.5179 -1.3407
  121NASP   HB2    9   4.051   0.986   1.679  0.8014  1.0960 -0.4651
  121NASP    CG   10   3.857   1.060   1.595 -0.0484 -0.6123 -0.0478
  121NASP   OD1   11   3.737   1.069   1.638  0.0581  0.0227 -0.0351
  121NASP   OD2   12   3.905   1.123   1.497  0.4295 -0.5193 -0.0910
  121NASP     C   13   3.882   0.962   1.892 -0.6399 -0.4371 -0.6784
  121NASP     O   14   3.909   1.082   1.880  0.1819  0.0670 -0.2848
  122ASN      N   15   3.858   0.903   2.010 -0.1515 -0.6137 -0.0520
  122ASN      H   16   3.824   0.809   2.005 -1.8905 -0.0439  0.3777
  122ASN     CA   17   3.868   0.963   2.145  0.4479 -0.2053  0.0671
  122ASN     HA   18   3.777   1.023   2.145  2.0352  2.3626  0.0823
  122ASN     CB   19   3.857   0.844   2.242  0.0463 -0.1377 -0.3836
  122ASN    HB1   20   3.930   0.766   2.221 -0.0870  0.2390 -2.4375
  122ASN    HB2   21   3.760   0.799   2.222 -1.6650  2.6010  1.1199
  122ASN     CG   22   3.865   0.883   2.390  0.3772 -0.2402  0.7063
  122ASN    OD1   23   3.950   0.957   2.436  0.2552  0.2135  0.4338
  122ASN    ND2   24   3.755   0.851   2.460  0.0445  0.0494  0.2560
  122ASN   HD21   25   3.753   0.871   2.559 -2.2096  2.1516 -0.1347
  122ASN   HD22   26   3.680   0.802   2.414  0.0038 -0.5241  0.9132
  122ASN      C   27   3.977   1.066   2.170 -0.4902 -0.5843 -0.4682
  122ASN      O   28   4.093   1.032   2.178  0.3522 -0.1347  0.4161
  123GLU      N   29   3.934   1.189   2.201  0.5928 -0.1451  0.4120
  123GLU      H   30   3.833   1.193   2.200  0.5750 -0.5044  0.6236
  123GLU     CA   31   4.016   1.311   2.223 -0.2926  0.6475 -0.1182
  123GLU     HA   32   4.056   1.324   2.123 -0.4296 -4.5889 -1.1518
  123GLU     CB   33   3.921   1.427   2.267  0.4310  0.8081 -0.0096
  123GLU    HB1   34   3.913   1.421   2.376  0.5906  0.0762 -0.0298
  123GLU    HB2   35   3.820   1.414   2.230  0.0656 -1.9724  1.6212
  123GLU     CG   36   3.978   1.556   2.216  0.5740  0.0657  0.2590
  123GLU    HG1   37   3.927   1.571   2.120 -0.6128  0.3270  0.9009
  123GLU    HG2   38   4.084   1.568   2.194  0.2964  1.2905 -0.5865
  123GLU     CD   39   3.943   1.674   2.306  0.0223 -0.7922  0.0539
  123GLU    OE1   40   3.965   1.788   2.258  0.5510  0.2672  0.3116
  123GLU    OE2   41   3.913   1.657   2.425  0.3298  0.1721 -0.0319
  123GLU      C   42   4.132   1.293   2.319 -0.5813  0.7831 -0.0785
  123GLU      O   43   4.243   1.343   2.293  0.4424 -0.3144  0.6922
  124ALA      N   44   4.105   1.219   2.429 -0.0497 -0.1345 -0.2816
  124ALA      H   45   4.012   1.181   2.438 -0.2905  0.3999 -0.4596
  124ALA     CA   46   4.205   1.182   2.524 -0.2140  0.4000 -0.6854
  124ALA     HA   47   4.272   1.268   2.523 -1.2940  1.3177  1.0261
  124ALA     CB   48   4.144   1.183   2.668  0.0301 -0.0337 -0.0851
  124ALA    HB1   49   4.078   1.099   2.689 -0.2951  0.5921  1.5111
  124ALA    HB2   50   4.093   1.278   2.683 -0.7422 -0.1344 -1.8793
  124ALA    HB3   51   4.219   1.163   2.744  0.8330  0.5597 -0.7037
  124ALA      C   52   4.291   1.060   2.494  0.1146 -0.5923  0.2950
  124ALA      O   53   4.365   1.014   2.577 -0.4187  0.3121 -0.4261
  125TYR      N   54   4.300   1.029   2.362 -0.1121 -0.1044 -0.4910
  125TYR      H   55   4.221   1.056   2.305  0.1741 -2.1155 -1.9567
  125TYR     CA   56   4.380   0.914   2.308  0.3485  0.8460  0.1560
  125TYR     HA   57   4.338   0.908   2.208  0.5422  0.8045  0.0778
  125TYR     CB   58   4.534   0.947   2.286  0.4398  0.1883 -0.6312
  125TYR    HB1   59   4.587   0.906   2.372 -0.9403  0.2504  0.2840
  125TYR    HB2   60   4.540   1.056   2.282  0.6388  0.1917 -0.3016
  125TYR     CG   61   4.582   0.881   2.158 -1.0538 -0.3790  0.3304
  125TYR    CD1   62   4.583   0.953   2.037  0.3551  0.4586  0.2795
  125TYR    HD1   63   4.544   1.054   2.040 -1.5730 -0.2416  0.2757
  125TYR    CE1   64   4.624   0.895   1.918 -0.0458  0.4534  0.2491
  125TYR    HE1   65   4.629   0.958   1.830  1.2795  1.2402  0.8462
  125TYR     CZ   66   4.662   0.760   1.915  0.0642 -0.1707 -0.3923
  125TYR     OH   67   4.705   0.715   1.793 -0.1007 -0.0424  0.0143
  125TYR     HH   68   4.736   0.625   1.799  0.0481 -0.0037 -0.1614
  125TYR    CE2   69   4.670   0.683   2.032 -0.1624 -0.1938 -0.7665
  125TYR    HE2   70   4.719   0.587   2.024  1.7689  0.6788 -0.0290
  125TYR    CD2   71   4.634   0.749   2.158  0.5640 -0.1977 -0.4982
  125TYR    HD2   72   4.648   0.701   2.254 -1.6497  1.1009  0.5410
  125TYR      C   73   4.343   0.778   2.371  0.1080 -0.9956 -0.0418
  125TYR      O   74   4.423   0.689   2.367 -0.4940  0.2869 -0.2345
  126GLU      N   75   4.232   0.767   2.436 -0.3175 -0.0919 -0.4855
  126GLU      H   76   4.177   0.852   2.429 -1.4874 -0.7384  0.4480
  126GLU     CA   77   4.179   0.653   2.506  0.2503  0.2495  0.7994
  126GLU     HA   78   4.261   0.599   2.553 -0.4397 -0.6564  1.0074
  126GLU     CB   79   4.096   0.699   2.626  0.3815  0.3595  0.6156
  126GLU    HB1   80   4.035   0.612   2.650  0.3672  0.3063  0.3891
  126GLU    HB2   81   4.024   0.779   2.609 -0.4164  0.0235  2.1593
  126GLU     CG   82   4.188   0.704   2.749  0.5978 -0.5083 -0.4878
  126GLU    HG1   83   4.280   0.757   2.720  1.2070 -1.7307 -0.8479
  126GLU    HG2   84   4.210   0.602   2.781  0.3393 -0.4251 -0.0388
  126GLU     CD   85   4.134   0.778   2.867 -0.2318  0.1543 -0.1915
  126GLU    OE1   86   4.220   0.799   2.957  0.0003 -0.0503  0.3810
  126GLU    OE2   87   4.021   0.830   2.870 -0.1212 -0.7925  0.0486
  126GLU      C   88   4.112   0.553   2.409 -0.6355  0.5452 -0.2031
  126GLU      O   89   3.993   0.559   2.382  0.9089 -0.1105 -0.4796
  127MET      N   90   4.191   0.467   2.343  0.1561  0.3774 -0.8259
  127MET      H   91   4.288   0.456   2.368  0.1947 -0.8469 -1.4725
  127MET     CA   92   4.152   0.382   2.229  0.3454 -0.2012 -0.0164
  127MET     HA   93   4.044   0.370   2.220  0.2614 -0.8036  1.4979
  127MET     CB   94   4.195   0.465   2.102 -0.0401 -0.8400 -0.5224
  127MET    HB1   95   4.157   0.407   2.018 -0.1714 -1.0095 -0.3444
  127MET    HB2   96   4.303   0.476   2.101 -0.0710 -0.4797 -1.5518
  127MET     CG   97   4.124   0.605   2.080  0.1864 -0.2944 -0.1524
  127MET    HG1   98   4.156   0.681   2.151 -0.6612 -1.3245  1.3990
  127MET    HG2   99   4.017   0.585   2.087 -0.2293  0.4644 -3.1000
  127MET     SD  100   4.147   0.678   1.915  0.0586 -0.1057  0.2093
  127MET     CE  101   4.330   0.707   1.936 -0.0016 -0.6838 -0.4207
  127MET    HE1  102   4.363   0.770   1.853  0.0745  0.4461  0.4318
  127MET    HE2  103   4.391   0.618   1.950  1.0825  0.1537  0.4673
  127MET    HE3  104   4.339   0.774   2.022 -1.8708  1.8177 -2.0314
  127MET      C  105   4.218   0.237   2.219 -0.3523 -0.3429 -0.7022
  127MET      O  106   4.327   0.228   2.276  0.1864  0.5374 -0.0850
  128PRO      N  107   4.165   0.139   2.148 -0.4312 -0.8958 -0.2682
  128PRO     CD  108   4.029   0.144   2.102  0.1917  0.1130 -0.6355
  128PRO    HD1  109   4.033   0.203   2.011  4.6398 -0.6735 -1.1648
  128PRO    HD2  110   3.964   0.175   2.185  0.7027 -0.3735 -0.0425
  128PRO     CG  111   3.998   0.000   2.053 -0.2787  0.2969 -0.1147
  128PRO    HG1  112   3.943   0.016   1.960 -0.8157  0.9765  0.3146
  128PRO    HG2  113   3.956  -0.062   2.132  1.9714 -2.7090 -1.0894
  128PRO     CB  114   4.139  -0.058   2.032 -0.4670 -0.2720  0.3543
  128PRO    HB1  115   4.152  -0.164   2.054 -0.4439  0.2167  3.0223
  128PRO    HB2  116   4.167  -0.032   1.929 -1.1973  0.3778  0.3078
  128PRO     CA  117   4.238   0.014   2.122  0.2586 -0.4915  0.5380
  128PRO     HA  118   4.259  -0.045   2.211  0.2919 -0.2618  0.6817
  128PRO      C  119   4.368   0.040   2.040 -0.0202 -0.2865  0.6966
  128PRO      O  120   4.380   0.130   1.958 -0.3144 -0.6117  0.0872
  129SER      N  121   4.457  -0.053   2.057 -0.0734  0.0402  0.5329
  129SER      H  122   4.431  -0.122   2.126 -1.1326  2.1193  2.3346
  129SER     CA  123   4.580  -0.082   1.969 -0.1857 -0.0620 -0.7406
  129SER     HA  124   4.655  -0.004   1.985 -1.5375  1.0196  0.6128
  129SER     CB  125   4.649  -0.207   2.016 -0.6186  0.3073  0.3105
  129SER    HB1  126   4.717  -0.248   1.942 -2.6908 -2.0221 -0.4807
  129SER    HB2  127   4.579  -0.291   2.021  0.8371 -1.0594 -1.3330
  129SER     OG  128   4.718  -0.181   2.139 -0.5692  0.3609  1.2248
  129SER    HG1  129   4.742  -0.268   2.172 -0.2874  0.2518  0.7275
  129SER      C  130   4.546  -0.081   1.824  0.0093 -0.2208 -0.8076
  129SER      O  131   4.430  -0.115   1.791  0.7116 -0.6174  0.5429
  130GLU      N  132   4.642  -0.052   1.736 -0.2094 -0.2497 -0.4295
  130GLU      H  133   4.733  -0.036   1.777 -0.0273 -0.5234 -0.7207
  130GLU     CA  134   4.638  -0.048   1.586  0.7274 -0.4076 -0.2157
  130GLU     HA  135   4.539  -0.066   1.545  1.2237 -1.6040 -0.9599
  130GLU     CB  136   4.675   0.090   1.531  0.9088  0.5176 -0.5979
  130GLU    HB1  137   4.611   0.164   1.579 -0.2598 -1.1017  0.4517
  130GLU    HB2  138   4.658   0.091   1.423 -1.2271 -1.7808 -0.3657
  130GLU     CG  139   4.823   0.122   1.548  0.9786 -0.5516  0.2133
  130GLU    HG1  140   4.879   0.037   1.509  0.5223 -0.6399 -0.2591
  130GLU    HG2  141   4.854   0.137   1.651 -0.3999 -2.3004  0.9315
  130GLU     CD  142   4.870   0.257   1.472 -0.4095  0.0662  0.3723
  130GLU    OE1  143   4.924   0.352   1.537  0.6250 -0.1094  0.4346
  130GLU    OE2  144   4.846   0.260   1.352 -0.2506 -0.4278  0.2398
  130GLU      C  145   4.714  -0.159   1.522  0.5094 -0.5287  0.1178
  130GLU      O  146   4.796  -0.225   1.589 -0.3301  0.0040 -0.3942
  131GLU      N  147   4.687  -0.180   1.390 -0.5534 -0.4768  0.0571
  131GLU      H  148   4.630  -0.105   1.352 -0.1697 -0.8011 -1.1984
  131GLU     CA  149   4.735  -0.292   1.303 -0.2099 -0.0058 -0.2860
  131GLU     HA  150   4.791  -0.355   1.371 -0.4697  1.7045  1.6241
  131GLU     CB  151   4.624  -0.377   1.251 -0.0564 -0.5180 -0.0647
  131GLU    HB1  152   4.662  -0.457   1.187  0.1642 -0.1193 -0.4398
  131GLU    HB2  153   4.565  -0.306   1.194  4.3578  0.6487 -3.8046
  131GLU     CG  154   4.528  -0.434   1.361 -0.7022  0.8267  0.2960
  131GLU    HG1  155   4.491  -0.359   1.431 -1.4420  0.8661 -0.1295
  131GLU    HG2  156   4.583  -0.512   1.414 -0.6178  0.0326 -0.9166
  131GLU     CD  157   4.419  -0.514   1.295  0.9715  0.2571  0.1220
  131GLU    OE1  158   4.430  -0.633   1.265  0.1514  0.6558 -0.1917
  131GLU    OE2  159   4.316  -0.456   1.262 -0.3408 -0.4230 -0.5652
  131GLU      C  160   4.830  -0.251   1.185 -0.4935  0.0629  0.0195
  131GLU      O  161   4.807  -0.149   1.111 -0.4767  0.0319  0.4028
  132GLY      N  162   4.929  -0.336   1.166 -0.3903 -0.0276 -0.3093
  132GLY      H  163   4.937  -0.423   1.217 -1.5820  0.3840  0.6018
  132GLY     CA  164   5.045  -0.302   1.074  0.4195  0.0297 -0.1801
  132GLY    HA1  165   5.135  -0.341   1.120 -0.6407 -1.1215  1.0176
  132GLY    HA2  166   5.060  -0.194   1.068 -0.1949  0.0532 -2.0302
  132GLY      C  167   5.040  -0.350   0.928 -0.2197  0.0896 -0.4755
  132GLY      O  168   4.934  -0.380   0.875  0.2697  0.8169 -0.4282
  133TYR      N  169   5.158  -0.332   0.864  0.8664  0.2720 -0.5957
  133TYR      H  170   5.239  -0.317   0.922  0.0259  0.7011  0.4981
  133TYR     CA  171   5.176  -0.361   0.721 -0.2013  0.3696  0.5427
  133TYR     HA  172   5.087  -0.334   0.664  0.9161 -1.1618 -2.1264
  133TYR     CB  173   5.305  -0.296   0.661 -0.3104 -0.4216  0.0805
  133TYR    HB1  174   5.389  -0.330   0.721 -1.2469  1.0192  2.3095
  133TYR    HB2  175   5.306  -0.188   0.668 -2.8730 -0.1095 -2.2234
  133TYR     CG  176   5.324  -0.348   0.513  0.3125 -0.1132  0.3382
  133TYR    CD1  177   5.425  -0.442   0.481  0.4499 -1.1718  0.1706
  133TYR    HD1  178   5.496  -0.462   0.561  1.8246  1.7299 -0.1833
  133TYR    CE1  179   5.441  -0.486   0.347 -0.6932  0.0145  0.5534
  133TYR    HE1  180   5.524  -0.551   0.322 -1.0728 -0.5427  0.7096
  133TYR     CZ  181   5.354  -0.439   0.245  0.3859  0.0924 -0.8850
  133TYR     OH  182   5.378  -0.475   0.118  0.1619  0.1179 -0.1258
  133TYR     HH  183   5.313  -0.433   0.061  0.0849 -0.1376 -0.2270
  133TYR    CE2  184   5.254  -0.340   0.274  0.0931 -0.0241 -0.8815
  133TYR    HE2  185   5.200  -0.281   0.201 -4.3576 -1.6828  0.6885
  133TYR    CD2  186   5.248  -0.293   0.406 -0.1646  0.1809 -0.2528
  133TYR    HD2  187   5.186  -0.208   0.430  0.5446  0.5768  0.2291
  133TYR      C  188   5.176  -0.519   0.696 -0.3500 -0.0676  0.0130
  133TYR      O  189   5.237  -0.585   0.778 -0.5670 -0.0188  0.0188
  134GLN      N  190   5.103  -0.572   0.601  0.4995 -0.2857  0.3630
  134GLN      H  191   5.059  -0.505   0.540  1.5142 -0.4186 -0.5267
  134GLN     CA  192   5.077  -0.714   0.578  0.8571  0.4696  0.0042
  134GLN     HA  193   5.165  -0.761   0.623  2.3020 -0.4501 -3.4450
  134GLN     CB  194   4.948  -0.750   0.655 -0.2202  0.8855  0.1105
  134GLN    HB1  195   4.860  -0.696   0.623 -0.5000  0.0686 -0.5614
  134GLN    HB2  196   4.957  -0.719   0.759 -0.9631  0.7060  0.2308
  134GLN     CG  197   4.934  -0.900   0.661 -0.2597  0.2360 -0.1153
  134GLN    HG1  198   5.020  -0.941   0.714 -0.2189 -1.2467 -1.2809
  134GLN    HG2  199   4.928  -0.945   0.562  0.6579  1.4717 -0.7602
  134GLN     CD  200   4.819  -0.947   0.743  0.4384 -0.1046  0.0102
  134GLN    OE1  201   4.760  -1.054   0.726  0.1064  0.2615 -0.0641
  134GLN    NE2  202   4.775  -0.877   0.841 -0.3486  0.2578 -0.1328
  134GLN   HE21  203   4.713  -0.934   0.897  0.5956 -1.1609 -0.4559
  134GLN   HE22  204   4.821  -0.794   0.876 -0.3624 -0.3125  1.3109
  134GLN      C  205   5.079  -0.754   0.425 -0.0714  0.3182 -0.1468
  134GLN      O  206   4.989  -0.720   0.354  0.4983  0.1841  0.2714
  135ASP      N  207   5.189  -0.821   0.384 -0.1495  0.5293  0.4939
  135ASP      H  208   5.267  -0.836   0.446  0.0969 -0.7898 -0.1045
  135ASP     CA  209   5.196  -0.888   0.256  0.4939  0.0034  0.3941
  135ASP     HA  210   5.106  -0.868   0.198  0.5969  1.5681  0.7149
  135ASP     CB  211   5.305  -0.820   0.175 -0.0417 -0.1747 -0.8789
  135ASP    HB1  212   5.399  -0.870   0.198  0.6998  0.0977 -3.0724
  135ASP    HB2  213   5.323  -0.715   0.199 -1.4767 -0.1237  0.1492
  135ASP     CG  214   5.285  -0.838   0.026  0.0675  0.2212  0.6350
  135ASP    OD1  215   5.391  -0.817  -0.042  0.6230  0.5389  0.3325
  135ASP    OD2  216   5.179  -0.862  -0.029  0.2887 -0.5221  0.3812
  135ASP      C  217   5.200  -1.035   0.246 -0.7845 -0.5060 -0.0805
  135ASP      O  218   5.235  -1.103   0.343 -0.2442 -0.2098 -0.5697
  136TYR      N  219   5.165  -1.091   0.133 -0.0657 -0.0982 -0.6373
  136TYR      H  220   5.136  -1.033   0.056 -1.2230 -1.4895 -1.3070
  136TYR     CA  221   5.129  -1.234   0.120  0.3298 -0.4415  0.0392
  136TYR     HA  222   5.165  -1.290   0.206  0.5698  0.9672  0.8941
  136TYR     CB  223   4.977  -1.258   0.109  0.2360  0.1232  0.8164
  136TYR    HB1  224   4.960  -1.365   0.120 -0.2769 -0.0770 -1.4567
  136TYR    HB2  225   4.941  -1.246   0.007 -0.4316 -1.8096  0.7891
  136TYR     CG  226   4.894  -1.171   0.201  0.1355 -0.5321  0.3606
  136TYR    CD1  227   4.842  -1.052   0.150 -0.1064  0.5245 -0.3665
  136TYR    HD1  228   4.862  -1.027   0.046 -2.5852 -0.7006 -1.2175
  136TYR    CE1  229   4.752  -0.971   0.230 -0.4290 -0.3778 -0.3323
  136TYR    HE1  230   4.705  -0.886   0.184 -0.5432 -0.7825 -0.9759
  136TYR     CZ  231   4.730  -1.004   0.361 -0.3380  0.0548  0.0001
  136TYR     OH  232   4.645  -0.932   0.431  0.6442  0.0908 -0.1782
  136TYR     HH  233   4.590  -0.872   0.380 -1.3405 -0.7745  0.8162
  136TYR    CE2  234   4.791  -1.126   0.414 -0.1854 -0.9720 -0.1201
  136TYR    HE2  235   4.761  -1.153   0.514 -0.9108  1.9329  0.5477
  136TYR    CD2  236   4.859  -1.212   0.331 -0.2266  0.2784  0.3923
  136TYR    HD2  237   4.908  -1.302   0.365  2.0024  1.3904  0.3196
  136TYR      C  238   5.211  -1.306   0.010 -0.1582 -0.4900  0.7839
  136TYR      O  239   5.258  -1.238  -0.079  0.7202 -0.5479  0.3797
  137GLU      N  240   5.237  -1.438   0.018  0.8726 -0.2204 -0.0452
  137GLU      H  241   5.191  -1.485   0.096  0.6468  1.6898  1.0315
  137GLU     CA  242   5.355  -1.509  -0.034 -0.2774 -0.8505  0.0983
  137GLU     HA  243   5.437  -1.437  -0.033  0.7866 -1.9255 -2.4325
  137GLU     CB  244   5.395  -1.622   0.064 -0.3112  0.7482  0.1088
  137GLU    HB1  245   5.312  -1.693   0.066  1.8010 -1.9260 -1.0685
  137GLU    HB2  246   5.396  -1.571   0.160  0.0376  1.0465 -0.0508
  137GLU     CG  247   5.525  -1.686   0.016  0.3319  0.2044  0.0968
  137GLU    HG1  248   5.594  -1.604  -0.003 -0.4482  0.7717 -0.3061
  137GLU    HG2  249   5.505  -1.724  -0.084  1.0330  0.8197 -0.2887
  137GLU     CD  250   5.574  -1.800   0.110  0.3578 -0.1389 -0.2158
  137GLU    OE1  251   5.489  -1.872   0.172 -0.2348 -0.0960  0.4988
  137GLU    OE2  252   5.693  -1.844   0.112  0.1403  0.3024  0.3255
  137GLU      C  253   5.340  -1.554  -0.176  0.2042  0.0822 -0.3475
  137GLU      O  254   5.245  -1.633  -0.195 -0.0804  0.1793  0.4461
  138PRO      N  255   5.424  -1.507  -0.269 -0.4266  0.3010 -0.1863
  138PRO     CD  256   5.516  -1.401  -0.250 -0.6586  0.6378  0.4873
  138PRO    HD1  257   5.612  -1.441  -0.218 -0.2455  1.4591  0.3145
  138PRO    HD2  258   5.484  -1.319  -0.186 -0.0663  1.3627 -0.1118
  138PRO     CG  259   5.530  -1.334  -0.387 -0.9394 -0.8417  0.1436
  138PRO    HG1  260   5.630  -1.290  -0.400 -1.4163 -0.1039 -1.2549
  138PRO    HG2  261   5.451  -1.263  -0.412 -0.1280 -0.2173 -0.7450
  138PRO     CB  262   5.509  -1.448  -0.480 -0.2591 -0.4388  0.3062
  138PRO    HB1  263   5.482  -1.421  -0.582  1.9993  0.4319 -0.1184
  138PRO    HB2  264   5.608  -1.493  -0.489  0.4453  0.8341  1.2017
  138PRO     CA  265   5.415  -1.539  -0.412  0.4496 -0.3891  0.1704
  138PRO     HA  266   5.311  -1.516  -0.437  1.0088 -1.0897 -3.2297
  138PRO      C  267   5.438  -1.692  -0.451 -0.1121  0.3356 -0.8283
  138PRO      O  268   5.489  -1.769  -0.372 -0.2304  0.2516 -0.1729
  139GLU      N  269   5.409  -1.722  -0.578  0.4264  0.3459  0.7787
  139GLU      H  270   5.365  -1.649  -0.633  0.6795 -0.2249 -0.1982
  139GLU     CA  271   5.396  -1.852  -0.640 -0.5098  0.6371 -0.6222
  139GLU     HA  272   5.432  -1.925  -0.567 -0.3066  0.4954 -0.8611
  139GLU     CB  273   5.250  -1.877  -0.673 -0.4143  0.0152  0.3210
  139GLU    HB1  274   5.253  -1.954  -0.749 -1.3772  0.5581 -0.2839
  139GLU    HB2  275   5.209  -1.790  -0.724 -0.5269 -0.4605 -0.4027
  139GLU     CG  276   5.159  -1.917  -0.561 -0.7704  1.0822  0.6583
  139GLU    HG1  277   5.132  -1.836  -0.493 -2.7462  0.2637  0.9252
  139GLU    HG2  278   5.208  -1.996  -0.504  1.6043  2.2859  0.3681
  139GLU     CD  279   5.032  -1.976  -0.606 -0.3538 -0.3638 -0.3843
  139GLU    OE1  280   4.998  -2.001  -0.722 -0.2575 -0.1535  0.2140
  139GLU    OE2  281   4.951  -2.002  -0.519 -0.1427  0.2019 -0.9262
  139GLU      C  282   5.485  -1.870  -0.762  0.1449 -0.1342 -0.4103
  139GLU      O  283   5.521  -1.774  -0.831 -0.1227  0.1520 -0.1308
  140CALA     N  284   5.510  -1.998  -0.785  0.7134  0.9560  0.1212
  140CALA     H  285   5.480  -2.061  -0.713  3.4282  1.4160  1.7866
  140CALA    CA  286   5.581  -2.058  -0.894 -0.3488  0.1139 -0.1678
  140CALA    HA  287   5.680  -2.011  -0.900  0.4691 -1.7371 -2.5266
  140CALA    CB  288   5.608  -2.209  -0.867 -0.3440  0.2990 -0.3373
  140CALA   HB1  289   5.509  -2.255  -0.859  0.6878 -1.6887  2.8943
  140CALA   HB2  290   5.678  -2.232  -0.787  0.2842 -0.4088 -1.0726
  140CALA   HB3  291   5.652  -2.257  -0.954  0.7331  1.7865 -0.6528
  140CALA     C  292   5.517  -2.036  -1.033 -0.3483 -0.1627 -0.0958
  140CALA   OC1  293   5.595  -2.051  -1.130 -0.0894  0.1591 -0.3404
  140CALA   OC2  294   5.407  -1.978  -1.038 -0.8621 -0.2359  0.3835
  141FAS      C  295   4.460   6.405   2.778 -0.0990  0.3000 -0.2767
  141FAS     C1  296   4.386   6.273   2.762  0.1392 -0.1669  0.2338
  141FAS      N  297   4.339   6.253   2.619 -0.7229 -0.2083 -0.5959
  141FAS     C2  298   4.227   6.355   2.579 -0.1029  0.8543 -0.5711
  141FAS     C3  299   4.262   6.503   2.578  1.1330  0.0156 -0.1743
  141FAS     N1  300   4.252   6.551   2.714 -0.0437 -0.2039  0.4934
  141FAS     C4  301   4.377   6.536   2.801 -0.1169 -0.0792  0.2239
  141FAS      S  302   4.169   6.697   2.729  0.0236 -0.1211  0.3108
  141FAS      O  303   4.240   6.783   2.635 -0.1830 -0.5639 -0.4439
  141FAS     O1  304   4.025   6.666   2.703 -0.5034  0.2547 -0.3753
  141FAS     C5  305   4.195   6.739   2.904 -0.5784  0.2246  0.4655
  141FAS     C6  306   4.112   6.678   2.997 -0.0425  0.5600 -0.2645
  141FAS     C7  307   4.133   6.692   3.136 -0.5014  0.1254 -1.1571
  141FAS     C8  308   4.234   6.771   3.186  0.5033 -0.0396  0.2522
  141FAS     C9  309   4.314   6.838   3.096  0.6948  0.7424  0.3605
  141FAS    C10  310   4.294   6.824   2.958 -0.5749  0.2802  0.2327
  141FAS    C11  311   4.394   6.893   2.883  0.6135 -0.6578  0.0246
  141FAS    C12  312   4.496   6.967   2.948 -0.3666 -0.3842  0.3821
  141FAS     N2  313   4.500   6.987   3.081  0.4889  0.0723 -0.1062
  141FAS    C13  314   4.405   6.927   3.151 -0.4060 -0.7662  0.4384
  141FAS      H  315   4.528   6.408   2.692  1.0615 -1.5548  0.5032
  141FAS     H1  316   4.521   6.385   2.867 -2.1570  0.0008  1.1371
  141FAS     H2  317   4.300   6.278   2.828 -1.4904  0.6681 -1.8382
  141FAS     H3  318   4.461   6.201   2.795  0.5718  1.4747  3.1168
  141FAS     H4  319   4.419   6.249   2.555 -0.9669 -1.8282 -0.8391
  141FAS     H5  320   4.146   6.336   2.650 -1.4857 -1.1126 -2.5464
  141FAS     H6  321   4.193   6.325   2.480 -3.9841  1.5297  0.3849
  141FAS     H7  322   4.183   6.553   2.520 -0.3410 -1.0993  0.8048
  141FAS     H8  323   4.359   6.520   2.531  0.7014  1.1325 -0.7040
  141FAS     H9  324   4.346   6.544   2.906 -2.6769  0.3945 -0.4992
  141FAS    H10  325   4.448   6.616   2.778 -0.5928  0.2109 -0.2616
  141FAS    H11  326   4.031   6.610   2.972  0.3895 -0.2245  0.3737
  141FAS    H12  327   4.068   6.644   3.208  0.4803  1.4892  0.7220
  141FAS    H13  328   4.237   6.788   3.293  0.3518  0.5693  0.1670
  141FAS    H14  329   4.390   6.884   2.775 -0.5183  1.9574 -0.2483
  141FAS    H15  330   4.568   7.018   2.884  0.1658 -0.2173  1.1019
  141FAS    H16  331   4.412   6.951   3.257 -0.2427  1.5272 -0.0478
  141FAS    H17  332   4.290   6.162   2.614  0.8541 -1.4772  3.2736
  142SOL     OW  333   4.682   4.007   4.856 -0.1007 -0.3647 -0.5863
  142SOL    HW2  334   4.634   3.987   4.776 -1.7257 -1.9183  0.6765
  142SOL    HW3  335   4.643   4.090   4.886 -1.1039 -0.9232 -0.2791
  142SOL    MW4  336   4.670   4.016   4.850 -0.4475 -0.6434 -0.3792
  143SOL     OW  337   0.896   4.032   3.905 -0.2629  0.4385  0.0278
  143SOL    HW2  338   0.870   4.013   3.995 -0.9868 -1.4356 -0.5317
  143SOL    HW3  339   0.917   3.946   3.868  0.9315  1.2858 -1.3255
  143SOL    MW4  340   0.895   4.018   3.912 -0.2008  0.3030 -0.2246
  144SOL     OW  341   3.116   2.146   5.202  0.0111 -0.6055  0.2686
  144SOL    HW2  342   3.100   2.158   5.109 -0.5558  1.0151  0.5493
  144SOL    HW3  343   3.046   2.195   5.245  1.1770 -0.0048  1.5424
  144SOL    MW4  344   3.105   2.154   5.196  0.0901 -0.3124  0.4737
  145SOL     OW  345   2.880   1.672   1.961  0.5096 -0.1624 -0.1099
  145SOL    HW2  346   2.927   1.753   1.943 -0.2525  0.3706  0.2238
  145SOL    HW3  347   2.788   1.694   1.945  0.3165 -1.0147 -0.1995
  145SOL    MW4  348   2.874   1.686   1.957  0.3836 -0.2046 -0.0777
  146SOL     OW  349   2.712   0.182   2.765  0.3715 -0.6396 -0.1550
  146SOL    HW2  350   2.727   0.210   2.855  4.3234  0.1037 -0.8765
  146SOL    HW3  351   2.744   0.092   2.762 -1.1386 -1.1990 -0.5543
  146SOL    MW4  352   2.718   0.174   2.776  0.6936 -0.6154 -0.3029
  147SOL     OW  353   0.367   0.891   6.183  0.0839 -0.8586 -0.3059
  147SOL    HW2  354   0.418   0.971   6.179 -0.5073 -0.4750 -0.3716
  147SOL    HW3  355   0.387   0.853   6.268  0.3353 -0.6226 -0.2585
  147SOL    MW4  356   0.376   0.896   6.193  0.0390 -0.7768 -0.3083
  148SOL     OW  357   1.859   4.954   3.376  0.5649 -0.8046 -0.1698
  148SOL    HW2  358   1.909   5.033   3.398 -2.3004  2.1161 -3.0847
  148SOL    HW3  359   1.855   4.954   3.280 -1.7697 -3.0199 -0.1705
  148SOL    MW4  360   1.865   4.965   3.366 -0.1212 -0.7115 -0.5545
  149SOL     OW  361   6.225   1.785   0.027 -0.2172 -0.0400  0.4908
  149SOL    HW2  362   6.184   1.819   0.107 -0.2934  1.7911 -0.2792
  149SOL    HW3  363   6.304   1.837   0.017 -0.8060  0.5887 -1.2405
  149SOL    MW4  364   6.230   1.796   0.037 -0.3050  0.2845  0.1608
  150SOL     OW  365   3.062   2.393   2.542 -0.3098  0.5138  0.1918
  150SOL    HW2  366   2.985   2.433   2.582 -0.0086 -0.2429  1.5721
  150SOL    HW3  367   3.049   2.299   2.552 -0.2857  0.2661 -1.6546
  150SOL    MW4  368   3.050   2.386   2.549 -0.2669  0.3813  0.1303
  151SOL     OW  369   6.273   5.342   2.379  0.7169  0.1285 -0.1557
  151SOL    HW2  370   6.194   5.361   2.430  0.3882 -2.4390  0.3998
  151SOL    HW3  371   6.260   5.390   2.297 -1.2843  0.0181  0.0436
  151SOL    MW4  372   6.260   5.351   2.375  0.4095 -0.2248 -0.0561
  152SOL     OW  373   6.053   6.126   5.838 -0.4161  0.4963 -0.1434
  152SOL    HW2  374   6.052   6.185   5.913  0.4188  1.4400 -0.8355
  152SOL    HW3  375   5.970   6.142   5.793 -1.4960 -0.9974  1.2317
  152SOL    MW4  376   6.042   6.136   5.842 -0.4484  0.4237 -0.0533
  153SOL     OW  377   2.407   2.356   3.958  0.3508  0.6109  0.4782
  153SOL    HW2  378   2.359   2.425   3.912  0.1025 -0.3678 -0.7778
  153SOL    HW3  379   2.420   2.287   3.893  1.2800 -0.2151  1.4831
  153SOL    MW4  380   2.402   2.356   3.944  0.4407  0.3728  0.4450
  154SOL     OW  381   4.463   4.211   0.668 -0.5910 -0.5242  0.5216
  154SOL    HW2  382   4.419   4.271   0.728 -1.4691 -1.4450  0.8130
  154SOL    HW3  383   4.525   4.162   0.723  1.6331  1.4462 -0.0394
  154SOL    MW4  384   4.466   4.213   0.683 -0.4134 -0.3857  0.4860
  155SOL     OW  385   1.091   6.130   1.801 -0.3085  0.1828  0.1728
  155SOL    HW2  386   1.135   6.206   1.840  0.0902 -0.3832  0.8487
  155SOL    HW3  387   1.034   6.096   1.870  0.2121 -0.6777  0.1978
  155SOL    MW4  388   1.089   6.135   1.815 -0.1872 -0.0054  0.2653
  156SOL     OW  389   1.635   0.212   5.253  0.0303  0.0161 -0.1990
  156SOL    HW2  390   1.555   0.258   5.276  1.1040  1.8285  0.1169
  156SOL    HW3  391   1.700   0.243   5.316  1.3416 -0.2808 -1.3533
  156SOL    MW4  392   1.633   0.222   5.264  0.3450  0.2161 -0.3096
  157SOL     OW  393   4.107   6.165   0.212 -0.8476  0.4240  0.1916
  157SOL    HW2  394   4.188   6.170   0.263 -1.8515  0.0300  1.8715
  157SOL    HW3  395   4.121   6.226   0.139  0.9701  0.3130  0.4099
  157SOL    MW4  396   4.120   6.174   0.209 -0.7402  0.3574  0.4421
  158SOL     OW  397   1.681   5.057   3.636  0.2842  0.0195 -0.3358
  158SOL    HW2  398   1.594   5.022   3.618  0.3850  0.6662 -2.2543
  158SOL    HW3  399   1.679   5.145   3.599  1.4549  0.4036  0.4781
  158SOL    MW4  400   1.669   5.064   3.629  0.4520  0.1555 -0.4816
  159SOL     OW  401   4.222   3.425   0.685 -0.6155  0.1987 -0.1940
  159SOL    HW2  402   4.168   3.494   0.647  0.0504  1.3374  0.8825
  159SOL    HW3  403   4.202   3.428   0.778 -0.5423 -1.0529 -0.1253
  159SOL    MW4  404   4.212   3.434   0.692 -0.5180  0.1838 -0.0429
  160SOL     OW  405   0.234   2.062   4.570  0.1863 -0.0230  0.0796
  160SOL    HW2  406   0.168   2.094   4.631 -0.0152  3.0134 -1.5523
  160SOL    HW3  407   0.317   2.070   4.619 -0.3307 -1.5537  1.2883
  160SOL    MW4  408   0.236   2.068   4.585  0.0915  0.1756  0.0238
  161SOL     OW  409   3.064   2.404   2.263 -0.0563 -0.6257 -0.2350
  161SOL    HW2  410   3.068   2.372   2.353 -1.5674  2.0887  0.9148
  161SOL    HW3  411   2.981   2.370   2.230  1.1510 -2.8182 -1.1899
  161SOL    MW4  412   3.054   2.395   2.271 -0.0964 -0.5568 -0.2093
  162SOL     OW  413   4.899   2.311   4.783  0.0333  0.1072 -0.0205
  162SOL    HW2  414   4.810   2.336   4.761 -0.8866 -1.2627  1.8524
  162SOL    HW3  415   4.889   2.232   4.837  2.4534 -0.8979 -0.9011
  162SOL    MW4  416   4.886   2.304   4.787  0.2312 -0.2061  0.1105
  163SOL     OW  417   3.544   1.160   4.788  0.6029 -0.0618  0.2537
  163SOL    HW2  418   3.511   1.128   4.872 -0.5816  1.2248  0.3116
  163SOL    HW3  419   3.526   1.254   4.789  3.1610  0.5248 -0.2687
  163SOL    MW4  420   3.537   1.169   4.799  0.7841  0.1853  0.1924
  164SOL     OW  421   3.268   3.353   1.219  0.1044  0.3107 -0.2162
  164SOL    HW2  422   3.292   3.355   1.311 -0.9467  0.4689  0.0721
  164SOL    HW3  423   3.345   3.319   1.174 -0.2639 -2.4530  1.0257
  164SOL    MW4  424   3.281   3.349   1.225 -0.0829 -0.0331 -0.0143
  165SOL     OW  425   4.595   0.308   1.888  0.6807 -0.3010 -0.0222
  165SOL    HW2  426   4.645   0.262   1.955  1.6132 -1.9606 -1.7644
  165SOL    HW3  427   4.504   0.284   1.906  0.8462 -0.2076  1.0075
  165SOL    MW4  428   4.589   0.299   1.899  0.8255 -0.5076 -0.1162
  166SOL     OW  429   6.148   4.340   3.885 -0.3963  0.3122  0.1527
  166SOL    HW2  430   6.171   4.394   3.809 -0.6664  0.6721  0.3204
  166SOL    HW3  431   6.232   4.317   3.924 -0.1570 -1.2385 -1.1627
  166SOL    MW4  432   6.162   4.344   3.880 -0.4003  0.1551  0.0013
  167SOL     OW  433   5.865   4.006   0.750 -0.3429 -0.3122  0.2968
  167SOL    HW2  434   5.841   3.969   0.666 -0.1769 -1.5922  0.7980
  167SOL    HW3  435   5.830   4.096   0.748 -0.4174 -0.3595 -1.0788
  167SOL    MW4  436   5.857   4.013   0.739 -0.3309 -0.4873  0.1814
  168SOL     OW  437   5.647   2.943   3.076  0.2176 -0.2492  0.4344
  168SOL    HW2  438   5.696   2.997   3.137  0.5686 -0.4029  0.2903
  168SOL    HW3  439   5.711   2.882   3.040  0.4257  0.9886 -1.4223
  168SOL    MW4  440   5.662   2.942   3.079  0.2914 -0.1061  0.1704
  169SOL     OW  441   2.380   6.400   1.917  0.3406  0.3709 -0.1083
  169SOL    HW2  442   2.377   6.318   1.867 -0.9560 -0.1885  0.8375
  169SOL    HW3  443   2.307   6.393   1.978  3.2981 -0.1954  3.7672
  169SOL    MW4  444   2.370   6.388   1.918  0.5597  0.2224  0.5278
  170SOL     OW  445   3.611   5.001   1.331  0.1565 -0.2654 -0.4534
  170SOL    HW2  446   3.614   4.916   1.375  2.1945  0.2637  0.5645
  170SOL    HW3  447   3.687   5.000   1.273  0.8688  1.2514  0.4018
  170SOL    MW4  448   3.621   4.989   1.329  0.5194  0.0045 -0.2063
  171SOL     OW  449   0.706   0.262   2.625 -0.5093  0.5778  0.8767
  171SOL    HW2  450   0.657   0.344   2.621 -2.0119 -0.3015  0.8795
  171SOL    HW3  451   0.734   0.255   2.717  0.4929  1.5545  0.6667
  171SOL    MW4  452   0.703   0.272   2.637 -0.5753  0.5907  0.8494
  172SOL     OW  453   0.014   6.091   5.253  0.0199 -0.8384  0.0621
  172SOL    HW2  454   0.036   6.044   5.333  1.2849  0.5561  0.5909
  172SOL    HW3  455  -0.081   6.097   5.254  0.0421  0.4736  2.3194
  172SOL    MW4  456   0.005   6.086   5.264  0.1897 -0.4813  0.4297
  173SOL     OW  457   6.048   5.812   3.258  0.6150  0.3502  0.7185
  173SOL    HW2  458   6.046   5.891   3.312  1.5121  0.0268  1.2512
  173SOL    HW3  459   6.028   5.741   3.318  1.8256 -0.0340  0.6880
  173SOL    MW4  460   6.045   5.813   3.273  0.8931  0.2569  0.7847
  174SOL     OW  461   4.892   4.851   5.821  0.2058  0.8422 -0.7214
  174SOL    HW2  462   4.884   4.809   5.906  1.2403 -0.6908 -1.3302
  174SOL    HW3  463   4.943   4.930   5.839 -0.8964  1.3636  0.2880
  174SOL    MW4  464   4.898   4.856   5.835  0.1969  0.7088 -0.6685
  175SOL     OW  465   4.444   0.104   3.796 -0.4959 -0.5865 -0.4132
  175SOL    HW2  466   4.406   0.079   3.881 -0.1314 -0.9043 -0.3392
  175SOL    HW3  467   4.377   0.158   3.755 -0.1885  0.6320  0.6126
  175SOL    MW4  468   4.430   0.108   3.802 -0.4072 -0.4677 -0.2681
  176SOL     OW  469   3.570   5.232   1.492 -0.3980  0.2154 -0.5798
  176SOL    HW2  470   3.587   5.309   1.438  1.7925  0.1862 -0.0350
  176SOL    HW3  471   3.581   5.158   1.433 -1.1472  0.2634 -0.7896
  176SOL    MW4  472   3.573   5.233   1.477 -0.2078  0.2179 -0.5356
  177SOL     OW  473   4.299   6.438   4.022  0.1103 -0.0100 -0.0686
  177SOL    HW2  474   4.271   6.505   4.085  0.1404 -0.7025  0.7027
  177SOL    HW3  475   4.217   6.402   3.988  0.0878  1.2961 -1.4690
  177SOL    MW4  476   4.284   6.442   4.026  0.1113  0.0710 -0.1516
  178SOL     OW  477   4.469   4.195   0.171 -0.0569  0.6559  0.1089
  178SOL    HW2  478   4.420   4.118   0.144  0.7761 -0.2208  1.0410
  178SOL    HW3  479   4.554   4.186   0.128  0.3721  0.5657  0.9657
  178SOL    MW4  480   4.474   4.184   0.162  0.1096  0.5283  0.3449
  179SOL     OW  481   5.758   3.428   4.357  0.1418 -0.3909  0.2493
  179SOL    HW2  482   5.787   3.471   4.277  0.6759 -1.1635  0.0184
  179SOL    HW3  483   5.680   3.380   4.332 -0.0210 -0.1737  0.3330
  179SOL    MW4  484   5.751   3.427   4.343  0.1908 -0.4642  0.2298
  180SOL     OW  485   1.948   3.007   0.989  0.1193 -0.4246 -0.3073
  180SOL    HW2  486   2.032   2.973   1.018 -0.0464 -0.8053 -0.2705
  180SOL    HW3  487   1.943   2.983   0.896 -0.6601 -1.8418  0.0850
  180SOL    MW4  488   1.958   3.000   0.980 -0.0054 -0.6618 -0.2507
  181SOL     OW  489   4.857   5.265   3.842  0.6137  0.7015  0.1499
  181SOL    HW2  490   4.935   5.261   3.787 -0.1314 -0.8600 -0.8763
  181SOL    HW3  491   4.784   5.278   3.781 -0.0542  0.8100  0.9476
  181SOL    MW4  492   4.857   5.266   3.827  0.4273  0.5098  0.1197
  182SOL     OW  493   0.803   1.848   3.860  0.3880  0.2683  0.5645
  182SOL    HW2  494   0.780   1.794   3.784 -1.1920 -1.7356  2.3654
  182SOL    HW3  495   0.734   1.914   3.864  0.3624  0.2551  0.3733
  182SOL    MW4  496   0.791   1.849   3.850  0.1762  0.0022  0.7769
  183SOL     OW  497   3.253   1.563   5.529 -0.4332 -0.0071  0.2498
  183SOL    HW2  498   3.272   1.649   5.566 -0.4236 -0.9119  2.4960
  183SOL    HW3  499   3.327   1.509   5.557 -1.1378 -1.0832  0.0770
  183SOL    MW4  500   3.265   1.567   5.537 -0.5249 -0.2685  0.5233
  184SOL     OW  501   4.525   0.182   5.142  0.3240  0.5854 -0.3145
  184SOL    HW2  502   4.468   0.240   5.192 -1.3457 -0.5805 -0.7674
  184SOL    HW3  503   4.595   0.238   5.110 -0.6824  2.1331  0.1012
  184SOL    MW4  504   4.527   0.197   5.144 -0.0291  0.6358 -0.3194
  185SOL     OW  505   0.167   3.022   1.244  0.0583  0.0524  0.2768
  185SOL    HW2  506   0.256   2.996   1.269  0.1897  0.0423 -0.1985
  185SOL    HW3  507   0.149   3.100   1.297  0.7857  0.7380 -0.4526
  185SOL    MW4  508   0.176   3.029   1.254  0.1716  0.1415  0.1178
  186SOL     OW  509   4.700   0.453   3.470 -0.0349 -0.2164 -0.2284
  186SOL    HW2  510   4.706   0.518   3.541  0.7649  0.3701 -0.8211
  186SOL    HW3  511   4.762   0.385   3.495 -1.2771 -1.0599  0.6758
  186SOL    MW4  512   4.709   0.453   3.483 -0.0933 -0.2503 -0.1873
  187SOL     OW  513   2.438   5.208   1.185  0.3820  0.3012 -0.2748
  187SOL    HW2  514   2.450   5.303   1.191 -0.4026  0.4212 -0.4705
  187SOL    HW3  515   2.367   5.189   1.248  3.1361 -0.7363  2.8182
  187SOL    MW4  516   2.430   5.218   1.194  0.6419  0.1801  0.1074
  188SOL     OW  517   1.470   2.347   0.815  0.0679 -0.4361  1.0239
  188SOL    HW2  518   1.563   2.331   0.799  0.2858  1.2829  0.3604
  188SOL    HW3  519   1.466   2.386   0.902  0.2412  1.3389  0.2891
  188SOL    MW4  520   1.482   2.350   0.824  0.1195  0.0249  0.8394
  189SOL     OW  521   3.053   3.808   3.427  0.0346  0.2834  0.3079
  189SOL    HW2  522   3.030   3.853   3.345  1.6619  2.1769  0.8181
  189SOL    HW3  523   2.969   3.787   3.467 -0.8452 -1.3301 -2.1071
  189SOL    MW4  524   3.039   3.811   3.421  0.1332  0.3204  0.0566
  190SOL     OW  525   4.953   5.292   1.001  0.7784 -0.1135  0.0985
  190SOL    HW2  526   5.017   5.345   1.049  2.0994 -1.2280 -0.3744
  190SOL    HW3  527   5.000   5.211   0.980 -1.0362 -1.2922  0.4095
  190SOL    MW4  528   4.968   5.288   1.005  0.7133 -0.4161  0.0771
  191SOL     OW  529   1.666   0.448   2.548 -0.4183  0.0205  0.3883
  191SOL    HW2  530   1.710   0.461   2.464  0.2743 -1.2777  0.5264
  191SOL    HW3  531   1.706   0.513   2.606  1.1489 -0.9142  0.4211
  191SOL    MW4  532   1.677   0.459   2.545 -0.1202 -0.2741  0.4108
  192SOL     OW  533   5.364   4.247   4.238 -0.2180  0.3395 -0.2603
  192SOL    HW2  534   5.388   4.307   4.309  0.8963  0.8482 -1.0389
  192SOL    HW3  535   5.402   4.163   4.264 -0.7770  0.2405  0.2708
  192SOL    MW4  536   5.372   4.244   4.251 -0.1447  0.3935 -0.2929
  193SOL     OW  537   6.373   5.005   2.029  0.0687  0.0975  0.9882
  193SOL    HW2  538   6.424   5.085   2.018 -0.4499  0.3006  0.0135
  193SOL    HW3  539   6.435   4.942   2.065  1.5205 -0.1844 -1.8101
  193SOL    MW4  540   6.388   5.007   2.033  0.1918  0.0871  0.4904
  194SOL     OW  541   0.995   4.002   0.132 -0.1421  0.2738  0.1797
  194SOL    HW2  542   0.958   4.090   0.134 -1.8597 -0.3798 -0.4731
  194SOL    HW3  543   0.921   3.946   0.111  0.5442 -1.5471  2.2522
  194SOL    MW4  544   0.980   4.006   0.129 -0.2781 -0.0527  0.3670
  195SOL     OW  545   4.079   3.338   5.095 -0.1015 -0.3489  0.2724
  195SOL    HW2  546   4.115   3.337   5.006  0.8887  0.3242  0.6547
  195SOL    HW3  547   4.127   3.269   5.141 -0.3397 -0.4371  0.3881
  195SOL    MW4  548   4.090   3.329   5.089 -0.0023 -0.2717  0.3381
  196SOL     OW  549   4.576   6.045   0.047  0.2541 -0.0439 -0.0396
  196SOL    HW2  550   4.558   6.112  -0.019  0.9237  1.3334  1.1041
  196SOL    HW3  551   4.490   6.026   0.085  0.3339  2.4166  1.6278
  196SOL    MW4  552   4.562   6.051   0.044  0.3530  0.4625  0.3313
  197SOL     OW  553   4.285   1.208   0.044  0.3215  0.9753 -0.1037
  197SOL    HW2  554   4.256   1.289   0.086 -0.8909  0.7911 -0.5499
  197SOL    HW3  555   4.253   1.215  -0.046  0.2188  0.0065 -0.1511
  197SOL    MW4  556   4.277   1.220   0.037  0.1480  0.8232 -0.1688
  198SOL     OW  557   0.587   5.647   2.365  0.1249 -0.2241  0.1412
  198SOL    HW2  558   0.504   5.687   2.341  0.6354 -0.3499 -2.0241
  198SOL    HW3  559   0.633   5.715   2.414 -0.6420  0.3762  0.0440
  198SOL    MW4  560   0.582   5.661   2.368  0.0911 -0.1615 -0.1573
  199SOL     OW  561   4.536   6.006   3.477  0.3193  0.8238 -0.1835
  199SOL    HW2  562   4.527   6.037   3.387  0.2182  0.6961 -0.2187
  199SOL    HW3  563   4.630   5.997   3.490  0.3091  0.1689 -0.5144
  199SOL    MW4  564   4.547   6.009   3.466  0.3046  0.7205 -0.2318
  200SOL     OW  565   3.932   5.757   6.174  0.2338  0.1875  0.3758
  200SOL    HW2  566   3.916   5.852   6.172 -1.1426 -0.0235 -1.1456
  200SOL    HW3  567   3.992   5.741   6.101 -1.0679 -0.3096 -0.6267
  200SOL    MW4  568   3.938   5.768   6.164 -0.1195  0.0941  0.0428
  201SOL     OW  569   6.084   2.323   1.284  0.1936  0.0469 -0.1364
  201SOL    HW2  570   6.143   2.323   1.209  0.2410 -1.2174 -0.1290
  201SOL    HW3  571   6.023   2.395   1.267  1.4376  1.0697 -0.3723
  201SOL    MW4  572   6.083   2.332   1.272  0.3640  0.0151 -0.1665
  202SOL     OW  573   2.121   1.192   5.505 -0.3750  0.0330 -0.3814
  202SOL    HW2  574   2.163   1.236   5.431  0.1187  1.0921  0.4935
  202SOL    HW3  575   2.104   1.262   5.568 -0.8439 -0.8340  0.4911
  202SOL    MW4  576   2.124   1.207   5.504 -0.3717  0.0584 -0.1509
  203SOL     OW  577   1.938   1.867   1.673  0.1653  0.1614 -0.4469
  203SOL    HW2  578   2.026   1.831   1.680 -0.1390 -0.4552  0.4967
  203SOL    HW3  579   1.950   1.960   1.655  0.9883 -0.1638 -1.6831
  203SOL    MW4  580   1.951   1.874   1.671  0.2338  0.0371 -0.4855
  204SOL     OW  581   0.387   1.864   2.251  0.3279  0.0529 -0.4701
  204SOL    HW2  582   0.306   1.908   2.276 -1.1858 -1.7702 -1.9026
  204SOL    HW3  583   0.390   1.872   2.156  1.5377 -0.4250 -0.4873
  204SOL    MW4  584   0.377   1.871   2.242  0.2878 -0.2507 -0.6614
  205SOL     OW  585   2.699   3.950   0.979  0.4092  0.4685  0.1512
  205SOL    HW2  586   2.623   3.945   1.037  0.9652  2.4777  1.1272
  205SOL    HW3  587   2.713   4.044   0.965  1.4013  0.0862 -1.7905
  205SOL    MW4  588   2.691   3.962   0.984  0.6135  0.6831  0.0238
  206SOL     OW  589   2.260   3.349   5.820 -0.5905  0.5531  0.1749
  206SOL    HW2  590   2.221   3.267   5.788 -1.4433  0.2653  1.8292
  206SOL    HW3  591   2.335   3.320   5.871  1.3192  1.0561 -2.1917
  206SOL    MW4  592   2.264   3.334   5.822 -0.4511  0.5815  0.0809
  207SOL     OW  593   2.679   0.618   0.678  0.1265 -0.0014  0.2028
  207SOL    HW2  594   2.708   0.704   0.650  0.6044  0.1420  1.1222
  207SOL    HW3  595   2.627   0.634   0.757  0.4487 -0.5700  0.5419
  207SOL    MW4  596   2.676   0.631   0.685  0.2320 -0.0575  0.3688
  208SOL     OW  597   3.143   5.485   1.823 -0.5802 -0.4267 -0.0630
  208SOL    HW2  598   3.131   5.542   1.898 -1.9706 -0.7439 -0.0175
  208SOL    HW3  599   3.208   5.420   1.851 -0.4890 -0.0621  0.5740
  208SOL    MW4  600   3.150   5.484   1.836 -0.7516 -0.4205  0.0271
  209SOL     OW  601   6.014   3.301   4.579  0.7099 -0.0719  0.5592
  209SOL    HW2  602   6.040   3.210   4.569 -0.3261 -0.3088 -0.1293
  209SOL    HW3  603   5.921   3.302   4.558  0.5211  1.0171  1.3372
  209SOL    MW4  604   6.005   3.289   4.575  0.5483  0.0405  0.5710
  210SOL     OW  605   5.225   0.539   2.819  0.0921  0.0374  0.1174
  210SOL    HW2  606   5.289   0.516   2.752 -0.3883 -0.4431 -0.1898
  210SOL    HW3  607   5.227   0.465   2.880 -2.4117 -1.6279 -1.5765
  210SOL    MW4  608   5.233   0.526   2.818 -0.3016 -0.2457 -0.1467
  211SOL     OW  609   1.401   5.453   0.819  0.0670  0.5838 -0.0943
  211SOL    HW2  610   1.448   5.406   0.750 -1.5069  1.1794 -1.6684
  211SOL    HW3  611   1.437   5.419   0.901  1.0759 -1.1448 -1.1948
  211SOL    MW4  612   1.412   5.442   0.821 -0.0076  0.4343 -0.4472
  212SOL     OW  613   5.664   5.582   0.889  0.6854 -0.1965  0.8147
  212SOL    HW2  614   5.745   5.633   0.894  1.4179 -1.2030 -0.2508
  212SOL    HW3  615   5.691   5.497   0.853 -0.6362 -1.0340  1.6958
  212SOL    MW4  616   5.678   5.577   0.885  0.6077 -0.4398  0.7904
  213SOL     OW  617   5.313   3.823   6.375  0.5279 -0.5520  0.2630
  213SOL    HW2  618   5.406   3.812   6.356  0.5860  0.3446 -0.0403
  213SOL    HW3  619   5.310   3.866   6.460  0.4665  0.8811 -0.4234
  213SOL    MW4  620   5.325   3.828   6.384  0.5275 -0.2446  0.1324
  214SOL     OW  621   5.218   3.658   3.732 -0.4770  0.1730  0.5811
  214SOL    HW2  622   5.308   3.631   3.716 -0.8258 -0.5724 -0.2219
  214SOL    HW3  623   5.166   3.581   3.709 -1.2637  0.2707  1.9346
  214SOL    MW4  624   5.223   3.644   3.727 -0.6269  0.0875  0.6537
  215SOL     OW  625   1.611   4.777   3.224 -0.2599 -0.0176  0.0482
  215SOL    HW2  626   1.664   4.764   3.302  0.0398 -0.2354 -0.1856
  215SOL    HW3  627   1.648   4.716   3.160 -0.7051 -0.0732 -0.1611
  215SOL    MW4  628   1.622   4.767   3.226 -0.2791 -0.0536 -0.0102
  216SOL     OW  629   2.023   4.944   4.357 -0.1020  1.4614  0.7674
  216SOL    HW2  630   2.056   5.010   4.296 -1.3690  2.0870  0.7056
  216SOL    HW3  631   2.035   4.861   4.312  0.4225  1.7636  0.3357
  216SOL    MW4  632   2.029   4.942   4.343 -0.2000  1.5838  0.7023
  217SOL     OW  633   1.937   3.548   1.938  0.3039  0.1599  0.1130
  217SOL    HW2  634   1.967   3.639   1.937 -0.6924  0.5564  1.7868
  217SOL    HW3  635   1.849   3.553   1.975  0.0681 -1.4562 -0.1681
  217SOL    MW4  636   1.929   3.561   1.942  0.1413 -0.0010  0.2967
  218SOL     OW  637   0.599   4.919   2.169 -0.2845  0.7343 -0.1923
  218SOL    HW2  638   0.516   4.889   2.206  0.5149 -0.4650  0.6930
  218SOL    HW3  639   0.577   4.945   2.079 -1.1399 -2.1473 -0.9136
  218SOL    MW4  640   0.585   4.918   2.162 -0.2918  0.1959 -0.1707
  219SOL     OW  641   1.450   5.703   0.649 -0.1093 -0.3693  0.2674
  219SOL    HW2  642   1.427   5.623   0.696  0.3622 -0.3120  0.5939
  219SOL    HW3  643   1.500   5.672   0.573 -2.0835 -0.5869 -1.0333
  219SOL    MW4  644   1.454   5.688   0.645 -0.3076 -0.3905  0.1388
  220SOL     OW  645   4.316   5.585   6.178 -0.0455 -0.4760 -0.2820
  220SOL    HW2  646   4.328   5.640   6.101  0.1762  0.5776  0.4773
  220SOL    HW3  647   4.389   5.524   6.177  0.1297 -0.2573 -0.7298
  220SOL    MW4  648   4.327   5.584   6.168  0.0069 -0.3082 -0.2409
  221SOL     OW  649   0.278   0.852   2.195 -0.2065  0.2137 -0.7403
  221SOL    HW2  650   0.191   0.823   2.225 -0.0858  0.7475  0.1682
  221SOL    HW3  651   0.338   0.819   2.262  0.1074  1.1742 -0.5361
  221SOL    MW4  652   0.274   0.844   2.208 -0.1492  0.4109 -0.5935
  222SOL     OW  653   1.971   0.803   3.962  0.4149 -0.0109  0.5673
  222SOL    HW2  654   2.007   0.884   3.999  0.0976 -0.0830  1.0551
  222SOL    HW3  655   2.035   0.774   3.898  1.2474 -0.1650  1.4469
  222SOL    MW4  656   1.984   0.810   3.959  0.4829 -0.0407  0.7477
  223SOL     OW  657   1.791   2.643   5.594 -0.6363 -0.7309 -0.0538
  223SOL    HW2  658   1.795   2.605   5.682  0.6959 -0.5103 -0.0043
  223SOL    HW3  659   1.765   2.570   5.538  0.4314 -1.3714  0.2562
  223SOL    MW4  660   1.788   2.628   5.599 -0.3197 -0.7863 -0.0064
  224SOL     OW  661   4.172   6.026   2.570  0.0329  0.0829 -0.2993
  224SOL    HW2  662   4.145   6.035   2.479 -2.4144 -0.8837  0.2476
  224SOL    HW3  663   4.091   6.009   2.618  1.2356  0.4955  2.0765
  224SOL    MW4  664   4.158   6.025   2.564 -0.1313  0.0098  0.0863
  225SOL     OW  665   6.389   6.310   4.338 -0.2616 -0.2147  0.1596
  225SOL    HW2  666   6.443   6.312   4.417  2.4634  0.3432 -1.5840
  225SOL    HW3  667   6.311   6.261   4.363 -0.0931  0.9804  3.4984
  225SOL    MW4  668   6.386   6.304   4.352  0.1202  0.0166  0.3700
  226SOL     OW  669   1.671   1.107   6.200 -0.2570 -0.7501 -0.7665
  226SOL    HW2  670   1.707   1.059   6.275 -0.1933 -1.5391 -1.2913
  226SOL    HW3  671   1.717   1.191   6.201 -0.5627 -0.5846  0.3206
  226SOL    MW4  672   1.682   1.112   6.210 -0.2889 -0.8324 -0.6923
  227SOL     OW  673   2.865   2.130   6.414  0.4610  0.2358 -0.1507
  227SOL    HW2  674   2.945   2.092   6.377 -0.3793 -1.2231 -0.5109
  227SOL    HW3  675   2.824   2.176   6.341  0.0411 -0.5894 -0.4460
  227SOL    MW4  676   2.870   2.131   6.399  0.2947 -0.0656 -0.2372
  228SOL     OW  677   2.750   3.921   2.162 -0.0817 -0.5017 -0.1605
  228SOL    HW2  678   2.695   3.856   2.119 -1.3427  1.3400 -1.4864
  228SOL    HW3  679   2.691   3.966   2.223  1.6067 -2.9285  3.6406
  228SOL    MW4  680   2.735   3.919   2.164 -0.0253 -0.5789  0.1661
  229SOL     OW  681   0.709   0.140   1.215 -0.1653  0.0836  0.9216
  229SOL    HW2  682   0.707   0.044   1.219  0.4570  0.0461  0.4837
  229SOL    HW3  683   0.658   0.169   1.291 -0.2101 -0.5905  1.1511
  229SOL    MW4  684   0.702   0.131   1.225 -0.0891 -0.0103  0.8941
  230SOL     OW  685   4.625   1.882   0.219  0.6960 -0.7520  0.0042
  230SOL    HW2  686   4.547   1.855   0.171  0.2618 -0.4873  0.5548
  230SOL    HW3  687   4.594   1.901   0.307  1.1180  0.7219 -0.1383
  230SOL    MW4  688   4.610   1.881   0.224  0.6944 -0.5226  0.0580
  231SOL     OW  689   1.152   3.292   4.687  0.0662  0.2833  0.4260
  231SOL    HW2  690   1.243   3.270   4.669 -0.1771  0.3184 -0.9541
  231SOL    HW3  691   1.103   3.216   4.655 -0.3865  0.1772  1.3413
  231SOL    MW4  692   1.157   3.279   4.680 -0.0256  0.2739  0.3647
  232SOL     OW  693   2.834   6.281   5.397 -0.7371 -0.0740 -0.2093
  232SOL    HW2  694   2.825   6.376   5.404  1.0732 -0.0148  3.1938
  232SOL    HW3  695   2.924   6.264   5.424 -0.3500 -2.6791 -2.7040
  232SOL    MW4  696   2.845   6.292   5.401 -0.4472 -0.4099 -0.0895
  233SOL     OW  697   4.953   3.909   2.497 -0.2206 -0.5598 -0.0810
  233SOL    HW2  698   4.999   3.985   2.534 -0.8931  0.3002 -0.9387
  233SOL    HW3  699   4.961   3.841   2.563  2.8459 -0.6902 -0.4261
  233SOL    MW4  700   4.960   3.910   2.510  0.0952 -0.4636 -0.2397
  234SOL     OW  701   2.983   6.162   1.025  0.3265  0.1072 -0.1635
  234SOL    HW2  702   3.026   6.215   0.959  1.2651 -2.4265 -1.7333
  234SOL    HW3  703   3.053   6.108   1.062 -0.1000  1.5936  3.2072
  234SOL    MW4  704   2.998   6.162   1.021  0.3941 -0.0310  0.0741
  235SOL     OW  705   2.829   3.454   2.443 -0.0379  0.2632 -0.7074
  235SOL    HW2  706   2.917   3.416   2.437 -0.0360 -0.2598  1.6192
  235SOL    HW3  707   2.832   3.531   2.387  1.8540  0.1694 -0.8000
  235SOL    MW4  708   2.841   3.459   2.435  0.2119  0.1818 -0.4126
  236SOL     OW  709   0.903   1.147   1.127 -0.2782  0.2463  0.0430
  236SOL    HW2  710   0.903   1.090   1.050 -0.6627 -0.6938  0.7089
  236SOL    HW3  711   0.889   1.087   1.201 -2.6821  1.3890  0.6207
  236SOL    MW4  712   0.901   1.132   1.127 -0.6461  0.2731  0.2071
  237SOL     OW  713   5.612   0.398   4.897  0.2839 -0.1314 -0.2875
  237SOL    HW2  714   5.696   0.442   4.908 -0.9126  2.6967 -1.5447
  237SOL    HW3  715   5.605   0.382   4.802 -0.5080 -0.4906 -0.1794
  237SOL    MW4  716   5.622   0.402   4.886  0.0215  0.1943 -0.4391
  238SOL     OW  717   0.083   5.383   4.284 -0.0140  0.1105  0.2174
  238SOL    HW2  718   0.155   5.422   4.334 -0.5511  1.8316 -0.2657
  238SOL    HW3  719   0.014   5.368   4.349 -0.4225  1.6156  0.1810
  238SOL    MW4  720   0.083   5.386   4.299 -0.1387  0.5361  0.1488
  239SOL     OW  721   6.354   5.935   3.809  0.0880  0.2766  0.6075
  239SOL    HW2  722   6.323   6.023   3.786 -0.3542 -0.1208 -0.3934
  239SOL    HW3  723   6.445   5.948   3.836  0.3387  0.9245 -0.4689
  239SOL    MW4  724   6.362   5.948   3.810  0.0627  0.3097  0.3334
  240SOL     OW  725   2.686   6.005   6.130 -0.0171 -0.6380 -0.2162
  240SOL    HW2  726   2.750   5.941   6.161 -1.1277 -1.5367  0.3024
  240SOL    HW3  727   2.630   5.956   6.070 -3.0702 -1.2526  2.7840
  240SOL    MW4  728   2.687   5.990   6.127 -0.5665 -0.8376  0.2480
  241SOL     OW  729   3.768   4.621   4.129  0.1386  0.0005 -0.0392
  241SOL    HW2  730   3.694   4.567   4.101  0.6567  0.2285 -2.0436
  241SOL    HW3  731   3.838   4.558   4.147  0.5259 -0.0982 -1.6904
  241SOL    MW4  732   3.768   4.606   4.127  0.2581  0.0176 -0.5215
  242SOL     OW  733   6.375   4.812   2.737 -0.2310  0.6016  0.0129
  242SOL    HW2  734   6.403   4.868   2.664 -0.3746  0.1921 -0.3593
  242SOL    HW3  735   6.288   4.781   2.712  0.3205 -0.7201 -0.3328
  242SOL    MW4  736   6.367   4.816   2.724 -0.1772  0.3732 -0.0818
  243SOL     OW  737   2.767   3.111   4.403  0.0025 -0.0527 -0.5617
  243SOL    HW2  738   2.719   3.086   4.482  1.1563 -0.0782  0.1591
  243SOL    HW3  739   2.747   3.042   4.339 -2.8068  1.1551 -1.1323
  243SOL    MW4  740   2.758   3.098   4.405 -0.2159  0.1033 -0.5419
  244SOL     OW  741   6.022   1.516   2.467  0.0348 -0.1953 -0.0047
  244SOL    HW2  742   6.078   1.569   2.523  0.3470  0.4030 -0.8545
  244SOL    HW3  743   6.048   1.540   2.378  0.7493 -2.3786 -0.4392
  244SOL    MW4  744   6.033   1.526   2.463  0.1703 -0.4044 -0.1742
  245SOL     OW  745   4.572   5.900   1.873  0.2663 -0.4930 -0.8402
  245SOL    HW2  746   4.612   5.866   1.953  2.0695  0.2150 -1.3853
  245SOL    HW3  747   4.551   5.822   1.822  1.9883 -0.9222 -0.9788
  245SOL    MW4  748   4.575   5.886   1.877  0.7314 -0.4562 -0.9304
  246SOL     OW  749   3.644   4.407   2.228  0.3168  0.2713  0.1250
  246SOL    HW2  750   3.654   4.324   2.182  2.1292  1.0526 -1.0254
  246SOL    HW3  751   3.597   4.464   2.166 -0.4440  0.2841  0.6946
  246SOL    MW4  752   3.639   4.404   2.213  0.4555  0.3761  0.0484
  247SOL     OW  753   4.895   1.234   3.604 -0.4902  0.2937  0.3809
  247SOL    HW2  754   4.867   1.195   3.687  0.1234 -0.3540  0.2889
  247SOL    HW3  755   4.965   1.294   3.629  0.9710 -1.2613  0.1509
  247SOL    MW4  756   4.900   1.237   3.619 -0.2164  0.0031  0.3384
  248SOL     OW  757   5.655   0.145   4.954 -0.5291  0.2238 -0.1140
  248SOL    HW2  758   5.639   0.240   4.951 -0.2646  0.4152  2.4829
  248SOL    HW3  759   5.750   0.137   4.945 -0.3334  0.3871  1.5437
  248SOL    MW4  760   5.665   0.157   4.953 -0.4683  0.2706  0.4473
  249SOL     OW  761   0.161   1.404   2.627  0.1750 -0.1060  0.4368
  249SOL    HW2  762   0.139   1.313   2.648  0.3405 -0.0635  0.8025
  249SOL    HW3  763   0.192   1.441   2.710 -0.9352  0.5995  0.5620
  249SOL    MW4  764   0.162   1.397   2.641  0.0504 -0.0073  0.5016
  250SOL     OW  765   0.041   4.889   0.457  0.0131 -0.4131  0.3726
  250SOL    HW2  766   0.025   4.795   0.456 -2.1116 -0.0966  0.6709
  250SOL    HW3  767   0.074   4.907   0.545 -1.4661 -0.6214  0.9847
  250SOL    MW4  768   0.044   4.879   0.468 -0.4624 -0.3988  0.4927
  251SOL     OW  769   1.002   0.373   0.881 -0.1103  0.0692  0.1544
  251SOL    HW2  770   1.063   0.446   0.892  1.0618 -0.5308 -1.7234
  251SOL    HW3  771   0.933   0.389   0.945  1.0436  1.8167  1.0529
  251SOL    MW4  772   1.001   0.384   0.891  0.1966  0.2206  0.0252
  252SOL     OW  773   2.012   5.672   5.409  0.1256 -0.0731 -0.5567
  252SOL    HW2  774   1.975   5.652   5.494  2.5565 -0.3563  0.5166
  252SOL    HW3  775   1.958   5.622   5.347 -1.1866 -0.5085  0.8780
  252SOL    MW4  776   2.000   5.662   5.412  0.2732 -0.1680 -0.2258
  253SOL     OW  777   1.180   6.245   1.550  0.4170  0.2169  0.3862
  253SOL    HW2  778   1.180   6.336   1.581  0.3431  0.4871 -0.3968
  253SOL    HW3  779   1.239   6.200   1.611  0.6780  0.8458  0.6136
  253SOL    MW4  780   1.188   6.251   1.562  0.4417  0.3355  0.3129
  254SOL     OW  781   1.997   1.782   4.653  0.3234 -0.1627 -0.6188
  254SOL    HW2  782   1.909   1.745   4.643  0.1098  0.0622  0.3267
  254SOL    HW3  783   1.982   1.873   4.679  0.7521 -0.7770  2.1452
  254SOL    MW4  784   1.983   1.789   4.655  0.3518 -0.2141 -0.1294
  255SOL     OW  785   5.212   3.559   1.538  0.2749  0.2668  0.0632
  255SOL    HW2  786   5.237   3.523   1.453  1.2070  0.6289  0.1688
  255SOL    HW3  787   5.293   3.595   1.574 -0.4885  1.9400  0.2169
  255SOL    MW4  788   5.226   3.559   1.532  0.2972  0.5353  0.0974
  256SOL     OW  789   3.021   3.872   5.346 -0.6675  0.1112 -0.9831
  256SOL    HW2  790   3.006   3.879   5.440 -1.4528 -2.2445 -0.8472
  256SOL    HW3  791   3.073   3.791   5.336  0.1461  0.7761 -2.5198
  256SOL    MW4  792   3.026   3.862   5.357 -0.6638 -0.1119 -1.1679
  257SOL     OW  793   4.469   4.909   3.946  0.2842 -0.1243 -0.1383
  257SOL    HW2  794   4.454   4.824   3.905  1.0847  0.1743 -1.0832
  257SOL    HW3  795   4.543   4.895   4.005  0.2258 -0.1504 -0.0716
  257SOL    MW4  796   4.477   4.896   3.948  0.3821 -0.0883 -0.2542
  258SOL     OW  797   3.554   6.455   2.412  0.3045  0.1045 -0.3555
  258SOL    HW2  798   3.516   6.367   2.422 -2.2149  0.8237 -2.4068
  258SOL    HW3  799   3.552   6.492   2.500 -0.2530 -1.2734  0.2454
  258SOL    MW4  800   3.549   6.448   2.425 -0.1015  0.0176 -0.5468
  259SOL     OW  801   1.270   2.308   5.259  0.3030 -1.2650 -0.5785
  259SOL    HW2  802   1.323   2.242   5.214  1.3921 -0.6596 -0.2310
  259SOL    HW3  803   1.273   2.384   5.201  1.3883 -0.6095  0.2997
  259SOL    MW4  804   1.278   2.309   5.245  0.5899 -1.0986 -0.4168
  260SOL     OW  805   1.500   0.188   0.240  0.1494  0.8019 -0.1612
  260SOL    HW2  806   1.448   0.164   0.163  0.5686  0.7467 -0.4314
  260SOL    HW3  807   1.589   0.162   0.217  0.1462  0.0146  0.6674
  260SOL    MW4  808   1.505   0.181   0.227  0.2043  0.6907 -0.0875
  261SOL     OW  809   3.725   0.702   3.118  0.1639  0.0809  0.4879
  261SOL    HW2  810   3.788   0.756   3.166 -0.8887  0.5547  1.3776
  261SOL    HW3  811   3.772   0.676   3.038  0.7413  2.2415  0.0523
  261SOL    MW4  812   3.740   0.706   3.114  0.1012  0.4285  0.5478
  262SOL     OW  813   3.507   2.504   0.753 -0.0604  0.0304  0.1497
  262SOL    HW2  814   3.544   2.587   0.723 -0.6442  0.4209  0.5083
  262SOL    HW3  815   3.574   2.439   0.730  0.5580  0.6408  0.1968
  262SOL    MW4  816   3.521   2.506   0.746 -0.0558  0.1624  0.2032
  263SOL     OW  817   6.138   1.353   4.459 -0.3435  0.5272 -0.5122
  263SOL    HW2  818   6.047   1.358   4.430 -0.1811  0.1203 -1.1033
  263SOL    HW3  819   6.156   1.441   4.494 -0.6194  0.9562 -1.4193
  263SOL    MW4  820   6.128   1.365   4.460 -0.3585  0.5301 -0.7099
  264SOL     OW  821   5.565   4.264   6.292 -0.0886  0.1897 -0.4628
  264SOL    HW2  822   5.648   4.312   6.287 -0.3540  0.5850 -1.2992
  264SOL    HW3  823   5.498   4.330   6.276 -0.6721  0.1317  1.4884
  264SOL    MW4  824   5.567   4.279   6.290 -0.2006  0.2342 -0.3158
  265SOL     OW  825   2.932   2.954   4.756  0.3248 -0.0289  0.1986
  265SOL    HW2  826   2.867   2.919   4.817 -0.9291  1.8011  0.0102
  265SOL    HW3  827   2.952   2.882   4.697 -2.7312 -0.2816 -0.6837
  265SOL    MW4  828   2.926   2.940   4.756 -0.2438  0.1792  0.0573
  266SOL     OW  829   5.764   4.903   2.550 -0.3239 -0.1293 -0.5534
  266SOL    HW2  830   5.776   4.998   2.555 -1.4065 -0.0115  0.3393
  266SOL    HW3  831   5.803   4.878   2.467 -0.9813  1.2572 -1.3079
  266SOL    MW4  832   5.771   4.912   2.540 -0.5535  0.0692 -0.5352
  267SOL     OW  833   5.860   1.125   1.505 -0.2345 -0.0585 -0.0994
  267SOL    HW2  834   5.808   1.196   1.540  2.5367  1.3555  1.4523
  267SOL    HW3  835   5.854   1.136   1.410 -1.9051  0.6235  0.0509
  267SOL    MW4  836   5.852   1.136   1.497 -0.0893  0.2181  0.1251
  268SOL     OW  837   1.739   1.234   3.757 -0.3355  0.4040 -0.2395
  268SOL    HW2  838   1.660   1.258   3.708  0.4517 -0.4175 -2.0030
  268SOL    HW3  839   1.718   1.255   3.848 -2.7977 -0.3021 -0.5673
  268SOL    MW4  840   1.726   1.240   3.763 -0.5565  0.2024 -0.5154
  269SOL     OW  841   5.136   5.682   2.360  0.1455  0.5757 -0.3172
  269SOL    HW2  842   5.105   5.765   2.396  0.3982  0.1589  0.9061
  269SOL    HW3  843   5.142   5.623   2.436  2.0523  0.0651 -0.8108
  269SOL    MW4  844   5.132   5.685   2.375  0.4304  0.4534 -0.2210
  270SOL     OW  845   1.941   3.306   2.785 -0.2271 -0.7547  0.4440
  270SOL    HW2  846   1.990   3.373   2.737  0.5917 -1.7142 -0.0887
  270SOL    HW3  847   1.861   3.350   2.812 -0.8074 -0.2215 -1.9606
  270SOL    MW4  848   1.937   3.321   2.782 -0.1956 -0.8110  0.0565
  271SOL     OW  849   4.711   5.412   3.174 -0.6140  0.3826 -0.5886
  271SOL    HW2  850   4.660   5.368   3.107 -2.7124  0.2582  0.9802
  271SOL    HW3  851   4.646   5.440   3.239  1.2914  0.4185  1.4253
  271SOL    MW4  852   4.695   5.410   3.174 -0.6394  0.3709 -0.1159
  272SOL     OW  853   0.904   4.038   4.180  0.5893 -0.1943  0.4001
  272SOL    HW2  854   0.899   4.134   4.180  1.2026 -0.1553  0.9477
  272SOL    HW3  855   0.983   4.018   4.230  1.4161 -0.9584 -1.1747
  272SOL    MW4  856   0.914   4.048   4.187  0.7793 -0.2900  0.2645
  273SOL     OW  857   3.169   0.181   3.521  0.1805  0.2094  0.1163
  273SOL    HW2  858   3.232   0.238   3.476  0.2649 -0.4734 -0.6507
  273SOL    HW3  859   3.088   0.191   3.470  0.3300 -0.7253 -0.3231
  273SOL    MW4  860   3.166   0.190   3.508  0.2114 -0.0040 -0.0429
  274SOL     OW  861   2.175   4.057   3.132  0.6164  0.2535 -0.1068
  274SOL    HW2  862   2.101   4.104   3.172  0.8954 -0.5148  1.4026
  274SOL    HW3  863   2.174   4.084   3.041  0.5615  2.9573  0.5941
  274SOL    MW4  864   2.165   4.067   3.126  0.6460  0.5089  0.1849
  275SOL     OW  865   2.150   0.630   0.265 -0.2518  0.1461 -0.1412
  275SOL    HW2  866   2.092   0.553   0.270  1.3978 -1.2137 -0.9983
  275SOL    HW3  867   2.091   0.704   0.280 -2.0012 -1.2304  0.2531
  275SOL    MW4  868   2.134   0.629   0.267 -0.2649 -0.2149 -0.2022
  276SOL     OW  869   4.828   2.660   4.855 -0.5174  0.1460 -0.4150
  276SOL    HW2  870   4.838   2.744   4.899 -1.7705 -0.5870  1.3886
  276SOL    HW3  871   4.860   2.596   4.918 -0.3360 -0.8120 -1.4403
  276SOL    MW4  872   4.834   2.663   4.869 -0.6588 -0.0771 -0.3123
  277SOL     OW  873   4.443   1.290   6.018  0.0335 -0.0706 -0.0368
  277SOL    HW2  874   4.515   1.253   6.070 -0.7238  0.2174  1.2769
  277SOL    HW3  875   4.386   1.215   6.000 -0.2597  0.0176  0.5090
  277SOL    MW4  876   4.445   1.275   6.023 -0.1051 -0.0209  0.2085
  278SOL     OW  877   5.510   5.389   0.645 -0.1172 -0.8212 -0.2889
  278SOL    HW2  878   5.493   5.481   0.623  2.0801 -0.0632  0.8374
  278SOL    HW3  879   5.423   5.350   0.655 -1.1082  1.0591 -1.0572
  278SOL    MW4  880   5.496   5.396   0.644  0.0419 -0.4731 -0.2416
  279SOL     OW  881   6.133   4.075   0.084  0.1440 -0.3077  0.1081
  279SOL    HW2  882   6.067   4.010   0.058  0.1101  0.1897 -1.0718
  279SOL    HW3  883   6.085   4.158   0.088  0.5587 -0.0560 -0.1090
  279SOL    MW4  884   6.118   4.077   0.081  0.1943 -0.2089 -0.0762
  280SOL     OW  885   4.424   3.502   3.312  0.3932  0.1657  0.2799
  280SOL    HW2  886   4.379   3.417   3.309  1.7742 -0.5868 -1.7325
  280SOL    HW3  887   4.501   3.486   3.366  1.2745 -0.2677 -1.0365
  280SOL    MW4  888   4.428   3.489   3.319  0.6917  0.0093 -0.1593
  281SOL     OW  889   6.226   5.531   1.777  0.1375  0.0418  0.1929
  281SOL    HW2  890   6.235   5.602   1.840 -1.1996 -1.3270  2.0435
  281SOL    HW3  891   6.154   5.477   1.811  0.3859 -1.6253 -1.6978
  281SOL    MW4  892   6.217   5.533   1.790 -0.0061 -0.3588  0.1876
  282SOL     OW  893   3.276   2.970   3.340  0.3485  0.0967 -0.4205
  282SOL    HW2  894   3.223   3.034   3.387 -1.0666 -1.3238  0.0147
  282SOL    HW3  895   3.367   2.996   3.357 -0.1665  0.8963  1.2813
  282SOL    MW4  896   3.281   2.982   3.348  0.0938  0.0148 -0.1386
  283SOL     OW  897   5.940   0.414   1.735 -0.4699  0.3578  0.0688
  283SOL    HW2  898   6.015   0.376   1.689 -0.4980 -1.0423  1.1440
  283SOL    HW3  899   5.975   0.492   1.777 -0.7003  2.4687 -3.2426
  283SOL    MW4  900   5.955   0.420   1.734 -0.5040  0.4516 -0.2263
  284SOL     OW  901   3.423   6.097   2.717  0.5275 -0.0546 -0.1803
  284SOL    HW2  902   3.341   6.075   2.762  0.4354  0.8320  0.1131
  284SOL    HW3  903   3.473   6.016   2.717 -1.0676 -1.0988 -1.9585
  284SOL    MW4  904   3.419   6.084   2.723  0.3049 -0.0754 -0.3762
  285SOL     OW  905   1.055   5.966   2.744  0.4918 -0.1178  0.1480
  285SOL    HW2  906   1.069   5.901   2.675  2.1791 -1.2767  1.4866
  285SOL    HW3  907   1.143   5.987   2.775 -0.1103  1.7907  0.7013
  285SOL    MW4  908   1.069   5.960   2.739  0.6350 -0.0189  0.3976
  286SOL     OW  909   2.159   4.659   2.949 -0.0104  0.1637 -0.2178
  286SOL    HW2  910   2.079   4.623   2.987  0.7829 -1.0881  0.3248
  286SOL    HW3  911   2.182   4.598   2.878  1.8254 -0.9924  1.2634
  286SOL    MW4  912   2.152   4.646   2.944  0.3365 -0.1540  0.0492
  287SOL     OW  913   3.271   4.115   5.454  0.1868 -0.4695  0.1316
  287SOL    HW2  914   3.329   4.152   5.388 -0.9613 -0.1247 -0.7283
  287SOL    HW3  915   3.281   4.020   5.445  0.8644 -0.4144  0.2414
  287SOL    MW4  916   3.280   4.107   5.444  0.1247 -0.4168  0.0326
  288SOL     OW  917   3.155   2.896   0.348  0.4201  0.0493 -0.0513
  288SOL    HW2  918   3.231   2.954   0.344  0.0943  0.4905  0.0298
  288SOL    HW3  919   3.190   2.813   0.378  0.6896  0.5866  1.1904
  288SOL    MW4  920   3.169   2.893   0.351  0.4126  0.1784  0.1232
  289SOL     OW  921   2.827   0.118   5.438 -0.0170 -0.0705  0.1964
  289SOL    HW2  922   2.920   0.111   5.413  0.4111  0.4074  1.5795
  289SOL    HW3  923   2.786   0.164   5.364  0.4771 -1.7842 -1.2195
  289SOL    MW4  924   2.834   0.123   5.425  0.1047 -0.2335  0.1921
  290SOL     OW  925   2.145   4.733   0.523 -0.1333 -0.1906  0.0747
  290SOL    HW2  926   2.075   4.735   0.458 -1.0468  1.8783  1.0296
  290SOL    HW3  927   2.140   4.645   0.562 -0.5360 -0.9215 -1.5643
  290SOL    MW4  928   2.135   4.722   0.520 -0.3069 -0.0140 -0.0155
  291SOL     OW  929   0.272   4.046   0.974 -0.3026  0.2860 -0.3737
  291SOL    HW2  930   0.212   4.072   0.904 -1.8393 -0.9394  0.4354
  291SOL    HW3  931   0.248   4.102   1.047 -0.4418 -0.1879 -0.0551
  291SOL    MW4  932   0.261   4.057   0.974 -0.5237  0.0618 -0.2249
  292SOL     OW  933   2.996   2.293   3.647  0.1796 -0.0671 -0.4394
  292SOL    HW2  934   2.923   2.232   3.631 -1.5803  1.3239  1.7076
  292SOL    HW3  935   3.073   2.237   3.655 -0.9867 -1.7995 -0.6933
  292SOL    MW4  936   2.996   2.278   3.646 -0.2065 -0.1122 -0.1896
  293SOL     OW  937   2.935   4.470   0.059  0.0331 -0.2793 -0.3043
  293SOL    HW2  938   2.963   4.467   0.151 -0.7296 -0.0543 -0.0565
  293SOL    HW3  939   2.840   4.481   0.063  0.1153  0.8961 -1.1187
  293SOL    MW4  940   2.926   4.471   0.072 -0.0567 -0.0946 -0.3791
  294SOL     OW  941   1.763   0.651   4.845 -0.5653 -0.1560  0.0611
  294SOL    HW2  942   1.732   0.562   4.829  1.1501 -0.7826  0.0330
  294SOL    HW3  943   1.704   0.686   4.912 -1.8780 -0.9397 -0.6570
  294SOL    MW4  944   1.751   0.644   4.852 -0.5122 -0.3421 -0.0374
  295SOL     OW  945   5.003   5.989   5.022 -0.1320 -0.4550  0.4072
  295SOL    HW2  946   5.031   6.058   5.082 -0.5788 -1.2356  1.5442
  295SOL    HW3  947   4.913   6.012   4.999 -0.5872 -1.0985  1.4791
  295SOL    MW4  948   4.995   6.001   5.027 -0.2510 -0.6429  0.6986
  296SOL     OW  949   5.754   2.136   5.169  0.4310  0.3884  0.0294
  296SOL    HW2  950   5.789   2.049   5.187 -0.4477  0.3995  2.0918
  296SOL    HW3  951   5.709   2.161   5.250 -2.1209  1.4246 -1.5670
  296SOL    MW4  952   5.752   2.128   5.182 -0.0217  0.5266  0.0909
  297SOL     OW  953   1.211   4.089   6.396  0.4096 -0.1780 -0.1370
  297SOL    HW2  954   1.271   4.020   6.368 -1.0261 -1.3633 -0.4139
  297SOL    HW3  955   1.146   4.043   6.450 -1.2413  0.7273 -1.2814
  297SOL    MW4  956   1.211   4.073   6.400  0.0023 -0.2150 -0.3245
  298SOL     OW  957   6.054   4.840   4.166 -0.0002  0.0175  0.2118
  298SOL    HW2  958   6.072   4.753   4.202  2.9339  0.3574 -0.1935
  298SOL    HW3  959   6.065   4.830   4.072 -0.0471  0.7263  0.1259
  298SOL    MW4  960   6.058   4.827   4.159  0.3807  0.1559  0.1470
  299SOL     OW  961   0.742   3.040   4.800 -0.2152 -0.0497  0.2519
  299SOL    HW2  962   0.799   3.115   4.817 -1.2747  0.4015  2.0922
  299SOL    HW3  963   0.701   3.060   4.716  2.8329 -0.7701 -1.5442
  299SOL    MW4  964   0.744   3.053   4.791  0.0472 -0.0852  0.2577
  300SOL     OW  965   4.165   4.160   0.147 -0.0125  0.3883  0.3881
  300SOL    HW2  966   4.115   4.150   0.065 -0.5516  0.3000  0.7182
  300SOL    HW3  967   4.121   4.231   0.193  0.5001  0.6665  0.4483
  300SOL    MW4  968   4.152   4.168   0.142 -0.0160  0.4134  0.4396
  301SOL     OW  969   4.789   3.596   3.350 -0.2261 -0.2185 -0.3559
  301SOL    HW2  970   4.857   3.663   3.352 -1.0853  0.6904 -0.2874
  301SOL    HW3  971   4.724   3.626   3.414 -0.5549 -1.2046 -0.2111
  301SOL    MW4  972   4.789   3.609   3.359 -0.3829 -0.2287 -0.3277
  302SOL     OW  973   3.912   0.053   0.965  0.0652  0.1266 -0.1165
  302SOL    HW2  974   3.992   0.053   0.912 -0.1995 -0.7930 -0.5328
  302SOL    HW3  975   3.898   0.145   0.986  1.6326  0.2474  0.5714
  302SOL    MW4  976   3.921   0.065   0.961  0.2371  0.0212 -0.0807
  303SOL     OW  977   4.076   1.583   3.463  0.2106 -0.2548 -0.0305
  303SOL    HW2  978   4.142   1.653   3.458  0.8404 -0.7661  0.9031
  303SOL    HW3  979   4.079   1.542   3.376  0.1913  0.5514 -0.4247
  303SOL    MW4  980   4.085   1.587   3.451  0.2912 -0.2159  0.0407
  304SOL     OW  981   4.660   5.067   1.671  0.0473  0.1664  0.1061
  304SOL    HW2  982   4.739   5.054   1.724  0.0903  1.7184  0.4559
  304SOL    HW3  983   4.680   5.143   1.616 -1.1137  0.4209  0.0198
  304SOL    MW4  984   4.673   5.075   1.671 -0.1002  0.4048  0.1408
  305SOL     OW  985   1.807   3.443   6.158 -0.5704  0.1391  0.4664
  305SOL    HW2  986   1.810   3.348   6.155 -0.1444  0.1694 -0.1269
  305SOL    HW3  987   1.856   3.466   6.238  0.0147 -0.1066  0.1793
  305SOL    MW4  988   1.814   3.434   6.168 -0.4370  0.1107  0.3502
  306SOL     OW  989   3.058   1.400   0.821  0.1998 -0.3268 -0.5461
  306SOL    HW2  990   3.030   1.467   0.758  1.4375 -0.2079 -1.0079
  306SOL    HW3  991   2.978   1.376   0.868  0.0574  3.1014  1.2340
  306SOL    MW4  992   3.044   1.406   0.819  0.3443  0.1412 -0.3722
  307SOL     OW  993   1.500   4.778   0.858 -0.4676  0.1561  0.2018
  307SOL    HW2  994   1.485   4.872   0.870 -1.5960 -0.1799  1.7992
  307SOL    HW3  995   1.443   4.737   0.923  0.5948 -1.6098  0.0729
  307SOL    MW4  996   1.491   4.785   0.868 -0.4763 -0.1213  0.3956
  308SOL     OW  997   5.729   5.550   4.654  0.2951 -0.0264 -0.0944
  308SOL    HW2  998   5.788   5.507   4.591  2.2478  1.6147  0.4823
  308SOL    HW3  999   5.653   5.575   4.602  0.0945 -2.0937 -0.9154
  308SOL    MW4 1000   5.727   5.547   4.639  0.5263 -0.0827 -0.1267
  309SOL     OW 1001   4.168   0.113   3.665  0.7106  0.4945 -0.3274
  309SOL    HW2 1002   4.166   0.205   3.638 -0.0778  0.7156  0.4542
  309SOL    HW3 1003   4.152   0.064   3.584 -0.2254  1.0936 -0.5200
  309SOL    MW4 1004   4.166   0.118   3.650  0.4831  0.6027 -0.2497
  310SOL     OW 1005   4.164   5.379   1.036  0.8977  0.0303  0.3079
  310SOL    HW2 1006   4.175   5.466   1.074 -2.3579  0.6506  0.0986
  310SOL    HW3 1007   4.132   5.394   0.948  3.4044 -1.4677 -0.9909
  310SOL    MW4 1008   4.162   5.392   1.030  0.7989 -0.0855  0.1089
  311SOL     OW 1009   2.079   3.233   5.228 -0.7427 -0.4422  0.7432
  311SOL    HW2 1010   2.149   3.293   5.202 -2.1203  0.6456 -0.6239
  311SOL    HW3 1011   2.086   3.161   5.165 -2.1446  0.6970 -0.7626
  311SOL    MW4 1012   2.089   3.231   5.216 -1.1095 -0.1484  0.3641
  312SOL     OW 1013   4.389   6.001   4.458 -0.0648  0.1134 -0.2130
  312SOL    HW2 1014   4.371   5.955   4.376  1.1363 -2.2526  0.7588
  312SOL    HW3 1015   4.303   6.017   4.496 -0.6074  0.6753 -1.6089
  312SOL    MW4 1016   4.375   5.997   4.452  0.0221 -0.1246 -0.2690
  313SOL     OW 1017   2.144   0.719   2.848  0.3781  0.5483 -0.1158
  313SOL    HW2 1018   2.113   0.652   2.909  1.6669 -1.2695 -1.3637
  313SOL    HW3 1019   2.064   0.757   2.811 -0.3807  0.1438  1.0532
  313SOL    MW4 1020   2.129   0.715   2.851  0.4480  0.2551 -0.1262
  314SOL     OW 1021   5.654   6.130   4.203 -0.3585 -0.4430 -0.0899
  314SOL    HW2 1022   5.669   6.063   4.270  0.9481 -0.8624 -0.7871
  314SOL    HW3 1023   5.611   6.083   4.131 -0.7882 -0.2114  0.0090
  314SOL    MW4 1024   5.650   6.115   4.202 -0.2428 -0.4678 -0.1688
  315SOL     OW 1025   1.944   5.001   0.926 -0.0923  0.2234 -0.0896
  315SOL    HW2 1026   2.011   5.066   0.943  0.2405  0.1228 -0.9749
  315SOL    HW3 1027   1.862   5.051   0.923 -0.2812  0.1727  2.3400
  315SOL    MW4 1028   1.942   5.016   0.928 -0.0733  0.2035  0.1141
  316SOL     OW 1029   0.845   2.342   4.940 -0.3933  0.0066  0.6952
  316SOL    HW2 1030   0.895   2.422   4.955  0.3693 -0.4892  0.8675
  316SOL    HW3 1031   0.907   2.272   4.959 -0.8340 -0.6298 -0.1911
  316SOL    MW4 1032   0.860   2.343   4.945 -0.3509 -0.1428  0.6010
  317SOL     OW 1033   2.791   5.569   2.525 -0.2754  0.1037 -0.5689
  317SOL    HW2 1034   2.874   5.537   2.491  0.9274 -1.2027  3.1348
  317SOL    HW3 1035   2.736   5.491   2.534 -0.1299  0.1660  1.3398
  317SOL    MW4 1036   2.794   5.555   2.522 -0.0975 -0.0604  0.1716
  318SOL     OW 1037   1.840   0.180   3.178 -0.4178 -0.3605  0.5783
  318SOL    HW2 1038   1.897   0.215   3.110  0.5871 -1.3899  0.8543
  318SOL    HW3 1039   1.793   0.108   3.136 -0.5427 -0.3469  0.6935
  318SOL    MW4 1040   1.842   0.175   3.164 -0.3017 -0.4945  0.6299
  319SOL     OW 1041   1.537   2.744   6.004  0.0949 -0.0420 -0.1292
  319SOL    HW2 1042   1.467   2.801   5.973  1.2151  0.9499 -0.9269
  319SOL    HW3 1043   1.617   2.791   5.981  1.0350 -1.5196  0.0468
  319SOL    MW4 1044   1.538   2.758   5.997  0.3667 -0.1061 -0.2112
  320SOL     OW 1045   4.940   1.485   0.254  0.2834  0.5569  0.1094
  320SOL    HW2 1046   5.022   1.516   0.217 -0.4325  0.5277 -1.6192
  320SOL    HW3 1047   4.896   1.564   0.286  0.2689  0.8026 -0.5006
  320SOL    MW4 1048   4.945   1.500   0.254  0.1870  0.5854 -0.1991
  321SOL     OW 1049   6.253   0.675   1.395  0.6156 -0.6113 -0.1661
  321SOL    HW2 1050   6.245   0.635   1.308 -0.6228 -2.2495  0.6618
  321SOL    HW3 1051   6.184   0.742   1.396 -0.0862 -1.3177 -0.0873
  321SOL    MW4 1052   6.243   0.679   1.384  0.3596 -0.9206 -0.0465
  322SOL     OW 1053   2.998   1.369   4.125  0.5869 -0.3668  0.0380
  322SOL    HW2 1054   2.956   1.449   4.094  2.9956  0.5279 -1.2173
  322SOL    HW3 1055   3.038   1.394   4.209  2.8044  0.3677 -1.1565
  322SOL    MW4 1056   2.998   1.383   4.132  1.1973 -0.1519 -0.2852
  323SOL     OW 1057   3.141   5.050   4.931  0.1317 -0.3798 -0.1315
  323SOL    HW2 1058   3.171   5.141   4.932  0.4094 -0.4686 -0.2892
  323SOL    HW3 1059   3.046   5.056   4.923  0.2038 -0.1104 -0.8770
  323SOL    MW4 1060   3.132   5.063   4.930  0.1778 -0.3560 -0.2507
  324SOL     OW 1061   1.247   2.315   4.364  0.0888  0.2016  0.3437
  324SOL    HW2 1062   1.176   2.310   4.428  0.1454  0.7664  0.4518
  324SOL    HW3 1063   1.316   2.260   4.400  0.2278  0.7421  0.9101
  324SOL    MW4 1064   1.247   2.307   4.377  0.1146  0.3474  0.4327
  325SOL     OW 1065   3.708   2.676   2.366 -0.3663  0.1986 -0.5939
  325SOL    HW2 1066   3.729   2.701   2.456 -0.1578  0.1798 -0.6357
  325SOL    HW3 1067   3.683   2.584   2.372 -1.4556  0.5025 -0.3906
  325SOL    MW4 1068   3.708   2.667   2.379 -0.4825  0.2362 -0.5726
  326SOL     OW 1069   4.012   2.930   4.875  0.3612  0.6654 -0.1339
  326SOL    HW2 1070   4.086   2.937   4.815  0.6660 -0.0018  0.1541
  326SOL    HW3 1071   4.046   2.961   4.959  0.0257  1.2985 -0.2256
  326SOL    MW4 1072   4.027   2.935   4.878  0.3571  0.6609 -0.1080
  327SOL     OW 1073   3.457   2.819   2.380  0.4487 -0.1036  0.5811
  327SOL    HW2 1074   3.543   2.777   2.377  0.5389  0.1125  0.0576
  327SOL    HW3 1075   3.417   2.787   2.461 -0.4649 -3.0848 -0.9221
  327SOL    MW4 1076   3.463   2.809   2.390  0.3401 -0.4684  0.3137
  328SOL     OW 1077   2.240   1.432   1.046  0.0107  0.2782  0.5566
  328SOL    HW2 1078   2.273   1.383   0.971 -0.6649  1.8364 -0.8316
  328SOL    HW3 1079   2.166   1.380   1.077  0.6122 -0.6483  0.4747
  328SOL    MW4 1080   2.235   1.418   1.040  0.0009  0.3615  0.3627
  329SOL     OW 1081   2.635   6.018   5.725  0.1393  0.2988 -0.3615
  329SOL    HW2 1082   2.677   6.058   5.801  0.9502 -0.5296 -0.3492
  329SOL    HW3 1083   2.549   5.991   5.757 -0.4485  2.0167 -0.3852
  329SOL    MW4 1084   2.629   6.019   5.739  0.1688  0.4162 -0.3630
  330SOL     OW 1085   1.488   3.071   4.787 -0.1692 -0.0858 -0.1603
  330SOL    HW2 1086   1.553   3.005   4.763 -1.2673 -1.5176  0.6126
  330SOL    HW3 1087   1.405   3.024   4.784 -0.7493  0.5882  2.7235
  330SOL    MW4 1088   1.486   3.056   4.784 -0.3906 -0.1858  0.3222
  331SOL     OW 1089   0.124   1.089   1.273  0.0835 -0.4815  0.4379
  331SOL    HW2 1090   0.188   1.160   1.277 -1.0988  0.9622 -2.8218
  331SOL    HW3 1091   0.051   1.120   1.327 -0.1128  0.4683 -0.3519
  331SOL    MW4 1092   0.123   1.103   1.281 -0.0984 -0.1657 -0.0964
  332SOL     OW 1093   2.375   0.896   1.551  0.2336  1.1110 -0.5686
  332SOL    HW2 1094   2.362   0.984   1.585  1.4437  1.0999 -0.0257
  332SOL    HW3 1095   2.470   0.886   1.544  0.1446 -0.2803 -0.2608
  332SOL    MW4 1096   2.386   0.906   1.554  0.3815  0.9259 -0.4564
  333SOL     OW 1097   0.826   0.140   4.387  0.1479  0.4383 -0.1521
  333SOL    HW2 1098   0.853   0.049   4.397 -1.7530 -0.0267  1.2728
  333SOL    HW3 1099   0.907   0.187   4.364  1.4113 -1.3746  0.3855
  333SOL    MW4 1100   0.840   0.134   4.385  0.0638  0.1378  0.1068
  334SOL     OW 1101   5.256   0.066   2.765  0.5979 -0.4792  0.1708
  334SOL    HW2 1102   5.180   0.015   2.792 -0.3047 -0.3054 -1.8627
  334SOL    HW3 1103   5.220   0.147   2.730  1.7998  0.0899  0.1988
  334SOL    MW4 1104   5.242   0.070   2.764  0.6374 -0.3812 -0.0938
  335SOL     OW 1105   0.153   4.897   4.322  0.2966  0.6831 -0.3185
  335SOL    HW2 1106   0.180   4.844   4.397 -0.6825 -0.1919 -0.5714
  335SOL    HW3 1107   0.059   4.884   4.316  0.5790 -0.7403 -2.8054
  335SOL    MW4 1108   0.144   4.889   4.331  0.2047  0.3799 -0.6800
  336SOL     OW 1109   3.713   3.689   3.161  0.3854 -0.1358  0.4542
  336SOL    HW2 1110   3.775   3.670   3.090 -1.0653 -0.2851 -0.8254
  336SOL    HW3 1111   3.668   3.606   3.177  1.3530 -0.3631  2.2805
  336SOL    MW4 1112   3.715   3.675   3.154  0.3216 -0.1855  0.5263
  337SOL     OW 1113   2.353   5.959   3.216  0.1095 -0.0877  0.0695
  337SOL    HW2 1114   2.435   5.910   3.205  1.0506  0.9315  2.0609
  337SOL    HW3 1115   2.377   6.049   3.195 -0.4260  0.2716  0.9806
  337SOL    MW4 1116   2.367   5.964   3.212  0.1630  0.0942  0.4525
  338SOL     OW 1117   5.041   5.015   5.527 -0.4925 -0.5080 -0.1133
  338SOL    HW2 1118   5.100   5.081   5.564 -0.1744 -0.2695 -1.0027
  338SOL    HW3 1119   4.959   5.062   5.512 -0.6320 -0.6140  0.3214
  338SOL    MW4 1120   5.038   5.030   5.530 -0.4690 -0.4905 -0.1733
  339SOL     OW 1121   6.030   1.114   4.762 -1.0574  0.6298  0.1020
  339SOL    HW2 1122   6.037   1.064   4.844 -1.3813 -0.6298 -0.6022
  339SOL    HW3 1123   6.050   1.204   4.787  1.3850 -0.0967  1.1069
  339SOL    MW4 1124   6.033   1.119   4.776 -0.7779  0.3678  0.1417
  340SOL     OW 1125   6.332   2.207   2.089 -0.3921  0.0278  0.4546
  340SOL    HW2 1126   6.390   2.227   2.016 -1.4075 -0.9148 -0.6537
  340SOL    HW3 1127   6.257   2.164   2.049 -0.8843 -0.7152  2.0864
  340SOL    MW4 1128   6.330   2.204   2.074 -0.5910 -0.1946  0.5237
  341SOL     OW 1129   0.086   0.639   1.361 -0.4776  0.3053  0.7661
  341SOL    HW2 1130  -0.009   0.647   1.369 -0.7587 -0.8123 -1.0956
  341SOL    HW3 1131   0.101   0.550   1.331  1.0420  0.9563 -0.5467
  341SOL    MW4 1132   0.076   0.629   1.358 -0.3142  0.2437  0.3473
  342SOL     OW 1133   4.094   5.668   5.278 -0.3048  0.0441  0.1921
  342SOL    HW2 1134   4.060   5.606   5.215 -2.1569  1.6572 -0.4930
  342SOL    HW3 1135   4.154   5.723   5.228  0.3363 -0.3618  0.4989
  342SOL    MW4 1136   4.098   5.667   5.263 -0.4646  0.2033  0.1422
  343SOL     OW 1137   4.329   1.079   3.437  0.3104 -0.3247  0.1476
  343SOL    HW2 1138   4.265   1.008   3.441  0.6371 -0.5750  1.1765
  343SOL    HW3 1139   4.373   1.077   3.522  2.1993 -0.6536 -0.7659
  343SOL    MW4 1140   4.326   1.069   3.448  0.6028 -0.4011  0.1628
  344SOL     OW 1141   6.024   2.764   2.336 -1.2617 -0.1106  0.0797
  344SOL    HW2 1142   6.005   2.744   2.244  1.0351 -0.7442 -0.3079
  344SOL    HW3 1143   5.942   2.801   2.369 -2.1375  0.2044 -2.2315
  344SOL    MW4 1144   6.010   2.766   2.328 -1.0743 -0.1527 -0.2764
  345SOL     OW 1145   1.041   1.405   2.720 -0.2569 -0.7638  0.1940
  345SOL    HW2 1146   1.012   1.390   2.630  0.3710 -2.0143  0.1719
  345SOL    HW3 1147   0.967   1.378   2.774  0.3691 -2.8660  0.1057
  345SOL    MW4 1148   1.028   1.399   2.715 -0.0915 -1.2061  0.1794
  346SOL     OW 1149   3.136   5.179   2.561 -0.2863 -0.0087 -0.3380
  346SOL    HW2 1150   3.167   5.088   2.554  0.4438  0.2598 -0.6608
  346SOL    HW3 1151   3.041   5.171   2.565 -0.2508 -0.7740 -0.7501
  346SOL    MW4 1152   3.128   5.166   2.560 -0.1853 -0.0742 -0.4350
  347SOL     OW 1153   5.468   4.038   4.857  0.5851 -0.1091 -0.6658
  347SOL    HW2 1154   5.441   4.106   4.796 -1.3494  0.9714  1.2794
  347SOL    HW3 1155   5.489   4.084   4.938  0.7604 -1.6850  0.2334
  347SOL    MW4 1156   5.467   4.053   4.859  0.3530 -0.1744 -0.2905
  348SOL     OW 1157   3.986   6.334   2.840  0.1535 -0.7392  0.1753
  348SOL    HW2 1158   3.942   6.412   2.875 -0.5104 -0.3307 -1.4555
  348SOL    HW3 1159   4.035   6.299   2.914 -1.4104 -0.1209  1.5801
  348SOL    MW4 1160   3.987   6.340   2.854 -0.1404 -0.6037  0.1455
  349SOL     OW 1161   3.510   1.792   1.428  0.2649  0.2816  0.0602
  349SOL    HW2 1162   3.550   1.836   1.354 -0.7254  0.0230 -0.6562
  349SOL    HW3 1163   3.578   1.790   1.495  1.3582  0.0612 -1.0170
  349SOL    MW4 1164   3.524   1.797   1.427  0.2785  0.2184 -0.1764
  350SOL     OW 1165   0.036   0.084   5.070  0.4524 -0.7130 -0.0171
  350SOL    HW2 1166   0.097   0.069   5.142  1.6280 -0.8331 -0.9981
  350SOL    HW3 1167  -0.004   0.168   5.089  1.5064 -0.2645  0.2625
  350SOL    MW4 1168   0.039   0.093   5.082  0.7466 -0.6696 -0.1096
  351SOL     OW 1169   4.984   0.488   0.154 -0.7425  0.4528  0.3803
  351SOL    HW2 1170   4.972   0.504   0.060  3.1733 -0.2874 -0.3929
  351SOL    HW3 1171   4.924   0.416   0.173 -0.3128 -0.6666 -2.0532
  351SOL    MW4 1172   4.974   0.481   0.144 -0.1691  0.2075 -0.0428
  352SOL     OW 1173   0.141   1.404   4.531  0.3676 -0.4933 -0.5337
  352SOL    HW2 1174   0.203   1.424   4.601 -1.7416  0.8284  1.0918
  352SOL    HW3 1175   0.193   1.360   4.464  2.5127 -1.7854  1.8251
  352SOL    MW4 1176   0.156   1.401   4.531  0.3723 -0.4894 -0.0080
  353SOL     OW 1177   0.866   1.789   1.661  0.1790  0.2417  0.3147
  353SOL    HW2 1178   0.876   1.709   1.712 -2.3100 -0.4407 -0.1413
  353SOL    HW3 1179   0.955   1.817   1.642  1.1386 -1.1960  2.3481
  353SOL    MW4 1180   0.879   1.782   1.665 -0.0228 -0.0380  0.5228
  354SOL     OW 1181   3.060   4.961   2.892 -0.1294  0.4274 -0.8906
  354SOL    HW2 1182   2.967   4.962   2.868 -0.0718  3.3185 -1.3224
  354SOL    HW3 1183   3.079   5.051   2.918  2.0143 -0.6011  1.5576
  354SOL    MW4 1184   3.050   4.973   2.892  0.1611  0.6731 -0.6245
  355SOL     OW 1185   6.064   5.502   5.555 -0.1372 -0.2702  0.2105
  355SOL    HW2 1186   6.155   5.500   5.527  0.6153  1.7583  2.2461
  355SOL    HW3 1187   6.036   5.410   5.549  2.2107 -1.0597  0.1255
  355SOL    MW4 1188   6.072   5.490   5.550  0.2719 -0.1067  0.4679
  356SOL     OW 1189   4.992   4.447   5.432 -0.5109  0.4113 -0.3796
  356SOL    HW2 1190   4.938   4.373   5.403  0.0101 -0.5046  0.9139
  356SOL    HW3 1191   4.975   4.454   5.526  0.9819  0.6474 -0.1026
  356SOL    MW4 1192   4.982   4.438   5.440 -0.2452  0.3216 -0.1724
  357SOL     OW 1193   2.132   4.914   3.035  0.1725  0.3399  0.5635
  357SOL    HW2 1194   2.145   4.823   3.009  0.0295  0.0112  1.5851
  357SOL    HW3 1195   2.133   4.963   2.953  2.4759 -0.3001  0.1295
  357SOL    MW4 1196   2.134   4.908   3.021  0.4575  0.2121  0.6410
  358SOL     OW 1197   3.233   3.814   2.140  0.0066 -0.4165 -0.0501
  358SOL    HW2 1198   3.294   3.742   2.153  0.5048  0.0198  0.0892
  358SOL    HW3 1199   3.149   3.772   2.125 -0.0525 -1.0185  1.6872
  358SOL    MW4 1200   3.230   3.799   2.140  0.0645 -0.4384  0.1975
  359SOL     OW 1201   0.941   5.679   3.638  0.1519  0.0280 -0.0598
  359SOL    HW2 1202   0.920   5.614   3.705  0.9627  1.0078  1.1963
  359SOL    HW3 1203   0.966   5.627   3.562 -0.7707 -1.1159  0.3897
  359SOL    MW4 1204   0.942   5.664   3.637  0.1372  0.0064  0.1653
  360SOL     OW 1205   4.481   5.245   6.032  0.0263  0.4864  0.5824
  360SOL    HW2 1206   4.457   5.201   6.114 -1.6947 -0.1756 -0.2130
  360SOL    HW3 1207   4.413   5.217   5.970  0.5860  1.9442 -0.7458
  360SOL    MW4 1208   4.469   5.235   6.034 -0.1269  0.5914  0.3022
  361SOL     OW 1209   1.697   5.034   1.730 -0.5632 -0.2538 -0.4122
  361SOL    HW2 1210   1.645   5.049   1.808 -0.6162 -0.7073 -0.3601
  361SOL    HW3 1211   1.788   5.037   1.760 -0.5819 -0.3396 -0.3472
  361SOL    MW4 1212   1.702   5.036   1.744 -0.5727 -0.3250 -0.3968
  362SOL     OW 1213   3.813   3.368   0.589  0.1972  0.0012 -0.5105
  362SOL    HW2 1214   3.877   3.438   0.585 -1.4994  1.5745 -1.2953
  362SOL    HW3 1215   3.775   3.375   0.677 -1.2550  1.3220 -1.1971
  362SOL    MW4 1216   3.816   3.378   0.600 -0.2183  0.3830 -0.7047
  363SOL     OW 1217   3.460   5.792   6.234  0.2321  0.3450  0.1856
  363SOL    HW2 1218   3.393   5.816   6.298  0.7079  0.7563  0.5432
  363SOL    HW3 1219   3.499   5.875   6.208  1.1665  0.0544  0.6150
  363SOL    MW4 1220   3.456   5.806   6.239  0.4181  0.3610  0.2894
  364SOL     OW 1221   2.854   5.074   3.562  0.5606  0.0563 -0.0561
  364SOL    HW2 1222   2.878   5.145   3.502 -0.8482  3.1430  2.6776
  364SOL    HW3 1223   2.775   5.036   3.525  0.8614  0.4795 -1.1747
  364SOL    MW4 1224   2.847   5.078   3.549  0.4144  0.5194  0.1570
  365SOL     OW 1225   4.897   6.289   4.628  0.1627  0.8751  0.0543
  365SOL    HW2 1226   4.844   6.231   4.573 -0.6477  0.5994  1.0691
  365SOL    HW3 1227   4.858   6.279   4.716  1.9611  0.6065  0.8665
  365SOL    MW4 1228   4.885   6.280   4.633  0.2930  0.8033  0.2954
  366SOL     OW 1229   4.748   3.012   6.054 -0.3823 -0.0125 -0.0756
  366SOL    HW2 1230   4.746   2.917   6.043 -2.6469 -0.0708  0.2164
  366SOL    HW3 1231   4.705   3.046   5.975 -2.7521  0.4854  1.3244
  366SOL    MW4 1232   4.742   3.004   6.042 -0.9937  0.0455  0.1477
  367SOL     OW 1233   6.249   1.137   0.096 -0.4882  0.1396 -0.3944
  367SOL    HW2 1234   6.244   1.146   0.191 -0.3849 -0.8715 -0.2792
  367SOL    HW3 1235   6.272   1.045   0.081  0.0253  0.4043 -1.3866
  367SOL    MW4 1236   6.251   1.126   0.106 -0.4068  0.0411 -0.5101
  368SOL     OW 1237   3.358   2.435   3.473 -0.4744  0.1062  0.7037
  368SOL    HW2 1238   3.448   2.452   3.501 -0.0564  0.0336 -0.5062
  368SOL    HW3 1239   3.334   2.512   3.421 -0.7109 -0.3462  0.1239
  368SOL    MW4 1240   3.367   2.447   3.470 -0.4504  0.0369  0.4675
  369SOL     OW 1241   0.693   1.257   5.569  0.4295  0.2111 -0.2436
  369SOL    HW2 1242   0.707   1.322   5.500  1.6767  0.2854  0.0625
  369SOL    HW3 1243   0.597   1.251   5.577  0.2843  1.1593 -1.0649
  369SOL    MW4 1244   0.682   1.265   5.561  0.5749  0.3460 -0.3116
  370SOL     OW 1245   2.769   0.246   1.230  0.4912  0.2332 -0.0331
  370SOL    HW2 1246   2.715   0.241   1.309  0.4775 -0.1904 -0.0657
  370SOL    HW3 1247   2.859   0.252   1.262  0.5668 -0.9324  0.0232
  370SOL    MW4 1248   2.774   0.246   1.245  0.4994  0.0236 -0.0300
  371SOL     OW 1249   0.539   1.401   0.366  0.3611  0.3009 -0.2686
  371SOL    HW2 1250   0.549   1.309   0.341  1.6478  0.5916 -0.9032
  371SOL    HW3 1251   0.627   1.429   0.391  0.3521  1.8240 -1.7264
  371SOL    MW4 1252   0.552   1.393   0.366  0.5296  0.5402 -0.5447
  372SOL     OW 1253   1.598   3.153   1.372 -0.1995 -0.5067  0.1019
  372SOL    HW2 1254   1.658   3.227   1.364 -0.0868 -0.6069  0.0209
  372SOL    HW3 1255   1.627   3.091   1.306  0.2512 -0.9991  0.7456
  372SOL    MW4 1256   1.610   3.154   1.362 -0.1252 -0.5849  0.1761
  373SOL     OW 1257   1.427   0.499   5.137 -0.7154  0.6446 -0.2135
  373SOL    HW2 1258   1.479   0.510   5.216 -4.2915  3.4770  2.0889
  373SOL    HW3 1259   1.446   0.577   5.084 -0.9104  0.5338 -0.4534
  373SOL    MW4 1260   1.436   0.511   5.140 -1.2129  1.0037  0.0586
  374SOL     OW 1261   0.246   5.690   1.005 -0.5380  0.1982  0.3776
  374SOL    HW2 1262   0.274   5.654   0.920 -0.5933  0.8771  0.0663
  374SOL    HW3 1263   0.176   5.632   1.034  0.5822 -1.0270  0.7575
  374SOL    MW4 1264   0.241   5.677   0.998 -0.3975  0.1261  0.3866
  375SOL     OW 1265   4.316   3.154   1.287 -0.0065 -0.3624 -0.3269
  375SOL    HW2 1266   4.283   3.074   1.328  1.2656 -0.1538  1.1649
  375SOL    HW3 1267   4.357   3.124   1.206 -0.0036 -1.1454 -0.0457
  375SOL    MW4 1268   4.317   3.140   1.281  0.1617 -0.4382 -0.0930
  376SOL     OW 1269   1.887   4.937   1.395 -0.4626 -0.3303  0.1632
  376SOL    HW2 1270   1.819   4.886   1.351 -1.2934  1.7095 -1.0484
  376SOL    HW3 1271   1.854   5.026   1.395  2.1546  0.7130 -0.3170
  376SOL    MW4 1272   1.873   4.942   1.389 -0.2269  0.0765 -0.0600
  377SOL     OW 1273   1.902   2.317   2.264  0.3210 -0.3637  0.0391
  377SOL    HW2 1274   1.882   2.382   2.331  0.1265 -0.5644  0.1788
  377SOL    HW3 1275   1.929   2.239   2.312  2.9881  0.3507 -0.1602
  377SOL    MW4 1276   1.903   2.315   2.279  0.6472 -0.2959  0.0312
  378SOL     OW 1277   5.793   5.099   5.353 -0.0899  0.0118  0.1060
  378SOL    HW2 1278   5.746   5.024   5.390 -0.3619 -0.8315 -1.7983
  378SOL    HW3 1279   5.829   5.145   5.429 -0.2538 -1.8213  1.3626
  378SOL    MW4 1280   5.792   5.095   5.368 -0.1474 -0.3413  0.0205
  379SOL     OW 1281   1.588   3.048   5.774 -0.3351  0.4472  0.5051
  379SOL    HW2 1282   1.677   3.014   5.769 -0.8996 -1.1005  0.5050
  379SOL    HW3 1283   1.594   3.123   5.834  1.6039  2.6889 -2.2075
  379SOL    MW4 1284   1.601   3.054   5.781 -0.1537  0.5388  0.1472
  380SOL     OW 1285   0.260   0.769   0.653  0.6373 -0.7487  0.3706
  380SOL    HW2 1286   0.348   0.800   0.675  0.3908  2.0561 -1.9845
  380SOL    HW3 1287   0.269   0.736   0.563 -0.7505 -0.0101 -0.0658
  380SOL    MW4 1288   0.273   0.769   0.644  0.4217 -0.2812  0.0023
  381SOL     OW 1289   3.135   4.349   5.564  0.0565 -0.4695  0.4969
  381SOL    HW2 1290   3.179   4.276   5.521  0.9225  0.2044  0.2016
  381SOL    HW3 1291   3.125   4.415   5.495 -0.1955 -0.0876  0.8929
  381SOL    MW4 1292   3.140   4.348   5.549  0.1375 -0.3302  0.5102
  382SOL     OW 1293   5.109   4.896   5.291 -0.8369  0.3165 -0.2466
  382SOL    HW2 1294   5.097   4.947   5.372 -0.0673  0.5310 -0.2645
  382SOL    HW3 1295   5.195   4.922   5.258 -1.2373  0.4075 -1.2676
  382SOL    MW4 1296   5.118   4.906   5.297 -0.7882  0.3568 -0.3837
  383SOL     OW 1297   0.285   4.453   6.373 -0.8885  0.2243 -0.2301
  383SOL    HW2 1298   0.262   4.517   6.306 -1.0895 -1.7888 -2.1902
  383SOL    HW3 1299   0.214   4.389   6.370 -0.5795 -0.2443  1.5165
  383SOL    MW4 1300   0.273   4.453   6.364 -0.8742 -0.1032 -0.2583
  384SOL     OW 1301   3.839   2.904   1.182 -0.1400 -0.0099  0.0288
  384SOL    HW2 1302   3.900   2.944   1.119 -0.3480  0.3539  0.0568
  384SOL    HW3 1303   3.791   2.978   1.219  0.4090 -0.1622  1.0744
  384SOL    MW4 1304   3.841   2.919   1.178 -0.0950  0.0180  0.1704
  385SOL     OW 1305   0.155   4.760   1.580 -0.1225 -0.0244  0.3307
  385SOL    HW2 1306   0.093   4.832   1.577 -0.7914 -0.6202 -1.0850
  385SOL    HW3 1307   0.203   4.773   1.662  0.3320  2.4624 -0.2426
  385SOL    MW4 1308   0.153   4.771   1.590 -0.1508  0.2251  0.0683
  386SOL     OW 1309   4.541   2.111   4.627 -0.2769  0.5064  0.1538
  386SOL    HW2 1310   4.617   2.107   4.570 -0.7043 -0.2320 -0.3755
  386SOL    HW3 1311   4.488   2.182   4.592  0.1383  0.9987  0.5023
  386SOL    MW4 1312   4.544   2.120   4.615 -0.2785  0.4740  0.1300
  387SOL     OW 1313   4.689   5.356   1.530  0.2824 -0.2155  0.3333
  387SOL    HW2 1314   4.744   5.375   1.606  0.7889 -0.9917  0.1728
  387SOL    HW3 1315   4.751   5.344   1.458 -0.1140 -0.7893  0.0797
  387SOL    MW4 1316   4.704   5.357   1.531  0.2969 -0.3936  0.2787
  388SOL     OW 1317   3.070   4.357   0.740  0.6205 -0.2642 -0.3320
  388SOL    HW2 1318   3.026   4.279   0.706  0.4091 -0.8078  1.1414
  388SOL    HW3 1319   3.016   4.386   0.813  1.3954  0.5141 -0.0476
  388SOL    MW4 1320   3.057   4.350   0.745  0.6948 -0.2332 -0.1001
  389SOL     OW 1321   2.997   0.805   6.196 -0.3492  0.3961  0.1763
  389SOL    HW2 1322   2.906   0.778   6.201 -0.5674  1.0633 -0.1374
  389SOL    HW3 1323   3.003   0.881   6.255 -0.3565  1.3067 -0.9696
  389SOL    MW4 1324   2.986   0.811   6.205 -0.3790  0.6042 -0.0163
  390SOL     OW 1325   2.383   1.909   1.387 -0.6456  0.6315 -0.1747
  390SOL    HW2 1326   2.347   1.841   1.330 -0.4198  1.2885 -1.1351
  390SOL    HW3 1327   2.478   1.903   1.373 -0.7165  2.4362 -1.8574
  390SOL    MW4 1328   2.391   1.899   1.378 -0.6251  0.9563 -0.5234
  391SOL     OW 1329   3.932   2.558   2.265 -0.1390 -0.1221 -0.0570
  391SOL    HW2 1330   3.919   2.510   2.183  0.0783  1.2433 -0.9168
  391SOL    HW3 1331   3.846   2.595   2.286  0.2637  1.3741 -0.8914
  391SOL    MW4 1332   3.919   2.557   2.257 -0.0572  0.2554 -0.2805
  392SOL     OW 1333   2.905   3.477   5.746  0.0859 -0.1470 -0.0399
  392SOL    HW2 1334   2.981   3.507   5.795  0.0086 -1.4076  0.8992
  392SOL    HW3 1335   2.904   3.382   5.758 -0.2047 -0.4576 -2.1218
  392SOL    MW4 1336   2.915   3.468   5.754  0.0374 -0.3543 -0.1907
  393SOL     OW 1337   2.549   1.046   4.363 -0.0643 -0.0974  0.7751
  393SOL    HW2 1338   2.492   1.109   4.407 -0.3364 -1.6355  2.7990
  393SOL    HW3 1339   2.490   0.993   4.310  0.1243  1.0556 -0.6660
  393SOL    MW4 1340   2.534   1.048   4.362 -0.0753 -0.1482  0.8520
  394SOL     OW 1341   5.086   1.610   5.609  0.3625 -1.1151 -0.0439
  394SOL    HW2 1342   5.138   1.688   5.590  0.9132 -1.7438 -1.2311
  394SOL    HW3 1343   5.102   1.593   5.702  1.1716 -0.4905 -0.0549
  394SOL    MW4 1344   5.095   1.618   5.619  0.5419 -1.1157 -0.2020
  395SOL     OW 1345   3.476   3.060   5.654  0.2500  0.0600 -0.0280
  395SOL    HW2 1346   3.440   3.116   5.723 -0.3394 -1.7033  1.1531
  395SOL    HW3 1347   3.504   2.981   5.699  0.2425 -0.9837 -1.7662
  395SOL    MW4 1348   3.475   3.057   5.669  0.1713 -0.3103 -0.1015
  396SOL     OW 1349   2.044   5.984   2.632  0.1054  0.3270 -0.1434
  396SOL    HW2 1350   2.073   5.893   2.630  1.5719  0.7718 -0.8498
  396SOL    HW3 1351   1.973   5.989   2.568  1.4196  0.0917 -1.6665
  396SOL    MW4 1352   2.038   5.973   2.624  0.4723  0.3546 -0.4376
  397SOL     OW 1353   2.124   4.469   0.657 -0.3717  0.2036  0.3592
  397SOL    HW2 1354   2.037   4.467   0.696  0.6840 -1.4460  2.8776
  397SOL    HW3 1355   2.132   4.385   0.611 -1.5484  2.0514 -3.6610
  397SOL    MW4 1356   2.114   4.458   0.656 -0.3876  0.2298  0.1610
  398SOL     OW 1357   1.004   1.195   5.839  0.2098 -0.2327  0.2416
  398SOL    HW2 1358   1.018   1.286   5.865 -0.9921  0.4394 -1.2748
  398SOL    HW3 1359   0.910   1.183   5.845  0.4567 -1.7591  1.4973
  398SOL    MW4 1360   0.994   1.206   5.843  0.0838 -0.3454  0.2072
  399SOL     OW 1361   0.505   5.381   2.105  0.0103 -0.4471  0.0589
  399SOL    HW2 1362   0.441   5.405   2.172  2.1459  1.4080  1.5813
  399SOL    HW3 1363   0.571   5.330   2.153  1.4011  0.6177 -0.6671
  399SOL    MW4 1364   0.506   5.377   2.120  0.4756 -0.0619  0.1640
  400SOL     OW 1365   0.582   5.199   0.801  0.0832 -0.4041 -0.3237
  400SOL    HW2 1366   0.634   5.192   0.722  1.4106  0.9783  0.3707
  400SOL    HW3 1367   0.627   5.144   0.865  1.5808  1.8166  0.6660
  400SOL    MW4 1368   0.595   5.191   0.799  0.4559  0.0713 -0.1015
  401SOL     OW 1369   6.297   6.267   5.786  0.1575 -0.4091  0.6463
  401SOL    HW2 1370   6.243   6.188   5.784 -1.6620  0.7805 -0.1586
  401SOL    HW3 1371   6.316   6.285   5.694  0.9803 -0.1745  0.8567
  401SOL    MW4 1372   6.293   6.259   5.774  0.0260 -0.2212  0.5678
  402SOL     OW 1373   0.938   4.813   5.846 -0.0389 -0.3234  0.0716
  402SOL    HW2 1374   0.882   4.778   5.777  0.0447 -1.7636  0.6867
  402SOL    HW3 1375   0.983   4.736   5.882 -0.3696  0.3029  1.9853
  402SOL    MW4 1376   0.936   4.798   5.842 -0.0715 -0.4308  0.4052
  403SOL     OW 1377   2.791   4.198   3.445 -0.1557  0.6750  0.1033
  403SOL    HW2 1378   2.765   4.186   3.536  0.5557  1.3759  0.4077
  403SOL    HW3 1379   2.726   4.259   3.409 -1.8500 -1.3941 -0.5501
  403SOL    MW4 1380   2.779   4.204   3.452 -0.2854  0.4945  0.0572
  404SOL     OW 1381   0.211   4.816   1.829  0.0666  0.3474  0.2337
  404SOL    HW2 1382   0.159   4.894   1.807 -0.0748 -0.0835 -1.0567
  404SOL    HW3 1383   0.151   4.761   1.879 -0.2618  0.4912  0.0062
  404SOL    MW4 1384   0.196   4.819   1.832  0.0046  0.3095  0.0335
  405SOL     OW 1385   0.724   2.194   2.193  0.2110 -0.1618 -0.0145
  405SOL    HW2 1386   0.701   2.119   2.248  1.2693 -1.2368 -0.9638
  405SOL    HW3 1387   0.773   2.155   2.120 -1.6767  1.1007 -2.0855
  405SOL    MW4 1388   0.728   2.179   2.190  0.1016 -0.1370 -0.4130
  406SOL     OW 1389   1.745   1.958   3.645 -0.2652  0.2661 -0.5647
  406SOL    HW2 1390   1.758   1.879   3.592 -1.9109 -0.7882  0.5355
  406SOL    HW3 1391   1.822   2.012   3.625 -0.4609 -0.3325 -3.5027
  406SOL    MW4 1392   1.757   1.954   3.635 -0.5082  0.0480 -0.8072
  407SOL     OW 1393   5.789   6.167   5.107  0.4413  0.7830 -0.4693
  407SOL    HW2 1394   5.724   6.142   5.173  0.4358  0.3651 -0.6303
  407SOL    HW3 1395   5.813   6.085   5.065 -0.5843  1.2015 -1.9451
  407SOL    MW4 1396   5.784   6.153   5.110  0.3053  0.7830 -0.6853
  408SOL     OW 1397   1.440   3.477   0.579  0.4247 -0.2471 -0.3921
  408SOL    HW2 1398   1.356   3.433   0.567  1.2668 -2.4299  1.0425
  408SOL    HW3 1399   1.422   3.569   0.559 -2.0827 -0.7754 -0.9374
  408SOL    MW4 1400   1.426   3.483   0.575  0.2050 -0.6048 -0.2748
  409SOL     OW 1401   4.627   4.826   1.913  0.2581  0.0952 -0.3059
  409SOL    HW2 1402   4.546   4.871   1.887  0.4568  0.4628 -0.2973
  409SOL    HW3 1403   4.682   4.896   1.949 -0.3286 -0.5265  1.9074
  409SOL    MW4 1404   4.624   4.841   1.914  0.2069  0.0617 -0.0128
  410SOL     OW 1405   5.947   3.107   3.731  0.0343  0.4583  0.2258
  410SOL    HW2 1406   5.984   3.041   3.790 -1.0345  0.9828  1.5460
  410SOL    HW3 1407   5.860   3.074   3.709 -0.6217  1.5052  1.1195
  410SOL    MW4 1408   5.941   3.094   3.736 -0.1933  0.6656  0.5179
  411SOL     OW 1409   4.550   3.124   2.731 -0.0773 -0.4184 -0.9082
  411SOL    HW2 1410   4.610   3.155   2.663  0.4139  0.1078 -0.2503
  411SOL    HW3 1411   4.511   3.204   2.767 -2.8564 -0.8014 -2.7577
  411SOL    MW4 1412   4.553   3.139   2.727 -0.3792 -0.3995 -1.0654
  412SOL     OW 1413   5.554   1.362   4.854  0.2389 -0.0546 -0.0782
  412SOL    HW2 1414   5.556   1.336   4.762  1.2302  0.2517 -0.1546
  412SOL    HW3 1415   5.641   1.398   4.871  0.0600 -0.0801  0.9754
  412SOL    MW4 1416   5.566   1.364   4.844  0.3461 -0.0176  0.0507
  413SOL     OW 1417   3.608   1.950   0.534  0.3296  0.9129  0.1389
  413SOL    HW2 1418   3.585   2.005   0.459 -0.3202  0.2704 -0.1497
  413SOL    HW3 1419   3.542   1.971   0.600 -1.4026 -1.2050 -0.8228
  413SOL    MW4 1420   3.596   1.960   0.533  0.0153  0.5487 -0.0261
  414SOL     OW 1421   3.973   2.136   0.788 -0.1160 -0.4847 -0.5804
  414SOL    HW2 1422   3.917   2.062   0.765 -0.4118 -0.1613 -0.9012
  414SOL    HW3 1423   3.914   2.201   0.826 -0.0472  0.0702 -1.4129
  414SOL    MW4 1424   3.958   2.134   0.790 -0.1460 -0.3688 -0.7326
  415SOL     OW 1425   6.107   2.696   5.538  0.1032 -0.1066  0.0518
  415SOL    HW2 1426   6.015   2.721   5.525  0.5953  0.6134 -2.7726
  415SOL    HW3 1427   6.127   2.723   5.628 -2.4398 -0.3952  0.7886
  415SOL    MW4 1428   6.097   2.703   5.548 -0.1674 -0.0497 -0.2236
  416SOL     OW 1429   3.001   1.894   5.180 -0.3080 -0.3617  0.0649
  416SOL    HW2 1430   3.074   1.833   5.185  0.5477  0.4373 -1.7716
  416SOL    HW3 1431   3.039   1.979   5.201 -0.4150  0.2183 -1.8277
  416SOL    MW4 1432   3.016   1.897   5.183 -0.2092 -0.1798 -0.4271
  417SOL     OW 1433   5.632   6.317   2.913  0.3568  0.1803  0.1568
  417SOL    HW2 1434   5.616   6.353   3.000 -1.1032 -0.5993  0.2543
  417SOL    HW3 1435   5.610   6.388   2.853  0.6272  0.4808  0.4123
  417SOL    MW4 1436   5.627   6.331   2.917  0.1999  0.1170  0.2034
  418SOL     OW 1437   4.093   2.008   6.175  0.1553 -0.5307 -0.0331
  418SOL    HW2 1438   4.182   2.026   6.203  0.0541 -1.5423  1.0145
  418SOL    HW3 1439   4.039   2.025   6.252 -0.3049 -1.9037 -0.0132
  418SOL    MW4 1440   4.097   2.013   6.189  0.0812 -0.8453  0.1078
  419SOL     OW 1441   3.611   5.195   0.933 -0.0570  0.1539  0.2211
  419SOL    HW2 1442   3.654   5.216   0.851 -0.8483  0.2508 -0.1765
  419SOL    HW3 1443   3.520   5.176   0.909 -0.1988 -0.2398  1.0139
  419SOL    MW4 1444   3.605   5.195   0.919 -0.1801  0.1147  0.2732
  420SOL     OW 1445   0.438   2.614   1.324 -0.3838  0.4317 -0.1157
  420SOL    HW2 1446   0.529   2.617   1.294 -0.4659  0.4458 -0.3667
  420SOL    HW3 1447   0.388   2.654   1.253 -1.0992 -3.2094 -1.9259
  420SOL    MW4 1448   0.444   2.620   1.311 -0.4890 -0.0468 -0.3877
  421SOL     OW 1449   0.687   2.405   4.711 -0.5167 -0.3574  0.4775
  421SOL    HW2 1450   0.756   2.399   4.776  1.6147 -1.2073 -1.6885
  421SOL    HW3 1451   0.668   2.498   4.703 -0.0251 -0.1596  1.5036
  421SOL    MW4 1452   0.694   2.416   4.718 -0.1706 -0.4434  0.3271
  422SOL     OW 1453   5.383   5.641   1.794 -0.1570  0.0368  0.1064
  422SOL    HW2 1454   5.415   5.598   1.714  1.7177 -0.2357  0.9327
  422SOL    HW3 1455   5.417   5.730   1.788  0.0807 -0.0169  0.6432
  422SOL    MW4 1456   5.392   5.647   1.782  0.1217 -0.0062  0.2862
  423SOL     OW 1457   3.381   4.101   6.077 -0.4981 -0.0933  0.2435
  423SOL    HW2 1458   3.309   4.089   6.015  1.2541 -2.8292 -1.5378
  423SOL    HW3 1459   3.419   4.185   6.054 -1.2167 -0.0678 -0.9446
  423SOL    MW4 1460   3.376   4.110   6.065 -0.3617 -0.4509 -0.1482
  424SOL     OW 1461   2.999   5.900   2.299 -0.2522  0.0231 -0.0126
  424SOL    HW2 1462   3.019   5.812   2.265 -0.8903  0.6900 -2.2856
  424SOL    HW3 1463   2.912   5.891   2.337  0.0973 -0.5420  0.6819
  424SOL    MW4 1464   2.990   5.887   2.300 -0.2903  0.0366 -0.2209
  425SOL     OW 1465   5.896   1.541   5.582 -0.5713  0.3673 -0.2888
  425SOL    HW2 1466   5.890   1.546   5.487  0.3063  2.2130 -0.2987
  425SOL    HW3 1467   5.868   1.627   5.613  2.5423  1.1157  0.8448
  425SOL    MW4 1468   5.892   1.553   5.574 -0.0447  0.7096 -0.1405
  426SOL     OW 1469   2.454   1.799   6.260 -0.8786  0.3502  0.4388
  426SOL    HW2 1470   2.424   1.823   6.172  0.1614  1.7703  0.4297
  426SOL    HW3 1471   2.374   1.794   6.312 -1.5750 -1.1605 -0.7111
  426SOL    MW4 1472   2.439   1.802   6.255 -0.8333  0.3382  0.2859
  427SOL     OW 1473   0.182   5.767   4.936 -0.7572  0.1494  0.0747
  427SOL    HW2 1474   0.244   5.794   4.868  1.5996  1.7553  2.6640
  427SOL    HW3 1475   0.156   5.848   4.979 -1.9546 -0.8512  1.3364
  427SOL    MW4 1476   0.187   5.781   4.932 -0.6042  0.2293  0.5828
  428SOL     OW 1477   1.361   3.212   2.185 -0.0994 -0.2640  0.1589
  428SOL    HW2 1478   1.335   3.151   2.253 -0.6901 -0.8998 -0.6112
  428SOL    HW3 1479   1.287   3.272   2.176 -0.2767 -0.5421 -0.3107
  428SOL    MW4 1480   1.348   3.212   2.193 -0.2007 -0.3846 -0.0047
  429SOL     OW 1481   4.452   0.285   6.204  0.3760 -0.2720 -0.2905
  429SOL    HW2 1482   4.488   0.360   6.252 -0.5836  1.0212 -1.5020
  429SOL    HW3 1483   4.524   0.222   6.200  0.6890 -0.1905  2.2674
  429SOL    MW4 1484   4.466   0.287   6.210  0.2907 -0.0906 -0.1129
  430SOL     OW 1485   0.906   0.085   4.873 -0.6625  0.2016 -0.4031
  430SOL    HW2 1486   0.894  -0.004   4.908  0.2101  0.0405 -0.4821
  430SOL    HW3 1487   0.851   0.088   4.795 -0.6290 -0.3004 -0.4510
  430SOL    MW4 1488   0.897   0.073   4.868 -0.5429  0.1141 -0.4199
  431SOL     OW 1489   2.571   1.958   5.762  0.1385 -0.1994 -0.1731
  431SOL    HW2 1490   2.553   2.032   5.704 -1.7278  0.5442  1.2736
  431SOL    HW3 1491   2.614   1.893   5.705 -2.5396  0.0454 -2.6999
  431SOL    MW4 1492   2.575   1.959   5.746 -0.4611 -0.0690 -0.3156
  432SOL     OW 1493   3.571   4.505   0.912  0.0193  0.6866 -0.0242
  432SOL    HW2 1494   3.514   4.441   0.954  1.9405  0.3152  2.1904
  432SOL    HW3 1495   3.548   4.588   0.953  0.3244  0.7255  0.0678
  432SOL    MW4 1496   3.561   4.508   0.923  0.3130  0.6427  0.2801
  433SOL     OW 1497   2.018   4.360   1.229  0.9313 -0.1735  0.2644
  433SOL    HW2 1498   1.962   4.437   1.234 -2.3422 -2.3942  1.7972
  433SOL    HW3 1499   2.095   4.381   1.282 -0.6725  1.4629  2.0676
  433SOL    MW4 1500   2.021   4.373   1.236  0.2878 -0.2506  0.7046
  434SOL     OW 1501   5.569   5.534   2.532 -0.4470  0.4633  0.2384
  434SOL    HW2 1502   5.561   5.546   2.437 -1.4300 -0.8298  0.1289
  434SOL    HW3 1503   5.574   5.622   2.567 -1.2126  0.9959 -0.9336
  434SOL    MW4 1504   5.569   5.547   2.524 -0.6777  0.3629  0.0693
  435SOL     OW 1505   5.356   6.307   3.918  0.3525  0.6184  0.2763
  435SOL    HW2 1506   5.340   6.219   3.952  1.5220  0.7408  1.1860
  435SOL    HW3 1507   5.348   6.364   3.994 -1.2026  1.4323 -0.4447
  435SOL    MW4 1508   5.353   6.303   3.932  0.3016  0.7419  0.3012
  436SOL     OW 1509   4.995   1.858   4.312 -0.1182 -0.5068 -0.3035
  436SOL    HW2 1510   5.036   1.892   4.392  0.5899  0.2191 -0.9546
  436SOL    HW3 1511   5.014   1.924   4.245 -1.1348 -0.8573 -0.9640
  436SOL    MW4 1512   5.003   1.871   4.314 -0.1589 -0.4573 -0.4765
  437SOL     OW 1513   0.626   2.634   2.600 -0.1678  0.4857 -0.5004
  437SOL    HW2 1514   0.648   2.675   2.684 -0.1373  3.1224 -1.6957
  437SOL    HW3 1515   0.599   2.707   2.544 -1.5548 -1.3457 -2.3888
  437SOL    MW4 1516   0.625   2.649   2.604 -0.3467  0.5919 -0.9073
  438SOL     OW 1517   6.179   3.077   3.334 -0.2257  0.5848 -0.0743
  438SOL    HW2 1518   6.181   3.162   3.290 -0.8386 -0.0960 -1.4851
  438SOL    HW3 1519   6.104   3.032   3.295 -0.9307  0.0151  1.8621
  438SOL    MW4 1520   6.170   3.082   3.323 -0.3996  0.4198 -0.0049
  439SOL     OW 1521   2.276   0.631   0.524  0.2112 -0.1791  0.6984
  439SOL    HW2 1522   2.360   0.593   0.499  0.7697  0.2825  1.7985
  439SOL    HW3 1523   2.222   0.624   0.445  0.8429 -1.6694  0.3632
  439SOL    MW4 1524   2.280   0.625   0.510  0.3682 -0.3148  0.7993
  440SOL     OW 1525   1.649   1.658   1.436 -0.6098  0.1381 -0.0968
  440SOL    HW2 1526   1.614   1.585   1.487  1.6531 -0.3707  0.8575
  440SOL    HW3 1527   1.696   1.616   1.364 -2.9655  0.8326 -2.1948
  440SOL    MW4 1528   1.650   1.643   1.433 -0.6221  0.1626 -0.2477
  441SOL     OW 1529   0.585   6.096   0.689  0.1495  0.0819  0.3974
  441SOL    HW2 1530   0.663   6.048   0.661 -0.2558 -0.7594  0.6918
  441SOL    HW3 1531   0.583   6.087   0.784 -1.3857 -1.6434  0.2575
  441SOL    MW4 1532   0.595   6.089   0.698 -0.1065 -0.2567  0.4178
  442SOL     OW 1533   4.417   5.337   4.655 -0.3637  0.3613 -0.0491
  442SOL    HW2 1534   4.490   5.398   4.639 -1.0341  1.8962  2.2315
  442SOL    HW3 1535   4.355   5.354   4.584  1.3282 -0.8414 -1.9268
  442SOL    MW4 1536   4.419   5.348   4.644 -0.2289  0.4051  0.0041
  443SOL     OW 1537   1.737   6.246   4.076  0.0611  0.3618  0.2149
  443SOL    HW2 1538   1.828   6.276   4.079  0.1977 -0.1252  1.1448
  443SOL    HW3 1539   1.725   6.196   4.156  0.0590 -2.7363 -1.5582
  443SOL    MW4 1540   1.747   6.244   4.087  0.0788 -0.1112  0.1037
  444SOL     OW 1541   1.002   1.634   4.103  0.2349  0.2751 -0.2430
  444SOL    HW2 1542   0.910   1.657   4.121  1.0910  3.2763  0.9332
  444SOL    HW3 1543   1.031   1.588   4.182  0.0433  0.3318 -0.1377
  444SOL    MW4 1544   0.993   1.631   4.116  0.3226  0.6785 -0.0740
  445SOL     OW 1545   1.381   2.258   6.174 -0.8098 -0.0986  0.0094
  445SOL    HW2 1546   1.288   2.255   6.194 -1.2106  0.6343 -1.5467
  445SOL    HW3 1547   1.424   2.276   6.258 -2.1925  0.9869  0.5182
  445SOL    MW4 1548   1.374   2.260   6.188 -1.0451  0.1413 -0.1288
  446SOL     OW 1549   0.503   2.250   1.200 -0.0451 -0.2046 -0.2687
  446SOL    HW2 1550   0.474   2.159   1.200 -1.3781  0.1939  0.6732
  446SOL    HW3 1551   0.425   2.300   1.177  0.6697  0.7002 -0.7564
  446SOL    MW4 1552   0.489   2.245   1.197 -0.1267 -0.0327 -0.2088
  447SOL     OW 1553   2.599   1.175   4.701  0.5449 -0.1280 -0.2846
  447SOL    HW2 1554   2.532   1.107   4.693 -1.4247  1.8242 -1.5374
  447SOL    HW3 1555   2.632   1.166   4.791  0.4678 -2.7645 -0.4689
  447SOL    MW4 1556   2.595   1.165   4.712  0.2749 -0.2183 -0.4742
  448SOL     OW 1557   1.962   3.296   1.033 -0.0231 -0.4946  0.5261
  448SOL    HW2 1558   1.950   3.216   0.980 -0.0979  1.2653 -2.3567
  448SOL    HW3 1559   1.885   3.349   1.014  0.7654  0.9032  1.0865
  448SOL    MW4 1560   1.951   3.292   1.023  0.0711 -0.0780  0.2197
  449SOL     OW 1561   2.577   2.051   4.795 -0.0411 -0.3737  0.3007
  449SOL    HW2 1562   2.552   1.973   4.844  1.1496 -0.6289  0.5348
  449SOL    HW3 1563   2.548   2.124   4.850 -1.7745 -0.6104 -0.2331
  449SOL    MW4 1564   2.570   2.050   4.809 -0.1127 -0.4386  0.2612
  450SOL     OW 1565   3.040   1.600   1.554  0.5694  0.1310 -0.3533
  450SOL    HW2 1566   2.971   1.568   1.612  0.8451  0.2820  0.0668
  450SOL    HW3 1567   3.103   1.641   1.613 -0.0342  1.9553 -0.9129
  450SOL    MW4 1568   3.039   1.601   1.570  0.5261  0.3916 -0.3717
  451SOL     OW 1569   5.760   5.701   5.869 -0.1068  0.1163  0.0961
  451SOL    HW2 1570   5.693   5.632   5.868  2.5725 -2.6895 -0.2537
  451SOL    HW3 1571   5.776   5.717   5.962  0.5233 -1.1316  0.2219
  451SOL    MW4 1572   5.753   5.694   5.881  0.3298 -0.4186  0.0665
  452SOL     OW 1573   1.730   0.311   6.159 -0.2215  0.0838  0.3522
  452SOL    HW2 1574   1.744   0.402   6.133  0.7540 -0.5932 -1.7160
  452SOL    HW3 1575   1.640   0.309   6.191  0.0228  1.9236  1.2691
  452SOL    MW4 1576   1.720   0.322   6.160 -0.0605  0.2372  0.2003
  453SOL     OW 1577   4.346   4.791   1.438 -0.0251  0.3760 -0.4054
  453SOL    HW2 1578   4.331   4.697   1.451 -0.6373 -0.0492 -3.4144
  453SOL    HW3 1579   4.317   4.808   1.349 -1.5391  3.8202  0.5711
  453SOL    MW4 1580   4.340   4.781   1.428 -0.3056  0.7743 -0.6735
  454SOL     OW 1581   0.183   5.180   0.608 -0.3790  0.0533  0.0842
  454SOL    HW2 1582   0.229   5.237   0.669  0.3651  1.2168 -1.4937
  454SOL    HW3 1583   0.250   5.151   0.546 -1.1697 -0.7938 -0.4065
  454SOL    MW4 1584   0.198   5.183   0.608 -0.3851  0.0951 -0.1887
  455SOL     OW 1585   5.213   2.660   2.169  0.7012  0.3038 -0.2236
  455SOL    HW2 1586   5.274   2.586   2.171 -0.5557 -0.7668 -0.5944
  455SOL    HW3 1587   5.153   2.643   2.241  1.5488  2.0211  0.9623
  455SOL    MW4 1588   5.213   2.648   2.179  0.6472  0.3891 -0.1161
  456SOL     OW 1589   6.032   0.033   3.712  0.3067  0.2344 -0.4215
  456SOL    HW2 1590   6.075   0.053   3.629 -0.3831 -0.6882 -1.0211
  456SOL    HW3 1591   6.069   0.096   3.774  1.5303  0.3195 -1.2076
  456SOL    MW4 1592   6.042   0.044   3.709  0.3771  0.1239 -0.6043
  457SOL     OW 1593   4.149   5.289   5.437  0.6014 -0.1884  0.0305
  457SOL    HW2 1594   4.192   5.234   5.371 -0.3462  0.9418 -1.6221
  457SOL    HW3 1595   4.178   5.378   5.415  1.0452  0.1291  1.7957
  457SOL    MW4 1596   4.159   5.294   5.425  0.5350  0.0027  0.0454
  458SOL     OW 1597   5.520   0.101   1.237 -0.0669 -1.2507  0.2300
  458SOL    HW2 1598   5.471   0.184   1.234 -0.2463 -1.3098  1.2869
  458SOL    HW3 1599   5.609   0.125   1.210 -0.3750 -0.9233 -0.5310
  458SOL    MW4 1600   5.525   0.115   1.233 -0.1312 -1.2153  0.2691
  459SOL     OW 1601   2.116   1.027   4.324 -0.1078 -0.2292 -0.2464
  459SOL    HW2 1602   2.033   1.022   4.372 -0.3971  2.9185 -0.1975
  459SOL    HW3 1603   2.168   0.954   4.358 -2.3973 -1.6058  0.5502
  459SOL    MW4 1604   2.112   1.016   4.334 -0.4480  0.0045 -0.1349
  460SOL     OW 1605   0.970   0.966   2.865  0.4373  0.3939  0.2389
  460SOL    HW2 1606   0.905   0.936   2.801 -0.0165  1.6056  0.1057
  460SOL    HW3 1607   1.022   1.032   2.818  0.7825  0.5281  0.7952
  460SOL    MW4 1608   0.968   0.971   2.851  0.4230  0.5715  0.2948
  461SOL     OW 1609   1.992   4.355   2.267  0.8624  0.0641 -0.0689
  461SOL    HW2 1610   1.906   4.346   2.307  1.2282  0.2032  0.7776
  461SOL    HW3 1611   2.033   4.270   2.279  0.1140 -0.6849 -2.3114
  461SOL    MW4 1612   1.986   4.343   2.274  0.8119 -0.0163 -0.2531
  462SOL     OW 1613   4.622   5.891   6.131 -0.7886  0.0761 -0.7299
  462SOL    HW2 1614   4.629   5.837   6.210  0.1848  0.1090 -0.7816
  462SOL    HW3 1615   4.712   5.918   6.113 -0.9341 -0.3433 -2.1467
  462SOL    MW4 1616   4.635   5.887   6.139 -0.6794  0.0251 -0.9236
  463SOL     OW 1617   1.792   3.759   4.165  0.0672 -0.0812 -0.1463
  463SOL    HW2 1618   1.770   3.707   4.087 -0.4806  0.3585 -0.2909
  463SOL    HW3 1619   1.739   3.838   4.157  0.3772  0.1922  0.4273
  463SOL    MW4 1620   1.782   3.763   4.153  0.0358  0.0129 -0.0897
  464SOL     OW 1621   2.078   2.315   3.809 -0.5774 -0.6686  0.4378
  464SOL    HW2 1622   2.042   2.248   3.751 -1.0417  0.0406 -0.0930
  464SOL    HW3 1623   2.085   2.393   3.755  1.9580 -0.8059  0.4376
  464SOL    MW4 1624   2.074   2.316   3.794 -0.3041 -0.5931  0.3677
  465SOL     OW 1625   5.040   5.681   2.828 -0.2613 -0.5150 -0.4977
  465SOL    HW2 1626   4.975   5.688   2.758 -1.4952 -0.5909  0.6068
  465SOL    HW3 1627   5.079   5.768   2.834 -2.4900  0.4842  0.8688
  465SOL    MW4 1628   5.036   5.694   2.820 -0.7181 -0.3932 -0.1717
  466SOL     OW 1629   3.280   2.280   3.725  0.1386  0.2262  0.5872
  466SOL    HW2 1630   3.314   2.336   3.656 -2.0132 -0.6468 -1.3071
  466SOL    HW3 1631   3.219   2.335   3.774  0.2237  0.3268  0.5790
  466SOL    MW4 1632   3.277   2.294   3.722 -0.1341  0.1243  0.3362
  467SOL     OW 1633   2.382   4.699   0.829 -0.4064  0.3978 -0.1057
  467SOL    HW2 1634   2.425   4.725   0.910  2.0976 -1.0242 -0.8928
  467SOL    HW3 1635   2.430   4.745   0.760  0.5786 -1.9363 -1.0834
  467SOL    MW4 1636   2.394   4.709   0.830  0.0539 -0.0977 -0.3385
  468SOL     OW 1637   1.424   6.458   3.497 -0.1602  0.3838  0.2371
  468SOL    HW2 1638   1.331   6.435   3.498 -0.0596 -0.0232  0.2150
  468SOL    HW3 1639   1.432   6.530   3.559 -0.1312 -0.9703  1.8568
  468SOL    MW4 1640   1.413   6.464   3.505 -0.1431  0.1514  0.4479
  469SOL     OW 1641   0.151   3.455   2.165 -0.4297  0.1496 -0.5782
  469SOL    HW2 1642   0.107   3.462   2.250 -0.2123 -0.6341 -0.3980
  469SOL    HW3 1643   0.165   3.546   2.139 -0.0369  0.4046  0.4692
  469SOL    MW4 1644   0.147   3.468   2.173 -0.3492  0.0799 -0.4162
  470SOL     OW 1645   0.452   2.321   5.852  0.2092 -0.1994 -0.1377
  470SOL    HW2 1646   0.411   2.246   5.895  1.0717 -0.0609  0.9873
  470SOL    HW3 1647   0.478   2.378   5.924  0.8771  0.4817 -0.8996
  470SOL    MW4 1648   0.450   2.318   5.867  0.4111 -0.0913 -0.0898
  471SOL     OW 1649   5.201   1.530   2.035  0.0932 -0.0285 -0.0108
  471SOL    HW2 1650   5.271   1.518   2.099 -2.0471 -2.0933  2.1698
  471SOL    HW3 1651   5.211   1.457   1.974  1.1394  0.9862 -1.0908
  471SOL    MW4 1652   5.211   1.519   2.036 -0.0511 -0.1670  0.1344
  472SOL     OW 1653   0.342   5.693   0.527 -0.3712  0.0192 -0.1319
  472SOL    HW2 1654   0.328   5.788   0.527 -1.8649 -0.1378  2.0292
  472SOL    HW3 1655   0.409   5.679   0.459 -0.3049  2.5596 -0.6971
  472SOL    MW4 1656   0.349   5.704   0.518 -0.5595  0.3337  0.0787
  473SOL     OW 1657   1.391   4.396   0.626 -0.1352 -0.3260  0.1202
  473SOL    HW2 1658   1.351   4.415   0.541 -0.5038 -0.1528  0.3294
  473SOL    HW3 1659   1.431   4.310   0.615 -1.0195 -0.7391  0.0609
  473SOL    MW4 1660   1.391   4.387   0.613 -0.3005 -0.3577  0.1399
  474SOL     OW 1661   6.066   4.669   4.896  0.5536 -0.0813  0.0248
  474SOL    HW2 1662   6.133   4.725   4.857 -1.0902  0.4912 -2.2112
  474SOL    HW3 1663   6.083   4.672   4.990  1.8180  2.4438 -0.2029
  474SOL    MW4 1664   6.077   4.676   4.903  0.5035  0.3274 -0.3002
  475SOL     OW 1665   3.193   3.862   4.080  0.0450 -0.3506  0.4097
  475SOL    HW2 1666   3.221   3.863   3.989 -0.5017 -0.4617  0.2354
  475SOL    HW3 1667   3.121   3.926   4.084 -1.1141 -1.6028  0.3582
  475SOL    MW4 1668   3.187   3.871   4.069 -0.1801 -0.5305  0.3799
  476SOL     OW 1669   2.226   1.858   5.247 -0.1314  0.0052  0.5306
  476SOL    HW2 1670   2.276   1.928   5.291  1.6564 -1.1454  0.4288
  476SOL    HW3 1671   2.265   1.853   5.159 -1.1112 -0.2805  0.1039
  476SOL    MW4 1672   2.238   1.867   5.241 -0.0248 -0.1843  0.4609
  477SOL     OW 1673   3.029   2.401   5.910  0.4965 -0.2114  0.0598
  477SOL    HW2 1674   3.103   2.340   5.915  0.3428 -0.3448  0.7902
  477SOL    HW3 1675   3.058   2.478   5.959  1.0418  0.7029 -1.6205
  477SOL    MW4 1676   3.043   2.403   5.917  0.5481 -0.1084 -0.0655
  478SOL     OW 1677   2.843   5.108   1.892  0.0738 -0.0497  0.2525
  478SOL    HW2 1678   2.891   5.180   1.852  1.8568 -2.0261 -1.4805
  478SOL    HW3 1679   2.901   5.076   1.962 -0.8858  0.4198  1.2905
  478SOL    MW4 1680   2.857   5.113   1.896  0.1824 -0.2485  0.1608
  479SOL     OW 1681   2.174   4.305   3.930  0.8600  0.6692  0.1631
  479SOL    HW2 1682   2.138   4.385   3.891 -0.4826 -0.5101 -1.1791
  479SOL    HW3 1683   2.265   4.302   3.900  0.1549  0.3318 -2.1590
  479SOL    MW4 1684   2.181   4.315   3.921  0.5899  0.4691 -0.3203
  480SOL     OW 1685   4.728   3.843   6.251 -0.5960  0.3773 -0.1521
  480SOL    HW2 1686   4.802   3.831   6.310 -1.4568 -0.1748  0.8533
  480SOL    HW3 1687   4.768   3.853   6.165  0.5793 -1.6933  0.0982
  480SOL    MW4 1688   4.743   3.843   6.248 -0.5545  0.0313  0.0136
  481SOL     OW 1689   2.249   3.312   2.585 -0.3551  0.3817  0.3266
  481SOL    HW2 1690   2.262   3.290   2.677  0.2324  0.2583  0.2148
  481SOL    HW3 1691   2.336   3.313   2.547 -0.4735  1.6042  0.0252
  481SOL    MW4 1692   2.262   3.310   2.592 -0.2932  0.5267  0.2721
  482SOL     OW 1693   2.736   3.700   3.170 -0.1996 -0.1540  0.2902
  482SOL    HW2 1694   2.810   3.662   3.123  0.0325 -0.7221  1.1111
  482SOL    HW3 1695   2.670   3.715   3.102  0.4290 -0.2170 -0.3440
  482SOL    MW4 1696   2.737   3.697   3.155 -0.0860 -0.2373  0.3148
  483SOL     OW 1697   0.172   2.463   0.236 -0.2073  0.1934 -0.0572
  483SOL    HW2 1698   0.169   2.369   0.219  1.0039  0.2521 -0.6402
  483SOL    HW3 1699   0.191   2.470   0.330 -0.9111 -0.1287  0.1174
  483SOL    MW4 1700   0.174   2.452   0.246 -0.1404  0.1586 -0.1111
  484SOL     OW 1701   1.452   5.470   4.380  0.8064  0.4468  0.3317
  484SOL    HW2 1702   1.406   5.544   4.419 -2.0481 -0.9619 -0.0531
  484SOL    HW3 1703   1.483   5.419   4.455 -2.0743 -0.7254  0.8503
  484SOL    MW4 1704   1.450   5.473   4.395  0.0497  0.1063  0.3494
  485SOL     OW 1705   0.564   4.490   3.049  0.2566  0.1059  0.1250
  485SOL    HW2 1706   0.496   4.494   3.117  1.0074 -0.0320  0.8989
  485SOL    HW3 1707   0.558   4.401   3.015  0.6504 -0.1989  0.8351
  485SOL    MW4 1708   0.554   4.479   3.054  0.4076  0.0475  0.3208
  486SOL     OW 1709   2.702   1.820   3.694  0.5205  0.2541  0.2293
  486SOL    HW2 1710   2.781   1.772   3.669  0.5952  0.2302  0.5072
  486SOL    HW3 1711   2.631   1.773   3.653  0.7621  1.0890 -1.2250
  486SOL    MW4 1712   2.703   1.808   3.685  0.5622  0.3611  0.0741
  487SOL     OW 1713   4.007   2.354   3.405  0.2218  0.0219  1.0502
  487SOL    HW2 1714   3.995   2.439   3.362  0.2183 -0.1293  0.7505
  487SOL    HW3 1715   3.921   2.335   3.443 -0.1017 -0.3859  0.1325
  487SOL    MW4 1716   3.994   2.363   3.404  0.1786 -0.0519  0.8896
  488SOL     OW 1717   3.216   4.868   5.156 -0.0357  0.5326  0.8294
  488SOL    HW2 1718   3.183   4.931   5.091  0.3426  0.0579  0.1577
  488SOL    HW3 1719   3.185   4.901   5.240 -2.1312  0.1995  0.2639
  488SOL    MW4 1720   3.207   4.881   5.158 -0.2622  0.4260  0.6662
  489SOL     OW 1721   0.497   5.381   3.958  0.3360  0.0033  0.1909
  489SOL    HW2 1722   0.546   5.309   3.998  1.3323  1.6703  2.1434
  489SOL    HW3 1723   0.532   5.388   3.869  1.2762 -0.9527  0.4676
  489SOL    MW4 1724   0.508   5.372   3.952  0.5915  0.0971  0.4850
  490SOL     OW 1725   1.264   0.504   1.913  0.0827 -0.0465  0.5671
  490SOL    HW2 1726   1.245   0.537   1.825  0.2295  0.8841  0.8683
  490SOL    HW3 1727   1.194   0.441   1.931 -0.9229  0.9954  0.4309
  490SOL    MW4 1728   1.252   0.500   1.903 -0.0306  0.2137  0.5889
  491SOL     OW 1729   5.076   0.906   0.401  0.2024  0.1030 -0.3671
  491SOL    HW2 1730   5.056   0.900   0.307 -1.4918 -0.5285 -0.0055
  491SOL    HW3 1731   5.157   0.856   0.412  0.0378 -0.4111 -1.3909
  491SOL    MW4 1732   5.084   0.899   0.390 -0.0428 -0.0482 -0.4544
  492SOL     OW 1733   5.741   3.818   4.140  0.1319  0.1003  0.1359
  492SOL    HW2 1734   5.810   3.756   4.163 -0.0504  0.0658  0.5848
  492SOL    HW3 1735   5.783   3.878   4.078  0.4485 -0.1670  0.0886
  492SOL    MW4 1736   5.756   3.818   4.135  0.1496  0.0605  0.1889
  493SOL     OW 1737   1.940   0.625   4.185 -0.0032 -0.1063  0.2945
  493SOL    HW2 1738   1.959   0.660   4.272 -1.8702 -1.1867  1.2186
  493SOL    HW3 1739   1.968   0.694   4.124  0.3994  1.1204  1.8031
  493SOL    MW4 1740   1.946   0.639   4.188 -0.1964 -0.0870  0.6154
  494SOL     OW 1741   5.791   3.557   3.438 -0.6927  0.2454 -0.3444
  494SOL    HW2 1742   5.751   3.478   3.402  0.4833  0.1038 -1.4211
  494SOL    HW3 1743   5.822   3.605   3.361  0.3592  0.7860  0.3980
  494SOL    MW4 1744   5.790   3.553   3.423 -0.3988  0.2981 -0.3885
  495SOL     OW 1745   2.455   1.073   2.639  0.5204 -0.2673  0.0899
  495SOL    HW2 1746   2.469   1.043   2.729  2.4442 -0.7374 -0.3063
  495SOL    HW3 1747   2.397   1.007   2.601  0.9028 -0.9107  0.5827
  495SOL    MW4 1748   2.449   1.060   2.646  0.8247 -0.4142  0.1027
  496SOL     OW 1749   1.682   5.669   3.637 -0.0919 -0.2302  0.4353
  496SOL    HW2 1750   1.605   5.651   3.692  0.7130 -2.3935  0.9604
  496SOL    HW3 1751   1.689   5.764   3.636 -2.6101  0.0387  0.5833
  496SOL    MW4 1752   1.672   5.679   3.644 -0.3180 -0.4802  0.5241
  497SOL     OW 1753   5.285   3.129   2.395 -0.1218  0.3270 -0.2349
  497SOL    HW2 1754   5.347   3.131   2.322  0.4825  0.0132  0.2659
  497SOL    HW3 1755   5.232   3.051   2.378  0.3880 -0.0667 -0.0409
  497SOL    MW4 1756   5.286   3.119   2.383  0.0252  0.2337 -0.1432
  498SOL     OW 1757   5.999   1.343   4.914  0.2768 -1.0249  0.1627
  498SOL    HW2 1758   5.933   1.412   4.905  1.1829 -0.0697  0.5665
  498SOL    HW3 1759   6.005   1.328   5.009  3.5734  1.9642  0.6423
  498SOL    MW4 1760   5.991   1.350   4.926  0.8313 -0.5045  0.2792
  499SOL     OW 1761   3.676   5.547   1.700  0.3404 -0.0680 -0.1285
  499SOL    HW2 1762   3.591   5.592   1.706  0.0786 -0.7029  2.9746
  499SOL    HW3 1763   3.741   5.616   1.712  0.3364  0.4292 -2.5658
  499SOL    MW4 1764   3.673   5.562   1.703  0.3053 -0.0862 -0.0407
  500SOL     OW 1765   3.124   2.485   5.600 -0.5775 -0.4596  0.4746
  500SOL    HW2 1766   3.057   2.418   5.585 -0.7322 -0.5286  1.4172
  500SOL    HW3 1767   3.204   2.436   5.619 -0.7584 -0.3873  1.4560
  500SOL    MW4 1768   3.126   2.470   5.600 -0.6218 -0.4592  0.7284
  501SOL     OW 1769   3.220   3.465   6.363 -0.6398 -0.2577 -0.2255
  501SOL    HW2 1770   3.202   3.433   6.452 -1.4333  2.5367  0.7489
  501SOL    HW3 1771   3.137   3.503   6.335  0.3447  1.4529 -0.9656
  501SOL    MW4 1772   3.207   3.466   6.371 -0.6146  0.3367 -0.1946
  502SOL     OW 1773   2.746   0.273   5.224 -0.3534 -0.1511  0.1050
  502SOL    HW2 1774   2.751   0.208   5.154 -0.2272 -0.3257  0.2754
  502SOL    HW3 1775   2.665   0.320   5.206  0.0217  0.2607 -0.5515
  502SOL    MW4 1776   2.736   0.270   5.212 -0.2873 -0.1198  0.0409
  503SOL     OW 1777   0.043   4.732   4.961 -0.0198 -0.1127 -0.2184
  503SOL    HW2 1778   0.031   4.646   4.920 -0.3039  0.1824 -0.7673
  503SOL    HW3 1779   0.133   4.756   4.938  0.2426 -0.4943  0.3872
  503SOL    MW4 1780   0.053   4.724   4.952 -0.0227 -0.1241 -0.2109
  504SOL     OW 1781   0.526   0.089   5.402  0.4093  0.3372 -0.0077
  504SOL    HW2 1782   0.463   0.155   5.371  1.7195  1.2873 -0.7830
  504SOL    HW3 1783   0.527   0.023   5.332  1.2147  1.0002 -0.6501
  504SOL    MW4 1784   0.518   0.089   5.388  0.6884  0.5500 -0.1947
  505SOL     OW 1785   5.090   1.357   4.470  0.2092  0.4011  0.5399
  505SOL    HW2 1786   5.089   1.411   4.549  2.4816  0.8131  0.3461
  505SOL    HW3 1787   5.097   1.420   4.398 -1.1955 -0.0021  0.0256
  505SOL    MW4 1788   5.091   1.373   4.471  0.3237  0.4023  0.4464
  506SOL     OW 1789   0.115   5.745   2.145  0.0651  0.4784  0.1571
  506SOL    HW2 1790   0.077   5.818   2.193  1.2428 -0.4401  2.6490
  506SOL    HW3 1791   0.203   5.774   2.122  0.7270 -0.2772  1.6155
  506SOL    MW4 1792   0.122   5.758   2.148  0.3078  0.2575  0.6783
  507SOL     OW 1793   1.514   0.456   5.681  0.6002  0.7305 -0.2796
  507SOL    HW2 1794   1.502   0.361   5.683  1.8675  0.5620  0.6159
  507SOL    HW3 1795   1.425   0.491   5.675 -0.2410 -0.4559  2.9137
  507SOL    MW4 1796   1.501   0.448   5.680  0.6564  0.5518  0.2599
  508SOL     OW 1797   5.300   5.778   5.999 -0.3578  0.2995 -0.1902
  508SOL    HW2 1798   5.361   5.740   5.936  0.4557  0.9090  0.2083
  508SOL    HW3 1799   5.323   5.871   6.002 -0.2528  0.2583  1.1081
  508SOL    MW4 1800   5.311   5.785   5.991 -0.2366  0.3745  0.0337
  509SOL     OW 1801   4.058   1.148   5.287  0.2234  0.2234 -0.2534
  509SOL    HW2 1802   4.146   1.170   5.318  0.9728 -0.8797 -1.5307
  509SOL    HW3 1803   4.040   1.062   5.325  0.1328 -0.0260 -0.8567
  509SOL    MW4 1804   4.067   1.140   5.296  0.3103  0.0449 -0.5015
  510SOL     OW 1805   2.131   3.038   5.440  0.3603  0.2841 -0.2963
  510SOL    HW2 1806   2.104   3.123   5.404  1.0223 -0.0120 -1.5574
  510SOL    HW3 1807   2.218   3.023   5.405  0.2901 -0.8852 -0.0259
  510SOL    MW4 1808   2.139   3.047   5.431  0.4384  0.0907 -0.4270
  511SOL     OW 1809   2.575   5.050   4.842  0.6782  0.7168  0.0883
  511SOL    HW2 1810   2.625   5.042   4.761  2.6058  1.6728  1.1113
  511SOL    HW3 1811   2.571   4.961   4.877 -2.0771 -0.1431 -2.0104
  511SOL    MW4 1812   2.581   5.037   4.836  0.5690  0.7295 -0.0536
  512SOL     OW 1813   3.366   1.953   0.115 -0.8576  0.4483  0.9226
  512SOL    HW2 1814   3.356   1.859   0.099  0.1847  0.3607  0.7344
  512SOL    HW3 1815   3.378   1.992   0.029 -1.6073  0.8113  0.9696
  512SOL    MW4 1816   3.366   1.946   0.102 -0.8190  0.4846  0.9039
  513SOL     OW 1817   6.227   5.513   0.057 -0.2376 -0.4545  0.1796
  513SOL    HW2 1818   6.157   5.514  -0.009 -1.1363  2.9708  0.9378
  513SOL    HW3 1819   6.181   5.504   0.141  0.4028 -0.1520  0.5726
  513SOL    MW4 1820   6.212   5.512   0.059 -0.2717  0.0373  0.3315
  514SOL     OW 1821   4.526   1.101   0.027 -0.2624  0.1031 -0.4730
  514SOL    HW2 1822   4.435   1.133   0.023 -0.7056 -0.9215  0.8197
  514SOL    HW3 1823   4.529   1.033  -0.040 -0.0121  1.1228 -1.5279
  514SOL    MW4 1824   4.514   1.096   0.018 -0.2879  0.1025 -0.4416
  515SOL     OW 1825   1.034   4.419   6.379 -0.7221 -0.4664  0.0675
  515SOL    HW2 1826   1.102   4.388   6.439 -0.9829 -0.2627  0.4768
  515SOL    HW3 1827   0.965   4.452   6.437 -1.4720 -1.3098 -0.3209
  515SOL    MW4 1828   1.034   4.419   6.395 -0.8554 -0.5508  0.0703
  516SOL     OW 1829   0.703   3.778   4.524  0.4386 -0.3146 -0.1852
  516SOL    HW2 1830   0.690   3.820   4.439 -0.9135 -0.5074 -0.0978
  516SOL    HW3 1831   0.617   3.740   4.546  1.2711 -2.0197  0.3332
  516SOL    MW4 1832   0.690   3.778   4.516  0.3700 -0.5650 -0.1053
  517SOL     OW 1833   3.898   6.087   5.139 -0.1660 -0.2092  0.7108
  517SOL    HW2 1834   3.887   6.049   5.226  0.7484 -0.1300  0.8789
  517SOL    HW3 1835   3.950   6.166   5.154  2.3258 -1.5674 -0.1401
  517SOL    MW4 1836   3.904   6.092   5.152  0.2834 -0.3780  0.6207
  518SOL     OW 1837   3.797   0.954   2.736 -0.2634 -0.2011  0.1176
  518SOL    HW2 1838   3.742   0.932   2.811 -0.0251 -1.0324  0.0567
  518SOL    HW3 1839   3.885   0.923   2.761 -0.0902 -0.0656 -0.3168
  518SOL    MW4 1840   3.802   0.947   2.749 -0.2091 -0.2929  0.0523
  519SOL     OW 1841   3.310   5.577   2.642  0.1683  0.7329 -0.4702
  519SOL    HW2 1842   3.375   5.506   2.637 -0.3741  0.2850 -1.4972
  519SOL    HW3 1843   3.339   5.641   2.578  0.4545  1.2712  0.1961
  519SOL    MW4 1844   3.322   5.576   2.633  0.1345  0.7448 -0.5178
  520SOL     OW 1845   2.429   4.907   0.628  0.1549  0.8729 -0.0140
  520SOL    HW2 1846   2.446   4.972   0.560 -1.8901  1.3200 -0.1638
  520SOL    HW3 1847   2.337   4.921   0.653 -0.0842 -1.3371  0.6021
  520SOL    MW4 1848   2.419   4.917   0.622 -0.1465  0.6403  0.0475
  521SOL     OW 1849   5.886   3.818   1.198 -0.2190 -0.1612  0.2796
  521SOL    HW2 1850   5.959   3.867   1.162  0.5543 -0.5681  1.2255
  521SOL    HW3 1851   5.825   3.884   1.231 -0.1890  0.1753 -0.3352
  521SOL    MW4 1852   5.887   3.833   1.198 -0.1130 -0.1705  0.3233
  522SOL     OW 1853   4.576   5.401   5.196 -0.5410  0.4561 -0.4934
  522SOL    HW2 1854   4.565   5.435   5.284 -2.1242  2.3230 -1.3181
  522SOL    HW3 1855   4.670   5.402   5.180 -0.4001  4.0168 -0.1967
  522SOL    MW4 1856   4.587   5.406   5.205 -0.7313  1.1722 -0.5631
  523SOL     OW 1857   1.842   4.367   4.546  0.0121  0.2222  0.1995
  523SOL    HW2 1858   1.797   4.298   4.595  1.0457 -0.3868  0.3232
  523SOL    HW3 1859   1.778   4.437   4.539 -0.7646 -0.4026  0.8441
  523SOL    MW4 1860   1.828   4.367   4.552  0.0460  0.0594  0.3009
  524SOL     OW 1861   3.050   5.061   5.340 -0.4846 -0.5673 -0.0614
  524SOL    HW2 1862   3.111   5.097   5.404 -0.6618  0.1413 -0.2916
  524SOL    HW3 1863   2.964   5.081   5.374 -0.5853  0.3041 -0.7788
  524SOL    MW4 1864   3.047   5.068   5.353 -0.5213 -0.3589 -0.1864
  525SOL     OW 1865   6.053   0.833   2.866 -0.7076  0.6230 -0.3449
  525SOL    HW2 1866   6.139   0.869   2.846 -1.3790  1.5384 -1.6820
  525SOL    HW3 1867   6.041   0.850   2.960 -0.3790  2.5526 -0.6224
  525SOL    MW4 1868   6.063   0.840   2.876 -0.7528  0.9983 -0.5579
  526SOL     OW 1869   0.230   4.694   2.509  0.1527  0.1359 -0.1708
  526SOL    HW2 1870   0.253   4.616   2.560  0.6197  0.4287  0.0711
  526SOL    HW3 1871   0.293   4.695   2.437  0.1963  0.3356 -0.1296
  526SOL    MW4 1872   0.241   4.684   2.506  0.2200  0.2009 -0.1335
  527SOL     OW 1873   6.154   1.189   5.462  0.3183  0.1787  0.8295
  527SOL    HW2 1874   6.113   1.206   5.377  0.1223  0.0626  0.9007
  527SOL    HW3 1875   6.104   1.244   5.523  0.2008 -0.0465  0.9340
  527SOL    MW4 1876   6.142   1.199   5.459  0.2769  0.1336  0.8527
  528SOL     OW 1877   5.012   1.569   2.318 -0.3062 -0.1766  0.0604
  528SOL    HW2 1878   4.940   1.562   2.255  0.5205 -0.2788 -0.9190
  528SOL    HW3 1879   5.043   1.659   2.309  2.0095 -1.0818 -2.2748
  528SOL    MW4 1880   5.007   1.580   2.308  0.1084 -0.3095 -0.3769
  529SOL     OW 1881   3.670   3.205   4.065 -0.5936 -0.0707 -0.2285
  529SOL    HW2 1882   3.709   3.149   4.132  0.2452 -0.0839 -0.7088
  529SOL    HW3 1883   3.640   3.282   4.113  0.4563  0.1459  0.1080
  529SOL    MW4 1884   3.672   3.208   4.080 -0.3444 -0.0439 -0.2474
  530SOL     OW 1885   3.116   3.141   4.211 -0.2330 -0.0964  0.1125
  530SOL    HW2 1886   3.098   3.100   4.295 -1.6407  1.1403  0.4538
  530SOL    HW3 1887   3.210   3.126   4.196 -0.3624 -2.0229  0.9312
  530SOL    MW4 1888   3.126   3.134   4.220 -0.4358 -0.1874  0.2656
  531SOL     OW 1889   1.300   0.263   5.971  0.5015  0.3865 -0.3392
  531SOL    HW2 1890   1.267   0.173   5.979 -1.8688  0.9187 -2.6275
  531SOL    HW3 1891   1.369   0.270   6.037  0.4482 -2.9498  0.2218
  531SOL    MW4 1892   1.305   0.252   5.981  0.1818  0.0165 -0.5671
  532SOL     OW 1893   2.353   0.520   2.369 -0.1958 -0.2776 -0.2275
  532SOL    HW2 1894   2.292   0.517   2.442  0.5565  0.1141  0.4333
  532SOL    HW3 1895   2.309   0.473   2.298 -2.4188  2.1568 -0.6352
  532SOL    MW4 1896   2.339   0.514   2.369 -0.3898  0.0953 -0.1941
  533SOL     OW 1897   3.586   5.359   3.786 -0.0799 -0.4482 -0.0045
  533SOL    HW2 1898   3.610   5.352   3.694  0.7267 -0.4004  0.2002
  533SOL    HW3 1899   3.664   5.332   3.835  0.1939  1.4076  0.6823
  533SOL    MW4 1900   3.599   5.355   3.781  0.0627 -0.1971  0.1131
  534SOL     OW 1901   3.617   3.314   0.381  0.4479 -0.3248 -0.2149
  534SOL    HW2 1902   3.703   3.345   0.411  1.1862 -0.6377 -1.8683
  534SOL    HW3 1903   3.598   3.368   0.304 -0.0797 -1.3260 -0.8065
  534SOL    MW4 1904   3.626   3.325   0.375  0.4757 -0.4982 -0.5111
  535SOL     OW 1905   1.497   0.616   3.392  0.1588 -0.1830  0.1352
  535SOL    HW2 1906   1.557   0.636   3.320  1.3290 -0.7573  0.9171
  535SOL    HW3 1907   1.468   0.527   3.375  0.2737 -0.2432  0.2462
  535SOL    MW4 1908   1.501   0.607   3.381  0.3283 -0.2667  0.2530
  536SOL     OW 1909   2.255   0.059   0.160  0.2174  0.0628  0.3839
  536SOL    HW2 1910   2.198   0.067   0.237  1.4582 -0.3422  1.3919
  536SOL    HW3 1911   2.303   0.142   0.158  1.3691 -0.5668  1.0549
  536SOL    MW4 1912   2.254   0.071   0.170  0.5331 -0.0737  0.6055
  537SOL     OW 1913   0.410   2.432   0.033  0.0223  0.4529  0.2667
  537SOL    HW2 1914   0.339   2.392   0.084 -0.4404 -0.9839 -1.4037
  537SOL    HW3 1915   0.373   2.514   0.002 -1.5115 -0.8829 -1.6998
  537SOL    MW4 1916   0.396   2.438   0.036 -0.2411  0.0871 -0.2131
  538SOL     OW 1917   3.781   2.792   0.242 -0.1355 -0.1341 -0.4840
  538SOL    HW2 1918   3.859   2.796   0.297 -0.6026  1.5331  0.1228
  538SOL    HW3 1919   3.714   2.751   0.297 -0.7279  1.9270  0.4506
  538SOL    MW4 1920   3.782   2.787   0.256 -0.2753  0.3578 -0.2807
  539SOL     OW 1921   5.637   2.032   5.902  0.4143  0.3580 -0.3000
  539SOL    HW2 1922   5.618   1.945   5.938 -0.2073  1.4821  2.3206
  539SOL    HW3 1923   5.573   2.042   5.831 -2.3734  0.1582  1.9789
  539SOL    MW4 1924   5.626   2.022   5.898 -0.0355  0.4799  0.3464
  540SOL     OW 1925   0.583   2.979   4.280 -0.1482  0.0375  0.2655
  540SOL    HW2 1926   0.517   2.954   4.215 -0.0119  0.7211 -0.1447
  540SOL    HW3 1927   0.667   2.964   4.236 -0.0547  0.4247  0.3093
  540SOL    MW4 1928   0.585   2.974   4.265 -0.1179  0.1788  0.2172
  541SOL     OW 1929   2.245   2.290   3.177  0.1042  0.1916 -0.2220
  541SOL    HW2 1930   2.242   2.383   3.153 -1.5396  0.3278  0.3765
  541SOL    HW3 1931   2.165   2.253   3.141  1.1622 -1.2404 -1.2446
  541SOL    MW4 1932   2.234   2.297   3.169  0.0269  0.0206 -0.2780
  542SOL     OW 1933   1.238   3.985   0.321 -0.0613 -0.1156 -0.1005
  542SOL    HW2 1934   1.301   3.926   0.281 -0.0038 -0.2227  0.1474
  542SOL    HW3 1935   1.154   3.962   0.281 -0.4438 -1.8451  1.5260
  542SOL    MW4 1936   1.235   3.974   0.311 -0.1042 -0.3579  0.1468
  543SOL     OW 1937   4.123   0.987   0.746  0.0675 -0.6044 -0.6076
  543SOL    HW2 1938   4.060   0.956   0.681 -1.3803 -3.1915  1.8011
  543SOL    HW3 1939   4.208   0.972   0.706 -0.7749 -1.3033 -2.2120
  543SOL    MW4 1940   4.126   0.981   0.732 -0.2347 -1.0379 -0.5015
  544SOL     OW 1941   4.855   3.587   0.653 -0.4494  0.0031 -0.2270
  544SOL    HW2 1942   4.807   3.587   0.570  1.3335 -0.2527 -1.2985
  544SOL    HW3 1943   4.847   3.497   0.685  0.0575 -0.2820 -0.8697
  544SOL    MW4 1944   4.847   3.575   0.646 -0.1473 -0.0683 -0.4532
  545SOL     OW 1945   0.172   1.096   2.631  0.3707 -0.3252 -0.1009
  545SOL    HW2 1946   0.150   1.089   2.538 -1.1712 -0.4398  0.2359
  545SOL    HW3 1947   0.172   1.005   2.662 -0.1520 -0.2179  0.2191
  545SOL    MW4 1948   0.169   1.083   2.623  0.0983 -0.3262 -0.0143
  546SOL     OW 1949   1.603   3.736   3.300 -0.2624 -0.1754  0.1984
  546SOL    HW2 1950   1.508   3.748   3.303 -0.3246 -0.8070  2.8597
  546SOL    HW3 1951   1.617   3.645   3.327  1.1107 -0.1530 -0.3567
  546SOL    MW4 1952   1.593   3.726   3.304 -0.0894 -0.2558  0.4763
  547SOL     OW 1953   1.137   0.207   2.620  0.5172  0.0175 -0.3530
  547SOL    HW2 1954   1.120   0.175   2.708  0.1107 -1.6227 -0.9867
  547SOL    HW3 1955   1.232   0.212   2.614  0.5380  0.4890  0.2843
  547SOL    MW4 1956   1.147   0.203   2.631  0.4663 -0.1367 -0.3525
  548SOL     OW 1957   4.224   5.078   5.270  0.5010 -0.6041  0.6759
  548SOL    HW2 1958   4.314   5.092   5.242  0.6761 -2.0352  0.4732
  548SOL    HW3 1959   4.180   5.043   5.193 -0.2898  0.2436  0.7240
  548SOL    MW4 1960   4.230   5.076   5.256  0.4198 -0.6810  0.6555
  549SOL     OW 1961   1.715   0.039   1.311 -0.1733  0.8793 -0.3512
  549SOL    HW2 1962   1.645  -0.010   1.268  1.9756 -1.2967 -1.6011
  549SOL    HW3 1963   1.684   0.050   1.401 -2.2918  0.3772 -0.9588
  549SOL    MW4 1964   1.701   0.034   1.317 -0.1693  0.5260 -0.5962
  550SOL     OW 1965   2.627   1.033   0.211 -0.2349 -0.4676  0.0456
  550SOL    HW2 1966   2.722   1.042   0.220 -0.3073  0.3598  0.0604
  550SOL    HW3 1967   2.601   1.110   0.161 -0.7430 -1.3296 -1.0675
  550SOL    MW4 1968   2.636   1.044   0.205 -0.3115 -0.4722 -0.0993
  551SOL     OW 1969   2.459   5.682   4.484 -0.2269 -0.0903 -0.1957
  551SOL    HW2 1970   2.444   5.593   4.453 -1.1119  0.0796 -0.3010
  551SOL    HW3 1971   2.383   5.700   4.540  0.6207  0.1170  0.9181
  551SOL    MW4 1972   2.447   5.672   4.487 -0.2319 -0.0405 -0.0626
  552SOL     OW 1973   1.691   2.316   1.278 -0.0026 -0.0815  0.3193
  552SOL    HW2 1974   1.683   2.288   1.369  3.9770  1.4010  1.3231
  552SOL    HW3 1975   1.781   2.294   1.254 -1.2882 -1.6998 -3.8314
  552SOL    MW4 1976   1.702   2.309   1.287  0.3529 -0.0995 -0.0959
  553SOL     OW 1977   3.120   2.364   1.944  0.8956 -0.1470  0.6195
  553SOL    HW2 1978   3.155   2.321   1.866 -0.5490  0.2568 -0.2879
  553SOL    HW3 1979   3.027   2.376   1.925  1.0233  2.4608  1.2598
  553SOL    MW4 1980   3.113   2.360   1.932  0.7218  0.2503  0.5843
  554SOL     OW 1981   5.836   2.440   0.534 -1.0151 -0.4375 -0.6126
  554SOL    HW2 1982   5.832   2.351   0.568 -1.4148  0.3189  1.4950
  554SOL    HW3 1983   5.855   2.494   0.611 -1.2802  1.3466 -1.7404
  554SOL    MW4 1984   5.838   2.436   0.549 -1.1028 -0.1023 -0.4833
  555SOL     OW 1985   4.505   3.432   6.098 -0.2013  0.3680  0.1408
  555SOL    HW2 1986   4.497   3.373   6.172  1.2084 -1.5726 -1.1664
  555SOL    HW3 1987   4.487   3.519   6.134 -0.3702 -0.6035  2.5428
  555SOL    MW4 1988   4.501   3.436   6.112 -0.0376 -0.0162  0.2853
  556SOL     OW 1989   1.406   5.570   1.239 -0.0648  0.8843 -0.2207
  556SOL    HW2 1990   1.461   5.515   1.295  0.9504 -0.5532 -2.4642
  556SOL    HW3 1991   1.319   5.564   1.277  0.4121 -0.7672  0.7094
  556SOL    MW4 1992   1.402   5.562   1.251  0.1320  0.4767 -0.3940
  557SOL     OW 1993   1.188   1.193   3.039  0.3863  0.1703 -0.5119
  557SOL    HW2 1994   1.269   1.244   3.047 -0.7821  1.8939  1.1626
  557SOL    HW3 1995   1.171   1.190   2.945  1.9378  0.5147 -0.8303
  557SOL    MW4 1996   1.197   1.200   3.028  0.4369  0.4432 -0.3330
  558SOL     OW 1997   4.772   0.440   4.569 -0.0088 -0.0641 -0.7925
  558SOL    HW2 1998   4.713   0.405   4.502  0.2700 -0.4767 -0.8282
  558SOL    HW3 1999   4.846   0.380   4.568 -0.0969 -0.1922  0.0335
  558SOL    MW4 2000   4.774   0.427   4.560  0.0164 -0.1355 -0.6882
  559SOL     OW 2001   1.334   2.215   1.359  0.1499 -0.0722  0.2928
  559SOL    HW2 2002   1.402   2.228   1.293  0.4173 -0.8409  0.4025
  559SOL    HW3 2003   1.373   2.156   1.423 -1.7324 -3.5942 -1.4882
  559SOL    MW4 2004   1.348   2.209   1.358 -0.0632 -0.6383  0.0723
  560SOL     OW 2005   0.759   3.751   3.354  0.3448  0.1758 -0.7692
  560SOL    HW2 2006   0.672   3.791   3.344 -0.4861 -1.6704 -1.4088
  560SOL    HW3 2007   0.763   3.687   3.284  1.7989 -0.5394 -0.0599
  560SOL    MW4 2008   0.748   3.748   3.344  0.4270 -0.1621 -0.7600
  561SOL     OW 2009   1.165   0.582   0.874  0.0025  0.2767 -0.1561
  561SOL    HW2 2010   1.246   0.571   0.924 -1.1970 -0.0292  1.8394
  561SOL    HW3 2011   1.192   0.574   0.782  2.1594 -0.1636  0.4590
  561SOL    MW4 2012   1.180   0.579   0.868  0.1288  0.1783  0.1883
  562SOL     OW 2013   3.055   1.399   2.092 -0.2577 -0.7631 -0.4378
  562SOL    HW2 2014   3.103   1.467   2.044  0.5379 -0.7817  0.2919
  562SOL    HW3 2015   3.112   1.379   2.167 -1.9614  0.1021  1.1671
  562SOL    MW4 2016   3.069   1.405   2.096 -0.3775 -0.6514 -0.1297
  563SOL     OW 2017   0.316   3.969   4.595  0.8136 -0.2697 -0.1192
  563SOL    HW2 2018   0.406   3.997   4.610  1.0664 -1.8810  2.0828
  563SOL    HW3 2019   0.323   3.895   4.535  0.9893 -0.4346  0.1016
  563SOL    MW4 2020   0.329   3.963   4.589  0.8702 -0.5041  0.2005
  564SOL     OW 2021   1.746   4.776   6.083 -0.2320  0.2681  0.4518
  564SOL    HW2 2022   1.828   4.738   6.052  0.4893  2.1631 -0.1572
  564SOL    HW3 2023   1.739   4.748   6.174  0.5954 -0.7202  0.2275
  564SOL    MW4 2024   1.756   4.767   6.091 -0.0277  0.3877  0.3418
  565SOL     OW 2025   6.284   0.291   3.075 -0.0361  0.0467 -0.0846
  565SOL    HW2 2026   6.232   0.300   3.154 -0.2160 -1.7194  0.0282
  565SOL    HW3 2027   6.244   0.219   3.027  1.8499 -0.9118 -0.3263
  565SOL    MW4 2028   6.272   0.282   3.079  0.1890 -0.3128 -0.1016
  566SOL     OW 2029   4.640   5.445   3.676 -0.6698  0.3575 -0.4221
  566SOL    HW2 2030   4.656   5.377   3.611 -1.1692 -0.2936  0.1239
  566SOL    HW3 2031   4.546   5.459   3.676 -0.5774  1.0326 -0.5059
  566SOL    MW4 2032   4.630   5.438   3.668 -0.7235  0.3607 -0.3612
  567SOL     OW 2033   5.466   1.149   3.968 -0.1656  0.4620 -0.2641
  567SOL    HW2 2034   5.530   1.217   3.948  0.2766 -0.3071 -1.5415
  567SOL    HW3 2035   5.510   1.092   4.031  0.3005  0.0993 -0.9158
  567SOL    MW4 2036   5.480   1.150   3.974 -0.0458  0.3127 -0.5187
  568SOL     OW 2037   6.149   5.258   0.443 -0.2189 -0.1815 -0.0434
  568SOL    HW2 2038   6.230   5.306   0.425 -1.0201  1.2912  0.1424
  568SOL    HW3 2039   6.178   5.170   0.465  1.1645 -0.6991 -3.2925
  568SOL    MW4 2040   6.164   5.253   0.443 -0.1421 -0.0555 -0.4476
  569SOL     OW 2041   0.919   6.387   2.107 -0.1284 -0.1757  0.1208
  569SOL    HW2 2042   0.884   6.363   2.021 -0.9731 -0.8310  0.6272
  569SOL    HW3 2043   0.894   6.479   2.119 -1.2562 -0.4794  0.2444
  569SOL    MW4 2044   0.911   6.396   2.097 -0.3887 -0.3022  0.2039
  570SOL     OW 2045   5.990   4.235   6.122  0.1767  0.0477  0.0510
  570SOL    HW2 2046   6.010   4.264   6.033  0.4356 -0.8246 -0.1875
  570SOL    HW3 2047   6.059   4.273   6.176 -1.1378  2.3317  0.2379
  570SOL    MW4 2048   6.002   4.244   6.117  0.0374  0.2340  0.0442
  571SOL     OW 2049   2.850   5.178   2.679 -0.1654 -0.2693 -0.0488
  571SOL    HW2 2050   2.874   5.229   2.757  0.6115  3.8798 -2.6754
  571SOL    HW3 2051   2.766   5.214   2.651 -0.0791 -1.1280 -1.5208
  571SOL    MW4 2052   2.842   5.190   2.686 -0.0515  0.1648 -0.5896
  572SOL     OW 2053   5.876   0.910   4.396  0.1270 -0.2476  0.3229
  572SOL    HW2 2054   5.892   0.970   4.324 -1.3319  0.3604  0.4755
  572SOL    HW3 2055   5.964   0.886   4.427  0.8539 -1.5642 -2.4351
  572SOL    MW4 2056   5.890   0.915   4.391  0.0304 -0.3411 -0.0208
  573SOL     OW 2057   5.916   3.435   2.798 -0.4644 -0.3618 -0.1547
  573SOL    HW2 2058   5.850   3.480   2.851 -0.2158  1.8971 -1.6404
  573SOL    HW3 2059   5.880   3.435   2.709  2.1755  2.6146 -1.3947
  573SOL    MW4 2060   5.902   3.441   2.793 -0.0833  0.3289 -0.5143
  574SOL     OW 2061   2.978   0.583   0.505  0.0837 -0.5847 -0.3963
  574SOL    HW2 2062   2.954   0.508   0.451  0.5476 -0.4430 -0.8040
  574SOL    HW3 2063   3.059   0.556   0.548 -1.1492 -1.3689  1.5858
  574SOL    MW4 2064   2.986   0.569   0.504 -0.0177 -0.6695 -0.1886
  575SOL     OW 2065   5.295   4.174   0.395  0.4630 -0.3219 -0.1988
  575SOL    HW2 2066   5.347   4.237   0.346  0.3314 -1.4588 -1.8705
  575SOL    HW3 2067   5.204   4.200   0.379  0.3759  1.5512  2.5693
  575SOL    MW4 2068   5.290   4.186   0.387  0.4342 -0.2248 -0.0542
  576SOL     OW 2069   1.926   6.433   2.160 -0.2928 -0.0766 -0.4696
  576SOL    HW2 2070   2.012   6.398   2.136  0.2607 -0.1879  1.5056
  576SOL    HW3 2071   1.871   6.356   2.172 -0.0102 -0.1233  0.5638
  576SOL    MW4 2072   1.930   6.418   2.158 -0.1825 -0.0975 -0.0726
  577SOL     OW 2073   3.807   2.209   2.234 -0.4146 -0.1257  0.3532
  577SOL    HW2 2074   3.899   2.207   2.260  0.2214  0.3081 -1.6420
  577SOL    HW3 2075   3.792   2.125   2.192 -0.6060  0.2171 -0.2804
  577SOL    MW4 2076   3.817   2.198   2.232 -0.3560 -0.0232  0.0064
  578SOL     OW 2077   3.643   1.504   5.980 -0.1139  0.3084  0.1756
  578SOL    HW2 2078   3.717   1.449   5.958 -0.1222 -0.6905  2.3891
  578SOL    HW3 2079   3.676   1.593   5.972  0.1100  0.0676 -2.7274
  578SOL    MW4 2080   3.657   1.509   5.976 -0.0855  0.1448  0.0846
  579SOL     OW 2081   5.899   4.106   5.746 -0.3033  0.3811 -0.0595
  579SOL    HW2 2082   5.807   4.122   5.764  0.2191  3.1638  0.5710
  579SOL    HW3 2083   5.944   4.184   5.778  2.3784 -1.1843  0.3296
  579SOL    MW4 2084   5.893   4.118   5.753  0.1195  0.5417  0.0750
  580SOL     OW 2085   4.231   3.404   1.321 -0.5407 -0.0638 -0.6799
  580SOL    HW2 2086   4.202   3.394   1.412  0.4512  1.8665 -0.0941
  580SOL    HW3 2087   4.269   3.319   1.298  0.3215 -0.2179  1.1559
  580SOL    MW4 2088   4.232   3.392   1.330 -0.2961  0.1705 -0.3604
  581SOL     OW 2089   2.577   5.429   0.748 -0.1321  0.2686  0.0736
  581SOL    HW2 2090   2.513   5.367   0.713 -1.2476  1.9297 -0.9987
  581SOL    HW3 2091   2.535   5.515   0.738  1.7815  1.3052  0.4677
  581SOL    MW4 2092   2.563   5.432   0.742 -0.0268  0.6245 -0.0159
  582SOL     OW 2093   0.741   3.296   0.332 -0.1211  0.0099 -0.4646
  582SOL    HW2 2094   0.647   3.291   0.316 -0.1523 -0.0990 -0.2572
  582SOL    HW3 2095   0.781   3.299   0.245 -0.3032 -0.2115 -0.5571
  582SOL    MW4 2096   0.734   3.296   0.318 -0.1492 -0.0337 -0.4494
  583SOL     OW 2097   4.078   5.849   3.295  0.4627  0.4011  0.1129
  583SOL    HW2 2098   4.083   5.853   3.390  0.3068 -1.3907  0.2392
  583SOL    HW3 2099   4.148   5.789   3.270  0.6416  1.0187 -0.9358
  583SOL    MW4 2100   4.088   5.842   3.304  0.4658  0.2462 -0.0088
  584SOL     OW 2101   3.951   0.968   6.231  0.2456  0.1134 -0.9895
  584SOL    HW2 2102   4.033   1.018   6.233 -0.0890  0.6572  0.7655
  584SOL    HW3 2103   3.888   1.026   6.189  0.2331  0.5702 -0.3485
  584SOL    MW4 2104   3.954   0.982   6.226  0.1998  0.2454 -0.6734
  585SOL     OW 2105   5.611   3.232   5.717 -0.4834 -0.0597  0.4918
  585SOL    HW2 2106   5.601   3.314   5.668 -1.4822 -0.3208  0.2449
  585SOL    HW3 2107   5.552   3.171   5.674 -0.0347 -0.8058  0.9222
  585SOL    MW4 2108   5.602   3.235   5.705 -0.5560 -0.1926  0.5160
  586SOL     OW 2109   1.924   6.067   6.417 -0.0583  0.2314 -0.5444
  586SOL    HW2 2110   1.923   6.134   6.485  0.4636 -0.5494  0.2554
  586SOL    HW3 2111   1.874   6.105   6.345 -0.4097  1.1736  0.1760
  586SOL    MW4 2112   1.917   6.081   6.416 -0.0358  0.2527 -0.3438
  587SOL     OW 2113   5.633   4.385   0.494 -0.1874 -0.5247  0.3125
  587SOL    HW2 2114   5.685   4.460   0.465  1.0864 -1.0188  1.2576
  587SOL    HW3 2115   5.542   4.414   0.482  0.2431  1.5362  1.5360
  587SOL    MW4 2116   5.628   4.399   0.488  0.0375 -0.3180  0.5986
  588SOL     OW 2117   2.454   4.505   1.904  0.2783  0.5964  0.3989
  588SOL    HW2 2118   2.444   4.597   1.929  1.2629  0.3930  1.6466
  588SOL    HW3 2119   2.383   4.460   1.951 -0.6218  0.7843 -0.7425
  588SOL    MW4 2120   2.443   4.511   1.914  0.2894  0.5944  0.4129
  589SOL     OW 2121   0.992   3.807   5.547 -0.2704  0.2881  0.0605
  589SOL    HW2 2122   0.959   3.818   5.636  1.7920 -0.4424  0.9915
  589SOL    HW3 2123   0.991   3.713   5.533  1.2331  0.2266  0.1244
  589SOL    MW4 2124   0.988   3.796   5.557  0.2001  0.1836  0.1918
  590SOL     OW 2125   5.968   0.286   3.148  0.0165  0.5137 -0.2703
  590SOL    HW2 2126   5.877   0.308   3.163 -0.8052 -1.6172 -1.6617
  590SOL    HW3 2127   5.984   0.308   3.057  1.0465  1.2568  0.0673
  590SOL    MW4 2128   5.958   0.292   3.138  0.0440  0.3306 -0.4094
  591SOL     OW 2129   1.602   3.609   6.104  0.0740  0.2447 -0.2785
  591SOL    HW2 2130   1.676   3.553   6.126  1.2000  1.3654 -1.0301
  591SOL    HW3 2131   1.533   3.549   6.076  0.7994 -0.8078  0.1287
  591SOL    MW4 2132   1.603   3.594   6.103  0.3182  0.2537 -0.3239
  592SOL     OW 2133   2.856   5.481   4.999  0.5866 -0.7436  0.7052
  592SOL    HW2 2134   2.837   5.443   4.913 -0.5199  0.3204  0.4407
  592SOL    HW3 2135   2.774   5.524   5.024  0.5745 -1.8081  2.7244
  592SOL    MW4 2136   2.842   5.482   4.991  0.4391 -0.7437  0.9367
  593SOL     OW 2137   4.329   4.067   1.681  0.0775  0.1438  0.1471
  593SOL    HW2 2138   4.277   4.147   1.676  2.3090  1.7602  0.8967
  593SOL    HW3 2139   4.291   4.018   1.755 -0.1867  1.4178  0.8896
  593SOL    MW4 2140   4.317   4.071   1.690  0.3370  0.5252  0.3440
  594SOL     OW 2141   5.737   2.892   3.741 -0.5245  0.3020 -0.1618
  594SOL    HW2 2142   5.647   2.877   3.714 -0.6169  0.1124  0.2402
  594SOL    HW3 2143   5.730   2.938   3.825 -0.2884 -1.7636  1.0484
  594SOL    MW4 2144   5.724   2.896   3.749 -0.5055  0.0045  0.0509
  595SOL     OW 2145   4.987   4.404   1.453 -0.2678 -0.1730  0.1153
  595SOL    HW2 2146   5.016   4.342   1.385 -1.7165 -2.7233  1.6524
  595SOL    HW3 2147   5.040   4.382   1.529  0.3776  1.7325  0.2738
  595SOL    MW4 2148   4.998   4.393   1.454 -0.3738 -0.2580  0.3390
  596SOL     OW 2149   1.856   5.559   2.783 -0.2753  0.5666 -0.0140
  596SOL    HW2 2150   1.891   5.472   2.801  0.5151  1.0733  1.0258
  596SOL    HW3 2151   1.774   5.563   2.831 -0.9528 -0.0164 -1.0684
  596SOL    MW4 2152   1.850   5.548   2.791 -0.2604  0.5565 -0.0159
  597SOL     OW 2153   4.555   0.155   2.375 -0.8314 -0.4744 -0.5781
  597SOL    HW2 2154   4.613   0.152   2.299  0.5699  0.1135  0.4301
  597SOL    HW3 2155   4.470   0.182   2.339 -0.1829 -0.1256 -1.9130
  597SOL    MW4 2156   4.551   0.158   2.360 -0.5610 -0.3508 -0.6212
  598SOL     OW 2157   1.912   3.773   4.990 -0.2531 -0.3143 -0.3399
  598SOL    HW2 2158   1.972   3.759   5.063 -1.6734 -0.0335  0.9167
  598SOL    HW3 2159   1.846   3.704   5.000 -0.9013  0.2111 -0.8809
  598SOL    MW4 2160   1.911   3.762   5.001 -0.5260 -0.2079 -0.2455
  599SOL     OW 2161   0.228   1.465   2.886  0.4161  0.5239 -0.5626
  599SOL    HW2 2162   0.157   1.429   2.940  0.6413 -0.1716 -0.7174
  599SOL    HW3 2163   0.212   1.559   2.886  0.1632  0.4960  0.3637
  599SOL    MW4 2164   0.217   1.473   2.893  0.4125  0.4285 -0.4608
  600SOL     OW 2165   4.532   0.707   2.652  0.2130  0.2427  0.1345
  600SOL    HW2 2166   4.518   0.749   2.567 -1.1570 -0.1564  0.1372
  600SOL    HW3 2167   4.557   0.779   2.710  1.5001  0.4664 -0.6627
  600SOL    MW4 2168   4.533   0.722   2.648  0.2021  0.2195  0.0297
  601SOL     OW 2169   3.105   5.551   4.133 -0.3600 -0.0584 -0.1302
  601SOL    HW2 2170   3.105   5.609   4.210 -0.3678 -1.0045  0.5934
  601SOL    HW3 2171   3.169   5.590   4.074  0.2284  0.2453  0.6968
  601SOL    MW4 2172   3.113   5.564   4.136 -0.2834 -0.1431  0.0744
  602SOL     OW 2173   2.101   6.341   4.850 -0.0551 -0.1319 -0.4076
  602SOL    HW2 2174   2.187   6.374   4.875 -0.0335 -0.6468  0.2300
  602SOL    HW3 2175   2.050   6.341   4.931  0.0410 -1.9283 -0.3130
  602SOL    MW4 2176   2.105   6.345   4.864 -0.0396 -0.4368 -0.3110
  603SOL     OW 2177   3.229   4.981   0.622 -0.7288 -0.3686 -0.4151
  603SOL    HW2 2178   3.156   5.043   0.621  1.5527  2.6247  1.1422
  603SOL    HW3 2179   3.272   4.994   0.537 -1.0597 -0.9189 -0.6710
  603SOL    MW4 2180   3.225   4.991   0.611 -0.4715 -0.0463 -0.2434
  604SOL     OW 2181   3.250   5.994   3.998  0.2085  0.3189 -0.1399
  604SOL    HW2 2182   3.322   6.027   3.944  0.9910 -1.0997  0.0046
  604SOL    HW3 2183   3.293   5.956   4.075 -0.7595  0.3659  0.4309
  604SOL    MW4 2184   3.265   5.993   4.001  0.1840  0.1380 -0.0456
  605SOL     OW 2185   3.262   6.363   5.099  0.5377  0.2114  0.4774
  605SOL    HW2 2186   3.263   6.276   5.059  1.6862  0.7531 -0.7340
  605SOL    HW3 2187   3.305   6.420   5.035 -2.6562  2.2645 -0.0801
  605SOL    MW4 2188   3.267   6.359   5.085  0.2678  0.5538  0.2440
  606SOL     OW 2189   2.646   0.472   6.011  0.0903 -0.1857 -0.1640
  606SOL    HW2 2190   2.656   0.387   5.969 -0.2170 -0.9536  1.2389
  606SOL    HW3 2191   2.572   0.459   6.071 -0.8616  1.4814 -0.9117
  606SOL    MW4 2192   2.637   0.459   6.014 -0.0758 -0.0671 -0.0776
  607SOL     OW 2193   5.384   2.174   2.822  0.2240 -0.1702  0.5396
  607SOL    HW2 2194   5.387   2.079   2.809 -0.8554 -0.2176  0.5911
  607SOL    HW3 2195   5.445   2.209   2.756  0.6534 -0.8914  0.5423
  607SOL    MW4 2196   5.392   2.166   2.812  0.1383 -0.2716  0.5468
  608SOL     OW 2197   0.948   2.023   4.657  0.1842  0.6307  0.4054
  608SOL    HW2 2198   0.928   1.960   4.726 -0.1989  0.5401  0.2117
  608SOL    HW3 2199   0.951   1.971   4.577 -2.0425  1.1121 -0.0611
  608SOL    MW4 2200   0.946   2.008   4.656 -0.1601  0.6823  0.3183
  609SOL     OW 2201   3.112   1.210   6.051  0.4903 -0.2410  0.2885
  609SOL    HW2 2202   3.089   1.171   6.135  0.5613  0.6712  0.7456
  609SOL    HW3 2203   3.142   1.137   5.997  0.5977 -0.8052  1.1059
  609SOL    MW4 2204   3.113   1.195   6.055  0.5139 -0.1951  0.4567
  610SOL     OW 2205   2.052   3.600   2.863 -0.2288 -0.2926 -0.2835
  610SOL    HW2 2206   2.119   3.637   2.805 -0.4450  0.7805  0.1414
  610SOL    HW3 2207   2.099   3.581   2.944 -0.5045  0.7814  0.1336
  610SOL    MW4 2208   2.067   3.602   2.866 -0.2937 -0.0093 -0.1724
  611SOL     OW 2209   0.068   5.996   2.290  0.4858  0.3064 -0.0350
  611SOL    HW2 2210   0.030   6.042   2.216  0.6254 -0.2416 -0.4545
  611SOL    HW3 2211   0.152   6.040   2.306  0.9362 -0.2130 -0.8667
  611SOL    MW4 2212   0.074   6.008   2.283  0.5637  0.1656 -0.2001
  612SOL     OW 2213   2.449   2.230   0.319  0.1715  0.4926  0.4303
  612SOL    HW2 2214   2.538   2.244   0.353  0.3227  1.2074 -0.2273
  612SOL    HW3 2215   2.398   2.207   0.396  0.9829 -0.2079  0.7789
  612SOL    MW4 2216   2.454   2.229   0.334  0.2985  0.4945  0.3895
  613SOL     OW 2217   6.164   1.520   2.796 -0.0889 -0.0819 -0.0520
  613SOL    HW2 2218   6.242   1.476   2.761  0.1415 -1.0349  1.5744
  613SOL    HW3 2219   6.191   1.611   2.807  1.2156 -0.6183  1.5542
  613SOL    MW4 2220   6.178   1.526   2.793  0.1136 -0.2784  0.3745
  614SOL     OW 2221   3.394   0.876   1.123 -0.0313 -0.4688 -0.3905
  614SOL    HW2 2222   3.441   0.956   1.147  0.5149 -1.4542  2.1872
  614SOL    HW3 2223   3.362   0.893   1.035  0.3004  2.4641 -0.0626
  614SOL    MW4 2224   3.396   0.889   1.115  0.0845 -0.2118 -0.0072
  615SOL     OW 2225   0.164   1.961   3.316  0.3167 -0.5074 -0.2000
  615SOL    HW2 2226   0.242   1.909   3.333  1.7604  1.8503  0.9161
  615SOL    HW3 2227   0.192   2.023   3.249 -0.5515  0.4668  0.3197
  615SOL    MW4 2228   0.178   1.962   3.309  0.3927 -0.0678  0.0158
  616SOL     OW 2229   1.639   1.871   6.223 -0.1773  0.4539  0.0743
  616SOL    HW2 2230   1.585   1.803   6.263  0.4979  0.7416  1.5149
  616SOL    HW3 2231   1.577   1.925   6.175 -1.3747  1.3861  2.5089
  616SOL    MW4 2232   1.623   1.869   6.222 -0.2462  0.6149  0.5856
  617SOL     OW 2233   3.753   1.321   4.566 -0.2862 -0.5360  0.1679
  617SOL    HW2 2234   3.672   1.356   4.602 -1.5491 -2.3066 -0.8009
  617SOL    HW3 2235   3.734   1.228   4.550  2.0956 -1.1297  0.3884
  617SOL    MW4 2236   3.740   1.313   4.569 -0.1386 -0.8479  0.0692
  618SOL     OW 2237   4.683   5.488   1.184  0.0524 -0.3329  0.4033
  618SOL    HW2 2238   4.686   5.572   1.138  0.4050 -0.9425 -0.7107
  618SOL    HW3 2239   4.667   5.423   1.116 -1.8018 -1.0482  1.4375
  618SOL    MW4 2240   4.681   5.491   1.169 -0.1457 -0.5077  0.3927
  619SOL     OW 2241   0.432   3.115   6.024  0.1033  0.7872  0.3011
  619SOL    HW2 2242   0.393   3.099   6.110  0.2914  0.8919  0.4083
  619SOL    HW3 2243   0.481   3.035   6.004  0.2833  0.8671  0.4164
  619SOL    MW4 2244   0.433   3.102   6.033  0.1519  0.8115  0.3304
  620SOL     OW 2245   4.240   5.430   4.457 -0.6523 -0.2135 -0.0798
  620SOL    HW2 2246   4.233   5.518   4.421 -0.7781 -1.3176 -2.9548
  620SOL    HW3 2247   4.251   5.373   4.381  1.6331 -2.4987  1.7735
  620SOL    MW4 2248   4.241   5.434   4.443 -0.3673 -0.6606 -0.2146
  621SOL     OW 2249   3.117   5.999   2.547 -0.3479  0.5066 -0.1462
  621SOL    HW2 2250   3.085   5.950   2.471  0.2560  1.3175 -0.9587
  621SOL    HW3 2251   3.038   6.022   2.596 -1.0191  1.8781 -1.7379
  621SOL    MW4 2252   3.102   5.996   2.543 -0.3568  0.7945 -0.4634
  622SOL     OW 2253   3.305   1.812   5.088 -0.1364 -0.2848 -0.4593
  622SOL    HW2 2254   3.338   1.900   5.104  2.6893 -0.9970 -1.7368
  622SOL    HW3 2255   3.315   1.766   5.171 -1.7913  0.5798  0.2620
  622SOL    MW4 2256   3.311   1.818   5.101  0.0180 -0.2647 -0.5327
  623SOL     OW 2257   0.234   4.432   0.847 -0.2223 -0.6402 -0.1834
  623SOL    HW2 2258   0.222   4.499   0.779  0.6860  1.5826  1.7101
  623SOL    HW3 2259   0.327   4.409   0.840 -0.0810 -0.2642  0.3901
  623SOL    MW4 2260   0.245   4.438   0.837 -0.0838 -0.2973  0.1421
  624SOL     OW 2261   4.929   4.124   0.991  0.3225 -0.1722  0.7041
  624SOL    HW2 2262   4.873   4.073   1.049 -0.1039 -0.8129 -0.2584
  624SOL    HW3 2263   5.015   4.083   0.999  0.3834  0.0539  1.2559
  624SOL    MW4 2264   4.933   4.112   1.000  0.2743 -0.2269  0.6499
  625SOL     OW 2265   5.225   3.320   6.045 -0.4242 -0.6399  0.1172
  625SOL    HW2 2266   5.256   3.293   6.131 -0.4718  0.0449  0.3531
  625SOL    HW3 2267   5.143   3.272   6.033  1.2188 -3.4436 -1.0379
  625SOL    MW4 2268   5.218   3.310   6.055 -0.2137 -0.9195 -0.0040
  626SOL     OW 2269   2.194   2.546   3.092 -0.0226 -0.1797  0.4813
  626SOL    HW2 2270   2.168   2.548   2.999 -0.7362  0.0855  0.6765
  626SOL    HW3 2271   2.115   2.575   3.139  0.4975  0.1981  1.1351
  626SOL    MW4 2272   2.180   2.550   3.086 -0.0481 -0.0949  0.5933
  627SOL     OW 2273   0.414   0.482   4.630 -0.1771  0.4100  0.0631
  627SOL    HW2 2274   0.481   0.533   4.584 -0.3347  1.4672  0.9870
  627SOL    HW3 2275   0.340   0.480   4.569 -0.2560  1.4853  0.1082
  627SOL    MW4 2276   0.413   0.488   4.616 -0.2083  0.6913  0.1910
  628SOL     OW 2277   1.598   0.935   1.557  0.4563  0.0960  0.4484
  628SOL    HW2 2278   1.573   0.846   1.582 -1.7899  0.5678  0.0987
  628SOL    HW3 2279   1.583   0.939   1.463 -0.7305  1.1952  0.6583
  628SOL    MW4 2280   1.593   0.923   1.548  0.0034  0.3033  0.4299
  629SOL     OW 2281   1.578   1.313   5.508 -0.4936 -0.0652 -0.2230
  629SOL    HW2 2282   1.666   1.306   5.469 -0.0305 -0.2231  0.8084
  629SOL    HW3 2283   1.559   1.407   5.509 -0.0339  0.0272  0.1801
  629SOL    MW4 2284   1.587   1.324   5.503 -0.3718 -0.0738 -0.0337
  630SOL     OW 2285   6.143   5.180   3.326 -0.4094 -0.1196  0.0404
  630SOL    HW2 2286   6.214   5.154   3.267 -2.3629 -0.8033 -2.1573
  630SOL    HW3 2287   6.153   5.274   3.335 -0.6952  0.2107 -2.4000
  630SOL    MW4 2288   6.154   5.189   3.320 -0.7048 -0.1662 -0.5715
  631SOL     OW 2289   4.809   4.961   1.059 -0.3933 -0.4241 -0.6508
  631SOL    HW2 2290   4.791   4.922   1.145 -0.3645 -0.2572 -0.5701
  631SOL    HW3 2291   4.770   5.048   1.063 -1.7986 -0.9930 -1.3575
  631SOL    MW4 2292   4.802   4.967   1.071 -0.5749 -0.4771 -0.7334
  632SOL     OW 2293   3.579   0.740   3.857 -0.0658  0.5804 -0.7610
  632SOL    HW2 2294   3.663   0.725   3.900 -0.5274  0.5563  0.1432
  632SOL    HW3 2295   3.580   0.681   3.782  0.5232  0.2313 -0.4869
  632SOL    MW4 2296   3.590   0.731   3.853 -0.0490  0.5311 -0.6055
  633SOL     OW 2297   6.002   5.605   5.790 -0.3321  0.3277 -0.0070
  633SOL    HW2 2298   5.916   5.641   5.811 -0.5090 -0.4603  0.6621
  633SOL    HW3 2299   5.998   5.586   5.696 -2.3803 -3.4482  0.6720
  633SOL    MW4 2300   5.990   5.607   5.780 -0.6257 -0.2744  0.1709
  634SOL     OW 2301   0.470   3.180   0.693  0.3622 -0.0326 -0.2258
  634SOL    HW2 2302   0.426   3.114   0.639  1.1259 -2.3777  1.8372
  634SOL    HW3 2303   0.562   3.174   0.666  0.4326  0.1664 -0.0279
  634SOL    MW4 2304   0.477   3.170   0.682  0.4722 -0.3158  0.0725
  635SOL     OW 2305   3.726   3.335   1.671  0.1033 -0.1243 -0.1966
  635SOL    HW2 2306   3.788   3.324   1.743  0.9848  0.9216 -0.7732
  635SOL    HW3 2307   3.755   3.272   1.605  0.8478  0.6579 -0.6405
  635SOL    MW4 2308   3.738   3.325   1.672  0.3179  0.1169 -0.3313
  636SOL     OW 2309   2.328   6.191   2.866 -0.4038 -0.0793 -0.3340
  636SOL    HW2 2310   2.393   6.124   2.885 -0.0485 -0.4888 -2.7022
  636SOL    HW3 2311   2.379   6.272   2.860 -0.4727 -0.0002  0.1134
  636SOL    MW4 2312   2.343   6.193   2.867 -0.3660 -0.1229 -0.5874
  637SOL     OW 2313   0.253   4.352   4.786 -0.5910  0.0953  0.1990
  637SOL    HW2 2314   0.244   4.257   4.799 -0.5233 -0.5213 -3.3184
  637SOL    HW3 2315   0.164   4.381   4.765 -0.4470  0.6716  0.3675
  637SOL    MW4 2316   0.240   4.343   4.785 -0.5631  0.0900 -0.2429
  638SOL     OW 2317   2.594   3.510   5.750  0.3873 -0.1674  0.1441
  638SOL    HW2 2318   2.588   3.479   5.660 -0.4187  0.4353 -0.0153
  638SOL    HW3 2319   2.687   3.498   5.773  0.9579  1.1346 -1.3043
  638SOL    MW4 2320   2.606   3.504   5.741  0.3563  0.0839 -0.0681
  639SOL     OW 2321   5.323   2.197   0.503 -0.1727 -0.1126  0.2771
  639SOL    HW2 2322   5.307   2.137   0.430  0.7185 -0.3887  0.2950
  639SOL    HW3 2323   5.343   2.139   0.577 -0.5166  0.1795  0.6047
  639SOL    MW4 2324   5.323   2.181   0.503 -0.1005 -0.1104  0.3227
  640SOL     OW 2325   4.117   2.775   2.203  0.3972 -0.5625  0.9147
  640SOL    HW2 2326   4.044   2.717   2.227  0.5590 -0.3128  2.1154
  640SOL    HW3 2327   4.134   2.756   2.111 -0.6292 -1.2346  0.8413
  640SOL    MW4 2328   4.109   2.765   2.194  0.2831 -0.6182  1.0634
  641SOL     OW 2329   2.328   0.418   4.725  0.4155  0.2817 -0.3596
  641SOL    HW2 2330   2.328   0.470   4.805 -1.6835 -1.1944  0.6906
  641SOL    HW3 2331   2.362   0.333   4.751 -0.8253 -0.3950 -0.8712
  641SOL    MW4 2332   2.332   0.414   4.739 -0.0252 -0.0024 -0.2886
  642SOL     OW 2333   2.263   4.357   0.402  0.1218 -0.0702 -0.5279
  642SOL    HW2 2334   2.225   4.277   0.437 -1.1253  0.6511 -0.1798
  642SOL    HW3 2335   2.307   4.397   0.478 -0.0578  0.0315 -0.4760
  642SOL    MW4 2336   2.264   4.352   0.417 -0.0664  0.0384 -0.4751
  643SOL     OW 2337   4.366   4.888   0.701 -0.3661 -0.4006  0.1470
  643SOL    HW2 2338   4.371   4.836   0.621  0.6229 -1.3668  0.8200
  643SOL    HW3 2339   4.453   4.881   0.740 -1.2199 -1.1616  2.0398
  643SOL    MW4 2340   4.378   4.880   0.695 -0.3483 -0.6285  0.4855
  644SOL     OW 2341   3.680   3.799   5.551 -0.4711  0.5738  0.5203
  644SOL    HW2 2342   3.741   3.750   5.606 -0.1992  1.3545  0.9312
  644SOL    HW3 2343   3.717   3.887   5.546 -1.6964  1.1380  1.0041
  644SOL    MW4 2344   3.693   3.804   5.557 -0.5969  0.7512  0.6383
  645SOL     OW 2345   0.134   6.177   4.559 -0.2799 -0.2701 -0.2267
  645SOL    HW2 2346   0.162   6.125   4.483 -0.5041  1.1905 -1.3614
  645SOL    HW3 2347   0.186   6.257   4.554 -1.2883  0.4478  0.3606
  645SOL    MW4 2348   0.144   6.181   4.548 -0.4425  0.0173 -0.2989
  646SOL     OW 2349   6.195   2.261   5.770 -0.8271  0.1439 -0.2374
  646SOL    HW2 2350   6.120   2.288   5.822 -1.0313 -0.3508 -0.2705
  646SOL    HW3 2351   6.188   2.313   5.689 -2.1856 -1.2120 -1.0475
  646SOL    MW4 2352   6.184   2.272   5.766 -1.0333 -0.1003 -0.3487
  647SOL     OW 2353   1.993   3.744   1.689  0.5216  0.2966  0.3347
  647SOL    HW2 2354   1.933   3.676   1.659 -0.1795  1.2972 -0.5994
  647SOL    HW3 2355   2.007   3.800   1.613 -0.2534  2.1483  1.4671
  647SOL    MW4 2356   1.987   3.742   1.675  0.3269  0.6729  0.3609
  648SOL     OW 2357   1.403   4.158   5.810 -0.1917 -0.0557  0.2394
  648SOL    HW2 2358   1.354   4.132   5.888  1.0491 -3.1934  0.1186
  648SOL    HW3 2359   1.495   4.160   5.839  0.0878  1.0727 -0.6356
  648SOL    MW4 2360   1.409   4.155   5.825  0.0089 -0.3208  0.1080
  649SOL     OW 2361   6.016   4.500   2.123  0.0551  0.1271 -0.0782
  649SOL    HW2 2362   5.993   4.575   2.069 -2.2146  1.0975  2.0506
  649SOL    HW3 2363   5.977   4.425   2.078  0.1479  0.5677 -0.9179
  649SOL    MW4 2364   6.008   4.500   2.110 -0.2321  0.3132  0.0919
  650SOL     OW 2365   3.074   5.746   4.316 -0.0120 -0.1302  0.0187
  650SOL    HW2 2366   3.095   5.819   4.375 -1.5006 -0.0600  0.4908
  650SOL    HW3 2367   3.023   5.786   4.246 -0.8512 -0.7045  0.2868
  650SOL    MW4 2368   3.070   5.761   4.315 -0.3191 -0.1967  0.1163
  651SOL     OW 2369   0.161   5.289   3.894 -0.5489  0.0602 -0.1776
  651SOL    HW2 2370   0.123   5.253   3.973 -1.4605 -0.0632 -0.6660
  651SOL    HW3 2371   0.188   5.378   3.919  1.2382 -0.7161  0.8760
  651SOL    MW4 2372   0.160   5.296   3.908 -0.4334 -0.0585 -0.1030
  652SOL     OW 2373   5.428   3.116   4.490 -0.1258  0.2562 -0.3208
  652SOL    HW2 2374   5.458   3.145   4.404  0.7703 -2.5396 -1.0522
  652SOL    HW3 2375   5.494   3.053   4.519 -0.8405  0.5057  2.0646
  652SOL    MW4 2376   5.441   3.111   4.483 -0.1018 -0.0798 -0.1026
  653SOL     OW 2377   3.992   6.014   0.008  0.0290 -0.1521 -0.0193
  653SOL    HW2 2378   4.033   6.059   0.082  0.5307 -0.5833 -0.0271
  653SOL    HW3 2379   4.064   5.996  -0.052  0.0044 -1.7843  0.4034
  653SOL    MW4 2380   4.007   6.018   0.010  0.0919 -0.4243  0.0354
  654SOL     OW 2381   4.658   1.653   1.304 -0.0363  0.3832 -0.5111
  654SOL    HW2 2382   4.732   1.607   1.345  0.8991  0.6648 -1.8421
  654SOL    HW3 2383   4.581   1.614   1.344  0.8210  0.8224  1.7154
  654SOL    MW4 2384   4.658   1.642   1.315  0.2003  0.4783 -0.3930
  655SOL     OW 2385   0.270   4.901   1.356 -0.0880 -0.3079  0.3756
  655SOL    HW2 2386   0.241   4.835   1.419 -0.4352  0.1335  0.6862
  655SOL    HW3 2387   0.229   4.982   1.386 -0.6234 -0.1720 -0.6675
  655SOL    MW4 2388   0.261   4.903   1.368 -0.2045 -0.2317  0.2790
  656SOL     OW 2389   0.777   0.831   2.738 -0.1368  0.1094  0.4065
  656SOL    HW2 2390   0.727   0.812   2.817 -0.6827  0.2761  0.1081
  656SOL    HW3 2391   0.818   0.748   2.714  0.0786  0.0711  0.8929
  656SOL    MW4 2392   0.775   0.818   2.746 -0.1804  0.1263  0.4313
  657SOL     OW 2393   5.133   3.702   3.990  0.1427 -0.1630  0.0332
  657SOL    HW2 2394   5.195   3.742   4.051 -0.0635  2.1611 -1.2003
  657SOL    HW3 2395   5.172   3.715   3.904 -1.4841  0.3136 -0.6625
  657SOL    MW4 2396   5.146   3.709   3.987 -0.0991  0.2065 -0.2214
  658SOL     OW 2397   2.823   2.713   5.510 -0.2101  0.7691  0.0656
  658SOL    HW2 2398   2.867   2.711   5.595 -1.8758 -0.2932  0.9511
  658SOL    HW3 2399   2.894   2.726   5.447  1.6160 -2.0743  1.3133
  658SOL    MW4 2400   2.839   2.714   5.513 -0.1889  0.2538  0.3470
  659SOL     OW 2401   3.248   0.548   1.973 -0.5275  0.2220 -0.7181
  659SOL    HW2 2402   3.157   0.521   1.989 -0.7636  0.6710 -1.2536
  659SOL    HW3 2403   3.248   0.577   1.882  0.0624  0.6245 -0.5949
  659SOL    MW4 2404   3.236   0.548   1.963 -0.4808  0.3343 -0.7725
  660SOL     OW 2405   5.686   6.099   2.777  0.8430 -0.5176 -0.7756
  660SOL    HW2 2406   5.603   6.052   2.771  0.5925 -0.2081  0.0781
  660SOL    HW3 2407   5.664   6.180   2.823  1.4792 -0.0894 -1.2194
  660SOL    MW4 2408   5.672   6.103   2.783  0.8939 -0.4203 -0.7215
  661SOL     OW 2409   5.503   0.818   4.579 -0.2012 -0.2324 -0.1379
  661SOL    HW2 2410   5.420   0.841   4.620 -0.1477  1.9201 -1.1150
  661SOL    HW3 2411   5.497   0.852   4.490  1.8279  0.2698 -0.1411
  661SOL    MW4 2412   5.491   0.825   4.573  0.0735  0.1179 -0.2673
  662SOL     OW 2413   3.403   2.390   1.639 -0.3638  0.0764  0.5540
  662SOL    HW2 2414   3.331   2.329   1.621 -1.0732  1.1067 -0.2994
  662SOL    HW3 2415   3.424   2.376   1.731 -1.4126 -0.5163  0.7229
  662SOL    MW4 2416   3.396   2.380   1.649 -0.5958  0.1342  0.4637
  663SOL     OW 2417   2.046   0.887   6.152  0.4408  0.0841 -0.2760
  663SOL    HW2 2418   2.098   0.871   6.073 -0.2277  0.6689 -0.8428
  663SOL    HW3 2419   2.050   0.982   6.165  2.3326 -0.1594  1.6541
  663SOL    MW4 2420   2.054   0.897   6.144  0.6022  0.1291 -0.0961
  664SOL     OW 2421   1.925   5.516   5.184 -0.0211 -0.0652 -0.3354
  664SOL    HW2 2422   1.877   5.444   5.226  0.6847  0.1020  0.7793
  664SOL    HW3 2423   2.013   5.482   5.171  0.9584  1.2851  2.2152
  664SOL    MW4 2424   1.930   5.502   5.188  0.2013  0.1350  0.1482
  665SOL     OW 2425   5.760   1.102   4.815 -0.4754 -0.2630  0.3783
  665SOL    HW2 2426   5.745   1.010   4.797  2.3640 -0.6492 -0.5638
  665SOL    HW3 2427   5.852   1.116   4.792 -0.4790  2.5258  1.6538
  665SOL    MW4 2428   5.771   1.092   4.810 -0.1013  0.0540  0.4223
  666SOL     OW 2429   0.380   5.839   2.090 -0.0103  0.3368  0.1005
  666SOL    HW2 2430   0.360   5.923   2.049  0.9703  1.2457  1.3917
  666SOL    HW3 2431   0.470   5.848   2.122 -0.1120 -0.9666  0.8445
  666SOL    MW4 2432   0.389   5.851   2.089  0.1056  0.2847  0.3690
  667SOL     OW 2433   1.136   3.435   4.393  0.4637 -0.5389 -0.0467
  667SOL    HW2 2434   1.128   3.388   4.477  1.2454  0.9597  0.9040
  667SOL    HW3 2435   1.065   3.499   4.395  1.0984  0.1773 -0.0532
  667SOL    MW4 2436   1.126   3.437   4.405  0.6506 -0.2467  0.0779
  668SOL     OW 2437   0.002   1.609   4.401 -0.4053  0.0946  0.0696
  668SOL    HW2 2438  -0.078   1.599   4.452  0.1666 -0.6448  0.8611
  668SOL    HW3 2439   0.065   1.550   4.443  0.7367  1.0959 -0.1605
  668SOL    MW4 2440   0.000   1.600   4.413 -0.1792  0.1292  0.1437
  669SOL     OW 2441   0.807   5.124   0.286 -0.2703  0.3365 -0.1000
  669SOL    HW2 2442   0.746   5.081   0.226  0.7643  0.6244 -1.4131
  669SOL    HW3 2443   0.772   5.213   0.294 -0.8221  0.0887  0.3366
  669SOL    MW4 2444   0.794   5.130   0.279 -0.2066  0.3418 -0.2156
  670SOL     OW 2445   5.200   1.353   3.345 -0.3590  0.2211  0.2041
  670SOL    HW2 2446   5.107   1.339   3.329 -0.3677 -0.0967  0.5152
  670SOL    HW3 2447   5.202   1.410   3.422 -0.2906 -1.2239  1.3173
  670SOL    MW4 2448   5.188   1.359   3.353 -0.3511 -0.0115  0.3920
  671SOL     OW 2449   0.055   5.026   6.136 -0.1537  0.6751  0.4239
  671SOL    HW2 2450   0.094   4.971   6.204  0.1610 -0.4310 -0.6296
  671SOL    HW3 2451   0.041   5.111   6.179  1.9041  0.6192  1.3155
  671SOL    MW4 2452   0.058   5.030   6.151  0.1593  0.5218  0.4025
  672SOL     OW 2453   4.737   5.566   5.806 -0.0624 -0.6516  0.2009
  672SOL    HW2 2454   4.806   5.603   5.862 -0.3077 -0.2249  0.2268
  672SOL    HW3 2455   4.721   5.634   5.740 -1.5249 -0.0843  1.0970
  672SOL    MW4 2456   4.744   5.580   5.805 -0.2877 -0.5204  0.3226
  673SOL     OW 2457   3.005   6.397   1.932  0.3621  0.0717 -0.7765
  673SOL    HW2 2458   3.018   6.470   1.872  3.1273 -0.2877 -0.7406
  673SOL    HW3 2459   3.007   6.437   2.019  1.0486  0.0872 -0.7896
  673SOL    MW4 2460   3.007   6.412   1.935  0.8175  0.0263 -0.7735
  674SOL     OW 2461   6.360   1.849   4.589 -0.2814  0.2381  0.0327
  674SOL    HW2 2462   6.443   1.863   4.634 -1.2679  1.2035  1.6630
  674SOL    HW3 2463   6.365   1.759   4.556  0.8162 -0.2246  1.3960
  674SOL    MW4 2464   6.372   1.839   4.590 -0.2667  0.3044  0.4277
  675SOL     OW 2465   1.551   1.066   3.148  0.0656  0.1423 -0.0287
  675SOL    HW2 2466   1.461   1.035   3.143  0.1460 -0.0310 -0.5224
  675SOL    HW3 2467   1.569   1.076   3.241 -0.7279  0.9646  0.0497
  675SOL    MW4 2468   1.542   1.064   3.159 -0.0285  0.2279 -0.0835
  676SOL     OW 2469   5.491   5.838   1.232  0.0923  0.3132 -0.4179
  676SOL    HW2 2470   5.453   5.917   1.270 -1.2503 -1.4497  2.1630
  676SOL    HW3 2471   5.585   5.856   1.230  0.2735  0.6873  3.7024
  676SOL    MW4 2472   5.498   5.851   1.236 -0.0609  0.1300  0.4662
  677SOL     OW 2473   3.113   2.072   2.686 -0.2480  0.0005 -0.2088
  677SOL    HW2 2474   3.190   2.091   2.633 -1.5077 -0.5073 -2.3393
  677SOL    HW3 2475   3.120   1.979   2.706  0.4009  0.2638  0.8688
  677SOL    MW4 2476   3.124   2.063   2.682 -0.3286 -0.0318 -0.3477
  678SOL     OW 2477   4.616   5.507   4.590 -0.0564 -0.1487  0.5327
  678SOL    HW2 2478   4.585   5.580   4.536  2.1450 -1.4294 -2.8164
  678SOL    HW3 2479   4.708   5.527   4.608  0.2150 -1.4334  0.6902
  678SOL    MW4 2480   4.624   5.519   4.585  0.2699 -0.4872  0.1116
  679SOL     OW 2481   4.600   0.977   0.972  0.2967  0.2566  0.2938
  679SOL    HW2 2482   4.675   0.918   0.965 -0.1190 -0.4073  1.2376
  679SOL    HW3 2483   4.544   0.938   1.039 -0.4945  1.1824  0.2060
  679SOL    MW4 2484   4.602   0.964   0.980  0.1375  0.2912  0.4067
  680SOL     OW 2485   2.040   1.164   6.138  0.2302 -0.2362  0.0080
  680SOL    HW2 2486   1.992   1.246   6.154 -1.0978 -0.8608 -0.5848
  680SOL    HW3 2487   2.101   1.185   6.068  2.7816  1.2765  2.4994
  680SOL    MW4 2488   2.042   1.178   6.131  0.3916 -0.1190  0.2585
  681SOL     OW 2489   2.509   3.942   2.647  0.4697 -0.5049 -0.0862
  681SOL    HW2 2490   2.531   3.957   2.739  0.5040 -0.0576 -0.1642
  681SOL    HW3 2491   2.413   3.942   2.645  0.4685 -0.7147 -0.0190
  681SOL    MW4 2492   2.499   3.944   2.659  0.4741 -0.4736 -0.0876
  682SOL     OW 2493   3.206   2.316   4.546  0.4398 -0.3771 -0.0123
  682SOL    HW2 2494   3.276   2.327   4.482  0.7106  2.8336  0.6403
  682SOL    HW3 2495   3.132   2.363   4.509 -0.1021 -0.3595  1.0419
  682SOL    MW4 2496   3.206   2.324   4.533  0.4040  0.0488  0.2129
  683SOL     OW 2497   5.157   3.312   2.930 -0.1454  0.6923 -0.3632
  683SOL    HW2 2498   5.164   3.279   2.840  1.4135 -2.3469  0.7079
  683SOL    HW3 2499   5.063   3.325   2.944 -0.6015 -0.7130 -1.8409
  683SOL    MW4 2500   5.146   3.309   2.920  0.0001  0.1059 -0.4168
  684SOL     OW 2501   5.043   0.663   2.645 -0.3629  0.0365  0.3760
  684SOL    HW2 2502   5.088   0.606   2.707 -0.2146 -1.3172 -0.9135
  684SOL    HW3 2503   5.093   0.744   2.646 -0.7555  0.2959  2.4778
  684SOL    MW4 2504   5.055   0.666   2.653 -0.3951 -0.1079  0.4832
  685SOL     OW 2505   5.034   4.024   1.816  0.3825 -0.0778  0.1649
  685SOL    HW2 2506   4.977   4.101   1.808  0.7399  0.0440 -1.7759
  685SOL    HW3 2507   5.080   4.036   1.899  0.2999  1.7308 -0.0136
  685SOL    MW4 2508   5.032   4.036   1.826  0.4187  0.1769 -0.1147
  686SOL     OW 2509   3.218   2.868   4.883  0.2634  0.2992  0.2802
  686SOL    HW2 2510   3.265   2.951   4.870  0.6098  0.0261 -0.1987
  686SOL    HW3 2511   3.131   2.885   4.848  0.6578  0.1255 -0.8038
  686SOL    MW4 2512   3.213   2.881   4.877  0.3612  0.2402  0.0740
  687SOL     OW 2513   2.717   2.817   1.635 -0.2558 -0.1898 -0.1558
  687SOL    HW2 2514   2.754   2.748   1.580 -1.6942 -0.0941 -1.3156
  687SOL    HW3 2515   2.650   2.858   1.580 -0.7234  0.9002  1.1708
  687SOL    MW4 2516   2.713   2.813   1.620 -0.5073 -0.0334 -0.1338
  688SOL     OW 2517   5.675   3.658   4.490 -0.1788 -0.4393 -0.0892
  688SOL    HW2 2518   5.608   3.678   4.424  0.6209 -0.3735 -0.8891
  688SOL    HW3 2519   5.685   3.563   4.486 -0.4729 -0.4901  0.2856
  688SOL    MW4 2520   5.667   3.648   4.481 -0.1121 -0.4373 -0.1453
  689SOL     OW 2521   1.839   5.821   6.316  0.5183  0.2207 -0.5362
  689SOL    HW2 2522   1.877   5.888   6.372  1.4251 -0.1945 -0.6310
  689SOL    HW3 2523   1.910   5.796   6.257 -0.1704  0.0523 -1.3139
  689SOL    MW4 2524   1.853   5.826   6.315  0.5471  0.1437 -0.6513
  690SOL     OW 2525   5.747   5.589   5.492  0.3629 -0.0191  0.0490
  690SOL    HW2 2526   5.676   5.541   5.534  0.4900 -0.0216  0.2655
  690SOL    HW3 2527   5.823   5.571   5.547  0.2256  1.1645  0.6581
  690SOL    MW4 2528   5.748   5.580   5.505  0.3615  0.1367  0.1580
  691SOL     OW 2529   4.155   5.164   0.620 -0.2991  0.6498  0.4507
  691SOL    HW2 2530   4.231   5.220   0.603  0.5114 -0.5402  0.0490
  691SOL    HW3 2531   4.127   5.134   0.533  0.2170 -0.7578  0.7486
  691SOL    MW4 2532   4.161   5.167   0.606 -0.1241  0.3071  0.4370
  692SOL     OW 2533   2.761   3.538   6.095 -0.2115 -0.0556  0.0546
  692SOL    HW2 2534   2.772   3.470   6.029  0.1207  0.5090 -0.4786
  692SOL    HW3 2535   2.770   3.620   6.047 -0.9928  0.3735  0.6208
  692SOL    MW4 2536   2.764   3.540   6.080 -0.2708  0.0755  0.0589
  693SOL     OW 2537   2.536   3.549   1.473 -0.0891 -0.1822 -0.5146
  693SOL    HW2 2538   2.518   3.456   1.484 -0.3638  0.0660  1.3786
  693SOL    HW3 2539   2.608   3.552   1.409 -0.0442 -1.6759 -0.5629
  693SOL    MW4 2540   2.543   3.537   1.466 -0.1194 -0.3466 -0.2712
  694SOL     OW 2541   0.736   2.125   0.708  0.1099  0.4139 -0.2449
  694SOL    HW2 2542   0.673   2.172   0.653 -0.4553 -1.6786 -1.5070
  694SOL    HW3 2543   0.719   2.157   0.796 -0.6410  2.0944 -0.9481
  694SOL    MW4 2544   0.725   2.135   0.712 -0.0637  0.3595 -0.5042
  695SOL     OW 2545   5.131   5.870   3.949 -0.4768  0.0373 -0.0970
  695SOL    HW2 2546   5.046   5.872   3.992 -0.5748  0.0844 -0.2882
  695SOL    HW3 2547   5.179   5.799   3.991 -1.1589 -0.9981 -1.0084
  695SOL    MW4 2548   5.126   5.861   3.960 -0.5798 -0.0931 -0.2425
  696SOL     OW 2549   6.035   1.567   2.197 -0.7316  0.2230  0.3106
  696SOL    HW2 2550   6.087   1.628   2.144 -1.3441 -0.3367 -0.9894
  696SOL    HW3 2551   5.954   1.614   2.215 -0.2895  0.6372  1.2953
  696SOL    MW4 2552   6.031   1.581   2.192 -0.7541  0.2038  0.2690
  697SOL     OW 2553   4.844   2.054   3.248 -0.1635 -0.4194 -0.3676
  697SOL    HW2 2554   4.861   2.064   3.155 -1.5256  1.0053 -0.4952
  697SOL    HW3 2555   4.761   2.099   3.263  1.0198  1.2077  1.8727
  697SOL    MW4 2556   4.836   2.061   3.238 -0.1871 -0.0167 -0.0888
  698SOL     OW 2557   1.393   0.251   2.846 -0.5001  0.6890 -0.2781
  698SOL    HW2 2558   1.361   0.312   2.912  0.3405  1.8035 -0.8574
  698SOL    HW3 2559   1.478   0.222   2.879 -0.8727 -0.1566 -0.0293
  698SOL    MW4 2560   1.400   0.255   2.859 -0.4383  0.7245 -0.3217
  699SOL     OW 2561   0.014   2.865   4.334  0.1372 -0.0252 -0.2350
  699SOL    HW2 2562   0.029   2.770   4.335  0.7574  0.0615 -0.5548
  699SOL    HW3 2563   0.097   2.902   4.363  0.8325  0.5120 -2.6810
  699SOL    MW4 2564   0.027   2.857   4.338  0.3107  0.0571 -0.5999
  700SOL     OW 2565   1.772   6.044   5.226  0.1589  0.2569  0.4353
  700SOL    HW2 2566   1.746   6.071   5.314 -0.7511  0.0258  0.2531
  700SOL    HW3 2567   1.690   6.046   5.176 -0.0231 -2.7914  0.3958
  700SOL    MW4 2568   1.758   6.048   5.231  0.0148 -0.1758  0.4061
  701SOL     OW 2569   0.408   1.582   2.030  0.1508  0.1484  0.0720
  701SOL    HW2 2570   0.416   1.618   1.942  2.8774  0.4912  0.3654
  701SOL    HW3 2571   0.385   1.490   2.017 -0.8752  0.5150 -0.8943
  701SOL    MW4 2572   0.406   1.574   2.017  0.3752  0.2420 -0.0168
  702SOL     OW 2573   3.817   1.432   5.437 -0.6672  0.1165  0.5151
  702SOL    HW2 2574   3.859   1.507   5.480  1.0195  1.4071 -2.9905
  702SOL    HW3 2575   3.742   1.470   5.391 -1.6918 -0.9963  1.1971
  702SOL    MW4 2576   3.813   1.447   5.437 -0.5798  0.1400  0.1426
  703SOL     OW 2577   6.111   5.789   3.554 -0.1859  0.0225  0.6543
  703SOL    HW2 2578   6.206   5.776   3.546 -0.2806 -0.3034  0.0112
  703SOL    HW3 2579   6.085   5.729   3.624  0.3162  1.2981  1.9932
  703SOL    MW4 2580   6.120   5.779   3.562 -0.1321  0.1478  0.7461
  704SOL     OW 2581   5.970   2.869   5.938 -0.4248  0.0350 -0.9336
  704SOL    HW2 2582   5.931   2.928   5.874  1.0429  0.9019 -1.0742
  704SOL    HW3 2583   5.986   2.924   6.015 -1.2735 -0.7667 -0.1492
  704SOL    MW4 2584   5.967   2.884   5.940 -0.3431  0.0436 -0.8486
  705SOL     OW 2585   5.490   2.316   0.156  0.0763  0.1308 -0.6194
  705SOL    HW2 2586   5.413   2.373   0.157 -0.1112 -0.0237 -2.9172
  705SOL    HW3 2587   5.563   2.374   0.179 -0.5630  0.4469  0.7657
  705SOL    MW4 2588   5.490   2.331   0.159 -0.0328  0.1521 -0.7398
  706SOL     OW 2589   6.412   3.349   6.216  0.0074  0.1904 -0.0495
  706SOL    HW2 2590   6.452   3.262   6.217  0.8143  0.5513  0.1930
  706SOL    HW3 2591   6.409   3.373   6.123  0.9514  0.4170 -0.0316
  706SOL    MW4 2592   6.417   3.340   6.204  0.2384  0.2679 -0.0151
  707SOL     OW 2593   5.563   4.902   2.047 -0.0731 -0.1882  0.1716
  707SOL    HW2 2594   5.623   4.977   2.042 -0.2240  0.1297  2.1835
  707SOL    HW3 2595   5.617   4.831   2.082 -0.7802  0.0633  1.8698
  707SOL    MW4 2596   5.578   4.902   2.051 -0.1863 -0.1131  0.6611
  708SOL     OW 2597   6.215   1.234   0.363  0.9585  0.0187  0.2437
  708SOL    HW2 2598   6.200   1.284   0.444 -0.5492 -0.0761  0.0600
  708SOL    HW3 2599   6.230   1.144   0.394  4.2221  0.5876  0.6078
  708SOL    MW4 2600   6.215   1.228   0.378  1.1902  0.0813  0.2675
  709SOL     OW 2601   0.587   3.461   0.999  0.2737 -0.3336 -0.4322
  709SOL    HW2 2602   0.516   3.400   0.981  0.0293  0.5979 -2.9332
  709SOL    HW3 2603   0.664   3.420   0.960  0.4573  0.1250 -0.5616
  709SOL    MW4 2604   0.588   3.447   0.992  0.2656 -0.1502 -0.7792
  710SOL     OW 2605   1.087   4.918   2.583  0.6011 -0.4098 -0.5099
  710SOL    HW2 2606   1.027   4.896   2.655  0.7404 -0.8361 -0.5225
  710SOL    HW3 2607   1.161   4.858   2.595  0.2558 -1.0598 -1.4925
  710SOL    MW4 2608   1.088   4.907   2.594  0.5739 -0.5518 -0.6412
  711SOL     OW 2609   1.084   5.058   3.254  0.4199 -0.2459  0.0440
  711SOL    HW2 2610   1.040   5.065   3.170 -1.6838  0.5796  1.1535
  711SOL    HW3 2611   1.107   4.965   3.262 -2.0639 -0.9343 -0.1741
  711SOL    MW4 2612   1.082   5.047   3.244 -0.1853 -0.2278  0.1616
  712SOL     OW 2613   5.556   5.973   3.978 -0.0624 -0.3464  0.8270
  712SOL    HW2 2614   5.561   5.965   3.883 -0.4404 -0.1787  0.7900
  712SOL    HW3 2615   5.463   5.989   3.995  0.4528  3.2009  0.9409
  712SOL    MW4 2616   5.544   5.974   3.968 -0.0443  0.1438  0.8372
  713SOL     OW 2617   2.620   5.357   2.625  0.1695  0.2405 -0.3014
  713SOL    HW2 2618   2.636   5.398   2.710  0.6981 -2.0114  0.7582
  713SOL    HW3 2619   2.525   5.360   2.614 -0.2076 -1.7986  1.6912
  713SOL    MW4 2620   2.610   5.363   2.635  0.1895 -0.3257  0.1013
  714SOL     OW 2621   3.943   1.359   4.763  0.0069  0.1768 -0.8322
  714SOL    HW2 2622   3.902   1.302   4.698  1.5973 -0.6043 -1.2080
  714SOL    HW3 2623   4.024   1.389   4.721  2.2974 -2.1865  1.4864
  714SOL    MW4 2624   3.948   1.355   4.749  0.5189 -0.2381 -0.5759
  715SOL     OW 2625   6.270   0.717   4.664 -0.0211 -0.2063  0.0249
  715SOL    HW2 2626   6.246   0.793   4.611  2.6752  0.4048 -0.4685
  715SOL    HW3 2627   6.352   0.686   4.626  0.8581 -1.1159  2.4690
  715SOL    MW4 2628   6.277   0.723   4.652  0.4506 -0.2457  0.2823
  716SOL     OW 2629   0.536   3.373   2.491  0.5438  0.1254  0.6902
  716SOL    HW2 2630   0.630   3.356   2.485  0.5251  0.0340  0.6426
  716SOL    HW3 2631   0.505   3.371   2.400 -0.0299 -2.9613  0.8381
  716SOL    MW4 2632   0.544   3.370   2.478  0.4656 -0.2939  0.7035
  717SOL     OW 2633   3.758   2.262   3.515  0.6118 -0.0280 -0.6611
  717SOL    HW2 2634   3.779   2.170   3.496  0.3946  0.1548 -1.8811
  717SOL    HW3 2635   3.728   2.262   3.605  0.7904 -1.1315 -0.5907
  717SOL    MW4 2636   3.757   2.250   3.524  0.6067 -0.1494 -0.8128
  718SOL     OW 2637   2.332   5.116   4.454 -0.3574 -0.5917  0.2172
  718SOL    HW2 2638   2.271   5.068   4.509 -0.5312 -0.9488 -0.2777
  718SOL    HW3 2639   2.406   5.056   4.442 -1.0997 -1.2263 -1.3840
  718SOL    MW4 2640   2.334   5.102   4.460 -0.4783 -0.7226 -0.0593
  719SOL     OW 2641   6.094   1.766   6.210  0.3567  0.0910  0.0895
  719SOL    HW2 2642   6.030   1.835   6.191  0.7294  0.1299 -1.0765
  719SOL    HW3 2643   6.121   1.783   6.301  0.4610  1.4990 -0.1887
  719SOL    MW4 2644   6.089   1.777   6.220  0.4196  0.2819 -0.1011
  720SOL     OW 2645   1.259   1.323   0.654 -0.5397 -0.8182 -0.1320
  720SOL    HW2 2646   1.272   1.257   0.586 -1.0228 -0.6975 -0.3421
  720SOL    HW3 2647   1.311   1.398   0.625  0.0449 -1.1172  0.1281
  720SOL    MW4 2648   1.268   1.324   0.641 -0.5263 -0.8417 -0.1254
  721SOL     OW 2649   4.298   6.090   2.184  0.5871  0.0160  0.3009
  721SOL    HW2 2650   4.227   6.121   2.240  0.2049 -0.1288 -0.0915
  721SOL    HW3 2651   4.352   6.035   2.241 -0.4653 -1.1322  0.2539
  721SOL    MW4 2652   4.296   6.087   2.199  0.3978 -0.1546  0.2429
  722SOL     OW 2653   4.480   1.533   5.406  0.1746  0.2028  0.2070
  722SOL    HW2 2654   4.432   1.550   5.324  1.3161  0.0167 -0.5150
  722SOL    HW3 2655   4.468   1.614   5.457 -0.5090  0.3388 -0.1564
  722SOL    MW4 2656   4.472   1.546   5.402  0.2350  0.1962  0.0638
  723SOL     OW 2657   4.687   3.610   0.427 -0.3745 -0.2511 -0.1161
  723SOL    HW2 2658   4.675   3.687   0.372  1.7175 -0.7464 -1.3779
  723SOL    HW3 2659   4.664   3.536   0.371 -1.6663 -0.6215  0.8533
  723SOL    MW4 2660   4.682   3.610   0.413 -0.2689 -0.3653 -0.1547
  724SOL     OW 2661   4.287   4.047   3.830 -0.3323  0.6093 -1.0299
  724SOL    HW2 2662   4.234   4.106   3.883 -0.0749  1.9793 -2.2492
  724SOL    HW3 2663   4.225   4.007   3.769 -0.2236  0.9580 -1.3683
  724SOL    MW4 2664   4.272   4.049   3.829 -0.2840  0.8361 -1.2354
  725SOL     OW 2665   0.301   2.081   0.778 -0.4526  0.1467 -0.2110
  725SOL    HW2 2666   0.363   2.143   0.816  0.4718 -0.7452 -0.1849
  725SOL    HW3 2667   0.223   2.088   0.832  0.8450 -1.1530  2.0119
  725SOL    MW4 2668   0.299   2.090   0.790 -0.1594 -0.1425  0.0857
  726SOL     OW 2669   5.310   1.520   0.450  0.4312  0.7259 -0.2177
  726SOL    HW2 2670   5.369   1.450   0.478 -1.1328  0.3932  2.5931
  726SOL    HW3 2671   5.239   1.518   0.514 -2.2657  1.6022 -2.9717
  726SOL    MW4 2672   5.308   1.510   0.462 -0.1310  0.7976 -0.2102
  727SOL     OW 2673   5.500   1.876   5.517  0.4389  0.0497  0.2685
  727SOL    HW2 2674   5.507   1.836   5.430  0.4603  0.3750  0.1196
  727SOL    HW3 2675   5.463   1.807   5.572 -0.5729  0.1678 -0.2362
  727SOL    MW4 2676   5.496   1.861   5.512  0.3082  0.1082  0.1823
  728SOL     OW 2677   6.304   0.515   0.078  0.2236 -0.4313 -0.1566
  728SOL    HW2 2678   6.375   0.567   0.039  1.1996 -0.1900  1.8356
  728SOL    HW3 2679   6.345   0.432   0.101 -0.0127 -0.1629  1.3354
  728SOL    MW4 2680   6.319   0.511   0.076  0.3212 -0.3641  0.3031
  729SOL     OW 2681   6.415   0.300   4.539 -0.2244 -0.1841 -0.3384
  729SOL    HW2 2682   6.376   0.220   4.574 -0.1736 -0.3047 -0.5563
  729SOL    HW3 2683   6.345   0.340   4.487 -0.2470 -0.0927 -0.2373
  729SOL    MW4 2684   6.400   0.295   4.537 -0.2207 -0.1880 -0.3538
  730SOL     OW 2685   1.478   0.555   3.814  0.3581 -0.3729 -0.0539
  730SOL    HW2 2686   1.409   0.503   3.855 -0.6446  0.4677 -0.6157
  730SOL    HW3 2687   1.554   0.542   3.870 -0.4564 -0.7498  1.0121
  730SOL    MW4 2688   1.479   0.547   3.827  0.1184 -0.3117  0.0127
  731SOL     OW 2689   3.011   0.784   1.613  0.0858  0.5563 -0.0151
  731SOL    HW2 2690   3.082   0.724   1.637  0.1958  0.7240  0.0814
  731SOL    HW3 2691   2.949   0.729   1.566  1.7494  1.0080 -2.9974
  731SOL    MW4 2692   3.013   0.769   1.610  0.3198  0.6380 -0.3958
  732SOL     OW 2693   5.031   1.944   2.182  0.3509 -0.3947 -0.0023
  732SOL    HW2 2694   4.952   1.997   2.172  1.1868  1.2164  1.3323
  732SOL    HW3 2695   5.012   1.862   2.136 -1.6891  0.3494 -0.5723
  732SOL    MW4 2696   5.018   1.940   2.175  0.1920 -0.0840  0.0986
  733SOL     OW 2697   4.488   4.446   3.662  0.3018 -0.7824 -0.5801
  733SOL    HW2 2698   4.393   4.444   3.673  0.3447  1.3671  0.8106
  733SOL    HW3 2699   4.501   4.428   3.569 -1.5980  0.3893 -1.1469
  733SOL    MW4 2700   4.477   4.443   3.651  0.0568 -0.3442 -0.4714
  734SOL     OW 2701   3.108   3.035   5.772 -1.0856  0.3016  0.4553
  734SOL    HW2 2702   3.169   2.962   5.772  0.3183  1.2741 -2.8222
  734SOL    HW3 2703   3.134   3.088   5.847  2.0963  0.5359 -0.6473
  734SOL    MW4 2704   3.120   3.032   5.781 -0.4806  0.4609 -0.1226
  735SOL     OW 2705   3.754   5.536   0.937  0.0882  1.0031 -0.1372
  735SOL    HW2 2706   3.795   5.454   0.964  0.0365  1.3795  1.1504
  735SOL    HW3 2707   3.754   5.533   0.841  1.9874  0.4479 -0.1526
  735SOL    MW4 2708   3.759   5.525   0.927  0.3320  0.9795  0.0306
  736SOL     OW 2709   2.952   5.764   5.882 -0.0558  0.4713 -0.1018
  736SOL    HW2 2710   2.966   5.830   5.814 -0.2986  0.2399 -0.3805
  736SOL    HW3 2711   3.037   5.724   5.896 -0.2156 -0.2310 -1.0523
  736SOL    MW4 2712   2.965   5.768   5.875 -0.1089  0.3481 -0.2640
  737SOL     OW 2713   0.289   2.876   3.805  0.8411  0.5927 -0.3663
  737SOL    HW2 2714   0.270   2.782   3.802 -2.9720  1.2404 -1.7773
  737SOL    HW3 2715   0.332   2.894   3.721 -2.4125  0.6379 -2.1951
  737SOL    MW4 2716   0.292   2.866   3.793 -0.0913  0.6841 -0.7938
  738SOL     OW 2717   2.924   1.127   2.740 -0.3280  0.5466 -0.3368
  738SOL    HW2 2718   2.859   1.058   2.758 -1.6051  1.6988 -0.3414
  738SOL    HW3 2719   2.871   1.203   2.716  1.1054  1.0452 -2.0856
  738SOL    MW4 2720   2.908   1.128   2.740 -0.3074  0.7644 -0.5682
  739SOL     OW 2721   1.407   1.916   2.084  0.1194 -0.1854  0.0305
  739SOL    HW2 2722   1.482   1.912   2.144 -0.2083  2.8310  0.7945
  739SOL    HW3 2723   1.445   1.896   1.998  1.2422 -1.2969  0.7317
  739SOL    MW4 2724   1.422   1.913   2.081  0.2243  0.0659  0.2238
  740SOL     OW 2725   1.379   4.475   2.725 -0.1235  0.0350 -0.4214
  740SOL    HW2 2726   1.428   4.397   2.701 -1.2333 -1.6512  2.3807
  740SOL    HW3 2727   1.431   4.517   2.793 -0.7594  0.3521 -0.1235
  740SOL    MW4 2728   1.392   4.470   2.731 -0.3539 -0.1457 -0.0124
  741SOL     OW 2729   3.483   1.685   4.877  0.5605 -0.3626  0.1418
  741SOL    HW2 2730   3.571   1.655   4.899  1.4761  1.7346 -0.4237
  741SOL    HW3 2731   3.449   1.720   4.959 -0.1704 -2.0194  0.5909
  741SOL    MW4 2732   3.490   1.686   4.891  0.5848 -0.3045  0.1264
  742SOL     OW 2733   2.637   2.641   0.516  0.1726  0.1701  0.3101
  742SOL    HW2 2734   2.704   2.675   0.457  0.6096  1.4424  1.4929
  742SOL    HW3 2735   2.648   2.691   0.597 -0.4075 -1.5123  1.4908
  742SOL    MW4 2736   2.647   2.652   0.519  0.1537  0.1160  0.6220
  743SOL     OW 2737   2.759   2.250   2.783 -0.5217 -0.2994  0.4581
  743SOL    HW2 2738   2.712   2.188   2.838  0.6637 -1.5874  0.0808
  743SOL    HW3 2739   2.818   2.295   2.844  0.1206 -1.0630  0.4226
  743SOL    MW4 2740   2.761   2.248   2.798 -0.2806 -0.5701  0.4037
  744SOL     OW 2741   4.755   0.514   3.741 -0.2179 -0.5586  0.2084
  744SOL    HW2 2742   4.783   0.605   3.738  0.5073 -0.7774  0.0873
  744SOL    HW3 2743   4.736   0.497   3.834 -1.5319  0.0454  0.0754
  744SOL    MW4 2744   4.756   0.523   3.753 -0.2956 -0.5078  0.1749
  745SOL     OW 2745   5.724   0.513   5.594 -0.0718  0.0783 -0.0225
  745SOL    HW2 2746   5.771   0.563   5.527  0.7835 -0.3888  0.2130
  745SOL    HW3 2747   5.675   0.579   5.643  0.1745  0.5557 -0.4084
  745SOL    MW4 2748   5.724   0.528   5.591  0.0735  0.0797 -0.0423
  746SOL     OW 2749   1.549   6.302   3.880  0.1906 -0.1291 -0.3156
  746SOL    HW2 2750   1.609   6.278   3.950 -0.9728  2.0736  1.5959
  746SOL    HW3 2751   1.560   6.397   3.871  0.1569 -0.3186 -3.0367
  746SOL    MW4 2752   1.558   6.311   3.888  0.0326  0.1365 -0.4224
  747SOL     OW 2753   2.330   2.939   2.339 -0.2843 -0.1864  0.2430
  747SOL    HW2 2754   2.291   2.951   2.426  0.2476  1.0570  0.3243
  747SOL    HW3 2755   2.371   2.852   2.344 -0.2050 -0.1116  1.2530
  747SOL    MW4 2756   2.330   2.929   2.351 -0.2037 -0.0125  0.3870
  748SOL     OW 2757   1.108   5.820   2.055 -0.3992  0.0717  0.2779
  748SOL    HW2 2758   1.030   5.876   2.058  0.2248  0.9541  0.0635
  748SOL    HW3 2759   1.099   5.764   2.132  0.4383  2.4424  2.2078
  748SOL    MW4 2760   1.096   5.820   2.065 -0.2063  0.5009  0.5043
  749SOL     OW 2761   3.393   2.973   4.607  0.4415 -0.3521 -0.1361
  749SOL    HW2 2762   3.367   3.048   4.660 -0.5883 -0.2645 -0.7370
  749SOL    HW3 2763   3.480   2.950   4.639 -0.1777 -0.3780  1.6747
  749SOL    MW4 2764   3.401   2.979   4.618  0.2239 -0.3439  0.0236
  750SOL     OW 2765   5.935   3.170   1.822  0.8954 -0.2861 -0.5742
  750SOL    HW2 2766   5.879   3.213   1.758  0.1589 -1.0901 -0.4932
  750SOL    HW3 2767   6.024   3.186   1.791  0.5873  0.3097 -1.1617
  750SOL    MW4 2768   5.939   3.178   1.809  0.7576 -0.3136 -0.6410
  751SOL     OW 2769   2.750   2.116   1.410  0.0343  0.3794 -0.3240
  751SOL    HW2 2770   2.816   2.177   1.379  1.7753 -0.4648  1.4453
  751SOL    HW3 2771   2.678   2.171   1.440  1.5504  1.6462  1.2225
  751SOL    MW4 2772   2.750   2.131   1.410  0.4641  0.4352  0.1135
  752SOL     OW 2773   2.546   1.829   4.997 -0.4310 -0.1032  0.3950
  752SOL    HW2 2774   2.538   1.743   5.039  0.9128 -0.5698 -0.2515
  752SOL    HW3 2775   2.641   1.843   4.988 -0.6568  0.6378 -1.1482
  752SOL    MW4 2776   2.558   1.820   5.001 -0.2835 -0.0670  0.1061
  753SOL     OW 2777   1.696   1.369   4.008  0.0689  0.3014  0.1954
  753SOL    HW2 2778   1.785   1.365   4.043 -0.1541 -1.5020  0.6549
  753SOL    HW3 2779   1.640   1.346   4.082 -0.4965 -2.4480 -0.9616
  753SOL    MW4 2780   1.700   1.366   4.022 -0.0351 -0.2993  0.1034
  754SOL     OW 2781   0.979   0.348   4.304 -0.4000 -0.3140 -0.6238
  754SOL    HW2 2782   1.009   0.407   4.373  1.8045 -0.7732 -1.1432
  754SOL    HW3 2783   0.971   0.404   4.227 -3.1613  0.2667 -0.0565
  754SOL    MW4 2784   0.982   0.363   4.303 -0.4734 -0.2979 -0.6175
  755SOL     OW 2785   4.931   5.691   1.076  0.5775  0.6651 -0.2342
  755SOL    HW2 2786   5.012   5.740   1.058  1.6659 -0.5944  1.0620
  755SOL    HW3 2787   4.960   5.610   1.117 -1.3603  0.1665  0.2482
  755SOL    MW4 2788   4.946   5.687   1.079  0.4654  0.4331  0.0004
  756SOL     OW 2789   3.496   3.079   3.833 -0.6879  0.3809 -0.2900
  756SOL    HW2 2790   3.492   3.158   3.779 -0.4045  0.4679 -0.1844
  756SOL    HW3 2791   3.586   3.076   3.866 -0.7761  0.1695 -0.0595
  756SOL    MW4 2792   3.507   3.089   3.830 -0.6621  0.3645 -0.2456
  757SOL     OW 2793   0.592   1.699   2.403 -0.5504 -0.6194  0.1329
  757SOL    HW2 2794   0.509   1.742   2.380 -0.2901 -0.9981 -1.6515
  757SOL    HW3 2795   0.568   1.634   2.469 -1.5683 -0.2940  0.0978
  757SOL    MW4 2796   0.578   1.696   2.409 -0.6504 -0.6265 -0.1071
  758SOL     OW 2797   4.271   5.610   3.282  0.2567 -0.0385 -0.2393
  758SOL    HW2 2798   4.319   5.609   3.200  2.8066 -0.3998  1.1479
  758SOL    HW3 2799   4.271   5.519   3.311 -3.8822 -0.6457 -1.4595
  758SOL    MW4 2800   4.277   5.598   3.275  0.0471 -0.1663 -0.2172
  759SOL     OW 2801   2.871   0.357   0.340 -0.0186 -0.4159 -0.5103
  759SOL    HW2 2802   2.960   0.322   0.337  0.0628 -0.1495 -1.4706
  759SOL    HW3 2803   2.861   0.405   0.258 -1.6219 -1.8365 -1.2108
  759SOL    MW4 2804   2.881   0.359   0.328 -0.2194 -0.5682 -0.7294
  760SOL     OW 2805   4.361   4.295   1.275 -0.5293  0.1612  0.0491
  760SOL    HW2 2806   4.299   4.270   1.206  0.1094 -0.3403 -0.3522
  760SOL    HW3 2807   4.434   4.335   1.228  0.5294 -1.4189  0.2980
  760SOL    MW4 2808   4.362   4.297   1.260 -0.3053 -0.1134  0.0290
  761SOL     OW 2809   0.862   5.402   0.583  0.5661 -0.1877 -1.2266
  761SOL    HW2 2810   0.854   5.408   0.679  1.5461  1.2324 -1.2155
  761SOL    HW3 2811   0.826   5.316   0.562  0.7524 -0.7159  0.4682
  761SOL    MW4 2812   0.856   5.391   0.593  0.7200 -0.0700 -1.0016
  762SOL     OW 2813   1.800   5.539   3.254  0.5103 -0.2234 -0.2481
  762SOL    HW2 2814   1.807   5.496   3.169  0.7071  0.1122 -0.4034
  762SOL    HW3 2815   1.706   5.552   3.267  0.4906 -0.1105 -0.4994
  762SOL    MW4 2816   1.789   5.535   3.244  0.5336 -0.1642 -0.3017
  763SOL     OW 2817   5.884   1.588   1.089  0.0533 -0.3299  0.3514
  763SOL    HW2 2818   5.788   1.591   1.090  0.0651  0.1591 -0.1997
  763SOL    HW3 2819   5.905   1.544   1.007  0.3466  1.3856 -0.5212
  763SOL    MW4 2820   5.874   1.582   1.079  0.0935 -0.0390  0.1636
  764SOL     OW 2821   6.212   0.788   5.499  0.4400  0.4494  0.1373
  764SOL    HW2 2822   6.234   0.817   5.410 -0.1411 -0.6257 -0.3836
  764SOL    HW3 2823   6.148   0.851   5.530 -1.3015 -0.5579 -1.2224
  764SOL    MW4 2824   6.206   0.800   5.491  0.1336  0.1747 -0.1108
  765SOL     OW 2825   1.569   3.296   5.606  0.3080  0.4771  0.2407
  765SOL    HW2 2826   1.641   3.239   5.631 -0.0149  0.3912  0.9911
  765SOL    HW3 2827   1.504   3.286   5.676  0.0104  1.3352  0.1026
  765SOL    MW4 2828   1.570   3.287   5.619  0.2262  0.5790  0.3215
  766SOL     OW 2829   3.055   1.296   5.398  0.1571  0.2032 -0.1376
  766SOL    HW2 2830   3.113   1.249   5.338  1.6989  1.3760  0.3490
  766SOL    HW3 2831   3.047   1.383   5.360 -0.0086  0.5189  0.6045
  766SOL    MW4 2832   3.062   1.301   5.385  0.3386  0.3996  0.0245
  767SOL     OW 2833   1.380   2.066   4.030 -0.1192  0.3356 -0.2963
  767SOL    HW2 2834   1.318   2.109   4.089  0.7633  2.6483 -0.9308
  767SOL    HW3 2835   1.450   2.034   4.087 -0.7309 -0.1564  0.1845
  767SOL    MW4 2836   1.381   2.067   4.045 -0.0835  0.5758 -0.3165
  768SOL     OW 2837   4.187   4.659   2.115 -0.1755  0.0179  0.2007
  768SOL    HW2 2838   4.222   4.588   2.169 -0.7549 -0.3916  0.0568
  768SOL    HW3 2839   4.092   4.641   2.111 -0.2811  0.6170 -0.1034
  768SOL    MW4 2840   4.179   4.647   2.122 -0.2658  0.0429  0.1416
  769SOL     OW 2841   1.584   2.844   2.515  0.0460 -0.0124 -0.6595
  769SOL    HW2 2842   1.597   2.826   2.422 -1.9366 -3.1068 -0.4760
  769SOL    HW3 2843   1.613   2.765   2.560 -0.5506  0.7656  1.2014
  769SOL    MW4 2844   1.589   2.831   2.509 -0.2943 -0.3180 -0.3898
  770SOL     OW 2845   2.017   1.520   2.334  0.4916  0.1303 -0.0248
  770SOL    HW2 2846   2.106   1.486   2.336  0.3909 -0.2988 -1.6715
  770SOL    HW3 2847   1.983   1.494   2.249 -0.9664  0.9270  0.2795
  770SOL    MW4 2848   2.024   1.512   2.323  0.2860  0.1788 -0.2019
  771SOL     OW 2849   6.103   2.342   4.832  0.0321  0.0364 -1.0671
  771SOL    HW2 2850   6.008   2.350   4.829 -0.2272 -0.2297  2.4989
  771SOL    HW3 2851   6.133   2.424   4.870  0.8898 -1.0059  0.6155
  771SOL    MW4 2852   6.094   2.354   4.837  0.1111 -0.1362 -0.3746
  772SOL     OW 2853   5.348   0.560   3.703 -0.0533 -0.1453  0.2714
  772SOL    HW2 2854   5.345   0.548   3.798 -0.2631  0.9870  0.4305
  772SOL    HW3 2855   5.263   0.600   3.681 -0.5471 -1.6025 -0.5956
  772SOL    MW4 2856   5.336   0.564   3.712 -0.1461 -0.1882  0.1780
  773SOL     OW 2857   1.992   0.253   2.918 -0.2359 -0.3477  0.5212
  773SOL    HW2 2858   2.046   0.182   2.882  1.0071  1.0717 -0.5145
  773SOL    HW3 2859   1.915   0.255   2.861 -0.3603 -0.9410  0.6526
  773SOL    MW4 2860   1.989   0.244   2.905 -0.0883 -0.2387  0.4019
  774SOL     OW 2861   1.176   1.647   2.732 -0.9886  0.2529  0.1634
  774SOL    HW2 2862   1.105   1.591   2.702  1.6315 -3.1165 -0.3259
  774SOL    HW3 2863   1.194   1.619   2.821  0.9761 -0.4687 -0.4042
  774SOL    MW4 2864   1.169   1.636   2.740 -0.3837 -0.2869  0.0239
  775SOL     OW 2865   1.073   4.239   0.345  0.4671 -0.0231  0.1261
  775SOL    HW2 2866   1.141   4.251   0.279  0.2369 -0.0774 -0.1207
  775SOL    HW3 2867   1.060   4.326   0.383 -1.1936  0.5515 -1.6470
  775SOL    MW4 2868   1.081   4.252   0.342  0.2176  0.0456 -0.1404
  776SOL     OW 2869   4.869   4.473   3.954 -0.2578 -0.4076  0.3442
  776SOL    HW2 2870   4.866   4.463   3.859 -0.7369  0.7470  0.2207
  776SOL    HW3 2871   4.962   4.480   3.975 -0.1261 -1.1390  0.0246
  776SOL    MW4 2872   4.881   4.473   3.944 -0.3036 -0.3518  0.2858
  777SOL     OW 2873   5.210   4.277   5.379  0.6505 -0.4825 -0.5088
  777SOL    HW2 2874   5.128   4.326   5.382 -0.2634 -1.9863  1.1481
  777SOL    HW3 2875   5.279   4.342   5.391 -0.4855  0.4564  1.1985
  777SOL    MW4 2876   5.208   4.292   5.381  0.3800 -0.5570 -0.0649
  778SOL     OW 2877   0.794   3.860   0.020 -0.1344  0.2053  0.3885
  778SOL    HW2 2878   0.737   3.912  -0.037  0.2504 -0.4699 -0.6661
  778SOL    HW3 2879   0.734   3.808   0.074 -0.5239  0.1467 -0.0908
  778SOL    MW4 2880   0.778   3.860   0.019 -0.1350  0.1085  0.1861
  779SOL     OW 2881   0.313   0.600   6.162 -0.0101 -0.2583 -0.5996
  779SOL    HW2 2882   0.399   0.576   6.127  0.8992  0.7854  0.7991
  779SOL    HW3 2883   0.308   0.695   6.150 -0.3212 -0.0948  0.6571
  779SOL    MW4 2884   0.324   0.609   6.156  0.0688 -0.0990 -0.2493
  780SOL     OW 2885   2.558   0.241   3.184 -0.3652  0.3124 -0.0281
  780SOL    HW2 2886   2.483   0.260   3.128 -0.4660  1.1814  0.3891
  780SOL    HW3 2887   2.526   0.256   3.273  0.5428  1.5827  0.1100
  780SOL    MW4 2888   2.544   0.245   3.189 -0.2587  0.5947  0.0452
  781SOL     OW 2889   4.361   2.568   1.572 -0.5375 -0.3040  0.3420
  781SOL    HW2 2890   4.303   2.511   1.522  1.3526 -1.0080 -1.2197
  781SOL    HW3 2891   4.349   2.542   1.663 -2.2381 -0.7655  0.0183
  781SOL    MW4 2892   4.352   2.557   1.577 -0.5125 -0.4578  0.0933
  782SOL     OW 2893   6.207   2.783   0.041  0.0786 -0.1277 -0.5374
  782SOL    HW2 2894   6.291   2.805   0.001  0.3897  0.1359  0.2368
  782SOL    HW3 2895   6.221   2.697   0.080  0.2955  0.3347  0.4245
  782SOL    MW4 2896   6.220   2.775   0.041  0.1483 -0.0319 -0.3083
  783SOL     OW 2897   5.311   2.001   4.249  0.0355 -0.1387 -0.1320
  783SOL    HW2 2898   5.393   2.024   4.205 -0.8618  2.4620 -0.6319
  783SOL    HW3 2899   5.315   2.049   4.332 -1.0496  0.1769 -0.2566
  783SOL    MW4 2900   5.323   2.010   4.255 -0.2261  0.2461 -0.2144
  784SOL     OW 2901   5.216   2.084   5.284  0.2181 -0.3542  0.3363
  784SOL    HW2 2902   5.303   2.119   5.266  0.0281 -0.2753 -0.4813
  784SOL    HW3 2903   5.198   2.026   5.210 -0.1083 -0.9642  0.8905
  784SOL    MW4 2904   5.225   2.081   5.272  0.1500 -0.4243  0.3015
  785SOL     OW 2905   0.206   0.645   5.850 -0.2693  0.3586 -0.3609
  785SOL    HW2 2906   0.192   0.663   5.757 -0.1055  0.0724 -0.4410
  785SOL    HW3 2907   0.126   0.600   5.878 -0.5846  0.9940 -0.2128
  785SOL    MW4 2908   0.193   0.642   5.842 -0.2893  0.4047 -0.3519
  786SOL     OW 2909   4.160   5.160   4.794  0.0045 -0.6004 -1.0265
  786SOL    HW2 2910   4.144   5.085   4.851  0.2155 -1.4883 -2.0958
  786SOL    HW3 2911   4.095   5.152   4.724  1.8593 -1.4717 -2.7378
  786SOL    MW4 2912   4.149   5.149   4.792  0.2771 -0.8325 -1.3933
  787SOL     OW 2913   5.786   4.958   0.734  0.3406  0.0154  0.2313
  787SOL    HW2 2914   5.760   4.943   0.825 -0.1804  1.1006  0.2838
  787SOL    HW3 2915   5.855   5.024   0.740  1.0832 -0.7166 -0.1028
  787SOL    MW4 2916   5.791   4.965   0.747  0.3699  0.0620  0.1942
  788SOL     OW 2917   4.628   1.447   4.186  0.5865  0.2763  0.0358
  788SOL    HW2 2918   4.583   1.484   4.110  3.0664 -0.5626 -1.9649
  788SOL    HW3 2919   4.679   1.519   4.222  1.9077 -0.0555 -1.1104
  788SOL    MW4 2920   4.629   1.461   4.181  1.0880  0.1219 -0.3794
  789SOL     OW 2921   1.843   1.573   6.053  0.3122 -0.3773  0.2884
  789SOL    HW2 2922   1.849   1.666   6.032 -0.3689 -0.4392 -0.1915
  789SOL    HW3 2923   1.836   1.529   5.968 -0.2273 -0.7996  0.5407
  789SOL    MW4 2924   1.843   1.579   6.039  0.1512 -0.4412  0.2584
  790SOL     OW 2925   0.790   6.318   1.862 -0.0647 -0.2109 -0.3301
  790SOL    HW2 2926   0.704   6.295   1.897 -1.2666  3.2173 -0.6602
  790SOL    HW3 2927   0.786   6.293   1.770 -0.8561  0.2064 -0.4174
  790SOL    MW4 2928   0.778   6.311   1.855 -0.3277  0.2965 -0.3851
  791SOL     OW 2929   0.252   4.861   4.019 -1.1388 -0.6304 -0.5739
  791SOL    HW2 2930   0.303   4.938   3.991 -0.6414 -1.1665 -1.1794
  791SOL    HW3 2931   0.220   4.884   4.106 -1.4738  0.4947 -0.9729
  791SOL    MW4 2932   0.254   4.874   4.026 -1.1174 -0.5527 -0.7064
  792SOL     OW 2933   1.947   6.274   2.678 -0.1877 -0.0266  0.1610
  792SOL    HW2 2934   1.885   6.263   2.750  2.0004 -1.0713  2.0164
  792SOL    HW3 2935   1.996   6.192   2.676  1.1855  0.7735 -1.2145
  792SOL    MW4 2936   1.945   6.262   2.687  0.2821 -0.0589  0.2243
  793SOL     OW 2937   0.517   0.697   4.044 -0.3619 -0.4700  0.4125
  793SOL    HW2 2938   0.593   0.701   4.102  0.5978 -1.2362 -0.7608
  793SOL    HW3 2939   0.443   0.684   4.104  0.3839  0.4290  1.5836
  793SOL    MW4 2940   0.517   0.696   4.060 -0.1369 -0.4525  0.4122
  794SOL     OW 2941   6.147   3.987   4.584 -0.6780  0.2421  0.7870
  794SOL    HW2 2942   6.151   3.913   4.523  0.5093  0.0612  1.0620
  794SOL    HW3 2943   6.130   3.946   4.669  0.6139  0.2047  1.0448
  794SOL    MW4 2944   6.145   3.972   4.587 -0.3509  0.2133  0.8573
  795SOL     OW 2945   4.046   3.645   1.853  0.1550  0.8562  0.0050
  795SOL    HW2 2946   3.975   3.645   1.789  0.5788  0.8080 -0.4628
  795SOL    HW3 2947   4.013   3.700   1.924 -1.2070 -0.8153  0.7422
  795SOL    MW4 2948   4.032   3.652   1.854  0.0312  0.6293  0.0406
  796SOL     OW 2949   0.408   3.755   5.476  0.1389 -0.4033  0.1248
  796SOL    HW2 2950   0.413   3.681   5.416 -3.1736 -0.7462  0.1119
  796SOL    HW3 2951   0.425   3.832   5.421  1.2488 -0.9603 -0.3432
  796SOL    MW4 2952   0.411   3.755   5.461 -0.1517 -0.5220  0.0614
  797SOL     OW 2953   4.626   1.553   1.743 -0.7160 -0.5356 -0.0652
  797SOL    HW2 2954   4.692   1.617   1.769 -1.0784 -0.1459 -0.1056
  797SOL    HW3 2955   4.557   1.604   1.702 -0.9089 -0.9751 -0.2963
  797SOL    MW4 2956   4.626   1.568   1.741 -0.7893 -0.5422 -0.1010
  798SOL     OW 2957   1.479   4.034   5.529  0.1217  0.3922 -0.4688
  798SOL    HW2 2958   1.521   3.955   5.563 -0.0650 -0.2779 -1.7535
  798SOL    HW3 2959   1.433   4.070   5.605  0.2183 -0.7257  0.1496
  798SOL    MW4 2960   1.478   4.028   5.544  0.1098  0.1563 -0.5567
  799SOL     OW 2961   0.571   2.059   3.655  0.5289 -0.2979 -0.0797
  799SOL    HW2 2962   0.553   2.042   3.747 -0.3601  1.0475  0.0247
  799SOL    HW3 2963   0.485   2.061   3.613  0.7035  1.6731 -0.4384
  799SOL    MW4 2964   0.557   2.057   3.661  0.4347  0.1397 -0.1133
  800SOL     OW 2965   4.065   1.350   3.588 -0.3953 -0.0425  0.2481
  800SOL    HW2 2966   4.099   1.431   3.550  1.5666 -0.7750  0.3270
  800SOL    HW3 2967   4.116   1.338   3.669 -0.5908 -1.3695  0.2017
  800SOL    MW4 2968   4.076   1.359   3.594 -0.1622 -0.3142  0.2524
  801SOL     OW 2969   1.024   4.542   1.039 -0.1973  0.8359  0.6320
  801SOL    HW2 2970   1.116   4.524   1.025 -0.4672 -4.0543  2.9603
  801SOL    HW3 2971   0.978   4.473   0.992 -2.4066  0.9581  2.4099
  801SOL    MW4 2972   1.030   4.531   1.031 -0.5244  0.2068  1.1738
  802SOL     OW 2973   2.899   2.384   2.980  0.2855 -0.1906 -0.0807
  802SOL    HW2 2974   2.957   2.308   2.980  1.7779  0.8472  2.2595
  802SOL    HW3 2975   2.841   2.370   3.055 -0.5121  0.2217 -0.6033
  802SOL    MW4 2976   2.899   2.372   2.990  0.3771  0.0008  0.1591
  803SOL     OW 2977   5.078   4.445   2.736 -0.6783 -0.2220 -0.5360
  803SOL    HW2 2978   5.021   4.439   2.660 -1.6164  1.7636 -0.0677
  803SOL    HW3 2979   5.028   4.405   2.807 -0.4791 -0.6223 -0.6196
  803SOL    MW4 2980   5.064   4.439   2.735 -0.7758 -0.0128 -0.4852
  804SOL     OW 2981   1.330   4.452   4.544  0.3043 -0.0914 -0.3719
  804SOL    HW2 2982   1.333   4.373   4.599  2.1472  0.6079  0.6025
  804SOL    HW3 2983   1.257   4.436   4.484 -0.5483 -1.7351  1.0033
  804SOL    MW4 2984   1.321   4.439   4.543  0.4350 -0.2160 -0.0619
  805SOL     OW 2985   1.172   0.061   2.311 -0.3842  0.2186  0.2153
  805SOL    HW2 2986   1.119   0.065   2.391 -0.3644  1.5619  0.1816
  805SOL    HW3 2987   1.198  -0.031   2.305 -2.5838 -0.4802  0.3157
  805SOL    MW4 2988   1.168   0.049   2.321 -0.6718  0.3036  0.2241
  806SOL     OW 2989   6.240   3.884   3.903 -0.6110  0.3784  0.7314
  806SOL    HW2 2990   6.203   3.800   3.929 -2.1735  1.0091  0.6801
  806SOL    HW3 2991   6.332   3.878   3.926 -0.4466 -1.7310 -0.2388
  806SOL    MW4 2992   6.247   3.872   3.910 -0.7954  0.1833  0.5967
  807SOL     OW 2993   5.216   1.519   1.213  0.5136  0.0182 -0.0772
  807SOL    HW2 2994   5.222   1.487   1.123  1.3092 -1.3197  0.4212
  807SOL    HW3 2995   5.126   1.499   1.240  0.5418 -0.3825 -0.2819
  807SOL    MW4 2996   5.205   1.512   1.205  0.6223 -0.2112 -0.0385
  808SOL     OW 2997   3.528   5.416   1.081  0.3441 -0.3882  0.6304
  808SOL    HW2 2998   3.599   5.477   1.060  0.1990  0.0195  1.2821
  808SOL    HW3 2999   3.558   5.331   1.048  0.9671 -0.1425  0.5535
  808SOL    MW4 3000   3.542   5.413   1.074  0.4072 -0.3020  0.7063
  809SOL     OW 3001   5.019   4.034   4.064 -0.4333 -0.2228  0.3167
  809SOL    HW2 3002   5.003   3.948   4.026  1.6602  0.0360 -1.3792
  809SOL    HW3 3003   4.935   4.079   4.060 -0.7015 -0.8013 -2.6160
  809SOL    MW4 3004   5.006   4.029   4.058 -0.1925 -0.2650 -0.2940
  810SOL     OW 3005   3.183   2.419   4.794 -0.1652  0.6448  0.1127
  810SOL    HW2 3006   3.176   2.336   4.841 -0.1857  0.2004 -0.6558
  810SOL    HW3 3007   3.194   2.393   4.703 -0.2414  1.4955 -0.1395
  810SOL    MW4 3008   3.184   2.404   4.788 -0.1779  0.6984 -0.0220
  811SOL     OW 3009   4.929   5.727   4.176  0.6566 -1.3276  0.4039
  811SOL    HW2 3010   4.930   5.742   4.270 -2.2433 -1.4831  0.5413
  811SOL    HW3 3011   4.839   5.701   4.156  1.0447 -0.8395 -2.5007
  811SOL    MW4 3012   4.917   5.725   4.185  0.3252 -1.2837  0.0388
  812SOL     OW 3013   1.069   1.720   6.329 -0.1877 -0.1820  0.7570
  812SOL    HW2 3014   1.100   1.692   6.242  0.1484  2.2748  0.0007
  812SOL    HW3 3015   0.975   1.733   6.318 -0.0362  0.8289  0.5028
  812SOL    MW4 3016   1.061   1.718   6.316 -0.1233  0.2755  0.6237
  813SOL     OW 3017   1.203   6.129   6.075  0.1596 -0.1927  0.0255
  813SOL    HW2 3018   1.124   6.153   6.123 -0.3331 -1.5861 -0.0568
  813SOL    HW3 3019   1.252   6.072   6.135  1.5901  1.3992  0.4447
  813SOL    MW4 3020   1.199   6.125   6.089  0.2833 -0.1665  0.0700
  814SOL     OW 3021   2.859   5.382   1.164 -0.3324  0.0327 -0.2921
  814SOL    HW2 3022   2.793   5.399   1.096 -0.7858  1.5880  0.5011
  814SOL    HW3 3023   2.906   5.464   1.174  0.4444 -0.4934  0.5317
  814SOL    MW4 3024   2.856   5.395   1.157 -0.2897  0.1685 -0.0788
  815SOL     OW 3025   5.584   6.255   2.180  0.2405 -0.3464 -0.0252
  815SOL    HW2 3026   5.618   6.168   2.158  0.0979 -0.1038 -1.2763
  815SOL    HW3 3027   5.491   6.250   2.161  0.3521  0.2757 -0.7582
  815SOL    MW4 3028   5.576   6.243   2.175  0.2364 -0.2323 -0.2870
  816SOL     OW 3029   6.188   4.609   6.230 -0.6745  0.2917 -0.1958
  816SOL    HW2 3030   6.273   4.639   6.261  0.0629 -0.8562 -1.0197
  816SOL    HW3 3031   6.180   4.647   6.142 -0.2639 -0.8761 -0.7666
  816SOL    MW4 3032   6.198   4.618   6.222 -0.5230 -0.0138 -0.3798
  817SOL     OW 3033   1.051   2.743   1.257 -0.0247 -0.1186 -0.2205
  817SOL    HW2 3034   0.962   2.756   1.292  0.0354 -0.1573 -0.0504
  817SOL    HW3 3035   1.078   2.830   1.229  0.1102  0.0016  0.2758
  817SOL    MW4 3036   1.043   2.756   1.258  0.0010 -0.1078 -0.1326
  818SOL     OW 3037   3.599   4.330   6.031  0.6276 -0.2520  0.0388
  818SOL    HW2 3038   3.565   4.341   5.942 -0.3880 -0.4253  0.3969
  818SOL    HW3 3039   3.680   4.280   6.020 -0.5527 -2.1367 -0.6387
  818SOL    MW4 3040   3.605   4.325   6.018  0.3378 -0.5236 -0.0033
  819SOL     OW 3041   6.151   1.864   3.238  0.1177  0.0224 -0.0578
  819SOL    HW2 3042   6.161   1.815   3.320  0.5707 -0.2890 -0.2943
  819SOL    HW3 3043   6.084   1.815   3.189  0.5354 -0.3373 -0.2733
  819SOL    MW4 3044   6.143   1.851   3.242  0.2326 -0.0662 -0.1174
  820SOL     OW 3045   2.833   4.599   3.348 -0.2599 -0.0208  0.0159
  820SOL    HW2 3046   2.893   4.569   3.280  0.5136  1.7720 -0.1478
  820SOL    HW3 3047   2.761   4.535   3.347 -0.2849 -0.0296 -2.4847
  820SOL    MW4 3048   2.831   4.586   3.339 -0.1611  0.2146 -0.3356
  821SOL     OW 3049   6.006   6.170   2.128 -0.1596 -0.4758  0.4353
  821SOL    HW2 3050   6.007   6.183   2.033 -2.2057 -2.0967  0.1068
  821SOL    HW3 3051   6.083   6.117   2.146  0.5796  0.3490 -0.2038
  821SOL    MW4 3052   6.016   6.165   2.118 -0.3321 -0.5809  0.3077
  822SOL     OW 3053   1.103   0.055   5.763 -0.4064  0.2161  0.6157
  822SOL    HW2 3054   1.053   0.136   5.769  1.0861  1.2103  0.2628
  822SOL    HW3 3055   1.043  -0.009   5.725 -1.0098  1.7108 -1.0583
  822SOL    MW4 3056   1.089   0.057   5.759 -0.2891  0.5445  0.3483
  823SOL     OW 3057   0.800   4.940   5.364  0.3050  0.0209 -0.0628
  823SOL    HW2 3058   0.841   5.011   5.314  2.7008  0.4394  2.3067
  823SOL    HW3 3059   0.862   4.867   5.357  0.5798  0.0138  2.0055
  823SOL    MW4 3060   0.813   4.940   5.356  0.6573  0.0752  0.5227
  824SOL     OW 3061   3.264   4.595   4.354  0.1495  0.1058 -0.1437
  824SOL    HW2 3062   3.231   4.543   4.428 -0.9036  0.4232 -0.3744
  824SOL    HW3 3063   3.347   4.553   4.332 -0.0303 -0.6576  0.5346
  824SOL    MW4 3064   3.271   4.582   4.361 -0.0131  0.0470 -0.0847
  825SOL     OW 3065   3.320   3.892   2.459 -0.2319 -0.1991  0.6519
  825SOL    HW2 3066   3.251   3.842   2.503 -0.3965  0.0467  0.6732
  825SOL    HW3 3067   3.291   3.898   2.368  0.8830 -2.1247  0.0974
  825SOL    MW4 3068   3.307   3.886   2.453 -0.1065 -0.4207  0.5816
  826SOL     OW 3069   2.495   1.024   2.920 -0.6473 -0.2384  0.0259
  826SOL    HW2 3070   2.509   1.101   2.974  1.0463 -0.2699 -0.2950
  826SOL    HW3 3071   2.459   0.958   2.980 -1.9346  0.7204  0.3386
  826SOL    MW4 3072   2.492   1.025   2.935 -0.5937 -0.1160  0.0248
  827SOL     OW 3073   3.170   1.860   0.884  0.3035 -0.8224 -0.0244
  827SOL    HW2 3074   3.112   1.875   0.959  0.8165 -1.9101  0.6166
  827SOL    HW3 3075   3.255   1.892   0.913  0.0360  0.9082 -1.0152
  827SOL    MW4 3076   3.174   1.866   0.898  0.3359 -0.7376 -0.0705
  828SOL     OW 3077   1.321   3.833   1.403  0.6725  0.3454  0.4725
  828SOL    HW2 3078   1.396   3.876   1.444  1.2481  0.1586 -0.3572
  828SOL    HW3 3079   1.327   3.858   1.311 -0.7522  0.9773  0.5324
  828SOL    MW4 3080   1.332   3.842   1.396  0.5605  0.4041  0.3710
  829SOL     OW 3081   4.176   4.249   2.077  0.1205 -0.0845  0.2069
  829SOL    HW2 3082   4.187   4.329   2.130 -0.1263  1.3031 -1.7148
  829SOL    HW3 3083   4.127   4.279   2.000  1.5706 -1.7108 -1.4394
  829SOL    MW4 3084   4.171   4.264   2.074  0.2792 -0.1160 -0.2638
  830SOL     OW 3085   1.941   1.322   1.097  0.6657  0.4178  0.1026
  830SOL    HW2 3086   1.922   1.295   1.007  1.7231  0.3792 -0.1180
  830SOL    HW3 3087   1.955   1.240   1.144  0.4893  0.4564  0.2271
  830SOL    MW4 3088   1.940   1.308   1.091  0.7819  0.4178  0.0899
  831SOL     OW 3089   0.673   6.290   0.420  1.3339 -0.1553  0.4311
  831SOL    HW2 3090   0.754   6.325   0.456  1.2154  0.4189  0.1651
  831SOL    HW3 3091   0.609   6.360   0.434  1.0030 -0.4112  0.2099
  831SOL    MW4 3092   0.675   6.304   0.426  1.2746 -0.1133  0.3668
  832SOL     OW 3093   3.588   2.265   0.560 -0.3153  0.1944  0.4493
  832SOL    HW2 3094   3.677   2.237   0.538 -1.3092 -1.1561 -2.3115
  832SOL    HW3 3095   3.566   2.216   0.640  0.8297 -0.7544  0.2048
  832SOL    MW4 3096   3.597   2.255   0.568 -0.2954 -0.1090  0.0528
  833SOL     OW 3097   5.962   2.119   3.976 -0.4517 -0.4210  0.2432
  833SOL    HW2 3098   5.997   2.159   4.056 -1.5104  2.7649 -0.7315
  833SOL    HW3 3099   5.868   2.115   3.990 -0.4919 -1.5214 -0.2062
  833SOL    MW4 3100   5.954   2.124   3.988 -0.5967 -0.1458  0.0553
  834SOL     OW 3101   6.173   5.578   2.743 -0.1727  0.2334  0.3819
  834SOL    HW2 3102   6.122   5.517   2.690  2.3357 -0.5718 -1.3249
  834SOL    HW3 3103   6.190   5.531   2.824  0.5523 -0.8733 -0.3675
  834SOL    MW4 3104   6.169   5.564   2.746  0.2539 -0.0189  0.0578
  835SOL     OW 3105   3.685   0.385   5.367 -0.3810  0.0728  0.1335
  835SOL    HW2 3106   3.652   0.468   5.401 -2.0554 -1.0362  1.3849
  835SOL    HW3 3107   3.757   0.362   5.426  0.1254  0.6193 -0.2488
  835SOL    MW4 3108   3.690   0.393   5.380 -0.5351 -0.0014  0.2482
  836SOL     OW 3109   3.677   0.250   4.133 -1.0411 -0.1005 -0.3882
  836SOL    HW2 3110   3.585   0.237   4.112 -0.9845 -2.0302  0.3052
  836SOL    HW3 3111   3.682   0.234   4.227  0.1538 -1.2107 -0.6072
  836SOL    MW4 3112   3.666   0.246   4.143 -0.8760 -0.5016 -0.3256
  837SOL     OW 3113   3.892   1.847   2.606  0.3148 -0.0254  0.5307
  837SOL    HW2 3114   3.975   1.895   2.612  0.3621 -0.1940  1.3341
  837SOL    HW3 3115   3.903   1.792   2.529  1.4785 -1.0071  1.3549
  837SOL    MW4 3116   3.905   1.846   2.597  0.4746 -0.1772  0.7454
  838SOL     OW 3117   3.078   4.829   2.440  0.4146  0.0121  0.5484
  838SOL    HW2 3118   3.002   4.846   2.495 -1.0358  0.6267 -1.5360
  838SOL    HW3 3119   3.151   4.822   2.501 -1.5363 -2.4833  2.8266
  838SOL    MW4 3120   3.078   4.830   2.455 -0.0342 -0.2361  0.5740
  839SOL     OW 3121   3.320   0.219   2.955  0.0462 -0.2556 -0.4138
  839SOL    HW2 3122   3.352   0.280   3.022  0.8374  2.4737 -3.0873
  839SOL    HW3 3123   3.235   0.189   2.989  0.8557  0.2024  2.2282
  839SOL    MW4 3124   3.313   0.223   2.969  0.2574  0.1649 -0.4180
  840SOL     OW 3125   2.329   0.825   3.032 -0.1732  0.1717 -0.0806
  840SOL    HW2 3126   2.283   0.901   3.067 -0.5577  0.0449 -0.3005
  840SOL    HW3 3127   2.284   0.806   2.950  1.2101  0.9642 -1.0763
  840SOL    MW4 3128   2.317   0.832   3.026 -0.0414  0.2595 -0.2410
  841SOL     OW 3129   5.555   4.696   3.709 -0.2364  0.9621  0.0505
  841SOL    HW2 3130   5.479   4.641   3.730 -0.3892  0.9617 -0.4893
  841SOL    HW3 3131   5.607   4.642   3.649 -0.6279  1.5882 -0.8596
  841SOL    MW4 3132   5.552   4.681   3.704 -0.3082  1.0447 -0.1408
  842SOL     OW 3133   3.764   5.120   2.817 -0.5145  0.0303 -0.7815
  842SOL    HW2 3134   3.752   5.175   2.894  0.1054  0.4978 -1.0159
  842SOL    HW3 3135   3.682   5.071   2.810  0.4232 -2.2132  1.9051
  842SOL    MW4 3136   3.751   5.120   2.827 -0.3090 -0.2040 -0.4579
  843SOL     OW 3137   5.314   1.208   2.691 -0.3752  0.0434  0.0500
  843SOL    HW2 3138   5.403   1.176   2.681  0.6495  3.0409 -1.9640
  843SOL    HW3 3139   5.297   1.204   2.785  3.1055  2.1218  0.9385
  843SOL    MW4 3140   5.323   1.204   2.702  0.2192  0.7131 -0.0985
  844SOL     OW 3141   5.053   3.946   4.332  0.3172  0.0481  0.4231
  844SOL    HW2 3142   5.045   3.971   4.240 -2.4095  0.9058  0.8231
  844SOL    HW3 3143   4.966   3.960   4.369  1.8039  1.8688  3.6493
  844SOL    MW4 3144   5.041   3.951   4.325  0.1536  0.4014  0.9015
  845SOL     OW 3145   1.460   2.485   1.074  0.2959 -0.3547 -0.3147
  845SOL    HW2 3146   1.388   2.505   1.133  0.3677 -0.7183 -0.1036
  845SOL    HW3 3147   1.523   2.555   1.088  0.3543 -0.4912  0.1057
  845SOL    MW4 3148   1.459   2.497   1.083  0.3130 -0.4207 -0.2314
  846SOL     OW 3149   4.254   1.515   4.849  0.2939 -0.2614 -0.4214
  846SOL    HW2 3150   4.346   1.489   4.844  0.0959 -0.9726 -0.4558
  846SOL    HW3 3151   4.225   1.517   4.758  0.8046  1.9960 -0.6020
  846SOL    MW4 3152   4.262   1.512   4.837  0.3352 -0.0574 -0.4497
  847SOL     OW 3153   4.695   5.084   2.772 -0.7143 -0.1407  0.5030
  847SOL    HW2 3154   4.609   5.072   2.812 -1.3850  1.1346 -0.4817
  847SOL    HW3 3155   4.688   5.043   2.686  0.5984 -2.5280  1.4414
  847SOL    MW4 3156   4.683   5.077   2.766 -0.6296 -0.2874  0.4969
  848SOL     OW 3157   6.114   0.050   5.830  0.0087 -0.6318  0.0893
  848SOL    HW2 3158   6.146  -0.040   5.837  0.2529 -0.7200 -1.6220
  848SOL    HW3 3159   6.021   0.044   5.853  0.5605 -0.8387  2.4705
  848SOL    MW4 3160   6.106   0.037   5.834  0.1137 -0.6708  0.1777
  849SOL     OW 3161   3.938   0.133   1.686  0.1477 -0.0433  0.1007
  849SOL    HW2 3162   3.923   0.165   1.597  1.1425  0.8857  0.2461
  849SOL    HW3 3163   4.033   0.132   1.696  0.0514  1.2419  1.6155
  849SOL    MW4 3164   3.949   0.137   1.676  0.2663  0.2488  0.3197
  850SOL     OW 3165   6.101   0.730   0.238 -0.1170 -0.4840  0.5640
  850SOL    HW2 3166   6.017   0.756   0.276 -0.6394 -1.0244 -0.1788
  850SOL    HW3 3167   6.095   0.755   0.146  0.1089 -1.4715  0.2640
  850SOL    MW4 3168   6.089   0.737   0.231 -0.1561 -0.6856  0.4264
  851SOL     OW 3169   6.015   0.649   1.891  0.1748  0.0903 -0.1238
  851SOL    HW2 3170   6.105   0.646   1.923 -0.0937 -0.9020  0.5867
  851SOL    HW3 3171   6.013   0.725   1.833  1.5283  0.0015 -0.3284
  851SOL    MW4 3172   6.027   0.658   1.887  0.3180 -0.0523 -0.0570
  852SOL     OW 3173   0.407   0.476   0.077 -0.0962  0.3257 -0.1717
  852SOL    HW2 3174   0.326   0.496   0.123 -0.2292  0.6239 -0.5328
  852SOL    HW3 3175   0.393   0.390   0.038 -0.3974  0.5610 -0.5876
  852SOL    MW4 3176   0.395   0.468   0.078 -0.1535  0.3961 -0.2742
  853SOL     OW 3177   1.960   5.880   4.992 -0.1967  0.0288  0.1854
  853SOL    HW2 3178   1.980   5.923   5.075  1.8826  1.8916 -1.1608
  853SOL    HW3 3179   1.864   5.875   4.989 -0.3150 -0.1341  2.6599
  853SOL    MW4 3180   1.950   5.885   5.003  0.0620  0.2530  0.3343
  854SOL     OW 3181   4.498   5.286   2.241 -0.2935  0.7588  0.1278
  854SOL    HW2 3182   4.449   5.368   2.236 -0.7072  0.4658 -0.9181
  854SOL    HW3 3183   4.557   5.298   2.316  0.2700  2.3544 -0.5207
  854SOL    MW4 3184   4.499   5.298   2.250 -0.2738  0.9307 -0.0958
  855SOL     OW 3185   4.312   2.980   3.024 -0.7024  0.2110  0.3832
  855SOL    HW2 3186   4.388   2.939   2.982 -1.3625  0.7802 -1.4326
  855SOL    HW3 3187   4.347   3.059   3.064 -0.3649  0.6098 -0.6749
  855SOL    MW4 3188   4.327   2.985   3.024 -0.7450  0.3387  0.0040
  856SOL     OW 3189   5.932   5.287   2.095 -0.1409 -0.0318 -0.4887
  856SOL    HW2 3190   5.980   5.212   2.130 -0.9727 -0.8506 -1.0589
  856SOL    HW3 3191   5.931   5.350   2.167 -0.9111 -1.2502  0.6365
  856SOL    MW4 3192   5.938   5.285   2.109 -0.3522 -0.3006 -0.4155
  857SOL     OW 3193   5.783   2.043   2.838 -0.3432 -0.7302  0.5849
  857SOL    HW2 3194   5.721   2.029   2.767  0.5138 -0.0610 -0.3038
  857SOL    HW3 3195   5.800   1.955   2.872 -1.0674 -1.0101  0.2429
  857SOL    MW4 3196   5.777   2.029   2.833 -0.3257 -0.6788  0.4225
  858SOL     OW 3197   5.165   2.108   1.352  0.5795 -0.7870 -0.1184
  858SOL    HW2 3198   5.239   2.165   1.374  0.5093  0.0152 -1.7933
  858SOL    HW3 3199   5.195   2.059   1.275 -1.3272  1.2021 -2.3060
  858SOL    MW4 3200   5.179   2.109   1.345  0.3187 -0.4187 -0.6280
  859SOL     OW 3201   2.140   1.779   0.642 -0.4301  0.0023  0.2486
  859SOL    HW2 3202   2.116   1.713   0.707 -0.5960 -0.9224 -0.7282
  859SOL    HW3 3203   2.175   1.729   0.568 -1.5472  0.9101 -0.9415
  859SOL    MW4 3204   2.141   1.764   0.641 -0.5993  0.0001 -0.0373
  860SOL     OW 3205   5.843   5.899   4.996  0.0894  0.6839  0.6313
  860SOL    HW2 3206   5.831   5.876   4.904  1.2212 -1.1740  0.9049
  860SOL    HW3 3207   5.767   5.861   5.040  0.6172 -0.3018  0.7223
  860SOL    MW4 3208   5.831   5.891   4.989  0.3084  0.3087  0.6794
  861SOL     OW 3209   0.306   2.202   0.501  0.0964  0.1576 -0.4469
  861SOL    HW2 3210   0.296   2.160   0.587 -0.6484  1.4656  0.1251
  861SOL    HW3 3211   0.279   2.134   0.439 -1.5451 -0.0869  0.4802
  861SOL    MW4 3212   0.301   2.187   0.504 -0.2184  0.2979 -0.2491
  862SOL     OW 3213   4.736   1.796   2.396 -0.0341 -0.3393  0.2175
  862SOL    HW2 3214   4.831   1.797   2.396  0.0464 -2.3315 -1.2272
  862SOL    HW3 3215   4.711   1.862   2.331  0.4160 -0.8958 -0.5259
  862SOL    MW4 3216   4.745   1.805   2.387  0.0359 -0.6756 -0.0712
  863SOL     OW 3217   1.552   0.480   0.278 -0.9698 -0.3702 -0.4027
  863SOL    HW2 3218   1.478   0.533   0.308 -1.1638 -1.3031  0.8791
  863SOL    HW3 3219   1.521   0.389   0.285  0.4886 -0.8199  0.8439
  863SOL    MW4 3220   1.538   0.475   0.283 -0.8030 -0.5526 -0.0691
  864SOL     OW 3221   5.286   0.541   3.264  0.2404 -0.0138 -0.6839
  864SOL    HW2 3222   5.210   0.600   3.268 -0.0289 -0.2764 -1.5666
  864SOL    HW3 3223   5.268   0.475   3.331  0.5516  0.8954  0.3226
  864SOL    MW4 3224   5.273   0.540   3.273  0.2459  0.0715 -0.6676
  865SOL     OW 3225   6.136   4.996   1.891  0.3046 -0.0713 -0.4414
  865SOL    HW2 3226   6.193   4.919   1.885  0.0178 -0.3269  0.0868
  865SOL    HW3 3227   6.189   5.061   1.936  0.3578 -0.1363 -0.4090
  865SOL    MW4 3228   6.151   4.994   1.896  0.2738 -0.1136 -0.3674
  866SOL     OW 3229   0.492   3.836   1.764 -0.0638 -0.2871 -0.3236
  866SOL    HW2 3230   0.445   3.888   1.699  0.6212  0.5519 -0.1737
  866SOL    HW3 3231   0.433   3.834   1.840  0.4082  1.4245  0.1510
  866SOL    MW4 3232   0.478   3.843   1.766  0.0889  0.0494 -0.2412
  867SOL     OW 3233   2.833   5.234   2.365 -0.1812 -0.1126  0.6579
  867SOL    HW2 3234   2.893   5.270   2.300 -0.0379  1.6207  1.6709
  867SOL    HW3 3235   2.886   5.227   2.445 -0.0756 -3.1399  0.4367
  867SOL    MW4 3236   2.848   5.238   2.367 -0.1484 -0.2834  0.7624
  868SOL     OW 3237   2.874   0.103   3.199 -0.2976 -0.1658 -0.3411
  868SOL    HW2 3238   2.874   0.152   3.281  1.2638  1.1079 -1.0608
  868SOL    HW3 3239   2.796   0.048   3.204 -1.5648  1.6683  0.9214
  868SOL    MW4 3240   2.864   0.102   3.211 -0.2587  0.2442 -0.2695
  869SOL     OW 3241   5.170   3.069   1.641  0.0650  0.3344 -0.8239
  869SOL    HW2 3242   5.144   3.156   1.668 -2.4297  0.9024 -4.3266
  869SOL    HW3 3243   5.183   3.076   1.546  0.0644 -3.0157 -1.2012
  869SOL    MW4 3244   5.168   3.081   1.632 -0.2642 -0.0326 -1.3358
  870SOL     OW 3245   4.497   3.565   5.122  0.4068 -0.1927 -0.4718
  870SOL    HW2 3246   4.480   3.627   5.192 -0.5730 -0.6817 -0.2536
  870SOL    HW3 3247   4.464   3.481   5.156  1.7722 -0.8691 -0.7190
  870SOL    MW4 3248   4.491   3.562   5.136  0.4577 -0.3465 -0.4756
  871SOL     OW 3249   5.352   6.035   6.016  0.0269 -0.2039 -0.2320
  871SOL    HW2 3250   5.407   6.079   5.952 -3.0518  2.2622 -1.4534
  871SOL    HW3 3251   5.342   6.098   6.087  0.1898 -1.3284  0.8241
  871SOL    MW4 3252   5.358   6.049   6.017 -0.3578 -0.0269 -0.2538
  872SOL     OW 3253   2.473   1.565   0.048 -0.3974 -0.3352  0.0481
  872SOL    HW2 3254   2.479   1.507  -0.028 -1.6591 -0.5549  0.0829
  872SOL    HW3 3255   2.554   1.616   0.047 -0.3062 -0.4703 -1.3350
  872SOL    MW4 3256   2.484   1.564   0.038 -0.5518 -0.3820 -0.1298
  873SOL     OW 3257   6.197   0.275   0.421 -0.0601 -0.0092 -0.1195
  873SOL    HW2 3258   6.144   0.328   0.361 -1.2718 -1.6160 -0.5370
  873SOL    HW3 3259   6.220   0.198   0.370  0.5898 -0.4763  0.8606
  873SOL    MW4 3260   6.193   0.272   0.406 -0.1342 -0.2828 -0.0453
  874SOL     OW 3261   2.031   2.113   3.126 -0.0315  0.7949 -0.1253
  874SOL    HW2 3262   1.988   2.138   3.045 -1.7143 -2.1004 -0.2676
  874SOL    HW3 3263   2.069   2.026   3.108  3.5424  1.9353  0.8941
  874SOL    MW4 3264   2.031   2.105   3.113  0.2180  0.5634 -0.0096
  875SOL     OW 3265   5.437   2.987   0.575 -0.1882 -0.4343  0.0951
  875SOL    HW2 3266   5.346   2.959   0.579 -0.2169 -0.6025 -1.2097
  875SOL    HW3 3267   5.482   2.931   0.638 -1.0340 -0.0820  1.0346
  875SOL    MW4 3268   5.431   2.976   0.584 -0.3035 -0.4100  0.0469
  876SOL     OW 3269   1.258   1.265   1.856 -0.3272 -0.3006  0.4625
  876SOL    HW2 3270   1.262   1.201   1.785 -0.6187 -1.8975  1.8042
  876SOL    HW3 3271   1.249   1.349   1.813  0.5259 -1.1139 -1.4024
  876SOL    MW4 3272   1.258   1.267   1.841 -0.2531 -0.6186  0.3935
  877SOL     OW 3273   0.206   5.058   5.336 -0.2665  0.4095 -0.4165
  877SOL    HW2 3274   0.114   5.033   5.346 -0.1716  0.0732 -0.3723
  877SOL    HW3 3275   0.223   5.115   5.411 -0.6192  1.0043 -0.7888
  877SOL    MW4 3276   0.196   5.062   5.347 -0.3005  0.4436 -0.4598
  878SOL     OW 3277   3.224   3.110   6.063 -0.0704  0.0260  0.2630
  878SOL    HW2 3278   3.160   3.176   6.090 -0.9405 -0.2772 -0.9793
  878SOL    HW3 3279   3.179   3.026   6.076  0.4357 -0.2405  0.3078
  878SOL    MW4 3280   3.209   3.108   6.068 -0.1184 -0.0492  0.1050
  879SOL     OW 3281   1.189   3.799   4.089  0.4731  0.7091 -0.1262
  879SOL    HW2 3282   1.150   3.874   4.135 -0.4020  0.1767  0.0117
  879SOL    HW3 3283   1.227   3.837   4.010  0.8177  1.4316  0.3665
  879SOL    MW4 3284   1.189   3.814   4.085  0.4031  0.7342 -0.0430
  880SOL     OW 3285   2.533   6.403   0.982 -0.5044  0.5390 -0.2609
  880SOL    HW2 3286   2.626   6.425   0.985 -0.2853 -0.4160  0.6326
  880SOL    HW3 3287   2.525   6.341   0.909 -0.2597 -0.0555  0.1999
  880SOL    MW4 3288   2.544   6.397   0.973 -0.4432  0.3346 -0.0822
  881SOL     OW 3289   0.063   3.529   0.878 -0.2830  0.0653 -0.1472
  881SOL    HW2 3290   0.084   3.620   0.899  0.0593 -0.5243  2.2492
  881SOL    HW3 3291   0.129   3.477   0.924 -1.4249 -1.4620 -0.1499
  881SOL    MW4 3292   0.075   3.534   0.887 -0.3885 -0.2140  0.1686
  882SOL     OW 3293   6.010   0.959   5.592 -0.0905  0.2233  0.5315
  882SOL    HW2 3294   5.956   0.956   5.671 -0.4571  1.0125  0.3173
  882SOL    HW3 3295   6.001   1.049   5.560 -1.2636 -0.4960 -1.3336
  882SOL    MW4 3296   6.002   0.971   5.598 -0.2937  0.2325  0.2572
  883SOL     OW 3297   3.805   5.926   1.926  0.2793 -0.2758 -0.3803
  883SOL    HW2 3298   3.737   5.960   1.868  0.7652 -0.7689 -1.2539
  883SOL    HW3 3299   3.884   5.974   1.901  0.7201 -1.2238 -0.8543
  883SOL    MW4 3300   3.806   5.937   1.915  0.4016 -0.4659 -0.5581
  884SOL     OW 3301   4.741   2.807   5.769  0.2865  0.6435  0.7915
  884SOL    HW2 3302   4.829   2.810   5.806 -0.2050  1.0638  1.9480
  884SOL    HW3 3303   4.754   2.822   5.675  1.3213  2.0043  1.1303
  884SOL    MW4 3304   4.755   2.809   5.761  0.3582  0.8785  0.9888
  885SOL     OW 3305   5.680   3.127   3.517  0.1456 -0.6624 -0.6328
  885SOL    HW2 3306   5.605   3.068   3.515 -1.1303  0.8356  0.4682
  885SOL    HW3 3307   5.725   3.110   3.434 -1.5446 -1.4390 -1.4513
  885SOL    MW4 3308   5.676   3.117   3.506 -0.2457 -0.5672 -0.5956
  886SOL     OW 3309   1.230   3.294   1.675  0.0105  0.2478  0.0567
  886SOL    HW2 3310   1.181   3.230   1.726  0.0423 -0.0893 -0.3327
  886SOL    HW3 3311   1.215   3.269   1.584 -1.3237  1.7614 -0.1839
  886SOL    MW4 3312   1.222   3.283   1.670 -0.1613  0.4031 -0.0264
  887SOL     OW 3313   1.778   5.524   2.473  0.3401  0.3956 -0.4448
  887SOL    HW2 3314   1.731   5.589   2.525  1.7217  1.4669 -0.4535
  887SOL    HW3 3315   1.736   5.441   2.494 -0.0953  0.9990  1.2477
  887SOL    MW4 3316   1.766   5.522   2.483  0.4649  0.6166 -0.2227
  888SOL     OW 3317   3.425   2.556   1.416 -0.1209 -0.1164  0.2935
  888SOL    HW2 3318   3.423   2.510   1.500 -0.6153  2.6068  1.8914
  888SOL    HW3 3319   3.516   2.551   1.388  0.4685  0.4692  1.9515
  888SOL    MW4 3320   3.436   2.549   1.424 -0.1084  0.3202  0.7231
  889SOL     OW 3321   1.258   5.406   5.628  0.0708  0.1206  0.3523
  889SOL    HW2 3322   1.302   5.345   5.569  0.5790 -1.2367  2.0375
  889SOL    HW3 3323   1.166   5.383   5.623  0.1091  0.0273  0.0751
  889SOL    MW4 3324   1.252   5.395   5.620  0.1429 -0.0708  0.5381
  890SOL     OW 3325   1.636   5.287   3.498  0.4265  0.1214  0.3540
  890SOL    HW2 3326   1.715   5.340   3.508  0.5636 -0.0517  0.1999
  890SOL    HW3 3327   1.645   5.248   3.411  0.5135 -0.4546  0.6155
  890SOL    MW4 3328   1.648   5.289   3.488  0.4561  0.0226  0.3682
  891SOL     OW 3329   5.608   6.294   4.938 -0.0725  0.0386 -0.4528
  891SOL    HW2 3330   5.609   6.390   4.939 -0.1553  0.0396  0.1252
  891SOL    HW3 3331   5.692   6.269   4.979  0.1764 -0.1384 -1.0652
  891SOL    MW4 3332   5.620   6.304   4.944 -0.0506  0.0154 -0.4573
  892SOL     OW 3333   3.361   6.138   0.492 -0.1773  0.2725 -0.5963
  892SOL    HW2 3334   3.431   6.180   0.541  1.1974 -1.6132 -0.8631
  892SOL    HW3 3335   3.318   6.080   0.555  0.2268 -0.5676 -1.0837
  892SOL    MW4 3336   3.364   6.136   0.506  0.0574 -0.0871 -0.6958
  893SOL     OW 3337   2.906   4.966   2.136  0.3190 -0.2370  0.3840
  893SOL    HW2 3338   2.970   5.014   2.189 -0.0655  2.0191 -1.0861
  893SOL    HW3 3339   2.957   4.896   2.095  1.5419  0.6739  0.3124
  893SOL    MW4 3340   2.921   4.963   2.138  0.4296  0.1809  0.1805
  894SOL     OW 3341   4.894   1.920   0.538  0.2026  0.4914 -0.1481
  894SOL    HW2 3342   4.975   1.957   0.573  0.8026  1.6873 -2.5464
  894SOL    HW3 3343   4.824   1.968   0.583  0.8888  1.0997  0.2907
  894SOL    MW4 3344   4.895   1.932   0.548  0.3723  0.7295 -0.4066
  895SOL     OW 3345   0.415   5.823   1.184  0.1065 -0.0833  0.2932
  895SOL    HW2 3346   0.360   5.822   1.106  0.2977  2.1138  0.0932
  895SOL    HW3 3347   0.353   5.825   1.257 -0.0658 -0.6359  0.1663
  895SOL    MW4 3348   0.400   5.823   1.184  0.1090  0.1337  0.2501
  896SOL     OW 3349   5.067   6.359   4.289  0.0857 -0.5817 -0.4618
  896SOL    HW2 3350   4.994   6.400   4.336  0.4472 -1.5960  1.0709
  896SOL    HW3 3351   5.065   6.268   4.318  0.9384 -1.0067 -1.7030
  896SOL    MW4 3352   5.058   6.352   4.299  0.2459 -0.7716 -0.4233
  897SOL     OW 3353   6.280   0.296   2.490 -0.5232 -0.1962  0.4998
  897SOL    HW2 3354   6.376   0.291   2.487 -0.1521  2.7924  2.3799
  897SOL    HW3 3355   6.255   0.237   2.561  0.2303  0.8056  1.6363
  897SOL    MW4 3356   6.290   0.288   2.499 -0.3748  0.3303  0.8978
  898SOL     OW 3357   2.946   4.623   3.603 -0.1958 -0.3276 -0.4141
  898SOL    HW2 3358   3.038   4.599   3.599 -0.1240  0.0485 -2.1945
  898SOL    HW3 3359   2.907   4.580   3.526 -1.5821 -0.7791  0.4970
  898SOL    MW4 3360   2.953   4.614   3.592 -0.3692 -0.3375 -0.5288
  899SOL     OW 3361   5.141   4.886   3.221  0.3509  0.6526 -0.7066
  899SOL    HW2 3362   5.110   4.913   3.135  0.5102 -0.3782 -1.0940
  899SOL    HW3 3363   5.171   4.796   3.210 -1.9372 -0.4382  0.9430
  899SOL    MW4 3364   5.141   4.878   3.208  0.0700  0.3727 -0.5401
  900SOL     OW 3365   3.753   1.478   3.122  0.5955 -0.1265 -0.0377
  900SOL    HW2 3366   3.762   1.383   3.128 -1.1585 -0.4419 -1.6273
  900SOL    HW3 3367   3.801   1.502   3.042 -0.5429  0.0451 -0.6885
  900SOL    MW4 3368   3.761   1.469   3.112  0.2139 -0.1455 -0.3333
  901SOL     OW 3369   6.224   5.811   0.092  0.0446  0.0431 -0.3157
  901SOL    HW2 3370   6.225   5.717   0.073 -0.0337  0.0229 -0.2204
  901SOL    HW3 3371   6.268   5.851   0.017  0.1017 -0.0722 -0.3437
  901SOL    MW4 3372   6.230   5.803   0.080  0.0418  0.0252 -0.3068
  902SOL     OW 3373   2.999   0.848   0.057 -0.0511 -0.2744 -0.3714
  902SOL    HW2 3374   3.019   0.756   0.041 -2.3236 -1.0113  0.6824
  902SOL    HW3 3375   2.995   0.856   0.152 -0.5104  0.7531 -0.4642
  902SOL    MW4 3376   3.001   0.837   0.067 -0.4115 -0.2360 -0.2446
  903SOL     OW 3377   0.391   5.991   0.530 -0.0406  0.1416 -0.2845
  903SOL    HW2 3378   0.433   6.009   0.446  0.1974 -0.2920 -0.2605
  903SOL    HW3 3379   0.461   6.006   0.594  0.7449 -2.6591 -0.3714
  903SOL    MW4 3380   0.406   5.996   0.528  0.0944 -0.2852 -0.2928
  904SOL     OW 3381   0.161   2.882   1.792  0.3311  0.5915 -0.2300
  904SOL    HW2 3382   0.224   2.945   1.755  1.8236 -0.4278  0.4739
  904SOL    HW3 3383   0.208   2.798   1.791 -0.1720  0.1968  2.3529
  904SOL    MW4 3384   0.176   2.879   1.787  0.4616  0.4049  0.2037
  905SOL     OW 3385   5.838   0.794   2.679  0.3392  0.2347  0.1508
  905SOL    HW2 3386   5.890   0.771   2.602 -1.9898  1.0942 -1.8205
  905SOL    HW3 3387   5.901   0.832   2.740  2.2472 -0.2557 -1.4017
  905SOL    MW4 3388   5.853   0.796   2.677  0.2836  0.2834 -0.3141
  906SOL     OW 3389   5.316   0.556   1.894 -0.0858 -0.4651  0.2165
  906SOL    HW2 3390   5.339   0.465   1.875  1.5798 -0.0189 -0.0507
  906SOL    HW3 3391   5.223   0.562   1.871  0.0563 -1.8145 -0.8486
  906SOL    MW4 3392   5.306   0.545   1.888  0.1527 -0.5843  0.0407
  907SOL     OW 3393   4.034   3.862   5.716  0.5583  0.4506  0.1451
  907SOL    HW2 3394   3.964   3.800   5.737 -0.2937  1.6151  0.8238
  907SOL    HW3 3395   4.062   3.836   5.628 -0.6584 -0.0979 -0.1074
  907SOL    MW4 3396   4.028   3.850   5.707  0.2854  0.5319  0.2013
  908SOL     OW 3397   0.144   4.452   5.227  0.2319  0.2051 -0.0749
  908SOL    HW2 3398   0.166   4.491   5.311 -1.4162 -2.3540  1.6753
  908SOL    HW3 3399   0.071   4.506   5.195  0.3788  0.7453  0.4780
  908SOL    MW4 3400   0.137   4.464   5.234  0.0339 -0.0612  0.2290
  909SOL     OW 3401   1.930   0.387   0.766  0.7504 -0.3201 -0.1227
  909SOL    HW2 3402   1.985   0.463   0.784 -0.4705  0.7913 -0.8516
  909SOL    HW3 3403   1.988   0.324   0.724  1.6551  0.4578 -0.0664
  909SOL    MW4 3404   1.945   0.389   0.763  0.7087 -0.0708 -0.2115
  910SOL     OW 3405   0.565   4.606   4.428 -0.3060  0.6463  0.0151
  910SOL    HW2 3406   0.639   4.615   4.489 -1.1211 -0.1552  1.1581
  910SOL    HW3 3407   0.563   4.689   4.382  0.8042  0.9971  0.5445
  910SOL    MW4 3408   0.575   4.618   4.430 -0.2671  0.5868  0.2358
  911SOL     OW 3409   1.541   2.734   3.036  0.9003 -0.1027 -0.1296
  911SOL    HW2 3410   1.577   2.674   3.102 -1.1895  0.0762  1.2759
  911SOL    HW3 3411   1.496   2.678   2.974 -0.4449 -0.1026  0.7946
  911SOL    MW4 3412   1.540   2.719   3.037  0.4471 -0.0791  0.1778
  912SOL     OW 3413   4.516   2.453   3.762  0.0594 -0.0085 -0.5155
  912SOL    HW2 3414   4.598   2.498   3.742  1.0370 -0.6218  1.7915
  912SOL    HW3 3415   4.499   2.474   3.854 -1.8638 -0.7084 -0.6605
  912SOL    MW4 3416   4.524   2.462   3.771 -0.0653 -0.1818 -0.2302
  913SOL     OW 3417   3.963   0.795   3.763 -0.3300 -0.1567  0.6087
  913SOL    HW2 3418   3.922   0.744   3.833  1.0663 -1.3811  0.5842
  913SOL    HW3 3419   3.909   0.777   3.686  1.5951 -3.9495 -0.0867
  913SOL    MW4 3420   3.950   0.786   3.762  0.1082 -0.8186  0.5137
  914SOL     OW 3421   4.449   4.033   4.341  0.0162 -0.6114  0.2791
  914SOL    HW2 3422   4.500   4.007   4.418  1.3105  0.0664 -0.3152
  914SOL    HW3 3423   4.505   4.097   4.296 -0.4928 -1.3526 -1.4932
  914SOL    MW4 3424   4.463   4.038   4.345  0.1198 -0.6198 -0.0332
  915SOL     OW 3425   5.596   4.951   3.334  0.0318 -0.3472  0.2920
  915SOL    HW2 3426   5.650   5.027   3.310 -0.4921  0.4215  1.4649
  915SOL    HW3 3427   5.519   4.957   3.278  0.0785 -0.1214  0.2517
  915SOL    MW4 3428   5.593   4.962   3.324 -0.0312 -0.2160  0.4415
  916SOL     OW 3429   5.201   2.167   4.715  0.6901  0.8466  0.3798
  916SOL    HW2 3430   5.214   2.254   4.754 -0.0514  0.8416  0.6549
  916SOL    HW3 3431   5.178   2.111   4.790  0.1092  0.6451  0.0507
  916SOL    MW4 3432   5.200   2.171   4.730  0.5157  0.8194  0.3727
  917SOL     OW 3433   2.040   0.888   0.327 -0.1304 -0.2001 -0.0657
  917SOL    HW2 3434   2.113   0.914   0.383 -0.0367 -2.3904  0.9207
  917SOL    HW3 3435   1.963   0.926   0.368  0.2580  0.8252 -0.2488
  917SOL    MW4 3436   2.040   0.897   0.340 -0.0668 -0.3538  0.0403
  918SOL     OW 3437   5.206   4.190   6.111  0.4235  0.0569 -0.4392
  918SOL    HW2 3438   5.182   4.282   6.105  0.7443  0.0468 -2.9496
  918SOL    HW3 3439   5.153   4.147   6.044  0.9686 -1.4319  0.0420
  918SOL    MW4 3440   5.196   4.196   6.102  0.5378 -0.1408 -0.7070
  919SOL     OW 3441   3.893   2.380   0.909 -0.8631 -0.4593  0.1775
  919SOL    HW2 3442   3.844   2.420   0.981 -1.5833 -1.2160  0.1147
  919SOL    HW3 3443   3.913   2.453   0.850 -0.9842  0.0299  0.7308
  919SOL    MW4 3444   3.890   2.395   0.911 -0.9741 -0.4946  0.2422
  920SOL     OW 3445   4.659   0.126   4.270 -0.3020  0.0668 -0.1130
  920SOL    HW2 3446   4.581   0.073   4.288 -0.5037  0.7667  1.2108
  920SOL    HW3 3447   4.723   0.096   4.334 -0.3853  1.3101  0.5857
  920SOL    MW4 3448   4.657   0.115   4.281 -0.3396  0.3232  0.1539
  921SOL     OW 3449   0.455   2.331   4.843  0.1727  0.3768  0.7768
  921SOL    HW2 3450   0.382   2.354   4.785  0.7024  2.0714  0.7279
  921SOL    HW3 3451   0.533   2.354   4.794  0.7167 -0.3157  1.2976
  921SOL    MW4 3452   0.456   2.337   4.829  0.3144  0.5090  0.8391
  922SOL     OW 3453   5.276   4.062   1.287 -0.2420  0.3828  0.5768
  922SOL    HW2 3454   5.313   3.974   1.300  0.5596  0.6175 -0.0421
  922SOL    HW3 3455   5.191   4.058   1.331  0.6468 -0.0647  2.3549
  922SOL    MW4 3456   5.270   4.050   1.294 -0.0190  0.3547  0.7297
  923SOL     OW 3457   5.879   3.157   4.936  0.0993 -0.2922  0.6639
  923SOL    HW2 3458   5.926   3.126   4.858  0.5658  0.0780  0.7952
  923SOL    HW3 3459   5.834   3.236   4.906  1.3856  0.6415  1.1035
  923SOL    MW4 3460   5.880   3.164   4.921  0.3305 -0.1201  0.7392
  924SOL     OW 3461   6.105   2.428   0.889  0.5241  0.4152 -0.1671
  924SOL    HW2 3462   6.159   2.351   0.874 -0.0939  0.2738 -1.9047
  924SOL    HW3 3463   6.160   2.488   0.940  1.3380 -0.7745  0.3832
  924SOL    MW4 3464   6.119   2.426   0.894  0.5499  0.2396 -0.3238
  925SOL     OW 3465   4.857   4.221   4.568  0.4566  0.4501  0.2612
  925SOL    HW2 3466   4.860   4.127   4.580 -2.8057 -0.0151 -1.3017
  925SOL    HW3 3467   4.810   4.254   4.644  0.7125  0.6624  0.3264
  925SOL    MW4 3468   4.851   4.213   4.579  0.0599  0.4167  0.0636
  926SOL     OW 3469   1.401   2.886   5.612 -0.3521  0.5716  0.0832
  926SOL    HW2 3470   1.347   2.916   5.686  1.3685 -1.1567  2.1653
  926SOL    HW3 3471   1.491   2.898   5.642  0.4206 -0.1792 -1.7847
  926SOL    MW4 3472   1.405   2.892   5.626 -0.0231  0.2445  0.1115
  927SOL     OW 3473   4.479   5.333   3.016 -0.0387  0.0282 -0.6169
  927SOL    HW2 3474   4.492   5.268   3.085 -0.1487  0.8226  0.1736
  927SOL    HW3 3475   4.385   5.334   3.001  0.0719 -0.8391 -1.4923
  927SOL    MW4 3476   4.469   5.325   3.023 -0.0387  0.0186 -0.6281
  928SOL     OW 3477   0.146   1.224   5.084 -0.1358  0.5350  0.2360
  928SOL    HW2 3478   0.236   1.192   5.089  0.7484  2.8678  0.9470
  928SOL    HW3 3479   0.111   1.188   5.003  1.1808 -1.0118  0.3212
  928SOL    MW4 3480   0.153   1.215   5.074  0.1546  0.6387  0.3410
  929SOL     OW 3481   3.139   5.609   0.836  0.4550 -0.6486 -0.4125
  929SOL    HW2 3482   3.122   5.634   0.745  1.5532  0.3967 -0.3519
  929SOL    HW3 3483   3.230   5.581   0.836  0.1839 -1.5709  0.1957
  929SOL    MW4 3484   3.148   5.609   0.824  0.5641 -0.6324 -0.3242
  930SOL     OW 3485   3.670   4.685   3.777 -0.0047  0.1269  0.1784
  930SOL    HW2 3486   3.692   4.756   3.837 -0.1678  0.1911  0.1624
  930SOL    HW3 3487   3.755   4.651   3.748  0.0794  0.8090 -0.3992
  930SOL    MW4 3488   3.684   4.690   3.781 -0.0151  0.2254  0.1001
  931SOL     OW 3489   3.259   5.635   3.031 -0.3899 -0.3473 -0.1815
  931SOL    HW2 3490   3.330   5.689   3.066 -0.7265 -0.4994  0.7402
  931SOL    HW3 3491   3.236   5.677   2.948  0.2791  0.1268 -0.1317
  931SOL    MW4 3492   3.265   5.648   3.024 -0.3460 -0.3048 -0.0533
  932SOL     OW 3493   6.260   4.976   5.981  0.2171 -0.5538  0.5380
  932SOL    HW2 3494   6.329   5.005   6.041  1.4062  0.7144 -1.3386
  932SOL    HW3 3495   6.188   5.037   5.996  0.1571 -0.8021  1.2902
  932SOL    MW4 3496   6.260   4.988   5.991  0.3660 -0.4192  0.3896
  933SOL     OW 3497   1.901   2.758   1.372 -0.2064  0.0092 -0.3989
  933SOL    HW2 3498   1.853   2.762   1.455  0.9549  0.7425  0.2763
  933SOL    HW3 3499   1.874   2.837   1.325  0.1413  0.3156 -0.1044
  933SOL    MW4 3500   1.891   2.769   1.377 -0.0073  0.1464 -0.2710
  934SOL     OW 3501   1.665   3.251   3.518 -0.0282  0.0468  0.2179
  934SOL    HW2 3502   1.649   3.185   3.450 -0.4314  0.0811  0.2773
  934SOL    HW3 3503   1.693   3.200   3.594 -3.1408 -0.3931  1.2134
  934SOL    MW4 3504   1.667   3.235   3.519 -0.4921 -0.0067  0.3571
  935SOL     OW 3505   0.659   1.833   5.558  0.1284  0.0098 -0.2177
  935SOL    HW2 3506   0.642   1.749   5.515 -0.8881 -0.2848  0.7061
  935SOL    HW3 3507   0.582   1.886   5.538  1.2928  1.1897 -1.8108
  935SOL    MW4 3508   0.647   1.829   5.550  0.1479  0.1266 -0.3060
  936SOL     OW 3509   1.126   6.097   1.117  0.7329 -0.2446  0.4591
  936SOL    HW2 3510   1.083   6.105   1.032  1.0491 -0.9379  0.2233
  936SOL    HW3 3511   1.167   6.010   1.115 -0.9209 -1.1408  2.0939
  936SOL    MW4 3512   1.126   6.086   1.106  0.5564 -0.4543  0.6437
  937SOL     OW 3513   2.903   0.605   1.840  0.1620 -0.1318  0.2454
  937SOL    HW2 3514   2.946   0.534   1.888  1.6631  0.3578 -0.3205
  937SOL    HW3 3515   2.814   0.607   1.875  0.1764 -2.0656  0.5066
  937SOL    MW4 3516   2.897   0.596   1.851  0.3620 -0.3223  0.2052
  938SOL     OW 3517   0.471   6.016   2.579  0.2970 -0.5394  0.7990
  938SOL    HW2 3518   0.542   6.071   2.547  0.5610 -0.4866  1.4516
  938SOL    HW3 3519   0.470   5.941   2.520 -1.2579  0.9828 -1.2479
  938SOL    MW4 3520   0.480   6.014   2.567  0.1267 -0.3316  0.6150
  939SOL     OW 3521   2.265   2.002   3.961 -0.1180  0.0137 -0.5872
  939SOL    HW2 3522   2.345   2.005   4.013 -0.8184 -0.8888  0.5853
  939SOL    HW3 3523   2.232   1.913   3.973 -1.6172  0.5453 -0.5400
  939SOL    MW4 3524   2.271   1.991   3.969 -0.4082 -0.0352 -0.4262
  940SOL     OW 3525   2.581   1.591   2.625 -0.3734 -0.1541 -0.0997
  940SOL    HW2 3526   2.513   1.529   2.599 -0.3331 -0.0403 -0.4807
  940SOL    HW3 3527   2.533   1.664   2.664 -0.9305  2.0280 -4.2845
  940SOL    MW4 3528   2.565   1.592   2.627 -0.4416  0.1488 -0.7021
  941SOL     OW 3529   6.176   4.222   0.478  0.2305  0.8729  0.0723
  941SOL    HW2 3530   6.212   4.196   0.393 -0.3175  1.0546 -0.2206
  941SOL    HW3 3531   6.177   4.317   0.477  2.2317  0.9177  1.1473
  941SOL    MW4 3532   6.181   4.231   0.467  0.4222  0.9028  0.1755
  942SOL     OW 3533   2.660   3.302   3.191 -0.3227 -0.2093 -0.4487
  942SOL    HW2 3534   2.700   3.301   3.278 -2.2815 -1.1946  0.4926
  942SOL    HW3 3535   2.592   3.368   3.196  0.3235  0.5882 -1.6531
  942SOL    MW4 3536   2.656   3.311   3.203 -0.4958 -0.2341 -0.4834
  943SOL     OW 3537   0.491   2.036   4.718 -1.1052 -0.1818 -0.0372
  943SOL    HW2 3538   0.569   2.068   4.674 -0.0425 -1.7351  0.6269
  943SOL    HW3 3539   0.495   2.074   4.806 -1.9585  0.9960 -0.4836
  943SOL    MW4 3540   0.502   2.045   4.724 -1.0776 -0.2313 -0.0085
  944SOL     OW 3541   0.497   4.266   5.791  0.2969  0.2104  0.1854
  944SOL    HW2 3542   0.453   4.302   5.868  0.2600  1.1257 -0.2519
  944SOL    HW3 3543   0.425   4.235   5.735  0.3539 -1.3216  0.9080
  944SOL    MW4 3544   0.481   4.267   5.794  0.2995  0.1290  0.2230
  945SOL     OW 3545   0.550   3.179   1.167 -0.2241 -0.4711 -0.1671
  945SOL    HW2 3546   0.635   3.139   1.147 -0.2205 -0.2174 -0.6721
  945SOL    HW3 3547   0.491   3.144   1.100 -0.2229  0.3579 -0.6084
  945SOL    MW4 3548   0.553   3.169   1.156 -0.2235 -0.3283 -0.2919
  946SOL     OW 3549   5.810   4.408   1.264 -0.2110 -0.3004 -0.4688
  946SOL    HW2 3550   5.730   4.410   1.212  0.9473 -2.1134 -2.5157
  946SOL    HW3 3551   5.872   4.358   1.210  2.7246  2.0849  0.4165
  946SOL    MW4 3552   5.808   4.402   1.250  0.3291 -0.2249 -0.6221
  947SOL     OW 3553   2.461   1.479   3.256 -0.0893 -1.0267 -0.0763
  947SOL    HW2 3554   2.550   1.514   3.261 -0.7374  0.6280  0.9959
  947SOL    HW3 3555   2.427   1.511   3.173 -0.1892 -0.2659  0.2431
  947SOL    MW4 3556   2.468   1.488   3.246 -0.1880 -0.7080  0.1073
  948SOL     OW 3557   5.156   1.966   5.796 -0.2693 -0.4492  0.0042
  948SOL    HW2 3558   5.182   2.039   5.851  1.3006 -1.3698  0.5344
  948SOL    HW3 3559   5.099   1.913   5.852 -0.7509 -0.0735 -0.1194
  948SOL    MW4 3560   5.152   1.969   5.811 -0.1257 -0.5211  0.0579
  949SOL     OW 3561   5.268   2.698   3.265  0.5462 -0.1405 -0.3596
  949SOL    HW2 3562   5.245   2.722   3.175 -1.6757 -1.1904 -0.1288
  949SOL    HW3 3563   5.184   2.684   3.309  1.5631  0.5625  1.9734
  949SOL    MW4 3564   5.254   2.699   3.259  0.3872 -0.1862 -0.0213
  950SOL     OW 3565   3.397   2.092   4.376  0.5196 -0.2224 -0.1023
  950SOL    HW2 3566   3.360   2.011   4.341 -1.1578  0.6655 -0.4382
  950SOL    HW3 3567   3.373   2.091   4.469 -0.5109  0.4211 -0.3504
  950SOL    MW4 3568   3.389   2.081   4.384  0.1623 -0.0203 -0.1793
  951SOL     OW 3569   4.683   5.710   5.173  0.0876  0.1624  0.2176
  951SOL    HW2 3570   4.642   5.629   5.143  0.1176 -0.0944  0.8687
  951SOL    HW3 3571   4.611   5.761   5.210 -0.3179  1.2949 -1.9172
  951SOL    MW4 3572   4.668   5.706   5.174  0.0380  0.2779  0.0218
  952SOL     OW 3573   5.839   1.405   4.446  0.0500  0.2779  0.3859
  952SOL    HW2 3574   5.812   1.316   4.469  0.8217 -0.1484 -0.3030
  952SOL    HW3 3575   5.810   1.416   4.355  0.7924  0.3787  0.1552
  952SOL    MW4 3576   5.831   1.394   4.437  0.2498  0.2349  0.2646
  953SOL     OW 3577   1.577   4.417   1.639 -0.7061  0.3041 -0.6179
  953SOL    HW2 3578   1.604   4.325   1.650 -0.7601  0.2498 -0.9293
  953SOL    HW3 3579   1.484   4.412   1.617 -1.3227  0.5531  1.6691
  953SOL    MW4 3580   1.569   4.404   1.637 -0.7946  0.3298 -0.3573
  954SOL     OW 3581   1.583   0.207   2.218  0.1652 -0.3639 -0.2006
  954SOL    HW2 3582   1.523   0.187   2.147 -0.5207 -0.4121  0.3731
  954SOL    HW3 3583   1.665   0.228   2.175 -0.4238  0.2979 -1.0436
  954SOL    MW4 3584   1.586   0.207   2.203 -0.0030 -0.2829 -0.2361
  955SOL     OW 3585   0.136   2.516   2.143 -0.3487 -0.0442  0.2647
  955SOL    HW2 3586   0.104   2.527   2.232  0.5231 -0.2869  0.6222
  955SOL    HW3 3587   0.058   2.520   2.088 -0.6651  2.9248  0.7470
  955SOL    MW4 3588   0.121   2.518   2.147 -0.2755  0.3155  0.3755
  956SOL     OW 3589   0.045   5.846   5.710 -0.3192  0.3466 -0.0359
  956SOL    HW2 3590   0.062   5.888   5.626  1.0928  0.2883  0.1950
  956SOL    HW3 3591  -0.049   5.860   5.726 -0.3921  1.2104 -1.1427
  956SOL    MW4 3592   0.035   5.853   5.701 -0.1425  0.4529 -0.1515
  957SOL     OW 3593   3.951   3.797   2.064  0.3392  0.3918 -0.0566
  957SOL    HW2 3594   3.969   3.755   2.148 -0.4462  1.2250  0.5560
  957SOL    HW3 3595   3.855   3.804   2.061  0.3716  0.5459 -0.9325
  957SOL    MW4 3596   3.940   3.793   2.075  0.2399  0.5221 -0.0914
  958SOL     OW 3597   2.124   4.571   3.846  0.4311  0.2046  0.0917
  958SOL    HW2 3598   2.078   4.532   3.772  1.4205  0.4032 -0.6453
  958SOL    HW3 3599   2.134   4.663   3.823  0.8957  0.2352  0.3897
  958SOL    MW4 3600   2.119   4.578   3.833  0.6229  0.2348  0.0338
  959SOL     OW 3601   5.795   0.622   2.905  0.5712  0.0419 -0.0987
  959SOL    HW2 3602   5.814   0.667   2.823 -1.0274 -1.5460 -1.4324
  959SOL    HW3 3603   5.767   0.691   2.965  0.7569  1.1219 -1.2178
  959SOL    MW4 3604   5.794   0.637   2.902  0.3848 -0.0251 -0.4223
  960SOL     OW 3605   0.130   0.534   4.470  0.0804  0.1206  0.0989
  960SOL    HW2 3606   0.074   0.520   4.394 -0.8464  0.3175  0.7270
  960SOL    HW3 3607   0.166   0.622   4.458  0.2072  0.0228 -0.2682
  960SOL    MW4 3608   0.127   0.543   4.458 -0.0251  0.1337  0.1333
  961SOL     OW 3609   4.186   1.238   2.998 -0.3354 -0.2591  0.3820
  961SOL    HW2 3610   4.209   1.256   3.089  0.3395 -1.7760  0.5426
  961SOL    HW3 3611   4.107   1.290   2.982  0.9340  2.0278  1.0362
  961SOL    MW4 3612   4.179   1.247   3.008 -0.0789 -0.1575  0.4895
  962SOL     OW 3613   5.560   5.823   0.754 -0.2033 -0.2157 -0.1265
  962SOL    HW2 3614   5.480   5.844   0.802 -0.1785  2.1199 -0.9526
  962SOL    HW3 3615   5.598   5.749   0.802 -1.8814 -0.1807  1.3862
  962SOL    MW4 3616   5.554   5.816   0.767 -0.4215  0.0971 -0.0359
  963SOL     OW 3617   3.893   6.413   0.335  0.3950  0.2681 -0.0815
  963SOL    HW2 3618   3.953   6.482   0.361 -0.2974  0.8943 -0.1069
  963SOL    HW3 3619   3.806   6.448   0.356 -0.1493  0.4060 -2.2687
  963SOL    MW4 3620   3.889   6.427   0.341  0.2319  0.3689 -0.3734
  964SOL     OW 3621   4.649   2.871   0.666 -0.9226  0.4993  0.4605
  964SOL    HW2 3622   4.717   2.865   0.733 -0.4855 -0.0427 -0.0302
  964SOL    HW3 3623   4.611   2.958   0.680  0.7032  1.3420 -0.0448
  964SOL    MW4 3624   4.653   2.882   0.677 -0.6505  0.5390  0.3291
  965SOL     OW 3625   2.977   5.894   3.005  0.1629 -0.5249  0.0251
  965SOL    HW2 3626   3.035   5.863   2.935  0.3000 -0.0370 -0.0819
  965SOL    HW3 3627   3.031   5.893   3.084  0.7050  1.0483 -0.2759
  965SOL    MW4 3628   2.991   5.890   3.006  0.2525 -0.2530 -0.0287
  966SOL     OW 3629   2.076   5.869   0.260  0.4532  0.0718  0.0374
  966SOL    HW2 3630   2.030   5.791   0.227 -1.6784  0.9254  0.8067
  966SOL    HW3 3631   2.016   5.941   0.242  1.6177  1.2963  0.9252
  966SOL    MW4 3632   2.062   5.868   0.253  0.3256  0.3459  0.2560
  967SOL     OW 3633   1.401   2.841   1.637 -0.3043 -0.5239  0.2723
  967SOL    HW2 3634   1.436   2.752   1.641 -0.9711 -0.7611  1.6866
  967SOL    HW3 3635   1.478   2.897   1.626  0.2523 -1.2038  0.6109
  967SOL    MW4 3636   1.416   2.836   1.636 -0.3188 -0.6449  0.5036
  968SOL     OW 3637   1.435   3.523   4.009  0.0695  0.5219  0.6215
  968SOL    HW2 3638   1.383   3.454   3.966 -0.1161 -0.3630  2.1687
  968SOL    HW3 3639   1.378   3.554   4.080  0.5294  1.6446  0.5188
  968SOL    MW4 3640   1.420   3.518   4.013  0.1057  0.5533  0.8121
  969SOL     OW 3641   2.740   2.482   1.114 -0.7034 -0.5617 -0.5183
  969SOL    HW2 3642   2.810   2.421   1.138  0.3978  0.2914 -1.4000
  969SOL    HW3 3643   2.719   2.460   1.023 -1.3877 -0.6165 -0.3533
  969SOL    MW4 3644   2.747   2.471   1.105 -0.6484 -0.4564 -0.6128
  970SOL     OW 3645   0.013   4.794   2.231  0.2152  0.0853 -0.1350
  970SOL    HW2 3646  -0.079   4.821   2.223 -0.1017 -1.2298 -1.1460
  970SOL    HW3 3647   0.009   4.709   2.275  1.1706  1.2589  2.4336
  970SOL    MW4 3648   0.000   4.787   2.236  0.2995  0.0666  0.0705
  971SOL     OW 3649   2.605   4.888   0.080  0.3196  0.4292  0.3568
  971SOL    HW2 3650   2.684   4.859   0.033 -0.4061 -1.8561  0.4494
  971SOL    HW3 3651   2.544   4.815   0.073 -1.5155  1.8153  1.0163
  971SOL    MW4 3652   2.608   4.875   0.073 -0.0182  0.3106  0.4560
  972SOL     OW 3653   2.385   4.723   3.075  0.4650  0.2109 -0.2886
  972SOL    HW2 3654   2.458   4.661   3.080  0.4166  0.2341  1.0547
  972SOL    HW3 3655   2.314   4.673   3.036  0.4155 -0.6191  0.8190
  972SOL    MW4 3656   2.386   4.708   3.070  0.4521  0.1045  0.0347
  973SOL     OW 3657   3.748   3.351   6.048  0.0264 -0.3978 -0.3310
  973SOL    HW2 3658   3.746   3.255   6.052  3.4112 -0.5508  1.3916
  973SOL    HW3 3659   3.788   3.370   5.963 -0.1126 -0.5194 -0.4244
  973SOL    MW4 3660   3.753   3.341   6.037  0.4546 -0.4340 -0.1161
  974SOL     OW 3661   3.299   2.391   0.601 -0.3096  0.3917  0.2915
  974SOL    HW2 3662   3.381   2.428   0.633 -0.1060 -0.4358  0.7608
  974SOL    HW3 3663   3.267   2.455   0.538  1.8902 -0.3435 -1.7080
  974SOL    MW4 3664   3.305   2.405   0.597  0.0075  0.1855  0.0896
  975SOL     OW 3665   3.584   6.193   1.023 -0.1411  0.0181 -0.7818
  975SOL    HW2 3666   3.567   6.179   0.930 -0.7619  3.1897 -1.2513
  975SOL    HW3 3667   3.679   6.186   1.031 -0.0897 -0.4269 -1.5919
  975SOL    MW4 3668   3.595   6.190   1.012 -0.2162  0.3779 -0.9507
  976SOL     OW 3669   4.802   2.396   1.061 -0.1641  0.2801 -0.4505
  976SOL    HW2 3670   4.824   2.477   1.014 -1.5434  0.1300 -1.4160
  976SOL    HW3 3671   4.722   2.418   1.109  0.9101  0.2591  1.4520
  976SOL    MW4 3672   4.794   2.410   1.061 -0.2044  0.2575 -0.3268
  977SOL     OW 3673   0.081   2.775   1.328 -0.2240 -0.0429 -0.5544
  977SOL    HW2 3674   0.043   2.778   1.415 -1.6012 -0.0132 -1.1213
  977SOL    HW3 3675   0.109   2.865   1.311 -2.0410  0.4973 -0.9757
  977SOL    MW4 3676   0.079   2.788   1.337 -0.6454  0.0323 -0.6848
  978SOL     OW 3677   1.947   3.272   5.555 -0.4170 -0.1461 -0.5711
  978SOL    HW2 3678   1.895   3.318   5.621 -2.1126  1.3278 -2.7655
  978SOL    HW3 3679   2.013   3.336   5.528  0.7274 -0.9947  0.1662
  978SOL    MW4 3680   1.949   3.287   5.560 -0.4897 -0.0636 -0.7633
  979SOL     OW 3681   5.334   4.471   5.142  0.1167 -0.0040 -0.0557
  979SOL    HW2 3682   5.379   4.461   5.226  0.5428 -1.5390 -0.4278
  979SOL    HW3 3683   5.380   4.542   5.098 -1.0031  1.8207  1.5306
  979SOL    MW4 3684   5.346   4.479   5.147  0.0251  0.0342  0.1045
  980SOL     OW 3685   3.835   3.556   6.185 -0.0347  0.4941 -0.3617
  980SOL    HW2 3686   3.825   3.627   6.121 -2.3873  0.9575  0.4277
  980SOL    HW3 3687   3.801   3.478   6.141  0.5447  0.2930 -0.4690
  980SOL    MW4 3688   3.829   3.555   6.171 -0.2686  0.5287 -0.2717
  981SOL     OW 3689   3.922   0.198   5.105  0.2603 -0.3139 -0.9799
  981SOL    HW2 3690   3.857   0.138   5.069  1.1675 -1.1967 -1.2215
  981SOL    HW3 3691   3.993   0.198   5.040  1.6243 -1.4023  0.4196
  981SOL    MW4 3692   3.923   0.190   5.092  0.5599 -0.5740 -0.8271
  982SOL     OW 3693   4.486   5.506   0.687 -0.9682  0.1488  0.0406
  982SOL    HW2 3694   4.462   5.455   0.764 -3.3216 -0.8693 -1.2741
  982SOL    HW3 3695   4.564   5.462   0.652 -1.0760 -0.6064  0.7250
  982SOL    MW4 3696   4.494   5.494   0.692 -1.2929 -0.0851 -0.0425
  983SOL     OW 3697   4.824   2.565   6.335  0.2697  0.3563 -0.2615
  983SOL    HW2 3698   4.749   2.534   6.387 -0.1119 -0.3251 -1.1836
  983SOL    HW3 3699   4.853   2.644   6.380  0.1009 -0.3215  1.1232
  983SOL    MW4 3700   4.818   2.571   6.348  0.1971  0.1770 -0.2005
  984SOL     OW 3701   6.282   0.278   4.857  0.5474 -0.3475  0.1746
  984SOL    HW2 3702   6.257   0.330   4.933  1.5661 -0.7612  0.8133
  984SOL    HW3 3703   6.350   0.330   4.814 -0.4096  0.1507 -0.8012
  984SOL    MW4 3704   6.287   0.292   4.861  0.5556 -0.3363  0.1301
  985SOL     OW 3705   4.878   0.386   4.886 -0.7603 -0.3833  0.0454
  985SOL    HW2 3706   4.901   0.479   4.878  0.5556 -0.7783 -1.2968
  985SOL    HW3 3707   4.961   0.342   4.904 -1.5265 -1.2277  1.7574
  985SOL    MW4 3708   4.892   0.392   4.887 -0.6877 -0.5468  0.0942
  986SOL     OW 3709   0.283   5.686   6.067  0.1368 -0.0209  0.1042
  986SOL    HW2 3710   0.318   5.603   6.101 -0.4312  0.1585  1.1730
  986SOL    HW3 3711   0.338   5.706   5.992  0.1833 -1.4545 -0.2717
  986SOL    MW4 3712   0.295   5.677   6.062  0.0680 -0.1864  0.1956
  987SOL     OW 3713   3.712   3.376   2.844  0.0286 -0.7325 -0.2014
  987SOL    HW2 3714   3.711   3.430   2.765  0.6524  0.8124  0.7834
  987SOL    HW3 3715   3.621   3.373   2.872  0.1417  1.1873  0.5594
  987SOL    MW4 3716   3.700   3.383   2.838  0.1259 -0.2754  0.0289
  988SOL     OW 3717   4.164   4.699   5.852  0.1050  0.4200  0.0700
  988SOL    HW2 3718   4.235   4.742   5.901 -0.5618 -0.4758  1.9164
  988SOL    HW3 3719   4.090   4.760   5.858 -0.8830 -0.8999  2.8051
  988SOL    MW4 3720   4.164   4.713   5.859 -0.1133  0.1277  0.6745
  989SOL     OW 3721   4.349   5.015   3.706  0.4510  0.1730  0.0201
  989SOL    HW2 3722   4.355   4.953   3.634 -0.3510  1.2211 -0.9821
  989SOL    HW3 3723   4.408   4.980   3.773  3.1389  0.3777 -2.0323
  989SOL    MW4 3724   4.358   5.003   3.706  0.6998  0.3383 -0.3829
  990SOL     OW 3725   4.925   1.290   3.326 -0.6553 -0.0312  0.7359
  990SOL    HW2 3726   4.910   1.220   3.262 -1.0380 -1.2919  2.1460
  990SOL    HW3 3727   4.906   1.250   3.411 -0.8692  1.7922  1.6103
  990SOL    MW4 3728   4.921   1.276   3.329 -0.7340  0.0430  1.0373
  991SOL     OW 3729   5.382   1.938   2.480  0.3277  0.0380 -0.0433
  991SOL    HW2 3730   5.415   1.848   2.490  1.5829  0.4184 -0.4749
  991SOL    HW3 3731   5.287   1.929   2.474  0.4443 -1.2711 -0.1942
  991SOL    MW4 3732   5.374   1.925   2.481  0.5087 -0.0845 -0.1202
  992SOL     OW 3733   2.229   5.484   1.394 -0.3447 -0.0020  0.4750
  992SOL    HW2 3734   2.321   5.478   1.421  0.9667  0.9026 -3.1678
  992SOL    HW3 3735   2.199   5.567   1.432  0.7445  0.2897  0.7453
  992SOL    MW4 3736   2.237   5.494   1.403 -0.0280  0.1558  0.0301
  993SOL     OW 3737   5.530   5.028   1.410  0.0595 -0.0306 -0.0101
  993SOL    HW2 3738   5.439   5.057   1.415  0.2627  0.4288  2.1420
  993SOL    HW3 3739   5.525   4.935   1.387 -0.9644 -0.0406  0.2191
  993SOL    MW4 3740   5.517   5.020   1.408 -0.0488  0.0287  0.3041
  994SOL     OW 3741   2.963   2.043   4.845 -0.3152  0.4744  0.1538
  994SOL    HW2 3742   2.903   2.108   4.882  0.5119  1.0732  0.4846
  994SOL    HW3 3743   2.962   2.060   4.751 -1.5086 -0.2560  0.0252
  994SOL    MW4 3744   2.955   2.054   4.838 -0.3635  0.4570  0.1805
  995SOL     OW 3745   2.977   5.716   0.624  0.0210  0.4380 -0.0093
  995SOL    HW2 3746   2.948   5.626   0.609  0.3423  0.1178  1.1757
  995SOL    HW3 3747   2.928   5.745   0.701  1.2130  0.6385  0.7003
  995SOL    MW4 3748   2.967   5.708   0.632  0.2206  0.4222  0.2407
  996SOL     OW 3749   4.739   0.710   3.135 -0.0766  0.3907 -0.1000
  996SOL    HW2 3750   4.658   0.661   3.148  0.1321  0.0561 -0.0310
  996SOL    HW3 3751   4.742   0.727   3.041  0.5515 -1.0009 -0.3667
  996SOL    MW4 3752   4.729   0.706   3.124  0.0338  0.1630 -0.1261
  997SOL     OW 3753   5.667   2.871   5.919 -0.4360  0.7052  0.1520
  997SOL    HW2 3754   5.728   2.802   5.946 -1.1450 -0.2912 -0.6811
  997SOL    HW3 3755   5.669   2.868   5.824 -0.9963  1.3832  0.1137
  997SOL    MW4 3756   5.675   2.861   5.910 -0.6035  0.6632  0.0370
  998SOL     OW 3757   3.760   5.400   4.303 -0.2473 -0.1647 -0.3457
  998SOL    HW2 3758   3.806   5.382   4.221 -0.6434  1.4885 -0.9669
  998SOL    HW3 3759   3.825   5.386   4.371  0.6987  0.5117 -1.0996
  998SOL    MW4 3760   3.774   5.395   4.301 -0.1747  0.1426 -0.5271
  999SOL     OW 3761   2.073   5.239   0.911  0.2994  0.3360 -0.5853
  999SOL    HW2 3762   2.069   5.293   0.990  0.9812 -2.3820  1.4573
  999SOL    HW3 3763   2.166   5.221   0.898  0.0208 -1.4492 -0.3363
  999SOL    MW4 3764   2.084   5.244   0.919  0.3526 -0.2581 -0.2830
 1000SOL     OW 3765   0.745   3.295   5.621  0.1497  0.8383  0.0479
 1000SOL    HW2 3766   0.694   3.252   5.552  0.6635  0.4468 -0.0897
 1000SOL    HW3 3767   0.741   3.234   5.695  1.5219  0.1822 -0.3998
 1000SOL    MW4 3768   0.738   3.281   5.622  0.3986  0.7001 -0.0293
 1001SOL     OW 3769   5.429   0.904   3.154  0.2652  0.0623  0.3644
 1001SOL    HW2 3770   5.441   0.999   3.149  1.3095  0.1664  3.2110
 1001SOL    HW3 3771   5.336   0.893   3.174  0.2126  0.5018  0.3742
 1001SOL    MW4 3772   5.418   0.915   3.156  0.3960  0.1340  0.7412
 1002SOL     OW 3773   2.138   2.551   2.826 -0.9178 -0.2171 -0.1868
 1002SOL    HW2 3774   2.089   2.631   2.810 -0.6492  0.1004  0.5160
 1002SOL    HW3 3775   2.225   2.568   2.790 -0.6882  0.0344  0.4599
 1002SOL    MW4 3776   2.143   2.564   2.819 -0.8520 -0.1420 -0.0088
 1003SOL     OW 3777   3.743   4.460   4.874  0.3475  0.0656 -0.4243
 1003SOL    HW2 3778   3.775   4.540   4.831 -0.5548  0.9015  0.4014
 1003SOL    HW3 3779   3.695   4.492   4.950 -1.7753 -1.1484 -1.1721
 1003SOL    MW4 3780   3.741   4.475   4.878 -0.0516  0.0157 -0.4140
 1004SOL     OW 3781   4.729   3.402   5.823  0.2875 -0.7607  0.5556
 1004SOL    HW2 3782   4.732   3.429   5.915  0.2182 -0.0919  0.3622
 1004SOL    HW3 3783   4.815   3.426   5.789  0.1113 -0.4905  0.3004
 1004SOL    MW4 3784   4.741   3.409   5.831  0.2551 -0.6368  0.4964
 1005SOL     OW 3785   4.468   1.233   0.283 -0.0783  0.0701 -0.1464
 1005SOL    HW2 3786   4.374   1.248   0.285  0.1154  1.7127 -1.3787
 1005SOL    HW3 3787   4.482   1.177   0.207 -0.0224  0.2391 -0.2620
 1005SOL    MW4 3788   4.458   1.228   0.274 -0.0454  0.3091 -0.3243
 1006SOL     OW 3789   4.463   0.334   0.443 -0.6176 -0.0370  0.0947
 1006SOL    HW2 3790   4.555   0.335   0.468 -0.5093 -1.5436 -0.1923
 1006SOL    HW3 3791   4.463   0.356   0.350 -0.6725  1.2093  0.3688
 1006SOL    MW4 3792   4.475   0.337   0.434 -0.6105 -0.0713  0.0930
 1007SOL     OW 3793   5.312   1.088   1.667  0.3148 -0.0760  0.4557
 1007SOL    HW2 3794   5.368   1.034   1.611 -0.9120  0.8049 -1.7223
 1007SOL    HW3 3795   5.233   1.036   1.680 -0.8079  1.0205 -1.5233
 1007SOL    MW4 3796   5.309   1.074   1.662  0.0048  0.1849 -0.0927
 1008SOL     OW 3797   4.038   4.393   0.314  0.6596 -0.6339 -0.8557
 1008SOL    HW2 3798   4.082   4.416   0.396  0.7640  0.0435 -1.0996
 1008SOL    HW3 3799   4.036   4.474   0.264 -2.3364 -0.1791 -0.1980
 1008SOL    MW4 3800   4.043   4.406   0.318  0.2781 -0.4845 -0.8011
 1009SOL     OW 3801   4.898   6.023   3.102 -0.4082  0.0746 -0.3333
 1009SOL    HW2 3802   4.979   6.069   3.079 -0.7858  1.4293  0.9176
 1009SOL    HW3 3803   4.927   5.937   3.133  0.4431  0.0735 -1.0870
 1009SOL    MW4 3804   4.913   6.018   3.103 -0.3457  0.2532 -0.2677
 1010SOL     OW 3805   4.250   0.151   1.074  0.2203 -0.3243  0.3971
 1010SOL    HW2 3806   4.239   0.069   1.026  1.1637  0.3924 -1.1148
 1010SOL    HW3 3807   4.197   0.139   1.153 -2.1823 -1.2260 -1.2108
 1010SOL    MW4 3808   4.241   0.139   1.078  0.0278 -0.3487 -0.0145
 1011SOL     OW 3809   5.651   3.819   2.540 -0.3778 -0.1084 -0.6302
 1011SOL    HW2 3810   5.627   3.894   2.485 -0.6332  2.0200  2.1404
 1011SOL    HW3 3811   5.737   3.793   2.509  0.1865  2.0444 -1.0507
 1011SOL    MW4 3812   5.659   3.825   2.528 -0.3371  0.4565 -0.3201
 1012SOL     OW 3813   3.030   0.237   5.785  0.3710  0.0113  0.0842
 1012SOL    HW2 3814   3.023   0.142   5.793 -0.4803  0.0248 -0.4285
 1012SOL    HW3 3815   3.047   0.268   5.874  2.4296 -0.7459  0.0191
 1012SOL    MW4 3816   3.031   0.229   5.798  0.5303 -0.0868  0.0080
 1013SOL     OW 3817   1.959   1.230   1.635  0.2961  0.2950 -0.8321
 1013SOL    HW2 3818   2.050   1.254   1.617 -0.1870  0.2779 -3.8665
 1013SOL    HW3 3819   1.949   1.143   1.597 -0.7324 -0.1692  0.4317
 1013SOL    MW4 3820   1.969   1.222   1.627  0.0967  0.2315 -1.0657
 1014SOL     OW 3821   4.104   5.812   1.343 -0.3114  0.8276 -0.0184
 1014SOL    HW2 3822   4.162   5.763   1.401  0.9217 -1.4501 -2.8952
 1014SOL    HW3 3823   4.159   5.881   1.306 -0.5837  1.1778  0.2306
 1014SOL    MW4 3824   4.119   5.814   1.346 -0.1846  0.5733 -0.3651
 1015SOL     OW 3825   6.271   4.175   0.724  0.2495 -0.6324  0.7375
 1015SOL    HW2 3826   6.229   4.189   0.640  0.0929 -0.0686  0.9076
 1015SOL    HW3 3827   6.365   4.186   0.706  0.1071  1.3706  0.9845
 1015SOL    MW4 3828   6.278   4.178   0.711  0.2100 -0.2937  0.7925
 1016SOL     OW 3829   5.061   2.093   0.682  0.1810  0.0752  0.0644
 1016SOL    HW2 3830   5.044   2.182   0.715  0.6900  0.2121 -0.0269
 1016SOL    HW3 3831   5.157   2.084   0.686  0.1454 -0.4033 -0.0971
 1016SOL    MW4 3832   5.072   2.104   0.687  0.2435  0.0301  0.0311
 1017SOL     OW 3833   2.583   4.108   1.889  0.3823  0.3388  0.6972
 1017SOL    HW2 3834   2.579   4.108   1.984  2.4897  0.1255  0.8376
 1017SOL    HW3 3835   2.666   4.152   1.869  0.6262 -0.8165 -1.0004
 1017SOL    MW4 3836   2.593   4.114   1.899  0.6925  0.1583  0.4918
 1018SOL     OW 3837   4.469   1.878   6.393  0.1320  0.0475 -0.1138
 1018SOL    HW2 3838   4.416   1.835   6.460  1.1028 -0.7015  0.2009
 1018SOL    HW3 3839   4.424   1.859   6.311  0.0618 -0.8129  0.1147
 1018SOL    MW4 3840   4.456   1.870   6.391  0.2508 -0.1648 -0.0421
 1019SOL     OW 3841   2.400   0.077   4.074 -0.0179  0.0952  0.1069
 1019SOL    HW2 3842   2.372   0.017   4.144  0.7246 -1.0896 -0.5728
 1019SOL    HW3 3843   2.319   0.122   4.048 -0.4453 -0.0067  1.1901
 1019SOL    MW4 3844   2.385   0.075   4.080  0.0237 -0.0746  0.1601
 1020SOL     OW 3845   6.029   4.252   4.614  0.0943 -0.2004 -0.1190
 1020SOL    HW2 3846   6.062   4.198   4.685  2.3662  0.8373 -0.3145
 1020SOL    HW3 3847   6.061   4.210   4.535  0.7460  0.6711 -0.3325
 1020SOL    MW4 3848   6.037   4.240   4.613  0.4800  0.0515 -0.1729
 1021SOL     OW 3849   4.227   4.797   2.944  0.1315 -0.1032  0.2438
 1021SOL    HW2 3850   4.205   4.786   2.851 -0.6430  0.3399  0.3614
 1021SOL    HW3 3851   4.142   4.792   2.989  0.2019  2.0458  0.7008
 1021SOL    MW4 3852   4.213   4.795   2.938  0.0386  0.2388  0.3196
 1022SOL     OW 3853   0.234   0.700   0.366  0.2601  0.4731 -0.4595
 1022SOL    HW2 3854   0.139   0.691   0.358 -0.1814  1.4686  2.3999
 1022SOL    HW3 3855   0.253   0.787   0.333  0.0122  0.6767 -0.0733
 1022SOL    MW4 3856   0.224   0.710   0.361  0.1692  0.6313 -0.0313
 1023SOL     OW 3857   1.050   0.657   3.637  0.0667 -0.0286 -0.4012
 1023SOL    HW2 3858   1.084   0.636   3.550  1.5518 -0.3302  0.2317
 1023SOL    HW3 3859   0.963   0.616   3.638  1.1214 -2.4956 -0.7755
 1023SOL    MW4 3860   1.043   0.649   3.626  0.4018 -0.3939 -0.3671
 1024SOL     OW 3861   0.350   2.138   6.044  0.2227 -0.0069  0.1193
 1024SOL    HW2 3862   0.255   2.139   6.058 -0.0238  0.6482 -1.3857
 1024SOL    HW3 3863   0.386   2.165   6.128 -0.8879 -0.6346  0.8405
 1024SOL    MW4 3864   0.342   2.141   6.057  0.0437 -0.0033  0.0159
 1025SOL     OW 3865   5.483   2.330   3.206 -0.0054  0.2942  0.3673
 1025SOL    HW2 3866   5.481   2.413   3.159  0.0394  0.2491  0.2871
 1025SOL    HW3 3867   5.521   2.352   3.291  0.8009  0.2014  0.0423
 1025SOL    MW4 3868   5.488   2.344   3.211  0.1069  0.2760  0.3138
 1026SOL     OW 3869   0.949   3.177   2.087 -0.3180  0.4668  0.0622
 1026SOL    HW2 3870   0.854   3.187   2.090 -0.5066 -0.6236 -1.3129
 1026SOL    HW3 3871   0.967   3.106   2.149 -0.4546  0.3674 -0.0104
 1026SOL    MW4 3872   0.939   3.169   2.096 -0.3609  0.3098 -0.1288
 1027SOL     OW 3873   1.800   1.243   3.409  0.2952  0.8058 -0.1911
 1027SOL    HW2 3874   1.727   1.183   3.422  1.0922 -0.0395  0.5505
 1027SOL    HW3 3875   1.810   1.249   3.314  0.7541 -0.9707 -0.2964
 1027SOL    MW4 3876   1.792   1.236   3.399  0.4609  0.4599 -0.1072
 1028SOL     OW 3877   3.305   4.511   4.920 -0.5750  0.0724 -1.1359
 1028SOL    HW2 3878   3.333   4.472   4.837  0.3197 -1.3261 -0.2281
 1028SOL    HW3 3879   3.300   4.605   4.902  0.3725 -0.1086 -2.5559
 1028SOL    MW4 3880   3.308   4.518   4.906 -0.3319 -0.1360 -1.2035
 1029SOL     OW 3881   6.043   4.433   1.797 -0.1049 -0.7687  0.2683
 1029SOL    HW2 3882   6.105   4.445   1.725  0.5246 -1.0253  0.7581
 1029SOL    HW3 3883   5.972   4.496   1.779 -1.3817 -2.7027 -2.0816
 1029SOL    MW4 3884   6.042   4.443   1.785 -0.1903 -1.0577  0.0229
 1030SOL     OW 3885   5.822   3.700   5.810 -0.2866  0.2184 -0.1704
 1030SOL    HW2 3886   5.849   3.780   5.855  1.4429 -0.1050 -0.5319
 1030SOL    HW3 3887   5.885   3.691   5.738 -1.3665 -0.6799 -1.0451
 1030SOL    MW4 3888   5.834   3.710   5.807 -0.2009  0.0573 -0.3335
 1031SOL     OW 3889   2.610   2.784   4.649  0.0920 -0.5478 -0.2425
 1031SOL    HW2 3890   2.610   2.877   4.623  1.8609 -0.3425  0.4007
 1031SOL    HW3 3891   2.547   2.781   4.722  3.0190  1.1160  2.6557
 1031SOL    MW4 3892   2.601   2.796   4.655  0.7116 -0.3012  0.2248
 1032SOL     OW 3893   6.375   5.144   5.715  0.0237 -0.3968  0.3121
 1032SOL    HW2 3894   6.370   5.064   5.768 -2.6342 -0.6994 -0.2542
 1032SOL    HW3 3895   6.312   5.130   5.644  0.0801  1.8802 -0.2669
 1032SOL    MW4 3896   6.366   5.132   5.713 -0.3196 -0.1363  0.1610
 1033SOL     OW 3897   3.487   2.218   5.393 -0.3954  0.1833 -0.6781
 1033SOL    HW2 3898   3.541   2.272   5.335  0.6083  0.4512  0.4588
 1033SOL    HW3 3899   3.456   2.147   5.338  0.1928  0.6550 -1.6471
 1033SOL    MW4 3900   3.490   2.216   5.378 -0.1854  0.2808 -0.6559
 1034SOL     OW 3901   3.782   1.637   3.350 -0.3429 -0.2309  0.0260
 1034SOL    HW2 3902   3.782   1.584   3.271 -0.3211 -0.1780 -0.0098
 1034SOL    HW3 3903   3.869   1.624   3.387  0.0314  0.5808 -0.5262
 1034SOL    MW4 3904   3.794   1.628   3.344 -0.2906 -0.1168 -0.0516
 1035SOL     OW 3905   5.964   0.610   0.532 -0.9042 -0.2122 -0.0749
 1035SOL    HW2 3906   5.891   0.576   0.584 -2.5573  1.6390 -1.0843
 1035SOL    HW3 3907   5.965   0.704   0.551  0.8900 -0.1062 -0.5158
 1035SOL    MW4 3908   5.955   0.618   0.542 -0.8856  0.0460 -0.2662
 1036SOL     OW 3909   4.528   3.059   4.645 -0.3821  0.6346 -0.3345
 1036SOL    HW2 3910   4.508   2.982   4.592  1.9825 -0.2584 -0.0748
 1036SOL    HW3 3911   4.566   3.121   4.583 -0.1185  0.6584 -0.1510
 1036SOL    MW4 3912   4.531   3.057   4.630 -0.0353  0.5199 -0.2760
 1037SOL     OW 3913   2.095   5.418   1.144  0.1831  0.1613 -0.6986
 1037SOL    HW2 3914   2.097   5.508   1.113 -0.4038  0.6029  0.5064
 1037SOL    HW3 3915   2.141   5.420   1.228 -0.8533 -0.4269 -0.0979
 1037SOL    MW4 3916   2.102   5.430   1.151 -0.0310  0.1420 -0.4604
 1038SOL     OW 3917   3.993   6.176   3.427  0.3033 -0.2800  0.1551
 1038SOL    HW2 3918   3.966   6.144   3.342  1.1560  0.0363 -0.2519
 1038SOL    HW3 3919   4.049   6.106   3.462  1.4863  0.3615 -0.3767
 1038SOL    MW4 3920   3.997   6.163   3.421  0.5719 -0.1536  0.0312
 1039SOL     OW 3921   2.486   3.924   0.305 -0.3893  0.5833 -0.4033
 1039SOL    HW2 3922   2.579   3.948   0.301 -0.1356 -0.0442  0.9826
 1039SOL    HW3 3923   2.439   4.002   0.276  0.5809  0.4619 -2.5189
 1039SOL    MW4 3924   2.492   3.937   0.301 -0.2278  0.4845 -0.4996
 1040SOL     OW 3925   5.082   0.983   4.439 -0.1856 -1.0205 -0.3513
 1040SOL    HW2 3926   5.077   0.934   4.357  2.9648 -0.6331 -0.9063
 1040SOL    HW3 3927   5.142   1.055   4.420  1.2521 -1.3372  2.4225
 1040SOL    MW4 3928   5.089   0.986   4.425  0.4198 -1.0111 -0.0586
 1041SOL     OW 3929   1.858   2.869   5.442 -0.0477 -0.4118 -0.2134
 1041SOL    HW2 3930   1.941   2.912   5.463  0.4579 -1.4725  0.0162
 1041SOL    HW3 3931   1.826   2.834   5.525 -1.4738  1.2197 -0.0305
 1041SOL    MW4 3932   1.865   2.870   5.456 -0.1692 -0.3365 -0.1590
 1042SOL     OW 3933   2.954   2.476   0.352  0.4672 -0.3839  0.0035
 1042SOL    HW2 3934   2.875   2.424   0.366 -0.1500  0.4343 -0.3181
 1042SOL    HW3 3935   2.977   2.460   0.260 -1.2713  1.8844 -0.9383
 1042SOL    MW4 3936   2.946   2.467   0.341  0.1564  0.0233 -0.1632
 1043SOL     OW 3937   4.775   4.727   3.898  0.1607  0.8785  0.5639
 1043SOL    HW2 3938   4.831   4.789   3.945  2.0809 -0.4508  0.1747
 1043SOL    HW3 3939   4.819   4.642   3.909 -0.4708  0.1610 -1.7853
 1043SOL    MW4 3940   4.788   4.724   3.905  0.3307  0.6085  0.2026
 1044SOL     OW 3941   3.833   4.262   1.553  0.2083 -0.1905 -0.8951
 1044SOL    HW2 3942   3.749   4.303   1.573 -0.1022 -0.7538 -1.0311
 1044SOL    HW3 3943   3.849   4.284   1.461 -0.3547 -1.0425 -1.2095
 1044SOL    MW4 3944   3.824   4.270   1.543  0.0931 -0.3772 -0.9545
 1045SOL     OW 3945   3.283   5.747   3.668  0.1784 -0.2638 -0.0065
 1045SOL    HW2 3946   3.310   5.678   3.728  0.6430  0.5228  0.7069
 1045SOL    HW3 3947   3.365   5.787   3.639 -0.1281  1.1693  1.0153
 1045SOL    MW4 3948   3.297   5.743   3.672  0.1993  0.0291  0.2224
 1046SOL     OW 3949   3.389   3.600   2.190  0.2750 -0.2012 -0.3206
 1046SOL    HW2 3950   3.361   3.580   2.279  2.5272 -0.0234  0.5126
 1046SOL    HW3 3951   3.367   3.522   2.140  0.9538 -1.2217  0.9082
 1046SOL    MW4 3952   3.383   3.587   2.195  0.6617 -0.3124 -0.0486
 1047SOL     OW 3953   0.231   0.797   2.610  0.0029 -0.6658  0.6889
 1047SOL    HW2 3954   0.284   0.732   2.657  1.4431  0.1168  0.2020
 1047SOL    HW3 3955   0.291   0.834   2.545 -0.7974  1.1052  0.9220
 1047SOL    MW4 3956   0.246   0.793   2.608  0.0873 -0.3289  0.6554
 1048SOL     OW 3957   3.080   1.041   6.317 -0.2427 -0.2329  0.2873
 1048SOL    HW2 3958   3.108   0.986   6.389 -0.3231 -0.8844 -0.1694
 1048SOL    HW3 3959   3.037   1.116   6.359  1.6112  0.4890  0.9678
 1048SOL    MW4 3960   3.078   1.044   6.332 -0.0087 -0.2236  0.3169
 1049SOL     OW 3961   1.011   5.805   5.207 -0.3661 -0.5829  0.2788
 1049SOL    HW2 3962   0.941   5.857   5.246  0.3759 -1.4966  3.0525
 1049SOL    HW3 3963   0.966   5.736   5.158 -1.3802  0.0276  0.3416
 1049SOL    MW4 3964   0.996   5.803   5.206 -0.4020 -0.6229  0.6530
 1050SOL     OW 3965   5.327   4.947   2.175 -0.1343 -0.3062 -0.0644
 1050SOL    HW2 3966   5.355   5.018   2.233  0.0221 -1.6055  1.5231
 1050SOL    HW3 3967   5.405   4.927   2.123 -0.1192  0.5334 -0.3796
 1050SOL    MW4 3968   5.341   4.954   2.176 -0.1117 -0.3669  0.1035
 1051SOL     OW 3969   5.271   6.358   0.006  0.9669 -0.0149  0.4473
 1051SOL    HW2 3970   5.181   6.343   0.033  1.0544  0.9210  1.3512
 1051SOL    HW3 3971   5.324   6.321   0.077  1.3062 -0.7681 -0.1879
 1051SOL    MW4 3972   5.266   6.351   0.019  1.0232  0.0092  0.4828
 1052SOL     OW 3973   5.597   1.558   1.112  0.6867 -0.2342 -0.1068
 1052SOL    HW2 3974   5.595   1.606   1.195 -0.3152  0.1834 -0.3544
 1052SOL    HW3 3975   5.559   1.473   1.132 -0.5993  0.2630 -0.3588
 1052SOL    MW4 3976   5.592   1.553   1.126  0.3848 -0.1135 -0.1727
 1053SOL     OW 3977   0.991   5.103   0.800 -0.5379 -0.2538 -0.2570
 1053SOL    HW2 3978   0.927   5.094   0.870 -1.7864  0.8117 -1.2205
 1053SOL    HW3 3979   0.991   5.196   0.778  1.4911 -0.1982 -0.1672
 1053SOL    MW4 3980   0.983   5.114   0.806 -0.4349 -0.1059 -0.3723
 1054SOL     OW 3981   4.297   0.112   6.046  0.3970 -0.2690 -0.3677
 1054SOL    HW2 3982   4.343   0.190   6.078  0.8276 -0.5293 -0.3348
 1054SOL    HW3 3983   4.306   0.049   6.116 -1.5607  0.2356  0.4010
 1054SOL    MW4 3984   4.304   0.114   6.059  0.1955 -0.2368 -0.2619
 1055SOL     OW 3985   0.017   3.065   6.334  0.4580  0.1600  0.2244
 1055SOL    HW2 3986   0.047   2.979   6.305  0.3570  0.8293 -2.0500
 1055SOL    HW3 3987  -0.076   3.066   6.314  0.3343  0.6010  0.7829
 1055SOL    MW4 3988   0.009   3.054   6.328  0.4284  0.3065 -0.0020
 1056SOL     OW 3989   3.710   5.781   2.971 -0.2208 -0.4920 -0.7686
 1056SOL    HW2 3990   3.661   5.776   3.053  0.7042  2.2496  0.0575
 1056SOL    HW3 3991   3.643   5.800   2.904 -0.6999 -0.2195 -0.2214
 1056SOL    MW4 3992   3.694   5.783   2.973 -0.1620 -0.0943 -0.5874
 1057SOL     OW 3993   4.521   1.404   4.808 -0.1946  0.3034  0.3108
 1057SOL    HW2 3994   4.475   1.338   4.755  0.4291 -0.4200  0.6426
 1057SOL    HW3 3995   4.562   1.354   4.878 -3.3675  1.5353  3.2755
 1057SOL    MW4 3996   4.521   1.388   4.810 -0.5310  0.3705  0.7457
 1058SOL     OW 3997   1.967   1.870   5.175 -0.3275  0.4037  0.2217
 1058SOL    HW2 3998   1.959   1.818   5.094 -0.5370  1.1470 -0.2415
 1058SOL    HW3 3999   2.061   1.879   5.188 -0.2880  0.9976 -0.4157
 1058SOL    MW4 4000   1.978   1.864   5.166 -0.3500  0.5801  0.0765
 1059SOL     OW 4001   3.253   4.701   0.551 -0.1143 -0.1738 -0.1193
 1059SOL    HW2 4002   3.263   4.787   0.592  1.1477  0.0556 -0.8440
 1059SOL    HW3 4003   3.309   4.643   0.601  1.9655  0.2485 -1.8172
 1059SOL    MW4 4004   3.261   4.705   0.563  0.3266 -0.0878 -0.4389
 1060SOL     OW 4005   2.987   3.115   0.421  0.6679 -0.5889 -0.0941
 1060SOL    HW2 4006   2.920   3.099   0.355  0.1045  0.3073  0.2546
 1060SOL    HW3 4007   3.046   3.039   0.413  0.2574 -0.8171 -1.1722
 1060SOL    MW4 4008   2.986   3.103   0.411  0.5394 -0.5008 -0.1904
 1061SOL     OW 4009   4.257   3.191   0.497  0.6383 -0.3362  0.1993
 1061SOL    HW2 4010   4.186   3.128   0.510 -1.1854  1.5412 -0.0431
 1061SOL    HW3 4011   4.271   3.229   0.583  0.2258  0.4110 -0.0566
 1061SOL    MW4 4012   4.250   3.188   0.510  0.3433  0.0101  0.1336
 1062SOL     OW 4013   6.106   0.911   1.440  0.3729 -0.1838 -0.4726
 1062SOL    HW2 4014   6.035   0.948   1.388  0.6919 -1.6081 -1.9737
 1062SOL    HW3 4015   6.177   0.974   1.432  0.5464 -0.5529 -2.1182
 1062SOL    MW4 4016   6.106   0.924   1.432  0.4379 -0.4204 -0.8877
 1063SOL     OW 4017   5.080   5.413   5.748 -0.4441  0.0386  0.2845
 1063SOL    HW2 4018   5.051   5.442   5.662 -0.7206 -0.0352  0.3496
 1063SOL    HW3 4019   5.089   5.494   5.799  0.4370  0.1377 -0.0259
 1063SOL    MW4 4020   5.077   5.428   5.744 -0.3644  0.0419  0.2522
 1064SOL     OW 4021   0.899   4.322   5.173  0.2729 -0.2669  0.3398
 1064SOL    HW2 4022   0.817   4.355   5.209  0.7993  0.6300  0.7460
 1064SOL    HW3 4023   0.959   4.319   5.248  0.4081 -1.6451  0.2083
 1064SOL    MW4 4024   0.897   4.326   5.188  0.3602 -0.3304  0.3761
 1065SOL     OW 4025   3.872   2.384   5.150 -0.1018 -0.4163 -0.4442
 1065SOL    HW2 4026   3.841   2.302   5.112 -0.1739 -0.4961 -0.2139
 1065SOL    HW3 4027   3.964   2.367   5.173 -0.1794 -0.5046 -0.1935
 1065SOL    MW4 4028   3.880   2.371   5.148 -0.1215 -0.4385 -0.3807
 1066SOL     OW 4029   4.571   2.858   3.489  0.0296 -0.1270  0.0328
 1066SOL    HW2 4030   4.641   2.899   3.540  0.7441  0.0691 -1.0537
 1066SOL    HW3 4031   4.525   2.931   3.448  0.8757 -0.3315 -1.3597
 1066SOL    MW4 4032   4.574   2.873   3.490  0.2355 -0.1281 -0.2943
 1067SOL     OW 4033   2.081   2.660   0.470 -0.0212 -0.1512 -0.3206
 1067SOL    HW2 4034   2.017   2.612   0.523 -0.1400 -0.3138 -0.6106
 1067SOL    HW3 4035   2.166   2.637   0.509 -0.2208  1.2299  1.0061
 1067SOL    MW4 4036   2.084   2.650   0.482 -0.0632  0.0095 -0.1838
 1068SOL     OW 4037   5.015   4.877   4.909 -0.4903 -0.3265  0.3285
 1068SOL    HW2 4038   5.064   4.796   4.896 -1.3977 -0.7601 -0.5119
 1068SOL    HW3 4039   5.034   4.930   4.832  1.6054  1.1064  1.7389
 1068SOL    MW4 4040   5.024   4.873   4.897 -0.3336 -0.1947  0.4037
 1069SOL     OW 4041   1.516   5.400   5.254 -0.2847  0.3569 -0.0723
 1069SOL    HW2 4042   1.482   5.313   5.278  1.3005 -0.3115 -0.1520
 1069SOL    HW3 4043   1.545   5.437   5.337  0.7809  0.0155 -0.2791
 1069SOL    MW4 4044   1.515   5.393   5.268  0.0651  0.2237 -0.1101
 1070SOL     OW 4045   0.702   3.801   1.562  0.2688 -0.3651 -0.3549
 1070SOL    HW2 4046   0.645   3.758   1.499 -1.0389 -4.3591  3.0996
 1070SOL    HW3 4047   0.642   3.848   1.620  1.0136 -0.0686  0.1898
 1070SOL    MW4 4048   0.687   3.802   1.561  0.1946 -0.8529  0.1728
 1071SOL     OW 4049   5.018   5.787   1.717  0.2389  0.1871  0.0866
 1071SOL    HW2 4050   4.946   5.848   1.731  1.6294  1.9045  0.2322
 1071SOL    HW3 4051   4.989   5.729   1.647 -0.1453  2.8276 -2.1148
 1071SOL    MW4 4052   5.005   5.788   1.710  0.3717  0.7621 -0.1846
 1072SOL     OW 4053   4.026   5.013   0.221  0.2729  0.1841  0.4390
 1072SOL    HW2 4054   3.979   5.096   0.223  0.8371  0.5210 -0.1122
 1072SOL    HW3 4055   4.058   5.006   0.131  3.5299  1.2296  1.3943
 1072SOL    MW4 4056   4.024   5.023   0.210  0.7771  0.3665  0.4923
 1073SOL     OW 4057   5.594   1.562   0.347 -0.3604 -0.4585  0.1632
 1073SOL    HW2 4058   5.505   1.594   0.336 -1.0329 -1.4559  2.1202
 1073SOL    HW3 4059   5.592   1.473   0.312 -0.2456 -0.6272  0.5827
 1073SOL    MW4 4060   5.582   1.555   0.341 -0.4340 -0.6123  0.4768
 1074SOL     OW 4061   3.947   2.764   0.566 -0.5846  0.0530  0.2920
 1074SOL    HW2 4062   3.931   2.720   0.482 -1.0249  0.1228  0.3358
 1074SOL    HW3 4063   3.978   2.694   0.623 -1.7324 -0.3186  0.4953
 1074SOL    MW4 4064   3.949   2.749   0.562 -0.7941  0.0132  0.3246
 1075SOL     OW 4065   5.594   1.060   2.810  0.2780 -0.8804 -0.3055
 1075SOL    HW2 4066   5.683   1.070   2.776 -0.2603 -1.1257 -1.9193
 1075SOL    HW3 4067   5.592   1.114   2.889  2.2470 -1.9894  0.5688
 1075SOL    MW4 4068   5.605   1.069   2.816  0.4668 -1.0590 -0.4031
 1076SOL     OW 4069   3.490   3.951   0.322 -0.1513 -0.0878 -0.3841
 1076SOL    HW2 4070   3.460   3.884   0.383 -0.3594  1.4716  1.3248
 1076SOL    HW3 4071   3.584   3.958   0.339 -0.4953  1.5525  1.0713
 1076SOL    MW4 4072   3.499   3.943   0.332 -0.2242  0.3343  0.0334
 1077SOL     OW 4073   5.707   3.213   4.622 -0.1074 -0.0014 -0.0442
 1077SOL    HW2 4074   5.630   3.266   4.601 -0.4322 -0.4280  0.0625
 1077SOL    HW3 4075   5.758   3.268   4.682  1.0256  1.3869 -2.1601
 1077SOL    MW4 4076   5.703   3.228   4.627 -0.0008  0.1255 -0.3093
 1078SOL     OW 4077   3.893   3.870   1.389  0.4170 -0.1293 -0.0864
 1078SOL    HW2 4078   3.852   3.797   1.343  0.3633  0.2164 -0.5977
 1078SOL    HW3 4079   3.910   3.935   1.321  0.6079  0.2710  0.3347
 1078SOL    MW4 4080   3.889   3.869   1.374  0.4351 -0.0309 -0.0983
 1079SOL     OW 4081   1.667   2.554   4.206 -0.6210 -0.0058 -0.5721
 1079SOL    HW2 4082   1.681   2.615   4.278 -1.3090 -1.6230  0.9975
 1079SOL    HW3 4083   1.594   2.592   4.157  0.4461  1.5872 -1.0152
 1079SOL    MW4 4084   1.659   2.567   4.209 -0.5710 -0.0090 -0.4235
 1080SOL     OW 4085   2.735   1.155   3.352  0.2721 -0.2081 -0.7580
 1080SOL    HW2 4086   2.803   1.107   3.399 -1.1210 -1.4653  0.0388
 1080SOL    HW3 4087   2.706   1.222   3.414 -0.1215 -0.5273 -0.5927
 1080SOL    MW4 4088   2.740   1.158   3.367  0.0364 -0.4161 -0.6311
 1081SOL     OW 4089   1.215   0.621   3.408 -0.0285  0.2485 -0.4017
 1081SOL    HW2 4090   1.195   0.534   3.441  0.1963  0.0843 -0.6996
 1081SOL    HW3 4091   1.310   0.629   3.417  0.1666 -0.1516 -1.8554
 1081SOL    MW4 4092   1.225   0.611   3.414  0.0269  0.1741 -0.6328
 1082SOL     OW 4093   0.503   4.433   1.786 -0.2401  0.0553  0.0702
 1082SOL    HW2 4094   0.520   4.400   1.698 -2.0334 -1.4279  0.2193
 1082SOL    HW3 4095   0.538   4.365   1.844 -0.3896  0.3102  0.4613
 1082SOL    MW4 4096   0.510   4.419   1.782 -0.4964 -0.1067  0.1415
 1083SOL     OW 4097   2.392   2.919   5.797  0.3430  0.2396  0.3025
 1083SOL    HW2 4098   2.342   2.846   5.761  0.2004  0.9066 -0.8896
 1083SOL    HW3 4099   2.483   2.896   5.783  0.3819 -0.5481  1.6360
 1083SOL    MW4 4100   2.397   2.906   5.791  0.3293  0.2237  0.3211
 1084SOL     OW 4101   3.111   6.462   1.350  0.4621  0.1619  0.2451
 1084SOL    HW2 4102   3.141   6.488   1.437 -0.7423  0.9002  0.4577
 1084SOL    HW3 4103   3.100   6.544   1.302  1.3386 -0.2455 -0.7066
 1084SOL    MW4 4104   3.113   6.476   1.355  0.4189  0.2056  0.1476
 1085SOL     OW 4105   6.276   4.396   2.083 -0.3090 -0.1802 -0.3008
 1085SOL    HW2 4106   6.280   4.360   2.171 -2.8259 -0.2874 -0.1773
 1085SOL    HW3 4107   6.212   4.467   2.089  2.1420  2.3212 -1.2581
 1085SOL    MW4 4108   6.268   4.401   2.095 -0.3177  0.1357 -0.4108
 1086SOL     OW 4109   2.625   4.483   5.279 -0.2666 -0.0656 -0.0877
 1086SOL    HW2 4110   2.571   4.461   5.202  0.1745  1.1009 -0.7621
 1086SOL    HW3 4111   2.715   4.474   5.248 -0.0365  2.5608 -0.4538
 1086SOL    MW4 4112   2.630   4.479   5.265 -0.1780  0.4349 -0.2249
 1087SOL     OW 4113   3.376   5.283   2.724 -0.5919  0.2614  0.2359
 1087SOL    HW2 4114   3.449   5.297   2.665 -0.0762  1.8172  1.1658
 1087SOL    HW3 4115   3.318   5.222   2.678 -0.0577  1.1485 -1.7011
 1087SOL    MW4 4116   3.378   5.277   2.710 -0.4533  0.5837  0.1031
 1088SOL     OW 4117   4.867   2.189   1.769  0.1778 -0.1064 -0.0511
 1088SOL    HW2 4118   4.911   2.273   1.760 -0.5244  0.2813  0.0152
 1088SOL    HW3 4119   4.927   2.126   1.729  1.7581  0.0700  1.8997
 1088SOL    MW4 4120   4.880   2.192   1.763  0.2937 -0.0320  0.2150
 1089SOL     OW 4121   3.835   5.874   0.280  0.0938  0.1375 -0.1771
 1089SOL    HW2 4122   3.901   5.830   0.226  0.6582 -0.9607  1.3631
 1089SOL    HW3 4123   3.885   5.939   0.330 -0.2037  0.1832  0.0601
 1089SOL    MW4 4124   3.850   5.877   0.279  0.1290 -0.0014  0.0574
 1090SOL     OW 4125   1.527   0.976   4.178  0.2460  1.0373 -0.2491
 1090SOL    HW2 4126   1.461   0.914   4.147  0.0523  0.8663  0.4926
 1090SOL    HW3 4127   1.583   0.925   4.235  0.4009  1.4274 -0.0501
 1090SOL    MW4 4128   1.526   0.961   4.181  0.2409  1.0662 -0.1250
 1091SOL     OW 4129   1.932   2.364   4.267  0.3510  0.1179 -0.4277
 1091SOL    HW2 4130   1.933   2.457   4.292 -1.6326 -0.0170  0.3970
 1091SOL    HW3 4131   1.995   2.323   4.326  0.7076  0.8272 -0.2981
 1091SOL    MW4 4132   1.940   2.371   4.278  0.1364  0.1937 -0.3018
 1092SOL     OW 4133   0.179   5.924   1.720 -0.2800 -0.3188 -0.3616
 1092SOL    HW2 4134   0.215   6.011   1.703 -0.2608 -0.3729 -0.5951
 1092SOL    HW3 4135   0.252   5.875   1.757  0.1275 -0.6730 -1.5869
 1092SOL    MW4 4136   0.193   5.929   1.723 -0.2237 -0.3726 -0.5540
 1093SOL     OW 4137   5.158   6.285   4.723 -0.5644 -0.0918 -0.0662
 1093SOL    HW2 4138   5.074   6.297   4.680 -1.3465 -1.7364  0.8836
 1093SOL    HW3 4139   5.146   6.206   4.777  2.1414 -1.5354 -1.3617
 1093SOL    MW4 4140   5.145   6.276   4.725 -0.3106 -0.4993 -0.1118
 1094SOL     OW 4141   1.563   3.317   0.772 -0.7177  0.0394  0.2024
 1094SOL    HW2 4142   1.524   3.385   0.717 -0.4178  0.2195  0.2150
 1094SOL    HW3 4143   1.488   3.265   0.801 -1.1155  1.2134  1.3546
 1094SOL    MW4 4144   1.548   3.319   0.769 -0.7306  0.2181  0.3560
 1095SOL     OW 4145   2.159   4.915   0.748 -0.0258  0.2255 -0.2448
 1095SOL    HW2 4146   2.150   4.835   0.697  1.7338 -0.8762  1.0691
 1095SOL    HW3 4147   2.079   4.920   0.799  0.1696 -1.1455  0.2369
 1095SOL    MW4 4148   2.147   4.905   0.748  0.2322 -0.1007 -0.0079
 1096SOL     OW 4149   6.164   3.659   1.257  0.4040  0.3081 -0.2043
 1096SOL    HW2 4150   6.077   3.675   1.294  0.5571  0.9312 -0.0988
 1096SOL    HW3 4151   6.205   3.598   1.318  0.1741  0.3028 -0.0542
 1096SOL    MW4 4152   6.158   3.653   1.270  0.3938  0.3896 -0.1706
 1097SOL     OW 4153   4.204   1.747   2.726  0.1044  0.1205  0.0706
 1097SOL    HW2 4154   4.188   1.710   2.813  1.2494 -0.9292 -0.1314
 1097SOL    HW3 4155   4.211   1.671   2.668  1.4651  0.6787 -0.5558
 1097SOL    MW4 4156   4.203   1.732   2.730  0.4350  0.0557 -0.0387
 1098SOL     OW 4157   3.394   3.079   0.285 -0.2960  0.0657  0.8891
 1098SOL    HW2 4158   3.352   3.164   0.267  1.4491  0.9318  0.7315
 1098SOL    HW3 4159   3.487   3.096   0.273  0.1101 -1.8138  1.2076
 1098SOL    MW4 4160   3.401   3.093   0.281 -0.0122 -0.0680  0.9103
 1099SOL     OW 4161   0.033   4.635   1.969 -0.3793  0.1002 -0.1749
 1099SOL    HW2 4162   0.011   4.543   1.953 -1.5733  0.4403 -0.5362
 1099SOL    HW3 4163   0.022   4.646   2.064 -0.5885 -0.0291 -0.1843
 1099SOL    MW4 4164   0.029   4.624   1.980 -0.5645  0.1280 -0.2238
 1100SOL     OW 4165   0.419   3.846   1.232 -0.2963 -0.4058 -0.5037
 1100SOL    HW2 4166   0.472   3.909   1.184  0.9992 -0.8215  0.3376
 1100SOL    HW3 4167   0.479   3.776   1.255 -1.2113 -0.9135  0.4544
 1100SOL    MW4 4168   0.434   3.845   1.229 -0.2461 -0.5276 -0.2663
 1101SOL     OW 4169   4.779   3.375   3.918 -0.2214  0.0590 -0.4603
 1101SOL    HW2 4170   4.760   3.386   4.011  1.1771 -0.5894 -0.0628
 1101SOL    HW3 4171   4.867   3.337   3.916 -0.9295 -1.6407 -1.9881
 1101SOL    MW4 4172   4.788   3.371   3.930 -0.1303 -0.2508 -0.6094
 1102SOL     OW 4173   4.018   4.386   4.944 -0.5297  0.3773 -0.3223
 1102SOL    HW2 4174   3.945   4.414   4.888  0.8034  0.8000 -1.9398
 1102SOL    HW3 4175   4.014   4.290   4.942 -0.6989  0.3914 -0.8837
 1102SOL    MW4 4176   4.008   4.377   4.936 -0.3761  0.4349 -0.6098
 1103SOL     OW 4177   2.338   4.417   2.329  0.3633 -0.4805  0.5880
 1103SOL    HW2 4178   2.305   4.404   2.240  0.6713  2.0706  0.0200
 1103SOL    HW3 4179   2.433   4.414   2.320  0.3864 -0.9790  0.9720
 1103SOL    MW4 4180   2.346   4.415   2.316  0.4070 -0.2097  0.5637
 1104SOL     OW 4181   0.241   4.405   1.802  0.1922  0.5677  0.3525
 1104SOL    HW2 4182   0.216   4.316   1.776  0.0792  0.3356  1.2198
 1104SOL    HW3 4183   0.332   4.413   1.776  0.3178  0.0557  0.6280
 1104SOL    MW4 4184   0.249   4.395   1.795  0.1939  0.4695  0.5033
 1105SOL     OW 4185   4.049   2.853   2.953  0.5241  0.1574  0.2614
 1105SOL    HW2 4186   4.047   2.772   3.004  0.7902 -0.0603 -0.0691
 1105SOL    HW3 4187   4.124   2.902   2.986  0.6133  0.0782  0.1782
 1105SOL    MW4 4188   4.058   2.849   2.964  0.5710  0.1182  0.2068
 1106SOL     OW 4189   2.785   1.368   2.657  0.0529 -0.2808 -0.1488
 1106SOL    HW2 4190   2.720   1.316   2.609 -0.1356 -0.1380 -0.0491
 1106SOL    HW3 4191   2.786   1.452   2.613 -1.1061  0.3203  0.9098
 1106SOL    MW4 4192   2.777   1.372   2.645 -0.1249 -0.1826  0.0040
 1107SOL     OW 4193   2.808   3.287   3.647  0.0509 -0.3486 -0.7906
 1107SOL    HW2 4194   2.888   3.234   3.649  0.8666  0.8741 -0.0878
 1107SOL    HW3 4195   2.822   3.354   3.714 -1.2076  0.4093 -1.2603
 1107SOL    MW4 4196   2.820   3.289   3.656 -0.0075 -0.0873 -0.7598
 1108SOL     OW 4197   4.508   4.157   2.589 -0.7552  0.0866  0.3086
 1108SOL    HW2 4198   4.416   4.131   2.593 -0.6214 -0.3679  0.4453
 1108SOL    HW3 4199   4.552   4.083   2.547 -0.8895  1.4895 -2.5323
 1108SOL    MW4 4200   4.501   4.144   2.584 -0.7553  0.2117 -0.0482
 1109SOL     OW 4201   0.433   0.898   4.387  0.0948 -0.3275 -0.0469
 1109SOL    HW2 4202   0.423   0.909   4.293  1.1124  0.8550 -0.0464
 1109SOL    HW3 4203   0.348   0.922   4.423 -0.4609 -1.2918 -0.6846
 1109SOL    MW4 4204   0.420   0.903   4.379  0.1557 -0.2987 -0.1310
 1110SOL     OW 4205   1.520   1.134   0.225 -0.2328  0.1358 -0.5375
 1110SOL    HW2 4206   1.539   1.053   0.179 -3.1285 -1.2453  0.4496
 1110SOL    HW3 4207   1.460   1.182   0.167  1.0361  1.3810 -0.8820
 1110SOL    MW4 4208   1.515   1.130   0.211 -0.4474  0.1179 -0.4527
 1111SOL     OW 4209   3.718   2.681   2.662 -0.2509 -0.3881 -0.0028
 1111SOL    HW2 4210   3.739   2.755   2.720  0.2149  0.6295 -1.4186
 1111SOL    HW3 4211   3.791   2.620   2.674  0.4596  0.3692 -0.3914
 1111SOL    MW4 4212   3.731   2.683   2.671 -0.0957 -0.1539 -0.2409
 1112SOL     OW 4213   2.971   0.460   3.141 -0.0184 -0.5651 -0.1498
 1112SOL    HW2 4214   2.912   0.535   3.150 -0.7929 -1.1011 -0.6428
 1112SOL    HW3 4215   3.017   0.475   3.059 -2.0017 -1.8362 -1.5844
 1112SOL    MW4 4216   2.969   0.471   3.131 -0.3823 -0.8035 -0.4041
 1113SOL     OW 4217   1.890   0.325   5.359  0.2909 -0.6717 -0.1305
 1113SOL    HW2 4218   1.922   0.333   5.449  0.2496 -1.2363 -0.0645
 1113SOL    HW3 4219   1.953   0.268   5.316 -1.1041 -2.5902  0.2592
 1113SOL    MW4 4220   1.902   0.319   5.365  0.1014 -0.9993 -0.0704
 1114SOL     OW 4221   2.749   2.930   2.073 -0.1120  0.3655  1.2222
 1114SOL    HW2 4222   2.730   2.954   2.164  2.9566  0.0679  2.0458
 1114SOL    HW3 4223   2.780   2.840   2.078 -2.0585 -0.4896 -0.5084
 1114SOL    MW4 4224   2.750   2.921   2.086  0.0361  0.2134  1.1025
 1115SOL     OW 4225   5.304   2.807   1.292  0.0694 -0.2755  0.2169
 1115SOL    HW2 4226   5.370   2.802   1.361  0.4052  1.2969  0.0582
 1115SOL    HW3 4227   5.352   2.786   1.211  0.7772  2.0672 -0.0772
 1115SOL    MW4 4228   5.319   2.804   1.290  0.2071  0.2411  0.1572
 1116SOL     OW 4229   4.770   3.919   0.155  0.0732  0.0839  0.2122
 1116SOL    HW2 4230   4.772   4.005   0.114 -1.8359  0.7548  1.4145
 1116SOL    HW3 4231   4.853   3.911   0.201  1.2529  0.2783 -1.7995
 1116SOL    MW4 4232   4.781   3.929   0.156 -0.0230  0.1981  0.1054
 1117SOL     OW 4233   4.027   1.391   1.084 -0.8306  0.3787  0.4572
 1117SOL    HW2 4234   4.097   1.329   1.068 -1.1670  0.1666 -0.2459
 1117SOL    HW3 4235   3.983   1.358   1.163 -1.1117 -0.3786 -0.0042
 1117SOL    MW4 4236   4.030   1.379   1.093 -0.9121  0.2508  0.3036
 1118SOL     OW 4237   5.605   3.683   4.764  0.1795 -0.0388  0.1536
 1118SOL    HW2 4238   5.664   3.672   4.689  1.4345  0.9412  0.9461
 1118SOL    HW3 4239   5.606   3.599   4.808 -0.0301 -0.4130 -0.5447
 1118SOL    MW4 4240   5.613   3.671   4.760  0.3174  0.0412  0.1660
 1119SOL     OW 4241   2.547   4.849   2.210  0.3876 -0.1426 -0.2927
 1119SOL    HW2 4242   2.488   4.785   2.249 -0.6849  0.2224 -1.2481
 1119SOL    HW3 4243   2.599   4.798   2.148  0.9958 -0.4383  0.4439
 1119SOL    MW4 4244   2.546   4.834   2.207  0.3264 -0.1335 -0.3215
 1120SOL     OW 4245   6.148   0.497   5.028 -0.3272 -0.4285 -0.0092
 1120SOL    HW2 4246   6.192   0.451   5.099 -0.8463 -1.8350 -0.5431
 1120SOL    HW3 4247   6.209   0.565   5.001  0.4042 -0.6913  0.9400
 1120SOL    MW4 4248   6.162   0.500   5.034 -0.2992 -0.6487  0.0456
 1121SOL     OW 4249   2.187   6.428   0.835  0.0524  0.7070  0.2977
 1121SOL    HW2 4250   2.238   6.355   0.799 -0.3198  0.9219 -0.6984
 1121SOL    HW3 4251   2.135   6.388   0.905 -0.5805 -0.1381 -0.6184
 1121SOL    MW4 4252   2.187   6.413   0.839 -0.0802  0.6239  0.0454
 1122SOL     OW 4253   3.103   5.454   3.172  0.7389  0.0098 -0.0857
 1122SOL    HW2 4254   3.145   5.530   3.132  0.4224 -0.1529 -0.7392
 1122SOL    HW3 4255   3.103   5.473   3.266  0.1179  1.0976 -0.2852
 1122SOL    MW4 4256   3.108   5.466   3.179  0.6152  0.1318 -0.1983
 1123SOL     OW 4257   1.379   3.113   5.449  0.5045 -0.1076  0.1583
 1123SOL    HW2 4258   1.390   3.028   5.493  1.5011 -0.1888 -0.2417
 1123SOL    HW3 4259   1.463   3.156   5.457  0.2352  0.5234 -0.3332
 1123SOL    MW4 4260   1.391   3.107   5.456  0.6005 -0.0350  0.0407
 1124SOL     OW 4261   3.066   0.414   2.884  0.0448  0.1508  0.1216
 1124SOL    HW2 4262   3.049   0.507   2.868  2.4931  0.5601 -0.4896
 1124SOL    HW3 4263   3.045   0.371   2.800 -0.3692  0.2459  0.1730
 1124SOL    MW4 4264   3.061   0.420   2.871  0.3132  0.2174  0.0478
 1125SOL     OW 4265   3.988   4.026   5.328  0.1720 -0.0127  0.4336
 1125SOL    HW2 4266   4.075   4.018   5.367  1.2424  0.6385 -1.6530
 1125SOL    HW3 4267   3.974   3.943   5.283  0.0365  0.1661  0.1451
 1125SOL    MW4 4268   3.998   4.014   5.327  0.2953  0.0968  0.1202
 1126SOL     OW 4269   0.752   0.607   1.716 -0.3833 -0.2737  0.0033
 1126SOL    HW2 4270   0.831   0.661   1.719  1.4188 -2.7399  2.7311
 1126SOL    HW3 4271   0.681   0.667   1.740  1.1634  1.3608  0.7594
 1126SOL    MW4 4272   0.753   0.622   1.720  0.0586 -0.3834  0.4630
 1127SOL     OW 4273   5.405   0.420   5.874 -0.2161  0.2680  0.8407
 1127SOL    HW2 4274   5.350   0.431   5.951 -0.4697 -0.3474  0.7546
 1127SOL    HW3 4275   5.433   0.328   5.877  1.0825  0.6539  1.0622
 1127SOL    MW4 4276   5.401   0.409   5.885 -0.0782  0.2377  0.8586
 1128SOL     OW 4277   0.273   4.520   1.134  0.1111 -0.2207 -0.6067
 1128SOL    HW2 4278   0.303   4.523   1.044  1.5170  0.2548 -0.1403
 1128SOL    HW3 4279   0.200   4.582   1.137  0.1009 -0.1869 -1.3927
 1128SOL    MW4 4280   0.267   4.528   1.123  0.2953 -0.1535 -0.6489
 1129SOL     OW 4281   2.677   5.300   6.361 -0.7772 -0.1541 -0.4745
 1129SOL    HW2 4282   2.705   5.210   6.344 -1.3610 -0.5627  0.5948
 1129SOL    HW3 4283   2.677   5.343   6.275  2.6340 -0.2309 -0.6344
 1129SOL    MW4 4284   2.681   5.294   6.348 -0.4041 -0.2181 -0.3545
 1130SOL     OW 4285   4.440   0.073   4.643 -0.1537 -0.1287 -0.1023
 1130SOL    HW2 4286   4.463  -0.012   4.606 -1.5726 -0.3638 -0.5168
 1130SOL    HW3 4287   4.423   0.129   4.566  1.1817  0.6797  0.1507
 1130SOL    MW4 4288   4.441   0.069   4.628 -0.1647 -0.0530 -0.1236
 1131SOL     OW 4289   4.357   2.211   2.597 -0.0253  0.2537  0.1126
 1131SOL    HW2 4290   4.341   2.218   2.691  0.8035  2.1004  0.1394
 1131SOL    HW3 4291   4.330   2.295   2.561  1.2575  0.2049 -1.0627
 1131SOL    MW4 4292   4.351   2.223   2.605  0.2533  0.4909 -0.0390
 1132SOL     OW 4293   3.979   2.431   0.484  0.2197  0.0702 -0.3100
 1132SOL    HW2 4294   4.004   2.439   0.576 -2.4493 -0.3643  0.5533
 1132SOL    HW3 4295   3.936   2.346   0.478  0.6436 -0.0661 -2.0807
 1132SOL    MW4 4296   3.977   2.421   0.495 -0.0765 -0.0051 -0.4297
 1133SOL     OW 4297   2.640   0.869   6.172 -0.5371  0.6677  0.0937
 1133SOL    HW2 4298   2.637   0.836   6.262  1.0068  0.8587  0.2325
 1133SOL    HW3 4299   2.562   0.925   6.165 -1.1171  0.0141  1.0424
 1133SOL    MW4 4300   2.629   0.872   6.183 -0.4099  0.6067  0.2372
 1134SOL     OW 4301   6.076   5.841   2.757 -0.0381  0.2125 -0.1057
 1134SOL    HW2 4302   5.988   5.804   2.749  0.1108 -0.6027  1.5615
 1134SOL    HW3 4303   6.134   5.765   2.759  0.5095  0.6271  0.8256
 1134SOL    MW4 4304   6.072   5.826   2.756  0.0538  0.1597  0.2371
 1135SOL     OW 4305   3.893   5.556   6.348  0.1680  0.3336  0.1936
 1135SOL    HW2 4306   3.805   5.559   6.386  1.0756  1.7983  2.4367
 1135SOL    HW3 4307   3.895   5.629   6.286 -0.5476 -0.4747 -0.8044
 1135SOL    MW4 4308   3.882   5.566   6.345  0.1934  0.4202  0.3579
 1136SOL     OW 4309   6.326   3.403   0.689 -0.1774 -0.2567  0.5102
 1136SOL    HW2 4310   6.380   3.456   0.747 -0.2692  1.1757 -0.6263
 1136SOL    HW3 4311   6.275   3.468   0.639 -0.8921 -1.4620 -0.3736
 1136SOL    MW4 4312   6.326   3.419   0.690 -0.2838 -0.2267  0.2436
 1137SOL     OW 4313   1.783   3.136   2.364  0.4609 -0.1909  0.8710
 1137SOL    HW2 4314   1.856   3.197   2.358  0.1111  0.2109  0.7034
 1137SOL    HW3 4315   1.747   3.150   2.452  0.2871 -0.0536  0.7769
 1137SOL    MW4 4316   1.788   3.146   2.375  0.3918 -0.1198  0.8365
 1138SOL     OW 4317   3.177   1.215   1.913  0.4640  0.3012  0.7392
 1138SOL    HW2 4318   3.151   1.271   1.986 -1.5659  0.2721  0.1041
 1138SOL    HW3 4319   3.265   1.245   1.890 -0.0761  2.4171  1.2046
 1138SOL    MW4 4320   3.185   1.226   1.920  0.1249  0.5765  0.7168
 1139SOL     OW 4321   5.257   2.594   5.022  0.0036  0.7878  0.0533
 1139SOL    HW2 4322   5.212   2.512   5.043  1.2132 -0.2323 -1.1597
 1139SOL    HW3 4323   5.187   2.660   5.022 -0.9926 -0.2099  1.0670
 1139SOL    MW4 4324   5.242   2.592   5.025  0.0318  0.5216  0.0270
 1140SOL     OW 4325   6.285   6.085   6.127  0.1245  0.1564 -0.1521
 1140SOL    HW2 4326   6.233   6.005   6.119 -0.7817  0.6463  0.5551
 1140SOL    HW3 4327   6.229   6.154   6.091  0.5013  0.6128  0.1224
 1140SOL    MW4 4328   6.271   6.084   6.121  0.0547  0.2812 -0.0226
 1141SOL     OW 4329   4.379   1.264   2.043  0.5223 -0.0308  0.0704
 1141SOL    HW2 4330   4.342   1.289   2.127  0.2787 -0.2759  0.0392
 1141SOL    HW3 4331   4.471   1.287   2.049 -0.3193  5.1695 -1.5542
 1141SOL    MW4 4332   4.386   1.270   2.055  0.3791  0.6229 -0.1480
 1142SOL     OW 4333   2.690   1.506   4.948  0.4371  0.6519 -0.0942
 1142SOL    HW2 4334   2.777   1.476   4.922 -0.3495 -1.6531 -0.2575
 1142SOL    HW3 4335   2.637   1.501   4.868 -0.2255  0.5457  0.3359
 1142SOL    MW4 4336   2.694   1.502   4.934  0.2459  0.3338 -0.0590
 1143SOL     OW 4337   3.700   3.058   0.230  0.2821  0.8030 -0.3181
 1143SOL    HW2 4338   3.733   3.075   0.319  0.5214 -1.2922  0.0620
 1143SOL    HW3 4339   3.718   2.965   0.216 -0.9420  0.7871 -2.0789
 1143SOL    MW4 4340   3.707   3.048   0.240  0.1522  0.5244 -0.5003
 1144SOL     OW 4341   4.642   3.358   4.791  0.0357  0.1552  0.6486
 1144SOL    HW2 4342   4.580   3.432   4.796  0.1411  0.1477  2.4968
 1144SOL    HW3 4343   4.619   3.303   4.865  0.8328 -1.0164  0.0474
 1144SOL    MW4 4344   4.631   3.361   4.801  0.1548 -0.0004  0.8131
 1145SOL     OW 4345   4.996   5.917   2.401  0.0893  0.0913 -0.0216
 1145SOL    HW2 4346   4.939   5.919   2.478  0.0649 -0.7204 -0.0099
 1145SOL    HW3 4347   4.936   5.926   2.327  0.0529  0.3044  0.0342
 1145SOL    MW4 4348   4.981   5.918   2.401  0.0813  0.0123 -0.0127
 1146SOL     OW 4349   6.116   3.476   4.356  0.5528  0.2302  0.3021
 1146SOL    HW2 4350   6.208   3.503   4.360  0.2730  1.0503  2.0514
 1146SOL    HW3 4351   6.109   3.405   4.420 -0.4063  1.4938  1.6654
 1146SOL    MW4 4352   6.127   3.470   4.365  0.3893  0.5051  0.7128
 1147SOL     OW 4353   6.421   4.341   4.437 -0.7942  0.7013  0.1482
 1147SOL    HW2 4354   6.389   4.403   4.502 -0.3961  0.4044  0.6333
 1147SOL    HW3 4355   6.341   4.305   4.397 -1.0327  2.3943 -1.0024
 1147SOL    MW4 4356   6.406   4.344   4.440 -0.7732  0.8855  0.0604
 1148SOL     OW 4357   5.762   4.187   3.282  0.0938  0.5785  0.4791
 1148SOL    HW2 4358   5.853   4.174   3.255  0.2270  1.5588  0.4286
 1148SOL    HW3 4359   5.765   4.191   3.377  0.1907  1.2103  0.4520
 1148SOL    MW4 4360   5.774   4.185   3.291  0.1242  0.7912  0.4689
 1149SOL     OW 4361   4.696   5.222   1.039  0.3318 -0.7417 -0.6034
 1149SOL    HW2 4362   4.790   5.241   1.043 -0.1287  2.1691 -1.2085
 1149SOL    HW3 4363   4.682   5.190   0.950  0.8643 -2.3438 -0.1532
 1149SOL    MW4 4364   4.707   5.221   1.028  0.3413 -0.5690 -0.6238
 1150SOL     OW 4365   2.292   5.408   4.182  0.6270  0.5704 -0.2529
 1150SOL    HW2 4366   2.320   5.402   4.274 -0.4111  0.5170  0.0760
 1150SOL    HW3 4367   2.197   5.393   4.185  0.4442  1.4109 -1.2397
 1150SOL    MW4 4368   2.283   5.405   4.195  0.4659  0.6742 -0.3397
 1151SOL     OW 4369   4.804   4.970   6.232  0.1509 -0.4588 -0.3385
 1151SOL    HW2 4370   4.748   4.915   6.178 -0.2198 -0.7611  0.3345
 1151SOL    HW3 4371   4.891   4.963   6.192 -0.2954  0.0365 -1.3991
 1151SOL    MW4 4372   4.808   4.962   6.220  0.0431 -0.4333 -0.3897
 1152SOL     OW 4373   2.472   1.590   2.252  0.7101 -0.2819  0.3315
 1152SOL    HW2 4374   2.518   1.514   2.218  0.0201  0.6988 -3.2033
 1152SOL    HW3 4375   2.398   1.554   2.301  2.3951 -1.8203  1.8506
 1152SOL    MW4 4376   2.468   1.575   2.254  0.8414 -0.3555  0.0656
 1153SOL     OW 4377   0.051   1.955   5.520  0.0568  0.1131 -0.2891
 1153SOL    HW2 4378   0.113   1.996   5.580 -0.5385 -0.4687  0.7568
 1153SOL    HW3 4379   0.008   2.028   5.476  0.8566  0.5383 -0.3691
 1153SOL    MW4 4380   0.053   1.970   5.522  0.0838  0.0924 -0.1617
 1154SOL     OW 4381   0.046   5.468   5.025  0.2107 -0.4613  0.2674
 1154SOL    HW2 4382   0.045   5.463   5.121 -2.2475 -1.5542  0.2589
 1154SOL    HW3 4383   0.070   5.558   5.006  0.9741 -0.2800  1.8945
 1154SOL    MW4 4384   0.049   5.479   5.035 -0.0129 -0.5816  0.4809
 1155SOL     OW 4385   0.442   1.626   0.213 -0.3859 -0.2801 -0.1943
 1155SOL    HW2 4386   0.462   1.551   0.268  0.2426 -0.7750 -1.0680
 1155SOL    HW3 4387   0.428   1.698   0.274 -0.1723 -0.9162  0.6174
 1155SOL    MW4 4388   0.442   1.626   0.228 -0.2748 -0.4294 -0.2025
 1156SOL     OW 4389   3.552   3.943   5.907 -0.2090  0.3955  0.7570
 1156SOL    HW2 4390   3.523   3.990   5.829 -1.1226 -0.9069  0.2862
 1156SOL    HW3 4391   3.497   3.977   5.978  0.7773  1.7464  0.9251
 1156SOL    MW4 4392   3.541   3.953   5.906 -0.1994  0.4019  0.7170
 1157SOL     OW 4393   1.806   4.593   2.466  0.5322 -0.0040 -0.6769
 1157SOL    HW2 4394   1.750   4.518   2.446 -1.9306  1.3092  0.7805
 1157SOL    HW3 4395   1.824   4.633   2.381 -1.6748  0.0972 -1.1554
 1157SOL    MW4 4396   1.801   4.588   2.452 -0.0839  0.1826 -0.5477
 1158SOL     OW 4397   2.412   5.941   2.360 -0.6199 -0.3147  0.1611
 1158SOL    HW2 4398   2.433   5.849   2.348 -0.4525 -0.1339 -1.0128
 1158SOL    HW3 4399   2.342   5.941   2.425 -1.5856 -1.3622 -0.8530
 1158SOL    MW4 4400   2.406   5.929   2.367 -0.7253 -0.4291 -0.1276
 1159SOL     OW 4401   1.470   0.683   1.673  0.5545  0.2591 -0.6388
 1159SOL    HW2 4402   1.536   0.615   1.664  0.3554  0.0212 -0.3217
 1159SOL    HW3 4403   1.399   0.657   1.615  1.0149  0.8600 -1.4890
 1159SOL    MW4 4404   1.469   0.671   1.664  0.5890  0.3070 -0.7091
 1160SOL     OW 4405   1.594   5.153   4.949 -0.2480 -0.0168  0.1435
 1160SOL    HW2 4406   1.577   5.177   5.040  1.3986 -0.3243  0.5584
 1160SOL    HW3 4407   1.578   5.234   4.900  0.9000  0.7668  0.9860
 1160SOL    MW4 4408   1.590   5.167   4.954  0.1207  0.0460  0.3094
 1161SOL     OW 4409   1.788   0.565   6.072 -0.3849  0.4101  0.0946
 1161SOL    HW2 4410   1.877   0.547   6.041 -0.9595 -0.0071 -1.4264
 1161SOL    HW3 4411   1.799   0.611   6.155  1.2377  0.0183  0.1150
 1161SOL    MW4 4412   1.801   0.569   6.079 -0.2467  0.3033 -0.1034
 1162SOL     OW 4413   2.051   1.574   0.816  0.0100 -0.0300 -0.2953
 1162SOL    HW2 4414   2.127   1.551   0.870 -0.1046 -1.4492 -0.6943
 1162SOL    HW3 4415   1.985   1.603   0.879  0.1650 -0.8420  0.2545
 1162SOL    MW4 4416   2.052   1.575   0.831  0.0154 -0.3244 -0.2754
 1163SOL     OW 4417   1.740   1.825   5.775  0.4643  0.4618 -0.2607
 1163SOL    HW2 4418   1.695   1.743   5.755 -0.0049 -0.1709  2.8954
 1163SOL    HW3 4419   1.833   1.804   5.766  0.3271 -0.1756 -0.2118
 1163SOL    MW4 4420   1.746   1.811   5.771  0.3843  0.2942  0.1622
 1164SOL     OW 4421   0.259   3.498   3.653 -0.2453  0.3562 -0.0523
 1164SOL    HW2 4422   0.224   3.538   3.733  0.4825  2.1939 -0.6084
 1164SOL    HW3 4423   0.184   3.492   3.594 -0.4275  0.5903  0.1550
 1164SOL    MW4 4424   0.244   3.502   3.656 -0.1733  0.6295 -0.0984
 1165SOL     OW 4425   0.204   1.293   1.028 -0.1650 -0.6644 -0.2533
 1165SOL    HW2 4426   0.191   1.331   0.941 -1.2256 -0.1077  0.1299
 1165SOL    HW3 4427   0.250   1.211   1.011  0.8350  0.0694 -1.2239
 1165SOL    MW4 4428   0.208   1.287   1.014 -0.1730 -0.4942 -0.3308
 1166SOL     OW 4429   3.248   0.492   5.252 -0.1415  0.1498 -0.0994
 1166SOL    HW2 4430   3.206   0.577   5.265 -0.3343 -0.1702  1.6588
 1166SOL    HW3 4431   3.176   0.429   5.253  0.1172 -0.1504  0.1402
 1166SOL    MW4 4432   3.233   0.495   5.254 -0.1328  0.0680  0.1642
 1167SOL     OW 4433   1.292   4.992   1.995  0.3005 -0.4699 -0.3431
 1167SOL    HW2 4434   1.285   5.009   2.089  1.4242  0.9936 -0.4948
 1167SOL    HW3 4435   1.305   4.897   1.990 -0.4609 -0.6702  0.9278
 1167SOL    MW4 4436   1.293   4.982   2.007  0.3483 -0.3033 -0.1954
 1168SOL     OW 4437   3.353   2.519   5.914  0.0869 -0.1497 -0.1451
 1168SOL    HW2 4438   3.333   2.428   5.895  2.3390 -0.6326 -0.3757
 1168SOL    HW3 4439   3.448   2.523   5.919  0.3382  2.8182 -3.5220
 1168SOL    MW4 4440   3.363   2.508   5.912  0.4172  0.1782 -0.6210
 1169SOL     OW 4441   1.486   4.040   3.505 -0.0425 -0.2947  0.4673
 1169SOL    HW2 4442   1.411   4.081   3.548  0.0626  0.4097 -0.0058
 1169SOL    HW3 4443   1.479   4.067   3.413  1.0126  0.1334  0.4958
 1169SOL    MW4 4444   1.476   4.049   3.498  0.1105 -0.1453  0.4086
 1170SOL     OW 4445   1.820   3.693   0.749 -0.8904  0.3781  0.0626
 1170SOL    HW2 4446   1.797   3.628   0.816 -1.2954 -0.1010 -0.5233
 1170SOL    HW3 4447   1.872   3.758   0.795  0.9442 -1.2095  0.3383
 1170SOL    MW4 4448   1.824   3.693   0.764 -0.7018  0.1055  0.0217
 1171SOL     OW 4449   5.242   1.714   0.825 -0.7189 -0.1801  0.0915
 1171SOL    HW2 4450   5.272   1.803   0.805  0.3944 -0.4937  0.2837
 1171SOL    HW3 4451   5.168   1.726   0.884 -0.3305  0.6144  0.4381
 1171SOL    MW4 4452   5.236   1.727   0.830 -0.5208 -0.1167  0.1626
 1172SOL     OW 4453   5.173   1.840   4.593  0.5314 -0.0555 -0.1761
 1172SOL    HW2 4454   5.197   1.840   4.685 -0.1431  0.7657  0.0106
 1172SOL    HW3 4455   5.093   1.893   4.588  0.6679  0.0884 -1.2570
 1172SOL    MW4 4456   5.166   1.847   4.604  0.4604  0.0718 -0.2941
 1173SOL     OW 4457   1.450   2.139   3.108  0.0832  0.0277 -0.3437
 1173SOL    HW2 4458   1.424   2.047   3.096 -2.4811  0.4480  1.2295
 1173SOL    HW3 4459   1.389   2.189   3.054 -0.2120  0.9344  0.7929
 1173SOL    MW4 4460   1.439   2.133   3.099 -0.2941  0.2028  0.0138
 1174SOL     OW 4461   0.530   6.283   3.586 -0.1862  0.2833 -0.8343
 1174SOL    HW2 4462   0.591   6.229   3.635 -1.6590 -0.6890  0.0195
 1174SOL    HW3 4463   0.454   6.226   3.571 -0.5755  1.1862 -2.5374
 1174SOL    MW4 4464   0.528   6.269   3.591 -0.4319  0.2741 -0.9464
 1175SOL     OW 4465   5.352   4.752   2.371 -0.1326 -0.3612  0.0851
 1175SOL    HW2 4466   5.293   4.760   2.445  0.5302 -2.0801  0.8424
 1175SOL    HW3 4467   5.329   4.826   2.314 -2.5539 -0.5953  0.6442
 1175SOL    MW4 4468   5.341   4.763   2.373 -0.3646 -0.6189  0.2588
 1176SOL     OW 4469   1.250   2.839   1.865 -0.4438 -0.1626 -0.4728
 1176SOL    HW2 4470   1.314   2.855   1.795 -1.7945 -2.7642 -2.4753
 1176SOL    HW3 4471   1.303   2.810   1.939  0.9570  1.7922 -0.6099
 1176SOL    MW4 4472   1.266   2.837   1.866 -0.4372 -0.2479 -0.7551
 1177SOL     OW 4473   2.607   4.056   2.382 -0.0200  0.6878  0.0902
 1177SOL    HW2 4474   2.565   4.010   2.456  1.3629 -0.4615  0.2073
 1177SOL    HW3 4475   2.635   4.140   2.419  1.1761 -0.1095  1.0792
 1177SOL    MW4 4476   2.605   4.061   2.397  0.3203  0.4310  0.2362
 1178SOL     OW 4477   3.113   5.850   4.892  0.2016 -0.4109  0.0054
 1178SOL    HW2 4478   3.117   5.777   4.954  2.0004 -0.1137  0.2761
 1178SOL    HW3 4479   3.181   5.910   4.922 -0.4618  0.8203 -0.9229
 1178SOL    MW4 4480   3.122   5.848   4.904  0.3514 -0.2092 -0.0814
 1179SOL     OW 4481   2.395   5.656   0.707 -0.1906 -0.2545  0.0799
 1179SOL    HW2 4482   2.439   5.740   0.718  0.2494 -0.4098 -0.4550
 1179SOL    HW3 4483   2.315   5.664   0.759 -0.5869  0.8097 -0.6663
 1179SOL    MW4 4484   2.391   5.668   0.716 -0.1848 -0.1346 -0.0891
 1180SOL     OW 4485   0.727   3.096   0.581  0.2340 -0.5666 -0.7184
 1180SOL    HW2 4486   0.680   3.045   0.515 -0.3642  0.2862 -0.9667
 1180SOL    HW3 4487   0.776   3.031   0.632 -2.5363 -1.7311  0.6702
 1180SOL    MW4 4488   0.727   3.081   0.579 -0.2104 -0.6078 -0.5680
 1181SOL     OW 4489   6.244   4.721   5.658  0.5067  0.4349  0.1192
 1181SOL    HW2 4490   6.249   4.641   5.710  2.4098  0.0991 -0.5075
 1181SOL    HW3 4491   6.152   4.747   5.664 -0.0141 -1.3867  0.9258
 1181SOL    MW4 4492   6.232   4.714   5.666  0.6891  0.1503  0.1429
 1182SOL     OW 4493   4.759   1.543   2.186  0.1625  0.0114  0.4072
 1182SOL    HW2 4494   4.731   1.618   2.237  1.5150  0.1301  1.0177
 1182SOL    HW3 4495   4.688   1.479   2.195  0.6994 -0.3032  3.1453
 1182SOL    MW4 4496   4.746   1.544   2.194  0.4118 -0.0145  0.8490
 1183SOL     OW 4497   4.553   4.005   6.369  0.2754  0.4367  0.3975
 1183SOL    HW2 4498   4.503   4.047   6.299 -2.1626 -1.0398  1.1139
 1183SOL    HW3 4499   4.615   3.948   6.324  0.4753  1.3726 -0.5439
 1183SOL    MW4 4500   4.555   4.003   6.354 -0.0199  0.3654  0.3678
 1184SOL     OW 4501   6.094   1.486   3.613 -0.0909  0.4639 -0.2766
 1184SOL    HW2 4502   6.037   1.426   3.565 -0.5560  0.2510  0.5161
 1184SOL    HW3 4503   6.181   1.473   3.576 -0.0761 -1.1099  0.2480
 1184SOL    MW4 4504   6.098   1.477   3.602 -0.1503  0.2281 -0.1028
 1185SOL     OW 4505   1.898   1.897   4.243 -0.0193 -0.1584  0.0856
 1185SOL    HW2 4506   1.989   1.877   4.263  0.5613  0.2042 -1.9516
 1185SOL    HW3 4507   1.880   1.847   4.163 -1.4589  0.1786  0.1682
 1185SOL    MW4 4508   1.908   1.887   4.235 -0.1327 -0.0661 -0.1723
 1186SOL     OW 4509   1.361   3.928   4.514  0.7087 -0.2756  0.3091
 1186SOL    HW2 4510   1.385   3.868   4.443  1.8773 -0.6186  0.9621
 1186SOL    HW3 4511   1.279   3.895   4.548 -0.0183  0.0570 -1.0544
 1186SOL    MW4 4512   1.353   3.916   4.509  0.7670 -0.2769  0.2154
 1187SOL     OW 4513   0.115   3.723   2.557  0.2895 -0.1013 -0.1786
 1187SOL    HW2 4514   0.101   3.747   2.466  3.2519  1.9182 -0.2104
 1187SOL    HW3 4515   0.106   3.805   2.606  0.7588 -0.7691  1.0804
 1187SOL    MW4 4516   0.112   3.737   2.552  0.7423  0.0770 -0.0167
 1188SOL     OW 4517   1.137   3.230   1.033 -0.3899 -0.3247 -0.2362
 1188SOL    HW2 4518   1.101   3.318   1.025  0.0715 -0.1491 -0.4603
 1188SOL    HW3 4519   1.172   3.211   0.945 -0.7009 -0.8249 -0.2557
 1188SOL    MW4 4520   1.137   3.239   1.020 -0.3700 -0.3676 -0.2683
 1189SOL     OW 4521   1.610   6.238   4.665  0.2134  0.5263  0.5404
 1189SOL    HW2 4522   1.676   6.170   4.672 -1.2607 -0.8451  2.0678
 1189SOL    HW3 4523   1.572   6.227   4.578  1.1220  0.4980  0.1439
 1189SOL    MW4 4524   1.613   6.228   4.655  0.1388  0.3417  0.6896
 1190SOL     OW 4525   2.553   3.287   2.502  0.4028 -0.4354 -0.2276
 1190SOL    HW2 4526   2.596   3.373   2.501  2.9749 -1.6336 -0.0270
 1190SOL    HW3 4527   2.571   3.250   2.416 -0.0515 -1.0817 -0.0500
 1190SOL    MW4 4528   2.561   3.294   2.490  0.6822 -0.6788 -0.1777
 1191SOL     OW 4529   5.770   4.467   3.285  0.1650 -0.3270  0.0021
 1191SOL    HW2 4530   5.723   4.502   3.361 -0.8581 -2.2643  0.3173
 1191SOL    HW3 4531   5.760   4.372   3.292  1.9763 -0.6687 -1.3466
 1191SOL    MW4 4532   5.763   4.459   3.296  0.2690 -0.6277 -0.1342
 1192SOL     OW 4533   1.984   0.628   4.475 -0.6099  0.8298  0.1219
 1192SOL    HW2 4534   1.910   0.567   4.476  0.1081 -0.0640 -0.4227
 1192SOL    HW3 4535   1.967   0.686   4.549 -0.7846 -0.6668  1.3160
 1192SOL    MW4 4536   1.972   0.627   4.485 -0.5382  0.5144  0.2076
 1193SOL     OW 4537   4.319   4.939   3.196 -0.0641 -0.4055 -0.3686
 1193SOL    HW2 4538   4.353   4.912   3.111 -1.5705 -0.3298 -1.0085
 1193SOL    HW3 4539   4.283   4.860   3.235  0.8555 -0.4956  0.3340
 1193SOL    MW4 4540   4.319   4.925   3.190 -0.1415 -0.4074 -0.3603
 1194SOL     OW 4541   6.127   0.035   4.059 -0.1805  0.3555  0.4833
 1194SOL    HW2 4542   6.149   0.074   4.143  1.5780 -0.0892  0.2765
 1194SOL    HW3 4543   6.069  -0.038   4.081 -1.0072  1.1897  1.1394
 1194SOL    MW4 4544   6.122   0.030   4.073 -0.0575  0.4069  0.5425
 1195SOL     OW 4545   5.496   1.308   0.275 -0.1021 -0.2525  0.8255
 1195SOL    HW2 4546   5.558   1.277   0.341  0.3501  3.3480  2.3356
 1195SOL    HW3 4547   5.412   1.272   0.302  0.8173 -3.0951  0.2354
 1195SOL    MW4 4548   5.493   1.299   0.287  0.0789 -0.1525  0.9469
 1196SOL     OW 4549   4.226   2.941   5.066  0.1470  0.1358 -0.1694
 1196SOL    HW2 4550   4.237   2.850   5.041  0.7853  0.3347 -0.6279
 1196SOL    HW3 4551   4.252   2.991   4.989 -1.6195  0.6922 -0.4422
 1196SOL    MW4 4552   4.231   2.936   5.053 -0.0019  0.2355 -0.2659
 1197SOL     OW 4553   3.869   0.385   5.961 -0.3442 -0.3146 -0.4138
 1197SOL    HW2 4554   3.853   0.424   5.875 -0.5662 -2.0998 -1.2401
 1197SOL    HW3 4555   3.853   0.456   6.023 -0.0168  1.0712 -1.8399
 1197SOL    MW4 4556   3.865   0.399   5.958 -0.3303 -0.3673 -0.7110
 1198SOL     OW 4557   5.758   4.978   0.267 -0.2430 -0.0195 -0.4415
 1198SOL    HW2 4558   5.794   4.923   0.198  0.1502  0.1739 -0.3944
 1198SOL    HW3 4559   5.695   5.035   0.222 -0.2262 -0.1163 -0.5854
 1198SOL    MW4 4560   5.755   4.978   0.252 -0.1889 -0.0068 -0.4543
 1199SOL     OW 4561   2.152   5.101   2.822 -0.4325  0.2388 -0.4233
 1199SOL    HW2 4562   2.247   5.111   2.816 -0.3139 -0.6381 -0.1172
 1199SOL    HW3 4563   2.120   5.187   2.849  0.2963  0.4783 -0.3180
 1199SOL    MW4 4564   2.160   5.113   2.825 -0.3207  0.1547 -0.3690
 1200SOL     OW 4565   3.863   2.364   3.886  0.3700  0.2081  0.5634
 1200SOL    HW2 4566   3.909   2.312   3.952  0.4434  0.2770  0.5671
 1200SOL    HW3 4567   3.910   2.448   3.885  0.2414  0.2805  0.5718
 1200SOL    MW4 4568   3.875   2.368   3.895  0.3627  0.2267  0.5650
 1201SOL     OW 4569   0.385   1.304   2.377 -0.2757  0.1551  0.5683
 1201SOL    HW2 4570   0.478   1.284   2.367 -0.1241 -0.1520  2.2353
 1201SOL    HW3 4571   0.382   1.398   2.391 -0.2492  0.2072  0.2300
 1201SOL    MW4 4572   0.397   1.314   2.378 -0.2522  0.1214  0.7436
 1202SOL     OW 4573   0.086   2.414   6.103 -0.3209  0.7246  0.1070
 1202SOL    HW2 4574   0.072   2.390   6.011  0.7592 -0.3118  0.1835
 1202SOL    HW3 4575   0.160   2.476   6.099  1.8799 -1.6934  0.4497
 1202SOL    MW4 4576   0.094   2.419   6.090  0.1120  0.2689  0.1623
 1203SOL     OW 4577   4.124   6.357   6.415  0.0284 -0.0905 -0.8198
 1203SOL    HW2 4578   4.059   6.360   6.345  0.6294 -0.6933 -1.4247
 1203SOL    HW3 4579   4.208   6.348   6.369  0.3066 -2.1961 -0.0068
 1203SOL    MW4 4580   4.127   6.356   6.400  0.1444 -0.4478 -0.7923
 1204SOL     OW 4581   4.235   2.647   5.880  0.2507 -0.7860 -0.1014
 1204SOL    HW2 4582   4.318   2.689   5.902  0.5435 -1.9944  1.2361
 1204SOL    HW3 4583   4.230   2.572   5.939 -1.4345 -1.1789 -0.7022
 1204SOL    MW4 4584   4.245   2.643   5.891  0.0670 -0.9973 -0.0042
 1205SOL     OW 4585   6.334   1.991   2.269  0.2756  0.9442 -0.1085
 1205SOL    HW2 4586   6.324   2.079   2.234  3.9060  2.1740  1.4265
 1205SOL    HW3 4587   6.300   1.997   2.358  1.4894  1.1708  0.3622
 1205SOL    MW4 4588   6.328   2.003   2.276  0.9147  1.1363  0.1561
 1206SOL     OW 4589   4.222   3.299   3.454  0.0072 -0.4682  0.4317
 1206SOL    HW2 4590   4.170   3.361   3.505  0.6313 -0.1454  0.6882
 1206SOL    HW3 4591   4.175   3.216   3.461 -1.7445  0.2906 -1.2571
 1206SOL    MW4 4592   4.209   3.296   3.462 -0.1416 -0.3255  0.2427
 1207SOL     OW 4593   4.214   1.317   5.047  0.2690 -0.3128 -0.1063
 1207SOL    HW2 4594   4.223   1.387   4.983  1.5361 -0.5038 -0.1651
 1207SOL    HW3 4595   4.164   1.356   5.119 -0.6362  0.0855 -0.9255
 1207SOL    MW4 4596   4.208   1.331   5.048  0.3168 -0.2855 -0.2221
 1208SOL     OW 4597   1.269   3.049   2.380 -0.0388 -0.4930  0.2305
 1208SOL    HW2 4598   1.312   3.045   2.466  3.9858  3.5261 -1.2389
 1208SOL    HW3 4599   1.264   2.957   2.352  1.6570 -1.6983  3.2789
 1208SOL    MW4 4600   1.274   3.036   2.388  0.7160 -0.1217  0.4388
 1209SOL     OW 4601   3.515   3.663   0.508  0.1649 -0.4626  0.6287
 1209SOL    HW2 4602   3.558   3.716   0.575 -0.2557 -0.4755  0.9183
 1209SOL    HW3 4603   3.507   3.576   0.547  0.2721 -0.5723  0.4088
 1209SOL    MW4 4604   3.519   3.659   0.522  0.1236 -0.4788  0.6379
 1210SOL     OW 4605   0.563   6.205   1.992  0.1973 -0.5429  0.0479
 1210SOL    HW2 4606   0.487   6.164   1.951 -0.3462  0.6929 -0.2239
 1210SOL    HW3 4607   0.598   6.137   2.050  0.0097 -1.7632 -1.2126
 1210SOL    MW4 4608   0.558   6.190   1.994  0.1009 -0.5409 -0.1543
 1211SOL     OW 4609   1.532   1.048   4.908 -0.2092 -0.6076 -0.1650
 1211SOL    HW2 4610   1.517   1.141   4.891 -0.0959 -0.0986  2.2367
 1211SOL    HW3 4611   1.583   1.018   4.832 -0.6261  1.1607 -1.2011
 1211SOL    MW4 4612   1.537   1.056   4.896 -0.2493 -0.3071  0.0152
 1212SOL     OW 4613   1.628   3.951   3.869 -0.0860 -0.0359  0.1580
 1212SOL    HW2 4614   1.663   3.906   3.793  2.5564  0.4221  1.0050
 1212SOL    HW3 4615   1.604   4.038   3.837 -0.2110 -0.2593 -0.3732
 1212SOL    MW4 4616   1.629   3.957   3.855  0.2461 -0.0050  0.1997
 1213SOL     OW 4617   3.537   5.393   5.976 -0.0241  0.2832  0.1959
 1213SOL    HW2 4618   3.600   5.330   5.940 -0.0368  0.6735 -0.5279
 1213SOL    HW3 4619   3.549   5.387   6.071 -1.6636 -2.5252  0.3330
 1213SOL    MW4 4620   3.547   5.384   5.984 -0.2421 -0.0358  0.1185
 1214SOL     OW 4621   5.500   3.524   2.350  0.3634  0.4154  0.0529
 1214SOL    HW2 4622   5.419   3.509   2.397  0.4568  1.6442  0.6418
 1214SOL    HW3 4623   5.499   3.617   2.327  1.2534  0.2883 -0.6091
 1214SOL    MW4 4624   5.489   3.534   2.353  0.4932  0.5607  0.0433
 1215SOL     OW 4625   5.338   6.151   3.652 -0.4040  0.3165 -0.6220
 1215SOL    HW2 4626   5.351   6.221   3.716 -1.3000  0.6529 -0.7850
 1215SOL    HW3 4627   5.271   6.185   3.593 -0.3651 -0.4176 -1.1036
 1215SOL    MW4 4628   5.331   6.164   3.653 -0.5171  0.2640 -0.7070
 1216SOL     OW 4629   4.765   4.152   2.947  0.2406 -0.2641 -0.2735
 1216SOL    HW2 4630   4.682   4.198   2.930  0.7773  0.4288 -1.0660
 1216SOL    HW3 4631   4.830   4.221   2.954  0.6419 -0.7507  1.1722
 1216SOL    MW4 4632   4.762   4.167   2.946  0.3643 -0.2369 -0.1873
 1217SOL     OW 4633   5.128   0.473   0.405  0.2281 -0.4124  0.0673
 1217SOL    HW2 4634   5.066   0.495   0.335 -0.8537 -0.4776  0.9811
 1217SOL    HW3 4635   5.125   0.377   0.408 -0.0068 -0.3939  0.4404
 1217SOL    MW4 4636   5.119   0.463   0.396  0.0544 -0.4185  0.2371
 1218SOL     OW 4637   5.838   0.074   5.915 -0.1233 -0.0129  0.2281
 1218SOL    HW2 4638   5.837   0.159   5.871  2.2418 -0.2472 -0.4260
 1218SOL    HW3 4639   5.783   0.017   5.860 -0.4798  0.7124 -0.1745
 1218SOL    MW4 4640   5.831   0.077   5.902  0.1417  0.0519  0.0887
 1219SOL     OW 4641   1.234   0.208   0.879  0.2509 -0.3886 -0.7671
 1219SOL    HW2 4642   1.246   0.197   0.784  0.8015  1.1722 -0.9014
 1219SOL    HW3 4643   1.155   0.261   0.887  0.8113  0.4231 -0.4256
 1219SOL    MW4 4644   1.225   0.214   0.867  0.3975 -0.0756 -0.7397
 1220SOL     OW 4645   4.278   2.150   3.931 -0.2005  0.4111 -0.6283
 1220SOL    HW2 4646   4.265   2.156   3.836  0.0528 -0.0820 -0.6984
 1220SOL    HW3 4647   4.343   2.081   3.942  1.0221  1.5739 -0.1987
 1220SOL    MW4 4648   4.285   2.142   3.920 -0.0057  0.4995 -0.5808
 1221SOL     OW 4649   0.742   3.374   3.306 -0.0449 -0.1762  0.2209
 1221SOL    HW2 4650   0.826   3.388   3.348 -0.3117  0.3176  0.6005
 1221SOL    HW3 4651   0.741   3.437   3.233  0.1900 -0.6499 -0.1957
 1221SOL    MW4 4652   0.753   3.384   3.302 -0.0491 -0.1736  0.2160
 1222SOL     OW 4653   4.492   0.917   5.783  0.0973  0.2246 -0.0501
 1222SOL    HW2 4654   4.413   0.906   5.730  0.4146 -0.5192 -0.3849
 1222SOL    HW3 4655   4.481   0.854   5.854  1.2979 -1.3717 -1.2116
 1222SOL    MW4 4656   4.480   0.907   5.785  0.2975 -0.0841 -0.2475
 1223SOL     OW 4657   5.667   2.558   0.151  0.3377 -0.1688 -0.1869
 1223SOL    HW2 4658   5.688   2.613   0.226  1.8970 -2.4430  1.1468
 1223SOL    HW3 4659   5.752   2.539   0.110 -0.1642 -1.4217 -0.7048
 1223SOL    MW4 4660   5.681   2.563   0.155  0.4772 -0.6342 -0.0792
 1224SOL     OW 4661   5.223   1.694   3.963 -0.4780 -0.4737  0.5327
 1224SOL    HW2 4662   5.277   1.622   3.996  1.1646  0.0053 -0.9484
 1224SOL    HW3 4663   5.274   1.773   3.981 -0.7876  0.0235 -0.6445
 1224SOL    MW4 4664   5.237   1.695   3.969 -0.3022 -0.3449  0.1820
 1225SOL     OW 4665   1.039   0.885   4.360 -0.8245  0.0459  0.0801
 1225SOL    HW2 4666   0.955   0.893   4.405 -1.6077 -0.6857 -1.2029
 1225SOL    HW3 4667   1.017   0.882   4.267  0.5391 -1.0883 -0.2442
 1225SOL    MW4 4668   1.025   0.885   4.354 -0.7479 -0.2003 -0.1319
 1226SOL     OW 4669   3.898   5.937   3.790 -0.5275  0.6665 -0.2055
 1226SOL    HW2 4670   3.837   5.867   3.766  0.1296  0.3256 -0.8772
 1226SOL    HW3 4671   3.845   5.995   3.845 -1.5365  0.5041 -0.9660
 1226SOL    MW4 4672   3.883   5.935   3.794 -0.5740  0.6001 -0.3944
 1227SOL     OW 4673   0.960   1.851   2.677 -0.1010  0.2079  0.6017
 1227SOL    HW2 4674   0.997   1.829   2.592 -0.9158  0.7996  0.0754
 1227SOL    HW3 4675   1.031   1.836   2.739  0.7202  0.4190 -0.2634
 1227SOL    MW4 4676   0.974   1.846   2.674 -0.1001  0.3138  0.4181
 1228SOL     OW 4677   0.798   3.640   6.135  0.4888 -0.2975 -0.5113
 1228SOL    HW2 4678   0.784   3.735   6.137 -0.6403 -0.4578  0.7058
 1228SOL    HW3 4679   0.837   3.619   6.220 -0.5310 -1.0747 -0.2155
 1228SOL    MW4 4680   0.801   3.650   6.146  0.2053 -0.4212 -0.3117
 1229SOL     OW 4681   1.840   1.998   2.437  0.0891  0.1033  0.1288
 1229SOL    HW2 4682   1.872   2.065   2.498  1.3886 -1.0990  0.8374
 1229SOL    HW3 4683   1.910   1.989   2.373  1.1731 -2.3108  1.4865
 1229SOL    MW4 4684   1.853   2.006   2.437  0.4036 -0.3738  0.4014
 1230SOL     OW 4685   5.335   6.038   1.332  0.0211 -0.2245  0.0115
 1230SOL    HW2 4686   5.255   6.023   1.382 -0.9218 -0.7172 -1.5817
 1230SOL    HW3 4687   5.404   6.048   1.398 -1.7574  3.1578  1.6000
 1230SOL    MW4 4688   5.334   6.037   1.347 -0.3379  0.1567  0.0109
 1231SOL     OW 4689   4.343   5.810   2.637 -0.6439 -0.4151 -0.7796
 1231SOL    HW2 4690   4.424   5.830   2.684 -1.8622 -0.8436  1.6608
 1231SOL    HW3 4691   4.307   5.896   2.616 -0.9755 -0.1151  0.8209
 1231SOL    MW4 4692   4.349   5.824   2.641 -0.8484 -0.4320 -0.2465
 1232SOL     OW 4693   6.022   4.172   4.907  0.3510  0.0068  0.2096
 1232SOL    HW2 4694   6.074   4.251   4.918 -1.0120  0.9340  0.3012
 1232SOL    HW3 4695   6.086   4.101   4.901  1.5677  0.8967  1.8760
 1232SOL    MW4 4696   6.037   4.173   4.908  0.3317  0.2465  0.4415
 1233SOL     OW 4697   2.569   6.210   5.918 -0.1237  0.7310 -0.1010
 1233SOL    HW2 4698   2.599   6.162   5.995 -1.4861  0.9704  0.6178
 1233SOL    HW3 4699   2.592   6.301   5.935 -0.5857  0.8110  0.1264
 1233SOL    MW4 4700   2.576   6.216   5.930 -0.3644  0.7731  0.0238
 1234SOL     OW 4701   5.816   1.777   4.355 -0.8536 -0.4232 -0.3820
 1234SOL    HW2 4702   5.721   1.766   4.365 -0.6073 -2.0522  0.3609
 1234SOL    HW3 4703   5.849   1.781   4.445 -0.4251  2.6106 -0.5671
 1234SOL    MW4 4704   5.808   1.776   4.368 -0.7645 -0.2378 -0.3084
 1235SOL     OW 4705   0.851   1.493   3.238 -0.0084 -0.6009 -0.1917
 1235SOL    HW2 4706   0.904   1.424   3.277  1.5152 -0.5165 -2.0144
 1235SOL    HW3 4707   0.895   1.575   3.262 -0.4779 -0.3929 -0.0162
 1235SOL    MW4 4708   0.863   1.495   3.246  0.1307 -0.5623 -0.4090
 1236SOL     OW 4709   5.033   4.104   1.530 -0.6487  0.0204  0.3074
 1236SOL    HW2 4710   5.048   4.065   1.616 -0.2999 -1.7366 -0.5059
 1236SOL    HW3 4711   4.941   4.086   1.512 -0.6896  0.2827  0.2478
 1236SOL    MW4 4712   5.023   4.097   1.539 -0.6081 -0.1768  0.1923
 1237SOL     OW 4713   0.211   2.694   4.829  0.3446 -0.3333  0.2690
 1237SOL    HW2 4714   0.278   2.635   4.865  0.4046 -2.1436 -2.5212
 1237SOL    HW3 4715   0.141   2.636   4.799 -0.2183  1.1114 -1.3868
 1237SOL    MW4 4716   0.211   2.679   4.830  0.2782 -0.3815 -0.3176
 1238SOL     OW 4717   4.189   5.394   2.086 -0.0818 -0.5730 -0.2048
 1238SOL    HW2 4718   4.157   5.469   2.137 -2.0295 -2.5784  1.7594
 1238SOL    HW3 4719   4.120   5.378   2.022  1.2962  0.4940 -2.0648
 1238SOL    MW4 4720   4.176   5.402   2.084 -0.1570 -0.6968 -0.1910
 1239SOL     OW 4721   2.016   5.570   0.188 -0.6977  0.0960 -0.8039
 1239SOL    HW2 4722   1.941   5.512   0.199  0.5827 -1.2816  1.4542
 1239SOL    HW3 4723   2.059   5.538   0.109 -2.0854  0.4916 -1.7590
 1239SOL    MW4 4724   2.012   5.558   0.179 -0.7119 -0.0336 -0.6320
 1240SOL     OW 4725   1.570   1.450   5.158  0.1029  0.7669 -0.1063
 1240SOL    HW2 4726   1.486   1.492   5.140  0.1044  0.9684  0.3426
 1240SOL    HW3 4727   1.627   1.480   5.088 -0.3641  0.1382 -0.7619
 1240SOL    MW4 4728   1.567   1.460   5.147  0.0415  0.7106 -0.1336
 1241SOL     OW 4729   3.913   3.280   1.876  0.0553  0.0834  0.6011
 1241SOL    HW2 4730   3.984   3.328   1.919 -0.3441  0.4429  0.8751
 1241SOL    HW3 4731   3.905   3.199   1.926  0.6010 -0.1899  0.2600
 1241SOL    MW4 4732   3.922   3.276   1.888  0.0746  0.0948  0.5923
 1242SOL     OW 4733   5.616   2.071   2.612  0.1493 -0.4707 -0.1610
 1242SOL    HW2 4734   5.602   2.165   2.596  1.0012 -0.5055 -1.2045
 1242SOL    HW3 4735   5.541   2.028   2.571  1.4936 -0.4478 -2.8184
 1242SOL    MW4 4736   5.604   2.078   2.605  0.4390 -0.4723 -0.6493
 1243SOL     OW 4737   2.459   6.083   4.054 -0.4209 -0.0507  0.5157
 1243SOL    HW2 4738   2.514   6.137   4.111 -0.9298 -0.6111  1.5630
 1243SOL    HW3 4739   2.373   6.084   4.096 -1.1685  0.5714 -0.9427
 1243SOL    MW4 4740   2.455   6.090   4.067 -0.5867 -0.0426  0.4615
 1244SOL     OW 4741   4.443   2.164   5.043 -0.3335 -0.2309  0.0447
 1244SOL    HW2 4742   4.500   2.125   4.976  1.0726 -1.9866  2.1447
 1244SOL    HW3 4743   4.370   2.202   4.993  1.4421  0.0135 -2.5833
 1244SOL    MW4 4744   4.441   2.164   5.027  0.0863 -0.4303 -0.0250
 1245SOL     OW 4745   0.286   0.649   4.802 -0.1611 -0.0294 -0.1214
 1245SOL    HW2 4746   0.345   0.600   4.744  1.5342  0.6654  0.9229
 1245SOL    HW3 4747   0.211   0.590   4.815  0.4396 -1.1007 -1.2320
 1245SOL    MW4 4748   0.284   0.634   4.796  0.1418 -0.0791 -0.1301
 1246SOL     OW 4749   2.496   3.619   3.329  0.0436  0.3145 -0.3237
 1246SOL    HW2 4750   2.590   3.614   3.313 -0.0158  1.4322 -1.1862
 1246SOL    HW3 4751   2.488   3.653   3.418  0.4647  0.4041 -0.3210
 1246SOL    MW4 4752   2.507   3.623   3.339  0.0914  0.4738 -0.4371
 1247SOL     OW 4753   5.881   3.757   2.395 -0.1906 -0.3061 -0.1482
 1247SOL    HW2 4754   5.971   3.781   2.414 -0.1760 -1.5483  1.5724
 1247SOL    HW3 4755   5.886   3.705   2.314  0.5064  0.3567 -0.5363
 1247SOL    MW4 4756   5.893   3.753   2.387 -0.0967 -0.3825  0.0276
 1248SOL     OW 4757   1.086   5.624   2.808 -0.4404  0.2332 -0.5557
 1248SOL    HW2 4758   1.157   5.679   2.843  0.2233 -1.5063  0.9902
 1248SOL    HW3 4759   1.099   5.539   2.850 -2.9226 -0.4083 -0.9500
 1248SOL    MW4 4760   1.097   5.620   2.818 -0.6803 -0.0809 -0.4038
 1249SOL     OW 4761   5.918   0.311   5.302  0.2267 -0.5166 -0.4901
 1249SOL    HW2 4762   6.002   0.315   5.256  0.8447  0.7056  0.6771
 1249SOL    HW3 4763   5.942   0.293   5.393 -0.8068 -0.4660 -0.2060
 1249SOL    MW4 4764   5.933   0.309   5.308  0.1719 -0.3486 -0.2986
 1250SOL     OW 4765   1.153   3.468   1.891  0.0870  0.3563  0.0062
 1250SOL    HW2 4766   1.207   3.416   1.832 -1.8237 -0.0953 -1.4586
 1250SOL    HW3 4767   1.182   3.558   1.877  2.7674 -0.1107  1.8526
 1250SOL    MW4 4768   1.164   3.473   1.881  0.1885  0.2351  0.0566
 1251SOL     OW 4769   2.865   5.992   0.036 -0.3619  0.0898 -0.3170
 1251SOL    HW2 4770   2.872   6.086   0.052 -1.6792  0.4049 -1.4024
 1251SOL    HW3 4771   2.884   5.951   0.120  0.5981  1.3121  0.0692
 1251SOL    MW4 4772   2.868   5.999   0.049 -0.4091  0.2926 -0.4092
 1252SOL     OW 4773   3.621   5.597   3.957  0.1903  0.7160 -0.3986
 1252SOL    HW2 4774   3.566   5.592   4.036  0.5339  0.2701 -0.1816
 1252SOL    HW3 4775   3.593   5.522   3.904 -0.3765  1.2874 -0.9312
 1252SOL    MW4 4776   3.610   5.586   3.960  0.1609  0.7325 -0.4402
 1253SOL     OW 4777   0.406   2.867   4.805 -0.5640  0.2894 -0.3525
 1253SOL    HW2 4778   0.423   2.886   4.713  0.3442  0.5909 -0.1357
 1253SOL    HW3 4779   0.326   2.814   4.805 -0.2261 -0.2348 -1.3605
 1253SOL    MW4 4780   0.398   2.862   4.793 -0.3996  0.2601 -0.4569
 1254SOL     OW 4781   6.314   6.325   5.493 -0.3870 -0.5801 -0.1289
 1254SOL    HW2 4782   6.324   6.272   5.414 -0.7897  0.0164 -0.5936
 1254SOL    HW3 4783   6.226   6.363   5.486 -1.4837 -2.5333  1.8784
 1254SOL    MW4 4784   6.304   6.323   5.482 -0.5848 -0.7591  0.0747
 1255SOL     OW 4785   2.985   0.917   2.445 -0.4080 -0.1207  0.0324
 1255SOL    HW2 4786   3.034   0.996   2.466 -1.0799  0.3686 -0.2307
 1255SOL    HW3 4787   2.989   0.865   2.526  1.2492 -0.4730 -0.2529
 1255SOL    MW4 4788   2.992   0.920   2.459 -0.2780 -0.1026 -0.0399
 1256SOL     OW 4789   5.917   5.434   4.470 -0.0910 -0.0970  0.0739
 1256SOL    HW2 4790   5.919   5.342   4.497  1.7621 -0.1587 -0.1773
 1256SOL    HW3 4791   5.864   5.433   4.390 -0.2762 -0.9151  0.1939
 1256SOL    MW4 4792   5.910   5.422   4.463  0.1291 -0.2131  0.0566
 1257SOL     OW 4793   5.440   5.023   2.923  0.5868 -0.6276 -0.2548
 1257SOL    HW2 4794   5.403   5.009   3.010  1.1666 -3.0629 -0.3380
 1257SOL    HW3 4795   5.532   4.997   2.930  0.7411 -0.5325 -1.5175
 1257SOL    MW4 4796   5.447   5.018   2.935  0.6837 -0.9363 -0.4324
 1258SOL     OW 4797   3.076   2.033   4.308  0.8661 -0.5980  0.0862
 1258SOL    HW2 4798   3.102   2.092   4.237  1.8625 -0.0000  0.9209
 1258SOL    HW3 4799   3.140   1.962   4.304  0.2369 -1.1552 -0.3170
 1258SOL    MW4 4800   3.088   2.032   4.298  0.9145 -0.5926  0.1431
 1259SOL     OW 4801   0.555   4.285   3.847 -0.0213 -0.0039  0.2386
 1259SOL    HW2 4802   0.644   4.319   3.843 -0.3307  0.8928  0.6430
 1259SOL    HW3 4803   0.527   4.302   3.937  0.1463 -2.2544  0.7849
 1259SOL    MW4 4804   0.563   4.292   3.859 -0.0400 -0.1825  0.3640
 1260SOL     OW 4805   2.616   1.361   1.876  0.4838 -0.0405 -0.2878
 1260SOL    HW2 4806   2.706   1.385   1.852 -0.0456  1.6778 -0.7110
 1260SOL    HW3 4807   2.614   1.372   1.972  1.2977 -2.2758  0.0361
 1260SOL    MW4 4808   2.628   1.366   1.886  0.5213 -0.1087 -0.3009
 1261SOL     OW 4809   4.858   3.287   0.719  0.0568  0.2237  0.2968
 1261SOL    HW2 4810   4.931   3.237   0.756  0.7938  0.8834 -0.2424
 1261SOL    HW3 4811   4.874   3.287   0.625 -0.4168  0.7268  0.2117
 1261SOL    MW4 4812   4.870   3.280   0.712  0.0916  0.3771  0.2144
 1262SOL     OW 4813   5.215   4.009   3.318  0.0919  0.0888  0.6471
 1262SOL    HW2 4814   5.296   4.040   3.276  1.3718 -1.4542  1.8208
 1262SOL    HW3 4815   5.245   3.972   3.401 -2.0002  0.5197  1.6345
 1262SOL    MW4 4816   5.230   4.008   3.323 -0.0153 -0.0579  0.9323
 1263SOL     OW 4817   4.280   1.301   3.253 -0.3911  0.0033 -0.0700
 1263SOL    HW2 4818   4.370   1.334   3.248 -0.0977 -0.3862  1.8266
 1263SOL    HW3 4819   4.282   1.237   3.325 -1.9233 -0.8987 -0.7830
 1263SOL    MW4 4820   4.292   1.297   3.262 -0.5546 -0.1671  0.0862
 1264SOL     OW 4821   2.916   2.309   1.247 -0.0441 -0.3237 -0.0835
 1264SOL    HW2 4822   2.997   2.359   1.258 -1.4354  2.1523 -0.3577
 1264SOL    HW3 4823   2.926   2.264   1.163  0.9093  0.1788 -0.2508
 1264SOL    MW4 4824   2.928   2.310   1.237 -0.1019  0.0693 -0.1418
 1265SOL     OW 4825   4.163   2.279   1.522 -0.4600 -0.0191  0.4646
 1265SOL    HW2 4826   4.185   2.193   1.559  0.5706  0.3591  0.7818
 1265SOL    HW3 4827   4.206   2.281   1.437 -0.7289  0.0732  0.3281
 1265SOL    MW4 4828   4.172   2.268   1.516 -0.3595  0.0429  0.4885
 1266SOL     OW 4829   0.822   0.393   1.118  0.4055 -0.1239  0.4859
 1266SOL    HW2 4830   0.804   0.311   1.164  1.5475 -1.2684 -1.0077
 1266SOL    HW3 4831   0.899   0.429   1.163 -1.6731  1.6875  2.9616
 1266SOL    MW4 4832   0.830   0.387   1.130  0.2819 -0.0359  0.6154
 1267SOL     OW 4833   4.701   5.957   5.022 -0.0824  0.2137  0.4007
 1267SOL    HW2 4834   4.658   5.933   4.939  3.9002 -0.3621 -1.7680
 1267SOL    HW3 4835   4.719   5.873   5.064 -0.5691  0.4254  1.0492
 1267SOL    MW4 4836   4.698   5.943   5.016  0.3789  0.1657  0.2001
 1268SOL     OW 4837   0.234   2.677   4.127  0.3128 -0.4425 -0.1709
 1268SOL    HW2 4838   0.324   2.695   4.100  0.7446  0.3769  1.6255
 1268SOL    HW3 4839   0.182   2.742   4.081  0.7747 -0.2850 -0.4787
 1268SOL    MW4 4840   0.239   2.688   4.118  0.4307 -0.3136  0.0255
 1269SOL     OW 4841   5.175   1.330   6.401 -0.1820  0.1635 -0.7039
 1269SOL    HW2 4842   5.193   1.380   6.481 -1.0831 -0.8217  0.1487
 1269SOL    HW3 4843   5.239   1.259   6.402 -2.3014 -1.9074  1.0531
 1269SOL    MW4 4844   5.186   1.327   6.412 -0.5805 -0.2397 -0.3596
 1270SOL     OW 4845   3.532   4.508   4.305 -0.3508  0.0651 -0.4349
 1270SOL    HW2 4846   3.556   4.524   4.396 -1.4185  0.2499 -0.1664
 1270SOL    HW3 4847   3.532   4.413   4.297  0.9691  0.0663 -0.6020
 1270SOL    MW4 4848   3.535   4.497   4.316 -0.3175  0.0896 -0.4215
 1271SOL     OW 4849   0.329   5.080   4.225 -0.3256  0.1926  0.0307
 1271SOL    HW2 4850   0.274   5.028   4.282  0.3316 -1.1613 -0.5327
 1271SOL    HW3 4851   0.383   5.132   4.285 -1.0348  0.2829  0.5996
 1271SOL    MW4 4852   0.329   5.080   4.240 -0.3324  0.0259  0.0314
 1272SOL     OW 4853   4.174   3.114   5.262 -0.1451  0.2533  0.1034
 1272SOL    HW2 4854   4.080   3.105   5.270 -0.5308  1.8736 -1.7505
 1272SOL    HW3 4855   4.200   3.047   5.198  0.2602 -1.1804  1.6781
 1272SOL    MW4 4856   4.165   3.104   5.254 -0.1425  0.2779  0.0665
 1273SOL     OW 4857   0.656   6.083   4.937 -0.2438 -0.0591  0.3015
 1273SOL    HW2 4858   0.713   6.149   4.977  1.5937 -0.7181 -1.1043
 1273SOL    HW3 4859   0.628   6.122   4.854 -1.3331 -0.0304  0.6556
 1273SOL    MW4 4860   0.660   6.097   4.931 -0.1451 -0.1423  0.1628
 1274SOL     OW 4861   1.206   1.459   0.324 -0.2042  0.1155  0.1951
 1274SOL    HW2 4862   1.159   1.528   0.278 -0.6463 -0.1512  0.2422
 1274SOL    HW3 4863   1.138   1.397   0.350  0.4926 -2.7579 -3.8382
 1274SOL    MW4 4864   1.191   1.460   0.321 -0.1706 -0.2988 -0.3308
 1275SOL     OW 4865   4.786   3.548   6.052 -0.0824 -0.0597 -0.1047
 1275SOL    HW2 4866   4.879   3.562   6.070 -0.1777  0.8933 -0.3001
 1275SOL    HW3 4867   4.755   3.496   6.127  0.4708  0.1670  0.2899
 1275SOL    MW4 4868   4.794   3.543   6.065 -0.0220  0.0959 -0.0784
 1276SOL     OW 4869   3.805   4.806   5.270 -0.2556 -0.1249  0.0112
 1276SOL    HW2 4870   3.711   4.792   5.279 -0.1906 -1.4951 -1.0544
 1276SOL    HW3 4871   3.842   4.774   5.352 -0.6630 -0.1929  0.1700
 1276SOL    MW4 4872   3.798   4.800   5.282 -0.3008 -0.3147 -0.1085
 1277SOL     OW 4873   3.943   2.741   0.935 -0.0472  0.5182 -0.5883
 1277SOL    HW2 4874   3.956   2.701   1.021  1.5226 -0.0274 -1.0358
 1277SOL    HW3 4875   3.998   2.820   0.937  0.4533  0.2026 -1.2585
 1277SOL    MW4 4876   3.952   2.746   0.947  0.2259  0.4046 -0.7357
 1278SOL     OW 4877   5.473   5.171   1.004 -0.1795  0.2345  0.3099
 1278SOL    HW2 4878   5.510   5.258   1.020 -2.0825  1.4056 -1.2026
 1278SOL    HW3 4879   5.405   5.162   1.071  1.4953 -1.1604  1.9505
 1278SOL    MW4 4880   5.469   5.181   1.015 -0.2096  0.2050  0.3268
 1279SOL     OW 4881   2.959   4.782   3.932  0.1220 -0.2397  0.4140
 1279SOL    HW2 4882   3.040   4.817   3.894 -1.9303  0.8549 -3.5470
 1279SOL    HW3 4883   2.958   4.690   3.906  0.0691 -0.2365  0.4040
 1279SOL    MW4 4884   2.969   4.774   3.924 -0.1558 -0.0948 -0.1099
 1280SOL     OW 4885   2.408   0.438   1.949 -0.1315 -0.4583 -0.4225
 1280SOL    HW2 4886   2.357   0.453   2.028 -0.7205 -0.2141 -0.8458
 1280SOL    HW3 4887   2.343   0.422   1.881  0.3461 -4.0090 -0.2429
 1280SOL    MW4 4888   2.393   0.438   1.951 -0.1462 -0.8945 -0.4547
 1281SOL     OW 4889   4.518   4.189   3.776  0.2922  0.7848  0.3305
 1281SOL    HW2 4890   4.502   4.269   3.725 -0.7768  0.3358 -0.0740
 1281SOL    HW3 4891   4.436   4.140   3.769  1.8944 -1.8441 -2.1021
 1281SOL    MW4 4892   4.505   4.193   3.768  0.3625  0.3787 -0.0438
 1282SOL     OW 4893   5.051   5.884   5.418 -0.3056  0.0790  0.4466
 1282SOL    HW2 4894   5.069   5.974   5.390 -0.1347  0.2816  1.1801
 1282SOL    HW3 4895   5.133   5.838   5.405 -0.7723 -0.3481 -1.2776
 1282SOL    MW4 4896   5.064   5.890   5.413 -0.3446  0.0493  0.3159
 1283SOL     OW 4897   4.896   3.417   0.211 -0.1421 -0.0367 -0.2235
 1283SOL    HW2 4898   4.923   3.357   0.142  1.9643  0.9736 -0.3529
 1283SOL    HW3 4899   4.876   3.498   0.166 -1.0798 -0.0606  0.1368
 1283SOL    MW4 4900   4.897   3.419   0.196  0.0121  0.0935 -0.1930
 1284SOL     OW 4901   5.146   2.845   0.181  0.2599 -0.0275  0.2281
 1284SOL    HW2 4902   5.154   2.935   0.149  2.1585  0.8742  2.9047
 1284SOL    HW3 4903   5.230   2.805   0.159 -1.2131 -1.9283 -2.6727
 1284SOL    MW4 4904   5.158   2.851   0.174  0.3160 -0.1593  0.1986
 1285SOL     OW 4905   3.003   1.427   6.249  0.9502  0.1514  0.0815
 1285SOL    HW2 4906   2.993   1.382   6.333  1.4336  1.8885  1.1153
 1285SOL    HW3 4907   3.095   1.453   6.246  0.7155  0.9484 -0.5357
 1285SOL    MW4 4908   3.013   1.424   6.259  0.9830  0.4857  0.1364
 1286SOL     OW 4909   2.835   3.089   1.218 -0.3537 -0.0772  0.1024
 1286SOL    HW2 4910   2.768   3.148   1.183 -0.9938 -0.8333  0.0316
 1286SOL    HW3 4911   2.787   3.010   1.243  0.4430 -0.4430  0.5086
 1286SOL    MW4 4912   2.820   3.087   1.217 -0.3331 -0.2252  0.1466
 1287SOL     OW 4913   4.141   3.685   4.113  0.0673  0.5519  0.5911
 1287SOL    HW2 4914   4.222   3.693   4.162  0.5698 -0.7109 -0.0099
 1287SOL    HW3 4915   4.109   3.775   4.106  2.8191  1.5138 -1.5273
 1287SOL    MW4 4916   4.147   3.698   4.118  0.4966  0.5122  0.2323
 1288SOL     OW 4917   3.194   4.944   3.816 -0.3433 -0.0145  0.1547
 1288SOL    HW2 4918   3.160   4.923   3.729  2.0068 -0.5746 -0.7011
 1288SOL    HW3 4919   3.206   5.039   3.814 -1.4230  0.1439  0.3431
 1288SOL    MW4 4920   3.191   4.954   3.804 -0.1757 -0.0675  0.0667
 1289SOL     OW 4921   3.401   5.793   1.971 -0.1494  0.1679  0.8208
 1289SOL    HW2 4922   3.396   5.743   1.889 -1.0163 -0.6895  1.3717
 1289SOL    HW3 4923   3.412   5.884   1.943 -2.2074  0.1190 -0.3209
 1289SOL    MW4 4924   3.402   5.799   1.956 -0.5353  0.0483  0.7429
 1290SOL     OW 4925   6.342   1.973   3.945 -0.4224 -0.2511 -0.3176
 1290SOL    HW2 4926   6.260   1.961   3.992  0.5778  1.6586  2.1139
 1290SOL    HW3 4927   6.342   2.065   3.919  1.3263  0.0797  0.6525
 1290SOL    MW4 4928   6.331   1.984   3.948 -0.0597  0.0445  0.1312
 1291SOL     OW 4929   5.457   0.578   3.981  0.3923 -0.2127  0.5240
 1291SOL    HW2 4930   5.450   0.668   3.948 -0.1085 -0.4130  0.0811
 1291SOL    HW3 4931   5.412   0.580   4.066 -2.2417 -0.6871 -0.7568
 1291SOL    MW4 4932   5.450   0.590   3.988 -0.0213 -0.3017  0.2966
 1292SOL     OW 4933   2.940   4.695   6.070  0.4209  0.4065 -0.2693
 1292SOL    HW2 4934   2.997   4.707   6.146 -0.4100 -1.2404  0.6912
 1292SOL    HW3 4935   2.974   4.618   6.026 -0.8086 -0.4150  0.1408
 1292SOL    MW4 4936   2.952   4.687   6.074  0.1491  0.0809 -0.0884
 1293SOL     OW 4937   0.271   4.594   3.504 -0.4137 -1.1452  0.2629
 1293SOL    HW2 4938   0.230   4.642   3.576  0.0734 -1.6589  0.8857
 1293SOL    HW3 4939   0.347   4.551   3.543  1.5327  0.8200 -1.1275
 1293SOL    MW4 4940   0.276   4.594   3.518 -0.0926 -0.9537  0.1616
 1294SOL     OW 4941   4.100   3.353   5.820  0.0565  0.1417 -0.1594
 1294SOL    HW2 4942   4.187   3.365   5.858  0.1066 -0.8280  0.0492
 1294SOL    HW3 4943   4.107   3.392   5.733 -0.3291  3.3048  1.0565
 1294SOL    MW4 4944   4.112   3.360   5.814  0.0122  0.4311  0.0286
 1295SOL     OW 4945   1.386   3.498   5.970 -0.4354  0.1800  0.2432
 1295SOL    HW2 4946   1.395   3.571   5.909 -0.0918  0.4714  0.6441
 1295SOL    HW3 4947   1.301   3.512   6.013 -1.0546 -0.4499 -0.7153
 1295SOL    MW4 4948   1.376   3.509   5.967 -0.4718  0.1354  0.1696
 1296SOL     OW 4949   2.718   5.652   3.804 -0.0087  0.1771 -0.2181
 1296SOL    HW2 4950   2.728   5.744   3.778 -1.8837  0.9010  1.3535
 1296SOL    HW3 4951   2.626   5.632   3.785 -0.0678 -0.8369  1.0030
 1296SOL    MW4 4952   2.707   5.661   3.798 -0.2638  0.1388  0.1504
 1297SOL     OW 4953   0.375   0.528   1.143 -0.2121  0.2773  0.0757
 1297SOL    HW2 4954   0.359   0.578   1.223 -0.7805 -1.1247  0.8685
 1297SOL    HW3 4955   0.470   0.533   1.131 -0.3097  2.0352 -0.2262
 1297SOL    MW4 4956   0.386   0.535   1.152 -0.3000  0.3242  0.1405
 1298SOL     OW 4957   3.705   3.607   4.961 -0.3986 -0.2572  0.1760
 1298SOL    HW2 4958   3.760   3.536   4.993  0.5853  0.9963  1.3715
 1298SOL    HW3 4959   3.648   3.628   5.034 -0.6902  0.1803 -0.1717
 1298SOL    MW4 4960   3.705   3.600   4.975 -0.3072 -0.0341  0.2879
 1299SOL     OW 4961   1.811   5.296   4.226 -0.2414  1.1772  0.4174
 1299SOL    HW2 4962   1.747   5.368   4.229  0.0714  1.4591  0.4029
 1299SOL    HW3 4963   1.826   5.282   4.133 -0.9181  0.5352  0.3965
 1299SOL    MW4 4964   1.804   5.304   4.214 -0.2894  1.1297  0.4127
 1300SOL     OW 4965   1.525   5.813   3.109  0.2930 -0.2726 -0.3169
 1300SOL    HW2 4966   1.442   5.796   3.064  0.9747 -3.2082 -0.6738
 1300SOL    HW3 4967   1.501   5.820   3.202 -0.5478  1.0603 -0.6067
 1300SOL    MW4 4968   1.511   5.812   3.115  0.2720 -0.4841 -0.4022
 1301SOL     OW 4969   0.765   0.970   2.134  0.1384  0.0784  0.6255
 1301SOL    HW2 4970   0.792   0.898   2.191  0.3690  0.2999  0.8032
 1301SOL    HW3 4971   0.687   1.006   2.176 -0.2261 -0.3326  0.3083
 1301SOL    MW4 4972   0.759   0.965   2.147  0.1207  0.0534  0.6071
 1302SOL     OW 4973   5.586   0.213   1.592 -0.7215  0.2071  0.1438
 1302SOL    HW2 4974   5.524   0.244   1.658 -2.0248  0.0617 -0.9753
 1302SOL    HW3 4975   5.595   0.287   1.531  1.1655  0.6729  0.9046
 1302SOL    MW4 4976   5.579   0.227   1.593 -0.6445  0.2494  0.0965
 1303SOL     OW 4977   3.176   2.718   6.286 -0.1863  0.1253 -0.4468
 1303SOL    HW2 4978   3.141   2.759   6.366 -0.8042 -1.1105 -0.0528
 1303SOL    HW3 4979   3.127   2.636   6.278  0.8595 -0.4408 -1.3295
 1303SOL    MW4 4980   3.165   2.712   6.296 -0.1298 -0.1124 -0.5113
 1304SOL     OW 4981   0.773   2.610   4.406 -0.4715 -0.1133 -0.1018
 1304SOL    HW2 4982   0.678   2.608   4.398 -0.6848 -1.3620  2.0873
 1304SOL    HW3 4983   0.789   2.644   4.494  1.0436 -1.5476  0.2182
 1304SOL    MW4 4984   0.763   2.614   4.417 -0.2997 -0.4673  0.2292
 1305SOL     OW 4985   3.499   0.549   4.063  0.2099  0.2944 -0.0219
 1305SOL    HW2 4986   3.518   0.633   4.021  1.5046 -0.0513 -0.1630
 1305SOL    HW3 4987   3.583   0.520   4.098  0.4224 -2.1773 -2.2561
 1305SOL    MW4 4988   3.512   0.556   4.062  0.4088 -0.0773 -0.3353
 1306SOL     OW 4989   3.991   5.486   5.602  0.1652  0.7130  0.7077
 1306SOL    HW2 4990   4.019   5.440   5.681 -0.3848 -0.8435  0.0247
 1306SOL    HW3 4991   4.073   5.512   5.560  0.7150 -2.5501 -0.5408
 1306SOL    MW4 4992   4.005   5.483   5.607  0.1652  0.0771  0.4528
 1307SOL     OW 4993   3.796   3.835   3.392  0.0399 -0.5455  0.0219
 1307SOL    HW2 4994   3.720   3.880   3.428 -0.2708 -1.4686  0.5715
 1307SOL    HW3 4995   3.767   3.804   3.307 -0.6214 -1.8869  0.6967
 1307SOL    MW4 4996   3.782   3.837   3.386 -0.0883 -0.8442  0.1835
 1308SOL     OW 4997   4.561   3.015   2.242 -0.5798  0.0669 -0.0985
 1308SOL    HW2 4998   4.653   3.038   2.258 -0.9576  0.4788  1.8153
 1308SOL    HW3 4999   4.517   3.036   2.325 -2.1824 -1.2920 -0.5469
 1308SOL    MW4 5000   4.567   3.021   2.255 -0.8411 -0.0581  0.0949
 1309SOL     OW 5001   3.263   5.205   5.468  0.0019  0.1116 -0.4376
 1309SOL    HW2 5002   3.218   5.274   5.516  0.1088  1.1333 -1.7502
 1309SOL    HW3 5003   3.356   5.222   5.483  0.0212 -0.7991  0.6288
 1309SOL    MW4 5004   3.269   5.216   5.476  0.0185  0.1262 -0.4701
 1310SOL     OW 5005   2.811   1.446   3.758  0.1424  0.1735  0.5780
 1310SOL    HW2 5006   2.854   1.497   3.690 -1.9357 -0.7346 -1.5788
 1310SOL    HW3 5007   2.875   1.380   3.783  0.6247 -0.1518 -1.3588
 1310SOL    MW4 5008   2.825   1.444   3.752 -0.0682  0.0108  0.0379
 1311SOL     OW 5009   1.720   6.209   1.756  0.0518  0.7408 -0.6681
 1311SOL    HW2 5010   1.625   6.206   1.754 -0.0442  1.0312  1.5452
 1311SOL    HW3 5011   1.742   6.297   1.787  0.8908 -0.2234  1.7548
 1311SOL    MW4 5012   1.711   6.220   1.760  0.1499  0.6519 -0.0564
 1312SOL     OW 5013   3.229   4.044   5.098 -0.3158  0.4040  0.2529
 1312SOL    HW2 5014   3.158   3.992   5.061  1.0946 -0.4151 -1.4694
 1312SOL    HW3 5015   3.206   4.135   5.078 -1.0540  0.1809  0.0708
 1312SOL    MW4 5016   3.217   4.049   5.090 -0.2271  0.2665  0.0016
 1313SOL     OW 5017   1.901   1.597   5.552 -0.4390 -0.1919 -0.2084
 1313SOL    HW2 5018   1.823   1.572   5.503  0.7554  0.2369 -2.4719
 1313SOL    HW3 5019   1.974   1.565   5.500  0.9655  1.6219  0.5089
 1313SOL    MW4 5020   1.900   1.590   5.539 -0.0961  0.1040 -0.4124
 1314SOL     OW 5021   2.156   5.530   4.483  0.2422  0.0932  0.1232
 1314SOL    HW2 5022   2.145   5.555   4.391 -1.9455 -1.5136 -0.1347
 1314SOL    HW3 5023   2.161   5.613   4.531 -1.6124  0.9989 -1.1490
 1314SOL    MW4 5024   2.155   5.544   4.477 -0.2912  0.0007 -0.0787
 1315SOL     OW 5025   5.207   3.303   0.635  0.0494  0.3384  0.1213
 1315SOL    HW2 5026   5.165   3.350   0.563 -0.5342  1.6805  1.3023
 1315SOL    HW3 5027   5.299   3.298   0.609 -0.6871 -2.6732 -2.5176
 1315SOL    MW4 5028   5.214   3.308   0.622 -0.1248  0.1181 -0.0711
 1316SOL     OW 5029   2.524   0.057   5.853  0.1298 -0.0323 -0.0634
 1316SOL    HW2 5030   2.438   0.016   5.853 -1.0906  2.3322  0.2592
 1316SOL    HW3 5031   2.552   0.055   5.762 -0.7179  0.0478 -0.3334
 1316SOL    MW4 5032   2.516   0.051   5.841 -0.1431  0.2903 -0.0564
 1317SOL     OW 5033   5.837   1.740   2.273  0.0178  0.2070  0.1260
 1317SOL    HW2 5034   5.770   1.766   2.209 -0.7020  0.0511  0.7957
 1317SOL    HW3 5035   5.788   1.697   2.343  0.7758  0.4506  0.8262
 1317SOL    MW4 5036   5.822   1.738   2.274  0.0229  0.2186  0.3067
 1318SOL     OW 5037   4.318   0.938   0.340  0.2791 -0.2358 -0.3878
 1318SOL    HW2 5038   4.358   0.906   0.259 -1.9982 -1.4699 -1.1262
 1318SOL    HW3 5039   4.344   0.874   0.407 -0.7964 -1.3252 -0.9679
 1318SOL    MW4 5040   4.327   0.925   0.338 -0.1633 -0.5424 -0.5617
 1319SOL     OW 5041   2.961   1.750   5.479  0.3507 -0.1711  0.1887
 1319SOL    HW2 5042   2.977   1.713   5.566  0.7648 -1.3043 -0.3457
 1319SOL    HW3 5043   2.968   1.675   5.420  1.3127  0.7710 -0.9562
 1319SOL    MW4 5044   2.964   1.735   5.483  0.5323 -0.1963 -0.0329
 1320SOL     OW 5045   3.823   3.098   0.470 -0.5762  0.4998  0.1723
 1320SOL    HW2 5046   3.820   3.187   0.505 -0.7471  0.8832 -0.8042
 1320SOL    HW3 5047   3.915   3.074   0.472 -0.5039  0.7801  0.2253
 1320SOL    MW4 5048   3.834   3.107   0.475 -0.5892  0.5873  0.0505
 1321SOL     OW 5049   6.388   0.151   5.852  0.2936 -0.1632  0.4701
 1321SOL    HW2 5050   6.407   0.135   5.760 -1.3127  3.7591 -0.7230
 1321SOL    HW3 5051   6.296   0.126   5.862  0.6988 -1.4499  1.3567
 1321SOL    MW4 5052   6.379   0.145   5.841  0.1352  0.1845  0.4297
 1322SOL     OW 5053   4.637   6.263   4.272  0.3190 -0.0790  0.7471
 1322SOL    HW2 5054   4.613   6.199   4.204  0.6036 -0.5817  1.1126
 1322SOL    HW3 5055   4.725   6.292   4.248  0.6516 -0.6858  1.2104
 1322SOL    MW4 5056   4.645   6.258   4.260  0.4004 -0.2254  0.8564
 1323SOL     OW 5057   5.076   0.918   1.698 -0.0989  0.2429 -0.3514
 1323SOL    HW2 5058   4.995   0.963   1.719  0.0506  0.0721  0.6187
 1323SOL    HW3 5059   5.054   0.825   1.704 -0.3150  0.1589 -1.9916
 1323SOL    MW4 5060   5.063   0.911   1.701 -0.1077  0.2093 -0.4398
 1324SOL     OW 5061   4.860   5.404   1.755 -0.0190  0.0214 -0.2612
 1324SOL    HW2 5062   4.931   5.459   1.788  0.2254 -0.4840  0.0734
 1324SOL    HW3 5063   4.788   5.419   1.815  0.3590 -0.7410  0.4084
 1324SOL    MW4 5064   4.860   5.413   1.767  0.0631 -0.1459 -0.1287
 1325SOL     OW 5065   0.741   1.353   5.859 -0.1919  0.3812 -0.0330
 1325SOL    HW2 5066   0.688   1.287   5.904  0.9822  0.1936  1.1382
 1325SOL    HW3 5067   0.749   1.320   5.769  0.3203 -1.0767  0.5121
 1325SOL    MW4 5068   0.735   1.340   5.853  0.0306  0.1641  0.1935
 1326SOL     OW 5069   5.896   1.753   1.471 -0.1764  0.1247 -0.3053
 1326SOL    HW2 5070   5.858   1.799   1.546 -0.4085 -1.3187  0.4985
 1326SOL    HW3 5071   5.925   1.670   1.506  1.6552  0.2557 -1.4054
 1326SOL    MW4 5072   5.895   1.748   1.485  0.0346 -0.0484 -0.3444
 1327SOL     OW 5073   4.521   6.263   5.476  0.4448  0.6404 -0.0799
 1327SOL    HW2 5074   4.567   6.344   5.457 -1.9722  1.9432 -0.8397
 1327SOL    HW3 5075   4.524   6.213   5.394 -1.0864  1.6169 -0.7810
 1327SOL    MW4 5076   4.527   6.267   5.463 -0.0761  0.9412 -0.2726
 1328SOL     OW 5077   6.006   1.978   2.193  0.2182  0.3718  0.5942
 1328SOL    HW2 5078   6.008   1.890   2.231 -2.4681 -0.8169 -1.6457
 1328SOL    HW3 5079   5.997   2.036   2.268  2.1282 -1.2099  2.1556
 1328SOL    MW4 5080   6.005   1.974   2.208  0.1158  0.0063  0.5047
 1329SOL     OW 5081   3.921   2.775   1.862 -0.4624  0.4042 -0.5305
 1329SOL    HW2 5082   3.854   2.755   1.927  0.2280  0.5188  0.2300
 1329SOL    HW3 5083   3.875   2.826   1.795 -1.1497  0.4206 -0.0563
 1329SOL    MW4 5084   3.906   2.779   1.861 -0.4620  0.4215 -0.3676
 1330SOL     OW 5085   6.366   3.239   2.917 -0.2192 -0.1325  0.3017
 1330SOL    HW2 5086   6.302   3.168   2.922  1.0160 -1.2206  1.8246
 1330SOL    HW3 5087   6.439   3.209   2.971  0.8006  1.8620  0.1279
 1330SOL    MW4 5088   6.367   3.225   2.925  0.0783 -0.0129  0.4797
 1331SOL     OW 5089   4.937   5.714   0.035 -0.3075  0.0139 -0.1947
 1331SOL    HW2 5090   4.940   5.725   0.130 -1.0521  2.5652 -0.3806
 1331SOL    HW3 5091   5.019   5.670   0.013  0.4223  0.4348  1.5210
 1331SOL    MW4 5092   4.948   5.710   0.045 -0.3095  0.4061  0.0071
 1332SOL     OW 5093   0.708   1.212   4.389 -0.3467  0.4652  0.2406
 1332SOL    HW2 5094   0.738   1.150   4.324  1.0702  0.4162  0.8957
 1332SOL    HW3 5095   0.784   1.269   4.405 -0.7352  0.6461  1.6216
 1332SOL    MW4 5096   0.722   1.212   4.383 -0.2110  0.4826  0.5092
 1333SOL     OW 5097   4.114   4.388   3.264  0.1887  0.2770 -0.2043
 1333SOL    HW2 5098   4.056   4.461   3.284  0.4799  0.7365 -1.0032
 1333SOL    HW3 5099   4.106   4.330   3.340 -0.9375  0.5656 -0.0845
 1333SOL    MW4 5100   4.106   4.390   3.277  0.0785  0.3757 -0.2939
 1334SOL     OW 5101   0.776   1.921   3.548 -0.1791  0.0242 -0.6758
 1334SOL    HW2 5102   0.849   1.984   3.545  0.2540 -0.2297  1.9696
 1334SOL    HW3 5103   0.702   1.972   3.581 -0.0085 -0.6328  0.8048
 1334SOL    MW4 5104   0.776   1.936   3.552 -0.0994 -0.0960 -0.1314
 1335SOL     OW 5105   1.492   6.076   3.676  0.2040  0.2963 -0.3762
 1335SOL    HW2 5106   1.510   6.151   3.732  0.5312  0.2449 -0.4102
 1335SOL    HW3 5107   1.411   6.038   3.711  0.5892  0.0624  0.2673
 1335SOL    MW4 5108   1.483   6.081   3.688  0.2980  0.2586 -0.2958
 1336SOL     OW 5109   4.748   0.111   1.166 -0.1696  0.1921 -0.1745
 1336SOL    HW2 5110   4.786   0.146   1.246 -1.3493  1.8471 -0.2823
 1336SOL    HW3 5111   4.755   0.016   1.175  0.2952  0.3671  1.5969
 1336SOL    MW4 5112   4.754   0.103   1.178 -0.2639  0.4335  0.0450
 1337SOL     OW 5113   4.135   2.378   5.246  0.0345  0.1292  0.0077
 1337SOL    HW2 5114   4.118   2.435   5.321  1.2056  0.0324  0.3628
 1337SOL    HW3 5115   4.220   2.337   5.265 -0.5570 -1.3961 -0.4525
 1337SOL    MW4 5116   4.144   2.380   5.258  0.1110 -0.0848 -0.0062
 1338SOL     OW 5117   2.588   3.180   1.030  0.1727 -0.2164  0.6525
 1338SOL    HW2 5118   2.539   3.232   1.094  0.6334  1.4712 -0.3114
 1338SOL    HW3 5119   2.628   3.244   0.972  0.6658 -1.6645 -0.6891
 1338SOL    MW4 5120   2.587   3.195   1.031  0.2985 -0.1848  0.3483
 1339SOL     OW 5121   4.088   5.694   4.083 -0.6723  0.3581  0.4127
 1339SOL    HW2 5122   4.112   5.775   4.038 -0.2923  0.1111  0.1712
 1339SOL    HW3 5123   3.993   5.701   4.093 -0.9065  0.0000 -1.2748
 1339SOL    MW4 5124   4.078   5.706   4.079 -0.6530  0.2783  0.1582
 1340SOL     OW 5125   2.114   2.085   5.862  0.5409  0.4971  0.3920
 1340SOL    HW2 5126   2.181   2.153   5.863  0.4425  0.6206 -0.6350
 1340SOL    HW3 5127   2.078   2.085   5.951  1.5617  0.7603  0.8204
 1340SOL    MW4 5128   2.118   2.094   5.874  0.6626  0.5481  0.3130
 1341SOL     OW 5129   4.990   2.535   4.679  0.1132 -0.4212  0.2558
 1341SOL    HW2 5130   4.967   2.446   4.706  0.2194 -0.4139  0.3687
 1341SOL    HW3 5131   4.946   2.592   4.742 -2.3167 -0.2684 -1.4279
 1341SOL    MW4 5132   4.981   2.531   4.691 -0.1934 -0.4001  0.0485
 1342SOL     OW 5133   1.963   0.800   3.370  0.1947  0.0489  0.6164
 1342SOL    HW2 5134   1.916   0.747   3.305 -1.4269  2.2870 -0.1458
 1342SOL    HW3 5135   1.918   0.783   3.453  0.4452 -0.6394  0.6164
 1342SOL    MW4 5136   1.951   0.791   3.372  0.0138  0.2534  0.5158
 1343SOL     OW 5137   4.897   2.012   2.958 -0.1750  0.2045  0.4192
 1343SOL    HW2 5138   4.981   2.057   2.959 -0.0435 -0.0455  0.9862
 1343SOL    HW3 5139   4.843   2.062   2.897  1.0117 -0.7937 -1.5270
 1343SOL    MW4 5140   4.901   2.024   2.950 -0.0011  0.0398  0.2372
 1344SOL     OW 5141   1.854   1.853   6.044 -0.0314  0.2718 -0.5742
 1344SOL    HW2 5142   1.811   1.877   5.962 -0.9573  0.9360  0.0849
 1344SOL    HW3 5143   1.785   1.856   6.109  0.4996 -1.1555  0.0922
 1344SOL    MW4 5144   1.839   1.857   6.041 -0.0835  0.1711 -0.3993
 1345SOL     OW 5145   5.852   4.815   4.807 -0.2527  0.3469 -0.1746
 1345SOL    HW2 5146   5.933   4.778   4.841  0.0397  1.2927  0.1641
 1345SOL    HW3 5147   5.786   4.793   4.873 -0.4892 -1.2221 -0.8748
 1345SOL    MW4 5148   5.854   4.807   4.820 -0.2453  0.2646 -0.2223
 1346SOL     OW 5149   6.298   2.261   0.548 -0.0457  0.1186  0.0174
 1346SOL    HW2 5150   6.286   2.255   0.642 -0.2587  0.8966  0.0461
 1346SOL    HW3 5151   6.273   2.351   0.526  0.3663  0.0623 -0.7224
 1346SOL    MW4 5152   6.293   2.272   0.557 -0.0194  0.2138 -0.0764
 1347SOL     OW 5153   4.151   4.847   2.621  0.2105 -0.5536  0.3878
 1347SOL    HW2 5154   4.178   4.826   2.531  0.5893  0.9879  0.0932
 1347SOL    HW3 5155   4.086   4.781   2.643 -0.8728 -0.2172 -1.5254
 1347SOL    MW4 5156   4.146   4.836   2.612  0.1175 -0.3059  0.0965
 1348SOL     OW 5157   2.664   5.322   0.331 -0.0477 -0.6144 -0.2784
 1348SOL    HW2 5158   2.636   5.310   0.422  0.6945  0.8107  0.1731
 1348SOL    HW3 5159   2.584   5.344   0.284 -0.2516 -0.1296  0.2854
 1348SOL    MW4 5160   2.650   5.323   0.337  0.0233 -0.3624 -0.1445
 1349SOL     OW 5161   5.648   6.162   1.037  0.3430 -0.3562  0.1575
 1349SOL    HW2 5162   5.575   6.211   1.076  0.7322  1.9300 -1.7867
 1349SOL    HW3 5163   5.719   6.172   1.100  0.7824  2.7449 -0.6899
 1349SOL    MW4 5164   5.648   6.169   1.051  0.4523  0.3546 -0.2108
 1350SOL     OW 5165   5.058   5.687   5.836  0.4691 -0.2551  0.4460
 1350SOL    HW2 5166   4.996   5.756   5.813  1.5752  0.2478 -1.2171
 1350SOL    HW3 5167   5.127   5.732   5.886  0.8957 -0.2421 -0.1393
 1350SOL    MW4 5168   5.059   5.702   5.839  0.6713 -0.1871  0.1494
 1351SOL     OW 5169   5.224   0.051   2.382  0.2061 -0.9675 -0.3794
 1351SOL    HW2 5170   5.249   0.090   2.298 -0.3765  1.4548  0.4834
 1351SOL    HW3 5171   5.205  -0.040   2.362  0.3037 -0.5076 -2.8291
 1351SOL    MW4 5172   5.225   0.044   2.368  0.1422 -0.5872 -0.5888
 1352SOL     OW 5173   1.658   1.578   5.406 -0.6703  0.7651 -0.1568
 1352SOL    HW2 5174   1.587   1.637   5.383 -1.3977  0.2534  0.7085
 1352SOL    HW3 5175   1.663   1.517   5.333 -0.1545  1.6582 -0.8857
 1352SOL    MW4 5176   1.649   1.578   5.393 -0.6982  0.8154 -0.1388
 1353SOL     OW 5177   2.467   4.146   2.157  0.2435 -0.2557 -0.5325
 1353SOL    HW2 5178   2.497   4.115   2.242  0.1907  1.8538  0.3083
 1353SOL    HW3 5179   2.398   4.085   2.132  0.8387 -1.3998  0.5293
 1353SOL    MW4 5180   2.462   4.134   2.165  0.3150 -0.1283 -0.2815
 1354SOL     OW 5181   0.117   6.275   1.832  0.0354 -0.3410  0.2076
 1354SOL    HW2 5182   0.182   6.249   1.767  0.5745  2.6431 -0.6122
 1354SOL    HW3 5183   0.033   6.265   1.787  0.3948  1.5371 -0.9651
 1354SOL    MW4 5184   0.114   6.270   1.817  0.1539  0.3005 -0.0553
 1355SOL     OW 5185   2.094   6.271   0.520  0.3873  0.2571 -0.7970
 1355SOL    HW2 5186   2.144   6.191   0.506 -1.4903 -0.5794 -3.7496
 1355SOL    HW3 5187   2.032   6.249   0.589 -1.3302 -1.6288 -2.7712
 1355SOL    MW4 5188   2.093   6.258   0.527 -0.0870 -0.1021 -1.4470
 1356SOL     OW 5189   0.835   2.921   4.161  0.4985 -0.4639  0.3833
 1356SOL    HW2 5190   0.906   2.979   4.133 -0.8016  0.8884 -0.2508
 1356SOL    HW3 5191   0.837   2.848   4.099 -0.0496  0.6923 -1.0566
 1356SOL    MW4 5192   0.845   2.919   4.149  0.2547 -0.1329  0.1096
 1357SOL     OW 5193   1.203   5.864   1.744 -0.0276 -0.1489  0.2478
 1357SOL    HW2 5194   1.172   5.787   1.792  0.5814  0.2352  1.2809
 1357SOL    HW3 5195   1.132   5.928   1.752  0.3809  0.1956  1.3438
 1357SOL    MW4 5196   1.189   5.862   1.751  0.1067 -0.0528  0.5287
 1358SOL     OW 5197   3.679   2.966   3.071  0.3881  0.8061  0.6508
 1358SOL    HW2 5198   3.711   2.938   2.985  0.6089 -1.2539  1.3546
 1358SOL    HW3 5199   3.758   2.969   3.126  0.0640  0.7478  1.1210
 1358SOL    MW4 5200   3.694   2.963   3.067  0.3745  0.5266  0.8057
 1359SOL     OW 5201   3.513   5.248   5.581  0.4276  0.1130 -0.2679
 1359SOL    HW2 5202   3.469   5.258   5.666  2.4500 -0.7350  0.9527
 1359SOL    HW3 5203   3.584   5.313   5.583  2.2722 -1.7900 -0.0218
 1359SOL    MW4 5204   3.517   5.258   5.592  0.9378 -0.2499 -0.0744
 1360SOL     OW 5205   4.564   1.217   1.424 -0.1937  0.8295 -0.7323
 1360SOL    HW2 5206   4.490   1.189   1.371 -1.9821 -1.4225  2.6034
 1360SOL    HW3 5207   4.641   1.193   1.372 -1.7884 -0.4188 -2.6515
 1360SOL    MW4 5208   4.565   1.210   1.410 -0.6401  0.3677 -0.5454
 1361SOL     OW 5209   1.643   1.059   1.200 -0.5939  0.6916 -0.4725
 1361SOL    HW2 5210   1.608   0.977   1.167  0.7602  0.3669 -1.1649
 1361SOL    HW3 5211   1.737   1.055   1.181 -0.2791  1.8185  0.6881
 1361SOL    MW4 5212   1.651   1.048   1.193 -0.3737  0.7974 -0.4107
 1362SOL     OW 5213   5.047   0.706   3.264  0.1230 -0.4063 -0.1232
 1362SOL    HW2 5214   5.015   0.668   3.182 -0.3809  0.1890 -0.2091
 1362SOL    HW3 5215   5.070   0.796   3.242 -1.3447  0.2092  0.6751
 1362SOL    MW4 5216   5.046   0.712   3.250 -0.1372 -0.2465 -0.0292
 1363SOL     OW 5217   3.747   2.813   5.448  0.3005  0.6395 -0.5375
 1363SOL    HW2 5218   3.824   2.862   5.477  0.2683  1.1125 -1.2235
 1363SOL    HW3 5219   3.750   2.731   5.497  0.9263  0.8987 -0.1391
 1363SOL    MW4 5220   3.757   2.809   5.458  0.3788  0.7361 -0.5754
 1364SOL     OW 5221   1.824   5.032   6.100  0.3254 -0.2919 -0.1564
 1364SOL    HW2 5222   1.781   5.063   6.179  0.9743 -0.8004  0.4056
 1364SOL    HW3 5223   1.800   4.940   6.094  0.5438 -0.3361 -0.3747
 1364SOL    MW4 5224   1.815   5.024   6.109  0.4399 -0.3648 -0.1111
 1365SOL     OW 5225   2.001   5.989   1.319 -0.1125  0.8013 -0.1110
 1365SOL    HW2 5226   2.006   5.951   1.231  0.6512  0.6169  0.0000
 1365SOL    HW3 5227   1.908   5.990   1.340 -0.1902 -0.6567 -0.2798
 1365SOL    MW4 5228   1.990   5.984   1.310 -0.0220  0.5846 -0.1187
 1366SOL     OW 5229   3.398   0.873   5.363 -0.5452 -0.1475 -0.2439
 1366SOL    HW2 5230   3.407   0.952   5.416  0.5274  1.0051 -2.0039
 1366SOL    HW3 5231   3.472   0.878   5.301 -1.1460 -1.9203 -1.1732
 1366SOL    MW4 5232   3.409   0.884   5.362 -0.4830 -0.2293 -0.5987
 1367SOL     OW 5233   1.309   2.456   5.505  0.9760 -0.8647  0.4250
 1367SOL    HW2 5234   1.254   2.531   5.528  2.0710  0.4663 -1.1603
 1367SOL    HW3 5235   1.271   2.422   5.424  0.2431 -2.3398  1.3271
 1367SOL    MW4 5236   1.296   2.461   5.498  1.0238 -0.8837  0.3349
 1368SOL     OW 5237   0.348   3.256   4.004  0.3457 -0.6297  0.0940
 1368SOL    HW2 5238   0.273   3.295   4.050  0.0300 -1.4506  0.2990
 1368SOL    HW3 5239   0.424   3.302   4.039 -0.0645  0.2540 -0.1582
 1368SOL    MW4 5240   0.348   3.267   4.015  0.2499 -0.6214  0.0878
 1369SOL     OW 5241   2.764   0.648   5.648  0.4650 -0.0913 -0.3838
 1369SOL    HW2 5242   2.728   0.680   5.731 -0.5398  0.7280 -1.1037
 1369SOL    HW3 5243   2.768   0.553   5.659 -0.0060 -0.0254  0.4738
 1369SOL    MW4 5244   2.760   0.639   5.661  0.2703  0.0255 -0.3656
 1370SOL     OW 5245   1.077   3.057   1.251  0.7601  0.3546 -0.1607
 1370SOL    HW2 5246   1.112   3.110   1.179  0.5331  0.1727 -0.4076
 1370SOL    HW3 5247   1.121   3.091   1.329 -0.6655  2.1244 -0.0606
 1370SOL    MW4 5248   1.087   3.069   1.251  0.5421  0.5641 -0.1801
 1371SOL     OW 5249   2.441   0.935   4.674  0.1554 -0.1264  0.0298
 1371SOL    HW2 5250   2.521   0.882   4.665  0.1129 -0.1704 -0.0913
 1371SOL    HW3 5251   2.394   0.921   4.592 -0.7651 -1.4128  0.7225
 1371SOL    MW4 5252   2.446   0.926   4.662  0.0283 -0.3019  0.1052
 1372SOL     OW 5253   3.345   0.687   4.585  0.7791 -0.2898  0.1592
 1372SOL    HW2 5254   3.397   0.654   4.512 -0.6551  1.0165 -1.5542
 1372SOL    HW3 5255   3.377   0.777   4.597 -0.8379  0.4508 -0.7691
 1372SOL    MW4 5256   3.356   0.695   4.577  0.3766 -0.0197 -0.1893
 1373SOL     OW 5257   3.112   5.810   3.869  0.7770 -0.5208  0.1174
 1373SOL    HW2 5258   3.153   5.781   3.787  1.1314  1.9700 -0.6683
 1373SOL    HW3 5259   3.178   5.866   3.910  0.2202 -0.9403  1.6276
 1373SOL    MW4 5260   3.126   5.813   3.863  0.7503 -0.2475  0.2130
 1374SOL     OW 5261   1.770   6.369   0.923 -0.3897  0.0859  0.7642
 1374SOL    HW2 5262   1.808   6.433   0.983  0.3212 -0.0363  0.4540
 1374SOL    HW3 5263   1.766   6.288   0.975 -0.1524  0.0831  0.7825
 1374SOL    MW4 5264   1.775   6.367   0.938 -0.2646  0.0694  0.7257
 1375SOL     OW 5265   3.768   2.527   1.686  0.5294  0.2142  0.1938
 1375SOL    HW2 5266   3.863   2.521   1.695  0.5681 -2.1951 -1.0985
 1375SOL    HW3 5267   3.749   2.490   1.600 -1.4424  2.7376 -0.6015
 1375SOL    MW4 5268   3.778   2.522   1.676  0.2743  0.2293 -0.0817
 1376SOL     OW 5269   1.544   6.343   5.638  0.1532  0.3105  0.4912
 1376SOL    HW2 5270   1.531   6.249   5.650 -1.7131  0.5900  1.0167
 1376SOL    HW3 5271   1.565   6.353   5.545  2.4566 -0.7668  0.8179
 1376SOL    MW4 5272   1.545   6.332   5.627  0.2108  0.2053  0.6037
 1377SOL     OW 5273   1.176   6.013   6.350  0.7283  0.4701  0.1175
 1377SOL    HW2 5274   1.094   5.967   6.368 -0.3098  1.6414 -1.3921
 1377SOL    HW3 5275   1.242   5.944   6.348  0.1169 -0.3335  2.9427
 1377SOL    MW4 5276   1.174   5.998   6.352  0.5107  0.5186  0.2910
 1378SOL     OW 5277   6.129   0.166   3.488  0.6813 -0.2869  0.6896
 1378SOL    HW2 5278   6.139   0.252   3.446  1.0885  0.3435  2.0206
 1378SOL    HW3 5279   6.132   0.104   3.415 -2.0506  0.9127 -0.6218
 1378SOL    MW4 5280   6.130   0.169   3.473  0.3746 -0.0455  0.6922
 1379SOL     OW 5281   4.087   0.477   1.484  0.6646 -0.0548  0.4075
 1379SOL    HW2 5282   4.144   0.539   1.439 -1.1204  0.9923 -0.5504
 1379SOL    HW3 5283   4.138   0.447   1.559  2.0994  1.5401  0.1283
 1379SOL    MW4 5284   4.101   0.481   1.488  0.6184  0.2938  0.2443
 1380SOL     OW 5285   3.887   2.112   6.021 -0.0158  0.3589 -0.8735
 1380SOL    HW2 5286   3.957   2.062   6.064 -3.2004 -0.1847  4.6213
 1380SOL    HW3 5287   3.896   2.201   6.055  0.0096  1.2779 -3.0785
 1380SOL    MW4 5288   3.897   2.117   6.031 -0.4326  0.4084 -0.4394
 1381SOL     OW 5289   5.001   0.587   3.010  0.3538 -0.1513 -0.0254
 1381SOL    HW2 5290   5.086   0.584   2.966 -0.2682 -1.8063 -1.1999
 1381SOL    HW3 5291   4.944   0.632   2.949  0.1775  0.1993  0.3935
 1381SOL    MW4 5292   5.005   0.592   2.996  0.2484 -0.3234 -0.1251
 1382SOL     OW 5293   4.575   5.831   2.807  0.6124 -0.3387  0.1047
 1382SOL    HW2 5294   4.630   5.753   2.808 -1.2762 -1.7133  0.7314
 1382SOL    HW3 5295   4.558   5.850   2.900 -1.3839 -1.0231 -0.0734
 1382SOL    MW4 5296   4.580   5.823   2.820  0.0999 -0.6104  0.1639
 1383SOL     OW 5297   0.959   6.361   1.310  0.5091  0.4284 -0.1255
 1383SOL    HW2 5298   0.896   6.380   1.379 -0.5169 -0.7301 -0.7095
 1383SOL    HW3 5299   1.026   6.308   1.352  1.2958  1.9266  0.5739
 1383SOL    MW4 5300   0.959   6.357   1.324  0.4776  0.4733 -0.1102
 1384SOL     OW 5301   5.945   1.272   5.641 -0.2491 -0.0351  0.4924
 1384SOL    HW2 5302   5.942   1.246   5.733  2.0089  0.7538  0.8465
 1384SOL    HW3 5303   5.945   1.368   5.643  2.1523  0.0477 -0.1210
 1384SOL    MW4 5304   5.944   1.282   5.653  0.3656  0.0799  0.4581
 1385SOL     OW 5305   0.945   2.372   1.895 -0.0364 -0.2416  0.3104
 1385SOL    HW2 5306   1.022   2.340   1.848  0.5411 -1.1188  1.7955
 1385SOL    HW3 5307   0.974   2.453   1.936 -0.6816  0.7863 -1.1594
 1385SOL    MW4 5308   0.959   2.379   1.894 -0.0453 -0.2217  0.3124
 1386SOL     OW 5309   6.018   4.292   1.131 -0.0167 -0.1169 -0.0614
 1386SOL    HW2 5310   6.054   4.208   1.159  2.5794  1.4739  1.9703
 1386SOL    HW3 5311   6.066   4.313   1.051  1.5046  0.6193  0.9859
 1386SOL    MW4 5312   6.029   4.284   1.124  0.5266  0.1901  0.3449
 1387SOL     OW 5313   1.085   3.671   1.572  0.2152  0.1109 -0.0957
 1387SOL    HW2 5314   1.003   3.629   1.599 -0.3184  2.3202  2.0580
 1387SOL    HW3 5315   1.058   3.751   1.528  1.1607  1.6178  1.9463
 1387SOL    MW4 5316   1.071   3.676   1.569  0.2696  0.6012  0.4579
 1388SOL     OW 5317   0.114   2.019   2.866  0.8008  0.3665 -0.1660
 1388SOL    HW2 5318   0.138   1.927   2.852  0.4430  0.4069 -1.0513
 1388SOL    HW3 5319   0.018   2.019   2.867  0.7437  0.3363  2.4994
 1388SOL    MW4 5320   0.104   2.007   2.865  0.7461  0.3678  0.0688
 1389SOL     OW 5321   1.759   5.343   3.065  0.2801 -0.6183  0.2612
 1389SOL    HW2 5322   1.745   5.282   3.137  0.6495  0.1163  0.9643
 1389SOL    HW3 5323   1.762   5.287   2.987 -2.2261 -1.2205  0.5143
 1389SOL    MW4 5324   1.758   5.327   3.064 -0.0018 -0.6008  0.3874
 1390SOL     OW 5325   3.475   3.442   1.411 -0.0086 -0.5069  0.3729
 1390SOL    HW2 5326   3.509   3.491   1.486  1.1535  0.5575 -0.7957
 1390SOL    HW3 5327   3.507   3.490   1.335 -0.2135 -2.1781 -0.8207
 1390SOL    MW4 5328   3.484   3.455   1.411  0.1177 -0.5870  0.0612
 1391SOL     OW 5329   3.328   4.599   5.187  0.4448  0.8114 -0.4712
 1391SOL    HW2 5330   3.361   4.569   5.103  2.5872  0.5183  0.4182
 1391SOL    HW3 5331   3.317   4.694   5.177 -0.1156  0.6633 -1.3156
 1391SOL    MW4 5332   3.331   4.608   5.175  0.6535  0.7532 -0.4653
 1392SOL     OW 5333   1.998   0.820   4.683  0.0147 -0.1091 -0.2755
 1392SOL    HW2 5334   1.962   0.886   4.742 -0.7695 -0.2037 -0.6382
 1392SOL    HW3 5335   2.073   0.784   4.731 -0.4761 -0.0312  0.5685
 1392SOL    MW4 5336   2.003   0.824   4.697 -0.1535 -0.1113 -0.2120
 1393SOL     OW 5337   5.597   2.423   3.921 -0.3098  0.2129 -0.2207
 1393SOL    HW2 5338   5.525   2.481   3.943  0.5387  0.7740  1.2117
 1393SOL    HW3 5339   5.663   2.480   3.882 -1.0630 -0.4806 -2.6758
 1393SOL    MW4 5340   5.596   2.438   3.919 -0.2972  0.1954 -0.3556
 1394SOL     OW 5341   3.612   1.683   4.533 -0.3144 -0.2479  0.1373
 1394SOL    HW2 5342   3.686   1.743   4.536 -1.0521  0.6496  1.6636
 1394SOL    HW3 5343   3.629   1.620   4.603 -0.0604 -1.2235 -0.7789
 1394SOL    MW4 5344   3.624   1.683   4.542 -0.3782 -0.2582  0.2178
 1395SOL     OW 5345   2.194   4.584   1.309 -0.2934 -0.4087 -0.7467
 1395SOL    HW2 5346   2.212   4.632   1.228 -0.9912 -0.2437 -0.8054
 1395SOL    HW3 5347   2.254   4.623   1.373 -1.5736  1.2847 -0.5173
 1395SOL    MW4 5348   2.204   4.595   1.307 -0.5543 -0.1635 -0.7242
 1396SOL     OW 5349   4.725   0.448   4.026 -0.5871  0.3954 -0.4090
 1396SOL    HW2 5350   4.757   0.358   4.017 -1.8258 -0.2196  0.8177
 1396SOL    HW3 5351   4.630   0.438   4.038 -0.9556  1.9724 -1.6739
 1396SOL    MW4 5352   4.716   0.434   4.027 -0.7991  0.5223 -0.4141
 1397SOL     OW 5353   4.448   5.048   5.628  0.0304 -0.5457 -0.4441
 1397SOL    HW2 5354   4.514   5.018   5.691  0.2764 -1.6250 -1.1910
 1397SOL    HW3 5355   4.438   5.142   5.646  2.6072 -0.0901 -1.0489
 1397SOL    MW4 5356   4.455   5.056   5.639  0.4028 -0.6280 -0.6224
 1398SOL     OW 5357   0.894   0.045   0.498  0.2213  0.1915  0.1868
 1398SOL    HW2 5358   0.916   0.087   0.581  1.8624  0.2638 -0.2539
 1398SOL    HW3 5359   0.869   0.117   0.440 -1.6248  0.0838  0.7728
 1398SOL    MW4 5360   0.894   0.060   0.501  0.1942  0.1869  0.2060
 1399SOL     OW 5361   0.551   3.947   5.899  0.0583 -0.0495 -0.0583
 1399SOL    HW2 5362   0.581   3.951   5.808 -2.4047 -1.3391 -1.0135
 1399SOL    HW3 5363   0.547   3.853   5.919 -3.2320 -0.0158 -0.0761
 1399SOL    MW4 5364   0.555   3.935   5.890 -0.7008 -0.2152 -0.1867
 1400SOL     OW 5365   4.922   6.072   0.462 -0.4043  0.0033  0.0888
 1400SOL    HW2 5366   4.951   6.140   0.401  1.0622  0.0118  0.7509
 1400SOL    HW3 5367   4.873   6.010   0.408  1.5111 -0.3984 -1.3089
 1400SOL    MW4 5368   4.919   6.072   0.447  0.0419 -0.0486 -0.0083
 1401SOL     OW 5369   5.220   0.908   5.073 -0.0795  0.0935 -0.0091
 1401SOL    HW2 5370   5.283   0.951   5.015  0.7573 -1.2829 -0.1740
 1401SOL    HW3 5371   5.262   0.911   5.159 -0.0971 -0.2215  0.0110
 1401SOL    MW4 5372   5.234   0.914   5.077  0.0286 -0.1297 -0.0282
 1402SOL     OW 5373   4.535   2.465   0.074 -0.1941  0.1263  0.1540
 1402SOL    HW2 5374   4.560   2.372   0.084 -2.8243 -0.8536 -1.4641
 1402SOL    HW3 5375   4.508   2.492   0.161  1.0947 -0.4137  0.7595
 1402SOL    MW4 5376   4.535   2.456   0.086 -0.3711 -0.0742  0.0204
 1403SOL     OW 5377   4.751   5.320   5.661 -0.4388  0.8541 -0.3069
 1403SOL    HW2 5378   4.744   5.262   5.737 -0.8573  0.5014 -0.6084
 1403SOL    HW3 5379   4.769   5.407   5.699  0.2911  0.5155  0.1404
 1403SOL    MW4 5380   4.752   5.324   5.676 -0.3978  0.7629 -0.2877
 1404SOL     OW 5381   4.957   1.197   5.265  0.0388 -0.1367 -0.2040
 1404SOL    HW2 5382   4.901   1.122   5.288 -0.9278  0.6588  0.1100
 1404SOL    HW3 5383   4.992   1.175   5.179 -0.3638 -0.8828 -0.1892
 1404SOL    MW4 5384   4.954   1.184   5.257 -0.1419 -0.1302 -0.1606
 1405SOL     OW 5385   5.486   6.313   4.323 -0.3045  0.4854 -0.2061
 1405SOL    HW2 5386   5.539   6.249   4.276 -2.0701 -0.5059 -0.9311
 1405SOL    HW3 5387   5.448   6.265   4.396  0.2959  1.3669  0.7292
 1405SOL    MW4 5388   5.488   6.298   4.326 -0.4582  0.4709 -0.1783
 1406SOL     OW 5389   2.735   1.759   4.062 -0.1107  0.0790 -0.1243
 1406SOL    HW2 5390   2.766   1.805   4.140  0.4950  2.2909 -1.5522
 1406SOL    HW3 5391   2.807   1.699   4.039 -0.1309 -0.2934  0.7665
 1406SOL    MW4 5392   2.749   1.757   4.069 -0.0335  0.3217 -0.1951
 1407SOL     OW 5393   3.866   2.983   3.278  0.1715 -0.4327  0.0971
 1407SOL    HW2 5394   3.948   3.001   3.233 -0.3030  0.0335 -0.6024
 1407SOL    HW3 5395   3.837   3.069   3.310 -0.0847 -0.5850  0.2811
 1407SOL    MW4 5396   3.873   2.997   3.276  0.0751 -0.3913  0.0291
 1408SOL     OW 5397   4.630   0.070   5.385  0.0933 -0.6814  0.0352
 1408SOL    HW2 5398   4.589   0.093   5.301  3.0391 -1.2548 -1.7050
 1408SOL    HW3 5399   4.614   0.146   5.441  1.8729  1.8399 -2.5768
 1408SOL    MW4 5400   4.622   0.083   5.381  0.7167 -0.4244 -0.5390
 1409SOL     OW 5401   6.006   6.275   1.860  0.0831  0.0632 -0.0179
 1409SOL    HW2 5402   5.963   6.345   1.812 -0.0599 -0.1463 -0.1966
 1409SOL    HW3 5403   6.026   6.209   1.794  2.1303  0.8291 -0.2634
 1409SOL    MW4 5404   6.003   6.276   1.845  0.3344  0.1366 -0.0739
 1410SOL     OW 5405   5.671   4.687   2.186 -0.4447  0.1605 -0.2363
 1410SOL    HW2 5406   5.663   4.614   2.124 -2.9622  1.5160 -1.6684
 1410SOL    HW3 5407   5.628   4.657   2.265 -0.4599 -0.3135 -0.4224
 1410SOL    MW4 5408   5.664   4.674   2.188 -0.7788  0.2768 -0.4498
 1411SOL     OW 5409   0.484   5.299   1.404 -0.0840  0.5056  0.6642
 1411SOL    HW2 5410   0.490   5.343   1.489 -2.9455  1.0541  0.6837
 1411SOL    HW3 5411   0.483   5.371   1.340  0.1387  0.1993  0.3128
 1411SOL    MW4 5412   0.485   5.315   1.407 -0.4322  0.5375  0.6204
 1412SOL     OW 5413   1.968   2.861   0.314  0.5571  0.6431 -0.0772
 1412SOL    HW2 5414   2.025   2.804   0.365 -1.0737 -1.1705 -0.1489
 1412SOL    HW3 5415   2.000   2.854   0.224 -0.0235 -0.7785 -0.2077
 1412SOL    MW4 5416   1.979   2.852   0.309  0.2653  0.2162 -0.1039
 1413SOL     OW 5417   2.533   6.219   2.489 -0.2283 -0.1566 -0.2180
 1413SOL    HW2 5418   2.553   6.144   2.433  1.3808 -0.1802  0.3482
 1413SOL    HW3 5419   2.457   6.191   2.540 -0.5653 -0.8282 -1.0682
 1413SOL    MW4 5420   2.525   6.206   2.488 -0.0605 -0.2483 -0.2555
 1414SOL     OW 5421   1.464   1.512   2.024  0.0162 -0.0947 -0.2258
 1414SOL    HW2 5422   1.461   1.433   1.970 -1.5452  1.5245 -2.7675
 1414SOL    HW3 5423   1.372   1.530   2.044  0.1655  1.9043 -1.1126
 1414SOL    MW4 5424   1.451   1.504   2.020 -0.1701  0.3827 -0.6782
 1415SOL     OW 5425   0.068   5.097   4.559 -0.6805 -0.3086 -0.2503
 1415SOL    HW2 5426   0.091   5.042   4.484 -0.2174 -0.4694  0.0076
 1415SOL    HW3 5427   0.008   5.162   4.523  0.7002  0.5453 -1.0837
 1415SOL    MW4 5428   0.063   5.098   4.544 -0.4373 -0.2172 -0.3262
 1416SOL     OW 5429   5.472   2.788   0.166  0.0383 -0.2893  0.1726
 1416SOL    HW2 5430   5.444   2.749   0.249  1.1483  0.2209  0.8044
 1416SOL    HW3 5431   5.526   2.721   0.125  0.6376 -0.0326  0.5237
 1416SOL    MW4 5432   5.475   2.774   0.172  0.2638 -0.1881  0.3023
 1417SOL     OW 5433   1.363   3.064   1.134  0.1428 -0.0643  0.1204
 1417SOL    HW2 5434   1.336   3.062   1.226 -0.2551 -0.9920 -0.0038
 1417SOL    HW3 5435   1.324   3.145   1.100  1.9181  1.3150  1.2182
 1417SOL    MW4 5436   1.354   3.074   1.142  0.3246 -0.0047  0.2489
 1418SOL     OW 5437   4.309   0.349   0.774 -0.7931 -0.3456  0.6851
 1418SOL    HW2 5438   4.374   0.283   0.798  1.1490  1.6002  1.1399
 1418SOL    HW3 5439   4.256   0.361   0.852 -0.0571 -0.1769  1.1650
 1418SOL    MW4 5440   4.310   0.342   0.787 -0.4397 -0.0666  0.8084
 1419SOL     OW 5441   2.110   0.465   3.654  0.0527 -0.4948  0.4452
 1419SOL    HW2 5442   2.124   0.454   3.560 -0.1961 -2.0587  0.5672
 1419SOL    HW3 5443   2.017   0.487   3.662  0.1387 -0.0793  0.3094
 1419SOL    MW4 5444   2.100   0.467   3.643  0.0312 -0.6463  0.4434
 1420SOL     OW 5445   5.494   0.615   2.466 -0.6066  0.5321  0.2580
 1420SOL    HW2 5446   5.406   0.603   2.431  0.0278 -1.5650 -0.7999
 1420SOL    HW3 5447   5.498   0.556   2.541 -0.0457  0.4588  0.1729
 1420SOL    MW4 5448   5.483   0.606   2.471 -0.4489  0.2457  0.1072
 1421SOL     OW 5449   6.062   5.025   2.441 -0.5626  1.0200  0.1976
 1421SOL    HW2 5450   6.031   5.084   2.510  2.8844  1.1962  1.8089
 1421SOL    HW3 5451   6.088   4.946   2.488  0.8830  0.7220 -1.0317
 1421SOL    MW4 5452   6.061   5.022   2.456  0.0829  1.0039  0.2480
 1422SOL     OW 5453   2.097   5.740   4.250  0.0871 -0.0022 -0.1491
 1422SOL    HW2 5454   2.061   5.806   4.190 -0.5530 -0.2647 -0.0623
 1422SOL    HW3 5455   2.072   5.656   4.211 -0.3917 -0.1730  0.5120
 1422SOL    MW4 5456   2.089   5.738   4.237 -0.0605 -0.0594 -0.0504
 1423SOL     OW 5457   1.065   1.587   4.769  0.2977  0.2341 -0.6977
 1423SOL    HW2 5458   0.978   1.548   4.765  0.1312  0.4345  0.4746
 1423SOL    HW3 5459   1.121   1.527   4.721 -0.4352 -0.0328 -1.2330
 1423SOL    MW4 5460   1.061   1.574   4.762  0.1790  0.2253 -0.6137
 1424SOL     OW 5461   4.704   6.293   6.353 -0.1492  0.3193  0.5545
 1424SOL    HW2 5462   4.721   6.368   6.410 -1.7500  0.3402  1.0519
 1424SOL    HW3 5463   4.742   6.218   6.399 -0.7829  0.4517  1.3113
 1424SOL    MW4 5464   4.711   6.293   6.366 -0.4440  0.3395  0.7200
 1425SOL     OW 5465   5.443   4.203   4.609 -0.2505 -0.3070 -0.3461
 1425SOL    HW2 5466   5.510   4.168   4.551 -0.7747 -0.1898 -1.0379
 1425SOL    HW3 5467   5.364   4.206   4.555 -0.7738 -0.2926  0.4077
 1425SOL    MW4 5468   5.442   4.199   4.594 -0.3887 -0.2896 -0.3379
 1426SOL     OW 5469   3.383   1.085   0.568  0.3373 -0.6243 -0.4781
 1426SOL    HW2 5470   3.304   1.138   0.584  1.3485  0.6665  0.4857
 1426SOL    HW3 5471   3.349   1.000   0.540 -1.4923 -0.9198  2.2209
 1426SOL    MW4 5472   3.368   1.081   0.566  0.2294 -0.4930  0.0051
 1427SOL     OW 5473   1.691   2.309   4.754  0.2202  0.5174  0.0576
 1427SOL    HW2 5474   1.707   2.238   4.816 -1.7450 -1.0077 -1.0426
 1427SOL    HW3 5475   1.684   2.266   4.669  0.2464  2.2132 -0.8515
 1427SOL    MW4 5476   1.692   2.294   4.751 -0.0356  0.5399 -0.2075
 1428SOL     OW 5477   5.040   2.071   4.132  0.5130 -0.2960 -0.4525
 1428SOL    HW2 5478   5.027   2.155   4.176  0.1728 -1.3376  1.5624
 1428SOL    HW3 5479   5.132   2.049   4.148 -0.0654 -1.5470  1.4522
 1428SOL    MW4 5480   5.050   2.079   4.140  0.3918 -0.5985  0.0646
 1429SOL     OW 5481   3.352   2.356   4.324 -0.2942  0.4933  0.6662
 1429SOL    HW2 5482   3.387   2.269   4.340 -0.3548  0.3852  0.2197
 1429SOL    HW3 5483   3.424   2.404   4.284 -1.0570 -0.1618 -1.6298
 1429SOL    MW4 5484   3.366   2.351   4.321 -0.4028  0.3926  0.3044
 1430SOL     OW 5485   0.297   0.707   3.412 -0.2395  0.1374 -0.2221
 1430SOL    HW2 5486   0.213   0.752   3.422 -0.1595  0.3635 -0.5559
 1430SOL    HW3 5487   0.312   0.665   3.497 -0.8216 -0.1327 -0.2536
 1430SOL    MW4 5488   0.288   0.707   3.424 -0.3057  0.1316 -0.2703
 1431SOL     OW 5489   5.780   4.461   6.333 -0.1744  0.3904  0.1788
 1431SOL    HW2 5490   5.860   4.429   6.375 -0.1640 -1.0312 -0.8903
 1431SOL    HW3 5491   5.733   4.507   6.403  1.3527  0.8703  0.9265
 1431SOL    MW4 5492   5.784   4.463   6.348  0.0285  0.2662  0.1364
 1432SOL     OW 5493   3.257   2.602   4.992  0.5798  0.4393 -0.6149
 1432SOL    HW2 5494   3.243   2.689   4.955  1.9145  0.2868 -1.5580
 1432SOL    HW3 5495   3.247   2.543   4.917 -1.1515 -0.3257  0.1753
 1432SOL    MW4 5496   3.254   2.606   4.977  0.5275  0.3183 -0.6351
 1433SOL     OW 5497   1.427   4.972   3.301 -0.6170 -0.0668  0.2346
 1433SOL    HW2 5498   1.480   4.902   3.262 -0.2694 -0.7300  1.8204
 1433SOL    HW3 5499   1.337   4.953   3.273 -0.2956 -0.0843 -0.8267
 1433SOL    MW4 5500   1.422   4.960   3.292 -0.5287 -0.1566  0.3038
 1434SOL     OW 5501   3.922   1.858   2.988  0.2603  0.2168  0.1568
 1434SOL    HW2 5502   3.955   1.945   2.963  1.4097 -0.1327  0.3919
 1434SOL    HW3 5503   3.999   1.801   2.985 -0.7451 -1.1364 -1.4449
 1434SOL    MW4 5504   3.936   1.862   2.984  0.2793 -0.0078 -0.0235
 1435SOL     OW 5505   5.677   0.426   1.877  0.6840 -0.1995 -0.7143
 1435SOL    HW2 5506   5.754   0.440   1.821  2.5481  1.6694  2.0703
 1435SOL    HW3 5507   5.713   0.412   1.964 -2.1539  0.3473  0.6627
 1435SOL    MW4 5508   5.692   0.426   1.881  0.5555  0.1192 -0.1652
 1436SOL     OW 5509   4.337   3.643   2.176 -0.7374  0.1884 -0.1282
 1436SOL    HW2 5510   4.270   3.675   2.237 -0.2255  0.7189  0.1672
 1436SOL    HW3 5511   4.327   3.548   2.177 -1.7673  0.2781 -0.4156
 1436SOL    MW4 5512   4.327   3.635   2.184 -0.8057  0.2702 -0.1271
 1437SOL     OW 5513   3.754   2.000   3.444 -0.2727  0.5320 -0.4122
 1437SOL    HW2 5514   3.812   1.966   3.375 -1.4132 -0.3150 -0.9929
 1437SOL    HW3 5515   3.687   1.932   3.454  0.2985  0.2371  2.1259
 1437SOL    MW4 5516   3.753   1.986   3.436 -0.3478  0.3813 -0.1539
 1438SOL     OW 5517   4.048   1.874   3.995 -0.4883  0.3274  0.3033
 1438SOL    HW2 5518   4.084   1.904   3.912 -2.7695  0.5267 -0.6833
 1438SOL    HW3 5519   4.035   1.780   3.984 -0.0328  0.2043  0.7593
 1438SOL    MW4 5520   4.051   1.866   3.983 -0.7292  0.3375  0.2333
 1439SOL     OW 5521   5.734   5.814   0.210 -0.0998  0.1628  0.3803
 1439SOL    HW2 5522   5.709   5.767   0.289 -1.0140  0.5144  0.3130
 1439SOL    HW3 5523   5.830   5.821   0.215 -0.2451  1.4570  2.1803
 1439SOL    MW4 5524   5.743   5.808   0.221 -0.2396  0.3800  0.6089
 1440SOL     OW 5525   5.425   6.268   1.171 -0.5132 -0.3087  0.5427
 1440SOL    HW2 5526   5.466   6.340   1.219  0.3223 -0.6544  0.3606
 1440SOL    HW3 5527   5.390   6.210   1.239  0.7733 -0.8612  0.7534
 1440SOL    MW4 5528   5.425   6.270   1.187 -0.2332 -0.4272  0.5465
 1441SOL     OW 5529   1.279   1.766   2.374  0.1101 -0.0450  0.0871
 1441SOL    HW2 5530   1.361   1.726   2.403 -0.3711 -0.6959  0.5437
 1441SOL    HW3 5531   1.276   1.747   2.280  0.3850 -0.1826  0.1043
 1441SOL    MW4 5532   1.289   1.758   2.365  0.0829 -0.1490  0.1496
 1442SOL     OW 5533   5.104   4.593   0.415 -0.4178 -0.2225  0.3672
 1442SOL    HW2 5534   5.070   4.505   0.396  1.0012 -0.6111 -0.5599
 1442SOL    HW3 5535   5.027   4.649   0.418 -1.2253 -1.2215 -0.7162
 1442SOL    MW4 5536   5.089   4.589   0.413 -0.3371 -0.4056  0.1019
 1443SOL     OW 5537   6.338   5.008   3.942 -0.1082  0.3773 -0.0011
 1443SOL    HW2 5538   6.351   5.035   3.851 -0.8627  0.8969  0.0370
 1443SOL    HW3 5539   6.316   4.915   3.937 -2.7846  0.9599 -0.5996
 1443SOL    MW4 5540   6.337   4.999   3.929 -0.5609  0.5227 -0.0750
 1444SOL     OW 5541   4.130   6.438   3.403  0.1936  0.0633 -0.0090
 1444SOL    HW2 5542   4.215   6.420   3.362 -0.7154  0.3951 -2.1793
 1444SOL    HW3 5543   4.082   6.356   3.397  0.1775  0.0023  0.8063
 1444SOL    MW4 5544   4.135   6.425   3.397  0.0715  0.0991 -0.1878
 1445SOL     OW 5545   3.966   1.630   5.577  0.3843  0.3963  0.4452
 1445SOL    HW2 5546   3.984   1.722   5.556  0.5221  0.1262 -0.6330
 1445SOL    HW3 5547   4.028   1.609   5.648  2.0177  0.4571 -0.9044
 1445SOL    MW4 5548   3.976   1.640   5.584  0.6180  0.3687  0.1249
 1446SOL     OW 5549   1.668   5.155   3.266  1.0466  0.5043 -0.2642
 1446SOL    HW2 5550   1.612   5.105   3.207  1.7590  1.1478 -1.5242
 1446SOL    HW3 5551   1.707   5.089   3.324 -0.6076  0.0032  0.3278
 1446SOL    MW4 5552   1.666   5.140   3.266  0.9224  0.5231 -0.3524
 1447SOL     OW 5553   3.904   3.946   4.353 -0.0797  0.2511 -0.3870
 1447SOL    HW2 5554   3.862   4.028   4.327 -0.9710 -0.4241 -1.1848
 1447SOL    HW3 5555   3.866   3.925   4.438 -0.4547  0.2737 -0.5452
 1447SOL    MW4 5556   3.893   3.954   4.361 -0.2467  0.1650 -0.5131
 1448SOL     OW 5557   2.980   4.149   5.253  0.3501 -0.0703  0.2669
 1448SOL    HW2 5558   3.066   4.163   5.214 -0.5796  0.2682 -1.7512
 1448SOL    HW3 5559   2.990   4.067   5.302  1.1294 -1.5713 -2.1986
 1448SOL    MW4 5560   2.993   4.140   5.254  0.3303 -0.2237 -0.3246
 1449SOL     OW 5561   3.532   6.163   0.750  0.4730  0.0036  0.5590
 1449SOL    HW2 5562   3.582   6.244   0.739  0.2686 -0.0794 -1.1845
 1449SOL    HW3 5563   3.583   6.097   0.705 -0.5777 -0.3406 -0.1621
 1449SOL    MW4 5564   3.545   6.165   0.743  0.3074 -0.0527  0.2338
 1450SOL     OW 5565   2.065   2.076   2.274 -0.2072  0.3433 -0.3492
 1450SOL    HW2 5566   2.130   2.032   2.329  0.5116  0.4520 -1.0906
 1450SOL    HW3 5567   2.104   2.077   2.187 -1.4238 -0.0189 -0.9173
 1450SOL    MW4 5568   2.078   2.070   2.270 -0.2729  0.3098 -0.5220
 1451SOL     OW 5569   4.405   5.006   2.334 -0.2490 -0.1759 -0.2353
 1451SOL    HW2 5570   4.400   5.072   2.265  1.3990  0.2869  0.0614
 1451SOL    HW3 5571   4.422   5.055   2.414  1.8066 -0.9677 -0.1275
 1451SOL    MW4 5572   4.406   5.021   2.335  0.2396 -0.2193 -0.1819
 1452SOL     OW 5573   0.352   2.443   2.987 -0.3209 -0.4989 -0.3046
 1452SOL    HW2 5574   0.276   2.399   2.949 -0.6428 -1.4364  1.2893
 1452SOL    HW3 5575   0.408   2.465   2.913 -1.8321 -0.3966 -1.4490
 1452SOL    MW4 5576   0.349   2.440   2.972 -0.5628 -0.6091 -0.2453
 1453SOL     OW 5577   4.256   2.305   4.856  0.0792  0.1073  0.2690
 1453SOL    HW2 5578   4.263   2.400   4.869  1.5046  0.1534 -0.6071
 1453SOL    HW3 5579   4.163   2.290   4.839  0.0038  1.5535 -0.8734
 1453SOL    MW4 5580   4.245   2.316   4.855  0.2573  0.3042  0.0027
 1454SOL     OW 5581   4.116   3.593   3.346 -0.2833  0.5134 -0.0358
 1454SOL    HW2 5582   4.076   3.602   3.432 -1.8616  0.2708 -0.7107
 1454SOL    HW3 5583   4.208   3.615   3.360 -0.5470  0.6692  1.6612
 1454SOL    MW4 5584   4.123   3.597   3.359 -0.5263  0.5019  0.0990
 1455SOL     OW 5585   2.806   0.554   2.585  0.1747 -0.2888  0.3361
 1455SOL    HW2 5586   2.741   0.565   2.516 -0.3445  0.1692  0.8871
 1455SOL    HW3 5587   2.756   0.561   2.666  1.2350  2.9277  0.8724
 1455SOL    MW4 5588   2.791   0.556   2.587  0.2461  0.1960  0.4795
 1456SOL     OW 5589   2.201   0.235   3.973 -0.2283  0.0092 -0.5805
 1456SOL    HW2 5590   2.188   0.160   3.915  0.5709 -0.3550 -0.3023
 1456SOL    HW3 5591   2.243   0.301   3.919 -0.7026  0.1637 -0.7607
 1456SOL    MW4 5592   2.205   0.234   3.958 -0.1854 -0.0185 -0.5675
 1457SOL     OW 5593   2.961   1.887   6.222 -0.9049  0.5408  0.4596
 1457SOL    HW2 5594   3.009   1.854   6.297 -1.7183 -0.4612  0.5544
 1457SOL    HW3 5595   3.028   1.902   6.155 -0.4667 -0.9539  0.5435
 1457SOL    MW4 5596   2.976   1.885   6.223 -0.9544  0.2114  0.4832
 1458SOL     OW 5597   0.853   0.974   6.128 -0.3952  0.3376  0.7233
 1458SOL    HW2 5598   0.896   0.984   6.214 -0.8179 -2.3578  1.3400
 1458SOL    HW3 5599   0.925   0.954   6.068 -0.0078  2.8808  0.2048
 1458SOL    MW4 5600   0.868   0.973   6.132 -0.3999  0.3175  0.7363
 1459SOL     OW 5601   1.485   3.755   4.799 -0.2786 -0.5210 -0.3799
 1459SOL    HW2 5602   1.508   3.800   4.717 -0.7148  0.9602  0.2733
 1459SOL    HW3 5603   1.437   3.821   4.849 -0.3838 -1.5436  0.9020
 1459SOL    MW4 5604   1.481   3.770   4.794 -0.3500 -0.4605 -0.1246
 1460SOL     OW 5605   6.002   5.818   0.262  0.1081 -0.0045 -0.0367
 1460SOL    HW2 5606   6.075   5.826   0.200  0.8569 -0.3914  0.7653
 1460SOL    HW3 5607   6.009   5.729   0.295 -1.1390 -0.2544 -0.4146
 1460SOL    MW4 5608   6.013   5.807   0.258  0.0423 -0.0885  0.0193
 1461SOL     OW 5609   3.462   3.064   2.758 -0.4860  0.4724 -0.6580
 1461SOL    HW2 5610   3.483   3.078   2.851 -0.7722 -1.4999 -0.2456
 1461SOL    HW3 5611   3.392   3.126   2.740 -1.3411  0.0162  0.8402
 1461SOL    MW4 5612   3.456   3.074   2.768 -0.6366  0.1520 -0.4059
 1462SOL     OW 5613   3.714   2.551   5.530 -0.5597  0.0130 -0.2266
 1462SOL    HW2 5614   3.705   2.520   5.440  2.6112  0.7687 -0.9463
 1462SOL    HW3 5615   3.740   2.473   5.579 -0.1491  0.0035 -0.4497
 1462SOL    MW4 5616   3.716   2.537   5.525 -0.0871  0.1115 -0.3510
 1463SOL     OW 5617   5.647   2.231   6.362 -0.5685 -0.0694 -0.1723
 1463SOL    HW2 5618   5.600   2.268   6.437  0.1916  0.4424  0.0630
 1463SOL    HW3 5619   5.592   2.251   6.287  0.4869  2.9146 -0.2741
 1463SOL    MW4 5620   5.634   2.238   6.362 -0.3289  0.3919 -0.1547
 1464SOL     OW 5621   1.819   4.762   2.720 -0.4272  0.1512 -0.1002
 1464SOL    HW2 5622   1.851   4.849   2.696 -0.0628  0.2305  0.6365
 1464SOL    HW3 5623   1.836   4.709   2.643 -3.5487  1.3739 -1.8153
 1464SOL    MW4 5624   1.826   4.767   2.707 -0.7909  0.3230 -0.2293
 1465SOL     OW 5625   0.176   1.359   0.760 -0.3948 -0.3580 -0.0873
 1465SOL    HW2 5626   0.265   1.371   0.727 -0.0942 -0.1891  0.7490
 1465SOL    HW3 5627   0.142   1.283   0.711  0.2649 -0.5256 -0.2950
 1465SOL    MW4 5628   0.183   1.350   0.749 -0.2681 -0.3578 -0.0044
 1466SOL     OW 5629   3.033   0.117   2.177  0.6010 -0.0699 -0.4636
 1466SOL    HW2 5630   3.052   0.130   2.270  1.3477 -2.0378 -0.2965
 1466SOL    HW3 5631   3.119   0.116   2.135  0.2313  1.6394 -1.3454
 1466SOL    MW4 5632   3.047   0.119   2.184  0.6507 -0.1040 -0.5579
 1467SOL     OW 5633   2.521   5.262   3.019  0.1942 -0.1448  0.2889
 1467SOL    HW2 5634   2.485   5.241   2.932 -0.4474  3.6369 -0.5730
 1467SOL    HW3 5635   2.444   5.281   3.072  0.6666  0.0231  0.9207
 1467SOL    MW4 5636   2.506   5.262   3.014  0.1719  0.3763  0.2586
 1468SOL     OW 5637   1.670   1.183   4.255 -0.0390 -0.2256  0.0096
 1468SOL    HW2 5638   1.745   1.145   4.301  0.7245  0.7647 -0.3901
 1468SOL    HW3 5639   1.617   1.107   4.231  1.4011 -1.0685 -0.6804
 1468SOL    MW4 5640   1.673   1.168   4.258  0.2517 -0.2062 -0.1342
 1469SOL     OW 5641   3.651   1.974   2.581 -0.1645  0.2417  0.0169
 1469SOL    HW2 5642   3.737   1.933   2.571 -0.3146  0.1361 -0.9815
 1469SOL    HW3 5643   3.614   1.973   2.493 -0.9980  0.7164  0.3500
 1469SOL    MW4 5644   3.657   1.968   2.568 -0.2943  0.2904 -0.0709
 1470SOL     OW 5645   1.458   0.826   3.794 -0.1195  0.2122 -0.2543
 1470SOL    HW2 5646   1.537   0.854   3.840 -0.4766  0.2001  0.3829
 1470SOL    HW3 5647   1.458   0.731   3.804 -1.3980  0.3591  1.7856
 1470SOL    MW4 5648   1.469   0.817   3.801 -0.3353  0.2300  0.0989
 1471SOL     OW 5649   1.653   1.944   0.630 -0.0137 -0.0014 -0.4245
 1471SOL    HW2 5650   1.631   1.910   0.717  0.2501  0.2137 -0.2685
 1471SOL    HW3 5651   1.733   1.898   0.605 -0.7831 -0.9927 -1.1164
 1471SOL    MW4 5652   1.661   1.934   0.638 -0.0804 -0.1038 -0.4952
 1472SOL     OW 5653   3.533   5.238   5.123 -0.3560  0.6138 -0.6189
 1472SOL    HW2 5654   3.523   5.201   5.035  0.8554 -0.7450 -0.2158
 1472SOL    HW3 5655   3.501   5.169   5.182  1.8435  0.1772  0.1525
 1472SOL    MW4 5656   3.527   5.224   5.119  0.0941  0.3769 -0.4639
 1473SOL     OW 5657   4.824   0.896   4.511  0.3887  0.5435  0.1452
 1473SOL    HW2 5658   4.914   0.926   4.499 -0.6921  3.0188 -2.9308
 1473SOL    HW3 5659   4.788   0.954   4.578  0.5661  0.7533  0.0600
 1473SOL    MW4 5660   4.831   0.908   4.518  0.2695  0.8978 -0.2719
 1474SOL     OW 5661   1.092   0.080   2.895 -0.0153 -0.4267 -0.1995
 1474SOL    HW2 5662   1.068  -0.010   2.916  3.0421 -1.4010 -0.4151
 1474SOL    HW3 5663   1.103   0.123   2.980 -0.0328 -0.6970 -0.0591
 1474SOL    MW4 5664   1.090   0.074   2.909  0.3858 -0.5909 -0.2094
 1475SOL     OW 5665   0.535   5.733   0.324 -0.5076  0.0416  0.6129
 1475SOL    HW2 5666   0.581   5.814   0.300 -0.0375 -0.5501 -0.5581
 1475SOL    HW3 5667   0.451   5.739   0.277  0.4053 -1.1102 -1.2587
 1475SOL    MW4 5668   0.530   5.745   0.315 -0.3251 -0.1884  0.2115
 1476SOL     OW 5669   4.538   0.980   2.767  0.0076 -0.5277  0.3797
 1476SOL    HW2 5670   4.495   0.988   2.852 -0.5837  2.0318 -0.0938
 1476SOL    HW3 5671   4.467   0.984   2.703  0.6691  0.5833 -0.3159
 1476SOL    MW4 5672   4.523   0.981   2.770  0.0169 -0.0434  0.2255
 1477SOL     OW 5673   1.713   2.419   2.996  0.2312  0.1807  0.2518
 1477SOL    HW2 5674   1.785   2.357   2.993  0.5778  0.5901 -0.0327
 1477SOL    HW3 5675   1.749   2.499   2.958  0.2577  1.0126  1.9355
 1477SOL    MW4 5676   1.727   2.422   2.991  0.2804  0.3445  0.4364
 1478SOL     OW 5677   5.172   5.319   2.046  0.8952 -0.3359 -0.4964
 1478SOL    HW2 5678   5.145   5.348   1.959  0.6740 -1.8065 -0.9532
 1478SOL    HW3 5679   5.184   5.224   2.036  1.4724 -0.4270  0.9241
 1478SOL    MW4 5680   5.170   5.310   2.033  0.9421 -0.5420 -0.3693
 1479SOL     OW 5681   4.030   5.061   2.753  0.3358  0.2004  0.4683
 1479SOL    HW2 5682   3.934   5.059   2.743  0.4338 -1.9884 -0.5110
 1479SOL    HW3 5683   4.063   5.008   2.681  2.4219  2.0857 -0.0842
 1479SOL    MW4 5684   4.021   5.054   2.742  0.6240  0.1604  0.2662
 1480SOL     OW 5685   5.780   0.071   0.267  0.0822 -0.6983  0.1108
 1480SOL    HW2 5686   5.856   0.121   0.238  0.6001 -2.0716 -1.0065
 1480SOL    HW3 5687   5.811  -0.019   0.272 -1.2507 -1.1633  0.4791
 1480SOL    MW4 5688   5.794   0.066   0.264 -0.0254 -0.9409  0.0120
 1481SOL     OW 5689   3.662   3.794   1.921  0.2663 -0.2248  1.0817
 1481SOL    HW2 5690   3.648   3.735   1.995  0.6332 -2.5510 -0.5949
 1481SOL    HW3 5691   3.577   3.836   1.907 -0.4718 -1.6071  1.2942
 1481SOL    MW4 5692   3.649   3.792   1.929  0.2173 -0.7141  0.8885
 1482SOL     OW 5693   3.014   2.795   5.336 -0.5291 -0.1466 -0.0297
 1482SOL    HW2 5694   3.036   2.871   5.281 -0.2306 -0.2460 -0.0463
 1482SOL    HW3 5695   3.084   2.790   5.400 -0.7981 -0.1259  0.2705
 1482SOL    MW4 5696   3.026   2.805   5.337 -0.5252 -0.1570  0.0077
 1483SOL     OW 5697   1.859   2.779   3.892  0.0089 -0.4552  0.0119
 1483SOL    HW2 5698   1.889   2.840   3.825 -1.2308 -0.5796 -0.6824
 1483SOL    HW3 5699   1.870   2.692   3.853  0.6874 -0.6216  0.5554
 1483SOL    MW4 5700   1.864   2.775   3.878 -0.0652 -0.4936 -0.0080
 1484SOL     OW 5701   3.578   6.054   4.356  0.2907  0.3079 -0.5899
 1484SOL    HW2 5702   3.529   6.015   4.284  3.1191 -3.0758 -0.9331
 1484SOL    HW3 5703   3.546   6.010   4.435 -0.3520  1.4710 -0.1673
 1484SOL    MW4 5704   3.567   6.043   4.357  0.5791  0.0149 -0.5794
 1485SOL     OW 5705   0.378   5.112   3.963 -0.6860 -0.0790  0.6366
 1485SOL    HW2 5706   0.375   5.101   4.058  0.3377 -0.4796  0.6291
 1485SOL    HW3 5707   0.330   5.193   3.947 -0.6489  0.1250  1.5143
 1485SOL    MW4 5708   0.371   5.121   3.974 -0.5460 -0.1050  0.7514
 1486SOL     OW 5709   1.318   3.389   3.330  0.1366 -0.3527  0.0722
 1486SOL    HW2 5710   1.378   3.440   3.384  0.2307 -0.3189 -0.0651
 1486SOL    HW3 5711   1.251   3.451   3.302 -1.0866 -0.7845  1.8491
 1486SOL    MW4 5712   1.317   3.404   3.333 -0.0124 -0.4052  0.2885
 1487SOL     OW 5713   2.494   0.362   5.121  0.0298  0.0295 -0.7273
 1487SOL    HW2 5714   2.416   0.306   5.123 -0.9042  1.1987 -2.0625
 1487SOL    HW3 5715   2.550   0.323   5.054  0.6470 -0.8616  0.2937
 1487SOL    MW4 5716   2.491   0.349   5.112 -0.0120  0.0662 -0.7688
 1488SOL     OW 5717   0.255   1.134   1.758 -0.2092 -0.5271  0.4383
 1488SOL    HW2 5718   0.333   1.087   1.729 -0.6502  0.0711 -1.9655
 1488SOL    HW3 5719   0.202   1.068   1.802  0.3256 -1.6905 -0.5815
 1488SOL    MW4 5720   0.259   1.119   1.760 -0.1968 -0.6017 -0.0134
 1489SOL     OW 5721   3.510   1.432   4.668 -0.0926 -0.6623 -0.2618
 1489SOL    HW2 5722   3.444   1.420   4.599  0.5370  1.3979 -1.3172
 1489SOL    HW3 5723   3.483   1.512   4.713  0.6818 -0.8187  0.5034
 1489SOL    MW4 5724   3.498   1.441   4.665  0.0927 -0.4111 -0.3001
 1490SOL     OW 5725   6.317   2.855   6.076  0.3365 -0.3059  0.3707
 1490SOL    HW2 5726   6.269   2.923   6.125 -0.4506 -1.4373  1.2233
 1490SOL    HW3 5727   6.409   2.874   6.095  0.1991  1.0598 -0.1586
 1490SOL    MW4 5728   6.323   2.867   6.085  0.2145 -0.2750  0.4133
 1491SOL     OW 5729   0.371   0.956   0.224  0.3202 -0.1893 -0.1614
 1491SOL    HW2 5730   0.346   1.034   0.174  0.0986 -1.1262 -1.5639
 1491SOL    HW3 5731   0.400   0.893   0.158 -1.5065 -2.0700  0.7067
 1491SOL    MW4 5732   0.371   0.958   0.209  0.0500 -0.5610 -0.2319
 1492SOL     OW 5733   2.777   0.368   5.683  0.0493  0.0381 -0.2056
 1492SOL    HW2 5734   2.838   0.311   5.730  0.6789  1.2322  0.4756
 1492SOL    HW3 5735   2.712   0.308   5.646  0.2142 -1.0523  1.1687
 1492SOL    MW4 5736   2.776   0.352   5.685  0.1541  0.0518  0.0656
 1493SOL     OW 5737   5.481   4.460   4.054  0.5105  0.6444  0.0919
 1493SOL    HW2 5738   5.481   4.434   4.146 -1.3023  0.1635 -0.0155
 1493SOL    HW3 5739   5.502   4.380   4.006  0.8308  0.7553  0.0405
 1493SOL    MW4 5740   5.484   4.446   4.060  0.3136  0.5956  0.0709
 1494SOL     OW 5741   4.797   2.988   5.122 -0.0672  0.5968  0.0971
 1494SOL    HW2 5742   4.767   2.983   5.031  0.3466 -0.2311 -0.0066
 1494SOL    HW3 5743   4.861   3.059   5.123  1.1107 -0.4211 -0.6206
 1494SOL    MW4 5744   4.802   2.997   5.110  0.1428  0.3533 -0.0113
 1495SOL     OW 5745   1.446   5.117   5.240 -0.5258 -0.0317 -0.2357
 1495SOL    HW2 5746   1.376   5.088   5.182  1.1794  0.8534 -2.9101
 1495SOL    HW3 5747   1.503   5.041   5.249  0.8797  0.6719 -2.4638
 1495SOL    MW4 5748   1.444   5.103   5.234 -0.1154  0.1779 -0.8825
 1496SOL     OW 5749   4.241   6.447   4.829 -0.5459 -0.6271  0.3628
 1496SOL    HW2 5750   4.168   6.405   4.784 -0.8607 -0.1749  0.4505
 1496SOL    HW3 5751   4.297   6.479   4.758 -1.3171  0.5659  0.2727
 1496SOL    MW4 5752   4.239   6.445   4.814 -0.6892 -0.4100  0.3625
 1497SOL     OW 5753   5.114   3.030   0.517 -0.4027  0.4759 -0.1382
 1497SOL    HW2 5754   5.126   3.107   0.572 -2.6282 -0.1074  1.2627
 1497SOL    HW3 5755   5.131   3.062   0.428  1.8405  1.7790  0.6794
 1497SOL    MW4 5756   5.118   3.044   0.512 -0.4004  0.5709  0.1545
 1498SOL     OW 5757   2.184   5.146   0.539  0.7008  0.0911 -0.2229
 1498SOL    HW2 5758   2.152   5.234   0.556 -1.1431 -0.4883 -0.5277
 1498SOL    HW3 5759   2.161   5.096   0.618 -0.7785 -0.7415 -1.1416
 1498SOL    MW4 5760   2.177   5.151   0.552  0.2623 -0.0952 -0.3843
 1499SOL     OW 5761   2.969   1.886   1.065 -0.1434  0.1063 -0.2452
 1499SOL    HW2 5762   2.951   1.857   1.154  1.4188 -0.9745 -0.2491
 1499SOL    HW3 5763   2.940   1.978   1.064 -2.3258 -0.4932  0.6515
 1499SOL    MW4 5764   2.963   1.895   1.077 -0.2252 -0.1154 -0.1274
 1500SOL     OW 5765   0.307   3.552   4.807 -0.4444 -0.1453  0.3263
 1500SOL    HW2 5766   0.358   3.472   4.823  0.7514  0.6442  0.5326
 1500SOL    HW3 5767   0.289   3.587   4.895 -1.1638 -0.2881  0.2467
 1500SOL    MW4 5768   0.311   3.546   4.821 -0.3815 -0.0600  0.3430
 1501SOL     OW 5769   3.518   2.990   1.877  0.6969  0.6619 -0.3015
 1501SOL    HW2 5770   3.526   2.946   1.792 -1.7957 -0.8981  0.1870
 1501SOL    HW3 5771   3.524   2.920   1.942  0.3071  1.5333  0.7057
 1501SOL    MW4 5772   3.520   2.975   1.874  0.3166  0.5710 -0.1042
 1502SOL     OW 5773   3.705   2.757   2.038 -0.2553  0.2784  0.0619
 1502SOL    HW2 5774   3.650   2.682   2.060 -0.2625  0.2212 -0.1490
 1502SOL    HW3 5775   3.684   2.823   2.104  0.6939 -0.3633  1.0485
 1502SOL    MW4 5776   3.695   2.756   2.050 -0.1310  0.1862  0.1643
 1503SOL     OW 5777   1.363   5.704   4.479  0.2010 -0.0171  0.7628
 1503SOL    HW2 5778   1.411   5.784   4.500  0.2315  0.0034  0.6205
 1503SOL    HW3 5779   1.271   5.728   4.492  0.1438  0.3297 -0.1896
 1503SOL    MW4 5780   1.357   5.718   4.483  0.1975  0.0314  0.6184
 1504SOL     OW 5781   4.214   2.926   4.654 -0.4397  0.6539  0.5730
 1504SOL    HW2 5782   4.300   2.898   4.622 -1.6616 -0.8229 -1.6453
 1504SOL    HW3 5783   4.205   3.016   4.623  0.6527  1.1921  1.7011
 1504SOL    MW4 5784   4.224   2.935   4.646 -0.4567  0.5301  0.4291
 1505SOL     OW 5785   5.611   6.064   6.322 -0.0895  0.6697  0.3563
 1505SOL    HW2 5786   5.632   6.075   6.415  2.4434  0.2129 -0.0992
 1505SOL    HW3 5787   5.532   6.010   6.322 -0.8052  1.6158  2.2337
 1505SOL    MW4 5788   5.603   6.059   6.334  0.1503  0.7343  0.5439
 1506SOL     OW 5789   5.633   6.455   4.496  0.2932  0.4022 -0.1580
 1506SOL    HW2 5790   5.705   6.505   4.458 -0.5593  1.5179 -0.3636
 1506SOL    HW3 5791   5.589   6.416   4.421  0.6954 -0.3087 -0.0298
 1506SOL    MW4 5792   5.637   6.456   4.481  0.2338  0.4556 -0.1682
 1507SOL     OW 5793   3.321   1.208   6.319 -0.3535 -0.0292 -0.7268
 1507SOL    HW2 5794   3.382   1.175   6.386  0.3620  2.6898  0.0851
 1507SOL    HW3 5795   3.247   1.147   6.323  0.6129 -1.1918  1.0353
 1507SOL    MW4 5796   3.319   1.196   6.329 -0.1316  0.1761 -0.3872
 1508SOL     OW 5797   1.177   2.904   3.820  0.3549  0.5216 -0.0357
 1508SOL    HW2 5798   1.095   2.901   3.771 -1.0289  0.5946  2.1265
 1508SOL    HW3 5799   1.220   2.821   3.802  0.2267  0.8139 -1.8362
 1508SOL    MW4 5800   1.172   2.893   3.811  0.1554  0.5698  0.0120
 1509SOL     OW 5801   5.631   1.967   0.024 -0.0483 -0.2720 -0.4514
 1509SOL    HW2 5802   5.635   2.028  -0.050 -0.1892 -0.9622 -1.0412
 1509SOL    HW3 5803   5.707   1.910   0.012  0.0477 -0.2578  0.0577
 1509SOL    MW4 5804   5.642   1.967   0.013 -0.0542 -0.3612 -0.4620
 1510SOL     OW 5805   1.296   4.429   4.139 -0.0637 -0.2652 -0.3559
 1510SOL    HW2 5806   1.379   4.437   4.185 -0.4669  0.7845  0.2218
 1510SOL    HW3 5807   1.293   4.338   4.110  0.3645 -0.8721  1.3898
 1510SOL    MW4 5808   1.306   4.418   4.141 -0.0604 -0.2068 -0.0493
 1511SOL     OW 5809   3.433   1.750   2.510  0.4674  0.2341 -0.3910
 1511SOL    HW2 5810   3.425   1.752   2.605 -0.0207 -0.2755 -0.4158
 1511SOL    HW3 5811   3.520   1.715   2.493  0.8308  0.9815 -0.1345
 1511SOL    MW4 5812   3.443   1.746   2.520  0.4510  0.2654 -0.3604
 1512SOL     OW 5813   0.844   0.645   6.369  0.0643  0.2508 -0.0029
 1512SOL    HW2 5814   0.930   0.668   6.406 -0.4292  2.5590 -0.1318
 1512SOL    HW3 5815   0.865   0.587   6.295  1.3935 -0.4492  0.8780
 1512SOL    MW4 5816   0.858   0.641   6.364  0.1746  0.4630  0.0964
 1513SOL     OW 5817   1.964   6.337   5.890  0.1054  0.0476 -0.4360
 1513SOL    HW2 5818   1.941   6.409   5.948 -0.9404 -0.9002  0.3647
 1513SOL    HW3 5819   2.027   6.285   5.939  0.3568  0.0590 -0.7446
 1513SOL    MW4 5820   1.969   6.340   5.904  0.0006 -0.0760 -0.3711
 1514SOL     OW 5821   5.760   0.725   3.315 -0.7736  0.1374 -0.3384
 1514SOL    HW2 5822   5.693   0.660   3.337 -1.6263  1.2197  0.3645
 1514SOL    HW3 5823   5.730   0.764   3.233  0.2041 -0.9423 -1.2458
 1514SOL    MW4 5824   5.747   0.721   3.307 -0.7571  0.1377 -0.3654
 1515SOL     OW 5825   1.287   6.246   6.404  0.2525  0.0715 -0.1114
 1515SOL    HW2 5826   1.240   6.164   6.391 -0.5360  0.5496 -0.3367
 1515SOL    HW3 5827   1.369   6.234   6.357 -0.0416 -0.4291 -0.5097
 1515SOL    MW4 5828   1.292   6.233   6.396  0.1097  0.0685 -0.1937
 1516SOL     OW 5829   0.969   1.174   2.293  0.1508  0.4163 -0.5171
 1516SOL    HW2 5830   0.960   1.212   2.205 -1.7202  0.8884 -0.1534
 1516SOL    HW3 5831   1.004   1.086   2.278 -1.8739 -0.2049 -1.8946
 1516SOL    MW4 5832   0.973   1.168   2.279 -0.3632  0.3966 -0.6509
 1517SOL     OW 5833   2.510   2.694   1.150 -0.8216 -0.1058  0.4798
 1517SOL    HW2 5834   2.423   2.656   1.136 -0.4845 -0.4344 -0.8767
 1517SOL    HW3 5835   2.569   2.618   1.149 -0.2782  0.3012 -0.9697
 1517SOL    MW4 5836   2.506   2.679   1.148 -0.7055 -0.0954  0.1096
 1518SOL     OW 5837   3.868   1.336   5.934 -0.5465 -0.0035  0.1618
 1518SOL    HW2 5838   3.844   1.245   5.952 -0.8004 -0.1282 -0.7856
 1518SOL    HW3 5839   3.918   1.363   6.011 -1.7847 -0.4528  1.1584
 1518SOL    MW4 5840   3.871   1.327   5.947 -0.7434 -0.0792  0.1683
 1519SOL     OW 5841   0.673   3.800   2.937  0.0810  0.2072  0.0755
 1519SOL    HW2 5842   0.727   3.876   2.958  0.4433 -0.2023  0.6313
 1519SOL    HW3 5843   0.583   3.829   2.957 -0.2733  1.7045 -3.0431
 1519SOL    MW4 5844   0.668   3.814   2.943  0.0821  0.3507 -0.2627
 1520SOL     OW 5845   4.363   2.668   2.302 -0.2688 -0.2986 -0.0685
 1520SOL    HW2 5846   4.408   2.682   2.219  0.8190  0.7397  0.6658
 1520SOL    HW3 5847   4.279   2.713   2.292  0.8276  1.9283  0.1901
 1520SOL    MW4 5848   4.358   2.676   2.290  0.0194  0.1322  0.0625
 1521SOL     OW 5849   2.551   5.223   5.681 -0.5979  0.2754 -0.2162
 1521SOL    HW2 5850   2.481   5.161   5.659  0.4401 -1.8139  1.8919
 1521SOL    HW3 5851   2.627   5.190   5.634  0.2714 -0.9355  1.8886
 1521SOL    MW4 5852   2.551   5.210   5.672 -0.3463 -0.1600  0.3396
 1522SOL     OW 5853   3.919   1.716   4.464  0.4777 -0.1405  0.1150
 1522SOL    HW2 5854   3.957   1.762   4.389  0.0723 -0.9776 -0.6326
 1522SOL    HW3 5855   3.889   1.632   4.428 -1.5604  0.2477  0.7691
 1522SOL    MW4 5856   3.920   1.711   4.449  0.1553 -0.1997  0.1026
 1523SOL     OW 5857   0.090   0.418   4.764 -0.0325  0.1949  0.1723
 1523SOL    HW2 5858   0.155   0.348   4.775 -0.9638 -0.9613 -1.2644
 1523SOL    HW3 5859   0.061   0.410   4.673  0.4395  3.0551 -0.3354
 1523SOL    MW4 5860   0.095   0.408   4.753 -0.0931  0.4197 -0.0842
 1524SOL     OW 5861   2.681   0.969   5.507 -0.5143 -0.2180  0.3023
 1524SOL    HW2 5862   2.748   0.902   5.520 -0.0869  0.0441 -0.4683
 1524SOL    HW3 5863   2.598   0.921   5.511 -0.1980 -0.8756 -0.6624
 1524SOL    MW4 5864   2.679   0.954   5.509 -0.4161 -0.2702  0.0733
 1525SOL     OW 5865   2.015   3.122   3.182  0.3056 -0.1563 -0.0262
 1525SOL    HW2 5866   2.039   3.091   3.095 -1.0677 -0.8131 -0.2000
 1525SOL    HW3 5867   1.982   3.210   3.168  0.0632 -0.2704 -0.1723
 1525SOL    MW4 5868   2.014   3.130   3.169  0.0924 -0.2580 -0.0684
 1526SOL     OW 5869   2.633   4.743   4.812 -0.1436 -0.1946 -0.3160
 1526SOL    HW2 5870   2.623   4.757   4.717 -1.5850  0.8303 -0.0595
 1526SOL    HW3 5871   2.640   4.649   4.822  1.4750 -0.2619 -1.5362
 1526SOL    MW4 5872   2.633   4.733   4.801 -0.1202 -0.0682 -0.4431
 1527SOL     OW 5873   5.312   5.208   5.322 -0.3009  0.3635  0.2199
 1527SOL    HW2 5874   5.240   5.200   5.260 -0.4864 -1.0793  0.5643
 1527SOL    HW3 5875   5.390   5.186   5.272 -0.6340 -2.6274  0.7864
 1527SOL    MW4 5876   5.313   5.204   5.308 -0.3693 -0.2215  0.3401
 1528SOL     OW 5877   0.759   3.636   1.153  0.7945  0.6048 -0.1769
 1528SOL    HW2 5878   0.803   3.558   1.186  0.0224 -0.2909 -1.1741
 1528SOL    HW3 5879   0.695   3.602   1.090 -1.9582  1.7281  1.8028
 1528SOL    MW4 5880   0.756   3.621   1.149  0.3294  0.6348 -0.0473
 1529SOL     OW 5881   0.128   4.350   0.469 -0.2791  0.1325  0.0554
 1529SOL    HW2 5882   0.203   4.402   0.439  0.4163 -0.1488  1.2676
 1529SOL    HW3 5883   0.149   4.261   0.443 -0.6056  0.1755 -0.3685
 1529SOL    MW4 5884   0.141   4.345   0.461 -0.2305  0.1011  0.1594
 1530SOL     OW 5885   5.806   6.143   3.565  0.0613 -0.2387  0.1482
 1530SOL    HW2 5886   5.837   6.165   3.653  1.3825 -1.6266  0.0717
 1530SOL    HW3 5887   5.868   6.077   3.534 -0.9637 -0.4934 -1.4451
 1530SOL    MW4 5888   5.818   6.137   3.573  0.1004 -0.4554 -0.0721
 1531SOL     OW 5889   0.919   4.665   3.823  0.5188 -0.6006  0.1804
 1531SOL    HW2 5890   0.915   4.702   3.735  0.7316 -2.4524 -0.6628
 1531SOL    HW3 5891   0.859   4.718   3.875 -0.2443  0.0163 -1.2987
 1531SOL    MW4 5892   0.910   4.677   3.818  0.4462 -0.7636 -0.1260
 1532SOL     OW 5893   2.016   3.283   2.389 -0.2901 -0.5195 -0.5617
 1532SOL    HW2 5894   2.068   3.307   2.312 -0.7965 -0.0299 -0.7568
 1532SOL    HW3 5895   2.062   3.325   2.462  1.2636 -2.5018 -0.3031
 1532SOL    MW4 5896   2.029   3.292   2.388 -0.1519 -0.7164 -0.5533
 1533SOL     OW 5897   6.322   3.726   0.440  0.0402  0.3762  0.1705
 1533SOL    HW2 5898   6.411   3.692   0.440 -0.3220 -0.6281  0.7358
 1533SOL    HW3 5899   6.333   3.821   0.438  1.2451  0.4353  3.1397
 1533SOL    MW4 5900   6.335   3.734   0.440  0.1514  0.2515  0.6369
 1534SOL     OW 5901   0.138   5.267   3.181  0.1687  0.0881 -0.0591
 1534SOL    HW2 5902   0.151   5.174   3.196 -0.1692  0.3208  1.9517
 1534SOL    HW3 5903   0.200   5.289   3.111  0.9194 -1.4529  0.0903
 1534SOL    MW4 5904   0.148   5.258   3.174  0.2232 -0.0845  0.2259
 1535SOL     OW 5905   0.933   1.171   3.146  0.8374  0.0437  0.1088
 1535SOL    HW2 5906   1.021   1.186   3.113  0.4556 -2.0141 -2.0538
 1535SOL    HW3 5907   0.878   1.231   3.096  0.6465 -0.8628 -0.7844
 1535SOL    MW4 5908   0.937   1.181   3.135  0.7618 -0.3474 -0.2944
 1536SOL     OW 5909   5.802   4.230   5.282 -0.0852  0.1486  0.2917
 1536SOL    HW2 5910   5.780   4.188   5.199 -0.4260 -1.3738  1.0986
 1536SOL    HW3 5911   5.721   4.270   5.312  0.1351  1.0519 -0.2764
 1536SOL    MW4 5912   5.789   4.229   5.275 -0.1011  0.0669  0.3232
 1537SOL     OW 5913   3.291   3.761   4.775 -0.2045  0.1368  0.3393
 1537SOL    HW2 5914   3.321   3.671   4.764  0.5405  0.2397  1.3136
 1537SOL    HW3 5915   3.316   3.783   4.865  0.6748  1.6956 -0.2524
 1537SOL    MW4 5916   3.299   3.752   4.786  0.0098  0.3561  0.3898
 1538SOL     OW 5917   4.470   5.149   0.671 -0.0892  0.3290 -0.0033
 1538SOL    HW2 5918   4.549   5.121   0.716 -0.8231  0.2080  1.2603
 1538SOL    HW3 5919   4.425   5.067   0.649 -0.1000  0.4092 -0.2819
 1538SOL    MW4 5920   4.474   5.134   0.674 -0.1874  0.3237  0.1266
 1539SOL     OW 5921   2.382   6.461   5.200 -0.0353  0.5064  0.0369
 1539SOL    HW2 5922   2.294   6.426   5.214 -1.4004  3.8789  1.1353
 1539SOL    HW3 5923   2.429   6.442   5.281  0.8125 -2.4969 -1.0596
 1539SOL    MW4 5924   2.377   6.454   5.212 -0.1036  0.5551  0.0371
 1540SOL     OW 5925   3.198   5.886   0.598 -0.0230  0.0895 -0.6045
 1540SOL    HW2 5926   3.115   5.839   0.597 -0.0828  0.1728  0.3276
 1540SOL    HW3 5927   3.199   5.934   0.680  0.0075  1.8161 -1.5591
 1540SOL    MW4 5928   3.187   5.886   0.608 -0.0269  0.3283 -0.6075
 1541SOL     OW 5929   5.124   6.305   6.062 -0.6733 -0.1684 -0.6031
 1541SOL    HW2 5930   5.067   6.253   6.118  1.1201 -1.4248  0.1222
 1541SOL    HW3 5931   5.200   6.325   6.116 -0.0545  0.8080 -1.7843
 1541SOL    MW4 5932   5.126   6.301   6.076 -0.3550 -0.2053 -0.6632
 1542SOL     OW 5933   2.273   5.961   6.088  0.3190 -0.4725 -0.5765
 1542SOL    HW2 5934   2.244   6.041   6.044  0.5468  0.2175  0.4796
 1542SOL    HW3 5935   2.240   5.969   6.177  2.3044 -0.4262  0.2199
 1542SOL    MW4 5936   2.265   5.973   6.094  0.6110 -0.3754 -0.3321
 1543SOL     OW 5937   1.817   5.763   4.337 -0.5562 -0.3462 -0.2387
 1543SOL    HW2 5938   1.910   5.747   4.321 -0.1156  0.3088  1.4730
 1543SOL    HW3 5939   1.775   5.678   4.320  0.5313 -0.9893  0.1893
 1543SOL    MW4 5940   1.824   5.750   4.333 -0.3546 -0.3446  0.0436
 1544SOL     OW 5941   0.697   2.861   5.518 -0.0688  0.1071  0.3876
 1544SOL    HW2 5942   0.771   2.815   5.478 -0.4189  0.1302 -0.3047
 1544SOL    HW3 5943   0.686   2.940   5.464 -1.1898 -0.3671 -0.1075
 1544SOL    MW4 5944   0.705   2.865   5.506 -0.2629  0.0476  0.2310
 1545SOL     OW 5945   4.631   5.142   4.498  0.0431  0.4031  0.6123
 1545SOL    HW2 5946   4.697   5.124   4.565  1.7508 -0.2745 -1.1538
 1545SOL    HW3 5947   4.640   5.236   4.479  1.2524  0.1337 -0.3007
 1545SOL    MW4 5948   4.641   5.152   4.504  0.4280  0.2781  0.2588
 1546SOL     OW 5949   6.181   5.707   5.161  0.1236  0.1118 -0.0002
 1546SOL    HW2 5950   6.215   5.720   5.250  0.8462  1.7854 -0.4797
 1546SOL    HW3 5951   6.128   5.628   5.167 -0.5338  0.6453  2.1235
 1546SOL    MW4 5952   6.178   5.699   5.174  0.1322  0.4030  0.2168
 1547SOL     OW 5953   1.062   0.888   4.081  0.1870  0.6883 -0.3139
 1547SOL    HW2 5954   1.025   0.810   4.040 -1.6524  1.6477 -0.5947
 1547SOL    HW3 5955   1.156   0.872   4.083 -0.1624 -1.6880  0.0096
 1547SOL    MW4 5956   1.070   0.875   4.076 -0.1018  0.5014 -0.3082
 1548SOL     OW 5957   2.931   5.273   0.448  0.4374 -0.1233 -0.7491
 1548SOL    HW2 5958   2.863   5.218   0.409  0.3676 -0.0421 -0.7436
 1548SOL    HW3 5959   2.956   5.228   0.528 -0.6327  0.5543  0.0047
 1548SOL    MW4 5960   2.925   5.260   0.454  0.2870 -0.0232 -0.6490
 1549SOL     OW 5961   0.967   6.055   5.484 -0.4708  0.0528  0.3626
 1549SOL    HW2 5962   0.887   6.021   5.444 -0.8767  0.9106  0.4169
 1549SOL    HW3 5963   1.024   6.075   5.409 -0.8038  0.6172  0.2476
 1549SOL    MW4 5964   0.964   6.053   5.469 -0.5683  0.2404  0.3546
 1550SOL     OW 5965   4.905   3.384   2.220  0.0888 -0.0826 -0.0316
 1550SOL    HW2 5966   4.813   3.394   2.242  0.2801  0.1468  0.7033
 1550SOL    HW3 5967   4.936   3.474   2.204  0.6899  0.1149  1.9089
 1550SOL    MW4 5968   4.897   3.397   2.221  0.1934 -0.0263  0.3214
 1551SOL     OW 5969   6.071   1.534   4.039  0.2728  0.1356 -0.3894
 1551SOL    HW2 5970   6.035   1.616   4.072 -0.1881  0.0013 -0.5544
 1551SOL    HW3 5971   6.135   1.508   4.105 -0.7354 -0.2058  0.4778
 1551SOL    MW4 5972   6.075   1.542   4.052  0.0790  0.0729 -0.2968
 1552SOL     OW 5973   6.162   3.032   2.888  0.0204 -0.2985  0.0597
 1552SOL    HW2 5974   6.073   3.066   2.890  0.1770  0.1131 -0.0005
 1552SOL    HW3 5975   6.160   2.955   2.945 -0.1593  0.2291  0.7708
 1552SOL    MW4 5976   6.150   3.026   2.896  0.0174 -0.1746  0.1456
 1553SOL     OW 5977   4.598   4.393   2.255  0.1207  0.7942  0.5065
 1553SOL    HW2 5978   4.630   4.304   2.242 -2.1918  0.1673 -1.6571
 1553SOL    HW3 5979   4.666   4.449   2.218  1.1357 -0.0969  0.9675
 1553SOL    MW4 5980   4.611   4.388   2.249 -0.0505  0.5939  0.2818
 1554SOL     OW 5981   0.900   5.192   3.886 -0.8511  0.0471  0.2007
 1554SOL    HW2 5982   0.822   5.206   3.940  0.7733  1.2176  2.4053
 1554SOL    HW3 5983   0.969   5.170   3.949  0.4648 -1.7299 -1.7540
 1554SOL    MW4 5984   0.899   5.191   3.902 -0.4631 -0.0329  0.2336
 1555SOL     OW 5985   1.466   5.309   2.249 -0.7306  0.6188  0.1019
 1555SOL    HW2 5986   1.458   5.360   2.330 -2.2429  0.8501 -0.1539
 1555SOL    HW3 5987   1.387   5.255   2.248 -1.3942  1.5358 -1.8222
 1555SOL    MW4 5988   1.454   5.309   2.260 -1.0177  0.7703 -0.1857
 1556SOL     OW 5989   2.509   5.895   0.780 -0.0593 -0.3744  0.0183
 1556SOL    HW2 5990   2.486   5.919   0.870 -0.4558 -0.6455 -0.0053
 1556SOL    HW3 5991   2.534   5.977   0.739  3.0638 -0.6197  1.1926
 1556SOL    MW4 5992   2.509   5.909   0.786  0.3005 -0.4425  0.1701
 1557SOL     OW 5993   3.339   5.841   2.519  0.3064  0.0704 -0.1259
 1557SOL    HW2 5994   3.345   5.853   2.424  0.9989  1.4757  0.0831
 1557SOL    HW3 5995   3.264   5.893   2.546  0.1464 -0.2791  0.1217
 1557SOL    MW4 5996   3.330   5.849   2.510  0.3767  0.2097 -0.0656
 1558SOL     OW 5997   2.883   3.966   3.138  0.2632  0.5773  0.3016
 1558SOL    HW2 5998   2.976   3.945   3.131  0.2491  0.3680  0.6900
 1558SOL    HW3 5999   2.840   3.881   3.149  0.0339  0.6789  0.1944
 1558SOL    MW4 6000   2.890   3.952   3.139  0.2311  0.5631  0.3387
 1559SOL     OW 6001   4.770   3.571   3.726 -0.7220 -0.1788 -0.0635
 1559SOL    HW2 6002   4.789   3.492   3.777 -0.6601 -0.0604  0.0994
 1559SOL    HW3 6003   4.843   3.577   3.665 -1.2857 -0.8439 -0.8104
 1559SOL    MW4 6004   4.782   3.562   3.725 -0.7882 -0.2509 -0.1406
 1560SOL     OW 6005   6.155   4.215   3.024 -0.0953 -0.3978  0.2157
 1560SOL    HW2 6006   6.166   4.133   2.977 -0.0476  0.1598 -0.7693
 1560SOL    HW3 6007   6.086   4.261   2.976 -0.4016 -0.0178  0.9883
 1560SOL    MW4 6008   6.147   4.210   3.012 -0.1294 -0.2741  0.1876
 1561SOL     OW 6009   4.870   0.670   0.336 -0.5320  0.1507 -0.0106
 1561SOL    HW2 6010   4.927   0.737   0.374 -0.9600 -0.2039  1.3248
 1561SOL    HW3 6011   4.916   0.641   0.257  1.6077 -0.6806  1.4315
 1561SOL    MW4 6012   4.884   0.675   0.331 -0.3062 -0.0058  0.3559
 1562SOL     OW 6013   4.951   2.021   4.569  0.0687  0.4079  0.1974
 1562SOL    HW2 6014   4.877   2.062   4.525 -0.0798  0.4979  0.5263
 1562SOL    HW3 6015   4.994   2.092   4.616  0.2416  0.3191  0.1774
 1562SOL    MW4 6016   4.947   2.036   4.570  0.0719  0.4081  0.2382
 1563SOL     OW 6017   2.558   3.944   2.922  0.1185  0.2372 -0.1988
 1563SOL    HW2 6018   2.590   3.988   3.000  1.1139 -0.5374 -0.1543
 1563SOL    HW3 6019   2.505   3.871   2.955 -0.1101  0.3774 -0.2544
 1563SOL    MW4 6020   2.555   3.940   2.936  0.2196  0.1535 -0.2002
 1564SOL     OW 6021   6.336   2.553   3.650 -0.1060  0.3916  0.4285
 1564SOL    HW2 6022   6.339   2.460   3.628  0.6058  0.9983 -2.3366
 1564SOL    HW3 6023   6.404   2.593   3.596 -0.4126  2.5574  1.5328
 1564SOL    MW4 6024   6.346   2.546   3.640 -0.0525  0.7574  0.2094
 1565SOL     OW 6025   3.793   6.198   2.691 -0.4220 -0.5174 -0.3608
 1565SOL    HW2 6026   3.864   6.232   2.746 -0.4668  0.8460 -1.1037
 1565SOL    HW3 6027   3.806   6.103   2.691  0.1155 -0.4730  1.2452
 1565SOL    MW4 6028   3.804   6.190   2.698 -0.3570 -0.3317 -0.2469
 1566SOL     OW 6029   1.817   4.190   4.104 -0.2265 -0.6582 -0.7054
 1566SOL    HW2 6030   1.741   4.132   4.105 -0.7431  0.0088 -0.8824
 1566SOL    HW3 6031   1.851   4.188   4.193 -1.9708  1.0013  0.0685
 1566SOL    MW4 6032   1.811   4.182   4.116 -0.5248 -0.3512 -0.6267
 1567SOL     OW 6033   2.987   4.494   2.061  0.0716  0.0941  0.0824
 1567SOL    HW2 6034   2.994   4.501   2.156 -0.9023  1.9444  0.0706
 1567SOL    HW3 6035   2.920   4.427   2.047 -0.1878  0.2129  0.7213
 1567SOL    MW4 6036   2.979   4.486   2.071 -0.0911  0.3539  0.1651
 1568SOL     OW 6037   5.951   3.296   5.622 -0.0675 -0.6685 -0.0814
 1568SOL    HW2 6038   5.954   3.336   5.709 -0.6110  1.4682 -0.9616
 1568SOL    HW3 6039   6.043   3.297   5.593  0.1489 -1.6023  0.5230
 1568SOL    MW4 6040   5.964   3.302   5.629 -0.1107 -0.5098 -0.1178
 1569SOL     OW 6041   3.135   5.337   6.120  0.6212 -0.3498 -0.6414
 1569SOL    HW2 6042   3.104   5.303   6.204 -0.5102  0.6493 -0.6432
 1569SOL    HW3 6043   3.185   5.415   6.143  0.8603 -0.4397 -0.8550
 1569SOL    MW4 6044   3.137   5.343   6.134  0.5035 -0.2299 -0.6698
 1570SOL     OW 6045   1.647   4.596   0.117  0.2961  0.3183 -0.6415
 1570SOL    HW2 6046   1.617   4.667   0.173  0.7946 -0.5876  0.8227
 1570SOL    HW3 6047   1.575   4.582   0.055 -0.3335  1.2258 -0.1315
 1570SOL    MW4 6048   1.634   4.603   0.116  0.2788  0.3185 -0.3810
 1571SOL     OW 6049   5.005   2.467   4.998  0.1365  0.1224  0.1441
 1571SOL    HW2 6050   4.976   2.407   4.929 -0.7944  1.5535 -0.7439
 1571SOL    HW3 6051   5.027   2.409   5.071 -0.9491 -1.3014 -0.5998
 1571SOL    MW4 6052   5.004   2.451   4.999 -0.1296  0.1234 -0.0712
 1572SOL     OW 6053   3.139   0.747   5.280 -0.1426  0.2098  0.4224
 1572SOL    HW2 6054   3.206   0.813   5.299 -0.9882  0.7783  1.5150
 1572SOL    HW3 6055   3.101   0.775   5.197  1.2343 -0.3518 -0.4276
 1572SOL    MW4 6056   3.143   0.759   5.272 -0.0725  0.2107  0.4544
 1573SOL     OW 6057   3.606   0.513   2.170 -0.6511 -0.1775  0.6852
 1573SOL    HW2 6058   3.552   0.436   2.186 -0.8897 -0.0116  0.6820
 1573SOL    HW3 6059   3.584   0.573   2.241 -0.6501 -0.0128  0.5469
 1573SOL    MW4 6060   3.596   0.511   2.181 -0.6825 -0.1339  0.6665
 1574SOL     OW 6061   3.742   2.776   4.447  0.2232 -1.2081  0.3906
 1574SOL    HW2 6062   3.739   2.841   4.376 -0.6887 -2.1071 -0.4447
 1574SOL    HW3 6063   3.764   2.694   4.403  0.7078 -1.5909  1.3239
 1574SOL    MW4 6064   3.744   2.773   4.432  0.1668 -1.3772  0.4035
 1575SOL     OW 6065   4.052   5.282   2.357  0.0220 -0.1765 -0.2389
 1575SOL    HW2 6066   4.077   5.195   2.329  0.7658  0.4391 -1.5376
 1575SOL    HW3 6067   3.984   5.309   2.295  0.8256  0.7245 -0.7469
 1575SOL    MW4 6068   4.046   5.274   2.345  0.2261  0.0236 -0.4773
 1576SOL     OW 6069   4.585   0.457   2.347  0.0919 -0.3025  0.3981
 1576SOL    HW2 6070   4.541   0.372   2.342 -0.5627  0.1088 -1.5455
 1576SOL    HW3 6071   4.514   0.521   2.353  0.1906  0.4364 -3.6150
 1576SOL    MW4 6072   4.570   0.454   2.347  0.0186 -0.1507 -0.3878
 1577SOL     OW 6073   2.702   5.026   5.433  0.4763 -0.2345 -0.4611
 1577SOL    HW2 6074   2.689   4.993   5.344  0.6500  0.2164 -0.6554
 1577SOL    HW3 6075   2.693   5.121   5.426 -0.3895 -0.2568  0.1627
 1577SOL    MW4 6076   2.699   5.034   5.420  0.3850 -0.1779 -0.4044
 1578SOL     OW 6077   2.669   4.073   5.255  0.4820  0.0545  0.6530
 1578SOL    HW2 6078   2.644   4.087   5.346  1.0710 -1.7881  1.1405
 1578SOL    HW3 6079   2.746   4.129   5.242 -0.5885  1.6119  0.7410
 1578SOL    MW4 6080   2.676   4.083   5.265  0.4185  0.0169  0.7289
 1579SOL     OW 6081   2.618   1.809   1.690 -0.4487 -0.4114 -0.0762
 1579SOL    HW2 6082   2.592   1.743   1.626 -4.7825 -0.5523  1.5211
 1579SOL    HW3 6083   2.611   1.765   1.774 -1.7461  1.5107  0.8966
 1579SOL    MW4 6084   2.613   1.795   1.692 -1.1917 -0.1764  0.2629
 1580SOL     OW 6085   0.840   5.210   1.200 -0.6101 -0.5402  0.5402
 1580SOL    HW2 6086   0.819   5.293   1.158  2.7239 -0.4563 -1.3897
 1580SOL    HW3 6087   0.833   5.227   1.294 -1.1949  1.5450  0.1614
 1580SOL    MW4 6088   0.836   5.223   1.207 -0.2473 -0.2540  0.2356
 1581SOL     OW 6089   1.215   1.923   5.279 -0.3696  0.0046 -0.2736
 1581SOL    HW2 6090   1.296   1.965   5.250 -0.1562 -0.7662 -0.8176
 1581SOL    HW3 6091   1.147   1.986   5.256 -0.1431 -0.2991 -1.9188
 1581SOL    MW4 6092   1.217   1.937   5.272 -0.3116 -0.1372 -0.5624
 1582SOL     OW 6093   0.578   5.067   0.133  0.5446 -0.1863 -0.4230
 1582SOL    HW2 6094   0.533   5.003   0.189 -1.9469  1.3561 -0.5279
 1582SOL    HW3 6095   0.555   5.040   0.044 -0.3797  0.7101 -0.4722
 1582SOL    MW4 6096   0.569   5.055   0.128  0.0939  0.1355 -0.4434
 1583SOL     OW 6097   1.592   4.821   1.581  0.2909 -0.4535  0.5088
 1583SOL    HW2 6098   1.512   4.815   1.634  0.3610  1.9767  1.0331
 1583SOL    HW3 6099   1.647   4.884   1.628  1.0403  0.5727 -1.6186
 1583SOL    MW4 6100   1.589   4.829   1.594  0.3991  0.0026  0.2973
 1584SOL     OW 6101   4.250   2.532   1.849  0.0717 -0.4029  0.0553
 1584SOL    HW2 6102   4.284   2.461   1.903 -0.9217 -0.9637 -0.0529
 1584SOL    HW3 6103   4.158   2.511   1.835 -0.9014  2.0774  1.9746
 1584SOL    MW4 6104   4.243   2.520   1.854 -0.1878 -0.1497  0.2942
 1585SOL     OW 6105   5.015   1.021   6.221 -0.0068  0.4397 -0.0873
 1585SOL    HW2 6106   5.056   0.973   6.149 -0.2186 -0.3230  0.2929
 1585SOL    HW3 6107   5.080   1.018   6.292 -0.4777 -0.2878  0.3244
 1585SOL    MW4 6108   5.029   1.015   6.221 -0.0968  0.2431  0.0172
 1586SOL     OW 6109   3.143   3.704   0.219 -0.0316 -0.2021 -0.4266
 1586SOL    HW2 6110   3.209   3.727   0.155  0.5051 -0.8884 -0.1353
 1586SOL    HW3 6111   3.079   3.775   0.216  0.5815  0.3264 -0.9027
 1586SOL    MW4 6112   3.143   3.716   0.210  0.1201 -0.2229 -0.4510
 1587SOL     OW 6113   5.518   0.342   5.479  0.2422 -0.1925 -0.3026
 1587SOL    HW2 6114   5.606   0.374   5.501  0.5300 -0.8025 -0.5442
 1587SOL    HW3 6115   5.525   0.312   5.389  0.6478 -3.1830  0.6164
 1587SOL    MW4 6116   5.530   0.342   5.470  0.3337 -0.6676 -0.2132
 1588SOL     OW 6117   5.362   0.837   1.895  0.4414 -0.3105 -0.1763
 1588SOL    HW2 6118   5.339   0.873   1.809  0.3254  2.1183  0.7934
 1588SOL    HW3 6119   5.350   0.743   1.885 -1.4595  0.0535 -2.2710
 1588SOL    MW4 6120   5.357   0.830   1.882  0.1753  0.0580 -0.3247
 1589SOL     OW 6121   6.338   5.227   5.345 -1.1129  0.2642 -0.0487
 1589SOL    HW2 6122   6.275   5.230   5.273 -1.2875  0.0149  0.0908
 1589SOL    HW3 6123   6.419   5.263   5.308 -1.5315  1.2319 -0.0330
 1589SOL    MW4 6124   6.340   5.232   5.330 -1.1912  0.3590 -0.0282
 1590SOL     OW 6125   1.881   5.801   3.911  0.0206 -0.6450  0.3071
 1590SOL    HW2 6126   1.927   5.759   3.838 -0.4280 -3.2589  1.4314
 1590SOL    HW3 6127   1.944   5.864   3.945  1.1879 -1.1601 -0.7844
 1590SOL    MW4 6128   1.895   5.804   3.906  0.1154 -1.0578  0.3114
 1591SOL     OW 6129   4.276   3.819   4.919  0.7981  0.1238 -0.2307
 1591SOL    HW2 6130   4.198   3.784   4.961  0.3103  1.0145 -0.3632
 1591SOL    HW3 6131   4.328   3.856   4.991  1.3970 -0.9979 -0.0698
 1591SOL    MW4 6132   4.272   3.819   4.934  0.8128  0.0934 -0.2270
 1592SOL     OW 6133   5.775   1.146   4.537  0.1979 -0.5665 -0.5820
 1592SOL    HW2 6134   5.839   1.080   4.510  0.5148 -0.2860 -0.5319
 1592SOL    HW3 6135   5.757   1.126   4.629 -1.1633 -1.7503 -1.0684
 1592SOL    MW4 6136   5.781   1.135   4.546  0.0601 -0.6857 -0.6396
 1593SOL     OW 6137   1.300   6.201   1.300  0.2379  0.0126  0.2341
 1593SOL    HW2 6138   1.239   6.175   1.231  0.9214 -1.8870  0.2941
 1593SOL    HW3 6139   1.244   6.215   1.377 -0.1420 -2.7198  0.5740
 1593SOL    MW4 6140   1.284   6.199   1.301  0.2779 -0.5985  0.2868
 1594SOL     OW 6141   3.052   3.314   6.108  0.4552 -0.3266 -0.3989
 1594SOL    HW2 6142   2.962   3.284   6.092  0.2327  0.4384 -0.6030
 1594SOL    HW3 6143   3.063   3.389   6.050  0.3105  1.2908  1.5868
 1594SOL    MW4 6144   3.042   3.320   6.098  0.4068 -0.0123 -0.1638
 1595SOL     OW 6145   1.136   2.144   4.968 -0.3905  0.4803  0.2798
 1595SOL    HW2 6146   1.163   2.068   4.916 -2.4738 -0.2584  0.1912
 1595SOL    HW3 6147   1.099   2.106   5.048 -2.8822  1.2361 -0.4181
 1595SOL    MW4 6148   1.135   2.129   4.972 -0.9941  0.4825  0.1761
 1596SOL     OW 6149   3.563   3.473   3.264 -0.5548 -0.0962 -0.2220
 1596SOL    HW2 6150   3.468   3.466   3.276 -0.5063  0.9580  1.0944
 1596SOL    HW3 6151   3.594   3.382   3.266 -1.6512 -0.5594 -2.0869
 1596SOL    MW4 6152   3.555   3.460   3.266 -0.6931 -0.0182 -0.2944
 1597SOL     OW 6153   1.314   2.659   3.769  0.3640  0.4800 -0.0969
 1597SOL    HW2 6154   1.383   2.639   3.706 -0.2313 -0.8571 -0.3462
 1597SOL    HW3 6155   1.235   2.617   3.733 -0.1473  0.3240  1.1557
 1597SOL    MW4 6156   1.313   2.651   3.756  0.2180  0.2830  0.0355
 1598SOL     OW 6157   4.992   5.530   3.039 -0.4966  0.4536 -0.2626
 1598SOL    HW2 6158   5.032   5.577   2.966  0.3893  1.6020  0.9212
 1598SOL    HW3 6159   5.065   5.484   3.081 -0.6276  1.3819  1.0423
 1598SOL    MW4 6160   5.007   5.530   3.035 -0.3970  0.7276  0.0657
 1599SOL     OW 6161   1.948   5.803   0.553  0.5388 -0.1806  0.3371
 1599SOL    HW2 6162   1.907   5.803   0.466 -0.0287  0.5449  0.5873
 1599SOL    HW3 6163   1.875   5.794   0.614  0.7276  1.1343  0.7978
 1599SOL    MW4 6164   1.933   5.802   0.550  0.4888  0.0886  0.4309
 1600SOL     OW 6165   2.326   3.211   4.514  0.0493  0.0284  0.0620
 1600SOL    HW2 6166   2.293   3.125   4.541 -1.5742 -0.1237 -2.1544
 1600SOL    HW3 6167   2.268   3.273   4.557  1.9021  0.1631  2.5729
 1600SOL    MW4 6168   2.314   3.208   4.523  0.0796  0.0261  0.1009
 1601SOL     OW 6169   1.497   1.234   2.009 -0.2015  0.3602  0.3085
 1601SOL    HW2 6170   1.541   1.173   1.950 -1.0391 -0.0392  0.0824
 1601SOL    HW3 6171   1.407   1.238   1.976 -0.5132  0.6330  1.1746
 1601SOL    MW4 6172   1.491   1.227   1.997 -0.3531  0.3435  0.3929
 1602SOL     OW 6173   5.413   0.130   3.421 -0.1893 -0.1983  0.1687
 1602SOL    HW2 6174   5.370   0.202   3.467  0.8411  0.3192  0.3407
 1602SOL    HW3 6175   5.497   0.119   3.466  0.9203  0.4330 -1.6459
 1602SOL    MW4 6176   5.418   0.138   3.433  0.0930 -0.0467 -0.0480
 1603SOL     OW 6177   5.144   6.420   5.519  0.1036  0.0959 -0.0655
 1603SOL    HW2 6178   5.066   6.412   5.464 -0.6049  0.8037  0.8148
 1603SOL    HW3 6179   5.181   6.332   5.521 -1.2185 -0.4733  0.2860
 1603SOL    MW4 6180   5.139   6.407   5.512 -0.1643  0.1142  0.0970
 1604SOL     OW 6181   4.273   2.087   2.362 -0.1793 -0.2759 -0.0292
 1604SOL    HW2 6182   4.310   2.126   2.440 -1.0592 -0.5549  0.5467
 1604SOL    HW3 6183   4.345   2.084   2.299  0.2823  0.8279  0.4406
 1604SOL    MW4 6184   4.288   2.092   2.364 -0.2345 -0.1671  0.1088
 1605SOL     OW 6185   0.629   5.639   2.037 -0.2055  0.2048 -0.2005
 1605SOL    HW2 6186   0.578   5.571   2.081 -0.5138  0.3805 -0.2858
 1605SOL    HW3 6187   0.662   5.596   1.958  0.1947 -0.0556  0.1059
 1605SOL    MW4 6188   0.626   5.624   2.032 -0.1934  0.1936 -0.1714
 1606SOL     OW 6189   6.363   5.857   0.349 -0.3413 -0.1028 -0.5563
 1606SOL    HW2 6190   6.445   5.878   0.304 -0.4240 -0.9144 -1.1020
 1606SOL    HW3 6191   6.298   5.852   0.278 -0.6291 -0.6306 -0.2570
 1606SOL    MW4 6192   6.365   5.859   0.333 -0.3902 -0.2795 -0.5888
 1607SOL     OW 6193   0.387   1.260   5.517  0.1857 -0.3321  0.5664
 1607SOL    HW2 6194   0.364   1.261   5.610  1.2706  0.8039  0.8418
 1607SOL    HW3 6195   0.319   1.314   5.475 -0.7241 -1.4416  0.5715
 1607SOL    MW4 6196   0.375   1.267   5.524  0.2088 -0.3286  0.6034
 1608SOL     OW 6197   4.826   4.002   1.237  0.1805  0.1610 -0.0946
 1608SOL    HW2 6198   4.798   4.064   1.304 -0.6108  0.4469 -0.6639
 1608SOL    HW3 6199   4.754   3.940   1.230  0.5294 -0.2324 -0.2426
 1608SOL    MW4 6200   4.813   4.002   1.245  0.1222  0.1468 -0.1893
 1609SOL     OW 6201   4.724   2.499   4.056 -0.0740  0.0572  0.0630
 1609SOL    HW2 6202   4.657   2.557   4.018 -0.7079 -1.2643 -0.9338
 1609SOL    HW3 6203   4.683   2.464   4.135 -0.0033  0.3441  0.2281
 1609SOL    MW4 6204   4.710   2.502   4.061 -0.1483 -0.0793 -0.0467
 1610SOL     OW 6205   1.803   0.960   6.010 -0.2215 -0.0493  0.2358
 1610SOL    HW2 6206   1.727   0.984   6.064 -0.0116  2.3003 -0.4103
 1610SOL    HW3 6207   1.875   0.952   6.073 -0.4024  0.6432  0.5438
 1610SOL    MW4 6208   1.802   0.962   6.025 -0.2177  0.3521  0.1912
 1611SOL     OW 6209   4.782   1.000   5.338  0.0634 -0.0469  0.4504
 1611SOL    HW2 6210   4.709   1.006   5.276 -1.1796  0.2154  1.8794
 1611SOL    HW3 6211   4.744   1.026   5.422  1.1381 -2.3660  1.7610
 1611SOL    MW4 6212   4.767   1.004   5.341  0.0412 -0.3183  0.8118
 1612SOL     OW 6213   5.472   5.672   5.780 -0.0061  0.8575 -0.2790
 1612SOL    HW2 6214   5.509   5.601   5.727 -0.7067 -0.5233  0.9724
 1612SOL    HW3 6215   5.431   5.731   5.717 -1.2998 -1.0075 -1.3031
 1612SOL    MW4 6216   5.471   5.670   5.765 -0.2692  0.4292 -0.2490
 1613SOL     OW 6217   3.933   4.015   6.118  0.3841  0.7518  0.6995
 1613SOL    HW2 6218   3.899   4.074   6.051 -0.4754  1.2259  1.5319
 1613SOL    HW3 6219   3.999   3.962   6.072 -1.4198 -0.1869 -0.9820
 1613SOL    MW4 6220   3.937   4.015   6.103  0.0327  0.6905  0.5875
 1614SOL     OW 6221   5.252   5.423   5.474  0.4730  0.5235 -0.1511
 1614SOL    HW2 6222   5.158   5.413   5.484  0.5068  0.6723  0.3168
 1614SOL    HW3 6223   5.276   5.356   5.409  0.6050 -2.2467  2.5240
 1614SOL    MW4 6224   5.243   5.413   5.466  0.4949  0.1777  0.2636
 1615SOL     OW 6225   2.495   0.143   2.168 -0.3880  0.3565 -0.1439
 1615SOL    HW2 6226   2.454   0.103   2.244 -1.4860 -0.9076 -1.3360
 1615SOL    HW3 6227   2.423   0.157   2.106  0.7376 -0.8324 -1.8395
 1615SOL    MW4 6228   2.480   0.140   2.170 -0.3844  0.0328 -0.5249
 1616SOL     OW 6229   0.662   4.631   0.584 -0.3672 -0.0918 -0.2628
 1616SOL    HW2 6230   0.688   4.551   0.538 -2.7765 -1.8047  1.0975
 1616SOL    HW3 6231   0.709   4.627   0.667 -2.0521 -1.3163  0.7004
 1616SOL    MW4 6232   0.671   4.620   0.589 -0.9074 -0.4794  0.0437
 1617SOL     OW 6233   6.130   5.690   3.031 -0.0118  0.4577  0.6249
 1617SOL    HW2 6234   6.084   5.734   3.103  0.1770  0.3078  0.8371
 1617SOL    HW3 6235   6.217   5.730   3.031  0.1468  0.1175  0.7900
 1617SOL    MW4 6236   6.136   5.701   3.041  0.0341  0.3930  0.6746
 1618SOL     OW 6237   3.941   0.557   5.223  0.5077 -0.2828 -0.0656
 1618SOL    HW2 6238   4.017   0.594   5.268 -0.6659 -0.6509  2.3789
 1618SOL    HW3 6239   3.936   0.467   5.254  0.3509 -0.9562 -1.9622
 1618SOL    MW4 6240   3.950   0.550   5.233  0.3322 -0.4202  0.0067
 1619SOL     OW 6241   3.564   0.328   1.754  0.1701 -0.0326  0.0086
 1619SOL    HW2 6242   3.529   0.266   1.691 -0.9648  0.2532  0.3386
 1619SOL    HW3 6243   3.622   0.275   1.809  0.5348 -0.4433 -0.7534
 1619SOL    MW4 6244   3.567   0.312   1.753  0.0684 -0.0491 -0.0484
 1620SOL     OW 6245   4.240   1.100   5.969 -0.6246 -0.0593 -0.0053
 1620SOL    HW2 6246   4.254   1.006   5.955 -1.4341 -0.2461  0.4050
 1620SOL    HW3 6247   4.212   1.133   5.884 -0.0683 -0.1301 -0.2229
 1620SOL    MW4 6248   4.238   1.092   5.956 -0.6580 -0.0933  0.0201
 1621SOL     OW 6249   5.615   0.992   0.903  0.3355 -0.0565  0.2007
 1621SOL    HW2 6250   5.651   0.905   0.918 -0.2265 -0.5778 -1.2857
 1621SOL    HW3 6251   5.680   1.052   0.941  2.4187 -0.9913 -1.6399
 1621SOL    MW4 6252   5.629   0.988   0.910  0.5362 -0.2486 -0.2383
 1622SOL     OW 6253   1.620   0.526   4.309 -0.6470 -0.6029 -0.1921
 1622SOL    HW2 6254   1.652   0.520   4.219 -0.0086 -1.0288  0.0563
 1622SOL    HW3 6255   1.685   0.478   4.361 -1.1606 -0.6072  0.4588
 1622SOL    MW4 6256   1.633   0.519   4.304 -0.6305 -0.6597 -0.0735
 1623SOL     OW 6257   3.116   3.058   2.798 -0.5759 -0.0773  0.3811
 1623SOL    HW2 6258   3.109   2.975   2.751 -0.5963  1.1531 -1.9305
 1623SOL    HW3 6259   3.161   3.035   2.880  0.6669 -2.1472 -0.7835
 1623SOL    MW4 6260   3.121   3.044   2.803 -0.4146 -0.1881 -0.0775
 1624SOL     OW 6261   1.152   2.374   4.822  0.0446  0.4665  0.1600
 1624SOL    HW2 6262   1.149   2.356   4.728  2.0627  2.0149 -0.2850
 1624SOL    HW3 6263   1.141   2.289   4.863 -0.1010 -0.3665 -1.5038
 1624SOL    MW4 6264   1.150   2.361   4.815  0.2917  0.5609 -0.1182
 1625SOL     OW 6265   0.498   2.491   2.285  0.3596 -0.5660  0.5726
 1625SOL    HW2 6266   0.469   2.469   2.196  0.2700  0.6265  0.2911
 1625SOL    HW3 6267   0.591   2.470   2.285  1.2150  2.6239 -0.9635
 1625SOL    MW4 6268   0.506   2.485   2.273  0.4607  0.0122  0.3328
 1626SOL     OW 6269   1.526   0.220   4.554  0.0304 -0.5423 -0.1820
 1626SOL    HW2 6270   1.456   0.157   4.572 -2.4945  2.2244  0.4734
 1626SOL    HW3 6271   1.539   0.214   4.460 -3.3846  0.8802 -0.9087
 1626SOL    MW4 6272   1.518   0.211   4.544 -0.7533  0.0104 -0.1914
 1627SOL     OW 6273   4.770   1.653   4.323  0.1475  0.0738  0.1435
 1627SOL    HW2 6274   4.715   1.728   4.346 -1.0860 -0.4887 -0.8008
 1627SOL    HW3 6275   4.856   1.690   4.306 -0.5603  1.3521 -0.7908
 1627SOL    MW4 6276   4.774   1.667   4.324 -0.1086  0.1682 -0.1044
 1628SOL     OW 6277   1.124   5.219   1.899  0.0542  0.7748  0.3012
 1628SOL    HW2 6278   1.182   5.143   1.913  0.7399  1.0986 -0.7045
 1628SOL    HW3 6279   1.086   5.235   1.986 -0.4902 -1.0090  0.4494
 1628SOL    MW4 6280   1.127   5.211   1.912  0.0729  0.5822  0.1881
 1629SOL     OW 6281   2.072   1.546   0.183 -0.3445 -0.8317  0.7201
 1629SOL    HW2 6282   2.139   1.480   0.168  0.3758 -0.0256  0.2653
 1629SOL    HW3 6283   2.090   1.580   0.270  2.0321  1.7239 -0.5863
 1629SOL    MW4 6284   2.083   1.542   0.192  0.0641 -0.3882  0.4877
 1630SOL     OW 6285   4.249   3.945   1.924 -0.3749 -0.6586  0.0944
 1630SOL    HW2 6286   4.333   3.900   1.935 -0.3635 -0.6850 -0.0974
 1630SOL    HW3 6287   4.217   3.959   2.013  0.5584  0.7259  0.2403
 1630SOL    MW4 6288   4.256   3.941   1.937 -0.2503 -0.4794  0.0884
 1631SOL     OW 6289   3.889   5.723   1.705  0.4873 -0.1780 -0.0430
 1631SOL    HW2 6290   3.939   5.644   1.686 -0.9462 -1.4238  1.0107
 1631SOL    HW3 6291   3.912   5.745   1.795  2.6551  2.0697 -1.0463
 1631SOL    MW4 6292   3.898   5.716   1.714  0.5842 -0.0458 -0.0364
 1632SOL     OW 6293   2.212   2.955   4.632 -0.1093 -0.0229 -0.0906
 1632SOL    HW2 6294   2.220   2.989   4.721  0.3901  1.8308 -0.8010
 1632SOL    HW3 6295   2.264   2.875   4.632 -0.4918 -0.3098  1.3876
 1632SOL    MW4 6296   2.220   2.949   4.644 -0.0939  0.1838  0.0107
 1633SOL     OW 6297   1.389   6.429   2.606 -0.1381 -0.1679  0.2227
 1633SOL    HW2 6298   1.315   6.378   2.572 -1.9637  2.4215 -0.0276
 1633SOL    HW3 6299   1.400   6.500   2.543 -0.1128  1.7461  2.2486
 1633SOL    MW4 6300   1.381   6.432   2.593 -0.3756  0.4263  0.4570
 1634SOL     OW 6301   6.336   3.766   2.141  0.0015 -0.2729  0.0618
 1634SOL    HW2 6302   6.294   3.782   2.056  3.8639  1.5737 -1.7661
 1634SOL    HW3 6303   6.308   3.678   2.165 -1.1971 -0.9165 -3.1731
 1634SOL    MW4 6304   6.327   3.757   2.133  0.3530 -0.1142 -0.6062
 1635SOL     OW 6305   3.220   3.680   2.693 -0.9907  0.0691 -0.4504
 1635SOL    HW2 6306   3.294   3.673   2.754 -0.2541 -3.5849 -1.5196
 1635SOL    HW3 6307   3.158   3.737   2.738  1.9741  2.4893  0.9536
 1635SOL    MW4 6308   3.222   3.687   2.707 -0.5023 -0.0937 -0.4062
 1636SOL     OW 6309   3.381   0.046   4.835 -0.4691  0.0807 -0.1378
 1636SOL    HW2 6310   3.432   0.099   4.896  1.5104 -3.3558  1.4557
 1636SOL    HW3 6311   3.394   0.088   4.750  2.0780  1.4082  0.7996
 1636SOL    MW4 6312   3.389   0.059   4.832  0.1281 -0.1975  0.1961
 1637SOL     OW 6313   0.022   1.241   1.657  0.1382 -0.1955 -0.3642
 1637SOL    HW2 6314   0.111   1.208   1.669  1.1955  2.6360  0.3103
 1637SOL    HW3 6315   0.032   1.323   1.610 -2.0231  0.6668  0.5148
 1637SOL    MW4 6316   0.035   1.247   1.653 -0.0075  0.2918 -0.1593
 1638SOL     OW 6317   1.683   4.238   1.075  0.4476  1.2236  0.5167
 1638SOL    HW2 6318   1.717   4.184   1.147 -1.5985 -1.1908 -0.2117
 1638SOL    HW3 6319   1.736   4.212   1.000 -0.3572  0.3912  0.2249
 1638SOL    MW4 6320   1.695   4.227   1.075  0.0715  0.7952  0.3821
 1639SOL     OW 6321   3.017   4.166   3.757  0.1770 -0.3041  0.3313
 1639SOL    HW2 6322   3.032   4.125   3.842 -0.7221 -1.8417 -0.2264
 1639SOL    HW3 6323   2.924   4.189   3.757 -0.0612 -1.2172 -0.6066
 1639SOL    MW4 6324   3.007   4.164   3.768  0.0269 -0.6274  0.1340
 1640SOL     OW 6325   0.655   1.885   2.141 -0.1500  0.1589 -0.2541
 1640SOL    HW2 6326   0.617   1.885   2.053  1.0708  1.4730 -0.8147
 1640SOL    HW3 6327   0.579   1.899   2.199 -0.6187  3.1386 -1.3740
 1640SOL    MW4 6328   0.640   1.887   2.137 -0.0508  0.7254 -0.4758
 1641SOL     OW 6329   3.907   4.679   4.803 -0.1044 -0.0151  0.3307
 1641SOL    HW2 6330   3.981   4.643   4.754 -0.7032 -0.1015 -0.5300
 1641SOL    HW3 6331   3.945   4.707   4.886  0.9576  0.2205 -0.2142
 1641SOL    MW4 6332   3.922   4.678   4.808 -0.0433  0.0046  0.1453
 1642SOL     OW 6333   5.587   5.981   3.711  0.1708 -0.0139 -0.4271
 1642SOL    HW2 6334   5.513   6.023   3.666 -0.5301 -0.2053  0.5227
 1642SOL    HW3 6335   5.658   6.045   3.706 -0.8415  1.2736  0.8973
 1642SOL    MW4 6336   5.587   5.995   3.704 -0.0552  0.1307 -0.1270
 1643SOL     OW 6337   0.175   1.350   5.369  0.0957 -0.2777 -0.2475
 1643SOL    HW2 6338   0.096   1.391   5.405  0.2878 -0.9890  1.0318
 1643SOL    HW3 6339   0.197   1.404   5.293 -0.7038  0.8881  0.3191
 1643SOL    MW4 6340   0.168   1.363   5.364  0.0155 -0.2177 -0.0040
 1644SOL     OW 6341   4.952   0.602   4.132  0.3139 -0.4437 -0.1020
 1644SOL    HW2 6342   4.867   0.600   4.088  0.3253 -0.4180 -0.1249
 1644SOL    HW3 6343   4.965   0.693   4.155  1.1512 -0.1156 -1.6913
 1644SOL    MW4 6344   4.942   0.614   4.129  0.4259 -0.3970 -0.3147
 1645SOL     OW 6345   2.885   1.775   0.544  0.2595  0.0433 -0.4435
 1645SOL    HW2 6346   2.814   1.790   0.482  0.5888  0.7220 -0.6615
 1645SOL    HW3 6347   2.900   1.859   0.586 -0.8604 -0.6981  1.5631
 1645SOL    MW4 6348   2.878   1.788   0.542  0.1552  0.0350 -0.2075
 1646SOL     OW 6349   4.984   6.043   2.018 -0.2263  0.0972  0.5763
 1646SOL    HW2 6350   4.918   6.029   2.087 -0.6286  0.3581  0.2477
 1646SOL    HW3 6351   4.939   6.019   1.937  0.5229 -1.0817  0.4758
 1646SOL    MW4 6352   4.969   6.038   2.017 -0.1806 -0.0239  0.5197
 1647SOL     OW 6353   2.587   5.922   0.036  0.0462 -0.1431 -0.0070
 1647SOL    HW2 6354   2.683   5.931   0.035 -0.0129  0.5908 -1.0598
 1647SOL    HW3 6355   2.572   5.835   0.072  1.1630 -0.6449 -0.6738
 1647SOL    MW4 6356   2.598   5.912   0.040  0.1857 -0.1125 -0.2339
 1648SOL     OW 6357   0.229   6.165   2.621  0.1807 -0.3289  0.4559
 1648SOL    HW2 6358   0.242   6.195   2.711 -0.0737 -0.3553  0.5027
 1648SOL    HW3 6359   0.310   6.118   2.599  0.4502  0.1117  0.4923
 1648SOL    MW4 6360   0.241   6.162   2.630  0.1827 -0.2743  0.4669
 1649SOL     OW 6361   5.065   5.869   3.447 -0.2109  0.5275 -0.7062
 1649SOL    HW2 6362   5.133   5.881   3.513 -3.1639  1.0257  2.5370
 1649SOL    HW3 6363   5.046   5.775   3.448  0.0067  0.4749 -1.1813
 1649SOL    MW4 6364   5.071   5.858   3.456 -0.5718  0.5863 -0.3409
 1650SOL     OW 6365   2.513   3.010   5.070  0.5311 -0.2992 -0.1633
 1650SOL    HW2 6366   2.594   3.014   5.122 -0.2529  2.5346  1.0669
 1650SOL    HW3 6367   2.443   3.030   5.132 -0.7688  0.3611 -1.7551
 1650SOL    MW4 6368   2.515   3.013   5.085  0.2562  0.1618 -0.2110
 1651SOL     OW 6369   4.188   1.245   5.738  0.4641  0.1062 -0.7700
 1651SOL    HW2 6370   4.121   1.200   5.686  0.6911  0.7363 -1.6483
 1651SOL    HW3 6371   4.147   1.328   5.764  0.7344  0.2921 -0.9235
 1651SOL    MW4 6372   4.174   1.250   5.734  0.5297  0.2139 -0.9061
 1652SOL     OW 6373   5.623   0.414   4.388 -0.3432  0.4231  0.1813
 1652SOL    HW2 6374   5.681   0.488   4.370  0.6291 -0.1691  0.8095
 1652SOL    HW3 6375   5.592   0.386   4.302 -0.2824  1.2035 -0.0998
 1652SOL    MW4 6376   5.627   0.420   4.374 -0.2069  0.4479  0.2271
 1653SOL     OW 6377   3.478   0.037   1.050  0.1161  0.3201 -0.2695
 1653SOL    HW2 6378   3.521   0.103   1.105  0.9776  0.3225 -0.9319
 1653SOL    HW3 6379   3.537  -0.039   1.053 -0.3548 -0.0523 -0.3498
 1653SOL    MW4 6380   3.491   0.036   1.058  0.1676  0.2713 -0.3675
 1654SOL     OW 6381   1.381   1.840   4.248 -0.7696  0.8430  0.3335
 1654SOL    HW2 6382   1.309   1.847   4.186  0.0002  1.9515 -0.4772
 1654SOL    HW3 6383   1.453   1.889   4.208  1.6327 -2.9788 -0.5274
 1654SOL    MW4 6384   1.381   1.848   4.235 -0.3511  0.4850  0.1130
 1655SOL     OW 6385   4.536   0.274   5.919  0.1996  0.1999 -0.0396
 1655SOL    HW2 6386   4.512   0.182   5.907 -1.0824  0.6519 -1.2606
 1655SOL    HW3 6387   4.527   0.289   6.013 -2.9407 -0.1187 -0.1812
 1655SOL    MW4 6388   4.532   0.264   5.930 -0.3838  0.2175 -0.2194
 1656SOL     OW 6389   1.262   1.551   2.989 -0.1694  0.5357 -0.3577
 1656SOL    HW2 6390   1.345   1.592   3.011 -0.7651  0.3890  2.6905
 1656SOL    HW3 6391   1.228   1.519   3.073 -2.1047 -1.7064 -1.8440
 1656SOL    MW4 6392   1.268   1.552   3.003 -0.5033  0.2205 -0.1516
 1657SOL     OW 6393   3.329   3.139   4.834 -0.2726  0.5505  0.1366
 1657SOL    HW2 6394   3.396   3.151   4.901  0.3786  0.1811 -0.4394
 1657SOL    HW3 6395   3.261   3.203   4.856 -0.4466 -0.1110  1.6166
 1657SOL    MW4 6396   3.328   3.149   4.845 -0.2096  0.4145  0.2559
 1658SOL     OW 6397   6.192   6.226   3.495  0.0088 -0.4922 -0.1858
 1658SOL    HW2 6398   6.266   6.169   3.474  0.7201  0.4602 -0.3283
 1658SOL    HW3 6399   6.187   6.287   3.422 -1.2592 -0.8617 -0.4329
 1658SOL    MW4 6400   6.201   6.226   3.483 -0.0647 -0.4153 -0.2372
 1659SOL     OW 6401   0.291   4.208   5.587  0.1323  0.0216 -0.1181
 1659SOL    HW2 6402   0.324   4.238   5.503  1.2405  0.6280  0.5083
 1659SOL    HW3 6403   0.231   4.136   5.566 -1.3569  1.5907 -1.5544
 1659SOL    MW4 6404   0.287   4.202   5.573  0.0821  0.3087 -0.2250
 1660SOL     OW 6405   0.567   6.252   2.328  0.3673 -0.0820  0.4487
 1660SOL    HW2 6406   0.656   6.218   2.316  0.8145  0.6475  1.5409
 1660SOL    HW3 6407   0.564   6.331   2.274  0.0944 -0.5441 -0.2339
 1660SOL    MW4 6408   0.579   6.258   2.319  0.3903 -0.0468  0.5027
 1661SOL     OW 6409   0.081   1.785   1.395  0.1319 -0.2073  0.1174
 1661SOL    HW2 6410   0.167   1.748   1.418  0.1837 -0.3637 -0.3215
 1661SOL    HW3 6411   0.034   1.713   1.354  0.8983  0.6610 -2.4505
 1661SOL    MW4 6412   0.086   1.771   1.393  0.2399 -0.1133 -0.2793
 1662SOL     OW 6413   0.221   2.779   2.111  0.1309  0.2591  0.2521
 1662SOL    HW2 6414   0.185   2.813   2.029  0.6133  0.5559  0.1607
 1662SOL    HW3 6415   0.180   2.693   2.121  0.6073 -0.1003 -0.6713
 1662SOL    MW4 6416   0.211   2.772   2.101  0.2574  0.2508  0.1182
 1663SOL     OW 6417   0.962   2.890   4.403  0.2222  0.3253 -0.4499
 1663SOL    HW2 6418   0.903   2.824   4.438 -0.6184  1.3911  0.1879
 1663SOL    HW3 6419   0.929   2.908   4.315 -0.5746  1.0955 -0.0063
 1663SOL    MW4 6420   0.950   2.884   4.396  0.0062  0.5675 -0.3073
 1664SOL     OW 6421   3.684   5.646   6.140  0.3263  0.2175 -0.2669
 1664SOL    HW2 6422   3.762   5.701   6.137  0.8693 -0.4515  0.9729
 1664SOL    HW3 6423   3.611   5.707   6.151  0.6725  0.8291 -1.2315
 1664SOL    MW4 6424   3.684   5.661   6.141  0.4436  0.2099 -0.2306
 1665SOL     OW 6425   4.895   2.545   0.284 -0.0488 -0.0958 -0.5115
 1665SOL    HW2 6426   4.963   2.575   0.344  0.2973 -2.2633  0.2811
 1665SOL    HW3 6427   4.935   2.473   0.236 -1.2990 -0.3848 -1.1687
 1665SOL    MW4 6428   4.909   2.540   0.285 -0.1681 -0.4199 -0.4937
 1666SOL     OW 6429   2.425   3.960   1.107  0.3474  0.6922 -0.0584
 1666SOL    HW2 6430   2.374   4.040   1.123  1.9075  1.7846 -0.2748
 1666SOL    HW3 6431   2.429   3.916   1.192  2.9293  3.0065  1.1648
 1666SOL    MW4 6432   2.419   3.965   1.120  0.8939  1.1417  0.0744
 1667SOL     OW 6433   2.325   0.469   3.830 -0.1816 -0.4955 -0.1973
 1667SOL    HW2 6434   2.325   0.538   3.896  0.6009 -1.1058  0.4600
 1667SOL    HW3 6435   2.249   0.489   3.775 -2.3968 -1.3780  2.3517
 1667SOL    MW4 6436   2.315   0.481   3.832 -0.3706 -0.6924  0.2257
 1668SOL     OW 6437   1.577   2.493   0.364 -0.1727 -0.1425 -0.1887
 1668SOL    HW2 6438   1.494   2.495   0.411 -0.0250  0.7729  0.0485
 1668SOL    HW3 6439   1.610   2.583   0.369  0.1798 -0.1806 -1.4634
 1668SOL    MW4 6440   1.571   2.505   0.371 -0.1067 -0.0268 -0.3256
 1669SOL     OW 6441   3.534   4.340   1.873 -0.0668 -0.1262  0.5031
 1669SOL    HW2 6442   3.549   4.375   1.785  1.1848 -0.7778  0.4254
 1669SOL    HW3 6443   3.598   4.269   1.881 -0.7425 -0.6323  1.6304
 1669SOL    MW4 6444   3.545   4.335   1.863  0.0092 -0.2790  0.6415
 1670SOL     OW 6445   4.767   5.971   2.210 -0.1635 -0.5298 -0.1505
 1670SOL    HW2 6446   4.742   5.887   2.170 -1.0205 -2.1031  3.3268
 1670SOL    HW3 6447   4.691   5.996   2.262  1.4923  0.3122  1.9971
 1670SOL    MW4 6448   4.754   5.963   2.211 -0.0581 -0.6263  0.5917
 1671SOL     OW 6449   2.765   1.381   2.926  0.7261  0.0922 -0.4786
 1671SOL    HW2 6450   2.804   1.463   2.958 -0.1401  0.9093 -1.4120
 1671SOL    HW3 6451   2.777   1.386   2.831  2.3534 -1.7891 -0.4243
 1671SOL    MW4 6452   2.772   1.393   2.917  0.8265 -0.0482 -0.5946
 1672SOL     OW 6453   4.923   1.488   1.011 -0.6095  0.2171 -0.8455
 1672SOL    HW2 6454   4.920   1.451   1.099 -1.1937  0.0360 -0.9354
 1672SOL    HW3 6455   4.865   1.432   0.960  0.0950  0.0438 -1.4553
 1672SOL    MW4 6456   4.915   1.476   1.016 -0.5936  0.1703 -0.9378
 1673SOL     OW 6457   1.805   1.604   4.376 -0.1779  0.5024  0.1030
 1673SOL    HW2 6458   1.815   1.655   4.296  0.7463 -1.0327 -0.7960
 1673SOL    HW3 6459   1.754   1.661   4.434  2.6166  3.3758  0.0006
 1673SOL    MW4 6460   1.799   1.618   4.373  0.3127  0.6790 -0.0292
 1674SOL     OW 6461   3.069   2.892   0.074 -0.0786  0.0321  0.2703
 1674SOL    HW2 6462   3.096   2.982   0.054 -1.8409  0.4885 -0.2326
 1674SOL    HW3 6463   3.079   2.885   0.169 -1.0666  1.1800  0.4771
 1674SOL    MW4 6464   3.074   2.903   0.084 -0.4415  0.2438  0.2312
 1675SOL     OW 6465   2.949   3.470   4.050  0.2574 -0.1562 -0.1871
 1675SOL    HW2 6466   2.887   3.491   3.980  0.3433  1.3713  0.1552
 1675SOL    HW3 6467   2.900   3.416   4.111 -1.1601  1.9793  0.6639
 1675SOL    MW4 6468   2.935   3.465   4.048  0.0817  0.3271 -0.0296
 1676SOL     OW 6469   1.643   3.089   3.295  0.1996 -0.3830  0.2570
 1676SOL    HW2 6470   1.581   3.021   3.271 -0.4904  0.3500 -0.0620
 1676SOL    HW3 6471   1.635   3.155   3.226 -0.5308  0.9255  1.5447
 1676SOL    MW4 6472   1.634   3.089   3.283  0.0122 -0.1136  0.3848
 1677SOL     OW 6473   6.127   6.194   4.413 -0.4132  0.5369 -0.8174
 1677SOL    HW2 6474   6.082   6.194   4.329  0.3418  2.0776 -1.2634
 1677SOL    HW3 6475   6.107   6.280   4.451  0.7178  0.5734 -0.2504
 1677SOL    MW4 6476   6.119   6.205   4.407 -0.1643  0.7450 -0.8014
 1678SOL     OW 6477   5.086   2.526   1.954 -0.1642  0.2955 -0.0628
 1678SOL    HW2 6478   5.108   2.575   1.874  0.9165  1.5380  0.9523
 1678SOL    HW3 6479   5.130   2.574   2.024 -0.9567 -0.8666  1.2731
 1678SOL    MW4 6480   5.095   2.539   1.953 -0.1262  0.3061  0.2474
 1679SOL     OW 6481   3.168   3.897   3.087 -0.0986  0.1251  0.1545
 1679SOL    HW2 6482   3.191   3.976   3.135 -0.6127  0.1100  0.4288
 1679SOL    HW3 6483   3.249   3.847   3.082 -0.0111  0.1952  0.8712
 1679SOL    MW4 6484   3.182   3.901   3.092 -0.1549  0.1324  0.2853
 1680SOL     OW 6485   5.768   6.210   1.495 -0.0277  0.2466  0.3430
 1680SOL    HW2 6486   5.820   6.289   1.511  0.0411  0.9650 -2.6415
 1680SOL    HW3 6487   5.832   6.140   1.488  0.4277  0.7759 -1.3467
 1680SOL    MW4 6488   5.783   6.211   1.496  0.0415  0.4112 -0.2737
 1681SOL     OW 6489   6.120   4.869   2.173  0.8072  0.0867  0.5998
 1681SOL    HW2 6490   6.142   4.962   2.166 -0.9508  0.7339  2.6435
 1681SOL    HW3 6491   6.082   4.848   2.087  1.3161  1.2181  0.0707
 1681SOL    MW4 6492   6.118   4.879   2.161  0.6424  0.3214  0.7996
 1682SOL     OW 6493   4.992   2.988   3.455 -0.3837  0.2071 -0.4469
 1682SOL    HW2 6494   4.926   3.026   3.397 -0.2552  1.0404 -0.0676
 1682SOL    HW3 6495   5.071   3.037   3.436  0.0104 -0.4566 -0.5485
 1682SOL    MW4 6496   4.993   3.000   3.445 -0.3148  0.2295 -0.4103
 1683SOL     OW 6497   5.281   2.908   4.032  0.6232  0.0869  0.1081
 1683SOL    HW2 6498   5.286   2.889   4.126  2.4180 -1.9749 -0.3208
 1683SOL    HW3 6499   5.333   2.987   4.020  0.4877  0.2875  0.8275
 1683SOL    MW4 6500   5.288   2.916   4.043  0.8422 -0.1587  0.1464
 1684SOL     OW 6501   4.042   1.586   3.963  0.1382 -0.6155 -0.6951
 1684SOL    HW2 6502   4.010   1.603   3.874  0.1334  0.0346 -0.5755
 1684SOL    HW3 6503   3.992   1.510   3.992 -0.5336 -0.2724 -0.9183
 1684SOL    MW4 6504   4.031   1.579   3.955  0.0489 -0.4844 -0.7088
 1685SOL     OW 6505   2.267   0.870   2.509 -0.3186  0.2279 -0.6434
 1685SOL    HW2 6506   2.180   0.881   2.548 -0.3745  2.4263 -1.3042
 1685SOL    HW3 6507   2.249   0.842   2.420 -0.3149  0.0552 -0.5913
 1685SOL    MW4 6508   2.253   0.867   2.503 -0.3255  0.4952 -0.7237
 1686SOL     OW 6509   0.437   1.477   1.123  0.2555  0.5536  0.1607
 1686SOL    HW2 6510   0.520   1.430   1.108  0.5845  1.5495 -1.3776
 1686SOL    HW3 6511   0.370   1.409   1.116  0.9213 -0.3549  1.8737
 1686SOL    MW4 6512   0.439   1.462   1.120  0.3868  0.5652  0.1838
 1687SOL     OW 6513   2.292   4.971   4.849 -0.4349  0.3356 -0.0310
 1687SOL    HW2 6514   2.377   5.014   4.838 -0.6586  0.7996  0.0256
 1687SOL    HW3 6515   2.236   5.009   4.781  0.1837 -2.0851 -2.0372
 1687SOL    MW4 6516   2.296   4.981   4.839 -0.3828  0.0774 -0.2882
 1688SOL     OW 6517   6.378   1.914   5.216 -0.8222 -0.3115 -0.1989
 1688SOL    HW2 6518   6.295   1.956   5.238  0.4121  1.5800  1.2521
 1688SOL    HW3 6519   6.364   1.821   5.235 -2.8076 -0.1679 -0.7458
 1688SOL    MW4 6520   6.365   1.907   5.221 -0.9213 -0.0430 -0.0796
 1689SOL     OW 6521   0.216   2.392   3.330  0.3443 -0.2847 -0.1997
 1689SOL    HW2 6522   0.201   2.469   3.275  2.0433  0.7527  0.7181
 1689SOL    HW3 6523   0.204   2.318   3.270  2.0256  0.7949 -1.9977
 1689SOL    MW4 6524   0.212   2.392   3.314  0.7903 -0.0054 -0.3158
 1690SOL     OW 6525   4.817   4.231   0.751  0.1159  0.1481 -0.4583
 1690SOL    HW2 6526   4.843   4.323   0.741 -1.3553  0.5520 -0.7505
 1690SOL    HW3 6527   4.875   4.198   0.820 -0.0076  1.5837  0.3952
 1690SOL    MW4 6528   4.828   4.239   0.759 -0.0945  0.3908 -0.3843
 1691SOL     OW 6529   0.702   5.296   2.885  0.3423 -0.4380  0.1767
 1691SOL    HW2 6530   0.716   5.224   2.947 -0.2773 -1.1858 -0.5324
 1691SOL    HW3 6531   0.643   5.260   2.819  0.5597  0.5140 -0.5602
 1691SOL    MW4 6532   0.696   5.282   2.885  0.2892 -0.4110 -0.0141
 1692SOL     OW 6533   2.124   2.435   6.182 -0.0928  0.2028  0.0150
 1692SOL    HW2 6534   2.028   2.430   6.178 -0.0734 -0.4365  0.1162
 1692SOL    HW3 6535   2.151   2.344   6.198  0.5632  0.2641 -0.6979
 1692SOL    MW4 6536   2.115   2.422   6.184 -0.0037  0.1265 -0.0657
 1693SOL     OW 6537   1.292   2.198   2.680  0.5106 -0.6943 -0.3973
 1693SOL    HW2 6538   1.269   2.206   2.772  0.8004 -0.3687 -0.3529
 1693SOL    HW3 6539   1.367   2.140   2.678  1.1293  0.0881 -0.3353
 1693SOL    MW4 6540   1.299   2.192   2.692  0.6305 -0.5481 -0.3832
 1694SOL     OW 6541   2.587   0.209   1.444 -0.5336  0.3996  0.0589
 1694SOL    HW2 6542   2.585   0.118   1.474 -0.5713 -1.2205 -4.2182
 1694SOL    HW3 6543   2.496   0.228   1.421 -0.4102  1.2842  0.2905
 1694SOL    MW4 6544   2.575   0.199   1.445 -0.5223  0.3026 -0.4749
 1695SOL     OW 6545   5.723   5.569   1.744  0.1838  0.1358 -0.3911
 1695SOL    HW2 6546   5.810   5.543   1.775 -0.2053 -0.3900  0.2945
 1695SOL    HW3 6547   5.712   5.521   1.662 -1.4633 -4.0220  1.9415
 1695SOL    MW4 6548   5.733   5.559   1.737 -0.0848 -0.4821  0.0071
 1696SOL     OW 6549   6.258   1.634   0.736 -0.0627 -0.0765  0.3875
 1696SOL    HW2 6550   6.353   1.633   0.738 -0.0184  1.3232 -0.0667
 1696SOL    HW3 6551   6.232   1.670   0.821 -0.1168  0.9779 -0.0574
 1696SOL    MW4 6552   6.267   1.639   0.747 -0.0640  0.2473  0.2689
 1697SOL     OW 6553   2.089   0.371   1.560  0.6389  0.3948 -0.0380
 1697SOL    HW2 6554   2.175   0.408   1.579  0.5220  0.5356  0.2230
 1697SOL    HW3 6555   2.087   0.362   1.464  0.8283  0.6665 -0.0668
 1697SOL    MW4 6556   2.100   0.374   1.550  0.6485  0.4492 -0.0074
 1698SOL     OW 6557   3.361   4.316   0.348 -0.5412  0.2730 -0.3942
 1698SOL    HW2 6558   3.450   4.323   0.314 -0.3137 -0.2801  0.0664
 1698SOL    HW3 6559   3.318   4.396   0.319  0.7474  1.6539  1.2414
 1698SOL    MW4 6560   3.367   4.327   0.340 -0.3412  0.3822 -0.1176
 1699SOL     OW 6561   5.423   4.410   3.375 -0.3332 -0.1115  0.2607
 1699SOL    HW2 6562   5.425   4.317   3.353  0.3621 -0.1465  0.4485
 1699SOL    HW3 6563   5.338   4.424   3.416  0.2606 -1.0469  1.8753
 1699SOL    MW4 6564   5.412   4.400   3.377 -0.1631 -0.2395  0.4985
 1700SOL     OW 6565   2.211   1.564   2.769  0.2299 -0.5243  0.0600
 1700SOL    HW2 6566   2.141   1.589   2.829 -0.5524 -0.8308 -0.7169
 1700SOL    HW3 6567   2.192   1.611   2.688  0.8539 -0.7032 -0.2003
 1700SOL    MW4 6568   2.199   1.573   2.767  0.2090 -0.5883 -0.0769
 1701SOL     OW 6569   1.576   2.918   0.243 -0.0413  0.1914  0.1261
 1701SOL    HW2 6570   1.634   2.872   0.303 -0.6753 -0.4556  0.2481
 1701SOL    HW3 6571   1.521   2.850   0.205  1.0107  0.4484 -1.9614
 1701SOL    MW4 6572   1.576   2.903   0.246  0.0139  0.1400 -0.1332
 1702SOL     OW 6573   1.477   2.211   1.955  0.6264  0.0007  0.1099
 1702SOL    HW2 6574   1.433   2.137   1.996 -1.6045  2.1267  1.8561
 1702SOL    HW3 6575   1.565   2.212   1.993 -0.0627 -0.4442  1.7704
 1702SOL    MW4 6576   1.483   2.201   1.965  0.2411  0.2225  0.5594
 1703SOL     OW 6577   3.901   3.838   0.599 -0.8550 -0.4686 -0.0629
 1703SOL    HW2 6578   3.911   3.929   0.629 -1.0955 -1.1389  2.2249
 1703SOL    HW3 6579   3.815   3.812   0.629 -0.2657 -1.8698  0.4887
 1703SOL    MW4 6580   3.891   3.847   0.607 -0.8090 -0.7419  0.3117
 1704SOL     OW 6581   3.893   2.719   3.416  0.1275 -0.1799  0.5018
 1704SOL    HW2 6582   3.872   2.654   3.348  2.8011 -0.0765 -0.5434
 1704SOL    HW3 6583   3.879   2.803   3.374 -0.3383 -0.0871  0.8349
 1704SOL    MW4 6584   3.889   2.721   3.401  0.4188 -0.1540  0.4079
 1705SOL     OW 6585   5.143   5.479   1.786 -0.3031 -0.0072 -0.0087
 1705SOL    HW2 6586   5.117   5.467   1.694 -0.4970  0.0811  0.0331
 1705SOL    HW3 6587   5.208   5.549   1.784  0.5907 -0.8245 -0.2193
 1705SOL    MW4 6588   5.148   5.486   1.773 -0.2108 -0.1034 -0.0310
 1706SOL     OW 6589   1.265   2.017   3.751 -0.3915 -0.4562  0.4772
 1706SOL    HW2 6590   1.282   1.923   3.758  2.2173 -0.1172 -0.1623
 1706SOL    HW3 6591   1.294   2.053   3.836 -1.3851 -0.2180  0.7243
 1706SOL    MW4 6592   1.271   2.010   3.763 -0.1784 -0.3801  0.4255
 1707SOL     OW 6593   0.251   0.103   1.736 -0.2064  0.1844  0.1037
 1707SOL    HW2 6594   0.205   0.175   1.693 -2.7582 -0.2337  1.8903
 1707SOL    HW3 6595   0.206   0.093   1.821  1.9173 -1.6540  1.1167
 1707SOL    MW4 6596   0.239   0.111   1.742 -0.2629 -0.1133  0.4731
 1708SOL     OW 6597   5.937   3.604   4.150  0.4220 -0.5440 -0.0569
 1708SOL    HW2 6598   5.990   3.563   4.218  1.1599 -2.0638 -1.4744
 1708SOL    HW3 6599   5.911   3.531   4.092  0.2006  0.7301 -1.6369
 1708SOL    MW4 6600   5.940   3.589   4.151  0.4902 -0.5764 -0.4524
 1709SOL     OW 6601   4.430   5.624   3.041 -0.1066  0.0748 -0.4370
 1709SOL    HW2 6602   4.466   5.536   3.028  0.2960  0.3063 -0.9565
 1709SOL    HW3 6603   4.363   5.633   2.974  0.5762  0.5350 -1.0824
 1709SOL    MW4 6604   4.426   5.613   3.031  0.0366  0.1661 -0.5907
 1710SOL     OW 6605   1.835   4.036   2.752  0.4020 -0.5873  0.1874
 1710SOL    HW2 6606   1.854   4.014   2.661  0.6443  1.4856 -0.3265
 1710SOL    HW3 6607   1.867   3.962   2.802  0.1093 -1.8510 -1.4236
 1710SOL    MW4 6608   1.842   4.024   2.747  0.3953 -0.4805 -0.0930
 1711SOL     OW 6609   3.588   5.004   5.773 -0.3570  0.0817 -0.0929
 1711SOL    HW2 6610   3.546   5.023   5.689 -0.4702  1.4016  0.2435
 1711SOL    HW3 6611   3.523   5.030   5.838 -0.7117 -1.9621  0.4270
 1711SOL    MW4 6612   3.574   5.010   5.770 -0.4187 -0.0138  0.0201
 1712SOL     OW 6613   5.525   3.007   0.316 -0.0087  0.7075  0.5744
 1712SOL    HW2 6614   5.505   2.930   0.261  1.0127 -0.9723  2.4433
 1712SOL    HW3 6615   5.499   2.981   0.404  0.2577  2.5826  1.2439
 1712SOL    MW4 6616   5.519   2.993   0.320  0.1612  0.7333  0.9093
 1713SOL     OW 6617   5.586   5.116   4.648  0.3509  0.3502 -0.2240
 1713SOL    HW2 6618   5.588   5.024   4.621  2.2212  0.2427  0.1402
 1713SOL    HW3 6619   5.607   5.114   4.741 -1.9382  1.0214  0.3655
 1713SOL    MW4 6620   5.589   5.103   4.656  0.2957  0.4245 -0.0982
 1714SOL     OW 6621   6.030   4.124   3.261  0.3820 -0.4698 -0.1600
 1714SOL    HW2 6622   6.107   4.078   3.295 -0.2677 -2.2527 -0.9662
 1714SOL    HW3 6623   6.057   4.157   3.175  0.3540 -0.7714 -0.2837
 1714SOL    MW4 6624   6.044   4.122   3.254  0.2926 -0.7448 -0.2827
 1715SOL     OW 6625   1.245   0.292   4.827  0.4478 -0.3468  0.3823
 1715SOL    HW2 6626   1.177   0.272   4.762 -0.6395  0.9121  1.0805
 1715SOL    HW3 6627   1.273   0.207   4.860  1.8556 -1.1473 -2.4849
 1715SOL    MW4 6628   1.240   0.278   4.823  0.4901 -0.2863  0.0961
 1716SOL     OW 6629   5.908   1.602   6.018  0.1997  0.2918 -0.4682
 1716SOL    HW2 6630   5.983   1.622   6.073  1.9730 -0.6180 -2.4231
 1716SOL    HW3 6631   5.833   1.636   6.067  1.9589  2.3062  1.0211
 1716SOL    MW4 6632   5.908   1.609   6.032  0.6658  0.4375 -0.5296
 1717SOL     OW 6633   2.901   4.198   2.934  0.3054  0.0303  0.1830
 1717SOL    HW2 6634   2.949   4.261   2.987  1.7100  0.1903 -1.2109
 1717SOL    HW3 6635   2.895   4.120   2.989  1.5475  0.2602  0.6632
 1717SOL    MW4 6636   2.907   4.196   2.948  0.6546  0.0818  0.0624
 1718SOL     OW 6637   3.335   3.524   3.846 -0.4290 -0.1378 -0.0040
 1718SOL    HW2 6638   3.338   3.528   3.942 -1.5243 -0.4126  0.0534
 1718SOL    HW3 6639   3.397   3.591   3.818  0.9524 -0.9953  0.8828
 1718SOL    MW4 6640   3.344   3.533   3.855 -0.3913 -0.2872  0.1206
 1719SOL     OW 6641   0.465   5.196   4.426 -0.6308  0.1605 -0.1689
 1719SOL    HW2 6642   0.398   5.261   4.444  0.5492  1.0416  1.4107
 1719SOL    HW3 6643   0.439   5.120   4.478 -0.4085  0.5133  0.4702
 1719SOL    MW4 6644   0.453   5.194   4.436 -0.4458  0.3233  0.1239
 1720SOL     OW 6645   4.956   5.093   1.411  0.0929  0.1915 -0.1749
 1720SOL    HW2 6646   4.913   5.010   1.390  0.5996  0.3881 -2.1725
 1720SOL    HW3 6647   4.907   5.158   1.361  1.5871  0.6577 -1.0950
 1720SOL    MW4 6648   4.944   5.091   1.402  0.3569  0.2789 -0.5599
 1721SOL     OW 6649   0.934   4.486   2.583 -0.2051 -0.4727  0.2079
 1721SOL    HW2 6650   0.922   4.392   2.587 -0.9129 -0.4062 -0.1665
 1721SOL    HW3 6651   0.979   4.501   2.500 -0.5025 -0.4434  0.0514
 1721SOL    MW4 6652   0.939   4.476   2.573 -0.3377 -0.4600  0.1379
 1722SOL     OW 6653   1.389   3.072   2.665  0.1675  0.4388 -0.5492
 1722SOL    HW2 6654   1.387   3.168   2.658  0.7822  0.6939  1.9249
 1722SOL    HW3 6655   1.478   3.048   2.639  1.1187  0.9442  1.9398
 1722SOL    MW4 6656   1.401   3.082   2.660  0.3741  0.5392  0.1056
 1723SOL     OW 6657   4.162   2.179   3.236  0.2994 -0.1147 -0.1957
 1723SOL    HW2 6658   4.141   2.107   3.296  0.0168  0.3406  0.2593
 1723SOL    HW3 6659   4.102   2.249   3.261  0.2160  0.1046 -0.9782
 1723SOL    MW4 6660   4.151   2.179   3.247  0.2511 -0.0257 -0.2389
 1724SOL     OW 6661   3.592   0.936   5.153  0.0451  0.5309  0.2689
 1724SOL    HW2 6662   3.653   1.003   5.182  0.0895 -0.4373  2.6368
 1724SOL    HW3 6663   3.648   0.866   5.119  0.0392  1.1499 -1.1008
 1724SOL    MW4 6664   3.607   0.935   5.152  0.0502  0.4848  0.4006
 1725SOL     OW 6665   0.112   1.260   5.708  0.1493 -0.4640 -0.3899
 1725SOL    HW2 6666   0.020   1.277   5.729 -0.6874 -0.8509 -3.3948
 1725SOL    HW3 6667   0.116   1.166   5.692  1.2889 -0.5937  0.5242
 1725SOL    MW4 6668   0.100   1.250   5.709  0.1893 -0.5321 -0.6657
 1726SOL     OW 6669   3.770   0.882   5.767 -0.1877 -0.1626  0.0707
 1726SOL    HW2 6670   3.828   0.925   5.703  0.4750  0.3949  1.0321
 1726SOL    HW3 6671   3.829   0.851   5.835 -0.8137 -1.4599  0.0409
 1726SOL    MW4 6672   3.786   0.883   5.767 -0.1829 -0.2602  0.1936
 1727SOL     OW 6673   6.312   2.999   0.754 -0.3521  0.2318  0.3006
 1727SOL    HW2 6674   6.244   3.049   0.709  0.5135 -2.1120 -4.1896
 1727SOL    HW3 6675   6.394   3.035   0.720  0.4488 -0.4844  1.4307
 1727SOL    MW4 6676   6.314   3.010   0.743 -0.1322 -0.1720 -0.1427
 1728SOL     OW 6677   4.891   5.642   1.520  0.2682  0.2356  0.4728
 1728SOL    HW2 6678   4.925   5.553   1.522 -0.3461 -0.0010  0.5672
 1728SOL    HW3 6679   4.795   5.631   1.515  0.2202  0.8788 -0.2461
 1728SOL    MW4 6680   4.882   5.629   1.520  0.1808  0.2893  0.3904
 1729SOL     OW 6681   4.589   5.860   4.792 -0.0532  0.0514  0.2828
 1729SOL    HW2 6682   4.539   5.942   4.793 -0.3947 -0.1536  0.1430
 1729SOL    HW3 6683   4.622   5.853   4.702 -0.8136 -0.4329  0.0285
 1729SOL    MW4 6684   4.587   5.870   4.780 -0.1986 -0.0396  0.2308
 1730SOL     OW 6685   3.273   4.857   3.049  0.2308 -0.2356 -0.5086
 1730SOL    HW2 6686   3.196   4.878   2.997 -0.3841  1.1232  0.8860
 1730SOL    HW3 6687   3.315   4.941   3.066  0.6623 -0.6801  0.7930
 1730SOL    MW4 6688   3.268   4.871   3.044  0.2066 -0.1149 -0.1529
 1731SOL     OW 6689   3.645   5.389   0.227 -0.0519  0.2064  0.4436
 1731SOL    HW2 6690   3.644   5.434   0.142 -1.1534 -1.0582 -0.2628
 1731SOL    HW3 6691   3.684   5.452   0.287 -0.5462  1.6835 -0.7116
 1731SOL    MW4 6692   3.650   5.403   0.223 -0.2624  0.2344  0.1980
 1732SOL     OW 6693   3.321   6.210   5.377 -0.1612  0.0605 -0.1499
 1732SOL    HW2 6694   3.388   6.173   5.320 -0.5977 -0.8232 -0.0958
 1732SOL    HW3 6695   3.242   6.214   5.323 -0.2712  0.3502  0.0297
 1732SOL    MW4 6696   3.320   6.206   5.363 -0.2333 -0.0179 -0.1191
 1733SOL     OW 6697   6.336   4.109   6.296  0.3676  0.8876  0.0725
 1733SOL    HW2 6698   6.278   4.073   6.363  0.4627 -1.4768 -1.0235
 1733SOL    HW3 6699   6.294   4.189   6.267  0.0099  1.6414  2.4880
 1733SOL    MW4 6700   6.323   4.115   6.301  0.3329  0.6751  0.2466
 1734SOL     OW 6701   3.654   6.279   6.294 -0.6677 -0.2361  0.1610
 1734SOL    HW2 6702   3.616   6.196   6.266 -0.7770 -0.3596  0.6644
 1734SOL    HW3 6703   3.591   6.345   6.265 -1.1492 -0.4193  0.7510
 1734SOL    MW4 6704   3.640   6.277   6.287 -0.7457 -0.2766  0.3052
 1735SOL     OW 6705   4.458   2.647   2.708  0.7507 -0.1917 -0.2032
 1735SOL    HW2 6706   4.518   2.664   2.780  0.1322  2.4319 -0.1820
 1735SOL    HW3 6707   4.374   2.684   2.738  0.3280  0.4023 -2.0077
 1735SOL    MW4 6708   4.455   2.654   2.721  0.6133  0.2328 -0.4385
 1736SOL     OW 6709   2.745   0.930   2.829  0.8572 -0.1147  0.1790
 1736SOL    HW2 6710   2.720   0.841   2.802  2.0419 -0.4517  0.1211
 1736SOL    HW3 6711   2.663   0.971   2.857  0.1485 -0.9266 -0.6385
 1736SOL    MW4 6712   2.731   0.923   2.829  0.9200 -0.2663  0.0635
 1737SOL     OW 6713   0.867   4.152   0.743  0.4136 -0.5245 -0.0756
 1737SOL    HW2 6714   0.820   4.130   0.662  1.4940 -2.2275 -0.2825
 1737SOL    HW3 6715   0.930   4.220   0.715 -0.8746  0.7078 -0.0969
 1737SOL    MW4 6716   0.869   4.158   0.728  0.3862 -0.5866 -0.1057
 1738SOL     OW 6717   2.057   4.084   2.301 -0.2183 -0.1264  0.0571
 1738SOL    HW2 6718   2.133   4.079   2.358 -0.9748 -0.9136  1.0272
 1738SOL    HW3 6719   2.062   4.004   2.248 -0.2323 -0.0506 -0.0595
 1738SOL    MW4 6720   2.067   4.073   2.301 -0.3199 -0.2203  0.1697
 1739SOL     OW 6721   5.563   4.634   4.823  0.2287 -0.1213 -0.1321
 1739SOL    HW2 6722   5.653   4.600   4.825  0.5384  0.4579 -1.9541
 1739SOL    HW3 6723   5.508   4.556   4.818  0.5099 -0.5377  2.1717
 1739SOL    MW4 6724   5.568   4.619   4.822  0.3067 -0.0998 -0.0685
 1740SOL     OW 6725   2.924   4.060   5.576  0.4931  0.0122  0.4538
 1740SOL    HW2 6726   2.998   4.085   5.631  2.3923 -0.0491 -1.9016
 1740SOL    HW3 6727   2.885   4.143   5.549 -1.4390  0.0424  2.9725
 1740SOL    MW4 6728   2.929   4.074   5.580  0.4888  0.0081  0.4754
 1741SOL     OW 6729   3.647   5.973   4.016  0.4652  0.9974  0.7091
 1741SOL    HW2 6730   3.658   6.038   3.947 -0.2566  0.5778  0.1833
 1741SOL    HW3 6731   3.730   5.925   4.017  0.0416  0.1629 -0.7664
 1741SOL    MW4 6732   3.659   5.975   4.007  0.3141  0.8319  0.4451
 1742SOL     OW 6733   6.178   3.072   6.231  0.1994  0.2705 -0.3570
 1742SOL    HW2 6734   6.178   3.152   6.283  3.5352 -0.2488  0.6790
 1742SOL    HW3 6735   6.101   3.024   6.261  0.3183  1.3662  1.9071
 1742SOL    MW4 6736   6.168   3.076   6.241  0.6552  0.3466  0.0784
 1743SOL     OW 6737   5.367   2.444   2.446 -0.1727  0.3134 -0.4839
 1743SOL    HW2 6738   5.409   2.388   2.511 -2.8501 -0.4758  0.7000
 1743SOL    HW3 6739   5.324   2.512   2.497 -2.1353 -0.1895 -1.3996
 1743SOL    MW4 6740   5.367   2.446   2.461 -0.7849  0.1430 -0.4485
 1744SOL     OW 6741   4.048   0.286   5.330  0.3508 -0.1032 -0.5100
 1744SOL    HW2 6742   4.010   0.241   5.255 -0.6734 -0.8423  0.4222
 1744SOL    HW3 6743   4.031   0.227   5.404 -1.0614  1.8055  0.7791
 1744SOL    MW4 6744   4.041   0.272   5.330  0.0294  0.0511 -0.2169
 1745SOL     OW 6745   0.438   5.066   0.538  0.6130 -0.1668 -0.1487
 1745SOL    HW2 6746   0.475   5.153   0.526  1.6089 -0.7440 -1.5557
 1745SOL    HW3 6747   0.506   5.006   0.505  0.1041 -1.4990  1.0999
 1745SOL    MW4 6748   0.452   5.069   0.532  0.6772 -0.4187 -0.1696
 1746SOL     OW 6749   3.647   1.678   0.524  0.3066  0.0942 -0.0397
 1746SOL    HW2 6750   3.665   1.663   0.616  0.0857 -0.3447 -0.0657
 1746SOL    HW3 6751   3.625   1.771   0.518  0.2894  0.1147  0.3529
 1746SOL    MW4 6752   3.647   1.688   0.535  0.2752  0.0390  0.0087
 1747SOL     OW 6753   2.238   4.578   5.210  0.2743 -0.1124  0.2531
 1747SOL    HW2 6754   2.328   4.547   5.216 -0.0505 -1.0835  0.3333
 1747SOL    HW3 6755   2.245   4.673   5.214  1.4004 -0.1044 -1.1205
 1747SOL    MW4 6756   2.251   4.586   5.212  0.3800 -0.2395  0.0824
 1748SOL     OW 6757   2.861   5.114   3.142  0.0013 -0.6037 -0.7384
 1748SOL    HW2 6758   2.769   5.093   3.129  0.0254 -1.0358 -0.2157
 1748SOL    HW3 6759   2.876   5.192   3.088  0.2336 -2.5755 -3.7508
 1748SOL    MW4 6760   2.851   5.122   3.133  0.0351 -0.9209 -1.0669
 1749SOL     OW 6761   4.536   6.390   0.996  0.4884 -0.1040  0.2514
 1749SOL    HW2 6762   4.590   6.313   0.978 -0.7462 -0.7826 -0.6843
 1749SOL    HW3 6763   4.497   6.372   1.082 -0.2451 -0.8000 -0.2204
 1749SOL    MW4 6764   4.538   6.378   1.005  0.2287 -0.2854  0.0657
 1750SOL     OW 6765   4.472   4.699   4.539  0.1416 -0.2781 -0.8207
 1750SOL    HW2 6766   4.531   4.624   4.530  0.9038  0.1538  0.3028
 1750SOL    HW3 6767   4.457   4.729   4.449  0.5494 -1.2170 -1.2145
 1750SOL    MW4 6768   4.478   4.693   4.526  0.2960 -0.3450 -0.7244
 1751SOL     OW 6769   3.641   2.366   1.865  0.2723 -0.2128 -0.1623
 1751SOL    HW2 6770   3.677   2.278   1.854  1.9535  0.5309 -0.8840
 1751SOL    HW3 6771   3.691   2.421   1.806  1.3337  1.7798  2.3704
 1751SOL    MW4 6772   3.652   2.362   1.856  0.6341  0.1482  0.0766
 1752SOL     OW 6773   6.091   4.196   1.939  0.2263 -0.3607  0.0636
 1752SOL    HW2 6774   6.134   4.248   2.007  1.5156 -1.2216 -0.0801
 1752SOL    HW3 6775   6.062   4.261   1.875  2.8775  0.1728 -0.7150
 1752SOL    MW4 6776   6.093   4.212   1.939  0.7462 -0.4039 -0.0581
 1753SOL     OW 6777   5.199   6.006   4.829 -0.2516 -0.0552  0.6729
 1753SOL    HW2 6778   5.127   5.996   4.892 -1.2130  0.6046 -0.2874
 1753SOL    HW3 6779   5.173   5.952   4.754 -1.0590  2.2091 -0.7655
 1753SOL    MW4 6780   5.186   5.998   4.828 -0.4850  0.3306  0.3564
 1754SOL     OW 6781   3.191   5.376   1.415 -0.2516 -0.3361  0.4262
 1754SOL    HW2 6782   3.269   5.398   1.364  0.3285 -0.0984  1.3893
 1754SOL    HW3 6783   3.181   5.448   1.477  0.8674 -1.9808  2.7072
 1754SOL    MW4 6784   3.200   5.388   1.417 -0.0274 -0.5217  0.8542
 1755SOL     OW 6785   4.321   3.791   3.428 -0.3818  0.1469 -0.5607
 1755SOL    HW2 6786   4.274   3.808   3.510 -1.0819 -0.3318 -0.8495
 1755SOL    HW3 6787   4.400   3.744   3.455 -0.1624  0.7698 -0.0883
 1755SOL    MW4 6788   4.325   3.787   3.442 -0.4452  0.1660 -0.5365
 1756SOL     OW 6789   1.278   1.244   2.392  0.0053  0.7866 -0.3322
 1756SOL    HW2 6790   1.201   1.246   2.335 -0.0345 -1.4831 -0.4253
 1756SOL    HW3 6791   1.348   1.210   2.337  0.4672  0.4866  0.4302
 1756SOL    MW4 6792   1.277   1.240   2.377  0.0610  0.4475 -0.2439
 1757SOL     OW 6793   3.850   2.354   6.163 -0.4492 -0.0757  0.3313
 1757SOL    HW2 6794   3.813   2.332   6.248  2.7535 -0.5989  1.7027
 1757SOL    HW3 6795   3.871   2.447   6.169  3.5921 -0.9002  1.8674
 1757SOL    MW4 6796   3.848   2.363   6.175  0.5066 -0.2535  0.7149
 1758SOL     OW 6797   5.280   3.423   5.185 -0.0272 -0.1838 -0.3322
 1758SOL    HW2 6798   5.274   3.437   5.090 -1.9565  0.6895 -0.1365
 1758SOL    HW3 6799   5.288   3.328   5.195  3.4205 -0.1498 -1.4078
 1758SOL    MW4 6800   5.280   3.413   5.173  0.1731 -0.0641 -0.4483
 1759SOL     OW 6801   5.911   3.808   4.485  0.2325 -0.1071 -0.2237
 1759SOL    HW2 6802   5.915   3.836   4.577 -1.6563  0.5576 -0.3119
 1759SOL    HW3 6803   5.840   3.745   4.482  1.0054 -0.9711 -1.0550
 1759SOL    MW4 6804   5.902   3.803   4.497  0.0852 -0.1334 -0.3450
 1760SOL     OW 6805   0.242   0.152   0.067  0.0195 -0.0394 -0.1019
 1760SOL    HW2 6806   0.303   0.185   0.001  0.9605  0.2314  0.8722
 1760SOL    HW3 6807   0.193   0.083   0.022 -0.3521  1.0722 -1.4813
 1760SOL    MW4 6808   0.243   0.147   0.052  0.0946  0.1430 -0.1554
 1761SOL     OW 6809   4.249   3.184   6.188 -0.1041  0.0406  0.4836
 1761SOL    HW2 6810   4.328   3.212   6.234 -0.8275 -1.5822  2.8404
 1761SOL    HW3 6811   4.204   3.266   6.168  2.4015  1.0770 -1.5769
 1761SOL    MW4 6812   4.254   3.199   6.191  0.1310 -0.0368  0.5227
 1762SOL     OW 6813   5.597   3.954   3.401  0.3508 -0.1722 -0.2022
 1762SOL    HW2 6814   5.553   3.870   3.413  1.4930 -0.6791  0.5884
 1762SOL    HW3 6815   5.686   3.931   3.374  0.4362  0.8106 -0.8189
 1762SOL    MW4 6816   5.603   3.940   3.399  0.5128 -0.1095 -0.1793
 1763SOL     OW 6817   0.757   2.026   1.278 -0.0610 -0.1632 -0.3577
 1763SOL    HW2 6818   0.851   2.045   1.284  0.0457  0.3339 -2.7554
 1763SOL    HW3 6819   0.735   2.041   1.186 -2.6627  0.4375  0.2809
 1763SOL    MW4 6820   0.767   2.030   1.267 -0.3902 -0.0184 -0.5898
 1764SOL     OW 6821   2.031   3.505   0.164  0.0874 -0.0390  0.6538
 1764SOL    HW2 6822   1.967   3.505   0.235 -0.3046 -2.0505  0.3805
 1764SOL    HW3 6823   2.111   3.472   0.204  0.8172  1.9002  0.8574
 1764SOL    MW4 6824   2.033   3.500   0.178  0.1320 -0.0485  0.6446
 1765SOL     OW 6825   5.012   3.110   5.040 -0.4635 -0.1501 -0.5249
 1765SOL    HW2 6826   4.985   3.186   4.989 -0.3245  0.2887  0.0479
 1765SOL    HW3 6827   5.080   3.143   5.098 -1.0412 -0.5018  0.3707
 1765SOL    MW4 6828   5.017   3.124   5.041 -0.5214 -0.1386 -0.3311
 1766SOL     OW 6829   2.101   4.183   5.679  0.4103 -0.3076 -0.2448
 1766SOL    HW2 6830   2.140   4.216   5.760 -0.2535 -1.1915  0.4619
 1766SOL    HW3 6831   2.022   4.235   5.667 -0.5843 -1.4943  0.8164
 1766SOL    MW4 6832   2.096   4.194   5.688  0.1915 -0.5808 -0.0115
 1767SOL     OW 6833   5.425   1.500   6.012  0.0732  0.2054  0.0564
 1767SOL    HW2 6834   5.332   1.513   6.026  0.2802  1.9755 -0.0469
 1767SOL    HW3 6835   5.462   1.492   6.100  0.0881  1.6830  0.2081
 1767SOL    MW4 6836   5.418   1.501   6.025  0.1025  0.6339  0.0628
 1768SOL     OW 6837   4.084   5.377   5.847 -0.6403 -0.5184 -0.3510
 1768SOL    HW2 6838   4.046   5.401   5.932  0.4264 -2.0282  0.6035
 1768SOL    HW3 6839   4.161   5.325   5.870  0.2432 -0.1061 -2.2595
 1768SOL    MW4 6840   4.089   5.373   5.862 -0.3830 -0.6632 -0.4769
 1769SOL     OW 6841   3.738   5.716   3.744 -0.3192  0.2988 -0.4737
 1769SOL    HW2 6842   3.809   5.653   3.755  2.3329  3.3294  2.2856
 1769SOL    HW3 6843   3.685   5.706   3.823  1.6991  2.9861  1.4245
 1769SOL    MW4 6844   3.740   5.707   3.756  0.2970  1.0532  0.1408
 1770SOL     OW 6845   1.497   6.185   6.261  0.0547  0.0800  0.1768
 1770SOL    HW2 6846   1.575   6.220   6.305  1.0828 -0.2782 -1.2870
 1770SOL    HW3 6847   1.512   6.090   6.258 -0.3267  0.0350 -0.3253
 1770SOL    MW4 6848   1.510   6.177   6.267  0.1400  0.0268 -0.0826
 1771SOL     OW 6849   1.176   4.999   1.002  0.0177 -0.0284  0.6079
 1771SOL    HW2 6850   1.132   5.084   0.995 -0.1019  0.0643  2.1638
 1771SOL    HW3 6851   1.136   4.958   1.079  0.0199 -1.5355 -0.1556
 1771SOL    MW4 6852   1.165   5.005   1.012  0.0022 -0.2150  0.7124
 1772SOL     OW 6853   3.181   2.697   1.376 -0.0161 -0.1182 -0.1162
 1772SOL    HW2 6854   3.129   2.631   1.422 -0.2686  0.4125  0.3695
 1772SOL    HW3 6855   3.268   2.658   1.368 -0.7276 -1.4994 -1.9500
 1772SOL    MW4 6856   3.185   2.683   1.381 -0.1433 -0.2304 -0.2941
 1773SOL     OW 6857   0.714   1.197   1.752 -0.0061  0.1359 -0.8381
 1773SOL    HW2 6858   0.753   1.206   1.665 -0.0070  1.1579 -0.7469
 1773SOL    HW3 6859   0.699   1.287   1.781 -0.1619 -0.1946  0.1525
 1773SOL    MW4 6860   0.718   1.210   1.745 -0.0268  0.2272 -0.6954
 1774SOL     OW 6861   2.283   5.794   0.064 -0.0952  0.1455 -0.6234
 1774SOL    HW2 6862   2.227   5.836   0.129 -0.2318 -1.1532  0.1165
 1774SOL    HW3 6863   2.294   5.861  -0.004 -2.1662  0.6125 -0.5862
 1774SOL    MW4 6864   2.277   5.808   0.063 -0.3865  0.0358 -0.5209
 1775SOL     OW 6865   5.953   5.436   2.330  0.2135 -0.4382 -0.4853
 1775SOL    HW2 6866   5.964   5.512   2.387  0.5968 -1.1566  0.4213
 1775SOL    HW3 6867   5.945   5.362   2.390 -0.2702 -1.1086 -1.3501
 1775SOL    MW4 6868   5.953   5.437   2.345  0.2002 -0.6215 -0.4798
 1776SOL     OW 6869   3.963   1.986   1.908  0.4276  0.0834  0.2362
 1776SOL    HW2 6870   4.041   2.041   1.899 -0.0797  0.8000  0.1263
 1776SOL    HW3 6871   3.939   1.993   2.001  1.1659 -1.0889  0.5402
 1776SOL    MW4 6872   3.970   1.994   1.919  0.4581  0.0233  0.2618
 1777SOL     OW 6873   4.332   1.796   0.195  0.2726  0.5126 -0.0115
 1777SOL    HW2 6874   4.252   1.840   0.224  1.5126  2.3553  0.8283
 1777SOL    HW3 6875   4.339   1.721   0.253 -1.6631 -0.6450 -1.1694
 1777SOL    MW4 6876   4.322   1.792   0.206  0.1808  0.6030 -0.0535
 1778SOL     OW 6877   3.428   1.693   1.900 -0.3314  0.6032 -0.5988
 1778SOL    HW2 6878   3.464   1.782   1.899 -0.0366  0.4855 -1.1573
 1778SOL    HW3 6879   3.477   1.647   1.968 -1.0715  1.0950  0.2920
 1778SOL    MW4 6880   3.439   1.699   1.909 -0.3902  0.6526 -0.5550
 1779SOL     OW 6881   3.416   3.506   6.145  0.1155 -0.4303 -0.1684
 1779SOL    HW2 6882   3.342   3.511   6.206  0.4856 -0.3143  0.2811
 1779SOL    HW3 6883   3.461   3.590   6.156 -0.9923  0.4999 -2.1536
 1779SOL    MW4 6884   3.412   3.518   6.155  0.0182 -0.2923 -0.3710
 1780SOL     OW 6885   3.311   1.827   0.462 -0.7986  0.1321 -0.4531
 1780SOL    HW2 6886   3.321   1.759   0.529  0.6121  0.5180 -0.2248
 1780SOL    HW3 6887   3.309   1.909   0.511  2.0161  0.5717 -0.8659
 1780SOL    MW4 6888   3.312   1.829   0.477 -0.2411  0.2410 -0.4775
 1781SOL     OW 6889   3.994   2.184   4.056  0.8272 -0.1147  0.5589
 1781SOL    HW2 6890   4.070   2.162   4.001  1.1512 -1.0434  1.3501
 1781SOL    HW3 6891   3.958   2.099   4.082  0.8138  0.2867  1.9476
 1781SOL    MW4 6892   3.999   2.170   4.052  0.8682 -0.1843  0.8465
 1782SOL     OW 6893   4.359   3.103   4.883 -0.0147 -0.2830  0.5576
 1782SOL    HW2 6894   4.411   3.079   4.806 -0.4879 -0.9727  0.4409
 1782SOL    HW3 6895   4.306   3.177   4.853 -0.9457 -1.1873 -0.1272
 1782SOL    MW4 6896   4.359   3.110   4.869 -0.2000 -0.4933  0.4519
 1783SOL     OW 6897   1.343   1.434   5.818 -0.3987 -0.0634 -0.1595
 1783SOL    HW2 6898   1.402   1.359   5.824  0.1062  0.0779 -2.5895
 1783SOL    HW3 6899   1.362   1.485   5.897 -2.3658 -3.5084  2.8323
 1783SOL    MW4 6900   1.353   1.431   5.829 -0.5916 -0.4993 -0.0854
 1784SOL     OW 6901   1.354   3.951   4.977  0.1850  0.0895  0.5227
 1784SOL    HW2 6902   1.429   4.010   4.980 -0.2466  0.7073 -0.4086
 1784SOL    HW3 6903   1.280   4.005   5.004  0.1939 -0.7614  2.3770
 1784SOL    MW4 6904   1.354   3.966   4.981  0.1292  0.0587  0.6445
 1785SOL     OW 6905   6.180   0.263   1.924 -0.3482  0.7477  0.0383
 1785SOL    HW2 6906   6.187   0.168   1.927 -1.1853  0.5805 -1.9849
 1785SOL    HW3 6907   6.105   0.284   1.981  0.3344  0.3146  1.1370
 1785SOL    MW4 6908   6.171   0.254   1.932 -0.3686  0.6685 -0.0837
 1786SOL     OW 6909   0.117   5.948   0.171  0.0424  0.2717 -0.1202
 1786SOL    HW2 6910   0.077   5.971   0.087 -0.7041 -0.0515  0.1403
 1786SOL    HW3 6911   0.125   6.031   0.217 -1.6421  0.1860  0.3843
 1786SOL    MW4 6912   0.113   5.962   0.166 -0.2784  0.2177 -0.0193
 1787SOL     OW 6913   6.363   2.024   5.784  0.1205  0.0912 -0.9087
 1787SOL    HW2 6914   6.454   2.022   5.757  0.6647  1.3785  0.7016
 1787SOL    HW3 6915   6.336   2.115   5.776  0.1105  0.4493  1.9759
 1787SOL    MW4 6916   6.371   2.036   5.780  0.1910  0.3083 -0.3156
 1788SOL     OW 6917   4.567   2.145   5.620  0.5394  0.6788  0.3850
 1788SOL    HW2 6918   4.644   2.113   5.667 -1.3865 -0.4864  2.9888
 1788SOL    HW3 6919   4.541   2.071   5.564  0.2090  0.3336  0.9861
 1788SOL    MW4 6920   4.574   2.131   5.618  0.2417  0.4795  0.8078
 1789SOL     OW 6921   5.088   2.261   3.050 -0.0028 -0.1564  0.0833
 1789SOL    HW2 6922   5.131   2.291   3.130 -0.7211  2.8654 -0.5106
 1789SOL    HW3 6923   5.020   2.327   3.035 -0.9047 -1.5195 -2.1702
 1789SOL    MW4 6924   5.085   2.274   3.059 -0.2166  0.0624 -0.2924
 1790SOL     OW 6925   3.093   4.501   2.315 -0.2786 -0.0182  0.1702
 1790SOL    HW2 6926   3.038   4.503   2.394  1.3751  0.3080  1.3846
 1790SOL    HW3 6927   3.151   4.576   2.325 -0.0163  0.0076 -1.3748
 1790SOL    MW4 6928   3.094   4.511   2.327 -0.0258  0.0283  0.1266
 1791SOL     OW 6929   4.782   2.848   4.089 -0.2234  0.0404 -0.2933
 1791SOL    HW2 6930   4.792   2.872   4.181 -0.4297 -1.6862  0.2198
 1791SOL    HW3 6931   4.868   2.861   4.050  0.5539 -1.6102  0.7752
 1791SOL    MW4 6932   4.794   2.853   4.096 -0.1481 -0.4052 -0.0846
 1792SOL     OW 6933   0.146   4.527   4.289  0.0694 -0.0389 -0.2449
 1792SOL    HW2 6934   0.167   4.598   4.349 -1.6452 -0.5204  1.0164
 1792SOL    HW3 6935   0.115   4.456   4.346 -1.6046 -0.5268 -1.6631
 1792SOL    MW4 6936   0.145   4.527   4.305 -0.3777 -0.1668 -0.2656
 1793SOL     OW 6937   4.883   2.740   0.100 -0.4871 -0.1112  0.4350
 1793SOL    HW2 6938   4.866   2.669   0.161  0.9209 -1.6159 -0.8327
 1793SOL    HW3 6939   4.971   2.770   0.122 -0.4131  0.0986 -0.1321
 1793SOL    MW4 6940   4.892   2.735   0.111 -0.2915 -0.2820  0.1929
 1794SOL     OW 6941   2.005   4.627   5.360  0.5616 -0.2820 -0.0993
 1794SOL    HW2 6942   2.009   4.721   5.341  0.1619  0.1529  1.7862
 1794SOL    HW3 6943   2.092   4.594   5.335  1.5075  1.0365  1.2879
 1794SOL    MW4 6944   2.017   4.635   5.354  0.6337 -0.0507  0.3325
 1795SOL     OW 6945   3.090   4.795   5.478 -0.5786  0.0830 -0.2261
 1795SOL    HW2 6946   3.060   4.884   5.457  0.1389  0.2503 -0.5899
 1795SOL    HW3 6947   3.147   4.806   5.554  0.8658  0.1955 -1.2770
 1795SOL    MW4 6948   3.094   4.809   5.485 -0.2934  0.1200 -0.4128
 1796SOL     OW 6949   5.960   1.624   1.815 -0.0591  0.1407 -0.0147
 1796SOL    HW2 6950   6.049   1.651   1.794  1.5951 -2.3754  2.9630
 1796SOL    HW3 6951   5.920   1.702   1.854  1.1946  1.0039 -0.3787
 1796SOL    MW4 6952   5.966   1.638   1.817  0.3246 -0.0774  0.3301
 1797SOL     OW 6953   1.468   1.752   3.596 -0.4889 -0.0390  0.1063
 1797SOL    HW2 6954   1.395   1.696   3.571  1.0587 -1.9402 -0.3720
 1797SOL    HW3 6955   1.507   1.780   3.513 -0.9619  1.4541  0.3453
 1797SOL    MW4 6956   1.463   1.748   3.582 -0.3471 -0.0928  0.0748
 1798SOL     OW 6957   2.310   0.391   2.761  0.6361  0.2429 -0.2220
 1798SOL    HW2 6958   2.398   0.425   2.744 -0.3981  2.0889 -2.3116
 1798SOL    HW3 6959   2.306   0.309   2.712  1.8326 -1.0345  1.6603
 1798SOL    MW4 6960   2.321   0.385   2.752  0.6575  0.3179 -0.2494
 1799SOL     OW 6961   3.782   3.097   4.810 -0.6897 -0.4367  0.3474
 1799SOL    HW2 6962   3.849   3.029   4.820  0.1862  0.5883  1.7964
 1799SOL    HW3 6963   3.743   3.105   4.896 -1.6803  0.0073 -0.1282
 1799SOL    MW4 6964   3.786   3.089   4.822 -0.7048 -0.2429  0.4759
 1800SOL     OW 6965   4.835   1.562   3.337 -0.0382  0.0711 -0.1962
 1800SOL    HW2 6966   4.861   1.591   3.425 -1.0868 -0.2138  0.2193
 1800SOL    HW3 6967   4.851   1.468   3.338 -3.1473 -0.5576  0.8853
 1800SOL    MW4 6968   4.841   1.554   3.349 -0.5867 -0.0494  0.0013
 1801SOL     OW 6969   3.230   2.971   3.029 -0.2524  0.5985 -0.1386
 1801SOL    HW2 6970   3.209   2.981   3.122 -1.4456 -0.2427 -0.3055
 1801SOL    HW3 6971   3.258   2.880   3.020  1.9380  1.2204 -0.2472
 1801SOL    MW4 6972   3.231   2.960   3.040 -0.1208  0.5696 -0.1750
 1802SOL     OW 6973   1.132   2.369   3.141  0.3081  0.7448 -0.2098
 1802SOL    HW2 6974   1.204   2.414   3.186  1.1574 -0.6672 -0.0840
 1802SOL    HW3 6975   1.078   2.335   3.212  0.2851  0.6153 -0.2905
 1802SOL    MW4 6976   1.134   2.371   3.156  0.4171  0.5414 -0.2038
 1803SOL     OW 6977   0.428   3.196   0.294  0.2975  0.6015  0.4293
 1803SOL    HW2 6978   0.359   3.155   0.243  0.7973  0.2025  0.0664
 1803SOL    HW3 6979   0.482   3.124   0.325  1.2352  0.9731 -0.2839
 1803SOL    MW4 6980   0.426   3.181   0.291  0.4872  0.5979  0.2873
 1804SOL     OW 6981   2.577   3.083   4.606  0.0424  0.1279 -0.2043
 1804SOL    HW2 6982   2.494   3.128   4.594 -0.5867 -0.9728 -0.0690
 1804SOL    HW3 6983   2.615   3.122   4.685 -0.4557  0.4650 -0.1290
 1804SOL    MW4 6984   2.571   3.094   4.615 -0.1063  0.0271 -0.1765
 1805SOL     OW 6985   2.760   6.303   2.631 -0.2237 -0.1566  0.6774
 1805SOL    HW2 6986   2.680   6.282   2.584  1.2073  0.1679 -2.0839
 1805SOL    HW3 6987   2.808   6.361   2.572  1.4872  0.7131  2.7880
 1805SOL    MW4 6988   2.755   6.308   2.617  0.1908  0.0010  0.5916
 1806SOL     OW 6989   3.009   4.588   0.597  0.6505  0.2768  0.2421
 1806SOL    HW2 6990   3.071   4.657   0.576  0.3349  0.6989  0.6812
 1806SOL    HW3 6991   3.050   4.539   0.668  2.0317 -1.5707 -1.6893
 1806SOL    MW4 6992   3.023   4.590   0.604  0.7911  0.0888  0.0452
 1807SOL     OW 6993   3.769   0.674   4.660  0.0231 -0.3959 -0.2435
 1807SOL    HW2 6994   3.719   0.601   4.698 -0.5845  0.9875  1.7424
 1807SOL    HW3 6995   3.712   0.708   4.591 -1.2215  0.2510  1.0373
 1807SOL    MW4 6996   3.755   0.669   4.656 -0.2213 -0.1280  0.1875
 1808SOL     OW 6997   1.429   5.043   0.861 -0.1229  0.1363  0.1872
 1808SOL    HW2 6998   1.379   5.081   0.789 -0.5896 -1.1214 -0.1720
 1808SOL    HW3 6999   1.368   5.042   0.935 -0.2610 -0.3139  0.0711
 1808SOL    MW4 7000   1.414   5.048   0.861 -0.2027 -0.0890  0.1245
 1809SOL     OW 7001   0.291   5.382   6.102  0.6557  0.1186  0.3282
 1809SOL    HW2 7002   0.211   5.352   6.146 -0.3317 -0.3718 -1.6937
 1809SOL    HW3 7003   0.265   5.397   6.012  2.7284  0.5615 -0.2568
 1809SOL    MW4 7004   0.277   5.380   6.096  0.7989  0.1123 -0.0157
 1810SOL     OW 7005   1.737   5.791   0.338 -0.0029 -0.0037  0.1464
 1810SOL    HW2 7006   1.717   5.749   0.254  0.0705  0.7060 -0.2307
 1810SOL    HW3 7007   1.690   5.875   0.335  0.4783  0.2862  0.5707
 1810SOL    MW4 7008   1.728   5.797   0.327  0.0703  0.1282  0.1526
 1811SOL     OW 7009   0.645   4.330   1.092 -0.3509  0.2737  0.0839
 1811SOL    HW2 7010   0.694   4.268   1.146 -2.6025 -1.2138  0.5678
 1811SOL    HW3 7011   0.594   4.381   1.155 -0.0019  1.3112 -0.4457
 1811SOL    MW4 7012   0.645   4.329   1.107 -0.6019  0.2143  0.0779
 1812SOL     OW 7013   5.230   0.879   2.627  0.6002 -0.1057  0.3799
 1812SOL    HW2 7014   5.275   0.887   2.711 -0.3735  0.8637  0.8462
 1812SOL    HW3 7015   5.254   0.959   2.579 -0.8350  0.6054  0.7743
 1812SOL    MW4 7016   5.239   0.891   2.632  0.2824  0.1161  0.4935
 1813SOL     OW 7017   5.564   3.217   4.274 -0.1339 -0.7337  0.1249
 1813SOL    HW2 7018   5.625   3.143   4.266  0.3340 -0.3523  0.0858
 1813SOL    HW3 7019   5.556   3.252   4.186  0.2721 -0.2551  0.2706
 1813SOL    MW4 7020   5.571   3.212   4.262 -0.0186 -0.6202  0.1389
 1814SOL     OW 7021   0.755   1.918   2.499 -0.0237  0.1075 -0.1440
 1814SOL    HW2 7022   0.710   1.835   2.482 -1.0349  0.6318 -0.1415
 1814SOL    HW3 7023   0.789   1.910   2.588 -1.1990  0.1534  0.3222
 1814SOL    MW4 7024   0.753   1.906   2.508 -0.3122  0.1827 -0.0822
 1815SOL     OW 7025   2.441   6.440   5.489  0.3813 -0.2969  0.3902
 1815SOL    HW2 7026   2.483   6.362   5.524  0.7907  0.1214  0.8533
 1815SOL    HW3 7027   2.493   6.513   5.523  1.6938  0.1109 -2.3019
 1815SOL    MW4 7028   2.453   6.439   5.498  0.6085 -0.1879  0.0961
 1816SOL     OW 7029   0.421   0.967   2.907  0.0062  0.0620  0.0042
 1816SOL    HW2 7030   0.397   0.875   2.918 -0.8984  0.0389 -1.7924
 1816SOL    HW3 7031   0.515   0.970   2.925  0.2488 -1.4111 -0.8319
 1816SOL    MW4 7032   0.430   0.955   2.911 -0.0811 -0.1354 -0.3431
 1817SOL     OW 7033   0.833   4.151   0.456  0.2228  0.2810 -0.1069
 1817SOL    HW2 7034   0.790   4.140   0.371  0.4443  1.0322 -0.3229
 1817SOL    HW3 7035   0.924   4.173   0.434  0.2695  0.5276  0.3267
 1817SOL    MW4 7036   0.839   4.152   0.441  0.2582  0.4127 -0.0782
 1818SOL     OW 7037   0.113   4.486   1.577 -0.6216  0.7326  0.9364
 1818SOL    HW2 7038   0.104   4.581   1.564 -0.3322  0.4109 -2.4658
 1818SOL    HW3 7039   0.145   4.478   1.667 -4.1824  3.5823  2.7354
 1818SOL    MW4 7040   0.116   4.498   1.588 -1.0532  1.0662  0.7249
 1819SOL     OW 7041   3.109   3.596   5.056 -0.1076 -0.2122  0.0446
 1819SOL    HW2 7042   3.191   3.640   5.080  1.1260 -2.1689 -0.3763
 1819SOL    HW3 7043   3.089   3.541   5.132  0.9204 -2.3868 -1.1826
 1819SOL    MW4 7044   3.117   3.595   5.069  0.1908 -0.7573 -0.1729
 1820SOL     OW 7045   4.300   0.982   1.630 -0.5882  0.1434 -0.2153
 1820SOL    HW2 7046   4.273   0.956   1.718 -1.8908 -0.4013 -0.7482
 1820SOL    HW3 7047   4.286   0.903   1.577  0.9772  0.2101 -0.7670
 1820SOL    MW4 7048   4.294   0.968   1.635 -0.5535  0.0804 -0.3584
 1821SOL     OW 7049   1.576   4.537   4.480  0.5533  0.2853  0.1335
 1821SOL    HW2 7050   1.564   4.547   4.385  0.6013  1.8736  0.2648
 1821SOL    HW3 7051   1.497   4.492   4.510  1.3753 -2.0006 -0.8847
 1821SOL    MW4 7052   1.564   4.532   4.471  0.6681  0.1933  0.0165
 1822SOL     OW 7053   4.522   3.897   5.450  0.1193  0.4687 -0.1993
 1822SOL    HW2 7054   4.563   3.961   5.391  1.9247  1.0357  1.5245
 1822SOL    HW3 7055   4.596   3.851   5.489 -0.8735  1.1052  2.6457
 1822SOL    MW4 7056   4.537   3.899   5.447  0.2265  0.6275  0.4035
 1823SOL     OW 7057   3.348   5.581   4.427  0.4756 -0.4708 -0.1795
 1823SOL    HW2 7058   3.320   5.503   4.476  0.4795 -0.5740 -0.3402
 1823SOL    HW3 7059   3.328   5.654   4.485 -0.0509 -0.5486 -0.2595
 1823SOL    MW4 7060   3.341   5.580   4.442  0.4067 -0.4947 -0.2113
 1824SOL     OW 7061   1.834   0.603   5.647  0.1697  0.1969 -0.0782
 1824SOL    HW2 7062   1.887   0.674   5.610  1.7560 -0.7744  0.2458
 1824SOL    HW3 7063   1.774   0.647   5.708  0.5136  1.3455 -0.5506
 1824SOL    MW4 7064   1.833   0.618   5.650  0.4244  0.2203 -0.0978
 1825SOL     OW 7065   4.295   0.237   4.463  0.0717 -0.3977 -0.0267
 1825SOL    HW2 7066   4.378   0.283   4.454 -0.8223  1.2955 -0.0162
 1825SOL    HW3 7067   4.289   0.182   4.385  0.9365 -0.1312 -0.2877
 1825SOL    MW4 7068   4.305   0.236   4.452  0.0678 -0.1391 -0.0597
 1826SOL     OW 7069   4.519   1.002   3.235 -0.3333  0.0582  0.1647
 1826SOL    HW2 7070   4.451   1.024   3.299 -1.8567 -0.6069 -1.1734
 1826SOL    HW3 7071   4.475   1.005   3.150  1.1747 -0.9493 -0.7075
 1826SOL    MW4 7072   4.504   1.005   3.232 -0.3353 -0.1625 -0.1269
 1827SOL     OW 7073   3.126   4.143   0.337  0.1450 -0.3287  0.1728
 1827SOL    HW2 7074   3.190   4.213   0.351  0.2992 -0.2370 -0.8730
 1827SOL    HW3 7075   3.097   4.118   0.425  1.8721 -0.6164  0.6931
 1827SOL    MW4 7076   3.130   4.149   0.350  0.3932 -0.3546  0.1035
 1828SOL     OW 7077   5.509   5.434   1.059 -0.2494  0.0285 -0.4942
 1828SOL    HW2 7078   5.516   5.484   1.140  0.7154 -0.9975  0.0763
 1828SOL    HW3 7079   5.550   5.490   0.993 -1.5719  1.1260 -0.4252
 1828SOL    MW4 7080   5.515   5.448   1.061 -0.2966  0.0380 -0.4098
 1829SOL     OW 7081   3.986   5.566   3.679  0.0715  0.2825 -0.9796
 1829SOL    HW2 7082   4.065   5.610   3.647  0.3602  0.1612 -0.4454
 1829SOL    HW3 7083   3.965   5.501   3.611  2.0916 -1.6879  0.1358
 1829SOL    MW4 7084   3.994   5.563   3.666  0.3761  0.0066 -0.7619
 1830SOL     OW 7085   6.299   3.999   2.279 -0.0257  0.3625  0.1709
 1830SOL    HW2 7086   6.255   3.952   2.350 -0.9230  1.1329  0.1356
 1830SOL    HW3 7087   6.329   3.930   2.220  0.2577 -0.2572  1.0124
 1830SOL    MW4 7088   6.297   3.983   2.281 -0.1067  0.3824  0.2773
 1831SOL     OW 7089   0.924   0.411   0.614  0.6272 -0.3555  0.0225
 1831SOL    HW2 7090   0.968   0.395   0.698 -0.7845  1.5652  1.2195
 1831SOL    HW3 7091   0.831   0.400   0.634  0.3304 -0.9404 -1.5860
 1831SOL    MW4 7092   0.918   0.408   0.628  0.4018 -0.1792 -0.0318
 1832SOL     OW 7093   2.921   4.752   4.836  0.3458  0.1009  0.0813
 1832SOL    HW2 7094   2.828   4.754   4.815  0.1003 -1.3203  0.9109
 1832SOL    HW3 7095   2.923   4.748   4.932  1.2263 -1.1159  0.0194
 1832SOL    MW4 7096   2.909   4.752   4.846  0.4296 -0.2472  0.1826
 1833SOL     OW 7097   4.143   2.257   3.606  0.4189 -0.1061 -0.3127
 1833SOL    HW2 7098   4.161   2.167   3.579 -1.5614 -1.0268  1.1766
 1833SOL    HW3 7099   4.089   2.293   3.536 -0.2997 -0.7226 -0.0933
 1833SOL    MW4 7100   4.138   2.250   3.593  0.0628 -0.3089 -0.0873
 1834SOL     OW 7101   6.243   4.329   4.918  0.1524  0.1695 -0.0978
 1834SOL    HW2 7102   6.247   4.288   5.004 -1.2200 -0.5479 -0.3356
 1834SOL    HW3 7103   6.283   4.265   4.859 -1.1711 -0.4863 -0.3333
 1834SOL    MW4 7104   6.249   4.315   4.921 -0.2033 -0.0117 -0.1602
 1835SOL     OW 7105   4.512   0.744   1.372  0.5901  0.1212  0.3544
 1835SOL    HW2 7106   4.557   0.788   1.444  2.7645  0.6379 -1.1988
 1835SOL    HW3 7107   4.543   0.653   1.376 -0.7031 -0.3061  1.1165
 1835SOL    MW4 7108   4.522   0.737   1.382  0.7064  0.1330  0.2500
 1836SOL     OW 7109   3.494   4.566   2.044  0.0267 -0.2026  0.0700
 1836SOL    HW2 7110   3.479   4.517   1.963 -0.4487  0.4910 -0.2743
 1836SOL    HW3 7111   3.544   4.643   2.017  0.0882 -0.0963  0.4794
 1836SOL    MW4 7112   3.499   4.569   2.030 -0.0279 -0.0971  0.0785
 1837SOL     OW 7113   0.498   1.998   3.906 -0.2274  0.2173  0.2345
 1837SOL    HW2 7114   0.417   1.950   3.925  0.4280 -1.1827 -0.3853
 1837SOL    HW3 7115   0.485   2.084   3.947 -2.6247  0.5593 -1.0288
 1837SOL    MW4 7116   0.485   2.003   3.914 -0.4572  0.0777 -0.0139
 1838SOL     OW 7117   4.487   1.935   0.467  0.0952  0.4973  0.0116
 1838SOL    HW2 7118   4.459   1.862   0.522  0.0124  0.3613 -0.2077
 1838SOL    HW3 7119   4.407   1.962   0.420  0.4848 -0.4137 -1.2161
 1838SOL    MW4 7120   4.472   1.929   0.468  0.1357  0.3592 -0.1793
 1839SOL     OW 7121   0.943   1.591   2.096 -0.0942  0.7920 -0.4595
 1839SOL    HW2 7122   0.960   1.497   2.095  2.2976  1.1825 -1.0102
 1839SOL    HW3 7123   0.847   1.598   2.101 -0.4831 -1.6632 -2.5963
 1839SOL    MW4 7124   0.932   1.580   2.096  0.1700  0.5196 -0.8141
 1840SOL     OW 7125   1.019   0.843   5.931 -0.2740 -0.3850  0.4161
 1840SOL    HW2 7126   1.114   0.849   5.927 -0.0675 -1.7573  1.9765
 1840SOL    HW3 7127   0.992   0.830   5.840  1.1894 -1.7257  0.1274
 1840SOL    MW4 7128   1.028   0.842   5.919 -0.0537 -0.7430  0.5839
 1841SOL     OW 7129   6.372   2.218   1.657 -0.8540 -0.1148  0.1472
 1841SOL    HW2 7130   6.293   2.272   1.652 -0.1678  0.9236  0.2115
 1841SOL    HW3 7131   6.348   2.138   1.611 -1.7285  0.4590 -0.4486
 1841SOL    MW4 7132   6.358   2.215   1.650 -0.8788  0.0979  0.0771
 1842SOL     OW 7133   5.117   4.822   1.525  0.2727  0.0305 -0.1071
 1842SOL    HW2 7134   5.087   4.759   1.459 -0.0910  0.0243  0.0637
 1842SOL    HW3 7135   5.037   4.849   1.570  0.6189 -0.7142  0.9935
 1842SOL    MW4 7136   5.103   4.817   1.522  0.2704 -0.0686  0.0607
 1843SOL     OW 7137   1.262   1.932   0.603  0.2415  0.2088  0.4104
 1843SOL    HW2 7138   1.314   2.011   0.624 -0.3379  0.4320  1.0451
 1843SOL    HW3 7139   1.174   1.965   0.588  0.5319  0.0359 -2.2311
 1843SOL    MW4 7140   1.257   1.947   0.604  0.2033  0.2155  0.1456
 1844SOL     OW 7141   1.432   0.585   0.944 -0.2702  0.6638  0.4330
 1844SOL    HW2 7142   1.487   0.627   0.877 -1.0418  2.0675  0.6465
 1844SOL    HW3 7143   1.494   0.552   1.009  0.3644  1.5066  0.2680
 1844SOL    MW4 7144   1.447   0.586   0.943 -0.2883  0.9602  0.4394
 1845SOL     OW 7145   0.093   2.356   2.862 -0.3579 -0.1283 -0.6502
 1845SOL    HW2 7146   0.007   2.397   2.867 -0.9629 -0.8674 -3.2984
 1845SOL    HW3 7147   0.074   2.263   2.849  0.8711 -0.4367 -0.3647
 1845SOL    MW4 7148   0.079   2.349   2.861 -0.2756 -0.2665 -0.9620
 1846SOL     OW 7149   2.361   6.413   0.543  0.0336 -0.1207  0.1020
 1846SOL    HW2 7150   2.280   6.389   0.499 -0.1355 -1.0309  0.8594
 1846SOL    HW3 7151   2.373   6.505   0.523 -0.8779 -0.1165 -0.5024
 1846SOL    MW4 7152   2.352   6.422   0.535 -0.1090 -0.2403  0.1222
 1847SOL     OW 7153   3.906   6.376   6.250  0.2485 -0.3070  0.1576
 1847SOL    HW2 7154   3.816   6.347   6.241 -1.2819  3.4190  1.3043
 1847SOL    HW3 7155   3.928   6.416   6.166 -0.1387  0.9500  0.6273
 1847SOL    MW4 7156   3.897   6.377   6.238 -0.0045  0.3505  0.3708
 1848SOL     OW 7157   0.703   3.641   4.980  0.2231 -0.0470 -0.2998
 1848SOL    HW2 7158   0.761   3.668   5.050  0.3169  0.6335 -0.6335
 1848SOL    HW3 7159   0.737   3.685   4.902  0.2669 -0.9707 -0.8275
 1848SOL    MW4 7160   0.715   3.650   4.979  0.2413 -0.0791 -0.4135
 1849SOL     OW 7161   1.593   2.389   1.740  0.4428 -0.9509  0.6012
 1849SOL    HW2 7162   1.543   2.335   1.802  1.7269 -2.0241  0.7471
 1849SOL    HW3 7163   1.614   2.469   1.790 -2.4587  0.3100  0.0168
 1849SOL    MW4 7164   1.589   2.393   1.755  0.2294 -0.9261  0.5433
 1850SOL     OW 7165   5.941   5.200   3.738  0.0770 -0.1950  0.2085
 1850SOL    HW2 7166   5.881   5.126   3.740 -1.5942  1.1019  0.4412
 1850SOL    HW3 7167   5.955   5.222   3.831 -0.2919  0.4287  0.1209
 1850SOL    MW4 7168   5.935   5.193   3.751 -0.1922  0.0584  0.2277
 1851SOL     OW 7169   1.912   1.332   5.074  0.2641  0.1434  0.3891
 1851SOL    HW2 7170   1.900   1.407   5.132 -0.7503 -0.7001  1.3073
 1851SOL    HW3 7171   1.844   1.270   5.100  0.5284 -0.7504 -0.9275
 1851SOL    MW4 7172   1.901   1.334   5.085  0.1651 -0.0858  0.3365
 1852SOL     OW 7173   1.461   4.195   0.281  0.0671  0.0283 -0.4727
 1852SOL    HW2 7174   1.509   4.146   0.214 -1.8872 -0.1616 -1.8138
 1852SOL    HW3 7175   1.437   4.129   0.346  3.0525  0.4186  1.1879
 1852SOL    MW4 7176   1.464   4.180   0.280  0.2031  0.0548 -0.4305
 1853SOL     OW 7177   2.814   5.116   6.004 -0.3507 -0.6355  0.5728
 1853SOL    HW2 7178   2.843   5.205   5.986  1.5168 -0.9924  1.5025
 1853SOL    HW3 7179   2.721   5.115   5.980  0.0686  0.9741 -1.4132
 1853SOL    MW4 7180   2.806   5.127   5.998 -0.0489 -0.4702  0.4334
 1854SOL     OW 7181   4.917   4.215   6.253  0.0245 -0.3620  0.5271
 1854SOL    HW2 7182   4.961   4.131   6.241 -0.6149 -0.4975 -1.2656
 1854SOL    HW3 7183   4.851   4.217   6.183 -0.3124  1.4026  0.8526
 1854SOL    MW4 7184   4.914   4.205   6.242 -0.1043 -0.1471  0.3335
 1855SOL     OW 7185   1.869   1.179   0.828  0.6276 -0.5722 -0.5459
 1855SOL    HW2 7186   1.935   1.168   0.760  0.0809 -2.1751 -0.8629
 1855SOL    HW3 7187   1.870   1.097   0.877 -0.1314 -0.0793  0.3549
 1855SOL    MW4 7188   1.877   1.167   0.826  0.4553 -0.7186 -0.4689
 1856SOL     OW 7189   6.402   2.690   3.077  0.2528  0.4818 -0.1415
 1856SOL    HW2 7190   6.450   2.751   3.021 -2.5426  1.4692 -1.6570
 1856SOL    HW3 7191   6.376   2.619   3.019 -2.5978  1.4521 -0.1960
 1856SOL    MW4 7192   6.405   2.689   3.062 -0.4922  0.7401 -0.3486
 1857SOL     OW 7193   1.272   3.472   5.535 -0.1314 -0.5284 -0.1567
 1857SOL    HW2 7194   1.278   3.386   5.576  1.3403 -0.8296 -0.9219
 1857SOL    HW3 7195   1.318   3.462   5.451  2.7644  1.7086  0.9730
 1857SOL    MW4 7196   1.279   3.460   5.529  0.4448 -0.2730 -0.1086
 1858SOL     OW 7197   3.311   4.869   4.463 -0.4367 -0.2352  0.3026
 1858SOL    HW2 7198   3.263   4.794   4.430 -0.6284  0.0467 -0.0669
 1858SOL    HW3 7199   3.245   4.937   4.476  0.0163  0.6685 -1.6704
 1858SOL    MW4 7200   3.296   4.868   4.460 -0.4022 -0.0788 -0.0065
 1859SOL     OW 7201   3.116   4.540   5.356  0.5298  0.1374 -0.0277
 1859SOL    HW2 7202   3.193   4.550   5.299  0.7504  2.3657  0.5704
 1859SOL    HW3 7203   3.112   4.622   5.405 -1.0533 -0.7651  1.4526
 1859SOL    MW4 7204   3.126   4.552   5.355  0.3500  0.3123  0.2465
 1860SOL     OW 7205   4.924   2.319   4.016  0.5933  0.1573  0.1221
 1860SOL    HW2 7206   4.856   2.386   4.013  1.2465  0.8379 -2.2888
 1860SOL    HW3 7207   4.879   2.237   3.994  0.1442  0.1272  1.0970
 1860SOL    MW4 7208   4.909   2.317   4.013  0.6202  0.2431 -0.0674
 1861SOL     OW 7209   0.042   4.929   2.513 -0.4320 -0.0977 -0.2886
 1861SOL    HW2 7210   0.133   4.923   2.542 -0.9084 -1.6033  1.0116
 1861SOL    HW3 7211   0.036   4.870   2.438 -0.2536  0.3445 -0.6583
 1861SOL    MW4 7212   0.053   4.921   2.507 -0.4713 -0.2380 -0.1659
 1862SOL     OW 7213   3.811   4.323   4.633  0.0325  0.6270 -0.2686
 1862SOL    HW2 7214   3.786   4.341   4.724 -3.0977 -1.6462 -0.4810
 1862SOL    HW3 7215   3.773   4.395   4.583  0.8650  1.3365  0.0936
 1862SOL    MW4 7216   3.802   4.335   4.638 -0.2707  0.4207 -0.2488
 1863SOL     OW 7217   2.615   6.428   4.395 -0.0963  0.1210 -0.6086
 1863SOL    HW2 7218   2.609   6.521   4.416 -0.7760  0.3333 -1.6737
 1863SOL    HW3 7219   2.592   6.383   4.476 -1.2897  0.8894 -0.4970
 1863SOL    MW4 7220   2.612   6.434   4.408 -0.3435  0.2504 -0.7344
 1864SOL     OW 7221   4.794   0.783   0.897  0.2288  0.4439  0.2078
 1864SOL    HW2 7222   4.867   0.813   0.843  0.2724 -0.3303 -0.1657
 1864SOL    HW3 7223   4.828   0.706   0.943 -0.1230  0.5118  0.5877
 1864SOL    MW4 7224   4.808   0.777   0.896  0.1881  0.3507  0.2086
 1865SOL     OW 7225   5.058   3.907   5.329 -0.0046  0.5221 -1.1099
 1865SOL    HW2 7226   5.011   3.946   5.402 -0.1138 -1.1185 -0.2486
 1865SOL    HW3 7227   5.151   3.917   5.352 -0.0489 -1.0031 -0.1361
 1865SOL    MW4 7228   5.064   3.913   5.341 -0.0248  0.1044 -0.8678
 1866SOL     OW 7229   5.317   0.308   1.224  0.8070  0.6259  0.6928
 1866SOL    HW2 7230   5.292   0.287   1.314 -2.4466  2.1230  0.2793
 1866SOL    HW3 7231   5.244   0.275   1.171  1.6345  1.6572 -1.1689
 1866SOL    MW4 7232   5.304   0.301   1.229  0.4869  0.9595  0.3926
 1867SOL     OW 7233   5.900   1.095   4.178 -0.2780  0.5095 -0.2795
 1867SOL    HW2 7234   5.881   1.111   4.086  1.8495  2.0673 -0.5207
 1867SOL    HW3 7235   5.996   1.089   4.182 -0.3552 -0.2147  1.7462
 1867SOL    MW4 7236   5.910   1.096   4.167 -0.0075  0.6195 -0.0441
 1868SOL     OW 7237   4.576   1.761   3.579  0.0327  0.2574  0.1382
 1868SOL    HW2 7238   4.605   1.844   3.618  0.1824  0.8096 -1.1089
 1868SOL    HW3 7239   4.591   1.772   3.486 -0.5395 -0.9529 -0.1130
 1868SOL    MW4 7240   4.582   1.773   3.572 -0.0230  0.1706 -0.0595
 1869SOL     OW 7241   6.213   4.979   0.529  0.0833  0.1474 -0.4356
 1869SOL    HW2 7242   6.288   4.926   0.502  0.7916  0.8874  0.0326
 1869SOL    HW3 7243   6.192   4.949   0.617  0.8505  0.9922  0.0615
 1869SOL    MW4 7244   6.220   4.968   0.537  0.2779  0.3565 -0.3083
 1870SOL     OW 7245   5.360   3.300   3.764 -0.5159 -0.2896  0.8984
 1870SOL    HW2 7246   5.331   3.344   3.844 -0.5333 -0.5306  1.0259
 1870SOL    HW3 7247   5.323   3.212   3.770 -0.3598 -0.3689  0.7164
 1870SOL    MW4 7248   5.352   3.294   3.775 -0.4976 -0.3319  0.8912
 1871SOL     OW 7249   2.982   4.602   1.175  0.0594  0.2654  0.2231
 1871SOL    HW2 7250   2.983   4.538   1.245 -0.6204  0.0738  0.0683
 1871SOL    HW3 7251   3.005   4.685   1.217  1.3384 -0.1374  0.3507
 1871SOL    MW4 7252   2.985   4.604   1.190  0.1385  0.1870  0.2195
 1872SOL     OW 7253   1.943   6.247   5.079 -0.2735 -0.3441  0.2692
 1872SOL    HW2 7254   1.910   6.177   5.135 -0.5623  0.2426  0.8509
 1872SOL    HW3 7255   1.869   6.308   5.072 -0.6197 -0.8947 -1.6078
 1872SOL    MW4 7256   1.929   6.246   5.085 -0.3573 -0.3394  0.0983
 1873SOL     OW 7257   1.064   4.059   1.631  0.2216  0.2316  0.1784
 1873SOL    HW2 7258   1.026   4.015   1.555  0.3619 -1.1487  0.8655
 1873SOL    HW3 7259   1.058   4.152   1.611 -1.8704 -0.0045 -0.5110
 1873SOL    MW4 7260   1.058   4.065   1.618 -0.0359  0.0183  0.1781
 1874SOL     OW 7261   2.766   4.863   3.359  0.2000 -0.1014 -0.2510
 1874SOL    HW2 7262   2.778   4.769   3.344 -1.0818 -0.4054  0.4803
 1874SOL    HW3 7263   2.808   4.904   3.284  0.2106 -1.2839 -0.9263
 1874SOL    MW4 7264   2.773   4.856   3.347  0.0323 -0.2975 -0.2436
 1875SOL     OW 7265   2.804   1.739   4.680  0.0982 -0.8640 -0.0483
 1875SOL    HW2 7266   2.798   1.644   4.678 -2.4038 -0.8854  2.2668
 1875SOL    HW3 7267   2.799   1.762   4.773 -2.0682  1.5644 -0.6361
 1875SOL    MW4 7268   2.802   1.730   4.692 -0.5177 -0.5464  0.1796
 1876SOL     OW 7269   4.814   4.560   0.035  0.3941 -0.1627 -0.0904
 1876SOL    HW2 7270   4.829   4.496   0.105  0.9963 -0.4155 -0.4496
 1876SOL    HW3 7271   4.900   4.595   0.015  0.5642 -1.6297 -2.1718
 1876SOL    MW4 7272   4.827   4.556   0.042  0.4960 -0.3896 -0.4124
 1877SOL     OW 7273   4.899   0.129   0.419 -0.6855 -0.5839 -0.8636
 1877SOL    HW2 7274   4.986   0.165   0.403 -0.8607 -0.4059 -1.4422
 1877SOL    HW3 7275   4.844   0.165   0.349 -1.7112  0.9163  0.6329
 1877SOL    MW4 7276   4.903   0.138   0.407 -0.8439 -0.3625 -0.7425
 1878SOL     OW 7277   2.761   2.399   3.293 -0.7451 -0.6053  0.5718
 1878SOL    HW2 7278   2.755   2.483   3.338 -0.1881 -0.1578 -0.1533
 1878SOL    HW3 7279   2.841   2.360   3.328 -1.1696 -0.9764  1.1351
 1878SOL    MW4 7280   2.771   2.405   3.304 -0.7276 -0.5952  0.5505
 1879SOL     OW 7281   3.937   4.777   6.365 -0.0093  0.0037  0.1155
 1879SOL    HW2 7282   3.866   4.761   6.302 -0.0328 -0.4225  0.2522
 1879SOL    HW3 7283   3.941   4.697   6.417  0.7082 -0.0459 -0.0174
 1879SOL    MW4 7284   3.928   4.765   6.363  0.0823 -0.0591  0.1160
 1880SOL     OW 7285   1.271   5.931   3.809  0.5390  0.0712 -0.3314
 1880SOL    HW2 7286   1.299   5.978   3.888  0.0595 -0.3664  0.1046
 1880SOL    HW3 7287   1.185   5.897   3.831  0.7430 -0.7405 -0.7533
 1880SOL    MW4 7288   1.264   5.933   3.822  0.5027 -0.0937 -0.3296
 1881SOL     OW 7289   1.207   3.658   0.802 -0.2046  0.1882 -0.0993
 1881SOL    HW2 7290   1.129   3.654   0.747 -1.5690 -1.0523  1.7915
 1881SOL    HW3 7291   1.279   3.672   0.741 -1.8716  1.3087 -1.9306
 1881SOL    MW4 7292   1.206   3.659   0.787 -0.6045  0.1724 -0.0914
 1882SOL     OW 7293   1.098   0.893   5.477 -0.0602  0.4526 -0.9229
 1882SOL    HW2 7294   1.173   0.948   5.495 -0.3656  0.9078 -1.0334
 1882SOL    HW3 7295   1.039   0.948   5.426 -1.0746  0.5686  0.3166
 1882SOL    MW4 7296   1.100   0.907   5.473 -0.2344  0.5279 -0.7740
 1883SOL     OW 7297   1.704   0.565   4.001  0.0636 -0.4312 -0.1019
 1883SOL    HW2 7298   1.787   0.542   4.040  0.4874 -0.5642 -1.0464
 1883SOL    HW3 7299   1.710   0.659   3.984  0.1836 -0.5123 -0.5271
 1883SOL    MW4 7300   1.715   0.574   4.004  0.1353 -0.4595 -0.2826
 1884SOL     OW 7301   4.417   3.887   5.836 -0.2034  0.6159 -0.6636
 1884SOL    HW2 7302   4.507   3.895   5.867  0.3613  2.5682 -2.5426
 1884SOL    HW3 7303   4.402   3.793   5.829  0.3510  0.0931  3.1019
 1884SOL    MW4 7304   4.427   3.876   5.839 -0.0558  0.8045 -0.4147
 1885SOL     OW 7305   3.934   0.759   4.204  0.0897  0.2443  0.5188
 1885SOL    HW2 7306   4.006   0.722   4.254 -0.7360 -1.1358  0.7408
 1885SOL    HW3 7307   3.948   0.854   4.208  2.0863  0.0007  0.2101
 1885SOL    MW4 7308   3.945   0.767   4.211  0.2442  0.0300  0.5073
 1886SOL     OW 7309   2.223   0.718   3.452  0.2787 -0.0357  0.0221
 1886SOL    HW2 7310   2.230   0.639   3.400 -1.2182 -0.0082 -0.2480
 1886SOL    HW3 7311   2.165   0.776   3.403 -0.6133  0.2660  1.3635
 1886SOL    MW4 7312   2.217   0.715   3.439 -0.0365  0.0077  0.1635
 1887SOL     OW 7313   4.329   4.481   2.524  0.9387  0.3593  0.5278
 1887SOL    HW2 7314   4.309   4.503   2.615 -0.6872  2.3404 -0.2331
 1887SOL    HW3 7315   4.424   4.496   2.516  0.8573  1.5538  1.5479
 1887SOL    MW4 7316   4.339   4.486   2.535  0.7135  0.7783  0.5620
 1888SOL     OW 7317   0.238   1.460   3.605 -0.0825 -0.3325 -0.4527
 1888SOL    HW2 7318   0.144   1.455   3.584 -0.0840 -0.6568 -0.3718
 1888SOL    HW3 7319   0.282   1.440   3.523 -0.0859 -2.4255 -0.0031
 1888SOL    MW4 7320   0.231   1.457   3.592 -0.0831 -0.6514 -0.3827
 1889SOL     OW 7321   5.472   3.758   5.151  0.1421  0.0123  0.1400
 1889SOL    HW2 7322   5.441   3.795   5.233 -0.1114 -0.0342  0.0642
 1889SOL    HW3 7323   5.407   3.785   5.086  0.6812  0.6107 -0.1652
 1889SOL    MW4 7324   5.460   3.766   5.153  0.1798  0.0851  0.0897
 1890SOL     OW 7325   3.583   6.171   5.882  0.2065  0.5447 -0.4767
 1890SOL    HW2 7326   3.581   6.101   5.817  0.7801 -0.2437  0.3355
 1890SOL    HW3 7327   3.491   6.197   5.891 -0.1133 -0.5883 -0.2791
 1890SOL    MW4 7328   3.570   6.165   5.875  0.2400  0.2912 -0.3435
 1891SOL     OW 7329   0.060   3.214   1.414  0.3072 -0.0539  0.3279
 1891SOL    HW2 7330   0.139   3.267   1.428  0.4192  0.9919 -3.1574
 1891SOL    HW3 7331  -0.004   3.276   1.379 -0.4265 -1.6885 -1.4300
 1891SOL    MW4 7332   0.062   3.229   1.411  0.2251 -0.1316 -0.3638
 1892SOL     OW 7333   1.349   3.738   2.070  0.5533 -0.2105 -0.2724
 1892SOL    HW2 7334   1.341   3.669   2.135 -1.3135 -0.0767 -0.2901
 1892SOL    HW3 7335   1.379   3.694   1.991 -2.0349 -1.3468 -0.7142
 1892SOL    MW4 7336   1.352   3.723   2.068 -0.0345 -0.3427 -0.3330
 1893SOL     OW 7337   0.739   0.086   4.646  0.0144  0.4368 -0.1605
 1893SOL    HW2 7338   0.680   0.158   4.669  2.9766  2.7332  0.8224
 1893SOL    HW3 7339   0.753   0.096   4.552  0.5184  1.2555 -0.0047
 1893SOL    MW4 7340   0.733   0.097   4.637  0.4718  0.8478 -0.0102
 1894SOL     OW 7341   1.874   2.160   4.043  0.3073 -0.6145  0.1820
 1894SOL    HW2 7342   1.918   2.085   4.082  1.1970 -1.1128 -1.6807
 1894SOL    HW3 7343   1.818   2.122   3.975  0.4536  0.3697 -0.5073
 1894SOL    MW4 7344   1.872   2.145   4.039  0.4439 -0.5504 -0.1547
 1895SOL     OW 7345   1.648   5.048   0.494  0.1440  0.2828 -0.2714
 1895SOL    HW2 7346   1.635   5.139   0.519  1.7720  0.1811  1.1141
 1895SOL    HW3 7347   1.717   5.016   0.552 -0.9771 -2.0995 -0.1025
 1895SOL    MW4 7348   1.655   5.056   0.505  0.2109 -0.0449 -0.0663
 1896SOL     OW 7349   2.187   4.981   2.006  0.3600  0.2425 -0.2824
 1896SOL    HW2 7350   2.274   5.023   2.005  1.2741 -1.5387  0.8724
 1896SOL    HW3 7351   2.194   4.911   1.941 -0.1315 -0.0631 -0.0095
 1896SOL    MW4 7352   2.199   4.978   1.997  0.4158 -0.0328 -0.0940
 1897SOL     OW 7353   4.128   3.451   6.163 -0.2587 -0.2279 -0.2572
 1897SOL    HW2 7354   4.032   3.455   6.163 -0.3501 -1.7483  0.8274
 1897SOL    HW3 7355   4.154   3.513   6.095 -2.0182 -0.0674 -0.8373
 1897SOL    MW4 7356   4.119   3.460   6.154 -0.5029 -0.4073 -0.1907
 1898SOL     OW 7357   3.579   2.191   6.035  0.3034 -0.2688 -0.2781
 1898SOL    HW2 7358   3.583   2.283   6.061  1.7560 -0.4566  0.2357
 1898SOL    HW3 7359   3.666   2.156   6.054 -0.6613 -2.1411  0.9760
 1898SOL    MW4 7360   3.591   2.198   6.041  0.3678 -0.5406 -0.0448
 1899SOL     OW 7361   3.420   1.253   3.596  0.6815 -0.1136 -0.0695
 1899SOL    HW2 7362   3.508   1.267   3.632  0.6267  1.7985 -0.5696
 1899SOL    HW3 7363   3.374   1.204   3.664  0.8309  2.6437  2.2027
 1899SOL    MW4 7364   3.426   1.249   3.609  0.6940  0.5025  0.1643
 1900SOL     OW 7365   0.182   3.057   0.808 -0.4573 -0.6264  0.1291
 1900SOL    HW2 7366   0.156   3.114   0.880  0.2624  2.3677 -1.8195
 1900SOL    HW3 7367   0.145   3.098   0.730  1.6202 -1.7894 -1.5798
 1900SOL    MW4 7368   0.174   3.070   0.807 -0.0882 -0.3848 -0.3534
 1901SOL     OW 7369   4.519   6.412   5.881  0.0148 -0.0283 -0.1203
 1901SOL    HW2 7370   4.432   6.398   5.918 -0.6737 -0.5617 -1.8767
 1901SOL    HW3 7371   4.578   6.372   5.945 -0.8985  1.1983  1.5847
 1901SOL    MW4 7372   4.516   6.405   5.895 -0.1965  0.0632 -0.1271
 1902SOL     OW 7373   4.683   1.964   5.375 -0.0788  0.7903  0.1087
 1902SOL    HW2 7374   4.694   2.053   5.410  0.7171 -0.0482  2.1382
 1902SOL    HW3 7375   4.762   1.949   5.323  1.0678  0.3985  1.8740
 1902SOL    MW4 7376   4.695   1.974   5.372  0.1775  0.6280  0.6094
 1903SOL     OW 7377   4.855   3.646   0.080  0.0421 -0.8366  0.0482
 1903SOL    HW2 7378   4.818   3.732   0.096 -3.0101 -2.1963  1.0102
 1903SOL    HW3 7379   4.937   3.663   0.034 -0.9736  2.5072 -0.7827
 1903SOL    MW4 7380   4.861   3.659   0.076 -0.4946 -0.5748  0.0655
 1904SOL     OW 7381   2.192   4.164   4.204  0.0800  0.1874 -0.4241
 1904SOL    HW2 7382   2.107   4.164   4.248  1.1645  3.2319  2.0296
 1904SOL    HW3 7383   2.172   4.188   4.113 -1.6635  1.8717  0.3342
 1904SOL    MW4 7384   2.178   4.167   4.198 -0.0069  0.8113 -0.0003
 1905SOL     OW 7385   6.264   1.027   5.772  0.1878  0.8314  0.2013
 1905SOL    HW2 7386   6.328   1.022   5.701 -0.2230  4.1087 -0.5917
 1905SOL    HW3 7387   6.179   1.013   5.730 -0.0489  2.6998 -0.0701
 1905SOL    MW4 7388   6.261   1.025   5.757  0.1024  1.5103  0.0608
 1906SOL     OW 7389   4.583   4.680   2.624 -0.4450  0.0577  1.0086
 1906SOL    HW2 7390   4.600   4.590   2.598 -0.7197  0.4240 -0.5545
 1906SOL    HW3 7391   4.612   4.685   2.715 -0.1436 -1.5143  1.0255
 1906SOL    MW4 7392   4.589   4.669   2.633 -0.4415 -0.1014  0.8046
 1907SOL     OW 7393   4.455   5.071   6.259  0.2273  0.4732 -0.5022
 1907SOL    HW2 7394   4.508   5.118   6.323 -0.0319 -0.1327  0.1879
 1907SOL    HW3 7395   4.367   5.069   6.298  0.2007 -0.4266 -0.5835
 1907SOL    MW4 7396   4.450   5.077   6.273  0.1895  0.2745 -0.4219
 1908SOL     OW 7397   4.036   3.697   0.918 -0.0482 -0.2819  0.3036
 1908SOL    HW2 7398   4.106   3.747   0.876 -0.8729  0.4001 -0.2923
 1908SOL    HW3 7399   4.081   3.645   0.985  1.3857 -1.7717 -1.7181
 1908SOL    MW4 7400   4.051   3.697   0.922  0.0322 -0.3885 -0.0417
 1909SOL     OW 7401   0.020   4.443   5.964  0.1483  0.4139 -0.3585
 1909SOL    HW2 7402   0.096   4.495   5.988  0.0441  1.0297 -1.2995
 1909SOL    HW3 7403   0.041   4.408   5.877 -1.1779  1.7286 -1.2628
 1909SOL    MW4 7404   0.033   4.445   5.955 -0.0405  0.6686 -0.6019
 1910SOL     OW 7405   1.058   2.284   5.591 -0.6090  0.1448  0.2233
 1910SOL    HW2 7406   1.070   2.237   5.673  1.2981 -0.4055 -0.3109
 1910SOL    HW3 7407   1.135   2.340   5.584 -0.2238 -0.5506 -1.6337
 1910SOL    MW4 7408   1.070   2.285   5.601 -0.3066 -0.0196 -0.0922
 1911SOL     OW 7409   3.758   0.371   1.285 -0.2388  1.0314 -0.5974
 1911SOL    HW2 7410   3.789   0.456   1.254 -0.4329  1.0168 -0.8399
 1911SOL    HW3 7411   3.704   0.392   1.362 -2.9372  1.4840 -2.4612
 1911SOL    MW4 7412   3.755   0.385   1.291 -0.6204  1.0892 -0.8753
 1912SOL     OW 7413   0.940   1.291   6.309  0.2042 -0.1563 -0.1561
 1912SOL    HW2 7414   0.909   1.326   6.225  0.4084 -1.4827 -0.8249
 1912SOL    HW3 7415   1.017   1.344   6.329  0.6976 -0.3953 -1.2954
 1912SOL    MW4 7416   0.946   1.303   6.300  0.2962 -0.3628 -0.3947
 1913SOL     OW 7417   5.218   2.331   3.282  0.3546  0.3573  0.0311
 1913SOL    HW2 7418   5.309   2.326   3.253  1.4473  2.2930  2.7370
 1913SOL    HW3 7419   5.223   2.368   3.370 -3.0918  0.8031  0.1613
 1913SOL    MW4 7420   5.231   2.335   3.289  0.0441  0.6715  0.4053
 1914SOL     OW 7421   0.059   1.915   6.395  0.2927  0.2413  0.0551
 1914SOL    HW2 7422   0.143   1.870   6.407 -0.0725 -0.4687 -0.0206
 1914SOL    HW3 7423   0.059   1.984   6.461  1.0207  0.3661 -0.0695
 1914SOL    MW4 7424   0.070   1.918   6.405  0.3406  0.1641  0.0287
 1915SOL     OW 7425   5.528   5.235   3.667 -0.2092 -0.0173 -0.0404
 1915SOL    HW2 7426   5.506   5.299   3.599  0.3541 -0.1493 -0.3535
 1915SOL    HW3 7427   5.500   5.151   3.630 -0.5675 -0.0015  0.1958
 1915SOL    MW4 7428   5.521   5.232   3.653 -0.1822 -0.0326 -0.0505
 1916SOL     OW 7429   6.389   5.459   0.752 -0.0622 -0.4423 -0.3080
 1916SOL    HW2 7430   6.459   5.441   0.815  1.1622  0.0583 -1.4803
 1916SOL    HW3 7431   6.312   5.477   0.807  0.9662  0.0317  1.0536
 1916SOL    MW4 7432   6.388   5.459   0.768  0.2350 -0.3137 -0.2831
 1917SOL     OW 7433   3.989   5.005   1.503  0.3324 -0.3425  0.1523
 1917SOL    HW2 7434   4.083   5.005   1.520  0.3144 -0.2786  0.2502
 1917SOL    HW3 7435   3.982   4.986   1.409  0.5584  2.2724 -0.4746
 1917SOL    MW4 7436   4.000   5.003   1.493  0.3598  0.0110  0.0825
 1918SOL     OW 7437   0.064   0.586   2.363  0.4567 -0.2825  0.0084
 1918SOL    HW2 7438   0.154   0.560   2.341  1.3653  1.6814  1.1369
 1918SOL    HW3 7439   0.060   0.579   2.458 -0.1887  0.8111  0.0752
 1918SOL    MW4 7440   0.076   0.582   2.372  0.4914  0.1209  0.1661
 1919SOL     OW 7441   1.097   5.285   1.065  0.0121  0.0709 -0.6512
 1919SOL    HW2 7442   1.043   5.323   0.996  1.8369 -0.1086 -2.2628
 1919SOL    HW3 7443   1.035   5.244   1.125 -1.9133  3.3778 -0.1381
 1919SOL    MW4 7444   1.082   5.285   1.064 -0.0012  0.4835 -0.7961
 1920SOL     OW 7445   0.201   6.209   0.562 -0.5092  0.2972  0.1207
 1920SOL    HW2 7446   0.156   6.204   0.478 -1.7486  1.3218  0.6976
 1920SOL    HW3 7447   0.265   6.138   0.559 -0.1045  0.6968 -1.9204
 1920SOL    MW4 7448   0.204   6.199   0.551 -0.6193  0.4851 -0.0725
 1921SOL     OW 7449   5.274   1.716   4.332  0.7253 -0.0401  0.6594
 1921SOL    HW2 7450   5.249   1.722   4.424  1.1545  0.2828  0.7596
 1921SOL    HW3 7451   5.272   1.807   4.301  1.2394 -0.0736  0.5293
 1921SOL    MW4 7452   5.270   1.729   4.340  0.8498 -0.0019  0.6555
 1922SOL     OW 7453   2.931   3.011   1.638  0.2125  0.2355  0.1540
 1922SOL    HW2 7454   2.871   2.937   1.629  0.5288 -0.2915  1.9101
 1922SOL    HW3 7455   2.996   2.981   1.702  1.2702  1.4659 -0.3027
 1922SOL    MW4 7456   2.932   2.997   1.645  0.3938  0.3283  0.3254
 1923SOL     OW 7457   2.101   3.217   0.459 -0.0829  0.1611 -0.0868
 1923SOL    HW2 7458   2.152   3.282   0.411 -0.6827  1.0206  0.4135
 1923SOL    HW3 7459   2.023   3.203   0.405  0.0500 -0.1661 -0.2001
 1923SOL    MW4 7460   2.097   3.224   0.446 -0.1445  0.2313 -0.0358
 1924SOL     OW 7461   6.152   2.258   5.259  0.2700  0.7644 -0.4235
 1924SOL    HW2 7462   6.228   2.307   5.226 -1.1462  2.5849 -1.1944
 1924SOL    HW3 7463   6.078   2.295   5.211 -0.9401 -2.1165 -0.9424
 1924SOL    MW4 7464   6.153   2.269   5.248 -0.0765  0.6245 -0.5937
 1925SOL     OW 7465   3.370   0.675   3.002  0.1024 -0.0162 -0.1449
 1925SOL    HW2 7466   3.372   0.761   2.960 -0.6894  1.1561  2.0012
 1925SOL    HW3 7467   3.448   0.630   2.970  1.4581  2.1455 -0.1035
 1925SOL    MW4 7468   3.380   0.681   2.993  0.1768  0.4236  0.1437
 1926SOL     OW 7469   3.924   5.298   1.100 -0.3078 -0.0433 -0.2554
 1926SOL    HW2 7470   3.911   5.353   1.177  0.8461 -0.0807 -0.0175
 1926SOL    HW3 7471   4.017   5.305   1.081 -0.4083 -0.7905 -1.0791
 1926SOL    MW4 7472   3.935   5.306   1.108 -0.1688 -0.1468 -0.3327
 1927SOL     OW 7473   2.361   2.026   5.424  0.2485  0.1025  0.5187
 1927SOL    HW2 7474   2.444   1.979   5.427 -0.5397 -1.3866  0.1725
 1927SOL    HW3 7475   2.313   1.996   5.501  0.1195  1.1629  0.8753
 1927SOL    MW4 7476   2.365   2.016   5.435  0.1275  0.0459  0.5201
 1928SOL     OW 7477   2.876   3.275   1.729  0.0691  0.3477 -0.4659
 1928SOL    HW2 7478   2.908   3.187   1.710  1.0320  0.3416  1.0567
 1928SOL    HW3 7479   2.952   3.332   1.718 -0.2581  0.8394 -0.2444
 1928SOL    MW4 7480   2.890   3.271   1.725  0.1530  0.4118 -0.2358
 1929SOL     OW 7481   1.102   2.335   3.720  0.2728  0.4316 -0.2013
 1929SOL    HW2 7482   1.053   2.417   3.715 -0.4779  0.0117  0.0319
 1929SOL    HW3 7483   1.151   2.340   3.802  0.0332  0.5453 -0.0641
 1929SOL    MW4 7484   1.102   2.347   3.730  0.1421  0.3912 -0.1524
 1930SOL     OW 7485   4.836   0.032   0.872  0.7498 -0.5503 -0.2188
 1930SOL    HW2 7486   4.850  -0.012   0.956  0.0693  0.6001  0.5300
 1930SOL    HW3 7487   4.765  -0.016   0.830  1.7287 -1.7211 -0.5975
 1930SOL    MW4 7488   4.829   0.020   0.878  0.7892 -0.5530 -0.1700
 1931SOL     OW 7489   1.337   6.148   4.940  0.0840 -0.0425  0.3135
 1931SOL    HW2 7490   1.393   6.085   4.893 -0.2174  0.4679 -0.7628
 1931SOL    HW3 7491   1.250   6.108   4.940  0.5708 -1.3321  2.9098
 1931SOL    MW4 7492   1.333   6.134   4.933  0.1085 -0.1453  0.5140
 1932SOL     OW 7493   3.333   4.132   4.601 -0.2426  0.3142  0.6055
 1932SOL    HW2 7494   3.279   4.177   4.536  1.1590  1.5657  0.2449
 1932SOL    HW3 7495   3.409   4.101   4.551  1.3062  2.0713  1.7106
 1932SOL    MW4 7496   3.336   4.134   4.586  0.1467  0.7111  0.7037
 1933SOL     OW 7497   4.226   3.798   6.175  0.0931  0.5658  0.3008
 1933SOL    HW2 7498   4.310   3.754   6.186  0.5708  0.5264 -2.7528
 1933SOL    HW3 7499   4.249   3.889   6.153 -0.6114  0.4649 -0.9205
 1933SOL    MW4 7500   4.240   3.804   6.174  0.0632  0.5473 -0.2632
 1934SOL     OW 7501   5.634   5.228   2.392  0.0089  0.0890  0.1029
 1934SOL    HW2 7502   5.538   5.226   2.397  0.0181 -0.5729  0.1401
 1934SOL    HW3 7503   5.654   5.216   2.299  0.0547 -0.0367  0.1280
 1934SOL    MW4 7504   5.624   5.226   2.381  0.0162 -0.0149  0.1111
 1935SOL     OW 7505   0.593   4.618   1.947 -0.4369 -0.1747 -0.2438
 1935SOL    HW2 7506   0.646   4.577   2.016 -0.3247  1.1846  0.4950
 1935SOL    HW3 7507   0.579   4.547   1.884  1.1528 -0.9204  0.1793
 1935SOL    MW4 7508   0.598   4.603   1.948 -0.2123 -0.0937 -0.0905
 1936SOL     OW 7509   3.112   2.058   3.480  1.2808  0.0509 -0.0677
 1936SOL    HW2 7510   3.151   1.982   3.523  0.7748  0.1325  0.5550
 1936SOL    HW3 7511   3.184   2.100   3.435  1.9761  0.3356  1.2638
 1936SOL    MW4 7512   3.126   2.053   3.480  1.3058  0.0992  0.1901
 1937SOL     OW 7513   3.193   1.462   5.985 -0.7611 -0.0050  0.3797
 1937SOL    HW2 7514   3.151   1.388   6.030 -0.6442  1.3731  2.9498
 1937SOL    HW3 7515   3.158   1.459   5.896 -0.4360 -3.3563  0.2629
 1937SOL    MW4 7516   3.183   1.452   5.980 -0.7028 -0.2653  0.7033
 1938SOL     OW 7517   1.715   5.273   1.598 -0.0910 -0.7020  0.1933
 1938SOL    HW2 7518   1.804   5.263   1.565 -1.0125 -1.8080 -2.2509
 1938SOL    HW3 7519   1.693   5.187   1.633 -0.6541 -0.8908 -0.5805
 1938SOL    MW4 7520   1.724   5.260   1.598 -0.2869 -0.8728 -0.2312
 1939SOL     OW 7521   2.774   1.003   5.863 -0.5572  0.7637 -0.1773
 1939SOL    HW2 7522   2.842   0.986   5.799 -0.3524  1.4915 -0.1594
 1939SOL    HW3 7523   2.751   0.917   5.897 -0.4016  0.4080 -0.9492
 1939SOL    MW4 7524   2.780   0.990   5.859 -0.5096  0.8128 -0.2768
 1940SOL     OW 7525   1.961   5.175   0.317  0.1752 -0.2378 -0.2805
 1940SOL    HW2 7526   2.031   5.123   0.357  1.4614  0.2556 -1.8159
 1940SOL    HW3 7527   2.002   5.218   0.242 -1.5501  0.8213 -0.6728
 1940SOL    MW4 7528   1.976   5.174   0.313  0.1173 -0.0330 -0.5349
 1941SOL     OW 7529   4.481   4.237   2.863 -0.0561 -0.3061 -0.0941
 1941SOL    HW2 7530   4.428   4.174   2.910 -0.3117 -0.6916 -0.8813
 1941SOL    HW3 7531   4.471   4.213   2.771  2.0653 -0.8603 -0.2281
 1941SOL    MW4 7532   4.473   4.226   2.857  0.1901 -0.4301 -0.2157
 1942SOL     OW 7533   6.140   6.207   0.101  0.3414  0.2644 -0.1950
 1942SOL    HW2 7534   6.071   6.149   0.068 -0.4986 -0.7911  3.0289
 1942SOL    HW3 7535   6.134   6.285   0.046 -1.8157 -0.7447 -1.5541
 1942SOL    MW4 7536   6.130   6.210   0.089 -0.0541 -0.0080  0.0510
 1943SOL     OW 7537   2.742   4.913   2.887 -0.2919  0.0405  0.3465
 1943SOL    HW2 7538   2.651   4.894   2.863 -0.1566 -0.4004  0.1725
 1943SOL    HW3 7539   2.774   4.831   2.926  0.0012  0.2235  0.4922
 1943SOL    MW4 7540   2.734   4.899   2.889 -0.2354  0.0065  0.3428
 1944SOL     OW 7541   5.298   6.077   4.035 -0.0780  0.6647  0.1691
 1944SOL    HW2 7542   5.243   6.019   3.982  0.9519  0.9808 -1.2938
 1944SOL    HW3 7543   5.289   6.043   4.124 -0.2733 -1.1443 -0.4999
 1944SOL    MW4 7544   5.289   6.065   4.040  0.0321  0.4677 -0.1121
 1945SOL     OW 7545   6.161   5.017   1.561 -0.5179  0.3295  0.4132
 1945SOL    HW2 7546   6.088   5.017   1.623 -0.1805  2.9284  0.9175
 1945SOL    HW3 7547   6.239   5.025   1.616 -0.2451  3.3737 -0.2473
 1945SOL    MW4 7548   6.162   5.018   1.577 -0.4374  1.0740  0.3926
 1946SOL     OW 7549   3.800   5.303   5.087 -0.1521  0.6325  0.5336
 1946SOL    HW2 7550   3.833   5.279   5.173 -2.6995  0.0336  1.4260
 1946SOL    HW3 7551   3.705   5.293   5.093 -0.5018  1.3863 -2.1008
 1946SOL    MW4 7552   3.792   5.299   5.099 -0.5344  0.6529  0.3038
 1947SOL     OW 7553   6.404   1.232   4.682 -0.1205 -0.1033 -0.1185
 1947SOL    HW2 7554   6.341   1.277   4.738  0.8647 -0.6478  1.4996
 1947SOL    HW3 7555   6.446   1.302   4.632 -0.6298  0.4560  0.2286
 1947SOL    MW4 7556   6.401   1.247   4.683 -0.0577 -0.1013  0.1408
 1948SOL     OW 7557   3.398   1.236   0.960 -0.2156 -0.4792  0.0187
 1948SOL    HW2 7558   3.321   1.261   1.011 -0.9659 -0.7547 -0.9207
 1948SOL    HW3 7559   3.456   1.194   1.022 -2.1876 -3.1371  0.2619
 1948SOL    MW4 7560   3.395   1.234   0.975 -0.5748 -0.8662 -0.0731
 1949SOL     OW 7561   2.735   1.899   2.601 -0.2207 -0.0468  0.1571
 1949SOL    HW2 7562   2.739   1.908   2.696  0.0125  1.2384  0.0387
 1949SOL    HW3 7563   2.781   1.976   2.567 -1.2453  0.0877 -1.0028
 1949SOL    MW4 7564   2.742   1.910   2.609 -0.3251  0.1405 -0.0116
 1950SOL     OW 7565   5.124   2.679   5.613 -0.5473  0.3967  0.0254
 1950SOL    HW2 7566   5.212   2.663   5.646 -0.1618 -0.7225 -1.4750
 1950SOL    HW3 7567   5.073   2.604   5.643 -1.5745  2.0007  2.6517
 1950SOL    MW4 7568   5.129   2.667   5.621 -0.6319  0.4607  0.1739
 1951SOL     OW 7569   2.609   5.030   3.129  0.0986 -0.0881  0.0518
 1951SOL    HW2 7570   2.650   4.978   3.060  0.4467 -1.7918  1.4708
 1951SOL    HW3 7571   2.579   5.109   3.084  2.0610 -0.2184 -1.6552
 1951SOL    MW4 7572   2.611   5.033   3.114  0.4034 -0.3301  0.0138
 1952SOL     OW 7573   3.059   1.822   0.279 -0.5578 -0.3012 -0.5255
 1952SOL    HW2 7574   2.992   1.829   0.346 -1.3336  0.7840 -1.3826
 1952SOL    HW3 7575   3.138   1.796   0.327 -1.0650  0.5215  0.8066
 1952SOL    MW4 7576   3.061   1.819   0.294 -0.7271 -0.0495 -0.4628
 1953SOL     OW 7577   1.556   4.790   4.591  0.1527  0.4377 -0.6053
 1953SOL    HW2 7578   1.516   4.844   4.524  2.3768  0.0155 -2.3808
 1953SOL    HW3 7579   1.563   4.703   4.551 -2.0765 -0.9305  1.6744
 1953SOL    MW4 7580   1.551   4.785   4.577  0.1520  0.2015 -0.5388
 1954SOL     OW 7581   3.187   1.274   2.310  0.3454  0.3332 -0.3946
 1954SOL    HW2 7582   3.115   1.244   2.365 -0.4120  1.9252 -0.4552
 1954SOL    HW3 7583   3.201   1.203   2.247 -1.7051  0.2803 -0.8702
 1954SOL    MW4 7584   3.179   1.261   2.309 -0.0251  0.5362 -0.4654
 1955SOL     OW 7585   3.413   2.013   6.201 -0.0720  0.4732  0.5634
 1955SOL    HW2 7586   3.331   2.012   6.152 -0.5180  1.1474  1.2647
 1955SOL    HW3 7587   3.475   2.059   6.143 -0.2921  0.2991  0.1884
 1955SOL    MW4 7588   3.410   2.019   6.187 -0.1599  0.5392  0.6064
 1956SOL     OW 7589   5.699   5.522   4.296  0.1147 -0.2266  0.1044
 1956SOL    HW2 7590   5.669   5.584   4.228  0.3571 -0.3751 -0.1412
 1956SOL    HW3 7591   5.691   5.436   4.255 -0.7268 -0.4112  0.6313
 1956SOL    MW4 7592   5.694   5.519   4.281  0.0356 -0.2705  0.1415
 1957SOL     OW 7593   3.063   0.331   0.940  0.2573  0.4697  0.5210
 1957SOL    HW2 7594   3.150   0.370   0.936  0.1966  0.5319 -0.4971
 1957SOL    HW3 7595   3.008   0.392   0.890 -1.0670  2.1548  3.7221
 1957SOL    MW4 7596   3.067   0.344   0.933  0.0746  0.7003  0.8090
 1958SOL     OW 7597   4.903   4.265   2.283 -0.3050 -0.4717 -0.0106
 1958SOL    HW2 7598   4.960   4.309   2.219 -2.3245  0.9463 -0.9584
 1958SOL    HW3 7599   4.908   4.320   2.361  0.5906 -1.0703  0.3651
 1958SOL    MW4 7600   4.911   4.278   2.285 -0.4533 -0.3636 -0.0861
 1959SOL     OW 7601   6.028   0.476   0.297 -0.0240 -0.5024  0.2765
 1959SOL    HW2 7602   6.064   0.544   0.240  1.9466 -2.0610 -0.4759
 1959SOL    HW3 7603   5.997   0.523   0.374  0.4826  1.3225 -0.5757
 1959SOL    MW4 7604   6.029   0.491   0.300  0.3029 -0.4673  0.0648
 1960SOL     OW 7605   1.189   5.385   2.891  0.2118  0.6153  0.3168
 1960SOL    HW2 7606   1.238   5.364   2.971  0.7605  0.0473 -0.1635
 1960SOL    HW3 7607   1.141   5.305   2.870  0.6387  0.5290 -0.3300
 1960SOL    MW4 7608   1.189   5.372   2.899  0.3406  0.5290  0.1681
 1961SOL     OW 7609   2.812   0.640   3.770 -0.4864  0.7407 -0.0279
 1961SOL    HW2 7610   2.822   0.735   3.769  3.8596  0.4874 -0.1858
 1961SOL    HW3 7611   2.850   0.611   3.687  0.7834 -1.2122  1.1652
 1961SOL    MW4 7612   2.818   0.648   3.759  0.2545  0.4496  0.1087
 1962SOL     OW 7613   5.087   4.720   4.542  0.0154  0.0198  0.1938
 1962SOL    HW2 7614   5.032   4.672   4.605  1.1108 -3.3400 -1.2046
 1962SOL    HW3 7615   5.032   4.730   4.465  0.2649 -0.2974 -0.0263
 1962SOL    MW4 7616   5.072   4.715   4.540  0.1929 -0.4653 -0.0197
 1963SOL     OW 7617   5.020   1.575   5.163  0.5382  0.1915  0.6732
 1963SOL    HW2 7618   4.932   1.551   5.134  1.0006  0.8172 -1.4599
 1963SOL    HW3 7619   5.035   1.522   5.242 -1.6432 -0.0705  0.9727
 1963SOL    MW4 7620   5.011   1.564   5.170  0.3114  0.2395  0.4313
 1964SOL     OW 7621   3.054   3.440   0.188  0.1843  0.2906  0.2443
 1964SOL    HW2 7622   3.066   3.534   0.202 -0.0977  0.2777  0.5806
 1964SOL    HW3 7623   2.969   3.420   0.227  0.1048 -0.0485 -0.0980
 1964SOL    MW4 7624   3.045   3.450   0.195  0.1366  0.2442  0.2435
 1965SOL     OW 7625   2.385   1.316   3.553  0.0330 -0.9449  0.4913
 1965SOL    HW2 7626   2.336   1.234   3.553 -1.2779 -0.1959 -0.0983
 1965SOL    HW3 7627   2.366   1.356   3.468  0.0831  0.2770  1.0277
 1965SOL    MW4 7628   2.376   1.311   3.542 -0.1333 -0.6849  0.4843
 1966SOL     OW 7629   3.000   1.288   3.854 -0.4450  0.1691  0.1254
 1966SOL    HW2 7630   3.005   1.336   3.937  2.4985 -1.6947  1.1855
 1966SOL    HW3 7631   2.936   1.219   3.870  0.3306 -0.3677  1.0080
 1966SOL    MW4 7632   2.992   1.285   3.867  0.0457 -0.1477  0.3817
 1967SOL     OW 7633   4.383   2.666   3.636 -0.1293 -0.3023  0.0492
 1967SOL    HW2 7634   4.456   2.724   3.615 -0.7797  0.6773  0.4431
 1967SOL    HW3 7635   4.423   2.591   3.680  0.7096 -0.1249 -0.4031
 1967SOL    MW4 7636   4.398   2.664   3.639 -0.1044 -0.1496  0.0415
 1968SOL     OW 7637   4.243   0.599   6.147  0.0808  0.0731 -0.2671
 1968SOL    HW2 7638   4.185   0.526   6.170 -1.1858  0.8426 -0.8885
 1968SOL    HW3 7639   4.231   0.662   6.218  0.9443 -0.1841  0.1166
 1968SOL    MW4 7640   4.233   0.597   6.160  0.0276  0.1407 -0.2985
 1969SOL     OW 7641   1.215   1.909   3.074 -0.0414  0.6684 -0.5289
 1969SOL    HW2 7642   1.238   1.891   3.165  0.3375  0.7481 -0.6109
 1969SOL    HW3 7643   1.146   1.845   3.054 -0.3852  0.8883 -0.0751
 1969SOL    MW4 7644   1.209   1.898   3.083 -0.0367  0.7079 -0.4798
 1970SOL     OW 7645   1.045   1.445   5.717 -0.1938 -0.0575  0.0610
 1970SOL    HW2 7646   1.133   1.434   5.753 -0.2123 -0.6599 -0.0732
 1970SOL    HW3 7647   1.045   1.391   5.638 -0.8782 -0.5439  0.3844
 1970SOL    MW4 7648   1.057   1.437   5.711 -0.2865 -0.2011  0.0860
 1971SOL     OW 7649   0.267   0.309   5.328  0.0112 -0.5629  0.0812
 1971SOL    HW2 7650   0.210   0.340   5.258 -2.5788 -1.3247  1.7139
 1971SOL    HW3 7651   0.241   0.218   5.342  3.7813 -2.0194 -1.0449
 1971SOL    MW4 7652   0.256   0.301   5.321  0.1669 -0.8556  0.1480
 1972SOL     OW 7653   6.046   0.056   4.498  0.5183  0.2313  0.1927
 1972SOL    HW2 7654   5.970   0.107   4.470 -0.3560 -1.8357 -1.5078
 1972SOL    HW3 7655   6.022   0.022   4.584  0.1562  0.7972  0.3209
 1972SOL    MW4 7656   6.032   0.058   4.506  0.3551  0.0332 -0.0147
 1973SOL     OW 7657   5.520   1.461   3.508  0.5815 -0.0912 -0.3735
 1973SOL    HW2 7658   5.443   1.438   3.560  0.1783  1.6526 -0.1623
 1973SOL    HW3 7659   5.501   1.547   3.473  2.3883  0.3227 -0.4311
 1973SOL    MW4 7660   5.507   1.469   3.511  0.7667  0.1935 -0.3533
 1974SOL     OW 7661   4.886   0.269   3.542  0.5288  0.6616  0.2859
 1974SOL    HW2 7662   4.843   0.240   3.623  1.8984 -0.2380  0.7313
 1974SOL    HW3 7663   4.865   0.202   3.478  0.5802  0.6549  0.2762
 1974SOL    MW4 7664   4.877   0.256   3.544  0.7163  0.5420  0.3434
 1975SOL     OW 7665   6.366   4.571   4.586 -0.6821 -0.1447  0.8897
 1975SOL    HW2 7666   6.381   4.664   4.576 -1.0864 -0.3306 -2.4395
 1975SOL    HW3 7667   6.271   4.561   4.583 -0.5896 -0.7942 -1.1119
 1975SOL    MW4 7668   6.355   4.582   4.584 -0.7233 -0.2549  0.1864
 1976SOL     OW 7669   0.751   2.404   2.347 -0.3948  0.2183 -0.1405
 1976SOL    HW2 7670   0.776   2.370   2.433 -1.4897 -0.9107 -0.2423
 1976SOL    HW3 7671   0.749   2.327   2.290 -2.0122  0.5794 -0.6114
 1976SOL    MW4 7672   0.754   2.389   2.351 -0.7527  0.1170 -0.2160
 1977SOL     OW 7673   2.504   1.419   0.282 -0.6589  0.8318  0.4264
 1977SOL    HW2 7674   2.482   1.471   0.360 -0.0690  2.4457 -0.4354
 1977SOL    HW3 7675   2.494   1.480   0.209  0.1363 -0.2547 -0.6266
 1977SOL    MW4 7676   2.500   1.434   0.283 -0.4761  0.9014  0.1738
 1978SOL     OW 7677   2.376   2.260   2.894 -0.4400  0.5411  0.3905
 1978SOL    HW2 7678   2.323   2.267   2.974 -1.7105  3.0065 -0.5777
 1978SOL    HW3 7679   2.312   2.243   2.825  0.5178 -0.3771 -0.2937
 1978SOL    MW4 7680   2.360   2.259   2.896 -0.4812  0.7453  0.1725
 1979SOL     OW 7681   3.475   3.634   2.823 -0.1352  0.2359 -0.0743
 1979SOL    HW2 7682   3.464   3.678   2.907 -0.0263 -0.8645  0.5434
 1979SOL    HW3 7683   3.461   3.541   2.843 -4.1004  0.2098 -1.9741
 1979SOL    MW4 7684   3.472   3.627   2.836 -0.6440  0.0873 -0.2435
 1980SOL     OW 7685   5.222   4.153   3.703  0.0461 -0.1227  0.4894
 1980SOL    HW2 7686   5.236   4.169   3.797  2.5739  1.7315 -0.0933
 1980SOL    HW3 7687   5.301   4.108   3.674 -0.5279 -0.3255 -0.8507
 1980SOL    MW4 7688   5.234   4.149   3.712  0.3039  0.0952  0.2357
 1981SOL     OW 7689   4.593   3.988   1.710 -0.2106  0.4320  0.1816
 1981SOL    HW2 7690   4.575   3.901   1.746 -0.1397 -0.9063 -2.7610
 1981SOL    HW3 7691   4.508   4.032   1.711 -0.7217 -0.5113 -0.3142
 1981SOL    MW4 7692   4.580   3.982   1.715 -0.2687  0.1310 -0.2721
 1982SOL     OW 7693   2.037   5.135   5.216 -0.7039 -0.8959  0.2415
 1982SOL    HW2 7694   2.055   5.219   5.175 -3.1906  0.4423  1.6585
 1982SOL    HW3 7695   2.062   5.070   5.151  3.4152  0.7580 -0.0944
 1982SOL    MW4 7696   2.043   5.137   5.202 -0.4885 -0.5012  0.3841
 1983SOL     OW 7697   5.880   5.750   0.867 -0.0305  0.4849  0.2826
 1983SOL    HW2 7698   5.878   5.844   0.849  0.5567  0.0806 -2.3905
 1983SOL    HW3 7699   5.893   5.710   0.781 -0.7653 -2.0857  1.2772
 1983SOL    MW4 7700   5.882   5.757   0.853 -0.0500  0.0924  0.0611
 1984SOL     OW 7701   3.903   4.156   3.652 -0.2732  0.4228 -0.3963
 1984SOL    HW2 7702   3.932   4.200   3.731  0.5299  1.2987 -1.1596
 1984SOL    HW3 7703   3.808   4.148   3.662 -0.0110 -1.0167  1.3991
 1984SOL    MW4 7704   3.894   4.160   3.664 -0.1326  0.3484 -0.2601
 1985SOL     OW 7705   1.057   0.486   4.531  0.8205 -0.6761 -0.4187
 1985SOL    HW2 7706   1.071   0.395   4.555  2.5380 -0.3958 -0.2262
 1985SOL    HW3 7707   0.998   0.520   4.598  1.2379 -1.3107  0.2852
 1985SOL    MW4 7708   1.051   0.479   4.543  1.1022 -0.7229 -0.3004
 1986SOL     OW 7709   4.650   1.979   3.736 -0.1792 -0.2029 -0.1540
 1986SOL    HW2 7710   4.588   1.957   3.806 -0.7684  2.6879  0.3796
 1986SOL    HW3 7711   4.717   2.031   3.781 -0.3033  1.2891 -1.6145
 1986SOL    MW4 7712   4.651   1.983   3.751 -0.2733  0.3753 -0.2763
 1987SOL     OW 7713   0.908   2.583   2.586  0.2942 -0.0104 -0.5189
 1987SOL    HW2 7714   0.936   2.494   2.565 -0.3807 -0.1075 -1.0521
 1987SOL    HW3 7715   0.813   2.583   2.571  0.0120  0.3601  1.0668
 1987SOL    MW4 7716   0.899   2.571   2.581  0.1679  0.0257 -0.3801
 1988SOL     OW 7717   0.523   2.257   0.888  0.1971  0.2725 -0.0123
 1988SOL    HW2 7718   0.568   2.341   0.894  0.5082  0.0234  1.6817
 1988SOL    HW3 7719   0.503   2.234   0.979  0.1469 -1.4977 -0.4343
 1988SOL    MW4 7720   0.526   2.265   0.901  0.2315  0.0061  0.1555
 1989SOL     OW 7721   0.609   1.071   0.955 -0.6573  0.4187 -0.1743
 1989SOL    HW2 7722   0.681   1.121   0.994  0.8808 -1.7585 -0.0115
 1989SOL    HW3 7723   0.599   1.107   0.867 -1.3902  2.6663  0.7534
 1989SOL    MW4 7724   0.617   1.082   0.949 -0.5511  0.4280 -0.0304
 1990SOL     OW 7725   2.364   1.280   0.827 -0.2048  0.0068 -0.0665
 1990SOL    HW2 7726   2.454   1.292   0.859  1.0258 -4.2275 -1.3630
 1990SOL    HW3 7727   2.362   1.327   0.744  0.7549  0.3429  0.0808
 1990SOL    MW4 7728   2.376   1.288   0.821  0.0842 -0.5075 -0.2181
 1991SOL     OW 7729   3.619   1.829   3.044  0.3168  0.1169  0.0186
 1991SOL    HW2 7730   3.714   1.834   3.047  0.4360 -1.6376 -0.0905
 1991SOL    HW3 7731   3.598   1.836   2.951  0.1873  2.1505  0.1539
 1991SOL    MW4 7732   3.629   1.831   3.032  0.3155  0.1538  0.0220
 1992SOL     OW 7733   1.965   0.606   1.061 -0.1099  0.1730  0.1103
 1992SOL    HW2 7734   1.992   0.678   1.118 -0.6799  2.0751 -1.8711
 1992SOL    HW3 7735   2.047   0.569   1.028  0.2183 -0.8255  1.9076
 1992SOL    MW4 7736   1.979   0.611   1.064 -0.1418  0.2922  0.0860
 1993SOL     OW 7737   5.952   5.239   3.132 -0.2389 -0.5901 -0.0491
 1993SOL    HW2 7738   5.953   5.158   3.082 -0.8529 -0.9982  0.5839
 1993SOL    HW3 7739   6.012   5.223   3.205  1.8034  0.5119 -1.3802
 1993SOL    MW4 7740   5.960   5.227   3.135 -0.0504 -0.4986 -0.1412
 1994SOL     OW 7741   0.137   2.713   3.560  0.2796 -0.0040  0.2795
 1994SOL    HW2 7742   0.084   2.765   3.499 -0.0944 -0.6218  0.0609
 1994SOL    HW3 7743   0.221   2.703   3.516  0.4795  0.7269  0.4906
 1994SOL    MW4 7744   0.141   2.718   3.546  0.2567  0.0109  0.2785
 1995SOL     OW 7745   3.842   4.226   5.958 -0.0829 -0.4253 -0.3456
 1995SOL    HW2 7746   3.928   4.265   5.975 -0.8242  0.8347  0.6887
 1995SOL    HW3 7747   3.844   4.205   5.864  0.9699  0.5786 -0.5761
 1995SOL    MW4 7748   3.854   4.228   5.948 -0.0418 -0.1266 -0.2395
 1996SOL     OW 7749   2.432   0.669   5.769 -0.2310 -0.0695 -0.7491
 1996SOL    HW2 7750   2.498   0.686   5.836 -0.9659  0.6880 -0.2024
 1996SOL    HW3 7751   2.440   0.575   5.750  1.9117  0.2602 -1.6999
 1996SOL    MW4 7752   2.442   0.659   5.775 -0.0452  0.0739 -0.8024
 1997SOL     OW 7753   5.549   3.397   4.018 -0.6909 -0.0033  0.3598
 1997SOL    HW2 7754   5.640   3.410   3.993 -0.6761 -0.0377  0.3976
 1997SOL    HW3 7755   5.522   3.482   4.055 -0.4103 -0.2647  1.1792
 1997SOL    MW4 7756   5.557   3.410   4.019 -0.6519 -0.0423  0.4729
 1998SOL     OW 7757   1.853   3.269   4.191  0.2801  0.0712 -0.5782
 1998SOL    HW2 7758   1.945   3.282   4.167  0.0359  0.5606 -1.2506
 1998SOL    HW3 7759   1.828   3.350   4.235 -0.0024  0.1792 -0.9366
 1998SOL    MW4 7760   1.862   3.281   4.194  0.2106  0.1500 -0.7142
 1999SOL     OW 7761   3.385   5.123   6.123  0.2140  0.0852  0.0198
 1999SOL    HW2 7762   3.338   5.196   6.083 -0.7908  1.1266  2.8604
 1999SOL    HW3 7763   3.322   5.052   6.124 -0.2495  0.4930  0.9478
 1999SOL    MW4 7764   3.370   5.123   6.117  0.0203  0.2764  0.5170
 2000SOL     OW 7765   3.430   0.103   4.109  0.4991 -0.0041 -0.0134
 2000SOL    HW2 7766   3.362   0.126   4.172  2.7307  2.3547  1.7230
 2000SOL    HW3 7767   3.385   0.104   4.024 -1.7957  0.6057  1.1247
 2000SOL    MW4 7768   3.415   0.106   4.106  0.4907  0.3876  0.3658
 2001SOL     OW 7769   0.598   1.736   5.158  0.2443  0.2103 -0.0619
 2001SOL    HW2 7770   0.664   1.716   5.092 -0.4737 -0.2683 -0.6462
 2001SOL    HW3 7771   0.612   1.828   5.180  0.4641  0.3812 -0.9089
 2001SOL    MW4 7772   0.608   1.745   5.152  0.1785  0.1697 -0.2507
 2002SOL     OW 7773   2.298   2.282   4.866 -0.5693 -0.1830 -0.5356
 2002SOL    HW2 7774   2.233   2.250   4.928  0.9371  1.3336  1.9888
 2002SOL    HW3 7775   2.275   2.373   4.851  0.2496  0.0274 -0.5764
 2002SOL    MW4 7776   2.287   2.289   4.872 -0.2625  0.0448 -0.2079
 2003SOL     OW 7777   4.610   4.866   1.474  0.6420 -0.3647  0.1733
 2003SOL    HW2 7778   4.614   4.938   1.536  1.6375  1.0798 -1.4874
 2003SOL    HW3 7779   4.517   4.861   1.450  0.7170  1.2269 -0.5988
 2003SOL    MW4 7780   4.598   4.875   1.479  0.7832  0.0359 -0.1477
 2004SOL     OW 7781   5.056   0.520   5.951 -0.1262  0.3326 -0.1871
 2004SOL    HW2 7782   4.989   0.589   5.954 -2.1547 -1.5397  1.0824
 2004SOL    HW3 7783   5.006   0.439   5.945  2.0714 -1.1707  0.6305
 2004SOL    MW4 7784   5.040   0.519   5.951 -0.1039 -0.1128  0.0883
 2005SOL     OW 7785   2.315   2.705   5.620 -0.3298  0.6122  0.4221
 2005SOL    HW2 7786   2.390   2.742   5.573 -1.6769  1.2317 -1.3554
 2005SOL    HW3 7787   2.331   2.611   5.621  0.4564  0.7361  0.0638
 2005SOL    MW4 7788   2.327   2.698   5.614 -0.4038  0.7103  0.1403
 2006SOL     OW 7789   3.171   4.017   1.947 -0.8155 -0.1702 -0.3333
 2006SOL    HW2 7790   3.243   4.078   1.962 -0.6365  0.1852 -2.3508
 2006SOL    HW3 7791   3.184   3.948   2.012 -0.8135  1.7081  1.7560
 2006SOL    MW4 7792   3.182   4.016   1.958 -0.7916  0.1246 -0.3238
 2007SOL     OW 7793   6.216   0.079   2.295  0.0935 -0.2564 -0.5459
 2007SOL    HW2 7794   6.268   0.155   2.320  1.0822 -0.9278 -0.5468
 2007SOL    HW3 7795   6.152   0.114   2.233  0.0734  0.7041 -0.0059
 2007SOL    MW4 7796   6.214   0.094   2.290  0.2213 -0.2183 -0.4748
 2008SOL     OW 7797   3.130   0.162   3.797 -0.2031 -0.0618 -0.3939
 2008SOL    HW2 7798   3.151   0.143   3.705  0.7235  0.1910 -0.2463
 2008SOL    HW3 7799   3.160   0.084   3.845 -2.4339 -1.0345 -0.4891
 2008SOL    MW4 7800   3.137   0.149   3.791 -0.3751 -0.1568 -0.3870
 2009SOL     OW 7801   5.728   1.756   6.204 -0.0609 -1.3710  0.1010
 2009SOL    HW2 7802   5.640   1.762   6.242 -0.4382  4.4329 -0.8029
 2009SOL    HW3 7803   5.784   1.737   6.278 -1.7180 -1.0653  1.5084
 2009SOL    MW4 7804   5.723   1.754   6.219 -0.3293 -0.5649  0.1674
 2010SOL     OW 7805   3.972   5.042   3.029 -0.2023  0.1314  0.0796
 2010SOL    HW2 7806   3.977   5.051   2.934 -2.0339  0.9826  0.0151
 2010SOL    HW3 7807   3.978   4.948   3.044  0.7326  0.0286 -0.8150
 2010SOL    MW4 7808   3.973   5.031   3.018 -0.3206  0.2301 -0.0470
 2011SOL     OW 7809   1.143   4.216   5.738  0.2042  0.0248 -0.3584
 2011SOL    HW2 7810   1.237   4.218   5.755 -0.0328  0.4140  0.9998
 2011SOL    HW3 7811   1.135   4.165   5.658  1.5452 -0.3392 -0.2917
 2011SOL    MW4 7812   1.154   4.209   5.730  0.3498  0.0281 -0.1704
 2012SOL     OW 7813   0.631   1.316   2.038  0.5893 -0.3238 -0.3418
 2012SOL    HW2 7814   0.631   1.234   2.088  2.1969 -0.9880 -1.3523
 2012SOL    HW3 7815   0.642   1.384   2.104  0.9611 -1.0584  0.3682
 2012SOL    MW4 7816   0.633   1.314   2.053  0.8504 -0.5084 -0.3814
 2013SOL     OW 7817   5.447   3.680   0.276 -0.3926 -0.5283  0.3737
 2013SOL    HW2 7818   5.372   3.735   0.254 -0.7705 -1.8184 -1.8903
 2013SOL    HW3 7819   5.517   3.709   0.218 -0.1808 -1.5069  0.1143
 2013SOL    MW4 7820   5.447   3.691   0.265 -0.4145 -0.8276  0.0407
 2014SOL     OW 7821   3.716   0.941   3.375 -0.8658 -1.1900 -0.2401
 2014SOL    HW2 7822   3.629   0.911   3.349 -0.8854 -0.4626 -1.0681
 2014SOL    HW3 7823   3.700   1.023   3.421 -0.8081 -2.3180  1.9398
 2014SOL    MW4 7824   3.702   0.948   3.378 -0.8608 -1.2428 -0.0617
 2015SOL     OW 7825   1.458   6.261   4.445  0.2712  0.0873  0.2029
 2015SOL    HW2 7826   1.413   6.199   4.503  1.0551  0.2341  0.9869
 2015SOL    HW3 7827   1.423   6.241   4.358 -1.8857  0.7313  0.8654
 2015SOL    MW4 7828   1.447   6.250   4.441  0.0900  0.1917  0.3937
 2016SOL     OW 7829   2.605   1.389   6.267 -0.0610  0.2199 -0.1289
 2016SOL    HW2 7830   2.660   1.458   6.229 -0.6115  0.7454  0.0233
 2016SOL    HW3 7831   2.552   1.358   6.193 -0.2854  0.4141 -0.0467
 2016SOL    MW4 7832   2.605   1.394   6.252 -0.1633  0.3149 -0.0979
 2017SOL     OW 7833   0.607   5.938   2.195  0.1257 -0.2046 -0.0074
 2017SOL    HW2 7834   0.693   5.897   2.206  0.3861  0.4460  0.4406
 2017SOL    HW3 7835   0.588   5.977   2.281 -0.6960 -0.4938 -0.0471
 2017SOL    MW4 7836   0.615   5.938   2.208  0.0517 -0.1569  0.0465
 2018SOL     OW 7837   5.279   3.903   0.209  0.4785  0.1424 -0.3730
 2018SOL    HW2 7838   5.293   3.978   0.268 -2.6560  2.0379 -1.7779
 2018SOL    HW3 7839   5.184   3.890   0.209  0.5173 -1.0144 -3.4766
 2018SOL    MW4 7840   5.268   3.911   0.217  0.0701  0.2399 -0.9679
 2019SOL     OW 7841   3.867   4.303   5.275  0.5405  0.0660 -0.1226
 2019SOL    HW2 7842   3.824   4.268   5.197  0.1135 -1.2548  0.6795
 2019SOL    HW3 7843   3.916   4.229   5.311 -0.0149  0.3925  1.3734
 2019SOL    MW4 7844   3.868   4.289   5.269  0.4109 -0.0652  0.1806
 2020SOL     OW 7845   0.293   5.476   4.437  0.5336  0.2688 -0.7103
 2020SOL    HW2 7846   0.306   5.461   4.531  0.4458  1.0794 -0.5669
 2020SOL    HW3 7847   0.363   5.537   4.413  0.9486 -0.4322 -1.3124
 2020SOL    MW4 7848   0.304   5.482   4.447  0.5767  0.2833 -0.7708
 2021SOL     OW 7849   2.825   2.285   4.963 -0.3969 -0.5169 -0.5358
 2021SOL    HW2 7850   2.861   2.309   5.048 -0.5332  2.3037 -1.1692
 2021SOL    HW3 7851   2.731   2.299   4.972 -0.3870  0.0077 -1.1957
 2021SOL    MW4 7852   2.818   2.290   4.975 -0.4136 -0.0755 -0.7065
 2022SOL     OW 7853   0.181   1.070   3.179 -0.1151  0.0527  0.2147
 2022SOL    HW2 7854   0.188   1.010   3.105 -1.7620 -0.3595  0.3677
 2022SOL    HW3 7855   0.236   1.145   3.155  1.4883 -1.2001 -0.2517
 2022SOL    MW4 7856   0.189   1.072   3.166 -0.1208 -0.1670  0.1733
 2023SOL     OW 7857   5.756   3.536   6.419  0.3828  0.2056  0.2009
 2023SOL    HW2 7858   5.723   3.579   6.340 -0.8530  0.9242  1.0733
 2023SOL    HW3 7859   5.757   3.606   6.485 -0.0932 -0.7379  1.2228
 2023SOL    MW4 7860   5.752   3.551   6.418  0.1570  0.1759  0.4509
 2024SOL     OW 7861   0.374   0.382   4.265  0.1300  0.1826  0.1230
 2024SOL    HW2 7862   0.316   0.339   4.202  2.1988 -2.8501  0.0852
 2024SOL    HW3 7863   0.353   0.475   4.257 -2.2715 -0.4430 -2.3261
 2024SOL    MW4 7864   0.363   0.388   4.256  0.0861 -0.3000 -0.2051
 2025SOL     OW 7865   5.255   1.902   3.588 -0.4597 -0.0719  0.1390
 2025SOL    HW2 7866   5.247   1.925   3.496 -0.9244 -1.7310 -0.2728
 2025SOL    HW3 7867   5.189   1.955   3.632  0.3424  1.3689 -0.3399
 2025SOL    MW4 7868   5.245   1.912   3.582 -0.4152 -0.1007  0.0215
 2026SOL     OW 7869   5.997   0.089   2.461  1.0200  0.6914 -0.0371
 2026SOL    HW2 7870   6.076   0.098   2.408 -0.4285  1.5805 -2.2004
 2026SOL    HW3 7871   5.959   0.006   2.432  1.2946  0.0818  1.2613
 2026SOL    MW4 7872   6.002   0.079   2.450  0.8651  0.7283 -0.1512
 2027SOL     OW 7873   3.961   0.098   4.213  0.1603  0.3214 -0.6751
 2027SOL    HW2 7874   3.874   0.058   4.209  0.1674  0.3294 -0.8851
 2027SOL    HW3 7875   3.948   0.177   4.265 -0.5497  1.8760 -3.0766
 2027SOL    MW4 7876   3.948   0.103   4.219  0.0676  0.5275 -1.0197
 2028SOL     OW 7877   3.275   1.496   6.313  0.1446 -0.8153  0.4291
 2028SOL    HW2 7878   3.293   1.402   6.326  0.1757 -0.8137  0.3971
 2028SOL    HW3 7879   3.360   1.538   6.320  0.3981 -0.9720 -1.2938
 2028SOL    MW4 7880   3.288   1.489   6.316  0.1821 -0.8358  0.1976
 2029SOL     OW 7881   2.776   6.036   4.568  0.0392 -0.1526  0.3155
 2029SOL    HW2 7882   2.702   5.978   4.585 -0.4172 -0.0644 -1.2459
 2029SOL    HW3 7883   2.789   6.032   4.474  1.3352  0.6780  0.4350
 2029SOL    MW4 7884   2.768   6.028   4.558  0.1500 -0.0314  0.1253
 2030SOL     OW 7885   4.339   4.764   1.892  0.5075 -0.5831 -0.5662
 2030SOL    HW2 7886   4.311   4.753   1.983  1.1341 -1.0267 -0.4202
 2030SOL    HW3 7887   4.322   4.679   1.851 -0.7782 -0.0660 -1.1553
 2030SOL    MW4 7888   4.333   4.752   1.899  0.4206 -0.5734 -0.6247
 2031SOL     OW 7889   5.842   1.511   5.311 -0.2572  0.9149  0.0725
 2031SOL    HW2 7890   5.889   1.590   5.285 -0.2915 -0.0349 -3.3779
 2031SOL    HW3 7891   5.765   1.509   5.254 -1.1916 -0.7373  1.2936
 2031SOL    MW4 7892   5.838   1.521   5.300 -0.3850  0.5716 -0.2217
 2032SOL     OW 7893   4.598   2.455   1.492  0.2449  0.0684  0.6819
 2032SOL    HW2 7894   4.608   2.453   1.397 -0.7529 -0.8333  0.5803
 2032SOL    HW3 7895   4.520   2.508   1.507  0.2806  0.0355  0.9901
 2032SOL    MW4 7896   4.589   2.462   1.481  0.1179 -0.0549  0.7092
 2033SOL     OW 7897   5.628   0.430   1.420  0.1781  0.4595 -0.1862
 2033SOL    HW2 7898   5.625   0.494   1.490  1.5268  0.8306 -0.4230
 2033SOL    HW3 7899   5.722   0.414   1.407 -0.1184 -1.3597 -0.3138
 2033SOL    MW4 7900   5.640   0.436   1.427  0.3170  0.2685 -0.2343
 2034SOL     OW 7901   5.144   3.116   1.339  0.0271 -0.2585  0.1343
 2034SOL    HW2 7902   5.208   3.178   1.307 -0.2171 -0.3446 -0.5394
 2034SOL    HW3 7903   5.138   3.049   1.271 -1.0677 -0.0407 -0.0096
 2034SOL    MW4 7904   5.151   3.115   1.326 -0.1495 -0.2411  0.0264
 2035SOL     OW 7905   1.012   3.537   2.377  0.0060 -0.5455 -0.0065
 2035SOL    HW2 7906   0.924   3.514   2.347 -0.3316  1.0243 -0.2757
 2035SOL    HW3 7907   1.065   3.461   2.353 -0.8173 -0.5777 -1.9448
 2035SOL    MW4 7908   1.007   3.524   2.370 -0.1472 -0.3426 -0.2977
 2036SOL     OW 7909   6.235   2.801   5.777 -0.4075 -0.5271  0.0238
 2036SOL    HW2 7910   6.153   2.830   5.818  0.4772  1.4630  0.5264
 2036SOL    HW3 7911   6.258   2.721   5.824 -1.9951 -1.0635 -0.0580
 2036SOL    MW4 7912   6.227   2.794   5.789 -0.5002 -0.3353  0.0793
 2037SOL     OW 7913   2.284   3.680   0.789  0.0814  0.3019 -0.3922
 2037SOL    HW2 7914   2.215   3.622   0.756  2.1436 -1.6334 -1.5280
 2037SOL    HW3 7915   2.331   3.708   0.710  1.4572  0.4140  0.4410
 2037SOL    MW4 7916   2.281   3.676   0.774  0.5350  0.0614 -0.4321
 2038SOL     OW 7917   4.500   1.212   0.893  0.3224 -0.0743 -0.1976
 2038SOL    HW2 7918   4.571   1.219   0.829  0.0949  0.7289 -0.3720
 2038SOL    HW3 7919   4.519   1.132   0.941  0.0207 -1.1637 -1.8360
 2038SOL    MW4 7920   4.512   1.203   0.891  0.2526 -0.1121 -0.4368
 2039SOL     OW 7921   0.807   1.413   5.370  0.1699  0.0678  0.0829
 2039SOL    HW2 7922   0.795   1.374   5.283 -0.2860 -0.8291  0.5373
 2039SOL    HW3 7923   0.890   1.461   5.363 -0.6486  1.3359 -1.3169
 2039SOL    MW4 7924   0.817   1.414   5.357  0.0018  0.1168 -0.0418
 2040SOL     OW 7925   0.059   1.036   0.308 -0.0949 -0.0937 -0.4338
 2040SOL    HW2 7926   0.089   0.986   0.232  0.1320 -1.1729  0.3554
 2040SOL    HW3 7927   0.134   1.090   0.333 -0.0725  0.0406 -0.7848
 2040SOL    MW4 7928   0.073   1.037   0.301 -0.0620 -0.2184 -0.3760
 2041SOL     OW 7929   2.626   0.517   4.665  0.0176 -0.0314 -0.7363
 2041SOL    HW2 7930   2.620   0.509   4.570 -0.3095 -2.2991 -0.5716
 2041SOL    HW3 7931   2.539   0.491   4.697  0.8755 -1.8527  0.2684
 2041SOL    MW4 7932   2.614   0.512   4.657  0.0877 -0.5709 -0.5820
 2042SOL     OW 7933   6.212   3.599   0.985 -0.0122  0.2489 -0.2303
 2042SOL    HW2 7934   6.188   3.621   1.075  0.7287  0.7481 -0.1480
 2042SOL    HW3 7935   6.304   3.624   0.977  0.0397 -0.1417 -1.0163
 2042SOL    MW4 7936   6.221   3.605   0.995  0.0924  0.2632 -0.3232
 2043SOL     OW 7937   0.057   3.456   2.438  0.0173 -0.2920 -0.6106
 2043SOL    HW2 7938   0.113   3.519   2.484 -0.1335  0.1254 -0.9871
 2043SOL    HW3 7939   0.024   3.399   2.507  1.0390 -0.6555 -0.4013
 2043SOL    MW4 7940   0.060   3.457   2.453  0.1322 -0.2849 -0.6326
 2044SOL     OW 7941   2.778   0.868   0.566 -0.2949 -0.1556  0.4832
 2044SOL    HW2 7942   2.738   0.823   0.491  0.4561  0.3116 -0.2119
 2044SOL    HW3 7943   2.735   0.954   0.567  0.2552  0.1291  0.0966
 2044SOL    MW4 7944   2.767   0.873   0.556 -0.1233 -0.0564  0.3405
 2045SOL     OW 7945   0.931   5.353   3.185 -0.2774 -0.3344  0.0787
 2045SOL    HW2 7946   1.011   5.348   3.238  0.7246  1.7446 -1.0754
 2045SOL    HW3 7947   0.945   5.288   3.116  0.0571 -0.5525  0.3456
 2045SOL    MW4 7948   0.944   5.344   3.183 -0.1011 -0.0889 -0.0384
 2046SOL     OW 7949   0.147   3.786   1.197 -0.2774 -0.1574  0.6848
 2046SOL    HW2 7950   0.162   3.692   1.190  2.3896  0.2793 -0.9092
 2046SOL    HW3 7951   0.234   3.823   1.215 -0.2999  2.2774 -3.0624
 2046SOL    MW4 7952   0.161   3.778   1.198  0.0715  0.2214 -0.0199
 2047SOL     OW 7953   0.020   5.762   6.012 -0.0677  0.6028 -0.2196
 2047SOL    HW2 7954  -0.054   5.703   6.021  0.5932 -0.1029  0.8741
 2047SOL    HW3 7955   0.097   5.705   6.020  0.5899  1.4807 -0.1161
 2047SOL    MW4 7956   0.021   5.746   6.014  0.1062  0.6255 -0.0616
 2048SOL     OW 7957   5.781   3.881   5.405 -0.2094 -0.2159  0.0401
 2048SOL    HW2 7958   5.855   3.942   5.409 -0.5351  0.3068 -1.2452
 2048SOL    HW3 7959   5.779   3.852   5.314 -2.6846  1.2424 -0.4934
 2048SOL    MW4 7960   5.790   3.886   5.394 -0.5790  0.0455 -0.1998
 2049SOL     OW 7961   4.978   2.007   5.581 -0.0809  0.4821  0.3977
 2049SOL    HW2 7962   4.935   1.922   5.588  0.0361  0.4162  0.3040
 2049SOL    HW3 7963   5.059   1.997   5.631  0.5840  0.1255 -0.7257
 2049SOL    MW4 7964   4.983   1.995   5.589  0.0223  0.4263  0.2371
 2050SOL     OW 7965   1.494   5.466   3.314 -0.2087  0.2058  0.0603
 2050SOL    HW2 7966   1.442   5.514   3.379 -1.6692 -2.2295  0.8294
 2050SOL    HW3 7967   1.534   5.394   3.364  0.5155 -0.4040 -1.3322
 2050SOL    MW4 7968   1.493   5.462   3.330 -0.3058 -0.1960 -0.0219
 2051SOL     OW 7969   0.726   0.722   5.033  0.0977 -0.3441 -0.1537
 2051SOL    HW2 7970   0.632   0.730   5.018 -0.1014 -0.5681  0.9073
 2051SOL    HW3 7971   0.736   0.731   5.127  1.1891  0.0943 -0.2926
 2051SOL    MW4 7972   0.715   0.724   5.043  0.2154 -0.3158 -0.0320
 2052SOL     OW 7973   0.385   1.311   3.404 -0.2442  0.5050 -0.0173
 2052SOL    HW2 7974   0.381   1.218   3.424  1.4691  0.9550  3.2381
 2052SOL    HW3 7975   0.437   1.317   3.324  2.1157 -1.3151  1.2596
 2052SOL    MW4 7976   0.391   1.300   3.396  0.2932  0.3242  0.5807
 2053SOL     OW 7977   3.659   1.416   5.096  0.6942  0.1350 -0.0622
 2053SOL    HW2 7978   3.660   1.482   5.164 -0.9234  1.6136 -1.3743
 2053SOL    HW3 7979   3.717   1.347   5.128  2.8220  2.3588  1.1618
 2053SOL    MW4 7980   3.667   1.415   5.109  0.7615  0.6235 -0.0739
 2054SOL     OW 7981   4.218   2.085   0.545  0.7283  0.1160 -0.1713
 2054SOL    HW2 7982   4.181   2.000   0.570 -1.9506  0.8776 -1.1336
 2054SOL    HW3 7983   4.257   2.120   0.625  0.0464 -1.1419  0.7334
 2054SOL    MW4 7984   4.218   2.078   0.558  0.2849  0.0506 -0.1789
 2055SOL     OW 7985   1.175   2.663   2.478  0.0414  0.7712  0.2416
 2055SOL    HW2 7986   1.212   2.710   2.552 -0.3268 -2.2474  2.5577
 2055SOL    HW3 7987   1.089   2.634   2.508 -0.3919 -0.0355 -1.5941
 2055SOL    MW4 7988   1.169   2.665   2.492 -0.0643  0.2665  0.3049
 2056SOL     OW 7989   1.007   4.970   0.418  0.3324 -0.1041 -0.3601
 2056SOL    HW2 7990   1.010   4.956   0.513 -0.1640 -0.3825 -0.3797
 2056SOL    HW3 7991   0.932   5.028   0.404  0.8112  0.4888 -0.5266
 2056SOL    MW4 7992   0.997   4.976   0.429  0.3301 -0.0626 -0.3847
 2057SOL     OW 7993   1.296   5.205   0.635 -0.3143 -0.2644  0.6950
 2057SOL    HW2 7994   1.251   5.290   0.633  0.6116  0.2957  2.1697
 2057SOL    HW3 7995   1.385   5.224   0.604 -0.3791 -0.9113  0.0708
 2057SOL    MW4 7996   1.302   5.219   0.631 -0.2007 -0.2759  0.8072
 2058SOL     OW 7997   0.197   4.084   4.820  0.4411  0.1873 -0.1409
 2058SOL    HW2 7998   0.226   4.030   4.746 -0.8338  0.1978 -0.6575
 2058SOL    HW3 7999   0.249   4.051   4.894  0.9840 -0.5219 -0.8119
 2058SOL    MW4 8000   0.208   4.072   4.820  0.3445  0.0952 -0.2976
 2059SOL     OW 8001   2.459   2.521   5.957 -0.4679 -0.2725 -0.4410
 2059SOL    HW2 8002   2.516   2.522   5.880 -0.5640 -0.3823 -0.5132
 2059SOL    HW3 8003   2.512   2.561   6.026 -0.1031 -0.8644 -0.3674
 2059SOL    MW4 8004   2.474   2.526   5.956 -0.4325 -0.3651 -0.4408
 2060SOL     OW 8005   0.822   4.260   1.800  0.0658  0.0319  0.1775
 2060SOL    HW2 8006   0.742   4.238   1.847  0.8600  0.4433  1.8159
 2060SOL    HW3 8007   0.885   4.192   1.827  0.6645  0.5207  0.0493
 2060SOL    MW4 8008   0.820   4.248   1.810  0.2496  0.1507  0.3767
 2061SOL     OW 8009   1.905   5.276   1.357  0.0734 -0.0397  0.2981
 2061SOL    HW2 8010   1.994   5.243   1.347 -0.7640 -2.1818 -0.5262
 2061SOL    HW3 8011   1.870   5.276   1.268 -2.0162 -3.0911  1.0031
 2061SOL    MW4 8012   1.912   5.272   1.344 -0.3127 -0.7249  0.2824
 2062SOL     OW 8013   1.079   0.172   1.370 -0.4663  0.1074  0.2420
 2062SOL    HW2 8014   1.044   0.087   1.347 -0.1428 -0.3902  1.4787
 2062SOL    HW3 8015   1.155   0.183   1.314  0.0583 -0.8696  0.7296
 2062SOL    MW4 8016   1.085   0.162   1.360 -0.3544 -0.0872  0.4695
 2063SOL     OW 8017   0.904   0.130   1.786 -0.2456  0.5599 -0.2342
 2063SOL    HW2 8018   0.828   0.188   1.783 -0.1339  0.6811 -1.1430
 2063SOL    HW3 8019   0.869   0.047   1.819 -0.5154  0.9804  0.5499
 2063SOL    MW4 8020   0.889   0.126   1.790 -0.2665  0.6314 -0.2507
 2064SOL     OW 8021   5.298   1.715   1.492  0.3424  0.2381 -0.2745
 2064SOL    HW2 8022   5.342   1.630   1.491 -1.1801 -0.6058  0.4260
 2064SOL    HW3 8023   5.287   1.738   1.400 -0.3227 -0.9356 -0.5072
 2064SOL    MW4 8024   5.302   1.707   1.480  0.0538 -0.0281 -0.2128
 2065SOL     OW 8025   4.084   0.934   3.523  0.0653  0.5376  0.1854
 2065SOL    HW2 8026   4.153   0.897   3.579 -1.7390 -1.5859  1.1676
 2065SOL    HW3 8027   4.066   0.865   3.459 -1.4710  0.8024  0.2869
 2065SOL    MW4 8028   4.091   0.920   3.522 -0.3754  0.2924  0.3283
 2066SOL     OW 8029   1.815   5.004   4.825 -0.4187 -0.7408  0.4596
 2066SOL    HW2 8030   1.897   4.999   4.874 -0.2382 -0.3733  0.1974
 2066SOL    HW3 8031   1.754   5.047   4.885 -0.1562 -0.1539  0.3146
 2066SOL    MW4 8032   1.817   5.009   4.840 -0.3602 -0.6149  0.4059
 2067SOL     OW 8033   1.984   1.015   4.950  0.1227 -0.1055 -0.1583
 2067SOL    HW2 8034   2.072   1.026   4.986 -0.3641 -0.3468  1.1821
 2067SOL    HW3 8035   1.928   1.066   5.008 -0.6459 -0.1044 -0.8820
 2067SOL    MW4 8036   1.988   1.023   4.962 -0.0429 -0.1372 -0.0769
 2068SOL     OW 8037   0.749   4.000   2.036  0.2678  0.3263 -0.4695
 2068SOL    HW2 8038   0.727   3.916   1.996 -0.7657  1.0636 -1.5214
 2068SOL    HW3 8039   0.839   4.017   2.010  1.1933 -1.3367  1.3853
 2068SOL    MW4 8040   0.758   3.991   2.028  0.2535  0.2042 -0.3636
 2069SOL     OW 8041   2.828   2.087   0.347  0.3200 -0.2885  0.0029
 2069SOL    HW2 8042   2.775   2.063   0.271 -0.4109 -1.3324  0.8074
 2069SOL    HW3 8043   2.918   2.081   0.317  0.2737 -4.5004  0.1589
 2069SOL    MW4 8044   2.833   2.083   0.333  0.2175 -0.9820  0.1296
 2070SOL     OW 8045   1.782   3.223   3.780 -0.1045  0.0067 -0.0426
 2070SOL    HW2 8046   1.862   3.180   3.810  0.4641  1.4737  0.6641
 2070SOL    HW3 8047   1.726   3.226   3.858  0.6658  2.2538  0.4943
 2070SOL    MW4 8048   1.785   3.218   3.795  0.0721  0.4967  0.1214
 2071SOL     OW 8049   5.770   4.196   3.571 -0.1067  0.4099 -0.1993
 2071SOL    HW2 8050   5.849   4.175   3.620 -0.0217  1.5109  0.1734
 2071SOL    HW3 8051   5.698   4.162   3.625  0.1251 -1.9816 -1.2723
 2071SOL    MW4 8052   5.771   4.189   3.585 -0.0649  0.2396 -0.2917
 2072SOL     OW 8053   3.593   6.228   2.888 -0.5708  0.3373  0.1249
 2072SOL    HW2 8054   3.511   6.204   2.843 -0.1974 -0.4926 -0.1259
 2072SOL    HW3 8055   3.659   6.226   2.819 -0.0823 -0.4521  0.5975
 2072SOL    MW4 8056   3.591   6.224   2.873 -0.4571  0.1237  0.1541
 2073SOL     OW 8057   0.927   2.122   2.417 -0.1262 -0.3258 -0.2793
 2073SOL    HW2 8058   1.013   2.085   2.439 -0.8402 -1.3271  0.9206
 2073SOL    HW3 8059   0.864   2.069   2.465 -1.6315 -1.0976 -2.8812
 2073SOL    MW4 8060   0.930   2.110   2.426 -0.4190 -0.5597 -0.4643
 2074SOL     OW 8061   4.976   5.119   2.349  0.2888  0.0088  0.4535
 2074SOL    HW2 8062   4.998   5.049   2.288  1.7815  0.5248  0.3708
 2074SOL    HW3 8063   4.908   5.170   2.304 -2.3497 -2.4678  1.3374
 2074SOL    MW4 8064   4.970   5.117   2.335  0.1377 -0.2498  0.5592
 2075SOL     OW 8065   4.840   5.679   5.427 -0.0576 -0.1578  0.5297
 2075SOL    HW2 8066   4.805   5.668   5.338 -0.6319  0.1221  0.7131
 2075SOL    HW3 8067   4.910   5.743   5.416 -1.3290  1.3141  0.5274
 2075SOL    MW4 8068   4.844   5.686   5.414 -0.3011  0.0733  0.5536
 2076SOL     OW 8069   2.383   5.900   1.473  0.4119  0.0500 -0.0995
 2076SOL    HW2 8070   2.451   5.848   1.514  0.4250  0.8602  0.9700
 2076SOL    HW3 8071   2.334   5.938   1.547 -0.0840  0.9009 -0.8367
 2076SOL    MW4 8072   2.385   5.898   1.488  0.3482  0.2692 -0.0556
 2077SOL     OW 8073   5.806   5.872   2.872 -0.8457 -0.8086 -0.4505
 2077SOL    HW2 8074   5.780   5.962   2.855 -1.1941 -1.0269 -1.1267
 2077SOL    HW3 8075   5.781   5.856   2.963 -1.6386 -0.5040 -0.6033
 2077SOL    MW4 8076   5.799   5.881   2.881 -0.9963 -0.7972 -0.5599
 2078SOL     OW 8077   0.935   1.420   6.060  0.2479  0.2360 -0.1015
 2078SOL    HW2 8078   0.878   1.466   5.998  0.9718  0.8034 -0.3656
 2078SOL    HW3 8079   1.016   1.470   6.059  0.6701 -0.4209  0.4486
 2078SOL    MW4 8080   0.938   1.433   6.052  0.3991  0.2242 -0.0638
 2079SOL     OW 8081   5.818   0.813   5.082  0.4621 -0.2460 -0.3647
 2079SOL    HW2 8082   5.735   0.805   5.034  1.1196 -0.1020 -1.5498
 2079SOL    HW3 8083   5.828   0.729   5.125 -0.0069 -0.4841 -0.7048
 2079SOL    MW4 8084   5.808   0.801   5.081  0.4870 -0.2584 -0.5659
 2080SOL     OW 8085   4.400   2.142   3.100 -0.9152  0.1548 -0.0306
 2080SOL    HW2 8086   4.316   2.160   3.144 -0.5239 -0.2159  0.9034
 2080SOL    HW3 8087   4.465   2.148   3.170 -0.3537 -1.2195 -0.3953
 2080SOL    MW4 8088   4.397   2.145   3.115 -0.7895 -0.0754  0.0445
 2081SOL     OW 8089   2.180   0.461   5.181 -0.7334 -0.5377 -0.1945
 2081SOL    HW2 8090   2.124   0.529   5.218 -0.8540 -0.2939 -0.8130
 2081SOL    HW3 8091   2.216   0.500   5.101  1.0146 -0.3787  0.6312
 2081SOL    MW4 8092   2.177   0.475   5.175 -0.5187 -0.4845 -0.1671
 2082SOL     OW 8093   2.700   1.117   0.948  0.1535  0.5623  0.3608
 2082SOL    HW2 8094   2.794   1.104   0.935  0.0330 -0.2667  0.2269
 2082SOL    HW3 8095   2.671   1.039   0.996 -0.2640  1.3685  1.4626
 2082SOL    MW4 8096   2.709   1.105   0.952  0.0825  0.5593  0.4885
 2083SOL     OW 8097   5.470   3.791   6.049  0.2899 -0.0123  0.5134
 2083SOL    HW2 8098   5.538   3.727   6.069  0.4137 -0.0030  0.1396
 2083SOL    HW3 8099   5.489   3.866   6.107  0.2868 -0.2164  0.7785
 2083SOL    MW4 8100   5.482   3.793   6.059  0.3058 -0.0380  0.4990
 2084SOL     OW 8101   2.757   4.702   5.827 -0.2786 -0.0592  0.2072
 2084SOL    HW2 8102   2.673   4.747   5.829 -0.7602 -0.8789  2.9691
 2084SOL    HW3 8103   2.805   4.743   5.755 -2.8228  0.7640 -1.1408
 2084SOL    MW4 8104   2.752   4.713   5.818 -0.6778 -0.0587  0.3937
 2085SOL     OW 8105   5.212   6.424   1.105  0.1065  0.8571 -0.2526
 2085SOL    HW2 8106   5.163   6.428   1.186 -0.2382 -0.2832 -0.3857
 2085SOL    HW3 8107   5.297   6.386   1.130 -0.5052 -0.8313 -0.6172
 2085SOL    MW4 8108   5.217   6.420   1.119 -0.0197  0.4839 -0.3182
 2086SOL     OW 8109   4.499   5.947   2.330  0.0006  0.7728 -0.1144
 2086SOL    HW2 8110   4.520   5.985   2.416  2.2498  1.7217 -1.0114
 2086SOL    HW3 8111   4.492   5.853   2.347  0.3724  0.9480  1.1263
 2086SOL    MW4 8112   4.501   5.940   2.344  0.3464  0.9211 -0.0691
 2087SOL     OW 8113   3.437   2.583   5.583  0.2200 -0.3257  0.1666
 2087SOL    HW2 8114   3.529   2.572   5.557 -0.3268 -0.7614 -1.7202
 2087SOL    HW3 8115   3.387   2.538   5.515 -1.3944 -0.4368  1.3701
 2087SOL    MW4 8116   3.443   2.576   5.571 -0.0652 -0.3978  0.0764
 2088SOL     OW 8117   2.371   2.176   0.954  0.6252 -0.1109  0.0416
 2088SOL    HW2 8118   2.344   2.254   0.904  0.2797  1.1412  2.0514
 2088SOL    HW3 8119   2.294   2.119   0.951  0.1054  0.5542  0.2672
 2088SOL    MW4 8120   2.357   2.179   0.947  0.5110  0.1420  0.3365
 2089SOL     OW 8121   5.746   0.612   3.940 -0.0681 -0.2400  0.1070
 2089SOL    HW2 8122   5.654   0.596   3.960  0.1423 -1.2247  0.3157
 2089SOL    HW3 8123   5.752   0.707   3.931 -0.9047 -0.0762  1.1068
 2089SOL    MW4 8124   5.735   0.623   3.942 -0.1507 -0.3483  0.2665
 2090SOL     OW 8125   2.911   0.047   3.666 -0.3912  0.3088 -0.3231
 2090SOL    HW2 8126   2.837   0.068   3.723 -0.1559  0.6152 -0.1253
 2090SOL    HW3 8127   2.987   0.082   3.712  0.3182 -2.6581  0.9781
 2090SOL    MW4 8128   2.911   0.054   3.679 -0.2666 -0.0423 -0.1253
 2091SOL     OW 8129   5.143   3.398   2.632  0.4098  0.1671  0.8013
 2091SOL    HW2 8130   5.054   3.424   2.653 -0.7722 -0.4434 -2.8255
 2091SOL    HW3 8131   5.134   3.314   2.586  3.0264 -0.6342  1.5320
 2091SOL    MW4 8132   5.130   3.390   2.629  0.5990 -0.0191  0.4192
 2092SOL     OW 8133   5.276   2.533   4.302 -0.2029 -0.2828 -0.2391
 2092SOL    HW2 8134   5.182   2.520   4.307 -0.1012 -0.8005  0.6002
 2092SOL    HW3 8135   5.289   2.624   4.327 -0.4125 -0.5144  0.7903
 2092SOL    MW4 8136   5.266   2.543   4.306 -0.2172 -0.3817  0.0075
 2093SOL     OW 8137   5.455   2.754   1.930 -0.1380  0.0956  0.2059
 2093SOL    HW2 8138   5.442   2.759   2.025  0.0332 -0.6532  0.2734
 2093SOL    HW3 8139   5.540   2.795   1.915  1.0829 -2.1015  0.7024
 2093SOL    MW4 8140   5.465   2.760   1.941  0.0457 -0.2931  0.2803
 2094SOL     OW 8141   1.844   0.615   3.214 -0.1975  0.1063 -0.5837
 2094SOL    HW2 8142   1.769   0.661   3.177  0.0424 -0.1353 -1.3712
 2094SOL    HW3 8143   1.883   0.568   3.141  1.2287  0.8865 -0.3624
 2094SOL    MW4 8144   1.839   0.615   3.200  0.0224  0.1774 -0.6584
 2095SOL     OW 8145   1.567   3.620   1.093  0.0917 -0.6136 -0.0861
 2095SOL    HW2 8146   1.492   3.673   1.064  0.4313  0.2609  0.5787
 2095SOL    HW3 8147   1.536   3.578   1.174  0.2746 -0.3493  0.1218
 2095SOL    MW4 8148   1.553   3.622   1.100  0.1606 -0.4633  0.0290
 2096SOL     OW 8149   1.722   0.777   6.349  0.2394 -0.2307 -0.1166
 2096SOL    HW2 8150   1.787   0.838   6.385  0.2041  0.3347 -0.9848
 2096SOL    HW3 8151   1.736   0.696   6.399  0.5834  0.3418  0.7517
 2096SOL    MW4 8152   1.732   0.774   6.360  0.2801 -0.0805 -0.1166
 2097SOL     OW 8153   3.723   2.531   0.530 -0.0473 -0.3800  0.4195
 2097SOL    HW2 8154   3.809   2.494   0.513 -0.1645 -0.2844 -0.4279
 2097SOL    HW3 8155   3.664   2.456   0.530 -0.1061 -0.3380 -0.0429
 2097SOL    MW4 8156   3.727   2.516   0.527 -0.0705 -0.3618  0.2467
 2098SOL     OW 8157   2.902   2.144   1.017 -0.1787 -0.2385 -0.0984
 2098SOL    HW2 8158   2.817   2.188   1.013  0.0041  0.1279 -0.0450
 2098SOL    HW3 8159   2.947   2.172   0.937 -0.4277 -1.1128 -0.5579
 2098SOL    MW4 8160   2.897   2.153   1.006 -0.1874 -0.3055 -0.1520
 2099SOL     OW 8161   1.387   0.764   5.496  0.2564  0.3898 -0.0934
 2099SOL    HW2 8162   1.420   0.815   5.570 -0.6873  0.5598  0.2246
 2099SOL    HW3 8163   1.368   0.830   5.428  0.0561  0.3498 -0.0758
 2099SOL    MW4 8164   1.389   0.780   5.497  0.1055  0.4070 -0.0492
 2100SOL     OW 8165   0.711   4.882   0.470 -0.8768 -0.4034 -0.5605
 2100SOL    HW2 8166   0.780   4.865   0.406 -0.7653 -0.2876 -0.4706
 2100SOL    HW3 8167   0.696   4.798   0.513 -1.6058 -0.7186 -1.3808
 2100SOL    MW4 8168   0.718   4.869   0.467 -0.9583 -0.4297 -0.6569
 2101SOL     OW 8169   0.996   5.590   1.131  0.0290  0.2195  0.3557
 2101SOL    HW2 8170   0.965   5.681   1.134 -0.0318  0.2179 -0.0714
 2101SOL    HW3 8171   1.053   5.588   1.053  0.3560 -0.0072  0.6010
 2101SOL    MW4 8172   1.000   5.602   1.121  0.0641  0.1893  0.3317
 2102SOL     OW 8173   4.852   0.774   3.674  0.2490 -0.2129 -0.2490
 2102SOL    HW2 8174   4.915   0.728   3.618  0.3672  0.6313 -0.8441
 2102SOL    HW3 8175   4.907   0.824   3.735  0.1687  0.4499 -0.7069
 2102SOL    MW4 8176   4.868   0.775   3.674  0.2540 -0.0141 -0.3879
 2103SOL     OW 8177   3.105   3.448   1.467 -0.2423 -0.2435  0.2149
 2103SOL    HW2 8178   3.105   3.463   1.561 -0.0036  0.1200  0.1600
 2103SOL    HW3 8179   3.092   3.354   1.457  0.7268 -0.4359  0.6406
 2103SOL    MW4 8180   3.104   3.438   1.478 -0.0830 -0.2209  0.2638
 2104SOL     OW 8181   6.305   1.599   1.020  0.0848  0.0262 -0.4000
 2104SOL    HW2 8182   6.260   1.649   1.088  1.4032  0.2705  0.3133
 2104SOL    HW3 8183   6.387   1.646   1.005  0.5784 -0.9764 -0.9318
 2104SOL    MW4 8184   6.309   1.612   1.027  0.3238 -0.0738 -0.3760
 2105SOL     OW 8185   4.538   3.317   5.275  0.5834 -0.2622 -0.4732
 2105SOL    HW2 8186   4.521   3.229   5.308  0.4718  0.5650  1.9074
 2105SOL    HW3 8187   4.592   3.358   5.343 -0.0750  1.7517 -1.0976
 2105SOL    MW4 8188   4.543   3.311   5.289  0.4818  0.1126 -0.2415
 2106SOL     OW 8189   6.195   2.476   3.179 -0.1578  0.3300  0.0375
 2106SOL    HW2 8190   6.207   2.557   3.229  1.2835  2.2117 -3.0284
 2106SOL    HW3 8191   6.199   2.406   3.244 -2.5127  2.6791  2.9986
 2106SOL    MW4 8192   6.197   2.478   3.194 -0.2783  0.8882  0.0237
 2107SOL     OW 8193   0.337   4.080   3.126  0.4788  0.0152  0.0014
 2107SOL    HW2 8194   0.309   4.154   3.071  0.1414 -0.1808 -0.0942
 2107SOL    HW3 8195   0.363   4.120   3.209 -0.1965  0.1983  0.1315
 2107SOL    MW4 8196   0.336   4.095   3.130  0.3452  0.0135  0.0060
 2108SOL     OW 8197   4.877   5.178   4.117  0.3253  0.4836  0.3213
 2108SOL    HW2 8198   4.949   5.232   4.149 -0.3458  1.8285 -0.3591
 2108SOL    HW3 8199   4.864   5.206   4.027  0.1376 -1.0418 -0.1550
 2108SOL    MW4 8200   4.885   5.188   4.110  0.2120  0.4598  0.1687
 2109SOL     OW 8201   2.275   2.883   6.401  0.7210  0.2101 -0.3729
 2109SOL    HW2 8202   2.331   2.955   6.372 -1.2422  1.1016 -2.2334
 2109SOL    HW3 8203   2.285   2.816   6.334  1.5710 -0.7674  0.6936
 2109SOL    MW4 8204   2.284   2.884   6.389  0.5741  0.1988 -0.4776
 2110SOL     OW 8205   1.956   2.122   3.638  0.1587  0.3382 -0.2533
 2110SOL    HW2 8206   2.029   2.061   3.650  1.4741  1.7998 -0.4298
 2110SOL    HW3 8207   1.945   2.129   3.543 -0.0590  0.2838 -0.2324
 2110SOL    MW4 8208   1.964   2.115   3.627  0.3035  0.5239 -0.2738
 2111SOL     OW 8209   3.089   0.391   3.971 -0.3789 -0.2716  0.0610
 2111SOL    HW2 8210   2.995   0.403   3.988 -0.6902 -0.3031 -1.4420
 2111SOL    HW3 8211   3.093   0.317   3.910  0.5285  0.3845 -0.7078
 2111SOL    MW4 8212   3.077   0.383   3.965 -0.3003 -0.1892 -0.2387
 2112SOL     OW 8213   3.805   4.183   4.964 -0.2729 -0.5334 -0.3469
 2112SOL    HW2 8214   3.763   4.264   4.936 -0.9852 -1.2055 -1.2618
 2112SOL    HW3 8215   3.841   4.145   4.884 -1.1068 -1.7736 -0.1727
 2112SOL    MW4 8216   3.804   4.189   4.950 -0.4769 -0.7857 -0.4447
 2113SOL     OW 8217   6.299   6.103   2.866  0.5265 -0.4861 -0.1746
 2113SOL    HW2 8218   6.345   6.033   2.819 -1.1441 -1.0288 -1.0752
 2113SOL    HW3 8219   6.230   6.058   2.915  1.5328  0.1967  1.9977
 2113SOL    MW4 8220   6.296   6.088   2.866  0.4388 -0.4676 -0.0068
 2114SOL     OW 8221   4.478   5.331   5.707  0.0308  0.0478  0.0034
 2114SOL    HW2 8222   4.463   5.403   5.769  0.2207 -0.1305  0.2595
 2114SOL    HW3 8223   4.573   5.324   5.701  0.0984  1.9867 -2.5615
 2114SOL    MW4 8224   4.489   5.339   5.714  0.0647  0.2801 -0.3012
 2115SOL     OW 8225   3.323   3.580   4.116  0.0368  0.2310 -0.7463
 2115SOL    HW2 8226   3.275   3.662   4.126  0.3691  0.2667  0.7680
 2115SOL    HW3 8227   3.287   3.523   4.183  2.1130  0.2842  0.4999
 2115SOL    MW4 8228   3.312   3.583   4.126  0.3546  0.2427 -0.3821
 2116SOL     OW 8229   6.087   1.872   0.581  0.1897 -0.1114 -0.0519
 2116SOL    HW2 8230   6.018   1.806   0.582  1.4983 -1.6520 -2.2974
 2116SOL    HW3 8231   6.167   1.824   0.560  1.8517  1.7313  1.6097
 2116SOL    MW4 8232   6.089   1.857   0.578  0.5816 -0.0716 -0.1289
 2117SOL     OW 8233   2.860   3.440   1.129 -1.0313 -0.0050 -0.2087
 2117SOL    HW2 8234   2.891   3.522   1.091 -0.9500  1.1141  2.1467
 2117SOL    HW3 8235   2.931   3.378   1.111 -1.0157  0.4294 -1.8583
 2117SOL    MW4 8236   2.873   3.443   1.122 -1.0185  0.1999 -0.1155
 2118SOL     OW 8237   5.694   4.849   5.053 -0.2215 -0.4183  0.2443
 2118SOL    HW2 8238   5.697   4.757   5.080  2.3870 -0.2550  0.8386
 2118SOL    HW3 8239   5.772   4.888   5.093 -1.0904  1.9981 -0.2387
 2118SOL    MW4 8240   5.705   4.842   5.062  0.0080 -0.0780  0.2590
 2119SOL     OW 8241   2.954   0.471   5.464  0.2376 -0.5215 -0.2091
 2119SOL    HW2 8242   2.887   0.422   5.513 -1.7136  1.0163 -1.1830
 2119SOL    HW3 8243   2.970   0.417   5.386  0.9113 -1.3848  0.5084
 2119SOL    MW4 8244   2.947   0.457   5.460  0.0691 -0.4325 -0.2430
 2120SOL     OW 8245   5.579   0.670   5.259  0.0532 -0.4943 -0.4233
 2120SOL    HW2 8246   5.591   0.673   5.164 -2.1701  0.3590 -0.7304
 2120SOL    HW3 8247   5.506   0.610   5.273 -0.0579 -0.1256  0.7040
 2120SOL    MW4 8248   5.571   0.663   5.248 -0.2548 -0.3331 -0.3151
 2121SOL     OW 8249   3.519   1.970   1.920 -0.2062 -0.2822 -0.2735
 2121SOL    HW2 8250   3.488   2.032   1.987  2.7689  2.2593 -1.0186
 2121SOL    HW3 8251   3.593   2.014   1.879  0.0699 -3.0730 -3.1560
 2121SOL    MW4 8252   3.525   1.984   1.924  0.2228 -0.3151 -0.7521
 2122SOL     OW 8253   5.521   0.540   6.262 -0.1731 -0.0217 -0.1601
 2122SOL    HW2 8254   5.469   0.486   6.203  0.1458 -0.2691 -0.2201
 2122SOL    HW3 8255   5.528   0.625   6.218 -1.2289  0.2784  0.2384
 2122SOL    MW4 8256   5.515   0.544   6.248 -0.2703 -0.0147 -0.1155
 2123SOL     OW 8257   6.162   0.866   2.404 -0.2381 -0.2006 -0.7717
 2123SOL    HW2 8258   6.241   0.871   2.457 -1.0068  0.1752  0.3686
 2123SOL    HW3 8259   6.194   0.853   2.314  1.0368 -3.0387  0.0023
 2123SOL    MW4 8260   6.176   0.865   2.399 -0.1713 -0.5255 -0.5191
 2124SOL     OW 8261   2.558   1.212   5.405 -0.2790 -0.0033  0.0933
 2124SOL    HW2 8262   2.613   1.156   5.459 -0.0997  0.4743  0.4109
 2124SOL    HW3 8263   2.515   1.271   5.467 -0.9882 -0.2295 -0.1676
 2124SOL    MW4 8264   2.559   1.212   5.420 -0.3489  0.0299  0.1008
 2125SOL     OW 8265   1.889   0.943   0.943  0.0095  0.3349 -0.1367
 2125SOL    HW2 8266   1.969   0.899   0.915 -1.1540 -2.1331  0.1344
 2125SOL    HW3 8267   1.825   0.872   0.954 -2.1057  2.1596  0.0628
 2125SOL    MW4 8268   1.891   0.928   0.941 -0.4231  0.2500 -0.0746
 2126SOL     OW 8269   6.215   3.861   2.496  0.0297 -0.6775  0.1511
 2126SOL    HW2 8270   6.280   3.893   2.559 -0.4017 -1.3082  0.9292
 2126SOL    HW3 8271   6.226   3.765   2.497  0.3764 -0.6768 -1.1311
 2126SOL    MW4 8272   6.225   3.852   2.504  0.0185 -0.7606  0.0846
 2127SOL     OW 8273   4.232   2.380   2.240 -0.5955  0.0690 -0.0008
 2127SOL    HW2 8274   4.277   2.464   2.247 -0.1801 -0.1601  0.1028
 2127SOL    HW3 8275   4.300   2.315   2.255 -0.8519 -0.2968 -0.3930
 2127SOL    MW4 8276   4.247   2.382   2.243 -0.5746 -0.0095 -0.0389
 2128SOL     OW 8277   3.560   1.137   0.370  0.2899 -0.1601  0.2291
 2128SOL    HW2 8278   3.613   1.200   0.419 -1.0375  1.7575 -0.6904
 2128SOL    HW3 8279   3.482   1.126   0.424 -0.7039  1.1510 -0.8737
 2128SOL    MW4 8280   3.557   1.144   0.384 -0.0163  0.2659 -0.0377
 2129SOL     OW 8281   2.390   3.220   5.456  0.1061 -0.0908  0.1686
 2129SOL    HW2 8282   2.363   3.253   5.370  2.3794  1.5590 -0.0192
 2129SOL    HW3 8283   2.325   3.255   5.516 -1.5489 -1.3127 -0.8393
 2129SOL    MW4 8284   2.378   3.229   5.452  0.1877 -0.0343  0.0108
 2130SOL     OW 8285   1.922   4.375   5.013 -0.1388  0.2020  0.2858
 2130SOL    HW2 8286   1.995   4.408   4.961 -0.2045  1.2716  0.8525
 2130SOL    HW3 8287   1.953   4.289   5.044  1.2664  1.0093  1.2536
 2130SOL    MW4 8288   1.936   4.368   5.010  0.0379  0.4496  0.4882
 2131SOL     OW 8289   3.432   6.309   4.558 -0.2566 -0.5792  0.0149
 2131SOL    HW2 8290   3.414   6.402   4.570  0.3567 -0.6558  1.7046
 2131SOL    HW3 8291   3.518   6.306   4.516  0.8903 -0.3856  2.2328
 2131SOL    MW4 8292   3.441   6.321   4.554 -0.0244 -0.5638  0.5305
 2132SOL     OW 8293   0.259   5.032   5.925 -0.4404  0.2232 -0.4423
 2132SOL    HW2 8294   0.329   5.075   5.974  0.6308 -0.6090 -1.1932
 2132SOL    HW3 8295   0.192   5.012   5.991  0.2470  0.5806  0.3856
 2132SOL    MW4 8296   0.259   5.035   5.940 -0.2084  0.1606 -0.4322
 2133SOL     OW 8297   4.304   5.775   6.382  0.3776  0.4053  0.3228
 2133SOL    HW2 8298   4.282   5.856   6.336  4.2226  0.7084 -1.3814
 2133SOL    HW3 8299   4.313   5.710   6.312 -1.6104 -1.3114  1.5590
 2133SOL    MW4 8300   4.303   5.777   6.366  0.6226  0.2188  0.2610
 2134SOL     OW 8301   5.104   1.749   2.788  0.2033  0.0429 -0.7044
 2134SOL    HW2 8302   5.114   1.656   2.805 -0.0597  0.1805  0.2443
 2134SOL    HW3 8303   5.046   1.754   2.712  0.9872 -0.5760 -1.3545
 2134SOL    MW4 8304   5.098   1.738   2.780  0.2720 -0.0206 -0.6650
 2135SOL     OW 8305   5.768   4.987   3.756 -0.0159  0.9314  0.4704
 2135SOL    HW2 8306   5.713   4.966   3.832  1.7164 -0.0025  1.5282
 2135SOL    HW3 8307   5.709   4.978   3.681 -0.9411 -1.8117  1.3908
 2135SOL    MW4 8308   5.753   4.983   3.757  0.0906  0.4463  0.7314
 2136SOL     OW 8309   0.799   4.209   0.159  0.0447 -0.1279  0.5088
 2136SOL    HW2 8310   0.838   4.297   0.158  0.3571 -0.2367 -1.8497
 2136SOL    HW3 8311   0.707   4.223   0.139  0.2664 -0.3649 -0.7725
 2136SOL    MW4 8312   0.792   4.223   0.156  0.1152 -0.1735  0.0286
 2137SOL     OW 8313   6.375   5.814   3.573 -0.0458 -0.5513  0.1418
 2137SOL    HW2 8314   6.418   5.732   3.597  2.8433  1.1590  1.3326
 2137SOL    HW3 8315   6.347   5.852   3.657 -0.0077  0.3615 -0.2406
 2137SOL    MW4 8316   6.377   5.808   3.587  0.3404 -0.2052  0.2485
 2138SOL     OW 8317   4.868   1.537   6.235  0.2222 -0.7066 -0.4677
 2138SOL    HW2 8318   4.883   1.458   6.286 -2.5387 -0.7483  0.4594
 2138SOL    HW3 8319   4.863   1.607   6.301  1.4446  0.0685 -1.1664
 2138SOL    MW4 8320   4.869   1.536   6.250  0.0192 -0.6098 -0.4376
 2139SOL     OW 8321   5.618   0.059   0.032  0.3739 -0.1547 -0.2110
 2139SOL    HW2 8322   5.573   0.139   0.002  2.8632  0.7953 -1.6782
 2139SOL    HW3 8323   5.645   0.080   0.122 -0.9914 -0.2759  0.2479
 2139SOL    MW4 8324   5.616   0.073   0.040  0.5222 -0.0454 -0.3441
 2140SOL     OW 8325   1.946   5.010   2.630  0.2941  0.4226 -0.1241
 2140SOL    HW2 8326   1.908   5.074   2.570  0.3788  0.8506  0.2738
 2140SOL    HW3 8327   2.022   5.054   2.667  0.8203 -0.2035 -0.4462
 2140SOL    MW4 8328   1.951   5.025   2.627  0.3747  0.3964 -0.1141
 2141SOL     OW 8329   0.451   1.152   6.148 -1.0777  0.0503 -0.0706
 2141SOL    HW2 8330   0.511   1.155   6.074 -1.2059  0.6151 -0.1560
 2141SOL    HW3 8331   0.373   1.198   6.117 -0.6995  1.3461  0.7939
 2141SOL    MW4 8332   0.448   1.159   6.134 -1.0447  0.2957  0.0322
 2142SOL     OW 8333   1.592   6.396   5.370 -0.0609 -0.7607 -0.1401
 2142SOL    HW2 8334   1.626   6.473   5.325  1.7231 -0.9795  0.7504
 2142SOL    HW3 8335   1.571   6.335   5.299 -0.1711  0.0187 -0.7944
 2142SOL    MW4 8336   1.594   6.398   5.355  0.1599 -0.6867 -0.1090
 2143SOL     OW 8337   2.722   4.143   3.702  0.2743 -0.0575  0.0109
 2143SOL    HW2 8338   2.710   4.219   3.759  2.2315 -0.6296  1.2505
 2143SOL    HW3 8339   2.713   4.067   3.759 -1.1097 -0.8108 -1.1157
 2143SOL    MW4 8340   2.719   4.143   3.717  0.3499 -0.2324  0.0258
 2144SOL     OW 8341   4.691   4.207   4.297 -0.6092 -0.2065  0.0283
 2144SOL    HW2 8342   4.744   4.214   4.218 -0.8327  1.8320 -0.0020
 2144SOL    HW3 8343   4.745   4.246   4.366 -1.2686  0.0821  0.4004
 2144SOL    MW4 8344   4.705   4.213   4.296 -0.7257  0.1006  0.0734
 2145SOL     OW 8345   2.578   1.176   5.757  0.1786  0.6646  0.2852
 2145SOL    HW2 8346   2.506   1.131   5.713  0.3362  1.5591 -0.9241
 2145SOL    HW3 8347   2.644   1.108   5.769 -0.4763  0.0534  0.5522
 2145SOL    MW4 8348   2.577   1.161   5.753  0.1130  0.7020  0.1609
 2146SOL     OW 8349   2.614   0.417   1.652  0.2512 -0.2306 -0.1510
 2146SOL    HW2 8350   2.617   0.350   1.584 -1.3565  0.5604 -1.0420
 2146SOL    HW3 8351   2.668   0.488   1.618 -0.9941  0.3906 -0.8958
 2146SOL    MW4 8352   2.621   0.418   1.639 -0.1252 -0.0443 -0.3669
 2147SOL     OW 8353   0.018   3.978   2.648  0.5146  0.1232  0.2486
 2147SOL    HW2 8354   0.006   3.970   2.742 -1.7468  0.4799  0.0411
 2147SOL    HW3 8355   0.060   4.064   2.637 -1.1782  1.0734  0.8517
 2147SOL    MW4 8356   0.022   3.989   2.659 -0.0071  0.2957  0.3008
 2148SOL     OW 8357   4.241   5.151   5.916 -0.4141 -0.8837 -0.1767
 2148SOL    HW2 8358   4.206   5.152   5.827 -0.9623  0.2496  0.0372
 2148SOL    HW3 8359   4.166   5.127   5.971 -0.5609  0.2582  0.1504
 2148SOL    MW4 8360   4.226   5.148   5.912 -0.5058 -0.5835 -0.1053
 2149SOL     OW 8361   5.463   0.315   0.497  0.7476  0.0747 -0.2329
 2149SOL    HW2 8362   5.425   0.231   0.471  0.5132  0.9640 -3.0829
 2149SOL    HW3 8363   5.557   0.306   0.482  1.1959 -0.5870  2.3943
 2149SOL    MW4 8364   5.470   0.303   0.492  0.7758  0.1047 -0.2623
 2150SOL     OW 8365   2.069   5.559   0.638  0.6293  0.0931 -0.7886
 2150SOL    HW2 8366   2.032   5.639   0.600 -1.5934 -0.0036  0.9778
 2150SOL    HW3 8367   2.105   5.512   0.563  1.9309  2.6576 -1.8927
 2150SOL    MW4 8368   2.069   5.563   0.623  0.5078  0.4187 -0.7012
 2151SOL     OW 8369   4.045   3.407   1.522  0.0764  0.8551 -0.4060
 2151SOL    HW2 8370   3.968   3.399   1.466 -1.1985  1.4375  1.1838
 2151SOL    HW3 8371   4.048   3.500   1.547  2.3740  1.2452 -1.8544
 2151SOL    MW4 8372   4.035   3.418   1.518  0.2113  0.9834 -0.3874
 2152SOL     OW 8373   1.589   2.891   0.697 -0.0401 -0.4388 -0.1150
 2152SOL    HW2 8374   1.547   2.880   0.782 -1.4380 -1.7861 -0.9262
 2152SOL    HW3 8375   1.596   2.802   0.662  4.7590 -0.5676  0.4429
 2152SOL    MW4 8376   1.584   2.878   0.703  0.4087 -0.6335 -0.1484
 2153SOL     OW 8377   0.343   1.779   5.044 -0.4262  0.3453 -0.5883
 2153SOL    HW2 8378   0.415   1.742   5.094 -0.8745 -0.5959 -0.6173
 2153SOL    HW3 8379   0.290   1.704   5.017 -1.7882  1.0435 -0.0095
 2153SOL    MW4 8380   0.345   1.765   5.047 -0.6650  0.3133 -0.5158
 2154SOL     OW 8381   6.423   4.050   4.209 -0.1132  0.1490 -0.5622
 2154SOL    HW2 8382   6.485   4.079   4.277  1.1625 -0.3139 -1.4822
 2154SOL    HW3 8383   6.476   3.995   4.151 -1.2709  0.2238 -1.7254
 2154SOL    MW4 8384   6.438   4.047   4.210 -0.0976  0.0978 -0.8370
 2155SOL     OW 8385   0.723   1.766   3.096  0.3043  0.2256 -0.6701
 2155SOL    HW2 8386   0.644   1.820   3.082  0.0910  0.1027  0.0213
 2155SOL    HW3 8387   0.704   1.684   3.052  1.1538  1.1437 -2.8714
 2155SOL    MW4 8388   0.710   1.763   3.088  0.3882  0.3306 -0.8693
 2156SOL     OW 8389   3.250   6.207   3.190 -0.2126 -0.4236 -0.3087
 2156SOL    HW2 8390   3.160   6.220   3.220 -1.0193 -0.0326 -2.6154
 2156SOL    HW3 8391   3.288   6.295   3.190 -0.0222 -0.5074  0.1380
 2156SOL    MW4 8392   3.243   6.220   3.194 -0.2939 -0.3831 -0.5541
 2157SOL     OW 8393   1.831   1.674   0.989  0.2427  0.2228  0.5236
 2157SOL    HW2 8394   1.774   1.743   0.955 -0.9394 -1.0679 -0.2276
 2157SOL    HW3 8395   1.908   1.720   1.021  0.3791  1.7553 -1.7576
 2157SOL    MW4 8396   1.833   1.689   0.989  0.1048  0.2547  0.1235
 2158SOL     OW 8397   6.302   3.566   0.133 -0.2428 -0.0857 -0.2137
 2158SOL    HW2 8398   6.322   3.474   0.148  0.5585  0.0063 -0.6730
 2158SOL    HW3 8399   6.245   3.565   0.056  0.2383 -0.1543 -0.5679
 2158SOL    MW4 8400   6.297   3.553   0.125 -0.0736 -0.0826 -0.3210
 2159SOL     OW 8401   3.478   0.554   4.370  0.1621  0.3626  0.2806
 2159SOL    HW2 8402   3.565   0.519   4.351  0.1244  0.4197  0.0008
 2159SOL    HW3 8403   3.453   0.601   4.291  0.8564  2.3381  1.1726
 2159SOL    MW4 8404   3.486   0.556   4.357  0.2488  0.6307  0.3614
 2160SOL     OW 8405   2.975   2.236   1.580 -0.2455 -0.5394 -0.4977
 2160SOL    HW2 8406   2.922   2.178   1.526 -1.9280  2.0013 -1.8076
 2160SOL    HW3 8407   2.914   2.270   1.646  1.5571 -2.8921  2.6611
 2160SOL    MW4 8408   2.960   2.233   1.581 -0.2296 -0.5146 -0.2538
 2161SOL     OW 8409   1.788   0.499   2.299 -1.0908  0.3925  0.2036
 2161SOL    HW2 8410   1.845   0.575   2.304  1.2727 -1.3549  1.9756
 2161SOL    HW3 8411   1.756   0.499   2.209  2.2359  1.1815 -1.1103
 2161SOL    MW4 8412   1.791   0.509   2.288 -0.3401  0.2660  0.2641
 2162SOL     OW 8413   3.131   1.548   0.343 -0.3068  0.2526 -0.2547
 2162SOL    HW2 8414   3.166   1.459   0.350  1.1041  0.7445 -0.7123
 2162SOL    HW3 8415   3.052   1.538   0.289 -0.0134 -0.6860 -0.5314
 2162SOL    MW4 8416   3.125   1.535   0.336 -0.0819  0.1936 -0.3516
 2163SOL     OW 8417   0.922   3.872   1.430  0.1797 -1.1301 -0.1299
 2163SOL    HW2 8418   0.913   3.828   1.345 -1.5805 -0.8362 -0.1326
 2163SOL    HW3 8419   0.843   3.848   1.478  0.0223  0.5875  0.5443
 2163SOL    MW4 8420   0.910   3.863   1.425 -0.0733 -0.8647 -0.0413
 2164SOL     OW 8421   2.197   5.535   3.284 -0.2251  0.0155  0.4155
 2164SOL    HW2 8422   2.109   5.530   3.321  0.0698  0.4151  1.1927
 2164SOL    HW3 8423   2.198   5.617   3.235 -0.3636 -0.1165  0.1903
 2164SOL    MW4 8424   2.186   5.545   3.283 -0.2045  0.0508  0.4884
 2165SOL     OW 8425   0.939   2.322   3.362  0.0418 -0.5795 -0.2915
 2165SOL    HW2 8426   0.914   2.408   3.398  0.4199 -0.6536  0.1543
 2165SOL    HW3 8427   0.919   2.260   3.432  1.3388 -0.6579  0.0387
 2165SOL    MW4 8428   0.933   2.325   3.376  0.2628 -0.5996 -0.1892
 2166SOL     OW 8429   0.870   6.036   2.975 -0.0506 -0.3041 -0.2759
 2166SOL    HW2 8430   0.931   6.045   2.903  0.6260  0.2337  0.3486
 2166SOL    HW3 8431   0.784   6.055   2.937  0.2698 -0.2307 -0.9684
 2166SOL    MW4 8432   0.866   6.039   2.961  0.0810 -0.2235 -0.2849
 2167SOL     OW 8433   1.416   4.459   3.197  0.1729  0.8827  0.2123
 2167SOL    HW2 8434   1.400   4.521   3.268 -0.7700  0.6243  0.2377
 2167SOL    HW3 8435   1.345   4.396   3.204  1.7277 -0.8913  0.8984
 2167SOL    MW4 8436   1.405   4.459   3.207  0.2536  0.6146  0.3062
 2168SOL     OW 8437   0.902   4.316   2.194 -0.2805  0.1581  0.0158
 2168SOL    HW2 8438   0.943   4.278   2.116  1.1107  0.1549  0.7185
 2168SOL    HW3 8439   0.831   4.371   2.160 -2.0821 -2.6244 -1.0726
 2168SOL    MW4 8440   0.898   4.318   2.179 -0.3346 -0.2094 -0.0351
 2169SOL     OW 8441   4.357   5.807   5.585 -0.1492 -0.3408 -0.0195
 2169SOL    HW2 8442   4.398   5.842   5.507 -1.7891 -2.6319 -2.0575
 2169SOL    HW3 8443   4.429   5.790   5.645  1.2368  0.7968 -1.3057
 2169SOL    MW4 8444   4.372   5.809   5.583 -0.1827 -0.4930 -0.4581
 2170SOL     OW 8445   3.390   0.186   4.597 -0.2547  0.6397 -0.0522
 2170SOL    HW2 8446   3.407   0.276   4.625  0.1909  0.7912 -0.8008
 2170SOL    HW3 8447   3.308   0.191   4.548 -0.8125  0.4433  0.8314
 2170SOL    MW4 8448   3.381   0.198   4.595 -0.2695  0.6338 -0.0344
 2171SOL     OW 8449   6.326   2.565   6.273  0.6439 -0.1769  0.2627
 2171SOL    HW2 8450   6.383   2.509   6.221  0.3334 -1.2314  1.0324
 2171SOL    HW3 8451   6.239   2.552   6.235  0.2664 -1.6058  1.5252
 2171SOL    MW4 8452   6.322   2.556   6.261  0.5531 -0.5045  0.5308
 2172SOL     OW 8453   6.031   3.068   0.634 -0.0345 -0.0955  0.1060
 2172SOL    HW2 8454   5.984   2.995   0.593 -0.1919 -0.9358  1.7098
 2172SOL    HW3 8455   6.053   3.126   0.561  0.1277 -1.7536 -1.2374
 2172SOL    MW4 8456   6.028   3.066   0.619 -0.0339 -0.4252  0.1404
 2173SOL     OW 8457   3.596   1.562   4.287  0.0638 -0.1435 -0.1476
 2173SOL    HW2 8458   3.609   1.606   4.371 -0.3778  0.4239 -0.3754
 2173SOL    HW3 8459   3.613   1.469   4.306 -0.9590 -0.1598  0.7913
 2173SOL    MW4 8460   3.600   1.555   4.301 -0.1294 -0.0708 -0.0538
 2174SOL     OW 8461   5.706   0.291   3.272 -0.0174  0.2627  0.0632
 2174SOL    HW2 8462   5.736   0.289   3.363  1.6177 -0.9722 -0.4595
 2174SOL    HW3 8463   5.660   0.374   3.264  0.9235  0.9894  1.6813
 2174SOL    MW4 8464   5.704   0.302   3.283  0.3225  0.1957  0.2078
 2175SOL     OW 8465   5.217   5.405   3.141 -0.4450 -0.5137 -0.0598
 2175SOL    HW2 8466   5.180   5.393   3.229  0.5559  0.8019  0.5720
 2175SOL    HW3 8467   5.250   5.494   3.141  0.0021 -0.6515 -1.6381
 2175SOL    MW4 8468   5.216   5.415   3.152 -0.2539 -0.3583 -0.1847
 2176SOL     OW 8469   6.085   4.002   1.682  0.5408  0.2035  0.2642
 2176SOL    HW2 8470   6.007   4.057   1.681 -2.1908 -3.3157 -0.8970
 2176SOL    HW3 8471   6.127   4.018   1.597 -0.9696 -0.4125 -0.6333
 2176SOL    MW4 8472   6.080   4.011   1.671 -0.0189 -0.3421 -0.0074
 2177SOL     OW 8473   2.121   4.177   0.569 -0.1451  0.5829  0.4577
 2177SOL    HW2 8474   2.173   4.120   0.625 -0.7714  0.8350  1.3369
 2177SOL    HW3 8475   2.035   4.135   0.565 -0.4993  1.2461  0.7998
 2177SOL    MW4 8476   2.116   4.164   0.576 -0.2744  0.7037  0.6188
 2178SOL     OW 8477   2.984   4.919   5.903 -0.4735  0.4006 -0.0918
 2178SOL    HW2 8478   2.950   4.843   5.950 -0.4452 -0.3039 -1.1508
 2178SOL    HW3 8479   2.918   4.987   5.917 -1.7128 -0.5447 -1.0291
 2178SOL    MW4 8480   2.971   4.918   5.911 -0.6333  0.1829 -0.3552
 2179SOL     OW 8481   0.649   0.983   2.543 -0.0267 -0.1637  0.3391
 2179SOL    HW2 8482   0.688   0.923   2.607  0.0492 -0.2744  0.1898
 2179SOL    HW3 8483   0.582   1.031   2.592 -0.4724 -0.7645  0.3232
 2179SOL    MW4 8484   0.645   0.982   2.558 -0.0755 -0.2575  0.3173
 2180SOL     OW 8485   0.720   0.751   4.720  0.0713  0.0217  0.0304
 2180SOL    HW2 8486   0.668   0.831   4.710 -0.2915 -0.0689  1.1345
 2180SOL    HW3 8487   0.723   0.736   4.814 -0.5867 -1.7608 -0.2129
 2180SOL    MW4 8488   0.714   0.760   4.731 -0.0634 -0.2254  0.1440
 2181SOL     OW 8489   0.301   3.005   4.168 -0.1414 -0.0213  0.0535
 2181SOL    HW2 8490   0.324   3.089   4.127  1.5036 -0.5662 -0.1953
 2181SOL    HW3 8491   0.234   2.968   4.111 -1.2443  1.3151  0.4191
 2181SOL    MW4 8492   0.295   3.012   4.155 -0.0699  0.0831  0.0689
 2182SOL     OW 8493   2.648   2.696   4.390 -0.5689  0.3818  0.1753
 2182SOL    HW2 8494   2.560   2.715   4.358 -0.7091  1.9354  1.3741
 2182SOL    HW3 8495   2.650   2.731   4.479  0.7608 -1.0976  0.7860
 2182SOL    MW4 8496   2.637   2.703   4.397 -0.4119  0.3916  0.4140
 2183SOL     OW 8497   5.807   4.524   1.648  0.0322 -0.9914  0.3052
 2183SOL    HW2 8498   5.834   4.452   1.591  1.5165 -0.2898  0.0969
 2183SOL    HW3 8499   5.742   4.485   1.707  1.0114 -2.5573  0.3757
 2183SOL    MW4 8500   5.802   4.510   1.648  0.3572 -1.1054  0.2870
 2184SOL     OW 8501   5.835   4.122   1.689 -0.2060 -0.6975  0.3864
 2184SOL    HW2 8502   5.837   4.199   1.632  2.0454 -0.8721  0.1525
 2184SOL    HW3 8503   5.832   4.048   1.629  1.9639 -0.8754  0.4428
 2184SOL    MW4 8504   5.835   4.123   1.673  0.3774 -0.7440  0.3630
 2185SOL     OW 8505   3.402   5.976   1.052  0.3508 -0.2834 -0.5978
 2185SOL    HW2 8506   3.481   6.030   1.053  1.4332 -1.8252  0.2239
 2185SOL    HW3 8507   3.357   6.001   0.971  0.4177  2.3314  0.0714
 2185SOL    MW4 8508   3.407   5.986   1.042  0.5024 -0.1418 -0.4011
 2186SOL     OW 8509   5.752   5.862   1.109 -0.7254 -0.6307  0.3260
 2186SOL    HW2 8510   5.840   5.837   1.135 -0.3222  0.0055 -0.3793
 2186SOL    HW3 8511   5.750   5.851   1.014  0.1109  3.5705 -0.3891
 2186SOL    MW4 8512   5.763   5.858   1.100 -0.5619  0.0075  0.1386
 2187SOL     OW 8513   5.437   4.173   3.239 -0.5245  0.4077 -0.0112
 2187SOL    HW2 8514   5.463   4.205   3.152 -0.7556 -0.6654 -0.4883
 2187SOL    HW3 8515   5.507   4.113   3.264 -1.5631 -1.0473 -0.4791
 2187SOL    MW4 8516   5.450   4.169   3.231 -0.6920  0.0741 -0.1359
 2188SOL     OW 8517   6.305   0.746   5.796 -0.5985  0.0267  1.0028
 2188SOL    HW2 8518   6.307   0.744   5.700 -0.7973 -1.1032  1.0107
 2188SOL    HW3 8519   6.283   0.837   5.817 -3.8512 -0.3570 -0.1039
 2188SOL    MW4 8520   6.302   0.758   5.786 -1.0539 -0.1730  0.8579
 2189SOL     OW 8521   2.959   3.467   5.263  0.8870  0.0188 -1.3199
 2189SOL    HW2 8522   2.899   3.401   5.228 -2.5963  1.3085  1.5592
 2189SOL    HW3 8523   2.986   3.432   5.349  2.4223  0.5576 -1.5434
 2189SOL    MW4 8524   2.955   3.453   5.270  0.6299  0.2600 -0.9695
 2190SOL     OW 8525   2.241   1.609   3.409 -0.6793  0.1719 -0.2893
 2190SOL    HW2 8526   2.252   1.689   3.357  0.9141 -0.1260 -0.4615
 2190SOL    HW3 8527   2.284   1.541   3.358 -0.0410 -0.3458  0.8912
 2190SOL    MW4 8528   2.248   1.611   3.395 -0.3849  0.0643 -0.1562
 2191SOL     OW 8529   2.248   1.150   6.336  0.2214 -0.5419 -0.6623
 2191SOL    HW2 8530   2.214   1.067   6.369  0.9486 -0.5253  0.1540
 2191SOL    HW3 8531   2.182   1.178   6.272 -1.1067 -0.6903  0.5781
 2191SOL    MW4 8532   2.235   1.142   6.332  0.1421 -0.5593 -0.3909
 2192SOL     OW 8533   5.901   4.302   1.493  0.5568  0.1369 -0.4748
 2192SOL    HW2 8534   5.994   4.282   1.481  0.7664  0.4289  0.5273
 2192SOL    HW3 8535   5.872   4.337   1.409  1.4104  0.2243 -0.7362
 2192SOL    MW4 8536   5.909   4.304   1.480  0.6971  0.1870 -0.3771
 2193SOL     OW 8537   0.814   4.593   4.186  0.4364  0.0612  0.2091
 2193SOL    HW2 8538   0.808   4.497   4.184 -1.1440  0.0611 -3.1862
 2193SOL    HW3 8539   0.900   4.612   4.148  1.2027  0.0322  1.8761
 2193SOL    MW4 8540   0.825   4.583   4.181  0.3290  0.0574 -0.0189
 2194SOL     OW 8541   0.643   0.117   0.942 -0.3762  0.1782 -0.5412
 2194SOL    HW2 8542   0.657   0.146   1.032  0.2975  1.1953 -0.9659
 2194SOL    HW3 8543   0.720   0.065   0.921 -0.4949  0.0093 -0.5668
 2194SOL    MW4 8544   0.655   0.114   0.951 -0.3030  0.2902 -0.6006
 2195SOL     OW 8545   3.647   5.608   4.459 -0.8384  0.3033 -0.4768
 2195SOL    HW2 8546   3.656   5.534   4.398 -1.5469 -1.5483  1.5499
 2195SOL    HW3 8547   3.553   5.618   4.471 -0.7171  0.9423  0.0049
 2195SOL    MW4 8548   3.636   5.600   4.452 -0.9159  0.1433 -0.1458
 2196SOL     OW 8549   6.057   1.687   5.277  0.0023  0.0534 -0.1512
 2196SOL    HW2 8550   6.057   1.782   5.282  0.9789  0.0842 -0.5835
 2196SOL    HW3 8551   6.149   1.662   5.286 -0.2566 -0.8589  0.0952
 2196SOL    MW4 8552   6.069   1.696   5.279  0.0970 -0.0629 -0.1757
 2197SOL     OW 8553   0.307   3.337   0.888 -0.0020 -0.0232 -0.4318
 2197SOL    HW2 8554   0.362   3.280   0.833  0.6360 -0.2231  0.3827
 2197SOL    HW3 8555   0.249   3.276   0.934 -1.2237  0.2199 -1.5990
 2197SOL    MW4 8556   0.307   3.321   0.887 -0.0790 -0.0175 -0.4783
 2198SOL     OW 8557   4.992   6.178   5.697  0.3331  0.4261 -0.4194
 2198SOL    HW2 8558   4.977   6.262   5.741 -0.4945 -0.5827  1.3159
 2198SOL    HW3 8559   4.919   6.169   5.636  1.0875  1.4918 -1.5361
 2198SOL    MW4 8560   4.980   6.188   5.695  0.3235  0.4336 -0.3378
 2199SOL     OW 8561   4.783   0.153   3.026  0.0775 -0.0469  0.3609
 2199SOL    HW2 8562   4.840   0.179   3.098  0.0423  2.3982 -0.3850
 2199SOL    HW3 8563   4.830   0.180   2.947 -1.2830  0.3176 -0.3618
 2199SOL    MW4 8564   4.797   0.160   3.025 -0.1066  0.3238  0.1671
 2200SOL     OW 8565   0.022   4.941   0.122  0.0507 -0.3165 -0.4262
 2200SOL    HW2 8566   0.081   4.928   0.048  1.7129  0.2852  0.7210
 2200SOL    HW3 8567   0.078   4.929   0.199 -0.5997  3.1029  0.7273
 2200SOL    MW4 8568   0.037   4.938   0.123  0.1842  0.2140 -0.1226
 2201SOL     OW 8569   6.422   4.856   4.664 -0.0489  0.2975  0.1005
 2201SOL    HW2 8570   6.431   4.940   4.619  0.1670 -0.6652 -1.7936
 2201SOL    HW3 8571   6.351   4.869   4.727 -0.5028  1.6984 -0.6572
 2201SOL    MW4 8572   6.414   4.869   4.666 -0.0803  0.3553 -0.2494
 2202SOL     OW 8573   1.027   4.294   5.419 -0.5921  0.4891 -0.3872
 2202SOL    HW2 8574   1.020   4.352   5.495  0.5945 -0.0600  0.1638
 2202SOL    HW3 8575   1.044   4.207   5.457  1.1636  0.4042 -1.3006
 2202SOL    MW4 8576   1.028   4.290   5.434 -0.2039  0.4054 -0.4350
 2203SOL     OW 8577   2.310   3.807   5.685  0.3840 -0.4058 -0.0137
 2203SOL    HW2 8578   2.344   3.725   5.721 -0.2793 -0.3829  0.7002
 2203SOL    HW3 8579   2.367   3.874   5.723 -0.0792 -0.4124  0.7084
 2203SOL    MW4 8580   2.322   3.805   5.695  0.2353 -0.4036  0.1758
 2204SOL     OW 8581   1.118   3.024   4.608  0.6037 -0.0060  0.0795
 2204SOL    HW2 8582   1.195   3.036   4.554  0.4065  1.2782  0.0612
 2204SOL    HW3 8583   1.054   2.981   4.551  1.4242 -1.4889  0.2258
 2204SOL    MW4 8584   1.120   3.020   4.594  0.6859 -0.0322  0.0964
 2205SOL     OW 8585   2.093   3.947   1.527  0.0290  0.4500  0.2781
 2205SOL    HW2 8586   2.189   3.947   1.529  0.1933 -3.2062  2.1255
 2205SOL    HW3 8587   2.070   3.911   1.442  0.5351 -1.4820  0.8958
 2205SOL    MW4 8588   2.103   3.942   1.516  0.1174 -0.2873  0.6033
 2206SOL     OW 8589   1.334   1.323   4.436 -0.2399  0.3967  0.5849
 2206SOL    HW2 8590   1.322   1.256   4.369 -0.3131 -2.0621  2.8777
 2206SOL    HW3 8591   1.419   1.362   4.416  0.0271 -0.7066 -0.5645
 2206SOL    MW4 8592   1.344   1.319   4.425 -0.2143 -0.0732  0.7358
 2207SOL     OW 8593   2.443   4.298   3.864 -0.2920  0.0982  0.1149
 2207SOL    HW2 8594   2.447   4.390   3.838 -0.5851  0.2391  0.5498
 2207SOL    HW3 8595   2.494   4.294   3.945  1.5274 -0.5422 -1.0105
 2207SOL    MW4 8596   2.451   4.310   3.871 -0.0906  0.0323  0.0238
 2208SOL     OW 8597   3.756   1.934   2.159  0.0889 -0.4188 -0.3039
 2208SOL    HW2 8598   3.825   1.884   2.203 -0.2417 -0.0176  0.6964
 2208SOL    HW3 8599   3.681   1.929   2.219 -0.0580  0.9776 -0.3503
 2208SOL    MW4 8600   3.755   1.927   2.172  0.0259 -0.1816 -0.1781
 2209SOL     OW 8601   5.223   1.346   0.958  0.0930  0.0629  0.6476
 2209SOL    HW2 8602   5.216   1.398   0.878 -0.7787 -0.2672  0.5002
 2209SOL    HW3 8603   5.261   1.263   0.929  0.9125  0.3817  0.7833
 2209SOL    MW4 8604   5.227   1.342   0.943  0.0861  0.0614  0.6460
 2210SOL     OW 8605   5.649   6.431   1.899 -0.0969 -0.1404  0.3128
 2210SOL    HW2 8606   5.691   6.415   1.983 -2.1583  2.1633  1.8987
 2210SOL    HW3 8607   5.714   6.480   1.849  0.1946  0.8777  1.6332
 2210SOL    MW4 8608   5.663   6.436   1.903 -0.3305  0.2979  0.6962
 2211SOL     OW 8609   6.384   1.521   0.431  0.2607 -0.3751  0.2669
 2211SOL    HW2 8610   6.299   1.482   0.448 -0.2558  0.4752 -0.2633
 2211SOL    HW3 8611   6.390   1.525   0.335  0.1716  1.0333  0.2917
 2211SOL    MW4 8612   6.374   1.517   0.420  0.1808 -0.0771  0.2002
 2212SOL     OW 8613   0.209   1.582   3.991 -0.1267 -0.5860 -0.3171
 2212SOL    HW2 8614   0.297   1.621   3.991  0.0154 -0.9001 -0.2175
 2212SOL    HW3 8615   0.159   1.636   3.931  0.4661 -1.1367 -1.3231
 2212SOL    MW4 8616   0.214   1.594   3.983 -0.0297 -0.7001 -0.4367
 2213SOL     OW 8617   0.367   5.582   5.011  0.0652 -0.0085 -0.1754
 2213SOL    HW2 8618   0.350   5.542   5.096 -1.6467 -0.6295 -0.7526
 2213SOL    HW3 8619   0.297   5.648   5.001  1.2331  1.2471 -0.4100
 2213SOL    MW4 8620   0.355   5.586   5.021 -0.0066  0.0752 -0.2825
 2214SOL     OW 8621   1.294   4.695   1.720  0.1873  0.1992  0.5163
 2214SOL    HW2 8622   1.230   4.763   1.700  0.3432  0.7601  1.8139
 2214SOL    HW3 8623   1.297   4.692   1.816  2.2619  0.3500  0.5108
 2214SOL    MW4 8624   1.286   4.704   1.730  0.4816  0.2931  0.6868
 2215SOL     OW 8625   2.856   3.364   3.009 -0.5234  0.1126  1.1864
 2215SOL    HW2 8626   2.774   3.364   3.057 -0.3770  0.8904  1.4576
 2215SOL    HW3 8627   2.877   3.457   2.998 -0.3876 -0.0582 -0.1066
 2215SOL    MW4 8628   2.848   3.376   3.014 -0.4862  0.1927  1.0516
 2216SOL     OW 8629   5.625   1.312   2.552  0.1827  0.4774  0.4505
 2216SOL    HW2 8630   5.595   1.299   2.462 -0.8609 -1.0150  0.9752
 2216SOL    HW3 8631   5.709   1.266   2.557  0.0262  0.1800  0.3530
 2216SOL    MW4 8632   5.632   1.304   2.541  0.0244  0.2413  0.5069
 2217SOL     OW 8633   3.218   2.722   3.611  0.7100  0.0721 -0.0216
 2217SOL    HW2 8634   3.287   2.784   3.636  2.8120 -1.7726 -0.8291
 2217SOL    HW3 8635   3.263   2.659   3.554 -1.2025 -2.3813  1.0204
 2217SOL    MW4 8636   3.233   2.722   3.607  0.7350 -0.4950  0.0094
 2218SOL     OW 8637   5.422   1.551   2.226 -0.5175 -0.6585 -0.0193
 2218SOL    HW2 8638   5.428   1.610   2.301 -0.1315 -0.9904  0.2145
 2218SOL    HW3 8639   5.489   1.583   2.165 -0.1862 -0.9578  0.1835
 2218SOL    MW4 8640   5.432   1.563   2.228 -0.4229 -0.7418  0.0383
 2219SOL     OW 8641   6.376   5.260   1.693  0.1529 -0.2972 -0.2515
 2219SOL    HW2 8642   6.325   5.329   1.734  1.9512  1.4994 -0.9102
 2219SOL    HW3 8643   6.342   5.255   1.604  1.4177  1.3109 -0.8734
 2219SOL    MW4 8644   6.365   5.268   1.687  0.5571  0.1520 -0.4205
 2220SOL     OW 8645   6.142   2.761   0.783  0.2544 -0.4456 -0.0864
 2220SOL    HW2 8646   6.202   2.835   0.778 -0.2208 -0.0365  0.1155
 2220SOL    HW3 8647   6.128   2.747   0.876  2.0590 -2.2347 -0.0052
 2220SOL    MW4 8648   6.148   2.769   0.794  0.4298 -0.6277 -0.0490
 2221SOL     OW 8649   2.147   5.401   4.849  0.3423  0.2547  0.7136
 2221SOL    HW2 8650   2.085   5.473   4.857 -1.1425 -0.4659 -2.6941
 2221SOL    HW3 8651   2.102   5.336   4.795  3.5861 -0.8441 -0.9417
 2221SOL    MW4 8652   2.133   5.402   4.843  0.5744  0.0147  0.0456
 2222SOL     OW 8653   2.087   5.253   3.097  0.3273  0.5637 -0.0181
 2222SOL    HW2 8654   2.009   5.300   3.068  1.1997  1.4352 -1.0399
 2222SOL    HW3 8655   2.061   5.211   3.179 -0.9980  1.3922  0.0073
 2222SOL    MW4 8656   2.073   5.253   3.104  0.2676  0.7880 -0.1496
 2223SOL     OW 8657   3.302   2.218   3.310 -0.0392  0.2322  0.3227
 2223SOL    HW2 8658   3.349   2.217   3.226 -0.9328 -0.0099 -0.1896
 2223SOL    HW3 8659   3.350   2.280   3.364  0.5163  0.4370 -0.3931
 2223SOL    MW4 8660   3.314   2.226   3.306 -0.0838  0.2273  0.1607
 2224SOL     OW 8661   0.432   1.961   1.676  1.0504 -0.3289  0.4835
 2224SOL    HW2 8662   0.509   1.996   1.631  1.5741 -0.7581  1.0180
 2224SOL    HW3 8663   0.448   1.867   1.681  0.6420 -0.3829  0.8863
 2224SOL    MW4 8664   0.444   1.953   1.671  1.0656 -0.3927  0.6072
 2225SOL     OW 8665   0.067   4.194   5.300 -0.4593  0.0894 -0.3852
 2225SOL    HW2 8666   0.064   4.186   5.395  1.8420  1.2145 -0.1416
 2225SOL    HW3 8667   0.133   4.262   5.284 -2.0059  1.1282 -2.7596
 2225SOL    MW4 8668   0.076   4.202   5.310 -0.3597  0.3749 -0.6664
 2226SOL     OW 8669   0.052   2.768   6.389  0.1910  0.0823  0.2183
 2226SOL    HW2 8670  -0.001   2.706   6.340 -1.7190  1.8432 -0.0525
 2226SOL    HW3 8671   0.043   2.741   6.481 -0.5654 -0.0912  0.0956
 2226SOL    MW4 8672   0.044   2.757   6.395 -0.1608  0.2917  0.1664
 2227SOL     OW 8673   1.040   2.661   4.167  0.3613 -0.3963  0.5287
 2227SOL    HW2 8674   1.101   2.595   4.133  1.6205  1.1591 -0.3181
 2227SOL    HW3 8675   1.089   2.743   4.164 -2.1096  1.1378 -1.1804
 2227SOL    MW4 8676   1.055   2.663   4.162  0.2015  0.0113  0.1915
 2228SOL     OW 8677   6.413   0.507   2.905 -0.0252  0.2394 -0.1875
 2228SOL    HW2 8678   6.379   0.423   2.937  0.6959 -0.3232 -0.8338
 2228SOL    HW3 8679   6.337   0.565   2.903 -0.5537 -0.4248  0.2006
 2228SOL    MW4 8680   6.399   0.503   2.909  0.0002  0.0775 -0.2215
 2229SOL     OW 8681   4.849   3.791   4.050 -0.0481 -0.5580 -0.2510
 2229SOL    HW2 8682   4.918   3.728   4.032 -0.8370 -1.0180 -1.8205
 2229SOL    HW3 8683   4.792   3.787   3.973  0.4134  2.7708 -0.9273
 2229SOL    MW4 8684   4.851   3.782   4.037 -0.0913 -0.1795 -0.5473
 2230SOL     OW 8685   1.797   4.577   1.572  0.0607  0.1717  0.6686
 2230SOL    HW2 8686   1.720   4.633   1.569 -0.8021 -0.9859 -0.2121
 2230SOL    HW3 8687   1.762   4.490   1.594  0.9446 -0.5794 -0.7386
 2230SOL    MW4 8688   1.782   4.573   1.574  0.0635 -0.0801  0.3667
 2231SOL     OW 8689   2.743   3.605   5.390  0.1682  0.2113 -0.3242
 2231SOL    HW2 8690   2.821   3.565   5.353  0.0172 -0.8060  0.4168
 2231SOL    HW3 8691   2.722   3.677   5.331 -0.4582 -1.7454 -2.6419
 2231SOL    MW4 8692   2.750   3.609   5.377  0.0656 -0.1811 -0.5322
 2232SOL     OW 8693   4.129   2.013   2.642  0.1263  0.1570  0.0795
 2232SOL    HW2 8694   4.182   1.938   2.666  0.9879  0.5443 -0.5640
 2232SOL    HW3 8695   4.167   2.044   2.560 -1.5245  0.0382 -0.7647
 2232SOL    MW4 8696   4.141   2.008   2.634  0.0222  0.1925 -0.1168
 2233SOL     OW 8697   0.711   6.357   3.004  0.0023 -0.3445  0.4875
 2233SOL    HW2 8698   0.672   6.279   2.964  0.5819 -0.4711  0.1640
 2233SOL    HW3 8699   0.642   6.391   3.060 -0.2737 -1.0698  0.6048
 2233SOL    MW4 8700   0.697   6.351   3.006  0.0423 -0.4569  0.4603
 2234SOL     OW 8701   1.093   0.652   3.920 -0.3773 -0.3837  0.5780
 2234SOL    HW2 8702   1.123   0.686   3.836  0.2213 -0.2244  0.8495
 2234SOL    HW3 8703   1.151   0.579   3.939 -0.0122  0.0491  1.2021
 2234SOL    MW4 8704   1.104   0.647   3.912 -0.2502 -0.3056  0.6962
 2235SOL     OW 8705   5.861   2.291   0.939  0.0525  0.1131 -0.0813
 2235SOL    HW2 8706   5.845   2.221   0.875 -0.7719 -0.0471  0.2816
 2235SOL    HW3 8707   5.950   2.320   0.921  0.1978 -0.6300 -0.6268
 2235SOL    MW4 8708   5.870   2.285   0.928 -0.0371 -0.0061 -0.1054
 2236SOL     OW 8709   1.126   1.843   1.610  0.3285  0.1824 -0.1384
 2236SOL    HW2 8710   1.115   1.938   1.608 -0.5545  0.0784 -1.0355
 2236SOL    HW3 8711   1.132   1.817   1.518  0.1423 -0.6757  0.0787
 2236SOL    MW4 8712   1.125   1.852   1.598  0.1874  0.0555 -0.2281
 2237SOL     OW 8713   2.014   2.769   4.119  0.3360 -0.8433 -0.0889
 2237SOL    HW2 8714   1.969   2.770   4.035  0.0542 -0.1772  0.0604
 2237SOL    HW3 8715   1.974   2.841   4.168 -0.5814 -2.1804  1.1921
 2237SOL    MW4 8716   2.003   2.778   4.115  0.1778 -0.9319  0.0998
 2238SOL     OW 8717   2.089   6.265   3.103 -0.5947 -0.1469  0.5135
 2238SOL    HW2 8718   2.184   6.257   3.110 -0.4499  0.2054 -0.8508
 2238SOL    HW3 8719   2.058   6.249   3.192  0.6410 -1.5306  0.7326
 2238SOL    MW4 8720   2.098   6.262   3.116 -0.4125 -0.2830  0.3624
 2239SOL     OW 8721   4.684   2.216   2.863 -0.0749  0.1421  0.1993
 2239SOL    HW2 8722   4.655   2.197   2.774  1.0242 -0.0069 -0.1353
 2239SOL    HW3 8723   4.620   2.171   2.919 -0.4155 -0.2841 -0.5210
 2239SOL    MW4 8724   4.671   2.208   2.859  0.0252  0.0662  0.0601
 2240SOL     OW 8725   3.771   6.144   1.337 -0.2241  0.2954 -0.4138
 2240SOL    HW2 8726   3.800   6.076   1.398 -0.5038  0.2064 -0.3781
 2240SOL    HW3 8727   3.737   6.096   1.262 -0.3683  0.3986 -0.4143
 2240SOL    MW4 8728   3.771   6.129   1.335 -0.2800  0.2972 -0.4091
 2241SOL     OW 8729   5.708   3.989   4.710  0.3670 -0.7347 -0.2562
 2241SOL    HW2 8730   5.630   3.954   4.754 -1.2061  3.3030  0.6015
 2241SOL    HW3 8731   5.781   3.957   4.762 -0.9030 -2.1467  0.7611
 2241SOL    MW4 8732   5.707   3.980   4.723 -0.0081 -0.3883 -0.0088
 2242SOL     OW 8733   1.440   1.631   6.016  0.2529 -0.0535 -0.4949
 2242SOL    HW2 8734   1.412   1.717   5.985 -0.3154  0.3553  1.1016
 2242SOL    HW3 8735   1.463   1.644   6.108 -0.2589 -1.6955 -0.1047
 2242SOL    MW4 8736   1.439   1.644   6.024  0.1104 -0.2162 -0.2327
 2243SOL     OW 8737   5.140   2.834   5.398  0.2427  0.2492  0.1538
 2243SOL    HW2 8738   5.049   2.835   5.367  0.4180  0.2735 -0.3829
 2243SOL    HW3 8739   5.140   2.772   5.470 -0.1287 -0.0254 -0.0783
 2243SOL    MW4 8740   5.128   2.826   5.403  0.2168  0.2161  0.0524
 2244SOL     OW 8741   0.586   4.442   5.184  0.2542  0.0782 -0.4465
 2244SOL    HW2 8742   0.502   4.437   5.138 -0.1858  0.7852  0.2603
 2244SOL    HW3 8743   0.586   4.528   5.225  1.2416  0.0022 -0.2733
 2244SOL    MW4 8744   0.575   4.453   5.183  0.3264  0.1615 -0.3304
 2245SOL     OW 8745   2.481   4.843   2.854  0.1231  0.2562  0.6517
 2245SOL    HW2 8746   2.463   4.797   2.772  1.1468  0.0247  0.5443
 2245SOL    HW3 8747   2.433   4.794   2.920  0.2579 -0.2688  0.3641
 2245SOL    MW4 8748   2.472   4.830   2.852  0.2760  0.1564  0.5996
 2246SOL     OW 8749   6.107   3.901   5.736  0.0123  0.4160 -0.3220
 2246SOL    HW2 8750   6.028   3.946   5.706 -0.5959 -0.7469 -0.5196
 2246SOL    HW3 8751   6.126   3.940   5.821  0.7306  2.4951 -1.3699
 2246SOL    MW4 8752   6.099   3.912   5.743  0.0268  0.5369 -0.4863
 2247SOL     OW 8753   0.774   0.985   4.217  1.0368  0.0382 -0.2738
 2247SOL    HW2 8754   0.767   0.891   4.234  0.4453  0.3934  1.6221
 2247SOL    HW3 8755   0.745   0.994   4.126 -0.0738 -1.4675 -0.1222
 2247SOL    MW4 8756   0.770   0.974   4.207  0.8122 -0.1136 -0.0036
 2248SOL     OW 8757   0.948   5.655   3.180 -0.2822  0.4173  0.2770
 2248SOL    HW2 8758   0.964   5.588   3.113 -0.5351  0.8790 -0.2518
 2248SOL    HW3 8759   0.947   5.606   3.262 -0.4699 -0.2366 -0.1043
 2248SOL    MW4 8760   0.950   5.640   3.182 -0.3403  0.3919  0.1569
 2249SOL     OW 8761   1.215   2.674   5.659  0.1813 -0.7940 -0.0134
 2249SOL    HW2 8762   1.302   2.712   5.665 -0.2274  0.3014 -0.8082
 2249SOL    HW3 8763   1.169   2.728   5.595 -1.5686 -0.3757  1.4928
 2249SOL    MW4 8764   1.220   2.686   5.652 -0.1035 -0.5943  0.0805
 2250SOL     OW 8765   4.336   2.493   5.658 -0.1117 -0.3604  0.0942
 2250SOL    HW2 8766   4.333   2.560   5.590  2.6579  1.0359  1.1537
 2250SOL    HW3 8767   4.315   2.540   5.739  0.4435 -1.0783  0.6727
 2250SOL    MW4 8768   4.333   2.508   5.660  0.3270 -0.2709  0.3103
 2251SOL     OW 8769   4.358   5.531   1.281 -0.1562 -0.4928 -0.0833
 2251SOL    HW2 8770   4.385   5.622   1.286 -0.0112 -0.5200 -0.3633
 2251SOL    HW3 8771   4.413   5.493   1.213  0.2685 -0.9631  0.5123
 2251SOL    MW4 8772   4.369   5.538   1.273 -0.0811 -0.5585 -0.0416
 2252SOL     OW 8773   5.416   3.805   1.271  0.0065 -0.0145  0.0682
 2252SOL    HW2 8774   5.432   3.736   1.336  0.3958 -2.4109 -2.4106
 2252SOL    HW3 8775   5.400   3.758   1.189 -1.6822  2.8218 -1.3918
 2252SOL    MW4 8776   5.416   3.790   1.269 -0.1649  0.0436 -0.4515
 2253SOL     OW 8777   3.299   0.830   0.521 -0.5151  0.1497 -0.3998
 2253SOL    HW2 8778   3.248   0.831   0.440 -0.3787 -0.2422 -0.4899
 2253SOL    HW3 8779   3.235   0.846   0.591 -0.5472  1.0804 -0.6280
 2253SOL    MW4 8780   3.284   0.833   0.520 -0.5013  0.2208 -0.4418
 2254SOL     OW 8781   3.041   4.263   3.311 -0.0339 -0.4987 -0.1195
 2254SOL    HW2 8782   3.089   4.326   3.365 -0.4173  0.5322 -0.9644
 2254SOL    HW3 8783   2.956   4.255   3.353  0.1136 -0.6679  0.1478
 2254SOL    MW4 8784   3.036   4.270   3.324 -0.0650 -0.3850 -0.1957
 2255SOL     OW 8785   2.186   6.428   3.823  0.7200  0.3601 -0.3981
 2255SOL    HW2 8786   2.122   6.449   3.755  1.9446 -1.3410 -2.1942
 2255SOL    HW3 8787   2.152   6.349   3.865  0.2432  1.0935  0.6243
 2255SOL    MW4 8788   2.173   6.421   3.820  0.8187  0.2324 -0.5002
 2256SOL     OW 8789   2.603   3.868   4.596  0.0112  0.1348 -0.0556
 2256SOL    HW2 8790   2.565   3.884   4.683 -0.3572 -1.0506  0.0146
 2256SOL    HW3 8791   2.549   3.798   4.559 -0.0578  0.8621 -1.3995
 2256SOL    MW4 8792   2.591   3.861   4.603 -0.0465  0.0744 -0.2236
 2257SOL     OW 8793   0.499   1.024   1.692 -0.3745 -0.2630 -0.3704
 2257SOL    HW2 8794   0.547   0.962   1.638  0.4868  0.5868 -0.6122
 2257SOL    HW3 8795   0.561   1.095   1.708 -1.3029  0.4955 -0.0304
 2257SOL    MW4 8796   0.514   1.025   1.687 -0.3834 -0.0508 -0.3575
 2258SOL     OW 8797   2.780   2.352   6.005 -0.1976 -0.1317  0.0913
 2258SOL    HW2 8798   2.875   2.356   5.993 -0.1969 -0.4547 -0.0301
 2258SOL    HW3 8799   2.767   2.376   6.097 -0.0315  0.2840  0.0079
 2258SOL    MW4 8800   2.791   2.356   6.016 -0.1756 -0.1194  0.0643
 2259SOL     OW 8801   6.410   3.551   1.899  0.1779  0.1208 -0.1855
 2259SOL    HW2 8802   6.347   3.624   1.905  1.2277  0.9765  0.7901
 2259SOL    HW3 8803   6.355   3.474   1.885 -0.9486  1.1276 -1.6736
 2259SOL    MW4 8804   6.394   3.551   1.898  0.1677  0.3665 -0.2531
 2260SOL     OW 8805   4.786   0.840   4.972  0.2933 -0.2131 -0.0644
 2260SOL    HW2 8806   4.712   0.780   4.974  0.2719 -0.2979 -1.9723
 2260SOL    HW3 8807   4.853   0.795   4.922  1.0461  0.5275  0.2415
 2260SOL    MW4 8808   4.785   0.826   4.966  0.3898 -0.1266 -0.2758
 2261SOL     OW 8809   0.149   6.105   5.003  0.2038  0.2673  0.1460
 2261SOL    HW2 8810   0.087   6.093   4.931  0.7458  1.9373 -0.6586
 2261SOL    HW3 8811   0.098   6.090   5.082 -0.9642  0.5742 -0.5346
 2261SOL    MW4 8812   0.134   6.101   5.004  0.1212  0.5281 -0.0499
 2262SOL     OW 8813   6.215   5.457   3.394  0.1094 -0.0167 -0.2728
 2262SOL    HW2 8814   6.143   5.519   3.411 -0.0146 -0.6276  1.7172
 2262SOL    HW3 8815   6.259   5.492   3.317 -0.7483  1.8319  0.0136
 2262SOL    MW4 8816   6.211   5.470   3.386 -0.0201  0.1466  0.0275
 2263SOL     OW 8817   2.747   6.417   5.154 -0.2798 -0.5185  0.2492
 2263SOL    HW2 8818   2.817   6.369   5.199 -1.9212 -2.0670  1.2483
 2263SOL    HW3 8819   2.770   6.409   5.061  1.4205 -0.0459  0.5802
 2263SOL    MW4 8820   2.759   6.410   5.148 -0.2721 -0.6604  0.4247
 2264SOL     OW 8821   0.589   4.051   4.631  0.4846  0.2065 -0.4639
 2264SOL    HW2 8822   0.627   4.088   4.711 -0.1465 -0.1610  0.0132
 2264SOL    HW3 8823   0.629   3.964   4.623  1.5791  0.7637 -1.3056
 2264SOL    MW4 8824   0.600   4.044   4.641  0.5457  0.2315 -0.5120
 2265SOL     OW 8825   1.447   0.435   2.327 -0.5044  0.1871 -0.2733
 2265SOL    HW2 8826   1.462   0.410   2.418  0.0757  0.6461 -0.2407
 2265SOL    HW3 8827   1.504   0.376   2.277 -2.1362 -1.2832 -0.4748
 2265SOL    MW4 8828   1.457   0.424   2.333 -0.6432  0.0537 -0.2956
 2266SOL     OW 8829   2.896   6.403   4.630 -0.4360  0.0774 -0.0037
 2266SOL    HW2 8830   2.805   6.373   4.635 -0.6831  0.7920 -0.0871
 2266SOL    HW3 8831   2.916   6.433   4.718  1.0546 -3.7222  1.1476
 2266SOL    MW4 8832   2.887   6.403   4.642 -0.2719 -0.3296  0.1372
 2267SOL     OW 8833   5.285   2.533   6.309 -0.1035 -0.1876 -0.8497
 2267SOL    HW2 8834   5.361   2.568   6.264 -0.0364 -0.4124 -0.9127
 2267SOL    HW3 8835   5.237   2.611   6.339  1.7157  0.0109  1.9109
 2267SOL    MW4 8836   5.288   2.548   6.307  0.1454 -0.1911 -0.4938
 2268SOL     OW 8837   2.030   5.056   3.957 -0.0687 -0.5121  0.0041
 2268SOL    HW2 8838   2.069   4.978   3.917 -0.4523 -0.8444  0.2657
 2268SOL    HW3 8839   2.092   5.081   4.026  0.2886 -0.3039 -0.3922
 2268SOL    MW4 8840   2.043   5.049   3.961 -0.0722 -0.5284 -0.0137
 2269SOL     OW 8841   1.777   3.516   4.990 -0.6990  0.6743  0.4404
 2269SOL    HW2 8842   1.704   3.468   4.953 -1.0202  0.7520  0.9661
 2269SOL    HW3 8843   1.782   3.487   5.082  1.0874 -0.7135 -0.0408
 2269SOL    MW4 8844   1.768   3.506   4.998 -0.5057  0.5014  0.4463
 2270SOL     OW 8845   4.365   4.865   5.987  0.0325 -0.2952 -0.8232
 2270SOL    HW2 8846   4.325   4.949   5.964  0.3747  0.6696  1.8293
 2270SOL    HW3 8847   4.310   4.830   6.057  1.0576 -1.3112 -0.4881
 2270SOL    MW4 8848   4.352   4.871   5.993  0.2129 -0.3019 -0.4290
 2271SOL     OW 8849   6.177   3.512   6.297 -0.2456  0.2697 -0.3265
 2271SOL    HW2 8850   6.240   3.441   6.311  0.3591  0.7072 -0.7791
 2271SOL    HW3 8851   6.091   3.470   6.307  0.1099 -0.4260 -0.1295
 2271SOL    MW4 8852   6.174   3.497   6.300 -0.1189  0.2356 -0.3602
 2272SOL     OW 8853   6.139   6.394   3.283 -0.7002  0.1526  0.0986
 2272SOL    HW2 8854   6.224   6.403   3.240  0.0952 -0.7591  1.4386
 2272SOL    HW3 8855   6.075   6.402   3.212  0.5727 -1.6702 -1.3181
 2272SOL    MW4 8856   6.142   6.397   3.268 -0.4273 -0.2082  0.0885
 2273SOL     OW 8857   6.170   3.624   3.955  0.5127  0.4793  0.3690
 2273SOL    HW2 8858   6.175   3.596   3.863 -1.0665  0.6913  0.1906
 2273SOL    HW3 8859   6.078   3.614   3.978  0.9912 -0.1817  2.1495
 2273SOL    MW4 8860   6.159   3.619   3.946  0.3675  0.4201  0.5804
 2274SOL     OW 8861   4.827   5.339   2.856 -0.2732  0.4055  0.1668
 2274SOL    HW2 8862   4.857   5.344   2.947  0.1358 -0.2712  0.0795
 2274SOL    HW3 8863   4.771   5.262   2.854  1.9134 -1.2978 -0.7221
 2274SOL    MW4 8864   4.824   5.330   2.868  0.0693  0.0915  0.0380
 2275SOL     OW 8865   6.265   1.768   2.867  0.1122 -0.1301  0.8929
 2275SOL    HW2 8866   6.272   1.857   2.901  0.1470 -0.3815  1.5642
 2275SOL    HW3 8867   6.282   1.712   2.943  1.5855 -0.7140  0.1718
 2275SOL    MW4 8868   6.268   1.772   2.882  0.3112 -0.2403  0.8864
 2276SOL     OW 8869   1.489   6.438   0.918 -0.3795  0.0436 -0.0586
 2276SOL    HW2 8870   1.583   6.420   0.918 -0.5931 -1.1917 -0.7969
 2276SOL    HW3 8871   1.482   6.528   0.949  1.2062  0.9632 -2.1100
 2276SOL    MW4 8872   1.500   6.447   0.922 -0.1984  0.0019 -0.4266
 2277SOL     OW 8873   2.509   3.572   6.241 -0.7746  0.2982 -0.2522
 2277SOL    HW2 8874   2.546   3.531   6.318 -2.0675  0.9468  0.7604
 2277SOL    HW3 8875   2.580   3.572   6.177  0.3140 -0.2861  0.9108
 2277SOL    MW4 8876   2.523   3.567   6.242 -0.8016  0.3067  0.0348
 2278SOL     OW 8877   1.846   5.837   3.171 -0.5014 -0.3738  0.4348
 2278SOL    HW2 8878   1.816   5.751   3.200  2.8202 -0.7514  3.4936
 2278SOL    HW3 8879   1.860   5.828   3.077 -2.6761 -2.2850  0.2179
 2278SOL    MW4 8880   1.844   5.825   3.163 -0.3501 -0.6758  0.8097
 2279SOL     OW 8881   0.260   4.574   5.460 -0.1308  0.6241  0.3445
 2279SOL    HW2 8882   0.236   4.643   5.523  0.4335  0.6920  0.4955
 2279SOL    HW3 8883   0.338   4.534   5.498  1.9025  2.4481 -1.5958
 2279SOL    MW4 8884   0.267   4.578   5.474  0.2119  0.8738  0.1084
 2280SOL     OW 8885   1.052   0.791   0.046  0.0968  0.5488  0.1317
 2280SOL    HW2 8886   1.147   0.785   0.055  0.5214 -0.4988 -3.5803
 2280SOL    HW3 8887   1.039   0.854  -0.024 -1.9148 -0.0220 -0.0522
 2280SOL    MW4 8888   1.063   0.798   0.038 -0.1126  0.3353 -0.3823
 2281SOL     OW 8889   1.641   2.973   4.414 -0.0816  0.0600 -0.1745
 2281SOL    HW2 8890   1.580   2.959   4.486  1.1998 -0.1284  0.9147
 2281SOL    HW3 8891   1.594   3.031   4.353 -0.5656  1.6963  1.6574
 2281SOL    MW4 8892   1.627   2.979   4.415  0.0236  0.2511  0.2109
 2282SOL     OW 8893   5.227   1.791   0.475 -0.0917 -0.6161  0.4726
 2282SOL    HW2 8894   5.290   1.723   0.448  0.8346 -0.6825  2.6178
 2282SOL    HW3 8895   5.147   1.770   0.427  1.5530 -0.3274 -2.6478
 2282SOL    MW4 8896   5.225   1.779   0.465  0.2475 -0.5868  0.3439
 2283SOL     OW 8897   6.193   1.734   5.881  0.3993 -0.2008  0.3482
 2283SOL    HW2 8898   6.182   1.783   5.800  1.4691 -0.3606  0.0891
 2283SOL    HW3 8899   6.211   1.644   5.852  0.4030 -0.3386  0.7692
 2283SOL    MW4 8900   6.194   1.729   5.866  0.5409 -0.2401  0.3695
 2284SOL     OW 8901   0.069   4.531   3.846  0.0964 -0.8449 -0.2620
 2284SOL    HW2 8902   0.135   4.589   3.808  1.3618 -1.4196  0.9506
 2284SOL    HW3 8903   0.007   4.590   3.889 -0.1542 -0.3028 -1.3255
 2284SOL    MW4 8904   0.070   4.547   3.847  0.2303 -0.8492 -0.2423
 2285SOL     OW 8905   0.741   3.703   4.083  0.0775 -0.4278 -0.1526
 2285SOL    HW2 8906   0.695   3.698   3.999  0.4137 -0.7169 -0.3269
 2285SOL    HW3 8907   0.811   3.637   4.075 -1.2015 -2.0241  1.1652
 2285SOL    MW4 8908   0.744   3.694   4.070 -0.0469 -0.6765 -0.0017
 2286SOL     OW 8909   2.226   1.121   2.019  0.4327 -0.6129  0.0447
 2286SOL    HW2 8910   2.160   1.126   2.088  1.0115 -0.4963  0.6005
 2286SOL    HW3 8911   2.229   1.210   1.984  0.5653 -0.5214  0.2820
 2286SOL    MW4 8912   2.218   1.134   2.024  0.5265 -0.5854  0.1493
 2287SOL     OW 8913   0.304   1.823   0.636  0.0898  0.2104 -0.1687
 2287SOL    HW2 8914   0.291   1.884   0.709 -2.9795  0.1993 -0.5504
 2287SOL    HW3 8915   0.241   1.753   0.652  0.3563 -0.5242 -2.1007
 2287SOL    MW4 8916   0.294   1.822   0.648 -0.2800  0.1120 -0.4740
 2288SOL     OW 8917   2.611   5.191   3.371  0.3635  0.5604 -0.0974
 2288SOL    HW2 8918   2.517   5.185   3.388  0.4915  0.3697  0.5673
 2288SOL    HW3 8919   2.625   5.138   3.292  0.1873 -0.9595  0.8446
 2288SOL    MW4 8920   2.601   5.183   3.363  0.3572  0.3347  0.1146
 2289SOL     OW 8921   2.007   2.399   0.631  0.1950  0.4463 -0.0510
 2289SOL    HW2 8922   2.082   2.371   0.578 -1.9365  1.2468 -3.8471
 2289SOL    HW3 8923   1.956   2.320   0.645 -0.1422  0.5151 -0.8444
 2289SOL    MW4 8924   2.011   2.385   0.626 -0.1307  0.5610 -0.6566
 2290SOL     OW 8925   1.706   6.308   6.415 -0.5000  0.1048  0.6368
 2290SOL    HW2 8926   1.781   6.301   6.356 -0.4922 -2.1202  0.8174
 2290SOL    HW3 8927   1.739   6.359   6.490  0.0549  1.2926 -0.3807
 2290SOL    MW4 8928   1.721   6.314   6.417 -0.4258 -0.0320  0.5264
 2291SOL     OW 8929   4.720   5.844   4.547 -0.2712 -0.1591  0.0682
 2291SOL    HW2 8930   4.657   5.797   4.492  0.1991  0.1400 -0.7506
 2291SOL    HW3 8931   4.723   5.932   4.509 -0.0997  0.1260  0.7235
 2291SOL    MW4 8932   4.712   5.849   4.535 -0.1865 -0.0820  0.0466
 2292SOL     OW 8933   3.743   6.431   4.707 -0.5633 -0.5585 -0.2532
 2292SOL    HW2 8934   3.777   6.519   4.690 -1.5724 -0.3961 -1.6787
 2292SOL    HW3 8935   3.711   6.434   4.797 -0.7106  0.5970 -0.3308
 2292SOL    MW4 8936   3.743   6.443   4.717 -0.7159 -0.3846 -0.4515
 2293SOL     OW 8937   5.817   5.819   3.655  0.2155  0.6252 -0.1612
 2293SOL    HW2 8938   5.742   5.855   3.703 -1.1101 -2.7151  0.5654
 2293SOL    HW3 8939   5.890   5.827   3.716 -0.0089  2.0668 -0.0598
 2293SOL    MW4 8940   5.817   5.825   3.669  0.0110  0.3747 -0.0520
 2294SOL     OW 8941   0.518   2.871   5.243  0.1631 -0.6989 -0.3265
 2294SOL    HW2 8942   0.581   2.914   5.186 -0.5107 -1.1913 -1.4630
 2294SOL    HW3 8943   0.463   2.942   5.276  0.6511 -0.3953 -0.1599
 2294SOL    MW4 8944   0.519   2.886   5.240  0.1386 -0.7238 -0.4545
 2295SOL     OW 8945   1.190   1.414   5.016 -0.2869  0.4742  0.5383
 2295SOL    HW2 8946   1.145   1.331   5.032 -0.6022  0.8374  1.6127
 2295SOL    HW3 8947   1.128   1.464   4.962 -0.0357 -0.0343 -0.2300
 2295SOL    MW4 8948   1.176   1.410   5.011 -0.2953  0.4551  0.5787
 2296SOL     OW 8949   2.021   3.139   3.868 -0.4896  0.1386  0.1138
 2296SOL    HW2 8950   2.095   3.192   3.840 -1.3394  0.5777 -1.4388
 2296SOL    HW3 8951   2.035   3.125   3.962  1.0125  1.0428  0.0524
 2296SOL    MW4 8952   2.033   3.144   3.876 -0.4035  0.3158 -0.0992
 2297SOL     OW 8953   6.309   0.971   2.810 -0.5480 -0.0676 -0.2641
 2297SOL    HW2 8954   6.379   0.951   2.872 -0.8871  0.0972  0.1691
 2297SOL    HW3 8955   6.320   0.904   2.741  1.1099  0.9931 -1.1084
 2297SOL    MW4 8956   6.320   0.959   2.809 -0.3740  0.0941 -0.3183
 2298SOL     OW 8957   3.498   5.786   3.151  0.0655  0.5815  0.1735
 2298SOL    HW2 8958   3.443   5.852   3.194  0.0763  1.1937 -0.7327
 2298SOL    HW3 8959   3.525   5.728   3.222 -1.7623  0.2544  0.6529
 2298SOL    MW4 8960   3.494   5.787   3.166 -0.1742  0.6191  0.1172
 2299SOL     OW 8961   4.753   1.768   2.920 -0.9924 -0.6541 -0.2188
 2299SOL    HW2 8962   4.683   1.826   2.950  0.6672  1.2555  0.1726
 2299SOL    HW3 8963   4.821   1.827   2.887  0.5152 -2.4101 -0.4212
 2299SOL    MW4 8964   4.753   1.783   2.920 -0.5745 -0.6338 -0.1938
 2300SOL     OW 8965   5.131   1.841   5.165  0.2489 -0.1636  0.1128
 2300SOL    HW2 8966   5.078   1.765   5.142  0.2545  0.1776 -1.1019
 2300SOL    HW3 8967   5.123   1.849   5.260 -0.5574 -1.0757  0.1290
 2300SOL    MW4 8968   5.123   1.832   5.174  0.1432 -0.2389 -0.0454
 2301SOL     OW 8969   1.184   1.106   6.057 -0.4980  0.1996  0.1705
 2301SOL    HW2 8970   1.110   1.135   6.003  0.6867  0.0109 -1.6102
 2301SOL    HW3 8971   1.220   1.031   6.010  1.9477  1.4044  0.0171
 2301SOL    MW4 8972   1.179   1.100   6.044 -0.0190  0.3336 -0.0847
 2302SOL     OW 8973   1.775   0.280   2.753  0.1616 -0.0707  0.1278
 2302SOL    HW2 8974   1.755   0.334   2.676  1.6601  2.0390  1.1195
 2302SOL    HW3 8975   1.726   0.320   2.824 -0.8588 -1.7375  0.3995
 2302SOL    MW4 8976   1.766   0.292   2.752  0.2247 -0.0123  0.2945
 2303SOL     OW 8977   1.526   6.258   2.040 -0.1353 -0.6646 -0.0954
 2303SOL    HW2 8978   1.481   6.339   2.066 -0.6113 -0.8648 -0.2732
 2303SOL    HW3 8979   1.572   6.281   1.959 -0.4226 -0.6215 -0.2483
 2303SOL    MW4 8980   1.526   6.272   2.033 -0.2360 -0.6854 -0.1390
 2304SOL     OW 8981   5.074   5.059   3.004 -0.5154 -0.4425 -0.2514
 2304SOL    HW2 8982   5.024   5.027   2.929 -2.2049  0.7159  0.3055
 2304SOL    HW3 8983   5.128   5.129   2.968 -1.1079 -0.0814 -0.4660
 2304SOL    MW4 8984   5.074   5.064   2.990 -0.8165 -0.2421 -0.2063
 2305SOL     OW 8985   2.169   2.151   2.727  0.6198 -0.2157  0.0612
 2305SOL    HW2 8986   2.208   2.204   2.658  0.3777 -0.2892 -0.1343
 2305SOL    HW3 8987   2.191   2.061   2.704  0.2013 -0.2695 -0.1376
 2305SOL    MW4 8988   2.177   2.146   2.715  0.5326 -0.2325  0.0092
 2306SOL     OW 8989   5.863   1.745   3.344 -0.5537 -0.1176 -0.5524
 2306SOL    HW2 8990   5.787   1.693   3.321 -0.6027 -0.2204 -0.1636
 2306SOL    HW3 8991   5.882   1.722   3.435  1.6306 -2.2175 -1.4120
 2306SOL    MW4 8992   5.856   1.735   3.353 -0.2720 -0.4082 -0.6145
 2307SOL     OW 8993   1.880   0.590   2.665  0.2413 -0.2726 -0.5337
 2307SOL    HW2 8994   1.960   0.582   2.613  1.5694 -0.9745  1.4967
 2307SOL    HW3 8995   1.899   0.542   2.746 -1.3316  1.6377  1.0697
 2307SOL    MW4 8996   1.893   0.582   2.669  0.2090 -0.1132 -0.0543
 2308SOL     OW 8997   2.213   3.280   6.351  0.7956 -0.0775  0.4516
 2308SOL    HW2 8998   2.123   3.258   6.373  0.3670 -1.7674 -2.4394
 2308SOL    HW3 8999   2.206   3.360   6.299  1.0553  0.2437  0.9080
 2308SOL    MW4 9000   2.201   3.288   6.347  0.7733 -0.2581  0.1304
 2309SOL     OW 9001   3.195   2.202   1.735 -0.0050  0.0784 -0.3766
 2309SOL    HW2 9002   3.129   2.218   1.669 -1.2431 -2.2488  0.1853
 2309SOL    HW3 9003   3.228   2.114   1.716 -2.0425 -1.7122  3.2700
 2309SOL    MW4 9004   3.191   2.193   1.724 -0.4371 -0.4649  0.1787
 2310SOL     OW 9005   3.364   4.637   1.162  0.6322  0.4403  0.0892
 2310SOL    HW2 9006   3.371   4.544   1.141  2.1270  0.2632  1.2392
 2310SOL    HW3 9007   3.287   4.667   1.113  0.3957 -1.2862 -0.6532
 2310SOL    MW4 9008   3.355   4.629   1.153  0.7982  0.1891  0.1430
 2311SOL     OW 9009   4.662   5.753   6.396  0.1233  0.0029 -0.2371
 2311SOL    HW2 9010   4.750   5.730   6.426  0.2334 -1.1829 -1.3774
 2311SOL    HW3 9011   4.640   5.833   6.444  1.9416  0.5013 -0.1816
 2311SOL    MW4 9012   4.671   5.760   6.407  0.3777 -0.0878 -0.3802
 2312SOL     OW 9013   3.152   5.281   5.195 -0.0377  0.5344 -0.5328
 2312SOL    HW2 9014   3.192   5.356   5.238  3.2403 -1.3670  0.0733
 2312SOL    HW3 9015   3.161   5.209   5.257  1.8243 -1.5327 -2.9297
 2312SOL    MW4 9016   3.159   5.282   5.209  0.6404  0.0108 -0.7691
 2313SOL     OW 9017   5.458   4.489   4.365  0.1741 -0.5061 -0.1263
 2313SOL    HW2 9018   5.397   4.489   4.439  1.3496 -0.6352  0.8712
 2313SOL    HW3 9019   5.545   4.481   4.405  1.0942  2.1661 -1.3127
 2313SOL    MW4 9020   5.462   4.488   4.380  0.4506 -0.1706 -0.1512
 2314SOL     OW 9021   0.282   3.290   0.524  0.7471 -0.5853  0.4369
 2314SOL    HW2 9022   0.327   3.280   0.441  0.8577 -0.2370  0.4510
 2314SOL    HW3 9023   0.353   3.296   0.589  0.6640 -0.7848  0.5468
 2314SOL    MW4 9024   0.297   3.290   0.522  0.7507 -0.5656  0.4533
 2315SOL     OW 9025   1.023   5.635   1.850  0.3972 -0.8141  0.6351
 2315SOL    HW2 9026   1.058   5.670   1.932  1.3306 -1.0572  0.3525
 2315SOL    HW3 9027   1.090   5.574   1.820  1.4358  1.3459 -1.7495
 2315SOL    MW4 9028   1.036   5.631   1.857  0.6574 -0.5612  0.2832
 2316SOL     OW 9029   3.262   2.066   4.625 -0.2677 -0.0032  0.3691
 2316SOL    HW2 9030   3.241   2.156   4.599  1.4298  0.2714 -0.1928
 2316SOL    HW3 9031   3.182   2.017   4.607 -0.4185  0.9108 -1.8272
 2316SOL    MW4 9032   3.249   2.071   4.619 -0.0637  0.1536  0.0052
 2317SOL     OW 9033   2.627   6.279   4.916  0.8287 -0.7237  0.2813
 2317SOL    HW2 9034   2.545   6.320   4.940  0.9097 -0.1589 -0.3591
 2317SOL    HW3 9035   2.609   6.185   4.917 -0.1306 -0.5704 -0.8929
 2317SOL    MW4 9036   2.614   6.272   4.919  0.7128 -0.6289  0.0419
 2318SOL     OW 9037   2.792   3.431   3.410 -0.1113 -0.2425 -0.2971
 2318SOL    HW2 9038   2.885   3.449   3.392  0.0641 -1.1206 -0.3215
 2318SOL    HW3 9039   2.794   3.368   3.482 -0.5930 -1.9615 -1.7098
 2318SOL    MW4 9040   2.805   3.425   3.417 -0.1517 -0.5852 -0.4867
 2319SOL     OW 9041   3.360   0.731   4.999 -0.4169  0.1810 -0.1427
 2319SOL    HW2 9042   3.443   0.698   5.033 -0.6230  0.7552  0.9655
 2319SOL    HW3 9043   3.304   0.654   4.993 -0.1002 -0.0610  0.0046
 2319SOL    MW4 9044   3.363   0.717   5.003 -0.4023  0.2248  0.0229
 2320SOL     OW 9045   2.204   2.750   3.625 -0.1319  0.4405  0.0028
 2320SOL    HW2 9046   2.298   2.754   3.640  0.0544  0.1431 -0.9799
 2320SOL    HW3 9047   2.179   2.840   3.605 -0.5753  1.0637  2.8799
 2320SOL    MW4 9048   2.213   2.762   3.624 -0.1658  0.4835  0.2528
 2321SOL     OW 9049   2.197   5.158   1.311  0.1179  0.1336  0.0072
 2321SOL    HW2 9050   2.198   5.111   1.228  2.2130  0.3333 -0.1340
 2321SOL    HW3 9051   2.200   5.090   1.378  0.7752  0.0092 -0.1439
 2321SOL    MW4 9052   2.198   5.143   1.309  0.4810  0.1435 -0.0314
 2322SOL     OW 9053   4.000   4.525   5.669  0.3030  0.2396  0.3133
 2322SOL    HW2 9054   3.965   4.604   5.627 -1.2593 -0.0449  0.9949
 2322SOL    HW3 9055   4.051   4.559   5.743  2.5241  0.7080 -1.3160
 2322SOL    MW4 9056   4.002   4.540   5.674  0.3899  0.2638  0.1883
 2323SOL     OW 9057   4.633   4.533   4.783  0.1995  0.3275 -0.1114
 2323SOL    HW2 9058   4.644   4.622   4.751 -2.2639 -0.3309 -3.4164
 2323SOL    HW3 9059   4.552   4.535   4.835 -1.6820 -0.3167 -2.7574
 2323SOL    MW4 9060   4.623   4.545   4.786 -0.3738  0.1556 -0.8966
 2324SOL     OW 9061   0.780   4.245   3.007 -0.2948  0.1240  0.3305
 2324SOL    HW2 9062   0.738   4.215   3.088 -0.1414 -1.4927 -0.1539
 2324SOL    HW3 9063   0.710   4.247   2.943  0.2218 -2.4076 -0.4343
 2324SOL    MW4 9064   0.765   4.241   3.009 -0.2064 -0.4233  0.1657
 2325SOL     OW 9065   5.331   3.822   5.375  0.1475 -0.3399 -0.2011
 2325SOL    HW2 9066   5.321   3.728   5.391  0.9077 -0.8406 -2.3913
 2325SOL    HW3 9067   5.392   3.850   5.443 -1.7467 -0.9079  1.8652
 2325SOL    MW4 9068   5.338   3.813   5.386 -0.0021 -0.4809 -0.2174
 2326SOL     OW 9069   2.224   3.108   4.880 -0.0970 -0.0726 -0.2831
 2326SOL    HW2 9070   2.250   3.194   4.910  1.7172 -0.7871  0.3266
 2326SOL    HW3 9071   2.178   3.069   4.955  1.7987 -0.7337  0.6085
 2326SOL    MW4 9072   2.221   3.114   4.894  0.3925 -0.2541 -0.0850
 2327SOL     OW 9073   4.697   3.734   4.269  0.1750 -0.0326  0.3678
 2327SOL    HW2 9074   4.754   3.772   4.336  0.0859  0.1686  0.3291
 2327SOL    HW3 9075   4.740   3.758   4.186 -0.1361  0.4023  0.3248
 2327SOL    MW4 9076   4.711   3.743   4.267  0.1222  0.0513  0.3570
 2328SOL     OW 9077   3.372   0.178   6.029  0.2355  0.5210  0.2886
 2328SOL    HW2 9078   3.406   0.123   5.959  1.4968  0.4243  0.9564
 2328SOL    HW3 9079   3.281   0.148   6.041  0.8191 -1.2819  0.4950
 2328SOL    MW4 9080   3.364   0.167   6.021  0.4789  0.2704  0.4039
 2329SOL     OW 9081   4.199   0.217   4.182  0.1104  0.0240 -0.0407
 2329SOL    HW2 9082   4.111   0.183   4.174  0.0326  0.2539 -0.1858
 2329SOL    HW3 9083   4.199   0.297   4.130  0.6712 -0.4781 -0.8443
 2329SOL    MW4 9084   4.188   0.223   4.174  0.1741 -0.0119 -0.1659
 2330SOL     OW 9085   2.029   4.419   1.866  0.2878 -0.4479 -0.1164
 2330SOL    HW2 9086   1.947   4.456   1.832  0.5319 -1.7882 -2.4115
 2330SOL    HW3 9087   2.090   4.424   1.792  1.7039 -1.1632  0.9611
 2330SOL    MW4 9088   2.026   4.424   1.852  0.5069 -0.7191 -0.2770
 2331SOL     OW 9089   1.464   1.322   3.050  0.0814  0.0040 -0.3341
 2331SOL    HW2 9090   1.485   1.324   2.957 -1.6784 -0.4994 -0.7747
 2331SOL    HW3 9091   1.497   1.237   3.080  0.3558  0.0265 -0.5665
 2331SOL    MW4 9092   1.471   1.311   3.042 -0.1146 -0.0595 -0.4229
 2332SOL     OW 9093   3.231   5.519   3.839 -0.8315 -0.3667  0.5023
 2332SOL    HW2 9094   3.251   5.442   3.892 -1.0330 -0.3863  0.5496
 2332SOL    HW3 9095   3.156   5.493   3.785 -0.8112 -0.2510  0.4179
 2332SOL    MW4 9096   3.224   5.505   3.839 -0.8554 -0.3540  0.4974
 2333SOL     OW 9097   6.420   5.042   1.422  0.3037 -0.4406 -0.0835
 2333SOL    HW2 9098   6.345   5.101   1.437 -0.0709 -0.9468  0.0668
 2333SOL    HW3 9099   6.496   5.092   1.451  0.1032  0.3207 -0.8219
 2333SOL    MW4 9100   6.420   5.056   1.428  0.2278 -0.4069 -0.1611
 2334SOL     OW 9101   3.255   5.299   4.942 -0.4567  0.5225 -0.3592
 2334SOL    HW2 9102   3.195   5.355   4.892  0.6692  1.8412 -0.2783
 2334SOL    HW3 9103   3.223   5.305   5.032 -1.7898 -0.9342 -0.6929
 2334SOL    MW4 9104   3.243   5.307   4.947 -0.4841  0.5043 -0.3925
 2335SOL     OW 9105   0.318   1.580   3.194  0.7481  0.1213  0.2570
 2335SOL    HW2 9106   0.346   1.647   3.256  1.3609 -1.4857  1.7802
 2335SOL    HW3 9107   0.231   1.554   3.225  0.3728  0.4267 -0.5204
 2335SOL    MW4 9108   0.310   1.586   3.206  0.7794 -0.0504  0.3554
 2336SOL     OW 9109   1.109   0.778   0.600  0.4645  0.1904  0.7160
 2336SOL    HW2 9110   1.020   0.760   0.629  0.9785 -0.0991  2.2130
 2336SOL    HW3 9111   1.158   0.795   0.681  1.9320 -0.4135  0.0014
 2336SOL    MW4 9112   1.104   0.778   0.615  0.7259  0.0725  0.8193
 2337SOL     OW 9113   3.937   5.564   1.353  0.0798  0.5143 -0.0091
 2337SOL    HW2 9114   4.025   5.531   1.367 -0.3681 -1.1231 -0.8118
 2337SOL    HW3 9115   3.950   5.654   1.321  1.4392  0.3233 -0.0477
 2337SOL    MW4 9116   3.950   5.572   1.350  0.2000  0.2730 -0.1201
 2338SOL     OW 9117   4.189   3.242   1.711  0.2530  0.4243  0.2439
 2338SOL    HW2 9118   4.148   3.262   1.627 -0.2318 -1.9119 -0.1196
 2338SOL    HW3 9119   4.118   3.251   1.775 -0.2232 -1.0629 -0.0516
 2338SOL    MW4 9120   4.175   3.246   1.708  0.1262 -0.0802  0.1569
 2339SOL     OW 9121   5.077   5.548   4.053  0.0455 -0.1667  0.7798
 2339SOL    HW2 9122   5.025   5.533   3.974  2.0049 -1.1392 -0.4072
 2339SOL    HW3 9123   5.027   5.612   4.103 -0.2802  2.1970 -2.2690
 2339SOL    MW4 9124   5.063   5.555   4.049  0.2611  0.0169  0.2209
 2340SOL     OW 9125   2.560   2.184   3.190 -0.7546 -0.2894  0.1898
 2340SOL    HW2 9126   2.468   2.210   3.179 -0.5238  0.0879 -0.8909
 2340SOL    HW3 9127   2.605   2.264   3.214 -0.3702 -0.0289 -1.2942
 2340SOL    MW4 9128   2.554   2.198   3.192 -0.6735 -0.2052 -0.1486
 2341SOL     OW 9129   3.641   4.417   5.388 -0.0974 -0.2944 -0.2238
 2341SOL    HW2 9130   3.728   4.392   5.355  1.8361  0.3509  3.7981
 2341SOL    HW3 9131   3.659   4.477   5.460 -4.1145  2.2896 -1.0677
 2341SOL    MW4 9132   3.655   4.421   5.393 -0.3723  0.1317  0.1955
 2342SOL     OW 9133   3.742   3.557   3.830 -0.4474  0.7877 -0.3219
 2342SOL    HW2 9134   3.685   3.564   3.907 -1.0526 -2.4525 -0.3052
 2342SOL    HW3 9135   3.686   3.581   3.756 -0.6473  1.3992  0.0245
 2342SOL    MW4 9136   3.727   3.561   3.831 -0.5536  0.4409 -0.2740
 2343SOL     OW 9137   2.886   4.056   6.270 -0.1616 -0.6917 -0.3038
 2343SOL    HW2 9138   2.966   4.008   6.292 -0.8103 -1.8291 -0.2967
 2343SOL    HW3 9139   2.908   4.148   6.284  0.9052 -1.0361  0.4451
 2343SOL    MW4 9140   2.899   4.062   6.275 -0.1065 -0.8872 -0.2040
 2344SOL     OW 9141   3.034   2.921   3.515 -0.1222 -0.6045  0.0743
 2344SOL    HW2 9142   3.094   2.853   3.546 -1.3548 -2.0860 -0.6588
 2344SOL    HW3 9143   3.050   2.995   3.573  2.2495 -0.9997  0.0311
 2344SOL    MW4 9144   3.044   2.921   3.527  0.0281 -0.8521 -0.0281
 2345SOL     OW 9145   1.535   6.389   6.069 -0.1008  0.0713 -0.0124
 2345SOL    HW2 9146   1.510   6.344   6.149 -2.8823  1.5567  0.0708
 2345SOL    HW3 9147   1.453   6.400   6.021  1.0052  1.8842 -1.6417
 2345SOL    MW4 9148   1.521   6.384   6.073 -0.3219  0.5065 -0.2164
 2346SOL     OW 9149   2.942   0.563   0.790  0.2367  0.5739  0.5351
 2346SOL    HW2 9150   2.854   0.593   0.767 -0.1723 -1.0716 -0.2065
 2346SOL    HW3 9151   2.993   0.573   0.709  0.2477 -0.1215  0.4467
 2346SOL    MW4 9152   2.938   0.568   0.776  0.1842  0.2650  0.4256
 2347SOL     OW 9153   4.245   4.683   3.351 -0.1497 -0.1206 -0.1175
 2347SOL    HW2 9154   4.283   4.600   3.321 -0.2205 -0.9178  1.7997
 2347SOL    HW3 9155   4.151   4.670   3.347 -0.1767  0.2300 -0.7084
 2347SOL    MW4 9156   4.238   4.670   3.347 -0.1626 -0.1795  0.0575
 2348SOL     OW 9157   2.005   4.402   5.928 -0.3012  0.8237 -0.0342
 2348SOL    HW2 9158   2.097   4.427   5.914 -0.1719 -0.9516 -3.3960
 2348SOL    HW3 9159   2.008   4.333   5.994  0.8947  0.3877 -0.5171
 2348SOL    MW4 9160   2.018   4.396   5.934 -0.1264  0.5319 -0.5414
 2349SOL     OW 9161   0.652   2.023   5.223 -0.0234 -0.4103 -0.0456
 2349SOL    HW2 9162   0.589   2.028   5.295  0.3501  0.5045  0.2349
 2349SOL    HW3 9163   0.602   2.052   5.147  0.1002  0.5178  0.2150
 2349SOL    MW4 9164   0.637   2.028   5.222  0.0422 -0.1672  0.0258
 2350SOL     OW 9165   5.685   3.299   1.283  0.0289  0.1616  0.3627
 2350SOL    HW2 9166   5.727   3.336   1.205 -1.1506 -0.3464 -0.5311
 2350SOL    HW3 9167   5.737   3.333   1.356  0.3602  1.7290 -0.5562
 2350SOL    MW4 9168   5.698   3.308   1.282 -0.0830  0.3014  0.1235
 2351SOL     OW 9169   4.931   2.525   3.060  0.3251 -0.0829  0.5600
 2351SOL    HW2 9170   4.918   2.606   3.110 -0.0865  0.4054 -0.3180
 2351SOL    HW3 9171   4.853   2.517   3.005  0.5885 -0.8149  0.2744
 2351SOL    MW4 9172   4.919   2.535   3.059  0.3055 -0.1150  0.4065
 2352SOL     OW 9173   2.509   1.288   3.004 -0.1504 -0.0701  0.5155
 2352SOL    HW2 9174   2.597   1.322   2.991 -0.1338 -0.6362 -1.0279
 2352SOL    HW3 9175   2.510   1.253   3.093  0.3131  2.4262  1.5703
 2352SOL    MW4 9176   2.521   1.288   3.014 -0.0871  0.1845  0.4511
 2353SOL     OW 9177   2.183   6.244   2.353  0.0154  0.1830 -0.0073
 2353SOL    HW2 9178   2.251   6.232   2.419  0.3601 -0.8949 -0.5373
 2353SOL    HW3 9179   2.134   6.321   2.382  2.1202  1.6691 -0.1942
 2353SOL    MW4 9180   2.185   6.252   2.365  0.3386  0.2369 -0.1019
 2354SOL     OW 9181   5.872   5.777   5.337 -0.3311  0.4734  0.2024
 2354SOL    HW2 9182   5.833   5.716   5.399  0.3699  0.5201  0.7037
 2354SOL    HW3 9183   5.900   5.723   5.264 -0.3355  0.2941  0.3330
 2354SOL    MW4 9184   5.870   5.762   5.336 -0.2392  0.4559  0.2858
 2355SOL     OW 9185   5.380   0.702   0.015  0.4652  0.0396 -0.1068
 2355SOL    HW2 9186   5.355   0.650   0.091  0.3939 -0.1735 -0.2771
 2355SOL    HW3 9187   5.442   0.647  -0.033  0.2103  0.0174 -0.4119
 2355SOL    MW4 9188   5.385   0.688   0.018  0.4222  0.0086 -0.1695
 2356SOL     OW 9189   6.294   0.635   1.117  0.0110  0.0127  0.0639
 2356SOL    HW2 9190   6.369   0.615   1.060 -0.2478  2.4535 -1.2734
 2356SOL    HW3 9191   6.218   0.629   1.060 -0.7316 -1.2172  1.1248
 2356SOL    MW4 9192   6.294   0.632   1.102 -0.1212  0.1724  0.0275
 2357SOL     OW 9193   1.355   2.939   5.882  0.1241  0.1661  0.1130
 2357SOL    HW2 9194   1.425   3.003   5.872  1.1743 -0.5588  2.1653
 2357SOL    HW3 9195   1.276   2.992   5.897  0.5530  0.9739 -0.4034
 2357SOL    MW4 9196   1.354   2.954   5.883  0.3193  0.1770  0.3157
 2358SOL     OW 9197   0.540   3.046   0.057 -0.5132  0.3144  0.7088
 2358SOL    HW2 9198   0.552   3.140   0.043 -0.0859  0.2173  0.3952
 2358SOL    HW3 9199   0.602   3.005  -0.004 -0.7944 -0.1711  0.7471
 2358SOL    MW4 9200   0.550   3.053   0.047 -0.4939  0.2375  0.6725
 2359SOL     OW 9201   2.789   3.061   0.703 -0.1843  0.4823 -0.1513
 2359SOL    HW2 9202   2.871   3.104   0.726 -0.4726  0.8129  0.2807
 2359SOL    HW3 9203   2.758   3.021   0.784 -1.4069  1.9965  0.1801
 2359SOL    MW4 9204   2.795   3.061   0.717 -0.3836  0.7257 -0.0506
 2360SOL     OW 9205   0.401   5.999   2.926  0.1071  0.3614 -0.4806
 2360SOL    HW2 9206   0.374   5.915   2.889  1.8041  0.4637 -2.0851
 2360SOL    HW3 9207   0.452   5.976   3.004  1.7291 -0.2173 -1.6667
 2360SOL    MW4 9208   0.404   5.985   2.932  0.5450  0.2985 -0.8488
 2361SOL     OW 9209   4.665   4.136   5.637 -0.0196  0.1546  0.0720
 2361SOL    HW2 9210   4.685   4.227   5.656  3.0523 -0.3559 -0.2172
 2361SOL    HW3 9211   4.635   4.100   5.721 -0.2016  1.1755  0.4541
 2361SOL    MW4 9212   4.664   4.143   5.651  0.3617  0.2219  0.0843
 2362SOL     OW 9213   5.622   2.373   1.353 -0.4863 -0.6637 -0.2822
 2362SOL    HW2 9214   5.640   2.418   1.271 -0.8942 -1.1344 -0.6323
 2362SOL    HW3 9215   5.528   2.355   1.351 -0.7061  0.2710  0.7740
 2362SOL    MW4 9216   5.612   2.376   1.342 -0.5691 -0.6025 -0.1890
 2363SOL     OW 9217   0.302   1.202   0.110 -0.3765 -0.0614 -0.6279
 2363SOL    HW2 9218   0.244   1.163   0.045 -0.4647 -0.8962 -0.0537
 2363SOL    HW3 9219   0.270   1.292   0.119 -0.3023  0.1013 -1.7996
 2363SOL    MW4 9220   0.290   1.209   0.103 -0.3783 -0.1501 -0.7067
 2364SOL     OW 9221   6.425   5.293   0.444 -0.1417  0.6727  0.7766
 2364SOL    HW2 9222   6.490   5.252   0.501 -0.7607  0.8148  1.6038
 2364SOL    HW3 9223   6.446   5.387   0.448 -0.5796  0.7540  1.2979
 2364SOL    MW4 9224   6.437   5.300   0.452 -0.2811  0.7022  0.9545
 2365SOL     OW 9225   0.662   5.737   1.012 -0.6389  0.2020 -0.8405
 2365SOL    HW2 9226   0.672   5.791   0.934 -1.0155 -0.7089 -1.5313
 2365SOL    HW3 9227   0.601   5.786   1.068 -2.1082 -0.1467 -2.0708
 2365SOL    MW4 9228   0.655   5.751   1.009 -0.8824  0.0358 -1.0940
 2366SOL     OW 9229   5.405   1.339   5.177  0.6654  0.0629  0.1410
 2366SOL    HW2 9230   5.429   1.261   5.227 -0.3399  1.3352  2.8228
 2366SOL    HW3 9231   5.325   1.371   5.219  1.1386  2.6364 -0.7111
 2366SOL    MW4 9232   5.397   1.333   5.189  0.5952  0.5703  0.3824
 2367SOL     OW 9233   1.154   2.007   2.082 -0.1318  0.2672 -0.0953
 2367SOL    HW2 9234   1.079   1.953   2.108 -0.6322  1.2198  0.5300
 2367SOL    HW3 9235   1.230   1.958   2.113 -0.4823 -0.7702 -0.8390
 2367SOL    MW4 9236   1.154   1.993   2.090 -0.2441  0.2560 -0.1109
 2368SOL     OW 9237   0.732   4.446   4.930  0.6420  0.1716  0.4496
 2368SOL    HW2 9238   0.676   4.497   4.872  0.9462 -1.2254 -1.1258
 2368SOL    HW3 9239   0.681   4.438   5.011 -0.0096  1.6927  0.2281
 2368SOL    MW4 9240   0.718   4.452   4.933  0.5962  0.1880  0.2125
 2369SOL     OW 9241   2.865   0.215   3.456  0.2021  0.2319  0.2905
 2369SOL    HW2 9242   2.879   0.302   3.492 -1.1797 -0.0478  1.6010
 2369SOL    HW3 9243   2.860   0.158   3.533 -3.0801 -0.3768 -0.2362
 2369SOL    MW4 9244   2.866   0.219   3.471 -0.4132  0.1147  0.3939
 2370SOL     OW 9245   5.784   1.535   4.885 -0.1854 -0.2198 -0.0223
 2370SOL    HW2 9246   5.761   1.557   4.795 -0.3567 -1.4834 -0.3050
 2370SOL    HW3 9247   5.821   1.616   4.920 -0.3349  0.3642 -1.1449
 2370SOL    MW4 9248   5.786   1.549   4.878 -0.2277 -0.3095 -0.2077
 2371SOL     OW 9249   2.926   1.091   0.241 -0.0183 -0.3542  0.3684
 2371SOL    HW2 9250   2.953   1.141   0.318  1.2274  0.2720 -0.4355
 2371SOL    HW3 9251   2.997   1.028   0.227 -0.2897 -0.5442 -0.2002
 2371SOL    MW4 9252   2.939   1.089   0.249  0.1102 -0.2967  0.1873
 2372SOL     OW 9253   5.853   0.981   2.060 -0.1192  0.1456 -0.4375
 2372SOL    HW2 9254   5.844   1.021   2.146 -0.0272  1.3484 -0.9696
 2372SOL    HW3 9255   5.824   1.048   1.999  1.1592 -0.1673 -1.4379
 2372SOL    MW4 9256   5.848   0.995   2.063  0.0616  0.2630 -0.6397
 2373SOL     OW 9257   5.039   2.661   2.818 -0.2805  0.9951  0.0871
 2373SOL    HW2 9258   5.024   2.601   2.891  3.2294 -0.9804 -0.5570
 2373SOL    HW3 9259   4.987   2.624   2.746  0.1755 -0.1192  0.2962
 2373SOL    MW4 9260   5.031   2.648   2.818  0.2427  0.5874  0.0297
 2374SOL     OW 9261   3.312   5.064   3.340  0.9633 -1.2195  0.3553
 2374SOL    HW2 9262   3.261   4.983   3.338  0.0639 -0.7824  2.4978
 2374SOL    HW3 9263   3.371   5.053   3.416  2.8683 -0.9848 -1.0185
 2374SOL    MW4 9264   3.313   5.052   3.350  1.0960 -1.1308  0.4567
 2375SOL     OW 9265   6.379   5.919   0.629  0.0645 -0.4302 -0.3529
 2375SOL    HW2 9266   6.460   5.908   0.678  1.0509  1.3281 -1.4723
 2375SOL    HW3 9267   6.405   5.912   0.537 -0.9868  0.4083 -0.7362
 2375SOL    MW4 9268   6.393   5.917   0.624  0.0559 -0.0876 -0.5512
 2376SOL     OW 9269   5.276   2.333   4.106  0.4880 -0.2903  0.4712
 2376SOL    HW2 9270   5.291   2.400   4.173 -1.4374 -0.6757  1.3495
 2376SOL    HW3 9271   5.226   2.378   4.038  1.5977 -0.1592 -0.2969
 2376SOL    MW4 9272   5.272   2.348   4.106  0.3804 -0.3239  0.4857
 2377SOL     OW 9273   3.911   2.475   2.661  0.5172 -0.1435  0.0817
 2377SOL    HW2 9274   3.865   2.408   2.710 -0.5447  0.4016 -0.1460
 2377SOL    HW3 9275   3.919   2.440   2.572 -0.4794  0.2260 -0.1625
 2377SOL    MW4 9276   3.906   2.462   2.656  0.2456 -0.0228  0.0195
 2378SOL     OW 9277   4.910   5.906   6.108  0.3046 -0.2006 -0.0531
 2378SOL    HW2 9278   4.912   5.813   6.130  0.2103  0.1054  1.3709
 2378SOL    HW3 9279   4.939   5.910   6.017 -0.1346 -1.6548 -0.2842
 2378SOL    MW4 9280   4.914   5.894   6.099  0.2342 -0.3521  0.1043
 2379SOL     OW 9281   1.525   3.934   1.555 -0.7537 -0.2346 -0.8088
 2379SOL    HW2 9282   1.582   4.009   1.569 -0.9393 -0.1011 -0.7617
 2379SOL    HW3 9283   1.445   3.954   1.605 -1.2311  0.0286 -1.6645
 2379SOL    MW4 9284   1.522   3.946   1.564 -0.8412 -0.1822 -0.9155
 2380SOL     OW 9285   2.044   4.741   1.546  0.8418  0.2042 -0.1871
 2380SOL    HW2 9286   2.005   4.790   1.474  1.0873  1.5990  0.5809
 2380SOL    HW3 9287   1.996   4.658   1.548 -1.5467  1.4996  0.1765
 2380SOL    MW4 9288   2.032   4.736   1.537  0.5590  0.5591 -0.0378
 2381SOL     OW 9289   5.795   5.839   4.719 -0.5367  0.0448 -0.6525
 2381SOL    HW2 9290   5.889   5.848   4.702  0.4188  0.5210  3.7257
 2381SOL    HW3 9291   5.779   5.745   4.709  0.7541 -0.2628 -0.1327
 2381SOL    MW4 9292   5.806   5.828   4.715 -0.2403  0.0670 -0.0063
 2382SOL     OW 9293   2.525   2.676   3.029  0.2150 -0.2361 -0.0962
 2382SOL    HW2 9294   2.440   2.716   3.044  0.9148  1.2378  0.1333
 2382SOL    HW3 9295   2.524   2.648   2.938 -0.7470 -0.8364  0.0927
 2382SOL    MW4 9296   2.514   2.678   3.019  0.1804 -0.1208 -0.0410
 2383SOL     OW 9297   3.373   1.982   1.655 -0.0529  0.4675  0.2672
 2383SOL    HW2 9298   3.431   1.996   1.730  2.1730 -0.3035 -1.2119
 2383SOL    HW3 9299   3.377   1.887   1.639  2.0731  0.9055 -2.6524
 2383SOL    MW4 9300   3.381   1.971   1.663  0.5213  0.4236 -0.3132
 2384SOL     OW 9301   0.707   1.842   0.603  0.1650  0.0007  0.5285
 2384SOL    HW2 9302   0.698   1.925   0.650 -0.3099  0.0241  0.4039
 2384SOL    HW3 9303   0.674   1.861   0.515 -0.4913 -0.4680  0.6712
 2384SOL    MW4 9304   0.701   1.856   0.597  0.0157 -0.0581  0.5309
 2385SOL     OW 9305   6.234   1.383   4.185 -0.7163  0.0025  0.1801
 2385SOL    HW2 9306   6.270   1.394   4.273 -2.6387  2.0687  0.7992
 2385SOL    HW3 9307   6.307   1.348   4.133  0.5947 -0.8120  2.4569
 2385SOL    MW4 9308   6.249   1.380   4.189 -0.7970  0.1676  0.5622
 2386SOL     OW 9309   4.621   3.739   0.881  0.6100 -0.0173  0.6010
 2386SOL    HW2 9310   4.658   3.651   0.872  1.2122 -0.0616  2.9425
 2386SOL    HW3 9311   4.563   3.749   0.805  1.0439 -2.1559 -0.0687
 2386SOL    MW4 9312   4.618   3.729   0.870  0.7467 -0.3053  0.8216
 2387SOL     OW 9313   4.493   2.765   5.939 -0.5910  0.2072 -0.4004
 2387SOL    HW2 9314   4.552   2.759   5.865 -0.0181  1.0519 -0.0285
 2387SOL    HW3 9315   4.546   2.743   6.015 -0.5328  1.6517  0.0180
 2387SOL    MW4 9316   4.508   2.761   5.939 -0.5078  0.5092 -0.2961
 2388SOL     OW 9317   6.042   1.749   0.272 -0.2404  0.4531 -0.2535
 2388SOL    HW2 9318   6.055   1.657   0.251 -1.4415 -0.1511  1.3970
 2388SOL    HW3 9319   6.118   1.772   0.326 -1.2793 -0.4461  1.7206
 2388SOL    MW4 9320   6.053   1.740   0.276 -0.5360  0.2547  0.2247
 2389SOL     OW 9321   4.812   0.451   0.687 -0.1778 -0.0866  0.0240
 2389SOL    HW2 9322   4.818   0.429   0.780  1.2721  1.7457  0.4334
 2389SOL    HW3 9323   4.741   0.516   0.682  0.4891  0.6638  0.0653
 2389SOL    MW4 9324   4.804   0.457   0.698  0.1015  0.2542  0.0835
 2390SOL     OW 9325   3.878   1.924   5.816  0.4329 -0.0329  0.1291
 2390SOL    HW2 9326   3.877   1.990   5.885  1.2730 -0.8709  0.9653
 2390SOL    HW3 9327   3.877   1.974   5.734  2.3251  1.0642  0.7215
 2390SOL    MW4 9328   3.877   1.939   5.814  0.7934  0.0013  0.3176
 2391SOL     OW 9329   4.246   2.020   1.960 -0.4234  0.2600  0.0338
 2391SOL    HW2 9330   4.227   2.103   2.003  0.8055  0.6116 -0.0616
 2391SOL    HW3 9331   4.256   2.042   1.868  1.6095  0.3478  0.2235
 2391SOL    MW4 9332   4.245   2.034   1.954  0.0070  0.3180  0.0462
 2392SOL     OW 9333   0.623   2.898   0.920  0.0452 -0.0260 -0.9935
 2392SOL    HW2 9334   0.536   2.926   0.945  0.3390 -0.1884  0.2744
 2392SOL    HW3 9335   0.635   2.813   0.964  1.4621  0.7817  0.2604
 2392SOL    MW4 9336   0.613   2.890   0.929  0.2709  0.0591 -0.6608
 2393SOL     OW 9337   5.008   0.259   3.165  0.2151 -0.1592 -0.5276
 2393SOL    HW2 9338   4.949   0.330   3.191  1.4646 -0.0241  2.3791
 2393SOL    HW3 9339   5.076   0.302   3.112 -1.6757 -0.1711 -3.1250
 2393SOL    MW4 9340   5.009   0.274   3.162  0.1305 -0.1430 -0.4868
 2394SOL     OW 9341   2.499   1.119   3.219  0.1985  0.2786 -0.4057
 2394SOL    HW2 9342   2.445   1.061   3.273 -0.5602  0.9459 -0.4218
 2394SOL    HW3 9343   2.582   1.125   3.265  0.9526 -2.1995 -1.2939
 2394SOL    MW4 9344   2.503   1.112   3.232  0.1979  0.0397 -0.5250
 2395SOL     OW 9345   5.530   6.089   5.562  0.7973  0.5985  0.3298
 2395SOL    HW2 9346   5.582   6.053   5.490  1.3390  0.5618  0.7346
 2395SOL    HW3 9347   5.561   6.043   5.640 -2.5893 -2.4886  0.1461
 2395SOL    MW4 9348   5.541   6.078   5.563  0.4220  0.1864  0.3590
 2396SOL     OW 9349   0.708   3.264   1.783  0.5295 -0.2190 -0.1089
 2396SOL    HW2 9350   0.715   3.183   1.834 -1.9189 -0.1621  0.4211
 2396SOL    HW3 9351   0.774   3.322   1.821 -0.1621 -0.7336  1.9918
 2396SOL    MW4 9352   0.718   3.261   1.795  0.1152 -0.2794  0.2382
 2397SOL     OW 9353   1.401   5.516   2.776  0.0940 -0.3120  0.6778
 2397SOL    HW2 9354   1.372   5.607   2.779 -0.4834 -0.3794 -1.4132
 2397SOL    HW3 9355   1.324   5.466   2.803 -0.6636 -0.3080 -1.3551
 2397SOL    MW4 9356   1.387   5.521   2.780 -0.0821 -0.3203  0.1337
 2398SOL     OW 9357   0.930   6.037   0.899  0.4410 -0.5347 -0.1620
 2398SOL    HW2 9358   0.915   5.961   0.955 -0.2078  0.2054  0.7032
 2398SOL    HW3 9359   0.960   6.001   0.816 -3.4292 -2.0263 -1.0908
 2398SOL    MW4 9360   0.932   6.022   0.896 -0.1552 -0.6338 -0.1704
 2399SOL     OW 9361   3.985   5.120   4.247  0.4006 -0.1575  0.2569
 2399SOL    HW2 9362   3.909   5.064   4.265 -0.9206  1.3851 -0.2886
 2399SOL    HW3 9363   3.989   5.181   4.321  0.3335  0.5665 -0.3232
 2399SOL    MW4 9364   3.976   5.121   4.259  0.2174  0.1415  0.1084
 2400SOL     OW 9365   3.543   1.956   2.336  0.1951  0.1129  0.0694
 2400SOL    HW2 9366   3.475   1.895   2.365  1.4637 -0.4298  2.0110
 2400SOL    HW3 9367   3.494   2.024   2.289 -1.4008 -1.6093 -0.9184
 2400SOL    MW4 9368   3.527   1.957   2.333  0.1519 -0.1859  0.1953
 2401SOL     OW 9369   2.619   0.573   2.380  0.4000 -0.0760 -0.0955
 2401SOL    HW2 9370   2.668   0.513   2.324 -0.1906 -1.6251  0.9946
 2401SOL    HW3 9371   2.527   0.553   2.363  0.2114 -0.1862  1.0186
 2401SOL    MW4 9372   2.613   0.563   2.370  0.2972 -0.2949  0.1953
 2402SOL     OW 9373   2.153   0.075   5.493  0.1670 -0.7250  0.7143
 2402SOL    HW2 9374   2.116   0.035   5.414  0.3665 -0.0649  0.2738
 2402SOL    HW3 9375   2.246   0.051   5.490 -0.2078 -2.5821  1.9423
 2402SOL    MW4 9376   2.161   0.066   5.482  0.1439 -0.8829  0.8182
 2403SOL     OW 9377   0.863   0.194   6.220 -0.3458 -0.4327 -0.4602
 2403SOL    HW2 9378   0.797   0.202   6.289  0.1253 -0.1876 -0.0308
 2403SOL    HW3 9379   0.827   0.242   6.146 -0.9862 -0.9433 -0.4888
 2403SOL    MW4 9380   0.850   0.201   6.220 -0.3681 -0.4678 -0.4073
 2404SOL     OW 9381   5.311   1.922   3.309 -0.3113 -0.1680  0.0341
 2404SOL    HW2 9382   5.254   1.904   3.235  2.0612 -2.8995 -1.3381
 2404SOL    HW3 9383   5.362   1.999   3.282 -1.0933  0.3054 -0.1098
 2404SOL    MW4 9384   5.310   1.930   3.296 -0.1015 -0.4659 -0.1659
 2405SOL     OW 9385   0.542   4.978   5.574 -0.0493  0.9602  0.9289
 2405SOL    HW2 9386   0.546   4.998   5.481 -0.5056  1.7644  1.0719
 2405SOL    HW3 9387   0.449   4.965   5.592  0.2341 -2.0716  0.7202
 2405SOL    MW4 9388   0.530   4.979   5.564 -0.0721  0.6663  0.9203
 2406SOL     OW 9389   6.362   4.550   4.127  0.4427  0.7932  0.1373
 2406SOL    HW2 9390   6.441   4.554   4.181  1.5890 -0.1311 -1.3754
 2406SOL    HW3 9391   6.358   4.458   4.099 -1.5252  0.6882  0.6704
 2406SOL    MW4 9392   6.372   4.538   4.130  0.3343  0.6574  0.0081
 2407SOL     OW 9393   5.661   3.851   3.086  0.1749  0.1715 -0.7463
 2407SOL    HW2 9394   5.707   3.930   3.058  1.5038 -0.2701  0.1013
 2407SOL    HW3 9395   5.715   3.816   3.156 -0.1463 -1.7343 -1.3979
 2407SOL    MW4 9396   5.674   3.857   3.091  0.3079 -0.1382 -0.7204
 2408SOL     OW 9397   4.173   1.190   4.621 -0.1580 -0.0387 -0.2362
 2408SOL    HW2 9398   4.117   1.135   4.566 -1.4731  0.8413  0.1736
 2408SOL    HW3 9399   4.152   1.163   4.711  0.4030 -0.0092 -0.0956
 2408SOL    MW4 9400   4.163   1.179   4.626 -0.2575  0.0813 -0.1636
 2409SOL     OW 9401   5.406   2.898   5.278  0.3616 -0.3979  0.0889
 2409SOL    HW2 9402   5.323   2.864   5.312  0.3414  1.1024  1.6473
 2409SOL    HW3 9403   5.432   2.834   5.212 -0.8068 -2.2067  1.2786
 2409SOL    MW4 9404   5.398   2.885   5.274  0.2048 -0.4386  0.4515
 2410SOL     OW 9405   1.798   3.933   3.289  0.2147 -0.0641  0.0743
 2410SOL    HW2 9406   1.743   3.854   3.290 -0.0362  0.0906 -0.6787
 2410SOL    HW3 9407   1.882   3.902   3.257 -0.0442  0.0680 -0.7436
 2410SOL    MW4 9408   1.801   3.918   3.285  0.1474 -0.0262 -0.1329
 2411SOL     OW 9409   4.295   2.608   4.794  0.0503 -0.5888  0.0743
 2411SOL    HW2 9410   4.289   2.660   4.714  1.0790 -0.9638 -0.2675
 2411SOL    HW3 9411   4.369   2.646   4.841  0.7489 -1.6454 -0.1299
 2411SOL    MW4 9412   4.304   2.620   4.789  0.2782 -0.7777  0.0023
 2412SOL     OW 9413   1.380   2.112   5.483  0.0258 -0.7891 -0.2917
 2412SOL    HW2 9414   1.329   2.133   5.406  0.0716 -1.0538 -0.3950
 2412SOL    HW3 9415   1.443   2.184   5.492  0.7487 -1.2933 -1.1349
 2412SOL    MW4 9416   1.382   2.124   5.474  0.1272 -0.8905 -0.4166
 2413SOL     OW 9417   2.105   6.432   2.863 -0.1583 -0.4471 -0.2120
 2413SOL    HW2 9418   2.045   6.390   2.801 -1.0782  0.3372  0.1118
 2413SOL    HW3 9419   2.102   6.376   2.940 -2.2983  0.7370  0.6674
 2413SOL    MW4 9420   2.096   6.419   2.865 -0.5620 -0.1874 -0.0532
 2414SOL     OW 9421   2.179   4.528   1.001  0.5191 -0.0270 -0.0290
 2414SOL    HW2 9422   2.132   4.482   1.071  0.6181  0.8216  0.6055
 2414SOL    HW3 9423   2.130   4.609   0.988 -0.0858 -0.6099 -1.6544
 2414SOL    MW4 9424   2.166   4.532   1.008  0.4523  0.0081 -0.1597
 2415SOL     OW 9425   1.718   2.806   3.501  0.5694  0.3925  0.1595
 2415SOL    HW2 9426   1.769   2.843   3.573  2.1830 -0.0588 -0.7032
 2415SOL    HW3 9427   1.760   2.840   3.422 -0.6355  0.1887 -0.5886
 2415SOL    MW4 9428   1.730   2.815   3.500  0.6233  0.3061 -0.0530
 2416SOL     OW 9429   3.466   3.332   3.686  0.2299 -0.0757 -0.1064
 2416SOL    HW2 9430   3.428   3.385   3.756  0.5564  0.2058 -0.1380
 2416SOL    HW3 9431   3.398   3.329   3.619  0.1615  0.2100 -0.0537
 2416SOL    MW4 9432   3.452   3.339   3.686  0.2639 -0.0008 -0.1036
 2417SOL     OW 9433   2.340   1.081   5.657 -0.0866  0.2667 -0.1538
 2417SOL    HW2 9434   2.267   1.129   5.617  0.3277  1.9786  1.0487
 2417SOL    HW3 9435   2.309   1.058   5.744 -0.6413 -2.6593 -0.9999
 2417SOL    MW4 9436   2.326   1.084   5.663 -0.1051  0.1065 -0.1068
 2418SOL     OW 9437   1.503   5.389   4.825  0.6110 -0.5225 -0.3179
 2418SOL    HW2 9438   1.543   5.407   4.740 -0.0398  2.8334 -0.0739
 2418SOL    HW3 9439   1.555   5.439   4.887 -1.2438  0.3567  0.6295
 2418SOL    MW4 9440   1.515   5.398   4.822  0.2805  0.0362 -0.1607
 2419SOL     OW 9441   2.392   1.138   1.672  0.2276 -0.3979  0.1521
 2419SOL    HW2 9442   2.372   1.216   1.723 -1.5877  0.6838 -2.0579
 2419SOL    HW3 9443   2.481   1.152   1.639 -0.4425  1.2681 -1.0503
 2419SOL    MW4 9444   2.401   1.150   1.675 -0.1003 -0.0354 -0.2982
 2420SOL     OW 9445   0.244   0.967   3.837  0.2183 -0.1400 -0.1036
 2420SOL    HW2 9446   0.247   1.060   3.818  0.9645 -0.4501 -1.6346
 2420SOL    HW3 9447   0.319   0.929   3.791 -0.2517 -1.5459  0.2097
 2420SOL    MW4 9448   0.254   0.974   3.829  0.2547 -0.3664 -0.2642
 2421SOL     OW 9449   2.093   3.902   1.226 -0.2085  0.3056  0.1215
 2421SOL    HW2 9450   2.107   3.827   1.167 -0.0319  0.5362 -0.1319
 2421SOL    HW3 9451   2.132   3.976   1.180 -3.9386  1.4692 -1.6595
 2421SOL    MW4 9452   2.100   3.902   1.212 -0.6773  0.4895 -0.1469
 2422SOL     OW 9453   3.042   3.037   4.460 -0.2854 -0.3723 -0.5308
 2422SOL    HW2 9454   2.947   3.051   4.458 -0.6614 -2.6103 -1.9399
 2422SOL    HW3 9455   3.074   3.098   4.526 -2.8599 -0.4129  0.8662
 2422SOL    MW4 9456   3.034   3.047   4.468 -0.6746 -0.6729 -0.5324
 2423SOL     OW 9457   3.741   2.094   3.854 -0.4551 -0.2397 -0.2084
 2423SOL    HW2 9458   3.750   2.188   3.864  3.1216 -0.4790  0.3522
 2423SOL    HW3 9459   3.739   2.060   3.943 -1.3935 -0.7274 -0.4029
 2423SOL    MW4 9460   3.742   2.102   3.867 -0.1070 -0.3356 -0.1601
 2424SOL     OW 9461   3.950   3.083   0.895 -0.1188  0.1452  0.5654
 2424SOL    HW2 9462   3.875   3.044   0.849 -0.3529  0.0262  1.0394
 2424SOL    HW3 9463   4.022   3.076   0.834 -0.1628 -1.0387  0.6385
 2424SOL    MW4 9464   3.949   3.077   0.881 -0.1555 -0.0267  0.6376
 2425SOL     OW 9465   2.763   3.007   5.186  0.2839  0.0566  0.0189
 2425SOL    HW2 9466   2.785   2.995   5.279 -0.4946 -0.7802  0.1173
 2425SOL    HW3 9467   2.846   3.027   5.144  0.2398  3.8202  1.3652
 2425SOL    MW4 9468   2.777   3.008   5.193  0.1753  0.4428  0.2095
 2426SOL     OW 9469   5.469   2.932   4.856 -0.1779  0.6667 -0.8681
 2426SOL    HW2 9470   5.529   2.947   4.783  1.9354  3.8073  1.2662
 2426SOL    HW3 9471   5.397   2.993   4.842 -0.9675 -0.3770 -1.4619
 2426SOL    MW4 9472   5.468   2.942   4.845 -0.0033  0.9433 -0.6648
 2427SOL     OW 9473   3.412   5.063   0.385  0.0536 -0.4101 -0.2137
 2427SOL    HW2 9474   3.382   5.154   0.385 -2.6457 -1.2219 -1.4488
 2427SOL    HW3 9475   3.507   5.070   0.396  0.0631  2.5845 -1.2004
 2427SOL    MW4 9476   3.421   5.076   0.387 -0.3013 -0.1221 -0.5068
 2428SOL     OW 9477   0.239   5.415   2.266  0.0237  0.3679  0.0742
 2428SOL    HW2 9478   0.183   5.464   2.206 -1.6526 -0.8558  0.5747
 2428SOL    HW3 9479   0.187   5.339   2.292  1.8074 -0.6685  0.8220
 2428SOL    MW4 9480   0.225   5.412   2.262  0.0379  0.0697  0.2389
 2429SOL     OW 9481   4.553   6.194   3.256  0.3774 -0.0247 -0.1180
 2429SOL    HW2 9482   4.551   6.181   3.161 -0.5072  4.5192 -0.9619
 2429SOL    HW3 9483   4.645   6.212   3.276  0.0743  3.3054 -1.0936
 2429SOL    MW4 9484   4.565   6.195   3.246  0.2207  1.0142 -0.3581
 2430SOL     OW 9485   3.439   2.553   2.503  0.0585 -0.2695 -0.2501
 2430SOL    HW2 9486   3.515   2.499   2.481  0.5723  0.3747 -0.0845
 2430SOL    HW3 9487   3.394   2.504   2.572  0.9325 -0.1488  0.4268
 2430SOL    MW4 9488   3.443   2.539   2.509  0.2416 -0.1686 -0.1390
 2431SOL     OW 9489   2.635   5.760   1.507 -0.2154  0.0560 -0.2827
 2431SOL    HW2 9490   2.590   5.681   1.479  0.9226 -0.7858  0.1609
 2431SOL    HW3 9491   2.691   5.732   1.579 -0.8939  1.5738  0.8978
 2431SOL    MW4 9492   2.637   5.746   1.513 -0.1547  0.1452 -0.0684
 2432SOL     OW 9493   5.457   5.086   5.555 -0.0562 -0.5917 -0.2640
 2432SOL    HW2 9494   5.404   5.114   5.481 -0.8836  0.6690  0.7717
 2432SOL    HW3 9495   5.403   5.021   5.600 -0.1695 -0.2725  0.0601
 2432SOL    MW4 9496   5.443   5.081   5.551 -0.1803 -0.3833 -0.0846
 2433SOL     OW 9497   2.904   5.572   5.620 -0.4389  0.1954  0.1963
 2433SOL    HW2 9498   2.876   5.611   5.703  0.8930  1.4060  0.1233
 2433SOL    HW3 9499   2.969   5.506   5.645  0.2088  0.7894  0.1308
 2433SOL    MW4 9500   2.909   5.568   5.634 -0.1777  0.4335  0.1781
 2434SOL     OW 9501   4.404   1.486   0.621 -0.0880  0.2819  0.3224
 2434SOL    HW2 9502   4.344   1.419   0.656  0.6291  0.2269  1.4988
 2434SOL    HW3 9503   4.489   1.442   0.618  0.1340  0.7418 -0.1610
 2434SOL    MW4 9504   4.407   1.471   0.625  0.0359  0.3353  0.4138
 2435SOL     OW 9505   4.775   5.265   3.514 -0.1393  0.1667  0.0427
 2435SOL    HW2 9506   4.817   5.298   3.434  1.4442 -1.2684  0.2211
 2435SOL    HW3 9507   4.710   5.202   3.482 -0.8107  0.9412 -0.1582
 2435SOL    MW4 9508   4.772   5.261   3.499 -0.0190  0.0795  0.0397
 2436SOL     OW 9509   6.182   6.142   5.291 -0.3703 -0.2023  0.3711
 2436SOL    HW2 9510   6.150   6.095   5.214 -2.5793  1.0805  0.4055
 2436SOL    HW3 9511   6.163   6.084   5.364  0.3208 -0.7791  0.1025
 2436SOL    MW4 9512   6.175   6.128   5.290 -0.5706 -0.1092  0.3402
 2437SOL     OW 9513   1.171   2.566   1.829  0.1199  0.0995 -0.2480
 2437SOL    HW2 9514   1.142   2.546   1.918 -0.7450  1.3497 -0.2307
 2437SOL    HW3 9515   1.197   2.658   1.832 -2.5872  1.0202 -1.9173
 2437SOL    MW4 9516   1.171   2.575   1.841 -0.3514  0.3859 -0.4660
 2438SOL     OW 9517   4.798   3.713   1.953 -0.0705  0.0130  0.0201
 2438SOL    HW2 9518   4.855   3.729   2.029 -1.3982 -0.3498  1.1440
 2438SOL    HW3 9519   4.726   3.661   1.988 -1.1753  0.5692 -1.3108
 2438SOL    MW4 9520   4.796   3.709   1.968 -0.3914  0.0385 -0.0072
 2439SOL     OW 9521   5.682   5.446   6.132 -0.1860  0.1011 -0.6590
 2439SOL    HW2 9522   5.639   5.396   6.202  0.8759  0.8740  0.5780
 2439SOL    HW3 9523   5.636   5.419   6.053 -0.2673 -2.1480  0.0802
 2439SOL    MW4 9524   5.670   5.436   6.131 -0.0566 -0.0937 -0.3982
 2440SOL     OW 9525   1.200   2.961   4.890  0.2978  0.1295 -0.3685
 2440SOL    HW2 9526   1.221   3.045   4.929  1.3083  0.0459 -0.6845
 2440SOL    HW3 9527   1.145   2.982   4.814  0.7210  0.5326 -0.5705
 2440SOL    MW4 9528   1.196   2.975   4.885  0.4870  0.1717 -0.4369
 2441SOL     OW 9529   1.863   0.724   0.655  0.1322  0.8784  0.2387
 2441SOL    HW2 9530   1.859   0.657   0.587  2.4144  1.0736 -0.1459
 2441SOL    HW3 9531   1.844   0.806   0.609  2.1530  1.0746 -0.3283
 2441SOL    MW4 9532   1.860   0.726   0.640  0.6999  0.9300  0.1132
 2442SOL     OW 9533   4.230   0.587   5.272  0.5532  0.2481  0.2546
 2442SOL    HW2 9534   4.270   0.502   5.290 -0.0328  0.0622  0.7191
 2442SOL    HW3 9535   4.302   0.641   5.240  0.5235 -1.0340 -2.1644
 2442SOL    MW4 9536   4.244   0.583   5.270  0.4720  0.0544 -0.0032
 2443SOL     OW 9537   3.170   2.620   0.469  0.3199 -0.4575  0.1951
 2443SOL    HW2 9538   3.114   2.582   0.401 -2.2419  2.0596  0.7111
 2443SOL    HW3 9539   3.112   2.632   0.544  1.5291  2.1672  0.8248
 2443SOL    MW4 9540   3.155   2.617   0.470  0.1415  0.2209  0.3463
 2444SOL     OW 9541   0.793   3.496   2.132  0.2793 -0.4086  0.0172
 2444SOL    HW2 9542   0.759   3.408   2.148  0.4280 -0.6802 -1.0460
 2444SOL    HW3 9543   0.747   3.552   2.194  0.7359 -1.3489  1.2375
 2444SOL    MW4 9544   0.783   3.492   2.142  0.3591 -0.5685  0.0379
 2445SOL     OW 9545   3.042   5.064   5.659 -0.0978  0.9111 -0.3734
 2445SOL    HW2 9546   3.024   5.017   5.740  1.9615  1.2419  0.3241
 2445SOL    HW3 9547   3.044   5.156   5.684 -0.9913  1.1583 -1.1337
 2445SOL    MW4 9548   3.040   5.070   5.673  0.0560  0.9873 -0.3817
 2446SOL     OW 9549   3.524   6.039   1.891 -0.0310  0.2497  0.0075
 2446SOL    HW2 9550   3.489   6.113   1.940 -2.2794 -0.5769 -0.2538
 2446SOL    HW3 9551   3.502   6.058   1.799 -1.8804 -1.3107  0.0646
 2446SOL    MW4 9552   3.517   6.051   1.885 -0.5717 -0.0653 -0.0194
 2447SOL     OW 9553   5.029   2.722   3.734 -0.2146  0.2334 -0.1023
 2447SOL    HW2 9554   5.050   2.653   3.797 -1.7986 -0.0536  0.1652
 2447SOL    HW3 9555   5.049   2.803   3.780 -1.9763  0.0588  1.0953
 2447SOL    MW4 9556   5.034   2.723   3.749 -0.6561  0.1725  0.0910
 2448SOL     OW 9557   5.925   1.236   2.553 -0.3108  0.0223  0.1757
 2448SOL    HW2 9558   5.928   1.189   2.469 -0.4262  1.4332 -0.6546
 2448SOL    HW3 9559   5.984   1.310   2.540  0.7844 -0.5053  1.8604
 2448SOL    MW4 9560   5.933   1.239   2.540 -0.1815  0.1388  0.2884
 2449SOL     OW 9561   2.400   0.500   6.184 -0.9239 -0.1481  0.1419
 2449SOL    HW2 9562   2.370   0.417   6.222 -1.9900  0.2858  0.2665
 2449SOL    HW3 9563   2.424   0.553   6.259  0.9597 -0.7584  0.0229
 2449SOL    MW4 9564   2.399   0.496   6.199 -0.8161 -0.1714  0.1426
 2450SOL     OW 9565   0.932   5.628   5.025  0.0232  0.5835 -0.2138
 2450SOL    HW2 9566   0.960   5.653   4.937  0.7660 -0.6926 -0.3733
 2450SOL    HW3 9567   0.973   5.542   5.039 -1.6524 -0.1230  0.6202
 2450SOL    MW4 9568   0.941   5.620   5.015 -0.0999  0.3219 -0.1248
 2451SOL     OW 9569   5.199   3.159   2.077 -0.2391 -0.3687 -0.1213
 2451SOL    HW2 9570   5.229   3.250   2.081  1.0720 -0.7644 -0.3242
 2451SOL    HW3 9571   5.236   3.125   1.996  0.5238 -1.4829  0.6529
 2451SOL    MW4 9572   5.208   3.167   2.067  0.0346 -0.5679 -0.0459
 2452SOL     OW 9573   5.036   3.226   2.426  0.3762 -0.3245 -0.4902
 2452SOL    HW2 9574   5.128   3.212   2.402  0.1206 -2.2972 -0.4615
 2452SOL    HW3 9575   5.006   3.293   2.365  1.8622  0.4626 -0.4092
 2452SOL    MW4 9576   5.044   3.233   2.415  0.5385 -0.4809 -0.4757
 2453SOL     OW 9577   3.722   1.370   6.243 -0.0624  0.0772  0.2963
 2453SOL    HW2 9578   3.677   1.418   6.174 -2.1658 -0.5902  1.1174
 2453SOL    HW3 9579   3.700   1.278   6.226  0.3508 -0.1989  1.2017
 2453SOL    MW4 9580   3.713   1.364   6.231 -0.2854 -0.0473  0.5241
 2454SOL     OW 9581   4.139   3.669   2.367  0.1635 -0.6409  0.1673
 2454SOL    HW2 9582   4.194   3.733   2.412  1.1247 -1.9540  0.9161
 2454SOL    HW3 9583   4.173   3.584   2.394 -2.9712 -1.5908  1.6593
 2454SOL    MW4 9584   4.151   3.666   2.377 -0.1233 -0.9395  0.4629
 2455SOL     OW 9585   0.079   4.797   5.553 -0.2822 -0.4446 -0.4160
 2455SOL    HW2 9586  -0.007   4.779   5.591 -0.0406  0.3504  0.5527
 2455SOL    HW3 9587   0.059   4.845   5.472 -0.7429  0.0444 -0.0194
 2455SOL    MW4 9588   0.065   4.801   5.547 -0.3111 -0.2752 -0.2358
 2456SOL     OW 9589   4.973   1.744   1.256  0.3505  0.2859 -0.0820
 2456SOL    HW2 9590   4.936   1.752   1.168  0.5920  1.3172 -0.1003
 2456SOL    HW3 9591   5.067   1.759   1.244  0.2911  1.1332  0.4366
 2456SOL    MW4 9592   4.981   1.747   1.243  0.3745  0.5338 -0.0160
 2457SOL     OW 9593   4.120   6.444   0.803 -0.1881 -0.1209  0.7393
 2457SOL    HW2 9594   4.173   6.395   0.866  0.1267  0.1731  0.7043
 2457SOL    HW3 9595   4.077   6.376   0.750 -0.3484 -0.3652  1.1808
 2457SOL    MW4 9596   4.121   6.428   0.804 -0.1677 -0.1144  0.7930
 2458SOL     OW 9597   3.810   1.932   0.725 -0.8250  0.1089 -0.4893
 2458SOL    HW2 9598   3.748   1.930   0.653 -1.0878  4.3112 -0.6609
 2458SOL    HW3 9599   3.757   1.919   0.803 -1.5858  1.3367 -0.7726
 2458SOL    MW4 9600   3.795   1.930   0.726 -0.9601  0.8254 -0.5493
 2459SOL     OW 9601   5.251   3.954   2.233  0.2048  0.5438 -0.0740
 2459SOL    HW2 9602   5.257   4.023   2.167  0.8753 -0.8587 -1.5513
 2459SOL    HW3 9603   5.292   3.878   2.192  0.7331 -0.3714  2.0234
 2459SOL    MW4 9604   5.257   3.953   2.219  0.3629  0.2380  0.0078
 2460SOL     OW 9605   5.914   2.352   5.144  0.0856  0.4125 -0.2120
 2460SOL    HW2 9606   5.892   2.403   5.221 -0.5747  2.5495 -1.7257
 2460SOL    HW3 9607   5.850   2.280   5.144  1.7824 -1.2773  2.5916
 2460SOL    MW4 9608   5.902   2.349   5.154  0.2223  0.4715 -0.0418
 2461SOL     OW 9609   3.530   5.823   3.578 -0.3186  0.0726  0.1236
 2461SOL    HW2 9610   3.585   5.766   3.632 -1.7759 -0.6405  0.9354
 2461SOL    HW3 9611   3.563   5.813   3.489  0.0429 -1.3266  0.4002
 2461SOL    MW4 9612   3.542   5.814   3.574 -0.4632 -0.2061  0.2672
 2462SOL     OW 9613   3.833   0.610   6.117 -0.0604 -0.2703  0.2087
 2462SOL    HW2 9614   3.895   0.655   6.060 -0.2557 -1.1917 -0.7630
 2462SOL    HW3 9615   3.756   0.666   6.119  0.7932  0.9319  1.5032
 2462SOL    MW4 9616   3.831   0.623   6.110  0.0264 -0.2333  0.2513
 2463SOL     OW 9617   4.558   3.676   4.651 -0.4418 -0.4794 -0.1167
 2463SOL    HW2 9618   4.525   3.633   4.730 -0.2898 -0.1268  0.1375
 2463SOL    HW3 9619   4.512   3.631   4.579  0.4532 -1.7566  0.0739
 2463SOL    MW4 9620   4.547   3.665   4.652 -0.3037 -0.6014 -0.0580
 2464SOL     OW 9621   4.881   4.496   0.769  0.1151 -0.4664  0.3396
 2464SOL    HW2 9622   4.842   4.562   0.712 -0.0456 -0.5777  0.3221
 2464SOL    HW3 9623   4.858   4.523   0.857  1.6884  0.6006  0.4782
 2464SOL    MW4 9624   4.873   4.508   0.773  0.3015 -0.3403  0.3556
 2465SOL     OW 9625   5.507   4.019   3.688 -0.2157 -0.2446  0.3191
 2465SOL    HW2 9626   5.552   3.952   3.740  1.1070  0.5597  0.2626
 2465SOL    HW3 9627   5.530   3.999   3.598  1.5685  1.1904  0.3943
 2465SOL    MW4 9628   5.516   4.007   3.683  0.1942  0.0509  0.3216
 2466SOL     OW 9629   4.798   0.696   5.315  0.3149 -0.0144 -0.0240
 2466SOL    HW2 9630   4.797   0.784   5.276 -0.0662 -0.6850 -1.6137
 2466SOL    HW3 9631   4.888   0.666   5.302  0.5391  0.2729  0.8453
 2466SOL    MW4 9632   4.810   0.704   5.308  0.2942 -0.0649 -0.1190
 2467SOL     OW 9633   5.331   2.607   0.864 -0.2866  0.2930  0.1422
 2467SOL    HW2 9634   5.306   2.600   0.772  1.7647 -0.1215 -0.4332
 2467SOL    HW3 9635   5.281   2.538   0.908  0.2453 -0.8959 -1.0353
 2467SOL    MW4 9636   5.321   2.597   0.858  0.0542  0.0815 -0.0891
 2468SOL     OW 9637   2.444   4.010   4.233  0.7126  0.3055  0.1677
 2468SOL    HW2 9638   2.369   4.067   4.218  0.5947 -0.0837 -0.7944
 2468SOL    HW3 9639   2.405   3.924   4.251  0.9029  0.3884  1.0265
 2468SOL    MW4 9640   2.429   4.006   4.234  0.7222  0.2651  0.1540
 2469SOL     OW 9641   2.122   3.732   5.175  0.2578 -0.1751  0.6323
 2469SOL    HW2 9642   2.149   3.650   5.215 -1.4493 -0.0435  2.1947
 2469SOL    HW3 9643   2.105   3.791   5.249  0.3150  1.2105 -0.4057
 2469SOL    MW4 9644   2.123   3.729   5.190  0.0401  0.0251  0.7015
 2470SOL     OW 9645   2.370   3.779   0.524 -0.0704 -0.1847 -0.5130
 2470SOL    HW2 9646   2.278   3.799   0.505 -0.0546 -0.2563 -0.6687
 2470SOL    HW3 9647   2.420   3.837   0.467 -0.0090  0.3660  0.0921
 2470SOL    MW4 9648   2.364   3.789   0.514 -0.0602 -0.1215 -0.4537
 2471SOL     OW 9649   3.534   4.783   5.953 -0.0997  0.2364  0.1209
 2471SOL    HW2 9650   3.591   4.707   5.963 -1.2399 -0.5639  0.7837
 2471SOL    HW3 9651   3.593   4.856   5.934  1.3016 -0.2195  2.4212
 2471SOL    MW4 9652   3.549   4.783   5.951 -0.0653  0.0707  0.5118
 2472SOL     OW 9653   4.058   6.271   4.707 -0.0231 -0.2674  0.4228
 2472SOL    HW2 9654   3.973   6.263   4.751  0.2576 -2.2017  0.6979
 2472SOL    HW3 9655   4.103   6.190   4.728  0.6267 -0.7316 -2.3997
 2472SOL    MW4 9656   4.053   6.259   4.716  0.0997 -0.5839  0.0867
 2473SOL     OW 9657   5.976   3.683   1.482 -0.2491 -0.0601 -0.5129
 2473SOL    HW2 9658   5.914   3.744   1.521 -1.5970 -1.6335 -0.0862
 2473SOL    HW3 9659   6.040   3.665   1.551 -0.4069  0.1174 -0.3195
 2473SOL    MW4 9660   5.976   3.688   1.496 -0.4478 -0.2443 -0.4311
 2474SOL     OW 9661   0.349   6.262   5.173  0.0568  0.5972  0.6965
 2474SOL    HW2 9662   0.303   6.194   5.125  1.1640 -0.0823  0.5694
 2474SOL    HW3 9663   0.394   6.313   5.106  0.0094  0.8635  0.8647
 2474SOL    MW4 9664   0.348   6.260   5.158  0.1967  0.5427  0.7020
 2475SOL     OW 9665   0.351   1.310   1.983  0.1550 -0.3950 -0.1219
 2475SOL    HW2 9666   0.334   1.276   1.895 -0.0898 -1.1467  0.2093
 2475SOL    HW3 9667   0.446   1.301   1.994  0.3736  0.9167 -0.7957
 2475SOL    MW4 9668   0.361   1.304   1.973  0.1516 -0.3211 -0.1671
 2476SOL     OW 9669   3.327   2.125   0.503  0.5657 -0.5065 -0.2949
 2476SOL    HW2 9670   3.392   2.145   0.436  1.6051 -0.0582  0.8087
 2476SOL    HW3 9671   3.318   2.206   0.553 -0.4604 -0.7242 -0.0906
 2476SOL    MW4 9672   3.334   2.139   0.501  0.5675 -0.4761 -0.1223
 2477SOL     OW 9673   0.372   1.217   4.525  0.5016 -0.3358  0.0109
 2477SOL    HW2 9674   0.403   1.300   4.562  2.0757 -0.6467 -0.5305
 2477SOL    HW3 9675   0.420   1.209   4.442 -0.4793 -1.2461 -0.4859
 2477SOL    MW4 9676   0.382   1.227   4.519  0.5798 -0.4969 -0.1261
 2478SOL     OW 9677   4.516   2.670   0.896  0.5377 -0.1036 -0.1694
 2478SOL    HW2 9678   4.599   2.645   0.855  0.8276  0.1364  0.2582
 2478SOL    HW3 9679   4.527   2.648   0.988  0.7406  1.3973  0.1955
 2478SOL    MW4 9680   4.528   2.664   0.903  0.6027  0.1261 -0.0649
 2479SOL     OW 9681   2.539   1.625   6.029 -1.0503 -0.2784 -0.3333
 2479SOL    HW2 9682   2.539   1.642   6.123  0.6316 -0.0245 -0.3538
 2479SOL    HW3 9683   2.477   1.689   5.993 -2.9487 -1.4171  0.7157
 2479SOL    MW4 9684   2.531   1.636   6.036 -1.0789 -0.3951 -0.1976
 2480SOL     OW 9685   1.907   3.635   1.289  0.5255  0.3274 -0.3979
 2480SOL    HW2 9686   1.834   3.573   1.283  0.0917  0.7893  0.0242
 2480SOL    HW3 9687   1.871   3.710   1.336  1.2950  0.5324 -0.1213
 2480SOL    MW4 9688   1.893   3.637   1.294  0.5698  0.4154 -0.3057
 2481SOL     OW 9689   1.133   3.374   2.156 -0.3557  0.5347 -0.6801
 2481SOL    HW2 9690   1.137   3.429   2.077  1.3419  0.3761 -0.7375
 2481SOL    HW3 9691   1.058   3.316   2.141  1.6115 -1.5278 -3.5869
 2481SOL    MW4 9692   1.124   3.374   2.144  0.1279  0.2416 -1.0712
 2482SOL     OW 9693   3.264   0.171   4.310 -0.3699 -0.5847 -0.6934
 2482SOL    HW2 9694   3.178   0.136   4.287 -0.1893 -1.1178 -0.5829
 2482SOL    HW3 9695   3.269   0.256   4.266 -0.3411 -1.2322 -1.9732
 2482SOL    MW4 9696   3.254   0.177   4.302 -0.3423 -0.7404 -0.8477
 2483SOL     OW 9697   5.819   3.887   2.761 -0.5118  0.1903 -0.1339
 2483SOL    HW2 9698   5.773   3.856   2.683 -1.2913  0.6604  0.1239
 2483SOL    HW3 9699   5.769   3.964   2.789 -0.8580 -0.5474  1.3940
 2483SOL    MW4 9700   5.806   3.893   2.754 -0.6604  0.1550  0.1017
 2484SOL     OW 9701   2.479   1.970   4.125 -0.0350  0.5521  0.4211
 2484SOL    HW2 9702   2.489   2.046   4.183  0.0285  1.1014 -0.2944
 2484SOL    HW3 9703   2.487   1.895   4.183  3.7201  0.9504  0.7015
 2484SOL    MW4 9704   2.481   1.970   4.141  0.4688  0.6771  0.3637
 2485SOL     OW 9705   2.220   0.908   0.529 -0.7509 -0.2076 -0.2833
 2485SOL    HW2 9706   2.296   0.958   0.498 -1.2697  2.3159  2.1077
 2485SOL    HW3 9707   2.249   0.816   0.525  1.7733  0.5328 -1.0607
 2485SOL    MW4 9708   2.234   0.902   0.524 -0.4863  0.2231 -0.0704
 2486SOL     OW 9709   5.893   2.626   6.018  0.2509 -0.5837  0.0039
 2486SOL    HW2 9710   5.934   2.699   5.971  0.2346 -1.2031 -0.9987
 2486SOL    HW3 9711   5.844   2.668   6.089 -0.4990  0.4616 -1.1015
 2486SOL    MW4 9712   5.892   2.642   6.021  0.1498 -0.5275 -0.2743
 2487SOL     OW 9713   2.137   4.761   1.820 -0.1633  0.3302 -0.0614
 2487SOL    HW2 9714   2.216   4.707   1.820 -0.3868 -0.0264 -1.3362
 2487SOL    HW3 9715   2.113   4.768   1.728 -0.8688  1.5525  0.1937
 2487SOL    MW4 9716   2.145   4.755   1.808 -0.2859  0.4445 -0.1960
 2488SOL     OW 9717   0.355   4.217   4.163 -0.3175  0.0620  0.3518
 2488SOL    HW2 9718   0.421   4.265   4.212  0.0315 -1.0749  1.0291
 2488SOL    HW3 9719   0.290   4.192   4.229 -1.5519  1.3215 -0.3277
 2488SOL    MW4 9720   0.355   4.220   4.179 -0.4343  0.0782  0.3515
 2489SOL     OW 9721   6.155   2.715   0.517 -0.2060  0.0385  0.2614
 2489SOL    HW2 9722   6.074   2.752   0.482  0.1675  0.4444 -0.2012
 2489SOL    HW3 9723   6.146   2.723   0.612 -0.7950 -0.1172  0.2229
 2489SOL    MW4 9724   6.143   2.721   0.525 -0.2344  0.0715  0.1953
 2490SOL     OW 9725   0.050   0.372   6.293  0.5214 -0.2197  0.2850
 2490SOL    HW2 9726   0.056   0.318   6.372 -0.1220 -0.5601  0.1107
 2490SOL    HW3 9727   0.097   0.322   6.226 -1.3305 -1.3128 -0.2580
 2490SOL    MW4 9728   0.057   0.359   6.294  0.1922 -0.4088  0.1904
 2491SOL     OW 9729   6.209   1.310   0.890  0.0869 -0.2791  0.2536
 2491SOL    HW2 9730   6.241   1.383   0.944  1.0435 -0.8978  0.5418
 2491SOL    HW3 9731   6.246   1.326   0.804  0.3535 -0.4677  0.3347
 2491SOL    MW4 9732   6.218   1.322   0.886  0.2483 -0.3856  0.3023
 2492SOL     OW 9733   2.912   4.422   5.212  0.0163 -0.2944  0.4705
 2492SOL    HW2 9734   2.927   4.327   5.213  1.3297 -0.2314 -2.4037
 2492SOL    HW3 9735   2.978   4.457   5.272  1.4730 -1.0687 -0.6028
 2492SOL    MW4 9736   2.923   4.414   5.220  0.3818 -0.3883 -0.0503
 2493SOL     OW 9737   5.853   3.622   4.967  0.0065 -0.3752 -0.3764
 2493SOL    HW2 9738   5.804   3.684   5.022  0.5369  0.4409 -0.8058
 2493SOL    HW3 9739   5.942   3.624   5.002  0.1567 -0.4686 -0.7469
 2493SOL    MW4 9740   5.858   3.631   4.979  0.0963 -0.2799 -0.4819
 2494SOL     OW 9741   4.850   1.781   4.959 -0.0262  0.5493 -0.3955
 2494SOL    HW2 9742   4.807   1.793   4.874 -0.1470 -1.3144 -0.6377
 2494SOL    HW3 9743   4.786   1.733   5.011  1.7912 -2.6219 -0.8722
 2494SOL    MW4 9744   4.836   1.776   4.954  0.1977 -0.1150 -0.4904
 2495SOL     OW 9745   4.460   1.652   4.497 -0.2629  0.4743 -0.1146
 2495SOL    HW2 9746   4.481   1.682   4.585  0.2474 -0.4624  0.1015
 2495SOL    HW3 9747   4.486   1.560   4.496  1.1366  0.8312 -1.6804
 2495SOL    MW4 9748   4.466   1.644   4.508 -0.0110  0.3978 -0.2927
 2496SOL     OW 9749   5.729   0.611   0.066 -0.0106  0.2708  0.0936
 2496SOL    HW2 9750   5.658   0.597   0.128 -2.7593  0.5801 -2.7298
 2496SOL    HW3 9751   5.759   0.523   0.042 -0.5747  0.0804  0.0951
 2496SOL    MW4 9752   5.724   0.597   0.071 -0.4477  0.2865 -0.2787
 2497SOL     OW 9753   4.848   1.579   0.620  0.2345  0.3960 -0.5332
 2497SOL    HW2 9754   4.789   1.625   0.680 -1.5366 -0.3953 -1.6152
 2497SOL    HW3 9755   4.833   1.619   0.535  0.9424 -0.1273 -0.9179
 2497SOL    MW4 9756   4.838   1.590   0.617  0.0942  0.2226 -0.7267
 2498SOL     OW 9757   3.767   0.368   3.034 -0.5958  0.0082 -0.0793
 2498SOL    HW2 9758   3.834   0.427   3.001 -1.6673  0.6490 -1.1945
 2498SOL    HW3 9759   3.795   0.281   3.006 -0.6830  0.3744 -1.3634
 2498SOL    MW4 9760   3.779   0.364   3.026 -0.7487  0.1410 -0.3959
 2499SOL     OW 9761   2.336   1.927   3.495 -0.2808 -0.3440  0.4518
 2499SOL    HW2 9762   2.414   1.977   3.471 -0.5710 -0.2354 -0.2865
 2499SOL    HW3 9763   2.370   1.844   3.528  0.1531 -0.2267  0.3049
 2499SOL    MW4 9764   2.351   1.922   3.496 -0.2618 -0.3142  0.3350
 2500SOL     OW 9765   1.323   2.484   3.294  0.1738  0.3400  0.2007
 2500SOL    HW2 9766   1.325   2.431   3.373  1.2433  0.4530  0.2671
 2500SOL    HW3 9767   1.415   2.494   3.270  0.0070  2.1348  0.1779
 2500SOL    MW4 9768   1.336   2.479   3.301  0.2929  0.5917  0.2065
 2501SOL     OW 9769   2.331   6.016   4.938  0.4358  0.3222 -0.3710
 2501SOL    HW2 9770   2.300   6.076   5.006 -0.3787  0.4814 -0.8799
 2501SOL    HW3 9771   2.415   5.983   4.972  0.5458  1.1960  0.2345
 2501SOL    MW4 9772   2.338   6.019   4.952  0.3428  0.4585 -0.3583
 2502SOL     OW 9773   4.257   4.759   0.144 -0.0622 -0.0317 -0.1710
 2502SOL    HW2 9774   4.323   4.813   0.187 -0.4415  0.2051  0.1175
 2502SOL    HW3 9775   4.184   4.756   0.206  0.0087 -0.9877 -0.1286
 2502SOL    MW4 9776   4.256   4.766   0.158 -0.1029 -0.1266 -0.1273
 2503SOL     OW 9777   5.672   6.374   5.750  0.0673 -0.1100  0.5467
 2503SOL    HW2 9778   5.582   6.343   5.738  0.3595 -0.5581 -0.6112
 2503SOL    HW3 9779   5.725   6.313   5.698  1.1838 -0.5897  2.1764
 2503SOL    MW4 9780   5.667   6.362   5.742  0.2532 -0.2324  0.6089
 2504SOL     OW 9781   4.318   2.575   4.476  0.2942  0.0243  0.4832
 2504SOL    HW2 9782   4.336   2.505   4.539  1.6924 -0.6204 -0.5559
 2504SOL    HW3 9783   4.224   2.589   4.482  0.1136 -1.3127  1.3873
 2504SOL    MW4 9784   4.308   2.567   4.485  0.4549 -0.2372  0.4654
 2505SOL     OW 9785   2.095   0.124   0.398  0.3836 -0.4487  0.0597
 2505SOL    HW2 9786   2.122   0.154   0.484  0.5967 -0.0286 -0.1537
 2505SOL    HW3 9787   2.010   0.082   0.413 -0.0040  0.4111  0.3357
 2505SOL    MW4 9788   2.087   0.122   0.411  0.3606 -0.2798  0.0680
 2506SOL     OW 9789   6.197   0.429   3.370 -0.9132  0.4440  0.2163
 2506SOL    HW2 9790   6.114   0.460   3.407 -0.8407 -1.5836  2.3082
 2506SOL    HW3 9791   6.264   0.468   3.427 -0.6000 -0.1691  0.2699
 2506SOL    MW4 9792   6.194   0.438   3.383 -0.8623  0.0956  0.4994
 2507SOL     OW 9793   3.734   4.202   4.006  0.2518 -0.2630  0.1365
 2507SOL    HW2 9794   3.690   4.286   4.016  1.3638  0.3311  0.2144
 2507SOL    HW3 9795   3.692   4.161   3.931 -1.4263 -0.3801  1.0904
 2507SOL    MW4 9796   3.723   4.207   3.998  0.1771 -0.2001  0.2726
 2508SOL     OW 9797   1.576   3.554   5.487  0.4616 -0.3914  0.6371
 2508SOL    HW2 9798   1.581   3.459   5.498  1.5850 -0.5165 -0.6234
 2508SOL    HW3 9799   1.531   3.566   5.404 -0.1008  0.1993  1.0193
 2508SOL    MW4 9800   1.571   3.543   5.477  0.5357 -0.3300  0.5212
 2509SOL     OW 9801   4.799   4.518   3.643 -0.2613 -0.3210 -0.0900
 2509SOL    HW2 9802   4.792   4.473   3.559 -0.9949  0.0371 -0.2258
 2509SOL    HW3 9803   4.719   4.569   3.650  0.2898  0.5051  0.3327
 2509SOL    MW4 9804   4.788   4.519   3.633 -0.2854 -0.1648 -0.0522
 2510SOL     OW 9805   6.073   1.647   4.785  0.3228 -0.0421 -0.1045
 2510SOL    HW2 9806   6.007   1.698   4.738 -1.6207 -0.2499  2.2003
 2510SOL    HW3 9807   6.106   1.707   4.852  0.4863 -0.7916  0.4995
 2510SOL    MW4 9808   6.069   1.662   4.788  0.0880 -0.1684  0.2793
 2511SOL     OW 9809   2.143   5.693   1.103  0.2204  0.3873  0.2056
 2511SOL    HW2 9810   2.143   5.751   1.027 -0.6254  2.0197  1.3865
 2511SOL    HW3 9811   2.221   5.717   1.152  1.3788 -1.4340 -0.6496
 2511SOL    MW4 9812   2.153   5.704   1.099  0.2616  0.3624  0.2486
 2512SOL     OW 9813   3.675   1.683   4.028 -0.0141  0.5079  0.0269
 2512SOL    HW2 9814   3.701   1.605   3.979 -1.2013 -1.0742  1.7969
 2512SOL    HW3 9815   3.651   1.651   4.114 -1.4587  2.7179  0.5360
 2512SOL    MW4 9816   3.676   1.669   4.033 -0.3614  0.5907  0.3276
 2513SOL     OW 9817   0.408   1.689   5.727 -0.5455 -0.6989 -0.1684
 2513SOL    HW2 9818   0.476   1.645   5.676  1.0209 -0.4181  1.5736
 2513SOL    HW3 9819   0.357   1.618   5.765 -0.8722 -0.9180 -0.9824
 2513SOL    MW4 9820   0.410   1.674   5.725 -0.3819 -0.6908 -0.0460
 2514SOL     OW 9821   3.933   0.294   0.036 -0.7785 -0.3684 -0.0447
 2514SOL    HW2 9822   3.882   0.213   0.041 -0.6366 -0.4681 -0.2015
 2514SOL    HW3 9823   3.932   0.329   0.125  2.0419 -2.2922  0.8659
 2514SOL    MW4 9824   3.926   0.288   0.048 -0.3876 -0.6354  0.0548
 2515SOL     OW 9825   5.180   2.844   0.765 -0.5669  0.1175 -0.2663
 2515SOL    HW2 9826   5.190   2.763   0.815 -0.3354  0.9206  1.0475
 2515SOL    HW3 9827   5.087   2.863   0.768 -0.5402  0.2184 -0.0379
 2515SOL    MW4 9828   5.169   2.836   0.772 -0.5328  0.2368 -0.0628
 2516SOL     OW 9829   1.738   0.876   2.792 -0.3480  0.0292 -0.2052
 2516SOL    HW2 9830   1.705   0.955   2.749  0.4490  0.0999 -0.6991
 2516SOL    HW3 9831   1.786   0.908   2.868  2.2501  0.2515 -1.8237
 2516SOL    MW4 9832   1.740   0.890   2.796  0.0999  0.0679 -0.4839
 2517SOL     OW 9833   6.008   5.499   5.254 -0.4055  0.4598 -0.0451
 2517SOL    HW2 9834   6.045   5.498   5.342  1.9121 -0.9847 -0.9186
 2517SOL    HW3 9835   5.998   5.406   5.231 -2.2674  0.8045 -0.8439
 2517SOL    MW4 9836   6.012   5.486   5.262 -0.3454  0.3147 -0.2657
 2518SOL     OW 9837   4.800   4.208   4.047  0.9148 -0.1487 -0.4596
 2518SOL    HW2 9838   4.826   4.298   4.029 -1.3992  0.5363 -0.6245
 2518SOL    HW3 9839   4.796   4.166   3.960 -1.4291  0.6308 -0.7950
 2518SOL    MW4 9840   4.803   4.214   4.033  0.3002  0.0445 -0.5256
 2519SOL     OW 9841   1.087   5.396   5.065  0.3142 -0.1466  0.2611
 2519SOL    HW2 9842   1.145   5.425   5.135  2.2974 -2.9675 -0.0454
 2519SOL    HW3 9843   1.145   5.377   4.991 -1.0249 -2.2599 -0.3527
 2519SOL    MW4 9844   1.102   5.397   5.065  0.3991 -0.7976  0.1397
 2520SOL     OW 9845   3.525   1.221   0.096  0.3221 -0.6633  0.1680
 2520SOL    HW2 9846   3.529   1.181   0.183  0.8638 -0.4262  0.2540
 2520SOL    HW3 9847   3.583   1.297   0.102 -0.0941 -0.3122 -0.2286
 2520SOL    MW4 9848   3.533   1.226   0.109  0.3386 -0.5857  0.1270
 2521SOL     OW 9849   1.860   0.551   1.405 -0.1569 -0.2447  0.3416
 2521SOL    HW2 9850   1.912   0.492   1.350 -0.4818  1.1611 -1.5853
 2521SOL    HW3 9851   1.903   0.636   1.396 -0.7027  0.1924  1.6534
 2521SOL    MW4 9852   1.873   0.554   1.396 -0.2718 -0.0016  0.2605
 2522SOL     OW 9853   5.904   2.135   5.939  0.2729 -0.2247 -0.5091
 2522SOL    HW2 9854   5.904   2.231   5.934 -0.8528 -0.2416 -1.1928
 2522SOL    HW3 9855   5.812   2.111   5.930  0.1470 -1.2691  2.5070
 2522SOL    MW4 9856   5.892   2.145   5.937  0.1078 -0.3647 -0.2013
 2523SOL     OW 9857   4.382   2.270   0.695 -0.2830  0.1531  0.3584
 2523SOL    HW2 9858   4.474   2.246   0.682 -0.5813 -0.8039 -0.0624
 2523SOL    HW3 9859   4.354   2.219   0.771 -0.0903  1.5183  1.3777
 2523SOL    MW4 9860   4.390   2.260   0.703 -0.2970  0.2069  0.4373
 2524SOL     OW 9861   6.102   2.763   1.829  0.3654  0.3450  0.0945
 2524SOL    HW2 9862   6.028   2.770   1.888  0.8739  0.8354  0.6890
 2524SOL    HW3 9863   6.096   2.674   1.793 -1.9096  1.1667 -1.7780
 2524SOL    MW4 9864   6.092   2.752   1.832  0.1323  0.5181 -0.0741
 2525SOL     OW 9865   6.196   6.308   2.528 -0.1450  0.0430 -0.2995
 2525SOL    HW2 9866   6.199   6.374   2.458  1.6759  2.0226  1.4866
 2525SOL    HW3 9867   6.244   6.233   2.493 -2.1228 -0.4046 -2.3273
 2525SOL    MW4 9868   6.203   6.307   2.514 -0.1657  0.2451 -0.3314
 2526SOL     OW 9869   2.352   3.742   4.142  0.9972 -0.1156 -0.0541
 2526SOL    HW2 9870   2.290   3.687   4.190  1.2249 -0.0118  0.3687
 2526SOL    HW3 9871   2.298   3.804   4.094  0.7584 -0.3289 -0.0570
 2526SOL    MW4 9872   2.337   3.743   4.142  0.9957 -0.1300  0.0013
 2527SOL     OW 9873   5.428   3.968   0.588  0.0579 -0.5843 -0.4369
 2527SOL    HW2 9874   5.410   4.002   0.676 -0.1017  0.7958 -0.9646
 2527SOL    HW3 9875   5.408   4.042   0.530  0.9568 -1.1937 -1.5647
 2527SOL    MW4 9876   5.423   3.983   0.592  0.1554 -0.4826 -0.6553
 2528SOL     OW 9877   5.036   3.965   6.311  0.4094  0.0005 -0.4873
 2528SOL    HW2 9878   5.099   4.015   6.363  0.0595  1.4296 -1.3953
 2528SOL    HW3 9879   5.089   3.921   6.245  0.8734 -1.9129  1.0460
 2528SOL    MW4 9880   5.051   3.966   6.309  0.4245 -0.0634 -0.4048
 2529SOL     OW 9881   4.423   3.376   2.219 -0.0186 -0.0611  0.1058
 2529SOL    HW2 9882   4.367   3.354   2.294  0.3462 -2.1348 -0.1683
 2529SOL    HW3 9883   4.393   3.319   2.149  1.1357  0.2256 -0.6561
 2529SOL    MW4 9884   4.412   3.366   2.219  0.1818 -0.2969 -0.0309
 2530SOL     OW 9885   5.213   3.437   3.970  0.8889 -0.0771  0.6330
 2530SOL    HW2 9886   5.201   3.528   3.997  0.1554 -0.0691  0.2811
 2530SOL    HW3 9887   5.233   3.391   4.052 -1.0969 -0.0111  1.2072
 2530SOL    MW4 9888   5.214   3.443   3.984  0.5301 -0.0673  0.6623
 2531SOL     OW 9889   3.107   3.300   4.579  0.4217  0.4384  0.4049
 2531SOL    HW2 9890   3.149   3.327   4.661 -0.1370  0.3409  0.7302
 2531SOL    HW3 9891   3.014   3.314   4.594  0.4031  1.7582 -0.7088
 2531SOL    MW4 9892   3.100   3.305   4.592  0.3455  0.5997  0.3009
 2532SOL     OW 9893   3.924   4.651   1.878 -0.4690 -0.0740  0.7067
 2532SOL    HW2 9894   3.988   4.718   1.904  0.5985 -1.4009  1.6353
 2532SOL    HW3 9895   3.906   4.669   1.786  1.9574 -0.1799  0.1437
 2532SOL    MW4 9896   3.930   4.662   1.869 -0.0080 -0.2631  0.7549
 2533SOL     OW 9897   6.148   5.194   4.004 -0.5453 -0.5180 -0.2864
 2533SOL    HW2 9898   6.186   5.273   4.043 -1.2475  0.6150 -1.7988
 2533SOL    HW3 9899   6.223   5.137   3.986  0.2439  0.7618 -1.2157
 2533SOL    MW4 9900   6.163   5.197   4.007 -0.5338 -0.1996 -0.6086
 2534SOL     OW 9901   0.931   3.351   5.224 -0.1629  0.5429  0.1959
 2534SOL    HW2 9902   0.981   3.390   5.152 -3.2543  1.1595 -1.8404
 2534SOL    HW3 9903   0.979   3.271   5.246  2.1719  1.5373 -0.8982
 2534SOL    MW4 9904   0.944   3.346   5.217 -0.2627  0.7554 -0.2171
 2535SOL     OW 9905   1.973   4.235   3.213 -0.3051 -0.1447  0.1476
 2535SOL    HW2 9906   1.894   4.194   3.179 -0.6577 -1.1484  2.0753
 2535SOL    HW3 9907   1.978   4.208   3.305  2.4605 -0.4257  0.0202
 2535SOL    MW4 9908   1.963   4.226   3.221  0.0133 -0.3142  0.3851
 2536SOL     OW 9909   4.643   3.789   1.150  0.2972  0.0759 -0.0378
 2536SOL    HW2 9910   4.633   3.773   1.056  1.3405  2.1446 -0.5572
 2536SOL    HW3 9911   4.721   3.740   1.174  0.0867 -0.3781 -0.2726
 2536SOL    MW4 9912   4.652   3.780   1.141  0.4071  0.2890 -0.1373
 2537SOL     OW 9913   4.093   2.988   4.009  0.8002 -0.6631 -0.4659
 2537SOL    HW2 9914   4.074   2.939   4.089 -0.5383 -1.3508 -1.1818
 2537SOL    HW3 9915   4.089   3.080   4.036 -1.3435 -0.8337 -0.0736
 2537SOL    MW4 9916   4.090   2.994   4.023  0.3408 -0.7763 -0.5086
 2538SOL     OW 9917   5.207   1.258   2.963  0.3134  0.0617 -0.7059
 2538SOL    HW2 9918   5.130   1.201   2.961  0.0039  0.4849 -1.5463
 2538SOL    HW3 9919   5.173   1.344   2.940  0.8311  0.5294  0.2123
 2538SOL    MW4 9920   5.192   1.262   2.960  0.3409  0.1792 -0.6957
 2539SOL     OW 9921   3.738   4.810   3.265 -0.2661 -0.0544 -0.5947
 2539SOL    HW2 9922   3.682   4.774   3.196 -3.4665  3.5358 -0.2547
 2539SOL    HW3 9923   3.707   4.769   3.345 -2.0549  1.2899 -0.5183
 2539SOL    MW4 9924   3.726   4.800   3.266 -0.9244  0.5967 -0.5397
 2540SOL     OW 9925   3.166   1.153   5.609  0.2069 -0.0573 -0.0035
 2540SOL    HW2 9926   3.127   1.184   5.528  2.0682 -0.5961 -1.1627
 2540SOL    HW3 9927   3.109   1.080   5.636 -0.7780  0.5157 -0.4620
 2540SOL    MW4 9928   3.153   1.147   5.602  0.3225 -0.0528 -0.2169
 2541SOL     OW 9929   0.244   0.335   6.071  0.6328 -0.1956  0.5889
 2541SOL    HW2 9930   0.159   0.362   6.036  0.3065 -0.7112  0.9579
 2541SOL    HW3 9931   0.265   0.402   6.136  1.0379  0.5291 -0.2819
 2541SOL    MW4 9932   0.235   0.347   6.075  0.6432 -0.1680  0.5227
 2542SOL     OW 9933   3.030   0.663   3.420  0.1109  0.1820 -0.2136
 2542SOL    HW2 9934   3.063   0.690   3.506  0.7032  1.0388 -0.6960
 2542SOL    HW3 9935   3.099   0.687   3.359 -0.0579 -0.9443 -0.8744
 2542SOL    MW4 9936   3.043   0.670   3.423  0.1668  0.1465 -0.3645
 2543SOL     OW 9937   4.544   3.270   4.306 -0.0992 -0.6609 -0.2289
 2543SOL    HW2 9938   4.616   3.244   4.363  0.4044 -1.4956 -1.2025
 2543SOL    HW3 9939   4.580   3.340   4.252 -1.3494  2.0032  2.1516
 2543SOL    MW4 9940   4.558   3.276   4.306 -0.1977 -0.4195 -0.0433
 2544SOL     OW 9941   0.704   3.284   2.921  0.1698 -0.1694 -0.4792
 2544SOL    HW2 9942   0.685   3.214   2.859 -1.7178 -1.2666  1.1890
 2544SOL    HW3 9943   0.706   3.241   3.006  1.7605  1.4183  0.3584
 2544SOL    MW4 9944   0.701   3.269   2.924  0.1306 -0.1047 -0.1486
 2545SOL     OW 9945   1.719   3.425   2.923  0.4994  0.0453  0.4274
 2545SOL    HW2 9946   1.713   3.511   2.965  0.2737  0.0605  0.3660
 2545SOL    HW3 9947   1.629   3.407   2.894  0.1943 -0.9286  1.8566
 2545SOL    MW4 9948   1.706   3.434   2.925  0.4294 -0.0812  0.6079
 2546SOL     OW 9949   4.718   5.220   5.910  0.1595 -0.6903  0.3827
 2546SOL    HW2 9950   4.630   5.239   5.944  0.3933  0.8577  0.2071
 2546SOL    HW3 9951   4.777   5.271   5.965  0.6442  0.9254 -1.5074
 2546SOL    MW4 9952   4.714   5.229   5.921  0.2543 -0.2729  0.1102
 2547SOL     OW 9953   1.558   4.598   5.966  0.1069  0.1977 -0.6168
 2547SOL    HW2 9954   1.620   4.667   5.991 -1.6501  1.2474  1.1587
 2547SOL    HW3 9955   1.612   4.519   5.961  1.9700  1.4329 -1.4240
 2547SOL    MW4 9956   1.574   4.596   5.969  0.1209  0.4991 -0.4890
 2548SOL     OW 9957   4.743   5.625   2.888 -0.1152 -0.1031  0.1233
 2548SOL    HW2 9958   4.816   5.658   2.940 -0.3083  0.9093 -0.2250
 2548SOL    HW3 9959   4.766   5.534   2.869  0.9715  0.1492  0.1661
 2548SOL    MW4 9960   4.756   5.617   2.892  0.0027  0.0637  0.0830
 2549SOL     OW 9961   2.382   5.876   5.744 -0.5609  0.6237 -0.3818
 2549SOL    HW2 9962   2.411   5.805   5.686 -0.0838 -1.1978  1.9214
 2549SOL    HW3 9963   2.293   5.853   5.768 -0.2879  0.5945  0.6535
 2549SOL    MW4 9964   2.374   5.864   5.739 -0.4619  0.3795  0.0587
 2550SOL     OW 9965   0.751   4.220   4.478  0.7427  0.1554 -0.1725
 2550SOL    HW2 9966   0.794   4.280   4.538  0.1179  1.3646 -0.8951
 2550SOL    HW3 9967   0.701   4.161   4.535  1.7799 -0.0293  0.5702
 2550SOL    MW4 9968   0.750   4.220   4.493  0.7971  0.2905 -0.1699
 2551SOL     OW 9969   0.024   3.774   3.583  0.6014  0.0596 -0.2306
 2551SOL    HW2 9970   0.009   3.861   3.621  1.7317 -0.1270  0.6923
 2551SOL    HW3 9971  -0.055   3.724   3.604 -0.8873  1.3409 -2.3347
 2551SOL    MW4 9972   0.012   3.779   3.591  0.5541  0.2040 -0.3865
 2552SOL     OW 9973   0.136   5.542   0.389  0.5843 -0.6753 -0.6932
 2552SOL    HW2 9974   0.120   5.554   0.295 -3.0195  0.5025 -0.0767
 2552SOL    HW3 9975   0.209   5.600   0.408  1.7298 -1.2984 -2.7981
 2552SOL    MW4 9976   0.143   5.551   0.379  0.2600 -0.6021 -0.8895
 2553SOL     OW 9977   6.110   0.622   3.819  0.3463  0.2352 -0.3144
 2553SOL    HW2 9978   6.033   0.571   3.847  0.2796 -0.5471 -1.8168
 2553SOL    HW3 9979   6.075   0.685   3.756  0.8919 -0.0428 -0.9129
 2553SOL    MW4 9980   6.095   0.623   3.814  0.4095  0.0953 -0.5916
 2554SOL     OW 9981   0.950   3.923   4.833 -0.0315  0.1188 -0.0235
 2554SOL    HW2 9982   0.916   3.843   4.793  2.5056 -0.4127 -1.3160
 2554SOL    HW3 9983   1.033   3.896   4.873 -0.1557  1.6868  1.3875
 2554SOL    MW4 9984   0.957   3.909   4.833  0.2869  0.2555 -0.0078
 2555SOL     OW 9985   4.919   0.802   2.354 -0.3016 -0.1521 -0.6289
 2555SOL    HW2 9986   5.014   0.803   2.359 -0.2996 -0.9561 -0.3920
 2555SOL    HW3 9987   4.892   0.882   2.400  0.2817  0.8062 -1.8877
 2555SOL    MW4 9988   4.928   0.813   2.361 -0.2244 -0.1318 -0.7637
 2556SOL     OW 9989   1.061   3.511   0.985  0.3992  0.4171  0.5419
 2556SOL    HW2 9990   0.972   3.489   0.957  1.4440 -1.5598 -1.4877
 2556SOL    HW3 9991   1.100   3.554   0.910  2.1520 -1.7437  0.1224
 2556SOL    MW4 9992   1.054   3.514   0.972  0.7683 -0.1288  0.2188
 2557SOL     OW 9993   4.480   2.789   4.521 -0.3440 -0.1751 -0.2067
 2557SOL    HW2 9994   4.422   2.717   4.499 -2.2145  1.5134 -1.1136
 2557SOL    HW3 9995   4.508   2.824   4.436 -0.6032  1.0201  0.1742
 2557SOL    MW4 9996   4.476   2.784   4.507 -0.6250  0.2054 -0.2761
 2558SOL     OW 9997   5.970   4.071   5.438  0.2239  0.0397  0.4371
 2558SOL    HW2 9998   5.944   4.082   5.530  0.2779  0.4809  0.4014
 2558SOL    HW3 9999   5.925   4.142   5.392  0.1266 -0.2338  0.1055
 2558SOL    MW410000   5.960   4.081   5.444  0.2182  0.0619  0.3887
 2559SOL     OW10001   4.607   4.932   5.811 -0.0746  0.1310 -0.3730
 2559SOL    HW210002   4.598   4.939   5.907 -1.5469 -0.9407 -0.3936
 2559SOL    HW310003   4.690   4.887   5.797  0.1387  0.2677  0.4020
 2559SOL    MW410004   4.616   4.927   5.822 -0.2407  0.0076 -0.2735
 2560SOL     OW10005   1.437   6.032   2.564 -0.1136 -0.3718  0.1682
 2560SOL    HW210006   1.469   6.116   2.532  0.2373 -1.4132 -2.4073
 2560SOL    HW310007   1.390   5.993   2.490 -2.6817 -1.3096  2.1026
 2560SOL    MW410008   1.435   6.038   2.550 -0.4061 -0.6329  0.0836
 2561SOL     OW10009   3.534   2.747   0.412  0.3984 -0.0137  0.4364
 2561SOL    HW210010   3.511   2.826   0.460 -1.0430  0.2229 -0.5635
 2561SOL    HW310011   3.583   2.694   0.474 -0.0382  0.9582  1.6474
 2561SOL    MW410012   3.537   2.750   0.426  0.1506  0.1457  0.4643
 2562SOL     OW10013   3.815   4.022   2.514  0.1522  0.1856  0.3543
 2562SOL    HW210014   3.735   4.040   2.563  0.3213  0.7749  0.4123
 2562SOL    HW310015   3.784   3.996   2.427 -0.2524 -2.8444  1.2781
 2562SOL    MW410016   3.800   4.021   2.509  0.1211 -0.1365  0.4839
 2563SOL     OW10017   5.221   2.375   1.668 -0.2372  0.7639 -0.3099
 2563SOL    HW210018   5.239   2.469   1.660  1.9001  0.4429 -0.1183
 2563SOL    HW310019   5.274   2.348   1.744 -0.4397 -0.6685 -0.6545
 2563SOL    MW410020   5.231   2.384   1.677  0.0181  0.5326 -0.3301
 2564SOL     OW10021   2.720   5.060   0.299 -0.6724  0.0604 -0.4163
 2564SOL    HW210022   2.688   5.151   0.301  1.6504  0.9822 -1.3022
 2564SOL    HW310023   2.652   5.012   0.252 -1.1040  1.7423 -1.6287
 2564SOL    MW410024   2.707   5.066   0.293 -0.4229  0.4039 -0.6932
 2565SOL     OW10025   6.126   5.222   5.143  0.6563  0.5531 -0.1321
 2565SOL    HW210026   6.154   5.291   5.083 -2.1904  3.6782  1.7301
 2565SOL    HW310027   6.051   5.181   5.100 -0.1269  1.4321  0.3378
 2565SOL    MW410028   6.119   5.226   5.130  0.1774  1.0814  0.1756
 2566SOL     OW10029   2.664   5.618   5.136 -0.5539  0.3543  0.3604
 2566SOL    HW210030   2.712   5.620   5.219  0.0350  2.1461  0.0128
 2566SOL    HW310031   2.577   5.584   5.160 -0.5482  1.2712  1.7911
 2566SOL    MW410032   2.659   5.613   5.150 -0.4754  0.7117  0.5033
 2567SOL     OW10033   0.456   1.003   5.727 -0.5404 -0.5458  0.4390
 2567SOL    HW210034   0.384   0.972   5.781  0.7603 -1.0139  2.0012
 2567SOL    HW310035   0.442   0.962   5.641 -1.3819 -1.7087  1.1041
 2567SOL    MW410036   0.445   0.994   5.723 -0.4798 -0.7610  0.7328
 2568SOL     OW10037   3.636   3.759   5.251  0.2276  0.1068  0.3731
 2568SOL    HW210038   3.623   3.850   5.223 -4.5416 -0.7199 -1.1193
 2568SOL    HW310039   3.630   3.763   5.346  0.1203  1.3780  0.3371
 2568SOL    MW410040   3.633   3.772   5.260 -0.4158  0.1655  0.1714
 2569SOL     OW10041   5.038   0.873   4.179  0.5732 -0.7006 -0.2399
 2569SOL    HW210042   5.098   0.923   4.123  0.1698 -1.2068 -1.1473
 2569SOL    HW310043   4.952   0.883   4.137  0.0863 -0.3606  0.7913
 2569SOL    MW410044   5.034   0.881   4.166  0.4557 -0.7225 -0.2236
 2570SOL     OW10045   3.125   3.525   5.918  0.0270  0.2779 -0.2037
 2570SOL    HW210046   3.217   3.505   5.899  0.2675  0.0302  1.1470
 2570SOL    HW310047   3.127   3.615   5.951 -0.1126  0.0027  0.5557
 2570SOL    MW410048   3.137   3.534   5.920  0.0403  0.2089  0.0747
 2571SOL     OW10049   5.094   5.093   2.625 -1.3156  0.0158 -0.3754
 2571SOL    HW210050   5.118   5.181   2.655  1.3547 -0.4163 -0.9647
 2571SOL    HW310051   5.052   5.107   2.540  0.0439  0.7121 -0.9696
 2571SOL    MW410052   5.092   5.106   2.618 -0.7839  0.0506 -0.5316
 2572SOL     OW10053   3.888   0.592   1.643  0.6275  0.6037  0.2718
 2572SOL    HW210054   3.959   0.590   1.578  1.1301 -1.4241  0.7943
 2572SOL    HW310055   3.922   0.541   1.717 -0.4349  1.7620  1.6092
 2572SOL    MW410056   3.902   0.585   1.644  0.5536  0.4890  0.5172
 2573SOL     OW10057   2.071   3.402   1.715 -0.4313 -0.6841 -0.1235
 2573SOL    HW210058   2.011   3.446   1.775 -0.1922  1.4961 -1.3694
 2573SOL    HW310059   2.048   3.437   1.629  0.9962 -1.6850 -0.9486
 2573SOL    MW410060   2.060   3.413   1.712 -0.2114 -0.5285 -0.3968
 2574SOL     OW10061   1.228   4.139   3.636 -0.0897 -0.2815  0.0252
 2574SOL    HW210062   1.146   4.188   3.644  0.8522  1.3449  0.1590
 2574SOL    HW310063   1.240   4.099   3.722 -0.5340 -0.1980  0.1287
 2574SOL    MW410064   1.219   4.140   3.648 -0.0240 -0.0559  0.0565
 2575SOL     OW10065   1.019   4.682   1.985  0.2529 -0.9268  0.2633
 2575SOL    HW210066   0.990   4.610   1.929 -0.9162 -0.4848  0.2830
 2575SOL    HW310067   0.988   4.761   1.941  0.5697 -0.4949  0.8050
 2575SOL    MW410068   1.011   4.683   1.972  0.1404 -0.8115  0.3373
 2576SOL     OW10069   4.147   1.209   6.204  0.2079  0.2835 -0.1331
 2576SOL    HW210070   4.174   1.184   6.116  1.9998  1.0293  0.1651
 2576SOL    HW310071   4.093   1.287   6.190 -2.0061 -1.2521 -0.7372
 2576SOL    MW410072   4.143   1.216   6.190  0.1522  0.1793 -0.1735
 2577SOL     OW10073   4.716   5.885   0.860  0.1719 -0.0400 -0.2724
 2577SOL    HW210074   4.807   5.914   0.865 -0.2191  1.4102 -0.9891
 2577SOL    HW310075   4.701   5.840   0.943  1.3402  0.3123  0.1633
 2577SOL    MW410076   4.726   5.883   0.872  0.2744  0.1978 -0.3095
 2578SOL     OW10077   1.540   0.691   0.697  0.4613  0.6662  0.0392
 2578SOL    HW210078   1.605   0.687   0.627  1.8547 -0.6503  1.3398
 2578SOL    HW310079   1.514   0.783   0.699  2.5865  1.3316 -0.2817
 2578SOL    MW410080   1.545   0.703   0.688  0.9255  0.5803  0.1685
 2579SOL     OW10081   3.505   4.245   4.274  0.4649  0.3406  0.2004
 2579SOL    HW210082   3.567   4.191   4.323 -1.0199 -1.0076  0.6638
 2579SOL    HW310083   3.505   4.208   4.186  3.2495  2.8565 -1.0797
 2579SOL    MW410084   3.513   4.233   4.269  0.6364  0.4946  0.0926
 2580SOL     OW10085   0.773   0.114   3.467 -0.1523 -0.1021  0.0438
 2580SOL    HW210086   0.693   0.117   3.519 -0.3396  0.7318 -0.2640
 2580SOL    HW310087   0.844   0.110   3.530 -0.4445 -1.3477  0.3148
 2580SOL    MW410088   0.772   0.114   3.482 -0.2156 -0.1564  0.0389
 2581SOL     OW10089   1.013   1.453   3.694  0.2985  0.1932  0.5174
 2581SOL    HW210090   0.933   1.506   3.692  1.3590  1.8411 -0.5253
 2581SOL    HW310091   0.982   1.365   3.713 -1.7213  0.8661  0.6420
 2581SOL    MW410092   0.998   1.449   3.696  0.1720  0.4994  0.3962
 2582SOL     OW10093   6.341   3.255   4.544  0.0750 -0.9902 -0.0352
 2582SOL    HW210094   6.415   3.313   4.561  0.8116 -2.2511  1.2252
 2582SOL    HW310095   6.352   3.229   4.452  0.7388 -0.5357 -0.0926
 2582SOL    MW410096   6.352   3.259   4.534  0.2598 -1.0966  0.1235
 2583SOL     OW10097   4.761   1.823   4.063  0.0554  0.5719  0.1622
 2583SOL    HW210098   4.812   1.891   4.020 -0.0401 -0.8445 -2.3938
 2583SOL    HW310099   4.824   1.752   4.079 -0.3693  0.2270  0.3409
 2583SOL    MW410100   4.776   1.823   4.060 -0.0132  0.3395 -0.1515
 2584SOL     OW10101   2.510   2.907   0.173 -0.3311 -0.2316  0.0846
 2584SOL    HW210102   2.547   2.819   0.171 -2.4700 -1.4364  3.3961
 2584SOL    HW310103   2.459   2.914   0.093 -3.1522 -3.6980  1.2846
 2584SOL    MW410104   2.508   2.896   0.162 -0.9855 -0.8479  0.6799
 2585SOL     OW10105   5.017   4.822   0.153 -0.1983 -0.2050  0.6620
 2585SOL    HW210106   5.037   4.751   0.093 -0.6112  0.6323 -0.4980
 2585SOL    HW310107   4.942   4.867   0.114  0.8970  1.7064  0.6284
 2585SOL    MW410108   5.009   4.819   0.140 -0.1083  0.1576  0.5045
 2586SOL     OW10109   2.421   4.683   2.646  0.7993  0.1918  0.0070
 2586SOL    HW210110   2.412   4.699   2.552 -0.2789 -0.2609  0.0147
 2586SOL    HW310111   2.362   4.609   2.663  2.0020 -0.6209  0.8045
 2586SOL    MW410112   2.412   4.675   2.636  0.8157  0.0249  0.1133
 2587SOL     OW10113   3.080   6.125   5.221  0.2135 -0.0285 -0.0796
 2587SOL    HW210114   3.147   6.088   5.163  0.7861  0.1326  0.4654
 2587SOL    HW310115   3.068   6.058   5.289 -0.4739 -0.2285 -0.3898
 2587SOL    MW410116   3.087   6.111   5.222  0.1984 -0.0336 -0.0486
 2588SOL     OW10117   2.439   2.501   0.250 -0.1485  0.2306  0.2801
 2588SOL    HW210118   2.512   2.561   0.235  0.5267 -0.8977 -1.2325
 2588SOL    HW310119   2.480   2.417   0.273 -0.9175 -0.5103 -0.9152
 2588SOL    MW410120   2.454   2.498   0.251 -0.1609 -0.0160 -0.0772
 2589SOL     OW10121   2.021   3.817   3.159  0.1099 -0.4133 -0.4405
 2589SOL    HW210122   1.984   3.800   3.073  0.7830  1.0636 -1.0534
 2589SOL    HW310123   2.087   3.885   3.144  0.1218 -0.0019  1.2524
 2589SOL    MW410124   2.025   3.824   3.146  0.2003 -0.1642 -0.2980
 2590SOL     OW10125   0.759   4.992   4.731  0.1288  0.1985  0.0805
 2590SOL    HW210126   0.764   5.084   4.756  2.5955  0.0674  0.2984
 2590SOL    HW310127   0.734   4.946   4.811 -2.2968  0.7329 -0.3056
 2590SOL    MW410128   0.757   4.998   4.745  0.1342  0.2517  0.0583
 2591SOL     OW10129   4.213   0.091   1.699  0.1174  0.0667 -0.2159
 2591SOL    HW210130   4.279   0.070   1.765  1.3082 -1.4926 -1.7810
 2591SOL    HW310131   4.257   0.072   1.616 -1.4977  1.4142 -1.4337
 2591SOL    MW410132   4.228   0.086   1.697  0.0614  0.0387 -0.5831
 2592SOL     OW10133   0.736   1.388   3.994  0.2495  0.2370 -0.8068
 2592SOL    HW210134   0.708   1.387   4.085  0.0994 -1.6796 -0.8336
 2592SOL    HW310135   0.693   1.464   3.956 -0.0655  0.7872  0.5946
 2592SOL    MW410136   0.727   1.398   4.001  0.1881  0.0567 -0.6254
 2593SOL     OW10137   3.607   4.726   1.723  0.1437  0.0095  0.3927
 2593SOL    HW210138   3.554   4.798   1.689  0.4168 -0.1235 -0.3291
 2593SOL    HW310139   3.623   4.749   1.815 -0.3186  0.5394  0.3446
 2593SOL    MW410140   3.602   4.738   1.731  0.1187  0.0619  0.2911
 2594SOL     OW10141   3.918   3.448   0.295  0.1756  0.7609  0.3028
 2594SOL    HW210142   4.012   3.454   0.278 -0.1180  3.7392 -0.8096
 2594SOL    HW310143   3.883   3.534   0.271 -3.1305 -0.7806 -1.1461
 2594SOL    MW410144   3.925   3.460   0.290 -0.2993  0.9505 -0.0351
 2595SOL     OW10145   6.040   3.805   0.819 -0.1006 -0.0627 -0.3714
 2595SOL    HW210146   6.054   3.770   0.731  2.5565  2.2106 -0.9848
 2595SOL    HW310147   5.981   3.879   0.806  1.3819  1.1260 -0.5043
 2595SOL    MW410148   6.034   3.810   0.806  0.4456  0.3941 -0.4699
 2596SOL     OW10149   3.834   5.217   1.593 -0.8100 -0.1433  0.2180
 2596SOL    HW210150   3.890   5.177   1.526  0.1950 -0.4206  1.1935
 2596SOL    HW310151   3.747   5.220   1.553 -1.0731 -3.7110  0.2349
 2596SOL    MW410152   3.830   5.212   1.579 -0.7121 -0.6506  0.3489
 2597SOL     OW10153   1.226   4.718   5.380 -0.5456  0.1856  0.4724
 2597SOL    HW210154   1.232   4.787   5.446 -0.4711  0.4520  0.1915
 2597SOL    HW310155   1.135   4.718   5.352 -0.5464  0.1674  0.4749
 2597SOL    MW410156   1.215   4.727   5.385 -0.5359  0.2183  0.4357
 2598SOL     OW10157   4.696   1.795   3.315  0.1757 -0.3796  0.6003
 2598SOL    HW210158   4.750   1.717   3.302 -4.0168 -3.1764 -2.9655
 2598SOL    HW310159   4.746   1.866   3.275  2.1515 -2.3227 -0.6027
 2598SOL    MW410160   4.709   1.794   3.308 -0.1168 -1.0050 -0.0289
 2599SOL     OW10161   3.805   0.047   0.070  0.2627  0.5640 -0.1111
 2599SOL    HW210162   3.835   0.017  -0.016 -1.5568 -1.2653 -0.2068
 2599SOL    HW310163   3.846  -0.013   0.132 -3.1781 -2.3232 -0.2781
 2599SOL    MW410164   3.814   0.035   0.067 -0.4313 -0.0583 -0.1458
 2600SOL     OW10165   1.973   1.320   4.080  0.3844 -0.0334  0.0751
 2600SOL    HW210166   1.994   1.340   4.171  2.9209 -4.0775  0.6714
 2600SOL    HW310167   2.048   1.354   4.031  0.0388  0.3058 -0.2192
 2600SOL    MW410168   1.986   1.327   4.085  0.6734 -0.5222  0.1149
 2601SOL     OW10169   1.340   3.297   0.236  0.4434  0.0519 -0.3640
 2601SOL    HW210170   1.264   3.239   0.225  0.6352 -0.5366  1.1843
 2601SOL    HW310171   1.303   3.385   0.235 -0.3974 -0.2512  1.1131
 2601SOL    MW410172   1.325   3.301   0.234  0.3578 -0.0658  0.0352
 2602SOL     OW10173   1.176   4.060   2.837  0.7968  0.4441 -0.5135
 2602SOL    HW210174   1.264   4.095   2.850  1.1532 -0.3343 -0.8136
 2602SOL    HW310175   1.120   4.117   2.891  1.7453 -0.3916  1.4484
 2602SOL    MW410176   1.180   4.072   2.846  0.9690  0.2311 -0.2942
 2603SOL     OW10177   1.423   3.549   2.270  0.1096 -0.3636  0.5564
 2603SOL    HW210178   1.367   3.488   2.318  0.7246  0.2886  2.1877
 2603SOL    HW310179   1.505   3.502   2.258  0.1000 -0.3747  0.5341
 2603SOL    MW410180   1.426   3.535   2.275  0.1895 -0.2790  0.7687
 2604SOL     OW10181   2.940   6.271   6.029 -0.3362  0.1480 -0.0886
 2604SOL    HW210182   2.872   6.286   6.094 -1.3014  0.0285 -1.0330
 2604SOL    HW310183   2.962   6.179   6.038 -0.3662  0.1671  0.1701
 2604SOL    MW410184   2.934   6.261   6.039 -0.4675  0.1347 -0.1791
 2605SOL     OW10185   4.347   3.048   5.981  0.2055  0.0592 -0.5203
 2605SOL    HW210186   4.384   2.965   6.010 -0.4982 -1.0487 -2.5419
 2605SOL    HW310187   4.298   3.081   6.056  0.5922 -1.2919  0.3526
 2605SOL    MW410188   4.345   3.042   5.995  0.1636 -0.2652 -0.6719
 2606SOL     OW10189   6.304   2.831   3.879 -0.2024  0.3427  0.2982
 2606SOL    HW210190   6.257   2.748   3.873 -2.1779  1.3475  1.1985
 2606SOL    HW310191   6.300   2.868   3.791 -0.8833  0.2921  0.3048
 2606SOL    MW410192   6.297   2.825   3.866 -0.5529  0.4686  0.4179
 2607SOL     OW10193   5.960   5.060   4.733 -0.3386 -0.2953 -0.1356
 2607SOL    HW210194   5.924   4.974   4.754  2.5680 -1.7428 -0.5705
 2607SOL    HW310195   5.902   5.095   4.666 -1.5315 -1.9785 -0.0374
 2607SOL    MW410196   5.948   5.053   4.727 -0.1125 -0.7084 -0.1800
 2608SOL     OW10197   5.188   4.120   2.019  0.0563  0.3107 -0.2871
 2608SOL    HW210198   5.180   4.205   2.062 -0.6731  0.4042 -0.6019
 2608SOL    HW310199   5.268   4.127   1.967 -0.0759  0.8500 -0.4205
 2608SOL    MW410200   5.198   4.132   2.018 -0.0574  0.3942 -0.3462
 2609SOL     OW10201   0.525   0.056   2.120 -0.0158 -0.3170  0.5052
 2609SOL    HW210202   0.520  -0.021   2.062  0.9877 -0.8072  1.0465
 2609SOL    HW310203   0.582   0.117   2.074 -1.6689  0.5940 -0.4336
 2609SOL    MW410204   0.532   0.054   2.106 -0.1015 -0.2615  0.4527
 2610SOL     OW10205   1.993   4.657   6.059 -0.1571 -0.4166  0.2794
 2610SOL    HW210206   2.065   4.707   6.022  0.4258  0.0974  2.0254
 2610SOL    HW310207   2.008   4.567   6.029  0.3821 -0.0694 -0.5305
 2610SOL    MW410208   2.004   4.651   6.050 -0.0090 -0.3030  0.4029
 2611SOL     OW10209   5.332   1.741   5.742 -0.7268  0.7298 -0.3804
 2611SOL    HW210210   5.292   1.679   5.803 -0.7246  2.1388  1.0988
 2611SOL    HW310211   5.295   1.826   5.765 -0.1670  1.4234 -1.8727
 2611SOL    MW410212   5.322   1.744   5.753 -0.6526  1.0072 -0.3822
 2612SOL     OW10213   0.037   2.019   6.142  0.0509  0.2809 -0.5353
 2612SOL    HW210214  -0.050   2.015   6.103 -0.0497 -0.6696 -0.2393
 2612SOL    HW310215   0.032   1.963   6.219  0.5361  1.3410  0.3016
 2612SOL    MW410216   0.025   2.011   6.147  0.1017  0.2953 -0.3859
 2613SOL     OW10217   4.230   3.884   0.783 -1.0746  0.6366  0.5266
 2613SOL    HW210218   4.262   3.940   0.855  2.1853 -0.6610  0.2758
 2613SOL    HW310219   4.224   3.943   0.708  0.4741  1.0813  0.7088
 2613SOL    MW410220   4.234   3.899   0.783 -0.4402  0.5241  0.5176
 2614SOL     OW10221   5.158   4.495   3.973  0.0568 -0.3410  0.4439
 2614SOL    HW210222   5.212   4.548   4.032 -1.9490  0.9161  1.2569
 2614SOL    HW310223   5.192   4.406   3.984  2.2601  0.4465  0.5081
 2614SOL    MW410224   5.170   4.490   3.983  0.0828 -0.0712  0.5596
 2615SOL     OW10225   3.492   6.094   1.624  0.2251 -0.0874  0.3193
 2615SOL    HW210226   3.502   6.171   1.568 -0.9721 -0.7185 -0.7883
 2615SOL    HW310227   3.471   6.023   1.565  0.1882 -1.0477  1.4483
 2615SOL    MW410228   3.491   6.095   1.609  0.0623 -0.2974  0.3221
 2616SOL     OW10229   1.181   2.272   0.808  0.1147  0.2495  0.6875
 2616SOL    HW210230   1.276   2.281   0.814  0.2301 -1.0510  0.9402
 2616SOL    HW310231   1.162   2.186   0.845 -1.4260  1.5877  3.3122
 2616SOL    MW410232   1.191   2.262   0.814 -0.0733  0.2545  1.0671
 2617SOL     OW10233   5.577   2.352   3.456 -0.0649 -0.2973  0.0082
 2617SOL    HW210234   5.551   2.260   3.452  0.1115 -0.3164 -1.4574
 2617SOL    HW310235   5.672   2.350   3.468  0.1295 -0.3560 -1.3649
 2617SOL    MW410236   5.586   2.340   3.457 -0.0159 -0.3076 -0.3663
 2618SOL     OW10237   1.832   2.493   2.473 -0.1790 -0.0613  0.0161
 2618SOL    HW210238   1.756   2.529   2.518 -0.3621 -0.3521 -0.0590
 2618SOL    HW310239   1.888   2.569   2.457 -1.1211  0.4059 -1.2376
 2618SOL    MW410240   1.829   2.508   2.476 -0.3274 -0.0380 -0.1592
 2619SOL     OW10241   6.159   1.874   5.630 -0.1357 -0.0350  0.3189
 2619SOL    HW210242   6.239   1.926   5.628 -0.6914  0.8270 -0.4715
 2619SOL    HW310243   6.093   1.933   5.668 -0.5297 -0.5379  0.4358
 2619SOL    MW410244   6.161   1.889   5.635 -0.2610  0.0124  0.2300
 2620SOL     OW10245   5.856   1.372   4.142  0.1269 -0.7154  0.5169
 2620SOL    HW210246   5.931   1.422   4.113  0.7179 -1.7425  0.2177
 2620SOL    HW310247   5.892   1.287   4.168 -0.7924 -0.8728  1.3501
 2620SOL    MW410248   5.870   1.367   4.142  0.0835 -0.8717  0.5874
 2621SOL     OW10249   2.354   2.385   3.447 -0.2176  0.1598  0.0174
 2621SOL    HW210250   2.315   2.336   3.375 -3.3177  0.7550  1.1575
 2621SOL    HW310251   2.380   2.469   3.408  0.8759 -0.6109 -0.9669
 2621SOL    MW410252   2.353   2.390   3.432 -0.4823  0.1367  0.0380
 2622SOL     OW10253   3.980   0.372   4.343 -0.4129 -0.2725  0.1074
 2622SOL    HW210254   4.059   0.420   4.318 -0.7630  0.4383  0.3546
 2622SOL    HW310255   4.000   0.335   4.429  0.1599 -1.2726 -0.4462
 2622SOL    MW410256   3.993   0.373   4.351 -0.3835 -0.3107  0.0670
 2623SOL     OW10257   3.862   3.635   1.194  0.4722  0.9080  0.3505
 2623SOL    HW210258   3.953   3.663   1.182  1.0477  0.2009  2.6242
 2623SOL    HW310259   3.868   3.562   1.256 -1.3952 -1.0809 -1.6371
 2623SOL    MW410260   3.875   3.629   1.200  0.3018  0.5523  0.3883
 2624SOL     OW10261   4.372   3.227   3.145  0.4252 -0.4016  0.2435
 2624SOL    HW210262   4.424   3.262   3.072 -1.3997 -1.3131 -1.6190
 2624SOL    HW310263   4.437   3.202   3.211  2.0869  1.5182 -0.5640
 2624SOL    MW410264   4.388   3.228   3.144  0.4037 -0.2686 -0.1088
 2625SOL     OW10265   6.341   4.411   5.462  0.3411 -0.0988 -0.2168
 2625SOL    HW210266   6.253   4.427   5.494 -0.4143  0.5174 -2.4352
 2625SOL    HW310267   6.373   4.496   5.433  1.8392 -0.2426  0.8511
 2625SOL    MW410268   6.334   4.424   5.463  0.4391 -0.0365 -0.3686
 2626SOL     OW10269   3.163   4.018   3.562  0.1402  0.2372  0.4990
 2626SOL    HW210270   3.131   3.944   3.511  0.3858 -0.2495  1.0423
 2626SOL    HW310271   3.084   4.057   3.600 -0.0447  0.6037 -0.2400
 2626SOL    MW410272   3.148   4.013   3.560  0.1482  0.2213  0.4732
 2627SOL     OW10273   5.111   4.995   4.671 -0.2156  0.7766 -0.3687
 2627SOL    HW210274   5.177   5.058   4.640  0.3319  0.9893  1.1690
 2627SOL    HW310275   5.121   4.920   4.612  1.8311  0.5566  0.1920
 2627SOL    MW410276   5.121   4.993   4.659  0.1267  0.7756 -0.0918
 2628SOL     OW10277   4.787   5.498   2.315  0.4856  0.1213  0.1313
 2628SOL    HW210278   4.826   5.463   2.395 -0.4945 -3.1944 -0.7014
 2628SOL    HW310279   4.857   5.491   2.249  0.7835  1.3303  0.2962
 2628SOL    MW410280   4.801   5.492   2.317  0.3956 -0.1567  0.0432
 2629SOL     OW10281   4.681   1.016   5.594  0.4709 -0.3993  0.4117
 2629SOL    HW210282   4.726   1.091   5.633 -0.3237  0.7150 -0.7316
 2629SOL    HW310283   4.606   1.002   5.651 -0.4254  0.9176 -0.3852
 2629SOL    MW410284   4.677   1.024   5.606  0.2478 -0.0785  0.1557
 2630SOL     OW10285   3.799   5.930   4.676  0.1231 -0.5555  0.7142
 2630SOL    HW210286   3.823   5.845   4.712 -1.0884 -1.3455 -0.2727
 2630SOL    HW310287   3.840   5.933   4.590 -0.7011 -0.6081  0.3093
 2630SOL    MW410288   3.807   5.919   4.670 -0.1455 -0.6667  0.5305
 2631SOL     OW10289   3.732   6.293   1.759  0.3835 -0.2265  0.4121
 2631SOL    HW210290   3.815   6.265   1.721  0.6711  1.1955 -0.0652
 2631SOL    HW310291   3.705   6.220   1.815  1.6508 -0.9452  0.1157
 2631SOL    MW410292   3.739   6.279   1.761  0.5886 -0.1337  0.3100
 2632SOL     OW10293   4.989   4.622   2.037  0.2701  0.2052 -0.2411
 2632SOL    HW210294   5.010   4.630   1.944  0.2838 -4.0096 -0.7569
 2632SOL    HW310295   4.893   4.612   2.039  0.2929  0.0585  0.1869
 2632SOL    MW410296   4.979   4.622   2.025  0.2749 -0.3702 -0.2527
 2633SOL     OW10297   0.969   0.828   3.109 -0.4457  0.0829 -0.3400
 2633SOL    HW210298   1.037   0.862   3.167  1.9891 -0.8548 -2.4353
 2633SOL    HW310299   0.965   0.891   3.037 -2.7663  0.7603  0.2909
 2633SOL    MW410300   0.977   0.841   3.107 -0.4306  0.0486 -0.5332
 2634SOL     OW10301   3.621   4.678   3.061 -0.0401  0.7152  0.1756
 2634SOL    HW210302   3.661   4.598   3.095  0.0406  0.7515  0.1659
 2634SOL    HW310303   3.643   4.679   2.968 -0.3971  0.5332  0.0893
 2634SOL    MW410304   3.629   4.668   3.053 -0.0766  0.6959  0.1629
 2635SOL     OW10305   6.249   2.860   4.541 -0.2799  0.3459 -0.1316
 2635SOL    HW210306   6.302   2.881   4.464 -1.3468 -0.3435 -1.0794
 2635SOL    HW310307   6.264   2.767   4.557  0.9082  0.7381  1.2976
 2635SOL    MW410308   6.258   2.851   4.533 -0.2639  0.3067 -0.0681
 2636SOL     OW10309   5.276   3.376   1.262 -0.3907 -0.2792 -0.2531
 2636SOL    HW210310   5.358   3.425   1.250 -0.3909 -0.2744 -0.2352
 2636SOL    HW310311   5.219   3.410   1.194 -0.8481  0.7206  0.5976
 2636SOL    MW410312   5.280   3.387   1.251 -0.4511 -0.1466 -0.1385
 2637SOL     OW10313   4.408   1.824   6.117 -0.1281  0.2043  0.3403
 2637SOL    HW210314   4.456   1.898   6.081  0.5646 -0.2386  0.3315
 2637SOL    HW310315   4.414   1.757   6.048  1.7739 -0.8942  1.4724
 2637SOL    MW410316   4.415   1.825   6.103  0.2142  0.0009  0.4885
 2638SOL     OW10317   3.187   3.403   4.317  0.0690  0.0850 -0.0033
 2638SOL    HW210318   3.169   3.328   4.261  2.7948  0.4432 -1.5435
 2638SOL    HW310319   3.179   3.370   4.406  0.2736 -1.7867 -0.6438
 2638SOL    MW410320   3.183   3.389   4.321  0.4557 -0.1147 -0.2910
 2639SOL     OW10321   2.676   0.801   3.436  0.6293 -0.4842  0.7152
 2639SOL    HW210322   2.628   0.727   3.474 -0.7639 -1.0143 -1.8175
 2639SOL    HW310323   2.615   0.875   3.443  0.8155 -0.3156  0.5581
 2639SOL    MW410324   2.662   0.801   3.442  0.4701 -0.5319  0.3603
 2640SOL     OW10325   1.619   3.399   0.385  0.0006 -0.4099 -0.0699
 2640SOL    HW210326   1.563   3.435   0.454 -0.1544  0.9833 -0.8904
 2640SOL    HW310327   1.602   3.304   0.388 -1.0602 -0.2142  0.8597
 2640SOL    MW410328   1.609   3.391   0.394 -0.1598 -0.2003 -0.0555
 2641SOL     OW10329   0.142   5.522   4.728  0.0552 -0.2307 -0.6513
 2641SOL    HW210330   0.051   5.552   4.724  0.1560  0.0741 -0.6357
 2641SOL    HW310331   0.135   5.426   4.731 -0.2555 -0.2261 -1.0430
 2641SOL    MW410332   0.129   5.513   4.728  0.0275 -0.1899 -0.7009
 2642SOL     OW10333   0.774   0.593   0.350 -0.4414 -0.6858 -0.4876
 2642SOL    HW210334   0.804   0.684   0.343  0.8203 -1.0593 -0.1367
 2642SOL    HW310335   0.759   0.565   0.260  0.7611 -0.6419 -0.7060
 2642SOL    MW410336   0.776   0.602   0.337 -0.1163 -0.7293 -0.4702
 2643SOL     OW10337   1.724   3.790   2.284  0.6049 -0.1585 -0.5114
 2643SOL    HW210338   1.702   3.712   2.234 -0.6110 -0.4828  0.5102
 2643SOL    HW310339   1.670   3.859   2.246 -0.1590 -0.3582  0.2007
 2643SOL    MW410340   1.714   3.789   2.272  0.3437 -0.2276 -0.2827
 2644SOL     OW10341   3.188   3.506   0.781 -0.4952 -0.2107 -0.1680
 2644SOL    HW210342   3.152   3.583   0.736  1.1834 -0.3005 -1.8158
 2644SOL    HW310343   3.156   3.432   0.729  0.0038 -0.4356 -0.1616
 2644SOL    MW410344   3.179   3.507   0.768 -0.2079 -0.2523 -0.3846
 2645SOL     OW10345   5.166   0.629   4.426 -0.2949 -0.1631  0.1974
 2645SOL    HW210346   5.227   0.617   4.499  0.4300  0.7714 -0.2380
 2645SOL    HW310347   5.081   0.643   4.468  0.2550  1.1843  0.9004
 2645SOL    MW410348   5.163   0.629   4.441 -0.1267  0.1380  0.2327
 2646SOL     OW10349   6.398   2.587   0.634 -0.2839  0.7378 -0.0623
 2646SOL    HW210350   6.333   2.608   0.566  0.6797  1.8099 -0.6964
 2646SOL    HW310351   6.446   2.512   0.599 -0.3499  0.7397 -0.1577
 2646SOL    MW410352   6.396   2.580   0.620 -0.1655  0.8795 -0.1586
 2647SOL     OW10353   0.490   1.143   0.719  0.2285  0.3044  0.0540
 2647SOL    HW210354   0.436   1.111   0.646  1.0174 -0.9434 -0.0145
 2647SOL    HW310355   0.491   1.238   0.708 -3.8876  0.7176  1.4270
 2647SOL    MW410356   0.483   1.151   0.708 -0.2105  0.1943  0.2261
 2648SOL     OW10357   5.587   4.933   3.976  0.0480 -0.4261  0.9537
 2648SOL    HW210358   5.627   4.962   4.058  0.9124 -2.5754  1.3743
 2648SOL    HW310359   5.546   4.849   3.999 -1.9436  0.1576 -0.2365
 2648SOL    MW410360   5.587   4.925   3.990 -0.1007 -0.6327  0.8521
 2649SOL     OW10361   3.943   0.705   0.958  0.3631 -0.1705  0.4852
 2649SOL    HW210362   4.028   0.731   0.922  0.0380  0.7670  0.3578
 2649SOL    HW310363   3.901   0.656   0.888  0.0398  1.0001 -0.1764
 2649SOL    MW410364   3.949   0.702   0.944  0.2776  0.1076  0.3811
 2650SOL     OW10365   1.690   0.805   5.794 -0.3301  0.6662 -0.1946
 2650SOL    HW210366   1.644   0.743   5.850 -0.8928  2.3578  1.3244
 2650SOL    HW310367   1.744   0.856   5.854  2.6923 -0.4428 -1.7884
 2650SOL    MW410368   1.691   0.804   5.809 -0.0056  0.7430 -0.2045
 2651SOL     OW10369   3.924   1.652   1.162 -0.5547 -0.1641 -0.5235
 2651SOL    HW210370   3.910   1.561   1.134 -0.6249  0.0622 -1.2312
 2651SOL    HW310371   4.013   1.672   1.133 -0.3857 -0.1398  0.0049
 2651SOL    MW410372   3.934   1.642   1.154 -0.5417 -0.1310 -0.5472
 2652SOL     OW10373   2.470   4.422   5.059  0.0618  0.1170 -0.1318
 2652SOL    HW210374   2.524   4.437   4.981 -1.2139  0.6173 -0.9474
 2652SOL    HW310375   2.454   4.328   5.059 -0.0664  0.1387 -0.5626
 2652SOL    MW410376   2.475   4.412   5.049 -0.1234  0.1858 -0.2962
 2653SOL     OW10377   1.282   3.878   5.838 -0.8837 -0.5028  0.5223
 2653SOL    HW210378   1.301   3.822   5.763 -0.6134  2.7154 -2.0832
 2653SOL    HW310379   1.367   3.906   5.870 -1.0233 -0.9277  1.2901
 2653SOL    MW410380   1.295   3.874   5.832 -0.8665 -0.1343  0.2799
 2654SOL     OW10381   2.135   2.413   2.161  0.6885 -0.0072 -0.3851
 2654SOL    HW210382   2.052   2.378   2.193  0.9526  0.7215  1.1674
 2654SOL    HW310383   2.111   2.466   2.085  0.0124 -1.5240 -1.3015
 2654SOL    MW410384   2.121   2.415   2.155  0.6341 -0.1112 -0.3011
 2655SOL     OW10385   0.537   5.889   3.870  0.4767  0.2469  0.4805
 2655SOL    HW210386   0.474   5.879   3.799  0.3639 -1.2183  0.7615
 2655SOL    HW310387   0.607   5.943   3.833  1.7173 -2.5922 -1.6144
 2655SOL    MW410388   0.538   5.895   3.856  0.6255 -0.3210  0.2412
 2656SOL     OW10389   4.479   0.965   6.199  0.3620  0.2840  0.3250
 2656SOL    HW210390   4.528   0.890   6.165  0.5876  0.8552 -0.6537
 2656SOL    HW310391   4.520   1.041   6.157  0.8729  1.0665  2.1346
 2656SOL    MW410392   4.491   0.966   6.189  0.4592  0.4626  0.4347
 2657SOL     OW10393   5.081   1.929   4.828 -0.3601 -0.0189 -0.5069
 2657SOL    HW210394   5.151   1.951   4.890 -0.8634  0.1882 -0.0042
 2657SOL    HW310395   5.042   1.849   4.862 -0.3484 -0.1518 -0.8021
 2657SOL    MW410396   5.085   1.922   4.841 -0.4249 -0.0091 -0.4795
 2658SOL     OW10397   0.864   1.217   1.505  0.1794 -0.2194 -0.2842
 2658SOL    HW210398   0.917   1.138   1.495  2.7230  1.1871  1.0610
 2658SOL    HW310399   0.927   1.286   1.525 -2.1195  1.7656  0.6538
 2658SOL    MW410400   0.879   1.216   1.506  0.2117  0.2280  0.0170
 2659SOL     OW10401   5.542   4.234   3.889 -0.0596 -0.1165  0.5330
 2659SOL    HW210402   5.503   4.281   3.816  0.1962  0.8443  0.9926
 2659SOL    HW310403   5.525   4.142   3.871 -0.5396  0.1501 -0.4134
 2659SOL    MW410404   5.535   4.228   3.877 -0.0892  0.0455  0.4688
 2660SOL     OW10405   1.834   3.350   5.813  0.6462 -0.1903  0.6812
 2660SOL    HW210406   1.759   3.315   5.860  0.5361 -1.2460 -0.2349
 2660SOL    HW310407   1.877   3.408   5.876  0.2692 -1.2141  1.9260
 2660SOL    MW410408   1.830   3.353   5.828  0.5819 -0.4647  0.7246
 2661SOL     OW10409   5.904   6.041   6.136  0.2791 -0.4208  0.1546
 2661SOL    HW210410   5.823   6.058   6.088 -0.2102 -1.6857  0.4887
 2661SOL    HW310411   5.876   6.025   6.226  0.9930  0.0111  0.4600
 2661SOL    MW410412   5.890   6.041   6.142  0.3087 -0.5307  0.2390
 2662SOL     OW10413   5.804   3.654   3.727  0.2216 -0.2290 -0.1878
 2662SOL    HW210414   5.813   3.594   3.653  2.2370 -0.2843  0.0538
 2662SOL    HW310415   5.860   3.728   3.705 -0.3300  0.4516  0.6251
 2662SOL    MW410416   5.812   3.656   3.714  0.4147 -0.1465 -0.0487
 2663SOL     OW10417   6.183   5.381   5.814 -0.4273  0.0746 -0.0198
 2663SOL    HW210418   6.139   5.454   5.770  1.7072  1.7986  0.4897
 2663SOL    HW310419   6.227   5.334   5.743 -0.2104  0.4898 -0.1659
 2663SOL    MW410420   6.183   5.384   5.798 -0.1170  0.3569  0.0282
 2664SOL     OW10421   5.558   1.375   3.149  0.0647 -0.4612  0.5163
 2664SOL    HW210422   5.577   1.327   3.229  0.4105  1.0245  1.3666
 2664SOL    HW310423   5.473   1.415   3.164  0.4026  0.3289  0.4103
 2664SOL    MW410424   5.550   1.374   3.161  0.1549 -0.1609  0.6145
 2665SOL     OW10425   3.791   2.995   1.744 -0.1856  0.0126  0.0765
 2665SOL    HW210426   3.848   3.019   1.817 -0.9086 -1.9989  1.4144
 2665SOL    HW310427   3.709   2.970   1.786 -1.3184  0.6919 -1.6248
 2665SOL    MW410428   3.788   2.995   1.759 -0.4305 -0.1632  0.0285
 2666SOL     OW10429   0.744   4.952   4.183 -0.0257  0.0639  0.2341
 2666SOL    HW210430   0.829   4.952   4.226  0.0766 -2.3424  0.1886
 2666SOL    HW310431   0.686   4.906   4.243 -1.1022  0.9272 -0.1076
 2666SOL    MW410432   0.748   4.946   4.196 -0.1542 -0.1397  0.1830
 2667SOL     OW10433   2.317   6.065   5.520 -0.2218  0.2978  0.0397
 2667SOL    HW210434   2.324   5.989   5.577  0.2782  0.2026 -0.1395
 2667SOL    HW310435   2.223   6.083   5.514 -0.3111 -0.0259  0.4440
 2667SOL    MW410436   2.306   6.058   5.527 -0.1676  0.2426  0.0694
 2668SOL     OW10437   5.442   2.974   3.448 -0.5492  0.4518 -0.5718
 2668SOL    HW210438   5.474   2.891   3.412 -2.4391 -0.3554 -0.5146
 2668SOL    HW310439   5.390   2.949   3.524 -0.7235  1.7349 -0.2475
 2668SOL    MW410440   5.439   2.960   3.453 -0.8215  0.5146 -0.5215
 2669SOL     OW10441   5.220   5.599   4.807 -0.0210  0.3010  0.6869
 2669SOL    HW210442   5.141   5.593   4.861 -0.7390 -0.4458 -0.3942
 2669SOL    HW310443   5.291   5.571   4.865 -0.5439  0.9537  1.6717
 2669SOL    MW410444   5.219   5.594   4.822 -0.1848  0.2886  0.6742
 2670SOL     OW10445   2.834   4.804   1.813 -0.0466 -0.7897 -0.4248
 2670SOL    HW210446   2.865   4.767   1.730  0.8521 -0.4903 -0.2331
 2670SOL    HW310447   2.779   4.878   1.786 -1.9482 -2.2511 -0.8127
 2670SOL    MW410448   2.831   4.809   1.798 -0.1789 -0.9430 -0.4506
 2671SOL     OW10449   2.189   4.818   5.689 -0.3717  0.1990 -0.0742
 2671SOL    HW210450   2.105   4.861   5.670 -0.1809  0.0177 -1.4316
 2671SOL    HW310451   2.254   4.871   5.643  0.2035  0.0464  0.5467
 2671SOL    MW410452   2.186   4.831   5.680 -0.2707  0.1549 -0.1714
 2672SOL     OW10453   1.763   4.722   4.201 -0.2045  0.6020  0.1379
 2672SOL    HW210454   1.743   4.766   4.284  0.5165 -0.9408  1.1778
 2672SOL    HW310455   1.854   4.694   4.211 -0.4272 -0.4930 -0.7618
 2672SOL    MW410456   1.772   4.724   4.214 -0.1387  0.2540  0.1564
 2673SOL     OW10457   0.818   2.043   1.001  0.8117  0.4255 -0.0480
 2673SOL    HW210458   0.832   2.137   1.006 -0.0483  0.5460  0.2904
 2673SOL    HW310459   0.901   2.008   0.969  1.2257  1.2661  0.0776
 2673SOL    MW410460   0.831   2.051   0.997  0.7529  0.5523  0.0132
 2674SOL     OW10461   5.503   1.245   1.892  0.7716 -0.1268 -0.0775
 2674SOL    HW210462   5.410   1.259   1.909  0.5188  0.4549 -1.7519
 2674SOL    HW310463   5.546   1.323   1.925  0.7706 -0.6810  1.2973
 2674SOL    MW410464   5.497   1.257   1.898  0.7381 -0.1232 -0.1170
 2675SOL     OW10465   2.775   6.315   2.908  0.2484  0.0048  0.0937
 2675SOL    HW210466   2.765   6.291   2.816 -1.5306 -0.4370  0.3726
 2675SOL    HW310467   2.869   6.331   2.918  0.3447  1.1948 -2.0527
 2675SOL    MW410468   2.786   6.314   2.897  0.0264  0.1035 -0.1527
 2676SOL     OW10469   0.576   2.249   0.501 -0.4145 -0.2248  0.1569
 2676SOL    HW210470   0.481   2.243   0.494 -0.3663  0.3542 -1.3341
 2676SOL    HW310471   0.604   2.286   0.417  1.0580  0.3200  0.8507
 2676SOL    MW410472   0.567   2.253   0.489 -0.2139 -0.0765  0.0517
 2677SOL     OW10473   3.791   1.208   3.191 -0.0627 -0.3360 -0.4708
 2677SOL    HW210474   3.855   1.217   3.261  1.2379 -3.0874 -1.1929
 2677SOL    HW310475   3.833   1.152   3.126 -1.2859  1.8994 -3.4342
 2677SOL    MW410476   3.805   1.202   3.191 -0.0525 -0.4041 -0.9571
 2678SOL     OW10477   0.579   3.628   1.341  0.0493  0.1915  0.3644
 2678SOL    HW210478   0.645   3.631   1.272 -0.2024 -0.3536  0.0933
 2678SOL    HW310479   0.584   3.539   1.376 -0.8027  0.0193  0.0787
 2678SOL    MW410480   0.588   3.617   1.337 -0.0963  0.0969  0.2909
 2679SOL     OW10481   3.389   5.215   6.381  0.5279 -0.2255  0.2200
 2679SOL    HW210482   3.401   5.180   6.293  0.2533  1.0678 -0.3629
 2679SOL    HW310483   3.417   5.145   6.439  0.1581 -1.3142 -0.8827
 2679SOL    MW410484   3.394   5.201   6.377  0.4429 -0.1985 -0.0024
 2680SOL     OW10485   2.461   2.221   5.995  0.6056 -0.0790  0.2463
 2680SOL    HW210486   2.511   2.165   6.054  1.5183  1.6176  1.1588
 2680SOL    HW310487   2.467   2.308   6.034  0.6039  0.9721 -1.9523
 2680SOL    MW410488   2.468   2.225   6.007  0.7258  0.2835  0.0766
 2681SOL     OW10489   2.580   3.897   4.874 -0.1491  0.2600  0.2444
 2681SOL    HW210490   2.663   3.943   4.883  0.0899  0.3310 -1.7434
 2681SOL    HW310491   2.514   3.966   4.868 -0.0719  0.2927 -0.3357
 2681SOL    MW410492   2.583   3.912   4.874 -0.1074  0.2737 -0.0944
 2682SOL     OW10493   5.754   4.277   4.716 -0.4258  0.5629  0.2075
 2682SOL    HW210494   5.840   4.258   4.678 -1.1875 -1.4915 -0.6446
 2682SOL    HW310495   5.721   4.192   4.745 -1.5481  1.5176  1.9526
 2682SOL    MW410496   5.761   4.263   4.715 -0.6744  0.4178  0.3253
 2683SOL     OW10497   4.729   4.400   1.560  0.0783  0.4555 -0.5718
 2683SOL    HW210498   4.712   4.493   1.576  0.5226  0.2222  1.6067
 2683SOL    HW310499   4.809   4.399   1.507  0.0185  1.3319 -0.6921
 2683SOL    MW410500   4.738   4.412   1.555  0.1290  0.5404 -0.3002
 2684SOL     OW10501   1.714   6.336   3.516  0.1227  0.4239 -0.2240
 2684SOL    HW210502   1.622   6.346   3.541  0.1723  1.6548 -0.4596
 2684SOL    HW310503   1.711   6.308   3.425 -0.0257 -1.9776  0.4571
 2684SOL    MW410504   1.702   6.333   3.507  0.1097  0.2695 -0.1653
 2685SOL     OW10505   1.153   1.645   6.078 -0.5109  0.3640 -0.0001
 2685SOL    HW210506   1.249   1.645   6.073 -0.4748  0.0707  0.6547
 2685SOL    HW310507   1.126   1.701   6.005  0.0930 -0.9214 -1.2495
 2685SOL    MW410508   1.162   1.653   6.067 -0.4265  0.1557 -0.0786
 2686SOL     OW10509   4.031   2.681   4.511  0.0120 -0.8252 -0.4069
 2686SOL    HW210510   3.955   2.636   4.475  0.1559 -0.5359 -1.1082
 2686SOL    HW310511   3.995   2.747   4.570 -0.4609  0.9218 -2.5233
 2686SOL    MW410512   4.017   2.684   4.514 -0.0314 -0.5565 -0.7786
 2687SOL     OW10513   0.025   1.475   5.062 -0.4252 -0.2472 -0.2912
 2687SOL    HW210514   0.030   1.382   5.085  0.0604 -0.4564 -1.1739
 2687SOL    HW310515  -0.035   1.477   4.987 -0.6749  0.1965 -0.0818
 2687SOL    MW410516   0.018   1.463   5.055 -0.3940 -0.2163 -0.3800
 2688SOL     OW10517   5.398   6.141   3.063  0.0811  0.0030  0.0176
 2688SOL    HW210518   5.421   6.105   3.149 -2.1574  1.7547  1.4599
 2688SOL    HW310519   5.386   6.235   3.078 -4.0173 -0.1201 -1.2792
 2688SOL    MW410520   5.400   6.149   3.076 -0.7550  0.2179  0.0368
 2689SOL     OW10521   5.576   3.734   0.541 -0.9819 -0.0592  0.2798
 2689SOL    HW210522   5.539   3.707   0.457 -3.0696  0.1098  1.0847
 2689SOL    HW310523   5.524   3.810   0.566  0.1715  0.4104  1.3501
 2689SOL    MW410524   5.564   3.741   0.533 -1.1052  0.0250  0.5272
 2690SOL     OW10525   2.883   3.599   2.695 -0.3193  0.0220 -0.2035
 2690SOL    HW210526   2.850   3.533   2.634 -1.0390 -0.5959  0.8105
 2690SOL    HW310527   2.811   3.661   2.703  0.0206  0.4509 -0.4814
 2690SOL    MW410528   2.869   3.598   2.688 -0.3694 -0.0029 -0.1064
 2691SOL     OW10529   5.725   5.615   0.435 -0.3586  0.2308  0.1568
 2691SOL    HW210530   5.796   5.656   0.484 -0.6040  1.0730 -0.1797
 2691SOL    HW310531   5.756   5.525   0.420  0.8284  0.6977 -0.3402
 2691SOL    MW410532   5.739   5.609   0.439 -0.2344  0.4035  0.0468
 2692SOL     OW10533   0.922   2.165   3.608 -0.1542  0.0763 -0.3703
 2692SOL    HW210534   0.990   2.228   3.629 -1.4343  1.7217 -0.8606
 2692SOL    HW310535   0.924   2.102   3.679  0.8588  0.9514  0.4131
 2692SOL    MW410536   0.931   2.165   3.620 -0.1894  0.4089 -0.3316
 2693SOL     OW10537   1.428   3.401   2.894  0.2778 -0.4953  0.0557
 2693SOL    HW210538   1.383   3.475   2.935  0.0591  0.0470 -1.1435
 2693SOL    HW310539   1.448   3.343   2.967  0.2648  0.6368  0.9967
 2693SOL    MW410540   1.424   3.403   2.909  0.2472 -0.2744  0.0216
 2694SOL     OW10541   4.139   2.246   5.954 -0.0356  0.4393 -0.3971
 2694SOL    HW210542   4.058   2.287   5.923 -0.2677  0.5173  0.2822
 2694SOL    HW310543   4.132   2.154   5.926 -1.2072  0.0060  1.1695
 2694SOL    MW410544   4.127   2.239   5.946 -0.2208  0.3924 -0.1008
 2695SOL     OW10545   1.907   5.917   5.879 -0.1715 -0.4146  0.0303
 2695SOL    HW210546   1.890   5.940   5.970 -0.9230 -0.1543 -0.1642
 2695SOL    HW310547   1.886   5.996   5.830  0.3108 -0.5275 -0.3645
 2695SOL    MW410548   1.902   5.930   5.885 -0.2070 -0.3952 -0.0474
 2696SOL     OW10549   3.178   6.024   5.831  0.2208 -0.1084 -0.1059
 2696SOL    HW210550   3.121   6.017   5.755 -0.5602  0.1015  0.4557
 2696SOL    HW310551   3.215   6.112   5.826 -0.6804  0.3034  0.3457
 2696SOL    MW410552   3.175   6.034   5.820 -0.0012 -0.0264  0.0278
 2697SOL     OW10553   5.003   4.877   2.189 -0.6798 -0.4885 -0.2906
 2697SOL    HW210554   4.953   4.924   2.122 -0.4167  0.4469  0.1580
 2697SOL    HW310555   5.022   4.792   2.148 -1.8856 -0.5445 -0.7891
 2697SOL    MW410556   4.999   4.872   2.174 -0.8042 -0.3725 -0.2972
 2698SOL     OW10557   5.191   5.782   1.048 -0.1590 -0.1050  0.0992
 2698SOL    HW210558   5.259   5.815   1.107 -0.8310 -0.3239  1.0313
 2698SOL    HW310559   5.220   5.807   0.961  0.1971  1.4466  0.6259
 2698SOL    MW410560   5.204   5.790   1.045 -0.2007  0.0708  0.2917
 2699SOL     OW10561   1.629   1.899   2.281 -0.1859 -0.2066  0.1683
 2699SOL    HW210562   1.670   1.949   2.352 -1.3968 -0.4875  1.0967
 2699SOL    HW310563   1.700   1.883   2.219  0.6453  1.0491  0.7498
 2699SOL    MW410564   1.644   1.904   2.282 -0.2360 -0.0780  0.3675
 2700SOL     OW10565   5.548   3.539   1.327 -0.6357  0.0463  0.1308
 2700SOL    HW210566   5.581   3.450   1.317  0.3611  0.4428 -0.1515
 2700SOL    HW310567   5.571   3.583   1.245 -2.7024  0.0925 -0.4864
 2700SOL    MW410568   5.555   3.533   1.315 -0.7769  0.1047  0.0121
 2701SOL     OW10569   5.507   0.598   2.905 -0.0668 -0.2113 -0.1240
 2701SOL    HW210570   5.598   0.625   2.902 -0.4230  1.2388  1.1241
 2701SOL    HW310571   5.457   0.679   2.891 -1.1780 -0.9770 -0.8354
 2701SOL    MW410572   5.512   0.612   2.902 -0.2604 -0.1210 -0.0532
 2702SOL     OW10573   3.902   1.990   0.336 -0.2175 -0.0124 -0.0627
 2702SOL    HW210574   3.958   1.925   0.378 -0.2174  0.4517  0.6651
 2702SOL    HW310575   3.829   1.940   0.300  1.1500 -0.7902 -1.9579
 2702SOL    MW410576   3.900   1.975   0.337 -0.0371 -0.0538 -0.2167
 2703SOL     OW10577   0.418   5.220   1.895  0.0540 -0.2948  0.0548
 2703SOL    HW210578   0.415   5.126   1.912 -0.5503  0.0264  2.0727
 2703SOL    HW310579   0.443   5.258   1.979  1.6353  1.2951 -1.0624
 2703SOL    MW410580   0.421   5.212   1.908  0.1829 -0.0427  0.1736
 2704SOL     OW10581   6.138   1.356   3.834 -0.3944  0.2558 -0.2777
 2704SOL    HW210582   6.092   1.397   3.907 -0.4941 -0.0529 -0.1625
 2704SOL    HW310583   6.113   1.408   3.757 -0.2096  0.6394 -0.0751
 2704SOL    MW410584   6.128   1.368   3.833 -0.3832  0.2657 -0.2357
 2705SOL     OW10585   4.485   1.780   5.493  0.1225 -0.3671 -0.4621
 2705SOL    HW210586   4.406   1.817   5.454 -0.8146  1.5250  2.8082
 2705SOL    HW310587   4.557   1.828   5.452 -0.8141  1.7223  0.1809
 2705SOL    MW410588   4.484   1.791   5.483 -0.1247  0.1582  0.0542
 2706SOL     OW10589   0.670   3.520   3.868 -0.0775 -0.4906 -0.1764
 2706SOL    HW210590   0.697   3.565   3.789  1.6431 -1.1036  0.0152
 2706SOL    HW310591   0.614   3.449   3.837 -1.7495  0.9316 -0.5712
 2706SOL    MW410592   0.666   3.516   3.854 -0.0711 -0.3838 -0.2032
 2707SOL     OW10593   6.061   2.115   6.423 -0.0512 -0.7089 -0.2258
 2707SOL    HW210594   6.007   2.178   6.471 -0.2510 -0.8630 -0.2454
 2707SOL    HW310595   5.999   2.070   6.365  0.1654 -0.6268 -0.5191
 2707SOL    MW410596   6.045   2.118   6.422 -0.0490 -0.7184 -0.2671
 2708SOL     OW10597   5.646   2.423   1.076  0.3856  0.0301 -0.6398
 2708SOL    HW210598   5.722   2.380   1.037  1.8441  0.8150  1.1908
 2708SOL    HW310599   5.656   2.515   1.051  0.2718  0.2000 -0.0770
 2708SOL    MW410600   5.658   2.429   1.068  0.5630  0.1561 -0.3240
 2709SOL     OW10601   2.348   2.646   2.670 -0.0607 -0.5360 -0.2951
 2709SOL    HW210602   2.443   2.646   2.656  0.6413  0.4033  3.3272
 2709SOL    HW310603   2.319   2.733   2.643  0.4930 -0.1341  0.3702
 2709SOL    MW410604   2.357   2.657   2.665  0.1049 -0.3590  0.2706
 2710SOL     OW10605   5.944   5.760   6.340  0.7283 -0.2688  0.5352
 2710SOL    HW210606   5.868   5.752   6.283  2.0339  0.0395 -1.3308
 2710SOL    HW310607   5.945   5.677   6.389  0.1317 -1.0006 -0.6344
 2710SOL    MW410608   5.935   5.748   6.339  0.8218 -0.3247  0.1347
 2711SOL     OW10609   1.953   0.975   3.669  0.6928  0.2037  0.0634
 2711SOL    HW210610   1.892   1.043   3.696  1.6263  1.1866 -0.2367
 2711SOL    HW310611   1.898   0.898   3.655 -0.6756  1.3982 -1.5192
 2711SOL    MW410612   1.938   0.974   3.671  0.6354  0.4910 -0.1850
 2712SOL     OW10613   3.688   3.989   1.535  0.1038  0.5971  0.0076
 2712SOL    HW210614   3.740   3.923   1.488 -0.5008  0.4479 -0.4600
 2712SOL    HW310615   3.730   4.072   1.515  0.4553  0.4269  0.0327
 2712SOL    MW410616   3.700   3.991   1.526  0.0704  0.5550 -0.0508
 2713SOL     OW10617   2.794   1.593   6.207 -0.0329  0.0490  0.2589
 2713SOL    HW210618   2.806   1.654   6.134 -1.2372  1.2400  1.0020
 2713SOL    HW310619   2.875   1.542   6.209  0.0327 -0.0291 -1.8990
 2713SOL    MW410620   2.806   1.594   6.197 -0.1831  0.1958  0.0722
 2714SOL     OW10621   1.089   6.433   0.986  0.2061  0.4143  0.2720
 2714SOL    HW210622   1.159   6.377   1.019 -0.2982  0.3017  1.1760
 2714SOL    HW310623   1.132   6.491   0.923  0.8941 -0.3940 -0.0127
 2714SOL    MW410624   1.104   6.433   0.982  0.2304  0.2928  0.3537
 2715SOL     OW10625   3.665   3.082   5.057 -0.1204 -0.1853 -0.1841
 2715SOL    HW210626   3.628   3.156   5.105 -1.0566 -1.3457  0.9748
 2715SOL    HW310627   3.629   3.005   5.101  2.9776 -1.4275  0.4889
 2715SOL    MW410628   3.655   3.082   5.069  0.1649 -0.5023  0.0576
 2716SOL     OW10629   1.346   3.973   2.351 -0.1001 -0.0769 -0.0113
 2716SOL    HW210630   1.423   4.030   2.350  0.0337 -0.2236  1.0373
 2716SOL    HW310631   1.311   3.979   2.262  0.4274  0.9322 -0.1691
 2716SOL    MW410632   1.352   3.981   2.339 -0.0128  0.0369  0.1062
 2717SOL     OW10633   1.304   3.878   6.228  0.0863 -0.4658 -0.2613
 2717SOL    HW210634   1.372   3.919   6.174  0.6466  1.6746  1.8771
 2717SOL    HW310635   1.340   3.792   6.250  1.7110  0.2582  0.0587
 2717SOL    MW410636   1.318   3.872   6.224  0.3746 -0.0879  0.0630
 2718SOL     OW10637   0.920   1.223   3.790 -0.2220 -0.3948 -0.4196
 2718SOL    HW210638   0.867   1.248   3.866  0.0033  0.6114 -0.5804
 2718SOL    HW310639   0.939   1.130   3.804 -0.2921 -0.2617  0.6858
 2718SOL    MW410640   0.915   1.214   3.802 -0.2015 -0.2444 -0.2950
 2719SOL     OW10641   4.370   1.458   6.214 -0.2501 -0.5545  0.2129
 2719SOL    HW210642   4.379   1.377   6.163  1.5998  0.6046 -1.4273
 2719SOL    HW310643   4.368   1.527   6.149  2.4043  1.0285  1.6602
 2719SOL    MW410644   4.371   1.456   6.199  0.3442 -0.1927  0.1875
 2720SOL     OW10645   4.690   6.060   5.769  0.0608  0.4034  0.0128
 2720SOL    HW210646   4.597   6.039   5.759 -0.1581  0.9439  0.7829
 2720SOL    HW310647   4.699   6.147   5.729  0.0214  0.7826  0.8101
 2720SOL    MW410648   4.679   6.069   5.762  0.0267  0.5247  0.2196
 2721SOL     OW10649   5.473   0.957   0.047  0.3147 -0.1621  0.5028
 2721SOL    HW210650   5.387   0.985   0.078  0.3778 -0.0305  0.5629
 2721SOL    HW310651   5.465   0.862   0.035  0.0261 -0.0847  0.0654
 2721SOL    MW410652   5.461   0.948   0.050  0.2849 -0.1345  0.4530
 2722SOL     OW10653   2.941   2.990   3.268  0.0669 -0.2042  0.6537
 2722SOL    HW210654   2.976   2.968   3.355  1.4490  0.3726  0.2746
 2722SOL    HW310655   2.966   2.917   3.212  2.7609  1.1742 -0.1197
 2722SOL    MW410656   2.949   2.978   3.272  0.6047  0.0538  0.5016
 2723SOL     OW10657   4.410   4.792   5.557 -0.2267 -0.0259  0.2084
 2723SOL    HW210658   4.428   4.871   5.609 -1.6031  0.6990 -0.3650
 2723SOL    HW310659   4.387   4.726   5.622  1.1292 -0.0458  0.7100
 2723SOL    MW410660   4.409   4.794   5.573 -0.2294  0.0671  0.1989
 2724SOL     OW10661   1.140   1.146   2.761 -0.4644 -0.6614 -0.1729
 2724SOL    HW210662   1.124   1.231   2.720  0.7051  0.1357  0.9318
 2724SOL    HW310663   1.195   1.099   2.698  0.1329 -0.0070 -0.1494
 2724SOL    MW410664   1.145   1.151   2.747 -0.2313 -0.4699 -0.0241
 2725SOL     OW10665   2.071   5.565   1.725  0.7326 -0.2354  0.4137
 2725SOL    HW210666   2.166   5.561   1.728  0.7498  0.3765  0.9944
 2725SOL    HW310667   2.052   5.641   1.670  0.5729 -0.5207  0.0703
 2725SOL    MW410668   2.081   5.574   1.718  0.7138 -0.1923  0.4450
 2726SOL     OW10669   0.832   0.506   4.694 -0.7338  0.4892 -0.1191
 2726SOL    HW210670   0.854   0.485   4.784 -1.1499 -0.1653 -0.1653
 2726SOL    HW310671   0.779   0.586   4.699  0.6317  1.4207  0.0808
 2726SOL    MW410672   0.828   0.514   4.706 -0.6086  0.5258 -0.0988
 2727SOL     OW10673   2.428   5.874   5.242 -0.1876 -0.3601  0.0237
 2727SOL    HW210674   2.518   5.881   5.211  0.5368  0.4622  2.1153
 2727SOL    HW310675   2.393   5.963   5.236 -0.8202 -0.6407 -0.6145
 2727SOL    MW410676   2.435   5.887   5.237 -0.1755 -0.2886  0.2155
 2728SOL     OW10677   2.193   0.418   3.369  0.3045 -0.2158 -0.8108
 2728SOL    HW210678   2.160   0.336   3.333 -1.2021 -0.0868  0.1689
 2728SOL    HW310679   2.218   0.470   3.293  0.4391 -1.2453 -1.4781
 2728SOL    MW410680   2.192   0.414   3.354  0.1235 -0.3346 -0.7696
 2729SOL     OW10681   1.865   2.728   0.896  0.1685 -0.0736 -0.1005
 2729SOL    HW210682   1.824   2.665   0.837 -0.0735  0.0491 -0.0667
 2729SOL    HW310683   1.897   2.797   0.838 -0.4005  0.2312 -0.0654
 2729SOL    MW410684   1.864   2.729   0.881  0.0615 -0.0172 -0.0914
 2730SOL     OW10685   5.593   3.804   3.881 -0.5947 -0.3016  0.1913
 2730SOL    HW210686   5.620   3.813   3.972 -0.6305 -1.6784  0.3586
 2730SOL    HW310687   5.672   3.776   3.835 -0.5558  0.4619 -0.2356
 2730SOL    MW410688   5.607   3.802   3.887 -0.5943 -0.3825  0.1571
 2731SOL     OW10689   0.007   4.831   3.383  0.2713 -0.0143  0.5906
 2731SOL    HW210690  -0.068   4.843   3.442 -0.9786  0.6490 -1.0350
 2731SOL    HW310691   0.032   4.920   3.358  0.1615 -0.2851 -0.5616
 2731SOL    MW410692   0.000   4.844   3.387  0.0919  0.0375  0.2241
 2732SOL     OW10693   6.403   6.450   3.221  0.1922  0.1816 -0.1748
 2732SOL    HW210694   6.450   6.427   3.301  0.8546 -2.8452 -1.2858
 2732SOL    HW310695   6.420   6.377   3.161 -1.3610  1.6681 -2.6306
 2732SOL    MW410696   6.411   6.437   3.224  0.0747 -0.0216 -0.6454
 2733SOL     OW10697   4.768   3.111   0.282  0.4391 -0.1728  0.2048
 2733SOL    HW210698   4.759   3.129   0.189 -2.9166  0.2514  0.4840
 2733SOL    HW310699   4.763   3.016   0.289  1.0777 -0.2315 -0.0425
 2733SOL    MW410700   4.766   3.101   0.271  0.0806 -0.1246  0.2090
 2734SOL     OW10701   0.772   3.129   1.553  0.5807  0.4948 -0.3047
 2734SOL    HW210702   0.749   3.190   1.623 -0.2883  0.4465 -0.5361
 2734SOL    HW310703   0.842   3.076   1.590 -2.2173 -1.9991  1.9902
 2734SOL    MW410704   0.778   3.130   1.567  0.0969  0.1594 -0.0325
 2735SOL     OW10705   5.953   6.241   4.201 -0.0652 -0.2358  0.7378
 2735SOL    HW210706   5.991   6.174   4.144 -1.2708 -1.0009  0.8029
 2735SOL    HW310707   5.859   6.232   4.188 -0.2549  1.7410  0.4247
 2735SOL    MW410708   5.946   6.231   4.192 -0.2493 -0.0759  0.7051
 2736SOL     OW10709   2.841   1.871   4.337 -0.6157 -0.2599  0.2469
 2736SOL    HW210710   2.779   1.920   4.393 -0.5338 -1.0313  1.0385
 2736SOL    HW310711   2.918   1.929   4.331 -1.3109  0.6116 -0.5663
 2736SOL    MW410712   2.843   1.885   4.344 -0.6966 -0.2467  0.2440
 2737SOL     OW10713   5.340   0.332   2.402 -0.4258  0.0317 -0.1361
 2737SOL    HW210714   5.315   0.265   2.339 -1.7611  0.7619 -0.4290
 2737SOL    HW310715   5.300   0.304   2.484  1.1797 -0.8367  0.4008
 2737SOL    MW410716   5.332   0.320   2.405 -0.3901  0.0135 -0.1039
 2738SOL     OW10717   6.078   2.962   3.940 -0.3975 -0.8573 -0.3290
 2738SOL    HW210718   6.162   2.920   3.918  0.0898 -0.0422 -0.0725
 2738SOL    HW310719   6.021   2.889   3.963  0.4122 -1.4031  0.0349
 2738SOL    MW410720   6.082   2.947   3.940 -0.2264 -0.8218 -0.2471
 2739SOL     OW10721   6.033   2.136   3.492 -0.0251 -0.1779  0.1085
 2739SOL    HW210722   5.978   2.089   3.430 -1.2341  0.4990  0.6282
 2739SOL    HW310723   6.102   2.175   3.439 -1.1549  0.5741 -0.8711
 2739SOL    MW410724   6.034   2.135   3.477 -0.3337  0.0106  0.0478
 2740SOL     OW10725   0.191   4.275   3.938  0.0079 -0.3885  0.1019
 2740SOL    HW210726   0.194   4.367   3.911  0.9129 -0.7597 -1.0898
 2740SOL    HW310727   0.264   4.266   4.000 -1.7068  0.3127  2.4034
 2740SOL    MW410728   0.201   4.286   3.943 -0.0990 -0.3450  0.2484
 2741SOL     OW10729   4.082   2.082   5.230 -0.1450  0.1167  0.3455
 2741SOL    HW210730   4.045   2.073   5.318  1.4989  0.8235  1.1647
 2741SOL    HW310731   4.101   2.176   5.223  0.9310 -0.1392 -0.2557
 2741SOL    MW410732   4.079   2.093   5.241  0.2139  0.1762  0.3743
 2742SOL     OW10733   1.613   5.707   2.649  0.0670  0.1860 -0.1156
 2742SOL    HW210734   1.603   5.665   2.734  0.9608 -0.4388 -0.3139
 2742SOL    HW310735   1.641   5.796   2.669  0.3758  0.0090  0.2346
 2742SOL    MW410736   1.615   5.713   2.663  0.2257  0.0802 -0.0956
 2743SOL     OW10737   5.649   1.673   1.350 -0.3221 -0.8219 -0.5813
 2743SOL    HW210738   5.597   1.753   1.358 -0.7678 -1.0441 -1.2084
 2743SOL    HW310739   5.730   1.692   1.398 -1.1570 -0.6373  0.8139
 2743SOL    MW410740   5.653   1.686   1.357 -0.4910 -0.8268 -0.4800
 2744SOL     OW10741   1.955   5.612   4.875 -0.4522 -0.2280 -0.1700
 2744SOL    HW210742   1.910   5.562   4.943 -0.3469 -0.2581 -0.1228
 2744SOL    HW310743   1.938   5.704   4.898 -1.1352 -0.2410 -0.5811
 2744SOL    MW410744   1.947   5.618   4.887 -0.5284 -0.2337 -0.2180
 2745SOL     OW10745   1.706   1.641   4.041 -0.0048  0.4284 -1.2446
 2745SOL    HW210746   1.638   1.682   3.987  0.1131  0.6893 -1.1952
 2745SOL    HW310747   1.694   1.547   4.026 -1.2092  0.3934 -0.2534
 2745SOL    MW410748   1.695   1.634   4.032 -0.1481  0.4582 -1.1073
 2746SOL     OW10749   6.399   3.275   2.643  0.4619 -0.2100  0.4940
 2746SOL    HW210750   6.392   3.269   2.739  0.6529 -1.9331  0.4366
 2746SOL    HW310751   6.421   3.186   2.615 -0.9679 -0.0721 -1.2752
 2746SOL    MW410752   6.401   3.262   2.652  0.2984 -0.4191  0.2530
 2747SOL     OW10753   2.557   3.255   4.078 -0.0672 -0.4369 -0.0642
 2747SOL    HW210754   2.649   3.236   4.060 -0.5075 -1.4052 -1.4786
 2747SOL    HW310755   2.537   3.331   4.024 -0.5303 -1.2982 -1.1352
 2747SOL    MW410756   2.567   3.263   4.069 -0.1864 -0.6783 -0.3921
 2748SOL     OW10757   6.417   1.135   5.338  0.6181 -0.0537  0.3107
 2748SOL    HW210758   6.345   1.164   5.395  1.0965 -0.4740  1.1545
 2748SOL    HW310759   6.472   1.212   5.328 -0.4173  0.5560 -1.1390
 2748SOL    MW410760   6.415   1.149   5.344  0.5446 -0.0287  0.2308
 2749SOL     OW10761   3.404   0.651   1.388 -0.0641  0.0373  0.2395
 2749SOL    HW210762   3.471   0.669   1.321 -1.4152  0.0964 -1.1601
 2749SOL    HW310763   3.381   0.737   1.422 -1.8352  0.4358 -1.7600
 2749SOL    MW410764   3.410   0.665   1.384 -0.4760  0.0977 -0.2090
 2750SOL     OW10765   1.913   2.212   2.612  0.7707  0.4170  0.0965
 2750SOL    HW210766   2.004   2.202   2.639  0.7010 -0.8460 -0.0961
 2750SOL    HW310767   1.907   2.303   2.584  1.3845  1.1813  2.2511
 2750SOL    MW410768   1.925   2.223   2.612  0.8425  0.3512  0.3553
 2751SOL     OW10769   3.080   2.896   2.094  0.1603 -0.2888 -0.7429
 2751SOL    HW210770   3.140   2.854   2.156  0.8607  1.7075  0.0164
 2751SOL    HW310771   3.018   2.944   2.149 -0.4547 -0.0975 -1.5849
 2751SOL    MW410772   3.080   2.897   2.110  0.1716 -0.0002 -0.7538
 2752SOL     OW10773   4.258   0.854   6.296  0.7255 -0.1979 -0.3221
 2752SOL    HW210774   4.299   0.820   6.376  0.6776  0.7834  0.1327
 2752SOL    HW310775   4.325   0.909   6.255  0.7593 -0.7212 -0.9850
 2752SOL    MW410776   4.272   0.857   6.301  0.7236 -0.1374 -0.3496
 2753SOL     OW10777   3.294   4.779   4.022 -0.0916  0.2267  0.1572
 2753SOL    HW210778   3.279   4.843   3.952 -0.9197  1.2815  1.2379
 2753SOL    HW310779   3.225   4.797   4.085 -0.5802 -2.0326  0.3404
 2753SOL    MW410780   3.283   4.790   4.021 -0.2653  0.0678  0.3240
 2754SOL     OW10781   0.816   5.672   4.150 -0.1793  0.1410 -0.0392
 2754SOL    HW210782   0.817   5.740   4.217  1.2644 -1.2953  1.5031
 2754SOL    HW310783   0.725   5.665   4.122 -0.7362  1.0659  1.4949
 2754SOL    MW410784   0.804   5.680   4.155 -0.0623  0.0735  0.3667
 2755SOL     OW10785   4.278   5.070   1.539 -0.3016  0.0373  0.3570
 2755SOL    HW210786   4.261   5.110   1.454  0.8229 -0.3982 -0.0996
 2755SOL    HW310787   4.297   4.979   1.519 -0.8742 -0.2682  1.1771
 2755SOL    MW410788   4.279   5.064   1.525 -0.2288 -0.0605  0.4050
 2756SOL     OW10789   5.862   2.908   4.271 -0.5259  0.5163  0.5852
 2756SOL    HW210790   5.768   2.912   4.256 -0.1153  1.5568 -2.7588
 2756SOL    HW310791   5.896   2.989   4.233  1.8208 -0.4912  0.3021
 2756SOL    MW410792   5.854   2.919   4.264 -0.1621  0.5207  0.1066
 2757SOL     OW10793   6.103   4.790   3.255  0.1103 -0.0645  0.5645
 2757SOL    HW210794   6.117   4.832   3.340  1.3259  2.1109 -0.6225
 2757SOL    HW310795   6.127   4.699   3.269 -1.0611 -0.0889  2.8694
 2757SOL    MW410796   6.108   4.784   3.268  0.1161  0.2193  0.7120
 2758SOL     OW10797   4.904   6.033   0.051 -0.1989 -0.1067 -0.7517
 2758SOL    HW210798   4.890   5.993  -0.035  0.3309 -1.3393 -0.2843
 2758SOL    HW310799   4.857   5.977   0.112  0.8243 -0.2186 -0.0369
 2758SOL    MW410800   4.896   6.021   0.047  0.0060 -0.2841 -0.5957
 2759SOL     OW10801   3.306   2.405   2.979 -0.1136 -0.0240  0.0771
 2759SOL    HW210802   3.245   2.332   2.967  1.6997 -1.6560  0.2376
 2759SOL    HW310803   3.283   2.441   3.065 -0.8291 -0.5972  0.1376
 2759SOL    MW410804   3.295   2.400   2.989  0.0312 -0.3150  0.1062
 2760SOL     OW10805   6.400   0.314   2.190  0.0450  0.5133 -0.2362
 2760SOL    HW210806   6.438   0.268   2.115 -0.1707  0.6913 -0.4560
 2760SOL    HW310807   6.475   0.341   2.243  0.3446  2.1630 -1.4175
 2760SOL    MW410808   6.415   0.312   2.187  0.0561  0.7545 -0.4210
 2761SOL     OW10809   3.024   1.553   5.261  0.0266 -0.1127 -0.2627
 2761SOL    HW210810   2.953   1.561   5.197  0.0006  2.1836 -0.0499
 2761SOL    HW310811   3.104   1.559   5.208  0.1026 -2.1657 -0.4450
 2761SOL    MW410812   3.026   1.555   5.245  0.0332 -0.0806 -0.2587
 2762SOL     OW10813   5.161   0.943   3.189 -0.6090 -0.2179 -0.0602
 2762SOL    HW210814   5.106   0.974   3.116 -0.4681 -1.5063 -0.7390
 2762SOL    HW310815   5.186   1.023   3.235 -1.3581  0.5648 -0.9597
 2762SOL    MW410816   5.157   0.958   3.185 -0.6892 -0.2846 -0.2684
 2763SOL     OW10817   1.585   1.302   1.018  0.2884 -0.2745  0.0359
 2763SOL    HW210818   1.588   1.224   1.074 -0.5843 -0.3583 -0.0294
 2763SOL    HW310819   1.661   1.354   1.046 -0.1865 -0.2591  1.3725
 2763SOL    MW410820   1.596   1.298   1.029  0.1106 -0.2835  0.2036
 2764SOL     OW10821   0.975   3.907   3.297 -0.2334 -0.0809 -0.1261
 2764SOL    HW210822   0.903   3.847   3.317 -0.5935 -0.0634 -1.2913
 2764SOL    HW310823   0.952   3.944   3.212  0.7536  0.5488 -0.1327
 2764SOL    MW410824   0.963   3.904   3.288 -0.1507  0.0045 -0.2807
 2765SOL     OW10825   5.821   3.470   3.953 -0.0266  1.2131  0.5851
 2765SOL    HW210826   5.891   3.421   3.910 -0.2583  0.7060  0.7875
 2765SOL    HW310827   5.781   3.522   3.882 -1.9275 -1.3253 -0.3671
 2765SOL    MW410828   5.825   3.471   3.938 -0.3080  0.8113  0.4862
 2766SOL     OW10829   2.621   2.687   2.611  0.1441 -0.1104  0.4406
 2766SOL    HW210830   2.691   2.627   2.584 -0.8255 -0.8077 -0.6407
 2766SOL    HW310831   2.667   2.763   2.646  1.4158 -1.2655  1.4016
 2766SOL    MW410832   2.636   2.689   2.612  0.1839 -0.3548  0.4248
 2767SOL     OW10833   1.753   3.121   5.393 -0.4877 -0.1679 -0.2387
 2767SOL    HW210834   1.758   3.026   5.407  0.3675 -0.0761  0.0906
 2767SOL    HW310835   1.834   3.156   5.430 -1.2486  0.8106  0.5588
 2767SOL    MW410836   1.764   3.113   5.400 -0.4752 -0.0267 -0.0901
 2768SOL     OW10837   5.686   6.396   0.911 -0.0821  1.0905  0.0651
 2768SOL    HW210838   5.652   6.316   0.951 -2.7787 -0.3152 -4.2331
 2768SOL    HW310839   5.777   6.376   0.889 -0.2532 -0.2078  0.4728
 2768SOL    MW410840   5.693   6.383   0.913 -0.4605  0.7337 -0.4482
 2769SOL     OW10841   3.222   4.166   1.535 -0.6494  0.4973  0.0224
 2769SOL    HW210842   3.302   4.125   1.568 -1.6644 -1.2411  0.4457
 2769SOL    HW310843   3.154   4.138   1.596 -1.7133  1.4323 -0.6889
 2769SOL    MW410844   3.224   4.157   1.548 -0.9237  0.3913 -0.0156
 2770SOL     OW10845   5.588   0.851   2.345 -0.0472 -0.1875  0.4495
 2770SOL    HW210846   5.647   0.907   2.395 -1.6171  1.3040  0.7255
 2770SOL    HW310847   5.570   0.777   2.403  1.7373 -0.8215  0.2391
 2770SOL    MW410848   5.593   0.849   2.359 -0.0189 -0.0744  0.4581
 2771SOL     OW10849   1.405   2.392   2.293  0.5200 -0.4717  0.1659
 2771SOL    HW210850   1.420   2.315   2.348  2.6352  0.6857  1.2917
 2771SOL    HW310851   1.321   2.373   2.250 -0.7866 -1.8743  3.0136
 2771SOL    MW410852   1.396   2.379   2.295  0.6267 -0.5041  0.6902
 2772SOL     OW10853   4.974   5.753   4.465  0.1125 -0.0464  0.1285
 2772SOL    HW210854   4.889   5.782   4.496  0.6272  3.2358 -1.1151
 2772SOL    HW310855   5.035   5.780   4.534  0.7050  3.0747 -1.4217
 2772SOL    MW410856   4.971   5.761   4.479  0.2586  0.7984 -0.2401
 2773SOL     OW10857   2.731   1.716   0.018 -0.4135 -0.2271 -0.0998
 2773SOL    HW210858   2.746   1.811   0.019 -0.5804 -0.1896  1.3410
 2773SOL    HW310859   2.760   1.688  -0.069  0.3755  1.0239 -0.2702
 2773SOL    MW410860   2.737   1.725   0.007 -0.3314 -0.0571  0.0678
 2774SOL     OW10861   5.269   5.450   4.503  0.0547 -0.4393 -0.0263
 2774SOL    HW210862   5.290   5.357   4.513 -0.7249 -0.4514  1.9322
 2774SOL    HW310863   5.230   5.474   4.587 -1.8272  1.1103 -1.2820
 2774SOL    MW410864   5.266   5.441   4.516 -0.2964 -0.2365  0.0664
 2775SOL     OW10865   4.482   2.491   3.079 -0.7481  0.0146 -0.8839
 2775SOL    HW210866   4.395   2.517   3.049 -0.5179  1.3626 -0.4594
 2775SOL    HW310867   4.539   2.506   3.004 -0.4374  1.8793 -0.3371
 2775SOL    MW410868   4.478   2.496   3.065 -0.6767  0.4385 -0.7557
 2776SOL     OW10869   3.614   5.508   4.730  0.4506  0.2025 -0.0576
 2776SOL    HW210870   3.620   5.543   4.641 -2.3836  1.0336 -0.0349
 2776SOL    HW310871   3.529   5.540   4.763  1.1784 -0.4592  2.7825
 2776SOL    MW410872   3.603   5.517   4.723  0.1727  0.2248  0.3201
 2777SOL     OW10873   0.452   2.266   4.112 -0.0642 -0.2153  0.4915
 2777SOL    HW210874   0.431   2.274   4.206 -3.6949  2.2666 -0.3078
 2777SOL    HW310875   0.504   2.343   4.092  1.8016 -1.3785  0.5747
 2777SOL    MW410876   0.456   2.277   4.122 -0.2971 -0.0413  0.3970
 2778SOL     OW10877   4.488   5.505   5.929  0.1297  0.0636 -0.2901
 2778SOL    HW210878   4.574   5.533   5.898  0.8726  0.6281  2.1308
 2778SOL    HW310879   4.507   5.436   5.993 -1.2309  0.1917  0.2683
 2778SOL    MW410880   4.502   5.499   5.933  0.0482  0.1550  0.1030
 2779SOL     OW10881   2.500   3.265   0.251  0.4790 -0.4131 -0.0796
 2779SOL    HW210882   2.560   3.221   0.312 -0.0892 -1.6133 -0.3541
 2779SOL    HW310883   2.487   3.201   0.181  0.4283  0.6131 -1.0238
 2779SOL    MW410884   2.507   3.251   0.250  0.3973 -0.4361 -0.2404
 2780SOL     OW10885   2.414   4.587   6.090  0.1609  0.1676 -0.0441
 2780SOL    HW210886   2.378   4.512   6.138 -1.2370  1.4478  0.9883
 2780SOL    HW310887   2.509   4.578   6.099 -0.0372 -0.2095  2.0913
 2780SOL    MW410888   2.422   4.576   6.097 -0.0497  0.2867  0.3739
 2781SOL     OW10889   3.210   3.893   3.796  0.1677 -0.4824 -0.5226
 2781SOL    HW210890   3.158   3.814   3.784  0.4788 -0.9321  0.9268
 2781SOL    HW310891   3.207   3.937   3.711 -2.6473 -0.4210 -0.4674
 2781SOL    MW410892   3.203   3.888   3.783 -0.1626 -0.5336 -0.3241
 2782SOL     OW10893   1.911   3.820   2.916  0.3019 -0.4173  0.4607
 2782SOL    HW210894   1.822   3.792   2.941  0.1493 -0.6278 -0.2837
 2782SOL    HW310895   1.948   3.744   2.871 -0.4244  0.7697 -2.3572
 2782SOL    MW410896   1.904   3.806   2.913  0.1859 -0.2884 -0.0093
 2783SOL     OW10897   2.474   2.643   3.355  0.0858 -0.3892  0.8363
 2783SOL    HW210898   2.480   2.667   3.263 -0.2958 -1.0272  0.6393
 2783SOL    HW310899   2.564   2.646   3.386  0.3286 -1.0410  0.2152
 2783SOL    MW410900   2.487   2.647   3.347  0.0675 -0.5594  0.7284
 2784SOL     OW10901   4.041   6.308   3.963  0.0973 -0.0451 -0.0378
 2784SOL    HW210902   3.951   6.337   3.948  0.1727 -0.9384 -2.6825
 2784SOL    HW310903   4.034   6.241   4.031 -1.3893 -0.7217 -0.8240
 2784SOL    MW410904   4.028   6.303   3.970 -0.0889 -0.2522 -0.4905
 2785SOL     OW10905   5.640   4.876   5.384  0.1758  0.7523  0.4448
 2785SOL    HW210906   5.687   4.795   5.403  1.3930  1.6301  1.3893
 2785SOL    HW310907   5.595   4.897   5.466  0.9802  1.7167  0.6635
 2785SOL    MW410908   5.641   4.868   5.398  0.4425  0.9953  0.5983
 2786SOL     OW10909   1.463   3.271   3.144  0.2988 -0.0331  0.2662
 2786SOL    HW210910   1.424   3.185   3.129 -0.8470  0.1935  1.6706
 2786SOL    HW310911   1.408   3.310   3.213  2.5378  0.6442  1.7767
 2786SOL    MW410912   1.450   3.265   3.151  0.4431  0.0862  0.6508
 2787SOL     OW10913   0.048   5.965   2.713 -0.7118  0.3988  0.1337
 2787SOL    HW210914   0.098   6.043   2.688 -0.9336  0.3960 -0.3313
 2787SOL    HW310915   0.054   5.907   2.637  1.3230 -1.0222  1.2797
 2787SOL    MW410916   0.055   5.968   2.700 -0.4726  0.2109  0.2236
 2788SOL     OW10917   0.788   5.056   0.971 -0.2584  0.3980 -0.0799
 2788SOL    HW210918   0.740   4.975   0.987 -1.2036  0.9041 -0.2290
 2788SOL    HW310919   0.795   5.098   1.057 -1.2237  0.9130 -0.2284
 2788SOL    MW410920   0.783   5.051   0.984 -0.5105  0.5327 -0.1192
 2789SOL     OW10921   0.187   6.251   5.585 -0.7860  0.0616  0.2265
 2789SOL    HW210922   0.185   6.334   5.632 -2.5684 -1.3788  2.9611
 2789SOL    HW310923   0.280   6.232   5.574 -0.2781  0.8510  2.6254
 2789SOL    MW410924   0.199   6.259   5.589 -0.9541 -0.0243  0.9038
 2790SOL     OW10925   0.702   3.830   0.668 -0.0046 -0.6374 -0.4251
 2790SOL    HW210926   0.674   3.794   0.752  1.0468  0.1137  0.2804
 2790SOL    HW310927   0.632   3.890   0.642  0.0375 -0.2560  0.3346
 2790SOL    MW410928   0.689   3.833   0.675  0.1396 -0.4880 -0.2318
 2791SOL     OW10929   1.001   5.875   3.877  0.3560  0.3705  0.4017
 2791SOL    HW210930   0.968   5.803   3.824  1.1023 -0.7978  1.4601
 2791SOL    HW310931   0.992   5.844   3.967  0.7023  1.6010  0.8780
 2791SOL    MW410932   0.996   5.861   3.882  0.5001  0.3787  0.6042
 2792SOL     OW10933   1.640   4.358   6.231 -0.2974  0.9732 -0.6654
 2792SOL    HW210934   1.671   4.371   6.142 -1.1872 -0.3435 -1.2120
 2792SOL    HW310935   1.653   4.264   6.247 -0.1655  1.1893  0.5865
 2792SOL    MW410936   1.646   4.347   6.222 -0.3974  0.8280 -0.5724
 2793SOL     OW10937   4.764   5.111   0.794 -0.1240 -0.5898 -0.3341
 2793SOL    HW210938   4.808   5.055   0.729  0.0934  0.4763 -1.1493
 2793SOL    HW310939   4.775   5.200   0.759  0.0445  0.0225  1.2100
 2793SOL    MW410940   4.771   5.116   0.781 -0.0731 -0.3683 -0.2379
 2794SOL     OW10941   2.797   0.927   3.689  0.1142  0.1977 -0.1718
 2794SOL    HW210942   2.860   0.954   3.621  0.4208  1.3248  0.5370
 2794SOL    HW310943   2.728   0.881   3.641  0.9869 -0.1986 -1.0833
 2794SOL    MW410944   2.796   0.924   3.674  0.2698  0.2941 -0.1986
 2795SOL     OW10945   2.853   3.211   4.711 -0.2562  0.2113 -0.9128
 2795SOL    HW210946   2.877   3.119   4.701  1.5365  0.6781 -1.1650
 2795SOL    HW310947   2.785   3.211   4.779 -0.1534 -1.2627 -0.7822
 2795SOL    MW410948   2.847   3.199   4.719 -0.0061  0.0784 -0.9288
 2796SOL     OW10949   4.630   3.379   0.267  0.4750 -0.4976 -0.7223
 2796SOL    HW210950   4.582   3.373   0.185  0.9812 -2.0620 -0.9388
 2796SOL    HW310951   4.722   3.380   0.241  0.6164  0.1352 -0.2175
 2796SOL    MW410952   4.636   3.378   0.253  0.5604 -0.6205 -0.6843
 2797SOL     OW10953   1.456   0.294   3.641  0.0117  0.4094  0.3519
 2797SOL    HW210954   1.427   0.377   3.678  1.1115  0.7515  0.4590
 2797SOL    HW310955   1.482   0.242   3.717 -1.1164 -0.2295  0.3285
 2797SOL    MW410956   1.455   0.298   3.656  0.0080  0.3702  0.3629
 2798SOL     OW10957   1.139   2.873   5.446  0.2512 -0.1284  0.2657
 2798SOL    HW210958   1.128   2.939   5.514  0.2500  0.2891 -0.1297
 2798SOL    HW310959   1.052   2.834   5.436  0.8405 -2.1780  2.4588
 2798SOL    MW410960   1.126   2.877   5.454  0.3288 -0.3437  0.5029
 2799SOL     OW10961   3.441   2.884   3.641  0.0821 -0.3195 -0.1209
 2799SOL    HW210962   3.495   2.805   3.645 -1.2512 -1.2232  1.1327
 2799SOL    HW310963   3.456   2.928   3.725 -1.0073 -0.5269  0.2021
 2799SOL    MW410964   3.450   2.880   3.653 -0.2375 -0.4661  0.0871
 2800SOL     OW10965   3.772   4.840   0.337 -0.1374  0.3392  0.1507
 2800SOL    HW210966   3.730   4.778   0.397  0.7120  0.5732  1.0112
 2800SOL    HW310967   3.837   4.787   0.290 -0.3347  0.2983 -0.0761
 2800SOL    MW410968   3.775   4.825   0.339 -0.0514  0.3647  0.2343
 2801SOL     OW10969   1.358   0.112   0.003  0.1197 -0.1917 -0.0743
 2801SOL    HW210970   1.268   0.131  -0.025  0.4142 -0.9038 -1.5688
 2801SOL    HW310971   1.356   0.019   0.025  1.2762 -1.1695 -3.5847
 2801SOL    MW410972   1.346   0.102   0.002  0.3111 -0.4147 -0.7346
 2802SOL     OW10973   3.820   0.426   0.264  0.1513 -0.8187 -0.0445
 2802SOL    HW210974   3.788   0.375   0.338 -0.7578  1.3983  1.1983
 2802SOL    HW310975   3.742   0.439   0.209  0.3056 -0.5460 -0.1978
 2802SOL    MW410976   3.805   0.421   0.267  0.0517 -0.4902  0.0993
 2803SOL     OW10977   2.357   6.152   4.691 -0.2730  0.1075  0.3465
 2803SOL    HW210978   2.441   6.118   4.660 -1.6124 -1.4283 -1.8937
 2803SOL    HW310979   2.350   6.120   4.781  1.3719 -0.0101  0.4576
 2803SOL    MW410980   2.367   6.143   4.699 -0.2327 -0.1106  0.0656
 2804SOL     OW10981   5.510   5.615   4.502  0.0293  0.0434  0.1782
 2804SOL    HW210982   5.563   5.583   4.429  0.2239  1.4101 -0.2963
 2804SOL    HW310983   5.430   5.562   4.499  0.5087 -0.6717 -0.3214
 2804SOL    MW410984   5.507   5.603   4.492  0.1182  0.1294  0.0497
 2805SOL     OW10985   1.696   0.846   3.941 -0.3789 -0.0470  0.2669
 2805SOL    HW210986   1.689   0.898   4.021 -0.5293  1.5806 -0.7581
 2805SOL    HW310987   1.786   0.858   3.912 -0.8273  0.9149 -0.7835
 2805SOL    MW410988   1.707   0.854   3.948 -0.4579  0.2946 -0.0069
 2806SOL     OW10989   5.454   5.404   3.465 -0.2417 -0.7482 -0.1012
 2806SOL    HW210990   5.480   5.400   3.373 -1.7429  0.0519 -0.5889
 2806SOL    HW310991   5.472   5.494   3.491 -0.2804 -0.8406  0.2457
 2806SOL    MW410992   5.460   5.415   3.456 -0.4449 -0.6548 -0.1198
 2807SOL     OW10993   3.009   5.155   0.675  0.7513 -0.0815  0.1800
 2807SOL    HW210994   3.021   5.215   0.748  1.4551 -0.0643  0.0610
 2807SOL    HW310995   2.940   5.095   0.703  0.6910  0.2156  0.6666
 2807SOL    MW410996   3.001   5.155   0.688  0.8362 -0.0400  0.2285
 2808SOL     OW10997   6.272   0.718   4.951  0.3855  0.0035  0.3521
 2808SOL    HW210998   6.356   0.695   4.989  0.3846 -1.0985 -0.2695
 2808SOL    HW310999   6.290   0.731   4.858 -0.4681 -2.4931 -0.2449
 2808SOL    MW411000   6.285   0.717   4.944  0.2728 -0.4713  0.1913
 2809SOL     OW11001   2.589   3.198   1.781  0.6542 -0.1900 -0.2929
 2809SOL    HW211002   2.682   3.200   1.803  0.4866 -0.8620  0.5450
 2809SOL    HW311003   2.546   3.245   1.853  0.2846 -0.5302 -0.2872
 2809SOL    MW411004   2.595   3.205   1.793  0.5833 -0.3235 -0.1816
 2810SOL     OW11005   1.099   2.987   6.120  0.0839  0.2366  0.1696
 2810SOL    HW211006   1.056   3.034   6.191 -0.3312 -1.7294  1.2994
 2810SOL    HW311007   1.122   2.902   6.158 -1.1889 -1.3466 -2.3500
 2810SOL    MW411008   1.097   2.982   6.135 -0.1388 -0.2317 -0.0138
 2811SOL     OW11009   5.378   4.726   4.013  0.0227 -0.5153 -0.9866
 2811SOL    HW211010   5.417   4.639   4.021 -1.5340 -1.1340  0.3314
 2811SOL    HW311011   5.376   4.743   3.918  1.1932 -1.4709 -1.2098
 2811SOL    MW411012   5.383   4.717   4.001 -0.0282 -0.7230 -0.8421
 2812SOL     OW11013   4.734   0.189   2.146 -0.8778 -0.5041  0.4680
 2812SOL    HW211014   4.802   0.160   2.086  0.1125  1.5579  0.5233
 2812SOL    HW311015   4.766   0.271   2.182 -2.5736 -0.4052  1.9327
 2812SOL    MW411016   4.747   0.196   2.143 -0.9709 -0.2190  0.6685
 2813SOL     OW11017   5.476   0.158   5.927  0.0528 -0.6724  0.0196
 2813SOL    HW211018   5.515   0.086   5.977 -1.7979 -2.0369 -0.3854
 2813SOL    HW311019   5.491   0.135   5.836 -0.0711 -0.2467 -0.1103
 2813SOL    MW411020   5.483   0.145   5.922 -0.2077 -0.7963 -0.0509
 2814SOL     OW11021   3.500   4.848   4.274  0.4809  0.4899 -0.1619
 2814SOL    HW211022   3.433   4.867   4.339  0.6615 -0.8160  0.4321
 2814SOL    HW311023   3.489   4.756   4.253  0.9896  0.6719 -1.3463
 2814SOL    MW411024   3.490   4.839   4.279  0.5718  0.3416 -0.2398
 2815SOL     OW11025   5.827   5.178   2.581 -0.0460 -0.3506 -0.1327
 2815SOL    HW211026   5.757   5.181   2.516  0.9585 -0.6078 -1.2568
 2815SOL    HW311027   5.784   5.200   2.664 -1.3187  0.1495 -0.9012
 2815SOL    MW411028   5.812   5.181   2.583 -0.0814 -0.3185 -0.3824
 2816SOL     OW11029   1.520   1.902   1.793 -0.3265  0.3563 -0.3467
 2816SOL    HW211030   1.433   1.862   1.791  0.1549 -0.7629 -0.0545
 2816SOL    HW311031   1.578   1.833   1.759  0.2250  1.7084 -2.3465
 2816SOL    MW411032   1.516   1.887   1.788 -0.1902  0.3870 -0.5720
 2817SOL     OW11033   0.872   3.467   1.360 -0.7126  0.1468 -0.2108
 2817SOL    HW211034   0.965   3.445   1.356 -0.3949  1.3712 -0.0742
 2817SOL    HW311035   0.857   3.492   1.451 -1.6579 -1.9216  0.2490
 2817SOL    MW411036   0.882   3.468   1.372 -0.7954  0.0355 -0.1321
 2818SOL     OW11037   6.298   1.796   0.415 -0.0660  0.2975 -0.1587
 2818SOL    HW211038   6.355   1.870   0.438  0.3477 -0.0191 -0.1667
 2818SOL    HW311039   6.343   1.719   0.449 -0.5897  0.0613  0.0123
 2818SOL    MW411040   6.311   1.796   0.422 -0.0805  0.2246 -0.1372
 2819SOL     OW11041   4.036   2.469   1.652  0.4858  0.1563  0.8948
 2819SOL    HW211042   4.042   2.536   1.583  0.6427 -0.1139  0.6452
 2819SOL    HW311043   4.074   2.391   1.613 -1.7201 -0.7470  0.3699
 2819SOL    MW411044   4.042   2.468   1.637  0.2155  0.0015  0.7926
 2820SOL     OW11045   1.396   3.665   5.712 -0.1094  0.5931 -0.4293
 2820SOL    HW211046   1.374   3.612   5.636 -0.6528 -2.3350  1.6162
 2820SOL    HW311047   1.491   3.671   5.711  0.0230 -1.1566 -0.2872
 2820SOL    MW411048   1.405   3.659   5.702 -0.1637 -0.0241 -0.1407
 2821SOL     OW11049   4.467   1.606   5.935  0.4885 -0.6619  0.2320
 2821SOL    HW211050   4.558   1.607   5.965  0.4301 -0.6591  0.4114
 2821SOL    HW311051   4.462   1.533   5.874  0.3883 -1.2275  0.9111
 2821SOL    MW411052   4.478   1.597   5.931  0.4675 -0.7362  0.3453
 2822SOL     OW11053   3.446   0.286   2.274  0.5643 -0.6282  0.2126
 2822SOL    HW211054   3.496   0.216   2.316  0.2102 -1.2763 -0.4166
 2822SOL    HW311055   3.372   0.300   2.332 -0.2257 -1.9127 -0.4419
 2822SOL    MW411056   3.443   0.278   2.287  0.4133 -0.8832  0.0433
 2823SOL     OW11057   4.551   4.700   1.062 -0.7298 -0.0258  0.0265
 2823SOL    HW211058   4.592   4.768   1.009  0.7734 -0.8609  0.0608
 2823SOL    HW311059   4.474   4.673   1.012  0.8990 -1.1309 -2.0311
 2823SOL    MW411060   4.546   4.705   1.048 -0.3165 -0.2818 -0.2404
 2824SOL     OW11061   2.099   2.134   5.031  0.3503 -0.0567 -0.6177
 2824SOL    HW211062   2.057   2.071   5.089  2.3712 -1.2616 -0.3630
 2824SOL    HW311063   2.051   2.216   5.045 -2.6464 -1.5532 -1.2791
 2824SOL    MW411064   2.087   2.137   5.040  0.2216 -0.4131 -0.6713
 2825SOL     OW11065   4.850   2.549   2.648 -0.1411  0.0575 -0.5379
 2825SOL    HW211066   4.825   2.617   2.585  3.3211  1.2270 -0.8517
 2825SOL    HW311067   4.861   2.470   2.596  0.3015  0.4261 -1.0198
 2825SOL    MW411068   4.848   2.548   2.633  0.3741  0.2604 -0.6429
 2826SOL     OW11069   3.239   3.933   4.349 -0.1302 -0.1027 -0.1929
 2826SOL    HW211070   3.184   3.883   4.409 -1.9314  1.5095 -0.3797
 2826SOL    HW311071   3.219   3.897   4.262  0.0245 -0.3049 -0.1447
 2826SOL    MW411072   3.229   3.922   4.345 -0.3475  0.0833 -0.2111
 2827SOL     OW11073   1.790   2.262   2.002  0.0891 -0.6440  0.0870
 2827SOL    HW211074   1.822   2.272   2.092 -0.5002  1.2469  0.1237
 2827SOL    HW311075   1.828   2.179   1.972  1.0888 -0.8210  1.7370
 2827SOL    MW411076   1.799   2.252   2.010  0.1432 -0.4179  0.3096
 2828SOL     OW11077   3.235   1.725   1.716  0.0253  0.5136 -0.6698
 2828SOL    HW211078   3.187   1.794   1.762  1.1808  1.8087 -1.3226
 2828SOL    HW311079   3.294   1.688   1.783 -0.1098  0.6251 -0.4875
 2828SOL    MW411080   3.237   1.729   1.731  0.1599  0.6992 -0.7319
 2829SOL     OW11081   3.610   2.653   4.905 -0.5987  0.5356 -0.1557
 2829SOL    HW211082   3.603   2.727   4.845 -0.6489  0.4048 -0.3120
 2829SOL    HW311083   3.704   2.643   4.920 -0.4968 -0.2030 -1.1784
 2829SOL    MW411084   3.621   2.662   4.899 -0.5919  0.4209 -0.3113
 2830SOL     OW11085   5.990   3.059   0.925  0.2565 -0.2190  0.0458
 2830SOL    HW211086   6.023   3.042   0.837 -0.8747 -1.2617 -0.1958
 2830SOL    HW311087   5.917   3.120   0.912  0.3444 -0.0584  0.3024
 2830SOL    MW411088   5.985   3.065   0.912  0.1189 -0.3354  0.0478
 2831SOL     OW11089   1.933   2.031   4.715  0.2629  0.3514  0.1378
 2831SOL    HW211090   1.885   2.069   4.789  0.9106  0.8147  0.3254
 2831SOL    HW311091   2.022   2.062   4.726  0.3162  0.6325 -0.9903
 2831SOL    MW411092   1.938   2.040   4.726  0.3554  0.4496  0.0137
 2832SOL     OW11093   6.350   5.748   5.384 -0.1954 -0.1645 -0.1938
 2832SOL    HW211094   6.392   5.676   5.431 -1.3635 -0.6809  0.0909
 2832SOL    HW311095   6.323   5.809   5.453 -0.3189 -0.0579 -0.3371
 2832SOL    MW411096   6.352   5.746   5.399 -0.3658 -0.2185 -0.1752
 2833SOL     OW11097   2.585   3.509   1.181  0.2672  0.3552  0.2101
 2833SOL    HW211098   2.678   3.499   1.161  0.5087  2.0697  0.3631
 2833SOL    HW311099   2.551   3.564   1.110 -0.7911 -0.7884 -0.2005
 2833SOL    MW411100   2.593   3.515   1.169  0.1595  0.4305  0.1761
 2834SOL     OW11101   4.946   4.933   3.998  0.0839 -0.3492 -0.4450
 2834SOL    HW211102   5.020   4.904   4.052 -0.6199 -0.8066  0.3014
 2834SOL    HW311103   4.921   5.018   4.035  0.5372  0.0333 -1.0070
 2834SOL    MW411104   4.953   4.940   4.010  0.0508 -0.3591 -0.4206
 2835SOL     OW11105   0.183   3.057   0.212  0.6114 -0.0696 -0.8454
 2835SOL    HW211106   0.138   3.044   0.128 -0.0082 -0.0531 -0.5185
 2835SOL    HW311107   0.167   2.976   0.261  1.1518 -0.1660 -0.8198
 2835SOL    MW411108   0.175   3.044   0.207  0.6009 -0.0801 -0.7989
 2836SOL     OW11109   4.154   0.533   4.223 -0.0641  0.3798 -0.7701
 2836SOL    HW211110   4.149   0.565   4.133  0.3167 -2.0425 -1.7347
 2836SOL    HW311111   4.245   0.547   4.248 -0.8723  4.1518  0.5770
 2836SOL    MW411112   4.165   0.539   4.214 -0.1205  0.5579 -0.7196
 2837SOL     OW11113   0.491   3.314   4.841 -0.5615 -0.1468  0.0724
 2837SOL    HW211114   0.577   3.277   4.860  0.5528  0.7050 -2.7757
 2837SOL    HW311115   0.443   3.242   4.800 -0.2748  0.0779 -0.6680
 2837SOL    MW411116   0.496   3.300   4.838 -0.3767 -0.0048 -0.4010
 2838SOL     OW11117   4.007   0.517   3.432  0.1233 -0.3196  0.5553
 2838SOL    HW211118   3.964   0.595   3.466 -0.7819 -0.3835 -0.3901
 2838SOL    HW311119   4.040   0.543   3.346 -0.5250 -1.0611  0.0601
 2838SOL    MW411120   4.006   0.530   3.425 -0.0817 -0.4258  0.3653
 2839SOL     OW11121   3.919   3.420   4.253  0.1260 -0.0934 -0.3369
 2839SOL    HW211122   3.933   3.484   4.322 -0.2596  0.0965 -0.4344
 2839SOL    HW311123   3.849   3.457   4.200 -0.6524 -0.9766  0.0661
 2839SOL    MW411124   3.912   3.433   4.255 -0.0276 -0.1849 -0.2966
 2840SOL     OW11125   2.431   4.782   1.938  0.2331 -0.5184  0.2030
 2840SOL    HW211126   2.434   4.802   2.031  0.1001 -1.0751  0.3283
 2840SOL    HW311127   2.490   4.846   1.898 -0.5120  0.3939  0.5422
 2840SOL    MW411128   2.439   4.793   1.945  0.1173 -0.4715  0.2643
 2841SOL     OW11129   1.155   5.855   1.376  0.1707 -0.3360  0.0058
 2841SOL    HW211130   1.084   5.919   1.387 -0.1336 -0.3266 -1.7855
 2841SOL    HW311131   1.169   5.851   1.281  0.5586 -2.5310  0.1208
 2841SOL    MW411132   1.148   5.863   1.365  0.1817 -0.6243 -0.2154
 2842SOL     OW11133   4.793   1.121   0.180 -0.6898 -0.0863 -0.4061
 2842SOL    HW211134   4.834   1.196   0.137 -0.3683  0.5342  0.9287
 2842SOL    HW311135   4.796   1.051   0.114  3.9095 -0.5892 -0.0054
 2842SOL    MW411136   4.799   1.121   0.166 -0.0405 -0.0708 -0.1771
 2843SOL     OW11137   1.427   5.852   0.193  0.0293  0.1510 -0.2371
 2843SOL    HW211138   1.435   5.944   0.216  0.7605  0.1472 -0.4474
 2843SOL    HW311139   1.343   5.825   0.229 -0.3748  1.0024 -0.5440
 2843SOL    MW411140   1.417   5.860   0.201  0.0725  0.2628 -0.3053
 2844SOL     OW11141   3.058   0.298   5.253  0.0451 -0.0650  0.1549
 2844SOL    HW211142   3.065   0.202   5.256  0.6211 -0.0083  1.7920
 2844SOL    HW311143   2.981   0.314   5.199 -0.2720 -1.4694  0.1306
 2844SOL    MW411144   3.049   0.287   5.246  0.0793 -0.2428  0.3677
 2845SOL     OW11145   3.328   0.381   0.286 -0.3775 -0.5183 -0.0125
 2845SOL    HW211146   3.273   0.306   0.309  1.3484 -1.2876  1.9122
 2845SOL    HW311147   3.391   0.388   0.358  1.2669  1.0619 -1.4926
 2845SOL    MW411148   3.329   0.372   0.299  0.0672 -0.4113  0.0461
 2846SOL     OW11149   4.962   6.185   3.731  0.2104  0.4957 -0.0534
 2846SOL    HW211150   5.011   6.249   3.783  0.1266  0.3276  0.2383
 2846SOL    HW311151   4.885   6.233   3.701  0.5839  0.7799 -0.5735
 2846SOL    MW411152   4.958   6.200   3.734  0.2486  0.5111 -0.0836
 2847SOL     OW11153   1.758   3.083   2.907 -0.5237 -0.0068  0.7926
 2847SOL    HW211154   1.800   3.168   2.903 -0.2351 -0.1554 -2.1199
 2847SOL    HW311155   1.664   3.103   2.912 -0.5678  0.6015 -1.4067
 2847SOL    MW411156   1.751   3.097   2.907 -0.4914  0.0539  0.1182
 2848SOL     OW11157   0.408   2.599   0.632 -0.3157  0.5277 -0.0523
 2848SOL    HW211158   0.447   2.607   0.545 -1.1782 -0.0584 -0.5137
 2848SOL    HW311159   0.479   2.568   0.687  0.1921  0.7004 -0.6019
 2848SOL    MW411160   0.422   2.596   0.628 -0.3625  0.4732 -0.1857
 2849SOL     OW11161   0.016   0.964   4.273 -0.5546 -0.4469 -1.3640
 2849SOL    HW211162  -0.026   1.032   4.326 -1.4543 -0.8863 -1.4955
 2849SOL    HW311163  -0.055   0.903   4.252  0.4039 -1.9795 -0.4117
 2849SOL    MW411164   0.001   0.965   4.278 -0.5469 -0.7070 -1.2557
 2850SOL     OW11165   1.966   2.938   0.730 -0.4618 -0.0961 -0.1454
 2850SOL    HW211166   2.054   2.946   0.694 -0.0120  1.5079  1.2087
 2850SOL    HW311167   1.908   2.955   0.655  0.3997  0.2749 -0.7442
 2850SOL    MW411168   1.970   2.941   0.715 -0.2888  0.1645 -0.0457
 2851SOL     OW11169   2.494   1.218   0.049 -0.0866 -0.3202  0.2975
 2851SOL    HW211170   2.579   1.237   0.008  0.5054 -1.0756  1.1210
 2851SOL    HW311171   2.441   1.181  -0.022  0.4214 -0.2460 -0.1285
 2851SOL    MW411172   2.499   1.216   0.034  0.0585 -0.4101  0.3499
 2852SOL     OW11173   4.448   1.681   3.215 -0.7413 -0.1722 -0.0590
 2852SOL    HW211174   4.533   1.724   3.225 -0.1289 -1.6227  1.2956
 2852SOL    HW311175   4.463   1.614   3.148 -1.4142  0.9309 -1.3732
 2852SOL    MW411176   4.461   1.678   3.207 -0.7493 -0.2180 -0.0537
 2853SOL     OW11177   5.919   2.769   4.031  0.2095  0.3284  0.2238
 2853SOL    HW211178   5.980   2.708   4.071 -1.1984 -0.5066  1.1722
 2853SOL    HW311179   5.872   2.809   4.104  2.8652  4.7249 -0.0612
 2853SOL    MW411180   5.921   2.767   4.046  0.3742  0.7983  0.3113
 2854SOL     OW11181   2.544   3.232   3.529 -0.2287  0.1413 -0.5288
 2854SOL    HW211182   2.626   3.260   3.572  0.1877 -0.6531 -0.7839
 2854SOL    HW311183   2.531   3.143   3.559 -2.7828  1.2569  2.1197
 2854SOL    MW411184   2.553   3.224   3.539 -0.5108  0.1837 -0.2131
 2855SOL     OW11185   1.686   4.161   1.660  0.3557 -0.2162  0.0041
 2855SOL    HW211186   1.749   4.143   1.730  0.9044  1.7067  0.0595
 2855SOL    HW311187   1.739   4.197   1.588 -0.6593  1.9359  0.2353
 2855SOL    MW411188   1.701   4.163   1.659  0.2942  0.3214  0.0419
 2856SOL     OW11189   6.184   1.619   4.517  0.8485  0.2595 -0.1576
 2856SOL    HW211190   6.144   1.674   4.585  1.5097  0.6706 -0.0883
 2856SOL    HW311191   6.133   1.637   4.438  0.3883  0.1610  0.1182
 2856SOL    MW411192   6.172   1.629   4.516  0.8750  0.3007 -0.1121
 2857SOL     OW11193   3.799   2.830   6.375 -0.4472 -0.2944 -0.5049
 2857SOL    HW211194   3.764   2.856   6.460 -2.2900 -0.0615 -1.3030
 2857SOL    HW311195   3.841   2.909   6.341 -2.7211  0.6688 -1.2642
 2857SOL    MW411196   3.800   2.844   6.381 -0.9903 -0.1366 -0.7104
 2858SOL     OW11197   2.519   0.832   0.866 -0.1581  0.3608  0.1757
 2858SOL    HW211198   2.535   0.861   0.956 -0.0146  1.8549 -0.3079
 2858SOL    HW311199   2.448   0.888   0.835 -0.1948 -0.1332 -0.6615
 2858SOL    MW411200   2.511   0.843   0.874 -0.1440  0.4927  0.0014
 2859SOL     OW11201   5.572   0.520   3.191  0.5177 -0.1785  0.2794
 2859SOL    HW211202   5.520   0.543   3.115  1.3412  1.7358  0.2393
 2859SOL    HW311203   5.513   0.532   3.265  0.7131  1.4812  0.1966
 2859SOL    MW411204   5.557   0.525   3.191  0.6521  0.2930  0.2632
 2860SOL     OW11205   0.778   3.933   6.085  0.3092 -0.4550  0.2241
 2860SOL    HW211206   0.729   3.951   6.004 -3.3887 -1.2705  2.0638
 2860SOL    HW311207   0.855   3.990   6.080 -0.5968  0.7089 -3.0835
 2860SOL    MW411208   0.782   3.943   6.073 -0.2982 -0.4090  0.0304
 2861SOL     OW11209   5.883   6.187   3.030  0.1032 -0.2061 -0.0990
 2861SOL    HW211210   5.795   6.218   3.009 -0.5934 -2.0635 -0.1195
 2861SOL    HW311211   5.927   6.263   3.067 -1.8180  0.5445  0.7755
 2861SOL    MW411212   5.877   6.201   3.032 -0.2422 -0.3521  0.0137
 2862SOL     OW11213   3.145   0.797   1.233  0.3249  0.4398 -0.3693
 2862SOL    HW211214   3.153   0.702   1.235 -0.9715  0.1811 -3.4148
 2862SOL    HW311215   3.225   0.827   1.189  1.1243  0.9054  1.2990
 2862SOL    MW411216   3.157   0.788   1.228  0.2594  0.4671 -0.5510
 2863SOL     OW11217   3.641   3.074   5.982 -0.1883  0.5259  0.7930
 2863SOL    HW211218   3.582   3.002   6.007 -0.3789 -0.0468 -1.1101
 2863SOL    HW311219   3.583   3.140   5.946  0.2843 -0.2032 -1.4643
 2863SOL    MW411220   3.625   3.073   5.980 -0.1511  0.3541  0.2441
 2864SOL     OW11221   3.243   4.640   2.729  0.1623 -0.1786  0.2615
 2864SOL    HW211222   3.329   4.645   2.687  0.8090 -1.4451  1.3655
 2864SOL    HW311223   3.195   4.575   2.678  1.8963 -3.8249  2.9075
 2864SOL    MW411224   3.248   4.632   2.717  0.4764 -0.8268  0.7562
 2865SOL     OW11225   2.220   1.697   4.033 -0.3020  0.7120  0.5654
 2865SOL    HW211226   2.125   1.690   4.022 -0.3142  1.4260  0.0969
 2865SOL    HW311227   2.236   1.678   4.125 -0.8232 -0.0743  0.5039
 2865SOL    MW411228   2.210   1.694   4.044 -0.3724  0.7024  0.4954
 2866SOL     OW11229   6.203   3.461   5.808  0.5197 -0.6486 -0.7435
 2866SOL    HW211230   6.110   3.482   5.820  1.1259  1.3777  1.1574
 2866SOL    HW311231   6.206   3.411   5.727 -2.1353 -0.0258 -1.3278
 2866SOL    MW411232   6.191   3.457   5.799  0.2494 -0.2991 -0.5698
 2867SOL     OW11233   1.793   4.559   5.174  0.1476 -0.0751 -0.3561
 2867SOL    HW211234   1.834   4.493   5.118  2.1649 -0.0526  1.0033
 2867SOL    HW311235   1.863   4.588   5.233 -1.4394  1.1547  1.0244
 2867SOL    MW411236   1.807   4.554   5.174  0.2044  0.0902  0.0054
 2868SOL     OW11237   1.340   0.531   4.285 -0.4532 -0.3321  0.0614
 2868SOL    HW211238   1.285   0.581   4.346  0.2864  2.1817 -1.1886
 2868SOL    HW311239   1.424   0.522   4.330 -0.5850 -0.4414  0.2867
 2868SOL    MW411240   1.344   0.536   4.299 -0.3730 -0.0149 -0.0738
 2869SOL     OW11241   0.502   3.831   5.012  0.6828 -0.2038  0.2272
 2869SOL    HW211242   0.578   3.773   5.009  0.6959 -0.1505 -1.4429
 2869SOL    HW311243   0.427   3.771   5.015  0.7453 -0.2797  0.2986
 2869SOL    MW411244   0.502   3.815   5.012  0.6928 -0.2068  0.0163
 2870SOL     OW11245   0.446   0.693   2.027  0.4011 -0.0983  0.6878
 2870SOL    HW211246   0.371   0.742   2.061 -0.0574 -1.3753  1.5741
 2870SOL    HW311247   0.483   0.750   1.959 -1.0744  0.7546  0.5626
 2870SOL    MW411248   0.441   0.707   2.023  0.1459 -0.1543  0.7882
 2871SOL     OW11249   2.892   5.282   5.179 -0.0488  0.5133 -0.2058
 2871SOL    HW211250   2.985   5.272   5.196  0.2808 -1.6089 -2.6055
 2871SOL    HW311251   2.886   5.351   5.113 -0.0657  0.1786 -0.5637
 2871SOL    MW411252   2.903   5.290   5.172 -0.0075  0.1892 -0.5696
 2872SOL     OW11253   0.463   6.246   4.747  0.0406 -0.0751  0.3318
 2872SOL    HW211254   0.383   6.266   4.697  1.3480 -0.1691 -1.9289
 2872SOL    HW311255   0.533   6.249   4.682  1.7242 -1.3553  1.9945
 2872SOL    MW411256   0.461   6.249   4.732  0.4352 -0.2564  0.2529
 2873SOL     OW11257   2.711   0.287   1.905  0.8108 -0.6659  0.5039
 2873SOL    HW211258   2.669   0.344   1.841  0.6489 -0.2227  1.0018
 2873SOL    HW311259   2.644   0.221   1.926  1.0620 -1.1555 -0.2098
 2873SOL    MW411260   2.696   0.286   1.900  0.8226 -0.6720  0.4754
 2874SOL     OW11261   5.253   3.183   6.304 -0.0987 -0.6567  0.8172
 2874SOL    HW211262   5.297   3.111   6.349 -0.1092 -0.6339  0.8650
 2874SOL    HW311263   5.247   3.252   6.371 -0.2765 -0.6875  0.8346
 2874SOL    MW411264   5.258   3.183   6.319 -0.1235 -0.6577  0.8258
 2875SOL     OW11265   1.252   1.553   3.584 -0.1915 -0.3313 -0.3326
 2875SOL    HW211266   1.309   1.499   3.639 -1.0979  0.7089  1.7240
 2875SOL    HW311267   1.164   1.523   3.605 -0.7406  2.0121  1.0448
 2875SOL    MW411268   1.248   1.542   3.594 -0.3835  0.1151  0.1205
 2876SOL     OW11269   6.102   3.626   5.077  0.2041 -0.4289 -0.4461
 2876SOL    HW211270   6.130   3.651   5.165 -0.8797 -0.8787  0.0422
 2876SOL    HW311271   6.182   3.598   5.034  1.0611  1.4962 -0.2099
 2876SOL    MW411272   6.116   3.626   5.083  0.1742 -0.2342 -0.3505
 2877SOL     OW11273   2.688   2.023   4.536 -0.0476  0.0328  0.5126
 2877SOL    HW211274   2.759   2.087   4.542 -0.8464  0.8947  1.0279
 2877SOL    HW311275   2.646   2.026   4.622 -2.5738  1.7741 -0.6458
 2877SOL    MW411276   2.692   2.032   4.548 -0.4863  0.3762  0.4278
 2878SOL     OW11277   6.374   6.181   0.719 -0.1783  0.1953  0.5489
 2878SOL    HW211278   6.462   6.198   0.686 -0.0890  0.2784  0.8206
 2878SOL    HW311279   6.352   6.093   0.688 -0.0758  0.2488  0.3218
 2878SOL    MW411280   6.382   6.172   0.711 -0.1530  0.2133  0.5548
 2879SOL     OW11281   1.344   5.489   0.139 -0.2453  0.1838 -0.5555
 2879SOL    HW211282   1.383   5.420   0.085  0.4285  0.5856 -0.5987
 2879SOL    HW311283   1.279   5.530   0.082  2.2070  2.2791 -2.0399
 2879SOL    MW411284   1.340   5.485   0.124  0.1672  0.5133 -0.7570
 2880SOL     OW11285   3.494   4.405   2.444  0.0208  0.3955  0.2660
 2880SOL    HW211286   3.552   4.393   2.369 -0.2820 -1.5117  0.3021
 2880SOL    HW311287   3.409   4.374   2.415 -0.3269  0.5400  1.0950
 2880SOL    MW411288   3.490   4.399   2.430 -0.0650  0.1629  0.3801
 2881SOL     OW11289   4.882   4.345   1.157  0.6561  0.7322  0.2576
 2881SOL    HW211290   4.894   4.420   1.099 -1.2215  1.1429  0.3350
 2881SOL    HW311291   4.912   4.270   1.106 -1.8164  0.9429 -1.6849
 2881SOL    MW411292   4.887   4.345   1.143  0.0822  0.8142  0.0116
 2882SOL     OW11293   4.274   1.090   4.167 -0.3234  0.3028  0.1328
 2882SOL    HW211294   4.272   1.068   4.074 -2.9382  0.3102  0.1229
 2882SOL    HW311295   4.326   1.020   4.207  1.9033  0.9525 -1.4098
 2882SOL    MW411296   4.280   1.078   4.160 -0.3746  0.3895 -0.0720
 2883SOL     OW11297   2.082   1.871   6.309  0.2030  0.1741 -0.3319
 2883SOL    HW211298   2.002   1.822   6.327  2.0203 -2.9100  0.1604
 2883SOL    HW311299   2.134   1.861   6.389  1.0824  2.1918 -0.5998
 2883SOL    MW411300   2.078   1.863   6.322  0.5588  0.0334 -0.3023
 2884SOL     OW11301   5.141   1.841   3.102 -0.3354 -0.2584  0.0018
 2884SOL    HW211302   5.076   1.772   3.093 -0.3719 -0.1114 -0.8675
 2884SOL    HW311303   5.145   1.883   3.016  1.9044 -1.1427 -0.4017
 2884SOL    MW411304   5.133   1.837   3.090 -0.0447 -0.3557 -0.1661
 2885SOL     OW11305   2.220   2.380   1.826 -0.5528 -0.4780 -0.1214
 2885SOL    HW211306   2.252   2.310   1.769 -1.5026  0.1452 -1.4905
 2885SOL    HW311307   2.125   2.381   1.812 -0.6849  0.3667  0.7103
 2885SOL    MW411308   2.212   2.371   1.816 -0.6956 -0.2843 -0.1923
 2886SOL     OW11309   4.799   3.975   4.430  0.3247 -0.7347 -0.4446
 2886SOL    HW211310   4.747   3.966   4.510  1.5289 -1.2203  0.3086
 2886SOL    HW311311   4.747   4.032   4.374 -0.7782 -0.7971  0.4797
 2886SOL    MW411312   4.785   3.981   4.433  0.3381 -0.8070 -0.2233
 2887SOL     OW11313   5.649   3.899   0.911 -0.0166 -0.3718  0.2271
 2887SOL    HW211314   5.722   3.944   0.869  0.1765  0.9119  1.8421
 2887SOL    HW311315   5.571   3.941   0.874  0.1440  0.4961  0.8354
 2887SOL    MW411316   5.648   3.910   0.901  0.0301 -0.0880  0.5204
 2888SOL     OW11317   1.737   5.111   6.333  0.3623 -0.3625 -0.3956
 2888SOL    HW211318   1.747   5.103   6.428  1.7546  0.3323 -0.4488
 2888SOL    HW311319   1.670   5.178   6.321 -0.0103 -0.6422  0.0902
 2888SOL    MW411320   1.730   5.119   6.344  0.4969 -0.3077 -0.3385
 2889SOL     OW11321   5.331   1.474   2.600 -0.2707  0.1424 -0.3227
 2889SOL    HW211322   5.322   1.380   2.611  2.2296 -0.2120 -0.7394
 2889SOL    HW311323   5.352   1.507   2.687  1.2773 -0.0702 -0.5885
 2889SOL    MW411324   5.332   1.466   2.613  0.2634  0.0676 -0.4127
 2890SOL     OW11325   4.077   1.494   5.799 -0.6155 -0.6048  0.0977
 2890SOL    HW211326   3.991   1.455   5.812  0.1134 -2.1478  0.6170
 2890SOL    HW311327   4.078   1.572   5.853 -1.4205 -1.0049  0.7031
 2890SOL    MW411328   4.066   1.499   5.808 -0.6255 -0.8612  0.2461
 2891SOL     OW11329   3.299   3.817   1.078  0.0785  0.0462  0.8148
 2891SOL    HW211330   3.246   3.859   1.010 -0.0814  0.5842  1.2683
 2891SOL    HW311331   3.269   3.727   1.080  0.3439 -0.0759 -0.0935
 2891SOL    MW411332   3.288   3.811   1.069  0.0925  0.1011  0.7548
 2892SOL     OW11333   5.824   1.188   1.869 -0.6875 -0.4996  0.2314
 2892SOL    HW211334   5.806   1.276   1.899  0.8796  0.2156 -0.7879
 2892SOL    HW311335   5.750   1.167   1.811 -0.6277  0.5179 -0.2400
 2892SOL    MW411336   5.812   1.197   1.865 -0.4728 -0.2710  0.0347
 2893SOL     OW11337   4.781   2.539   0.743  0.0464  0.0299 -0.0600
 2893SOL    HW211338   4.809   2.456   0.781  1.6404  0.1955 -0.8062
 2893SOL    HW311339   4.733   2.514   0.664  0.7439 -0.1846 -0.4227
 2893SOL    MW411340   4.778   2.525   0.738  0.3487  0.0234 -0.2063
 2894SOL     OW11341   6.255   3.243   4.982 -0.3586 -0.2747  0.1860
 2894SOL    HW211342   6.240   3.305   4.911 -1.3215 -0.6223  0.0693
 2894SOL    HW311343   6.234   3.292   5.062  3.9811  1.2565  0.6628
 2894SOL    MW411344   6.251   3.257   4.984  0.0869 -0.1186  0.2335
 2895SOL     OW11345   0.432   0.788   0.007  0.1867 -0.1600 -0.2612
 2895SOL    HW211346   0.516   0.807  -0.034 -0.8438  0.2338 -2.3715
 2895SOL    HW311347   0.415   0.696  -0.013 -0.7502  0.2786 -1.6526
 2895SOL    MW411348   0.441   0.779  -0.001 -0.0729 -0.0502 -0.7232
 2896SOL     OW11349   3.987   2.172   6.382  0.7373 -0.3719 -0.1497
 2896SOL    HW211350   3.897   2.144   6.395  0.6777 -0.0425  0.1599
 2896SOL    HW311351   3.987   2.216   6.297  0.7806 -1.0751 -0.5253
 2896SOL    MW411352   3.975   2.174   6.373  0.7351 -0.4212 -0.1584
 2897SOL     OW11353   1.608   3.038   1.633  0.4306  0.0712  0.0686
 2897SOL    HW211354   1.603   3.120   1.682 -0.8710 -0.4731  0.8941
 2897SOL    HW311355   1.576   3.060   1.546 -1.2081  0.1919  0.6600
 2897SOL    MW411356   1.603   3.052   1.628  0.0427  0.0153  0.2555
 2898SOL     OW11357   2.455   5.411   0.083 -0.0371 -0.6242  0.0534
 2898SOL    HW211358   2.489   5.497   0.107 -1.0139 -0.5122  1.1106
 2898SOL    HW311359   2.522   5.374   0.025  0.6163  0.6433 -0.0304
 2898SOL    MW411360   2.468   5.417   0.079 -0.0798 -0.4422  0.1818
 2899SOL     OW11361   0.337   5.339   0.309 -0.0119 -0.0980 -0.3058
 2899SOL    HW211362   0.285   5.259   0.317 -0.5672  0.1887 -0.9441
 2899SOL    HW311363   0.276   5.410   0.331  0.1306  0.2317 -0.9303
 2899SOL    MW411364   0.322   5.338   0.313 -0.0664 -0.0167 -0.4724
 2900SOL     OW11365   1.711   1.717   1.704  0.4678 -0.6279 -0.0467
 2900SOL    HW211366   1.786   1.777   1.699 -0.5566  0.9389  1.9326
 2900SOL    HW311367   1.718   1.664   1.625  4.2628 -1.3321  0.5805
 2900SOL    MW411368   1.722   1.718   1.693  0.8334 -0.5141  0.2972
 2901SOL     OW11369   0.530   1.465   3.845  0.3248  0.2463  0.4954
 2901SOL    HW211370   0.575   1.392   3.801 -1.2389 -1.5451  1.6848
 2901SOL    HW311371   0.504   1.523   3.774  0.8513 -0.7933 -0.5922
 2901SOL    MW411372   0.533   1.463   3.830  0.1879 -0.1272  0.5088
 2902SOL     OW11373   2.437   3.148   6.422 -0.7629 -0.0309 -0.9302
 2902SOL    HW211374   2.352   3.191   6.410 -1.0063 -0.5063 -0.9773
 2902SOL    HW311375   2.496   3.194   6.363 -0.3851  1.9248  0.9045
 2902SOL    MW411376   2.433   3.160   6.412 -0.7452  0.1645 -0.6944
 2903SOL     OW11377   4.443   5.375   1.000 -0.0390  0.1015  0.9065
 2903SOL    HW211378   4.355   5.336   0.994 -0.0358  0.0305  1.2730
 2903SOL    HW311379   4.500   5.301   1.019  0.4359 -0.2114 -1.4959
 2903SOL    MW411380   4.439   5.360   1.002  0.0241  0.0509  0.6379
 2904SOL     OW11381   0.241   3.350   3.029 -0.2992  0.0286 -0.0880
 2904SOL    HW211382   0.328   3.386   3.046  0.0733 -1.0786  0.4481
 2904SOL    HW311383   0.252   3.255   3.041 -1.7485 -0.0600  0.7836
 2904SOL    MW411384   0.254   3.342   3.033 -0.4413 -0.1291  0.0977
 2905SOL     OW11385   4.991   5.547   4.963  0.6333  0.3146 -0.1867
 2905SOL    HW211386   5.010   5.614   5.028  0.9477 -0.2875  0.3572
 2905SOL    HW311387   4.909   5.575   4.922 -1.0398 -0.6162  2.2826
 2905SOL    MW411388   4.983   5.559   4.966  0.4540  0.1123  0.2108
 2906SOL     OW11389   4.014   5.423   1.661  0.1714 -0.1955 -0.1320
 2906SOL    HW211390   3.943   5.359   1.657 -0.3782  0.4025  0.0118
 2906SOL    HW311391   4.062   5.411   1.579  0.1981 -0.9281 -0.0171
 2906SOL    MW411392   4.011   5.413   1.649  0.1024 -0.2132 -0.0979
 2907SOL     OW11393   1.612   0.819   4.643  0.3390 -0.0682  0.3159
 2907SOL    HW211394   1.676   0.773   4.697 -0.3081 -2.8729 -1.1034
 2907SOL    HW311395   1.530   0.814   4.693  0.0029 -1.6174 -0.3456
 2907SOL    MW411396   1.609   0.812   4.657  0.2093 -0.6426  0.0414
 2908SOL     OW11397   3.387   1.035   5.002  0.5405  0.1983 -0.3050
 2908SOL    HW211398   3.349   0.954   4.967 -0.5931  0.5656  0.0302
 2908SOL    HW311399   3.468   1.007   5.044  0.5579 -0.6438 -0.8733
 2908SOL    MW411400   3.392   1.021   5.003  0.3932  0.1356 -0.3357
 2909SOL     OW11401   3.065   2.554   4.148  0.2483  0.3154 -0.1295
 2909SOL    HW211402   3.024   2.613   4.211  1.0666  0.2631  0.4670
 2909SOL    HW311403   3.133   2.607   4.106  0.9885 -0.1791  0.4098
 2909SOL    MW411404   3.069   2.569   4.151  0.4539  0.2433  0.0204
 2910SOL     OW11405   4.682   5.220   2.479  0.1295  1.0703 -0.0044
 2910SOL    HW211406   4.746   5.157   2.445 -0.0950  0.0310  1.4003
 2910SOL    HW311407   4.735   5.286   2.524  0.2387 -0.2321  1.8770
 2910SOL    MW411408   4.698   5.220   2.481  0.1143  0.7613  0.4292
 2911SOL     OW11409   4.480   4.332   1.959 -0.1233  0.1514  0.0796
 2911SOL    HW211410   4.407   4.338   2.020  1.3671 -0.5532  2.0214
 2911SOL    HW311411   4.456   4.392   1.888 -2.4789  0.0784  0.7094
 2911SOL    MW411412   4.467   4.341   1.958 -0.2374  0.0488  0.4189
 2912SOL     OW11413   4.120   4.161   3.446  0.3782 -0.4493  0.8417
 2912SOL    HW211414   4.059   4.184   3.516  0.9856 -1.4010  1.7151
 2912SOL    HW311415   4.069   4.105   3.387 -0.5141  1.3948 -0.2202
 2912SOL    MW411416   4.105   4.156   3.447  0.3406 -0.3316  0.8168
 2913SOL     OW11417   4.371   1.752   0.657  0.2326  0.0814 -0.1794
 2913SOL    HW211418   4.278   1.748   0.680  0.1373 -0.2650 -0.6170
 2913SOL    HW311419   4.401   1.661   0.661  0.3879  0.1036 -0.7108
 2913SOL    MW411420   4.363   1.739   0.661  0.2405  0.0386 -0.3072
 2914SOL     OW11421   4.043   0.928   0.310  0.5345 -0.5661 -0.3807
 2914SOL    HW211422   4.019   0.888   0.393 -1.1222  0.7140 -0.1939
 2914SOL    HW311423   4.138   0.921   0.306  0.4582 -2.5646  0.6034
 2914SOL    MW411424   4.052   0.922   0.320  0.3059 -0.6609 -0.2262
 2915SOL     OW11425   0.211   3.653   2.917 -0.1551 -0.1163 -0.5286
 2915SOL    HW211426   0.266   3.602   2.858  0.2819 -0.2039 -0.0464
 2915SOL    HW311427   0.123   3.619   2.903 -0.1591  0.2652 -1.5661
 2915SOL    MW411428   0.206   3.642   2.907 -0.0979 -0.0775 -0.6018
 2916SOL     OW11429   3.505   5.832   5.833 -0.2743  0.5187 -0.4101
 2916SOL    HW211430   3.536   5.746   5.803  0.6258  0.5211  0.4548
 2916SOL    HW311431   3.494   5.883   5.753 -1.6758 -0.6613 -1.0152
 2916SOL    MW411432   3.508   5.827   5.819 -0.3404  0.3634 -0.3758
 2917SOL     OW11433   1.915   1.083   1.875  0.7626  0.5041 -0.1517
 2917SOL    HW211434   2.000   1.044   1.898 -0.5961 -2.4492  0.3730
 2917SOL    HW311435   1.934   1.140   1.801  3.2849  0.4700  0.3584
 2917SOL    MW411436   1.929   1.085   1.869  0.9162  0.1099 -0.0152
 2918SOL     OW11437   3.840   3.199   4.403  0.0763 -0.7184  0.2571
 2918SOL    HW211438   3.869   3.260   4.335 -1.1204 -1.2689 -0.7939
 2918SOL    HW311439   3.817   3.119   4.355  0.5101 -1.6116  1.4798
 2918SOL    MW411440   3.841   3.196   4.387 -0.0244 -0.9089  0.2797
 2919SOL     OW11441   1.919   2.814   2.678  0.1272 -0.1080  0.8241
 2919SOL    HW211442   1.974   2.767   2.616  1.0926  0.3207  1.3375
 2919SOL    HW311443   1.923   2.906   2.650  0.7780  0.1316  1.6413
 2919SOL    MW411444   1.927   2.820   2.666  0.3404 -0.0199  0.9997
 2920SOL     OW11445   2.221   0.186   1.796  0.8394  0.5047 -0.8174
 2920SOL    HW211446   2.156   0.152   1.734 -2.5603  0.3675  2.4759
 2920SOL    HW311447   2.279   0.112   1.814 -1.2443 -1.0344 -0.0965
 2920SOL    MW411448   2.220   0.172   1.790  0.1159  0.2835 -0.2878
 2921SOL     OW11449   0.506   4.706   6.094  0.7448 -0.1802 -0.0834
 2921SOL    HW211450   0.523   4.702   6.000  1.1924 -0.8660  0.0156
 2921SOL    HW311451   0.552   4.630   6.130 -0.6757 -0.8105  0.4954
 2921SOL    MW411452   0.514   4.695   6.086  0.6164 -0.3538  0.0060
 2922SOL     OW11453   2.014   4.075   3.944 -0.0320  0.4748  0.1209
 2922SOL    HW211454   1.937   4.119   3.981 -0.3056 -0.4163  0.6158
 2922SOL    HW311455   2.077   4.146   3.930 -0.8667  1.1918 -0.1261
 2922SOL    MW411456   2.012   4.090   3.947 -0.1782  0.4518  0.1536
 2923SOL     OW11457   0.490   3.476   2.926 -0.0140  0.3304 -0.0144
 2923SOL    HW211458   0.569   3.423   2.922  2.1787  3.3986 -1.1632
 2923SOL    HW311459   0.473   3.501   2.835 -0.4138  2.2614  0.5439
 2923SOL    MW411460   0.498   3.472   2.913  0.2225  0.9900 -0.0923
 2924SOL     OW11461   3.607   0.452   0.088  0.0426  1.0021  0.0235
 2924SOL    HW211462   3.570   0.364   0.101  2.7958  0.0761  2.6237
 2924SOL    HW311463   3.669   0.441   0.016  0.8762  0.6145  0.7879
 2924SOL    MW411464   3.610   0.439   0.080  0.5158  0.8288  0.4674
 2925SOL     OW11465   2.265   3.634   2.671 -0.0607 -0.5703 -0.5252
 2925SOL    HW211466   2.359   3.637   2.652  0.1731 -1.3056  0.4524
 2925SOL    HW311467   2.234   3.556   2.626  0.3791 -1.9728  1.4796
 2925SOL    MW411468   2.274   3.624   2.663  0.0282 -0.8523 -0.1317
 2926SOL     OW11469   6.412   1.794   2.631  0.5077  0.0342 -0.0851
 2926SOL    HW211470   6.370   1.741   2.699  0.3671 -0.0934 -0.2707
 2926SOL    HW311471   6.415   1.737   2.554  4.2968 -1.3829  0.8523
 2926SOL    MW411472   6.407   1.779   2.630  0.9891 -0.1696  0.0141
 2927SOL     OW11473   0.605   3.354   1.376 -0.0764  0.4546  0.2393
 2927SOL    HW211474   0.593   3.294   1.303 -0.6218 -1.3729  1.7493
 2927SOL    HW311475   0.697   3.343   1.402 -0.3646 -0.3529  0.9854
 2927SOL    MW411476   0.615   3.345   1.370 -0.1864  0.1070  0.5369
 2928SOL     OW11477   5.680   6.082   0.149 -0.8276 -0.0045  0.1015
 2928SOL    HW211478   5.594   6.117   0.172 -0.7892 -0.0810  0.3651
 2928SOL    HW311479   5.682   5.996   0.190 -0.3200  0.3150  0.7583
 2928SOL    MW411480   5.669   6.075   0.157 -0.7555  0.0276  0.2229
 2929SOL     OW11481   4.283   2.082   1.678 -0.0176 -0.4057 -0.5445
 2929SOL    HW211482   4.299   2.020   1.607  1.4942  0.0633 -0.6479
 2929SOL    HW311483   4.365   2.132   1.686  0.0787 -0.7957  1.8684
 2929SOL    MW411484   4.296   2.080   1.670  0.1946 -0.3953 -0.2398
 2930SOL     OW11485   6.234   0.271   6.142 -0.0449 -0.1847  0.1537
 2930SOL    HW211486   6.226   0.327   6.065 -3.0530 -0.4913  0.0966
 2930SOL    HW311487   6.202   0.325   6.214 -0.7859 -1.0495  0.4941
 2930SOL    MW411488   6.229   0.285   6.141 -0.5395 -0.3392  0.1911
 2931SOL     OW11489   1.032   1.255   3.390  0.1099  0.8367 -0.3597
 2931SOL    HW211490   0.995   1.189   3.331  2.9979  0.0174 -1.4727
 2931SOL    HW311491   0.961   1.278   3.449 -1.9080 -0.9607 -1.9240
 2931SOL    MW411492   1.018   1.249   3.390  0.2247  0.4915 -0.7129
 2932SOL     OW11493   3.943   4.664   2.656 -0.8641 -0.6700  0.0153
 2932SOL    HW211494   3.888   4.740   2.640 -0.0374  0.0771  0.6370
 2932SOL    HW311495   3.935   4.611   2.577  0.8255  1.4760 -1.6910
 2932SOL    MW411496   3.935   4.667   2.644 -0.5321 -0.2883 -0.1278
 2933SOL     OW11497   0.324   3.849   0.769 -0.2298 -1.0304 -0.4687
 2933SOL    HW211498   0.258   3.873   0.834  0.2723  0.8384 -0.6174
 2933SOL    HW311499   0.327   3.753   0.773 -1.7571 -1.0671  0.7050
 2933SOL    MW411500   0.316   3.839   0.778 -0.3650 -0.7887 -0.3335
 2934SOL     OW11501   4.228   0.747   1.437 -0.5130  0.9708  0.2335
 2934SOL    HW211502   4.181   0.812   1.384 -0.8897 -0.3272 -1.1162
 2934SOL    HW311503   4.318   0.754   1.406 -0.8537 -0.2593 -1.1587
 2934SOL    MW411504   4.233   0.757   1.426 -0.6076  0.6372 -0.1283
 2935SOL     OW11505   1.056   2.468   0.975 -0.4573 -0.4394  0.1356
 2935SOL    HW211506   1.127   2.470   1.039 -0.1989  0.2137 -0.1632
 2935SOL    HW311507   1.085   2.406   0.908 -0.0737 -0.0253 -0.0869
 2935SOL    MW411508   1.069   2.460   0.974 -0.3726 -0.2986  0.0668
 2936SOL     OW11509   1.910   4.003   0.462  0.2801 -0.1435 -0.7738
 2936SOL    HW211510   1.852   3.927   0.459  0.2897 -0.2953  1.3337
 2936SOL    HW311511   1.893   4.049   0.380 -1.1957 -1.3582 -1.2001
 2936SOL    MW411512   1.900   3.999   0.451  0.0867 -0.3238 -0.5520
 2937SOL     OW11513   1.700   5.564   6.176 -0.5083 -0.2892 -0.6523
 2937SOL    HW211514   1.750   5.633   6.220  1.0521 -0.3372 -2.1954
 2937SOL    HW311515   1.765   5.521   6.120 -1.1684 -3.7114  0.9807
 2937SOL    MW411516   1.715   5.567   6.174 -0.3895 -0.7470 -0.6404
 2938SOL     OW11517   2.632   0.599   4.941 -0.7865 -0.0035 -0.4137
 2938SOL    HW211518   2.671   0.589   5.028 -0.5436  1.3353 -0.3433
 2938SOL    HW311519   2.702   0.574   4.881 -1.0516 -1.2288 -0.2419
 2938SOL    MW411520   2.646   0.595   4.945 -0.7894  0.0115 -0.3817
 2939SOL     OW11521   4.631   2.885   0.054 -0.1246 -0.0594  0.7341
 2939SOL    HW211522   4.706   2.826   0.046  1.3181  1.6934  0.5747
 2939SOL    HW311523   4.596   2.867   0.141 -0.9490 -2.4562 -0.0167
 2939SOL    MW411524   4.636   2.875   0.064 -0.0430 -0.1444  0.6140
 2940SOL     OW11525   0.778   5.232   1.470 -0.2207 -0.0516 -0.6899
 2940SOL    HW211526   0.796   5.316   1.514 -1.1536 -0.6571  0.9624
 2940SOL    HW311527   0.685   5.236   1.450  0.0762 -0.0365 -2.1439
 2940SOL    MW411528   0.768   5.244   1.473 -0.3046 -0.1295 -0.6637
 2941SOL     OW11529   2.761   2.651   3.402 -0.2587 -0.2606 -0.1414
 2941SOL    HW211530   2.772   2.730   3.349  2.1088 -0.5038 -0.0887
 2941SOL    HW311531   2.780   2.679   3.491  1.1410 -0.9865 -0.1973
 2941SOL    MW411532   2.765   2.665   3.407  0.2383 -0.3885 -0.1418
 2942SOL     OW11533   1.363   0.088   2.055 -0.0886  0.0919  0.1075
 2942SOL    HW211534   1.302   0.104   2.127 -0.4102 -0.7738  0.0378
 2942SOL    HW311535   1.318   0.026   1.998 -0.2824  1.5808 -1.4356
 2942SOL    MW411536   1.349   0.082   2.057 -0.1566  0.1741 -0.1053
 2943SOL     OW11537   3.218   0.697   3.963  0.1758  0.0309  0.0624
 2943SOL    HW211538   3.124   0.711   3.971  0.5137  2.4566  0.6943
 2943SOL    HW311539   3.226   0.612   3.919 -2.3055  0.1220 -0.7379
 2943SOL    MW411540   3.207   0.688   3.958 -0.1070  0.3630  0.0402
 2944SOL     OW11541   2.769   4.260   0.395  0.2592  0.1749 -0.1887
 2944SOL    HW211542   2.770   4.172   0.356 -0.2305  0.4963 -0.9463
 2944SOL    HW311543   2.862   4.279   0.412  0.3795 -0.4306 -0.1360
 2944SOL    MW411544   2.782   4.251   0.392  0.2105  0.1374 -0.2817
 2945SOL     OW11545   3.247   2.254   5.952 -0.5522  0.1230  0.0362
 2945SOL    HW211546   3.239   2.237   6.046 -0.1606  1.3132  0.3045
 2945SOL    HW311547   3.262   2.168   5.913  0.7434 -0.2393  1.2355
 2945SOL    MW411548   3.248   2.241   5.959 -0.3296  0.2322  0.2298
 2946SOL     OW11549   3.376   1.689   0.225  0.5026 -0.0793  0.1713
 2946SOL    HW211550   3.352   1.741   0.301 -0.6916 -1.9024  1.1272
 2946SOL    HW311551   3.304   1.627   0.215  0.9408 -0.2989 -2.0855
 2946SOL    MW411552   3.363   1.688   0.234  0.4029 -0.3488 -0.0003
 2947SOL     OW11553   2.047   3.922   5.738  0.4508 -0.7852  0.6164
 2947SOL    HW211554   2.137   3.892   5.741  0.0288 -2.0069  2.4547
 2947SOL    HW311555   2.054   4.017   5.724  2.0135 -0.8516  0.7710
 2947SOL    MW411556   2.059   3.931   5.737  0.6013 -0.9552  0.8793
 2948SOL     OW11557   6.135   0.130   1.349  0.4269  0.5246 -0.0646
 2948SOL    HW211558   6.215   0.079   1.340 -0.6123 -1.5868  1.6963
 2948SOL    HW311559   6.080   0.102   1.275  0.6320  0.6217 -0.2540
 2948SOL    MW411560   6.138   0.120   1.338  0.3169  0.2588  0.1427
 2949SOL     OW11561   3.630   5.073   2.058 -0.4667 -0.0616 -0.1970
 2949SOL    HW211562   3.655   5.122   1.980  0.8675  0.1798  0.3493
 2949SOL    HW311563   3.624   5.139   2.127 -0.3531 -0.4324  0.1741
 2949SOL    MW411564   3.633   5.088   2.057 -0.2757 -0.0787 -0.0760
 2950SOL     OW11565   5.848   2.351   3.460  0.0546  0.3571  0.2534
 2950SOL    HW211566   5.885   2.413   3.523 -0.7571  2.0553 -0.8398
 2950SOL    HW311567   5.901   2.272   3.469  1.6385  1.4676  1.1806
 2950SOL    MW411568   5.860   2.349   3.470  0.1565  0.7277  0.2315
 2951SOL     OW11569   2.329   5.695   6.227 -0.0929  0.0010  0.6143
 2951SOL    HW211570   2.424   5.694   6.240  0.2987  0.1893 -1.8082
 2951SOL    HW311571   2.293   5.705   6.315  2.1685  1.6720  1.4427
 2951SOL    MW411572   2.337   5.696   6.241  0.2571  0.2463  0.4040
 2952SOL     OW11573   2.648   5.149   1.382 -0.0632  0.1722 -0.1271
 2952SOL    HW211574   2.730   5.130   1.336 -0.1341  0.2581 -0.2892
 2952SOL    HW311575   2.580   5.140   1.314 -0.0172  2.0152 -0.4783
 2952SOL    MW411576   2.650   5.145   1.367 -0.0665  0.4267 -0.1948
 2953SOL     OW11577   6.188   4.507   3.223 -0.4884 -0.7444 -0.5357
 2953SOL    HW211578   6.155   4.463   3.301  0.5912  0.4796  0.6533
 2953SOL    HW311579   6.279   4.528   3.244 -0.5447  0.7393 -1.6262
 2953SOL    MW411580   6.196   4.504   3.236 -0.3534 -0.3872 -0.5227
 2954SOL     OW11581   3.488   2.392   6.236  0.2869 -0.1209  0.3795
 2954SOL    HW211582   3.548   2.339   6.288  0.5297 -0.1274  0.1003
 2954SOL    HW311583   3.491   2.478   6.276  0.8355 -0.0020  0.0940
 2954SOL    MW411584   3.497   2.396   6.248  0.3913 -0.1061  0.3050
 2955SOL     OW11585   6.400   2.390   5.188  0.1604  0.0122  0.3941
 2955SOL    HW211586   6.449   2.320   5.233  0.6617 -0.0062 -0.1652
 2955SOL    HW311587   6.403   2.464   5.249 -0.8893 -0.6294  1.2511
 2955SOL    MW411588   6.407   2.390   5.202  0.0880 -0.0749  0.4334
 2956SOL     OW11589   6.004   5.540   1.397  0.3303 -0.1430  0.2597
 2956SOL    HW211590   6.088   5.577   1.423  0.5618 -1.4335  1.4730
 2956SOL    HW311591   6.008   5.449   1.427 -1.5857 -0.1604  0.5758
 2956SOL    MW411592   6.016   5.533   1.405  0.1081 -0.3155  0.4615
 2957SOL     OW11593   2.018   2.864   6.388 -0.0786  0.4071 -0.1420
 2957SOL    HW211594   2.113   2.865   6.389 -0.0284 -1.3242  0.0174
 2957SOL    HW311595   1.994   2.777   6.421 -1.7294  1.0142  0.3927
 2957SOL    MW411596   2.027   2.853   6.393 -0.2898  0.2588 -0.0504
 2958SOL     OW11597   1.644   5.571   5.443 -0.1076  0.6681 -0.0109
 2958SOL    HW211598   1.714   5.551   5.504 -0.0141 -0.6669 -0.5141
 2958SOL    HW311599   1.590   5.636   5.489 -0.1400 -0.4158  1.5690
 2958SOL    MW411600   1.646   5.577   5.457 -0.0995  0.3489  0.1311
 2959SOL     OW11601   4.321   1.474   2.895 -0.3809 -0.0135  0.0657
 2959SOL    HW211602   4.356   1.450   2.809  1.1704 -1.9887  1.1710
 2959SOL    HW311603   4.271   1.397   2.923 -0.3766  0.3660  1.1585
 2959SOL    MW411604   4.319   1.461   2.887 -0.1757 -0.2240  0.3557
 2960SOL     OW11605   0.711   5.102   3.321  0.0764  0.1121 -0.1952
 2960SOL    HW211606   0.701   5.019   3.366  0.5710 -0.7828 -1.6594
 2960SOL    HW311607   0.637   5.155   3.351  0.6980 -0.2037  2.0707
 2960SOL    MW411608   0.700   5.098   3.331  0.2237 -0.0476 -0.0895
 2961SOL     OW11609   4.723   2.249   6.374  0.0125  0.0399 -0.0520
 2961SOL    HW211610   4.645   2.291   6.337  0.0320 -0.5109 -0.7376
 2961SOL    HW311611   4.689   2.192   6.443 -0.1983 -0.2225 -0.3718
 2961SOL    MW411612   4.708   2.247   6.378 -0.0127 -0.0674 -0.1846
 2962SOL     OW11613   0.184   5.916   3.897  0.7996  0.1760 -0.0747
 2962SOL    HW211614   0.250   5.927   3.828  1.4109  1.2933  0.6587
 2962SOL    HW311615   0.202   5.986   3.959  1.2238 -1.6728  2.0092
 2962SOL    MW411616   0.195   5.927   3.896  0.9362  0.0794  0.2970
 2963SOL     OW11617   5.824   2.057   3.678  0.0719  0.0946  0.2586
 2963SOL    HW211618   5.881   2.077   3.603  0.6602  0.3075  0.7535
 2963SOL    HW311619   5.751   2.009   3.640  0.7730 -0.5298 -0.3496
 2963SOL    MW411620   5.822   2.053   3.663  0.2420  0.0403  0.2436
 2964SOL     OW11621   1.841   4.528   3.409  0.7837  0.7895 -0.2658
 2964SOL    HW211622   1.879   4.498   3.492  0.1814 -0.3512 -0.3746
 2964SOL    HW311623   1.901   4.596   3.378  1.3393  0.8133  0.8069
 2964SOL    MW411624   1.854   4.533   3.416  0.7775  0.6421 -0.1386
 2965SOL     OW11625   4.900   3.827   1.700  0.1908 -0.3424  0.1743
 2965SOL    HW211626   4.832   3.800   1.762 -0.4720  0.1289 -0.3239
 2965SOL    HW311627   4.938   3.905   1.740 -2.1395  1.6691 -1.2293
 2965SOL    MW411628   4.896   3.834   1.714 -0.2041 -0.0148 -0.0766
 2966SOL     OW11629   4.860   3.424   1.010 -0.0257 -0.1082  0.2015
 2966SOL    HW211630   4.925   3.368   0.968 -1.8646 -1.2383 -1.2923
 2966SOL    HW311631   4.786   3.426   0.949 -0.4166  3.3104  0.5505
 2966SOL    MW411632   4.859   3.417   0.996 -0.3199  0.1937  0.0505
 2967SOL     OW11633   0.074   5.766   6.321 -0.2789 -0.3256  0.3161
 2967SOL    HW211634   0.120   5.840   6.281 -1.3363  0.0413 -0.2520
 2967SOL    HW311635   0.044   5.713   6.247  2.1821 -2.4635  0.7103
 2967SOL    MW411636   0.076   5.769   6.306 -0.0937 -0.5593  0.2932
 2968SOL     OW11637   0.692   4.356   5.486 -1.0935  0.1520  0.0998
 2968SOL    HW211638   0.718   4.306   5.564 -0.6173 -2.0489 -1.3624
 2968SOL    HW311639   0.751   4.431   5.485 -2.7990  1.7353  3.1795
 2968SOL    MW411640   0.703   4.359   5.496 -1.2557  0.0705  0.3132
 2969SOL     OW11641   3.615   0.194   4.435 -0.0458 -0.1290 -0.8755
 2969SOL    HW211642   3.659   0.208   4.519  1.9526 -2.2184 -1.4708
 2969SOL    HW311643   3.522   0.201   4.456  0.3868 -0.2950  1.4539
 2969SOL    MW411644   3.609   0.197   4.449  0.2749 -0.4266 -0.6467
 2970SOL     OW11645   3.593   3.570   4.054  0.5921 -0.0697  0.6251
 2970SOL    HW211646   3.630   3.647   4.097  2.1778  0.6867 -1.9112
 2970SOL    HW311647   3.506   3.559   4.094  1.3081  1.5087  2.7680
 2970SOL    MW411648   3.586   3.578   4.065  0.8958  0.2384  0.5732
 2971SOL     OW11649   4.031   0.917   5.451  0.1418 -0.4102 -0.4762
 2971SOL    HW211650   3.958   0.855   5.452 -0.6036  0.4490 -0.2769
 2971SOL    HW311651   4.108   0.864   5.473 -0.6982 -0.9822  1.2292
 2971SOL    MW411652   4.032   0.901   5.454 -0.0674 -0.3723 -0.2249
 2972SOL     OW11653   2.433   5.507   2.240  0.1264  0.5261 -0.0294
 2972SOL    HW211654   2.485   5.568   2.293  1.1087  0.2500 -0.6663
 2972SOL    HW311655   2.491   5.433   2.225 -0.7839 -0.2093  0.0363
 2972SOL    MW411656   2.448   5.505   2.245  0.1359  0.3926 -0.1048
 2973SOL     OW11657   5.643   6.090   6.030 -0.1060  0.1735  0.0883
 2973SOL    HW211658   5.635   6.179   5.996 -1.4637  0.5373  1.2645
 2973SOL    HW311659   5.607   6.095   6.118  0.9301 -1.2961  0.6238
 2973SOL    MW411660   5.637   6.103   6.037 -0.1485  0.0276  0.3141
 2974SOL     OW11661   5.542   0.506   4.628 -0.1145 -0.4429  0.3660
 2974SOL    HW211662   5.568   0.469   4.544  0.5745  0.8936 -0.0393
 2974SOL    HW311663   5.537   0.600   4.612  0.2468 -0.1453  1.8698
 2974SOL    MW411664   5.545   0.514   4.615  0.0240 -0.2273  0.5110
 2975SOL     OW11665   0.165   4.101   0.334 -0.4124  0.0947  0.0780
 2975SOL    HW211666   0.218   4.048   0.274 -0.5121 -0.2639  0.3008
 2975SOL    HW311667   0.076   4.094   0.299 -0.6844 -1.1005  0.9174
 2975SOL    MW411668   0.160   4.093   0.321 -0.4614 -0.1103  0.2182
 2976SOL     OW11669   3.542   1.795   2.784 -0.1624  0.2307  0.2897
 2976SOL    HW211670   3.595   1.859   2.736 -0.0216  1.0959  1.5559
 2976SOL    HW311671   3.588   1.712   2.774 -0.4215  0.2607 -1.5069
 2976SOL    MW411672   3.555   1.793   2.776 -0.1780  0.3488  0.2197
 2977SOL     OW11673   6.326   5.049   3.654 -0.7198 -0.0402 -0.3612
 2977SOL    HW211674   6.267   4.979   3.626  0.2402 -0.1466 -2.2369
 2977SOL    HW311675   6.274   5.129   3.644 -1.3163 -0.3344  0.3119
 2977SOL    MW411676   6.311   5.050   3.649 -0.6718 -0.0931 -0.5199
 2978SOL     OW11677   2.368   6.241   3.217  0.3613 -0.3498 -0.2659
 2978SOL    HW211678   2.455   6.278   3.201 -0.0817 -0.4540 -3.5032
 2978SOL    HW311679   2.340   6.281   3.299  1.9402  2.6832 -1.0659
 2978SOL    MW411680   2.376   6.251   3.226  0.5112  0.0366 -0.7986
 2979SOL     OW11681   6.008   1.523   6.356 -0.0726 -0.5953  0.0658
 2979SOL    HW211682   6.044   1.487   6.437  0.1849  0.2364  0.3305
 2979SOL    HW311683   6.051   1.607   6.346  0.4126 -0.9772 -1.3086
 2979SOL    MW411684   6.018   1.529   6.365  0.0254 -0.5359 -0.0806
 2980SOL     OW11685   6.424   4.634   1.182  0.0512  0.1553 -0.0968
 2980SOL    HW211686   6.410   4.590   1.098  1.2859 -0.3808 -0.0380
 2980SOL    HW311687   6.391   4.723   1.168 -0.0842 -0.0305 -1.0327
 2980SOL    MW411688   6.418   4.640   1.169  0.1962  0.0600 -0.2125
 2981SOL     OW11689   1.335   1.331   0.112  0.5637 -0.2975  0.5998
 2981SOL    HW211690   1.265   1.349   0.049  0.9675 -1.4424 -0.2152
 2981SOL    HW311691   1.301   1.363   0.196  0.7130  2.8917 -0.4375
 2981SOL    MW411692   1.322   1.337   0.115  0.6367 -0.0278  0.3554
 2982SOL     OW11693   2.031   3.825   2.123 -0.0652  0.7888 -0.2797
 2982SOL    HW211694   2.096   3.815   2.054  0.5931 -0.6709  0.5059
 2982SOL    HW311695   1.963   3.880   2.084 -0.3003 -0.9288 -2.4947
 2982SOL    MW411696   2.030   3.831   2.109 -0.0093  0.3696 -0.4683
 2983SOL     OW11697   1.733   4.100   4.632  0.1063  0.3644  0.2468
 2983SOL    HW211698   1.638   4.113   4.632  0.2564  1.6371  1.5236
 2983SOL    HW311699   1.752   4.063   4.719  0.7676 -0.1109 -0.0877
 2983SOL    MW411700   1.723   4.097   4.644  0.2134  0.4696  0.3711
 2984SOL     OW11701   2.528   2.985   1.500 -0.5016 -0.4788 -0.5989
 2984SOL    HW211702   2.447   2.987   1.450 -1.0513  2.8826  0.2382
 2984SOL    HW311703   2.501   2.991   1.591  0.6770 -1.0257 -0.1863
 2984SOL    MW411704   2.514   2.986   1.505 -0.4186 -0.1075 -0.4340
 2985SOL     OW11705   1.713   4.185   5.421  0.1812  0.1425  0.0450
 2985SOL    HW211706   1.673   4.263   5.381  0.2527  0.5005  0.6674
 2985SOL    HW311707   1.639   4.134   5.453  0.1930  0.7756  1.1425
 2985SOL    MW411708   1.698   4.189   5.420  0.1922  0.2733  0.2719
 2986SOL     OW11709   0.009   1.451   6.051 -1.0212  0.1497  0.1540
 2986SOL    HW211710  -0.068   1.467   6.106  0.1246  1.1919  1.5289
 2986SOL    HW311711   0.015   1.528   5.996  0.4265  1.3021  1.8154
 2986SOL    MW411712   0.000   1.463   6.051 -0.6790  0.4393  0.5546
 2987SOL     OW11713   4.081   5.473   3.925 -0.4485 -0.1875 -0.0949
 2987SOL    HW211714   4.049   5.493   3.837  0.4812  0.8248 -0.2236
 2987SOL    HW311715   4.084   5.557   3.970  0.3934 -0.4953  0.4605
 2987SOL    MW411716   4.077   5.486   3.920 -0.2148 -0.0945 -0.0386
 2988SOL     OW11717   3.544   0.461   2.881 -0.2668 -0.1857 -0.1159
 2988SOL    HW211718   3.599   0.414   2.945  0.6522 -0.4800 -1.0940
 2988SOL    HW311719   3.568   0.423   2.797 -0.0687  1.5197 -0.8609
 2988SOL    MW411720   3.555   0.449   2.879 -0.1194  0.0005 -0.3432
 2989SOL     OW11721   5.049   4.311   4.394 -0.2849 -0.7350 -0.6833
 2989SOL    HW211722   5.125   4.252   4.400  0.4111  0.1953 -0.0439
 2989SOL    HW311723   4.991   4.280   4.464  0.3046 -0.3771 -0.0118
 2989SOL    MW411724   5.052   4.299   4.404 -0.1153 -0.5650 -0.5104
 2990SOL     OW11725   3.393   6.264   2.020 -0.1967  0.1809  0.8198
 2990SOL    HW211726   3.364   6.229   2.104  0.0241  0.1000  0.8632
 2990SOL    HW311727   3.360   6.354   2.019 -2.3826 -0.5667 -0.0959
 2990SOL    MW411728   3.385   6.271   2.031 -0.4560  0.0716  0.7047
 2991SOL     OW11729   3.472   5.542   0.600 -0.0759 -0.5394  0.2417
 2991SOL    HW211730   3.567   5.534   0.606  0.1645  1.3154 -0.3794
 2991SOL    HW311731   3.443   5.459   0.562  1.0003 -2.0737  2.5469
 2991SOL    MW411732   3.480   5.530   0.596  0.0978 -0.4971  0.4639
 2992SOL     OW11733   6.404   1.666   2.366 -0.6496 -0.0673 -0.0140
 2992SOL    HW211734   6.391   1.593   2.426  1.6493  0.1264  0.8061
 2992SOL    HW311735   6.494   1.656   2.334 -0.7433  1.6271 -0.9566
 2992SOL    MW411736   6.414   1.655   2.369 -0.3586  0.1818 -0.0301
 2993SOL     OW11737   2.697   4.648   0.886 -0.8696 -0.4781  0.0663
 2993SOL    HW211738   2.681   4.675   0.795  0.2695  1.8503  0.4773
 2993SOL    HW311739   2.775   4.593   0.882 -1.4898 -1.3468 -0.4634
 2993SOL    MW411740   2.705   4.644   0.873 -0.8011 -0.2855  0.0506
 2994SOL     OW11741   1.900   3.600   5.926 -0.1057  0.1331 -0.4252
 2994SOL    HW211742   1.994   3.615   5.913 -0.2498  0.2749 -1.3185
 2994SOL    HW311743   1.894   3.567   6.016  0.5383  2.3560  0.4999
 2994SOL    MW411744   1.912   3.597   5.936 -0.0398  0.4451 -0.4210
 2995SOL     OW11745   5.112   2.558   0.651  0.1185 -0.1264  0.3111
 2995SOL    HW211746   5.079   2.611   0.579 -0.5561  0.2618  0.9007
 2995SOL    HW311747   5.125   2.471   0.613 -1.6962 -0.3368  0.0677
 2995SOL    MW411748   5.109   2.553   0.637 -0.2099 -0.1029  0.3568
 2996SOL     OW11749   4.380   0.415   4.976  0.0587 -0.4234  0.1412
 2996SOL    HW211750   4.423   0.336   4.942  1.2010  0.8510 -1.4956
 2996SOL    HW311751   4.451   0.469   5.008 -0.2396  1.5901 -2.3096
 2996SOL    MW411752   4.395   0.412   4.976  0.1701  0.0104 -0.3981
 2997SOL     OW11753   5.955   6.303   4.725 -0.1333  0.4574  0.3273
 2997SOL    HW211754   5.874   6.253   4.722 -0.3947  0.8236  1.1625
 2997SOL    HW311755   6.022   6.240   4.752 -0.8775  0.9851  3.9708
 2997SOL    MW411756   5.953   6.288   4.728 -0.2660  0.5753  0.9182
 2998SOL     OW11757   5.386   6.223   4.560  0.0681 -0.5871  0.1806
 2998SOL    HW211758   5.304   6.208   4.607  0.0923 -2.4849 -0.2695
 2998SOL    HW311759   5.453   6.180   4.613  1.1420  2.3866  1.4366
 2998SOL    MW411760   5.384   6.215   4.573  0.2130 -0.4451  0.2869
 2999SOL     OW11761   3.867   3.592   2.958 -0.1490 -0.1227 -0.5350
 2999SOL    HW211762   3.946   3.623   2.913  1.9905 -3.4004  0.5967
 2999SOL    HW311763   3.834   3.521   2.902 -0.8174 -0.4157  0.2166
 2999SOL    MW411764   3.873   3.587   2.944  0.0451 -0.5938 -0.2865
 3000SOL     OW11765   3.874   2.769   1.516  0.2655  0.5894  0.0763
 3000SOL    HW211766   3.822   2.739   1.590  0.8184 -1.3003 -0.2381
 3000SOL    HW311767   3.809   2.787   1.447 -0.0901 -0.1612  0.2034
 3000SOL    MW411768   3.858   2.767   1.517  0.2915  0.2410  0.0516
 3001SOL     OW11769   0.502   2.825   1.860 -0.4997  0.1054 -0.0520
 3001SOL    HW211770   0.469   2.870   1.939  1.2008  1.3485  0.0119
 3001SOL    HW311771   0.538   2.743   1.893  1.1015  1.0466  0.6928
 3001SOL    MW411772   0.503   2.820   1.875 -0.0641  0.3936  0.0547
 3002SOL     OW11773   4.412   3.416   5.633  0.2303 -0.6703  0.1741
 3002SOL    HW211774   4.384   3.357   5.703 -0.1697 -0.9161 -0.1874
 3002SOL    HW311775   4.355   3.394   5.559 -1.1501  1.3779  0.5509
 3002SOL    MW411776   4.401   3.405   5.632 -0.0046 -0.4325  0.1761
 3003SOL     OW11777   2.933   3.254   2.753 -0.2507 -0.4484 -0.1633
 3003SOL    HW211778   2.968   3.179   2.801 -0.0265 -0.9293 -1.0463
 3003SOL    HW311779   2.882   3.302   2.818  1.8024  0.1440  1.1193
 3003SOL    MW411780   2.931   3.251   2.768  0.0498 -0.4337 -0.1106
 3004SOL     OW11781   5.270   6.181   5.534  0.2936  0.0606 -0.5017
 3004SOL    HW211782   5.352   6.133   5.544 -0.2664 -0.4317  3.0212
 3004SOL    HW311783   5.205   6.127   5.578 -1.8157  0.8197 -2.4960
 3004SOL    MW411784   5.272   6.168   5.541 -0.0586  0.0958 -0.3000
 3005SOL     OW11785   5.187   5.978   5.762 -0.1946  0.2141  0.0387
 3005SOL    HW211786   5.219   5.981   5.852 -0.7084 -0.8666  0.2734
 3005SOL    HW311787   5.134   6.057   5.753  0.4969  0.7342  0.4265
 3005SOL    MW411788   5.184   5.988   5.772 -0.1712  0.1401  0.1208
 3006SOL     OW11789   1.604   4.699   3.523  0.0202  0.1294 -0.5128
 3006SOL    HW211790   1.681   4.645   3.510  0.1214  0.1044  0.1637
 3006SOL    HW311791   1.618   4.742   3.607 -1.0788 -0.5140  0.0217
 3006SOL    MW411792   1.616   4.698   3.532 -0.1114  0.0412 -0.3530
 3007SOL     OW11793   5.686   2.477   4.659 -0.4916 -0.0501 -0.0143
 3007SOL    HW211794   5.691   2.561   4.706 -2.3467  0.0225  0.1371
 3007SOL    HW311795   5.752   2.422   4.700  0.4598  1.1974  0.1761
 3007SOL    MW411796   5.695   2.481   4.670 -0.6108  0.1241  0.0308
 3008SOL     OW11797   3.920   4.550   2.214  0.1885 -0.7720  0.3143
 3008SOL    HW211798   3.828   4.528   2.196 -0.0144 -0.5444  1.0415
 3008SOL    HW311799   3.939   4.510   2.298  1.0263 -1.5395 -0.2268
 3008SOL    MW411800   3.910   4.542   2.222  0.2723 -0.8432  0.3388
 3009SOL     OW11801   1.385   3.325   6.401  0.4300  0.4579 -0.0316
 3009SOL    HW211802   1.460   3.375   6.433  1.7777 -1.4521 -0.0809
 3009SOL    HW311803   1.343   3.289   6.479  0.6713  0.0045 -0.1086
 3009SOL    MW411804   1.389   3.327   6.415  0.6396  0.1460 -0.0483
 3010SOL     OW11805   3.656   5.377   1.920  0.6770  0.0235 -0.3721
 3010SOL    HW211806   3.652   5.455   1.976 -1.7643  0.2976 -0.8318
 3010SOL    HW311807   3.652   5.412   1.831 -0.6890 -0.6098 -0.5778
 3010SOL    MW411808   3.655   5.392   1.916  0.1747 -0.0239 -0.4599
 3011SOL     OW11809   6.084   3.641   0.550  0.4373 -0.1230  0.0001
 3011SOL    HW211810   6.166   3.681   0.520 -0.0374  0.3672 -0.6695
 3011SOL    HW311811   6.016   3.703   0.523 -0.0430  0.2439  1.9209
 3011SOL    MW411812   6.086   3.654   0.542  0.3113 -0.0099  0.1652
 3012SOL     OW11813   4.100   0.088   1.296  0.1837 -0.0815 -0.8759
 3012SOL    HW211814   4.036   0.135   1.349  0.1636  1.8436 -2.4939
 3012SOL    HW311815   4.056   0.006   1.273 -0.2090 -0.4837  1.0832
 3012SOL    MW411816   4.086   0.084   1.300  0.1293  0.1194 -0.8309
 3013SOL     OW11817   3.128   1.759   0.000 -0.3968  0.2551 -0.2062
 3013SOL    HW211818   3.191   1.690  -0.018 -0.4639  0.1751 -0.1370
 3013SOL    HW311819   3.113   1.753   0.094  0.5404  1.1712  0.0182
 3013SOL    MW411820   3.134   1.749   0.010 -0.2820  0.3654 -0.1675
 3014SOL     OW11821   6.212   1.229   1.143 -0.4482 -0.0750 -0.2953
 3014SOL    HW211822   6.294   1.270   1.170 -0.9368  1.0066 -0.3804
 3014SOL    HW311823   6.209   1.241   1.048 -1.6338  1.7555 -0.0761
 3014SOL    MW411824   6.222   1.236   1.134 -0.6691  0.3092 -0.2776
 3015SOL     OW11825   1.880   3.436   5.262 -0.1775 -0.0042 -0.3170
 3015SOL    HW211826   1.942   3.486   5.315  0.6118  0.0334 -1.2430
 3015SOL    HW311827   1.926   3.354   5.244 -0.5807 -0.1583 -0.6476
 3015SOL    MW411828   1.894   3.432   5.267 -0.1266 -0.0196 -0.4828
 3016SOL     OW11829   0.381   2.494   2.014  0.3255 -0.6142 -0.1371
 3016SOL    HW211830   0.294   2.495   2.053  0.6388 -0.0149  0.5599
 3016SOL    HW311831   0.371   2.440   1.935 -0.3882 -1.5674  0.5787
 3016SOL    MW411832   0.368   2.487   2.008  0.2726 -0.6609  0.0493
 3017SOL     OW11833   2.783   3.797   5.964 -0.2847  0.1227  0.3145
 3017SOL    HW211834   2.712   3.861   5.968 -0.5434 -0.1665  0.3480
 3017SOL    HW311835   2.794   3.780   5.870  0.7356  1.2687  0.2011
 3017SOL    MW411836   2.775   3.803   5.952 -0.1842  0.2357  0.3040
 3018SOL     OW11837   4.099   5.417   6.134  0.7253  0.2753 -0.3321
 3018SOL    HW211838   4.036   5.457   6.194  0.2917  1.9353 -1.8189
 3018SOL    HW311839   4.180   5.467   6.148  0.7603  0.3421 -0.7570
 3018SOL    MW411840   4.102   5.429   6.144  0.6727  0.5031 -0.5844
 3019SOL     OW11841   2.362   4.662   1.517 -0.0042  0.1568 -0.0633
 3019SOL    HW211842   2.444   4.628   1.552  0.0054 -0.7226 -0.9084
 3019SOL    HW311843   2.368   4.757   1.531  0.9624  0.0663  0.2566
 3019SOL    MW411844   2.374   4.670   1.524  0.1246  0.0288 -0.1326
 3020SOL     OW11845   2.177   3.610   5.910 -0.1474 -0.3142  0.3831
 3020SOL    HW211846   2.207   3.576   5.995 -0.1881  1.2313  1.0401
 3020SOL    HW311847   2.175   3.533   5.853  0.1601 -1.3341  1.7020
 3020SOL    MW411848   2.181   3.595   5.914 -0.1122 -0.2449  0.6438
 3021SOL     OW11849   3.206   6.070   1.213 -0.4763 -0.2895  0.5311
 3021SOL    HW211850   3.247   6.155   1.229  1.3306 -0.4757 -2.3720
 3021SOL    HW311851   3.276   6.016   1.176 -1.8592 -2.7319  1.2288
 3021SOL    MW411852   3.220   6.074   1.210 -0.4204 -0.6363  0.2401
 3022SOL     OW11853   3.243   1.297   0.346  0.0407  0.0884 -0.5416
 3022SOL    HW211854   3.313   1.344   0.391 -0.2053  0.5448 -0.6296
 3022SOL    HW311855   3.186   1.265   0.417 -1.2123  2.1446 -0.5257
 3022SOL    MW411856   3.244   1.299   0.361 -0.1571  0.4199 -0.5511
 3023SOL     OW11857   0.191   1.739   2.817  0.2034 -0.1457  0.4924
 3023SOL    HW211858   0.127   1.755   2.748 -0.0107  1.8316  1.0931
 3023SOL    HW311859   0.272   1.718   2.770 -0.3187 -0.4172 -0.3073
 3023SOL    MW411860   0.193   1.738   2.801  0.1063  0.0794  0.4661
 3024SOL     OW11861   4.572   1.515   3.026  0.0761 -0.2795 -0.6607
 3024SOL    HW211862   4.640   1.560   2.977  1.4168 -1.2776  0.2045
 3024SOL    HW311863   4.501   1.503   2.963  1.1316 -0.1728 -1.9111
 3024SOL    MW411864   4.572   1.519   3.012  0.3923 -0.3971 -0.7115
 3025SOL     OW11865   1.055   2.353   0.077 -0.6677  0.4401  0.4697
 3025SOL    HW211866   0.961   2.369   0.067 -0.7935  0.3784  1.5276
 3025SOL    HW311867   1.082   2.318  -0.009 -1.8705 -0.8502  0.5763
 3025SOL    MW411868   1.046   2.350   0.064 -0.8430  0.2617  0.6233
 3026SOL     OW11869   5.559   3.669   5.718  0.3254 -0.3606  0.1678
 3026SOL    HW211870   5.487   3.661   5.781 -1.2910  3.0321 -0.9690
 3026SOL    HW311871   5.628   3.713   5.767 -0.0636  0.2463  0.1835
 3026SOL    MW411872   5.559   3.674   5.733  0.0608  0.1671  0.0199
 3027SOL     OW11873   0.113   1.957   1.111 -0.2683 -0.1543  0.0694
 3027SOL    HW211874   0.202   1.971   1.143 -0.0037 -0.1265 -0.6437
 3027SOL    HW311875   0.066   1.919   1.184 -0.0157  1.0471  0.8851
 3027SOL    MW411876   0.118   1.954   1.125 -0.2001  0.0079  0.0830
 3028SOL     OW11877   5.141   4.616   4.881  0.1135  0.3202  0.3825
 3028SOL    HW211878   5.142   4.587   4.972 -2.5253  2.9984  1.4318
 3028SOL    HW311879   5.229   4.650   4.865 -0.1692  2.6605  3.0485
 3028SOL    MW411880   5.153   4.617   4.891 -0.2720  0.9823  0.8727
 3029SOL     OW11881   6.134   1.908   1.793  0.5286 -0.1305 -0.1287
 3029SOL    HW211882   6.135   1.975   1.862 -0.5259  0.9584 -1.1374
 3029SOL    HW311883   6.208   1.930   1.737  1.0313 -0.6695  0.3072
 3029SOL    MW411884   6.144   1.919   1.795  0.4558 -0.0579 -0.2043
 3030SOL     OW11885   1.261   4.266   5.263 -0.2303 -0.2873  0.1737
 3030SOL    HW211886   1.293   4.352   5.234 -0.2067 -1.3492 -3.5013
 3030SOL    HW311887   1.198   4.286   5.332  1.9170  2.4170  1.5815
 3030SOL    MW411888   1.257   4.280   5.268  0.0562 -0.0706 -0.1254
 3031SOL     OW11889   6.428   5.529   1.384  0.0949  0.1361  0.1018
 3031SOL    HW211890   6.367   5.578   1.439  1.1062  0.0871  1.3262
 3031SOL    HW311891   6.413   5.437   1.407  1.4391  0.1797  1.3919
 3031SOL    MW411892   6.418   5.524   1.395  0.4057  0.1354  0.4336
 3032SOL     OW11893   5.043   0.144   0.696  0.6632  0.1050  0.0969
 3032SOL    HW211894   4.977   0.105   0.753 -0.7561  2.9936  0.5858
 3032SOL    HW311895   5.067   0.073   0.636 -1.0834 -1.7436  1.4346
 3032SOL    MW411896   5.037   0.130   0.696  0.2455  0.2422  0.3379
 3033SOL     OW11897   3.939   1.455   1.562  0.4139 -0.6868  0.1923
 3033SOL    HW211898   3.901   1.412   1.486 -0.5712  0.0684  0.2415
 3033SOL    HW311899   3.924   1.395   1.635 -1.5040 -0.0388  0.3780
 3033SOL    MW411900   3.932   1.442   1.562  0.0309 -0.5017  0.2233
 3034SOL     OW11901   1.162   0.810   5.123  0.0361 -1.0732  0.2067
 3034SOL    HW211902   1.123   0.783   5.039 -1.7115  0.9545  0.2757
 3034SOL    HW311903   1.092   0.797   5.187  0.1480  0.6388  0.7282
 3034SOL    MW411904   1.148   0.804   5.120 -0.1797 -0.5798  0.2846
 3035SOL     OW11905   0.208   3.291   5.257  0.5390  0.1863 -0.0621
 3035SOL    HW211906   0.189   3.322   5.168 -1.2794  4.1304  1.4463
 3035SOL    HW311907   0.269   3.356   5.292  0.3011 -0.5916  1.9343
 3035SOL    MW411908   0.214   3.304   5.250  0.2677  0.6041  0.4003
 3036SOL     OW11909   2.560   6.234   5.239  0.0621  0.0558  0.2523
 3036SOL    HW211910   2.625   6.299   5.214  1.7349 -1.2251  1.0168
 3036SOL    HW311911   2.594   6.197   5.321 -1.9407 -0.2744  0.9729
 3036SOL    MW411912   2.573   6.238   5.247  0.0185 -0.1568  0.4482
 3037SOL     OW11913   2.753   5.644   4.452  0.8413  0.3022 -0.3120
 3037SOL    HW211914   2.674   5.680   4.493 -0.2038 -0.3630 -1.6659
 3037SOL    HW311915   2.797   5.720   4.416 -0.0138  0.5202 -0.9201
 3037SOL    MW411916   2.748   5.659   4.453  0.5906  0.2432 -0.5709
 3038SOL     OW11917   6.222   6.455   2.933  0.1691  0.2060  0.2230
 3038SOL    HW211918   6.249   6.364   2.919 -1.2045 -0.7614  2.9537
 3038SOL    HW311919   6.132   6.458   2.902  0.8677  1.3064 -1.8565
 3038SOL    MW411920   6.214   6.443   2.927  0.0800  0.2235  0.3089
 3039SOL     OW11921   2.715   1.933   0.871 -0.3228 -0.1350 -0.4204
 3039SOL    HW211922   2.806   1.960   0.854 -0.0495 -0.3225  0.6959
 3039SOL    HW311923   2.717   1.895   0.958 -1.2951 -1.0571 -0.7760
 3039SOL    MW411924   2.728   1.932   0.880 -0.4150 -0.2814 -0.3200
 3040SOL     OW11925   1.020   1.015   6.336  0.0197  0.0463 -0.7310
 3040SOL    HW211926   0.963   1.082   6.374  0.8439  1.1511 -1.3697
 3040SOL    HW311927   1.080   1.064   6.280  0.2201 -1.3027 -1.7488
 3040SOL    MW411928   1.020   1.030   6.333  0.1549  0.0141 -0.9496
 3041SOL     OW11929   5.634   3.212   2.403 -0.2244 -0.1408  0.4874
 3041SOL    HW211930   5.565   3.221   2.337 -0.9156  1.0060  1.3253
 3041SOL    HW311931   5.587   3.200   2.486  0.5898 -0.0510  0.9779
 3041SOL    MW411932   5.619   3.211   2.405 -0.2081  0.0223  0.6627
 3042SOL     OW11933   0.721   4.140   1.277 -0.3888  0.4296 -0.6157
 3042SOL    HW211934   0.762   4.063   1.236  0.2885  0.4616 -0.0129
 3042SOL    HW311935   0.778   4.161   1.350 -2.0001 -0.1045  0.8623
 3042SOL    MW411936   0.734   4.133   1.281 -0.5120  0.3634 -0.3412
 3043SOL     OW11937   5.154   6.223   3.455  0.5002 -0.0975  0.4275
 3043SOL    HW211938   5.152   6.284   3.381  0.5671 -1.3698 -0.6575
 3043SOL    HW311939   5.064   6.191   3.463  0.8576 -1.3862 -0.3616
 3043SOL    MW411940   5.142   6.227   3.446  0.5562 -0.4354  0.1802
 3044SOL     OW11941   4.993   0.263   4.496 -0.5288  0.0221 -0.6284
 3044SOL    HW211942   5.029   0.317   4.426  1.3659  0.2625  0.4578
 3044SOL    HW311943   5.069   0.240   4.550 -1.4010 -2.7957 -0.4057
 3044SOL    MW411944   5.008   0.267   4.493 -0.3939 -0.3180 -0.4557
 3045SOL     OW11945   2.859   6.245   2.285  0.0250  0.0144  0.0217
 3045SOL    HW211946   2.936   6.224   2.233  0.3818 -0.0575  0.5795
 3045SOL    HW311947   2.789   6.258   2.220 -0.6022 -4.0994 -0.3750
 3045SOL    MW411948   2.860   6.244   2.270 -0.0107 -0.5379  0.0430
 3046SOL     OW11949   2.874   2.077   5.439  0.6532 -0.0672  0.4056
 3046SOL    HW211950   2.899   1.985   5.436  1.1399  0.0786 -0.4314
 3046SOL    HW311951   2.824   2.091   5.359  0.5980  0.4013  0.5195
 3046SOL    MW411952   2.871   2.067   5.428  0.7101  0.0139  0.3102
 3047SOL     OW11953   5.410   4.398   4.811  0.0262 -0.6578  0.2233
 3047SOL    HW211954   5.316   4.388   4.826 -0.3013  0.4265 -0.9163
 3047SOL    HW311955   5.431   4.333   4.744  0.4409 -1.9955  1.6082
 3047SOL    MW411956   5.401   4.388   4.804  0.0377 -0.6912  0.2557
 3048SOL     OW11957   2.361   3.154   2.147  0.3920  0.4067  0.0072
 3048SOL    HW211958   2.417   3.227   2.175 -0.8213  1.3281  0.0916
 3048SOL    HW311959   2.353   3.099   2.225  0.0863  0.9814  0.3865
 3048SOL    MW411960   2.368   3.156   2.161  0.1915  0.6041  0.0684
 3049SOL     OW11961   0.395   2.893   0.573  0.1560  0.7542  0.0245
 3049SOL    HW211962   0.310   2.859   0.600  0.6860 -1.0346 -0.4417
 3049SOL    HW311963   0.458   2.846   0.628  0.9874  0.1213 -1.4271
 3049SOL    MW411964   0.392   2.883   0.584  0.3356  0.4347 -0.2285
 3050SOL     OW11965   5.835   0.310   5.749 -0.0137 -0.1882 -0.3736
 3050SOL    HW211966   5.915   0.356   5.723  0.2236 -0.1689  0.3549
 3050SOL    HW311967   5.767   0.347   5.694  0.2661  0.6739 -0.1560
 3050SOL    MW411968   5.837   0.321   5.739  0.0545 -0.0719 -0.2487
 3051SOL     OW11969   0.356   1.708   4.552 -0.6377  0.1318  0.0692
 3051SOL    HW211970   0.427   1.742   4.607 -0.4657 -0.8210  0.4604
 3051SOL    HW311971   0.277   1.743   4.592 -0.3586  2.7293 -1.4434
 3051SOL    MW411972   0.355   1.717   4.565 -0.5782  0.3488 -0.0788
 3052SOL     OW11973   0.767   4.175   2.413 -0.3083 -0.2361  0.3451
 3052SOL    HW211974   0.834   4.158   2.479  1.1130  0.1119 -0.9407
 3052SOL    HW311975   0.808   4.239   2.354 -1.7506 -0.0807 -0.5310
 3052SOL    MW411976   0.782   4.182   2.414 -0.3111 -0.1697  0.0599
 3053SOL     OW11977   2.794   2.543   1.455  0.6009 -0.3131 -0.2226
 3053SOL    HW211978   2.792   2.475   1.388 -0.1738  0.1088 -0.6527
 3053SOL    HW311979   2.885   2.546   1.484  0.7488 -1.1560 -0.5772
 3053SOL    MW411980   2.806   2.535   1.450  0.5182 -0.3687 -0.3261
 3054SOL     OW11981   2.600   5.067   0.949  0.3390  0.2964  0.2765
 3054SOL    HW211982   2.505   5.077   0.948  0.3561  0.5938  0.9886
 3054SOL    HW311983   2.634   5.156   0.943  0.5817  0.1793 -0.1626
 3054SOL    MW411984   2.592   5.080   0.948  0.3733  0.3202  0.3125
 3055SOL     OW11985   5.209   1.529   0.173 -0.0335 -0.2509 -0.9461
 3055SOL    HW211986   5.231   1.517   0.266  0.0267 -1.0853 -1.0561
 3055SOL    HW311987   5.260   1.604   0.145  2.1758 -1.6861 -1.0056
 3055SOL    MW411988   5.219   1.537   0.182  0.2659 -0.5503 -0.9684
 3056SOL     OW11989   3.028   2.270   0.769 -0.7401 -0.0679 -0.1519
 3056SOL    HW211990   2.954   2.322   0.735 -1.8712 -2.8300 -2.2931
 3056SOL    HW311991   3.104   2.304   0.721 -1.1756  0.6313 -0.3790
 3056SOL    MW411992   3.028   2.281   0.758 -0.9468 -0.3401 -0.4643
 3057SOL     OW11993   5.803   2.977   2.090  0.6133  0.0949  0.8561
 3057SOL    HW211994   5.848   3.061   2.087  3.0796 -1.1407 -0.6750
 3057SOL    HW311995   5.756   2.971   2.007  1.9875 -0.7427  0.0998
 3057SOL    MW411996   5.803   2.987   2.079  1.1200 -0.1786  0.5543
 3058SOL     OW11997   5.459   3.373   4.849 -0.6068 -0.6237 -0.4229
 3058SOL    HW211998   5.473   3.370   4.754 -0.4418  1.6347 -0.5280
 3058SOL    HW311999   5.374   3.417   4.859 -1.6064 -2.6516  0.4705
 3058SOL    MW412000   5.450   3.379   4.838 -0.7169 -0.5933 -0.3189
 3059SOL     OW12001   2.850   0.485   3.520 -0.2679  0.0855 -0.6756
 3059SOL    HW212002   2.758   0.508   3.505 -0.2476  0.1816 -0.6517
 3059SOL    HW312003   2.900   0.546   3.466 -0.2174  0.0407 -0.6801
 3059SOL    MW412004   2.844   0.496   3.511 -0.2586  0.0922 -0.6730
 3060SOL     OW12005   0.570   1.721   6.062  0.2095 -0.0462 -0.1236
 3060SOL    HW212006   0.476   1.733   6.043 -0.0813  0.4800  1.4834
 3060SOL    HW312007   0.603   1.670   5.988 -1.3676 -0.3353 -0.6716
 3060SOL    MW412008   0.562   1.716   6.049 -0.0370 -0.0149  0.0161
 3061SOL     OW12009   5.336   4.227   1.592 -0.2619  0.2564 -0.6754
 3061SOL    HW212010   5.284   4.299   1.626  0.3303 -0.5278  2.1728
 3061SOL    HW312011   5.279   4.182   1.530 -1.9962  0.9742  0.3568
 3061SOL    MW412012   5.322   4.231   1.588 -0.4125  0.2476 -0.1634
 3062SOL     OW12013   4.475   3.049   5.359  0.1634 -0.0096  0.6096
 3062SOL    HW212014   4.407   3.031   5.424  0.3965 -0.2434  0.7901
 3062SOL    HW312015   4.464   2.982   5.293 -0.8362  0.9272 -0.2111
 3062SOL    MW412016   4.465   3.038   5.359  0.0623  0.0832  0.5251
 3063SOL     OW12017   1.511   5.951   1.862  0.2908  0.0680 -0.2742
 3063SOL    HW212018   1.503   5.867   1.907  1.9164 -0.4864 -0.9727
 3063SOL    HW312019   1.583   5.995   1.905 -0.3359  0.9916 -0.1327
 3063SOL    MW412020   1.519   5.945   1.873  0.4226  0.1167 -0.3477
 3064SOL     OW12021   3.747   1.921   6.305 -0.5427 -0.5134  0.1999
 3064SOL    HW212022   3.795   1.858   6.252 -0.3523 -0.5480  0.4093
 3064SOL    HW312023   3.761   1.891   6.395 -0.1448  0.0326  0.3295
 3064SOL    MW412024   3.756   1.909   6.310 -0.4651 -0.4459  0.2447
 3065SOL     OW12025   4.929   4.667   1.756  0.5321  0.1470  0.1868
 3065SOL    HW212026   4.840   4.665   1.722  0.1932 -0.6303  1.0622
 3065SOL    HW312027   4.979   4.609   1.698  0.5937  1.0027 -0.6195
 3065SOL    MW412028   4.924   4.659   1.744  0.4955  0.1573  0.1959
 3066SOL     OW12029   6.222   1.724   3.811  0.1876  0.2449  0.4963
 3066SOL    HW212030   6.142   1.770   3.786 -1.6350 -2.7898  0.2415
 3066SOL    HW312031   6.197   1.673   3.888  1.2148 -2.4045 -0.8339
 3066SOL    MW412032   6.208   1.724   3.818  0.0827 -0.5051  0.2872
 3067SOL     OW12033   6.098   5.879   6.026 -0.5540 -0.0409  0.2608
 3067SOL    HW212034   6.030   5.935   6.062 -0.5715  0.6368 -0.7719
 3067SOL    HW312035   6.068   5.790   6.041 -0.6483  0.2233  1.7101
 3067SOL    MW412036   6.085   5.875   6.032 -0.5687  0.0834  0.3158
 3068SOL     OW12037   2.396   0.336   0.742 -0.5049  0.0959 -0.2773
 3068SOL    HW212038   2.412   0.268   0.807  0.7966 -0.7819 -1.4594
 3068SOL    HW312039   2.416   0.418   0.787 -0.9975 -0.3698  0.8261
 3068SOL    MW412040   2.401   0.338   0.756 -0.3982 -0.0813 -0.2877
 3069SOL     OW12041   5.527   3.195   2.657  0.2618  0.0468 -0.7103
 3069SOL    HW212042   5.485   3.281   2.670 -2.1686 -1.1327 -0.1967
 3069SOL    HW312043   5.559   3.170   2.744 -2.8548 -1.3518  0.1692
 3069SOL    MW412044   5.525   3.203   2.670 -0.4701 -0.2933 -0.5265
 3070SOL     OW12045   4.497   2.737   1.169  0.2783 -0.2121  0.8105
 3070SOL    HW212046   4.580   2.747   1.216  0.5606  0.2481  0.2196
 3070SOL    HW312047   4.476   2.824   1.137  0.3043 -0.5840 -0.2706
 3070SOL    MW412048   4.505   2.750   1.171  0.3190 -0.2004  0.5899
 3071SOL     OW12049   2.262   2.567   2.365  0.0648  0.1012 -0.5229
 3071SOL    HW212050   2.241   2.512   2.289  1.2105 -1.5217  0.2949
 3071SOL    HW312051   2.354   2.589   2.354  0.5744 -1.1227  0.9489
 3071SOL    MW412052   2.271   2.562   2.353  0.2832 -0.2744 -0.2208
 3072SOL     OW12053   3.619   5.616   2.066  0.0531  0.6151  0.3431
 3072SOL    HW212054   3.660   5.647   2.147  0.3467  1.2720 -0.0461
 3072SOL    HW312055   3.567   5.690   2.036 -2.7305 -0.6799  1.6270
 3072SOL    MW412056   3.618   5.630   2.073 -0.2754  0.5309  0.4611
 3073SOL     OW12057   0.269   4.745   3.778  0.1545  0.2967 -0.0821
 3073SOL    HW212058   0.228   4.787   3.854  1.4388 -0.8779  1.3269
 3073SOL    HW312059   0.317   4.816   3.735  2.5639  0.3786  2.4415
 3073SOL    MW412060   0.270   4.760   3.782  0.6418  0.1525  0.4367
 3074SOL     OW12061   0.455   0.785   4.983 -0.0066 -0.7453  0.1845
 3074SOL    HW212062   0.395   0.825   5.046 -2.1135  1.2773 -2.8196
 3074SOL    HW312063   0.400   0.723   4.934  0.9193 -0.5499 -1.1686
 3074SOL    MW412064   0.439   0.782   4.985 -0.1624 -0.4527 -0.3904
 3075SOL     OW12065   1.605   6.137   5.932  0.5445  0.4402  0.1970
 3075SOL    HW212066   1.520   6.092   5.941 -0.8212  2.3623 -1.9044
 3075SOL    HW312067   1.595   6.217   5.984  0.7377  1.0507 -0.6821
 3075SOL    MW412068   1.592   6.142   5.940  0.3898  0.7744 -0.1963
 3076SOL     OW12069   2.948   4.267   4.587  0.4133  0.7653 -0.6751
 3076SOL    HW212070   2.994   4.183   4.583  1.2321  1.1244  0.6082
 3076SOL    HW312071   3.015   4.331   4.563  0.2554  1.1877 -0.0054
 3076SOL    MW412072   2.963   4.264   4.583  0.5005  0.8684 -0.4175
 3077SOL     OW12073   0.132   0.431   3.144 -0.3142  0.0627  0.0127
 3077SOL    HW212074   0.055   0.456   3.092 -1.0146 -0.0977  0.9456
 3077SOL    HW312075   0.161   0.349   3.105 -0.2846  0.3984 -0.6884
 3077SOL    MW412076   0.125   0.423   3.132 -0.4027  0.0859  0.0433
 3078SOL     OW12077   3.815   3.178   3.575 -0.4985 -0.0020  0.5692
 3078SOL    HW212078   3.812   3.205   3.666 -0.5806  1.4986  0.1502
 3078SOL    HW312079   3.899   3.133   3.566 -0.7770 -0.7263  1.5195
 3078SOL    MW412080   3.826   3.176   3.586 -0.5461  0.1004  0.6393
 3079SOL     OW12081   5.783   2.730   1.802 -0.6213  0.7991  0.3801
 3079SOL    HW212082   5.742   2.716   1.716 -1.2176  0.8816  0.6460
 3079SOL    HW312083   5.772   2.647   1.848  0.3645  0.5040  0.1167
 3079SOL    MW412084   5.776   2.717   1.797 -0.5699  0.7711  0.3805
 3080SOL     OW12085   5.751   1.313   3.670 -0.1598 -0.1992  0.3334
 3080SOL    HW212086   5.688   1.383   3.656  0.8023  1.0204  1.8012
 3080SOL    HW312087   5.697   1.236   3.688 -1.2314  0.4653  0.0547
 3080SOL    MW412088   5.735   1.312   3.670 -0.1742  0.0494  0.4903
 3081SOL     OW12089   2.287   2.706   4.519 -0.1416 -0.2767 -0.5056
 3081SOL    HW212090   2.206   2.704   4.467  0.8551 -1.9881 -2.1098
 3081SOL    HW312091   2.337   2.631   4.488  1.5593  0.0235  1.3257
 3081SOL    MW412092   2.283   2.696   4.508  0.2143 -0.4629 -0.4756
 3082SOL     OW12093   5.926   2.237   0.199  0.0040  0.3717  0.0126
 3082SOL    HW212094   5.995   2.210   0.259 -0.6830 -0.0748  0.6164
 3082SOL    HW312095   5.920   2.332   0.210  0.6979  0.4472 -0.2391
 3082SOL    MW412096   5.934   2.246   0.208  0.0049  0.3228  0.0590
 3083SOL     OW12097   4.287   3.920   0.244  0.2537 -0.3888 -0.1396
 3083SOL    HW212098   4.251   3.858   0.180 -1.3565  1.0831 -0.7369
 3083SOL    HW312099   4.229   3.996   0.239  0.7907  0.2529  2.2378
 3083SOL    MW412100   4.275   3.922   0.235  0.1121 -0.1099  0.0953
 3084SOL     OW12101   0.033   3.285   3.206 -0.3629  0.0253  0.3176
 3084SOL    HW212102   0.041   3.194   3.177 -0.4197 -0.0168  0.4346
 3084SOL    HW312103   0.098   3.333   3.155 -1.2591  0.1535 -0.7310
 3084SOL    MW412104   0.043   3.280   3.196 -0.4886  0.0367  0.1947
 3085SOL     OW12105   2.151   5.436   0.409 -0.2110 -0.1992 -0.1969
 3085SOL    HW212106   2.215   5.374   0.373  0.8482  0.8564 -0.1825
 3085SOL    HW312107   2.119   5.484   0.332  1.5560  1.5938  0.1016
 3085SOL    MW412108   2.156   5.434   0.394  0.1619  0.1767 -0.1556
 3086SOL     OW12109   2.889   1.262   0.023 -0.3620  0.4745  0.5984
 3086SOL    HW212110   2.839   1.221  -0.048  0.5699  1.1923 -0.5073
 3086SOL    HW312111   2.884   1.198   0.095  0.2577 -1.1785 -0.7445
 3086SOL    MW412112   2.881   1.248   0.023 -0.1573  0.3511  0.2753
 3087SOL     OW12113   0.663   1.094   3.247 -0.3312 -0.0554  1.4660
 3087SOL    HW212114   0.758   1.094   3.242 -0.3276  1.9415  0.6809
 3087SOL    HW312115   0.639   1.186   3.254 -2.2899 -0.2337 -1.2034
 3087SOL    MW412116   0.672   1.106   3.247 -0.5892  0.1845  1.0102
 3088SOL     OW12117   2.351   2.963   5.301 -0.0222  0.9739  0.2587
 3088SOL    HW212118   2.414   2.922   5.360 -1.2754  0.0986  1.0546
 3088SOL    HW312119   2.323   2.892   5.243  0.3134  1.5425 -0.6089
 3088SOL    MW412120   2.356   2.948   5.301 -0.1432  0.9335  0.2492
 3089SOL     OW12121   4.341   6.204   5.936  0.4022 -0.2756 -0.3556
 3089SOL    HW212122   4.254   6.241   5.923  0.0861 -0.3542  1.3233
 3089SOL    HW312123   4.350   6.139   5.866 -0.8222 -0.1578 -0.6408
 3089SOL    MW412124   4.331   6.200   5.925  0.1989 -0.2704 -0.1717
 3090SOL     OW12125   6.124   4.605   4.272  0.8288  1.0090 -0.8326
 3090SOL    HW212126   6.079   4.529   4.235 -0.0474  1.4088 -0.6280
 3090SOL    HW312127   6.216   4.592   4.250  0.8914 -0.7452  0.2725
 3090SOL    MW412128   6.130   4.594   4.265  0.7215  0.8303 -0.6598
 3091SOL     OW12129   5.575   2.540   5.340 -0.1277 -0.2299 -0.5172
 3091SOL    HW212130   5.499   2.484   5.359 -1.4730  1.9504  1.0438
 3091SOL    HW312131   5.546   2.596   5.269  0.6496 -0.4833 -1.0453
 3091SOL    MW412132   5.561   2.540   5.333 -0.2027  0.0243 -0.3809
 3092SOL     OW12133   0.768   0.152   4.017 -0.4567  0.3214 -0.0465
 3092SOL    HW212134   0.726   0.083   3.966 -0.8554  0.5925 -0.0903
 3092SOL    HW312135   0.720   0.152   4.100  1.0765 -1.0623  0.9004
 3092SOL    MW412136   0.756   0.143   4.021 -0.3070  0.1746  0.0726
 3093SOL     OW12137   2.838   2.797   3.644  0.3089  0.3731 -0.6704
 3093SOL    HW212138   2.915   2.834   3.601  1.1620 -0.3044  0.2608
 3093SOL    HW312139   2.785   2.874   3.668  0.9703  0.8730 -0.8004
 3093SOL    MW412140   2.841   2.812   3.642  0.5087  0.3497 -0.5647
 3094SOL     OW12141   0.228   3.533   0.156  0.0832  0.5119 -0.1325
 3094SOL    HW212142   0.245   3.531   0.062  1.2814 -0.2764  0.0760
 3094SOL    HW312143   0.157   3.471   0.170  1.5037 -1.2189 -0.2569
 3094SOL    MW412144   0.221   3.525   0.145  0.4287  0.1796 -0.1214
 3095SOL     OW12145   2.126   2.023   0.957  0.0786 -0.4704 -0.0454
 3095SOL    HW212146   2.130   2.040   0.862 -1.8032 -2.2861 -0.5370
 3095SOL    HW312147   2.058   2.082   0.989  1.8846  1.3814  0.5676
 3095SOL    MW412148   2.118   2.033   0.948  0.0686 -0.4656 -0.0294
 3096SOL     OW12149   1.429   3.113   1.939  0.0061  0.3305 -0.1231
 3096SOL    HW212150   1.344   3.083   1.907  0.1063 -0.4234  0.2978
 3096SOL    HW312151   1.409   3.163   2.019 -0.5005  4.3502 -2.5106
 3096SOL    MW412152   1.415   3.116   1.946 -0.0476  0.7614 -0.3825
 3097SOL     OW12153   2.240   4.330   3.417 -0.2227 -0.4177  0.2856
 3097SOL    HW212154   2.276   4.304   3.333  1.6185 -0.1209  0.9343
 3097SOL    HW312155   2.297   4.288   3.482 -1.2665 -0.2086  1.3798
 3097SOL    MW412156   2.253   4.321   3.415 -0.1175 -0.3510  0.5155
 3098SOL     OW12157   1.868   5.706   1.203  0.1682 -0.6614  0.2567
 3098SOL    HW212158   1.871   5.660   1.287 -1.1522 -2.0691 -0.4206
 3098SOL    HW312159   1.954   5.688   1.163 -0.5619 -3.2836 -0.3137
 3098SOL    MW412160   1.880   5.698   1.209 -0.1023 -1.1931  0.0921
 3099SOL     OW12161   0.243   4.566   6.086  0.5058 -0.1198  0.5767
 3099SOL    HW212162   0.307   4.633   6.063 -0.0035  0.2779  0.2785
 3099SOL    HW312163   0.291   4.483   6.083  0.6126 -0.0293 -1.3503
 3099SOL    MW412164   0.258   4.564   6.083  0.4527 -0.0554  0.2831
 3100SOL     OW12165   1.912   4.909   5.640 -0.0963 -0.1127 -0.4714
 3100SOL    HW212166   1.878   4.999   5.645 -0.1836 -0.1468 -0.4398
 3100SOL    HW312167   1.913   4.889   5.547 -1.8377 -0.7376 -0.3997
 3100SOL    MW412168   1.908   4.918   5.629 -0.3376 -0.1997 -0.4578
 3101SOL     OW12169   1.957   4.201   4.364  0.0975 -0.3388  0.4444
 3101SOL    HW212170   1.924   4.270   4.421 -1.2666 -0.5937 -0.0118
 3101SOL    HW312171   1.905   4.124   4.387 -0.4723 -0.4542 -1.1089
 3101SOL    MW412172   1.946   4.200   4.374 -0.1576 -0.3876  0.1792
 3102SOL     OW12173   0.391   5.213   3.033 -0.2552  0.2896  0.9169
 3102SOL    HW212174   0.434   5.182   2.953 -1.9402 -0.9367  0.4253
 3102SOL    HW312175   0.442   5.290   3.060  0.9945  0.0853 -0.7254
 3102SOL    MW412176   0.403   5.219   3.026 -0.3126  0.1009  0.6354
 3103SOL     OW12177   2.502   6.050   2.109  0.2673  0.1846 -0.2049
 3103SOL    HW212178   2.470   6.029   2.197  0.0960 -0.0721 -0.3267
 3103SOL    HW312179   2.424   6.045   2.053  0.3484  0.4862 -0.3499
 3103SOL    MW412180   2.487   6.047   2.113  0.2554  0.1905 -0.2401
 3104SOL     OW12181   4.948   1.683   1.999 -0.4438 -0.3427 -0.0815
 3104SOL    HW212182   5.027   1.631   2.016 -0.7037 -0.7452 -0.0945
 3104SOL    HW312183   4.879   1.636   2.047 -0.6104  0.1956  0.2093
 3104SOL    MW412184   4.949   1.670   2.008 -0.5001 -0.3248 -0.0449
 3105SOL     OW12185   5.840   5.189   4.504  0.1537  0.8058 -0.5705
 3105SOL    HW212186   5.851   5.129   4.430 -0.6181  0.7283 -0.6353
 3105SOL    HW312187   5.746   5.207   4.506  0.2494  1.2740  0.0307
 3105SOL    MW412188   5.829   5.183   4.494  0.0645  0.8573 -0.4998
 3106SOL     OW12189   2.294   3.206   2.851 -0.3129 -0.3907  0.0289
 3106SOL    HW212190   2.235   3.139   2.886 -0.5322 -1.8408 -2.8310
 3106SOL    HW312191   2.371   3.157   2.821  1.4042  1.1987  1.5102
 3106SOL    MW412192   2.297   3.190   2.852 -0.1153 -0.3724 -0.1530
 3107SOL     OW12193   0.620   4.059   3.695 -0.3766 -0.1295 -0.1213
 3107SOL    HW212194   0.641   3.993   3.762 -0.9445 -0.7893 -0.5745
 3107SOL    HW312195   0.580   4.131   3.744 -0.7414 -0.5842  0.2604
 3107SOL    MW412196   0.618   4.060   3.711 -0.4997 -0.2765 -0.1308
 3108SOL     OW12197   5.968   2.933   3.229  0.2965 -0.0564 -0.1138
 3108SOL    HW212198   6.007   2.882   3.159 -1.3644 -1.8496  0.1671
 3108SOL    HW312199   5.974   2.877   3.306  0.7198  1.2478  0.8254
 3108SOL    MW412200   5.974   2.919   3.230  0.1332 -0.1209  0.0472
 3109SOL     OW12201   5.221   1.274   1.929 -0.2683 -0.0996 -0.3540
 3109SOL    HW212202   5.185   1.265   1.841 -0.1394 -1.9868 -0.2596
 3109SOL    HW312203   5.208   1.188   1.969  2.4595 -0.2631  0.3826
 3109SOL    MW412204   5.215   1.261   1.922  0.1086 -0.3702 -0.2444
 3110SOL     OW12205   6.214   0.320   5.515 -0.0282 -0.0627  0.0400
 3110SOL    HW212206   6.173   0.388   5.569 -2.5005 -0.8055 -0.8007
 3110SOL    HW312207   6.161   0.242   5.530  0.6735 -0.9179 -1.6721
 3110SOL    MW412208   6.202   0.319   5.524 -0.2618 -0.2736 -0.2968
 3111SOL     OW12209   5.161   1.493   3.572 -0.1771 -0.2156 -0.1432
 3111SOL    HW212210   5.223   1.547   3.622 -0.5685 -0.7911  0.9877
 3111SOL    HW312211   5.085   1.550   3.560  0.0189  0.0132 -0.2999
 3111SOL    MW412212   5.159   1.508   3.577 -0.2029 -0.2614 -0.0147
 3112SOL     OW12213   2.813   3.347   0.274  0.6269 -0.1621 -0.7223
 3112SOL    HW212214   2.784   3.280   0.336 -2.7316  0.1417 -1.7594
 3112SOL    HW312215   2.812   3.303   0.189 -1.7245  1.0875 -1.4364
 3112SOL    MW412216   2.809   3.332   0.271 -0.1265  0.0428 -0.9533
 3113SOL     OW12217   1.084   5.076   6.163 -0.6229 -0.7133  0.0599
 3113SOL    HW212218   1.100   5.019   6.238  0.6570 -0.9879 -0.3880
 3113SOL    HW312219   1.120   5.028   6.088  1.1547  0.9277 -0.2332
 3113SOL    MW412220   1.091   5.062   6.163 -0.2195 -0.5330 -0.0379
 3114SOL     OW12221   3.606   3.108   1.223 -0.0181  0.6637 -0.0632
 3114SOL    HW212222   3.569   3.191   1.193  1.5559  1.8950  1.1424
 3114SOL    HW312223   3.585   3.106   1.317  0.5108  0.0247  0.0442
 3114SOL    MW412224   3.599   3.119   1.232  0.2594  0.7418  0.1101
 3115SOL     OW12225   3.346   4.969   1.177 -0.0113 -0.3100  0.6874
 3115SOL    HW212226   3.339   4.959   1.082  1.3691  0.5844  0.4734
 3115SOL    HW312227   3.438   4.952   1.196 -0.4367 -1.3422  2.0015
 3115SOL    MW412228   3.357   4.965   1.167  0.1147 -0.3282  0.8325
 3116SOL     OW12229   3.355   0.789   4.203 -0.1080 -0.1626  0.1969
 3116SOL    HW212230   3.294   0.738   4.150 -0.7929  0.2042  0.6117
 3116SOL    HW312231   3.299   0.847   4.255  0.3974 -1.5490  2.4526
 3116SOL    MW412232   3.340   0.790   4.203 -0.1317 -0.2971  0.5492
 3117SOL     OW12233   2.625   4.500   2.717 -0.5021 -0.5676  0.2573
 3117SOL    HW212234   2.557   4.559   2.684  0.7868  0.2842 -0.9845
 3117SOL    HW312235   2.705   4.553   2.715  0.9047 -2.6049 -1.8526
 3117SOL    MW412236   2.626   4.515   2.713 -0.1464 -0.7240 -0.1849
 3118SOL     OW12237   4.929   0.345   5.290 -0.6295 -0.4570  0.1614
 3118SOL    HW212238   4.979   0.426   5.278 -2.6448  0.6636 -1.1317
 3118SOL    HW312239   4.975   0.280   5.237 -0.2155  0.3894 -0.5334
 3118SOL    MW412240   4.942   0.347   5.281 -0.8408 -0.1975 -0.1009
 3119SOL     OW12241   2.282   6.341   4.282 -0.4330 -0.3780 -0.4020
 3119SOL    HW212242   2.294   6.249   4.306 -1.3392  0.1007  2.2439
 3119SOL    HW312243   2.298   6.389   4.363 -1.4036  1.6999 -1.3664
 3119SOL    MW412244   2.286   6.335   4.296 -0.6806 -0.0407 -0.1801
 3120SOL     OW12245   0.271   4.154   2.510  0.0656 -0.3495  0.5441
 3120SOL    HW212246   0.354   4.201   2.521  0.8188 -1.6927  0.7152
 3120SOL    HW312247   0.228   4.200   2.437  1.3594 -0.1771 -0.1544
 3120SOL    MW412248   0.277   4.167   2.502  0.3357 -0.5040  0.4745
 3121SOL     OW12249   4.138   2.933   3.246  0.0388  0.1193 -0.2284
 3121SOL    HW212250   4.154   2.845   3.279  2.0124 -0.2388 -1.9080
 3121SOL    HW312251   4.203   2.945   3.176 -1.0094  2.4300 -0.9277
 3121SOL    MW412252   4.148   2.923   3.241  0.1609  0.3769 -0.5423
 3122SOL     OW12253   3.728   2.098   1.804  0.3609  0.4313  0.0039
 3122SOL    HW212254   3.727   2.053   1.719  1.0451  2.1467 -0.9678
 3122SOL    HW312255   3.793   2.051   1.856  1.0165  0.2562 -0.9564
 3122SOL    MW412256   3.737   2.086   1.800  0.5377  0.6345 -0.2510
 3123SOL     OW12257   3.160   4.541   1.777  0.0441 -0.1708 -0.1196
 3123SOL    HW212258   3.142   4.521   1.869 -2.0873  0.0761 -0.4341
 3123SOL    HW312259   3.249   4.509   1.762 -0.2986 -2.0508  1.4979
 3123SOL    MW412260   3.169   4.534   1.787 -0.2823 -0.3863  0.0524
 3124SOL     OW12261   3.948   2.970   5.547  0.3658 -0.4994 -0.8161
 3124SOL    HW212262   4.000   2.900   5.586 -0.2219 -2.2847 -3.0467
 3124SOL    HW312263   3.914   3.019   5.622  3.1325 -0.7718  0.7681
 3124SOL    MW412264   3.950   2.967   5.562  0.6533 -0.7709 -0.9014
 3125SOL     OW12265   0.221   4.921   1.064  0.3196  0.0131  0.5416
 3125SOL    HW212266   0.242   4.892   1.153 -0.4750 -1.6790  0.2366
 3125SOL    HW312267   0.304   4.919   1.018  0.3707 -1.5868  0.6365
 3125SOL    MW412268   0.234   4.917   1.070  0.2215 -0.4212  0.5139
 3126SOL     OW12269   2.460   1.726   5.314 -0.0129 -0.0684  0.1341
 3126SOL    HW212270   2.469   1.663   5.242 -1.7757 -2.1797  1.6361
 3126SOL    HW312271   2.367   1.749   5.314  0.0005  0.0376  1.6214
 3126SOL    MW412272   2.449   1.721   5.304 -0.2437 -0.3330  0.5285
 3127SOL     OW12273   2.210   0.473   1.048  0.1758  0.0698 -0.8865
 3127SOL    HW212274   2.280   0.521   1.002  0.5842  0.0431 -0.3039
 3127SOL    HW312275   2.229   0.381   1.032  0.2115  0.0655 -0.8197
 3127SOL    MW412276   2.222   0.467   1.040  0.2344  0.0657 -0.8008
 3128SOL     OW12277   3.903   5.951   2.692 -0.4306  0.1238 -0.2452
 3128SOL    HW212278   3.935   5.920   2.777 -1.4185 -1.3930 -0.3732
 3128SOL    HW312279   3.864   5.873   2.652 -1.3033  1.1467 -1.4615
 3128SOL    MW412280   3.902   5.937   2.698 -0.6761  0.0586 -0.4225
 3129SOL     OW12281   1.055   5.196   2.340  0.4388  0.2580 -0.3659
 3129SOL    HW212282   1.052   5.276   2.392  1.6998  0.7444 -1.0029
 3129SOL    HW312283   0.978   5.147   2.367 -1.2400  2.3631 -1.0733
 3129SOL    MW412284   1.045   5.200   2.351  0.3837  0.5999 -0.5433
 3130SOL     OW12285   1.809   0.732   3.605 -0.3332  0.1889  0.1133
 3130SOL    HW212286   1.798   0.637   3.617 -1.1164  0.2623  0.0638
 3130SOL    HW312287   1.719   0.765   3.595 -0.0353  0.8650 -0.4122
 3130SOL    MW412288   1.796   0.724   3.605 -0.3972  0.2878  0.0375
 3131SOL     OW12289   0.500   4.446   4.689  0.3423 -0.1919 -0.4854
 3131SOL    HW212290   0.497   4.442   4.593 -1.2154  0.0332 -0.4715
 3131SOL    HW312291   0.413   4.416   4.717  0.4935  0.5233  0.8229
 3131SOL    MW412292   0.488   4.442   4.680  0.1567 -0.0679 -0.3109
 3132SOL     OW12293   0.883   5.425   5.915 -0.2392 -0.0436  0.5400
 3132SOL    HW212294   0.961   5.467   5.952  0.6709 -1.8922  0.8206
 3132SOL    HW312295   0.917   5.362   5.852 -1.6236  0.3852 -0.6881
 3132SOL    MW412296   0.897   5.422   5.912 -0.3018 -0.2309  0.4150
 3133SOL     OW12297   3.810   4.901   2.586  0.4571  0.1054 -0.0426
 3133SOL    HW212298   3.742   4.966   2.567  1.0969  0.4469 -1.2445
 3133SOL    HW312299   3.877   4.917   2.520  1.1730 -1.0006  0.4003
 3133SOL    MW412300   3.810   4.912   2.575  0.6360  0.0045 -0.1427
 3134SOL     OW12301   2.286   4.200   5.909  0.1242  0.0050  0.2196
 3134SOL    HW212302   2.303   4.294   5.908 -1.5328  0.3359 -0.8642
 3134SOL    HW312303   2.363   4.160   5.870  0.7990  0.9120  0.6016
 3134SOL    MW412304   2.298   4.207   5.904 -0.0054  0.1683  0.1270
 3135SOL     OW12305   0.090   3.485   4.606 -0.0394 -0.1566  0.3381
 3135SOL    HW212306   0.146   3.531   4.668  0.8887  0.5612 -0.9735
 3135SOL    HW312307   0.024   3.551   4.581  0.2264 -0.0929 -0.2133
 3135SOL    MW412308   0.089   3.500   4.611  0.1181 -0.0535  0.0923
 3136SOL     OW12309   1.781   1.266   3.123 -0.3998  0.2112 -0.0356
 3136SOL    HW212310   1.831   1.304   3.050 -0.2603  2.0237  0.9365
 3136SOL    HW312311   1.691   1.262   3.090 -0.0431 -0.7957 -0.9497
 3136SOL    MW412312   1.776   1.271   3.109 -0.3343  0.3175 -0.0280
 3137SOL     OW12313   0.722   4.606   2.856  0.3509 -0.1779 -0.6681
 3137SOL    HW212314   0.797   4.546   2.855  1.4799  1.1353  0.7518
 3137SOL    HW312315   0.659   4.563   2.915 -0.3395 -1.5731 -2.3226
 3137SOL    MW412316   0.724   4.592   2.864  0.4088 -0.1887 -0.6990
 3138SOL     OW12317   0.912   4.029   5.218 -0.0880 -0.0362  0.1223
 3138SOL    HW212318   0.889   4.114   5.182  2.8331  0.7211 -0.2483
 3138SOL    HW312319   0.869   4.026   5.303 -0.8784  1.4447 -0.1934
 3138SOL    MW412320   0.903   4.040   5.224  0.1931  0.2591  0.0317
 3139SOL     OW12321   5.518   2.501   0.551 -0.6574 -0.2267 -0.4042
 3139SOL    HW212322   5.511   2.522   0.644  3.5465  0.0270  0.0599
 3139SOL    HW312323   5.562   2.416   0.549  0.0379  0.1359 -2.1450
 3139SOL    MW412324   5.523   2.493   0.563 -0.0110 -0.1454 -0.5727
 3140SOL     OW12325   4.837   2.450   2.013 -0.0554 -0.7490  0.2023
 3140SOL    HW212326   4.926   2.478   1.995 -0.1793  1.3030  2.3061
 3140SOL    HW312327   4.789   2.469   1.932  1.1119 -0.5280 -0.4609
 3140SOL    MW412328   4.842   2.456   2.000  0.0823 -0.4491  0.3924
 3141SOL     OW12329   5.887   0.404   3.766  0.0301  0.4084  0.0104
 3141SOL    HW212330   5.812   0.452   3.801  1.1983  3.2531 -1.0744
 3141SOL    HW312331   5.869   0.397   3.673 -0.0877 -1.3319  0.1403
 3141SOL    MW412332   5.875   0.410   3.759  0.1687  0.5541 -0.1156
 3142SOL     OW12333   1.217   3.587   4.709  0.2285 -0.2550 -0.2117
 3142SOL    HW212334   1.291   3.604   4.650  0.3103  1.1740  0.2732
 3142SOL    HW312335   1.215   3.491   4.718  0.8089 -0.4449 -1.7541
 3142SOL    MW412336   1.226   3.576   4.702  0.3159 -0.0915 -0.3512
 3143SOL     OW12337   1.828   1.202   2.103 -0.2042  0.5573 -0.1975
 3143SOL    HW212338   1.846   1.296   2.097 -0.0745  0.4184 -2.9889
 3143SOL    HW312339   1.869   1.164   2.026 -1.4934 -1.6133  0.1007
 3143SOL    MW412340   1.836   1.210   2.092 -0.3572  0.2526 -0.5264
 3144SOL     OW12341   2.690   0.767   0.289 -0.2205  0.1073  0.2520
 3144SOL    HW212342   2.621   0.707   0.318 -0.6025  0.8392  0.8951
 3144SOL    HW312343   2.649   0.854   0.290  0.4589  0.4501 -0.2064
 3144SOL    MW412344   2.675   0.771   0.293 -0.1813  0.2491  0.2763
 3145SOL     OW12345   4.361   4.464   5.412  0.8255  0.2363  0.1945
 3145SOL    HW212346   4.266   4.448   5.408  0.8717 -0.4955  1.4985
 3145SOL    HW312347   4.399   4.377   5.426  1.7434  0.4544 -0.9089
 3145SOL    MW412348   4.353   4.450   5.414  0.9527  0.1685  0.2210
 3146SOL     OW12349   5.113   1.911   2.459  0.2788 -0.4089 -0.0008
 3146SOL    HW212350   5.094   1.979   2.524  0.2512 -1.2515  0.8975
 3146SOL    HW312351   5.109   1.957   2.375  2.3291  1.1686  0.6688
 3146SOL    MW412352   5.110   1.926   2.456  0.5457 -0.3119  0.2060
 3147SOL     OW12353   3.218   6.167   1.631 -0.3915  0.6078 -0.6369
 3147SOL    HW212354   3.309   6.137   1.635 -0.8530 -0.7487  0.9241
 3147SOL    HW312355   3.171   6.111   1.693 -1.8789  2.7322  0.2986
 3147SOL    MW412356   3.224   6.155   1.640 -0.6486  0.7091 -0.3075
 3148SOL     OW12357   5.708   1.245   0.469  0.2694 -0.0238  0.1323
 3148SOL    HW212358   5.654   1.295   0.530 -0.4438 -0.3532 -0.2245
 3148SOL    HW312359   5.720   1.160   0.512  0.2149 -0.0734  0.0478
 3148SOL    MW412360   5.703   1.240   0.483  0.1681 -0.0738  0.0741
 3149SOL     OW12361   4.197   4.792   5.155  0.0445 -0.0375 -0.4679
 3149SOL    HW212362   4.181   4.799   5.249  0.8173 -1.9371 -0.1663
 3149SOL    HW312363   4.120   4.747   5.120 -0.5749  1.2960 -0.8945
 3149SOL    MW412364   4.185   4.787   5.163  0.0647 -0.1122 -0.4844
 3150SOL     OW12365   1.070   6.258   3.027 -0.0634  0.1622  0.5302
 3150SOL    HW212366   1.005   6.188   3.032 -0.2566  0.3956  1.5270
 3150SOL    HW312367   1.154   6.213   3.038 -0.2014  0.0966  1.3945
 3150SOL    MW412368   1.073   6.243   3.029 -0.1071  0.1843  0.7758
 3151SOL     OW12369   6.170   5.558   4.446  0.1653  0.1906  0.0178
 3151SOL    HW212370   6.143   5.618   4.376  0.5063  0.2442 -0.0684
 3151SOL    HW312371   6.092   5.504   4.462  0.4056 -0.5294 -1.1388
 3151SOL    MW412372   6.156   5.559   4.438  0.2420  0.1027 -0.1462
 3152SOL     OW12373   1.458   5.671   3.794 -0.1435 -0.7831 -0.3323
 3152SOL    HW212374   1.383   5.725   3.817  0.2481 -0.2150 -0.3533
 3152SOL    HW312375   1.518   5.681   3.868  0.4832 -0.1428 -0.9024
 3152SOL    MW412376   1.456   5.680   3.807 -0.0092 -0.6237 -0.4103
 3153SOL     OW12377   3.447   5.068   3.596  0.5701  0.2985  0.1799
 3153SOL    HW212378   3.512   5.138   3.603  0.0923  0.7654  0.0228
 3153SOL    HW312379   3.384   5.086   3.666 -0.0812  0.5930 -0.4659
 3153SOL    MW412380   3.447   5.079   3.606  0.4211  0.3989  0.0740
 3154SOL     OW12381   2.067   3.409   3.419  0.2852  0.2335 -0.3178
 3154SOL    HW212382   2.019   3.331   3.447  0.6349  0.4222  0.8689
 3154SOL    HW312383   2.154   3.399   3.457 -0.0054  1.7309  0.8677
 3154SOL    MW412384   2.072   3.398   3.428  0.2930  0.4560 -0.0048
 3155SOL     OW12385   4.935   2.538   5.753 -0.4469  0.0235  0.0062
 3155SOL    HW212386   4.962   2.458   5.800  2.7712  2.3536  2.5876
 3155SOL    HW312387   4.856   2.566   5.799  0.3189  0.0367  1.3951
 3155SOL    MW412388   4.928   2.531   5.765  0.0787  0.3327  0.5300
 3156SOL     OW12389   0.157   5.414   1.792 -0.5058 -0.2190 -0.1665
 3156SOL    HW212390   0.224   5.355   1.825 -0.4087 -0.2417 -0.4063
 3156SOL    HW312391   0.104   5.360   1.733 -1.3058 -0.4485  0.7405
 3156SOL    MW412392   0.159   5.399   1.789 -0.5985 -0.2523 -0.0785
 3157SOL     OW12393   4.552   1.923   1.311  0.6530  0.4175 -0.0514
 3157SOL    HW212394   4.576   1.834   1.285 -1.0300 -0.6093  1.6328
 3157SOL    HW312395   4.533   1.967   1.228 -1.7083 -1.8471 -0.8547
 3157SOL    MW412396   4.552   1.917   1.296  0.1194 -0.0168  0.0648
 3158SOL     OW12397   5.907   1.372   1.266  0.7776  0.3097  0.0196
 3158SOL    HW212398   5.902   1.456   1.221  1.7248  0.9038  0.9987
 3158SOL    HW312399   5.962   1.318   1.209  0.3976  0.4267 -0.4693
 3158SOL    MW412400   5.913   1.376   1.252  0.8525  0.4035  0.0843
 3159SOL     OW12401   5.917   3.339   0.402  0.1108  0.2313  0.4311
 3159SOL    HW212402   5.916   3.365   0.494 -1.5530  1.3921  0.1430
 3159SOL    HW312403   5.965   3.410   0.358  0.1134  0.1499  0.3015
 3159SOL    MW412404   5.923   3.352   0.408 -0.1084  0.3737  0.3759
 3160SOL     OW12405   5.443   2.343   4.596  0.1005  0.2331  0.5067
 3160SOL    HW212406   5.377   2.387   4.649 -0.7240  0.1902 -0.4730
 3160SOL    HW312407   5.522   2.395   4.607 -0.4657  1.0877  0.5634
 3160SOL    MW412408   5.445   2.355   4.605 -0.0830  0.3402  0.3849
 3161SOL     OW12409   3.627   2.321   3.249  0.0903 -0.5795 -0.4603
 3161SOL    HW212410   3.685   2.396   3.238  0.0228 -0.4512  0.0702
 3161SOL    HW312411   3.642   2.290   3.338 -0.2027 -0.9275 -0.5249
 3161SOL    MW412412   3.636   2.327   3.259  0.0428 -0.6085 -0.3989
 3162SOL     OW12413   4.610   1.456   0.225 -0.0230 -0.3664  0.2681
 3162SOL    HW212414   4.565   1.377   0.255  0.3646 -0.6196  0.1925
 3162SOL    HW312415   4.595   1.459   0.131  0.8322 -0.9205  0.1065
 3162SOL    MW412416   4.602   1.446   0.217  0.1410 -0.4729  0.2368
 3163SOL     OW12417   0.225   2.166   4.003 -0.2942 -0.2825 -0.3411
 3163SOL    HW212418   0.307   2.200   4.039  0.8370 -1.8562 -1.2717
 3163SOL    HW312419   0.188   2.112   4.073 -0.1523 -0.1720 -0.1808
 3163SOL    MW412420   0.231   2.164   4.017 -0.1263 -0.4756 -0.4427
 3164SOL     OW12421   5.831   0.212   4.391  0.4180 -0.4342  1.0292
 3164SOL    HW212422   5.836   0.211   4.295  0.9261 -1.7444  1.0417
 3164SOL    HW312423   5.778   0.289   4.412  0.5102  0.0083 -0.2905
 3164SOL    MW412424   5.825   0.222   4.381  0.4972 -0.5487  0.8567
 3165SOL     OW12425   3.803   6.305   5.598  0.6182  0.0791  0.5561
 3165SOL    HW212426   3.738   6.278   5.532 -0.2798  2.4748  0.3401
 3165SOL    HW312427   3.826   6.225   5.643 -0.6492 -1.2543 -1.0198
 3165SOL    MW412428   3.797   6.291   5.595  0.3325  0.2193  0.3197
 3166SOL     OW12429   1.170   2.916   4.111  0.5672 -0.3134 -0.2410
 3166SOL    HW212430   1.147   2.923   4.019  0.2513  1.8464 -0.0459
 3166SOL    HW312431   1.152   3.002   4.147  1.0807 -0.9852  1.7666
 3166SOL    MW412432   1.165   2.928   4.104  0.5932 -0.1171  0.0496
 3167SOL     OW12433   5.397   5.112   0.312  0.4541  0.4769  0.1162
 3167SOL    HW212434   5.344   5.033   0.327  2.8912 -1.0906  1.1595
 3167SOL    HW312435   5.339   5.184   0.335 -1.0846 -1.1425  1.7009
 3167SOL    MW412436   5.383   5.111   0.317  0.5727  0.0564  0.4630
 3168SOL     OW12437   3.593   3.315   4.316  0.1575 -0.9377 -0.4429
 3168SOL    HW212438   3.580   3.405   4.346 -0.5860 -1.0303 -0.4713
 3168SOL    HW312439   3.642   3.273   4.386 -2.3319 -1.4078  1.1627
 3168SOL    MW412440   3.598   3.321   4.329 -0.2691 -1.0119 -0.2348
 3169SOL     OW12441   6.314   5.327   4.484 -0.1479 -0.4774 -0.3721
 3169SOL    HW212442   6.277   5.411   4.460 -0.2538 -0.6615 -0.8709
 3169SOL    HW312443   6.300   5.320   4.579 -2.5120 -1.0704 -0.6933
 3169SOL    MW412444   6.307   5.337   4.493 -0.4738 -0.5799 -0.4803
 3170SOL     OW12445   1.285   1.163   3.545 -0.2132  0.1776  1.0538
 3170SOL    HW212446   1.196   1.191   3.524  0.0689 -0.6622 -1.5452
 3170SOL    HW312447   1.275   1.109   3.623 -2.3367 -1.6946 -0.4064
 3170SOL    MW412448   1.272   1.160   3.552 -0.4561 -0.1802  0.5182
 3171SOL     OW12449   3.021   0.570   6.323  0.3249  0.4117  1.2779
 3171SOL    HW212450   3.044   0.644   6.267  1.1683  0.0094  1.0781
 3171SOL    HW312451   3.102   0.521   6.333 -0.8163 -2.3525 -1.3306
 3171SOL    MW412452   3.034   0.573   6.316  0.2856 -0.0061  0.9074
 3172SOL     OW12453   3.574   2.356   2.979  0.0515 -0.3546  0.6071
 3172SOL    HW212454   3.584   2.360   3.074 -0.5418  0.1068  0.6591
 3172SOL    HW312455   3.480   2.356   2.965  0.1367 -0.5729  0.0219
 3172SOL    MW412456   3.563   2.357   2.990 -0.0155 -0.3225  0.5368
 3173SOL     OW12457   1.048   3.183   0.410 -0.4375 -0.1217 -0.6370
 3173SOL    HW212458   0.954   3.191   0.425 -1.0825 -2.9223 -2.2819
 3173SOL    HW312459   1.071   3.097   0.447  0.8518 -0.6570 -2.5074
 3173SOL    MW412460   1.039   3.172   0.417 -0.3525 -0.5619 -1.1008
 3174SOL     OW12461   1.177   4.274   1.807 -0.1162  0.0601 -0.0527
 3174SOL    HW212462   1.127   4.354   1.820 -0.0353 -0.0338  0.9112
 3174SOL    HW312463   1.125   4.206   1.849  0.9626  0.0217  1.2989
 3174SOL    MW412464   1.163   4.276   1.814  0.0368  0.0427  0.2528
 3175SOL     OW12465   0.121   1.107   6.077  0.1601  0.2960  0.4597
 3175SOL    HW212466   0.165   1.031   6.037 -2.9816 -0.4005 -2.0711
 3175SOL    HW312467   0.170   1.182   6.044  0.8440 -0.4860 -0.3910
 3175SOL    MW412468   0.133   1.107   6.067 -0.1642  0.1009  0.0136
 3176SOL     OW12469   5.844   3.405   1.507 -0.7434 -0.3764  0.8215
 3176SOL    HW212470   5.863   3.494   1.480  0.0649 -0.6622  0.4025
 3176SOL    HW312471   5.811   3.413   1.597 -0.1748  0.2947  0.9780
 3176SOL    MW412472   5.842   3.418   1.515 -0.5618 -0.3256  0.7869
 3177SOL     OW12473   4.614   2.713   1.728 -0.2738  0.2098 -0.0476
 3177SOL    HW212474   4.672   2.694   1.654 -0.2701  0.5201 -0.1242
 3177SOL    HW312475   4.635   2.803   1.753 -1.3620  0.6548 -0.6715
 3177SOL    MW412476   4.624   2.722   1.721 -0.4169  0.3094 -0.1400
 3178SOL     OW12477   1.355   5.996   5.882 -0.3778  0.4713  0.0442
 3178SOL    HW212478   1.327   5.905   5.892 -0.3397  0.3567 -0.8093
 3178SOL    HW312479   1.297   6.046   5.939 -0.6361 -0.0469  0.2378
 3178SOL    MW412480   1.344   5.990   5.891 -0.4068  0.3878 -0.0428
 3179SOL     OW12481   5.911   6.380   0.569 -0.2400 -0.6589  0.3538
 3179SOL    HW212482   5.876   6.324   0.500  0.5591 -1.3243  0.4726
 3179SOL    HW312483   6.006   6.370   0.562 -0.0903  0.5059  0.5246
 3179SOL    MW412484   5.919   6.371   0.559 -0.1148 -0.5930  0.3920
 3180SOL     OW12485   4.669   4.963   2.279 -0.1935 -0.2231 -0.2703
 3180SOL    HW212486   4.575   4.975   2.293 -0.0743  0.9334 -0.3512
 3180SOL    HW312487   4.701   4.929   2.363 -0.2453  2.1981  0.8302
 3180SOL    MW412488   4.661   4.960   2.292 -0.1846  0.2489 -0.1358
 3181SOL     OW12489   4.328   2.114   6.278 -0.1326 -0.9940 -0.2740
 3181SOL    HW212490   4.310   2.190   6.334  1.0200  0.6766 -2.0497
 3181SOL    HW312491   4.371   2.052   6.336  1.1066  0.7079  0.7445
 3181SOL    MW412492   4.331   2.116   6.293  0.1830 -0.5490 -0.3739
 3182SOL     OW12493   2.241   1.275   5.261  0.1099 -0.1431  0.1715
 3182SOL    HW212494   2.296   1.196   5.263 -1.6957 -1.4772  1.5109
 3182SOL    HW312495   2.207   1.279   5.172  0.7886 -0.4609 -0.1057
 3182SOL    MW412496   2.244   1.265   5.250 -0.0387 -0.3610  0.3116
 3183SOL     OW12497   5.710   2.684   0.424  0.3643 -0.0521  0.7281
 3183SOL    HW212498   5.622   2.718   0.414 -0.5715 -2.6758 -0.9447
 3183SOL    HW312499   5.698   2.593   0.452  2.4276 -0.9949 -1.1163
 3183SOL    MW412500   5.697   2.677   0.427  0.5130 -0.5226  0.2641
 3184SOL     OW12501   0.634   5.292   4.919 -0.2889  0.1839 -0.0041
 3184SOL    HW212502   0.703   5.288   4.853  0.6126 -0.8178  0.9555
 3184SOL    HW312503   0.639   5.380   4.955 -1.8237  1.2905 -2.2955
 3184SOL    MW412504   0.644   5.303   4.915 -0.3725  0.1977 -0.1798
 3185SOL     OW12505   1.410   3.798   4.259 -0.0994 -0.3583 -0.1979
 3185SOL    HW212506   1.327   3.816   4.214  0.3795 -1.4072 -1.5768
 3185SOL    HW312507   1.402   3.707   4.287 -0.4942  0.3403  2.1798
 3185SOL    MW412508   1.398   3.788   4.256 -0.0883 -0.4045 -0.0662
 3186SOL     OW12509   1.583   0.070   4.320  0.2479 -0.7462 -0.5656
 3186SOL    HW212510   1.679   0.075   4.319  0.2072  0.9447  0.0833
 3186SOL    HW312511   1.563  -0.006   4.374  1.2120 -0.9734 -0.5060
 3186SOL    MW412512   1.593   0.061   4.327  0.3697 -0.5531 -0.4722
 3187SOL     OW12513   2.298   2.217   3.684 -0.1784  0.1154 -0.0551
 3187SOL    HW212514   2.207   2.240   3.705 -1.1623 -1.5097 -2.1848
 3187SOL    HW312515   2.323   2.280   3.617  0.1135  0.2808  0.2102
 3187SOL    MW412516   2.289   2.228   3.678 -0.2697 -0.0772 -0.3011
 3188SOL     OW12517   4.091   2.791   4.262  0.7238 -0.4998 -0.4248
 3188SOL    HW212518   4.080   2.761   4.352  4.6900  0.0806  0.4490
 3188SOL    HW312519   4.100   2.710   4.211  0.8795 -0.8390  0.1313
 3188SOL    MW412520   4.091   2.776   4.267  1.2677 -0.4680 -0.2361
 3189SOL     OW12521   1.688   5.536   4.245 -0.3137 -0.0760 -0.0804
 3189SOL    HW212522   1.670   5.539   4.151  0.2041  1.1246 -0.1493
 3189SOL    HW312523   1.602   5.520   4.285 -0.4901 -0.9052 -0.7632
 3189SOL    MW412524   1.674   5.534   4.238 -0.2686 -0.0270 -0.1795
 3190SOL     OW12525   6.309   4.236   3.270  0.2009  0.0089 -0.1247
 3190SOL    HW212526   6.259   4.273   3.197  0.7700 -0.4620 -0.7695
 3190SOL    HW312527   6.361   4.167   3.230 -0.6152 -1.3035  1.0000
 3190SOL    MW412528   6.309   4.232   3.255  0.1683 -0.2264 -0.0614
 3191SOL     OW12529   1.283   3.063   4.385 -0.0499 -0.1155 -0.4092
 3191SOL    HW212530   1.357   3.110   4.348  0.5428 -0.3963  0.3879
 3191SOL    HW312531   1.211   3.077   4.323  0.6341  0.2641 -1.1214
 3191SOL    MW412532   1.283   3.071   4.372  0.1186 -0.1025 -0.3980
 3192SOL     OW12533   3.490   1.473   3.199 -0.2094  0.0336 -0.2351
 3192SOL    HW212534   3.584   1.476   3.182  0.1118 -0.5393  1.3114
 3192SOL    HW312535   3.458   1.560   3.175  0.8022  0.3942 -0.3070
 3192SOL    MW412536   3.498   1.485   3.193 -0.0335  0.0056 -0.0405
 3193SOL     OW12537   1.903   1.884   0.536  0.0338  0.2953  0.0665
 3193SOL    HW212538   1.915   1.886   0.441 -2.2013 -2.3669 -0.4013
 3193SOL    HW312539   1.972   1.825   0.567  0.1699  0.4056 -0.0221
 3193SOL    MW412540   1.914   1.877   0.527 -0.2431 -0.0414 -0.0069
 3194SOL     OW12541   2.852   3.063   6.314  0.1149 -0.1579 -0.2172
 3194SOL    HW212542   2.946   3.064   6.330 -0.2244  0.9676  2.1711
 3194SOL    HW312543   2.842   3.097   6.225  1.8629  1.9266  0.3014
 3194SOL    MW412544   2.863   3.067   6.304  0.3008  0.2656  0.1663
 3195SOL     OW12545   4.347   3.316   5.902  0.1884 -0.0116  0.5199
 3195SOL    HW212546   4.358   3.221   5.912  2.1482  0.1103  0.1015
 3195SOL    HW312547   4.391   3.353   5.978  0.1512  0.5658  0.2657
 3195SOL    MW412548   4.354   3.308   5.913  0.4421  0.0807  0.4312
 3196SOL     OW12549   5.257   2.198   2.398  0.3869 -0.0730 -0.0747
 3196SOL    HW212550   5.286   2.288   2.410  2.5840 -0.6450 -0.5869
 3196SOL    HW312551   5.287   2.175   2.309 -0.8275 -1.0682 -0.2511
 3196SOL    MW412552   5.265   2.207   2.388  0.5165 -0.2798 -0.1656
 3197SOL     OW12553   6.138   0.345   1.547  0.0646  0.3956  0.4963
 3197SOL    HW212554   6.220   0.392   1.557 -0.3748  1.6232 -1.2001
 3197SOL    HW312555   6.161   0.268   1.494  0.0431  1.0715 -0.5239
 3197SOL    MW412556   6.152   0.341   1.541  0.0038  0.6467  0.1379
 3198SOL     OW12557   2.719   6.405   5.656 -0.0096  0.2089 -0.2427
 3198SOL    HW212558   2.756   6.470   5.596  2.0533 -0.1996  0.5394
 3198SOL    HW312559   2.710   6.326   5.604 -1.2427  0.6877 -0.8204
 3198SOL    MW412560   2.722   6.403   5.641  0.0999  0.2182 -0.2157
 3199SOL     OW12561   1.857   0.279   6.421  0.4103  0.0641  0.4175
 3199SOL    HW212562   1.948   0.308   6.418  0.8343 -1.1973  0.4786
 3199SOL    HW312563   1.823   0.298   6.333  0.4387  1.3719  0.6639
 3199SOL    MW412564   1.864   0.285   6.409  0.4700  0.0702  0.4581
 3200SOL     OW12565   5.627   0.871   1.905  0.4890  0.2375 -0.0131
 3200SOL    HW212566   5.532   0.885   1.901  0.6792  1.6089 -0.2502
 3200SOL    HW312567   5.656   0.876   1.814  0.9377  1.1039  0.1619
 3200SOL    MW412568   5.618   0.874   1.893  0.5733  0.5327 -0.0213
 3201SOL     OW12569   5.842   0.807   0.274 -0.4526  0.5974  0.5872
 3201SOL    HW212570   5.806   0.890   0.243 -1.1672  0.4287  0.9487
 3201SOL    HW312571   5.801   0.741   0.219  1.5594  0.5727 -1.0209
 3201SOL    MW412572   5.832   0.810   0.263 -0.2815  0.5719  0.4227
 3202SOL     OW12573   4.902   3.282   0.450  0.0047  0.8670 -0.5080
 3202SOL    HW212574   4.901   3.357   0.391 -0.4944  0.7053 -0.7158
 3202SOL    HW312575   4.860   3.212   0.400  1.8352 -0.0014 -0.8867
 3202SOL    MW412576   4.896   3.283   0.435  0.1804  0.7311 -0.5854
 3203SOL     OW12577   2.303   6.113   2.608 -0.2042 -0.0844 -0.2637
 3203SOL    HW212578   2.322   6.151   2.694 -2.2158  0.7918 -0.1581
 3203SOL    HW312579   2.239   6.044   2.626 -0.1914 -0.2939 -1.0019
 3203SOL    MW412580   2.297   6.109   2.622 -0.4679  0.0036 -0.3472
 3204SOL     OW12581   3.934   6.157   4.487 -0.0783 -0.2526  0.1055
 3204SOL    HW212582   3.844   6.189   4.482  0.1140  0.2325 -0.3054
 3204SOL    HW312583   3.970   6.197   4.566 -0.1441 -0.2536  0.1358
 3204SOL    MW412584   3.926   6.166   4.497 -0.0616 -0.1887  0.0553
 3205SOL     OW12585   4.903   1.904   0.073 -0.2626  0.2446 -0.1759
 3205SOL    HW212586   4.971   1.853   0.030 -0.5295 -0.2311 -0.0414
 3205SOL    HW312587   4.822   1.881   0.026 -0.6257 -0.5920  0.8177
 3205SOL    MW412588   4.901   1.894   0.061 -0.3457  0.0715 -0.0270
 3206SOL     OW12589   0.023   3.439   5.946 -0.1018  0.1074  0.8929
 3206SOL    HW212590   0.095   3.425   5.885  0.2398  2.3204  0.6925
 3206SOL    HW312591  -0.055   3.448   5.891  0.1476  1.7237  0.7462
 3206SOL    MW412592   0.022   3.439   5.931 -0.0238  0.6126  0.8471
 3207SOL     OW12593   3.236   5.685   5.929 -0.4856 -0.2834 -0.1475
 3207SOL    HW212594   3.246   5.677   6.024 -1.6483  1.9332  0.2499
 3207SOL    HW312595   3.306   5.746   5.903 -0.2325 -0.8051 -0.7224
 3207SOL    MW412596   3.247   5.692   5.938 -0.6056 -0.0598 -0.1709
 3208SOL     OW12597   3.274   2.969   1.367 -0.0138 -0.0559 -0.2383
 3208SOL    HW212598   3.221   2.891   1.380 -1.6990  1.2295  1.1318
 3208SOL    HW312599   3.214   3.042   1.380  1.8717  1.4963  0.3595
 3208SOL    MW412600   3.259   2.969   1.370  0.0127  0.3185  0.0214
 3209SOL     OW12601   3.966   0.999   0.994  0.5481  0.2158  0.7253
 3209SOL    HW212602   3.943   0.908   1.011  0.1959  0.4435  1.5718
 3209SOL    HW312603   3.991   1.002   0.902 -0.3673 -0.5494  0.4422
 3209SOL    MW412604   3.966   0.988   0.984  0.3809  0.1449  0.7997
 3210SOL     OW12605   0.002   0.896   0.066 -0.5230  0.2663  0.2641
 3210SOL    HW212606   0.057   0.967   0.033  1.1032  0.5085  3.1546
 3210SOL    HW312607   0.044   0.817   0.033 -2.0027  0.4892 -2.4780
 3210SOL    MW412608   0.015   0.895   0.057 -0.5037  0.3277  0.2837
 3211SOL     OW12609   5.434   0.042   5.256 -0.1886 -0.1188  0.4701
 3211SOL    HW212610   5.506   0.100   5.231  0.0824 -0.2312  0.9751
 3211SOL    HW312611   5.393   0.086   5.331 -1.4500  0.5850 -0.5987
 3211SOL    MW412612   5.438   0.055   5.263 -0.3193 -0.0408  0.3957
 3212SOL     OW12613   1.491   2.028   1.542  0.5926  0.4629  0.4410
 3212SOL    HW212614   1.520   1.994   1.626 -0.7159  1.2525  1.2447
 3212SOL    HW312615   1.565   2.080   1.510  0.3560  1.8961  2.1202
 3212SOL    MW412616   1.504   2.030   1.549  0.3888  0.7561  0.7686
 3213SOL     OW12617   2.770   2.514   0.825 -0.0807  0.0547 -0.1537
 3213SOL    HW212618   2.848   2.548   0.781  1.2025 -1.9354  0.4683
 3213SOL    HW312619   2.713   2.483   0.755  0.1048  0.6561 -0.5728
 3213SOL    MW412620   2.773   2.515   0.810  0.1131 -0.1285 -0.1269
 3214SOL     OW12621   0.534   0.259   4.972 -0.4650 -0.1296 -0.0268
 3214SOL    HW212622   0.599   0.281   4.905  1.3285 -1.4109  1.2240
 3214SOL    HW312623   0.452   0.249   4.923  0.1460  1.8616 -1.6056
 3214SOL    MW412624   0.532   0.261   4.956 -0.1477 -0.0359 -0.0701
 3215SOL     OW12625   5.714   4.578   5.149  0.0852 -0.0138  0.1873
 3215SOL    HW212626   5.741   4.540   5.065  0.0304 -0.4863  0.3811
 3215SOL    HW312627   5.682   4.503   5.200 -0.2646  0.3302  0.4798
 3215SOL    MW412628   5.713   4.563   5.145  0.0319 -0.0307  0.2514
 3216SOL     OW12629   1.226   3.717   1.805 -0.0468 -0.6183 -0.1346
 3216SOL    HW212630   1.187   3.722   1.718 -0.1323  1.7903 -0.0095
 3216SOL    HW312631   1.155   3.739   1.865  0.1797 -1.6084  0.5291
 3216SOL    MW412632   1.212   3.720   1.802 -0.0282 -0.4311 -0.0305
 3217SOL     OW12633   1.724   3.498   3.370 -0.5073  0.0674  0.3200
 3217SOL    HW212634   1.765   3.466   3.290  1.2347  1.7254  0.4806
 3217SOL    HW312635   1.701   3.418   3.419  2.7008 -1.0219  0.2534
 3217SOL    MW412636   1.726   3.483   3.366  0.1458  0.1424  0.3324
 3218SOL     OW12637   0.876   6.232   5.859 -0.1231  0.1421  0.5451
 3218SOL    HW212638   0.894   6.217   5.952 -1.9373 -1.0977  0.7599
 3218SOL    HW312639   0.933   6.170   5.814 -2.8931 -3.2212  1.1703
 3218SOL    MW412640   0.886   6.222   5.865 -0.7279 -0.4653  0.6559
 3219SOL     OW12641   0.355   1.237   1.324  0.5328  0.2523  0.1985
 3219SOL    HW212642   0.283   1.283   1.368 -1.6246 -0.1859 -2.5811
 3219SOL    HW312643   0.434   1.280   1.356 -0.9549  1.2803  2.8287
 3219SOL    MW412644   0.356   1.249   1.334  0.0519  0.3301  0.1788
 3220SOL     OW12645   0.592   5.915   3.146 -0.3056  0.2523  0.1919
 3220SOL    HW212646   0.571   5.851   3.214  0.2970  0.6158  0.7322
 3220SOL    HW312647   0.629   5.989   3.194  0.6610  0.2845 -0.5864
 3220SOL    MW412648   0.594   5.916   3.162 -0.0986  0.3045  0.1605
 3221SOL     OW12649   3.073   3.257   3.910  0.0299 -0.1315 -0.0614
 3221SOL    HW212650   3.160   3.245   3.948  0.3460 -1.5460 -1.1448
 3221SOL    HW312651   3.033   3.326   3.962  1.2130 -0.5506  1.4731
 3221SOL    MW412652   3.079   3.264   3.922  0.2277 -0.3734 -0.0019
 3222SOL     OW12653   5.909   3.613   2.130 -0.3442 -0.1058  0.0228
 3222SOL    HW212654   5.862   3.530   2.127  0.6971 -0.6848 -2.4781
 3222SOL    HW312655   5.928   3.634   2.039  1.3924  1.7467  0.7268
 3222SOL    MW412656   5.905   3.605   2.118  0.0223  0.0622 -0.2143
 3223SOL     OW12657   5.972   5.799   1.805 -0.4210  0.2886 -0.0580
 3223SOL    HW212658   5.891   5.790   1.755 -0.2430 -0.6240 -0.1962
 3223SOL    HW312659   6.009   5.882   1.775 -1.8094  1.2432  0.7674
 3223SOL    MW412660   5.967   5.809   1.794 -0.5807  0.2942  0.0327
 3224SOL     OW12661   5.698   3.611   2.910 -0.2367 -0.1244  0.3172
 3224SOL    HW212662   5.687   3.689   2.965  0.4660  0.4250 -0.3078
 3224SOL    HW312663   5.659   3.635   2.826 -0.8381 -0.7758  0.4051
 3224SOL    MW412664   5.692   3.625   2.906 -0.2233 -0.1379  0.2463
 3225SOL     OW12665   2.166   2.701   5.288  0.4070  0.3434  0.2341
 3225SOL    HW212666   2.217   2.626   5.320 -1.2289 -0.2616  1.6075
 3225SOL    HW312667   2.151   2.754   5.366 -0.2016  1.0450 -0.3471
 3225SOL    MW412668   2.171   2.698   5.303  0.1109  0.3562  0.3387
 3226SOL     OW12669   6.216   3.299   5.582 -0.0442 -0.1394 -0.5491
 3226SOL    HW212670   6.293   3.343   5.546  0.5596 -1.0709 -0.4284
 3226SOL    HW312671   6.249   3.215   5.615 -1.0049 -0.3086  0.0327
 3226SOL    MW412672   6.230   3.294   5.582 -0.0913 -0.2846 -0.4564
 3227SOL     OW12673   2.689   4.044   3.990 -0.0238 -0.2629  0.1281
 3227SOL    HW212674   2.662   3.952   3.994 -0.7251 -0.0216  1.5443
 3227SOL    HW312675   2.622   4.091   4.040  2.2249  0.5176  2.6625
 3227SOL    MW412676   2.677   4.038   3.997  0.1804 -0.1281  0.6493
 3228SOL     OW12677   2.310   5.291   6.208  0.2593 -0.1257 -0.5128
 3228SOL    HW212678   2.226   5.256   6.180  0.5553  0.8127 -2.8168
 3228SOL    HW312679   2.325   5.253   6.295 -1.7300 -1.6301 -0.7700
 3228SOL    MW412680   2.301   5.281   6.216  0.0359 -0.2004 -0.8507
 3229SOL     OW12681   3.524   6.102   5.208  0.8090  0.1368  0.1953
 3229SOL    HW212682   3.548   6.141   5.124  0.3971 -0.1663 -0.0644
 3229SOL    HW312683   3.496   6.013   5.186  0.8486  0.0041  0.6732
 3229SOL    MW412684   3.524   6.095   5.194  0.7599  0.0793  0.2241
 3230SOL     OW12685   1.679   3.091   2.612  0.1538 -0.1562 -0.0205
 3230SOL    HW212686   1.736   3.098   2.689  0.6839 -1.9994 -0.2113
 3230SOL    HW312687   1.670   2.997   2.596 -0.8470  0.1573 -1.5644
 3230SOL    MW412688   1.685   3.080   2.620  0.0917 -0.3580 -0.2494
 3231SOL     OW12689   0.197   2.027   0.297 -0.5570  0.3006  0.6380
 3231SOL    HW212690   0.134   2.008   0.367 -0.7609  1.6042  0.8311
 3231SOL    HW312691   0.258   1.953   0.299 -2.6212 -1.5524 -0.2286
 3231SOL    MW412692   0.196   2.015   0.306 -0.8563  0.2281  0.5491
 3232SOL     OW12693   4.908   2.282   5.928  0.0486  0.0932  0.2675
 3232SOL    HW212694   4.859   2.230   5.864 -1.1644  1.1104  0.3385
 3232SOL    HW312695   4.912   2.227   6.006  0.3444 -0.6071 -0.2316
 3232SOL    MW412696   4.902   2.268   5.930 -0.0724  0.1350  0.2110
 3233SOL     OW12697   1.729   2.285   0.750 -0.4668  0.0829 -0.1386
 3233SOL    HW212698   1.745   2.217   0.685  0.0576 -0.6470  0.7411
 3233SOL    HW312699   1.771   2.254   0.829 -2.2868  0.2766  0.9712
 3233SOL    MW412700   1.736   2.272   0.752 -0.6377  0.0122  0.1239
 3234SOL     OW12701   0.341   5.915   5.339  0.7750 -0.8893  0.2370
 3234SOL    HW212702   0.373   5.942   5.253 -0.5727  0.6296  0.1524
 3234SOL    HW312703   0.410   5.942   5.400 -0.2744  2.6715  0.1091
 3234SOL    MW412704   0.354   5.922   5.336  0.4587 -0.2191  0.2090
 3235SOL     OW12705   1.341   4.421   4.904 -0.3801  0.2512  0.2678
 3235SOL    HW212706   1.325   4.449   4.995  1.0593  2.0485  0.0311
 3235SOL    HW312707   1.355   4.503   4.856 -0.4742 -0.7017 -1.4665
 3235SOL    MW412708   1.341   4.436   4.910 -0.2026  0.3626  0.0078
 3236SOL     OW12709   4.053   0.233   0.360  0.0339 -0.0627 -0.1701
 3236SOL    HW212710   4.121   0.198   0.417 -1.0068 -3.6323 -0.8618
 3236SOL    HW312711   4.092   0.231   0.272 -0.1916  0.0709 -0.2732
 3236SOL    MW412712   4.067   0.228   0.356 -0.1332 -0.5161 -0.2750
 3237SOL     OW12713   3.296   1.518   3.614 -0.4542 -0.5195 -0.2647
 3237SOL    HW212714   3.377   1.569   3.620 -1.0876  0.4244  0.7905
 3237SOL    HW312715   3.326   1.428   3.604  0.6957  0.0374 -2.4467
 3237SOL    MW412716   3.311   1.513   3.614 -0.3860 -0.3215 -0.4134
 3238SOL     OW12717   5.253   0.381   3.049  0.2092 -0.1771 -0.2239
 3238SOL    HW212718   5.265   0.441   3.124 -0.1907  0.1644 -0.4261
 3238SOL    HW312719   5.333   0.330   3.046  1.0146  1.0622 -0.6765
 3238SOL    MW412720   5.265   0.383   3.059  0.2627  0.0315 -0.3103
 3239SOL     OW12721   4.751   5.108   3.094 -0.3852  0.0832  0.3544
 3239SOL    HW212722   4.817   5.108   3.164  1.1204  0.3710 -1.0062
 3239SOL    HW312723   4.759   5.021   3.054 -0.6287  0.2328 -0.0252
 3239SOL    MW412724   4.761   5.096   3.098 -0.2187  0.1409  0.1248
 3240SOL     OW12725   1.488   2.570   0.644  0.0011 -0.0664  0.1172
 3240SOL    HW212726   1.404   2.613   0.662 -2.6371 -3.9409 -1.5821
 3240SOL    HW312727   1.486   2.492   0.699  1.3102 -1.5019 -1.7540
 3240SOL    MW412728   1.477   2.566   0.654 -0.1742 -0.7670 -0.3539
 3241SOL     OW12729   2.581   6.017   0.435  0.7179 -0.1087  0.0148
 3241SOL    HW212730   2.492   5.981   0.431  1.2942 -1.6291  0.4060
 3241SOL    HW312731   2.637   5.941   0.452  1.7746  1.2356  3.3381
 3241SOL    MW412732   2.577   6.002   0.437  0.9334 -0.1319  0.5049
 3242SOL     OW12733   6.279   5.449   4.115 -0.3864 -0.1157  0.4087
 3242SOL    HW212734   6.345   5.428   4.181  0.7911  1.9683  0.0103
 3242SOL    HW312735   6.330   5.477   4.039 -1.7348  0.1460 -0.4385
 3242SOL    MW412736   6.295   5.450   4.114 -0.4089  0.1938  0.2443
 3243SOL     OW12737   0.513   4.940   1.900 -0.0420 -0.0960  0.4085
 3243SOL    HW212738   0.435   4.890   1.875 -0.3339 -0.1397  1.3587
 3243SOL    HW312739   0.583   4.901   1.848 -0.8530  0.8214 -1.4570
 3243SOL    MW412740   0.512   4.928   1.890 -0.1875  0.0193  0.2878
 3244SOL     OW12741   1.242   0.990   2.574  0.3159 -0.2183 -0.1219
 3244SOL    HW212742   1.153   0.976   2.540 -0.2066  1.6253  0.3711
 3244SOL    HW312743   1.278   1.058   2.517  1.3610 -0.8241 -0.2009
 3244SOL    MW412744   1.235   0.997   2.562  0.3849 -0.0549 -0.0673
 3245SOL     OW12745   2.386   6.455   4.922  0.0620 -0.0412  0.2752
 3245SOL    HW212746   2.393   6.486   5.012 -0.7253  1.1673 -0.0492
 3245SOL    HW312747   2.411   6.532   4.869  0.5041 -0.7272 -0.5437
 3245SOL    MW412748   2.390   6.469   4.927  0.0165  0.0277  0.1243
 3246SOL     OW12749   3.538   5.235   4.665  0.6676  0.2745 -0.1540
 3246SOL    HW212750   3.582   5.318   4.684  1.5441 -0.4176  1.0234
 3246SOL    HW312751   3.559   5.216   4.574 -1.5169  2.4634 -1.2238
 3246SOL    MW412752   3.547   5.243   4.656  0.4950  0.4720 -0.1398
 3247SOL     OW12753   3.306   2.135   1.273  0.0683  0.5726  0.4022
 3247SOL    HW212754   3.318   2.074   1.200  0.9100  1.0862  0.0948
 3247SOL    HW312755   3.279   2.217   1.231 -0.1922  0.6607  0.7373
 3247SOL    MW412756   3.304   2.138   1.258  0.1450  0.6520  0.4058
 3248SOL     OW12757   2.417   2.986   1.772 -0.4418  0.7789  0.1811
 3248SOL    HW212758   2.454   2.919   1.830  0.1078  0.9644  0.0536
 3248SOL    HW312759   2.469   3.064   1.790 -0.4465  0.9100 -0.3725
 3248SOL    MW412760   2.429   2.988   1.782 -0.3699  0.8207  0.0912
 3249SOL     OW12761   3.397   3.486   5.869 -0.2972 -0.0166 -0.1050
 3249SOL    HW212762   3.428   3.571   5.837  1.6520 -0.3395  0.7414
 3249SOL    HW312763   3.406   3.493   5.964 -0.1871 -1.1535 -0.0255
 3249SOL    MW412764   3.402   3.498   5.878 -0.0255 -0.2092  0.0172
 3250SOL     OW12765   3.511   0.283   1.217 -0.1331 -0.1783  0.1420
 3250SOL    HW212766   3.603   0.311   1.214  0.0690 -0.9186 -1.5068
 3250SOL    HW312767   3.464   0.349   1.167 -0.5037  0.1720  0.9413
 3250SOL    MW412768   3.517   0.295   1.210 -0.1553 -0.2297  0.0299
 3251SOL     OW12769   1.013   2.547   0.323 -0.1181  0.4670  0.2413
 3251SOL    HW212770   0.971   2.488   0.260 -0.3967  1.0907 -0.1639
 3251SOL    HW312771   1.023   2.494   0.402  3.1125 -1.4481 -1.1940
 3251SOL    MW412772   1.009   2.532   0.325  0.2713  0.2966 -0.0015
 3252SOL     OW12773   3.408   4.905   0.881  0.1680  0.5958  0.3302
 3252SOL    HW212774   3.392   4.980   0.823  0.6587 -0.7843 -1.7269
 3252SOL    HW312775   3.326   4.855   0.879  0.1406  0.6152  0.9605
 3252SOL    MW412776   3.395   4.908   0.873  0.2292  0.4163  0.1419
 3253SOL     OW12777   5.563   0.788   6.114 -0.3352  0.8216  0.6029
 3253SOL    HW212778   5.541   0.881   6.112 -0.8947  0.6719 -0.7968
 3253SOL    HW312779   5.621   0.775   6.039  1.1642  0.3610  1.7913
 3253SOL    MW412780   5.568   0.798   6.104 -0.2112  0.7411  0.5750
 3254SOL     OW12781   4.826   4.865   1.317  0.3422 -0.1548  0.5356
 3254SOL    HW212782   4.754   4.838   1.374  1.0077 -2.3778  0.4247
 3254SOL    HW312783   4.885   4.789   1.316  0.8294  0.1624 -2.3435
 3254SOL    MW412784   4.824   4.851   1.325  0.4943 -0.4062  0.1411
 3255SOL     OW12785   3.042   1.911   2.416 -0.0482 -0.3337 -0.2021
 3255SOL    HW212786   2.973   1.877   2.359 -0.3632 -0.4783  0.2597
 3255SOL    HW312787   3.022   1.874   2.502 -0.1421  0.6595  0.2176
 3255SOL    MW412788   3.030   1.902   2.420 -0.1021 -0.2217 -0.0858
 3256SOL     OW12789   0.305   2.737   1.102 -0.2503 -0.0659  0.5324
 3256SOL    HW212790   0.248   2.699   1.036 -0.4101  2.4373 -0.9237
 3256SOL    HW312791   0.394   2.711   1.076 -0.3129  0.8470 -0.7264
 3256SOL    MW412792   0.309   2.729   1.090 -0.2796  0.3848  0.1742
 3257SOL     OW12793   4.769   3.946   3.593  0.1441 -0.1141 -0.1639
 3257SOL    HW212794   4.840   3.918   3.535  0.4631 -0.7303  0.5117
 3257SOL    HW312795   4.711   3.997   3.537  0.1336 -1.1977 -1.1617
 3257SOL    MW412796   4.771   3.949   3.578  0.1848 -0.3384 -0.2064
 3258SOL     OW12797   3.330   4.608   3.165 -0.0589  0.6502 -0.4445
 3258SOL    HW212798   3.420   4.595   3.195 -0.8261  0.2045  1.9357
 3258SOL    HW312799   3.324   4.702   3.147  0.1296  1.3035  2.4248
 3258SOL    MW412800   3.341   4.619   3.167 -0.1352  0.6776  0.2481
 3259SOL     OW12801   4.491   5.151   3.206 -0.2964  0.5913  0.4432
 3259SOL    HW212802   4.445   5.067   3.208 -1.0612  0.9927  0.3638
 3259SOL    HW312803   4.583   5.128   3.200 -0.4532 -0.2481  1.0828
 3259SOL    MW412804   4.497   5.137   3.206 -0.4180  0.5335  0.5171
 3260SOL     OW12805   3.769   3.667   0.238 -0.8042 -0.3365 -0.1507
 3260SOL    HW212806   3.807   3.666   0.150  0.4342 -2.1463  0.3376
 3260SOL    HW312807   3.774   3.758   0.266  1.4053 -0.1635 -0.9112
 3260SOL    MW412808   3.774   3.679   0.230 -0.3493 -0.5525 -0.1866
 3261SOL     OW12809   1.982   3.528   2.536 -0.0376  0.0539 -0.2345
 3261SOL    HW212810   1.891   3.554   2.553  0.7262  1.9836  1.4251
 3261SOL    HW312811   2.000   3.560   2.448 -0.0789  2.5511  0.5989
 3261SOL    MW412812   1.972   3.535   2.527  0.0577  0.6380  0.0944
 3262SOL     OW12813   3.344   5.884   0.051  0.1746  0.0544  0.1727
 3262SOL    HW212814   3.403   5.945   0.095  1.6726 -0.7479 -0.6375
 3262SOL    HW312815   3.278   5.939   0.010 -0.2164  0.9249  1.8950
 3262SOL    MW412816   3.343   5.899   0.051  0.3206  0.0634  0.2930
 3263SOL     OW12817   6.238   5.733   1.954  0.2053 -0.5591 -0.1383
 3263SOL    HW212818   6.246   5.780   2.038 -0.6538 -1.1992  0.3165
 3263SOL    HW312819   6.144   5.731   1.937  0.3234 -1.1168 -0.7320
 3263SOL    MW412820   6.227   5.739   1.963  0.1075 -0.7172 -0.1566
 3264SOL     OW12821   2.943   3.936   1.144  0.4242 -0.7468  0.0576
 3264SOL    HW212822   2.899   3.870   1.199  0.1913 -0.2185  0.5166
 3264SOL    HW312823   2.876   3.963   1.082  0.4852 -0.8545 -0.0558
 3264SOL    MW412824   2.928   3.931   1.143  0.4015 -0.6913  0.1032
 3265SOL     OW12825   6.340   2.063   3.224 -0.5942  0.1563  0.3083
 3265SOL    HW212826   6.271   1.997   3.236 -1.5407  1.2857  1.3676
 3265SOL    HW312827   6.421   2.017   3.244 -1.3051 -0.5263  1.7910
 3265SOL    MW412828   6.342   2.048   3.228 -0.8129  0.2152  0.6437
 3266SOL     OW12829   0.733   1.103   0.023  0.6032  0.3926  0.2928
 3266SOL    HW212830   0.660   1.159  -0.001 -1.0092  0.2600  4.0639
 3266SOL    HW312831   0.711   1.017  -0.014  0.8228  1.1498 -1.7142
 3266SOL    MW412832   0.720   1.099   0.015  0.4194  0.4750  0.5255
 3267SOL     OW12833   1.734   5.373   2.190 -0.0163  0.0084 -0.2952
 3267SOL    HW212834   1.639   5.369   2.201 -0.2508  3.4072  0.0062
 3267SOL    HW312835   1.748   5.361   2.096 -1.1482  2.5875 -0.8901
 3267SOL    MW412836   1.723   5.371   2.179 -0.1966  0.7971 -0.3339
 3268SOL     OW12837   2.532   2.332   4.554  0.1126 -0.1851  0.3085
 3268SOL    HW212838   2.538   2.239   4.529 -1.7690  0.1614 -1.7218
 3268SOL    HW312839   2.491   2.330   4.641 -1.0722 -1.2758 -0.2274
 3268SOL    MW412840   2.527   2.319   4.562 -0.2920 -0.2833 -0.0301
 3269SOL     OW12841   4.965   4.973   1.749 -0.1310  0.2878  0.4020
 3269SOL    HW212842   4.940   4.894   1.796  0.1525 -0.7288 -1.0638
 3269SOL    HW312843   5.047   5.000   1.790 -0.4161  0.0410  1.1539
 3269SOL    MW412844   4.973   4.966   1.761 -0.1312  0.1211  0.3078
 3270SOL     OW12845   4.902   3.374   3.231  0.1654  0.0651  0.1961
 3270SOL    HW212846   4.847   3.448   3.258  0.6915  0.1913  0.9441
 3270SOL    HW312847   4.990   3.400   3.257  0.0759 -1.8855  2.8566
 3270SOL    MW412848   4.906   3.387   3.238  0.2230 -0.1756  0.6458
 3271SOL     OW12849   3.461   3.392   0.595  0.3071 -0.1172  0.1169
 3271SOL    HW212850   3.369   3.375   0.578  0.0208 -0.6854  2.0108
 3271SOL    HW312851   3.507   3.361   0.517 -0.8112 -3.0714  0.5266
 3271SOL    MW412852   3.455   3.386   0.582  0.1218 -0.5819  0.4208
 3272SOL     OW12853   6.359   0.039   4.688  0.0681 -0.1379 -0.2133
 3272SOL    HW212854   6.432  -0.018   4.713  0.6169  0.3353 -0.6891
 3272SOL    HW312855   6.292   0.023   4.754  0.4042 -0.9672 -0.0662
 3272SOL    MW412856   6.360   0.030   4.700  0.1849 -0.1848 -0.2567
 3273SOL     OW12857   1.181   2.869   2.671  0.1706  0.4224 -0.4818
 3273SOL    HW212858   1.236   2.947   2.665  0.4516  0.2062 -0.7575
 3273SOL    HW312859   1.104   2.890   2.618 -0.4910  1.1055  0.6930
 3273SOL    MW412860   1.178   2.882   2.663  0.1204  0.4840 -0.3632
 3274SOL     OW12861   5.436   2.755   1.558  0.6003 -0.0252 -0.2380
 3274SOL    HW212862   5.515   2.704   1.577  0.5814  0.4720  1.3063
 3274SOL    HW312863   5.367   2.713   1.610  0.1580  0.4256 -0.4472
 3274SOL    MW412864   5.437   2.743   1.567  0.5395  0.0998 -0.0618
 3275SOL     OW12865   5.184   4.111   5.023 -0.2661  0.5715 -0.2794
 3275SOL    HW212866   5.111   4.059   5.058 -0.4506  0.5227 -0.7320
 3275SOL    HW312867   5.227   4.147   5.101 -0.2681 -0.0788  0.0291
 3275SOL    MW412868   5.180   4.109   5.038 -0.2907  0.4792 -0.2984
 3276SOL     OW12869   0.649   5.962   0.165 -0.0216 -0.7778 -0.2333
 3276SOL    HW212870   0.610   5.917   0.090 -0.9946 -1.7360  0.8158
 3276SOL    HW312871   0.583   6.027   0.191  1.0110  0.7215 -1.1975
 3276SOL    MW412872   0.635   5.965   0.159 -0.0137 -0.7064 -0.2221
 3277SOL     OW12873   1.902   2.942   4.302  0.4264 -0.3830  0.1053
 3277SOL    HW212874   1.806   2.943   4.302  0.3658 -1.7603 -1.5358
 3277SOL    HW312875   1.926   2.982   4.386 -1.5040  2.4597 -0.5515
 3277SOL    MW412876   1.892   2.947   4.313  0.1637 -0.1897 -0.1979
 3278SOL     OW12877   3.856   2.637   6.129 -0.4466  0.1420  0.0885
 3278SOL    HW212878   3.804   2.677   6.199 -0.1161  1.4396 -0.3756
 3278SOL    HW312879   3.910   2.709   6.095 -0.0988 -0.6238 -1.0422
 3278SOL    MW412880   3.856   2.652   6.134 -0.3571  0.2121 -0.1219
 3279SOL     OW12881   4.866   1.721   1.759  0.1198 -0.4654 -0.0602
 3279SOL    HW212882   4.888   1.702   1.850  1.4090 -0.7386 -0.4095
 3279SOL    HW312883   4.948   1.712   1.712 -0.4292  0.1725 -1.1834
 3279SOL    MW412884   4.879   1.717   1.765  0.2175 -0.4172 -0.2544
 3280SOL     OW12885   5.122   4.838   0.754  0.1945 -0.5699 -0.5755
 3280SOL    HW212886   5.204   4.879   0.728 -0.2125 -0.1832 -1.2897
 3280SOL    HW312887   5.139   4.744   0.750  1.2017 -0.5200  1.2886
 3280SOL    MW412888   5.135   4.831   0.750  0.2737 -0.5123 -0.4238
 3281SOL     OW12889   4.173   1.447   1.913  0.7799  0.2048  0.0800
 3281SOL    HW212890   4.235   1.393   1.963 -0.6063 -0.9055  0.6766
 3281SOL    HW312891   4.208   1.447   1.824 -0.0024 -3.1922 -0.3661
 3281SOL    MW412892   4.186   1.440   1.908  0.4938 -0.3899  0.0998
 3282SOL     OW12893   0.072   0.864   2.977 -0.6575  0.1114  0.0814
 3282SOL    HW212894   0.045   0.836   3.065  0.0463 -0.5841  0.0887
 3282SOL    HW312895   0.133   0.796   2.948 -1.3028  0.0422 -1.1754
 3282SOL    MW412896   0.077   0.851   2.985 -0.6497  0.0105 -0.0835
 3283SOL     OW12897   5.856   4.440   0.839  0.4535  0.2466 -0.5601
 3283SOL    HW212898   5.823   4.361   0.795  1.4479  0.6140 -2.0526
 3283SOL    HW312899   5.951   4.426   0.845  0.3089 -0.0976  2.2281
 3283SOL    MW412900   5.864   4.427   0.834  0.5656  0.2497 -0.3891
 3284SOL     OW12901   0.488   4.013   0.606 -0.2483  0.1706 -0.5294
 3284SOL    HW212902   0.455   3.969   0.684  1.3559  0.4986  0.3891
 3284SOL    HW312903   0.505   4.103   0.634 -0.0594  0.4125 -1.3818
 3284SOL    MW412904   0.486   4.019   0.620 -0.0118  0.2458 -0.5207
 3285SOL     OW12905   6.112   1.304   1.480  0.0354 -0.3217  0.2002
 3285SOL    HW212906   6.061   1.240   1.530 -1.0172  1.0802  1.0123
 3285SOL    HW312907   6.051   1.339   1.416  0.3615  0.4102  0.2776
 3285SOL    MW412908   6.097   1.300   1.478 -0.0604 -0.0402  0.3175
 3286SOL     OW12909   3.123   5.957   1.820 -0.0722 -0.3611  0.5709
 3286SOL    HW212910   3.066   5.993   1.888 -0.5637  0.4982 -0.2626
 3286SOL    HW312911   3.066   5.900   1.768 -0.5796  1.5114 -1.0589
 3286SOL    MW412912   3.108   5.954   1.822 -0.2040 -0.0007  0.2459
 3287SOL     OW12913   4.708   3.237   4.533 -0.5126  0.2355 -0.3383
 3287SOL    HW212914   4.689   3.296   4.606 -0.6205  0.1895 -0.3286
 3287SOL    HW312915   4.778   3.180   4.564 -0.3013  0.4584 -0.4011
 3287SOL    MW412916   4.714   3.237   4.546 -0.4989  0.2588 -0.3453
 3288SOL     OW12917   5.415   1.435   4.600  0.1685 -0.4009  0.3241
 3288SOL    HW212918   5.332   1.478   4.620  0.4458  0.0031  0.6089
 3288SOL    HW312919   5.390   1.348   4.568 -0.4502  0.3027 -1.2067
 3288SOL    MW412920   5.401   1.429   4.598  0.1234 -0.2548  0.1597
 3289SOL     OW12921   4.449   1.421   3.938  0.3243 -0.0467 -1.0110
 3289SOL    HW212922   4.496   1.453   3.861 -0.1091 -1.8095 -2.0549
 3289SOL    HW312923   4.371   1.378   3.903  0.1283 -0.9277  0.4128
 3289SOL    MW412924   4.445   1.420   3.923  0.2413 -0.3955 -0.9609
 3290SOL     OW12925   3.093   2.935   4.017  0.1693  0.1211 -0.4201
 3290SOL    HW212926   3.073   2.983   4.097 -2.4634 -0.5436 -0.6060
 3290SOL    HW312927   3.171   2.883   4.039  1.9888  2.9415  0.3517
 3290SOL    MW412928   3.101   2.934   4.031  0.0620  0.4055 -0.3428
 3291SOL     OW12929   2.868   1.630   2.975  0.1837 -0.0302 -0.3728
 3291SOL    HW212930   2.934   1.698   2.961  2.4019 -1.4908  1.9816
 3291SOL    HW312931   2.787   1.678   2.991  1.5122  2.0735  0.4878
 3291SOL    MW412932   2.866   1.645   2.975  0.6517  0.0546  0.0514
 3292SOL     OW12933   0.742   4.062   2.740  0.2199 -0.8795 -0.4720
 3292SOL    HW212934   0.697   3.980   2.723  0.7340 -1.7857  2.1004
 3292SOL    HW312935   0.675   4.119   2.777  0.3754 -0.9830 -0.0230
 3292SOL    MW412936   0.727   4.059   2.743  0.3083 -1.0127 -0.0734
 3293SOL     OW12937   1.908   5.812   1.892  0.1924 -0.3050 -1.0313
 3293SOL    HW212938   1.972   5.825   1.963  1.3196 -0.7311 -1.9433
 3293SOL    HW312939   1.877   5.723   1.904 -1.4066  0.3906  0.3214
 3293SOL    MW412940   1.913   5.802   1.903  0.1301 -0.2695 -0.9731
 3294SOL     OW12941   3.275   2.713   4.067 -0.1961  0.0899 -0.0858
 3294SOL    HW212942   3.313   2.698   4.153 -0.5827 -1.3680 -0.1381
 3294SOL    HW312943   3.340   2.678   4.005 -0.5716 -0.2567 -0.2931
 3294SOL    MW412944   3.289   2.706   4.070 -0.2967 -0.1482 -0.1200
 3295SOL     OW12945   6.088   5.649   4.064  0.0756  0.1886 -0.1769
 3295SOL    HW212946   6.148   5.577   4.083 -0.4400 -0.2509 -0.2030
 3295SOL    HW312947   6.096   5.708   4.139 -0.2638 -0.4119  0.3425
 3295SOL    MW412948   6.097   5.647   4.076 -0.0372  0.0514 -0.1118
 3296SOL     OW12949   3.767   1.172   5.180  0.2368  0.1911 -0.1081
 3296SOL    HW212950   3.753   1.199   5.271 -1.5285 -0.4189 -0.1636
 3296SOL    HW312951   3.847   1.118   5.184 -0.5051 -0.9051  1.3393
 3296SOL    MW412952   3.776   1.168   5.193 -0.0940 -0.0340  0.0756
 3297SOL     OW12953   3.639   4.579   5.106 -0.2236 -0.0373  0.1543
 3297SOL    HW212954   3.617   4.672   5.102  0.2885  0.1608  1.4709
 3297SOL    HW312955   3.604   4.549   5.190  0.5497 -0.7758  0.2334
 3297SOL    MW412956   3.631   4.587   5.116 -0.0540 -0.1086  0.3385
 3298SOL     OW12957   4.503   5.499   5.478  0.5311 -0.1876 -0.0166
 3298SOL    HW212958   4.414   5.531   5.460  0.8429  0.6412 -0.1114
 3298SOL    HW312959   4.493   5.441   5.554 -0.2267 -0.8193 -0.5795
 3298SOL    MW412960   4.490   5.495   5.486  0.4723 -0.1616 -0.1033
 3299SOL     OW12961   0.229   2.189   5.077 -0.5580 -0.3723 -0.4941
 3299SOL    HW212962   0.240   2.270   5.127 -0.6408 -0.6361 -0.0445
 3299SOL    HW312963   0.203   2.124   5.142  0.8180 -1.0803 -0.6176
 3299SOL    MW412964   0.227   2.191   5.092 -0.3873 -0.5005 -0.4511
 3300SOL     OW12965   2.566   2.038   3.427 -0.2027  0.3729 -0.1217
 3300SOL    HW212966   2.543   2.093   3.352  1.8296 -0.8500 -1.7858
 3300SOL    HW312967   2.605   1.960   3.387  0.1780 -0.7126  2.2282
 3300SOL    MW412968   2.568   2.035   3.412  0.1157  0.0684 -0.0312
 3301SOL     OW12969   5.066   3.633   0.474  0.4269 -0.3052  0.0809
 3301SOL    HW212970   5.142   3.651   0.529 -0.0272  1.0919  0.3036
 3301SOL    HW312971   4.998   3.605   0.535  0.4576 -0.5394  0.0075
 3301SOL    MW412972   5.067   3.632   0.489  0.3710 -0.1518  0.1006
 3302SOL     OW12973   0.598   5.668   4.776 -0.0240  1.1330  0.5258
 3302SOL    HW212974   0.586   5.626   4.861 -1.7128  0.1692 -0.1317
 3302SOL    HW312975   0.688   5.701   4.778  1.0163 -1.4718  1.5564
 3302SOL    MW412976   0.608   5.667   4.787 -0.1096  0.6622  0.5750
 3303SOL     OW12977   5.183   2.289   3.727 -0.3116 -1.2668 -0.5999
 3303SOL    HW212978   5.263   2.261   3.772  0.5394  2.2510  0.3860
 3303SOL    HW312979   5.213   2.328   3.645 -1.3113 -2.1498 -1.4245
 3303SOL    MW412980   5.197   2.290   3.722 -0.3312 -0.9192 -0.5786
 3304SOL     OW12981   1.690   4.085   6.253  0.8583 -0.0162 -0.0275
 3304SOL    HW212982   1.714   4.007   6.203 -0.1300 -0.4410  0.1460
 3304SOL    HW312983   1.681   4.054   6.343 -3.8389 -0.7489 -0.5279
 3304SOL    MW412984   1.692   4.070   6.259  0.1081 -0.1689 -0.0707
 3305SOL     OW12985   6.191   2.590   3.873 -0.2811  0.0017 -0.1037
 3305SOL    HW212986   6.248   2.557   3.804 -0.3761  0.7959 -0.5667
 3305SOL    HW312987   6.202   2.527   3.945  0.4064 -0.4027 -0.5518
 3305SOL    MW412988   6.200   2.577   3.874 -0.2029  0.0531 -0.2239
 3306SOL     OW12989   5.751   3.801   5.122  0.5474 -0.3613  0.2976
 3306SOL    HW212990   5.657   3.786   5.132  0.5760 -1.6282 -0.8976
 3306SOL    HW312991   5.758   3.889   5.086 -0.0800  0.2413  1.5998
 3306SOL    MW412992   5.740   3.810   5.118  0.4684 -0.4489  0.3117
 3307SOL     OW12993   2.732   2.457   5.416 -0.1043 -0.0205 -0.3594
 3307SOL    HW212994   2.767   2.545   5.432  1.7763 -0.7334 -0.3856
 3307SOL    HW312995   2.753   2.408   5.496  0.2454 -0.8497 -0.9453
 3307SOL    MW412996   2.739   2.462   5.429  0.1900 -0.2240 -0.4402
 3308SOL     OW12997   4.622   1.306   3.567  0.0019  0.1525  0.2070
 3308SOL    HW212998   4.717   1.315   3.565  0.0334 -0.2384 -0.3070
 3308SOL    HW312999   4.594   1.332   3.479 -0.4442  1.0513  0.6011
 3308SOL    MW413000   4.631   1.311   3.555 -0.0528  0.2195  0.1911
 3309SOL     OW13001   5.136   3.482   3.344  0.1391 -0.3890 -0.4371
 3309SOL    HW213002   5.140   3.574   3.318 -0.4731 -0.3177 -0.3004
 3309SOL    HW313003   5.223   3.463   3.379  0.1043  0.2992  0.0488
 3309SOL    MW413004   5.148   3.491   3.345  0.0537 -0.2888 -0.3550
 3310SOL     OW13005   4.782   0.657   5.687 -0.3112  0.1740 -0.2913
 3310SOL    HW213006   4.823   0.571   5.695 -0.4325  0.2120  1.0657
 3310SOL    HW313007   4.701   0.641   5.639 -1.1219 -0.7789  1.3232
 3310SOL    MW413008   4.777   0.644   5.682 -0.4342  0.0533  0.1008
 3311SOL     OW13009   4.135   5.168   3.213  0.6462 -0.4197  0.2882
 3311SOL    HW213010   4.075   5.142   3.143  0.2121 -0.0437  0.5140
 3311SOL    HW313011   4.203   5.101   3.212 -1.0689 -2.3010  1.6457
 3311SOL    MW413012   4.136   5.156   3.204  0.3626 -0.6183  0.4971
 3312SOL     OW13013   6.378   0.098   3.675 -0.5050 -0.1762  0.5934
 3312SOL    HW213014   6.414   0.067   3.592  1.0833  1.6699  0.5132
 3312SOL    HW313015   6.290   0.129   3.654  0.2831  1.3439 -0.7121
 3312SOL    MW413016   6.371   0.098   3.662 -0.1915  0.2679  0.4106
 3313SOL     OW13017   4.438   1.871   5.753 -0.0242 -0.1359  0.1493
 3313SOL    HW213018   4.520   1.844   5.794 -0.1339 -2.8034 -1.1580
 3313SOL    HW313019   4.436   1.823   5.670 -2.9808 -0.3258  0.2405
 3313SOL    MW413020   4.449   1.861   5.748 -0.4288 -0.5129 -0.0111
 3314SOL     OW13021   4.228   2.867   1.264  0.0695 -0.6034  0.1739
 3314SOL    HW213022   4.245   2.881   1.171 -2.4684  0.5454 -0.2033
 3314SOL    HW313023   4.314   2.852   1.303  1.6567  2.6181 -1.7470
 3314SOL    MW413024   4.241   2.867   1.257 -0.0560 -0.0268 -0.1293
 3315SOL     OW13025   1.454   2.887   0.955 -0.0635  0.1988  0.1268
 3315SOL    HW213026   1.436   2.956   1.019 -0.9901 -2.3376  2.8499
 3315SOL    HW313027   1.377   2.830   0.958  1.7568 -2.4477  0.1602
 3315SOL    MW413028   1.442   2.888   0.964  0.0544 -0.4851  0.4905
 3316SOL     OW13029   4.852   1.059   2.464  0.0050 -0.4602  0.1875
 3316SOL    HW213030   4.943   1.089   2.473 -0.1060  0.3174 -1.0674
 3316SOL    HW313031   4.814   1.116   2.398 -1.7257 -0.1090  1.4026
 3316SOL    MW413032   4.859   1.070   2.457 -0.2380 -0.3113  0.1823
 3317SOL     OW13033   4.087   5.790   5.951  0.2214  0.6302  0.0216
 3317SOL    HW213034   4.051   5.743   5.876 -1.1342  3.1951 -1.0516
 3317SOL    HW313035   4.182   5.775   5.945 -0.0026 -0.4954 -1.2401
 3317SOL    MW413036   4.095   5.782   5.940  0.0130  0.8201 -0.2865
 3318SOL     OW13037   2.313   4.694   4.743  0.1979  0.2642  0.4912
 3318SOL    HW213038   2.296   4.770   4.799 -1.3849  0.1139  0.2729
 3318SOL    HW313039   2.375   4.726   4.677  0.1075  1.1588  0.8248
 3318SOL    MW413040   2.319   4.709   4.742 -0.0229  0.3624  0.5064
 3319SOL     OW13041   0.152   3.822   5.191  0.3491 -0.4302 -0.8590
 3319SOL    HW213042   0.176   3.913   5.174  0.2629 -0.5538 -1.6848
 3319SOL    HW313043   0.073   3.828   5.244  0.2941 -0.0171 -0.9853
 3319SOL    MW413044   0.144   3.835   5.196  0.3305 -0.3920 -0.9846
 3320SOL     OW13045   3.310   1.330   0.713  0.3752  0.4348 -0.5635
 3320SOL    HW213046   3.218   1.349   0.730 -0.2340 -0.8050 -2.1946
 3320SOL    HW313047   3.337   1.274   0.787 -1.0347 -1.5615 -1.4789
 3320SOL    MW413048   3.302   1.325   0.725  0.1088  0.0078 -0.8995
 3321SOL     OW13049   3.750   4.949   4.310 -0.1210  0.3772  0.0077
 3321SOL    HW213050   3.799   4.888   4.365  0.0317 -2.0344 -2.5784
 3321SOL    HW313051   3.665   4.906   4.296 -0.3749  1.1935 -1.1277
 3321SOL    MW413052   3.745   4.936   4.316 -0.1343  0.1667 -0.4833
 3322SOL     OW13053   2.307   6.156   5.195  0.1020 -0.1336  0.6627
 3322SOL    HW213054   2.391   6.200   5.203  0.9032 -1.3093 -0.7035
 3322SOL    HW313055   2.242   6.225   5.206  1.2824  1.1041  0.1077
 3322SOL    MW413056   2.310   6.171   5.197  0.3634 -0.1254  0.4092
 3323SOL     OW13057   1.239   0.276   4.262 -0.3151  0.1733  0.4820
 3323SOL    HW213058   1.266   0.364   4.289 -0.5652  0.1854  0.6993
 3323SOL    HW313059   1.143   0.279   4.262 -0.3229  0.3645 -1.0838
 3323SOL    MW413060   1.230   0.288   4.266 -0.3491  0.2001  0.3041
 3324SOL     OW13061   6.082   4.671   5.175  0.2756 -0.2820  0.4972
 3324SOL    HW213062   6.016   4.737   5.195 -0.0336 -1.1296  2.4985
 3324SOL    HW313063   6.040   4.587   5.198  0.7374 -1.1948 -1.7289
 3324SOL    MW413064   6.068   4.668   5.181  0.2957 -0.5142  0.4676
 3325SOL     OW13065   0.374   2.999   3.561  0.2266 -0.1126 -0.4031
 3325SOL    HW213066   0.357   2.952   3.479 -1.0660 -0.0413 -0.1992
 3325SOL    HW313067   0.469   3.002   3.567  0.3658  0.5983 -2.3034
 3325SOL    MW413068   0.384   2.993   3.551  0.0744 -0.0094 -0.6269
 3326SOL     OW13069   4.682   6.165   0.894  0.4337  0.8031  0.1635
 3326SOL    HW213070   4.756   6.167   0.954 -0.0435  2.4232  0.7544
 3326SOL    HW313071   4.650   6.075   0.897  2.6615 -0.0825 -0.5106
 3326SOL    MW413072   4.687   6.153   0.902  0.6647  0.9000  0.1525
 3327SOL     OW13073   4.886   5.401   2.583  0.4463 -0.1748 -0.4301
 3327SOL    HW213074   4.965   5.454   2.584 -0.3031  0.9790  0.1035
 3327SOL    HW313075   4.883   5.360   2.670 -0.2487  0.9084  0.0787
 3327SOL    MW413076   4.896   5.402   2.595  0.2557  0.1203 -0.2926
 3328SOL     OW13077   1.256   0.503   0.214  0.5400  0.5019  0.7277
 3328SOL    HW213078   1.279   0.596   0.215 -0.3505  0.7304  0.6241
 3328SOL    HW313079   1.183   0.496   0.276  0.7461 -0.1648  0.8974
 3328SOL    MW413080   1.249   0.515   0.222  0.4497  0.4441  0.7364
 3329SOL     OW13081   2.465   3.617   5.262  0.5941  0.1525  0.1110
 3329SOL    HW213082   2.529   3.574   5.318  0.7463 -0.4884 -0.5460
 3329SOL    HW313083   2.513   3.692   5.225  1.3285 -0.9324 -1.2225
 3329SOL    MW413084   2.480   3.621   5.264  0.7111 -0.0752 -0.1516
 3330SOL     OW13085   2.585   0.773   2.173 -0.3670  0.2665 -0.2711
 3330SOL    HW213086   2.560   0.727   2.253 -0.9372 -0.6884 -0.9852
 3330SOL    HW313087   2.637   0.848   2.204  1.2427 -1.2379  0.9111
 3330SOL    MW413088   2.589   0.777   2.187 -0.2299 -0.0580 -0.2093
 3331SOL     OW13089   2.899   4.631   2.721  0.7707  0.5038  0.1816
 3331SOL    HW213090   2.862   4.713   2.689 -2.6476 -1.1766 -0.6946
 3331SOL    HW313091   2.910   4.644   2.815 -2.2362  1.2699  0.5426
 3331SOL    MW413092   2.896   4.643   2.729 -0.0770  0.3832  0.1136
 3332SOL     OW13093   3.421   5.862   5.136 -0.0609 -0.1142  0.3032
 3332SOL    HW213094   3.413   5.821   5.222  2.0963 -0.2102  0.5023
 3332SOL    HW313095   3.503   5.828   5.100  0.3923  1.8743 -0.7033
 3332SOL    MW413096   3.430   5.852   5.142  0.2835  0.1355  0.1966
 3333SOL     OW13097   1.618   5.383   4.571 -0.2615 -0.4321  0.6865
 3333SOL    HW213098   1.690   5.443   4.549  0.3091 -0.8531  1.3907
 3333SOL    HW313099   1.643   5.300   4.530  0.1910 -0.8761  1.8405
 3333SOL    MW413100   1.631   5.380   4.563 -0.1265 -0.5462  0.9316
 3334SOL     OW13101   0.893   1.060   5.371 -0.1039 -0.1082 -0.0544
 3334SOL    HW213102   0.832   1.019   5.433  0.6751 -1.0957  0.0765
 3334SOL    HW313103   0.923   1.139   5.417 -0.3445 -0.2632  0.3774
 3334SOL    MW413104   0.889   1.065   5.386 -0.0329 -0.2590  0.0198
 3335SOL     OW13105   2.018   6.400   4.124 -0.4932 -0.8885 -0.6826
 3335SOL    HW213106   2.029   6.458   4.049  0.1282 -1.4480 -1.0414
 3335SOL    HW313107   2.107   6.386   4.158 -0.7407 -0.8389  0.0033
 3335SOL    MW413108   2.031   6.406   4.119 -0.4438 -0.9557 -0.6395
 3336SOL     OW13109   6.320   4.070   1.807 -0.4410  0.0395 -0.4902
 3336SOL    HW213110   6.309   4.051   1.714  1.5680  1.2456 -1.0343
 3336SOL    HW313111   6.241   4.118   1.831  0.1473  2.0797 -2.2918
 3336SOL    MW413112   6.308   4.074   1.798 -0.0983  0.4678 -0.7997
 3337SOL     OW13113   5.584   4.279   5.030 -0.4736  0.0911  0.8213
 3337SOL    HW213114   5.552   4.302   5.118  0.3611  1.8696  0.7011
 3337SOL    HW313115   5.521   4.318   4.971 -1.3348 -1.5645  0.5779
 3337SOL    MW413116   5.572   4.287   5.034 -0.4771  0.1073  0.7734
 3338SOL     OW13117   4.543   1.932   2.976  0.6306 -0.3187  0.6946
 3338SOL    HW213118   4.517   1.896   2.891  2.2102 -0.2527  0.1382
 3338SOL    HW313119   4.467   1.983   3.005  0.3756  0.4278 -1.1340
 3338SOL    MW413120   4.530   1.934   2.968  0.8054 -0.2115  0.3800
 3339SOL     OW13121   4.363   2.279   5.409 -0.5258  0.2554 -0.3840
 3339SOL    HW213122   4.314   2.261   5.489 -0.4013  0.2210 -0.3151
 3339SOL    HW313123   4.445   2.318   5.439 -0.5911  0.4907 -0.5088
 3339SOL    MW413124   4.367   2.281   5.423 -0.5180  0.2819 -0.3914
 3340SOL     OW13125   5.027   2.507   2.315 -0.3066  0.0129  0.0914
 3340SOL    HW213126   4.950   2.505   2.258 -0.0169  1.1741 -0.3647
 3340SOL    HW313127   5.011   2.437   2.379 -0.7127 -1.2368 -1.3028
 3340SOL    MW413128   5.015   2.497   2.316 -0.3219  0.0012 -0.1527
 3341SOL     OW13129   1.433   1.770   2.718  0.1827 -0.6513  0.1658
 3341SOL    HW213130   1.342   1.742   2.703 -0.4976  0.8990  1.1453
 3341SOL    HW313131   1.482   1.733   2.645 -0.9663 -2.7536  0.3985
 3341SOL    MW413132   1.427   1.762   2.706 -0.0587 -0.7241  0.3257
 3342SOL     OW13133   3.111   2.552   5.223 -0.1482 -0.3749 -0.0131
 3342SOL    HW213134   3.172   2.570   5.151 -0.4685 -1.7448 -0.6700
 3342SOL    HW313135   3.073   2.637   5.245  0.8797  0.2634 -0.6075
 3342SOL    MW413136   3.114   2.565   5.216 -0.0549 -0.4714 -0.1782
 3343SOL     OW13137   1.746   1.153   5.803  0.5497 -0.3493  0.2073
 3343SOL    HW213138   1.770   1.243   5.825 -0.5508 -0.3234  1.4074
 3343SOL    HW313139   1.778   1.101   5.876 -1.2891 -0.5385  0.9478
 3343SOL    MW413140   1.753   1.158   5.816  0.1619 -0.3708  0.4634
 3344SOL     OW13141   0.903   5.936   6.420  0.2112  0.2059  0.2901
 3344SOL    HW213142   0.866   5.914   6.505  0.1133  1.0596  0.4749
 3344SOL    HW313143   0.828   5.962   6.366  0.3676  0.5120  0.2153
 3344SOL    MW413144   0.888   5.937   6.424  0.2189  0.3589  0.3046
 3345SOL     OW13145   3.789   2.008   1.506 -0.4089 -0.5397 -0.1863
 3345SOL    HW213146   3.832   1.927   1.477 -1.7463 -1.0601 -0.8032
 3345SOL    HW313147   3.844   2.078   1.471  0.8547 -1.1624  0.4891
 3345SOL    MW413148   3.802   2.006   1.497 -0.4187 -0.6905 -0.1786
 3346SOL     OW13149   1.179   4.730   4.366 -0.2444 -0.1370  0.1386
 3346SOL    HW213150   1.110   4.679   4.409 -1.3719  1.4751  0.3582
 3346SOL    HW313151   1.141   4.818   4.356  1.4370  0.5546 -0.6254
 3346SOL    MW413152   1.165   4.735   4.371 -0.1713  0.1669  0.0668
 3347SOL     OW13153   3.126   3.968   0.905 -0.1646  0.1343  0.1573
 3347SOL    HW213154   3.074   3.986   0.983 -1.0876 -0.7223 -0.2338
 3347SOL    HW313155   3.188   4.041   0.900  0.8824 -0.5181  2.4646
 3347SOL    MW413156   3.127   3.980   0.914 -0.1483 -0.0648  0.4101
 3348SOL     OW13157   5.766   4.866   0.998  0.5275 -0.2231 -0.5086
 3348SOL    HW213158   5.718   4.788   0.971 -0.1726  0.6938 -2.0564
 3348SOL    HW313159   5.857   4.838   1.002  0.3512 -1.0205 -1.5598
 3348SOL    MW413160   5.772   4.852   0.995  0.4119 -0.2073 -0.8515
 3349SOL     OW13161   4.742   5.620   4.882  0.3288 -0.2074  0.0008
 3349SOL    HW213162   4.725   5.711   4.855  0.8286  0.3153  1.3415
 3349SOL    HW313163   4.658   5.576   4.873  0.0670  0.4012 -0.6273
 3349SOL    MW413164   4.729   5.626   4.877  0.3602 -0.0581  0.0948
 3350SOL     OW13165   5.402   4.010   0.856  0.2963  0.1031  0.6260
 3350SOL    HW213166   5.419   4.100   0.884  1.7425  0.2650 -0.6619
 3350SOL    HW313167   5.321   3.986   0.902 -1.1102  2.6342 -0.2975
 3350SOL    MW413168   5.393   4.019   0.866  0.3015  0.4584  0.3342
 3351SOL     OW13169   4.384   6.166   0.314  0.1812 -0.0729  0.7592
 3351SOL    HW213170   4.336   6.150   0.396 -2.2092 -0.8069 -0.6828
 3351SOL    HW313171   4.382   6.082   0.269  2.9845 -0.1489  0.6046
 3351SOL    MW413172   4.377   6.152   0.319  0.2357 -0.1798  0.5486
 3352SOL     OW13173   1.448   4.133   1.934 -0.3971  0.1954  0.1922
 3352SOL    HW213174   1.514   4.153   1.868 -0.0152 -0.2139  0.4451
 3352SOL    HW313175   1.372   4.104   1.883 -0.1352 -0.0370 -0.0706
 3352SOL    MW413176   1.446   4.132   1.918 -0.3122  0.1107  0.1909
 3353SOL     OW13177   2.775   2.381   2.228 -0.4852 -0.0930  0.9428
 3353SOL    HW213178   2.758   2.288   2.215  0.3393 -0.2617  1.0607
 3353SOL    HW313179   2.699   2.424   2.187  0.5192 -0.7199 -1.7957
 3353SOL    MW413180   2.762   2.374   2.221 -0.2439 -0.1979  0.5970
 3354SOL     OW13181   3.701   1.366   0.470 -1.2854 -0.1082 -0.0107
 3354SOL    HW213182   3.713   1.445   0.522  0.5365 -0.2077 -0.2244
 3354SOL    HW313183   3.788   1.346   0.437 -1.9317 -1.5614 -0.9042
 3354SOL    MW413184   3.714   1.374   0.473 -1.1303 -0.3130 -0.1568
 3355SOL     OW13185   4.383   5.751   5.973  0.1737  0.1811 -0.7011
 3355SOL    HW213186   4.426   5.672   5.941 -1.1731 -1.2659  0.8905
 3355SOL    HW313187   4.443   5.788   6.037  1.4179  1.2874 -2.4086
 3355SOL    MW413188   4.397   5.746   5.977  0.1601  0.1362 -0.7164
 3356SOL     OW13189   1.602   6.059   3.009 -0.0066 -0.0901  0.5278
 3356SOL    HW213190   1.623   6.020   2.924 -0.1264  0.4364  0.2507
 3356SOL    HW313191   1.589   5.984   3.067  1.3850 -0.4435  0.4111
 3356SOL    MW413192   1.603   6.044   3.005  0.1612 -0.0672  0.4758
 3357SOL     OW13193   0.785   3.391   4.250  0.3351 -0.3467  0.4203
 3357SOL    HW213194   0.810   3.343   4.329 -1.8588  0.7066  1.8528
 3357SOL    HW313195   0.853   3.457   4.240  1.1358 -1.0813  0.8585
 3357SOL    MW413196   0.797   3.393   4.259  0.1512 -0.3046  0.6672
 3358SOL     OW13197   6.158   5.492   0.902 -0.6398  0.5331  0.2695
 3358SOL    HW213198   6.175   5.583   0.929  0.9987  0.1659  0.5530
 3358SOL    HW313199   6.112   5.454   0.976  1.1575  0.3829  1.3754
 3358SOL    MW413200   6.154   5.499   0.915 -0.1865  0.4648  0.4528
 3359SOL     OW13201   5.551   5.405   5.900 -0.2831  0.3061  0.1436
 3359SOL    HW213202   5.580   5.364   5.818 -0.9833  0.4417 -0.1758
 3359SOL    HW313203   5.460   5.379   5.909 -0.2924  0.5369  0.7370
 3359SOL    MW413204   5.543   5.396   5.890 -0.3767  0.3545  0.1797
 3360SOL     OW13205   3.432   1.771   3.908 -0.2841  0.1132  0.0210
 3360SOL    HW213206   3.449   1.862   3.884  1.3111 -0.1779 -0.0349
 3360SOL    HW313207   3.513   1.741   3.949 -0.8651 -1.2145  0.2568
 3360SOL    MW413208   3.445   1.779   3.910 -0.1503 -0.1004  0.0447
 3361SOL     OW13209   3.290   0.938   0.856 -0.1308 -0.2896 -0.0181
 3361SOL    HW213210   3.373   0.981   0.836  0.0996 -0.9859 -0.5774
 3361SOL    HW313211   3.230   1.010   0.879 -0.1963  0.4862 -2.4188
 3361SOL    MW413212   3.293   0.954   0.857 -0.1091 -0.2791 -0.4086
 3362SOL     OW13213   4.079   1.124   4.899 -0.3952  0.2132 -0.0726
 3362SOL    HW213214   4.117   1.195   4.951  0.0055  0.7954 -1.1470
 3362SOL    HW313215   4.000   1.162   4.861 -0.0052  0.1880 -0.9178
 3362SOL    MW413216   4.073   1.138   4.901 -0.2908  0.2867 -0.3259
 3363SOL     OW13217   4.967   0.392   2.194  0.4062 -0.3311  0.8007
 3363SOL    HW213218   5.010   0.463   2.147  0.5099  1.4096  3.3308
 3363SOL    HW313219   4.924   0.434   2.268  0.5173 -2.9108  2.4672
 3363SOL    MW413220   4.967   0.407   2.198  0.4346 -0.4418  1.3544
 3364SOL     OW13221   0.423   1.961   5.837 -0.3286 -0.0053 -0.2534
 3364SOL    HW213222   0.394   1.975   5.927 -0.1449 -0.8365 -0.0578
 3364SOL    HW313223   0.419   1.866   5.824  1.1960 -0.0554 -0.5825
 3364SOL    MW413224   0.419   1.950   5.847 -0.1032 -0.1216 -0.2710
 3365SOL     OW13225   5.078   4.559   5.130 -0.2200  0.6909 -0.2512
 3365SOL    HW213226   5.025   4.480   5.116 -0.3798  0.0149  3.3801
 3365SOL    HW313227   5.164   4.527   5.156 -0.5425  1.6072  2.1866
 3365SOL    MW413228   5.082   4.545   5.131 -0.2836  0.7226  0.5496
 3366SOL     OW13229   2.329   6.108   3.807 -0.4470 -0.3599 -0.1763
 3366SOL    HW213230   2.384   6.096   3.885 -1.0017 -1.9466  0.0014
 3366SOL    HW313231   2.391   6.127   3.737  0.0962  0.5967  0.5411
 3366SOL    MW413232   2.345   6.109   3.808 -0.4485 -0.4430 -0.0582
 3367SOL     OW13233   1.065   6.062   5.752 -0.9363  0.2711  0.5075
 3367SOL    HW213234   1.159   6.048   5.754 -0.6394  1.9335  2.1063
 3367SOL    HW313235   1.039   6.046   5.662  0.8281 -0.4973  0.1043
 3367SOL    MW413236   1.074   6.058   5.741 -0.6643  0.3891  0.6653
 3368SOL     OW13237   4.820   6.104   5.461  0.1344  0.2905 -0.0556
 3368SOL    HW213238   4.835   6.018   5.423 -0.8347  0.7338 -1.5060
 3368SOL    HW313239   4.725   6.112   5.467  0.1577  1.6549 -0.9548
 3368SOL    MW413240   4.809   6.094   5.457  0.0096  0.5290 -0.3656
 3369SOL     OW13241   2.751   0.435   2.127  0.1662  0.2207 -0.2402
 3369SOL    HW213242   2.721   0.364   2.070  1.4986  0.4820 -1.3237
 3369SOL    HW313243   2.717   0.514   2.084 -0.2777  0.3226  0.2912
 3369SOL    MW413244   2.742   0.436   2.114  0.2834  0.2686 -0.3131
 3370SOL     OW13245   0.727   4.530   2.191 -0.2802 -0.3607 -0.0589
 3370SOL    HW213246   0.650   4.510   2.244  0.4406 -1.3086  0.6494
 3370SOL    HW313247   0.771   4.600   2.239 -0.8121  0.3554 -0.5923
 3370SOL    MW413248   0.722   4.537   2.204 -0.2553 -0.3913 -0.0358
 3371SOL     OW13249   4.316   0.318   5.316 -0.1311 -0.1737  0.1360
 3371SOL    HW213250   4.227   0.303   5.282 -1.0799  1.0650  1.8936
 3371SOL    HW313251   4.316   0.276   5.401  0.5475  0.8785  0.6762
 3371SOL    MW413252   4.304   0.311   5.323 -0.1668  0.1285  0.4391
 3372SOL     OW13253   3.775   3.326   4.637  0.4490  0.0682  0.1606
 3372SOL    HW213254   3.794   3.305   4.546 -0.4840  2.4071 -0.6305
 3372SOL    HW313255   3.779   3.241   4.682  0.5093 -1.2077 -2.0956
 3372SOL    MW413256   3.778   3.312   4.631  0.3339  0.2085 -0.2415
 3373SOL     OW13257   1.732   6.423   5.083 -0.1946  0.1517  0.2686
 3373SOL    HW213258   1.715   6.498   5.140 -0.3422  0.6394 -0.3944
 3373SOL    HW313259   1.683   6.443   5.003 -1.2809 -1.2562  0.5369
 3373SOL    MW413260   1.723   6.436   5.080 -0.3574  0.0303  0.2165
 3374SOL     OW13261   3.602   5.259   2.281 -0.0178  0.0593  0.5668
 3374SOL    HW213262   3.626   5.204   2.356 -0.0560  0.8902  1.1989
 3374SOL    HW313263   3.507   5.259   2.281 -0.0763 -1.7643 -0.8578
 3374SOL    MW413264   3.593   5.252   2.291 -0.0306 -0.0716  0.4623
 3375SOL     OW13265   5.388   5.523   2.042 -0.6418 -0.3351  0.4026
 3375SOL    HW213266   5.315   5.462   2.028  0.1000 -1.1881  0.1406
 3375SOL    HW313267   5.389   5.578   1.964 -2.6811  1.5426  1.5680
 3375SOL    MW413268   5.378   5.522   2.030 -0.8130 -0.1999  0.5218
 3376SOL     OW13269   0.362   2.284   5.417  0.7366 -0.7535 -0.2537
 3376SOL    HW213270   0.361   2.347   5.345 -0.2060  0.2050  0.5689
 3376SOL    HW313271   0.344   2.336   5.495 -1.5177 -2.2080  0.2860
 3376SOL    MW413272   0.359   2.299   5.418  0.3148 -0.8189 -0.0740
 3377SOL     OW13273   6.064   6.149   3.952 -0.0750 -0.0765 -0.1173
 3377SOL    HW213274   6.127   6.193   3.895  0.0273 -1.7129 -1.3125
 3377SOL    HW313275   6.087   6.056   3.946 -0.5443 -0.3756  2.0155
 3377SOL    MW413276   6.076   6.143   3.944 -0.1234 -0.3319  0.0064
 3378SOL     OW13277   5.903   2.006   6.216 -0.4901 -0.0142 -0.0162
 3378SOL    HW213278   5.915   2.042   6.128  1.3750 -0.9517 -0.2022
 3378SOL    HW313279   5.830   1.945   6.207 -0.0576 -0.4097 -1.0201
 3378SOL    MW413280   5.895   2.003   6.203 -0.1870 -0.1901 -0.1732
 3379SOL     OW13281   4.523   2.805   2.482 -0.1753  0.7512  0.3008
 3379SOL    HW213282   4.521   2.745   2.557  3.6992 -1.3927 -0.9887
 3379SOL    HW313283   4.473   2.761   2.414  1.3243 -0.3893 -0.1312
 3379SOL    MW413284   4.516   2.791   2.483  0.5337  0.3178  0.0737
 3380SOL     OW13285   0.828   3.702   5.832 -0.1887 -0.0397  0.1074
 3380SOL    HW213286   0.924   3.702   5.823 -0.0388  0.7734  1.4462
 3380SOL    HW313287   0.813   3.686   5.925 -1.3046  1.1209  0.1581
 3380SOL    MW413288   0.839   3.700   5.843 -0.3162  0.2207  0.2907
 3381SOL     OW13289   5.288   0.754   0.481  0.3273 -0.1034 -0.1116
 3381SOL    HW213290   5.283   0.680   0.542  1.2364  0.5758  0.8074
 3381SOL    HW313291   5.321   0.715   0.400 -0.3884 -0.9224 -0.0294
 3381SOL    MW413292   5.292   0.739   0.478  0.3528 -0.1218  0.0205
 3382SOL     OW13293   3.452   3.350   2.473 -0.2973  0.0168  0.3875
 3382SOL    HW213294   3.547   3.354   2.471 -0.3029 -0.0545 -0.1476
 3382SOL    HW313295   3.430   3.265   2.436 -0.5622 -0.1252  0.8574
 3382SOL    MW413296   3.461   3.340   2.468 -0.3330 -0.0113  0.3789
 3383SOL     OW13297   2.754   0.979   2.276 -0.1088  0.0179  0.6380
 3383SOL    HW213298   2.754   1.039   2.200 -2.0746 -3.0154 -2.0146
 3383SOL    HW313299   2.847   0.968   2.297  0.4275  2.1272 -0.2638
 3383SOL    MW413300   2.766   0.986   2.269 -0.2974 -0.1040  0.1691
 3384SOL     OW13301   3.309   2.675   4.592 -0.0013 -0.3636  0.5004
 3384SOL    HW213302   3.336   2.757   4.633 -0.7151  0.0021  0.2558
 3384SOL    HW313303   3.213   2.677   4.594 -0.0329 -1.5407  1.1707
 3384SOL    MW413304   3.300   2.686   4.598 -0.0996 -0.4706  0.5566
 3385SOL     OW13305   5.327   3.436   2.111  0.5848 -0.4888  0.1539
 3385SOL    HW213306   5.303   3.497   2.042 -0.8813 -1.5079 -0.3110
 3385SOL    HW313307   5.383   3.486   2.170 -1.0771  1.5062  0.1654
 3385SOL    MW413308   5.331   3.450   2.110  0.1721 -0.3600  0.0941
 3386SOL     OW13309   3.597   2.611   3.560  0.0981  0.6933  0.4346
 3386SOL    HW213310   3.656   2.675   3.600  0.3766 -0.0455  1.2306
 3386SOL    HW313311   3.571   2.651   3.477  1.8982  0.9444 -0.0466
 3386SOL    MW413312   3.602   2.625   3.555  0.3724  0.6289  0.4761
 3387SOL     OW13313   0.415   6.221   3.915  0.6152 -0.2494  0.2229
 3387SOL    HW213314   0.347   6.256   3.857 -0.2810 -3.6263 -1.0433
 3387SOL    HW313315   0.372   6.213   4.000  0.6546  1.0438  0.3804
 3387SOL    MW413316   0.400   6.224   3.919  0.5021 -0.5243  0.0767
 3388SOL     OW13317   5.647   2.409   6.041 -0.3550 -0.3376  0.5580
 3388SOL    HW213318   5.582   2.352   6.082  0.8935 -0.9726  1.7413
 3388SOL    HW313319   5.730   2.385   6.082  0.4528  1.3072  0.0067
 3388SOL    MW413320   5.650   2.398   6.052 -0.0837 -0.2043  0.6414
 3389SOL     OW13321   1.214   5.392   4.823 -0.1240  0.7274 -0.0885
 3389SOL    HW213322   1.307   5.414   4.825 -0.0285  0.2943  0.9489
 3389SOL    HW313323   1.211   5.301   4.795 -0.3458  1.1428 -1.5256
 3389SOL    MW413324   1.226   5.383   4.820 -0.1407  0.7250 -0.1412
 3390SOL     OW13325   3.087   5.411   4.766  1.0257  0.0073  0.0758
 3390SOL    HW213326   3.082   5.469   4.690  0.5967  1.3840  1.1022
 3390SOL    HW313327   2.997   5.381   4.779  1.0875 -0.1732  0.0923
 3390SOL    MW413328   3.074   5.415   4.758  0.9772  0.1651  0.2134
 3391SOL     OW13329   3.041   0.801   0.339 -0.3862 -0.0412  0.7812
 3391SOL    HW213330   3.102   0.739   0.299 -0.9375 -0.1371  0.0675
 3391SOL    HW313331   3.001   0.751   0.411 -0.8098 -0.5219  0.2262
 3391SOL    MW413332   3.044   0.786   0.343 -0.5148 -0.1172  0.6138
 3392SOL     OW13333   5.293   5.166   4.574  0.1908 -0.4598 -0.6487
 3392SOL    HW213334   5.385   5.155   4.598  0.2085 -0.1944 -0.5860
 3392SOL    HW313335   5.288   5.136   4.484  0.5065  0.2686 -0.9213
 3392SOL    MW413336   5.304   5.161   4.566  0.2348 -0.3287 -0.6764
 3393SOL     OW13337   1.801   5.671   2.234  0.1229 -0.0871  0.0803
 3393SOL    HW213338   1.883   5.635   2.200 -0.0444 -0.6063  0.2125
 3393SOL    HW313339   1.793   5.634   2.322 -0.7731 -0.9181 -0.3150
 3393SOL    MW413340   1.811   5.661   2.241 -0.0174 -0.2652  0.0456
 3394SOL     OW13341   0.996   5.162   2.991  0.3961  0.1964 -0.4504
 3394SOL    HW213342   1.046   5.149   2.911  1.4785 -2.4107  0.5251
 3394SOL    HW313343   0.905   5.152   2.965  0.5435  1.7867 -1.7101
 3394SOL    MW413344   0.991   5.159   2.977  0.5583  0.0623 -0.4879
 3395SOL     OW13345   3.074   5.870   1.370  0.4305 -0.3613 -0.0273
 3395SOL    HW213346   3.122   5.947   1.340  1.2712 -1.4742 -1.7775
 3395SOL    HW313347   3.116   5.797   1.324  0.1134 -1.9678  2.0710
 3395SOL    MW413348   3.086   5.870   1.360  0.4996 -0.7201  0.0186
 3396SOL     OW13349   1.075   2.096   1.622  0.6643 -0.3138  0.2230
 3396SOL    HW213350   0.984   2.124   1.633  0.6606 -0.2621  0.0506
 3396SOL    HW313351   1.127   2.163   1.666  0.5729 -0.7460  1.0107
 3396SOL    MW413352   1.070   2.108   1.629  0.6517 -0.3640  0.3042
 3397SOL     OW13353   1.899   4.843   3.630 -0.1603 -0.3663 -0.2090
 3397SOL    HW213354   1.897   4.852   3.535  1.8187  1.7062 -0.1561
 3397SOL    HW313355   1.818   4.885   3.660 -0.1376  0.2081 -0.9265
 3397SOL    MW413356   1.888   4.850   3.621  0.1038 -0.0171 -0.2967
 3398SOL     OW13357   2.931   0.984   3.464  0.0254 -0.0326 -0.1157
 3398SOL    HW213358   3.010   1.031   3.437 -0.1245 -0.6311 -1.6527
 3398SOL    HW313359   2.926   0.910   3.405 -1.4989 -0.2083  0.2061
 3398SOL    MW413360   2.941   0.981   3.453 -0.1955 -0.1347 -0.2760
 3399SOL     OW13361   3.071   3.452   5.524 -0.6628 -0.0359 -0.1540
 3399SOL    HW213362   3.099   3.362   5.541  3.1233  1.1545  0.7883
 3399SOL    HW313363   3.023   3.477   5.603  0.2131 -0.5526  0.5584
 3399SOL    MW413364   3.068   3.444   5.537 -0.0477  0.0530  0.0643
 3400SOL     OW13365   5.726   4.799   5.737 -0.2568 -0.1785  0.5840
 3400SOL    HW213366   5.724   4.757   5.823 -0.6354 -0.3185  0.5052
 3400SOL    HW313367   5.666   4.748   5.683 -2.5315  1.7591  1.0812
 3400SOL    MW413368   5.718   4.787   5.741 -0.6069  0.0586  0.6392
 3401SOL     OW13369   4.656   4.134   1.944 -0.2480 -0.3876  0.1632
 3401SOL    HW213370   4.594   4.206   1.941  0.3797  0.1753  0.3740
 3401SOL    HW313371   4.639   4.084   1.863  0.0411  0.6183 -0.5374
 3401SOL    MW413372   4.646   4.137   1.933 -0.1270 -0.1806  0.0986
 3402SOL     OW13373   4.877   2.749   5.331 -0.2743  0.3405  0.6792
 3402SOL    HW213374   4.898   2.777   5.243  0.3780  0.6684  0.9383
 3402SOL    HW313375   4.818   2.817   5.365 -1.4589 -0.3602  0.1093
 3402SOL    MW413376   4.872   2.761   5.324 -0.3445  0.2913  0.6382
 3403SOL     OW13377   3.898   0.165   3.754  0.0900  0.0563  0.0286
 3403SOL    HW213378   3.984   0.127   3.739  0.7216  1.4063  0.0503
 3403SOL    HW313379   3.876   0.208   3.671  0.0980  0.9275  0.4634
 3403SOL    MW413380   3.906   0.166   3.741  0.1744  0.3494  0.0888
 3404SOL     OW13381   4.020   0.734   4.563 -0.3293  0.0973  0.6848
 3404SOL    HW213382   3.935   0.714   4.602  0.1250 -0.5219  1.3750
 3404SOL    HW313383   4.055   0.648   4.539  0.4426  0.2842  1.1351
 3404SOL    MW413384   4.013   0.720   4.565 -0.1676  0.0403  0.8353
 3405SOL     OW13385   0.116   2.853   2.909  0.2304 -0.0146 -0.4091
 3405SOL    HW213386   0.086   2.910   2.838  1.5941 -0.4329 -1.3637
 3405SOL    HW313387   0.150   2.775   2.865 -0.9733 -1.2919  0.8363
 3405SOL    MW413388   0.117   2.850   2.894  0.2515 -0.2383 -0.3707
 3406SOL     OW13389   3.912   3.903   3.808 -0.1369 -0.1779  0.3635
 3406SOL    HW213390   3.944   3.897   3.898 -1.7362 -0.3821  0.9467
 3406SOL    HW313391   3.934   3.992   3.781  2.0836 -0.7110  0.2386
 3406SOL    MW413392   3.919   3.914   3.816 -0.0550 -0.2752  0.4240
 3407SOL     OW13393   4.464   0.634   3.786 -0.7111 -0.2221  0.4901
 3407SOL    HW213394   4.512   0.591   3.715  1.2219  0.5808  1.2519
 3407SOL    HW313395   4.392   0.680   3.742  0.6284  0.5316 -1.0167
 3407SOL    MW413396   4.460   0.634   3.771 -0.2794 -0.0167  0.3918
 3408SOL     OW13397   6.164   2.141   5.011 -0.4091 -0.3525  0.0605
 3408SOL    HW213398   6.127   2.210   4.957 -0.9838 -0.1551  0.6870
 3408SOL    HW313399   6.146   2.169   5.101  1.7124  0.0173  0.4325
 3408SOL    MW413400   6.157   2.154   5.016 -0.2050 -0.2776  0.1922
 3409SOL     OW13401   6.165   3.970   5.263  0.0567 -0.3124 -0.3425
 3409SOL    HW213402   6.087   3.984   5.318 -0.6657  1.8190 -1.7946
 3409SOL    HW313403   6.236   3.956   5.326 -0.8346  1.4422  1.1568
 3409SOL    MW413404   6.164   3.970   5.279 -0.1562  0.2003 -0.3362
 3410SOL     OW13405   1.943   5.622   3.676  0.1175  0.0025 -0.0455
 3410SOL    HW213406   1.852   5.653   3.667  0.0195 -0.1381  0.4272
 3410SOL    HW313407   1.991   5.670   3.609 -0.5899 -1.0757 -1.3810
 3410SOL    MW413408   1.937   5.632   3.666  0.0112 -0.1583 -0.1593
 3411SOL     OW13409   1.799   1.869   3.075 -0.2664 -0.3132 -0.0510
 3411SOL    HW213410   1.833   1.807   3.010 -1.0800 -0.7578 -0.0721
 3411SOL    HW313411   1.864   1.869   3.145  0.4490 -0.0996 -0.6957
 3411SOL    MW413412   1.812   1.861   3.076 -0.2793 -0.3437 -0.1389
 3412SOL     OW13413   4.808   2.869   4.372  0.3881 -0.0265  0.0973
 3412SOL    HW213414   4.780   2.795   4.426  0.6123 -1.0463 -1.1176
 3412SOL    HW313415   4.730   2.924   4.364 -0.3700 -1.1507 -0.5502
 3412SOL    MW413416   4.794   2.866   4.378  0.3177 -0.3094 -0.1484
 3413SOL     OW13417   2.053   1.055   4.056 -0.1583  0.3539 -0.4600
 3413SOL    HW213418   2.010   1.140   4.053 -0.6268  0.2335  1.5203
 3413SOL    HW313419   2.091   1.050   4.144 -0.7196 -1.7387 -0.2764
 3413SOL    MW413420   2.053   1.065   4.067 -0.2942  0.0619 -0.1745
 3414SOL     OW13421   0.072   6.386   2.485  0.1517  0.1046  0.1180
 3414SOL    HW213422   0.117   6.325   2.542  2.8961  2.4979  0.7130
 3414SOL    HW313423   0.069   6.468   2.534 -1.8128  0.9869 -1.3221
 3414SOL    MW413424   0.077   6.389   2.499  0.2546  0.5368  0.0065
 3415SOL     OW13425   5.597   1.554   5.173 -0.4678 -0.3087  0.1231
 3415SOL    HW213426   5.559   1.632   5.211 -2.7397 -0.6466 -1.2901
 3415SOL    HW313427   5.523   1.494   5.160 -0.1806 -0.0159 -5.1849
 3415SOL    MW413428   5.582   1.556   5.176 -0.7297 -0.3147 -0.7637
 3416SOL     OW13429   2.847   1.631   2.531  0.2441  0.2756  0.0837
 3416SOL    HW213430   2.756   1.636   2.560  0.2935  0.0133  0.2836
 3416SOL    HW313431   2.893   1.693   2.589  0.3383 -0.2313  0.5556
 3416SOL    MW413432   2.841   1.640   2.542  0.2631  0.1741  0.1723
 3417SOL     OW13433   0.628   6.303   5.733  0.2356 -0.0010 -0.1780
 3417SOL    HW213434   0.633   6.395   5.758 -1.3761  0.0782 -0.0079
 3417SOL    HW313435   0.693   6.259   5.789 -1.1495  0.6081  2.0619
 3417SOL    MW413436   0.637   6.309   5.744 -0.1598  0.0898  0.1400
 3418SOL     OW13437   5.723   5.263   4.180 -0.4615 -0.2697  0.1342
 3418SOL    HW213438   5.691   5.175   4.200  2.9313 -1.5555  0.6103
 3418SOL    HW313439   5.818   5.257   4.192 -0.0780  3.4892  0.1942
 3418SOL    MW413440   5.732   5.250   4.184  0.0367  0.0566  0.2049
 3419SOL     OW13441   3.562   3.578   4.383  0.5563  0.2308 -0.5351
 3419SOL    HW213442   3.566   3.573   4.478  0.7196 -0.7260 -0.5791
 3419SOL    HW313443   3.545   3.670   4.364 -3.8790 -0.1350  0.5380
 3419SOL    MW413444   3.560   3.589   4.393 -0.0073  0.0563 -0.3993
 3420SOL     OW13445   5.067   1.994   0.946 -0.3837 -0.0771  0.3047
 3420SOL    HW213446   5.040   1.903   0.945  1.3246 -0.6539  1.5329
 3420SOL    HW313447   5.064   2.021   0.854 -1.4879 -1.1615  0.0007
 3420SOL    MW413448   5.063   1.986   0.934 -0.3040 -0.2963  0.4266
 3421SOL     OW13449   0.021   6.233   3.062  0.7587  0.3206  0.1792
 3421SOL    HW213450   0.057   6.161   3.113  2.5194  1.7815  1.0903
 3421SOL    HW313451  -0.034   6.190   2.996 -0.4653 -1.6930  2.3656
 3421SOL    MW413452   0.018   6.218   3.060  0.8295  0.2476  0.5879
 3422SOL     OW13453   3.390   3.059   5.398  0.7461 -0.1194  0.0627
 3422SOL    HW213454   3.439   2.990   5.356 -0.0571 -0.3244 -0.5670
 3422SOL    HW313455   3.415   3.054   5.490 -0.4656 -2.3154  0.3478
 3422SOL    MW413456   3.399   3.049   5.405  0.4802 -0.4362  0.0173
 3423SOL     OW13457   5.234   0.172   0.890 -0.4639  0.5142 -0.3182
 3423SOL    HW213458   5.205   0.111   0.958 -0.2852  0.1632 -0.5567
 3423SOL    HW313459   5.170   0.161   0.820  0.3949 -0.4828 -0.9732
 3423SOL    MW413460   5.221   0.163   0.890 -0.3270  0.3363 -0.4361
 3424SOL     OW13461   0.853   4.585   5.492 -0.1660  0.1508 -0.5135
 3424SOL    HW213462   0.792   4.644   5.536  0.0852  0.3488 -0.4318
 3424SOL    HW313463   0.915   4.560   5.561  1.5245  2.1400 -1.2258
 3424SOL    MW413464   0.853   4.589   5.507  0.0902  0.4394 -0.5967
 3425SOL     OW13465   4.436   2.118   1.113 -0.2425 -0.3117  0.0721
 3425SOL    HW213466   4.503   2.155   1.056  0.7839 -0.9579  0.8186
 3425SOL    HW313467   4.418   2.031   1.076  0.1484 -0.5790  0.4934
 3425SOL    MW413468   4.442   2.111   1.100 -0.0555 -0.4322  0.2262
 3426SOL     OW13469   2.332   6.073   4.300 -0.2232 -0.5084  0.0798
 3426SOL    HW213470   2.275   6.035   4.366  0.9473 -0.7619  0.9652
 3426SOL    HW313471   2.416   6.030   4.312  0.0518 -0.4957 -1.5220
 3426SOL    MW413472   2.336   6.062   4.310 -0.0325 -0.5402 -0.0147
 3427SOL     OW13473   5.679   6.006   4.532 -0.0290  0.2140  0.3221
 3427SOL    HW213474   5.735   5.951   4.587 -0.5956 -1.3832 -0.6155
 3427SOL    HW313475   5.685   6.093   4.571  3.6115  0.3187 -0.0919
 3427SOL    MW413476   5.687   6.010   4.544  0.3765  0.0171  0.1438
 3428SOL     OW13477   4.497   5.738   3.582 -0.3033  0.3018 -0.1822
 3428SOL    HW213478   4.415   5.690   3.567  0.5640 -0.8276 -1.4774
 3428SOL    HW313479   4.495   5.809   3.519 -0.8015  0.9778  0.5785
 3428SOL    MW413480   4.486   5.741   3.572 -0.2546  0.2420 -0.2527
 3429SOL     OW13481   4.405   0.955   4.905 -0.6763  0.3067 -1.0312
 3429SOL    HW213482   4.407   1.030   4.846 -1.4508  0.1633 -1.2565
 3429SOL    HW313483   4.322   0.964   4.953 -0.2356  0.2156 -0.2393
 3429SOL    MW413484   4.394   0.966   4.904 -0.7204  0.2758 -0.9564
 3430SOL     OW13485   2.582   5.033   4.339 -0.1415  0.1240  0.0601
 3430SOL    HW213486   2.640   5.087   4.285  0.0023 -0.1651 -0.0784
 3430SOL    HW313487   2.575   4.950   4.291 -3.0129  1.1174 -1.4679
 3430SOL    MW413488   2.589   5.029   4.325 -0.5014  0.2169 -0.1598
 3431SOL     OW13489   5.594   4.778   1.806  0.0869  0.3411 -0.6020
 3431SOL    HW213490   5.548   4.695   1.822  1.8907 -0.7062 -0.5655
 3431SOL    HW313491   5.579   4.830   1.885 -2.3192  0.7161 -1.2201
 3431SOL    MW413492   5.586   4.774   1.818  0.0074  0.2524 -0.6787
 3432SOL     OW13493   4.642   1.372   0.645 -0.2856 -0.2978  0.7506
 3432SOL    HW213494   4.708   1.441   0.649  1.0239 -1.5787  2.1010
 3432SOL    HW313495   4.685   1.300   0.599 -0.8807 -1.0061  1.2781
 3432SOL    MW413496   4.656   1.372   0.639 -0.1913 -0.5603  0.9984
 3433SOL     OW13497   2.666   5.482   3.424 -0.1508 -0.7670  0.0689
 3433SOL    HW213498   2.717   5.448   3.497  1.0137  0.6897 -0.0253
 3433SOL    HW313499   2.631   5.404   3.381 -0.6659 -1.6609  2.0031
 3433SOL    MW413500   2.668   5.467   3.428 -0.0651 -0.6927  0.3116
 3434SOL     OW13501   2.964   1.896   3.322  0.4747 -0.0263  0.0779
 3434SOL    HW213502   3.022   1.954   3.372  0.4338  0.0506  0.0365
 3434SOL    HW313503   3.007   1.811   3.325  1.3618  0.3531 -1.2244
 3434SOL    MW413504   2.977   1.893   3.329  0.5864  0.0339 -0.0994
 3435SOL     OW13505   5.822   5.948   3.170 -0.0456 -0.1242  0.1340
 3435SOL    HW213506   5.907   5.904   3.178 -1.1394 -2.5027 -0.4035
 3435SOL    HW313507   5.841   6.030   3.124  2.1535  0.2139  1.4982
 3435SOL    MW413508   5.835   5.953   3.165  0.1003 -0.3934  0.2431
 3436SOL     OW13509   3.451   4.238   0.606 -0.2102  0.2933 -0.2732
 3436SOL    HW213510   3.452   4.253   0.512 -1.2942  1.5499 -0.1053
 3436SOL    HW313511   3.541   4.212   0.627  0.8966  3.0706 -1.1716
 3436SOL    MW413512   3.463   4.236   0.596 -0.2072  0.8256 -0.3696
 3437SOL     OW13513   5.274   1.145   0.389 -0.0154 -0.3270  0.9321
 3437SOL    HW213514   5.332   1.095   0.446 -0.6490  1.8251  3.6373
 3437SOL    HW313515   5.202   1.173   0.446 -2.3952 -0.6438 -1.6722
 3437SOL    MW413516   5.272   1.142   0.404 -0.4130 -0.0849  0.9454
 3438SOL     OW13517   4.144   4.398   5.236  0.2653  0.1480 -0.7606
 3438SOL    HW213518   4.076   4.363   5.293  1.4473 -0.8321  0.0896
 3438SOL    HW313519   4.103   4.400   5.149 -1.3381  1.0480 -0.0293
 3438SOL    MW413520   4.129   4.394   5.232  0.2097  0.1374 -0.5519
 3439SOL     OW13521   0.091   2.853   5.755  0.0061  0.2632 -0.1307
 3439SOL    HW213522   0.105   2.932   5.807  1.6882  0.2938 -0.6000
 3439SOL    HW313523   0.005   2.821   5.784 -0.2624  1.7057  0.7693
 3439SOL    MW413524   0.081   2.859   5.766  0.1926  0.4576 -0.0739
 3440SOL     OW13525   0.685   5.756   0.700 -0.3576 -0.0543  0.1584
 3440SOL    HW213526   0.720   5.764   0.611 -0.8047  2.0491  0.1182
 3440SOL    HW313527   0.594   5.731   0.688 -1.0722  2.4689 -0.1421
 3440SOL    MW413528   0.678   5.754   0.687 -0.5109  0.5561  0.1135
 3441SOL     OW13529   2.881   5.847   6.240 -0.1479  1.0170 -0.5401
 3441SOL    HW213530   2.871   5.896   6.321 -1.4469 -0.5448  0.3116
 3441SOL    HW313531   2.964   5.801   6.249  0.1076  1.4959 -0.4597
 3441SOL    MW413532   2.891   5.847   6.252 -0.2856  0.8741 -0.4171
 3442SOL     OW13533   1.584   3.484   0.108 -0.1559  0.0385 -0.1507
 3442SOL    HW213534   1.645   3.416   0.079 -1.3807 -1.3841  0.4656
 3442SOL    HW313535   1.573   3.468   0.202 -1.2612  0.4159 -0.1980
 3442SOL    MW413536   1.590   3.473   0.116 -0.4633 -0.0994 -0.0756
 3443SOL     OW13537   6.300   1.312   5.845 -0.2361 -0.1417 -0.0479
 3443SOL    HW213538   6.263   1.224   5.839 -0.6398 -0.0870  1.2730
 3443SOL    HW313539   6.336   1.317   5.933 -0.2792  1.0388 -0.0745
 3443SOL    MW413540   6.300   1.301   5.856 -0.2951  0.0213  0.1229
 3444SOL     OW13541   2.457   6.431   2.890  0.4308 -0.2743 -0.5159
 3444SOL    HW213542   2.417   6.514   2.918  0.2027 -0.8201  0.8611
 3444SOL    HW313543   2.550   6.452   2.878  0.3019  0.2765 -0.5783
 3444SOL    MW413544   2.464   6.445   2.893  0.3837 -0.2736 -0.3424
 3445SOL     OW13545   5.275   0.525   4.664  1.0610 -0.4241 -0.0996
 3445SOL    HW213546   5.369   0.508   4.664  1.1730 -0.0594  1.9640
 3445SOL    HW313547   5.257   0.561   4.751 -0.6938  1.2136 -1.0573
 3445SOL    MW413548   5.285   0.528   4.676  0.8442 -0.1599  0.0463
 3446SOL     OW13549   2.575   2.637   5.258  0.0623  0.2848  0.1626
 3446SOL    HW213550   2.646   2.686   5.217  0.3146 -0.6142 -0.5082
 3446SOL    HW313551   2.617   2.557   5.291 -0.2570  0.7090  1.6427
 3446SOL    MW413552   2.590   2.633   5.257  0.0535  0.2222  0.2693
 3447SOL     OW13553   3.785   2.259   2.800  0.0898 -0.0572  0.5491
 3447SOL    HW213554   3.733   2.203   2.742 -0.5503  1.4012 -0.3254
 3447SOL    HW313555   3.728   2.276   2.875 -0.4198  0.8707 -0.0291
 3447SOL    MW413556   3.770   2.254   2.802 -0.0619  0.2577  0.3574
 3448SOL     OW13557   0.629   3.207   4.086  0.5352 -0.0656  0.0464
 3448SOL    HW213558   0.585   3.151   4.150  1.0525 -0.3595  0.1523
 3448SOL    HW313559   0.677   3.271   4.139  0.7627 -0.1542 -0.0527
 3448SOL    MW413560   0.630   3.208   4.101  0.6335 -0.1161  0.0473
 3449SOL     OW13561   3.507   2.059   3.155  0.0926  0.3166 -0.5978
 3449SOL    HW213562   3.564   2.132   3.178  1.4226 -1.5374  2.5254
 3449SOL    HW313563   3.566   1.992   3.120 -0.8010 -0.1334 -1.2949
 3449SOL    MW413564   3.522   2.059   3.153  0.1502  0.0126 -0.2777
 3450SOL     OW13565   4.221   5.702   2.880  0.3461  0.4267 -0.2935
 3450SOL    HW213566   4.275   5.731   2.806  1.0613  0.1518  0.1183
 3450SOL    HW313567   4.146   5.762   2.879 -0.5596 -0.6305 -2.3114
 3450SOL    MW413568   4.218   5.714   2.870  0.3209  0.2510 -0.5054
 3451SOL     OW13569   0.489   5.147   2.777  0.0510 -0.3481 -0.1910
 3451SOL    HW213570   0.540   5.076   2.739  1.9252  0.5465  0.4633
 3451SOL    HW313571   0.438   5.182   2.705  3.1122  0.9917 -1.9219
 3451SOL    MW413572   0.489   5.142   2.763  0.7022 -0.0533 -0.3330
 3452SOL     OW13573   1.603   1.455   6.164  0.3275  0.0086 -0.2465
 3452SOL    HW213574   1.618   1.502   6.245 -0.9220  0.2034 -0.1163
 3452SOL    HW313575   1.662   1.496   6.101 -1.7793  2.8842 -0.5558
 3452SOL    MW413576   1.613   1.466   6.166 -0.1153  0.4137 -0.2701
 3453SOL     OW13577   2.291   5.256   0.225 -0.4404  0.1355 -0.4616
 3453SOL    HW213578   2.327   5.333   0.180 -2.0696 -0.2817 -2.6309
 3453SOL    HW313579   2.327   5.182   0.178  0.1351 -0.4435  0.8384
 3453SOL    MW413580   2.300   5.257   0.213 -0.5794  0.0041 -0.5763
 3454SOL     OW13581   5.823   5.271   2.860  0.3561 -0.6011 -0.1976
 3454SOL    HW213582   5.740   5.264   2.907  1.5337 -1.7594  1.8553
 3454SOL    HW313583   5.878   5.203   2.898  2.1461 -0.1133 -1.7570
 3454SOL    MW413584   5.820   5.261   2.871  0.7476 -0.6895 -0.1325
 3455SOL     OW13585   4.617   3.465   0.885 -0.1710 -0.5031 -0.1701
 3455SOL    HW213586   4.591   3.447   0.795 -1.8418 -0.3300  0.2490
 3455SOL    HW313587   4.535   3.482   0.931  0.8008  1.6995  0.8920
 3455SOL    MW413588   4.603   3.465   0.879 -0.2633 -0.1897  0.0254
 3456SOL     OW13589   1.751   2.948   1.188 -0.0695  0.0991 -0.4657
 3456SOL    HW213590   1.808   2.983   1.119  0.3082 -1.4170 -0.9638
 3456SOL    HW313591   1.692   2.889   1.143  0.2742 -1.0327  0.5031
 3456SOL    MW413592   1.751   2.945   1.173  0.0257 -0.2503 -0.4036
 3457SOL     OW13593   0.295   2.914   3.316 -0.4077  0.6151  0.6285
 3457SOL    HW213594   0.315   2.828   3.281 -1.2713  0.4012  0.6251
 3457SOL    HW313595   0.315   2.975   3.244 -2.4736  0.1556 -0.4106
 3457SOL    MW413596   0.300   2.911   3.302 -0.7942  0.5263  0.4909
 3458SOL     OW13597   0.141   2.817   0.646  0.1131 -0.0002 -0.2575
 3458SOL    HW213598   0.085   2.744   0.671 -0.7082  0.0771 -1.7544
 3458SOL    HW313599   0.152   2.868   0.727  0.2958 -1.4795  0.6942
 3458SOL    MW413600   0.135   2.814   0.660  0.0288 -0.1852 -0.3294
 3459SOL     OW13601   2.065   5.752   3.490 -0.5481 -0.1915  0.1527
 3459SOL    HW213602   2.056   5.767   3.396 -0.8021 -2.5314 -0.2478
 3459SOL    HW313603   2.149   5.794   3.512 -1.4495  2.2262 -0.6123
 3459SOL    MW413604   2.075   5.760   3.481 -0.7005 -0.1813 -0.0010
 3460SOL     OW13605   2.485   4.416   4.635 -0.7514  0.4407 -0.1377
 3460SOL    HW213606   2.408   4.386   4.683 -0.5537 -0.8159 -0.5724
 3460SOL    HW313607   2.471   4.385   4.545  0.8647 -0.9802  0.0581
 3460SOL    MW413608   2.473   4.408   4.629 -0.5121  0.0874 -0.1692
 3461SOL     OW13609   5.294   4.577   3.740 -0.0851  0.0505  0.1674
 3461SOL    HW213610   5.244   4.611   3.666 -0.3744 -1.9318 -0.6069
 3461SOL    HW313611   5.228   4.540   3.799  0.1818  1.1583  1.2026
 3461SOL    MW413612   5.278   4.576   3.738 -0.0881 -0.0649  0.2018
 3462SOL     OW13613   5.847   5.193   1.003 -0.5777 -0.4941  0.4449
 3462SOL    HW213614   5.880   5.270   1.050  2.9762 -0.9976 -0.9502
 3462SOL    HW313615   5.785   5.229   0.940  0.2921  1.1399  0.4690
 3462SOL    MW413616   5.843   5.208   1.001  0.0059 -0.3449  0.2640
 3463SOL     OW13617   2.933   1.224   1.801  0.0733  0.3646  0.2183
 3463SOL    HW213618   2.908   1.131   1.798 -0.0422  0.4153 -0.4986
 3463SOL    HW313619   3.024   1.223   1.830  0.6321 -0.0909 -1.4094
 3463SOL    MW413620   2.941   1.212   1.804  0.1318  0.3112 -0.0911
 3464SOL     OW13621   2.919   6.091   2.712 -0.4529 -0.5303 -0.3113
 3464SOL    HW213622   2.893   6.176   2.676 -0.2305 -0.0742  0.5809
 3464SOL    HW313623   2.972   6.112   2.789 -0.9840 -1.4765  0.3372
 3464SOL    MW413624   2.922   6.105   2.718 -0.4936 -0.5950 -0.1080
 3465SOL     OW13625   6.416   4.469   0.937  0.0471 -0.2465 -0.0203
 3465SOL    HW213626   6.396   4.550   0.890 -1.0957 -0.5524 -0.1064
 3465SOL    HW313627   6.508   4.452   0.919  0.3237  1.0736  0.0624
 3465SOL    MW413628   6.425   4.477   0.929 -0.0672 -0.1127 -0.0207
 3466SOL     OW13629   3.423   5.418   2.962  0.0943 -0.0582 -0.3069
 3466SOL    HW213630   3.408   5.378   2.876 -1.4954  1.0276 -0.5612
 3466SOL    HW313631   3.352   5.481   2.972  0.9173  0.6559  1.3212
 3466SOL    MW413632   3.412   5.421   2.952 -0.0068  0.1793 -0.1257
 3467SOL     OW13633   1.629   3.207   4.040  0.6016 -0.4912  0.0562
 3467SOL    HW213634   1.708   3.207   4.095  0.3339 -1.1266  0.4524
 3467SOL    HW313635   1.602   3.115   4.037  0.2878 -0.3820 -0.6796
 3467SOL    MW413636   1.636   3.195   4.047  0.5249 -0.5606  0.0114
 3468SOL     OW13637   5.891   1.785   4.612 -0.5209  0.0976  0.4292
 3468SOL    HW213638   5.857   1.852   4.671  1.9496  1.1484  0.8188
 3468SOL    HW313639   5.830   1.712   4.620 -1.0967  0.7456  3.1861
 3468SOL    MW413640   5.879   1.785   4.621 -0.2709  0.3217  0.8444
 3469SOL     OW13641   3.001   2.609   0.690 -0.4082  0.3436 -0.0406
 3469SOL    HW213642   3.054   2.627   0.768 -2.4109 -2.3658  2.1661
 3469SOL    HW313643   2.956   2.691   0.671  0.1196  1.0735  1.7051
 3469SOL    MW413644   3.002   2.622   0.698 -0.6028  0.0824  0.4809
 3470SOL     OW13645   2.830   2.745   0.331 -0.0992  0.3622 -0.2120
 3470SOL    HW213646   2.884   2.667   0.337  1.5157  1.2799 -1.8644
 3470SOL    HW313647   2.875   2.810   0.384 -2.0849 -0.0585  2.1941
 3470SOL    MW413648   2.843   2.743   0.339 -0.1481  0.4278 -0.1125
 3471SOL     OW13649   0.988   5.517   3.444 -0.5861 -0.3591  0.1452
 3471SOL    HW213650   1.064   5.472   3.408 -0.1719 -0.5656  1.2469
 3471SOL    HW313651   0.927   5.448   3.467 -0.8308 -0.2275 -0.0921
 3471SOL    MW413652   0.990   5.502   3.442 -0.5637 -0.3690  0.2592
 3472SOL     OW13653   3.743   0.386   2.683  0.0490  0.1829  0.1044
 3472SOL    HW213654   3.742   0.417   2.593  0.9014 -0.1623 -0.0412
 3472SOL    HW313655   3.832   0.352   2.695 -0.0649  0.2009  1.0648
 3472SOL    MW413656   3.755   0.385   2.673  0.1465  0.1398  0.2119
 3473SOL     OW13657   1.501   5.060   2.474 -0.4080 -0.1472  0.4382
 3473SOL    HW213658   1.475   5.123   2.541 -0.8820  1.3972 -1.1382
 3473SOL    HW313659   1.419   5.035   2.431  0.1625  1.4562 -1.7331
 3473SOL    MW413660   1.487   5.065   2.477 -0.3953  0.2681 -0.0563
 3474SOL     OW13661   1.870   4.960   2.114  0.5121 -0.0389 -0.0554
 3474SOL    HW213662   1.937   5.010   2.160  0.3736  0.1555 -0.0643
 3474SOL    HW313663   1.787   4.997   2.144  0.4217  0.2655 -0.6501
 3474SOL    MW413664   1.868   4.972   2.124  0.4819  0.0269 -0.1350
 3475SOL     OW13665   1.102   0.188   6.358 -0.6673  0.8217  0.2280
 3475SOL    HW213666   1.115   0.282   6.344 -0.6402  0.5881 -1.5201
 3475SOL    HW313667   1.022   0.167   6.310  0.5878 -0.4597 -1.4455
 3475SOL    MW413668   1.093   0.197   6.350 -0.4982  0.6218 -0.2235
 3476SOL     OW13669   6.223   4.950   6.314 -0.1573  0.5077 -0.3401
 3476SOL    HW213670   6.298   4.891   6.303 -0.8634 -0.4398 -0.2403
 3476SOL    HW313671   6.150   4.902   6.275 -0.4747  1.9688 -1.6406
 3476SOL    MW413672   6.223   4.936   6.307 -0.2923  0.5755 -0.4985
 3477SOL     OW13673   4.487   1.891   3.961 -0.1472 -0.4239 -0.0810
 3477SOL    HW213674   4.429   1.816   3.943 -0.4081 -0.4094  0.6601
 3477SOL    HW313675   4.568   1.851   3.993  0.2731 -0.4436 -1.1072
 3477SOL    MW413676   4.490   1.876   3.962 -0.1262 -0.4246 -0.1186
 3478SOL     OW13677   5.205   3.591   2.411 -0.7055  0.0753  0.4417
 3478SOL    HW213678   5.164   3.556   2.490  2.1809 -0.4444  1.8690
 3478SOL    HW313679   5.257   3.666   2.442  2.1693 -1.3966 -0.4543
 3478SOL    MW413680   5.207   3.596   2.426  0.0546 -0.1874  0.5118
 3479SOL     OW13681   1.336   4.697   4.778 -0.6282  0.5295  0.4368
 3479SOL    HW213682   1.354   4.781   4.821  0.5521  0.2164  0.6061
 3479SOL    HW313683   1.356   4.713   4.686  1.4135 -0.0178  0.7340
 3479SOL    MW413684   1.341   4.710   4.772 -0.2031  0.4160  0.4984
 3480SOL     OW13685   5.938   0.976   5.900 -0.1580 -0.0789 -0.4409
 3480SOL    HW213686   5.989   1.041   5.949  0.8856 -1.5698  0.5216
 3480SOL    HW313687   5.847   1.005   5.909  0.2663  1.1675  0.0639
 3480SOL    MW413688   5.932   0.989   5.908  0.0356 -0.1112 -0.2473
 3481SOL     OW13689   1.644   2.562   3.216 -0.3127 -0.0992 -0.0493
 3481SOL    HW213690   1.673   2.500   3.149 -2.4499 -3.3825  1.8266
 3481SOL    HW313691   1.680   2.528   3.298  0.6497  2.7447  0.8402
 3481SOL    MW413692   1.652   2.549   3.218 -0.4677 -0.1571  0.3155
 3482SOL     OW13693   4.108   4.309   5.932  0.1794 -0.2307 -0.7128
 3482SOL    HW213694   4.187   4.351   5.898  0.3225 -1.0851 -1.4900
 3482SOL    HW313695   4.134   4.219   5.949 -0.3013 -0.2010  0.2519
 3482SOL    MW413696   4.122   4.303   5.930  0.1349 -0.3395 -0.6881
 3483SOL     OW13697   4.572   2.145   1.671 -0.1932 -0.4420 -0.5983
 3483SOL    HW213698   4.658   2.138   1.712 -1.0925 -0.8271  1.3450
 3483SOL    HW313699   4.568   2.235   1.639  1.8740 -1.1232 -3.0790
 3483SOL    MW413700   4.583   2.156   1.672 -0.0391 -0.5827 -0.6692
 3484SOL     OW13701   6.264   3.321   1.910  0.1489  0.0352  0.1576
 3484SOL    HW213702   6.249   3.244   1.855  2.0450  0.4199 -0.9845
 3484SOL    HW313703   6.352   3.309   1.945 -0.2466  0.8054  1.4882
 3484SOL    MW413704   6.274   3.310   1.908  0.3469  0.1876  0.1825
 3485SOL     OW13705   4.909   4.042   0.534 -0.1312  0.5540 -0.2366
 3485SOL    HW213706   4.880   4.129   0.562 -0.8710  0.4020 -0.5024
 3485SOL    HW313707   4.903   3.988   0.613  2.2971  1.1931  0.4485
 3485SOL    MW413708   4.904   4.046   0.548  0.0916  0.6183 -0.1813
 3486SOL     OW13709   3.234   4.425   3.709  0.0892  0.1616  0.2060
 3486SOL    HW213710   3.149   4.410   3.749 -0.5084  0.7466 -0.8017
 3486SOL    HW313711   3.290   4.454   3.781 -0.4348 -0.6632  0.9556
 3486SOL    MW413712   3.230   4.427   3.724 -0.0588  0.1300  0.1719
 3487SOL     OW13713   3.249   2.683   1.724 -0.1829  0.4701 -0.1731
 3487SOL    HW213714   3.337   2.667   1.690 -0.3891 -0.9098 -0.1289
 3487SOL    HW313715   3.193   2.621   1.676 -0.8009 -0.0811  1.2022
 3487SOL    MW413716   3.253   2.673   1.713 -0.2916  0.2153  0.0142
 3488SOL     OW13717   3.450   2.068   3.859  0.1726  0.2217 -0.5898
 3488SOL    HW213718   3.539   2.094   3.881  0.1547  0.8047 -1.1539
 3488SOL    HW313719   3.413   2.146   3.816 -1.0333  0.4511  0.7964
 3488SOL    MW413720   3.457   2.082   3.856  0.0111  0.3289 -0.4813
 3489SOL     OW13721   2.438   0.276   0.165  0.8788  0.1061  0.2204
 3489SOL    HW213722   2.476   0.267   0.252 -0.5052 -2.5679  0.6499
 3489SOL    HW313723   2.507   0.249   0.105  1.5705  1.1784  0.5013
 3489SOL    MW413724   2.452   0.271   0.169  0.7875 -0.1053  0.3141
 3490SOL     OW13725   2.444   1.486   5.461  0.3396 -0.4929 -0.7156
 3490SOL    HW213726   2.433   1.569   5.416 -1.4427 -0.9335 -1.1595
 3490SOL    HW313727   2.490   1.508   5.542 -1.7308  1.2290  0.0735
 3490SOL    MW413728   2.449   1.500   5.466 -0.1688 -0.3238 -0.6700
 3491SOL     OW13729   2.937   4.216   2.646 -0.4649  0.1741  0.4438
 3491SOL    HW213730   2.908   4.130   2.615  1.0877  0.6337 -2.6756
 3491SOL    HW313731   2.940   4.207   2.741 -0.8242 -3.0439  0.2761
 3491SOL    MW413732   2.933   4.203   2.654 -0.3075 -0.1898  0.0101
 3492SOL     OW13733   5.333   3.765   4.183 -0.1442 -0.0602 -0.9349
 3492SOL    HW213734   5.302   3.707   4.252  1.2920  0.4161  0.1509
 3492SOL    HW313735   5.357   3.846   4.228  0.6605  0.3209 -2.0078
 3492SOL    MW413736   5.332   3.768   4.198  0.1515  0.0529 -0.9332
 3493SOL     OW13737   4.482   6.334   0.565  0.3854 -0.1762 -0.8971
 3493SOL    HW213738   4.544   6.273   0.604 -0.3080 -0.7340 -0.6413
 3493SOL    HW313739   4.478   6.407   0.627 -1.2733 -1.3897  0.5401
 3493SOL    MW413740   4.489   6.336   0.579  0.0751 -0.4099 -0.6737
 3494SOL     OW13741   3.446   2.919   6.097 -0.4109  0.5710  0.1614
 3494SOL    HW213742   3.374   2.983   6.094 -1.8882 -1.0136  0.1115
 3494SOL    HW313743   3.429   2.860   6.024  1.2409  0.4232 -0.1350
 3494SOL    MW413744   3.434   2.920   6.087 -0.3879  0.3425  0.1157
 3495SOL     OW13745   1.759   4.899   4.423 -0.7591 -0.2572  0.2309
 3495SOL    HW213746   1.763   4.858   4.509 -0.8415  0.2764  0.4938
 3495SOL    HW313747   1.848   4.927   4.406 -1.2243  2.2962  1.4779
 3495SOL    MW413748   1.771   4.897   4.432 -0.8314  0.1501  0.4301
 3496SOL     OW13749   2.906   4.692   1.577 -0.6035  0.3146  0.0569
 3496SOL    HW213750   2.902   4.598   1.591  0.3427  0.2833  0.1373
 3496SOL    HW313751   2.863   4.706   1.492 -0.8035 -0.1735  0.0776
 3496SOL    MW413752   2.900   4.682   1.567 -0.5051  0.2460  0.0703
 3497SOL     OW13753   1.975   0.812   5.513  0.0498 -0.2840 -0.2072
 3497SOL    HW213754   2.057   0.851   5.483  0.1580 -0.2696  0.1005
 3497SOL    HW313755   1.919   0.886   5.534  0.0574 -0.2922 -0.1565
 3497SOL    MW413756   1.978   0.827   5.512  0.0651 -0.2832 -0.1599
 3498SOL     OW13757   2.955   6.404   5.795 -0.8546 -0.1389  0.3079
 3498SOL    HW213758   2.936   6.352   5.873  0.0706 -1.7305 -0.4862
 3498SOL    HW313759   2.875   6.397   5.742 -1.6726  1.3410  1.2579
 3498SOL    MW413760   2.942   6.396   5.798 -0.8405 -0.1536  0.3284
 3499SOL     OW13761   5.190   5.935   3.211 -0.1496  0.3973  0.7715
 3499SOL    HW213762   5.124   5.918   3.278  0.7839 -0.9727  1.3844
 3499SOL    HW313763   5.253   5.994   3.253  0.1203  0.0166  0.9058
 3499SOL    MW413764   5.190   5.940   3.225  0.0091  0.1663  0.8701
 3500SOL     OW13765   1.110   0.688   4.850 -0.2249  0.4005 -0.4019
 3500SOL    HW213766   1.190   0.692   4.797  1.4191  1.6739  1.9912
 3500SOL    HW313767   1.117   0.605   4.898 -0.7477  0.1756 -0.6955
 3500SOL    MW413768   1.121   0.677   4.849 -0.0770  0.5389 -0.1249
 3501SOL     OW13769   5.884   4.941   4.395 -0.1598  0.0933 -0.3481
 3501SOL    HW213770   5.945   4.915   4.327  0.1444  0.2504 -0.1420
 3501SOL    HW313771   5.872   4.862   4.448  0.3633  0.2248 -0.0205
 3501SOL    MW413772   5.891   4.927   4.393 -0.0506  0.1314 -0.2777
 3502SOL     OW13773   1.488   0.796   6.127 -0.4371  0.7192 -0.1113
 3502SOL    HW213774   1.548   0.784   6.200  0.2734  0.6394 -0.6909
 3502SOL    HW313775   1.519   0.735   6.060 -0.2662  1.6943 -0.9579
 3502SOL    MW413776   1.500   0.786   6.128 -0.3208  0.8373 -0.2995
 3503SOL     OW13777   0.622   1.615   0.742  0.5955  0.0179 -0.0572
 3503SOL    HW213778   0.647   1.655   0.825 -2.3032  1.5793  0.2056
 3503SOL    HW313779   0.609   1.689   0.683 -0.3966 -0.8404 -0.9616
 3503SOL    MW413780   0.623   1.630   0.745  0.0821  0.1106 -0.1418
 3504SOL     OW13781   1.455   0.322   6.229  0.3180  0.5697  0.0235
 3504SOL    HW213782   1.478   0.384   6.297  0.5247  0.4136  0.0975
 3504SOL    HW313783   1.432   0.241   6.276  2.1611 -0.0998 -0.1334
 3504SOL    MW413784   1.455   0.319   6.244  0.5884  0.4607  0.0126
 3505SOL     OW13785   0.629   4.926   2.702 -0.1769  0.6630 -0.7419
 3505SOL    HW213786   0.606   4.897   2.614  0.3377  0.0810 -0.6920
 3505SOL    HW313787   0.557   4.896   2.757  0.3694 -0.5981 -0.6830
 3505SOL    MW413788   0.616   4.918   2.697 -0.0369  0.4198 -0.7275
 3506SOL     OW13789   2.018   2.076   6.099 -0.0226  0.7226 -0.3049
 3506SOL    HW213790   1.987   1.987   6.110  0.8013  0.2844 -1.3505
 3506SOL    HW313791   2.101   2.080   6.147 -0.5660  1.2427  0.6180
 3506SOL    MW413792   2.025   2.065   6.107  0.0144  0.7334 -0.3211
 3507SOL     OW13793   1.483   2.589   1.567  0.7781  0.5369  0.2626
 3507SOL    HW213794   1.547   2.587   1.496  1.5138  1.0167  0.8908
 3507SOL    HW313795   1.513   2.522   1.628 -0.3814 -0.5238 -0.3091
 3507SOL    MW413796   1.496   2.580   1.566  0.7222  0.4602  0.2700
 3508SOL     OW13797   2.440   4.674   6.384  0.0761 -0.1726 -0.2498
 3508SOL    HW213798   2.433   4.656   6.291 -0.9553 -2.0009  0.1211
 3508SOL    HW313799   2.351   4.662   6.417  0.4546  0.2942  0.9945
 3508SOL    MW413800   2.427   4.670   6.376 -0.0101 -0.3522 -0.0367
 3509SOL     OW13801   3.917   5.713   5.741  0.4238  0.0448  0.5747
 3509SOL    HW213802   3.880   5.651   5.804  1.2798 -0.5054  0.5431
 3509SOL    HW313803   3.972   5.659   5.684  1.3054  0.8563  0.6406
 3509SOL    MW413804   3.919   5.697   5.742  0.6530  0.0793  0.5792
 3510SOL     OW13805   4.959   1.588   4.036 -0.3462 -0.2456  0.0299
 3510SOL    HW213806   5.038   1.615   3.989 -0.1188 -1.2490 -0.1811
 3510SOL    HW313807   4.957   1.493   4.027 -0.5038 -0.4368  1.7205
 3510SOL    MW413808   4.969   1.579   4.029 -0.3370 -0.4032  0.2251
 3511SOL     OW13809   3.888   1.456   4.369 -0.4856 -0.0537 -0.1335
 3511SOL    HW213810   3.981   1.437   4.376 -0.5107 -0.0981  0.0801
 3511SOL    HW313811   3.846   1.395   4.429 -0.5970  0.4212  0.2788
 3511SOL    MW413812   3.895   1.446   4.378 -0.5036  0.0031 -0.0509
 3512SOL     OW13813   1.169   2.079   3.440 -0.1208 -0.2154 -0.0392
 3512SOL    HW213814   1.168   2.043   3.529  1.1070 -0.4944 -0.1212
 3512SOL    HW313815   1.232   2.151   3.444  0.5811 -0.7545 -0.8644
 3512SOL    MW413816   1.177   2.084   3.452  0.1338 -0.3233 -0.1589
 3513SOL     OW13817   4.235   2.489   2.953 -0.2015  0.3060 -0.4583
 3513SOL    HW213818   4.255   2.399   2.927  3.3832  1.1586 -1.2023
 3513SOL    HW313819   4.219   2.534   2.870 -1.4984  0.4901 -0.1219
 3513SOL    MW413820   4.236   2.483   2.939  0.1003  0.4428 -0.5120
 3514SOL     OW13821   2.864   2.103   5.740 -0.0530 -0.2681  0.2427
 3514SOL    HW213822   2.830   2.078   5.655 -2.0479  0.7847  0.6761
 3514SOL    HW313823   2.788   2.107   5.797  1.2921 -1.5126  2.2788
 3514SOL    MW413824   2.850   2.101   5.736 -0.1387 -0.2934  0.5685
 3515SOL     OW13825   0.421   2.553   4.991 -0.0649 -0.1194  0.0681
 3515SOL    HW213826   0.455   2.483   4.936 -1.0250  0.7949 -1.7910
 3515SOL    HW313827   0.498   2.607   5.011  0.5454 -1.2531  0.9060
 3515SOL    MW413828   0.436   2.551   4.987 -0.1111 -0.1483 -0.0666
 3516SOL     OW13829   2.327   0.800   1.106 -0.1272  0.4883 -0.2245
 3516SOL    HW213830   2.249   0.821   1.054 -0.4741 -0.0549  0.0634
 3516SOL    HW313831   2.292   0.766   1.188  0.4211  1.6157  0.4928
 3516SOL    MW413832   2.312   0.798   1.110 -0.1006  0.5654 -0.0919
 3517SOL     OW13833   2.695   1.780   5.519  0.7537  0.2358 -0.3246
 3517SOL    HW213834   2.790   1.783   5.511  0.7481 -1.0190 -1.1185
 3517SOL    HW313835   2.663   1.767   5.430 -0.0775 -0.7072  0.0791
 3517SOL    MW413836   2.703   1.779   5.506  0.6433 -0.0541 -0.3761
 3518SOL     OW13837   5.906   2.498   3.215  0.5825 -0.3167  0.0746
 3518SOL    HW213838   5.868   2.444   3.284 -0.9304  1.9225  1.1205
 3518SOL    HW313839   6.000   2.492   3.228  0.4097 -1.6888  0.9093
 3518SOL    MW413840   5.913   2.490   3.226  0.3601 -0.2023  0.3228
 3519SOL     OW13841   3.819   0.091   2.997 -0.1435  0.2969  0.2927
 3519SOL    HW213842   3.823   0.062   3.088  0.5253  0.9767  0.4969
 3519SOL    HW313843   3.745   0.044   2.959 -0.2687 -0.1854  1.1191
 3519SOL    MW413844   3.810   0.081   3.004 -0.0718  0.3230  0.4287
 3520SOL     OW13845   4.355   5.731   4.926 -0.3729  1.0281 -0.2851
 3520SOL    HW213846   4.436   5.759   4.883 -0.1517  0.0397 -0.5200
 3520SOL    HW313847   4.365   5.637   4.938 -1.1991  1.0100  0.3115
 3520SOL    MW413848   4.367   5.723   4.922 -0.4527  0.8953 -0.2374
 3521SOL     OW13849   5.963   0.708   4.125  0.7053  0.7719  0.2609
 3521SOL    HW213850   5.925   0.767   4.059  0.1904 -0.1357 -0.2810
 3521SOL    HW313851   5.887   0.666   4.166  1.0665  0.4140  0.5691
 3521SOL    MW413852   5.948   0.711   4.121  0.6850  0.6049  0.2301
 3522SOL     OW13853   3.495   0.669   2.378  0.1909  1.0385  0.5189
 3522SOL    HW213854   3.443   0.690   2.301 -0.3561 -0.6634  0.3691
 3522SOL    HW313855   3.432   0.667   2.450 -0.3192 -2.1403  0.1599
 3522SOL    MW413856   3.480   0.671   2.378  0.0515  0.3945  0.4518
 3523SOL     OW13857   3.970   4.286   2.770 -0.1905  0.5243 -0.0133
 3523SOL    HW213858   3.917   4.364   2.787  2.7644  2.7233  0.0455
 3523SOL    HW313859   4.031   4.283   2.844  1.8274  0.1264 -1.5866
 3523SOL    MW413860   3.971   4.296   2.782  0.4656  0.7619 -0.2131
 3524SOL     OW13861   2.143   1.393   5.716  0.1910 -0.5044 -0.1503
 3524SOL    HW213862   2.188   1.476   5.700 -2.9671  1.2480 -0.6889
 3524SOL    HW313863   2.158   1.375   5.809  3.5849 -1.1535 -0.6994
 3524SOL    MW413864   2.151   1.402   5.726  0.2221 -0.3588 -0.2938
 3525SOL     OW13865   6.088   0.097   0.860  0.0039  0.3796  0.8518
 3525SOL    HW213866   6.113   0.107   0.768 -0.9081 -1.5662  0.3466
 3525SOL    HW313867   6.095   0.185   0.896  1.4063  1.0120 -0.8096
 3525SOL    MW413868   6.092   0.110   0.853  0.0686  0.2063  0.5659
 3526SOL     OW13869   4.550   3.798   0.258  0.0204  0.1860  0.0745
 3526SOL    HW213870   4.610   3.860   0.216  0.3890  0.1610  0.5505
 3526SOL    HW313871   4.465   3.841   0.254  0.0952  0.2829 -0.4860
 3526SOL    MW413872   4.547   3.812   0.252  0.0789  0.1955  0.0634
 3527SOL     OW13873   1.421   4.927   0.429  0.4980 -0.1270  0.2724
 3527SOL    HW213874   1.364   5.001   0.407  2.1637  0.4330 -2.5641
 3527SOL    HW313875   1.504   4.967   0.455  0.4542 -0.9952  1.9123
 3527SOL    MW413876   1.424   4.942   0.430  0.7120 -0.1677  0.1145
 3528SOL     OW13877   1.619   4.371   4.008 -0.4311  0.5488  0.0397
 3528SOL    HW213878   1.691   4.347   4.066 -0.0870  0.5598 -0.3682
 3528SOL    HW313879   1.584   4.452   4.044 -1.0165 -0.0745  0.9137
 3528SOL    MW413880   1.624   4.378   4.020 -0.4629  0.4680  0.1012
 3529SOL     OW13881   3.811   2.554   4.314  0.6779  0.2649 -0.2097
 3529SOL    HW213882   3.731   2.519   4.275  0.3906 -0.9089  1.3447
 3529SOL    HW313883   3.878   2.487   4.295  0.8860  0.4151 -0.0124
 3529SOL    MW413884   3.810   2.540   4.306  0.6675  0.1298  0.0214
 3530SOL     OW13885   3.004   3.951   0.162  0.0149 -0.5412  0.3353
 3530SOL    HW213886   3.060   3.970   0.087 -0.7308  0.2723 -0.0346
 3530SOL    HW313887   3.027   4.019   0.226  0.7432 -1.3101  0.9139
 3530SOL    MW413888   3.015   3.963   0.160  0.0126 -0.5353  0.3628
 3531SOL     OW13889   2.618   3.915   3.468 -0.5904 -0.2733  0.6260
 3531SOL    HW213890   2.621   4.004   3.503 -1.8693  0.1791 -0.3263
 3531SOL    HW313891   2.526   3.901   3.446 -0.0841 -1.0179 -1.2499
 3531SOL    MW413892   2.606   3.925   3.470 -0.6923 -0.3119  0.2529
 3532SOL     OW13893   4.149   3.630   1.159  0.1517  0.7220 -0.3304
 3532SOL    HW213894   4.157   3.556   1.220 -1.1158  0.6727 -0.1933
 3532SOL    HW313895   4.217   3.691   1.187  0.3629  0.1758  0.3836
 3532SOL    MW413896   4.159   3.628   1.171  0.0123  0.6434 -0.2181
 3533SOL     OW13897   3.663   6.215   0.428  0.3113  0.1971 -0.2478
 3533SOL    HW213898   3.647   6.124   0.455 -0.2716  0.3557 -0.0513
 3533SOL    HW313899   3.728   6.208   0.358 -1.2045 -0.5225 -1.6286
 3533SOL    MW413900   3.670   6.202   0.423  0.0344  0.1231 -0.4041
 3534SOL     OW13901   4.501   5.193   3.494 -0.0145  0.6835  0.2532
 3534SOL    HW213902   4.444   5.121   3.521  2.3721 -0.9613  1.2608
 3534SOL    HW313903   4.479   5.209   3.402 -0.9467 -1.0226  0.1415
 3534SOL    MW413904   4.491   5.186   3.486  0.1774  0.2414  0.3714
 3535SOL     OW13905   3.940   0.243   1.436  0.5030 -0.6454 -0.0046
 3535SOL    HW213906   3.996   0.320   1.438  0.2336 -0.4508  0.1805
 3535SOL    HW313907   3.879   0.260   1.363  0.8470 -0.9715 -0.3690
 3535SOL    MW413908   3.939   0.256   1.426  0.5129 -0.6628 -0.0283
 3536SOL     OW13909   0.926   4.870   2.807  1.2901  0.5157  0.1363
 3536SOL    HW213910   0.831   4.877   2.803  1.3839  1.5673 -0.8042
 3536SOL    HW313911   0.943   4.823   2.888  0.0708  2.4984  1.6264
 3536SOL    MW413912   0.916   4.865   2.817  1.1416  0.9161  0.2088
 3537SOL     OW13913   1.491   1.798   5.339  0.0033 -0.2121  0.2907
 3537SOL    HW213914   1.442   1.832   5.413  1.0437  2.1689 -0.0373
 3537SOL    HW313915   1.426   1.752   5.286 -1.4177  0.8930  1.0170
 3537SOL    MW413916   1.476   1.796   5.342 -0.0469  0.2478  0.3432
 3538SOL     OW13917   4.430   6.416   4.348 -0.1329  0.0703  0.1234
 3538SOL    HW213918   4.492   6.348   4.324  0.3365  1.0690 -1.6937
 3538SOL    HW313919   4.344   6.376   4.333  0.1385  0.2590 -2.2783
 3538SOL    MW413920   4.427   6.402   4.343 -0.0351  0.2270 -0.4332
 3539SOL     OW13921   3.909   5.628   3.311 -0.0375 -0.2521 -0.3629
 3539SOL    HW213922   3.971   5.701   3.312  1.5053 -1.4425  2.3112
 3539SOL    HW313923   3.917   5.591   3.223  1.8352  0.6376 -0.6269
 3539SOL    MW413924   3.918   5.633   3.300  0.4132 -0.2918 -0.0449
 3540SOL     OW13925   3.297   2.709   3.007 -0.5269 -0.2308  0.6523
 3540SOL    HW213926   3.219   2.657   2.987 -0.8401  0.5981 -0.3882
 3540SOL    HW313927   3.363   2.678   2.946 -0.4034 -0.0934  0.7169
 3540SOL    MW413928   3.295   2.698   2.997 -0.5519 -0.1033  0.5236
 3541SOL     OW13929   3.479   3.734   5.743 -0.0753  0.2285  0.2630
 3541SOL    HW213930   3.497   3.802   5.808 -0.4704  1.1203 -0.5266
 3541SOL    HW313931   3.554   3.738   5.684 -0.1675  0.0733  0.1353
 3541SOL    MW413932   3.492   3.744   5.744 -0.1396  0.3257  0.1419
 3542SOL     OW13933   3.998   6.288   1.686  0.3386  0.1642  0.0299
 3542SOL    HW213934   3.954   6.373   1.692  0.0635  0.0371 -0.1632
 3542SOL    HW313935   4.081   6.307   1.641 -0.7856 -0.0371 -2.2741
 3542SOL    MW413936   4.003   6.302   1.681  0.1540  0.1208 -0.2995
 3543SOL     OW13937   0.491   0.627   0.454 -0.2833  0.3353 -0.8718
 3543SOL    HW213938   0.553   0.608   0.384  1.3545  0.3049  0.5418
 3543SOL    HW313939   0.410   0.650   0.408  0.8477  0.7295 -2.7644
 3543SOL    MW413940   0.488   0.627   0.439  0.0820  0.3833 -0.9350
 3544SOL     OW13941   5.116   1.234   0.599 -0.1793 -0.8742 -0.1663
 3544SOL    HW213942   5.030   1.229   0.556 -1.0825  2.2346  0.9611
 3544SOL    HW313943   5.132   1.328   0.609  2.6586 -1.3757  1.1053
 3544SOL    MW413944   5.107   1.246   0.595  0.0760 -0.5302  0.1502
 3545SOL     OW13945   2.936   3.634   2.983 -0.3759  0.1852 -0.0906
 3545SOL    HW213946   2.938   3.632   2.888  0.1790 -0.3573 -0.0804
 3545SOL    HW313947   3.028   3.622   3.009 -0.6739 -0.9446  0.5115
 3545SOL    MW413948   2.948   3.632   2.974 -0.3420 -0.0354 -0.0098
 3546SOL     OW13949   3.453   6.434   1.761 -0.8506 -0.4422  0.8774
 3546SOL    HW213950   3.405   6.353   1.778 -1.0524  0.0634  2.9720
 3546SOL    HW313951   3.542   6.405   1.741 -0.6515 -1.1734  2.6642
 3546SOL    MW413952   3.458   6.419   1.760 -0.8509 -0.4720  1.3895
 3547SOL     OW13953   3.147   4.445   6.081  0.2854 -0.1635 -0.4141
 3547SOL    HW213954   3.214   4.395   6.127 -0.8052 -0.5352  0.8718
 3547SOL    HW313955   3.109   4.383   6.019 -1.2213 -1.1172  1.3344
 3547SOL    MW413956   3.151   4.430   6.079 -0.0573 -0.3384 -0.0138
 3548SOL     OW13957   2.215   1.468   3.722 -0.4219 -0.2097  0.7376
 3548SOL    HW213958   2.296   1.433   3.684 -0.0391  0.7339  0.6561
 3548SOL    HW313959   2.148   1.404   3.698 -0.1801  0.2920 -1.4414
 3548SOL    MW413960   2.217   1.455   3.714 -0.3395 -0.0190  0.4394
 3549SOL     OW13961   6.121   2.732   1.046  0.1370  0.1068 -0.0439
 3549SOL    HW213962   6.196   2.691   1.088  1.8101  1.9550 -1.0603
 3549SOL    HW313963   6.124   2.823   1.075 -2.5702  0.0050  0.9543
 3549SOL    MW413964   6.131   2.739   1.056  0.0006  0.3372 -0.0463
 3550SOL     OW13965   0.255   0.196   4.794  0.1064  0.2570  0.2721
 3550SOL    HW213966   0.301   0.203   4.710 -0.2631 -0.2124  0.0317
 3550SOL    HW313967   0.213   0.111   4.792 -1.4961  1.0175  0.1406
 3550SOL    MW413968   0.256   0.186   4.783 -0.1538  0.2954  0.2231
 3551SOL     OW13969   1.579   5.905   6.214  0.1589  0.3589  0.6361
 3551SOL    HW213970   1.662   5.859   6.226  0.1177  0.4009  1.1176
 3551SOL    HW313971   1.518   5.861   6.273  0.0304  0.8060  0.8479
 3551SOL    MW413972   1.582   5.893   6.223  0.1365  0.4234  0.7276
 3552SOL     OW13973   2.095   1.557   3.057 -0.1272  0.4040  0.0658
 3552SOL    HW213974   2.046   1.560   3.139  1.5943 -0.0147  1.1476
 3552SOL    HW313975   2.129   1.468   3.052 -1.3362 -0.0283 -1.8454
 3552SOL    MW413976   2.093   1.545   3.067 -0.0596  0.2918 -0.0436
 3553SOL     OW13977   1.807   0.066   6.059 -0.1002  1.2733 -0.3860
 3553SOL    HW213978   1.717   0.044   6.035 -1.2918  0.9614  3.6327
 3553SOL    HW313979   1.803   0.158   6.085  0.7836  1.3290 -0.4246
 3553SOL    MW413980   1.795   0.075   6.060 -0.1408  1.2395  0.1391
 3554SOL     OW13981   0.688   4.765   5.641 -0.1107 -0.2056 -0.8089
 3554SOL    HW213982   0.652   4.844   5.601  2.0263  1.8662  1.0742
 3554SOL    HW313983   0.616   4.730   5.694  0.3000  3.7840  2.8452
 3554SOL    MW413984   0.674   4.771   5.643  0.2255  0.5941 -0.0783
 3555SOL     OW13985   1.677   5.147   0.897 -0.2828  0.1475 -0.1511
 3555SOL    HW213986   1.586   5.118   0.903  0.2166 -1.3452  1.1011
 3555SOL    HW313987   1.689   5.205   0.973 -0.4551  1.2412 -0.9345
 3555SOL    MW413988   1.666   5.151   0.908 -0.2396  0.0949 -0.0893
 3556SOL     OW13989   6.195   1.766   3.515  0.5458  0.4327 -0.0065
 3556SOL    HW213990   6.233   1.849   3.544  0.5644  0.0122  1.2538
 3556SOL    HW313991   6.193   1.712   3.594 -4.3018  1.0126  0.5798
 3556SOL    MW413992   6.200   1.770   3.529 -0.0914  0.4538  0.2371
 3557SOL     OW13993   2.741   5.768   0.466  0.6335  0.4516 -0.2594
 3557SOL    HW213994   2.815   5.740   0.520 -0.2580 -3.0102 -0.6229
 3557SOL    HW313995   2.719   5.691   0.414 -0.3526  2.7678 -3.5624
 3557SOL    MW413996   2.748   5.754   0.467  0.3857  0.3005 -0.7431
 3558SOL     OW13997   2.354   4.256   2.757  0.2326  0.6470 -0.0675
 3558SOL    HW213998   2.267   4.229   2.787  0.1191  1.1468  0.0476
 3558SOL    HW313999   2.410   4.248   2.834  0.1860  0.8149 -0.0184
 3558SOL    MW414000   2.350   4.251   2.771  0.2115  0.7351 -0.0458
 3559SOL     OW14001   3.412   4.139   5.711  0.1038  0.0799  0.0673
 3559SOL    HW214002   3.381   4.112   5.625  0.5993 -0.4785  0.0592
 3559SOL    HW314003   3.333   4.151   5.763 -0.1502 -0.8455 -0.0908
 3559SOL    MW414004   3.398   4.137   5.707  0.1356 -0.1158  0.0454
 3560SOL     OW14005   5.994   3.750   2.955  0.1726 -0.6763  0.2189
 3560SOL    HW214006   5.919   3.763   2.897 -0.4294 -1.8140  0.6934
 3560SOL    HW314007   6.059   3.705   2.901  0.7990  0.8777 -0.3751
 3560SOL    MW414008   5.992   3.746   2.940  0.1758 -0.6214  0.2031
 3561SOL     OW14009   5.404   1.047   4.925  0.0015  0.1514 -0.1564
 3561SOL    HW214010   5.487   1.082   4.959  0.9160 -0.6182 -1.5060
 3561SOL    HW314011   5.373   1.115   4.865  2.1027 -1.4012 -3.2759
 3561SOL    MW414012   5.411   1.061   4.922  0.3993 -0.1550 -0.7461
 3562SOL     OW14013   5.642   4.619   0.895  0.2216 -0.2972 -1.0073
 3562SOL    HW214014   5.707   4.550   0.891 -0.5242 -1.1473  0.3784
 3562SOL    HW314015   5.572   4.583   0.950  1.3133  2.7037  2.8177
 3562SOL    MW414016   5.641   4.605   0.902  0.2672 -0.0134 -0.3198
 3563SOL     OW14017   0.063   0.562   1.908 -0.5017 -0.5444  0.0181
 3563SOL    HW214018   0.123   0.627   1.870  1.5474 -1.2941  1.7252
 3563SOL    HW314019   0.121   0.493   1.941 -2.3951 -1.7102  1.0985
 3563SOL    MW414020   0.079   0.561   1.907 -0.4812 -0.7971  0.3859
 3564SOL     OW14021   0.835   5.278   3.512  0.1942 -0.6814 -0.3137
 3564SOL    HW214022   0.887   5.211   3.556  0.3451 -1.0674 -1.0613
 3564SOL    HW314023   0.799   5.234   3.435 -1.7012 -0.5890  0.4570
 3564SOL    MW414024   0.837   5.264   3.508 -0.0360 -0.7202 -0.3106
 3565SOL     OW14025   0.428   0.234   6.325  0.6476  0.2969  0.3233
 3565SOL    HW214026   0.516   0.223   6.362  0.1430 -0.9295  1.1939
 3565SOL    HW314027   0.438   0.208   6.233  1.2093  0.2721  0.3827
 3565SOL    MW414028   0.441   0.229   6.318  0.6551  0.1318  0.4460
 3566SOL     OW14029   1.199   5.533   6.332  0.4307 -0.6347 -0.2150
 3566SOL    HW214030   1.105   5.551   6.326  0.4964 -0.7766 -2.4625
 3566SOL    HW314031   1.209   5.445   6.295  1.5982  0.0072 -1.5310
 3566SOL    MW414032   1.188   5.523   6.326  0.5934 -0.5687 -0.6851
 3567SOL     OW14033   1.046   2.219   5.876 -0.0834  0.1550  0.1723
 3567SOL    HW214034   0.959   2.232   5.913  0.0319 -0.0693  0.5283
 3567SOL    HW314035   1.096   2.295   5.904 -0.1558  0.2655 -0.0007
 3567SOL    MW414036   1.041   2.230   5.885 -0.0778  0.1400  0.1965
 3568SOL     OW14037   5.467   3.773   2.111 -0.4345 -0.0116 -0.0657
 3568SOL    HW214038   5.546   3.820   2.140 -0.0658 -1.8095  2.0998
 3568SOL    HW314039   5.500   3.706   2.051 -0.6426  0.8054 -1.1080
 3568SOL    MW414040   5.482   3.770   2.107 -0.4133 -0.1410  0.0825
 3569SOL     OW14041   5.047   4.247   3.264 -0.3865  0.1605 -0.1559
 3569SOL    HW214042   5.087   4.174   3.312 -0.3690  0.0836 -0.2843
 3569SOL    HW314043   5.055   4.322   3.322  0.4066  0.2611 -0.3872
 3569SOL    MW414044   5.054   4.247   3.278 -0.2796  0.1636 -0.2033
 3570SOL     OW14045   5.516   6.180   1.800 -0.1058 -0.7083 -0.0046
 3570SOL    HW214046   5.442   6.214   1.749  0.4632 -0.8696 -0.9492
 3570SOL    HW314047   5.567   6.258   1.822 -0.3750 -0.6336  0.3744
 3570SOL    MW414048   5.513   6.195   1.796 -0.0663 -0.7198 -0.0792
 3571SOL     OW14049   3.408   3.215   5.859 -0.2903  0.0425 -0.1244
 3571SOL    HW214050   3.350   3.190   5.930  1.4099  1.3628  1.8289
 3571SOL    HW314051   3.417   3.310   5.867  2.0462 -0.1007 -0.3581
 3571SOL    MW414052   3.402   3.224   5.869  0.2423  0.1978  0.1025
 3572SOL     OW14053   4.294   1.022   1.935 -0.1132  0.1617  0.2644
 3572SOL    HW214054   4.342   1.101   1.962  2.0310 -1.1217  0.4050
 3572SOL    HW314055   4.239   1.001   2.010 -0.8130  1.5564  0.1803
 3572SOL    MW414056   4.293   1.030   1.949  0.0774  0.1764  0.2719
 3573SOL     OW14057   6.188   0.559   2.573 -0.0516  0.3848 -0.4726
 3573SOL    HW214058   6.218   0.474   2.538 -3.0295 -0.8072 -0.4210
 3573SOL    HW314059   6.187   0.547   2.668 -0.8575  0.3382 -0.4864
 3573SOL    MW414060   6.192   0.546   2.581 -0.5508  0.2214 -0.4676
 3574SOL     OW14061   4.768   1.959   1.885  0.5751 -0.2931  0.0255
 3574SOL    HW214062   4.823   2.036   1.870  1.9716 -0.7783  2.1354
 3574SOL    HW314063   4.810   1.889   1.834  0.0769  0.0281 -0.8374
 3574SOL    MW414064   4.781   1.960   1.877  0.6936 -0.3147  0.1900
 3575SOL     OW14065   0.366   5.831   2.375 -0.1599  0.0970 -0.0930
 3575SOL    HW214066   0.358   5.873   2.290  0.0580 -0.1128 -0.2167
 3575SOL    HW314067   0.288   5.860   2.423 -0.9638 -0.8112 -0.8108
 3575SOL    MW414068   0.354   5.840   2.370 -0.2372 -0.0505 -0.2040
 3576SOL     OW14069   2.757   4.426   5.906  0.8781 -0.7045 -0.1559
 3576SOL    HW214070   2.715   4.419   5.992  0.6273  1.5310 -0.0593
 3576SOL    HW314071   2.760   4.519   5.888  1.7605 -1.0820 -2.1959
 3576SOL    MW414072   2.752   4.437   5.915  0.9614 -0.4594 -0.4123
 3577SOL     OW14073   5.457   3.108   5.532 -0.1840 -0.2144  0.0494
 3577SOL    HW214074   5.493   3.144   5.451 -0.3853 -0.6805 -0.2561
 3577SOL    HW314075   5.366   3.137   5.533  0.2466  1.1820  0.9519
 3577SOL    MW414076   5.450   3.117   5.521 -0.1538 -0.0917  0.1282
 3578SOL     OW14077   4.552   6.091   2.999  0.2242 -0.2777  0.1388
 3578SOL    HW214078   4.624   6.074   2.938 -0.7365  0.3531 -1.2228
 3578SOL    HW314079   4.557   6.019   3.062  1.9064 -0.3575 -0.0225
 3578SOL    MW414080   4.563   6.079   2.999  0.3194 -0.2050 -0.0622
 3579SOL     OW14081   5.612   1.291   1.232 -0.2284 -0.0073 -0.1136
 3579SOL    HW214082   5.698   1.327   1.255  0.1239 -0.3621 -0.8449
 3579SOL    HW314083   5.625   1.196   1.231 -1.2717 -0.2700  2.2947
 3579SOL    MW414084   5.625   1.283   1.235 -0.3196 -0.0888  0.1077
 3580SOL     OW14085   2.679   1.159   2.500 -0.6622  0.3951  0.6389
 3580SOL    HW214086   2.617   1.132   2.568 -1.2371 -1.0088 -0.4079
 3580SOL    HW314087   2.714   1.077   2.465 -0.4502  1.0809 -0.8162
 3580SOL    MW414088   2.675   1.145   2.505 -0.7101  0.3003  0.3088
 3581SOL     OW14089   1.164   6.294   2.533 -0.4342 -0.1726  0.4445
 3581SOL    HW214090   1.129   6.224   2.477  0.7659  0.3930 -1.0816
 3581SOL    HW314091   1.091   6.316   2.592 -1.8553 -0.6229 -1.0573
 3581SOL    MW414092   1.149   6.288   2.533 -0.4634 -0.1574  0.0450
 3582SOL     OW14093   6.105   3.216   2.479 -0.1283  0.2785 -0.1706
 3582SOL    HW214094   6.170   3.259   2.535  0.3083 -0.5531 -0.0303
 3582SOL    HW314095   6.026   3.270   2.488  0.5973  1.4285 -0.5186
 3582SOL    MW414096   6.103   3.229   2.488  0.0250  0.3205 -0.1980
 3583SOL     OW14097   2.570   3.617   4.400 -0.8258 -0.7594 -0.5691
 3583SOL    HW214098   2.613   3.674   4.336 -1.3573  2.2217  1.5267
 3583SOL    HW314099   2.627   3.541   4.406  1.0480  0.4269 -2.0781
 3583SOL    MW414100   2.583   3.615   4.392 -0.6487 -0.2096 -0.4916
 3584SOL     OW14101   3.945   2.340   0.171 -0.0923 -0.4221  0.3630
 3584SOL    HW214102   3.937   2.416   0.112 -0.8601 -0.8565 -0.1086
 3584SOL    HW314103   3.977   2.270   0.114  1.0329 -0.3603  0.8906
 3584SOL    MW414104   3.948   2.341   0.156 -0.0452 -0.4713  0.3704
 3585SOL     OW14105   0.661   4.787   4.919  0.3539 -0.2102  0.1676
 3585SOL    HW214106   0.571   4.758   4.933  0.5880 -0.4790  1.2054
 3585SOL    HW314107   0.713   4.732   4.977  0.9571  1.3201  1.1459
 3585SOL    MW414108   0.656   4.776   4.929  0.4644 -0.0437  0.4336
 3586SOL     OW14109   3.562   3.268   1.882 -0.4599 -0.2718 -0.7014
 3586SOL    HW214110   3.591   3.180   1.906  0.1087  0.0204 -0.3009
 3586SOL    HW314111   3.609   3.287   1.801  1.2242  0.5525  0.4094
 3586SOL    MW414112   3.572   3.259   1.874 -0.1627 -0.1245 -0.5020
 3587SOL     OW14113   2.637   5.000   2.418 -0.5371  0.6103 -0.3603
 3587SOL    HW214114   2.609   4.946   2.344 -0.3768 -0.7147  0.5194
 3587SOL    HW314115   2.714   5.047   2.386 -1.2895  1.1381 -1.4663
 3587SOL    MW414116   2.643   4.999   2.404 -0.6152  0.5051 -0.3901
 3588SOL     OW14117   2.650   3.045   2.335  0.2108 -0.0106 -0.6263
 3588SOL    HW214118   2.703   3.041   2.415 -1.0783 -1.8675  0.2302
 3588SOL    HW314119   2.582   2.979   2.349 -1.3501  1.1283 -2.3625
 3588SOL    MW414120   2.648   3.036   2.348 -0.1653 -0.1053 -0.7424
 3589SOL     OW14121   3.813   3.972   0.941 -0.1012 -0.1656  0.3874
 3589SOL    HW214122   3.741   3.958   1.002 -0.2570  0.7128  0.4141
 3589SOL    HW314123   3.852   3.885   0.930 -1.4916 -0.7692 -0.0404
 3589SOL    MW414124   3.809   3.958   0.947 -0.3052 -0.1293  0.3345
 3590SOL     OW14125   2.833   5.418   3.668 -0.0794 -0.0122 -0.3981
 3590SOL    HW214126   2.796   5.338   3.704  1.9167 -1.0322 -0.4684
 3590SOL    HW314127   2.801   5.488   3.725 -0.0911 -1.1222  0.9897
 3590SOL    MW414128   2.824   5.417   3.680  0.1824 -0.2932 -0.2242
 3591SOL     OW14129   0.485   5.936   5.990  0.3720  0.3138 -0.6529
 3591SOL    HW214130   0.409   5.963   5.938 -1.3475 -0.0605  1.4769
 3591SOL    HW314131   0.448   5.914   6.076  2.7038 -1.4995 -0.0082
 3591SOL    MW414132   0.470   5.937   5.995  0.4528  0.0252 -0.2869
 3592SOL     OW14133   1.504   3.323   1.755  0.1379 -0.3751 -0.0511
 3592SOL    HW214134   1.429   3.317   1.696 -0.6615  0.1002  0.8789
 3592SOL    HW314135   1.490   3.253   1.819  0.2488 -0.0155  0.3772
 3592SOL    MW414136   1.493   3.313   1.756  0.0471 -0.2650  0.1281
 3593SOL     OW14137   4.690   4.453   5.117 -0.0325  0.0951 -0.0200
 3593SOL    HW214138   4.599   4.472   5.140 -0.0457 -1.3911  1.2559
 3593SOL    HW314139   4.728   4.539   5.098 -1.3496  0.8682  0.7279
 3593SOL    MW414140   4.683   4.467   5.117 -0.2080  0.0010  0.2470
 3594SOL     OW14141   2.077   6.034   2.933 -0.4482 -0.1321 -0.1824
 3594SOL    HW214142   2.040   6.105   2.985 -1.6127  2.1832 -3.7811
 3594SOL    HW314143   2.163   6.066   2.907 -0.5870 -0.4458 -1.0520
 3594SOL    MW414144   2.083   6.048   2.936 -0.6202  0.1320 -0.7719
 3595SOL     OW14145   3.380   4.168   2.074  0.2816  0.1865 -0.1022
 3595SOL    HW214146   3.330   4.186   2.153 -1.6436  0.1929 -1.2366
 3595SOL    HW314147   3.405   4.254   2.041  0.4517  0.2189  0.1099
 3595SOL    MW414148   3.377   4.181   2.080  0.0500  0.1916 -0.2239
 3596SOL     OW14149   1.080   3.830   6.014 -0.6915  0.4490  0.1101
 3596SOL    HW214150   1.095   3.882   6.093 -1.2653  0.6951  0.0570
 3596SOL    HW314151   1.155   3.850   5.958 -0.5698  0.7049  0.3606
 3596SOL    MW414152   1.092   3.839   6.017 -0.7512  0.5152  0.1361
 3597SOL     OW14153   2.760   2.945   4.178 -0.2653  0.2129 -0.6760
 3597SOL    HW214154   2.694   2.894   4.132  1.7605 -1.6677 -1.6740
 3597SOL    HW314155   2.778   3.019   4.119 -1.3780  0.7238 -0.4112
 3597SOL    MW414156   2.754   2.948   4.164 -0.1448  0.0321 -0.7727
 3598SOL     OW14157   3.190   3.569   1.048  0.5482 -0.4653 -1.0022
 3598SOL    HW214158   3.228   3.496   1.097  1.1121 -0.2828 -1.1584
 3598SOL    HW314159   3.198   3.543   0.956  0.0973 -0.5169 -1.0288
 3598SOL    MW414160   3.196   3.556   1.042  0.5631 -0.4481 -1.0263
 3599SOL     OW14161   0.905   5.853   1.111  0.2328 -0.6418  0.4812
 3599SOL    HW214162   0.845   5.802   1.056 -0.7375 -0.4834  1.3536
 3599SOL    HW314163   0.848   5.900   1.171  1.2545 -0.8592  1.6689
 3599SOL    MW414164   0.889   5.852   1.111  0.2396 -0.6496  0.7530
 3600SOL     OW14165   5.844   2.797   4.639 -0.2994  0.1179 -0.0989
 3600SOL    HW214166   5.853   2.786   4.734  4.2142 -1.2352 -0.4771
 3600SOL    HW314167   5.906   2.866   4.617 -1.4195  0.5566 -2.1241
 3600SOL    MW414168   5.853   2.805   4.649  0.1483 -0.0027 -0.4160
 3601SOL     OW14169   4.604   0.232   4.844 -0.4534 -0.3676 -0.3843
 3601SOL    HW214170   4.571   0.165   4.784 -0.5667  1.2441 -2.1858
 3601SOL    HW314171   4.609   0.312   4.792  0.8334  0.7847  1.3793
 3601SOL    MW414172   4.600   0.234   4.829 -0.2986 -0.0029 -0.3893
 3602SOL     OW14173   4.503   1.304   5.074 -0.3596 -0.5070  0.1776
 3602SOL    HW214174   4.527   1.380   5.128  1.8185 -0.5494 -0.6346
 3602SOL    HW314175   4.408   1.302   5.077 -0.4750  2.0576  0.5048
 3602SOL    MW414176   4.494   1.314   5.082 -0.0874 -0.1742  0.1136
 3603SOL     OW14177   1.366   6.194   2.298  0.7513  0.0355  0.3031
 3603SOL    HW214178   1.378   6.152   2.213  1.0029 -1.6393  1.1021
 3603SOL    HW314179   1.437   6.258   2.304 -1.5233  3.0680 -2.2859
 3603SOL    MW414180   1.377   6.197   2.288  0.4844  0.2146  0.0670
 3604SOL     OW14181   6.064   6.270   6.075 -0.6172  0.4463  0.0396
 3604SOL    HW214182   6.030   6.345   6.124 -0.1095 -0.0542  1.1999
 3604SOL    HW314183   6.021   6.194   6.115 -0.7993  0.0728 -0.8350
 3604SOL    MW414184   6.054   6.270   6.087 -0.5743  0.3310  0.0773
 3605SOL     OW14185   4.171   4.405   3.689 -0.4469 -0.5194 -0.1022
 3605SOL    HW214186   4.093   4.376   3.736 -1.5826 -1.5654 -2.4374
 3605SOL    HW314187   4.157   4.499   3.675 -0.5098 -0.3834  0.8356
 3605SOL    MW414188   4.159   4.414   3.693 -0.6050 -0.6395 -0.2866
 3606SOL     OW14189   6.004   5.406   1.846 -0.3863 -0.1715  0.0542
 3606SOL    HW214190   5.999   5.373   1.936  1.1147 -0.7976 -0.0749
 3606SOL    HW314191   6.012   5.328   1.791  0.0175  0.2594 -0.5156
 3606SOL    MW414192   6.004   5.392   1.851 -0.1350 -0.1973 -0.0380
 3607SOL     OW14193   2.381   3.690   0.163  0.0599  0.3699 -0.4931
 3607SOL    HW214194   2.417   3.774   0.192 -1.0411  1.3709 -1.9042
 3607SOL    HW314195   2.435   3.624   0.207  0.8371  1.8087  0.7727
 3607SOL    MW414196   2.393   3.692   0.172  0.0171  0.6918 -0.5123
 3608SOL     OW14197   4.656   2.741   3.259  0.0455  0.0835 -0.8639
 3608SOL    HW214198   4.603   2.774   3.331  0.1577  0.1455 -0.8105
 3608SOL    HW314199   4.654   2.646   3.269  1.0851  0.1333 -0.0494
 3608SOL    MW414200   4.649   2.733   3.270  0.1974  0.0983 -0.7494
 3609SOL     OW14201   0.358   1.103   0.479  0.2556  0.0691 -0.4798
 3609SOL    HW214202   0.383   1.064   0.395  0.4702  0.4140 -0.5747
 3609SOL    HW314203   0.323   1.189   0.457  2.7914  1.3049 -0.0101
 3609SOL    MW414204   0.356   1.109   0.465  0.6185  0.2777 -0.4303
 3610SOL     OW14205   4.158   1.820   1.543 -0.2824 -0.0437  0.2477
 3610SOL    HW214206   4.156   1.775   1.628 -0.9181 -3.2669 -1.3045
 3610SOL    HW314207   4.068   1.814   1.511 -0.0496  1.1059 -0.6712
 3610SOL    MW414208   4.146   1.813   1.550 -0.3355 -0.3172 -0.0783
 3611SOL     OW14209   2.131   0.221   0.656 -1.0357 -0.1697  0.3313
 3611SOL    HW214210   2.218   0.259   0.668 -0.4396 -0.9504 -1.2018
 3611SOL    HW314211   2.133   0.141   0.709 -1.3419  0.5599  1.4473
 3611SOL    MW414212   2.143   0.215   0.664 -0.9975 -0.1765  0.2762
 3612SOL     OW14213   4.010   5.670   0.578 -0.0196 -0.5925  0.2761
 3612SOL    HW214214   3.956   5.729   0.630  0.2733 -1.3364  1.4678
 3612SOL    HW314215   4.079   5.725   0.542 -1.6653  0.4402 -1.5204
 3612SOL    MW414216   4.012   5.685   0.580 -0.1981 -0.5544  0.1963
 3613SOL     OW14217   1.863   1.839   2.116  1.1095  0.2377  0.0274
 3613SOL    HW214218   1.818   1.776   2.060  1.4102 -0.0823  0.1443
 3613SOL    HW314219   1.880   1.914   2.059  1.3007 -0.0342 -0.2769
 3613SOL    MW414220   1.859   1.840   2.101  1.1744  0.1596  0.0027
 3614SOL     OW14221   2.447   4.144   5.093 -0.3388 -0.0784  0.0035
 3614SOL    HW214222   2.372   4.104   5.137 -0.4447 -0.4621 -0.5153
 3614SOL    HW314223   2.521   4.127   5.151 -0.5247 -0.3331  0.1699
 3614SOL    MW414224   2.447   4.137   5.107 -0.3773 -0.1626 -0.0430
 3615SOL     OW14225   0.344   0.699   2.922  1.0123 -0.9144 -0.2401
 3615SOL    HW214226   0.383   0.650   2.994  0.2561 -1.6597 -0.3201
 3615SOL    HW314227   0.359   0.645   2.845  0.2078 -1.0260 -0.3333
 3615SOL    MW414228   0.351   0.686   2.922  0.8064 -1.0275 -0.2629
 3616SOL     OW14229   3.793   4.185   1.856  0.0189  0.0315  0.1297
 3616SOL    HW214230   3.856   4.256   1.864  0.5888 -0.6049  1.5930
 3616SOL    HW314231   3.845   4.110   1.826  0.5248 -1.1100  3.4457
 3616SOL    MW414232   3.808   4.184   1.853  0.1609 -0.2031  0.7602
 3617SOL     OW14233   0.836   4.509   0.126 -0.0593  0.2786 -0.2815
 3617SOL    HW214234   0.755   4.551   0.099  0.3513  0.3727 -1.4260
 3617SOL    HW314235   0.864   4.558   0.203  0.7067  2.5629 -1.8834
 3617SOL    MW414236   0.829   4.521   0.133  0.0959  0.5924 -0.6439
 3618SOL     OW14237   1.176   5.111   2.775 -0.1798  0.1103 -0.0059
 3618SOL    HW214238   1.147   5.055   2.704 -0.1446  0.0521  0.0252
 3618SOL    HW314239   1.239   5.057   2.824  0.7087  0.5574 -0.6266
 3618SOL    MW414240   1.181   5.096   2.772 -0.0579  0.1616 -0.0837
 3619SOL     OW14241   1.115   3.216   4.189 -0.6477  0.0670 -0.1336
 3619SOL    HW214242   1.125   3.292   4.247 -1.0294 -0.3555  0.4927
 3619SOL    HW314243   1.167   3.239   4.112  1.6836 -0.2641  1.2387
 3619SOL    MW414244   1.123   3.229   4.187 -0.3904 -0.0324  0.1301
 3620SOL     OW14245   3.541   0.940   1.897  0.3445  0.2245 -0.3026
 3620SOL    HW214246   3.540   1.024   1.851 -0.4323 -0.8973 -2.4969
 3620SOL    HW314247   3.448   0.916   1.905  0.4660  0.2677  1.7474
 3620SOL    MW414248   3.528   0.948   1.892  0.2580  0.0822 -0.3216
 3621SOL     OW14249   2.171   1.564   5.458 -0.2457  0.0691  0.1753
 3621SOL    HW214250   2.194   1.637   5.516  0.5981  1.1958 -1.5007
 3621SOL    HW314251   2.243   1.503   5.467 -0.6095 -0.2459  1.0502
 3621SOL    MW414252   2.183   1.566   5.467 -0.1824  0.1762  0.0696
 3622SOL     OW14253   5.462   6.298   0.183 -0.2001  0.2245 -0.8692
 3622SOL    HW214254   5.500   6.379   0.149 -0.4400  0.4239 -0.6694
 3622SOL    HW314255   5.472   6.305   0.278 -0.4922  0.1594 -0.8318
 3622SOL    MW414256   5.468   6.310   0.192 -0.2703  0.2422 -0.8379
 3623SOL     OW14257   6.305   1.236   2.764 -0.2500  0.1982  0.4365
 3623SOL    HW214258   6.271   1.238   2.674  1.8117  0.5872 -0.4022
 3623SOL    HW314259   6.340   1.148   2.774  0.9665  0.6384  0.2440
 3623SOL    MW414260   6.305   1.225   2.753  0.1825  0.3076  0.3004
 3624SOL     OW14261   4.506   0.856   5.431  0.1809 -0.2109 -0.2402
 3624SOL    HW214262   4.585   0.909   5.440  0.1215 -0.3039  1.0134
 3624SOL    HW314263   4.443   0.914   5.388 -0.0064  0.8974  1.4469
 3624SOL    MW414264   4.508   0.871   5.427  0.1484 -0.0770  0.1478
 3625SOL     OW14265   1.496   4.820   0.183  0.5059 -0.0021 -0.0455
 3625SOL    HW214266   1.477   4.851   0.272 -0.2128  1.8268 -0.7808
 3625SOL    HW314267   1.414   4.779   0.154  0.2561  0.7200 -0.3754
 3625SOL    MW414268   1.483   4.819   0.191  0.3781  0.3345 -0.1860
 3626SOL     OW14269   0.837   2.507   4.040 -0.4343 -0.0552  0.0188
 3626SOL    HW214270   0.862   2.417   4.021 -2.2727 -0.6318  0.1487
 3626SOL    HW314271   0.896   2.535   4.110 -0.5552 -1.5154  0.7209
 3626SOL    MW414272   0.848   2.499   4.047 -0.6928 -0.3240  0.1286
 3627SOL     OW14273   2.708   0.264   4.922 -0.4864  0.2050  0.1981
 3627SOL    HW214274   2.762   0.185   4.919 -1.0501 -0.2037  0.4955
 3627SOL    HW314275   2.770   0.336   4.931 -0.0465 -0.3646  2.1884
 3627SOL    MW414276   2.723   0.263   4.923 -0.5027  0.0759  0.4999
 3628SOL     OW14277   0.810   1.639   4.377  0.0385 -0.5399  1.0750
 3628SOL    HW214278   0.779   1.658   4.289 -1.2259 -0.8876  1.4199
 3628SOL    HW314279   0.860   1.716   4.402  0.4597 -0.4626  0.0405
 3628SOL    MW414280   0.812   1.652   4.369 -0.0727 -0.5756  0.9840
 3629SOL     OW14281   0.785   5.806   2.525 -0.1547  0.0812 -0.0227
 3629SOL    HW214282   0.771   5.896   2.553 -0.1709 -0.4398  1.7290
 3629SOL    HW314283   0.800   5.757   2.605 -0.4388 -1.5474 -0.9049
 3629SOL    MW414284   0.785   5.811   2.539 -0.1944 -0.2024  0.0920
 3630SOL     OW14285   4.457   6.371   1.252  0.5647  0.3634  0.1880
 3630SOL    HW214286   4.451   6.448   1.308 -0.6001  0.3799  0.0836
 3630SOL    HW314287   4.386   6.314   1.283  0.5237 -0.0459 -0.6335
 3630SOL    MW414288   4.447   6.374   1.263  0.4056  0.3115  0.0658
 3631SOL     OW14289   4.401   1.830   1.055  0.7830  0.5369 -0.2304
 3631SOL    HW214290   4.479   1.774   1.057 -1.0144 -2.1479  0.5004
 3631SOL    HW314291   4.328   1.769   1.057 -1.3726  2.9581  0.2030
 3631SOL    MW414292   4.402   1.815   1.056  0.2615  0.5021 -0.0768
 3632SOL     OW14293   1.147   3.147   0.130  0.2465 -0.1111  0.3059
 3632SOL    HW214294   1.087   3.131   0.203  0.0119  0.4522  0.2396
 3632SOL    HW314295   1.157   3.062   0.088 -0.0287 -0.3314  0.6815
 3632SOL    MW414296   1.141   3.134   0.134  0.1792 -0.0659  0.3467
 3633SOL     OW14297   6.135   4.728   5.981  0.1272  0.2125  0.4499
 3633SOL    HW214298   6.197   4.799   5.968  2.7420 -2.0396 -0.3976
 3633SOL    HW314299   6.052   4.771   6.003  1.6273  3.4280  0.2802
 3633SOL    MW414300   6.132   4.743   5.982  0.6701  0.3396  0.3157
 3634SOL     OW14301   4.844   1.344   4.014 -0.6417 -0.1002  0.2434
 3634SOL    HW214302   4.896   1.290   4.074 -1.9154 -3.2478 -1.2275
 3634SOL    HW314303   4.774   1.380   4.069  1.1365  1.4849  1.5872
 3634SOL    MW414304   4.841   1.341   4.029 -0.5752 -0.3063  0.2266
 3635SOL     OW14305   0.112   3.191   1.024  0.3386 -0.4830 -0.6288
 3635SOL    HW214306   0.028   3.223   1.056  1.9779  3.0808  0.6488
 3635SOL    HW314307   0.141   3.128   1.089 -0.8755 -0.9753 -0.5538
 3635SOL    MW414308   0.105   3.187   1.036  0.3947 -0.0778 -0.4504
 3636SOL     OW14309   0.143   0.741   3.978 -0.5680  0.9469  0.5270
 3636SOL    HW214310   0.047   0.734   3.978 -0.5951  1.1693  1.4496
 3636SOL    HW314311   0.161   0.821   3.928 -0.8056  0.4097 -0.4461
 3636SOL    MW414312   0.133   0.751   3.971 -0.6029  0.9053  0.5204
 3637SOL     OW14313   0.552   2.086   4.381  0.0432  0.1838  0.0553
 3637SOL    HW214314   0.487   2.155   4.390  1.9495  2.1852 -0.8394
 3637SOL    HW314315   0.617   2.105   4.448  0.0369 -1.4859  0.5966
 3637SOL    MW414316   0.552   2.097   4.391  0.2939  0.2275  0.0086
 3638SOL     OW14317   3.901   4.545   3.683  0.1242 -0.1069 -0.0968
 3638SOL    HW214318   3.913   4.541   3.588  1.5967 -2.4190  0.1006
 3638SOL    HW314319   3.864   4.459   3.706  1.0318 -0.1020  1.5394
 3638SOL    MW414320   3.898   4.533   3.674  0.4382 -0.4113  0.1451
 3639SOL     OW14321   5.771   4.593   0.370 -0.0413  0.0922  0.4528
 3639SOL    HW214322   5.730   4.593   0.283  0.2642  0.6937  0.3049
 3639SOL    HW314323   5.752   4.680   0.405  2.0425  0.7999 -0.0708
 3639SOL    MW414324   5.763   4.605   0.363  0.2740  0.2649  0.3642
 3640SOL     OW14325   4.485   6.225   4.597 -0.1633 -0.0386  0.1935
 3640SOL    HW214326   4.581   6.219   4.594 -0.1926 -1.0321  0.5479
 3640SOL    HW314327   4.455   6.151   4.543 -0.7142 -0.3392  0.8871
 3640SOL    MW414328   4.494   6.214   4.589 -0.2399 -0.2094  0.3317
 3641SOL     OW14329   2.233   4.955   2.473 -0.1199  0.2725 -0.3782
 3641SOL    HW214330   2.233   4.874   2.421  0.8129 -1.0831  1.5843
 3641SOL    HW314331   2.169   4.938   2.542 -0.8930  1.7799 -0.6939
 3641SOL    MW414332   2.224   4.942   2.475 -0.0988  0.2925 -0.1609
 3642SOL     OW14333   3.213   4.492   3.432  0.5297  0.1407  0.5342
 3642SOL    HW214334   3.233   4.472   3.524  2.6836  1.4188  0.4335
 3642SOL    HW314335   3.299   4.502   3.392 -0.3920  0.5065 -1.4397
 3642SOL    MW414336   3.227   4.490   3.439  0.6923  0.3576  0.2605
 3643SOL     OW14337   0.434   1.173   2.633 -0.1206  0.0925 -0.2047
 3643SOL    HW214338   0.351   1.129   2.653 -0.0599 -0.1203 -0.4111
 3643SOL    HW314339   0.411   1.234   2.562 -0.3201  0.7927  0.4462
 3643SOL    MW414340   0.420   1.175   2.626 -0.1390  0.1568 -0.1461
 3644SOL     OW14341   2.534   0.547   0.452  0.2162  0.6389  0.0012
 3644SOL    HW214342   2.515   0.453   0.462 -2.1837  0.9808 -0.7872
 3644SOL    HW314343   2.594   0.566   0.524  0.7848 -1.4886  0.1791
 3644SOL    MW414344   2.539   0.537   0.463 -0.0254  0.4033 -0.0793
 3645SOL     OW14345   1.379   5.327   1.072  0.3425 -0.2117  0.0245
 3645SOL    HW214346   1.404   5.383   1.145 -0.6300  0.2196  0.0378
 3645SOL    HW314347   1.284   5.316   1.081  0.1477  0.1039 -1.3233
 3645SOL    MW414348   1.370   5.333   1.083  0.1885 -0.1132 -0.1515
 3646SOL     OW14349   3.099   2.553   2.844 -0.6720 -0.4354 -0.3240
 3646SOL    HW214350   3.181   2.506   2.856 -0.3835  0.3116  0.6728
 3646SOL    HW314351   3.031   2.487   2.862 -0.3421 -1.3075 -2.0550
 3646SOL    MW414352   3.101   2.538   2.848 -0.5904 -0.4519 -0.4209
 3647SOL     OW14353   4.625   5.994   4.140 -0.3004 -0.2490  0.0744
 3647SOL    HW214354   4.594   5.919   4.192  0.5599 -0.7756 -0.1666
 3647SOL    HW314355   4.545   6.031   4.103 -0.8033 -0.6412  0.7421
 3647SOL    MW414356   4.610   5.989   4.142 -0.2533 -0.3702  0.1307
 3648SOL     OW14357   1.683   5.599   3.956  0.4221 -0.0727  0.1233
 3648SOL    HW214358   1.683   5.534   3.885 -0.7593 -0.4775  0.4696
 3648SOL    HW314359   1.750   5.662   3.931 -1.4921  1.0864 -2.5707
 3648SOL    MW414360   1.692   5.598   3.943  0.0136  0.0268 -0.1865
 3649SOL     OW14361   5.257   3.436   0.336 -0.0650  0.1808 -0.3984
 3649SOL    HW214362   5.327   3.499   0.321  0.6215 -0.7202 -1.0891
 3649SOL    HW314363   5.187   3.487   0.378  1.3490  0.8953  1.1767
 3649SOL    MW414364   5.257   3.451   0.340  0.2122  0.1562 -0.2817
 3650SOL     OW14365   1.584   0.736   1.324 -0.8032 -0.5204 -0.4133
 3650SOL    HW214366   1.656   0.672   1.317  0.6073  1.0778 -1.3305
 3650SOL    HW314367   1.508   0.683   1.350  0.6883 -2.2786  0.6875
 3650SOL    MW414368   1.584   0.720   1.326 -0.4203 -0.5415 -0.3891
 3651SOL     OW14369   2.835   6.443   1.581 -0.1569 -0.0770  0.6863
 3651SOL    HW214370   2.835   6.408   1.492  1.2603 -0.9760  1.0149
 3651SOL    HW314371   2.755   6.409   1.620 -0.2893 -0.4936  0.0613
 3651SOL    MW414372   2.824   6.434   1.574  0.0126 -0.2506  0.6472
 3652SOL     OW14373   3.868   0.590   2.890  0.4533 -0.3814  0.5463
 3652SOL    HW214374   3.909   0.670   2.857  1.2231 -1.0052 -0.0852
 3652SOL    HW314375   3.814   0.559   2.817 -1.3714  0.5406  1.4458
 3652SOL    MW414376   3.866   0.596   2.876  0.3141 -0.3420  0.5817
 3653SOL     OW14377   3.004   2.233   3.287 -0.3305 -0.6964 -0.7112
 3653SOL    HW214378   3.021   2.177   3.362 -0.6005 -1.3682 -1.1465
 3653SOL    HW314379   3.091   2.258   3.256 -0.2120 -0.8011 -0.4659
 3653SOL    MW414380   3.018   2.229   3.293 -0.3505 -0.7989 -0.7363
 3654SOL     OW14381   0.488   5.049   1.239  0.0452 -0.4043  0.2963
 3654SOL    HW214382   0.415   5.010   1.286 -0.0894  0.9101  1.2388
 3654SOL    HW314383   0.510   5.127   1.289  0.3016  0.7417 -1.5067
 3654SOL    MW414384   0.481   5.054   1.252  0.0613 -0.0797  0.1827
 3655SOL     OW14385   1.828   3.161   6.134 -0.1808  0.1506  0.2283
 3655SOL    HW214386   1.917   3.147   6.101  0.2488  1.0814  0.9283
 3655SOL    HW314387   1.775   3.097   6.088  0.8028 -0.2116 -0.4406
 3655SOL    MW414388   1.833   3.151   6.124  0.0057  0.2256  0.2324
 3656SOL     OW14389   3.990   2.602   1.168 -0.1520 -0.0764  0.0884
 3656SOL    HW214390   4.026   2.667   1.229 -0.4051 -1.3805  1.7308
 3656SOL    HW314391   4.066   2.555   1.136 -0.1296 -0.7522  1.0781
 3656SOL    MW414392   4.004   2.605   1.172 -0.1824 -0.3376  0.4357
 3657SOL     OW14393   1.792   1.978   1.178 -0.2480  0.1208  1.0312
 3657SOL    HW214394   1.831   1.976   1.265 -0.1106  3.4006  1.1509
 3657SOL    HW314395   1.708   1.933   1.188  0.2791 -0.6078  2.5143
 3657SOL    MW414396   1.786   1.972   1.191 -0.1604  0.4574  1.2427
 3658SOL     OW14397   1.072   4.562   5.948  0.2451 -0.1971  0.2924
 3658SOL    HW214398   1.000   4.498   5.953  0.0739 -0.1295 -0.9655
 3658SOL    HW314399   1.138   4.528   6.008 -0.1416 -1.1793  0.1950
 3658SOL    MW414400   1.071   4.549   5.956  0.1715 -0.3178  0.1136
 3659SOL     OW14401   0.848   0.692   0.676 -0.1231 -0.5709 -0.7425
 3659SOL    HW214402   0.870   0.617   0.620  1.5533 -1.1079  0.5707
 3659SOL    HW314403   0.768   0.664   0.721  0.4175 -1.5460 -0.3491
 3659SOL    MW414404   0.840   0.678   0.674  0.1694 -0.7704 -0.5173
 3660SOL     OW14405   3.457   1.947   4.763  0.4865 -0.0665 -0.5372
 3660SOL    HW214406   3.441   1.861   4.801 -0.2625  0.9608  1.6537
 3660SOL    HW314407   3.371   1.976   4.733  0.5737  0.2603 -0.4776
 3660SOL    MW414408   3.444   1.939   4.764  0.3992  0.1122 -0.2403
 3661SOL     OW14409   5.706   4.820   0.500 -0.3834 -0.2950  0.5411
 3661SOL    HW214410   5.710   4.877   0.423 -2.8397 -0.9757 -0.1987
 3661SOL    HW314411   5.729   4.877   0.574  2.1985  0.3261 -0.6413
 3661SOL    MW414412   5.710   4.835   0.500 -0.3668 -0.3029  0.2875
 3662SOL     OW14413   5.020   5.583   3.491  0.2031  0.1452  0.1167
 3662SOL    HW214414   5.029   5.535   3.573 -1.4484  0.1760  0.3450
 3662SOL    HW314415   4.987   5.519   3.429  1.3258  0.1546 -0.5193
 3662SOL    MW414416   5.017   5.569   3.494  0.1333  0.1505  0.0629
 3663SOL     OW14417   5.285   4.887   5.641  0.3723 -0.3851  0.2099
 3663SOL    HW214418   5.332   4.813   5.603 -1.0412 -0.8786 -0.6250
 3663SOL    HW314419   5.196   4.880   5.607 -0.8693 -0.5178  3.1753
 3663SOL    MW414420   5.280   4.877   5.631  0.0220 -0.4677  0.4910
 3664SOL     OW14421   3.804   1.089   4.383 -0.4822 -0.4360 -0.5635
 3664SOL    HW214422   3.881   1.067   4.434 -1.3350 -1.7648  0.2046
 3664SOL    HW314423   3.744   1.015   4.395 -1.6332  0.2658 -1.6334
 3664SOL    MW414424   3.806   1.076   4.391 -0.7466 -0.5187 -0.6033
 3665SOL     OW14425   0.485   3.976   5.292 -0.6595  0.4270  0.0247
 3665SOL    HW214426   0.496   3.960   5.199  0.3445  1.0507  0.0166
 3665SOL    HW314427   0.575   3.990   5.325 -0.8169 -1.3373  1.3774
 3665SOL    MW414428   0.499   3.976   5.284 -0.5478  0.2765  0.2021
 3666SOL     OW14429   1.621   5.653   0.107  0.1494  0.3329 -0.4304
 3666SOL    HW214430   1.566   5.578   0.085  2.2369 -0.8873 -1.8566
 3666SOL    HW314431   1.562   5.713   0.154 -2.0673 -1.3336 -0.8984
 3666SOL    MW414432   1.606   5.651   0.110  0.1324 -0.0480 -0.6803
 3667SOL     OW14433   2.132   1.865   2.982 -0.0158  0.1293 -0.1784
 3667SOL    HW214434   2.163   1.838   3.068 -0.1159  0.1637 -0.1314
 3667SOL    HW314435   2.066   1.800   2.958 -2.4637  1.9346  1.2490
 3667SOL    MW414436   2.127   1.853   2.990 -0.3520  0.3720  0.0161
 3668SOL     OW14437   4.901   0.162   6.409  0.6500  0.6143 -0.3148
 3668SOL    HW214438   4.892   0.184   6.316  0.0349 -0.0819 -0.4303
 3668SOL    HW314439   4.921   0.069   6.410 -0.6382  0.3138  0.2832
 3668SOL    MW414440   4.902   0.153   6.397  0.3989  0.4828 -0.2512
 3669SOL     OW14441   1.381   4.418   2.093  0.4331  0.0219  0.2275
 3669SOL    HW214442   1.366   4.494   2.037 -0.9295 -0.0545  0.4567
 3669SOL    HW314443   1.410   4.349   2.032 -1.5538 -0.2200 -0.5194
 3669SOL    MW414444   1.383   4.419   2.078 -0.0088 -0.0201  0.1592
 3670SOL     OW14445   5.976   1.287   3.174 -0.0774 -0.3800  0.0550
 3670SOL    HW214446   6.007   1.376   3.156  1.3289 -0.8334  0.0924
 3670SOL    HW314447   5.917   1.267   3.102  1.1387 -0.1313 -1.0511
 3670SOL    MW414448   5.973   1.297   3.162  0.2686 -0.4070 -0.0860
 3671SOL     OW14449   5.871   3.373   1.099 -0.1148  0.4466 -0.9532
 3671SOL    HW214450   5.868   3.457   1.053  0.7673  0.7917 -0.4025
 3671SOL    HW314451   5.938   3.323   1.052  0.1934  0.4873 -0.5581
 3671SOL    MW414452   5.879   3.377   1.087  0.0422  0.4975 -0.8284
 3672SOL     OW14453   3.192   1.973   6.046  0.1171 -0.1416 -0.2132
 3672SOL    HW214454   3.156   1.982   5.958 -0.4590  0.2541  0.0532
 3672SOL    HW314455   3.230   1.886   6.048 -3.2861 -1.7895  0.3278
 3672SOL    MW414456   3.192   1.963   6.035 -0.4079 -0.3068 -0.1067
 3673SOL     OW14457   1.618   6.273   2.600 -0.3760  0.6939 -0.0107
 3673SOL    HW214458   1.641   6.297   2.690 -0.2180  0.2745  0.0641
 3673SOL    HW314459   1.550   6.335   2.575 -1.3380  0.0250  0.8570
 3673SOL    MW414460   1.612   6.284   2.609 -0.4821  0.5503  0.1137
 3674SOL     OW14461   4.710   2.474   5.916  0.1099  0.3786 -0.0709
 3674SOL    HW214462   4.630   2.423   5.910 -0.4675  1.2249  0.2018
 3674SOL    HW314463   4.778   2.410   5.938 -0.0448 -0.7131 -2.4755
 3674SOL    MW414464   4.708   2.459   5.919  0.0133  0.3462 -0.3522
 3675SOL     OW14465   1.170   1.468   0.989 -0.2917  0.0537 -0.2428
 3675SOL    HW214466   1.207   1.556   0.992  0.2449 -0.1660 -0.2460
 3675SOL    HW314467   1.245   1.411   0.968 -0.5285 -0.4589  0.2710
 3675SOL    MW414468   1.185   1.472   0.986 -0.2521 -0.0429 -0.1755
 3676SOL     OW14469   1.274   0.039   4.466  0.1254 -0.2382 -0.0517
 3676SOL    HW214470   1.263   0.095   4.389  0.7625  0.0650  0.0742
 3676SOL    HW314471   1.328  -0.034   4.437  0.8364  0.1651  0.2414
 3676SOL    MW414472   1.279   0.037   4.452  0.3033 -0.1450  0.0036
 3677SOL     OW14473   4.581   1.121   4.475  0.1874  0.3233 -0.1118
 3677SOL    HW214474   4.646   1.178   4.515  0.3600 -0.3601  0.5935
 3677SOL    HW314475   4.620   1.094   4.392  1.3356 -1.0215  0.8229
 3677SOL    MW414476   4.594   1.125   4.469  0.3617  0.0557  0.1046
 3678SOL     OW14477   4.432   1.438   2.647 -0.3229 -0.7489 -0.0387
 3678SOL    HW214478   4.350   1.457   2.602  0.4221  1.5733 -0.5424
 3678SOL    HW314479   4.487   1.514   2.630  1.2735 -1.3914  1.8665
 3678SOL    MW414480   4.428   1.451   2.639 -0.0139 -0.5273  0.1462
 3679SOL     OW14481   6.224   0.668   1.675 -0.2876 -0.1694  0.0099
 3679SOL    HW214482   6.229   0.657   1.580 -3.2708 -1.3327 -0.1181
 3679SOL    HW314483   6.262   0.588   1.711  0.4252  0.0729 -0.1787
 3679SOL    MW414484   6.230   0.656   1.667 -0.5872 -0.2909 -0.0319
 3680SOL     OW14485   3.531   2.869   6.340 -0.1131 -0.0563  0.0977
 3680SOL    HW214486   3.498   2.893   6.254  1.5700  2.2070  0.0233
 3680SOL    HW314487   3.624   2.854   6.328  0.0582 -0.2584  1.4434
 3680SOL    MW414488   3.539   2.870   6.327  0.1315  0.2156  0.2655
 3681SOL     OW14489   5.667   0.750   0.481  0.7512  0.7036  0.3254
 3681SOL    HW214490   5.686   0.742   0.574  0.2756 -1.4250  0.2798
 3681SOL    HW314491   5.746   0.788   0.443  1.2154  0.9152  1.4893
 3681SOL    MW414492   5.680   0.754   0.488  0.7497  0.4507  0.4730
 3682SOL     OW14493   6.317   4.009   0.279 -0.4351 -0.0461  0.5007
 3682SOL    HW214494   6.254   4.038   0.212  0.9735  0.7715 -0.5118
 3682SOL    HW314495   6.361   3.934   0.238 -0.4232 -0.3327  1.0311
 3682SOL    MW414496   6.314   4.003   0.265 -0.2477  0.0239  0.4371
 3683SOL     OW14497   2.764   5.629   1.706 -0.3646 -0.1373  0.3206
 3683SOL    HW214498   2.750   5.534   1.702 -1.6331 -0.0191  1.1780
 3683SOL    HW314499   2.765   5.648   1.800 -4.8565  1.2482  0.3346
 3683SOL    MW414500   2.762   5.619   1.718 -1.1246  0.0611  0.4356
 3684SOL     OW14501   3.400   6.416   0.592 -0.7385 -0.5358  0.0987
 3684SOL    HW214502   3.315   6.372   0.596 -1.3657  0.6915  1.7648
 3684SOL    HW314503   3.424   6.415   0.500 -2.1487 -1.6613 -0.2906
 3684SOL    MW414504   3.392   6.410   0.581 -1.0073 -0.5224  0.2672
 3685SOL     OW14505   2.455   1.205   1.275  0.2144 -0.2740 -0.4067
 3685SOL    HW214506   2.477   1.297   1.258 -1.1662  0.3788  1.0804
 3685SOL    HW314507   2.508   1.181   1.350  0.4570 -0.6542 -0.6959
 3685SOL    MW414508   2.465   1.214   1.283  0.0643 -0.2380 -0.2487
 3686SOL     OW14509   1.779   2.028   4.483  0.1510 -0.7450  0.3240
 3686SOL    HW214510   1.809   1.982   4.405 -0.2679  0.0300 -0.3049
 3686SOL    HW314511   1.816   1.978   4.556  2.3363 -0.2739 -0.3920
 3686SOL    MW414512   1.788   2.016   4.483  0.3841 -0.5806  0.1466
 3687SOL     OW14513   3.171   2.400   1.236 -0.1277  0.1541  0.0834
 3687SOL    HW214514   3.220   2.460   1.293  0.7673  0.3063 -0.8382
 3687SOL    HW314515   3.206   2.415   1.149 -1.5012 -0.0639 -0.5382
 3687SOL    MW414516   3.182   2.410   1.232 -0.1909  0.1454 -0.1202
 3688SOL     OW14517   4.408   0.702   0.027 -0.7651  0.4015 -0.0159
 3688SOL    HW214518   4.333   0.648   0.050 -0.5302 -0.0599 -0.3025
 3688SOL    HW314519   4.472   0.685   0.097 -1.5608  2.1413  1.1922
 3688SOL    MW414520   4.407   0.693   0.040 -0.8391  0.5702  0.1057
 3689SOL     OW14521   6.219   2.744   5.202 -0.1504 -0.2920 -0.0477
 3689SOL    HW214522   6.310   2.759   5.177 -0.9555  0.5343 -2.7305
 3689SOL    HW314523   6.209   2.791   5.285  1.7340 -0.0755  0.1011
 3689SOL    MW414524   6.230   2.752   5.210 -0.0080 -0.1544 -0.3821
 3690SOL     OW14525   6.382   3.978   1.545  0.0337  0.1414 -0.4537
 3690SOL    HW214526   6.453   4.035   1.515 -0.0401 -0.5411 -2.0380
 3690SOL    HW314527   6.337   3.951   1.464 -1.7068  0.1365  0.4695
 3690SOL    MW414528   6.385   3.982   1.530 -0.2057  0.0507 -0.5409
 3691SOL     OW14529   1.123   4.477   2.794  0.1161  0.0830  0.8568
 3691SOL    HW214530   1.065   4.496   2.721  1.5398  0.3193 -0.2664
 3691SOL    HW314531   1.206   4.454   2.752  0.3112 -2.1389  2.3419
 3691SOL    MW414532   1.126   4.477   2.779  0.3297 -0.1790  0.9046
 3692SOL     OW14533   5.228   3.067   4.857  0.0723 -0.0876 -0.3550
 3692SOL    HW214534   5.163   3.088   4.924  1.5967  1.8491  0.6129
 3692SOL    HW314535   5.185   3.001   4.802 -2.6439  1.0335  0.2655
 3692SOL    MW414536   5.214   3.061   4.859 -0.0849  0.3158 -0.1454
 3693SOL     OW14537   1.171   0.898   3.379 -0.4262  0.3828 -0.3388
 3693SOL    HW214538   1.102   0.928   3.438  0.1868 -0.3369  0.7905
 3693SOL    HW314539   1.180   0.805   3.398 -1.2539 -0.2465 -2.6980
 3693SOL    MW414540   1.163   0.890   3.389 -0.4545  0.2048 -0.5011
 3694SOL     OW14541   3.613   4.377   2.705 -0.5703 -0.5246  0.6114
 3694SOL    HW214542   3.520   4.366   2.727 -1.1220  0.6793 -0.9440
 3694SOL    HW314543   3.613   4.395   2.611  1.2799 -0.7700  0.5378
 3694SOL    MW414544   3.600   4.378   2.696 -0.3990 -0.3981  0.3965
 3695SOL     OW14545   1.052   0.492   0.387  0.0631  0.1591  0.4725
 3695SOL    HW214546   1.021   0.470   0.475 -0.6480  3.8980  1.3486
 3695SOL    HW314547   0.986   0.552   0.352  1.5430  0.7077 -1.6280
 3695SOL    MW414548   1.039   0.497   0.394  0.1645  0.7248  0.3110
 3696SOL     OW14549   1.438   5.838   3.374 -0.5160  0.1003  0.0556
 3696SOL    HW214550   1.354   5.803   3.404 -0.7323  1.8975  1.7424
 3696SOL    HW314551   1.500   5.816   3.444  0.0786  0.1030 -0.4640
 3696SOL    MW414552   1.435   5.830   3.387 -0.4661  0.3377  0.2096
 3697SOL     OW14553   2.603   3.759   4.017  0.4666 -0.1888 -0.0937
 3697SOL    HW214554   2.670   3.737   4.082 -0.0226  0.0174  0.4859
 3697SOL    HW314555   2.521   3.761   4.066  0.2013  0.8316 -0.5495
 3697SOL    MW414556   2.601   3.756   4.032  0.3671 -0.0270 -0.0774
 3698SOL     OW14557   5.045   0.269   1.151  0.1472 -0.3070 -0.2022
 3698SOL    HW214558   4.986   0.281   1.077  0.2995  2.3949  0.0000
 3698SOL    HW314559   4.987   0.244   1.224 -0.5754  0.8083 -0.3661
 3698SOL    MW414560   5.030   0.267   1.151  0.0720  0.1967 -0.1971
 3699SOL     OW14561   4.156   6.265   3.070 -0.1426  0.0501  0.6278
 3699SOL    HW214562   4.215   6.311   3.130 -1.3849  0.1597  1.7982
 3699SOL    HW314563   4.107   6.205   3.126 -0.9143 -0.2783 -0.3789
 3699SOL    MW414564   4.157   6.263   3.085 -0.4083  0.0213  0.6494
 3700SOL     OW14565   1.630   1.466   0.639  0.2414 -0.6544 -0.4316
 3700SOL    HW214566   1.607   1.509   0.721 -1.4724 -0.8284 -0.7924
 3700SOL    HW314567   1.563   1.493   0.577 -0.7186 -3.4957 -0.7780
 3700SOL    MW414568   1.618   1.475   0.641 -0.1114 -1.0522 -0.5249
 3701SOL     OW14569   5.112   0.819   1.080 -0.3274  0.0165 -0.0094
 3701SOL    HW214570   5.120   0.899   1.132 -1.1523 -0.6207  1.1702
 3701SOL    HW314571   5.097   0.849   0.991 -0.4737  1.1746  0.3875
 3701SOL    MW414572   5.111   0.834   1.075 -0.4555  0.0852  0.1986
 3702SOL     OW14573   4.470   2.979   3.868 -0.1401 -0.2282 -0.6005
 3702SOL    HW214574   4.477   3.062   3.915 -0.3911 -0.1816 -0.6456
 3702SOL    HW314575   4.379   2.975   3.838 -0.1634 -0.5769 -0.4912
 3702SOL    MW414576   4.459   2.989   3.870 -0.1763 -0.2681 -0.5921
 3703SOL     OW14577   4.667   4.683   1.679 -0.2400  0.0757 -0.4288
 3703SOL    HW214578   4.639   4.716   1.765  0.5392 -0.8925  0.2253
 3703SOL    HW314579   4.647   4.754   1.618 -0.5629  0.8918  0.5989
 3703SOL    MW414580   4.661   4.697   1.683 -0.1798  0.0557 -0.2069
 3704SOL     OW14581   5.878   3.289   6.074 -0.6249  0.2585  0.4135
 3704SOL    HW214582   5.887   3.302   6.169  3.4468 -2.4847  0.6523
 3704SOL    HW314583   5.812   3.220   6.066  0.6512 -1.1947  1.5853
 3704SOL    MW414584   5.871   3.282   6.086  0.0807 -0.2952  0.5996
 3705SOL     OW14585   0.664   0.811   1.014  0.5269 -0.2765 -0.2051
 3705SOL    HW214586   0.661   0.906   1.004  3.0545 -0.2849 -1.7006
 3705SOL    HW314587   0.598   0.778   0.952 -1.3517  0.4494  1.2860
 3705SOL    MW414588   0.655   0.819   1.005  0.6125 -0.1819 -0.2057
 3706SOL     OW14589   3.055   6.147   0.385 -0.0226 -0.1887 -0.2124
 3706SOL    HW214590   2.999   6.073   0.361 -0.1758  0.0182 -0.4926
 3706SOL    HW314591   3.131   6.106   0.427 -0.2373 -0.4885 -0.1080
 3706SOL    MW414592   3.058   6.132   0.387 -0.0711 -0.2010 -0.2356
 3707SOL     OW14593   1.891   5.413   3.485 -0.3066 -0.1939  0.2072
 3707SOL    HW214594   1.914   5.478   3.552  0.6478 -1.2432  0.9251
 3707SOL    HW314595   1.874   5.465   3.407  2.8309  0.8339  0.0762
 3707SOL    MW414596   1.891   5.428   3.484  0.2333 -0.1967  0.2846
 3708SOL     OW14597   0.752   2.867   3.372 -0.0713 -0.0719 -0.3868
 3708SOL    HW214598   0.682   2.816   3.332  1.1256 -0.4465 -2.1185
 3708SOL    HW314599   0.709   2.917   3.441 -1.4615 -2.6244  0.7209
 3708SOL    MW414600   0.737   2.867   3.376 -0.0968 -0.4581 -0.4691
 3709SOL     OW14601   4.645   1.240   2.593 -0.3273 -0.2358  0.2550
 3709SOL    HW214602   4.622   1.172   2.529  1.6445  0.2268 -1.0567
 3709SOL    HW314603   4.566   1.293   2.601 -0.2580  0.6018 -3.0465
 3709SOL    MW414604   4.632   1.238   2.586 -0.0580 -0.0643 -0.3537
 3710SOL     OW14605   2.535   1.751   4.535  0.5762 -0.1553 -0.4588
 3710SOL    HW214606   2.610   1.764   4.593 -0.2046  1.0341  0.3269
 3710SOL    HW314607   2.466   1.717   4.592  0.2505 -0.4341 -1.0064
 3710SOL    MW414608   2.536   1.748   4.550  0.4302 -0.0351 -0.4274
 3711SOL     OW14609   5.642   5.948   5.774 -0.3014 -0.5702 -0.3871
 3711SOL    HW214610   5.655   5.982   5.862  0.3980  0.7387 -0.9556
 3711SOL    HW314611   5.678   5.859   5.777  1.0399 -0.0446  0.2999
 3711SOL    MW414612   5.649   5.941   5.786 -0.0321 -0.3281 -0.3714
 3712SOL     OW14613   2.235   1.541   4.933 -0.0904 -0.1046  0.0312
 3712SOL    HW214614   2.304   1.534   5.000 -1.2588 -0.8816  1.1936
 3712SOL    HW314615   2.281   1.570   4.855  1.2165  1.6216  1.3583
 3712SOL    MW414616   2.250   1.544   4.932 -0.0721  0.0207  0.3597
 3713SOL     OW14617   2.872   3.722   1.782  1.0904 -0.5658 -0.0183
 3713SOL    HW214618   2.822   3.804   1.776  1.7044 -0.3013 -2.9406
 3713SOL    HW314619   2.807   3.653   1.765  0.8151 -0.6078  1.1621
 3713SOL    MW414620   2.857   3.724   1.779  1.1351 -0.5364 -0.2481
 3714SOL     OW14621   2.420   5.120   2.802  0.1637  0.1698  0.8593
 3714SOL    HW214622   2.445   5.028   2.815 -0.5298 -0.2140 -0.4269
 3714SOL    HW314623   2.413   5.130   2.707  1.1523  1.8119  0.9159
 3714SOL    MW414624   2.423   5.109   2.791  0.2027  0.3358  0.6970
 3715SOL     OW14625   1.842   2.179   5.229 -0.7534 -0.3255 -0.0937
 3715SOL    HW214626   1.825   2.093   5.268  1.1140 -1.3118 -1.3147
 3715SOL    HW314627   1.906   2.219   5.287 -0.3081 -0.5164 -0.4398
 3715SOL    MW414628   1.848   2.173   5.242 -0.4483 -0.4808 -0.3004
 3716SOL     OW14629   4.466   3.119   0.319 -0.1860  0.0018 -0.2973
 3716SOL    HW214630   4.553   3.160   0.322 -0.0357 -0.3083 -0.4389
 3716SOL    HW314631   4.420   3.156   0.395  0.4042 -0.5821  0.3627
 3716SOL    MW414632   4.472   3.130   0.330 -0.0883 -0.1161 -0.2289
 3717SOL     OW14633   1.930   4.728   4.994  0.2114  0.1775 -0.2268
 3717SOL    HW214634   1.877   4.679   5.057 -0.2212 -0.6418 -1.2033
 3717SOL    HW314635   1.994   4.664   4.962  1.2679  0.9355  0.3164
 3717SOL    MW414636   1.931   4.713   4.998  0.2938  0.1694 -0.2840
 3718SOL     OW14637   0.320   2.239   4.375  0.4032  0.1754  0.7281
 3718SOL    HW214638   0.275   2.165   4.415 -0.4920  0.0040 -0.5253
 3718SOL    HW314639   0.250   2.288   4.331  0.9175  1.9663  1.8062
 3718SOL    MW414640   0.305   2.236   4.374  0.3530  0.3891  0.7050
 3719SOL     OW14641   1.579   4.889   5.294  0.0952  0.0422  0.1256
 3719SOL    HW214642   1.533   4.829   5.353  0.8013 -0.8024 -0.1664
 3719SOL    HW314643   1.564   4.853   5.207 -1.4323  1.6072 -0.3108
 3719SOL    MW414644   1.571   4.876   5.290 -0.0132  0.1373  0.0295
 3720SOL     OW14645   1.486   1.521   3.277  0.0355  0.3324  0.1560
 3720SOL    HW214646   1.501   1.465   3.201 -0.5602  0.5832 -0.1541
 3720SOL    HW314647   1.392   1.537   3.277  0.3525  2.7255 -0.7858
 3720SOL    MW414648   1.476   1.516   3.267 -0.0013  0.6812 -0.0092
 3721SOL     OW14649   3.920   5.085   2.074  1.0739  0.0902  0.6813
 3721SOL    HW214650   3.934   5.165   2.023  1.6824 -1.5494 -1.8993
 3721SOL    HW314651   3.824   5.078   2.080  1.0001  0.5386  0.1384
 3721SOL    MW414652   3.909   5.095   2.068  1.1445 -0.0669  0.2692
 3722SOL     OW14653   1.043   0.986   1.505  0.2446  0.7568  0.0203
 3722SOL    HW214654   1.034   0.928   1.430  0.3395 -0.3899  0.8744
 3722SOL    HW314655   1.138   0.992   1.519  0.1713 -0.4063  1.0819
 3722SOL    MW414656   1.055   0.979   1.497  0.2475  0.4520  0.2731
 3723SOL     OW14657   4.705   6.171   0.618 -0.1936  0.4380 -0.2565
 3723SOL    HW214658   4.704   6.163   0.713 -0.8376  1.4460 -0.1663
 3723SOL    HW314659   4.793   6.145   0.592 -0.0936 -0.0769  0.5878
 3723SOL    MW414660   4.716   6.166   0.627 -0.2654  0.5031 -0.1332
 3724SOL     OW14661   1.199   1.745   4.429 -0.1291 -0.1965 -0.0794
 3724SOL    HW214662   1.247   1.759   4.347  1.0508 -0.2894  0.5785
 3724SOL    HW314663   1.168   1.654   4.423  0.8923 -0.5653  0.0357
 3724SOL    MW414664   1.201   1.735   4.417  0.1613 -0.2574  0.0226
 3725SOL     OW14665   1.630   5.098   0.183 -0.6252  0.2719  0.1986
 3725SOL    HW214666   1.569   5.024   0.173 -1.0454  0.8014 -1.4327
 3725SOL    HW314667   1.664   5.088   0.272 -2.3251 -0.6203  0.8053
 3725SOL    MW414668   1.626   5.087   0.193 -0.9049  0.2240  0.0634
 3726SOL     OW14669   4.205   5.369   3.001  0.2997 -0.2176 -0.3558
 3726SOL    HW214670   4.196   5.331   2.913  1.6462 -2.1910  0.2802
 3726SOL    HW314671   4.193   5.295   3.060  1.3604  0.6876  1.0577
 3726SOL    MW414672   4.202   5.354   2.997  0.6173 -0.3586 -0.0854
 3727SOL     OW14673   5.244   3.076   2.665 -0.0333  0.5736 -0.1029
 3727SOL    HW214674   5.260   3.101   2.574 -0.1204  0.7768 -0.0630
 3727SOL    HW314675   5.331   3.081   2.706 -0.1382  1.4137  0.0479
 3727SOL    MW414676   5.258   3.080   2.658 -0.0586  0.7113 -0.0778
 3728SOL     OW14677   1.424   6.403   2.898  0.9186 -0.0139  0.0059
 3728SOL    HW214678   1.446   6.376   2.809  1.9613 -0.1221  0.2794
 3728SOL    HW314679   1.377   6.486   2.887 -0.2678 -0.7571 -0.7097
 3728SOL    MW414680   1.421   6.410   2.885  0.8997 -0.1262 -0.0525
 3729SOL     OW14681   5.970   2.775   0.174 -0.3535  0.0205 -0.1960
 3729SOL    HW214682   5.942   2.684   0.187 -2.0149  0.5127 -0.0896
 3729SOL    HW314683   6.051   2.768   0.124  0.0721 -1.5420  0.6382
 3729SOL    MW414684   5.977   2.762   0.169 -0.5165 -0.1207 -0.0719
 3730SOL     OW14685   1.545   5.052   3.976  0.1345  0.2828  0.8011
 3730SOL    HW214686   1.634   5.017   3.981  0.0439  0.0151  0.5848
 3730SOL    HW314687   1.516   5.030   3.887 -0.7772 -1.1732  1.4198
 3730SOL    MW414688   1.553   5.045   3.965  0.0022  0.0554  0.8542
 3731SOL     OW14689   5.351   5.210   2.321 -0.3681  0.6326 -0.5730
 3731SOL    HW214690   5.294   5.237   2.249  0.0302 -0.4333 -1.3125
 3731SOL    HW314691   5.315   5.254   2.398 -2.8952 -0.9184 -0.7670
 3731SOL    MW414692   5.339   5.220   2.322 -0.6489  0.2874 -0.6962
 3732SOL     OW14693   5.891   3.717   0.221 -0.0044 -0.1830  0.8554
 3732SOL    HW214694   5.954   3.646   0.231  1.7319  1.2886  0.8675
 3732SOL    HW314695   5.886   3.757   0.308 -0.2558  0.2764  0.6337
 3732SOL    MW414696   5.898   3.713   0.234  0.1915  0.0718  0.8277
 3733SOL     OW14697   1.211   2.799   2.245 -0.1468  0.2868 -0.1355
 3733SOL    HW214698   1.255   2.743   2.180 -0.3942  0.2425 -0.2649
 3733SOL    HW314699   1.205   2.744   2.323  0.6741  0.5352  0.1153
 3733SOL    MW414700   1.216   2.784   2.247 -0.0712  0.3137 -0.1195
 3734SOL     OW14701   5.066   5.191   3.630  0.2365 -0.1316  0.1435
 3734SOL    HW214702   5.063   5.105   3.672  0.2551 -0.5082 -0.6037
 3734SOL    HW314703   4.993   5.189   3.568  1.2083 -0.2387 -1.0392
 3734SOL    MW414704   5.056   5.179   3.627  0.3672 -0.1954 -0.1111
 3735SOL     OW14705   4.661   6.271   0.319 -0.3488  0.2186 -0.2561
 3735SOL    HW214706   4.656   6.297   0.411 -0.1584 -1.6799  0.3354
 3735SOL    HW314707   4.577   6.228   0.302  0.7443 -2.1419 -0.0403
 3735SOL    MW414708   4.649   6.268   0.329 -0.1795 -0.3433 -0.1496
 3736SOL     OW14709   1.241   5.106   0.355 -0.0076 -0.2981  0.4104
 3736SOL    HW214710   1.257   5.152   0.437  1.3889 -1.4057  0.7798
 3736SOL    HW314711   1.156   5.064   0.367 -0.1567  0.1545  0.9860
 3736SOL    MW414712   1.232   5.107   0.367  0.1570 -0.3845  0.5351
 3737SOL     OW14713   1.698   2.976   2.041  0.2168 -0.3306 -0.8780
 3737SOL    HW214714   1.616   3.011   2.006  0.1277 -0.6857 -1.0253
 3737SOL    HW314715   1.672   2.925   2.118  0.5507  1.6508  0.6148
 3737SOL    MW414716   1.684   2.974   2.046  0.2491 -0.1160 -0.7004
 3738SOL     OW14717   4.614   5.901   0.581 -0.1799  0.4331 -0.3344
 3738SOL    HW214718   4.652   5.987   0.569 -0.9578  1.1882  2.1019
 3738SOL    HW314719   4.642   5.874   0.669  0.8181 -2.2400 -1.3686
 3738SOL    MW414720   4.623   5.908   0.591 -0.1509  0.1800 -0.1494
 3739SOL     OW14721   4.079   0.658   4.992 -0.1893 -0.2981 -0.2339
 3739SOL    HW214722   4.152   0.696   5.040 -0.8960  1.3710 -0.4070
 3739SOL    HW314723   4.027   0.611   5.058  1.1951 -1.8204 -0.1743
 3739SOL    MW414724   4.082   0.657   5.007 -0.0999 -0.2788 -0.2489
 3740SOL     OW14725   5.901   1.677   0.518  0.1687  0.2876 -0.0083
 3740SOL    HW214726   5.924   1.678   0.425 -1.3443 -3.2785 -0.6001
 3740SOL    HW314727   5.836   1.747   0.527  0.0137  0.4221 -1.7468
 3740SOL    MW414728   5.895   1.686   0.507 -0.0514 -0.1651 -0.3158
 3741SOL     OW14729   1.327   1.216   0.920 -0.3674 -0.1091  0.3398
 3741SOL    HW214730   1.298   1.234   0.830  0.5139 -1.1765 -0.1767
 3741SOL    HW314731   1.410   1.264   0.928 -0.1739 -0.4483  0.3912
 3741SOL    MW414732   1.334   1.225   0.909 -0.2256 -0.2947  0.2785
 3742SOL     OW14733   5.517   3.397   6.333  0.0179 -0.4078  0.0794
 3742SOL    HW214734   5.519   3.306   6.362 -2.1164 -0.6869 -0.4981
 3742SOL    HW314735   5.587   3.440   6.384 -0.0524 -1.9919  1.6081
 3742SOL    MW414736   5.527   3.391   6.344 -0.2730 -0.6536  0.2049
 3743SOL     OW14737   2.383   2.000   4.487  0.0761 -0.3785  0.2223
 3743SOL    HW214738   2.469   1.959   4.500  1.6884  1.3644 -3.4797
 3743SOL    HW314739   2.336   1.940   4.430  0.0968  0.1302 -0.3369
 3743SOL    MW414740   2.388   1.987   4.481  0.2915 -0.0815 -0.3399
 3744SOL     OW14741   3.511   1.564   1.287 -0.0568  0.0667  0.6520
 3744SOL    HW214742   3.520   1.633   1.352  2.5223 -0.6537  1.1536
 3744SOL    HW314743   3.507   1.610   1.203  1.8244  0.8769  0.9618
 3744SOL    MW414744   3.512   1.579   1.284  0.5317  0.0785  0.7591
 3745SOL     OW14745   5.728   0.855   5.414  0.3335 -0.3347 -0.1255
 3745SOL    HW214746   5.661   0.805   5.368  1.4713 -0.8569 -1.2588
 3745SOL    HW314747   5.802   0.796   5.421  0.6289  0.1620  1.3113
 3745SOL    MW414748   5.729   0.841   5.409  0.5226 -0.3380 -0.0854
 3746SOL     OW14749   5.559   1.061   2.117  0.1508  0.3635  0.1871
 3746SOL    HW214750   5.547   1.084   2.025 -0.4274  0.1210  0.1990
 3746SOL    HW314751   5.471   1.045   2.150  0.5084 -2.1049  0.1406
 3746SOL    MW414752   5.546   1.062   2.109  0.1217  0.0058  0.1825
 3747SOL     OW14753   3.539   2.524   2.071  0.0403 -0.0199  0.2396
 3747SOL    HW214754   3.447   2.548   2.060 -0.3940 -0.5048  2.3732
 3747SOL    HW314755   3.560   2.472   1.993 -0.4657  2.8421 -1.9336
 3747SOL    MW414756   3.530   2.520   2.059 -0.0837  0.2938  0.2344
 3748SOL     OW14757   1.128   5.455   2.471  0.3449 -0.0873  0.0208
 3748SOL    HW214758   1.220   5.455   2.497  0.6037  0.3447 -0.8924
 3748SOL    HW314759   1.080   5.454   2.554  1.1600 -1.3436  0.5082
 3748SOL    MW414760   1.134   5.455   2.486  0.4866 -0.1960 -0.0354
 3749SOL     OW14761   2.846   5.557   3.233  0.2127  0.0031 -0.4641
 3749SOL    HW214762   2.929   5.510   3.227  0.9327  1.0367  0.9617
 3749SOL    HW314763   2.795   5.507   3.297 -0.3621 -0.7015 -1.4267
 3749SOL    MW414764   2.850   5.544   3.241  0.2319  0.0465 -0.4030
 3750SOL     OW14765   6.319   6.327   1.663 -0.0482  0.3856  0.2025
 3750SOL    HW214766   6.239   6.310   1.614 -0.0069 -0.6488  0.4761
 3750SOL    HW314767   6.292   6.388   1.732 -0.8090 -0.6609  0.8489
 3750SOL    MW414768   6.305   6.333   1.666 -0.1431  0.1111  0.3239
 3751SOL     OW14769   1.523   4.561   2.958 -0.3134 -0.2109  0.3860
 3751SOL    HW214770   1.610   4.599   2.972  1.3735 -3.6843  0.3604
 3751SOL    HW314771   1.505   4.515   3.040 -0.9913 -1.5482 -0.4911
 3751SOL    MW414772   1.532   4.560   2.971 -0.1802 -0.8456  0.2669
 3752SOL     OW14773   6.228   5.437   2.112 -0.4189 -0.0136 -0.3206
 3752SOL    HW214774   6.180   5.518   2.130 -0.4426  0.4463 -2.3021
 3752SOL    HW314775   6.315   5.466   2.084 -0.8615 -0.5720 -2.3973
 3752SOL    MW414776   6.233   5.452   2.111 -0.4804 -0.0266 -0.8560
 3753SOL     OW14777   3.015   5.877   5.626 -0.0660 -0.0560  0.1412
 3753SOL    HW214778   2.932   5.848   5.588  0.4386 -2.1393  0.4908
 3753SOL    HW314779   3.082   5.826   5.580  0.9799  1.1156  0.3154
 3753SOL    MW414780   3.013   5.866   5.615  0.1386 -0.1763  0.2103
 3754SOL     OW14781   2.187   2.115   1.965 -0.0742 -0.1989  0.1640
 3754SOL    HW214782   2.265   2.072   1.929 -1.3049 -1.7384 -0.7944
 3754SOL    HW314783   2.186   2.202   1.926  1.1012 -0.1903  0.1253
 3754SOL    MW414784   2.197   2.120   1.955 -0.0815 -0.4009  0.0325
 3755SOL     OW14785   5.476   4.852   4.644  0.2345 -0.0810 -0.0123
 3755SOL    HW214786   5.504   4.772   4.690 -0.0780 -1.6600 -2.4077
 3755SOL    HW314787   5.486   4.831   4.551  1.2949  3.1471 -0.7303
 3755SOL    MW414788   5.481   4.838   4.638  0.3332  0.1366 -0.4231
 3756SOL     OW14789   0.686   3.896   4.287 -0.0319 -0.3877 -0.2226
 3756SOL    HW214790   0.759   3.952   4.258  1.1601 -1.6075  0.2953
 3756SOL    HW314791   0.680   3.828   4.221  0.3155 -1.1452  0.5078
 3756SOL    MW414792   0.695   3.895   4.274  0.1712 -0.6486 -0.0579
 3757SOL     OW14793   0.926   4.732   0.306  0.0420 -0.6016  0.0391
 3757SOL    HW214794   0.922   4.667   0.377 -1.3752  1.0658  1.5680
 3757SOL    HW314795   0.978   4.803   0.342 -2.9150  1.4719  0.5794
 3757SOL    MW414796   0.933   4.733   0.320 -0.5351 -0.1081  0.3121
 3758SOL     OW14797   1.622   3.321   2.199  0.3821  0.6036  0.7807
 3758SOL    HW214798   1.674   3.275   2.265  0.5156 -1.7560 -0.8490
 3758SOL    HW314799   1.537   3.277   2.201 -0.2464  1.7695  0.6530
 3758SOL    MW414800   1.618   3.309   2.208  0.3168  0.4461  0.5488
 3759SOL     OW14801   0.480   0.640   5.815  0.4243  0.4978  0.0653
 3759SOL    HW214802   0.509   0.571   5.754  1.4250 -0.9777  2.0746
 3759SOL    HW314803   0.387   0.625   5.825  0.9246 -1.9031  1.9253
 3759SOL    MW414804   0.472   0.629   5.808  0.6224 -0.0136  0.5758
 3760SOL     OW14805   1.723   2.698   4.444 -0.0390 -0.0180 -0.5339
 3760SOL    HW214806   1.708   2.648   4.524  2.5114  0.8505  0.5728
 3760SOL    HW314807   1.688   2.785   4.464 -1.1212 -0.2961 -1.1132
 3760SOL    MW414808   1.716   2.703   4.457  0.1547  0.0599 -0.4643
 3761SOL     OW14809   5.333   3.516   2.953 -1.5484 -0.3919  0.3808
 3761SOL    HW214810   5.410   3.491   3.004  1.1509 -0.2575 -3.2132
 3761SOL    HW314811   5.284   3.434   2.943 -0.1163 -1.2555  0.1035
 3761SOL    MW414812   5.336   3.502   2.958 -1.0033 -0.4881 -0.1300
 3762SOL     OW14813   1.780   5.791   0.785  0.3380  0.2292 -0.3337
 3762SOL    HW214814   1.694   5.832   0.780 -0.4820 -1.5140 -1.7317
 3762SOL    HW314815   1.770   5.722   0.851  0.5893 -0.0883 -0.6191
 3762SOL    MW414816   1.768   5.787   0.793  0.2630 -0.0427 -0.5558
 3763SOL     OW14817   3.898   3.221   0.096  0.0027 -0.0053 -0.2089
 3763SOL    HW214818   3.908   3.295   0.155 -0.6749  1.1805 -1.5309
 3763SOL    HW314819   3.821   3.174   0.129  0.1119  0.1840  0.3202
 3763SOL    MW414820   3.889   3.224   0.108 -0.0723  0.1761 -0.3135
 3764SOL     OW14821   4.675   3.369   5.541 -0.1275 -0.2658  0.2363
 3764SOL    HW214822   4.584   3.382   5.566 -0.1984 -1.1531  0.4687
 3764SOL    HW314823   4.726   3.402   5.615 -0.2162  1.0713 -0.2652
 3764SOL    MW414824   4.670   3.375   5.554 -0.1486 -0.2065  0.2008
 3765SOL     OW14825   5.485   4.600   2.777  0.4103  0.1591 -0.1148
 3765SOL    HW214826   5.566   4.605   2.827  1.7474  0.8254 -2.1855
 3765SOL    HW314827   5.512   4.620   2.687 -2.0185  0.0927 -0.9230
 3765SOL    MW414828   5.499   4.603   2.772  0.2662  0.2383 -0.4947
 3766SOL     OW14829   5.913   1.804   4.028  0.0565 -0.0353 -0.4330
 3766SOL    HW214830   5.925   1.897   4.045  1.3089 -0.3661  0.7029
 3766SOL    HW314831   5.827   1.784   4.064  1.1949  0.0183  2.6357
 3766SOL    MW414832   5.904   1.814   4.035  0.3720 -0.0719  0.1217
 3767SOL     OW14833   5.967   0.587   6.249  0.2364 -0.4770  0.0727
 3767SOL    HW214834   5.950   0.610   6.158 -0.7405  0.5802  0.5058
 3767SOL    HW314835   5.881   0.566   6.285  0.6920 -1.4915  0.6098
 3767SOL    MW414836   5.954   0.587   6.242  0.1676 -0.4714  0.2007
 3768SOL     OW14837   5.542   2.333   4.313  0.1414 -0.2050 -0.3794
 3768SOL    HW214838   5.494   2.404   4.271  1.9758  2.1139  1.1924
 3768SOL    HW314839   5.548   2.265   4.245 -0.3999  1.7420 -2.5151
 3768SOL    MW414840   5.537   2.334   4.298  0.3120  0.3578 -0.4538
 3769SOL     OW14841   3.578   0.534   3.278  0.0240 -0.5743 -0.0208
 3769SOL    HW214842   3.513   0.572   3.337 -0.2970 -1.3272  0.1292
 3769SOL    HW314843   3.616   0.608   3.232  1.1895  0.2062  2.0398
 3769SOL    MW414844   3.575   0.549   3.280  0.1354 -0.5706  0.2709
 3770SOL     OW14845   2.474   1.687   0.453  0.5186 -0.2097  0.7062
 3770SOL    HW214846   2.476   1.690   0.549  2.0054 -0.4137  0.7055
 3770SOL    HW314847   2.565   1.702   0.427  0.4631 -1.9163 -0.6200
 3770SOL    MW414848   2.487   1.690   0.462  0.7074 -0.4618  0.5312
 3771SOL     OW14849   5.832   6.460   5.469 -0.4667 -0.6622  0.3027
 3771SOL    HW214850   5.737   6.454   5.479 -0.7271  0.6179 -1.0474
 3771SOL    HW314851   5.858   6.374   5.436 -0.9628 -1.4289  1.8060
 3771SOL    MW414852   5.823   6.448   5.466 -0.5665 -0.5945  0.3229
 3772SOL     OW14853   5.250   2.688   2.630  0.5123  0.1468 -0.4588
 3772SOL    HW214854   5.314   2.699   2.700 -0.2052  1.6816 -0.0126
 3772SOL    HW314855   5.165   2.692   2.674  0.0636 -1.3486 -1.1093
 3772SOL    MW414856   5.247   2.690   2.645  0.3584  0.1520 -0.4858
 3773SOL     OW14857   1.731   2.773   0.419  0.3823  0.0448  0.0224
 3773SOL    HW214858   1.811   2.814   0.386  0.8826 -1.0929 -0.2426
 3773SOL    HW314859   1.759   2.728   0.499 -0.6553  2.1244  1.6541
 3773SOL    MW414860   1.746   2.773   0.425  0.3114  0.1690  0.2027
 3774SOL     OW14861   5.612   1.022   1.208 -0.4502  0.2616  0.7057
 3774SOL    HW214862   5.579   1.006   1.119  0.2433  4.7371 -0.5737
 3774SOL    HW314863   5.674   0.950   1.222  0.3265 -0.0135 -2.9588
 3774SOL    MW414864   5.616   1.010   1.198 -0.2562  0.8158  0.0534
 3775SOL     OW14865   4.235   1.458   0.171  0.2011  0.0448  0.6716
 3775SOL    HW214866   4.231   1.518   0.096  1.0751  0.2873  0.7978
 3775SOL    HW314867   4.300   1.498   0.229 -0.8284  0.1176  1.7967
 3775SOL    MW414868   4.243   1.472   0.169  0.1806  0.0864  0.8367
 3776SOL     OW14869   1.164   6.399   3.460 -0.7267 -0.2166 -0.7349
 3776SOL    HW214870   1.096   6.394   3.393 -1.3793 -1.5207 -0.0271
 3776SOL    HW314871   1.198   6.310   3.466 -0.6946 -0.1342  0.6424
 3776SOL    MW414872   1.159   6.386   3.452 -0.8086 -0.3778 -0.4598
 3777SOL     OW14873   3.237   4.145   2.605 -0.2868  0.1500  0.6869
 3777SOL    HW214874   3.142   4.132   2.611 -0.2692  0.3919  1.7036
 3777SOL    HW314875   3.271   4.063   2.571 -0.9509  0.3984 -0.6378
 3777SOL    MW414876   3.229   4.133   2.601 -0.3721  0.2147  0.6463
 3778SOL     OW14877   0.221   2.290   3.738 -0.2233  0.0291  0.0622
 3778SOL    HW214878   0.230   2.212   3.684  0.3938  0.7984 -0.9879
 3778SOL    HW314879   0.194   2.258   3.824  0.6638 -1.3855 -0.1628
 3778SOL    MW414880   0.219   2.276   3.742 -0.0248 -0.0560 -0.1061
 3779SOL     OW14881   2.321   0.233   3.009  0.2394 -0.2076  0.4909
 3779SOL    HW214882   2.239   0.200   3.046 -0.4708  2.1282  1.1851
 3779SOL    HW314883   2.294   0.285   2.934  1.1261  0.1768  0.4246
 3779SOL    MW414884   2.307   0.236   3.004  0.2627  0.1513  0.5738
 3780SOL     OW14885   1.699   5.764   5.765  0.3960 -0.3069 -0.4887
 3780SOL    HW214886   1.749   5.819   5.825 -0.2416  0.1216 -0.3422
 3780SOL    HW314887   1.645   5.709   5.823 -2.5227  2.1958 -0.5943
 3780SOL    MW414888   1.698   5.764   5.781 -0.0732  0.0798 -0.4833
 3781SOL     OW14889   1.753   3.593   4.723 -0.6266 -0.2124 -0.3571
 3781SOL    HW214890   1.799   3.610   4.805 -2.0182 -0.4682  0.5250
 3781SOL    HW314891   1.806   3.635   4.656  0.7329 -0.2837  0.6211
 3781SOL    MW414892   1.766   3.601   4.725 -0.6308 -0.2555 -0.1117
 3782SOL     OW14893   1.997   3.146   1.691 -0.0185 -0.0227 -0.0100
 3782SOL    HW214894   2.059   3.106   1.630 -0.8583  0.1270 -0.9922
 3782SOL    HW314895   2.024   3.237   1.697  0.0813 -0.0439 -0.1332
 3782SOL    MW414896   2.009   3.153   1.684 -0.1161 -0.0058 -0.1558
 3783SOL     OW14897   5.122   3.744   3.228 -0.0924 -0.2624 -0.3702
 3783SOL    HW214898   5.101   3.754   3.135  0.3829 -0.4366 -0.4987
 3783SOL    HW314899   5.176   3.820   3.250  0.5863 -0.7052 -0.4773
 3783SOL    MW414900   5.126   3.755   3.219  0.0599 -0.3438 -0.4013
 3784SOL     OW14901   4.649   2.216   0.934  0.1837 -0.5526  0.6794
 3784SOL    HW214902   4.676   2.128   0.962 -0.8856 -1.0587  0.1897
 3784SOL    HW314903   4.713   2.275   0.974  2.4187 -1.7146 -0.9392
 3784SOL    MW414904   4.661   2.212   0.943  0.3375 -0.7727  0.4012
 3785SOL     OW14905   1.256   1.004   1.153  0.2114 -0.0435 -0.2031
 3785SOL    HW214906   1.329   0.952   1.121  0.8817  0.8125 -0.1046
 3785SOL    HW314907   1.215   1.039   1.073  0.0506 -0.3227 -0.2461
 3785SOL    MW414908   1.260   1.002   1.138  0.2786  0.0326 -0.1958
 3786SOL     OW14909   0.517   6.413   4.976  0.4846  0.2224 -0.1631
 3786SOL    HW214910   0.540   6.506   4.974  1.5979 -0.0070  0.6051
 3786SOL    HW314911   0.489   6.393   4.887 -1.0206  1.5722 -0.0366
 3786SOL    MW414912   0.516   6.423   4.964  0.4329  0.3703 -0.0450
 3787SOL     OW14913   2.861   6.076   4.274 -0.2506 -0.4471 -0.1647
 3787SOL    HW214914   2.932   6.138   4.257  0.5135 -0.8733  1.2709
 3787SOL    HW314915   2.886   5.997   4.225 -1.1769  0.3109 -1.9173
 3787SOL    MW414916   2.874   6.073   4.265 -0.2720 -0.4033 -0.2066
 3788SOL     OW14917   0.447   2.221   3.410  0.0199  0.1776 -0.3501
 3788SOL    HW214918   0.516   2.261   3.464  0.1060  0.6890 -0.8302
 3788SOL    HW314919   0.366   2.257   3.446 -0.0048 -0.4368  0.2258
 3788SOL    MW414920   0.446   2.231   3.422  0.0280  0.1640 -0.3375
 3789SOL     OW14921   5.360   3.780   2.548 -0.0859 -0.0902 -0.1756
 3789SOL    HW214922   5.329   3.787   2.638 -0.0611 -0.5350 -0.1289
 3789SOL    HW314923   5.455   3.789   2.555 -0.1540  0.7873 -0.2642
 3789SOL    MW414924   5.369   3.782   2.561 -0.0916 -0.0331 -0.1811
 3790SOL     OW14925   0.701   5.436   0.863  0.0304 -0.0905  0.2880
 3790SOL    HW214926   0.656   5.516   0.836 -1.5588 -0.9483  0.2407
 3790SOL    HW314927   0.641   5.366   0.838  1.9419 -1.4222 -0.8531
 3790SOL    MW414928   0.687   5.437   0.856  0.0729 -0.3793  0.1312
 3791SOL     OW14929   1.272   2.746   3.425 -0.0543 -0.2989 -0.7135
 3791SOL    HW214930   1.239   2.684   3.360 -1.6457 -2.6507  2.1196
 3791SOL    HW314931   1.196   2.800   3.447  0.3359  0.1400 -0.4345
 3791SOL    MW414932   1.257   2.745   3.419 -0.2128 -0.5513 -0.3029
 3792SOL     OW14933   0.728   2.938   5.073 -0.1650  0.2450 -0.5029
 3792SOL    HW214934   0.703   2.977   4.989 -0.9617  0.9501  0.0387
 3792SOL    HW314935   0.823   2.947   5.076  0.0692 -1.3485 -2.0639
 3792SOL    MW414936   0.737   2.945   5.063 -0.2392  0.1278 -0.6374
 3793SOL     OW14937   5.977   0.844   1.664  0.1838  0.3195 -0.0803
 3793SOL    HW214938   6.051   0.857   1.604  1.8502 -1.1213  1.5409
 3793SOL    HW314939   5.936   0.930   1.670 -0.1031  0.5377 -3.2556
 3793SOL    MW414940   5.981   0.857   1.657  0.3658  0.1582 -0.2853
 3794SOL     OW14941   4.004   1.408   5.231 -0.0997 -0.0097 -0.0516
 3794SOL    HW214942   4.006   1.313   5.219  1.3888 -0.0653  0.3914
 3794SOL    HW314943   3.952   1.422   5.311  1.7258 -0.6659  1.3152
 3794SOL    MW414944   3.997   1.397   5.240  0.3376 -0.1036  0.1872
 3795SOL     OW14945   6.265   2.057   2.926 -0.3312  0.6413  0.0495
 3795SOL    HW214946   6.279   2.075   3.020  0.1798 -1.7237  0.4816
 3795SOL    HW314947   6.180   2.097   2.907 -1.3532 -0.4308  2.0215
 3795SOL    MW414948   6.256   2.065   2.936 -0.3986  0.1878  0.3667
 3796SOL     OW14949   1.634   4.032   0.086 -0.1188  0.5028  0.2939
 3796SOL    HW214950   1.655   3.939   0.080 -2.1420 -0.1993  2.2275
 3796SOL    HW314951   1.700   4.068   0.145 -0.0455 -0.0134  0.5331
 3796SOL    MW414952   1.645   4.024   0.093 -0.3760  0.3421  0.5806
 3797SOL     OW14953   3.057   3.261   1.053  0.3096  0.3135 -0.1258
 3797SOL    HW214954   3.123   3.282   1.119  0.9101  1.1544 -0.9749
 3797SOL    HW314955   3.061   3.166   1.045 -0.2566  0.1205  1.5289
 3797SOL    MW414956   3.066   3.251   1.061  0.3141  0.3990 -0.0196
 3798SOL     OW14957   2.136   2.488   0.251 -0.2335  0.4940 -0.1288
 3798SOL    HW214958   2.231   2.493   0.239 -0.1664  0.8443  0.5164
 3798SOL    HW314959   2.118   2.550   0.321 -1.2289  2.0894 -1.7163
 3798SOL    MW414960   2.146   2.497   0.259 -0.3560  0.7507 -0.2531
 3799SOL     OW14961   0.830   0.152   2.852  0.0941 -0.2936  0.5142
 3799SOL    HW214962   0.800   0.084   2.912  1.0988 -0.8654  0.4022
 3799SOL    HW314963   0.925   0.141   2.850  0.0737 -0.4271 -1.3223
 3799SOL    MW414964   0.839   0.142   2.860  0.2240 -0.3867  0.2571
 3800SOL     OW14965   5.810   0.847   1.257  0.5380  0.2913  0.2394
 3800SOL    HW214966   5.882   0.904   1.232 -0.9266  2.1682  0.0506
 3800SOL    HW314967   5.787   0.800   1.177  2.5430 -1.5755  0.6822
 3800SOL    MW414968   5.816   0.849   1.243  0.6093  0.2926  0.2729
 3801SOL     OW14969   1.444   2.671   4.048 -0.2952 -0.2081  0.1715
 3801SOL    HW214970   1.368   2.616   4.067 -0.1428 -0.7364 -0.7220
 3801SOL    HW314971   1.453   2.668   3.953  0.2576  0.6418  0.1854
 3801SOL    MW414972   1.435   2.664   4.038 -0.2021 -0.1657  0.0554
 3802SOL     OW14973   3.546   3.936   1.066 -0.1298  0.1355  0.1376
 3802SOL    HW214974   3.467   3.896   1.030  0.5119 -1.0103 -0.0270
 3802SOL    HW314975   3.550   3.906   1.156  1.6866 -2.3443 -0.6599
 3802SOL    MW414976   3.536   3.927   1.073  0.1945 -0.3429  0.0107
 3803SOL     OW14977   5.571   2.079   4.122 -0.6854  0.0938  0.6949
 3803SOL    HW214978   5.593   2.114   4.036 -2.4775 -0.7267 -0.1563
 3803SOL    HW314979   5.655   2.056   4.161  0.1844  0.7946 -0.6941
 3803SOL    MW414980   5.585   2.080   4.116 -0.8071  0.0780  0.3993
 3804SOL     OW14981   3.974   2.274   4.842 -0.4487 -0.2735 -0.1586
 3804SOL    HW214982   3.912   2.302   4.909 -0.3444  0.5566 -0.3914
 3804SOL    HW314983   3.965   2.179   4.838 -1.2921 -0.2134  0.2101
 3804SOL    MW414984   3.965   2.265   4.850 -0.5462 -0.1561 -0.1407
 3805SOL     OW14985   1.294   1.765   1.830  0.0819 -0.8080 -0.1518
 3805SOL    HW214986   1.229   1.784   1.763 -0.1648 -0.7717  0.0943
 3805SOL    HW314987   1.333   1.682   1.803  1.5201  0.2429 -1.5013
 3805SOL    MW414988   1.291   1.757   1.818  0.2391 -0.6645 -0.2974
 3806SOL     OW14989   1.366   4.887   2.950  0.0255 -0.1837  0.4978
 3806SOL    HW214990   1.363   4.863   2.857  1.2810 -0.1936  0.4457
 3806SOL    HW314991   1.307   4.825   2.993 -0.7149 -0.0545 -0.3154
 3806SOL    MW414992   1.358   4.875   2.943  0.0934 -0.1679  0.3836
 3807SOL     OW14993   5.250   1.785   1.197 -0.2040 -0.0566  0.4076
 3807SOL    HW214994   5.264   1.690   1.190 -0.5796 -0.0543 -0.5785
 3807SOL    HW314995   5.325   1.823   1.151 -0.8177  0.0716 -0.5210
 3807SOL    MW414996   5.262   1.777   1.190 -0.3345 -0.0394  0.1550
 3808SOL     OW14997   2.880   1.475   1.749  0.2448 -0.1974 -0.5379
 3808SOL    HW214998   2.900   1.523   1.830  0.4917 -1.8609  0.4401
 3808SOL    HW314999   2.897   1.383   1.771 -0.6896 -0.8054 -2.1813
 3808SOL    MW415000   2.885   1.469   1.763  0.1541 -0.4971 -0.6257
 3809SOL     OW15001   2.899   5.930   3.463 -0.7068 -0.1330  0.0700
 3809SOL    HW215002   2.824   5.985   3.440 -1.7449  0.1948  3.6190
 3809SOL    HW315003   2.930   5.965   3.546  0.7044 -2.8872  0.8189
 3809SOL    MW415004   2.893   5.942   3.471 -0.6576 -0.4531  0.6371
 3810SOL     OW15005   4.821   5.038   4.689  0.2347 -0.6460 -0.1128
 3810SOL    HW215006   4.912   5.033   4.661  0.4321 -1.8863  0.6711
 3810SOL    HW315007   4.818   5.113   4.749  1.0429 -1.3479  0.8455
 3810SOL    MW415008   4.833   5.047   4.693  0.3674 -0.9023  0.1170
 3811SOL     OW15009   4.596   5.634   1.483 -0.2444 -0.4648 -0.5909
 3811SOL    HW215010   4.598   5.538   1.484  0.1164 -0.4599 -0.4167
 3811SOL    HW315011   4.561   5.657   1.397  0.6297 -0.7464 -1.0383
 3811SOL    MW415012   4.592   5.624   1.472 -0.0815 -0.5013 -0.6269
 3812SOL     OW15013   2.584   0.266   4.453 -0.3979  0.4638  0.0033
 3812SOL    HW215014   2.561   0.263   4.360 -0.7248 -0.4563  0.1073
 3812SOL    HW315015   2.679   0.277   4.454 -0.4888  1.3519 -0.4342
 3812SOL    MW415016   2.594   0.267   4.441 -0.4531  0.4596 -0.0407
 3813SOL     OW15017   1.163   1.416   6.349 -1.0746 -0.1659  0.5214
 3813SOL    HW215018   1.132   1.504   6.328 -0.4704  0.1330  0.8755
 3813SOL    HW315019   1.218   1.392   6.274 -1.6735 -0.4727  0.1631
 3813SOL    MW415020   1.166   1.425   6.336 -1.0739 -0.1669  0.5208
 3814SOL     OW15021   1.954   1.854   5.492 -0.2868 -0.6523 -0.0936
 3814SOL    HW215022   1.948   1.762   5.519 -0.0056 -1.1174 -1.5646
 3814SOL    HW315023   1.948   1.852   5.397 -0.1385  0.8526 -0.1564
 3814SOL    MW415024   1.953   1.842   5.483 -0.2301 -0.5151 -0.2959
 3815SOL     OW15025   1.451   0.507   6.418 -0.2417  0.1035 -0.7058
 3815SOL    HW215026   1.452   0.489   6.512  0.0598 -0.7276 -0.8626
 3815SOL    HW315027   1.403   0.589   6.410 -2.9577 -1.3010 -0.0579
 3815SOL    MW415028   1.445   0.516   6.430 -0.5602 -0.1914 -0.6410
 3816SOL     OW15029   6.009   1.549   3.113 -0.0699  0.2072 -0.5481
 3816SOL    HW215030   5.969   1.548   3.026 -1.1771  1.1689 -0.0758
 3816SOL    HW315031   5.947   1.599   3.167  0.9852  0.3031  0.6030
 3816SOL    MW415032   5.995   1.555   3.108 -0.0768  0.3468 -0.3339
 3817SOL     OW15033   1.704   4.674   0.576  0.3132  0.9915  0.1363
 3817SOL    HW215034   1.678   4.589   0.539  0.8829  0.2457  1.3995
 3817SOL    HW315035   1.695   4.663   0.671  2.0805  1.7617  0.4287
 3817SOL    MW415036   1.699   4.661   0.584  0.6216  0.9947  0.3415
 3818SOL     OW15037   0.957   3.643   4.428 -0.3944  0.1501  0.2121
 3818SOL    HW215038   1.008   3.687   4.496  0.7332  3.6015 -2.5459
 3818SOL    HW315039   0.868   3.679   4.438 -0.4656 -0.0953  0.4582
 3818SOL    MW415040   0.952   3.654   4.438 -0.2550  0.5731 -0.1194
 3819SOL     OW15041   4.807   0.727   2.852  0.0299  0.0533 -0.4404
 3819SOL    HW215042   4.839   0.806   2.808 -0.1581  0.4031  0.0490
 3819SOL    HW315043   4.811   0.659   2.784  4.6463 -0.7188  0.2743
 3819SOL    MW415044   4.812   0.729   2.837  0.6142 -0.0024 -0.2816
 3820SOL     OW15045   5.242   0.788   3.526 -0.2360  0.4929 -0.3666
 3820SOL    HW215046   5.323   0.753   3.489  0.5361  1.5801  0.2120
 3820SOL    HW315047   5.178   0.781   3.455  0.1147 -1.1504 -0.5698
 3820SOL    MW415048   5.245   0.783   3.512 -0.0879  0.4195 -0.3171
 3821SOL     OW15049   1.988   4.119   5.059 -0.3050  0.4889 -0.4903
 3821SOL    HW215050   1.930   4.069   5.116  0.2364 -0.4203 -0.7253
 3821SOL    HW315051   2.074   4.113   5.101  0.0881 -0.1576 -1.3734
 3821SOL    MW415052   1.992   4.112   5.072 -0.1817  0.2837 -0.6378
 3822SOL     OW15053   5.255   5.225   0.780 -0.7292  0.2681  0.0304
 3822SOL    HW215054   5.334   5.176   0.804 -0.5421  1.5100  2.1259
 3822SOL    HW315055   5.236   5.279   0.856 -2.4433  1.5247 -1.2245
 3822SOL    MW415056   5.263   5.225   0.793 -0.9307  0.5978  0.1413
 3823SOL     OW15057   4.249   5.263   4.213 -0.0558 -0.0111 -0.0044
 3823SOL    HW215058   4.298   5.296   4.138 -1.0881 -0.9936 -1.1421
 3823SOL    HW315059   4.229   5.172   4.192 -0.1336 -0.4066  1.5970
 3823SOL    MW415060   4.253   5.255   4.201 -0.2023 -0.1929  0.0568
 3824SOL     OW15061   0.107   1.626   0.647 -0.5566  0.3272  0.0396
 3824SOL    HW215062   0.136   1.542   0.684  2.6521  0.4981 -1.7482
 3824SOL    HW315063   0.068   1.603   0.563 -0.2489  0.5420 -0.1661
 3824SOL    MW415064   0.106   1.611   0.641 -0.0927  0.3781 -0.2234
 3825SOL     OW15065   5.461   2.103   5.695  0.1264  0.0744  0.4354
 3825SOL    HW215066   5.386   2.158   5.675 -0.0543 -0.4117 -0.2595
 3825SOL    HW315067   5.455   2.030   5.634  0.7772 -0.3339  0.8368
 3825SOL    MW415068   5.451   2.100   5.685  0.1884 -0.0436  0.3967
 3826SOL     OW15069   1.324   6.024   2.802  0.1953  0.1363  0.1687
 3826SOL    HW215070   1.355   6.025   2.711 -1.2187  1.3734 -0.3477
 3826SOL    HW315071   1.367   6.100   2.842  0.6603 -0.2927  0.5027
 3826SOL    MW415072   1.334   6.034   2.795  0.0701  0.2429  0.1446
 3827SOL     OW15073   1.080   4.606   4.154 -0.5237  0.0843 -0.1810
 3827SOL    HW215074   1.133   4.528   4.135  1.3000  1.3800 -0.7176
 3827SOL    HW315075   1.128   4.650   4.224 -2.3759 -0.0211  1.2207
 3827SOL    MW415076   1.093   4.601   4.161 -0.5274  0.2413 -0.0668
 3828SOL     OW15077   5.732   3.150   0.755  0.4563 -0.5170 -0.6688
 3828SOL    HW215078   5.658   3.182   0.703 -0.1374  1.4989  1.2774
 3828SOL    HW315079   5.808   3.194   0.718  0.0368  0.9180  0.1080
 3828SOL    MW415080   5.732   3.160   0.743  0.3226 -0.0617 -0.3096
 3829SOL     OW15081   4.511   5.470   4.917  0.0978  0.2256 -0.1156
 3829SOL    HW215082   4.538   5.394   4.866  0.0471  1.7840 -2.6619
 3829SOL    HW315083   4.522   5.443   5.008  3.0202 -1.7908 -0.9066
 3829SOL    MW415084   4.516   5.456   4.922  0.4767  0.1652 -0.5559
 3830SOL     OW15085   4.008   6.253   1.266 -0.1038 -0.0960  0.2354
 3830SOL    HW215086   4.089   6.228   1.311 -0.8286 -1.0940  1.0550
 3830SOL    HW315087   3.942   6.192   1.301 -0.5095 -1.7958 -3.0706
 3830SOL    MW415088   4.010   6.241   1.277 -0.2530 -0.4519 -0.0927
 3831SOL     OW15089   1.126   4.687   6.314 -0.0834 -0.1555  0.4441
 3831SOL    HW215090   1.111   4.725   6.228  1.5927  0.2099  0.2808
 3831SOL    HW315091   1.063   4.614   6.319  1.3808 -1.7561 -2.1109
 3831SOL    MW415092   1.116   4.682   6.304  0.3309 -0.3185  0.0854
 3832SOL     OW15093   4.140   3.695   5.940 -0.1927  0.1615 -0.6626
 3832SOL    HW215094   4.177   3.738   6.017 -1.2599  1.6129 -0.9101
 3832SOL    HW315095   4.093   3.765   5.894 -0.8633 -1.0025 -1.8215
 3832SOL    MW415096   4.139   3.710   5.944 -0.4220  0.1994 -0.8482
 3833SOL     OW15097   0.352   3.998   1.582 -0.7556 -0.0108  0.5480
 3833SOL    HW215098   0.289   3.940   1.539  0.3566 -1.1060  0.3365
 3833SOL    HW315099   0.298   4.060   1.632 -2.0388  0.3199 -1.1594
 3833SOL    MW415100   0.336   3.999   1.583 -0.7782 -0.1117  0.2948
 3834SOL     OW15101   6.260   5.282   1.399  0.3800  0.0104  0.4257
 3834SOL    HW215102   6.277   5.292   1.305 -0.9456 -1.8216 -0.0644
 3834SOL    HW315103   6.167   5.259   1.404  0.6841 -1.0334  2.0950
 3834SOL    MW415104   6.250   5.280   1.387  0.2452 -0.3690  0.5812
 3835SOL     OW15105   2.950   4.428   1.646  0.5156 -0.2232 -0.4474
 3835SOL    HW215106   2.909   4.360   1.699 -0.7454  1.3142  0.6745
 3835SOL    HW315107   3.030   4.450   1.693 -0.0970  0.4341  0.3291
 3835SOL    MW415108   2.955   4.422   1.659  0.2684  0.0663 -0.1969
 3836SOL     OW15109   6.194   3.157   1.681 -0.1696 -0.1197  0.2717
 3836SOL    HW215110   6.265   3.099   1.656 -2.0023 -2.7218  0.7373
 3836SOL    HW315111   6.174   3.207   1.602  1.2194 -0.3442 -0.2401
 3836SOL    MW415112   6.201   3.156   1.667 -0.2281 -0.4927  0.2656
 3837SOL     OW15113   3.831   0.338   3.548 -0.2474  0.0258  0.6981
 3837SOL    HW215114   3.781   0.305   3.473 -0.5026  2.0798 -0.0974
 3837SOL    HW315115   3.903   0.387   3.508 -0.0189  0.6056  1.8063
 3837SOL    MW415116   3.834   0.340   3.533 -0.2509  0.3733  0.7394
 3838SOL     OW15117   5.886   4.820   2.328  0.0038 -0.2719  0.0628
 3838SOL    HW215118   5.963   4.859   2.288 -1.2346  0.4608 -1.7598
 3838SOL    HW315119   5.838   4.781   2.255 -0.3624 -2.5423  1.4216
 3838SOL    MW415120   5.889   4.820   2.313 -0.2079 -0.4748  0.0016
 3839SOL     OW15121   4.697   2.437   4.341 -0.3731  0.1335  0.0291
 3839SOL    HW215122   4.604   2.416   4.328 -0.3261  0.5236 -1.0003
 3839SOL    HW315123   4.695   2.520   4.389 -0.5534  0.2295 -0.1430
 3839SOL    MW415124   4.684   2.445   4.346 -0.3907  0.1976 -0.1294
 3840SOL     OW15125   2.588   0.398   3.767 -0.0413  0.6039  0.5622
 3840SOL    HW215126   2.499   0.413   3.799  0.1097  0.3586  1.1231
 3840SOL    HW315127   2.641   0.464   3.812  0.0874  0.6246  0.3803
 3840SOL    MW415128   2.584   0.409   3.777 -0.0044  0.5742  0.6122
 3841SOL     OW15129   6.263   2.206   0.809  0.7034 -0.4635  0.5570
 3841SOL    HW215130   6.215   2.133   0.849  0.8913  0.1703  2.0086
 3841SOL    HW315131   6.354   2.191   0.832  0.7091  0.3679  1.1270
 3841SOL    MW415132   6.269   2.195   0.817  0.7289 -0.2702  0.8237
 3842SOL     OW15133   5.267   4.686   5.425 -0.2017 -0.2123 -0.0382
 3842SOL    HW215134   5.295   4.734   5.348  0.5145 -0.5615 -0.0012
 3842SOL    HW315135   5.318   4.605   5.423 -1.2296 -0.8899  0.0114
 3842SOL    MW415136   5.277   4.682   5.415 -0.2428 -0.3478 -0.0267
 3843SOL     OW15137   4.726   4.187   0.026 -0.2521 -0.1354  0.6499
 3843SOL    HW215138   4.798   4.207  -0.034 -1.2771  2.3108  0.0864
 3843SOL    HW315139   4.676   4.119  -0.018  0.1917  0.1139 -0.2656
 3843SOL    MW415140   4.729   4.181   0.012 -0.3288  0.2203  0.4548
 3844SOL     OW15141   0.431   5.994   4.592  0.2009  1.1092 -0.9014
 3844SOL    HW215142   0.399   5.914   4.632  0.1986 -0.5701 -3.9508
 3844SOL    HW315143   0.440   6.056   4.665 -0.7121 -1.3195  1.4291
 3844SOL    MW415144   0.428   5.992   4.607  0.0801  0.5672 -0.9962
 3845SOL     OW15145   1.217   4.860   6.052  0.1539  0.3978 -0.1241
 3845SOL    HW215146   1.209   4.814   5.968 -2.6815  1.8566 -0.7904
 3845SOL    HW315147   1.300   4.907   6.046  0.0415  0.4448 -2.1424
 3845SOL    MW415148   1.227   4.860   6.040 -0.2350  0.5965 -0.4783
 3846SOL     OW15149   4.500   4.646   2.965  0.2139  0.6156  0.7163
 3846SOL    HW215150   4.479   4.617   3.054 -0.6208  1.0823  0.6801
 3846SOL    HW315151   4.415   4.658   2.923  0.6003  0.1836 -0.2209
 3846SOL    MW415152   4.486   4.644   2.971  0.1547  0.6202  0.5879
 3847SOL     OW15153   4.229   5.011   4.070  0.2175 -0.2324  0.1923
 3847SOL    HW215154   4.164   4.948   4.039  0.0998  0.3399 -0.7646
 3847SOL    HW315155   4.311   4.981   4.030  0.4083 -0.5285  0.8005
 3847SOL    MW415156   4.232   4.998   4.060  0.2271 -0.1959  0.1463
 3848SOL     OW15157   0.287   2.286   2.251 -0.3646 -0.2936  0.4002
 3848SOL    HW215158   0.338   2.354   2.296 -0.5795  0.1761 -0.0501
 3848SOL    HW315159   0.221   2.335   2.202 -1.9082 -0.9239  1.7399
 3848SOL    MW415160   0.285   2.302   2.251 -0.5966 -0.3148  0.5175
 3849SOL     OW15161   5.408   3.434   2.679  0.1848  0.2167  0.2605
 3849SOL    HW215162   5.411   3.461   2.771  1.5932  3.5858 -0.6241
 3849SOL    HW315163   5.315   3.441   2.655 -0.0487  0.3278  1.1603
 3849SOL    MW415164   5.396   3.439   2.688  0.3398  0.6758  0.2625
 3850SOL     OW15165   4.436   4.877   3.481 -0.0093  0.4465 -0.2542
 3850SOL    HW215166   4.361   4.822   3.457  1.1473 -1.0918 -0.4955
 3850SOL    HW315167   4.502   4.858   3.415  0.5505  1.9389 -0.1695
 3850SOL    MW415168   4.435   4.867   3.469  0.2172  0.4405 -0.2748
 3851SOL     OW15169   0.010   3.862   2.893  0.1787  0.7755 -0.3565
 3851SOL    HW215170   0.039   3.921   2.963  1.2424 -0.0986 -0.0501
 3851SOL    HW315171   0.080   3.798   2.884 -0.0595  0.7189 -2.0674
 3851SOL    MW415172   0.023   3.861   2.901  0.2876  0.6527 -0.5418
 3852SOL     OW15173   1.612   2.029   4.196  0.7587 -0.5427  0.2547
 3852SOL    HW215174   1.703   2.019   4.223  1.1095  0.1567 -0.6386
 3852SOL    HW315175   1.596   2.123   4.200  0.8458 -0.3901 -1.9619
 3852SOL    MW415176   1.622   2.040   4.200  0.8165 -0.4303 -0.1556
 3853SOL     OW15177   3.482   5.426   3.256  0.5428 -0.1067 -0.0449
 3853SOL    HW215178   3.480   5.433   3.161 -0.3783  1.2025  0.0383
 3853SOL    HW315179   3.396   5.391   3.280  0.0447  1.3455  0.3888
 3853SOL    MW415180   3.471   5.422   3.247  0.3556  0.2576  0.0233
 3854SOL     OW15181   4.976   1.728   0.946 -0.0662 -0.1520 -0.4038
 3854SOL    HW215182   4.971   1.636   0.972 -2.3622 -0.0553 -0.2363
 3854SOL    HW315183   4.889   1.747   0.910  0.2279  2.0630 -0.0875
 3854SOL    MW415184   4.964   1.718   0.944 -0.3304  0.1530 -0.3400
 3855SOL     OW15185   1.300   4.440   1.603  0.1952 -0.7116  0.2926
 3855SOL    HW215186   1.305   4.383   1.680  1.5701 -1.5075 -0.3286
 3855SOL    HW315187   1.297   4.529   1.638 -0.7210 -1.1143  1.2703
 3855SOL    MW415188   1.301   4.444   1.618  0.2557 -0.8697  0.3397
 3856SOL     OW15189   3.993   1.409   0.257  0.1315 -0.1194 -0.1920
 3856SOL    HW215190   4.077   1.427   0.214  0.9963 -0.8007  1.1058
 3856SOL    HW315191   3.927   1.427   0.191  1.0936  3.3347 -0.4055
 3856SOL    MW415192   3.996   1.414   0.243  0.3725  0.2464 -0.0489
 3857SOL     OW15193   2.221   0.746   2.261  0.2353  0.2572 -0.6514
 3857SOL    HW215194   2.255   0.660   2.285 -0.2425  1.0011  3.1923
 3857SOL    HW315195   2.279   0.775   2.190  2.6219 -1.7412  0.3332
 3857SOL    MW415196   2.233   0.739   2.255  0.4871  0.0917 -0.0143
 3858SOL     OW15197   0.847   4.260   1.515 -0.1501  0.1178  0.1546
 3858SOL    HW215198   0.847   4.249   1.610  2.1873 -0.0945  0.1707
 3858SOL    HW315199   0.900   4.338   1.500  0.8305 -0.7356 -1.0313
 3858SOL    MW415200   0.854   4.269   1.526  0.2876 -0.0228  0.0003
 3859SOL     OW15201   6.360   5.864   1.036  0.1227 -0.3628  0.9307
 3859SOL    HW215202   6.426   5.889   0.971  0.2761 -2.4163  0.2521
 3859SOL    HW315203   6.328   5.948   1.070  2.5065  0.7242  0.7263
 3859SOL    MW415204   6.364   5.879   1.032  0.4574 -0.4903  0.8142
 3860SOL     OW15205   1.746   5.274   1.889  0.3184  0.3421 -0.0837
 3860SOL    HW215206   1.697   5.199   1.922  1.0579  0.1433  0.6049
 3860SOL    HW315207   1.726   5.277   1.795  1.2900 -1.5256 -0.3988
 3860SOL    MW415208   1.737   5.265   1.881  0.5442  0.0694 -0.0345
 3861SOL     OW15209   2.033   3.108   5.959 -0.3325 -0.2725 -0.1202
 3861SOL    HW215210   2.074   3.023   5.947  1.0376  0.5316 -1.4642
 3861SOL    HW315211   2.067   3.162   5.888 -0.2459  1.7401  1.3328
 3861SOL    MW415212   2.043   3.104   5.948 -0.1403  0.0991 -0.1058
 3862SOL     OW15213   4.354   5.900   4.198 -0.1692  0.3418  0.3056
 3862SOL    HW215214   4.319   5.940   4.118  0.3008 -0.6014 -0.3951
 3862SOL    HW315215   4.373   5.809   4.173 -1.7825 -0.5442  1.9964
 3862SOL    MW415216   4.352   5.893   4.184 -0.3200  0.1005  0.4362
 3863SOL     OW15217   3.144   1.179   1.097 -0.3036  0.3800 -0.0663
 3863SOL    HW215218   3.201   1.164   1.172  0.0245  0.7314 -0.2452
 3863SOL    HW315219   3.065   1.217   1.135 -0.2947  0.1921  0.1438
 3863SOL    MW415220   3.141   1.182   1.112 -0.2591  0.4016 -0.0622
 3864SOL     OW15221   6.095   0.823   6.398 -0.2379 -0.7527 -0.1271
 3864SOL    HW215222   6.035   0.761   6.355 -0.2806  0.0539 -1.2423
 3864SOL    HW315223   6.182   0.790   6.377 -0.2625 -0.9550  0.0731
 3864SOL    MW415224   6.099   0.810   6.390 -0.2468 -0.6729 -0.2478
 3865SOL     OW15225   4.360   5.103   1.061  0.1756 -0.6497  0.0376
 3865SOL    HW215226   4.374   5.035   1.127 -2.8417  0.1559  1.7201
 3865SOL    HW315227   4.298   5.064   0.999  2.0430 -0.9562 -1.7674
 3865SOL    MW415228   4.354   5.089   1.061  0.0239 -0.5838  0.0214
 3866SOL     OW15229   2.339   0.529   5.399 -0.1779  0.4456  0.3997
 3866SOL    HW215230   2.299   0.513   5.313 -0.3656  2.5082  0.0351
 3866SOL    HW315231   2.293   0.470   5.458 -0.6522 -0.3974 -0.7778
 3866SOL    MW415232   2.327   0.519   5.396 -0.2652  0.6065  0.1962
 3867SOL     OW15233   1.495   2.199   1.125  0.4944 -0.4499  0.2327
 3867SOL    HW215234   1.576   2.221   1.170  0.2788  1.8090 -0.3583
 3867SOL    HW315235   1.471   2.279   1.077 -1.6698 -1.2896 -0.2361
 3867SOL    MW415236   1.502   2.213   1.124  0.1804 -0.2627  0.0929
 3868SOL     OW15237   3.646   0.096   5.668 -0.0412 -0.3839 -0.1619
 3868SOL    HW215238   3.698   0.015   5.665 -0.1513 -0.5120  1.0187
 3868SOL    HW315239   3.567   0.076   5.617 -0.3994 -1.2697  0.7167
 3868SOL    MW415240   3.643   0.083   5.661 -0.1029 -0.5177  0.1098
 3869SOL     OW15241   0.449   5.531   5.476  0.2515  0.3793  0.5528
 3869SOL    HW215242   0.367   5.528   5.525  0.0596 -1.4388  0.1747
 3869SOL    HW315243   0.513   5.492   5.536 -0.1308 -2.5778 -0.8061
 3869SOL    MW415244   0.447   5.526   5.491  0.1758 -0.2507  0.3237
 3870SOL     OW15245   2.590   0.238   4.185  0.1703  0.3531  0.1204
 3870SOL    HW215246   2.524   0.195   4.131  0.3234 -0.8182  0.8178
 3870SOL    HW315247   2.673   0.220   4.139  0.0645  1.3906 -0.4899
 3870SOL    MW415248   2.593   0.230   4.172  0.1765  0.3355  0.1319
 3871SOL     OW15249   3.386   0.832   2.779 -0.0131 -0.4705  0.3473
 3871SOL    HW215250   3.477   0.824   2.805 -0.4443 -1.9682  1.5665
 3871SOL    HW315251   3.371   0.756   2.722 -0.7009 -0.7435  0.8683
 3871SOL    MW415252   3.396   0.821   2.775 -0.1608 -0.7041  0.5769
 3872SOL     OW15253   1.028   1.987   6.079  0.1792  0.2280 -0.1068
 3872SOL    HW215254   1.067   2.048   6.015  0.5117  2.2648  1.9203
 3872SOL    HW315255   1.099   1.967   6.139 -0.2572 -1.2672 -0.0658
 3872SOL    MW415256   1.042   1.993   6.078  0.1655  0.2995  0.1660
 3873SOL     OW15257   1.216   5.197   3.586 -0.1702  0.1596 -0.2792
 3873SOL    HW215258   1.228   5.267   3.650 -0.5666  0.3939 -0.4604
 3873SOL    HW315259   1.195   5.242   3.504  0.4561 -0.1306 -0.6121
 3873SOL    MW415260   1.215   5.212   3.583 -0.1398  0.1522 -0.3470
 3874SOL     OW15261   2.748   4.964   3.972  0.1445 -0.4700 -0.1844
 3874SOL    HW215262   2.823   4.910   3.950  1.5233  1.4899 -0.5775
 3874SOL    HW315263   2.749   5.034   3.906 -0.7520  0.7594  1.0424
 3874SOL    MW415264   2.758   4.966   3.960  0.2081 -0.0492 -0.0744
 3875SOL     OW15265   3.198   4.641   1.409 -0.0284 -0.3267 -0.2296
 3875SOL    HW215266   3.222   4.651   1.316 -1.0027 -0.3645 -0.5029
 3875SOL    HW315267   3.104   4.658   1.410  0.1422  0.6143  0.9141
 3875SOL    MW415268   3.189   4.644   1.397 -0.1344 -0.2075 -0.1148
 3876SOL     OW15269   1.601   2.299   5.220 -0.0801 -0.5281 -0.4924
 3876SOL    HW215270   1.684   2.255   5.239 -0.4365 -0.7299  0.6999
 3876SOL    HW315271   1.606   2.323   5.127  2.2067  1.4129  0.0486
 3876SOL    MW415272   1.612   2.296   5.210  0.1746 -0.2986 -0.2637
 3877SOL     OW15273   5.669   3.963   1.310 -0.2301  0.4190  0.1543
 3877SOL    HW215274   5.599   3.913   1.268  0.9356  0.0641 -1.4749
 3877SOL    HW315275   5.681   4.040   1.254 -1.1181  1.9075  1.9232
 3877SOL    MW415276   5.661   3.966   1.297 -0.1934  0.5685  0.1727
 3878SOL     OW15277   2.200   5.115   4.202  0.2016 -0.3852 -0.0429
 3878SOL    HW215278   2.265   5.106   4.133 -0.0483 -2.1661 -0.0753
 3878SOL    HW315279   2.250   5.105   4.283  0.5461  2.0006  0.1090
 3878SOL    MW415280   2.215   5.113   4.204  0.2141 -0.3054 -0.0271
 3879SOL     OW15281   1.870   1.363   0.122  0.4100  0.3646  0.1252
 3879SOL    HW215282   1.950   1.411   0.146 -0.5376  0.5086  3.5228
 3879SOL    HW315283   1.807   1.431   0.098  0.6146  0.4175 -0.2665
 3879SOL    MW415284   1.872   1.378   0.122  0.3119  0.3905  0.5218
 3880SOL     OW15285   2.301   2.435   5.348  0.2084 -0.0101  0.5674
 3880SOL    HW215286   2.220   2.392   5.374  0.4296 -0.2078  0.9331
 3880SOL    HW315287   2.331   2.385   5.272 -1.4660  1.7514 -1.3959
 3880SOL    MW415288   2.294   2.423   5.341  0.0167  0.1963  0.3566
 3881SOL     OW15289   2.042   2.628   1.967  0.6660 -0.5619 -0.0120
 3881SOL    HW215290   1.957   2.655   1.934  0.5279 -1.2413 -0.2291
 3881SOL    HW315291   2.079   2.707   2.006 -0.3178 -0.4135  0.6435
 3881SOL    MW415292   2.036   2.642   1.968  0.5180 -0.6320  0.0459
 3882SOL     OW15293   3.023   0.896   2.047  0.2102 -0.1973  0.7222
 3882SOL    HW215294   3.025   0.843   2.127  0.1254 -0.6660  0.4180
 3882SOL    HW315295   2.968   0.845   1.987  0.4225  0.0656  0.3055
 3882SOL    MW415296   3.016   0.882   2.050  0.2271 -0.2244  0.6271
 3883SOL     OW15297   2.722   1.774   0.332  0.6342  0.0054 -0.2802
 3883SOL    HW215298   2.680   1.827   0.264  0.2927  0.6579  0.4198
 3883SOL    HW315299   2.763   1.702   0.285  1.0124  0.8409 -1.2434
 3883SOL    MW415300   2.722   1.771   0.317  0.6390  0.2017 -0.3149
 3884SOL     OW15301   2.713   2.567   5.798  0.4776 -0.0379  0.6481
 3884SOL    HW215302   2.716   2.531   5.710  3.0269  1.9804 -0.1922
 3884SOL    HW315303   2.732   2.492   5.855 -2.6862 -1.7026 -0.2637
 3884SOL    MW415304   2.716   2.552   5.794  0.3965  0.0087  0.4169
 3885SOL     OW15305   4.610   3.173   0.653  0.4790 -0.6357 -0.4409
 3885SOL    HW215306   4.581   3.255   0.615  0.6119 -0.2462  0.2937
 3885SOL    HW315307   4.700   3.190   0.682  0.8259 -1.2982 -1.0647
 3885SOL    MW415308   4.618   3.186   0.652  0.5423 -0.6717 -0.4263
 3886SOL     OW15309   2.036   4.568   2.111 -0.4529  0.0732 -0.6524
 3886SOL    HW215310   2.033   4.503   2.181  0.1411  0.2677 -0.4394
 3886SOL    HW315311   2.052   4.517   2.031 -1.3647 -0.1716 -0.6906
 3886SOL    MW415312   2.038   4.553   2.110 -0.4948  0.0666 -0.6294
 3887SOL     OW15313   4.210   3.340   4.818 -0.3148 -0.3547  0.4450
 3887SOL    HW215314   4.271   3.414   4.815  0.5405 -1.0686 -0.2536
 3887SOL    HW315315   4.132   3.372   4.771 -0.7962  0.8028  1.9416
 3887SOL    MW415316   4.208   3.354   4.811 -0.2655 -0.2962  0.5503
 3888SOL     OW15317   5.432   0.426   1.000  0.7631 -0.1506 -0.3608
 3888SOL    HW215318   5.361   0.458   0.944  1.2415  0.5393 -0.5902
 3888SOL    HW315319   5.390   0.404   1.083  0.3170  0.4723 -0.4165
 3888SOL    MW415320   5.417   0.427   1.003  0.7673  0.0226 -0.3984
 3889SOL     OW15321   0.042   3.186   0.604  0.2052 -0.5452 -0.6051
 3889SOL    HW215322   0.109   3.228   0.549  1.0647  0.6153  1.2295
 3889SOL    HW315323  -0.011   3.258   0.637 -0.8007 -1.2957 -0.5151
 3889SOL    MW415324   0.044   3.201   0.601  0.1859 -0.4911 -0.3512
 3890SOL     OW15325   4.825   6.233   4.879 -0.0707 -0.2390 -0.1009
 3890SOL    HW215326   4.848   6.323   4.902 -1.0875  0.7423 -2.6121
 3890SOL    HW315327   4.736   6.222   4.914 -1.4493  1.1097 -2.8708
 3890SOL    MW415328   4.816   6.243   4.887 -0.3868  0.0684 -0.7977
 3891SOL     OW15329   2.506   2.717   3.693 -0.3823 -0.4181  0.4965
 3891SOL    HW215330   2.525   2.734   3.785 -1.5828 -1.1178  0.8884
 3891SOL    HW315331   2.527   2.624   3.681  0.6636 -0.1103 -0.1842
 3891SOL    MW415332   2.511   2.707   3.703 -0.4027 -0.4698  0.4584
 3892SOL     OW15333   3.977   1.438   6.194 -0.0432  0.2926  0.1373
 3892SOL    HW215334   3.966   1.533   6.184 -1.2106  0.3766  1.7968
 3892SOL    HW315335   3.893   1.408   6.227 -0.3233 -1.6500 -2.0967
 3892SOL    MW415336   3.965   1.447   6.197 -0.2342  0.0474  0.0615
 3893SOL     OW15337   2.380   4.288   1.337 -0.4124 -0.5359  0.2143
 3893SOL    HW215338   2.386   4.295   1.433  0.1016  0.5915  0.1245
 3893SOL    HW315339   2.468   4.262   1.310 -0.4946 -0.6262  0.0354
 3893SOL    MW415340   2.392   4.286   1.346 -0.3555 -0.3991  0.1789
 3894SOL     OW15341   4.293   5.848   5.147  0.2416 -0.5243  0.0341
 3894SOL    HW215342   4.234   5.912   5.106  0.4376 -0.0005  0.5645
 3894SOL    HW315343   4.333   5.803   5.073 -0.1926 -0.3039 -0.3437
 3894SOL    MW415344   4.290   5.851   5.132  0.2102 -0.4261  0.0542
 3895SOL     OW15345   2.482   4.505   1.208 -0.4363  0.3587 -0.1604
 3895SOL    HW215346   2.422   4.444   1.251  0.0391  0.9713  1.4671
 3895SOL    HW315347   2.544   4.529   1.276  0.9879  0.6149 -1.5043
 3895SOL    MW415348   2.482   4.500   1.223 -0.1856  0.4733 -0.1230
 3896SOL     OW15349   5.636   1.428   5.646 -0.1239 -0.0995 -0.0681
 3896SOL    HW215350   5.719   1.474   5.639  0.3391 -0.7502  0.9462
 3896SOL    HW315351   5.578   1.472   5.584  1.1487 -0.0308 -1.2428
 3896SOL    MW415352   5.639   1.440   5.637  0.1051 -0.1763 -0.0893
 3897SOL     OW15353   2.990   5.287   3.938  0.3943 -0.7296  0.2570
 3897SOL    HW215354   2.942   5.364   3.968  1.8657  0.5078 -0.3514
 3897SOL    HW315355   3.048   5.264   4.010 -0.0936 -1.3283  0.4652
 3897SOL    MW415356   2.992   5.294   3.951  0.5241 -0.6453  0.2042
 3898SOL     OW15357   1.612   4.728   5.723 -0.1425 -0.3096  0.2202
 3898SOL    HW215358   1.597   4.700   5.813  0.9429 -2.1374 -0.1224
 3898SOL    HW315359   1.696   4.690   5.700  1.1196  2.6939 -0.5932
 3898SOL    MW415360   1.621   4.720   5.732  0.1673 -0.1545  0.0677
 3899SOL     OW15361   1.561   2.380   5.496  0.1841  0.2695  0.7441
 3899SOL    HW215362   1.575   2.354   5.405 -1.5639  0.0834  0.5067
 3899SOL    HW315363   1.469   2.404   5.501  0.0736 -0.3546  2.6064
 3899SOL    MW415364   1.551   2.380   5.485 -0.0611  0.1626  0.9584
 3900SOL     OW15365   0.682   4.521   3.460 -0.0759  1.0580 -0.3619
 3900SOL    HW215366   0.629   4.551   3.535  0.5109 -0.9157  0.9257
 3900SOL    HW315367   0.763   4.572   3.466 -0.2748  1.3412 -0.0243
 3900SOL    MW415368   0.686   4.532   3.471 -0.0247  0.8349 -0.1475
 3901SOL     OW15369   2.224   2.315   0.485 -0.2038 -0.0731 -0.2551
 3901SOL    HW215370   2.199   2.317   0.393 -1.9381 -1.6842  0.1245
 3901SOL    HW315371   2.285   2.388   0.495 -0.5150  0.5624 -2.5095
 3901SOL    MW415372   2.229   2.325   0.474 -0.4737 -0.2018 -0.5025
 3902SOL     OW15373   3.433   0.310   3.202 -0.8729 -0.0173 -0.2655
 3902SOL    HW215374   3.488   0.388   3.215 -0.4134 -0.4357  0.3557
 3902SOL    HW315375   3.354   0.328   3.253 -0.3411 -0.3710  0.7108
 3902SOL    MW415376   3.430   0.323   3.211 -0.7421 -0.1192 -0.0547
 3903SOL     OW15377   2.008   4.419   2.556 -0.1406 -0.5319  0.4617
 3903SOL    HW215378   1.945   4.490   2.542  0.4168  0.1484  1.3457
 3903SOL    HW315379   2.016   4.377   2.470 -0.0620  0.8222 -0.2145
 3903SOL    MW415380   2.000   4.423   2.543 -0.0567 -0.2635  0.4891
 3904SOL     OW15381   1.760   2.913   5.990  0.3031  0.3978  0.9727
 3904SOL    HW215382   1.815   2.919   5.912  0.3770  0.4615  1.0295
 3904SOL    HW315383   1.811   2.861   6.052  0.5770  1.0029  1.2598
 3904SOL    MW415384   1.774   2.907   5.988  0.3490  0.4860  1.0180
 3905SOL     OW15385   2.339   4.380   0.063  0.5187  0.1012  0.2658
 3905SOL    HW215386   2.380   4.296   0.086 -0.1452 -0.2159  0.3198
 3905SOL    HW315387   2.247   4.368   0.084  0.1502  0.3343 -1.0909
 3905SOL    MW415388   2.332   4.367   0.069  0.3825  0.0901  0.0939
 3906SOL     OW15389   2.748   5.980   2.409  0.0609  0.2253 -0.4462
 3906SOL    HW215390   2.713   5.966   2.497 -0.4976  0.6543 -0.5960
 3906SOL    HW315391   2.788   6.067   2.412 -0.1163  0.3141 -0.6679
 3906SOL    MW415392   2.749   5.989   2.421 -0.0362  0.2936 -0.4952
 3907SOL     OW15393   4.146   2.562   4.076  0.1846 -0.1981  0.5046
 3907SOL    HW215394   4.113   2.490   4.131 -1.8328 -1.0068 -1.5888
 3907SOL    HW315395   4.233   2.534   4.049 -0.2652 -1.5297  0.3589
 3907SOL    MW415396   4.153   2.549   4.080 -0.1409 -0.4805  0.2092
 3908SOL     OW15397   1.906   6.209   0.725  0.0956 -0.2909  0.3203
 3908SOL    HW215398   1.889   6.275   0.792 -0.3338 -0.4005  0.3193
 3908SOL    HW315399   1.820   6.188   0.688  0.3186 -0.2779 -0.2218
 3908SOL    MW415400   1.892   6.215   0.729  0.0684 -0.3037  0.2487
 3909SOL     OW15401   5.993   1.285   5.227 -0.0448  1.4389  0.0059
 3909SOL    HW215402   5.929   1.224   5.265  0.7187  0.6460  0.0632
 3909SOL    HW315403   5.953   1.371   5.238 -0.2765  1.1568  1.7571
 3909SOL    MW415404   5.979   1.288   5.234  0.0254  1.2970  0.2445
 3910SOL     OW15405   3.789   0.833   1.253 -0.1869  0.3311  0.0120
 3910SOL    HW215406   3.731   0.790   1.190  0.1574  1.8669 -1.4159
 3910SOL    HW315407   3.733   0.853   1.328 -0.6180 -1.4654  0.2316
 3910SOL    MW415408   3.774   0.830   1.255 -0.1984  0.2967 -0.1474
 3911SOL     OW15409   5.411   2.291   5.146  0.4081  0.0568 -0.1941
 3911SOL    HW215410   5.460   2.349   5.087 -2.0829  1.6169 -0.9240
 3911SOL    HW315411   5.406   2.340   5.229 -0.3823  0.2015 -0.3188
 3911SOL    MW415412   5.417   2.305   5.149 -0.0248  0.2817 -0.3068
 3912SOL     OW15413   0.550   4.026   1.026 -0.2865 -0.4553  0.2539
 3912SOL    HW215414   0.569   4.118   1.043 -0.8852 -0.5890  1.8301
 3912SOL    HW315415   0.463   4.027   0.986  0.1525 -0.2882 -0.7305
 3912SOL    MW415416   0.541   4.038   1.023 -0.3076 -0.4509  0.3320
 3913SOL     OW15417   1.902   1.361   2.536 -0.2653 -0.4119  0.3456
 3913SOL    HW215418   1.949   1.281   2.559 -0.3701 -0.9154 -1.0952
 3913SOL    HW315419   1.966   1.415   2.489 -0.6039 -0.2847  0.0268
 3913SOL    MW415420   1.916   1.358   2.533 -0.3238 -0.4615  0.1134
 3914SOL     OW15421   1.038   2.329   2.564 -0.0984  0.2964  0.1390
 3914SOL    HW215422   0.986   2.265   2.517 -1.1529  1.1938  0.0393
 3914SOL    HW315423   1.109   2.278   2.604 -0.4350 -0.7895 -0.6047
 3914SOL    MW415424   1.041   2.314   2.563 -0.2819  0.2715  0.0277
 3915SOL     OW15425   4.585   2.944   1.841 -0.0902  0.6766  0.1573
 3915SOL    HW215426   4.555   2.882   1.908 -1.9445 -0.5930 -1.7157
 3915SOL    HW315427   4.506   2.968   1.794  1.3702 -0.5408 -3.2183
 3915SOL    MW415428   4.571   2.939   1.844 -0.1422  0.3485 -0.5352
 3916SOL     OW15429   3.440   3.377   4.991  0.2361  0.0728  0.3611
 3916SOL    HW215430   3.349   3.350   5.004  0.1277  0.4666  0.4303
 3916SOL    HW315431   3.441   3.415   4.903  0.0712  1.1473  0.8110
 3916SOL    MW415432   3.428   3.378   4.981  0.2000  0.2665  0.4296
 3917SOL     OW15433   5.695   3.079   3.939 -0.3081  0.6060 -0.1960
 3917SOL    HW215434   5.652   3.147   3.887 -1.3457  0.3327  0.2585
 3917SOL    HW315435   5.759   3.126   3.993  0.0052  1.0259 -0.9223
 3917SOL    MW415436   5.698   3.094   3.940 -0.4037  0.6254 -0.2319
 3918SOL     OW15437   0.835   3.541   1.619  0.4592  0.4066  0.4727
 3918SOL    HW215438   0.780   3.619   1.633  2.7571  1.8724  1.9680
 3918SOL    HW315439   0.853   3.509   1.707 -0.0488 -1.6183 -0.1049
 3918SOL    MW415440   0.830   3.547   1.632  0.6953  0.3328  0.5938
 3919SOL     OW15441   5.473   0.322   4.171 -0.1562 -0.6067  0.3703
 3919SOL    HW215442   5.525   0.306   4.092  1.3211 -1.6716  1.5059
 3919SOL    HW315443   5.418   0.244   4.180  0.5669 -1.0541  1.0358
 3919SOL    MW415444   5.472   0.310   4.162  0.1341 -0.8062  0.6079
 3920SOL     OW15445   0.063   1.508   1.959 -0.3123  0.1823  0.0498
 3920SOL    HW215446   0.096   1.545   1.878  0.8897  0.9861  0.8737
 3920SOL    HW315447  -0.011   1.453   1.932  0.9728 -0.7799 -1.7554
 3920SOL    MW415448   0.057   1.505   1.945  0.0158  0.1614 -0.0796
 3921SOL     OW15449   5.919   6.232   5.342 -0.2918 -0.4386 -0.0195
 3921SOL    HW215450   5.873   6.198   5.265  0.1327 -0.3130 -0.3359
 3921SOL    HW315451   6.012   6.216   5.323 -0.1647 -0.1455  0.3386
 3921SOL    MW415452   5.925   6.225   5.329 -0.2190 -0.3834 -0.0140
 3922SOL     OW15453   0.404   4.713   4.719 -0.4168 -0.0919  0.0485
 3922SOL    HW215454   0.463   4.637   4.718  0.0582  0.2610  0.5404
 3922SOL    HW315455   0.380   4.723   4.811 -1.7963 -0.6373 -0.2303
 3922SOL    MW415456   0.409   4.704   4.731 -0.5361 -0.1173  0.0766
 3923SOL     OW15457   0.918   2.879   2.567  0.5204 -0.1365 -0.4110
 3923SOL    HW215458   0.894   2.922   2.649  2.0770  2.3605 -1.1787
 3923SOL    HW315459   0.915   2.785   2.588 -2.3933  0.2719  1.5066
 3923SOL    MW415460   0.914   2.872   2.581  0.3413  0.2468 -0.2593
 3924SOL     OW15461   4.084   0.351   4.622 -0.3099 -0.2514 -0.3338
 3924SOL    HW215462   4.128   0.426   4.663 -0.6702  0.5129 -1.3087
 3924SOL    HW315463   4.149   0.316   4.562 -0.7934  0.5137 -1.3359
 3924SOL    MW415464   4.099   0.356   4.620 -0.4212 -0.0496 -0.5946
 3925SOL     OW15465   0.546   0.356   3.234  0.0757 -0.8802  0.4529
 3925SOL    HW215466   0.630   0.366   3.189 -0.0321 -0.7005  0.2866
 3925SOL    HW315467   0.498   0.436   3.212 -0.1103 -0.9487  0.6079
 3925SOL    MW415468   0.551   0.368   3.225  0.0369 -0.8655  0.4514
 3926SOL     OW15469   2.052   3.679   1.047 -0.0491 -0.1031  0.0522
 3926SOL    HW215470   2.109   3.602   1.055  0.3956  0.3143  1.1594
 3926SOL    HW315471   1.983   3.665   1.112 -2.0503 -1.2583 -2.2124
 3926SOL    MW415472   2.050   3.667   1.057 -0.2544 -0.2004 -0.1005
 3927SOL     OW15473   0.290   4.580   2.950  0.1921 -0.3288 -0.7290
 3927SOL    HW215474   0.217   4.641   2.960  1.0170  0.5838 -0.0909
 3927SOL    HW315475   0.365   4.635   2.928  0.7910 -1.2009 -0.9493
 3927SOL    MW415476   0.290   4.595   2.948  0.3800 -0.3235 -0.6739
 3928SOL     OW15477   5.080   2.521   1.267  0.2198 -0.4127 -0.4237
 3928SOL    HW215478   5.078   2.606   1.313 -1.3745 -0.3377 -0.5788
 3928SOL    HW315479   5.021   2.465   1.317 -0.2412 -0.8435 -1.4170
 3928SOL    MW415480   5.072   2.525   1.280 -0.0514 -0.4597 -0.5752
 3929SOL     OW15481   3.626   4.306   0.241  0.3311  0.1623 -0.2918
 3929SOL    HW215482   3.704   4.252   0.237 -0.1606 -0.5864  0.0679
 3929SOL    HW315483   3.644   4.379   0.182  2.0126  0.9568  1.1275
 3929SOL    MW415484   3.639   4.309   0.232  0.4881  0.1683 -0.0571
 3930SOL     OW15485   1.552   4.877   2.696 -0.1119 -0.1742  0.4816
 3930SOL    HW215486   1.545   4.937   2.621 -0.2966  1.0248  1.4405
 3930SOL    HW315487   1.640   4.839   2.688 -0.8955 -1.7711 -1.5672
 3930SOL    MW415488   1.563   4.880   2.685 -0.2397 -0.2267  0.3378
 3931SOL     OW15489   3.062   4.868   3.584  0.4781  0.2629  0.3072
 3931SOL    HW215490   3.011   4.787   3.590  1.4886 -0.3273  1.1089
 3931SOL    HW315491   2.997   4.935   3.563 -0.3689 -0.7536 -0.4346
 3931SOL    MW415492   3.046   4.866   3.582  0.4996  0.0509  0.3151
 3932SOL     OW15493   6.334   5.491   3.837  0.0238  0.1407 -0.7212
 3932SOL    HW215494   6.317   5.426   3.770 -0.1631 -0.2003 -0.3462
 3932SOL    HW315495   6.421   5.524   3.817  0.5643 -0.9790 -0.3001
 3932SOL    MW415496   6.343   5.487   3.825  0.0705 -0.0520 -0.6162
 3933SOL     OW15497   3.801   4.465   3.135 -0.2113 -0.3596  0.2256
 3933SOL    HW215498   3.771   4.382   3.171 -1.0356 -0.0667  0.2289
 3933SOL    HW315499   3.820   4.445   3.043  1.3569 -0.9717  0.6568
 3933SOL    MW415500   3.799   4.451   3.127 -0.1131 -0.4017  0.2829
 3934SOL     OW15501   2.954   3.015   2.311  0.0970  0.2870  0.0937
 3934SOL    HW215502   3.030   3.047   2.360  1.0068  0.5872 -1.4746
 3934SOL    HW315503   2.911   3.094   2.279 -0.4006  0.0808  0.2409
 3934SOL    MW415504   2.958   3.029   2.313  0.1514  0.2994 -0.0938
 3935SOL     OW15505   5.319   0.482   5.612 -0.3187  0.1942 -0.2134
 3935SOL    HW215506   5.359   0.490   5.698 -0.1165  0.9575 -0.3664
 3935SOL    HW315507   5.391   0.461   5.553 -0.5296 -0.7798 -0.1319
 3935SOL    MW415508   5.333   0.480   5.615 -0.3198  0.1664 -0.2228
 3936SOL     OW15509   0.997   1.658   2.421 -0.2702  0.1968  0.1329
 3936SOL    HW215510   1.090   1.680   2.423 -0.3221  0.4866 -0.4403
 3936SOL    HW315511   0.959   1.720   2.358 -1.3206  1.8735  2.2694
 3936SOL    MW415512   1.004   1.669   2.413 -0.4156  0.4562  0.3391
 3937SOL     OW15513   0.238   1.938   5.257 -0.0651 -0.0312 -0.4235
 3937SOL    HW215514   0.256   1.869   5.193 -0.0786  0.3607 -0.8587
 3937SOL    HW315515   0.153   1.915   5.293  0.0990 -0.4452 -0.2928
 3937SOL    MW415516   0.229   1.926   5.253 -0.0452 -0.0341 -0.4636
 3938SOL     OW15517   1.658   5.900   2.290 -0.1715  0.0369 -0.0222
 3938SOL    HW215518   1.707   5.820   2.273 -2.3378 -1.4154  0.0724
 3938SOL    HW315519   1.705   5.969   2.244  1.8307 -1.2607 -0.0074
 3938SOL    MW415520   1.671   5.899   2.282 -0.1932 -0.3259 -0.0078
 3939SOL     OW15521   0.751   5.193   5.133  0.7324 -0.2334  0.1688
 3939SOL    HW215522   0.706   5.222   5.053 -0.8680 -3.0715 -0.0938
 3939SOL    HW315523   0.825   5.142   5.102 -0.1628 -1.7452  0.3941
 3939SOL    MW415524   0.755   5.190   5.119  0.4031 -0.8073  0.1639
 3940SOL     OW15525   2.089   3.092   4.146  0.0685 -0.5381  0.4582
 3940SOL    HW215526   2.035   3.041   4.206  2.9671 -3.0255  1.2016
 3940SOL    HW315527   2.177   3.088   4.183  1.4531  0.2846 -2.4445
 3940SOL    MW415528   2.094   3.085   4.159  0.6336 -0.7578  0.1733
 3941SOL     OW15529   3.901   5.232   5.334 -0.3137 -0.0089 -0.0658
 3941SOL    HW215530   3.852   5.200   5.410 -0.6706  1.9205  0.5812
 3941SOL    HW315531   3.986   5.257   5.369  1.4156 -3.5554 -1.2217
 3941SOL    MW415532   3.906   5.231   5.349 -0.1326 -0.2223 -0.1329
 3942SOL     OW15533   2.851   1.997   1.755 -0.1723 -0.1338 -0.0704
 3942SOL    HW215534   2.777   1.946   1.724  0.5417 -0.5188 -1.2316
 3942SOL    HW315535   2.927   1.939   1.743  0.4681  0.6780 -0.0587
 3942SOL    MW415536   2.852   1.982   1.750  0.0064 -0.0775 -0.2221
 3943SOL     OW15537   3.435   3.143   3.054  0.1386 -0.2260  0.3674
 3943SOL    HW215538   3.360   3.088   3.035  0.1020 -0.0142 -0.1341
 3943SOL    HW315539   3.486   3.094   3.118 -0.1629 -0.6012  0.3222
 3943SOL    MW415540   3.432   3.129   3.060  0.0940 -0.2476  0.2952
 3944SOL     OW15541   2.934   0.182   1.777 -0.0298 -0.5669 -0.2501
 3944SOL    HW215542   2.847   0.213   1.803 -0.5074 -1.6879 -0.4264
 3944SOL    HW315543   2.918   0.130   1.698  0.8861 -0.3286 -0.6051
 3944SOL    MW415544   2.921   0.179   1.770  0.0280 -0.6833 -0.3202
 3945SOL     OW15545   6.414   4.539   2.807 -0.6653 -0.2130  0.4278
 3945SOL    HW215546   6.331   4.538   2.854 -0.3277 -3.0321  1.1285
 3945SOL    HW315547   6.424   4.630   2.778 -3.2569  0.5225  1.5637
 3945SOL    MW415548   6.404   4.551   2.810 -0.9627 -0.4879  0.6701
 3946SOL     OW15549   3.564   3.878   4.736 -0.4451  0.4258 -0.0585
 3946SOL    HW215550   3.568   3.953   4.796  1.3085 -0.6488  1.2786
 3946SOL    HW315551   3.476   3.843   4.746 -0.5957  1.0535  0.9231
 3946SOL    MW415552   3.553   3.883   4.745 -0.2336  0.3668  0.2474
 3947SOL     OW15553   0.983   2.060   0.579  0.4395 -0.0819 -0.1466
 3947SOL    HW215554   0.898   2.091   0.610  1.2417  1.3572  0.6909
 3947SOL    HW315555   0.992   2.098   0.492  0.4886  0.2883  0.0177
 3947SOL    MW415556   0.973   2.069   0.572  0.5518  0.1568 -0.0144
 3948SOL     OW15557   5.445   2.796   1.059 -0.2168 -0.5261  0.2775
 3948SOL    HW215558   5.417   2.885   1.039  1.0149 -0.2406 -0.2204
 3948SOL    HW315559   5.396   2.742   0.997 -0.8747 -0.2020  0.4977
 3948SOL    MW415560   5.435   2.801   1.049 -0.1411 -0.4457  0.2409
 3949SOL     OW15561   5.601   1.086   3.747  0.2458 -0.1193  0.2221
 3949SOL    HW215562   5.597   0.994   3.722 -1.9410  0.8319 -3.6859
 3949SOL    HW315563   5.538   1.094   3.819  0.2046 -1.5519  0.3770
 3949SOL    MW415564   5.592   1.075   3.753 -0.0482 -0.1828 -0.2731
 3950SOL     OW15565   5.000   1.207   4.191  0.3139 -0.2029  0.0415
 3950SOL    HW215566   5.041   1.219   4.277  1.1486 -1.2278 -0.1872
 3950SOL    HW315567   5.071   1.177   4.134 -0.0890  1.0402 -1.1774
 3950SOL    MW415568   5.015   1.204   4.195  0.3709 -0.1741 -0.1495
 3951SOL     OW15569   2.246   1.903   2.609  0.3073 -0.4334 -0.5228
 3951SOL    HW215570   2.185   1.831   2.590 -2.4072  0.8551  2.3003
 3951SOL    HW315571   2.295   1.872   2.686  0.1781  0.1190 -0.2093
 3951SOL    MW415572   2.245   1.889   2.617 -0.0679 -0.1905 -0.1090
 3952SOL     OW15573   1.417   1.481   1.151 -0.9172  0.4463 -0.1860
 3952SOL    HW215574   1.363   1.446   1.222 -3.2821 -0.6774 -2.3916
 3952SOL    HW315575   1.469   1.406   1.121 -0.3915  0.7608 -0.0847
 3952SOL    MW415576   1.417   1.466   1.157 -1.1599  0.3395 -0.4636
 3953SOL     OW15577   5.523   2.649   6.185  0.6516  0.0142 -0.0285
 3953SOL    HW215578   5.546   2.597   6.108 -2.6912 -2.1094  0.1762
 3953SOL    HW315579   5.477   2.725   6.150 -0.6393 -0.8230 -0.2370
 3953SOL    MW415580   5.520   2.652   6.170  0.0402 -0.3765 -0.0290
 3954SOL     OW15581   0.773   0.964   0.678 -0.0942  0.4460 -0.0413
 3954SOL    HW215582   0.822   0.965   0.761  1.2538 -1.4707 -0.7336
 3954SOL    HW315583   0.776   0.872   0.650 -3.7124  0.3085 -0.4147
 3954SOL    MW415584   0.780   0.952   0.685 -0.3937  0.1750 -0.1819
 3955SOL     OW15585   5.481   4.239   2.186  0.5207 -0.1212 -0.2051
 3955SOL    HW215586   5.439   4.323   2.204  1.1049  0.4681 -1.4503
 3955SOL    HW315587   5.564   4.263   2.145  2.3279 -1.2221  2.5207
 3955SOL    MW415588   5.487   4.253   2.183  0.8362 -0.1887 -0.0097
 3956SOL     OW15589   5.262   1.064   5.868  0.3246  0.3958  0.6507
 3956SOL    HW215590   5.299   1.150   5.848  0.2791  0.3847  0.5209
 3956SOL    HW315591   5.180   1.061   5.820  0.2960  0.3030  0.7041
 3956SOL    MW415592   5.256   1.075   5.859  0.3149  0.3821  0.6406
 3957SOL     OW15593   2.600   3.136   5.621 -0.0982  0.1005 -0.1640
 3957SOL    HW215594   2.586   3.043   5.637  2.4092 -0.5649 -1.4096
 3957SOL    HW315595   2.531   3.160   5.559  0.6098 -1.5721 -1.7013
 3957SOL    MW415596   2.589   3.127   5.615  0.3261 -0.2080 -0.5312
 3958SOL     OW15597   1.055   4.468   5.651  0.1689  0.0974  0.3228
 3958SOL    HW215598   1.068   4.385   5.697 -0.5014 -0.1343  0.1100
 3958SOL    HW315599   1.085   4.535   5.712  1.2893 -0.3390  0.2612
 3958SOL    MW415600   1.060   4.466   5.665  0.2283  0.0093  0.2866
 3959SOL     OW15601   5.356   0.614   1.279  0.3458  0.0780 -0.0816
 3959SOL    HW215602   5.394   0.679   1.220 -1.1335  0.9499 -0.1342
 3959SOL    HW315603   5.265   0.607   1.251  0.1242 -0.9890  0.8289
 3959SOL    MW415604   5.349   0.621   1.267  0.1214  0.0522  0.0316
 3960SOL     OW15605   5.072   0.513   1.337 -0.6819  0.0222  0.0367
 3960SOL    HW215606   5.072   0.457   1.260 -0.1097  0.2843 -0.1577
 3960SOL    HW315607   4.999   0.480   1.390  0.2886 -1.6052  0.4404
 3960SOL    MW415608   5.062   0.501   1.334 -0.4784 -0.1579  0.0643
 3961SOL     OW15609   5.142   0.298   2.623  0.0843 -0.4817  0.5698
 3961SOL    HW215610   5.061   0.263   2.586 -0.6734 -0.9574  2.5512
 3961SOL    HW315611   5.115   0.341   2.704  1.3740  2.4388 -0.4196
 3961SOL    MW415612   5.128   0.299   2.628  0.1545 -0.1591  0.7007
 3962SOL     OW15613   5.798   0.279   2.572 -0.5200 -0.4277  0.3444
 3962SOL    HW215614   5.845   0.338   2.512 -2.3313  0.6164 -0.1098
 3962SOL    HW315615   5.827   0.192   2.547  0.7825  0.1327 -0.2411
 3962SOL    MW415616   5.808   0.275   2.561 -0.5871 -0.2160  0.2072
 3963SOL     OW15617   0.566   0.846   3.351  0.4102  0.2703  0.5606
 3963SOL    HW215618   0.473   0.828   3.365  0.1955  0.8032 -0.1271
 3963SOL    HW315619   0.567   0.924   3.296  1.2424 -0.8700 -1.0989
 3963SOL    MW415620   0.553   0.854   3.346  0.4917  0.1902  0.2509
 3964SOL     OW15621   4.404   3.558   4.843  0.0887  0.7585 -0.3180
 3964SOL    HW215622   4.434   3.549   4.933 -0.6419  0.0696 -0.1310
 3964SOL    HW315623   4.340   3.629   4.846  0.6180  1.2495 -0.4457
 3964SOL    MW415624   4.400   3.567   4.855  0.0621  0.7324 -0.3102
 3965SOL     OW15625   2.504   3.674   3.607 -0.4342 -0.7704  0.5436
 3965SOL    HW215626   2.460   3.598   3.644  1.0206 -1.5431  0.7538
 3965SOL    HW315627   2.450   3.748   3.635 -1.9553 -1.7132  0.2082
 3965SOL    MW415628   2.491   3.674   3.616 -0.4429 -0.9968  0.5271
 3966SOL     OW15629   2.161   0.777   3.720  0.0670  0.2674  0.1073
 3966SOL    HW215630   2.171   0.736   3.634 -0.9535 -1.0736  0.5940
 3966SOL    HW315631   2.129   0.865   3.701 -3.2947 -1.0001 -0.9014
 3966SOL    MW415632   2.158   0.783   3.706 -0.5111 -0.0767  0.0384
 3967SOL     OW15633   0.657   1.047   5.200 -0.2650 -0.2821  0.1497
 3967SOL    HW215634   0.735   1.095   5.229 -0.7315  2.1437 -2.2117
 3967SOL    HW315635   0.670   0.958   5.232  2.6207  0.4542  1.3187
 3967SOL    MW415636   0.669   1.042   5.208  0.0542  0.1351 -0.0077
 3968SOL     OW15637   6.251   1.433   4.848 -0.1466 -0.0015 -0.0596
 3968SOL    HW215638   6.166   1.407   4.885 -0.0486  1.3850  1.2527
 3968SOL    HW315639   6.233   1.514   4.802  0.3987  0.0804 -0.1312
 3968SOL    MW415640   6.237   1.440   4.847 -0.0617  0.1923  0.1041
 3969SOL     OW15641   0.731   5.812   5.940 -0.1502 -0.0950 -0.4207
 3969SOL    HW215642   0.802   5.859   5.984  0.0047 -0.5811 -0.1435
 3969SOL    HW315643   0.652   5.859   5.966  0.0450  0.2774 -0.4990
 3969SOL    MW415644   0.730   5.825   5.949 -0.1040 -0.1100 -0.3945
 3970SOL     OW15645   6.130   4.378   3.475 -0.0727  0.0439 -0.3365
 3970SOL    HW215646   6.054   4.342   3.521  0.2886  1.0082  1.0666
 3970SOL    HW315647   6.181   4.301   3.449  0.8969 -0.5663  2.9425
 3970SOL    MW415648   6.127   4.363   3.477  0.1029  0.0906  0.2812
 3971SOL     OW15649   4.661   3.134   5.823  0.0256 -0.2002 -0.5558
 3971SOL    HW215650   4.567   3.120   5.817 -0.0162 -0.4593  0.6117
 3971SOL    HW315651   4.672   3.229   5.828 -0.1141 -0.1270 -1.4771
 3971SOL    MW415652   4.650   3.145   5.823  0.0016 -0.2248 -0.5233
 3972SOL     OW15653   3.406   0.455   4.757  0.4173  0.1598 -0.2505
 3972SOL    HW215654   3.369   0.537   4.726  1.6543  1.2847  1.0960
 3972SOL    HW315655   3.356   0.434   4.835 -0.1324 -0.5769 -0.7922
 3972SOL    MW415656   3.395   0.463   4.763  0.5080  0.2110 -0.1443
 3973SOL     OW15657   0.022   0.408   5.915 -0.0995 -0.4881  0.6365
 3973SOL    HW215658  -0.009   0.335   5.860 -1.6356  0.8730 -0.4000
 3973SOL    HW315659  -0.058   0.457   5.936  0.9444  1.1514  0.9155
 3973SOL    MW415660   0.007   0.405   5.910 -0.1645 -0.0922  0.5365
 3974SOL     OW15661   0.202   3.672   6.086  0.6984 -0.1305  0.1367
 3974SOL    HW215662   0.201   3.601   6.021  1.1280  1.6944 -1.9829
 3974SOL    HW315663   0.124   3.724   6.065  1.6238  1.2958  0.1332
 3974SOL    MW415664   0.192   3.670   6.075  0.8771  0.2984 -0.1434
 3975SOL     OW15665   0.022   5.819   4.628 -0.0620  0.0686  0.3806
 3975SOL    HW215666  -0.043   5.846   4.563 -1.0745  1.5010  1.8879
 3975SOL    HW315667  -0.023   5.752   4.680  0.3823 -0.3624  0.2095
 3975SOL    MW415668   0.007   5.814   4.626 -0.1370  0.2007  0.5569
 3976SOL     OW15669   2.080   5.839   2.099 -0.0770 -0.0312  0.0229
 3976SOL    HW215670   2.048   5.890   2.174  2.1121  0.5511  0.6335
 3976SOL    HW315671   2.134   5.770   2.139 -0.9529 -1.3120 -0.9292
 3976SOL    MW415672   2.083   5.837   2.114  0.0963 -0.1233 -0.0222
 3977SOL     OW15673   0.306   4.484   2.666  0.6262 -0.0592 -0.1243
 3977SOL    HW215674   0.293   4.493   2.761  0.4671 -1.4536  0.0050
 3977SOL    HW315675   0.398   4.507   2.653  0.4090  1.0643  0.2258
 3977SOL    MW415676   0.316   4.488   2.677  0.5765 -0.0949 -0.0610
 3978SOL     OW15677   5.688   2.937   5.287 -0.3442  0.3812 -0.0794
 3978SOL    HW215678   5.594   2.930   5.271  0.0205 -0.0150 -2.4485
 3978SOL    HW315679   5.714   3.017   5.241  0.4739  0.5217  0.6044
 3978SOL    MW415680   5.679   2.947   5.279 -0.1881  0.3475 -0.3018
 3979SOL     OW15681   1.655   2.062   2.923  0.1451  0.2110  0.5005
 3979SOL    HW215682   1.690   1.986   2.969  1.3064  0.7849  0.5752
 3979SOL    HW315683   1.597   2.104   2.987  1.2150  0.6168  1.2312
 3979SOL    MW415684   1.652   2.058   2.937  0.4395  0.3403  0.6067
 3980SOL     OW15685   2.942   2.716   3.907  0.1419  0.3910  0.2639
 3980SOL    HW215686   2.918   2.727   3.815  0.1962 -0.4756  0.1400
 3980SOL    HW315687   2.960   2.805   3.938 -1.0342  0.8206 -0.2389
 3980SOL    MW415688   2.941   2.729   3.899 -0.0061  0.3334  0.1812
 3981SOL     OW15689   1.633   3.724   3.666  0.1589 -0.4462 -0.0083
 3981SOL    HW215690   1.671   3.799   3.619 -1.3208  1.9596  2.3512
 3981SOL    HW315691   1.709   3.672   3.693  1.2245  0.0132 -1.8968
 3981SOL    MW415692   1.648   3.727   3.663  0.1043 -0.0682  0.0539
 3982SOL     OW15693   4.219   0.560   4.760  0.4141  0.8456  0.4115
 3982SOL    HW215694   4.253   0.476   4.791  0.4670  0.4225 -0.7695
 3982SOL    HW315695   4.172   0.595   4.836 -0.2564 -0.5955  0.7016
 3982SOL    MW415696   4.217   0.554   4.774  0.3326  0.5997  0.2940
 3983SOL     OW15697   2.584   2.085   2.949  0.3331  0.1293  0.6237
 3983SOL    HW215698   2.598   2.105   3.042 -0.0013  1.1090  0.4706
 3983SOL    HW315699   2.511   2.141   2.923  0.2736 -0.3086 -0.1814
 3983SOL    MW415700   2.576   2.095   2.958  0.2812  0.2008  0.4972
 3984SOL     OW15701   6.405   1.514   5.502 -0.1069  0.2955 -0.0338
 3984SOL    HW215702   6.347   1.525   5.577  0.3009 -0.7927  0.4537
 3984SOL    HW315703   6.475   1.579   5.516 -0.0643  0.1348  0.4891
 3984SOL    MW415704   6.407   1.524   5.514 -0.0475  0.1307  0.0995
 3985SOL     OW15705   4.975   0.193   2.382 -1.0007 -0.0650  0.5363
 3985SOL    HW215706   5.061   0.151   2.380 -0.6200  0.6783 -1.2649
 3985SOL    HW315707   4.987   0.273   2.330 -1.9797  1.7045  2.8636
 3985SOL    MW415708   4.988   0.198   2.375 -1.0796  0.2665  0.6057
 3986SOL     OW15709   2.131   4.064   1.806 -0.2887  0.6280 -0.6335
 3986SOL    HW215710   2.221   4.096   1.797  0.2297 -0.5015  0.2531
 3986SOL    HW315711   2.111   4.027   1.720  0.6155 -0.3376 -0.4522
 3986SOL    MW415712   2.141   4.063   1.793 -0.1010  0.3516 -0.4926
 3987SOL     OW15713   2.296   3.381   0.757 -0.3647  0.1807 -0.2189
 3987SOL    HW215714   2.260   3.437   0.688 -0.5337 -1.2644 -1.3676
 3987SOL    HW315715   2.383   3.357   0.726  0.2766  0.9573  0.9494
 3987SOL    MW415716   2.302   3.385   0.743 -0.3024  0.0925 -0.2163
 3988SOL     OW15717   0.231   2.636   3.198  0.2344  0.7177 -0.1934
 3988SOL    HW215718   0.150   2.667   3.159  1.3671  1.2954 -2.2795
 3988SOL    HW315719   0.278   2.595   3.125  1.0369 -1.2938  1.3458
 3988SOL    MW415720   0.227   2.635   3.183  0.4897  0.5285 -0.2655
 3989SOL     OW15721   6.344   3.127   4.267  0.2753 -0.1702 -0.2226
 3989SOL    HW215722   6.268   3.126   4.210  0.9410  0.4034 -1.1670
 3989SOL    HW315723   6.365   3.035   4.281  0.2740 -0.3314 -1.1722
 3989SOL    MW415724   6.337   3.115   4.261  0.3629 -0.1158 -0.4725
 3990SOL     OW15725   5.608   3.484   5.140  0.2367 -0.5716 -0.1792
 3990SOL    HW215726   5.557   3.565   5.148 -0.0709 -0.8353  0.6940
 3990SOL    HW315727   5.559   3.420   5.192  0.7685 -1.1769 -0.4102
 3990SOL    MW415728   5.595   3.487   5.148  0.2663 -0.6863 -0.0945
 3991SOL     OW15729   2.281   1.672   5.705 -0.2626  0.1050  0.4672
 3991SOL    HW215730   2.374   1.648   5.706 -0.1312  0.5669 -0.0862
 3991SOL    HW315731   2.281   1.767   5.698 -0.7700  0.0210 -1.1546
 3991SOL    MW415732   2.293   1.681   5.705 -0.3122  0.1548  0.1802
 3992SOL     OW15733   4.257   2.812   0.960  0.7363 -0.0147  0.2678
 3992SOL    HW215734   4.330   2.757   0.933 -0.0945 -0.7389 -0.5633
 3992SOL    HW315735   4.254   2.881   0.893  0.8028  0.1669  0.4480
 3992SOL    MW415736   4.266   2.814   0.948  0.6355 -0.0863  0.1819
 3993SOL     OW15737   4.013   3.928   4.086 -0.6940  0.1587  0.1805
 3993SOL    HW215738   3.970   3.949   4.169 -1.0585  2.6702 -0.5457
 3993SOL    HW315739   4.077   3.998   4.074  1.4866 -1.7935 -0.2863
 3993SOL    MW415740   4.016   3.940   4.096 -0.4544  0.2325  0.0231
 3994SOL     OW15741   0.771   4.211   5.737  0.1908 -0.4468  0.1106
 3994SOL    HW215742   0.687   4.207   5.783  0.0650  1.3011  0.0992
 3994SOL    HW315743   0.812   4.126   5.755 -0.4491 -0.3572  2.2914
 3994SOL    MW415744   0.766   4.199   5.746  0.0898 -0.2043  0.3968
 3995SOL     OW15745   5.725   0.063   2.193  0.0212 -0.6453  0.2260
 3995SOL    HW215746   5.657  -0.004   2.188  0.9779 -1.8986  2.7068
 3995SOL    HW315747   5.683   0.136   2.238 -1.2878  0.9382 -3.2321
 3995SOL    MW415748   5.711   0.064   2.198 -0.0253 -0.6017  0.0970
 3996SOL     OW15749   4.899   1.241   6.131 -0.0630 -0.5754 -0.3937
 3996SOL    HW215750   4.814   1.248   6.174  1.1161  0.3855  2.0152
 3996SOL    HW315751   4.938   1.162   6.168  1.5767  1.0676  1.6481
 3996SOL    MW415752   4.893   1.232   6.141  0.3089 -0.2319  0.1935
 3997SOL     OW15753   5.479   0.952   3.441  0.1787  0.1763  0.5113
 3997SOL    HW215754   5.484   0.922   3.350 -1.7145 -2.4779  1.1441
 3997SOL    HW315755   5.387   0.975   3.453 -0.3253 -2.3875  2.4429
 3997SOL    MW415756   5.468   0.951   3.431 -0.1376 -0.5121  0.8496
 3998SOL     OW15757   5.413   1.738   0.151 -0.0549 -0.6763 -0.3493
 3998SOL    HW215758   5.381   1.828   0.157 -0.4071 -0.8820  1.4477
 3998SOL    HW315759   5.505   1.743   0.175  0.9032 -0.3709 -3.5971
 3998SOL    MW415760   5.421   1.751   0.155  0.0250 -0.6631 -0.5407
 3999SOL     OW15761   4.227   0.768   0.978  0.1174  0.0378  0.0156
 3999SOL    HW215762   4.279   0.840   1.015  1.6015 -0.6522 -0.6320
 3999SOL    HW315763   4.290   0.717   0.927 -1.4796 -0.1347 -1.8780
 3999SOL    MW415764   4.242   0.770   0.976  0.1025 -0.0760 -0.3197
 4000SOL     OW15765   3.865   2.617   5.016  0.6050  0.2096  0.7455
 4000SOL    HW215766   3.922   2.603   4.940 -0.1980 -1.0839  0.3601
 4000SOL    HW315767   3.864   2.534   5.062 -1.3616  0.0335  0.4597
 4000SOL    MW415768   3.873   2.604   5.012  0.2396  0.0157  0.6570
 4001SOL     OW15769   5.303   2.817   4.304  0.8698 -0.1970  0.2889
 4001SOL    HW215770   5.227   2.848   4.353  1.6582 -0.7326  1.9315
 4001SOL    HW315771   5.376   2.869   4.338  1.2177  0.5667 -1.5188
 4001SOL    MW415772   5.303   2.828   4.315  1.0197 -0.1669  0.2672
 4002SOL     OW15773   4.344   5.406   0.474  0.1054  0.1665 -0.1485
 4002SOL    HW215774   4.401   5.428   0.548  1.8715 -0.0445 -1.4011
 4002SOL    HW315775   4.367   5.469   0.406 -1.7232  0.5566 -0.4592
 4002SOL    MW415776   4.355   5.417   0.475  0.0971  0.1901 -0.3547
 4003SOL     OW15777   0.867   5.836   2.251  0.2385 -0.1863  0.2038
 4003SOL    HW215778   0.848   5.843   2.345 -1.3889 -0.0385 -0.0992
 4003SOL    HW315779   0.867   5.741   2.234 -2.8892 -0.2115 -0.2090
 4003SOL    MW415780   0.864   5.824   2.261 -0.3889 -0.1701  0.1094
 4004SOL     OW15781   4.305   4.392   4.505  0.8299 -0.0647  0.5274
 4004SOL    HW215782   4.381   4.443   4.475 -0.1272  0.8647 -0.3872
 4004SOL    HW315783   4.256   4.453   4.560  0.5921 -0.5817  0.8965
 4004SOL    MW415784   4.309   4.407   4.508  0.6723 -0.0103  0.4554
 4005SOL     OW15785   4.956   4.345   2.975 -0.3915  0.5850 -0.7609
 4005SOL    HW215786   4.944   4.405   3.048 -1.1022  1.4954 -1.6030
 4005SOL    HW315787   5.035   4.295   2.997  0.7220  2.4038 -0.4373
 4005SOL    MW415788   4.965   4.346   2.987 -0.3383  0.9451 -0.8293
 4006SOL     OW15789   5.497   2.663   4.774  0.1399 -0.0250 -0.5200
 4006SOL    HW215790   5.404   2.650   4.756 -0.3901  0.4520  1.5618
 4006SOL    HW315791   5.506   2.756   4.791  0.1097 -0.5439  3.2305
 4006SOL    MW415792   5.486   2.673   4.774  0.0660 -0.0305  0.2495
 4007SOL     OW15793   2.881   2.367   5.661  0.2920  0.3052 -0.0263
 4007SOL    HW215794   2.907   2.387   5.751 -2.5673 -0.1248  1.0013
 4007SOL    HW315795   2.878   2.271   5.658  1.9369  0.2461 -1.1414
 4007SOL    MW415796   2.884   2.357   5.672  0.1317  0.2407 -0.0378
 4008SOL     OW15797   2.344   4.564   5.611 -0.0217  0.2030 -0.7339
 4008SOL    HW215798   2.293   4.645   5.608  2.1901  1.9064  2.2788
 4008SOL    HW315799   2.428   4.587   5.571  0.7396 -0.4709  0.4249
 4008SOL    MW415800   2.348   4.578   5.605  0.3706  0.3388 -0.1835
 4009SOL     OW15801   1.708   1.556   0.002 -0.1575  0.2454  0.1345
 4009SOL    HW215802   1.629   1.600   0.033 -1.0212 -0.4369 -0.9959
 4009SOL    HW315803   1.769   1.626  -0.019 -1.0945  0.8625 -0.5855
 4009SOL    MW415804   1.706   1.571   0.004 -0.3951  0.2368 -0.1097
 4010SOL     OW15805   3.630   0.821   4.145  0.1045  0.1612  0.1164
 4010SOL    HW215806   3.538   0.794   4.146  0.2034 -0.1940  0.7054
 4010SOL    HW315807   3.633   0.896   4.086 -0.5007 -0.0397 -0.1806
 4010SOL    MW415808   3.618   0.827   4.138  0.0377  0.0878  0.1549
 4011SOL     OW15809   4.710   6.319   5.683  0.1242 -0.6088 -0.3470
 4011SOL    HW215810   4.788   6.356   5.724  0.7789 -2.0226 -0.2340
 4011SOL    HW315811   4.638   6.349   5.737  0.5143  1.0891 -0.7009
 4011SOL    MW415812   4.711   6.328   5.695  0.2620 -0.5713 -0.3788
 4012SOL     OW15813   6.004   5.421   0.660 -0.1630  0.7816 -0.1656
 4012SOL    HW215814   6.053   5.438   0.740  0.0334  2.9358 -0.6817
 4012SOL    HW315815   6.064   5.371   0.605  0.2132  0.5185  0.4692
 4012SOL    MW415816   6.018   5.416   0.663 -0.0874  1.0311 -0.1500
 4013SOL     OW15817   6.136   2.791   3.037  0.2456  0.5189  0.2537
 4013SOL    HW215818   6.132   2.748   2.951  0.2126  0.3535  0.3367
 4013SOL    HW315819   6.222   2.765   3.072 -0.4826 -0.9542  1.0605
 4013SOL    MW415820   6.147   2.782   3.030  0.1452  0.3027  0.3711
 4014SOL     OW15821   3.199   2.147   2.393  0.2293  0.1349  0.4441
 4014SOL    HW215822   3.147   2.072   2.365 -0.2350  0.1341  1.2750
 4014SOL    HW315823   3.253   2.169   2.317 -0.6274 -0.1756 -0.2701
 4014SOL    MW415824   3.200   2.140   2.379  0.0550  0.0938  0.4595
 4015SOL     OW15825   0.383   0.547   3.636 -0.2068  0.2829 -0.0868
 4015SOL    HW215826   0.395   0.468   3.582 -0.0586  0.6166 -0.5464
 4015SOL    HW315827   0.324   0.519   3.706 -0.3866 -0.1652 -0.4089
 4015SOL    MW415828   0.377   0.533   3.638 -0.2109  0.2678 -0.1900
 4016SOL     OW15829   1.731   2.008   0.014 -0.3667  0.3920  0.1410
 4016SOL    HW215830   1.675   2.011   0.092  0.9752 -1.2716  1.2670
 4016SOL    HW315831   1.679   1.962  -0.052 -0.0966 -2.0565  1.4951
 4016SOL    MW415832   1.717   2.002   0.016 -0.1541 -0.1505  0.4682
 4017SOL     OW15833   4.719   2.613   3.673 -0.3516  0.3674  0.2711
 4017SOL    HW215834   4.800   2.650   3.707  0.0830 -0.2913 -0.0423
 4017SOL    HW315835   4.744   2.570   3.591 -1.0410  0.2847  0.0913
 4017SOL    MW415836   4.733   2.613   3.666 -0.3852  0.2696  0.2060
 4018SOL     OW15837   3.487   3.104   1.495  0.2849  0.3220 -0.8497
 4018SOL    HW215838   3.407   3.057   1.473  0.4156 -0.6610  0.6371
 4018SOL    HW315839   3.458   3.188   1.529 -0.0495  0.4817 -1.5228
 4018SOL    MW415840   3.473   3.109   1.496  0.2580  0.2134 -0.7423
 4019SOL     OW15841   1.174   2.012   2.472 -0.2417 -0.2736  0.5741
 4019SOL    HW215842   1.247   2.073   2.481 -0.6797  0.1082  1.6586
 4019SOL    HW315843   1.214   1.933   2.436  0.9086 -0.4045  2.0291
 4019SOL    MW415844   1.189   2.009   2.468 -0.1477 -0.2405  0.9091
 4020SOL     OW15845   3.060   0.527   5.901  0.4780 -0.3428  0.0556
 4020SOL    HW215846   3.071   0.484   5.816 -2.1688 -0.3884 -0.3462
 4020SOL    HW315847   3.062   0.620   5.881 -1.9550 -0.3298 -0.4388
 4020SOL    MW415848   3.062   0.533   5.887 -0.1923 -0.3471 -0.0626
 4021SOL     OW15849   0.290   1.794   6.043  0.1001 -0.7700 -0.2127
 4021SOL    HW215850   0.223   1.759   5.984 -1.1292  1.9010 -0.5758
 4021SOL    HW315851   0.244   1.860   6.095  2.3536  0.9811 -0.2605
 4021SOL    MW415852   0.275   1.798   6.042  0.2352 -0.1865 -0.2669
 4022SOL     OW15853   2.763   3.625   4.691 -0.0436 -0.4598 -0.1841
 4022SOL    HW215854   2.681   3.575   4.698 -1.7962  2.3508  1.2548
 4022SOL    HW315855   2.737   3.708   4.651  1.7619  1.1701  1.7793
 4022SOL    MW415856   2.749   3.629   4.686 -0.0367  0.1261  0.2648
 4023SOL     OW15857   5.456   0.880   1.423  0.6740 -0.7723  0.0943
 4023SOL    HW215858   5.461   0.938   1.347  0.4261 -0.7839  0.0686
 4023SOL    HW315859   5.400   0.808   1.395  0.3501 -0.6350  0.3777
 4023SOL    MW415860   5.449   0.878   1.409  0.5986 -0.7557  0.1283
 4024SOL     OW15861   0.742   4.239   3.509 -0.3573  0.0340  0.2726
 4024SOL    HW215862   0.682   4.187   3.563  0.4338 -0.4259  0.7250
 4024SOL    HW315863   0.703   4.327   3.508 -1.2400 -0.3454  0.2320
 4024SOL    MW415864   0.729   4.244   3.516 -0.3694 -0.0767  0.3269
 4025SOL     OW15865   4.191   5.434   4.804  0.0779  0.0967  0.2188
 4025SOL    HW215866   4.167   5.341   4.811 -0.3011  0.1763  0.0174
 4025SOL    HW315867   4.284   5.433   4.784  1.2130 -0.1734  4.4730
 4025SOL    MW415868   4.200   5.421   4.802  0.1777  0.0715  0.7535
 4026SOL     OW15869   4.826   1.926   6.127  0.1535  0.4083  0.8141
 4026SOL    HW215870   4.752   1.975   6.090  1.4544  0.4669 -1.9816
 4026SOL    HW315871   4.868   1.988   6.187 -1.3305  0.7862  1.5037
 4026SOL    MW415872   4.822   1.941   6.130  0.1293  0.4659  0.5362
 4027SOL     OW15873   5.061   0.413   4.281 -0.0881 -0.0872 -0.3928
 4027SOL    HW215874   5.098   0.473   4.346 -1.6360 -0.8928  1.3523
 4027SOL    HW315875   5.004   0.467   4.227 -0.9767  0.1624  0.7556
 4027SOL    MW415876   5.058   0.428   4.283 -0.4096 -0.1606 -0.0110
 4028SOL     OW15877   4.579   5.837   3.137  0.3196 -0.0990  0.1075
 4028SOL    HW215878   4.525   5.761   3.115  1.0788 -1.5492  2.7977
 4028SOL    HW315879   4.662   5.800   3.167  0.7747  1.7751  1.3422
 4028SOL    MW415880   4.583   5.822   3.138  0.4798 -0.0431  0.6253
 4029SOL     OW15881   1.332   4.411   2.359 -0.6903  0.2506 -0.4302
 4029SOL    HW215882   1.377   4.486   2.398  1.2303 -1.2426  0.4056
 4029SOL    HW315883   1.357   4.414   2.266  0.7085 -0.2240 -0.0877
 4029SOL    MW415884   1.341   4.421   2.352 -0.2524 -0.0091 -0.2747
 4030SOL     OW15885   4.554   2.725   3.990  0.4725  0.2071  0.0379
 4030SOL    HW215886   4.640   2.759   4.014  2.1090 -1.1138 -3.3558
 4030SOL    HW315887   4.523   2.785   3.922 -0.1285 -0.7178 -0.5191
 4030SOL    MW415888   4.561   2.738   3.984  0.6091 -0.0892 -0.4833
 4031SOL     OW15889   5.039   3.243   3.905 -0.1715 -0.0229  0.1905
 4031SOL    HW215890   5.086   3.326   3.911 -0.0966 -0.0335 -0.2314
 4031SOL    HW315891   5.030   3.226   3.811  1.5154 -1.4421  0.2344
 4031SOL    MW415892   5.044   3.252   3.894  0.0609 -0.2115  0.1407
 4032SOL     OW15893   5.768   3.408   4.844 -0.4088  0.6398 -0.5183
 4032SOL    HW215894   5.682   3.401   4.886 -0.7158  1.0828 -1.0723
 4032SOL    HW315895   5.807   3.487   4.882 -0.4492  0.7196 -0.6445
 4032SOL    MW415896   5.762   3.418   4.855 -0.4546  0.7088 -0.6081
 4033SOL     OW15897   2.647   1.072   1.939  0.4438 -0.4151  0.0958
 4033SOL    HW215898   2.734   1.086   1.977 -0.4635  0.6934  1.9056
 4033SOL    HW315899   2.623   1.158   1.904 -0.5103 -0.3290  0.9356
 4033SOL    MW415900   2.655   1.085   1.940  0.1982 -0.2575  0.4454
 4034SOL     OW15901   6.121   0.896   2.102  0.1816  0.1602 -0.1879
 4034SOL    HW215902   6.158   0.863   2.020 -0.0305  1.9260 -1.0368
 4034SOL    HW315903   6.026   0.892   2.089  0.1290 -0.3042  0.2984
 4034SOL    MW415904   6.114   0.891   2.089  0.1466  0.3319 -0.2357
 4035SOL     OW15905   1.358   5.191   4.162  0.0176  0.0937  0.1160
 4035SOL    HW215906   1.367   5.282   4.134 -0.2703  0.3478  0.8372
 4035SOL    HW315907   1.412   5.142   4.100  0.5445  0.8023  0.0007
 4035SOL    MW415908   1.366   5.197   4.150  0.0492  0.2208  0.1960
 4036SOL     OW15909   2.104   3.394   4.093 -0.1062 -0.1369  0.2791
 4036SOL    HW215910   2.135   3.450   4.164  0.5209 -0.1942  0.0582
 4036SOL    HW315911   2.162   3.318   4.096  0.7950  0.4524 -1.1266
 4036SOL    MW415912   2.116   3.391   4.103  0.0955 -0.0667  0.0645
 4037SOL     OW15913   4.462   2.260   5.890  0.1072  0.3979  0.3633
 4037SOL    HW215914   4.374   2.285   5.919  0.0313  2.5340 -1.4069
 4037SOL    HW315915   4.448   2.213   5.808  0.5970  0.1542  0.4172
 4037SOL    MW415916   4.448   2.257   5.883  0.1618  0.6476  0.1368
 4038SOL     OW15917   5.947   0.444   1.133 -0.5407 -0.1622 -0.0875
 4038SOL    HW215918   5.852   0.433   1.135 -0.4237 -1.4878 -0.6792
 4038SOL    HW315919   5.971   0.454   1.225 -1.2089 -0.2398  0.1029
 4038SOL    MW415920   5.938   0.444   1.145 -0.6134 -0.3473 -0.1405
 4039SOL     OW15921   5.761   3.417   1.778 -0.3957 -0.6421  0.1649
 4039SOL    HW215922   5.699   3.446   1.846 -0.1987  0.2485 -0.0239
 4039SOL    HW315923   5.847   3.443   1.811 -0.2352 -0.7851 -0.1365
 4039SOL    MW415924   5.764   3.424   1.791 -0.3485 -0.5434  0.1002
 4040SOL     OW15925   1.529   1.795   3.877 -0.2416 -0.0262 -0.1712
 4040SOL    HW215926   1.555   1.783   3.786 -0.9065  1.5413 -0.6130
 4040SOL    HW315927   1.437   1.768   3.879 -0.5324  0.9304 -0.2252
 4040SOL    MW415928   1.520   1.790   3.865 -0.3677  0.3068 -0.2366
 4041SOL     OW15929   4.494   3.563   0.091 -0.1326 -0.2114 -0.7828
 4041SOL    HW215930   4.526   3.620   0.161 -0.4035  1.0349 -1.6412
 4041SOL    HW315931   4.404   3.543   0.114  0.4672 -1.8256  0.4398
 4041SOL    MW415932   4.487   3.568   0.103 -0.0892 -0.2599 -0.7348
 4042SOL     OW15933   0.290   1.457   5.792 -0.2476 -0.4108 -0.2800
 4042SOL    HW215934   0.224   1.411   5.739 -1.7158  1.5410 -0.2579
 4042SOL    HW315935   0.313   1.394   5.860 -0.5224 -1.9006 -1.5010
 4042SOL    MW415936   0.284   1.442   5.794 -0.4775 -0.3499 -0.4382
 4043SOL     OW15937   2.956   2.002   0.756 -0.1976  0.5470 -0.2926
 4043SOL    HW215938   2.979   2.092   0.736 -0.9952  1.1092  1.1735
 4043SOL    HW315939   3.040   1.958   0.771  0.1381  1.6916  1.4885
 4043SOL    MW415940   2.970   2.008   0.755 -0.2585  0.7722  0.1358
 4044SOL     OW15941   0.775   2.208   3.172  0.2313  0.6362 -0.1839
 4044SOL    HW215942   0.836   2.212   3.098  0.5581  0.3305  0.0663
 4044SOL    HW315943   0.807   2.274   3.233  0.8520 -0.1486  0.3501
 4044SOL    MW415944   0.787   2.217   3.170  0.3563  0.4924 -0.0805
 4045SOL     OW15945   6.389   0.120   0.591  0.9209  0.1760  0.3195
 4045SOL    HW215946   6.351   0.202   0.559  0.1583 -0.9035 -1.6933
 4045SOL    HW315947   6.468   0.109   0.539  0.8500 -0.5243  0.3576
 4045SOL    MW415948   6.394   0.130   0.580  0.8109 -0.0588  0.0590
 4046SOL     OW15949   5.033   4.914   6.083 -0.1619 -0.4070  0.1682
 4046SOL    HW215950   5.093   4.846   6.111 -0.5003 -0.6885  0.2109
 4046SOL    HW315951   5.084   4.995   6.089  0.5461 -0.7567 -0.7952
 4046SOL    MW415952   5.048   4.916   6.087 -0.1132 -0.4903  0.0467
 4047SOL     OW15953   3.706   4.904   3.969 -0.0592  0.5362  0.0460
 4047SOL    HW215954   3.790   4.949   3.975  0.9814 -1.2779 -0.5115
 4047SOL    HW315955   3.702   4.849   4.047 -0.7034  0.5602  0.0365
 4047SOL    MW415956   3.716   4.903   3.980 -0.0069  0.3000 -0.0288
 4048SOL     OW15957   3.681   1.756   1.656 -0.0181 -0.1793  0.0751
 4048SOL    HW215958   3.765   1.764   1.611 -0.2236 -0.4550 -0.3598
 4048SOL    HW315959   3.705   1.745   1.748  0.4022  0.5042  0.0557
 4048SOL    MW415960   3.695   1.756   1.662  0.0103 -0.1255  0.0152
 4049SOL     OW15961   3.138   4.301   5.025  0.5458  0.5376  0.3239
 4049SOL    HW215962   3.206   4.355   4.986  2.4496 -0.7227  1.7286
 4049SOL    HW315963   3.056   4.334   4.987  1.8312  2.6678 -0.7668
 4049SOL    MW415964   3.136   4.312   5.015  0.9666  0.6524  0.3653
 4050SOL     OW15965   3.594   6.095   3.540  0.4180 -0.2443 -0.6872
 4050SOL    HW215966   3.594   6.003   3.566  3.5524 -0.1390  0.0936
 4050SOL    HW315967   3.502   6.116   3.528 -0.6713 -2.6319  2.1741
 4050SOL    MW415968   3.582   6.086   3.542  0.6878 -0.5454 -0.2066
 4051SOL     OW15969   6.317   1.993   3.637  0.2614 -0.7005  0.0274
 4051SOL    HW215970   6.332   2.086   3.653 -1.1909 -0.3039 -0.6880
 4051SOL    HW315971   6.284   1.959   3.720  2.7272 -1.0900  0.9243
 4051SOL    MW415972   6.314   2.001   3.650  0.3951 -0.6996  0.0513
 4052SOL     OW15973   1.208   1.082   5.653 -0.0986  1.0853  0.1510
 4052SOL    HW215974   1.155   1.029   5.712 -1.1024  1.4043 -0.4539
 4052SOL    HW315975   1.288   1.101   5.704  0.0447 -0.5147  0.5701
 4052SOL    MW415976   1.212   1.077   5.668 -0.2121  0.9163  0.1265
 4053SOL     OW15977   6.352   6.358   1.351 -0.0055 -0.5278 -0.4333
 4053SOL    HW215978   6.436   6.372   1.394  0.1619  1.6348 -1.3295
 4053SOL    HW315979   6.369   6.374   1.258 -1.3336 -0.2602 -0.6604
 4053SOL    MW415980   6.365   6.362   1.344 -0.1587 -0.2072 -0.5815
 4054SOL     OW15981   4.839   3.607   1.233  0.3474  0.4314  0.6709
 4054SOL    HW215982   4.923   3.609   1.278  0.7478 -0.8692  0.0223
 4054SOL    HW315983   4.854   3.552   1.156 -0.6194  1.6834 -0.4449
 4054SOL    MW415984   4.852   3.600   1.229  0.2727  0.4250  0.4381
 4055SOL     OW15985   4.600   6.102   5.242 -0.1572 -0.0126  0.2029
 4055SOL    HW215986   4.639   6.046   5.174 -0.5669 -0.1264  0.0587
 4055SOL    HW315987   4.604   6.190   5.205 -1.1551 -0.1793 -0.3421
 4055SOL    MW415988   4.605   6.106   5.228 -0.3429 -0.0496  0.1120
 4056SOL     OW15989   0.565   6.175   1.689  0.2901  0.5047 -0.1403
 4056SOL    HW215990   0.575   6.269   1.703  1.5620  0.3568  0.0501
 4056SOL    HW315991   0.559   6.166   1.593 -0.1807  0.8039 -0.1423
 4056SOL    MW415992   0.566   6.187   1.678  0.3958  0.5246 -0.1154
 4057SOL     OW15993   4.642   1.306   2.092 -0.3302 -0.3029  0.1405
 4057SOL    HW215994   4.717   1.266   2.136  0.3115  0.3081 -0.3823
 4057SOL    HW315995   4.664   1.301   1.999 -0.4678  0.8267  0.0412
 4057SOL    MW415996   4.655   1.300   2.085 -0.2637 -0.0733  0.0584
 4058SOL     OW15997   2.065   3.583   3.904 -0.1391  0.1444  0.8273
 4058SOL    HW215998   1.988   3.558   3.853 -0.6257  0.5420  1.3677
 4058SOL    HW315999   2.075   3.513   3.969  0.9154 -0.7532 -0.2410
 4058SOL    MW416000   2.056   3.570   3.906 -0.0642  0.0784  0.7576
 4059SOL     OW16001   3.817   4.616   1.390 -0.5858 -0.1740 -0.0909
 4059SOL    HW216002   3.848   4.661   1.468 -0.6589  1.0633 -0.7491
 4059SOL    HW316003   3.725   4.642   1.382 -0.4957 -0.0302 -0.7492
 4059SOL    MW416004   3.809   4.625   1.399 -0.5835  0.0082 -0.2646
 4060SOL     OW16005   2.393   5.480   6.031  0.7839 -0.2202  0.0069
 4060SOL    HW216006   2.357   5.557   6.075 -0.7913  0.3678 -2.1601
 4060SOL    HW316007   2.372   5.407   6.089  0.3463  0.7125  1.0537
 4060SOL    MW416008   2.386   5.481   6.045  0.5183 -0.0196 -0.1409
 4061SOL     OW16009   3.352   5.320   1.893 -0.6176  0.0701  0.1911
 4061SOL    HW216010   3.436   5.303   1.850 -0.2798 -1.8036  1.4945
 4061SOL    HW316011   3.306   5.236   1.891 -3.1754  1.3468 -1.8291
 4061SOL    MW416012   3.357   5.307   1.887 -0.9105 -0.0087  0.0965
 4062SOL     OW16013   3.381   3.437   5.261 -0.1970 -0.0125 -0.0336
 4062SOL    HW216014   3.409   3.450   5.171 -0.5864 -2.6209 -0.6016
 4062SOL    HW316015   3.338   3.520   5.285  0.0355  0.7778 -2.1643
 4062SOL    MW416016   3.379   3.450   5.252 -0.2177 -0.2524 -0.3896
 4063SOL     OW16017   5.463   0.427   2.707 -0.6787 -0.4115 -0.2777
 4063SOL    HW216018   5.483   0.477   2.786 -1.7159 -0.3109 -0.0727
 4063SOL    HW316019   5.496   0.339   2.726  0.5849  0.0096 -0.3973
 4063SOL    MW416020   5.470   0.422   2.720 -0.6488 -0.3427 -0.2664
 4064SOL     OW16021   1.008   3.795   2.248 -0.0157 -0.0668  0.1487
 4064SOL    HW216022   1.022   3.709   2.287 -0.9845  0.1174  0.9235
 4064SOL    HW316023   0.925   3.826   2.285  0.2518  1.1438 -0.2078
 4064SOL    MW416024   0.999   3.788   2.258 -0.1082  0.1172  0.2039
 4065SOL     OW16025   4.573   2.414   5.533  0.0803  0.2253  0.2078
 4065SOL    HW216026   4.496   2.459   5.567 -1.9295 -2.1363 -0.9449
 4065SOL    HW316027   4.569   2.327   5.572  0.4643 -0.9126 -2.1255
 4065SOL    MW416028   4.563   2.409   5.543 -0.1342 -0.2364 -0.2521
 4066SOL     OW16029   3.265   6.094   5.011 -0.5117 -0.2429  0.4905
 4066SOL    HW216030   3.360   6.098   5.014 -0.5565  0.6605  1.8425
 4066SOL    HW316031   3.241   6.131   4.926  0.3349 -0.3664  0.1960
 4066SOL    MW416032   3.274   6.099   5.000 -0.4060 -0.1400  0.6300
 4067SOL     OW16033   5.997   2.906   6.348 -0.1572 -0.2099  0.1176
 4067SOL    HW216034   6.061   2.851   6.394 -0.8169 -0.0116  1.3274
 4067SOL    HW316035   5.923   2.848   6.331  0.9762 -0.9518 -2.9413
 4067SOL    MW416036   5.995   2.891   6.352 -0.0947 -0.2816 -0.1264
 4068SOL     OW16037   5.659   2.166   5.445  0.4893 -0.1210  0.4686
 4068SOL    HW216038   5.625   2.138   5.530  2.1273 -0.4846  1.0416
 4068SOL    HW316039   5.746   2.199   5.464  0.4563  0.8709 -0.9268
 4068SOL    MW416040   5.666   2.167   5.459  0.7011 -0.0381  0.3601
 4069SOL     OW16041   1.886   3.060   4.918  0.4346 -0.3082  0.2614
 4069SOL    HW216042   1.900   3.018   4.833 -2.5777  0.9733 -1.0140
 4069SOL    HW316043   1.821   3.005   4.961  1.4452 -0.5729  1.4925
 4069SOL    MW416044   1.880   3.047   4.912  0.1705 -0.1741  0.2556
 4070SOL     OW16045   5.541   3.291   1.974  0.1951  0.4468  0.2975
 4070SOL    HW216046   5.521   3.299   1.881  0.9687  1.0590  0.1791
 4070SOL    HW316047   5.498   3.366   2.015 -1.7569 -0.8356  0.7266
 4070SOL    MW416048   5.533   3.302   1.967  0.0396  0.3583  0.3385
 4071SOL     OW16049   3.910   1.372   4.096  0.7177  0.0975 -0.0971
 4071SOL    HW216050   3.821   1.360   4.064  0.3918  0.5379  0.6173
 4071SOL    HW316051   3.899   1.411   4.183  1.5967 -0.1319  0.1269
 4071SOL    MW416052   3.897   1.375   4.103  0.7907  0.1253  0.0267
 4072SOL     OW16053   4.018   2.645   0.286  0.1898  0.0423 -0.2810
 4072SOL    HW216054   4.024   2.566   0.339  1.2476 -0.2961 -0.8730
 4072SOL    HW316055   3.981   2.615   0.203  0.5579  0.1680 -0.4933
 4072SOL    MW416056   4.014   2.631   0.282  0.3779  0.0142 -0.3871
 4073SOL     OW16057   0.728   4.814   1.786 -1.2641 -0.2220  0.0587
 4073SOL    HW216058   0.696   4.736   1.831  1.3375 -1.5096 -0.1310
 4073SOL    HW316059   0.728   4.790   1.693 -0.2067 -0.1086  0.0198
 4073SOL    MW416060   0.723   4.801   1.780 -0.7813 -0.3769  0.0285
 4074SOL     OW16061   1.601   1.572   5.743  0.3664  0.5508  0.2437
 4074SOL    HW216062   1.540   1.592   5.815  0.5185  0.9567  0.2636
 4074SOL    HW316063   1.545   1.564   5.666  0.3164  1.2576  0.2005
 4074SOL    MW416064   1.585   1.574   5.743  0.3799  0.6976  0.2406
 4075SOL     OW16065   4.453   3.756   1.813 -0.0891 -0.1406 -0.5519
 4075SOL    HW216066   4.465   3.693   1.884 -0.8258  0.8285  0.4740
 4075SOL    HW316067   4.393   3.713   1.752  0.8491 -1.1354 -0.8057
 4075SOL    MW416068   4.447   3.742   1.815 -0.0625 -0.1440 -0.4501
 4076SOL     OW16069   3.366   1.370   1.761  0.2251  0.0024  0.3267
 4076SOL    HW216070   3.304   1.373   1.688  0.2495 -1.5975  0.2152
 4076SOL    HW316071   3.442   1.420   1.730 -0.5250  0.9914  0.0240
 4076SOL    MW416072   3.368   1.377   1.747  0.1293 -0.0782  0.2720
 4077SOL     OW16073   1.840   2.463   6.107  0.1747  0.0471  0.3959
 4077SOL    HW216074   1.805   2.375   6.126  1.9924 -1.1184 -1.2864
 4077SOL    HW316075   1.811   2.481   6.017 -0.2840  1.2575  0.7655
 4077SOL    MW416076   1.831   2.453   6.098  0.3540  0.0530  0.2227
 4078SOL     OW16077   2.305   3.464   3.742 -0.4310  0.3054 -0.3651
 4078SOL    HW216078   2.242   3.501   3.804 -2.6225  0.7837 -2.7523
 4078SOL    HW316079   2.292   3.370   3.747 -0.9632  0.3716 -0.4436
 4078SOL    MW416080   2.295   3.457   3.751 -0.7904  0.3773 -0.6904
 4079SOL     OW16081   3.716   0.695   5.096  0.0032 -0.7135  0.1512
 4079SOL    HW216082   3.769   0.726   5.022 -0.6108 -1.9779 -0.8547
 4079SOL    HW316083   3.779   0.686   5.168  0.5994  0.6161 -0.1677
 4079SOL    MW416084   3.731   0.698   5.095  0.0009 -0.7049 -0.0236
 4080SOL     OW16085   4.823   4.078   3.213 -0.6534  0.8312 -0.3888
 4080SOL    HW216086   4.878   4.154   3.232  1.5633 -1.0901  1.4470
 4080SOL    HW316087   4.807   4.082   3.119  1.8987  1.9728 -0.8381
 4080SOL    MW416088   4.828   4.089   3.203 -0.0243  0.7284 -0.2059
 4081SOL     OW16089   4.890   3.306   2.954  0.4671  0.2560  0.0948
 4081SOL    HW216090   4.890   3.210   2.953  0.5240  0.2603 -0.4369
 4081SOL    HW316091   4.866   3.329   3.044  2.3424 -0.2740  0.7822
 4081SOL    MW416092   4.887   3.296   2.966  0.7220  0.1866  0.1153
 4082SOL     OW16093   1.217   1.768   1.032  0.2450  0.5815 -0.0193
 4082SOL    HW216094   1.195   1.764   1.125 -0.9926  0.9614 -0.2837
 4082SOL    HW316095   1.299   1.819   1.029  0.6660 -0.0174  0.9061
 4082SOL    MW416096   1.225   1.774   1.044  0.1373  0.5526  0.0679
 4083SOL     OW16097   1.482   4.989   6.063  0.3987  0.4559 -0.3307
 4083SOL    HW216098   1.491   5.080   6.090 -1.4310  0.9538 -1.1887
 4083SOL    HW316099   1.474   4.940   6.145 -2.2714  1.5783  0.2084
 4083SOL    MW416100   1.482   4.994   6.077 -0.1950  0.6697 -0.3728
 4084SOL     OW16101   4.270   6.050   2.945  0.1747 -0.0453  0.5793
 4084SOL    HW216102   4.360   6.061   2.973  0.1154  0.0328  0.7385
 4084SOL    HW316103   4.223   6.124   2.983  0.0554 -0.0483  0.4421
 4084SOL    MW416104   4.276   6.061   2.954  0.1511 -0.0354  0.5822
 4085SOL     OW16105   3.999   5.098   4.596  0.5669 -0.0469  0.2189
 4085SOL    HW216106   3.938   5.044   4.645  1.3380 -1.8457 -0.7090
 4085SOL    HW316107   4.068   5.038   4.569  1.4266  1.3931 -0.9671
 4085SOL    MW416108   4.000   5.083   4.599  0.7821 -0.0943 -0.0600
 4086SOL     OW16109   3.967   4.306   3.885 -0.3205 -0.1676 -0.5957
 4086SOL    HW216110   3.896   4.299   3.949  2.1288  1.5664  2.5717
 4086SOL    HW316111   4.047   4.296   3.936  1.8332  0.1324 -3.6362
 4086SOL    MW416112   3.968   4.304   3.900  0.2868  0.1008 -0.5790
 4087SOL     OW16113   4.635   4.788   6.067  0.1029  0.0835 -0.3280
 4087SOL    HW216114   4.544   4.796   6.037 -0.6998  1.2633  2.1132
 4087SOL    HW316115   4.664   4.703   6.034 -2.4110 -0.9966  0.0030
 4087SOL    MW416116   4.627   4.778   6.059 -0.3347  0.0966  0.0377
 4088SOL     OW16117   5.854   1.852   1.951  0.2718 -0.1332 -0.1857
 4088SOL    HW216118   5.925   1.866   2.014  1.1986 -2.7801 -0.5058
 4088SOL    HW316119   5.776   1.840   2.006  0.6451 -0.2081  0.3362
 4088SOL    MW416120   5.853   1.852   1.967  0.4434 -0.4923 -0.1591
 4089SOL     OW16121   4.645   1.909   2.140 -0.0995  0.5651  0.3492
 4089SOL    HW216122   4.577   1.846   2.115  1.1520 -0.2938 -0.9981
 4089SOL    HW316123   4.676   1.945   2.057  1.0029  1.0408  0.9546
 4089SOL    MW416124   4.640   1.906   2.126  0.2111  0.5145  0.2513
 4090SOL     OW16125   0.975   6.231   0.049  0.4442 -0.2367  0.5985
 4090SOL    HW216126   1.071   6.222   0.050  0.3199 -2.2441 -0.3437
 4090SOL    HW316127   0.948   6.188  -0.032 -1.2981 -0.2251  1.1402
 4090SOL    MW416128   0.984   6.224   0.039  0.1979 -0.5000  0.5457
 4091SOL     OW16129   4.662   3.324   1.745 -0.2832 -0.2611 -0.3400
 4091SOL    HW216130   4.716   3.365   1.677 -1.8304  1.6759 -0.4952
 4091SOL    HW316131   4.575   3.361   1.732 -1.3611 -2.2335  0.7685
 4091SOL    MW416132   4.658   3.334   1.735 -0.6295 -0.2658 -0.2142
 4092SOL     OW16133   1.587   2.361   3.868 -0.3547  0.1098  0.2732
 4092SOL    HW216134   1.606   2.372   3.775  1.2398  0.8184  0.6546
 4092SOL    HW316135   1.624   2.276   3.891 -1.2608 -0.3257  0.1409
 4092SOL    MW416136   1.594   2.352   3.859 -0.2639  0.1458  0.3060
 4093SOL     OW16137   3.406   1.230   3.327  0.0248  0.4533  0.2439
 4093SOL    HW216138   3.415   1.235   3.422  1.7069 -1.0527  0.2207
 4093SOL    HW316139   3.424   1.319   3.297  1.6867  0.4934  1.2277
 4093SOL    MW416140   3.410   1.242   3.336  0.4660  0.2599  0.3706
 4094SOL     OW16141   1.797   1.124   0.247 -0.2720  0.1548 -0.1997
 4094SOL    HW216142   1.834   1.202   0.206 -0.8227  0.2566 -0.5231
 4094SOL    HW316143   1.702   1.138   0.243 -0.3322  0.3597  1.4967
 4094SOL    MW416144   1.789   1.136   0.241 -0.3526  0.1953 -0.0186
 4095SOL     OW16145   5.154   5.046   1.957  0.1296  0.4113  0.1905
 4095SOL    HW216146   5.225   5.043   1.893 -1.5731  0.0181 -1.7893
 4095SOL    HW316147   5.192   5.012   2.037  2.4306  1.1487 -0.5070
 4095SOL    MW416148   5.169   5.041   1.959  0.2085  0.4567 -0.1627
 4096SOL     OW16149   2.739   4.938   5.163  0.4157  0.4911 -0.3805
 4096SOL    HW216150   2.806   4.871   5.146  2.0609  2.2519 -1.3038
 4096SOL    HW316151   2.743   4.994   5.086 -0.8144  1.7250  0.4306
 4096SOL    MW416152   2.748   4.936   5.151  0.4704  0.8862 -0.3953
 4097SOL     OW16153   0.216   0.122   0.471  0.3096  0.0190  0.2656
 4097SOL    HW216154   0.298   0.093   0.510  0.0598  0.7588  1.3974
 4097SOL    HW316155   0.242   0.183   0.402  0.8663 -3.1177 -2.5445
 4097SOL    MW416156   0.230   0.126   0.467  0.3501 -0.2972  0.0442
 4098SOL     OW16157   2.882   3.754   1.370  0.3375  0.1191 -0.1618
 4098SOL    HW216158   2.856   3.662   1.375 -1.5079  0.6445  0.5176
 4098SOL    HW316159   2.950   3.763   1.438  0.2456 -0.6474  0.0386
 4098SOL    MW416160   2.888   3.743   1.380  0.0819  0.0873 -0.0457
 4099SOL     OW16161   5.924   2.008   5.700  0.2813  0.0535  0.2205
 4099SOL    HW216162   5.867   1.934   5.716  0.7115 -0.2064  0.5762
 4099SOL    HW316163   5.929   2.054   5.784 -0.1508  0.6101 -0.0496
 4099SOL    MW416164   5.917   2.005   5.713  0.2811  0.0927  0.2318
 4100SOL     OW16165   6.198   2.704   3.375  0.9045  0.3247  0.3792
 4100SOL    HW216166   6.201   2.725   3.468 -0.5886  1.1662  0.2736
 4100SOL    HW316167   6.255   2.769   3.334  1.6681 -0.1300  0.7047
 4100SOL    MW416168   6.206   2.716   3.382  0.8082  0.3758  0.4082
 4101SOL     OW16169   5.093   6.436   3.237  0.7085  0.2589 -0.6804
 4101SOL    HW216170   5.061   6.522   3.209 -1.1675 -0.5274 -1.1037
 4101SOL    HW316171   5.076   6.378   3.162 -1.2525 -1.1676  0.7433
 4101SOL    MW416172   5.086   6.439   3.223  0.2023 -0.0331 -0.5484
 4102SOL     OW16173   5.552   4.314   0.220  0.1621 -0.1806 -0.0678
 4102SOL    HW216174   5.577   4.312   0.312 -1.4344 -0.7630  0.3873
 4102SOL    HW316175   5.532   4.405   0.202 -0.7264 -0.2441  0.5322
 4102SOL    MW416176   5.553   4.325   0.230 -0.1658 -0.2658  0.0714
 4103SOL     OW16177   3.570   3.631   0.898 -0.0911  0.1566 -0.1271
 4103SOL    HW216178   3.557   3.650   0.991 -0.5174  0.8958 -0.3263
 4103SOL    HW316179   3.486   3.593   0.869 -0.4347  1.1468 -0.4937
 4103SOL    MW416180   3.557   3.629   0.906 -0.1927  0.3847 -0.2018
 4104SOL     OW16181   1.315   2.464   0.149 -0.4810 -0.1811  0.3071
 4104SOL    HW216182   1.230   2.451   0.105  0.0211 -3.6015  0.0899
 4104SOL    HW316183   1.306   2.417   0.232  1.2801 -0.8719  0.1440
 4104SOL    MW416184   1.302   2.456   0.154 -0.1824 -0.7235  0.2569
 4105SOL     OW16185   1.107   4.358   4.372 -0.0399 -0.3168 -0.0367
 4105SOL    HW216186   1.166   4.339   4.299 -0.3799  0.8825 -0.6569
 4105SOL    HW316187   1.054   4.279   4.383 -0.2258 -0.3800 -1.3237
 4105SOL    MW416188   1.108   4.345   4.364 -0.1093 -0.1669 -0.2884
 4106SOL     OW16189   0.765   0.683   3.211 -0.8001 -0.8182 -0.5789
 4106SOL    HW216190   0.834   0.744   3.186 -0.7810 -0.9611 -0.8873
 4106SOL    HW316191   0.698   0.738   3.251  0.6050 -0.9845  2.1832
 4106SOL    MW416192   0.765   0.698   3.213 -0.6122 -0.8590 -0.2551
 4107SOL     OW16193   5.084   6.249   2.757  0.1978 -0.4900  0.4134
 4107SOL    HW216194   4.990   6.243   2.740  0.0851 -0.9227  1.1338
 4107SOL    HW316195   5.124   6.194   2.690 -0.0588 -0.2603  0.0715
 4107SOL    MW416196   5.077   6.241   2.746  0.1491 -0.5168  0.4633
 4108SOL     OW16197   5.701   5.029   1.626 -0.4248 -0.5098  0.0737
 4108SOL    HW216198   5.706   4.938   1.654 -1.7983 -0.6422 -0.0005
 4108SOL    HW316199   5.643   5.028   1.550  0.5269  0.2770 -0.6830
 4108SOL    MW416200   5.694   5.017   1.620 -0.4805 -0.4235 -0.0360
 4109SOL     OW16201   5.644   5.877   3.382 -0.0454  0.4720  0.6198
 4109SOL    HW216202   5.706   5.877   3.309  1.6983 -0.5885  2.0089
 4109SOL    HW316203   5.696   5.852   3.458 -2.0422  0.2828  2.0221
 4109SOL    MW416204   5.659   5.873   3.382 -0.0788  0.3071  0.9881
 4110SOL     OW16205   1.152   3.755   5.271  0.5414  0.3888  0.3566
 4110SOL    HW216206   1.113   3.732   5.355 -2.1536 -0.0708 -0.9283
 4110SOL    HW316207   1.202   3.835   5.290 -1.9768  1.7307  1.9557
 4110SOL    MW416208   1.154   3.763   5.285 -0.1464  0.5052  0.3980
 4111SOL     OW16209   0.989   0.939   2.511  0.0322 -0.3780 -0.1276
 4111SOL    HW216210   0.960   0.876   2.445 -1.6515  1.9670 -1.8001
 4111SOL    HW316211   0.924   1.009   2.508  1.1821  0.9368  2.4403
 4111SOL    MW416212   0.977   0.940   2.502 -0.0382  0.1049 -0.0095
 4112SOL     OW16213   4.905   1.875   1.484  0.2394 -0.0318 -0.2665
 4112SOL    HW216214   4.839   1.825   1.532 -2.2787  2.7934 -0.4353
 4112SOL    HW316215   4.918   1.825   1.403 -1.6006 -0.8058 -0.1418
 4112SOL    MW416216   4.898   1.862   1.480 -0.3356  0.2388 -0.2723
 4113SOL     OW16217   2.776   2.527   4.016 -0.5476  0.8604 -0.2779
 4113SOL    HW216218   2.856   2.575   3.995  0.4865 -0.5059  0.3761
 4113SOL    HW316219   2.757   2.475   3.938  0.8445 -0.9406  0.5118
 4113SOL    MW416220   2.784   2.526   4.003 -0.2275  0.4425 -0.0874
 4114SOL     OW16221   3.669   5.773   1.373 -0.2516 -0.1596  0.3262
 4114SOL    HW216222   3.678   5.687   1.413  2.5070  0.5146  1.4056
 4114SOL    HW316223   3.736   5.827   1.416 -0.3717  1.9345 -1.8724
 4114SOL    MW416224   3.679   5.769   1.384  0.0965  0.2056  0.1786
 4115SOL     OW16225   0.103   2.843   5.068  0.1242 -0.3384  0.0760
 4115SOL    HW216226   0.129   2.779   5.001 -0.1843 -0.7615  0.3499
 4115SOL    HW316227   0.163   2.916   5.056  0.4539 -0.6607 -0.2813
 4115SOL    MW416228   0.114   2.844   5.058  0.1270 -0.4367  0.0650
 4116SOL     OW16229   5.225   4.898   0.378 -0.1464 -0.3430 -0.2963
 4116SOL    HW216230   5.175   4.818   0.372 -0.3079 -0.1527 -2.0258
 4116SOL    HW316231   5.275   4.890   0.459 -0.9149 -1.7263  0.0556
 4116SOL    MW416232   5.225   4.887   0.388 -0.2691 -0.5004 -0.4781
 4117SOL     OW16233   0.957   0.572   2.958  0.1213  0.0458 -0.2253
 4117SOL    HW216234   0.959   0.666   2.977  0.6823  0.0896 -0.4925
 4117SOL    HW316235   1.048   0.544   2.966 -0.0557 -0.4931 -0.0726
 4117SOL    MW416236   0.969   0.581   2.962  0.1720 -0.0195 -0.2404
 4118SOL     OW16237   0.509   1.960   3.244  0.2522 -0.2582  0.1353
 4118SOL    HW216238   0.487   2.043   3.286 -1.5808 -0.2747 -0.6973
 4118SOL    HW316239   0.479   1.970   3.154 -0.2917 -1.9202  0.0985
 4118SOL    MW416240   0.502   1.972   3.238 -0.0614 -0.4796  0.0206
 4119SOL     OW16241   3.332   1.832   4.292 -0.4990 -0.5859 -0.0956
 4119SOL    HW216242   3.322   1.748   4.247 -1.0888 -0.5845  0.0306
 4119SOL    HW316243   3.316   1.812   4.384 -0.4047 -0.3796 -0.0344
 4119SOL    MW416244   3.328   1.819   4.298 -0.5644 -0.5585 -0.0709
 4120SOL     OW16245   4.397   3.029   5.708  0.4632 -0.6442  0.1826
 4120SOL    HW216246   4.321   3.002   5.656 -1.0682 -0.9133  2.4397
 4120SOL    HW316247   4.368   3.022   5.799  2.9938 -0.0850  1.1123
 4120SOL    MW416248   4.383   3.024   5.713  0.5950 -0.6059  0.6031
 4121SOL     OW16249   6.010   4.185   3.685 -0.3802  0.0194  0.4931
 4121SOL    HW216250   6.088   4.133   3.663  1.8911  3.7629 -1.3636
 4121SOL    HW316251   6.029   4.220   3.772 -1.0032 -0.6568  0.9134
 4121SOL    MW416252   6.023   4.183   3.693 -0.1627  0.4241  0.3036
 4122SOL     OW16253   3.739   5.931   1.134  0.1626 -0.1163  0.0744
 4122SOL    HW216254   3.824   5.916   1.093  0.4343 -1.1098  0.9491
 4122SOL    HW316255   3.731   5.860   1.198 -2.1042 -1.0987 -1.1870
 4122SOL    MW416256   3.749   5.919   1.137 -0.1006 -0.3770  0.0233
 4123SOL     OW16257   2.927   2.511   4.792 -0.5417  0.5090 -0.3044
 4123SOL    HW216258   3.021   2.492   4.795 -0.7428 -0.4976 -0.0183
 4123SOL    HW316259   2.888   2.444   4.848 -1.3976  1.1704 -0.0888
 4123SOL    MW416260   2.934   2.500   4.800 -0.6811  0.4635 -0.2382
 4124SOL     OW16261   5.611   1.382   3.973 -0.9697 -0.2642  0.0858
 4124SOL    HW216262   5.644   1.442   3.905 -0.2693 -1.8906 -1.0600
 4124SOL    HW316263   5.675   1.389   4.043 -0.2383 -0.5365 -0.5359
 4124SOL    MW416264   5.624   1.391   3.973 -0.7808 -0.5147 -0.1474
 4125SOL     OW16265   5.843   0.670   2.119  0.3915  0.0700 -0.0174
 4125SOL    HW216266   5.820   0.583   2.151  1.3306  0.3302  1.4628
 4125SOL    HW316267   5.874   0.655   2.030 -2.4881 -0.6572 -1.0064
 4125SOL    MW416268   5.844   0.657   2.112  0.1355  0.0084  0.0474
 4126SOL     OW16269   5.848   3.851   0.504  0.2961 -0.2730  0.0206
 4126SOL    HW216270   5.858   3.931   0.453 -0.9490  0.2258  0.5166
 4126SOL    HW316271   5.753   3.835   0.505  0.3848 -0.8035  1.3610
 4126SOL    MW416272   5.837   3.859   0.497  0.1435 -0.2772  0.2629
 4127SOL     OW16273   2.801   1.564   1.033  0.1986 -0.4252  0.1336
 4127SOL    HW216274   2.879   1.584   1.085  1.3421 -1.2911 -1.1609
 4127SOL    HW316275   2.816   1.608   0.949  0.4583 -2.4942 -0.9851
 4127SOL    MW416276   2.813   1.572   1.028  0.3838 -0.8124 -0.1848
 4128SOL     OW16277   4.467   0.697   6.009 -0.0109  0.3475 -0.0085
 4128SOL    HW216278   4.385   0.666   6.047  0.2930 -0.1339  0.2701
 4128SOL    HW316279   4.485   0.636   5.937  1.8287 -1.7395  2.0230
 4128SOL    MW416280   4.459   0.685   6.005  0.2719  0.0086  0.2963
 4129SOL     OW16281   3.250   5.588   6.191 -0.3233  0.1544  0.8231
 4129SOL    HW216282   3.322   5.625   6.241 -0.8762  0.1513  1.6393
 4129SOL    HW316283   3.178   5.582   6.253 -0.5508 -1.3604  0.4660
 4129SOL    MW416284   3.250   5.592   6.205 -0.4263 -0.0458  0.8836
 4130SOL     OW16285   3.213   2.745   5.524  0.5472 -0.0998 -0.5153
 4130SOL    HW216286   3.306   2.735   5.544  1.1946 -0.7616 -3.4376
 4130SOL    HW316287   3.176   2.659   5.540  0.4692  0.0629  0.2639
 4130SOL    MW416288   3.221   2.732   5.529  0.6223 -0.1657 -0.7980
 4131SOL     OW16289   1.711   6.082   5.487 -0.1425 -0.3050 -0.3106
 4131SOL    HW216290   1.617   6.073   5.502 -0.2796  0.3117 -0.7643
 4131SOL    HW316291   1.749   6.092   5.574 -0.5322 -0.2260 -0.1518
 4131SOL    MW416292   1.704   6.082   5.500 -0.2120 -0.2132 -0.3495
 4132SOL     OW16293   5.102   3.308   4.689  0.2594 -0.5507  0.3125
 4132SOL    HW216294   5.032   3.307   4.755 -0.1854 -1.2872 -0.1597
 4132SOL    HW316295   5.175   3.261   4.731  0.1334 -0.6322  0.4398
 4132SOL    MW416296   5.103   3.302   4.704  0.1841 -0.6586  0.2670
 4133SOL     OW16297   3.203   6.130   2.918 -0.0625  0.0959  0.2090
 4133SOL    HW216298   3.232   6.141   3.009  1.1917  0.5712 -0.2300
 4133SOL    HW316299   3.159   6.212   2.897 -1.0859 -0.3259  0.6255
 4133SOL    MW416300   3.201   6.142   2.928 -0.0321  0.1030  0.2060
 4134SOL     OW16301   4.022   2.568   0.741  0.0411  0.1735  0.4296
 4134SOL    HW216302   4.115   2.548   0.753 -0.4736 -1.8181  1.6836
 4134SOL    HW316303   4.002   2.632   0.809 -0.1291 -1.8023  2.3535
 4134SOL    MW416304   4.032   2.574   0.752 -0.0493 -0.3499  0.8489
 4135SOL     OW16305   0.787   0.123   5.504  0.0035  0.2239 -0.0782
 4135SOL    HW216306   0.812   0.031   5.514  0.4484  0.4053  0.5437
 4135SOL    HW316307   0.692   0.121   5.492 -0.0604 -0.2765  0.4636
 4135SOL    MW416308   0.778   0.111   5.504  0.0538  0.1818  0.0753
 4136SOL     OW16309   5.421   5.471   1.567  0.5044  0.3502  0.5592
 4136SOL    HW216310   5.448   5.380   1.581 -0.0662  0.2359  0.9259
 4136SOL    HW316311   5.467   5.497   1.487  1.2122 -0.0408  0.8236
 4136SOL    MW416312   5.431   5.463   1.559  0.5225  0.2835  0.6425
 4137SOL     OW16313   2.544   3.657   2.606 -0.8019 -0.3517  0.3650
 4137SOL    HW216314   2.559   3.611   2.689  0.9127  0.0494  0.3298
 4137SOL    HW316315   2.556   3.750   2.629 -0.1002 -0.2549 -0.3576
 4137SOL    MW416316   2.548   3.663   2.620 -0.4831 -0.2860  0.2650
 4138SOL     OW16317   5.383   4.007   5.786 -0.3378  0.0356  0.4850
 4138SOL    HW216318   5.439   3.974   5.715  0.3945  0.2892  0.9372
 4138SOL    HW316319   5.405   3.953   5.862  0.3967  1.1063  1.0572
 4138SOL    MW416320   5.394   3.996   5.786 -0.1443  0.2103  0.6202
 4139SOL     OW16321   1.820   0.471   0.543  0.9039 -0.4366 -0.3268
 4139SOL    HW216322   1.730   0.454   0.570  0.4600  0.7275 -1.0083
 4139SOL    HW316323   1.869   0.474   0.625 -0.3600  2.7381  0.4380
 4139SOL    MW416324   1.815   0.469   0.558  0.6786  0.1359 -0.3158
 4140SOL     OW16325   6.150   3.898   4.951 -0.0808 -0.7579  0.0964
 4140SOL    HW216326   6.120   3.899   5.042 -2.3251 -0.7429 -0.5653
 4140SOL    HW316327   6.245   3.896   4.956 -0.1709 -1.8356  2.4437
 4140SOL    MW416328   6.158   3.898   4.964 -0.3888 -0.8981  0.3188
 4141SOL     OW16329   5.467   1.736   6.288  0.0769  0.5927 -0.6987
 4141SOL    HW216330   5.451   1.641   6.287  0.3998  0.5395 -0.8496
 4141SOL    HW316331   5.455   1.761   6.379 -2.3427  0.8081 -1.0055
 4141SOL    MW416332   5.463   1.727   6.300 -0.1997  0.6141 -0.7591
 4142SOL     OW16333   5.843   1.791   5.039 -0.0303  0.5599  0.5864
 4142SOL    HW216334   5.869   1.754   5.123  1.2586  0.3193  0.1045
 4142SOL    HW316335   5.750   1.811   5.049  0.0547  0.3289  1.9852
 4142SOL    MW416336   5.834   1.788   5.051  0.1510  0.4977  0.7074
 4143SOL     OW16337   0.859   1.392   0.121  0.3113  0.1574  0.1527
 4143SOL    HW216338   0.871   1.353   0.034  2.1403 -0.4928  0.6556
 4143SOL    HW316339   0.801   1.332   0.166  2.0173 -1.3560  0.4588
 4143SOL    MW416340   0.853   1.379   0.115  0.7777 -0.1280  0.2594
 4144SOL     OW16341   4.606   0.865   3.609 -0.6287  0.5462 -0.0551
 4144SOL    HW216342   4.618   0.871   3.515  0.6402 -0.5119  0.0121
 4144SOL    HW316343   4.693   0.845   3.644 -1.1063  0.7245  1.3246
 4144SOL    MW416344   4.619   0.863   3.601 -0.5243  0.4301  0.1358
 4145SOL     OW16345   2.528   5.185   5.970 -0.0878  0.2541  0.1144
 4145SOL    HW216346   2.437   5.153   5.969 -0.6531  1.7831 -0.6872
 4145SOL    HW316347   2.540   5.225   5.884  1.8648 -1.2175 -0.3419
 4145SOL    MW416348   2.517   5.186   5.959  0.0953  0.2617 -0.0516
 4146SOL     OW16349   0.048   3.887   6.329  0.0630 -0.6855 -0.2272
 4146SOL    HW216350   0.025   3.854   6.242  1.6027  0.2475 -1.0444
 4146SOL    HW316351   0.000   3.970   6.336  0.2237 -0.5769 -0.3695
 4146SOL    MW416352   0.039   3.894   6.318  0.2874 -0.5480 -0.3538
 4147SOL     OW16353   4.588   3.461   1.264 -0.7709 -0.0463  0.3367
 4147SOL    HW216354   4.673   3.507   1.260 -1.2738  0.8261 -0.6582
 4147SOL    HW316355   4.587   3.422   1.351  1.1110 -0.9695  0.0010
 4147SOL    MW416356   4.599   3.462   1.275 -0.5890 -0.0530  0.1612
 4148SOL     OW16357   1.518   0.827   2.496 -0.7394  0.0384  0.1145
 4148SOL    HW216358   1.556   0.768   2.561  0.9532 -0.6280 -1.3906
 4148SOL    HW316359   1.440   0.780   2.465  0.4530 -1.3755 -0.8993
 4148SOL    MW416360   1.512   0.813   2.501 -0.3588 -0.2361 -0.2179
 4149SOL     OW16361   3.779   0.390   2.368  0.0487  0.2031 -0.0110
 4149SOL    HW216362   3.713   0.420   2.306  0.2804  2.0157  0.5425
 4149SOL    HW316363   3.848   0.456   2.363 -0.4764  1.1755  3.0109
 4149SOL    MW416364   3.779   0.403   2.359  0.0100  0.5706  0.4607
 4150SOL     OW16365   1.237   0.702   4.479  0.6720 -1.1112 -0.8204
 4150SOL    HW216366   1.178   0.766   4.439 -0.0447 -0.0381  1.7292
 4150SOL    HW316367   1.184   0.623   4.489  0.0643 -0.5894  0.2111
 4150SOL    MW416368   1.222   0.700   4.475  0.4972 -0.9007 -0.3479
 4151SOL     OW16369   5.637   2.547   1.606 -0.1935 -0.2783  0.2429
 4151SOL    HW216370   5.617   2.509   1.691  0.7168  1.0875  1.1009
 4151SOL    HW316371   5.613   2.479   1.543 -0.0748 -1.6530  1.6303
 4151SOL    MW416372   5.632   2.533   1.609 -0.0578 -0.2795  0.5392
 4152SOL     OW16373   1.085   1.762   5.108 -0.3678  0.2695  0.0791
 4152SOL    HW216374   1.111   1.821   5.179  1.2929  0.1714 -0.4084
 4152SOL    HW316375   1.123   1.801   5.029 -0.7607 -0.5075 -0.5088
 4152SOL    MW416376   1.093   1.775   5.107 -0.2006  0.1541 -0.0628
 4153SOL     OW16377   2.661   6.240   4.171  0.1542 -0.2187 -0.9750
 4153SOL    HW216378   2.724   6.180   4.212  0.5089 -0.0057 -1.2032
 4153SOL    HW316379   2.647   6.308   4.237 -1.1207 -1.1236 -0.2509
 4153SOL    MW416380   2.668   6.241   4.185  0.0328 -0.3100 -0.9096
 4154SOL     OW16381   5.990   3.170   0.153  0.4100 -0.1172 -0.6446
 4154SOL    HW216382   6.004   3.184   0.247  0.8763 -2.3649 -0.3253
 4154SOL    HW316383   5.935   3.091   0.149  2.3527 -1.4705 -2.2821
 4154SOL    MW416384   5.984   3.161   0.165  0.7278 -0.5923 -0.8185
 4155SOL     OW16385   2.334   3.055   1.314  0.3128  0.1316 -0.0045
 4155SOL    HW216386   2.239   3.052   1.324  0.4768 -0.1525  2.0503
 4155SOL    HW316387   2.350   3.127   1.253 -1.1309  2.3075  2.0006
 4155SOL    MW416388   2.324   3.064   1.308  0.1440  0.3812  0.5311
 4156SOL     OW16389   0.819   5.407   4.261 -0.4491 -0.1257  0.2260
 4156SOL    HW216390   0.804   5.501   4.251 -0.8692 -0.1921  0.2035
 4156SOL    HW316391   0.782   5.386   4.347 -2.2673 -0.6520 -0.6425
 4156SOL    MW416392   0.812   5.417   4.271 -0.7444 -0.2039  0.1084
 4157SOL     OW16393   5.631   2.528   2.855 -0.2460 -0.1386  0.4451
 4157SOL    HW216394   5.703   2.476   2.890 -0.0646 -0.5665 -0.5377
 4157SOL    HW316395   5.577   2.550   2.932  0.5578 -0.3833  1.0908
 4157SOL    MW416396   5.633   2.524   2.870 -0.1160 -0.2273  0.4006
 4158SOL     OW16397   1.285   1.968   4.579 -0.6992  0.1180  0.2400
 4158SOL    HW216398   1.274   1.898   4.515  1.2643 -1.8786  1.9459
 4158SOL    HW316399   1.201   1.971   4.625 -0.8309 -1.0835  0.1160
 4158SOL    MW416400   1.272   1.959   4.576 -0.4575 -0.3039  0.4487
 4159SOL     OW16401   2.485   3.281   1.527  0.4539 -0.0491 -0.0732
 4159SOL    HW216402   2.523   3.248   1.608 -0.9034 -0.5674  0.3902
 4159SOL    HW316403   2.484   3.205   1.468  0.1813 -0.0314 -0.0927
 4159SOL    MW416404   2.490   3.266   1.530  0.2389 -0.1151 -0.0147
 4160SOL     OW16405   1.719   0.428   2.967  0.2211 -0.2634 -0.0266
 4160SOL    HW216406   1.666   0.501   2.935 -0.9533 -1.4398 -0.8625
 4160SOL    HW316407   1.657   0.372   3.014  0.9272 -1.1761 -0.1618
 4160SOL    MW416408   1.704   0.430   2.969  0.1593 -0.5390 -0.1547
 4161SOL     OW16409   6.294   0.741   6.191  0.2352  0.1686  0.1029
 4161SOL    HW216410   6.292   0.820   6.137  0.4277 -1.0634 -1.8427
 4161SOL    HW316411   6.262   0.672   6.133  0.3257 -1.2332  1.6420
 4161SOL    MW416412   6.290   0.742   6.176  0.2725 -0.1789  0.0493
 4162SOL     OW16413   1.622   5.575   0.466 -0.0291 -0.3198  0.0846
 4162SOL    HW216414   1.689   5.511   0.487  0.9914  0.9243  0.7621
 4162SOL    HW316415   1.670   5.655   0.443 -1.2517  0.1767 -0.9303
 4162SOL    MW416416   1.637   5.577   0.465 -0.0557 -0.0902  0.0401
 4163SOL     OW16417   5.281   3.769   2.835 -0.8555 -0.1143 -0.1520
 4163SOL    HW216418   5.198   3.797   2.875 -1.3129  0.1501 -1.2436
 4163SOL    HW316419   5.306   3.690   2.884  0.6147  2.1842  3.2208
 4163SOL    MW416420   5.273   3.762   2.847 -0.7218  0.2239  0.1490
 4164SOL     OW16421   4.275   5.107   2.071  0.0413  0.2126  0.4006
 4164SOL    HW216422   4.342   5.103   2.003 -1.0008  1.7779 -0.7859
 4164SOL    HW316423   4.258   5.201   2.082 -2.1335 -0.1444  0.4606
 4164SOL    MW416424   4.282   5.119   2.063 -0.3832  0.3720  0.2520
 4165SOL     OW16425   5.876   3.877   3.345  0.3136  0.2966 -0.2178
 4165SOL    HW216426   5.926   3.806   3.305  1.2799 -0.0099  1.4412
 4165SOL    HW316427   5.933   3.954   3.337  0.4691  0.2577  0.4280
 4165SOL    MW416428   5.890   3.878   3.339  0.4616  0.2510  0.0863
 4166SOL     OW16429   5.050   3.873   1.297  0.4839  0.8206  0.0659
 4166SOL    HW216430   5.029   3.808   1.364  1.4127  0.6897  0.2444
 4166SOL    HW316431   4.966   3.913   1.276  0.0344  0.2009  0.6163
 4166SOL    MW416432   5.036   3.869   1.303  0.5472  0.7215  0.1620
 4167SOL     OW16433   0.022   5.314   1.004  0.2662 -0.3940 -0.1295
 4167SOL    HW216434   0.101   5.287   1.051  0.0927 -0.6985 -0.0156
 4167SOL    HW316435   0.009   5.405   1.030 -0.3374 -0.8117  1.1203
 4167SOL    MW416436   0.031   5.322   1.013  0.1637 -0.4893  0.0504
 4168SOL     OW16437   3.172   4.416   4.151 -0.7451  0.1927 -0.1401
 4168SOL    HW216438   3.180   4.343   4.212 -0.5928 -0.2525 -0.6850
 4168SOL    HW316439   3.179   4.494   4.207  3.2118 -0.1089  0.0775
 4168SOL    MW416440   3.174   4.417   4.167 -0.2030  0.0942 -0.1833
 4169SOL     OW16441   1.876   2.213   2.912 -0.1445  0.4369 -0.1473
 4169SOL    HW216442   1.799   2.157   2.913  0.6667 -0.7310  0.1005
 4169SOL    HW316443   1.911   2.203   2.823  1.3124 -1.3986  0.5581
 4169SOL    MW416444   1.871   2.204   2.900  0.1547  0.0406 -0.0215
 4170SOL     OW16445   3.690   2.222   6.355 -0.4444  0.1102  0.1505
 4170SOL    HW216446   3.688   2.220   6.450 -0.6579  0.3692  0.1513
 4170SOL    HW316447   3.672   2.131   6.329  0.6777 -0.1847  0.3660
 4170SOL    MW416448   3.687   2.210   6.364 -0.3245  0.1054  0.1790
 4171SOL     OW16449   5.059   0.127   5.208 -0.5470  0.5261 -0.5026
 4171SOL    HW216450   5.072   0.084   5.124 -1.8290 -0.4827 -0.2109
 4171SOL    HW316451   5.010   0.064   5.261  3.8232 -0.7448  2.5866
 4171SOL    MW416452   5.054   0.113   5.204 -0.1395  0.2253 -0.0566
 4172SOL     OW16453   4.026   1.172   3.363  0.0531  0.2166  0.2428
 4172SOL    HW216454   4.036   1.105   3.430  0.9190  0.4106  0.3182
 4172SOL    HW316455   4.032   1.255   3.410 -4.3491  0.5328  0.7286
 4172SOL    MW416456   4.028   1.174   3.378 -0.4135  0.2839  0.3169
 4173SOL     OW16457   6.029   0.493   4.515  0.0944 -0.0196  0.8238
 4173SOL    HW216458   6.023   0.418   4.574 -2.1676 -0.3065  0.3104
 4173SOL    HW316459   6.085   0.464   4.443  0.9122 -0.4810  1.6376
 4173SOL    MW416460   6.036   0.480   4.513 -0.0961 -0.1183  0.8634
 4174SOL     OW16461   0.932   6.327   5.582 -0.6220  0.2889  0.5480
 4174SOL    HW216462   0.904   6.292   5.667  2.4870 -1.0691  1.1905
 4174SOL    HW316463   0.941   6.249   5.527  1.1824  0.6526  0.2737
 4174SOL    MW416464   0.930   6.312   5.586  0.0263  0.1577  0.5965
 4175SOL     OW16465   4.039   6.087   4.151  0.4646  0.6384 -0.2977
 4175SOL    HW216466   4.092   6.158   4.186 -1.4845  1.4137  1.2859
 4175SOL    HW316467   4.042   6.019   4.218  0.1488  0.3279 -0.5917
 4175SOL    MW416468   4.047   6.087   4.164  0.1658  0.6997 -0.1276
 4176SOL     OW16469   1.981   2.601   1.145  0.1672 -0.0825 -0.2045
 4176SOL    HW216470   1.961   2.666   1.213 -1.4043 -0.4256 -0.3030
 4176SOL    HW316471   1.971   2.649   1.063  0.5993 -0.0502 -0.2412
 4176SOL    MW416472   1.977   2.616   1.143  0.0169 -0.1235 -0.2224
 4177SOL     OW16473   3.939   3.337   1.042  0.1677  0.5766 -0.2470
 4177SOL    HW216474   3.930   3.254   0.995 -0.0964  0.7746 -0.5465
 4177SOL    HW316475   3.901   3.402   0.984  1.7284  1.1480 -0.6920
 4177SOL    MW416476   3.933   3.335   1.029  0.3388  0.6781 -0.3453
 4178SOL     OW16477   5.894   1.569   2.853 -0.6865 -0.2644 -0.4511
 4178SOL    HW216478   5.980   1.545   2.819 -0.4165 -0.4500  0.3428
 4178SOL    HW316479   5.838   1.494   2.834 -0.2767 -0.8048  0.4544
 4178SOL    MW416480   5.898   1.556   2.846 -0.5968 -0.3602 -0.2269
 4179SOL     OW16481   5.501   5.709   2.972 -0.6972 -0.5991  0.3898
 4179SOL    HW216482   5.432   5.716   3.039  0.1956  0.8710  1.2070
 4179SOL    HW316483   5.581   5.692   3.021  0.2361  1.9280 -0.0682
 4179SOL    MW416484   5.502   5.708   2.987 -0.4563 -0.0717  0.4372
 4180SOL     OW16485   2.131   5.777   3.143 -0.4066 -0.2346  0.0820
 4180SOL    HW216486   2.050   5.819   3.113 -0.4283 -0.7802 -0.6565
 4180SOL    HW316487   2.195   5.849   3.148 -0.8150  0.1206  0.2237
 4180SOL    MW416488   2.129   5.792   3.139 -0.4634 -0.2597  0.0033
 4181SOL     OW16489   0.000   5.581   5.734 -0.1168 -0.3035 -0.2616
 4181SOL    HW216490   0.028   5.670   5.755  0.8733 -0.4626 -0.8275
 4181SOL    HW316491   0.004   5.534   5.817  0.7979 -0.1755 -0.2184
 4181SOL    MW416492   0.005   5.586   5.747  0.1345 -0.3076 -0.3305
 4182SOL     OW16493   5.473   1.601   4.950  0.0955  0.2839  0.4930
 4182SOL    HW216494   5.508   1.529   4.899  0.5485  0.1921  0.9295
 4182SOL    HW316495   5.519   1.596   5.034 -1.9503 -0.7273  1.6341
 4182SOL    MW416496   5.483   1.591   4.954 -0.1147  0.1384  0.7012
 4183SOL     OW16497   2.949   6.094   1.515  0.2437  0.0759 -0.2889
 4183SOL    HW216498   2.913   6.169   1.469  0.0228 -0.7728 -1.5539
 4183SOL    HW316499   3.041   6.116   1.528  0.0299  0.8422 -0.0337
 4183SOL    MW416500   2.957   6.107   1.511  0.1863  0.0650 -0.4221
 4184SOL     OW16501   0.747   6.027   0.416  0.3397  0.6433  0.1178
 4184SOL    HW216502   0.709   6.111   0.441  0.0145  0.6945 -0.5077
 4184SOL    HW316503   0.737   6.025   0.321  2.0182  0.6954 -0.0787
 4184SOL    MW416504   0.740   6.038   0.407  0.5182  0.6570  0.0093
 4185SOL     OW16505   6.180   1.419   0.606  0.1787 -0.0333  0.8359
 4185SOL    HW216506   6.085   1.417   0.592  0.3098 -0.0497 -0.0815
 4185SOL    HW316507   6.196   1.503   0.649  0.0827  1.3832 -1.7219
 4185SOL    MW416508   6.169   1.430   0.610  0.1833  0.1514  0.3774
 4186SOL     OW16509   0.529   5.127   5.295  0.0368 -0.2887  0.0621
 4186SOL    HW216510   0.618   5.127   5.258 -0.3619  2.2506 -1.0314
 4186SOL    HW316511   0.477   5.080   5.231  0.3719 -0.8589  0.1952
 4186SOL    MW416512   0.534   5.120   5.282  0.0284 -0.0289 -0.0646
 4187SOL     OW16513   0.589   2.374   0.269 -0.5304  0.5006 -0.1681
 4187SOL    HW216514   0.673   2.396   0.228  0.1492 -1.4058  0.1011
 4187SOL    HW316515   0.529   2.361   0.196 -0.3657  1.0202 -0.3990
 4187SOL    MW416516   0.592   2.375   0.254 -0.4190  0.3177 -0.1631
 4188SOL     OW16517   6.369   4.978   5.044  0.1548 -0.3123  0.0572
 4188SOL    HW216518   6.419   4.908   5.003 -0.2670 -0.6571  0.1263
 4188SOL    HW316519   6.410   5.059   5.012 -0.0772 -0.5723 -0.9276
 4188SOL    MW416520   6.381   4.980   5.035  0.0685 -0.3921 -0.0636
 4189SOL     OW16521   1.900   2.740   6.158 -0.0032 -0.4643 -0.1897
 4189SOL    HW216522   1.870   2.649   6.163  0.9774 -0.8911 -1.5043
 4189SOL    HW316523   1.940   2.757   6.243 -1.9116 -0.5919  0.8033
 4189SOL    MW416524   1.901   2.730   6.169 -0.1256 -0.5375 -0.2321
 4190SOL     OW16525   2.961   4.404   1.363 -0.1820  0.2812  0.2482
 4190SOL    HW216526   2.988   4.322   1.322  1.2019  0.3524  0.9405
 4190SOL    HW316527   2.995   4.398   1.452  0.6684  1.9355  0.0783
 4190SOL    MW416528   2.969   4.393   1.369  0.1128  0.5089  0.3171
 4191SOL     OW16529   4.040   3.899   2.710  0.2092  0.1955  0.2177
 4191SOL    HW216530   3.975   3.873   2.644  0.7904 -0.5062 -0.0959
 4191SOL    HW316531   3.994   3.962   2.766 -1.2652 -1.5230  1.0233
 4191SOL    MW416532   4.025   3.904   2.708  0.0914 -0.1238  0.2826
 4192SOL     OW16533   1.298   0.862   5.942  0.2813 -0.1551  0.1955
 4192SOL    HW216534   1.351   0.829   6.014  1.5299  2.1109  0.4017
 4192SOL    HW316535   1.347   0.838   5.863 -0.3444 -1.3541  0.1530
 4192SOL    MW416536   1.311   0.855   5.941  0.3634 -0.0143  0.2171
 4193SOL     OW16537   0.662   3.005   3.605 -0.3114 -0.5531 -0.0180
 4193SOL    HW216538   0.624   3.084   3.567 -1.9638 -0.6235  1.3118
 4193SOL    HW316539   0.647   3.015   3.700 -1.8504 -3.0157  0.1031
 4193SOL    MW416540   0.655   3.017   3.613 -0.7325 -0.8873  0.1735
 4194SOL     OW16541   0.601   6.164   5.300 -0.4146 -0.5161 -0.0880
 4194SOL    HW216542   0.534   6.185   5.235 -0.7294 -1.6481 -0.1512
 4194SOL    HW316543   0.557   6.174   5.384 -0.4564 -0.5394 -0.1067
 4194SOL    MW416544   0.586   6.168   5.302 -0.4616 -0.6686 -0.0988
 4195SOL     OW16545   0.884   3.392   2.735 -0.2394 -0.5791 -0.0053
 4195SOL    HW216546   0.842   3.336   2.801  1.2947 -0.4482  1.1283
 4195SOL    HW316547   0.820   3.462   2.720  0.1548  0.5974  2.9987
 4195SOL    MW416548   0.870   3.394   2.742  0.0150 -0.4066  0.5406
 4196SOL     OW16549   5.387   0.928   5.652  0.0557  0.4839  0.0889
 4196SOL    HW216550   5.347   0.991   5.712 -0.7312 -1.1119  1.3111
 4196SOL    HW316551   5.314   0.893   5.601  0.4528  0.4111 -0.4447
 4196SOL    MW416552   5.372   0.932   5.653  0.0043  0.2638  0.1797
 4197SOL     OW16553   3.636   5.306   3.468  0.0131 -0.0867  0.3307
 4197SOL    HW216554   3.657   5.238   3.404 -0.6712  0.9224 -1.0105
 4197SOL    HW316555   3.565   5.355   3.428  2.0577  2.9530  0.1049
 4197SOL    MW416556   3.630   5.303   3.455  0.1926  0.4475  0.1239
 4198SOL     OW16557   1.214   1.502   3.281 -0.2249 -0.2658 -0.5041
 4198SOL    HW216558   1.166   1.425   3.312 -0.0475 -0.7456 -1.3577
 4198SOL    HW316559   1.155   1.575   3.296  0.3432 -0.2719  2.0652
 4198SOL    MW416560   1.200   1.501   3.287 -0.1266 -0.3299 -0.2777
 4199SOL     OW16561   3.921   2.742   5.243  0.5820  0.9000 -0.3458
 4199SOL    HW216562   3.842   2.781   5.280  1.0746  2.0867 -0.5240
 4199SOL    HW316563   3.895   2.716   5.155 -0.1186 -0.4268  0.2067
 4199SOL    MW416564   3.907   2.743   5.237  0.5545  0.8815 -0.2964
 4200SOL     OW16565   0.653   4.888   3.528  0.7659 -0.1337 -0.2743
 4200SOL    HW216566   0.631   4.925   3.613 -1.1479 -2.8265  0.5115
 4200SOL    HW316567   0.739   4.847   3.541  1.1364  0.6750 -0.0947
 4200SOL    MW416568   0.662   4.887   3.541  0.5623 -0.3823 -0.1469
 4201SOL     OW16569   2.758   4.973   0.715 -0.4906 -0.6863 -0.3574
 4201SOL    HW216570   2.704   4.942   0.642 -1.8615  0.0572  0.2952
 4201SOL    HW316571   2.695   4.989   0.786  0.7496 -1.0207  0.8716
 4201SOL    MW416572   2.742   4.971   0.715 -0.5079 -0.6323 -0.1091
 4202SOL     OW16573   2.727   0.887   5.224 -0.4775  0.0406  0.2266
 4202SOL    HW216574   2.650   0.939   5.200 -0.2292  0.2132 -0.1896
 4202SOL    HW316575   2.740   0.905   5.317  0.7088  2.1529 -0.3088
 4202SOL    MW416576   2.718   0.896   5.234 -0.2882  0.3421  0.1010
 4203SOL     OW16577   3.575   1.312   1.395  0.1747 -0.2272  0.0193
 4203SOL    HW216578   3.621   1.343   1.472 -1.6017  1.7999  0.3729
 4203SOL    HW316579   3.537   1.392   1.356 -0.9637 -1.4719 -1.5807
 4203SOL    MW416580   3.576   1.327   1.400 -0.2099 -0.1240 -0.1452
 4204SOL     OW16581   3.636   2.408   2.364 -0.1991  0.5820 -0.5549
 4204SOL    HW216582   3.581   2.406   2.286 -1.8160 -1.0561  0.5440
 4204SOL    HW316583   3.708   2.348   2.344 -0.5365  0.2692 -0.8390
 4204SOL    MW416584   3.638   2.400   2.351 -0.4569  0.3246 -0.4474
 4205SOL     OW16585   4.334   5.929   0.182 -0.4465  0.1253  0.1100
 4205SOL    HW216586   4.274   5.908   0.253 -0.0252 -1.1224  0.1279
 4205SOL    HW316587   4.305   5.873   0.109 -0.3884  0.8062 -0.4463
 4205SOL    MW416588   4.322   5.919   0.182 -0.3832  0.0505  0.0390
 4206SOL     OW16589   1.391   3.748   3.833  0.2245  0.5577  0.4021
 4206SOL    HW216590   1.477   3.738   3.793 -0.0208  0.7958 -0.1899
 4206SOL    HW316591   1.386   3.676   3.896 -0.5132 -1.6127 -2.0043
 4206SOL    MW416592   1.402   3.737   3.836  0.0948  0.3027  0.0065
 4207SOL     OW16593   3.095   3.185   5.538  0.7921  0.2344 -0.5881
 4207SOL    HW216594   3.134   3.132   5.608  0.2396  1.2348  0.5320
 4207SOL    HW316595   3.143   3.162   5.459 -0.3514 -3.0085 -0.4939
 4207SOL    MW416596   3.106   3.175   5.537  0.5683 -0.0615 -0.4279
 4208SOL     OW16597   5.478   5.359   6.313  0.0129 -0.4694 -0.0926
 4208SOL    HW216598   5.404   5.300   6.301  0.3912 -1.5197  2.1141
 4208SOL    HW316599   5.439   5.441   6.342 -0.3442 -0.7017  0.0880
 4208SOL    MW416600   5.463   5.362   6.315  0.0157 -0.6386  0.2224
 4209SOL     OW16601   5.687   2.170   3.904  0.6593 -0.2108 -0.0411
 4209SOL    HW216602   5.741   2.152   3.828 -1.7649 -0.6443 -1.7938
 4209SOL    HW316603   5.692   2.265   3.916  2.3222 -0.3217  0.3080
 4209SOL    MW416604   5.695   2.180   3.896  0.5588 -0.2826 -0.2263
 4210SOL     OW16605   2.440   2.061   0.567  0.4872 -0.1799  0.1705
 4210SOL    HW216606   2.448   1.988   0.627 -0.0984 -0.6093 -0.2602
 4210SOL    HW316607   2.348   2.088   0.574  0.6150  0.2880  0.0748
 4210SOL    MW416608   2.429   2.055   0.576  0.4268 -0.1748  0.1011
 4211SOL     OW16609   5.116   6.188   3.042  0.4039  0.0112  0.3496
 4211SOL    HW216610   5.119   6.201   2.947  0.5487  0.7717  0.4558
 4211SOL    HW316611   5.182   6.122   3.059  1.3044  0.8250  0.0710
 4211SOL    MW416612   5.125   6.181   3.031  0.5418  0.2189  0.3268
 4212SOL     OW16613   0.501   3.688   2.585 -0.3419  0.6325  0.1765
 4212SOL    HW216614   0.534   3.669   2.497 -1.0031 -0.4808  0.1617
 4212SOL    HW316615   0.505   3.784   2.591  1.6445  0.6275 -0.2979
 4212SOL    MW416616   0.506   3.698   2.574 -0.1670  0.4850  0.1119
 4213SOL     OW16617   4.107   3.829   3.124 -0.1692 -0.0772 -0.8806
 4213SOL    HW216618   4.105   3.798   3.214  0.0157 -1.6088 -1.3841
 4213SOL    HW316619   4.186   3.883   3.119  0.2812 -0.6800 -0.3519
 4213SOL    MW416620   4.117   3.832   3.135 -0.0854 -0.3588 -0.8773
 4214SOL     OW16621   2.928   5.356   5.933  0.3002  0.0703 -0.2881
 4214SOL    HW216622   2.990   5.354   6.006  1.2736  2.6508 -0.9492
 4214SOL    HW316623   2.845   5.379   5.974  0.3807 -0.5462  0.2454
 4214SOL    MW416624   2.925   5.358   5.948  0.4393  0.3294 -0.3049
 4215SOL     OW16625   0.892   1.069   1.927 -0.6894 -0.3376 -0.3502
 4215SOL    HW216626   0.840   1.114   1.861 -1.6033 -0.9757 -0.0907
 4215SOL    HW316627   0.827   1.036   1.990  0.1693  0.4068  0.9625
 4215SOL    MW416628   0.876   1.071   1.926 -0.6966 -0.3236 -0.1427
 4216SOL     OW16629   4.849   0.518   2.417  0.0278  0.3356  0.1468
 4216SOL    HW216630   4.762   0.514   2.379  0.4181 -0.6058 -0.6896
 4216SOL    HW316631   4.877   0.609   2.406  0.2807  0.0248 -2.2030
 4216SOL    MW416632   4.841   0.529   2.411  0.1127  0.1704 -0.2736
 4217SOL     OW16633   4.726   3.709   5.599  0.2542 -0.0163 -0.0403
 4217SOL    HW216634   4.670   3.680   5.671 -1.1470  0.5094 -0.8826
 4217SOL    HW316635   4.810   3.727   5.640 -0.1475 -0.9294  1.2496
 4217SOL    MW416636   4.729   3.708   5.614  0.0163 -0.0674  0.0188
 4218SOL     OW16637   2.175   5.625   2.285  0.0846  0.6234 -0.1366
 4218SOL    HW216638   2.127   5.543   2.278 -1.2362  1.0009  2.8730
 4218SOL    HW316639   2.262   5.605   2.251  0.1805 -2.3981  1.5212
 4218SOL    MW416640   2.180   5.612   2.280 -0.0770  0.2746  0.4792
 4219SOL     OW16641   2.864   6.277   0.006  0.6957 -0.0409  0.8133
 4219SOL    HW216642   2.802   6.287  -0.065  1.4439 -2.3073 -0.2545
 4219SOL    HW316643   2.898   6.366   0.021 -0.3955  0.6911 -0.7668
 4219SOL    MW416644   2.861   6.290  -0.001  0.6505 -0.2434  0.4639
 4220SOL     OW16645   5.412   4.268   5.911 -0.0802  0.6815  0.0645
 4220SOL    HW216646   5.384   4.254   6.001  0.3278 -0.4785  0.0347
 4220SOL    HW316647   5.362   4.204   5.860  0.4839  0.5896 -0.3814
 4220SOL    MW416648   5.402   4.258   5.916  0.0480  0.5163  0.0017
 4221SOL     OW16649   1.079   2.289   6.235  0.2932 -0.4234 -0.0675
 4221SOL    HW216650   0.986   2.310   6.224  0.2347  0.4558  1.8074
 4221SOL    HW316651   1.081   2.193   6.244 -0.3293 -0.5193 -0.8120
 4221SOL    MW416652   1.067   2.279   6.235  0.2033 -0.3200  0.0817
 4222SOL     OW16653   5.745   1.015   0.113 -0.0963 -0.2044  0.0616
 4222SOL    HW216654   5.651   1.008   0.099 -0.1498 -1.2441  0.7627
 4222SOL    HW316655   5.784   0.976   0.035 -0.3030 -1.8353  0.7385
 4222SOL    MW416656   5.738   1.009   0.101 -0.1307 -0.5567  0.2434
 4223SOL     OW16657   0.547   4.304   0.185 -0.5844  0.3087 -0.1271
 4223SOL    HW216658   0.505   4.221   0.166 -1.1414  0.6938 -0.6173
 4223SOL    HW316659   0.484   4.370   0.156 -1.2404  0.9431  2.4858
 4223SOL    MW416660   0.533   4.302   0.179 -0.7445  0.4432  0.1530
 4224SOL     OW16661   2.253   3.094   6.146 -0.0174  0.2029  0.3382
 4224SOL    HW216662   2.172   3.098   6.095 -1.0266 -2.6077  1.4795
 4224SOL    HW316663   2.239   3.156   6.217 -1.5885 -0.7442  0.9363
 4224SOL    MW416664   2.240   3.102   6.149 -0.3578 -0.2929  0.5677
 4225SOL     OW16665   4.599   5.453   6.198 -0.0303 -0.4795  0.0920
 4225SOL    HW216666   4.643   5.512   6.260  0.2469 -1.2822  0.6882
 4225SOL    HW316667   4.622   5.365   6.229 -2.5302 -0.9712  0.7878
 4225SOL    MW416668   4.608   5.449   6.210 -0.3235 -0.6503  0.2624
 4226SOL     OW16669   3.773   1.972   4.106  0.1868 -0.3838 -0.0289
 4226SOL    HW216670   3.753   2.001   4.195 -3.2838 -0.3223 -0.6853
 4226SOL    HW316671   3.761   1.877   4.109  1.5538 -0.5835 -0.1563
 4226SOL    MW416672   3.769   1.964   4.118 -0.0907 -0.4020 -0.1323
 4227SOL     OW16673   0.589   5.879   4.376  0.5920 -0.6146  0.7555
 4227SOL    HW216674   0.562   5.924   4.296  1.1839  1.1530  1.5023
 4227SOL    HW316675   0.540   5.923   4.446  0.2041 -2.0209  1.4074
 4227SOL    MW416676   0.579   5.891   4.375  0.6189 -0.5669  0.9400
 4228SOL     OW16677   4.267   1.754   3.623 -0.1962  0.1851 -0.0491
 4228SOL    HW216678   4.355   1.761   3.586  0.2380 -2.1644  0.3487
 4228SOL    HW316679   4.281   1.727   3.714 -1.3225 -0.4177 -0.0349
 4228SOL    MW416680   4.280   1.751   3.630 -0.2875 -0.2044  0.0053
 4229SOL     OW16681   0.315   4.886   5.706 -0.0692  0.2932  0.3140
 4229SOL    HW216682   0.231   4.875   5.661 -0.3178  0.8129  0.6431
 4229SOL    HW316683   0.297   4.948   5.776  0.7433  0.9216 -0.0215
 4229SOL    MW416684   0.301   4.892   5.709  0.0052  0.4447  0.3132
 4230SOL     OW16685   0.914   1.877   2.255 -0.6280  0.6119  0.2630
 4230SOL    HW216686   0.898   1.947   2.318 -0.5338  2.0686 -1.2440
 4230SOL    HW316687   0.832   1.871   2.205  0.2311  1.6141 -1.3950
 4230SOL    MW416688   0.901   1.886   2.256 -0.5022  0.9364 -0.1546
 4231SOL     OW16689   0.814   1.532   4.663  0.0599 -0.4174  0.0154
 4231SOL    HW216690   0.800   1.537   4.569 -1.4473 -1.2390  0.1684
 4231SOL    HW316691   0.788   1.444   4.687  0.1136 -0.1204  1.2555
 4231SOL    MW416692   0.808   1.521   4.654 -0.1319 -0.4866  0.1992
 4232SOL     OW16693   1.204   3.667   1.167 -0.6204  0.7254  0.2062
 4232SOL    HW216694   1.149   3.609   1.115  0.4324 -0.4429  0.3380
 4232SOL    HW316695   1.189   3.754   1.131 -1.3719  0.2082 -0.7656
 4232SOL    MW416696   1.195   3.671   1.155 -0.5807  0.5030  0.0953
 4233SOL     OW16697   4.261   5.754   2.098  0.3377 -0.4714 -0.0975
 4233SOL    HW216698   4.170   5.782   2.107  0.0756 -1.3356  0.0666
 4233SOL    HW316699   4.305   5.828   2.056 -0.2699  0.2564  0.5203
 4233SOL    MW416700   4.255   5.768   2.094  0.2229 -0.4894  0.0057
 4234SOL     OW16701   0.444   3.474   5.285 -0.3653 -0.9156 -0.2928
 4234SOL    HW216702   0.477   3.390   5.253  0.3050 -1.1942  1.0365
 4234SOL    HW316703   0.522   3.529   5.293 -0.9272  0.2512 -2.2232
 4234SOL    MW416704   0.458   3.470   5.282 -0.3510 -0.7984 -0.3721
 4235SOL     OW16705   1.271   0.443   3.968 -0.2177  0.3768 -0.6896
 4235SOL    HW216706   1.253   0.361   3.924  1.5129 -0.3853 -0.0650
 4235SOL    HW316707   1.294   0.418   4.058 -0.0509  1.5572 -0.3810
 4235SOL    MW416708   1.272   0.429   3.974  0.0326  0.4320 -0.5665
 4236SOL     OW16709   0.023   3.849   4.939  0.4007  0.0084  0.5587
 4236SOL    HW216710   0.073   3.928   4.915 -1.3094  1.1226  0.4604
 4236SOL    HW316711   0.054   3.827   5.027 -0.4739  2.0035  1.4234
 4236SOL    MW416712   0.034   3.857   4.947  0.0597  0.4187  0.6598
 4237SOL     OW16713   5.929   0.692   5.461 -0.2229 -0.3329 -0.2965
 4237SOL    HW216714   5.950   0.644   5.381 -0.5187 -0.3389 -0.3700
 4237SOL    HW316715   6.004   0.751   5.474 -0.4467  0.0882 -0.8982
 4237SOL    MW416716   5.942   0.693   5.452 -0.2915 -0.2782 -0.3856
 4238SOL     OW16717   1.869   4.397   0.777 -0.4601  0.2511  0.1417
 4238SOL    HW216718   1.810   4.452   0.828  0.8922  0.5409  1.4340
 4238SOL    HW316719   1.880   4.318   0.829  2.0886  1.1441  1.1088
 4238SOL    MW416720   1.863   4.394   0.790  0.0546  0.4071  0.4398
 4239SOL     OW16721   6.370   0.036   6.209  0.3181 -0.2487 -0.0929
 4239SOL    HW216722   6.324   0.105   6.162 -0.4012 -0.1073  0.7762
 4239SOL    HW316723   6.408  -0.019   6.141  0.7604  0.8974 -0.8036
 4239SOL    MW416724   6.369   0.038   6.194  0.2816 -0.0789 -0.0720
 4240SOL     OW16725   5.087   1.606   1.623 -0.7373  0.0115 -0.6168
 4240SOL    HW216726   5.113   1.517   1.648 -1.9439  0.0972  1.1243
 4240SOL    HW316727   5.162   1.640   1.574  0.2039 -1.5582 -0.3412
 4240SOL    MW416728   5.100   1.599   1.620 -0.7723 -0.1843 -0.3507
 4241SOL     OW16729   3.963   4.623   3.363  0.0557  0.0714 -0.6083
 4241SOL    HW216730   3.888   4.604   3.307  0.5684 -0.4696 -1.1216
 4241SOL    HW316731   3.945   4.711   3.398 -0.7997 -0.0472 -0.7415
 4241SOL    MW416732   3.951   4.632   3.360  0.0105 -0.0157 -0.6936
 4242SOL     OW16733   5.005   3.883   0.315 -0.1806  0.2503 -0.5027
 4242SOL    HW216734   5.019   3.800   0.360 -0.1534  0.7288  0.4062
 4242SOL    HW316735   4.970   3.941   0.383 -0.6309  0.8501 -1.2329
 4242SOL    MW416736   5.002   3.880   0.330 -0.2364  0.3925 -0.4791
 4243SOL     OW16737   2.464   4.902   6.171  0.0842  0.3677  0.2778
 4243SOL    HW216738   2.368   4.904   6.169  0.0329 -0.9748  0.4330
 4243SOL    HW316739   2.489   4.991   6.193 -1.0904  1.0429 -0.9362
 4243SOL    MW416740   2.455   4.914   6.173 -0.0775  0.2797  0.1381
 4244SOL     OW16741   6.384   2.063   4.376  0.0436  0.6450 -0.4185
 4244SOL    HW216742   6.375   1.988   4.435  0.6465  1.6531  1.0057
 4244SOL    HW316743   6.462   2.043   4.324 -1.4020 -1.0211 -2.1274
 4244SOL    MW416744   6.393   2.050   4.377 -0.0676  0.5582 -0.4560
 4245SOL     OW16745   4.583   0.279   5.559  0.0596 -0.2195  0.0691
 4245SOL    HW216746   4.588   0.364   5.516 -1.3530 -0.4712 -0.6719
 4245SOL    HW316747   4.671   0.263   5.592  0.6701  0.9379 -0.9237
 4245SOL    MW416748   4.595   0.288   5.558 -0.0462 -0.1000 -0.1597
 4246SOL     OW16749   4.385   3.034   2.513  0.4569 -0.0168 -0.0508
 4246SOL    HW216750   4.439   2.955   2.516  1.0224  0.3783  0.4953
 4246SOL    HW316751   4.418   3.088   2.585  0.6882  1.1042 -0.9587
 4246SOL    MW416752   4.397   3.031   2.523  0.5621  0.1832 -0.0985
 4247SOL     OW16753   0.837   4.683   0.802 -0.4674  0.5597  0.1074
 4247SOL    HW216754   0.889   4.608   0.831 -1.8575  0.0213  1.3133
 4247SOL    HW316755   0.901   4.741   0.761  0.9315 -0.4811  0.7053
 4247SOL    MW416756   0.852   4.680   0.800 -0.4662  0.3513  0.3454
 4248SOL     OW16757   6.069   4.398   5.535 -0.4793  0.5218 -0.0281
 4248SOL    HW216758   6.115   4.318   5.562 -1.1412  0.6206  1.5114
 4248SOL    HW316759   6.064   4.392   5.440 -0.0893 -1.0417  0.0191
 4248SOL    MW416760   6.074   4.387   5.526 -0.5152  0.3286  0.1813
 4249SOL     OW16761   3.625   5.181   4.406 -0.2815 -0.4746  0.2880
 4249SOL    HW216762   3.660   5.109   4.353 -1.3316 -1.0627  0.3783
 4249SOL    HW316763   3.659   5.260   4.363 -0.4638 -0.9610 -0.8016
 4249SOL    MW416764   3.634   5.182   4.393 -0.4441 -0.6164  0.1562
 4250SOL     OW16765   4.450   3.765   0.660  0.6417  0.1048 -0.1163
 4250SOL    HW216766   4.375   3.812   0.696  0.3410 -0.4474 -0.0156
 4250SOL    HW316767   4.499   3.832   0.612 -1.0374  0.0918 -1.9804
 4250SOL    MW416768   4.447   3.780   0.658  0.3805  0.0302 -0.3490
 4251SOL     OW16769   5.308   2.327   5.676 -0.0702 -0.1719  0.3738
 4251SOL    HW216770   5.391   2.351   5.717 -0.1598 -1.1626  1.2109
 4251SOL    HW316771   5.254   2.298   5.750 -0.7640 -0.6020 -0.2942
 4251SOL    MW416772   5.312   2.326   5.691 -0.1735 -0.3594  0.3961
 4252SOL     OW16773   4.811   2.784   2.443  0.3617 -0.0698  0.6068
 4252SOL    HW216774   4.717   2.803   2.446  0.3975  0.0421  1.3498
 4252SOL    HW316775   4.846   2.825   2.522  0.7414 -1.6450  1.2997
 4252SOL    MW416776   4.803   2.791   2.454  0.4165 -0.2629  0.7963
 4253SOL     OW16777   4.595   0.516   4.759  0.1613  0.1085 -0.5230
 4253SOL    HW216778   4.663   0.481   4.701 -0.0038  0.3422 -0.8597
 4253SOL    HW316779   4.523   0.539   4.701  0.1492  0.7245 -0.2757
 4253SOL    MW416780   4.595   0.514   4.744  0.1379  0.2206 -0.5348
 4254SOL     OW16781   5.013   5.529   2.151  0.0881  0.4519 -0.4388
 4254SOL    HW216782   5.088   5.479   2.119  1.2121 -0.0028  2.5086
 4254SOL    HW316783   5.051   5.590   2.216 -1.9091  1.3259 -0.0086
 4254SOL    MW416784   5.028   5.531   2.155 -0.0271  0.5072  0.0068
 4255SOL     OW16785   1.453   4.056   6.091 -0.4496 -0.0924 -0.0339
 4255SOL    HW216786   1.527   4.073   6.148 -0.9206  0.4176  0.4446
 4255SOL    HW316787   1.394   4.130   6.105 -1.2612 -0.7143 -0.0470
 4255SOL    MW416788   1.455   4.068   6.100 -0.6188 -0.1072  0.0275
 4256SOL     OW16789   1.323   5.967   4.298 -0.1323  1.0063  0.1581
 4256SOL    HW216790   1.327   5.871   4.300 -0.9222  0.9765  0.3880
 4256SOL    HW316791   1.388   5.994   4.363  0.4022  0.6388 -0.2131
 4256SOL    MW416792   1.332   5.958   4.307 -0.1660  0.9539  0.1395
 4257SOL     OW16793   5.764   5.177   3.314 -0.2298  0.0701  0.0976
 4257SOL    HW216794   5.828   5.195   3.245 -1.0868  1.3254 -0.3953
 4257SOL    HW316795   5.796   5.225   3.390 -1.1043  1.5694 -0.4490
 4257SOL    MW416796   5.776   5.185   3.315 -0.4582  0.4336 -0.0395
 4258SOL     OW16797   5.813   2.431   5.625 -0.3433 -0.4158  0.0318
 4258SOL    HW216798   5.719   2.432   5.642 -0.4696 -0.2014 -0.6384
 4258SOL    HW316799   5.821   2.464   5.535  0.3993 -0.0514  0.2260
 4258SOL    MW416800   5.802   2.436   5.615 -0.2620 -0.3394 -0.0310
 4259SOL     OW16801   0.979   2.995   1.666 -0.5117 -0.1026  0.2254
 4259SOL    HW216802   1.053   2.975   1.609 -0.9228  0.9252 -0.7231
 4259SOL    HW316803   1.019   3.022   1.748  0.3483  2.7309 -0.9933
 4259SOL    MW416804   0.994   2.996   1.669 -0.4525  0.4068 -0.0606
 4260SOL     OW16805   1.720   4.506   3.800 -0.1127  0.6615  0.0047
 4260SOL    HW216806   1.696   4.462   3.881  0.6942  0.4199  0.1292
 4260SOL    HW316807   1.669   4.462   3.732  0.1927 -0.0278  0.2154
 4260SOL    MW416808   1.710   4.494   3.802  0.0341  0.5387  0.0489
 4261SOL     OW16809   1.178   4.021   0.587  0.4568 -0.2744 -0.2230
 4261SOL    HW216810   1.210   4.011   0.497  2.0108 -1.7077  0.4322
 4261SOL    HW316811   1.086   3.996   0.582  0.4041  0.0904 -1.4827
 4261SOL    MW416812   1.170   4.016   0.574  0.6549 -0.4154 -0.3028
 4262SOL     OW16813   1.221   4.236   6.034 -0.1534  0.0232 -0.5248
 4262SOL    HW216814   1.140   4.219   6.082 -0.2405  0.8479 -0.3645
 4262SOL    HW316815   1.251   4.321   6.067  0.4361  0.0218 -1.0450
 4262SOL    MW416816   1.214   4.245   6.045 -0.0871  0.1318 -0.5723
 4263SOL     OW16817   0.059   6.359   5.973 -0.3454 -0.0576 -0.2757
 4263SOL    HW216818   0.016   6.299   5.913  0.6703  0.4213 -1.5258
 4263SOL    HW316819   0.048   6.445   5.934 -0.1917  0.3509  0.5474
 4263SOL    MW416820   0.052   6.362   5.960 -0.1911  0.0595 -0.3320
 4264SOL     OW16821   4.415   4.206   6.193 -0.1116 -0.6999 -0.0237
 4264SOL    HW216822   4.400   4.277   6.256 -0.1874 -0.4087 -0.3627
 4264SOL    HW316823   4.442   4.251   6.113 -3.0907 -0.7798 -1.2155
 4264SOL    MW416824   4.416   4.221   6.191 -0.5147 -0.6720 -0.2256
 4265SOL     OW16825   2.633   4.482   6.401 -0.5602  0.1644  0.1321
 4265SOL    HW216826   2.625   4.462   6.308 -1.1294  0.5878  0.0832
 4265SOL    HW316827   2.582   4.562   6.413 -2.6866 -1.2810  1.3022
 4265SOL    MW416828   2.626   4.490   6.390 -0.9159  0.0295  0.2801
 4266SOL     OW16829   0.549   3.336   0.031  0.5268  0.6679 -0.6682
 4266SOL    HW216830   0.490   3.374  -0.034  0.1257 -1.0919 -1.3861
 4266SOL    HW316831   0.505   3.350   0.114  0.0698  1.1564 -0.9810
 4266SOL    MW416832   0.536   3.343   0.033  0.4136  0.5001 -0.8042
 4267SOL     OW16833   5.436   4.791   4.360  0.4278  0.1150 -0.3498
 4267SOL    HW216834   5.447   4.696   4.357 -0.2886 -0.0198  0.7032
 4267SOL    HW316835   5.353   4.808   4.314  0.2000  0.1538  0.0699
 4267SOL    MW416836   5.426   4.781   4.353  0.3032  0.1023 -0.1555
 4268SOL     OW16837   1.271   6.404   5.990  0.1819 -0.1424 -0.2609
 4268SOL    HW216838   1.223   6.426   5.910 -0.1732 -0.3310 -0.0988
 4268SOL    HW316839   1.228   6.325   6.024 -0.5905  0.7340  0.8884
 4268SOL    MW416840   1.259   6.397   5.984  0.0332 -0.0517 -0.0878
 4269SOL     OW16841   3.497   3.853   4.381 -0.1133  0.1483  0.3516
 4269SOL    HW216842   3.403   3.872   4.386  0.0851  1.1158  0.5792
 4269SOL    HW316843   3.538   3.919   4.437  0.5943 -1.1655  1.4375
 4269SOL    MW416844   3.490   3.864   4.389  0.0062  0.1026  0.5249
 4270SOL     OW16845   2.568   0.542   3.039  0.3021  0.0599 -0.6301
 4270SOL    HW216846   2.594   0.450   3.042  1.2590  0.2390 -2.1708
 4270SOL    HW316847   2.625   0.584   3.104  0.1650 -0.3548 -0.2307
 4270SOL    MW416848   2.579   0.535   3.048  0.4103  0.0288 -0.7807
 4271SOL     OW16849   1.823   0.212   2.013  0.5744 -0.2340  0.3230
 4271SOL    HW216850   1.899   0.262   1.982  0.6632 -1.5713 -1.8986
 4271SOL    HW316851   1.861   0.136   2.056  0.4410  0.2629  1.3577
 4271SOL    MW416852   1.838   0.209   2.014  0.5685 -0.3449  0.1664
 4272SOL     OW16853   6.139   0.557   2.843  0.2007  0.0181  0.1846
 4272SOL    HW216854   6.064   0.499   2.832  0.3207 -0.9725  3.5651
 4272SOL    HW316855   6.101   0.645   2.850 -0.7462 -0.4857  1.9946
 4272SOL    MW416856   6.124   0.561   2.843  0.0916 -0.1791  0.8694
 4273SOL     OW16857   0.958   4.202   2.640  0.5258  0.4700 -0.2222
 4273SOL    HW216858   1.044   4.161   2.633  1.2038  1.0454  3.0639
 4273SOL    HW316859   0.901   4.133   2.673 -0.2576  0.1994 -2.0128
 4273SOL    MW416860   0.962   4.188   2.643  0.5119  0.5102 -0.0249
 4274SOL     OW16861   4.213   3.360   0.992 -0.1442 -0.4230  0.4703
 4274SOL    HW216862   4.249   3.423   1.054 -1.0237  2.5731 -1.8472
 4274SOL    HW316863   4.132   3.329   1.033  0.4869 -0.3972  1.8104
 4274SOL    MW416864   4.207   3.364   1.006 -0.1770 -0.0243  0.3414
 4275SOL     OW16865   2.326   6.207   1.102  0.0119  0.3711  0.7602
 4275SOL    HW216866   2.245   6.241   1.064  0.3566 -0.6628 -1.0152
 4275SOL    HW316867   2.390   6.276   1.087  0.2635 -0.2179 -1.0803
 4275SOL    MW416868   2.324   6.220   1.095  0.0905  0.1570  0.2831
 4276SOL     OW16869   0.539   2.961   1.580  0.0296 -0.2219 -0.2566
 4276SOL    HW216870   0.620   3.013   1.579  0.1030 -0.3200  0.1381
 4276SOL    HW316871   0.568   2.874   1.607 -0.2070 -0.2635 -0.1382
 4276SOL    MW416872   0.554   2.956   1.583  0.0080 -0.2403 -0.1889
 4277SOL     OW16873   1.768   0.101   0.194 -0.1668 -0.4151  0.1150
 4277SOL    HW216874   1.810   0.158   0.129  1.5247 -2.3906 -0.6285
 4277SOL    HW316875   1.803   0.131   0.278  0.1772  0.0673 -0.1920
 4277SOL    MW416876   1.778   0.112   0.197  0.1018 -0.6121 -0.0236
 4278SOL     OW16877   0.838   6.310   5.267  0.5467 -0.2985 -0.2774
 4278SOL    HW216878   0.818   6.398   5.236  2.5599 -0.6405 -2.9600
 4278SOL    HW316879   0.753   6.269   5.282 -0.4294  1.8299  0.3631
 4278SOL    MW416880   0.824   6.316   5.265  0.6836 -0.0628 -0.5468
 4279SOL     OW16881   1.556   0.836   3.540 -0.2961 -0.3390 -0.1185
 4279SOL    HW216882   1.535   0.754   3.495 -1.8105  0.4296 -0.8983
 4279SOL    HW316883   1.519   0.825   3.628  1.5889 -1.3623  0.6166
 4279SOL    MW416884   1.549   0.823   3.546 -0.2472 -0.3726 -0.1244
 4280SOL     OW16885   6.220   3.778   1.894  0.2421 -0.3351  0.6797
 4280SOL    HW216886   6.126   3.763   1.904 -0.2022  1.5688 -0.1930
 4280SOL    HW316887   6.227   3.867   1.860  2.3974 -0.3018  1.0534
 4280SOL    MW416888   6.209   3.788   1.891  0.4678 -0.0795  0.6139
 4281SOL     OW16889   5.587   4.666   2.509  0.3160 -1.1403 -1.0773
 4281SOL    HW216890   5.515   4.699   2.455 -2.1653 -0.2105  2.4269
 4281SOL    HW316891   5.624   4.745   2.550 -0.6766 -1.9796  1.6419
 4281SOL    MW416892   5.583   4.681   2.507 -0.1423 -1.1283 -0.2562
 4282SOL     OW16893   2.812   5.316   4.775  0.0030  0.1568 -0.1493
 4282SOL    HW216894   2.846   5.267   4.701  0.6831  0.1341  0.1695
 4282SOL    HW316895   2.735   5.361   4.741 -0.2472 -0.6148 -0.6143
 4282SOL    MW416896   2.806   5.316   4.761  0.0597  0.0520 -0.1686
 4283SOL     OW16897   2.636   0.647   2.801 -0.1065 -0.1274 -0.4287
 4283SOL    HW216898   2.553   0.666   2.759  0.3745  0.5545 -1.1065
 4283SOL    HW316899   2.613   0.607   2.885 -1.0990 -2.0340 -1.5345
 4283SOL    MW416900   2.622   0.644   2.806 -0.1740 -0.2890 -0.6641
 4284SOL     OW16901   0.100   1.643   1.708 -0.2618  0.2433 -0.3070
 4284SOL    HW216902   0.005   1.644   1.698 -0.3615  1.5815  0.5357
 4284SOL    HW316903   0.121   1.728   1.746  1.1535 -0.4724  0.6049
 4284SOL    MW416904   0.091   1.654   1.712 -0.0882  0.3254 -0.0755
 4285SOL     OW16905   6.052   5.619   6.132 -0.1134 -0.2519  0.1124
 4285SOL    HW216906   6.001   5.539   6.140 -1.4057  0.4536 -0.7685
 4285SOL    HW316907   6.016   5.678   6.198 -1.0872  0.5549 -1.0893
 4285SOL    MW416908   6.041   5.616   6.142 -0.4124 -0.0524 -0.1624
 4286SOL     OW16909   0.660   1.937   1.519  0.3853  0.8452  0.2974
 4286SOL    HW216910   0.691   1.977   1.437 -1.5383  1.7685 -0.0198
 4286SOL    HW316911   0.740   1.921   1.569  1.5173  1.3230 -1.2787
 4286SOL    MW416912   0.675   1.940   1.515  0.2808  1.0300  0.0476
 4287SOL     OW16913   0.992   1.160   4.611 -0.1733  0.4419 -0.5209
 4287SOL    HW216914   0.980   1.066   4.615 -0.0524  0.4355 -0.2968
 4287SOL    HW316915   0.910   1.196   4.645  0.7821  0.3900  2.0779
 4287SOL    MW416916   0.980   1.153   4.616 -0.0313  0.4342 -0.1485
 4288SOL     OW16917   1.049   5.726   5.478 -0.2100  0.7300 -0.1108
 4288SOL    HW216918   1.034   5.633   5.461  1.5700 -0.2681  3.0186
 4288SOL    HW316919   1.050   5.766   5.391 -1.1177 -2.1247 -1.5686
 4288SOL    MW416920   1.047   5.719   5.464 -0.0949  0.2217  0.1098
 4289SOL     OW16921   0.958   4.026   5.847 -0.3916  0.3625 -0.2240
 4289SOL    HW216922   1.024   4.095   5.844  0.1991 -0.2172 -1.0294
 4289SOL    HW316923   1.001   3.953   5.892 -0.6314  0.1233 -0.3778
 4289SOL    MW416924   0.972   4.026   5.853 -0.3453  0.2545 -0.3505
 4290SOL     OW16925   4.603   2.028   4.877 -0.8531  0.5576  0.2918
 4290SOL    HW216926   4.691   2.065   4.879 -0.5987 -0.0056 -0.0704
 4290SOL    HW316927   4.574   2.036   4.786 -1.7155  1.9360  0.6652
 4290SOL    MW416928   4.611   2.034   4.865 -0.9333  0.6652  0.2933
 4291SOL     OW16929   3.080   1.601   0.625 -0.1872  0.0615 -0.7473
 4291SOL    HW216930   3.104   1.575   0.536 -2.9628 -2.2968 -0.9628
 4291SOL    HW316931   3.006   1.662   0.613 -0.8097 -0.5476 -0.0781
 4291SOL    MW416932   3.073   1.606   0.612 -0.6355 -0.3300 -0.6874
 4292SOL     OW16933   2.050   1.081   3.388  0.0471  0.0363  0.1252
 4292SOL    HW216934   1.977   1.140   3.409  0.5362 -0.4592  4.1541
 4292SOL    HW316935   2.013   0.993   3.400  0.2793 -0.4105 -2.1207
 4292SOL    MW416936   2.035   1.077   3.393  0.1422 -0.0880  0.3605
 4293SOL     OW16937   3.450   2.103   5.806  0.3036  0.2009  0.1610
 4293SOL    HW216938   3.492   2.138   5.885  3.4177 -0.4916 -1.0178
 4293SOL    HW316939   3.416   2.181   5.761  1.0277  0.9485  0.8595
 4293SOL    MW416940   3.451   2.118   5.810  0.8100  0.2081  0.0976
 4294SOL     OW16941   5.436   2.097   3.085  0.4182  0.0584  0.4516
 4294SOL    HW216942   5.396   2.129   3.004  0.4994 -0.7373  0.0966
 4294SOL    HW316943   5.446   2.176   3.139  2.1112  0.9466 -1.0304
 4294SOL    MW416944   5.432   2.112   3.081  0.6523  0.0706  0.2093
 4295SOL     OW16945   5.796   5.591   5.100 -0.0488 -0.1214  0.2701
 4295SOL    HW216946   5.733   5.569   5.168  0.0996 -0.4536  0.3010
 4295SOL    HW316947   5.881   5.563   5.135 -0.0152 -0.6058 -0.1851
 4295SOL    MW416948   5.799   5.585   5.113 -0.0248 -0.2291  0.2142
 4296SOL     OW16949   1.375   0.300   5.336 -0.1986  0.1009 -0.4945
 4296SOL    HW216950   1.322   0.269   5.263 -0.3321 -0.0916 -0.3171
 4296SOL    HW316951   1.359   0.394   5.339 -0.3258  0.0830 -0.6035
 4296SOL    MW416952   1.366   0.308   5.327 -0.2330  0.0732 -0.4854
 4297SOL     OW16953   2.817   5.356   4.385 -0.5189 -0.1500 -0.1010
 4297SOL    HW216954   2.815   5.322   4.295 -1.0302  2.2252 -1.0469
 4297SOL    HW316955   2.765   5.436   4.382 -0.6911 -0.0924  2.3776
 4297SOL    MW416956   2.810   5.362   4.373 -0.6091  0.1710  0.1012
 4298SOL     OW16957   1.556   5.389   1.409 -0.5896 -0.5454 -0.4612
 4298SOL    HW216958   1.502   5.418   1.482  0.8141 -0.5516  0.6160
 4298SOL    HW316959   1.616   5.326   1.447  1.0845  0.4704 -1.3203
 4298SOL    MW416960   1.557   5.385   1.423 -0.1835 -0.4122 -0.4324
 4299SOL     OW16961   5.461   1.061   6.066  0.0917  0.3834 -0.4346
 4299SOL    HW216962   5.389   1.046   6.006 -0.5378  1.0723  0.1325
 4299SOL    HW316963   5.534   1.089   6.011  0.3646 -1.5882 -1.1738
 4299SOL    MW416964   5.461   1.063   6.051  0.0447  0.2142 -0.4573
 4300SOL     OW16965   4.562   0.093   3.185 -0.0296 -0.1682  0.2656
 4300SOL    HW216966   4.613   0.094   3.266 -0.2066  1.1719  0.3879
 4300SOL    HW316967   4.623   0.121   3.117  0.2817 -1.8636 -0.2072
 4300SOL    MW416968   4.577   0.097   3.186 -0.0119 -0.2151  0.2193
 4301SOL     OW16969   4.203   4.810   2.343 -0.3149  0.5559  0.3917
 4301SOL    HW216970   4.227   4.746   2.276  0.8760  2.1829 -0.8176
 4301SOL    HW316971   4.277   4.871   2.344 -1.1127  1.5446  1.9725
 4301SOL    MW416972   4.216   4.809   2.334 -0.2631  0.9010  0.4407
 4302SOL     OW16973   4.933   3.858   3.385  0.5030  0.2210  0.3594
 4302SOL    HW216974   4.921   3.937   3.332 -0.8586 -0.4204 -0.3387
 4302SOL    HW316975   5.001   3.809   3.338  0.2501  0.2659 -0.0606
 4302SOL    MW416976   4.941   3.862   3.372  0.2900  0.1423  0.2119
 4303SOL     OW16977   1.449   4.154   4.380  0.4883  0.5460 -0.0696
 4303SOL    HW216978   1.457   4.215   4.454 -0.1456  2.0274 -1.1698
 4303SOL    HW316979   1.397   4.082   4.415 -0.7314  1.7261  0.6639
 4303SOL    MW416980   1.443   4.153   4.394  0.2437  0.8972 -0.1180
 4304SOL     OW16981   0.401   4.249   5.349 -0.4866  0.2759  0.0873
 4304SOL    HW216982   0.483   4.294   5.332  1.0330 -1.3951  2.3870
 4304SOL    HW316983   0.415   4.159   5.322 -3.0171  0.6648 -3.1705
 4304SOL    MW416984   0.413   4.243   5.343 -0.6200  0.1067 -0.0391
 4305SOL     OW16985   2.054   3.804   2.488 -0.3340  0.0405 -0.4224
 4305SOL    HW216986   2.045   3.748   2.565  0.9377  2.4026  1.5811
 4305SOL    HW316987   1.973   3.856   2.487 -0.2374  0.1897 -0.5633
 4305SOL    MW416988   2.042   3.803   2.498 -0.1534  0.3719 -0.1766
 4306SOL     OW16989   2.977   4.438   3.108 -0.8072  0.1281 -0.3175
 4306SOL    HW216990   3.066   4.453   3.074 -0.8762  1.9116  0.1663
 4306SOL    HW316991   2.989   4.380   3.183 -0.5922 -3.4211 -2.8897
 4306SOL    MW416992   2.991   4.432   3.114 -0.7879 -0.1048 -0.5930
 4307SOL     OW16993   5.789   1.351   6.274 -0.0803  0.5528  0.6422
 4307SOL    HW216994   5.864   1.409   6.290  0.3008  0.0346  0.7700
 4307SOL    HW316995   5.824   1.263   6.287 -0.2869  0.2092 -0.9619
 4307SOL    MW416996   5.803   1.347   6.278 -0.0572  0.4391  0.4474
 4308SOL     OW16997   3.497   3.766   6.148 -0.0763 -0.2171 -0.2642
 4308SOL    HW216998   3.425   3.826   6.166 -0.6798 -0.9561 -0.1680
 4308SOL    HW316999   3.556   3.776   6.223 -1.1084 -1.1025  0.6979
 4308SOL    MW417000   3.495   3.775   6.160 -0.2921 -0.4314 -0.1246
 4309SOL     OW17001   2.076   5.900   5.252 -0.2912 -0.0682  0.0352
 4309SOL    HW217002   2.092   5.971   5.315 -0.5836 -1.3802  1.6630
 4309SOL    HW317003   2.061   5.823   5.307 -0.9397 -1.1994 -1.6644
 4309SOL    MW417004   2.076   5.900   5.268 -0.4153 -0.3906  0.0257
 4310SOL     OW17005   5.807   4.259   3.951 -0.6541  0.2488  0.1790
 4310SOL    HW217006   5.720   4.273   3.914 -1.1755 -1.3807  0.7274
 4310SOL    HW317007   5.793   4.252   4.045 -0.0021 -0.4694  0.2351
 4310SOL    MW417008   5.794   4.260   3.958 -0.6368 -0.0610  0.2588
 4311SOL     OW17009   1.200   1.005   2.169  0.1236 -0.0620 -0.2237
 4311SOL    HW217010   1.177   0.919   2.206 -0.1798  0.6712  1.3490
 4311SOL    HW317011   1.294   1.014   2.185 -0.2441  0.8208  1.6602
 4311SOL    MW417012   1.210   0.995   2.176  0.0350  0.1512  0.2324
 4312SOL     OW17013   0.125   5.905   1.263  0.3425  0.4673  0.6678
 4312SOL    HW217014   0.137   5.995   1.231  2.8006  0.1130  0.4160
 4312SOL    HW317015   0.055   5.869   1.209 -1.4839  2.5156  1.4965
 4312SOL    MW417016   0.118   5.912   1.252  0.4258  0.6908  0.7439
 4313SOL     OW17017   5.119   2.383   0.424  0.3038 -0.4077 -0.1853
 4313SOL    HW217018   5.177   2.311   0.450 -1.7567 -1.4013  2.0601
 4313SOL    HW317019   5.035   2.341   0.406 -0.4256  1.2349 -0.8002
 4313SOL    MW417020   5.116   2.368   0.425 -0.0643 -0.3221  0.0298
 4314SOL     OW17021   5.361   1.461   4.070 -0.3252  0.5445 -0.0141
 4314SOL    HW217022   5.446   1.423   4.046 -0.5019  1.1711 -1.7756
 4314SOL    HW317023   5.327   1.402   4.138  0.9379 -0.4350 -0.1827
 4314SOL    MW417024   5.368   1.448   4.076 -0.1819  0.4980 -0.2688
 4315SOL     OW17025   3.648   5.695   5.088  0.4957 -0.4145  0.4483
 4315SOL    HW217026   3.680   5.694   4.998  2.4135  0.2994  1.0508
 4315SOL    HW317027   3.589   5.621   5.094  0.9287 -0.9363 -1.2006
 4315SOL    MW417028   3.645   5.685   5.077  0.8058 -0.3891  0.3102
 4316SOL     OW17029   0.092   1.749   3.494 -0.1691  0.0653  0.0232
 4316SOL    HW217030   0.182   1.765   3.465  0.0840  0.3290  0.9355
 4316SOL    HW317031   0.048   1.833   3.484 -0.1786  0.0670  0.0832
 4316SOL    MW417032   0.098   1.762   3.489 -0.1369  0.1003  0.1515
 4317SOL     OW17033   2.480   2.790   0.693  0.1876 -0.1900  0.3900
 4317SOL    HW217034   2.472   2.836   0.609  1.8157 -0.9195 -0.2080
 4317SOL    HW317035   2.503   2.859   0.755 -0.7878  0.3181  0.2099
 4317SOL    MW417036   2.482   2.805   0.690  0.2737 -0.2192  0.2873
 4318SOL     OW17037   3.535   2.566   1.027  0.6842 -0.0599  0.3310
 4318SOL    HW217038   3.512   2.550   0.936  1.8047 -0.5608  0.1280
 4318SOL    HW317039   3.531   2.662   1.036  0.5321 -0.0126 -0.2209
 4318SOL    MW417040   3.531   2.577   1.017  0.8120 -0.1198  0.2314
 4319SOL     OW17041   0.376   3.367   3.345  0.3089 -0.6774 -0.0146
 4319SOL    HW217042   0.432   3.330   3.413  0.1948 -0.0665  0.4149
 4319SOL    HW317043   0.291   3.380   3.388  0.7923  1.6493  0.3531
 4319SOL    MW417044   0.372   3.364   3.360  0.3577 -0.2898  0.0906
 4320SOL     OW17045   5.010   0.617   2.013  0.5272 -0.3579  0.7152
 4320SOL    HW217046   4.998   0.611   1.918 -2.5764 -0.6057  1.0229
 4320SOL    HW317047   5.017   0.710   2.030 -0.7139 -0.1807  0.3650
 4320SOL    MW417048   5.009   0.628   2.002 -0.0461 -0.3672  0.7096
 4321SOL     OW17049   4.421   4.597   5.161  0.2248 -0.5472  0.0410
 4321SOL    HW217050   4.398   4.547   5.240  1.6398 -1.0472  0.1597
 4321SOL    HW317051   4.359   4.670   5.161  0.0035 -0.6968  1.4490
 4321SOL    MW417052   4.409   4.600   5.172  0.3823 -0.6329  0.2425
 4322SOL     OW17053   4.237   2.114   0.871  0.4135  0.2405 -0.0675
 4322SOL    HW217054   4.147   2.105   0.839  0.4238 -2.5410  0.4957
 4322SOL    HW317055   4.227   2.146   0.960 -0.0025  0.3163 -0.1381
 4322SOL    MW417056   4.224   2.117   0.878  0.3600 -0.1165 -0.0025
 4323SOL     OW17057   5.691   4.441   4.493 -0.0790 -0.3843  0.2533
 4323SOL    HW217058   5.704   4.377   4.563 -1.3607 -0.2766  0.6065
 4323SOL    HW317059   5.720   4.524   4.530  1.6365 -0.7243 -0.2220
 4323SOL    MW417060   5.697   4.443   4.507 -0.0218 -0.4150  0.2372
 4324SOL     OW17061   4.010   4.132   0.601  0.0499  0.1149 -0.5268
 4324SOL    HW217062   4.104   4.122   0.591  0.0091  0.3442 -1.1940
 4324SOL    HW317063   4.000   4.200   0.667  0.3556  0.2944 -0.6620
 4324SOL    MW417064   4.021   4.140   0.608  0.0849  0.1688 -0.6327
 4325SOL     OW17065   2.314   1.680   1.240 -0.1724  0.3187 -0.0210
 4325SOL    HW217066   2.237   1.694   1.186  1.0467  0.8387 -1.6996
 4325SOL    HW317067   2.280   1.642   1.321 -2.0685 -0.4335 -1.1082
 4325SOL    MW417068   2.300   1.677   1.244 -0.2617  0.2881 -0.3859
 4326SOL     OW17069   0.600   0.550   2.520 -0.4191 -0.1476 -0.5343
 4326SOL    HW217070   0.640   0.570   2.436  0.3229 -1.8608 -0.6270
 4326SOL    HW317071   0.672   0.560   2.583 -0.5691 -0.4520 -0.3151
 4326SOL    MW417072   0.615   0.554   2.517 -0.3410 -0.4138 -0.5176
 4327SOL     OW17073   5.087   2.423   6.129 -0.1001 -0.0116 -0.4095
 4327SOL    HW217074   5.154   2.433   6.196  0.1509 -0.9571 -0.5156
 4327SOL    HW317075   5.045   2.510   6.124 -0.3838 -0.0288  1.2282
 4327SOL    MW417076   5.090   2.436   6.137 -0.1044 -0.1386 -0.2074
 4328SOL     OW17077   4.520   3.399   3.813 -0.2115  0.1637  0.3015
 4328SOL    HW217078   4.518   3.485   3.769  0.5490 -0.4599 -1.0050
 4328SOL    HW317079   4.609   3.391   3.845  0.0866 -0.6630 -0.6906
 4328SOL    MW417080   4.531   3.410   3.811 -0.0718 -0.0277 -0.0018
 4329SOL     OW17081   1.632   2.526   2.217  0.1518  0.3592 -0.1001
 4329SOL    HW217082   1.689   2.485   2.283  0.6073  0.2895 -0.5311
 4329SOL    HW317083   1.548   2.482   2.227  0.3142  0.1167  0.2146
 4329SOL    MW417084   1.629   2.515   2.227  0.2333  0.3180 -0.1154
 4330SOL     OW17085   4.840   4.486   4.325  0.5590 -0.9410 -0.2819
 4330SOL    HW217086   4.917   4.447   4.365  0.5709  1.4363  2.3394
 4330SOL    HW317087   4.865   4.577   4.309 -1.2493 -0.4777 -0.6679
 4330SOL    MW417088   4.853   4.493   4.328  0.3220 -0.5662  0.0130
 4331SOL     OW17089   0.997   1.207   4.930  0.0657 -0.4500 -0.6187
 4331SOL    HW217090   0.990   1.161   4.847  0.2832 -2.4640  0.4187
 4331SOL    HW317091   1.028   1.141   4.992  1.0490  1.2698  0.8339
 4331SOL    MW417092   1.001   1.192   4.928  0.2241 -0.4888 -0.2902
 4332SOL     OW17093   0.414   6.232   3.177  0.3057 -0.5131  0.5021
 4332SOL    HW217094   0.496   6.211   3.221 -0.5637 -1.5614  1.6659
 4332SOL    HW317095   0.395   6.322   3.203  0.1239 -0.9071  1.7825
 4332SOL    MW417096   0.423   6.241   3.186  0.1670 -0.7034  0.8246
 4333SOL     OW17097   5.303   0.132   6.238 -0.1010 -0.2414  0.8536
 4333SOL    HW217098   5.294   0.058   6.298 -1.3286  0.9438  2.2142
 4333SOL    HW317099   5.390   0.167   6.256 -0.4321  0.0647  1.9274
 4333SOL    MW417100   5.313   0.127   6.249 -0.3066 -0.0446  1.1748
 4334SOL     OW17101   6.414   0.259   0.137 -0.5110  0.4406 -0.2190
 4334SOL    HW217102   6.502   0.226   0.120 -0.9449 -1.2407  0.5251
 4334SOL    HW317103   6.357   0.186   0.112 -1.5945  0.8712  0.9142
 4334SOL    MW417104   6.418   0.245   0.131 -0.7112  0.2756  0.0287
 4335SOL     OW17105   3.173   5.219   3.004 -0.1555 -0.1140 -0.0407
 4335SOL    HW217106   3.153   5.298   3.053  0.7823  0.1228 -0.0275
 4335SOL    HW317107   3.192   5.249   2.916 -0.4492 -0.3936 -0.2006
 4335SOL    MW417108   3.173   5.233   2.999 -0.0705 -0.1196 -0.0601
 4336SOL     OW17109   0.817   0.625   5.749  0.2974  0.2641 -0.1708
 4336SOL    HW217110   0.828   0.567   5.824  0.2972 -0.7218 -0.9229
 4336SOL    HW317111   0.906   0.657   5.730  0.2143  0.9968  0.6083
 4336SOL    MW417112   0.830   0.622   5.756  0.2864  0.2307 -0.1672
 4337SOL     OW17113   1.768   6.046   2.533  0.6416 -0.0522  0.2399
 4337SOL    HW217114   1.709   6.015   2.465  1.9347 -2.3895  0.0657
 4337SOL    HW317115   1.744   6.137   2.546 -2.0560 -0.5164 -0.7654
 4337SOL    MW417116   1.757   6.054   2.526  0.4563 -0.4218  0.0843
 4338SOL     OW17117   5.105   3.739   0.894 -0.0106 -0.5685 -0.1030
 4338SOL    HW217118   5.157   3.720   0.815  1.6069  1.4417  0.4025
 4338SOL    HW317119   5.038   3.801   0.864  0.7336  0.3597  0.0969
 4338SOL    MW417120   5.103   3.745   0.880  0.3010 -0.1808 -0.0099
 4339SOL     OW17121   5.629   1.167   5.062 -0.0910  0.0812 -0.1800
 4339SOL    HW217122   5.679   1.163   4.981  0.7671  0.3901  0.3272
 4339SOL    HW317123   5.571   1.243   5.050  1.6201  1.5275  0.3696
 4339SOL    MW417124   5.628   1.176   5.050  0.2480  0.3127 -0.0405
 4340SOL     OW17125   3.277   0.071   5.736 -0.1195 -0.0167 -0.2902
 4340SOL    HW217126   3.335   0.069   5.660 -0.4943 -0.6576 -0.5762
 4340SOL    HW317127   3.205   0.129   5.709 -0.0138  0.1337 -0.2460
 4340SOL    MW417128   3.275   0.078   5.722 -0.1550 -0.0815 -0.3221
 4341SOL     OW17129   5.568   6.312   0.436 -0.9146 -0.1413  0.1109
 4341SOL    HW217130   5.634   6.249   0.465 -0.3503  0.2023 -0.3918
 4341SOL    HW317131   5.619   6.389   0.410 -1.3513 -0.5323 -2.0616
 4341SOL    MW417132   5.584   6.314   0.437 -0.8978 -0.1475 -0.2420
 4342SOL     OW17133   2.047   3.853   5.409 -0.2686 -0.4375 -0.1500
 4342SOL    HW217134   2.062   3.908   5.486 -0.1872  0.0958 -0.5377
 4342SOL    HW317135   1.973   3.894   5.365  0.4074 -0.0689 -0.9601
 4342SOL    MW417136   2.040   3.866   5.414 -0.1686 -0.3185 -0.3080
 4343SOL     OW17137   2.528   2.515   2.210 -0.3867 -0.0276  0.1819
 4343SOL    HW217138   2.476   2.444   2.247 -1.0307  0.6733  0.6818
 4343SOL    HW317139   2.490   2.529   2.123  1.0424 -1.5908 -0.7287
 4343SOL    MW417140   2.516   2.508   2.204 -0.2831 -0.1414  0.1277
 4344SOL     OW17141   3.048   3.136   1.412 -0.2913  0.1199 -0.7113
 4344SOL    HW217142   3.012   3.103   1.494  1.1675  1.8852  0.7191
 4344SOL    HW317143   2.973   3.135   1.351 -2.3855  2.0094  1.6089
 4344SOL    MW417144   3.033   3.131   1.415 -0.3751  0.6021 -0.2164
 4345SOL     OW17145   0.939   1.894   2.975  0.4999 -0.3298 -0.0378
 4345SOL    HW217146   0.965   1.951   3.047  1.2667  0.9549 -1.2714
 4345SOL    HW317147   0.856   1.855   3.004  1.4924 -0.9874  2.1062
 4345SOL    MW417148   0.931   1.897   2.988  0.7320 -0.2471  0.0823
 4346SOL     OW17149   2.239   3.982   0.768 -0.1644  0.1014 -0.1251
 4346SOL    HW217150   2.255   3.890   0.788 -2.2342 -0.5811 -1.3257
 4346SOL    HW317151   2.317   4.010   0.720 -0.0467 -1.3949 -0.8656
 4346SOL    MW417152   2.251   3.974   0.765 -0.4220 -0.1861 -0.3812
 4347SOL     OW17153   0.092   3.469   5.606  0.0094  0.8362  0.5774
 4347SOL    HW217154   0.106   3.563   5.603  2.5490  0.5469  0.9757
 4347SOL    HW317155   0.071   3.444   5.516 -0.5418  1.7550  0.4492
 4347SOL    MW417156   0.091   3.478   5.594  0.2718  0.9193  0.6130
 4348SOL     OW17157   2.042   2.329   5.377  0.2888  0.2605 -0.8516
 4348SOL    HW217158   2.010   2.302   5.463  0.6521  0.7423 -0.5612
 4348SOL    HW317159   1.995   2.410   5.358  0.5728  0.4230 -0.8784
 4348SOL    MW417160   2.032   2.336   5.386  0.3742  0.3455 -0.8168
 4349SOL     OW17161   0.161   6.364   4.865  0.2073  0.0395  0.4478
 4349SOL    HW217162   0.097   6.409   4.919 -0.7092  0.2968 -0.7986
 4349SOL    HW317163   0.189   6.288   4.917 -0.8272  0.1358  1.1627
 4349SOL    MW417164   0.156   6.360   4.879 -0.0501  0.0862  0.3777
 4350SOL     OW17165   5.298   2.143   1.036  0.2648 -0.0439 -0.5086
 4350SOL    HW217166   5.217   2.098   1.013 -0.0690  1.0951 -1.7354
 4350SOL    HW317167   5.361   2.073   1.050 -0.7199 -0.9343 -0.3786
 4350SOL    MW417168   5.296   2.128   1.035  0.0908 -0.0111 -0.6533
 4351SOL     OW17169   0.444   0.441   3.944  0.3270 -0.2216 -0.6106
 4351SOL    HW217170   0.475   0.517   3.994  0.8060  1.4534 -3.2127
 4351SOL    HW317171   0.353   0.463   3.922 -0.0495 -1.1832 -0.0928
 4351SOL    MW417172   0.436   0.454   3.948  0.3405 -0.1275 -0.8856
 4352SOL     OW17173   3.985   3.254   2.809 -0.4497 -0.0679  0.4675
 4352SOL    HW217174   3.897   3.256   2.846 -0.3437 -0.1075  0.7245
 4352SOL    HW317175   4.042   3.241   2.884 -0.1271  1.3018  0.4869
 4352SOL    MW417176   3.981   3.253   2.824 -0.3932  0.1076  0.5040
 4353SOL     OW17177   5.426   4.386   2.498  0.2857  0.4462 -0.2221
 4353SOL    HW217178   5.396   4.390   2.589 -0.3760 -2.0894 -0.2416
 4353SOL    HW317179   5.521   4.385   2.503  0.2660 -1.1955  0.6244
 4353SOL    MW417180   5.434   4.386   2.510  0.1958 -0.1049 -0.1130
 4354SOL     OW17181   1.326   5.785   2.932 -0.1320  0.4481 -0.2076
 4354SOL    HW217182   1.336   5.870   2.890 -1.9339  0.3546 -0.9004
 4354SOL    HW317183   1.274   5.802   3.010 -0.3329 -0.0012 -0.2396
 4354SOL    MW417184   1.321   5.798   2.937 -0.3962  0.3765 -0.3033
 4355SOL     OW17185   3.919   0.069   5.999 -0.1124 -0.1266  0.2633
 4355SOL    HW217186   3.829   0.044   5.977  0.1879 -0.1830 -1.0377
 4355SOL    HW317187   3.918   0.165   6.000  0.1542 -0.0456 -1.6138
 4355SOL    MW417188   3.907   0.079   5.996 -0.0376 -0.1233 -0.1560
 4356SOL     OW17189   5.081   3.761   4.745 -0.4451  0.6334  0.2735
 4356SOL    HW217190   5.071   3.852   4.718  1.0807  0.9982  0.8259
 4356SOL    HW317191   5.028   3.753   4.825 -1.6353  0.6560 -0.4872
 4356SOL    MW417192   5.073   3.772   4.752 -0.4008  0.6845  0.2461
 4357SOL     OW17193   1.448   6.157   5.223  0.2921 -0.5029  0.2814
 4357SOL    HW217194   1.435   6.062   5.228  1.0215 -0.5608  1.2804
 4357SOL    HW317195   1.414   6.181   5.137  1.6613 -1.9284 -0.7222
 4357SOL    MW417196   1.442   6.148   5.212  0.5690 -0.6986  0.2808
 4358SOL     OW17197   4.719   4.808   3.021 -0.1430 -0.1402 -0.2503
 4358SOL    HW217198   4.639   4.778   2.977 -0.2441  0.3610 -0.4142
 4358SOL    HW317199   4.789   4.755   2.981 -0.4766 -1.1743  0.4804
 4358SOL    MW417200   4.718   4.797   3.010 -0.2003 -0.2105 -0.1755
 4359SOL     OW17201   5.341   1.281   1.356  0.5445 -0.4914  0.4924
 4359SOL    HW217202   5.402   1.260   1.285 -0.9346  0.3742 -1.1133
 4359SOL    HW317203   5.284   1.349   1.319 -0.4029 -0.1563  2.4602
 4359SOL    MW417204   5.341   1.287   1.342  0.2244 -0.3330  0.5402
 4360SOL     OW17205   2.665   2.907   3.313 -0.5686 -0.4498  0.5651
 4360SOL    HW217206   2.744   2.934   3.267 -0.5959  0.2042  0.8891
 4360SOL    HW317207   2.593   2.940   3.259 -0.6260 -1.0367  0.2748
 4360SOL    MW417208   2.666   2.915   3.300 -0.5797 -0.4410  0.5696
 4361SOL     OW17209   5.158   5.938   2.836 -0.0647  0.3079  0.0016
 4361SOL    HW217210   5.134   5.971   2.750 -0.1059  1.0711  0.2988
 4361SOL    HW317211   5.251   5.956   2.844 -0.0087  0.0161  0.0210
 4361SOL    MW417212   5.167   5.945   2.826 -0.0627  0.3701  0.0433
 4362SOL     OW17213   2.372   5.055   6.419  0.0424 -0.3812  0.0061
 4362SOL    HW217214   2.453   5.004   6.423  0.4321  0.2338  0.1799
 4362SOL    HW317215   2.304   4.991   6.400  0.1431 -1.3596  2.5928
 4362SOL    MW417216   2.374   5.040   6.417  0.1071 -0.4292  0.3703
 4363SOL     OW17217   1.392   1.288   4.852  0.6811 -0.3775 -0.6498
 4363SOL    HW217218   1.361   1.321   4.936 -0.0830 -2.4711 -0.0413
 4363SOL    HW317219   1.316   1.294   4.795  0.2104 -1.9965 -0.2313
 4363SOL    MW417220   1.378   1.293   4.855  0.5181 -0.8673 -0.5143
 4364SOL     OW17221   4.094   1.842   0.863 -0.3841 -0.4859 -0.1068
 4364SOL    HW217222   4.157   1.914   0.868  0.4914 -1.2534  0.1017
 4364SOL    HW317223   4.023   1.869   0.921 -0.5750  0.6806 -0.8299
 4364SOL    MW417224   4.093   1.855   0.871 -0.2938 -0.4333 -0.1747
 4365SOL     OW17225   1.628   4.773   3.834 -0.5952  0.1758  0.0445
 4365SOL    HW217226   1.693   4.816   3.889 -0.5584 -0.2490  0.3388
 4365SOL    HW317227   1.654   4.681   3.834 -0.6244  0.1684 -0.6481
 4365SOL    MW417228   1.640   4.767   3.841 -0.5942  0.1188 -0.0080
 4366SOL     OW17229   4.907   5.641   6.128 -0.2467  0.0955  0.1430
 4366SOL    HW217230   4.833   5.580   6.119 -0.2471  0.0363  0.5269
 4366SOL    HW317231   4.984   5.585   6.126 -0.2118  0.1484 -0.1600
 4366SOL    MW417232   4.907   5.625   6.126 -0.2422  0.0947  0.1536
 4367SOL     OW17233   0.349   3.053   5.012  0.0517  0.1441 -0.5232
 4367SOL    HW217234   0.273   3.088   4.965  0.9907  2.7647 -0.2445
 4367SOL    HW317235   0.384   2.986   4.954 -1.5298  0.0419 -1.4040
 4367SOL    MW417236   0.344   3.049   4.998 -0.0330  0.4763 -0.6027
 4368SOL     OW17237   4.940   2.708   1.100  0.3516  0.4057 -0.1485
 4368SOL    HW217238   5.007   2.646   1.129  0.4070 -0.0575 -1.2310
 4368SOL    HW317239   4.880   2.715   1.174  0.7136 -0.4269  0.2287
 4368SOL    MW417240   4.941   2.701   1.113  0.4067  0.2347 -0.2416
 4369SOL     OW17241   1.033   2.614   3.684 -0.1984  0.3072  0.3643
 4369SOL    HW217242   0.959   2.659   3.725  1.0816  3.0085 -0.0659
 4369SOL    HW317243   1.012   2.614   3.591 -0.9605 -1.6599  0.4785
 4369SOL    MW417244   1.020   2.620   3.677 -0.1301  0.4041  0.3226
 4370SOL     OW17245   0.906   0.488   3.354 -0.0404  0.6002 -0.7281
 4370SOL    HW217246   0.857   0.555   3.307 -1.8151 -1.1743 -1.5216
 4370SOL    HW317247   0.867   0.486   3.441 -0.7252 -0.1168 -1.0428
 4370SOL    MW417248   0.895   0.497   3.360 -0.3649  0.2714 -0.8743
 4371SOL     OW17249   1.869   3.505   3.727 -0.4983 -0.3788  0.4161
 4371SOL    HW217250   1.900   3.537   3.642 -2.3428  2.2640  0.6202
 4371SOL    HW317251   1.869   3.410   3.718 -0.2138 -0.2006 -2.3927
 4371SOL    MW417252   1.873   3.497   3.714 -0.7041 -0.0066  0.0725
 4372SOL     OW17253   4.679   4.108   2.224  0.0217 -0.5993 -0.8331
 4372SOL    HW217254   4.676   4.099   2.129  0.4587 -0.6448 -0.8447
 4372SOL    HW317255   4.761   4.154   2.241 -0.2776 -0.1662 -0.5090
 4372SOL    MW417256   4.689   4.113   2.214  0.0399 -0.5482 -0.7919
 4373SOL     OW17257   3.692   2.106   4.728  0.3488  0.4964  0.3837
 4373SOL    HW217258   3.624   2.040   4.712 -0.5772  1.2156  1.2248
 4373SOL    HW317259   3.693   2.160   4.650 -0.3614  0.7474  0.5443
 4373SOL    MW417260   3.683   2.104   4.716  0.1329  0.6244  0.5158
 4374SOL     OW17261   3.943   4.068   1.177  0.3278  0.3293 -0.5142
 4374SOL    HW217262   3.879   4.132   1.208 -0.0546 -0.3573  0.1501
 4374SOL    HW317263   3.907   4.035   1.095  1.3304  2.1327 -1.7590
 4374SOL    MW417264   3.930   4.072   1.170  0.4096  0.4766 -0.5908
 4375SOL     OW17265   1.784   4.919   4.008 -0.1756  0.0576 -0.0935
 4375SOL    HW217266   1.875   4.949   3.998  0.0220 -0.9645 -1.7549
 4375SOL    HW317267   1.788   4.852   4.076  0.8827 -1.9327 -1.9764
 4375SOL    MW417268   1.797   4.914   4.015 -0.0099 -0.3398 -0.5611
 4376SOL     OW17269   3.701   2.341   5.715  0.6172  0.7553  0.3481
 4376SOL    HW217270   3.790   2.349   5.748  0.6374  0.3050  0.4026
 4376SOL    HW317271   3.698   2.255   5.674  0.1432  0.6720  0.5477
 4376SOL    MW417272   3.712   2.331   5.714  0.5573  0.6849  0.3816
 4377SOL     OW17273   5.538   3.674   3.438 -0.1996  0.4866 -0.8224
 4377SOL    HW217274   5.511   3.653   3.528  0.9598  1.5835 -0.1806
 4377SOL    HW317275   5.615   3.620   3.422 -1.6759 -1.3997 -2.0431
 4377SOL    MW417276   5.545   3.664   3.448 -0.2414  0.3825 -0.8987
 4378SOL     OW17277   2.269   1.573   1.484  0.5292 -0.0979  0.4923
 4378SOL    HW217278   2.249   1.481   1.497  0.9833 -0.1011  1.2143
 4378SOL    HW317279   2.360   1.583   1.513  0.3705  0.6451  0.7716
 4378SOL    MW417280   2.279   1.562   1.489  0.5682 -0.0003  0.6244
 4379SOL     OW17281   3.267   1.871   5.512  0.3121 -0.3750  0.2432
 4379SOL    HW217282   3.251   1.951   5.562  0.2039  0.3176 -0.8726
 4379SOL    HW317283   3.193   1.865   5.452  1.5117  0.0135 -1.3385
 4379SOL    MW417284   3.255   1.881   5.510  0.4561 -0.2323 -0.1127
 4380SOL     OW17285   0.408   1.553   6.239 -0.1359 -0.1437 -0.3508
 4380SOL    HW217286   0.445   1.478   6.285  1.0142  0.3251 -0.4632
 4380SOL    HW317287   0.485   1.603   6.209 -0.8687  0.7021 -0.8825
 4380SOL    MW417288   0.423   1.550   6.241 -0.0809  0.0298 -0.4358
 4381SOL     OW17289   0.694   2.731   1.595 -0.3023 -0.4372 -1.0528
 4381SOL    HW217290   0.642   2.656   1.625 -0.2449 -1.7153 -3.8137
 4381SOL    HW317291   0.767   2.736   1.658 -1.9574 -0.6395  0.9972
 4381SOL    MW417292   0.697   2.722   1.608 -0.5131 -0.6325 -1.1466
 4382SOL     OW17293   3.646   1.649   5.284  0.5308 -0.1150 -0.3654
 4382SOL    HW217294   3.695   1.694   5.215  0.1508  0.4086 -0.2969
 4382SOL    HW317295   3.605   1.719   5.335 -0.5008 -0.5457 -0.5759
 4382SOL    MW417296   3.647   1.664   5.282  0.3446 -0.1027 -0.3842
 4383SOL     OW17297   3.427   3.377   2.890  0.0713  0.2943  0.5483
 4383SOL    HW217298   3.333   3.380   2.871  0.3139  1.3409 -0.6300
 4383SOL    HW317299   3.434   3.322   2.968 -1.5011  0.0669  0.5620
 4383SOL    MW417300   3.415   3.370   2.898 -0.1041  0.4024  0.3946
 4384SOL     OW17301   2.880   4.213   4.325  0.0412 -0.1262 -0.6611
 4384SOL    HW217302   2.840   4.126   4.329  1.3133 -0.7341 -0.7429
 4384SOL    HW317303   2.909   4.230   4.415  0.0409  0.0991 -0.7033
 4384SOL    MW417304   2.879   4.203   4.337  0.2090 -0.1767 -0.6774
 4385SOL     OW17305   2.723   0.218   0.519  0.3198  0.0888  0.0085
 4385SOL    HW217306   2.770   0.257   0.445  1.1383 -0.7740  0.0496
 4385SOL    HW317307   2.709   0.127   0.493 -0.6169  0.1301  0.3470
 4385SOL    MW417308   2.727   0.211   0.506  0.3042 -0.0196  0.0586
 4386SOL     OW17309   4.998   2.113   0.226  0.8753  0.2854 -0.0765
 4386SOL    HW217310   4.960   2.045   0.171 -0.3170  0.6102  0.3188
 4386SOL    HW317311   4.935   2.124   0.297  2.4964 -0.3372  1.5515
 4386SOL    MW417312   4.985   2.105   0.228  0.9319  0.2461  0.1904
 4387SOL     OW17313   3.196   2.300   6.235  0.2440 -0.0689  0.0168
 4387SOL    HW217314   3.169   2.216   6.272 -0.1408  0.0307 -0.0362
 4387SOL    HW317315   3.290   2.303   6.251  0.6009 -1.3169 -1.6051
 4387SOL    MW417316   3.205   2.289   6.242  0.2403 -0.2205 -0.2042
 4388SOL     OW17317   2.280   1.873   4.963  0.0006  0.0643  0.2767
 4388SOL    HW217318   2.252   1.939   4.900 -0.4813 -1.8867 -1.6429
 4388SOL    HW317319   2.375   1.879   4.964 -0.0771  1.7480  1.2721
 4388SOL    MW417320   2.288   1.883   4.955 -0.0732  0.0290  0.1548
 4389SOL     OW17321   1.887   3.835   4.595  0.0521 -0.2847 -0.1673
 4389SOL    HW217322   1.888   3.889   4.674 -0.7086 -0.5808  0.0606
 4389SOL    HW317323   1.832   3.884   4.534 -2.0058 -1.5023  0.5951
 4389SOL    MW417324   1.880   3.848   4.597 -0.3198 -0.4844 -0.0367
 4390SOL     OW17325   3.443   5.679   1.686  0.2765 -0.8601  0.2563
 4390SOL    HW217326   3.460   5.764   1.646 -0.6513 -0.3058  1.0173
 4390SOL    HW317327   3.361   5.649   1.647 -0.3790 -0.5379  1.3528
 4390SOL    MW417328   3.435   5.686   1.676  0.0676 -0.7444  0.5013
 4391SOL     OW17329   0.012   1.925   0.768  0.0250 -0.6640  0.3016
 4391SOL    HW217330   0.064   1.858   0.812  0.8673  1.0315  2.0501
 4391SOL    HW317331  -0.078   1.907   0.794  0.5865  0.9671  3.9594
 4391SOL    MW417332   0.007   1.914   0.777  0.2102 -0.2251  1.0149
 4392SOL     OW17333   2.120   5.036   4.638  0.4432  0.2624  0.6230
 4392SOL    HW217334   2.087   5.125   4.651 -1.0883 -0.5198  2.5922
 4392SOL    HW317335   2.063   4.999   4.570 -0.1514  0.2237  1.1267
 4392SOL    MW417336   2.108   5.043   4.631  0.1627  0.1541  0.9493
 4393SOL     OW17337   5.114   4.092   2.645  0.4879  0.5392  0.2810
 4393SOL    HW217338   5.162   4.100   2.727  1.4460  1.1800 -0.3235
 4393SOL    HW317339   5.181   4.075   2.579 -0.3905 -1.4636 -0.1960
 4393SOL    MW417340   5.129   4.091   2.647  0.4984  0.3595  0.1383
 4394SOL     OW17341   4.166   3.612   5.063  0.1588  0.0178  0.1257
 4394SOL    HW217342   4.235   3.629   5.126 -1.2877 -0.2831  1.8792
 4394SOL    HW317343   4.133   3.525   5.085 -0.5092 -0.0274 -0.9317
 4394SOL    MW417344   4.171   3.603   5.074 -0.1202 -0.0279  0.2175
 4395SOL     OW17345   0.685   0.970   5.552 -0.7298 -0.1119  0.4167
 4395SOL    HW217346   0.698   0.934   5.640  0.4396  0.9854  0.7258
 4395SOL    HW317347   0.693   1.065   5.564 -1.9501  0.1453 -0.6567
 4395SOL    MW417348   0.688   0.978   5.566 -0.7365  0.0668  0.3158
 4396SOL     OW17349   1.934   3.177   4.463  1.1200  0.7446 -0.7569
 4396SOL    HW217350   1.962   3.254   4.513 -2.5217  0.8218  1.5508
 4396SOL    HW317351   1.887   3.213   4.388 -1.5489  0.9758  0.9019
 4396SOL    MW417352   1.932   3.192   4.460  0.2874  0.7853 -0.2336
 4397SOL     OW17353   1.972   5.071   1.793  0.0196  0.0911  0.2840
 4397SOL    HW217354   2.038   5.030   1.848  0.0108  1.0495  1.0517
 4397SOL    HW317355   2.022   5.126   1.733 -0.0609  0.8629  0.9045
 4397SOL    MW417356   1.987   5.073   1.792  0.0078  0.3194  0.4671
 4398SOL     OW17357   4.860   0.040   4.427 -0.2388 -0.1744  0.2986
 4398SOL    HW217358   4.901   0.122   4.453  0.2480 -1.0678  2.6081
 4398SOL    HW317359   4.861  -0.014   4.507 -0.3320 -2.5153 -1.1796
 4398SOL    MW417360   4.865   0.043   4.441 -0.1869 -0.6011  0.4083
 4399SOL     OW17361   5.153   3.186   0.249 -0.2608 -0.3448  0.2872
 4399SOL    HW217362   5.197   3.268   0.272 -0.7090  0.1070 -0.4165
 4399SOL    HW317363   5.062   3.200   0.274 -0.9520  0.4658 -2.2935
 4399SOL    MW417364   5.146   3.199   0.255 -0.4112 -0.1782 -0.1461
 4400SOL     OW17365   0.348   3.955   6.262  0.0765  0.6093 -0.1335
 4400SOL    HW217366   0.258   3.931   6.285  0.3844  1.9629  2.9898
 4400SOL    HW317367   0.400   3.879   6.285 -0.0088  0.7477  0.5375
 4400SOL    MW417368   0.343   3.942   6.268  0.1059  0.8062  0.3671
 4401SOL     OW17369   3.641   6.424   2.113 -0.3760  0.2073 -0.1754
 4401SOL    HW217370   3.564   6.383   2.075 -1.2475  1.0632  0.6388
 4401SOL    HW317371   3.614   6.450   2.201  1.0924 -0.2386  0.4437
 4401SOL    MW417372   3.628   6.422   2.119 -0.2972  0.2614  0.0137
 4402SOL     OW17373   5.902   1.138   3.890 -0.0673 -0.4357  0.4859
 4402SOL    HW217374   5.860   1.217   3.858  1.8016  0.5269  0.2826
 4402SOL    HW317375   5.987   1.136   3.846  1.0787 -1.0336  2.5753
 4402SOL    MW417376   5.908   1.148   3.880  0.3305 -0.3876  0.7348
 4403SOL     OW17377   4.891   1.036   1.847 -0.5467  0.2177  0.0300
 4403SOL    HW217378   4.900   0.976   1.921 -1.8129  0.1294  0.1292
 4403SOL    HW317379   4.841   1.110   1.882  2.4064  2.1961  0.3787
 4403SOL    MW417380   4.885   1.038   1.862 -0.3241  0.4671  0.0891
 4404SOL     OW17381   5.296   5.705   4.131 -0.0893  0.3388  0.0548
 4404SOL    HW217382   5.375   5.661   4.101  0.4921  1.3482  0.0837
 4404SOL    HW317383   5.225   5.644   4.110  0.5479  0.0119 -1.2289
 4404SOL    MW417384   5.297   5.691   4.124  0.0715  0.4288 -0.1107
 4405SOL     OW17385   1.367   1.902   0.090  0.0180  0.2310 -0.0860
 4405SOL    HW217386   1.443   1.925   0.144 -0.4420  1.0578  0.2269
 4405SOL    HW317387   1.293   1.903   0.150 -0.2403 -0.6049 -0.3817
 4405SOL    MW417388   1.367   1.905   0.105 -0.0768  0.2298 -0.0837
 4406SOL     OW17389   5.391   2.894   5.973  0.2252  0.4278  0.3563
 4406SOL    HW217390   5.481   2.889   5.942 -0.4976  1.0224 -2.0194
 4406SOL    HW317391   5.356   2.975   5.936 -1.0130  0.7777  2.1250
 4406SOL    MW417392   5.398   2.904   5.964 -0.0335  0.5524  0.2762
 4407SOL     OW17393   4.003   1.027   4.146 -0.1337 -0.1156  0.2529
 4407SOL    HW217394   4.095   1.035   4.169  0.1186 -1.4544 -0.2257
 4407SOL    HW317395   3.963   1.107   4.180  1.4792  1.2862 -1.0008
 4407SOL    MW417396   4.009   1.039   4.154  0.1124 -0.1073  0.0243
 4408SOL     OW17397   1.931   1.459   0.581 -0.3822 -0.0963 -0.6643
 4408SOL    HW217398   1.965   1.498   0.662 -0.4489 -0.3612 -0.5066
 4408SOL    HW317399   1.837   1.447   0.598 -0.1770 -1.3424 -0.2892
 4408SOL    MW417400   1.923   1.463   0.594 -0.3639 -0.2957 -0.5940
 4409SOL     OW17401   3.464   0.377   6.207 -0.2133  0.2622  0.7218
 4409SOL    HW217402   3.557   0.379   6.225 -0.1625  1.0972  0.4057
 4409SOL    HW317403   3.453   0.304   6.145  0.2971  0.4390  0.4134
 4409SOL    MW417404   3.474   0.367   6.201 -0.1393  0.3957  0.6394
 4410SOL     OW17405   5.463   0.084   0.760 -0.1233  0.7541 -0.1577
 4410SOL    HW217406   5.399   0.121   0.820 -1.2277 -0.1705 -0.7161
 4410SOL    HW317407   5.527   0.040   0.816  0.7200  2.6635  0.4671
 4410SOL    MW417408   5.463   0.083   0.775 -0.1578  0.8840 -0.1489
 4411SOL     OW17409   4.450   0.504   1.748  0.5157  0.1877 -0.2429
 4411SOL    HW217410   4.509   0.445   1.796  0.6448 -1.5407 -2.3791
 4411SOL    HW317411   4.489   0.511   1.661 -0.5437  1.9708 -0.6290
 4411SOL    MW417412   4.463   0.497   1.743  0.3930  0.1949 -0.5757
 4412SOL     OW17413   1.114   4.251   4.824  0.1910 -0.7042 -0.3095
 4412SOL    HW217414   1.185   4.313   4.841 -1.1334  1.1462 -1.0864
 4412SOL    HW317415   1.112   4.195   4.902  1.0359  0.6728  0.7708
 4412SOL    MW417416   1.123   4.252   4.837  0.1278 -0.2784 -0.2695
 4413SOL     OW17417   3.026   3.364   2.041 -1.2778  0.7385  1.0150
 4413SOL    HW217418   3.049   3.346   2.132 -0.4392  0.0616  0.6859
 4413SOL    HW317419   2.941   3.320   2.028 -0.1280 -1.5592  0.7438
 4413SOL    MW417420   3.018   3.355   2.051 -1.0155  0.3461  0.9358
 4414SOL     OW17421   0.358   0.203   2.296  0.4646  0.3208  0.1938
 4414SOL    HW217422   0.392   0.164   2.377 -1.1941 -0.2041  0.6668
 4414SOL    HW317423   0.416   0.170   2.227 -0.7329 -2.9386  0.5805
 4414SOL    MW417424   0.370   0.194   2.298  0.0878 -0.1785  0.3073
 4415SOL     OW17425   0.303   2.037   3.591  0.2844 -0.0411 -0.5137
 4415SOL    HW217426   0.269   1.987   3.665  1.4757  0.3691  0.3513
 4415SOL    HW317427   0.250   2.010   3.516 -0.1318 -1.3981  0.2484
 4415SOL    MW417428   0.291   2.027   3.591  0.3867 -0.1660 -0.2990
 4416SOL     OW17429   5.813   4.533   4.894  0.2236  0.6197  0.4923
 4416SOL    HW217430   5.816   4.443   4.863 -0.2870  0.8539 -0.2697
 4416SOL    HW317431   5.900   4.568   4.876 -0.1562  0.8486 -1.0148
 4416SOL    MW417432   5.825   4.526   4.888  0.1061  0.6808  0.1929
 4417SOL     OW17433   0.583   6.094   0.964  0.2647  0.3498  0.0007
 4417SOL    HW217434   0.489   6.075   0.962  0.5656 -2.3816  2.8897
 4417SOL    HW317435   0.590   6.175   1.015 -0.5265 -0.0580  0.7881
 4417SOL    MW417436   0.572   6.102   0.971  0.2000 -0.0644  0.4858
 4418SOL     OW17437   4.853   2.477   5.424  0.0674  0.4006  0.3832
 4418SOL    HW217438   4.863   2.566   5.390 -1.7310  0.0284 -1.3673
 4418SOL    HW317439   4.799   2.486   5.502  0.6691  0.9355  0.7340
 4418SOL    MW417440   4.847   2.490   5.430 -0.0905  0.4220  0.1986
 4419SOL     OW17441   2.089   4.333   4.646  0.1379 -0.3443  0.2633
 4419SOL    HW217442   1.995   4.339   4.629  0.1373  0.8859  0.6581
 4419SOL    HW317443   2.123   4.284   4.570 -0.7353 -0.3349 -0.1500
 4419SOL    MW417444   2.081   4.327   4.634  0.0226 -0.1808  0.2608
 4420SOL     OW17445   5.931   3.339   3.091  0.0610 -0.1932 -0.2931
 4420SOL    HW217446   5.918   3.295   3.007  2.2543  0.4819 -1.0390
 4420SOL    HW317447   6.019   3.315   3.118 -0.2039  0.4791  1.3156
 4420SOL    MW417448   5.941   3.330   3.084  0.3154 -0.0154 -0.1793
 4421SOL     OW17449   0.251   2.574   0.885  0.5902 -0.1638 -0.2084
 4421SOL    HW217450   0.159   2.546   0.888  0.9051 -1.1787  0.7555
 4421SOL    HW317451   0.270   2.582   0.792  0.5703 -3.7222 -0.6761
 4421SOL    MW417452   0.241   2.571   0.873  0.6291 -0.7672 -0.1429
 4422SOL     OW17453   2.880   4.290   4.840  0.1066  0.4848  0.0126
 4422SOL    HW217454   2.847   4.207   4.873 -0.4228  0.9847  0.7774
 4422SOL    HW317455   2.893   4.276   4.746  0.2817 -0.5340  0.1809
 4422SOL    MW417456   2.878   4.277   4.832  0.0599  0.4163  0.1357
 4423SOL     OW17457   2.155   5.764   5.877  0.2512 -0.0672 -0.1234
 4423SOL    HW217458   2.184   5.805   5.958 -0.3140 -0.8184  0.4703
 4423SOL    HW317459   2.063   5.787   5.870 -0.2370 -1.6988  0.5333
 4423SOL    MW417460   2.147   5.772   5.887  0.1122 -0.3816  0.0416
 4424SOL     OW17461   2.965   5.260   3.363  0.3795  0.4026 -0.2413
 4424SOL    HW217462   2.950   5.229   3.273  0.0561  3.0141 -1.1729
 4424SOL    HW317463   3.059   5.277   3.367  0.3319  0.6560 -0.2133
 4424SOL    MW417464   2.975   5.258   3.351  0.3305  0.7806 -0.3605
 4425SOL     OW17465   1.688   3.695   3.022  0.2668 -0.3690 -0.0266
 4425SOL    HW217466   1.609   3.723   2.975  0.0079 -2.5265 -0.9877
 4425SOL    HW317467   1.667   3.709   3.115 -1.1160 -0.5775 -0.2879
 4425SOL    MW417468   1.675   3.701   3.028  0.0502 -0.6812 -0.1879
 4426SOL     OW17469   3.922   4.846   5.980  0.2183  0.0175 -0.0337
 4426SOL    HW217470   3.941   4.793   6.057 -0.3121 -0.3201 -0.1295
 4426SOL    HW317471   3.957   4.932   6.001  1.9220 -0.5890 -0.2405
 4426SOL    MW417472   3.929   4.850   5.993  0.3731 -0.1071 -0.0736
 4427SOL     OW17473   5.691   4.533   3.550 -0.0401  0.2895 -0.0796
 4427SOL    HW217474   5.623   4.469   3.572 -0.1548  0.8923  1.4836
 4427SOL    HW317475   5.774   4.487   3.568  0.1200 -0.8668 -3.1258
 4427SOL    MW417476   5.693   4.518   3.556 -0.0341  0.2165 -0.2752
 4428SOL     OW17477   0.383   4.009   3.576  0.1869 -0.4133 -0.0940
 4428SOL    HW217478   0.366   4.085   3.521  1.2584  0.4692  0.7430
 4428SOL    HW317479   0.473   4.020   3.606 -0.4265 -0.6942  2.0551
 4428SOL    MW417480   0.392   4.020   3.573  0.2473 -0.3339  0.3000
 4429SOL     OW17481   6.098   0.451   4.086 -0.1451  0.3527 -0.2470
 4429SOL    HW217482   6.065   0.539   4.073 -2.5945 -0.5068 -0.2416
 4429SOL    HW317483   6.120   0.446   4.179  0.2060  1.0032 -0.2942
 4429SOL    MW417484   6.097   0.462   4.097 -0.4220  0.3251 -0.2525
 4430SOL     OW17485   1.063   5.671   4.504 -0.9005 -0.0331  0.0641
 4430SOL    HW217486   1.084   5.595   4.450  1.5757  1.8254 -1.8481
 4430SOL    HW317487   1.010   5.727   4.447  0.9588  1.5504 -0.1825
 4430SOL    MW417488   1.059   5.668   4.490 -0.3285  0.4210 -0.2207
 4431SOL     OW17489   2.401   0.459   1.306 -0.5499 -0.6329 -0.0028
 4431SOL    HW217490   2.474   0.444   1.246  0.6995 -0.7772  1.4823
 4431SOL    HW317491   2.352   0.377   1.305  1.3018 -1.8363  1.5437
 4431SOL    MW417492   2.404   0.446   1.298 -0.1407 -0.8107  0.3972
 4432SOL     OW17493   4.078   0.939   1.309 -0.2349 -0.2674  0.0423
 4432SOL    HW217494   4.066   0.885   1.231 -0.0091  0.1301 -0.2727
 4432SOL    HW317495   3.990   0.970   1.331 -0.1680  0.4439 -0.6595
 4432SOL    MW417496   4.065   0.936   1.301 -0.1963 -0.1211 -0.0919
 4433SOL     OW17497   2.348   3.406   3.427 -0.1948  0.2724  0.2783
 4433SOL    HW217498   2.403   3.339   3.467  0.0768 -0.4202 -1.1914
 4433SOL    HW317499   2.406   3.481   3.415  0.0064  0.1052  0.2039
 4433SOL    MW417500   2.363   3.407   3.430 -0.1324  0.1590  0.0745
 4434SOL     OW17501   6.319   1.130   4.447  0.0076  0.4479  0.6429
 4434SOL    HW217502   6.349   1.138   4.538 -0.2865  0.8610  0.7081
 4434SOL    HW317503   6.259   1.204   4.436  0.5149  0.7540 -0.0758
 4434SOL    MW417504   6.315   1.141   4.458  0.0357  0.5428  0.5567
 4435SOL     OW17505   0.294   0.499   2.254 -0.0766 -0.5346  0.1182
 4435SOL    HW217506   0.389   0.490   2.258 -0.1082 -1.4835 -0.8747
 4435SOL    HW317507   0.272   0.486   2.162 -1.0713  0.8991  0.1083
 4435SOL    MW417508   0.304   0.496   2.243 -0.2120 -0.4707 -0.0141
 4436SOL     OW17509   6.148   4.603   2.930  0.4727  0.2746 -0.2992
 4436SOL    HW217510   6.133   4.572   3.019  1.0198  0.8044 -0.0188
 4436SOL    HW317511   6.112   4.534   2.874  0.5321 -0.2692  0.3254
 4436SOL    MW417512   6.141   4.590   2.934  0.5527  0.2728 -0.1798
 4437SOL     OW17513   5.537   0.165   2.789  0.1705 -0.0984 -0.2593
 4437SOL    HW217514   5.540   0.199   2.878  3.4374 -0.3565 -0.1709
 4437SOL    HW317515   5.457   0.112   2.786 -0.9576  1.3441  1.9113
 4437SOL    MW417516   5.527   0.162   2.800  0.4527  0.0578  0.0388
 4438SOL     OW17517   6.111   2.506   6.119 -0.4239  0.0638 -0.2632
 4438SOL    HW217518   6.022   2.538   6.104 -0.8267 -0.5843  0.6737
 4438SOL    HW317519   6.101   2.411   6.131  0.2381  0.1308  0.9678
 4438SOL    MW417520   6.098   2.498   6.118 -0.3897 -0.0129  0.0228
 4439SOL     OW17521   3.980   1.906   3.280 -0.1920  0.2387  0.1757
 4439SOL    HW217522   3.953   1.902   3.188 -2.2761 -1.8878  0.7722
 4439SOL    HW317523   4.073   1.885   3.278 -0.1729  0.3453 -1.4482
 4439SOL    MW417524   3.988   1.903   3.267 -0.4645 -0.0278  0.0402
 4440SOL     OW17525   6.186   3.541   2.180  0.1453  0.6049 -0.0668
 4440SOL    HW217526   6.092   3.547   2.163  0.0706  1.1537  0.5026
 4440SOL    HW317527   6.205   3.447   2.177 -0.4128  0.4946 -0.2295
 4440SOL    MW417528   6.176   3.529   2.178  0.0618  0.6628 -0.0131
 4441SOL     OW17529   2.908   0.318   1.510 -0.4257  0.9789 -0.5125
 4441SOL    HW217530   2.871   0.233   1.534 -0.3534  1.3742  1.1247
 4441SOL    HW317531   2.986   0.296   1.458  0.4659 -0.0324  1.1474
 4441SOL    MW417532   2.914   0.304   1.506 -0.2986  0.8976 -0.0775
 4442SOL     OW17533   6.089   4.514   4.567  0.0740 -0.0065 -0.1698
 4442SOL    HW217534   6.084   4.418   4.564  2.8692 -0.2730  0.3691
 4442SOL    HW317535   6.089   4.541   4.475 -0.6843 -0.5076 -0.3285
 4442SOL    MW417536   6.089   4.505   4.555  0.3428 -0.1078 -0.1197
 4443SOL     OW17537   1.797   0.984   2.273  0.0591 -0.7638 -0.3693
 4443SOL    HW217538   1.792   1.026   2.187  0.1792 -1.1042 -0.5428
 4443SOL    HW317539   1.736   0.911   2.268  1.8125 -2.2766 -1.0069
 4443SOL    MW417540   1.788   0.980   2.261  0.3063 -1.0083 -0.4763
 4444SOL     OW17541   3.342   2.397   2.279 -0.4881 -0.3552  0.0614
 4444SOL    HW217542   3.250   2.409   2.260 -0.4812  0.8183  0.6649
 4444SOL    HW317543   3.355   2.439   2.364  0.3851 -1.4539  0.5064
 4444SOL    MW417544   3.332   2.404   2.288 -0.3720 -0.3453  0.1997
 4445SOL     OW17545   0.458   3.495   6.230  0.8812  0.0298  0.1706
 4445SOL    HW217546   0.479   3.450   6.148  0.1117 -0.9659  0.4943
 4445SOL    HW317547   0.363   3.484   6.239  0.8393  0.8587  0.7760
 4445SOL    MW417548   0.448   3.487   6.220  0.7742  0.0078  0.2932
 4446SOL     OW17549   1.105   5.423   4.376 -0.5611 -0.2808  0.7463
 4446SOL    HW217550   1.170   5.366   4.417  1.2428  0.0784 -1.4216
 4446SOL    HW317551   1.029   5.366   4.362  0.3808 -1.5611  0.6214
 4446SOL    MW417552   1.104   5.408   4.380 -0.1988 -0.4024  0.4438
 4447SOL     OW17553   3.697   3.825   4.178 -0.0134 -0.2055  0.2997
 4447SOL    HW217554   3.774   3.866   4.216  0.5764  0.5811 -1.6412
 4447SOL    HW317555   3.626   3.845   4.240  1.2011 -0.4955  1.8390
 4447SOL    MW417556   3.698   3.833   4.191  0.2246 -0.1400  0.2467
 4448SOL     OW17557   3.539   6.356   1.476 -0.4002  0.0549  1.0951
 4448SOL    HW217558   3.616   6.324   1.429  0.7874  1.6796  1.8230
 4448SOL    HW317559   3.466   6.344   1.415  0.8196  0.6185 -0.5443
 4448SOL    MW417560   3.540   6.350   1.462 -0.0826  0.3436  0.9749
 4449SOL     OW17561   2.231   0.967   5.102 -0.1084 -0.0277 -0.3416
 4449SOL    HW217562   2.312   1.018   5.109 -0.0614 -0.1956  0.4519
 4449SOL    HW317563   2.207   0.948   5.193  0.0429 -1.6647 -0.6101
 4449SOL    MW417564   2.239   0.971   5.115 -0.0823 -0.2658 -0.2723
 4450SOL     OW17565   0.978   5.329   1.678 -0.2132  0.3008  0.6556
 4450SOL    HW217566   1.032   5.339   1.600 -1.6633 -0.3794 -0.4970
 4450SOL    HW317567   1.032   5.277   1.738  0.3406 -0.5611 -0.5380
 4450SOL    MW417568   0.992   5.323   1.675 -0.3315  0.0973  0.3460
 4451SOL     OW17569   4.305   2.488   2.509  0.0071  0.1024 -0.1677
 4451SOL    HW217570   4.367   2.515   2.576  0.3720  0.2708 -0.5677
 4451SOL    HW317571   4.308   2.557   2.443 -2.4139  1.3785  0.9197
 4451SOL    MW417572   4.313   2.500   2.509 -0.2642  0.2930 -0.0770
 4452SOL     OW17573   2.234   0.293   5.975 -0.1862  0.0250  0.3817
 4452SOL    HW217574   2.155   0.347   5.972 -0.8883 -0.9354  1.0089
 4452SOL    HW317575   2.219   0.225   5.909  0.1913 -0.0512  0.3747
 4452SOL    MW417576   2.221   0.291   5.966 -0.2290 -0.1118  0.4636
 4453SOL     OW17577   0.461   5.094   2.390  0.5981  0.1441 -0.2262
 4453SOL    HW217578   0.410   5.171   2.416 -0.5175 -0.9831  1.0493
 4453SOL    HW317579   0.441   5.028   2.456  1.8507 -1.1295 -1.0609
 4453SOL    MW417580   0.452   5.095   2.402  0.6161 -0.1727 -0.1680
 4454SOL     OW17581   5.981   4.791   3.890 -0.0254 -1.0284  0.1854
 4454SOL    HW217582   5.965   4.846   3.813  0.2379 -0.5888  0.4448
 4454SOL    HW317583   5.895   4.756   3.913 -0.3283 -0.1090  0.4820
 4454SOL    MW417584   5.967   4.794   3.883 -0.0306 -0.8491  0.2587
 4455SOL     OW17585   3.515   3.536   0.191 -0.1544 -0.2643  0.0415
 4455SOL    HW217586   3.583   3.586   0.238 -1.0907  0.1593  0.9826
 4455SOL    HW317587   3.552   3.522   0.104  0.9581  0.3500  0.3918
 4455SOL    MW417588   3.529   3.541   0.186 -0.1311 -0.1274  0.2119
 4456SOL     OW17589   4.759   0.859   4.134 -0.3095 -0.4419  0.1591
 4456SOL    HW217590   4.731   0.813   4.214  0.8171  0.2941  1.0057
 4456SOL    HW317591   4.684   0.851   4.075 -0.8764 -1.6697  1.0009
 4456SOL    MW417592   4.745   0.852   4.137 -0.2356 -0.5068  0.3819
 4457SOL     OW17593   5.450   1.542   0.838 -0.2423 -0.1291 -0.2347
 4457SOL    HW217594   5.513   1.577   0.900 -0.0511  1.0482 -1.0501
 4457SOL    HW317595   5.375   1.600   0.845  0.0334  0.4282 -1.5246
 4457SOL    MW417596   5.449   1.554   0.847 -0.1807  0.0997 -0.5124
 4458SOL     OW17597   0.371   4.207   3.389  0.1404 -0.1517  0.3759
 4458SOL    HW217598   0.426   4.281   3.362 -0.3307  0.0004 -0.1835
 4458SOL    HW317599   0.283   4.244   3.397 -0.0617 -0.6094  0.2999
 4458SOL    MW417600   0.367   4.222   3.387  0.0516 -0.1920  0.2921
 4459SOL     OW17601   6.052   4.511   0.209 -0.0645 -0.2073  0.4934
 4459SOL    HW217602   6.074   4.599   0.180  0.3578 -0.4496  0.0805
 4459SOL    HW317603   5.965   4.521   0.249  0.2109  0.4946  0.9405
 4459SOL    MW417604   6.043   4.524   0.211  0.0276 -0.1467  0.4979
 4460SOL     OW17605   2.326   1.907   2.342  0.3921  0.1343 -0.2113
 4460SOL    HW217606   2.301   1.901   2.434  0.2503  0.8036 -0.2032
 4460SOL    HW317607   2.422   1.900   2.343  0.3525 -0.3879 -0.0599
 4460SOL    MW417608   2.336   1.905   2.354  0.3681  0.1537 -0.1903
 4461SOL     OW17609   3.798   5.682   2.283  0.3355  0.1807 -0.5558
 4461SOL    HW217610   3.856   5.670   2.358  0.7658  0.0553 -0.9096
 4461SOL    HW317611   3.754   5.765   2.301 -0.0975 -0.2046  0.1873
 4461SOL    MW417612   3.800   5.692   2.295  0.3352  0.1133 -0.5045
 4462SOL     OW17613   3.159   2.200   4.955 -0.3520  0.2019 -0.0132
 4462SOL    HW217614   3.102   2.140   4.907 -1.6959  1.7486 -0.4392
 4462SOL    HW317615   3.248   2.171   4.934 -0.9424 -1.1615 -0.7803
 4462SOL    MW417616   3.163   2.188   4.946 -0.6072  0.2261 -0.1706
 4463SOL     OW17617   1.934   2.945   4.618  0.2308  0.5394  0.0819
 4463SOL    HW217618   1.908   3.030   4.582  0.9919  1.4296  1.5234
 4463SOL    HW317619   2.029   2.952   4.630  0.5707 -1.1069 -1.2012
 4463SOL    MW417620   1.943   2.957   4.615  0.3761  0.4397  0.1028
 4464SOL     OW17621   1.261   5.527   5.226 -0.2481  0.2287 -0.3801
 4464SOL    HW217622   1.349   5.489   5.231  0.1450  1.2293  2.3504
 4464SOL    HW317623   1.267   5.593   5.157  1.4280  0.8176  0.2595
 4464SOL    MW417624   1.273   5.531   5.218  0.0249  0.4384  0.0646
 4465SOL     OW17625   3.284   1.998   4.078  0.4499  0.3314  0.3173
 4465SOL    HW217626   3.355   2.022   4.018  0.5404 -0.2260  0.1878
 4465SOL    HW317627   3.324   1.934   4.137  0.0626  0.0329  0.2607
 4465SOL    MW417628   3.299   1.992   4.078  0.4107  0.2184  0.2927
 4466SOL     OW17629   4.390   5.064   4.336  0.0809 -0.1055  0.5081
 4466SOL    HW217630   4.350   5.148   4.315 -1.4664 -0.2671  2.5622
 4466SOL    HW317631   4.473   5.087   4.379  1.0094  0.2669 -1.3723
 4466SOL    MW417632   4.396   5.078   4.339 -0.0008 -0.0777  0.5310
 4467SOL     OW17633   0.800   4.402   3.852  1.0927  0.3453 -0.6452
 4467SOL    HW217634   0.837   4.490   3.855  0.5382  0.5787 -0.5216
 4467SOL    HW317635   0.861   4.352   3.798  1.2781  0.8665 -0.9212
 4467SOL    MW417636   0.813   4.407   3.845  1.0440  0.4448 -0.6653
 4468SOL     OW17637   4.467   4.767   0.452 -0.4774  0.0693 -0.0079
 4468SOL    HW217638   4.492   4.824   0.380  0.5215 -0.8045 -0.3841
 4468SOL    HW317639   4.459   4.680   0.412 -2.8410  0.0434  0.3683
 4468SOL    MW417640   4.470   4.763   0.437 -0.6574 -0.0494 -0.0079
 4469SOL     OW17641   4.160   4.198   1.070 -0.3970 -0.0481  0.3291
 4469SOL    HW217642   4.230   4.143   1.035  0.9312  1.6687  0.1721
 4469SOL    HW317643   4.091   4.136   1.094  0.8138 -1.7239 -0.3086
 4469SOL    MW417644   4.160   4.183   1.068 -0.0620 -0.0427  0.2243
 4470SOL     OW17645   2.801   5.697   3.002 -0.1796 -0.0360 -0.4264
 4470SOL    HW217646   2.817   5.639   3.076 -1.2013 -1.0361 -0.9602
 4470SOL    HW317647   2.852   5.776   3.021  1.8168 -1.3632 -0.0239
 4470SOL    MW417648   2.810   5.700   3.014 -0.0510 -0.3431 -0.4437
 4471SOL     OW17649   6.162   4.584   2.485  0.3861  0.2214  0.1180
 4471SOL    HW217650   6.086   4.581   2.426 -1.1942  2.1242  1.8869
 4471SOL    HW317651   6.138   4.528   2.558  1.7143 -0.9597 -0.3104
 4471SOL    MW417652   6.149   4.576   2.487  0.3529  0.3166  0.2948
 4472SOL     OW17653   5.494   4.007   2.750  0.0665  0.1607 -0.1987
 4472SOL    HW217654   5.414   3.993   2.700  0.6436 -2.5469 -0.5112
 4472SOL    HW317655   5.465   4.011   2.841 -0.3834 -2.1545 -0.1749
 4472SOL    MW417656   5.480   4.006   2.755  0.0833 -0.5020 -0.2368
 4473SOL     OW17657   5.162   5.496   1.465  0.0986  0.5077 -0.2045
 4473SOL    HW217658   5.162   5.400   1.469 -0.4922  0.3708 -2.2202
 4473SOL    HW317659   5.242   5.522   1.511  0.4541 -0.9652  0.0575
 4473SOL    MW417660   5.173   5.487   1.471  0.0675  0.2953 -0.4359
 4474SOL     OW17661   4.560   1.728   4.766 -0.1392  0.4799 -0.3760
 4474SOL    HW217662   4.635   1.786   4.760  0.7129 -0.6704 -1.4817
 4474SOL    HW317663   4.598   1.640   4.776 -1.3579 -0.0227  0.1709
 4474SOL    MW417664   4.575   1.724   4.767 -0.1876  0.2618 -0.4498
 4475SOL     OW17665   1.837   2.529   1.592  0.2123  0.4043  0.5206
 4475SOL    HW217666   1.859   2.618   1.620 -0.2653  0.5059  0.5713
 4475SOL    HW317667   1.779   2.540   1.517  0.0285  0.1386  0.6202
 4475SOL    MW417668   1.832   2.542   1.586  0.1250  0.3826  0.5404
 4476SOL     OW17669   2.525   2.628   6.229  0.5486  0.6569  0.2137
 4476SOL    HW217670   2.562   2.711   6.258 -0.3874  0.5133  2.0205
 4476SOL    HW317671   2.436   2.649   6.202  0.2204  0.2422  0.9209
 4476SOL    MW417672   2.518   2.642   6.229  0.3818  0.5833  0.5454
 4477SOL     OW17673   5.284   4.908   3.805  0.6568  0.4309  0.3143
 4477SOL    HW217674   5.314   4.958   3.881  0.1521  1.5028 -0.1656
 4477SOL    HW317675   5.343   4.934   3.734 -0.1232  1.0161 -0.1448
 4477SOL    MW417676   5.296   4.918   3.805  0.4873  0.6495  0.1904
 4478SOL     OW17677   1.088   1.836   3.593  0.0826 -0.1545 -0.6260
 4478SOL    HW217678   1.146   1.773   3.636  2.2834  1.5058 -0.9609
 4478SOL    HW317679   1.054   1.789   3.517  2.3458 -0.7664 -1.3592
 4478SOL    MW417680   1.091   1.821   3.588  0.6715 -0.0162 -0.7670
 4479SOL     OW17681   2.187   1.311   3.320 -0.6175 -0.2586 -0.4930
 4479SOL    HW217682   2.107   1.363   3.323 -1.0799 -0.9324 -1.0439
 4479SOL    HW317683   2.160   1.223   3.347  0.1431 -0.2509  0.3503
 4479SOL    MW417684   2.173   1.306   3.324 -0.5782 -0.3465 -0.4544
 4480SOL     OW17685   0.474   2.189   2.063  0.6722 -0.3893 -0.8413
 4480SOL    HW217686   0.419   2.219   2.135  1.7988  1.3306 -0.6255
 4480SOL    HW317687   0.563   2.192   2.098  1.1761 -0.1857 -2.0767
 4480SOL    MW417688   0.479   2.193   2.077  0.8873 -0.1355 -0.9758
 4481SOL     OW17689   3.107   0.313   4.598 -0.1471  0.2056 -0.2559
 4481SOL    HW217690   3.032   0.273   4.554 -0.4350  0.7473 -0.2744
 4481SOL    HW317691   3.146   0.370   4.531  0.3038 -0.0943 -0.2567
 4481SOL    MW417692   3.103   0.316   4.583 -0.1256  0.2375 -0.2585
 4482SOL     OW17693   2.552   6.137   0.170  0.1397  0.7667 -0.1682
 4482SOL    HW217694   2.566   6.048   0.139  1.0130  0.0367  2.0492
 4482SOL    HW317695   2.567   6.131   0.265 -2.5378  2.7139  0.4949
 4482SOL    MW417696   2.556   6.124   0.179 -0.0984  0.9273  0.2119
 4483SOL     OW17697   1.531   5.119   3.006 -0.3702  0.2971  0.8110
 4483SOL    HW217698   1.470   5.049   2.986 -1.0817  0.7581  1.2917
 4483SOL    HW317699   1.602   5.109   2.943  0.0543 -1.4669  1.5350
 4483SOL    MW417700   1.532   5.109   2.995 -0.4081  0.1252  0.9700
 4484SOL     OW17701   0.697   0.357   1.806 -0.0027 -0.0701  0.3362
 4484SOL    HW217702   0.603   0.367   1.797  0.1511  0.0032 -1.6168
 4484SOL    HW317703   0.734   0.436   1.766  0.8827 -0.9283 -0.6173
 4484SOL    MW417704   0.690   0.369   1.799  0.1344 -0.1737 -0.0472
 4485SOL     OW17705   0.250   2.210   0.104 -0.2167 -0.0681 -0.2539
 4485SOL    HW217706   0.216   2.148   0.170  1.4670  0.0976  0.8327
 4485SOL    HW317707   0.213   2.179   0.022  0.8065 -2.8044  0.1812
 4485SOL    MW417708   0.241   2.197   0.102  0.1405 -0.4072 -0.0531
 4486SOL     OW17709   4.100   3.239   3.072 -0.0551  0.3271 -0.1648
 4486SOL    HW217710   4.058   3.306   3.127 -0.6298 -1.0650  1.1842
 4486SOL    HW317711   4.192   3.241   3.097 -0.3608 -0.4945  1.1354
 4486SOL    MW417712   4.106   3.248   3.083 -0.1712  0.0351  0.1847
 4487SOL     OW17713   0.904   0.784   1.177 -0.1125 -0.2027 -0.1549
 4487SOL    HW217714   0.852   0.747   1.106 -0.3192  0.1608 -0.1983
 4487SOL    HW317715   0.845   0.847   1.219  0.2343  0.0851 -0.0941
 4487SOL    MW417716   0.890   0.788   1.174 -0.0940 -0.1168 -0.1526
 4488SOL     OW17717   4.814   0.047   3.365  0.1805  0.0634  0.2616
 4488SOL    HW217718   4.771  -0.005   3.433  0.7100  0.3643  0.8407
 4488SOL    HW317719   4.877  -0.013   3.326 -0.1768 -0.1321 -0.0242
 4488SOL    MW417720   4.817   0.032   3.369  0.2032  0.0773  0.3003
 4489SOL     OW17721   2.630   5.686   6.277  0.0389  0.0176  0.1673
 4489SOL    HW217722   2.662   5.689   6.186 -0.5607  0.8550 -0.0251
 4489SOL    HW317723   2.673   5.759   6.320  0.2397 -0.3175  0.5460
 4489SOL    MW417724   2.640   5.696   6.270 -0.0137  0.0839  0.1919
 4490SOL     OW17725   1.449   1.763   2.997 -0.2864 -0.1250  0.0026
 4490SOL    HW217726   1.451   1.737   2.905 -1.1315 -1.2375  0.2730
 4490SOL    HW317727   1.358   1.789   3.012 -0.6415 -1.7862  0.9735
 4490SOL    MW417728   1.437   1.763   2.987 -0.4448 -0.4910  0.1664
 4491SOL     OW17729   0.967   5.168   4.496  0.3462 -0.5824 -0.0476
 4491SOL    HW217730   0.957   5.193   4.588  0.7803 -1.5369  0.2693
 4491SOL    HW317731   1.061   5.149   4.487  0.3478 -0.2416 -0.7506
 4491SOL    MW417732   0.978   5.169   4.507  0.4037 -0.6634 -0.0985
 4492SOL     OW17733   1.063   0.456   5.314  0.0204  0.1431  0.0969
 4492SOL    HW217734   1.095   0.436   5.226 -0.5919  1.4544 -0.4544
 4492SOL    HW317735   0.984   0.403   5.323  0.1113 -0.0324 -0.1170
 4492SOL    MW417736   1.057   0.446   5.304 -0.0484  0.2930 -0.0041
 4493SOL     OW17737   5.744   1.834   1.683  0.2156  0.3367  0.3557
 4493SOL    HW217738   5.673   1.773   1.704  0.0232 -0.1391 -1.4563
 4493SOL    HW317739   5.782   1.857   1.767 -0.4174 -1.4288  1.1754
 4493SOL    MW417740   5.739   1.829   1.697  0.1067  0.0410  0.2248
 4494SOL     OW17741   0.657   1.107   5.950  0.3560  0.4127  0.1101
 4494SOL    HW217742   0.723   1.062   6.003  0.4664 -0.6840 -0.9096
 4494SOL    HW317743   0.622   1.039   5.893  0.0764  1.5056 -1.0649
 4494SOL    MW417744   0.661   1.092   5.950  0.3337  0.4122 -0.1794
 4495SOL     OW17745   2.251   5.262   1.832  0.2326  0.4256 -0.7933
 4495SOL    HW217746   2.183   5.264   1.900  0.0582 -0.8090 -0.9190
 4495SOL    HW317747   2.211   5.306   1.758  0.4191  1.7787 -0.1291
 4495SOL    MW417748   2.237   5.268   1.831  0.2342  0.4412 -0.7223
 4496SOL     OW17749   4.218   0.198   5.043  0.0433 -0.1182  0.1957
 4496SOL    HW217750   4.268   0.279   5.033  0.1032 -0.2747 -0.8752
 4496SOL    HW317751   4.223   0.156   4.957 -0.4934 -0.9676  0.5671
 4496SOL    MW417752   4.225   0.203   5.030 -0.0196 -0.2509  0.1034
 4497SOL     OW17753   1.031   1.597   0.159 -0.1970 -0.5785 -0.0488
 4497SOL    HW217754   1.052   1.631   0.071  0.6716 -1.4013 -0.1700
 4497SOL    HW317755   0.985   1.515   0.142 -0.0527 -0.7238  0.2762
 4497SOL    MW417756   1.027   1.591   0.145 -0.0633 -0.7062 -0.0219
 4498SOL     OW17757   4.929   2.995   2.607  0.7556  0.2866 -0.3081
 4498SOL    HW217758   5.021   3.010   2.631  0.6289  1.7461 -0.6831
 4498SOL    HW317759   4.892   3.082   2.597 -0.3987 -0.2929 -1.2767
 4498SOL    MW417760   4.936   3.008   2.609  0.5866  0.4027 -0.4854
 4499SOL     OW17761   2.800   3.857   2.829  0.2442 -0.2951  0.2429
 4499SOL    HW217762   2.803   3.892   2.740  1.7900 -0.7027  0.1076
 4499SOL    HW317763   2.717   3.888   2.864 -0.6485 -0.5917 -1.5204
 4499SOL    MW417764   2.790   3.866   2.822  0.3304 -0.3880 -0.0076
 4500SOL     OW17765   2.203   1.139   4.723  0.3789 -0.1796 -0.2550
 4500SOL    HW217766   2.158   1.055   4.717  0.4316 -0.3818  1.5701
 4500SOL    HW317767   2.194   1.165   4.815 -0.6766  2.4051 -0.9937
 4500SOL    MW417768   2.196   1.132   4.734  0.2466  0.1347 -0.1117
 4501SOL     OW17769   0.790   0.370   3.059 -0.1758  0.5891 -0.1249
 4501SOL    HW217770   0.845   0.447   3.048  2.2335 -1.1333 -0.8176
 4501SOL    HW317771   0.801   0.321   2.978 -1.1411 -0.8016  0.5599
 4501SOL    MW417772   0.799   0.374   3.047  0.0147  0.1783 -0.1259
 4502SOL     OW17773   1.956   1.860   3.306  0.0724  0.0104 -0.0667
 4502SOL    HW217774   1.894   1.811   3.359 -0.0612  0.2868  0.0322
 4502SOL    HW317775   1.950   1.950   3.338 -0.2218  0.2407 -0.7359
 4502SOL    MW417776   1.947   1.866   3.317  0.0159  0.0773 -0.1419
 4503SOL     OW17777   0.949   1.862   4.429  0.6691 -0.1537  0.1504
 4503SOL    HW217778   0.941   1.885   4.336  0.6856 -1.4024 -0.1682
 4503SOL    HW317779   1.033   1.818   4.436 -0.1562 -1.7507  0.3888
 4503SOL    MW417780   0.959   1.859   4.418  0.5624 -0.5292  0.1398
 4504SOL     OW17781   2.247   5.077   5.952 -0.1071  0.1733  0.3954
 4504SOL    HW217782   2.208   4.990   5.943  1.0361 -0.4261  1.0499
 4504SOL    HW317783   2.184   5.126   6.005 -0.0241 -0.7663  1.4027
 4504SOL    MW417784   2.233   5.072   5.958  0.0547 -0.0297  0.6147
 4505SOL     OW17785   0.149   0.325   3.397  0.4068  0.2465  0.1933
 4505SOL    HW217786   0.084   0.369   3.451 -2.0878 -1.4742 -1.2314
 4505SOL    HW317787   0.132   0.357   3.308 -0.2247 -2.0790 -0.5875
 4505SOL    MW417788   0.138   0.335   3.392 -0.0057 -0.2874 -0.0977
 4506SOL     OW17789   3.143   3.395   1.769  0.1893 -0.1895 -0.5673
 4506SOL    HW217790   3.117   3.395   1.861  3.2201  2.6362  0.4671
 4506SOL    HW317791   3.208   3.326   1.762 -1.4142 -1.7262 -1.1837
 4506SOL    MW417792   3.148   3.386   1.780  0.3776 -0.0194 -0.5122
 4507SOL     OW17793   3.783   3.114   6.292  0.4705 -0.1210 -0.2179
 4507SOL    HW217794   3.827   3.172   6.354  2.4732  0.6267 -2.2250
 4507SOL    HW317795   3.708   3.165   6.260 -0.6647 -0.5627  1.5687
 4507SOL    MW417796   3.779   3.128   6.296  0.5850 -0.0806 -0.2470
 4508SOL     OW17797   3.325   3.202   1.735 -0.1045  0.1543  0.6368
 4508SOL    HW217798   3.392   3.200   1.803  0.6513 -1.7752 -0.0872
 4508SOL    HW317799   3.289   3.113   1.735 -1.2185  0.5846 -0.3975
 4508SOL    MW417800   3.329   3.190   1.744 -0.1518 -0.0435  0.4048
 4509SOL     OW17801   2.950   4.722   5.114 -0.0684 -0.0756 -0.3494
 4509SOL    HW217802   3.034   4.741   5.155  0.3090 -0.4714 -0.9195
 4509SOL    HW317803   2.930   4.632   5.140  0.1675 -0.3266 -1.0058
 4509SOL    MW417804   2.958   4.712   5.123  0.0125 -0.1609 -0.5113
 4510SOL     OW17805   5.483   0.656   2.116 -0.0165 -0.1637 -0.4163
 4510SOL    HW217806   5.533   0.577   2.138  0.4783  0.3160  0.2094
 4510SOL    HW317807   5.452   0.641   2.027  1.2092 -0.4974 -0.7968
 4510SOL    MW417808   5.485   0.644   2.107  0.2105 -0.1444 -0.3840
 4511SOL     OW17809   1.302   4.893   5.560 -0.3077  0.0116  0.1811
 4511SOL    HW217810   1.327   4.983   5.537 -0.7337  0.1780  0.3693
 4511SOL    HW317811   1.330   4.883   5.651 -0.0974 -0.1096  0.1048
 4511SOL    MW417812   1.309   4.904   5.569 -0.3362  0.0175  0.1959
 4512SOL     OW17813   3.258   4.123   3.230  0.1637  0.4272 -0.3371
 4512SOL    HW217814   3.184   4.170   3.268  0.2695  0.1249  0.2544
 4512SOL    HW317815   3.295   4.073   3.302 -1.4411 -2.5461 -1.3931
 4512SOL    MW417816   3.253   4.122   3.244 -0.0341 -0.0050 -0.3984
 4513SOL     OW17817   6.085   1.919   1.333 -0.0590 -0.4730  0.7179
 4513SOL    HW217818   6.042   1.991   1.286 -0.3283 -0.0939  1.5280
 4513SOL    HW317819   6.017   1.885   1.391  0.2504 -0.9870  0.7866
 4513SOL    MW417820   6.070   1.924   1.334 -0.0537 -0.4908  0.8338
 4514SOL     OW17821   0.201   3.504   6.312  0.0182  0.1793  0.2193
 4514SOL    HW217822   0.183   3.574   6.250 -0.8384 -0.5952 -0.4309
 4514SOL    HW317823   0.140   3.434   6.288  0.3390 -0.5075  1.3204
 4514SOL    MW417824   0.191   3.504   6.301 -0.0525 -0.0135  0.2788
 4515SOL     OW17825   4.181   5.867   0.412 -0.3230 -0.2047  0.3962
 4515SOL    HW217826   4.239   5.876   0.487 -0.4168  0.3565  0.4031
 4515SOL    HW317827   4.112   5.932   0.426  0.4651  0.9535 -0.9108
 4515SOL    MW417828   4.179   5.877   0.424 -0.2314  0.0222  0.2247
 4516SOL     OW17829   2.310   0.196   1.327  0.4055 -0.3601  0.5067
 4516SOL    HW217830   2.251   0.132   1.366 -0.7483 -1.2264 -2.3895
 4516SOL    HW317831   2.325   0.164   1.238  1.5243  2.2773 -0.3575
 4516SOL    MW417832   2.304   0.183   1.320  0.4009 -0.1264  0.0106
 4517SOL     OW17833   4.783   0.514   1.294 -0.1098  0.1855  0.1374
 4517SOL    HW217834   4.797   0.422   1.318  0.0445  0.1290 -0.1677
 4517SOL    HW317835   4.867   0.542   1.257 -0.0634  0.5321  0.4914
 4517SOL    MW417836   4.796   0.506   1.293 -0.0833  0.2238  0.1439
 4518SOL     OW17837   1.136   2.152   4.157 -0.1045 -0.3813  0.1094
 4518SOL    HW217838   1.151   2.211   4.230 -0.5176 -0.3191  0.1483
 4518SOL    HW317839   1.064   2.192   4.108 -0.3775 -0.8425  0.1285
 4518SOL    MW417840   1.128   2.165   4.160 -0.1950 -0.4339  0.1171
 4519SOL     OW17841   0.783   1.621   3.654 -0.0793  0.2202 -0.4924
 4519SOL    HW217842   0.786   1.691   3.589 -1.3777  0.7762  0.0051
 4519SOL    HW317843   0.718   1.559   3.620  1.3389 -0.9648 -1.1155
 4519SOL    MW417844   0.775   1.622   3.641 -0.0635  0.1372 -0.5090
 4520SOL     OW17845   5.614   2.697   2.449  0.2194 -0.1026 -0.1427
 4520SOL    HW217846   5.561   2.696   2.529  1.1268  0.5591  0.4937
 4520SOL    HW317847   5.661   2.781   2.453  1.4129 -0.7256 -0.6059
 4520SOL    MW417848   5.613   2.708   2.460  0.4966 -0.0975 -0.1199
 4521SOL     OW17849   3.934   4.124   5.712 -0.5929  0.3225 -0.0186
 4521SOL    HW217850   3.976   4.038   5.702  0.8114  1.0169 -0.4106
 4521SOL    HW317851   3.992   4.184   5.665 -1.9583  1.3770 -0.4116
 4521SOL    MW417852   3.947   4.121   5.705 -0.5878  0.5532 -0.1222
 4522SOL     OW17853   3.370   4.367   1.082 -0.3335  0.6383  0.5151
 4522SOL    HW217854   3.352   4.307   1.010  1.7720  0.9803 -0.3608
 4522SOL    HW317855   3.376   4.310   1.159 -1.7936  0.1785  0.3236
 4522SOL    MW417856   3.369   4.352   1.083 -0.2483  0.6228  0.3743
 4523SOL     OW17857   0.863   3.966   3.031 -0.1025  0.2632  0.9035
 4523SOL    HW217858   0.891   3.914   2.955  1.0946  0.2460  1.3313
 4523SOL    HW317859   0.846   4.053   2.995 -0.8905 -0.0980  0.3893
 4523SOL    MW417860   0.865   3.971   3.016 -0.0485  0.2132  0.8921
 4524SOL     OW17861   6.137   0.514   0.731  0.6236 -0.3135 -0.3590
 4524SOL    HW217862   6.213   0.484   0.682  1.0211  0.7079 -0.3988
 4524SOL    HW317863   6.079   0.553   0.666  0.4747 -0.2939 -0.2169
 4524SOL    MW417864   6.140   0.515   0.716  0.6564 -0.1761 -0.3455
 4525SOL     OW17865   1.899   0.058   4.674 -0.3604  0.5187 -0.1768
 4525SOL    HW217866   1.911   0.151   4.695  2.1108  0.4942 -1.0419
 4525SOL    HW317867   1.949   0.012   4.741 -2.0300 -0.2775  0.5763
 4525SOL    MW417868   1.907   0.064   4.685 -0.2547  0.4104 -0.1916
 4526SOL     OW17869   2.506   5.285   3.837 -0.2969  0.1679  0.0605
 4526SOL    HW217870   2.574   5.243   3.784 -1.5991  0.1860 -1.7164
 4526SOL    HW317871   2.549   5.304   3.920  2.2811  1.2957 -1.3892
 4526SOL    MW417872   2.521   5.282   3.841 -0.1286  0.3191 -0.3652
 4527SOL     OW17873   4.298   2.746   0.169  0.0963  0.4358 -0.1194
 4527SOL    HW217874   4.365   2.782   0.227  0.4462 -0.8956  0.3271
 4527SOL    HW317875   4.248   2.687   0.225  0.6467 -1.1461 -1.2394
 4527SOL    MW417876   4.300   2.743   0.184  0.2151  0.0514 -0.2083
 4528SOL     OW17877   1.413   5.243   2.663  0.0948 -0.4384 -0.3636
 4528SOL    HW217878   1.326   5.213   2.686 -1.6018  2.0825 -2.8443
 4528SOL    HW317879   1.441   5.297   2.736 -0.3923 -1.2315  0.4249
 4528SOL    MW417880   1.405   5.246   2.676 -0.1933 -0.2104 -0.5868
 4529SOL     OW17881   0.824   3.381   0.884  0.3070  0.3352  0.0276
 4529SOL    HW217882   0.820   3.292   0.919 -1.1982  1.0047  1.7252
 4529SOL    HW317883   0.837   3.370   0.790  2.2531 -1.6071  0.4618
 4529SOL    MW417884   0.825   3.368   0.876  0.3651  0.1673  0.3089
 4530SOL     OW17885   2.040   5.203   6.100  0.2951  0.1267 -0.3890
 4530SOL    HW217886   1.972   5.135   6.104  0.6066 -0.2418 -1.2689
 4530SOL    HW317887   1.991   5.284   6.087 -0.0220 -0.0364 -0.2478
 4530SOL    MW417888   2.025   5.205   6.099  0.2943  0.0566 -0.4865
 4531SOL     OW17889   0.681   6.275   4.278  0.6961  0.1547  0.2402
 4531SOL    HW217890   0.587   6.290   4.276  0.4302 -1.0712  1.6996
 4531SOL    HW317891   0.701   6.229   4.197 -0.1721 -0.6405  0.4716
 4531SOL    MW417892   0.672   6.271   4.267  0.5464 -0.1120  0.4633
 4532SOL     OW17893   2.056   0.569   5.923  0.1838 -0.3898 -0.4838
 4532SOL    HW217894   2.129   0.620   5.957 -1.3055  1.7711 -0.3309
 4532SOL    HW317895   2.045   0.600   5.833 -1.6471  0.6796  0.0659
 4532SOL    MW417896   2.064   0.580   5.916 -0.2543  0.0364 -0.3911
 4533SOL     OW17897   1.165   0.348   5.552  0.0721 -0.8565  0.1300
 4533SOL    HW217898   1.210   0.266   5.531 -1.0965 -1.5446  0.1783
 4533SOL    HW317899   1.136   0.382   5.467 -0.4374 -1.1077  0.1960
 4533SOL    MW417900   1.167   0.342   5.538 -0.1493 -0.9804  0.1451
 4534SOL     OW17901   2.939   5.885   0.308 -0.0243 -0.2418  0.2154
 4534SOL    HW217902   2.875   5.834   0.358  0.0362  0.2453  0.8029
 4534SOL    HW317903   3.007   5.822   0.283 -0.1714 -0.5335  0.5502
 4534SOL    MW417904   2.940   5.870   0.311 -0.0357 -0.2160  0.3371
 4535SOL     OW17905   4.340   4.848   1.168 -0.7760 -0.3939  0.2312
 4535SOL    HW217906   4.414   4.792   1.145 -0.0309 -0.3595  2.3233
 4535SOL    HW317907   4.266   4.810   1.121  0.2597 -1.3691 -0.6851
 4535SOL    MW417908   4.340   4.836   1.159 -0.5410 -0.5180  0.3863
 4536SOL     OW17909   4.291   0.413   5.691 -0.1068  0.6084  0.5373
 4536SOL    HW217910   4.231   0.359   5.743  0.2453 -0.8940 -0.5408
 4536SOL    HW317911   4.358   0.351   5.662  1.5657  2.1093  1.1016
 4536SOL    MW417912   4.292   0.397   5.694  0.1603  0.6082  0.4695
 4537SOL     OW17913   6.399   5.795   2.928  0.1869 -0.3726 -0.2412
 4537SOL    HW217914   6.398   5.844   3.010  0.1394  1.0277 -1.0544
 4537SOL    HW317915   6.432   5.857   2.863  0.3823 -1.5074 -1.2577
 4537SOL    MW417916   6.403   5.809   2.930  0.2064 -0.3376 -0.4826
 4538SOL     OW17917   2.855   6.300   1.343  0.6908  0.1335  0.1058
 4538SOL    HW217918   2.932   6.352   1.322 -0.2031  1.5480  0.1414
 4538SOL    HW317919   2.819   6.274   1.258  0.5943  0.4496  0.0456
 4538SOL    MW417920   2.860   6.304   1.329  0.5601  0.3619  0.1025
 4539SOL     OW17921   3.380   5.344   0.334 -0.0317 -0.9975 -0.1166
 4539SOL    HW217922   3.450   5.372   0.275  1.3269 -1.1263  1.3669
 4539SOL    HW317923   3.304   5.396   0.306  0.9704  0.0819 -0.9745
 4539SOL    MW417924   3.379   5.355   0.322  0.2798 -0.8721 -0.0341
 4540SOL     OW17925   4.271   6.313   0.973  0.2182 -0.5041  0.2120
 4540SOL    HW217926   4.282   6.219   0.957  2.3904 -0.0704 -1.2788
 4540SOL    HW317927   4.360   6.347   0.975 -0.5433  1.5885  0.3997
 4540SOL    MW417928   4.284   6.305   0.971  0.4043 -0.1708  0.0401
 4541SOL     OW17929   5.776   6.024   2.188 -0.2296  0.6317  0.7279
 4541SOL    HW217930   5.845   6.081   2.155 -0.2184  0.0192 -0.3640
 4541SOL    HW317931   5.778   5.948   2.130 -2.8160  1.2414 -0.3001
 4541SOL    MW417932   5.785   6.021   2.176 -0.5694  0.6313  0.4482
 4542SOL     OW17933   1.479   2.344   4.954  0.2837 -0.2454  0.5148
 4542SOL    HW217934   1.447   2.430   4.982  0.9516 -0.3454  1.6387
 4542SOL    HW317935   1.533   2.362   4.877 -1.1408  0.1018 -0.4484
 4542SOL    MW417936   1.482   2.357   4.947  0.1839 -0.2128  0.5360
 4543SOL     OW17937   4.782   5.865   3.860 -0.1590 -0.4562  0.2923
 4543SOL    HW217938   4.806   5.922   3.933 -0.9422  0.5936 -0.2408
 4543SOL    HW317939   4.816   5.910   3.783 -2.3383  0.2709 -0.3207
 4543SOL    MW417940   4.789   5.879   3.860 -0.5499 -0.2218  0.1411
 4544SOL     OW17941   2.376   1.581   3.020 -0.3592  0.3764  0.3997
 4544SOL    HW217942   2.383   1.573   2.925 -1.1231  0.8082  0.2925
 4544SOL    HW317943   2.281   1.580   3.036 -0.2089 -0.6877  1.2493
 4544SOL    MW417944   2.364   1.580   3.009 -0.4402  0.2930  0.4977
 4545SOL     OW17945   5.177   2.875   2.414  0.0605 -0.1913  0.4606
 4545SOL    HW217946   5.179   2.854   2.507  1.5504  0.1298  0.5190
 4545SOL    HW317947   5.234   2.810   2.373 -1.4582 -1.0428 -0.4080
 4545SOL    MW417948   5.185   2.864   2.421  0.0567 -0.2613  0.3537
 4546SOL     OW17949   2.905   5.168   4.548 -0.3231 -0.3362 -0.6003
 4546SOL    HW217950   2.986   5.145   4.503 -0.6871  1.2928 -2.2249
 4546SOL    HW317951   2.867   5.237   4.494 -2.1740 -0.1867  0.8051
 4546SOL    MW417952   2.911   5.174   4.535 -0.6153 -0.1016 -0.6292
 4547SOL     OW17953   5.939   4.915   5.205  0.0391 -0.2265 -0.4391
 4547SOL    HW217954   5.974   4.986   5.151  0.6266 -0.2432 -0.0839
 4547SOL    HW317955   5.896   4.960   5.278  1.6236 -0.2334  0.5443
 4547SOL    MW417956   5.938   4.930   5.207  0.3256 -0.2296 -0.2625
 4548SOL     OW17957   4.263   1.825   4.852 -0.0020  0.0774 -0.0746
 4548SOL    HW217958   4.212   1.833   4.933  0.5848  1.5028  0.1719
 4548SOL    HW317959   4.261   1.731   4.832  0.3312 -0.3875  1.9013
 4548SOL    MW417960   4.256   1.814   4.860  0.1194  0.2041  0.2186
 4549SOL     OW17961   4.484   6.316   2.378  0.2347 -0.2777 -0.1471
 4549SOL    HW217962   4.576   6.296   2.394  0.2337 -0.9410 -0.9432
 4549SOL    HW317963   4.483   6.410   2.358  0.8982 -0.4883 -1.2553
 4549SOL    MW417964   4.496   6.326   2.378  0.3221 -0.3930 -0.3983
 4550SOL     OW17965   3.688   1.759   5.931 -0.2296 -0.0657  0.0791
 4550SOL    HW217966   3.608   1.792   5.891 -1.2118  1.6714  3.1648
 4550SOL    HW317967   3.756   1.820   5.905 -1.0298  1.5558  1.5801
 4550SOL    MW417968   3.687   1.771   5.922 -0.4647  0.3774  0.6842
 4551SOL     OW17969   5.377   6.259   6.194 -0.2843 -0.6275 -0.2611
 4551SOL    HW217970   5.367   6.259   6.289 -0.0130  0.7545 -0.2179
 4551SOL    HW317971   5.453   6.315   6.177 -1.2584  0.4175 -1.3570
 4551SOL    MW417972   5.386   6.266   6.204 -0.3770 -0.3073 -0.4000
 4552SOL     OW17973   3.301   3.330   0.256 -0.2506  0.4284 -0.6904
 4552SOL    HW217974   3.360   3.405   0.248  0.2046  0.2711  0.8754
 4552SOL    HW317975   3.213   3.367   0.242 -0.0541  1.3085  0.2514
 4552SOL    MW417976   3.297   3.345   0.253 -0.1646  0.5238 -0.3596
 4553SOL     OW17977   3.620   0.887   2.937 -0.4590  0.5550 -0.2344
 4553SOL    HW217978   3.577   0.960   2.981 -1.6784 -1.1459  1.5519
 4553SOL    HW317979   3.656   0.834   3.008 -0.5121 -1.1429 -1.4125
 4553SOL    MW417980   3.619   0.890   2.952 -0.6269  0.1066 -0.1542
 4554SOL     OW17981   3.012   2.739   4.584  0.1962 -0.0205 -0.1052
 4554SOL    HW217982   3.014   2.804   4.514 -1.1815 -1.2903 -1.3988
 4554SOL    HW317983   3.018   2.655   4.538 -1.7929 -0.9312  1.1977
 4554SOL    MW417984   3.013   2.736   4.568 -0.2480 -0.3082 -0.1040
 4555SOL     OW17985   3.235   0.655   0.849 -0.3374  0.5039  0.3059
 4555SOL    HW217986   3.236   0.749   0.830  1.5213  0.7251  1.2722
 4555SOL    HW317987   3.244   0.614   0.763 -0.3602  1.2366 -0.0564
 4555SOL    MW417988   3.236   0.662   0.835 -0.0952  0.6297  0.3856
 4556SOL     OW17989   6.205   4.509   5.835  0.7064  0.4111 -0.1163
 4556SOL    HW217990   6.285   4.475   5.875  0.1202 -0.1901  0.5804
 4556SOL    HW317991   6.176   4.577   5.895  0.1986 -0.0162  0.1346
 4556SOL    MW417992   6.211   4.513   5.848  0.5620  0.2754  0.0087
 4557SOL     OW17993   2.034   0.299   2.338 -0.2496 -0.0261  0.6159
 4557SOL    HW217994   1.994   0.213   2.326  1.1703 -0.4687 -1.3232
 4557SOL    HW317995   1.975   0.359   2.294  0.0614 -0.3869 -0.3264
 4557SOL    MW417996   2.021   0.295   2.331 -0.0212 -0.1321  0.2358
 4558SOL     OW17997   1.996   3.582   2.235  0.0649  0.0588  0.0174
 4558SOL    HW217998   1.986   3.665   2.189  0.4324  1.0083  1.5913
 4558SOL    HW317999   1.988   3.516   2.166  0.3743  1.4026 -1.3682
 4558SOL    MW418000   1.994   3.584   2.220  0.1543  0.3614  0.0423
 4559SOL     OW18001   4.034   4.694   3.911  0.3414  0.2716 -0.1440
 4559SOL    HW218002   4.095   4.637   3.957 -0.4770  0.5493  1.3477
 4559SOL    HW318003   3.977   4.634   3.863 -1.4347 -0.3706  2.5511
 4559SOL    MW418004   4.034   4.679   3.910 -0.0009  0.2235  0.4084
 4560SOL     OW18005   4.202   5.209   6.325 -0.5615  0.3071  0.1113
 4560SOL    HW218006   4.159   5.123   6.325 -0.6016  0.3229  0.5069
 4560SOL    HW318007   4.163   5.256   6.252 -1.4323  0.4196  0.6330
 4560SOL    MW418008   4.191   5.204   6.315 -0.6817  0.3240  0.2323
 4561SOL     OW18009   1.060   1.968   0.888  0.2566  0.4206 -0.4799
 4561SOL    HW218010   1.029   1.924   0.809  0.2535 -0.1170 -0.1919
 4561SOL    HW318011   1.121   1.905   0.927 -1.0753 -0.1119  0.8657
 4561SOL    MW418012   1.064   1.954   0.883  0.0805  0.2794 -0.2643
 4562SOL     OW18013   4.276   4.478   2.821 -0.1784  0.7858 -0.0896
 4562SOL    HW218014   4.355   4.425   2.827  1.5447  3.2611  0.9843
 4562SOL    HW318015   4.223   4.450   2.896 -0.1017 -0.5021 -0.4891
 4562SOL    MW418016   4.280   4.467   2.832  0.0591  0.9425 -0.0006
 4563SOL     OW18017   5.023   4.943   3.728 -0.6433  0.2107 -0.4056
 4563SOL    HW218018   5.108   4.915   3.762 -0.6466  0.7538  0.0560
 4563SOL    HW318019   4.972   4.966   3.805 -0.5144  1.8550 -0.7730
 4563SOL    MW418020   5.028   4.942   3.742 -0.6268  0.4993 -0.3932
 4564SOL     OW18021   5.564   2.086   3.430 -0.2766 -0.3520 -0.0174
 4564SOL    HW218022   5.558   2.026   3.504 -0.3524 -0.9899 -0.5378
 4564SOL    HW318023   5.644   2.060   3.384 -0.3447 -0.0990 -0.2814
 4564SOL    MW418024   5.574   2.075   3.434 -0.2956 -0.4028 -0.1209
 4565SOL     OW18025   0.066   5.208   4.950  0.1027 -0.1549  0.9324
 4565SOL    HW218026   0.159   5.189   4.936 -0.2358 -1.2219 -0.0373
 4565SOL    HW318027   0.065   5.296   4.987  1.6365 -1.1140  3.5386
 4565SOL    MW418028   0.078   5.217   4.953  0.2604 -0.4222  1.1483
 4566SOL     OW18029   5.236   3.119   3.350 -0.0672 -0.3863  0.2715
 4566SOL    HW218030   5.307   3.065   3.384  1.0366  0.7789 -0.0765
 4566SOL    HW318031   5.253   3.206   3.385 -0.3345  0.2920 -1.2070
 4566SOL    MW418032   5.248   3.123   3.359  0.0431 -0.1431  0.0305
 4567SOL     OW18033   2.088   0.059   6.334  0.1647  0.6970 -0.1796
 4567SOL    HW218034   2.136   0.034   6.413  2.2323  3.4684 -0.4450
 4567SOL    HW318035   2.013   0.109   6.366  0.1343  0.5055  0.0525
 4567SOL    MW418036   2.084   0.062   6.349  0.4335  1.0374 -0.1840
 4568SOL     OW18037   5.642   0.092   3.584  0.4115 -0.4869 -0.1336
 4568SOL    HW218038   5.605   0.176   3.609  1.9198  0.1050  0.2393
 4568SOL    HW318039   5.637   0.038   3.663  0.2248 -0.4543 -0.1237
 4568SOL    MW418040   5.637   0.096   3.597  0.5858 -0.4045 -0.0831
 4569SOL     OW18041   0.167   1.381   1.441 -0.2289  0.2202 -0.3382
 4569SOL    HW218042   0.110   1.405   1.368 -0.1738 -0.5688 -0.6480
 4569SOL    HW318043   0.208   1.464   1.467 -2.7722  1.1497  1.0256
 4569SOL    MW418044   0.165   1.395   1.435 -0.5572  0.2387 -0.1992
 4570SOL     OW18045   1.699   4.580   0.926  0.4130 -0.3323  0.2286
 4570SOL    HW218046   1.642   4.654   0.904  0.6312 -0.1648  0.2203
 4570SOL    HW318047   1.681   4.563   1.018  0.0100 -0.5818  0.1061
 4570SOL    MW418048   1.689   4.587   0.935  0.3886 -0.3431  0.2114
 4571SOL     OW18049   0.459   1.407   0.650 -0.0508  0.7077 -0.1894
 4571SOL    HW218050   0.489   1.400   0.559  1.0071 -1.0505  0.2501
 4571SOL    HW318051   0.518   1.472   0.690  1.1778 -0.3934 -0.1417
 4571SOL    MW418052   0.471   1.415   0.643  0.2508  0.3304 -0.1251
 4572SOL     OW18053   5.466   1.555   2.897  0.1295  0.2581 -0.0884
 4572SOL    HW218054   5.469   1.634   2.951  3.0947  1.4533 -1.7984
 4572SOL    HW318055   5.407   1.497   2.945  0.6943  2.0901  3.1795
 4572SOL    MW418056   5.458   1.558   2.911  0.5953  0.6575  0.1171
 4573SOL     OW18057   2.068   1.702   2.536 -0.2911 -0.2865 -0.3366
 4573SOL    HW218058   1.977   1.713   2.564 -0.1123 -0.2429  0.2534
 4573SOL    HW318059   2.063   1.651   2.456 -0.7471 -1.8651  0.6535
 4573SOL    MW418060   2.055   1.697   2.529 -0.3277 -0.4890 -0.1282
 4574SOL     OW18061   0.120   3.343   1.697  0.3041 -0.0458  0.6148
 4574SOL    HW218062   0.139   3.374   1.786  0.2945 -0.7913  0.8839
 4574SOL    HW318063   0.166   3.260   1.691 -1.1943 -0.9091  0.5700
 4574SOL    MW418064   0.129   3.336   1.708  0.1051 -0.2581  0.6444
 4575SOL     OW18065   0.191   5.235   6.387  0.3448  0.2911 -0.0977
 4575SOL    HW218066   0.152   5.250   6.473  0.5900  0.6604 -0.0504
 4575SOL    HW318067   0.132   5.278   6.326  0.1676  0.0238 -0.1178
 4575SOL    MW418068   0.178   5.242   6.391  0.3538  0.3045 -0.0941
 4576SOL     OW18069   0.425   4.629   0.142 -0.3164 -0.6702  0.3025
 4576SOL    HW218070   0.357   4.597   0.082 -0.6404  1.3780 -0.4978
 4576SOL    HW318071   0.501   4.643   0.087  0.3176 -1.5266  0.9351
 4576SOL    MW418072   0.426   4.627   0.127 -0.2755 -0.5129  0.2804
 4577SOL     OW18073   5.954   1.083   2.299 -0.2625  0.5695 -0.0189
 4577SOL    HW218074   6.002   1.005   2.270 -1.7522  0.6010 -3.0159
 4577SOL    HW318075   5.983   1.152   2.239 -0.2660  1.9267  1.4733
 4577SOL    MW418076   5.964   1.082   2.287 -0.4595  0.7528 -0.2174
 4578SOL     OW18077   3.487   4.406   5.784  0.0783 -0.1897  0.1489
 4578SOL    HW218078   3.471   4.338   5.719  0.5016 -2.3646  2.1643
 4578SOL    HW318079   3.563   4.454   5.751  0.5173 -1.4686 -0.7646
 4578SOL    MW418080   3.495   4.404   5.771  0.1921 -0.6454  0.2943
 4579SOL     OW18081   0.454   3.668   2.074 -0.3831 -0.1611 -0.4227
 4579SOL    HW218082   0.433   3.601   2.008 -0.6696  2.0269 -2.7054
 4579SOL    HW318083   0.371   3.714   2.088  0.1854  0.8099 -0.1993
 4579SOL    MW418084   0.440   3.665   2.067 -0.3459  0.2557 -0.6944
 4580SOL     OW18085   2.125   3.765   0.185  0.3108 -0.1156 -0.0893
 4580SOL    HW218086   2.214   3.732   0.172  0.6407  1.2871 -1.7108
 4580SOL    HW318087   2.069   3.701   0.141  0.4956 -0.9015  0.7711
 4580SOL    MW418088   2.129   3.752   0.178  0.3787 -0.0342 -0.1897
 4581SOL     OW18089   1.338   1.129   0.472  0.1435 -0.0791 -0.1871
 4581SOL    HW218090   1.275   1.064   0.442  0.3622 -1.3111  1.8098
 4581SOL    HW318091   1.414   1.117   0.415 -0.3440 -0.6214 -0.7336
 4581SOL    MW418092   1.340   1.118   0.460  0.1080 -0.3132  0.0043
 4582SOL     OW18093   2.436   0.837   3.706  0.2231 -0.1592  0.1246
 4582SOL    HW218094   2.434   0.890   3.625 -0.8170 -1.4526 -0.7340
 4582SOL    HW318095   2.344   0.823   3.728  0.4553  1.2906  2.3502
 4582SOL    MW418096   2.424   0.842   3.698  0.1165 -0.1386  0.3050
 4583SOL     OW18097   2.837   4.671   3.017 -0.0021  0.2066 -0.1361
 4583SOL    HW218098   2.867   4.580   3.022 -0.0764  0.1567 -0.5574
 4583SOL    HW318099   2.906   4.721   3.061  1.4781  0.2562 -2.3348
 4583SOL    MW418100   2.850   4.666   3.024  0.1834  0.2066 -0.4818
 4584SOL     OW18101   6.096   5.336   2.608  0.0836 -0.0962 -0.3779
 4584SOL    HW218102   6.014   5.300   2.641 -0.4221 -1.5460 -2.9760
 4584SOL    HW318103   6.160   5.267   2.622  0.3481  0.1183 -0.5125
 4584SOL    MW418104   6.094   5.322   2.614  0.0518 -0.2592 -0.7384
 4585SOL     OW18105   1.136   0.952   0.370 -0.4008  0.0890 -0.6611
 4585SOL    HW218106   1.119   0.880   0.430 -0.9874  1.2325  0.5928
 4585SOL    HW318107   1.063   1.013   0.383  0.9419  1.7221 -0.4013
 4585SOL    MW418108   1.124   0.951   0.380 -0.3010  0.4554 -0.4614
 4586SOL     OW18109   1.882   2.884   2.272 -0.2463  0.4643 -0.9557
 4586SOL    HW218110   1.854   2.971   2.301  1.4562  0.5866  0.5005
 4586SOL    HW318111   1.938   2.902   2.197 -0.8281  0.5177 -1.3850
 4586SOL    MW418112   1.886   2.898   2.266 -0.0985  0.4875 -0.8202
 4587SOL     OW18113   1.243   2.495   4.119 -0.4933  0.1890 -0.1040
 4587SOL    HW218114   1.264   2.455   4.203 -2.7417  0.5123  0.7008
 4587SOL    HW318115   1.266   2.429   4.054 -2.4848 -1.8254  1.0676
 4587SOL    MW418116   1.249   2.481   4.122 -1.0527 -0.0341  0.1567
 4588SOL     OW18117   2.997   4.852   3.159  0.6170 -0.6006 -0.6983
 4588SOL    HW218118   3.084   4.827   3.188  0.4127 -1.2611 -0.6446
 4588SOL    HW318119   3.007   4.942   3.127  0.8174  0.2218  1.5242
 4588SOL    MW418120   3.010   4.861   3.158  0.6165 -0.5792 -0.3980
 4589SOL     OW18121   2.577   5.583   1.195 -0.1321 -0.2558 -0.6050
 4589SOL    HW218122   2.661   5.622   1.170  0.3020 -1.4574 -1.1431
 4589SOL    HW318123   2.515   5.656   1.196  1.3366  1.0804  2.0429
 4589SOL    MW418124   2.580   5.598   1.191  0.1189 -0.2380 -0.3267
 4590SOL     OW18125   3.152   4.979   1.495  0.3376 -0.5261 -0.2499
 4590SOL    HW218126   3.247   4.987   1.486  0.2869 -0.3508 -0.6252
 4590SOL    HW318127   3.125   4.928   1.419 -0.1343  1.2713 -1.3376
 4590SOL    MW418128   3.161   4.973   1.484  0.2687 -0.2658 -0.4429
 4591SOL     OW18129   1.345   1.274   3.973  0.1664  0.5471  0.5289
 4591SOL    HW218130   1.391   1.298   3.892 -0.6894  1.0842  0.1870
 4591SOL    HW318131   1.272   1.336   3.978  0.0726  0.3632  1.5964
 4591SOL    MW418132   1.341   1.286   3.963  0.0411  0.5937  0.6246
 4592SOL     OW18133   2.080   2.503   3.568  0.2526  0.0866  0.5767
 4592SOL    HW218134   2.100   2.596   3.582 -1.2517  0.7386 -1.2212
 4592SOL    HW318135   2.158   2.469   3.523  0.6105  0.5901  0.7958
 4592SOL    MW418136   2.093   2.511   3.564  0.1013  0.2390  0.3684
 4593SOL     OW18137   2.185   4.890   6.228  0.0433  0.5053 -0.4368
 4593SOL    HW218138   2.116   4.936   6.276 -0.7998 -1.2662  0.1348
 4593SOL    HW318139   2.144   4.861   6.147  0.5990  0.8696 -0.8573
 4593SOL    MW418140   2.171   4.892   6.224  0.0054  0.3196 -0.4169
 4594SOL     OW18141   0.537   1.565   2.980  0.7173 -0.2842 -0.1646
 4594SOL    HW218142   0.458   1.582   3.031  2.1731 -2.1230  3.0203
 4594SOL    HW318143   0.530   1.472   2.955  1.3920 -0.1913 -0.7242
 4594SOL    MW418144   0.526   1.555   2.984  0.9984 -0.5145  0.1818
 4595SOL     OW18145   2.004   1.302   3.639  0.5059 -0.0701 -0.0231
 4595SOL    HW218146   1.968   1.299   3.551 -1.2377 -1.3178  0.6794
 4595SOL    HW318147   1.932   1.276   3.696  1.9114 -0.4627  1.6789
 4595SOL    MW418148   1.990   1.298   3.635  0.4613 -0.2865  0.2941
 4596SOL     OW18149   2.291   4.347   2.053  0.5183  0.1195 -0.0411
 4596SOL    HW218150   2.341   4.268   2.072 -0.7926 -0.8628 -0.5718
 4596SOL    HW318151   2.214   4.317   2.006  0.5731  1.8503 -1.3351
 4596SOL    MW418152   2.288   4.333   2.049  0.3526  0.2182 -0.2818
 4597SOL     OW18153   5.746   4.106   1.060 -0.2425  0.0128  0.2857
 4597SOL    HW218154   5.713   4.023   1.025 -2.0738  0.7120  0.2017
 4597SOL    HW318155   5.835   4.113   1.027  0.7898 -2.9096  2.0532
 4597SOL    MW418156   5.753   4.096   1.051 -0.3479 -0.2805  0.5078
 4598SOL     OW18157   4.198   1.345   3.846  0.0036 -0.3896  0.1698
 4598SOL    HW218158   4.180   1.421   3.901  0.1085 -0.8631  0.8708
 4598SOL    HW318159   4.129   1.283   3.869  0.0189 -0.5694 -0.2745
 4598SOL    MW418160   4.186   1.347   3.856  0.0195 -0.4758  0.2037
 4599SOL     OW18161   5.832   6.264   3.825  0.1660  0.2465  0.2397
 4599SOL    HW218162   5.898   6.227   3.883  1.2865 -1.0693 -1.7528
 4599SOL    HW318163   5.880   6.324   3.768 -0.2374 -0.8892 -1.3775
 4599SOL    MW418164   5.847   6.267   3.825  0.2606 -0.0770 -0.2365
 4600SOL     OW18165   3.729   6.193   3.831  0.1095  0.2330 -0.3219
 4600SOL    HW218166   3.710   6.271   3.881  0.4992 -0.5429  1.0821
 4600SOL    HW318167   3.796   6.220   3.769  0.1368  1.0375  0.0456
 4600SOL    MW418168   3.735   6.206   3.829  0.1645  0.2368 -0.0882
 4601SOL     OW18169   1.753   0.220   1.546 -0.3834 -0.9954  0.1091
 4601SOL    HW218170   1.745   0.315   1.556 -2.3058 -0.9613 -1.2086
 4601SOL    HW318171   1.813   0.194   1.616 -0.9715  0.9917  1.4435
 4601SOL    MW418172   1.760   0.229   1.557 -0.7146 -0.7287  0.1113
 4602SOL     OW18173   5.647   1.240   3.401  0.8458  0.4952  0.3101
 4602SOL    HW218174   5.586   1.168   3.414 -0.1266  1.4671  1.3852
 4602SOL    HW318175   5.614   1.310   3.458  3.5251  0.7419  1.6995
 4602SOL    MW418176   5.635   1.240   3.410  1.0710  0.6560  0.6353
 4603SOL     OW18177   3.695   5.125   0.398 -0.3797 -0.4017  0.1293
 4603SOL    HW218178   3.686   5.180   0.320 -0.9465 -0.7470 -0.0550
 4603SOL    HW318179   3.732   5.044   0.365 -0.9016 -0.6586  0.1667
 4603SOL    MW418180   3.698   5.122   0.383 -0.5233 -0.4812  0.1099
 4604SOL     OW18181   3.075   4.696   6.329 -0.0706  0.1896  0.2662
 4604SOL    HW218182   3.159   4.727   6.362 -0.5549 -0.3915  2.1657
 4604SOL    HW318183   3.037   4.646   6.402 -2.7071  1.6508  0.0440
 4604SOL    MW418184   3.081   4.693   6.343 -0.4823  0.3057  0.4875
 4605SOL     OW18185   2.398   2.615   4.145  0.0214 -0.1742 -0.3294
 4605SOL    HW218186   2.389   2.553   4.217  1.5772 -0.8224 -0.6660
 4605SOL    HW318187   2.391   2.701   4.186 -0.2299 -0.5484  0.4178
 4605SOL    MW418188   2.396   2.618   4.160  0.1935 -0.3091 -0.2752
 4606SOL     OW18189   4.189   3.007   0.771  0.0652  0.1582 -0.6871
 4606SOL    HW218190   4.191   2.964   0.686  0.2585  0.3940 -0.8041
 4606SOL    HW318191   4.273   3.053   0.777  0.4638 -0.6469  0.0448
 4606SOL    MW418192   4.201   3.008   0.761  0.1433  0.0831 -0.6059
 4607SOL     OW18193   2.988   5.800   1.622  0.2043 -0.3824 -0.4075
 4607SOL    HW218194   2.987   5.834   1.532  0.1358 -0.6974 -0.5246
 4607SOL    HW318195   2.919   5.734   1.623 -1.9490  1.7300  0.6849
 4607SOL    MW418196   2.979   5.796   1.610 -0.0888 -0.1453 -0.2788
 4608SOL     OW18197   0.630   4.742   5.211 -0.4287  0.2904  0.4662
 4608SOL    HW218198   0.543   4.774   5.235 -0.9359  1.2642 -2.3093
 4608SOL    HW318199   0.688   4.817   5.224 -0.6324  0.6903 -0.7924
 4608SOL    MW418200   0.626   4.756   5.216 -0.5225  0.4716 -0.0660
 4609SOL     OW18201   4.367   0.894   4.385  0.2542  0.7884  0.1265
 4609SOL    HW218202   4.346   0.847   4.466  1.3259 -1.2380 -0.6975
 4609SOL    HW318203   4.401   0.978   4.415 -3.2294  1.8459  1.6118
 4609SOL    MW418204   4.369   0.899   4.400 -0.0640  0.6606  0.2138
 4610SOL     OW18205   1.179   4.795   3.261  0.6120 -0.3802  0.4573
 4610SOL    HW218206   1.165   4.732   3.190 -0.7258 -0.6937  0.9694
 4610SOL    HW318207   1.235   4.749   3.323 -0.6583 -1.2248  1.0043
 4610SOL    MW418208   1.185   4.780   3.260  0.2679 -0.5330  0.5970
 4611SOL     OW18209   5.746   6.384   2.647  0.5357 -0.1928  0.0467
 4611SOL    HW218210   5.679   6.452   2.638  1.2385  0.6282  0.8667
 4611SOL    HW318211   5.809   6.420   2.709  1.7631 -0.9264 -0.7331
 4611SOL    MW418212   5.745   6.398   2.654  0.7903 -0.1813  0.0520
 4612SOL     OW18213   1.842   1.425   5.819 -0.4969  0.2565  0.2087
 4612SOL    HW218214   1.915   1.390   5.767 -0.5210 -0.0265  0.3695
 4612SOL    HW318215   1.769   1.431   5.757 -0.7999 -0.9786  0.4330
 4612SOL    MW418216   1.842   1.421   5.804 -0.5400  0.0562  0.2595
 4613SOL     OW18217   3.347   4.117   0.136  0.1114  0.3689  0.1861
 4613SOL    HW218218   3.405   4.076   0.200  0.4961  1.2329  0.4134
 4613SOL    HW318219   3.294   4.178   0.187 -2.9190 -2.2140  0.4445
 4613SOL    MW418220   3.348   4.120   0.151 -0.2377  0.1421  0.2502
 4614SOL     OW18221   1.733   4.322   2.371  0.4090  0.2991  0.5969
 4614SOL    HW218222   1.660   4.265   2.398 -0.1167  0.3557 -0.6103
 4614SOL    HW318223   1.717   4.337   2.278  1.1559  1.5325  0.6514
 4614SOL    MW418224   1.721   4.316   2.362  0.4382  0.4693  0.4448
 4615SOL     OW18225   0.960   1.990   3.259 -0.0801  0.7840  0.1092
 4615SOL    HW218226   1.019   2.030   3.323 -0.1570  0.6126  0.2892
 4615SOL    HW318227   0.881   2.043   3.262 -0.1775  0.6267  0.3386
 4615SOL    MW418228   0.957   2.002   3.268 -0.1031  0.7407  0.1632
 4616SOL     OW18229   1.251   4.553   0.401  0.3732 -0.1837 -0.4204
 4616SOL    HW218230   1.280   4.631   0.449 -0.1432  0.0470 -0.4775
 4616SOL    HW318231   1.234   4.584   0.312 -1.9242  0.1219  0.0805
 4616SOL    MW418232   1.253   4.567   0.396  0.0020 -0.1129 -0.3618
 4617SOL     OW18233   1.675   5.535   5.004 -0.2619  0.6182 -0.3749
 4617SOL    HW218234   1.694   5.613   5.057 -1.4537  1.3189 -0.9429
 4617SOL    HW318235   1.652   5.468   5.068 -2.6149  1.7151  0.0191
 4617SOL    MW418236   1.675   5.537   5.019 -0.7296  0.8553 -0.3979
 4618SOL     OW18237   4.853   5.374   5.151 -0.4027  0.4592 -0.0083
 4618SOL    HW218238   4.893   5.442   5.097 -0.5178 -0.8243 -1.7830
 4618SOL    HW318239   4.925   5.314   5.171 -0.8510 -0.4147 -0.9217
 4618SOL    MW418240   4.868   5.375   5.147 -0.4770  0.1746 -0.3630
 4619SOL     OW18241   2.261   1.350   0.558 -0.2111 -0.5915 -0.2427
 4619SOL    HW218242   2.290   1.323   0.471 -0.1850 -0.9302 -0.1284
 4619SOL    HW318243   2.187   1.293   0.578 -0.6465 -0.0676 -0.3223
 4619SOL    MW418244   2.255   1.339   0.549 -0.2651 -0.5671 -0.2381
 4620SOL     OW18245   1.969   0.228   4.946  0.4360  0.1730  0.1723
 4620SOL    HW218246   2.019   0.253   4.868 -0.9030  0.0605 -0.7746
 4620SOL    HW318247   1.896   0.290   4.947  0.6021  0.3647  1.5399
 4620SOL    MW418248   1.966   0.239   4.936  0.2813  0.1835  0.2278
 4621SOL     OW18249   5.838   2.811   0.903  0.0899  0.4346 -0.2087
 4621SOL    HW218250   5.881   2.749   0.844 -0.8947 -0.7968  0.3162
 4621SOL    HW318251   5.885   2.893   0.891  0.8887 -0.1990 -1.5567
 4621SOL    MW418252   5.850   2.814   0.894  0.0654  0.1885 -0.3173
 4622SOL     OW18253   3.381   3.862   5.479  0.1179 -0.3840  0.8372
 4622SOL    HW218254   3.468   3.858   5.440 -0.8325  1.5874 -1.8193
 4622SOL    HW318255   3.393   3.828   5.568  3.2577 -1.5374  0.1105
 4622SOL    MW418256   3.394   3.857   5.486  0.4067 -0.2761  0.3908
 4623SOL     OW18257   3.663   3.691   2.178  0.9152  0.0185 -0.6019
 4623SOL    HW218258   3.578   3.662   2.210  0.8999  2.2244  1.6123
 4623SOL    HW318259   3.724   3.624   2.207  0.2916 -0.1756  0.2890
 4623SOL    MW418260   3.660   3.678   2.186  0.8309  0.2839 -0.1922
 4624SOL     OW18261   5.057   0.232   4.068  0.2337  0.0369 -0.2782
 4624SOL    HW218262   5.077   0.290   4.141  0.0456  0.0261 -0.2175
 4624SOL    HW318263   5.088   0.146   4.096  1.2054  0.2503 -0.6756
 4624SOL    MW418264   5.064   0.228   4.081  0.3371  0.0636 -0.3226
 4625SOL     OW18265   6.296   3.093   5.791  0.5143 -0.0157  0.4995
 4625SOL    HW218266   6.227   3.108   5.856 -0.9539 -1.2069 -0.6909
 4625SOL    HW318267   6.283   3.003   5.763 -0.0166  0.9053 -2.6169
 4625SOL    MW418268   6.285   3.083   5.796  0.2506 -0.0513 -0.0687
 4626SOL     OW18269   1.447   3.609   5.211  0.3184  0.5743  0.0763
 4626SOL    HW218270   1.420   3.590   5.121  1.2020  0.5344 -0.1853
 4626SOL    HW318271   1.381   3.671   5.243 -2.1469 -2.1097  0.6570
 4626SOL    MW418272   1.435   3.615   5.203  0.1097  0.2149  0.1184
 4627SOL     OW18273   2.588   3.452   0.045 -0.8210 -0.2595  0.2294
 4627SOL    HW218274   2.671   3.406   0.027 -0.7769 -0.1769  0.2226
 4627SOL    HW318275   2.546   3.399   0.113 -0.0677  0.5303  1.3328
 4627SOL    MW418276   2.594   3.439   0.051 -0.7158 -0.1444  0.3741
 4628SOL     OW18277   5.835   5.873   4.281  0.1460 -0.4411 -0.5352
 4628SOL    HW218278   5.786   5.833   4.209 -0.0201 -1.3026  0.0408
 4628SOL    HW318279   5.801   5.829   4.359  0.3448  0.4578  0.0669
 4628SOL    MW418280   5.824   5.862   4.282  0.1503 -0.4361 -0.3798
 4629SOL     OW18281   2.244   2.572   1.466  0.9843 -0.1480 -0.1428
 4629SOL    HW218282   2.332   2.593   1.497  0.9903  0.0435 -0.2908
 4629SOL    HW318283   2.186   2.632   1.514  0.9411 -0.2255 -0.0976
 4629SOL    MW418284   2.248   2.582   1.476  0.9794 -0.1330 -0.1564
 4630SOL     OW18285   5.365   0.069   1.897  0.6020 -0.0499  0.1409
 4630SOL    HW218286   5.322   0.021   1.826 -1.2679  2.7452 -0.8246
 4630SOL    HW318287   5.454   0.036   1.898  0.4791 -0.7869 -3.0271
 4630SOL    MW418288   5.371   0.059   1.888  0.3390  0.2216 -0.4045
 4631SOL     OW18289   0.509   1.076   2.165  0.7147 -0.1061  0.1908
 4631SOL    HW218290   0.536   1.108   2.251  0.3832  1.2346 -0.1809
 4631SOL    HW318291   0.416   1.053   2.177  0.5929  0.3461  0.1229
 4631SOL    MW418292   0.500   1.077   2.178  0.6549  0.1305  0.1328
 4632SOL     OW18293   6.206   1.528   5.692  0.2729  0.4432 -0.9070
 4632SOL    HW218294   6.209   1.439   5.725 -0.7802  0.8268  0.2952
 4632SOL    HW318295   6.128   1.531   5.637  0.3001  0.6201 -0.9369
 4632SOL    MW418296   6.196   1.517   5.689  0.1375  0.5171 -0.7523
 4633SOL     OW18297   2.429   5.088   2.124  0.0584 -0.2535 -0.0522
 4633SOL    HW218298   2.469   5.175   2.116 -0.0439 -0.2872 -1.1505
 4633SOL    HW318299   2.484   5.042   2.188  1.6411 -0.2033 -1.2867
 4633SOL    MW418300   2.442   5.094   2.131  0.2537 -0.2513 -0.3600
 4634SOL     OW18301   5.967   2.494   0.298 -0.7852  0.1983 -0.2267
 4634SOL    HW218302   5.925   2.481   0.383  0.1759 -1.5700  0.0201
 4634SOL    HW318303   6.060   2.480   0.315 -0.4398  1.0870 -1.3333
 4634SOL    MW418304   5.974   2.490   0.311 -0.6128  0.0823 -0.3401
 4635SOL     OW18305   1.605   4.867   1.284 -0.8394  0.0898 -0.2143
 4635SOL    HW218306   1.576   4.956   1.264 -0.0802  0.6068  0.8778
 4635SOL    HW318307   1.598   4.861   1.380 -1.6207 -1.3003 -0.3215
 4635SOL    MW418308   1.600   4.878   1.294 -0.8423 -0.0254 -0.0844
 4636SOL     OW18309   0.469   3.751   6.378 -0.2375 -0.0145  0.1624
 4636SOL    HW218310   0.501   3.749   6.468 -0.0900  0.6960  0.1266
 4636SOL    HW318311   0.477   3.660   6.349 -0.2827 -0.2505  0.8594
 4636SOL    MW418312   0.475   3.739   6.386 -0.2240  0.0481  0.2496
 4637SOL     OW18313   1.554   0.599   5.934 -0.5491  0.2426  1.2221
 4637SOL    HW218314   1.542   0.538   5.861 -0.1003  1.3452  0.2039
 4637SOL    HW318315   1.624   0.559   5.986  0.1228  0.1292  0.2741
 4637SOL    MW418316   1.562   0.586   5.931 -0.4012  0.3731  0.9627
 4638SOL     OW18317   3.192   3.289   0.552  0.2779  0.5837  0.0716
 4638SOL    HW218318   3.221   3.276   0.462  0.1112  0.0059  0.0933
 4638SOL    HW318319   3.108   3.334   0.545 -0.5034 -0.8479 -0.1366
 4638SOL    MW418320   3.185   3.293   0.539  0.1528  0.3186  0.0470
 4639SOL     OW18321   6.411   5.029   0.935 -0.3448 -0.1855  0.5931
 4639SOL    HW218322   6.398   5.108   0.882 -0.3405 -0.7740 -0.3022
 4639SOL    HW318323   6.501   5.037   0.967 -0.2419  0.0255  0.2568
 4639SOL    MW418324   6.421   5.040   0.932 -0.3306 -0.2353  0.4306
 4640SOL     OW18325   2.575   3.449   2.828 -0.1366 -0.0920 -0.4771
 4640SOL    HW218326   2.603   3.358   2.839 -1.4820 -0.6233 -1.2526
 4640SOL    HW318327   2.501   3.458   2.889 -0.6656  0.1643 -1.1488
 4640SOL    MW418328   2.569   3.438   2.838 -0.3839 -0.1283 -0.6681
 4641SOL     OW18329   1.471   5.117   1.264 -0.5411  0.7602  0.2207
 4641SOL    HW218330   1.440   5.171   1.191  1.0963  1.3034 -0.1182
 4641SOL    HW318331   1.394   5.102   1.318 -1.8407  0.2278 -1.6778
 4641SOL    MW418332   1.457   5.122   1.262 -0.4965  0.7616 -0.0745
 4642SOL     OW18333   4.381   1.571   5.138  0.1831 -0.6699  0.5031
 4642SOL    HW218334   4.439   1.629   5.090  0.8163 -0.0140  1.9793
 4642SOL    HW318335   4.298   1.619   5.144  0.0720 -0.7940  0.0212
 4642SOL    MW418336   4.378   1.585   5.133  0.2520 -0.5998  0.6343
 4643SOL     OW18337   5.546   2.420   5.761  0.2167  0.3536 -0.7665
 4643SOL    HW218338   5.519   2.512   5.768  0.1853  0.2480  0.7283
 4643SOL    HW318339   5.591   2.402   5.843 -0.4336 -1.1817 -0.7200
 4643SOL    MW418340   5.548   2.430   5.773  0.1268  0.1371 -0.5632
 4644SOL     OW18341   3.246   3.774   0.466 -0.0760 -0.1561 -0.3949
 4644SOL    HW218342   3.211   3.741   0.383  0.6585 -2.2751  0.0569
 4644SOL    HW318343   3.328   3.726   0.478  0.2589  0.7152  1.1660
 4644SOL    MW418344   3.252   3.763   0.457  0.0651 -0.3207 -0.1294
 4645SOL     OW18345   5.818   0.462   0.744  0.6584 -0.2706 -0.0331
 4645SOL    HW218346   5.752   0.396   0.765  0.9490 -1.0183 -1.3357
 4645SOL    HW318347   5.897   0.411   0.725  1.4563  0.5819  0.9198
 4645SOL    MW418348   5.820   0.446   0.744  0.8020 -0.2567 -0.0792
 4646SOL     OW18349   1.189   5.747   0.276 -0.3158  0.6279  0.2440
 4646SOL    HW218350   1.107   5.781   0.241  0.3391 -0.1107 -2.2216
 4646SOL    HW318351   1.176   5.652   0.282  0.2448  0.5442  0.1896
 4646SOL    MW418352   1.177   5.739   0.272 -0.1555  0.5194 -0.0885
 4647SOL     OW18353   4.126   0.383   0.986 -0.3886 -0.3626  0.2376
 4647SOL    HW218354   4.144   0.296   1.020 -2.7116 -1.2072 -0.5289
 4647SOL    HW318355   4.151   0.442   1.058 -0.3468 -1.7595  1.4129
 4647SOL    MW418356   4.132   0.380   1.000 -0.6895 -0.6583  0.2915
 4648SOL     OW18357   4.384   3.680   5.338  0.3026  0.0785  0.6414
 4648SOL    HW218358   4.438   3.743   5.386 -1.0703  2.6202 -0.9433
 4648SOL    HW318359   4.301   3.678   5.385 -0.2997  0.9181 -0.3514
 4648SOL    MW418360   4.380   3.688   5.350  0.0420  0.5246  0.3013
 4649SOL     OW18361   3.631   1.501   2.747  0.9033 -0.6159 -0.0976
 4649SOL    HW218362   3.607   1.493   2.655  0.5087 -0.4641 -0.0095
 4649SOL    HW318363   3.579   1.435   2.792 -1.6082  1.6189  0.4922
 4649SOL    MW418364   3.621   1.491   2.741  0.5198 -0.3010 -0.0082
 4650SOL     OW18365   6.048   4.846   1.110 -0.1165 -0.2997  0.1411
 4650SOL    HW218366   6.139   4.858   1.138 -0.2516 -0.4149  0.6398
 4650SOL    HW318367   6.036   4.751   1.108 -0.6174 -0.2832  1.4105
 4650SOL    MW418368   6.059   4.835   1.114 -0.2004 -0.3128  0.3744
 4651SOL     OW18369   3.574   0.670   1.158 -0.4027  0.2738  0.6289
 4651SOL    HW218370   3.586   0.625   1.074  0.1239  0.1675  0.7560
 4651SOL    HW318371   3.518   0.745   1.137  1.2884  1.3597 -0.2235
 4651SOL    MW418372   3.568   0.674   1.144 -0.1101  0.4031  0.5332
 4652SOL     OW18373   1.419   2.062   4.927 -0.0193  0.6152  0.7825
 4652SOL    HW218374   1.407   2.156   4.915  2.1983  1.2155  2.5348
 4652SOL    HW318375   1.476   2.036   4.855 -2.3169  0.0683 -0.9698
 4652SOL    MW418376   1.425   2.071   4.916 -0.0299  0.6222  0.7825
 4653SOL     OW18377   1.049   2.510   2.842 -0.3952 -0.1423 -0.4662
 4653SOL    HW218378   1.127   2.474   2.799 -1.5077  0.1524 -2.8845
 4653SOL    HW318379   0.998   2.548   2.771 -2.6917 -0.1874  1.0619
 4653SOL    MW418380   1.053   2.510   2.827 -0.8450 -0.1094 -0.5836
 4654SOL     OW18381   5.639   1.820   0.817  0.1717  0.0222  0.1745
 4654SOL    HW218382   5.659   1.905   0.777  0.8395 -0.1335  0.1682
 4654SOL    HW318383   5.609   1.766   0.744 -1.0196  0.4775  0.3040
 4654SOL    MW418384   5.638   1.824   0.802  0.1026  0.0617  0.1908
 4655SOL     OW18385   4.895   1.600   2.615 -0.2182  0.2914 -0.0692
 4655SOL    HW218386   4.916   1.608   2.522 -1.1910 -1.4407 -0.4952
 4655SOL    HW318387   4.891   1.505   2.630 -1.3650  0.5416  1.4105
 4655SOL    MW418388   4.897   1.588   2.605 -0.4979  0.0958  0.0698
 4656SOL     OW18389   5.756   6.005   0.778 -0.1867 -0.2133  0.0559
 4656SOL    HW218390   5.707   6.073   0.825  0.0337 -0.2543  0.3491
 4656SOL    HW318391   5.689   5.943   0.749 -0.3715  0.0390 -0.0614
 4656SOL    MW418392   5.741   6.006   0.781 -0.1820 -0.1854  0.0791
 4657SOL     OW18393   2.708   0.725   1.196 -0.4965  0.2727  0.1114
 4657SOL    HW218394   2.790   0.724   1.146 -0.1038 -1.2191  0.7402
 4657SOL    HW318395   2.677   0.815   1.189  0.8526  0.7004 -0.6978
 4657SOL    MW418396   2.715   0.737   1.188 -0.2667  0.1323  0.0876
 4658SOL     OW18397   0.800   5.652   2.736 -0.1173  0.8001 -0.4283
 4658SOL    HW218398   0.760   5.686   2.816  0.1036  0.3252 -0.1089
 4658SOL    HW318399   0.894   5.652   2.754 -0.0752  0.5676 -0.6418
 4658SOL    MW418400   0.808   5.657   2.749 -0.0826  0.7068 -0.4144
 4659SOL     OW18401   3.025   2.531   3.426 -0.0712  0.0878 -0.0755
 4659SOL    HW218402   2.996   2.463   3.486  0.2887  1.6301  1.9515
 4659SOL    HW318403   2.951   2.591   3.418 -0.2673 -0.3059 -1.5585
 4659SOL    MW418404   3.011   2.530   3.433 -0.0496  0.2394 -0.0037
 4660SOL     OW18405   5.931   2.871   0.436 -0.8146 -0.4252  0.2198
 4660SOL    HW218406   5.864   2.805   0.419  0.4227 -1.2915 -1.6446
 4660SOL    HW318407   5.975   2.884   0.352 -0.1681  1.8674  0.8336
 4660SOL    MW418408   5.928   2.864   0.423 -0.5661 -0.2370  0.0548
 4661SOL     OW18409   1.681   0.041   1.821 -0.4671 -0.2438 -0.6134
 4661SOL    HW218410   1.733   0.101   1.874  1.3621 -1.6994 -0.6173
 4661SOL    HW318411   1.619   0.096   1.774 -1.2414  1.2330  1.9867
 4661SOL    MW418412   1.680   0.056   1.822 -0.3279 -0.2410 -0.2708
 4662SOL     OW18413   6.410   0.728   0.718 -0.3714  0.2060  0.0941
 4662SOL    HW218414   6.367   0.799   0.766  1.5042  1.9823 -0.7259
 4662SOL    HW318415   6.501   0.755   0.711  0.0887 -1.5690 -1.6047
 4662SOL    MW418416   6.416   0.741   0.723 -0.0633  0.2062 -0.2382
 4663SOL     OW18417   2.805   2.087   3.574  0.3812 -0.4210  0.2622
 4663SOL    HW218418   2.744   2.054   3.508 -0.6308 -2.4653  2.0650
 4663SOL    HW318419   2.830   2.009   3.624  2.6575  0.7406  1.0709
 4663SOL    MW418420   2.800   2.072   3.572  0.5480 -0.5375  0.6067
 4664SOL     OW18421   5.369   5.324   2.601  0.4239  0.4800  0.2677
 4664SOL    HW218422   5.397   5.281   2.682 -0.6611  0.0578  0.4261
 4664SOL    HW318423   5.439   5.387   2.583 -0.3121  2.1519  2.7179
 4664SOL    MW418424   5.382   5.327   2.609  0.1836  0.6449  0.6119
 4665SOL     OW18425   0.939   2.317   5.343 -0.2544 -0.8807  0.0777
 4665SOL    HW218426   0.846   2.304   5.365 -0.8763  2.8346  0.3812
 4665SOL    HW318427   0.983   2.317   5.428 -0.5795  0.6037  0.2803
 4665SOL    MW418428   0.933   2.315   5.357 -0.3794 -0.1946  0.1445
 4666SOL     OW18429   5.526   5.867   1.843 -0.3505  0.3986  0.2401
 4666SOL    HW218430   5.595   5.821   1.891 -0.7413  0.3685  0.7835
 4666SOL    HW318431   5.561   5.955   1.830 -0.2984  0.4543  0.7211
 4666SOL    MW418432   5.540   5.872   1.848 -0.3952  0.4019  0.3753
 4667SOL     OW18433   3.956   5.056   3.963 -0.4049  0.2569 -0.0548
 4667SOL    HW218434   4.002   5.059   3.879  0.8540 -4.0290  0.2348
 4667SOL    HW318435   4.023   5.078   4.028 -0.5033  0.3733  0.0071
 4667SOL    MW418436   3.971   5.059   3.961 -0.2518 -0.2932 -0.0084
 4668SOL     OW18437   5.098   5.330   4.253  0.5096 -0.1169 -0.4558
 4668SOL    HW218438   5.114   5.373   4.337 -0.5052  1.3129 -0.9672
 4668SOL    HW318439   5.090   5.401   4.190 -0.8948 -1.0476 -1.3915
 4668SOL    MW418440   5.099   5.345   4.256  0.1904 -0.0510 -0.6468
 4669SOL     OW18441   2.025   5.114   2.293 -0.3781 -0.1203 -0.1737
 4669SOL    HW218442   2.099   5.086   2.347 -0.0208 -0.8102 -0.9998
 4669SOL    HW318443   2.037   5.208   2.282  0.5208 -0.2611 -0.5037
 4669SOL    MW418444   2.036   5.123   2.299 -0.2123 -0.2299 -0.3262
 4670SOL     OW18445   1.191   0.779   2.804 -0.0578 -0.7950 -0.0814
 4670SOL    HW218446   1.112   0.822   2.838  1.4704  1.2797  1.0802
 4670SOL    HW318447   1.234   0.847   2.752  1.9820 -1.1738  1.0296
 4670SOL    MW418448   1.186   0.794   2.802  0.4130 -0.5712  0.2184
 4671SOL     OW18449   5.166   3.982   1.018  0.5972 -0.4657 -0.0185
 4671SOL    HW218450   5.195   4.006   1.106 -0.8678  0.2545  0.2965
 4671SOL    HW318451   5.160   3.887   1.020 -0.1515 -0.4094  0.9042
 4671SOL    MW418452   5.169   3.973   1.030  0.3051 -0.3633  0.1448
 4672SOL     OW18453   0.247   6.002   4.360  0.4616 -0.0087  0.5849
 4672SOL    HW218454   0.321   6.001   4.421  1.2673  0.4736 -0.3601
 4672SOL    HW318455   0.224   5.909   4.350 -0.2611 -0.0605  2.2575
 4672SOL    MW418456   0.254   5.989   4.367  0.4725  0.0481  0.6809
 4673SOL     OW18457   3.753   3.506   2.592  0.3037 -0.6418 -0.3952
 4673SOL    HW218458   3.682   3.565   2.566 -0.3826 -1.3808 -0.2875
 4673SOL    HW318459   3.833   3.551   2.569 -0.1820  0.5670  0.2023
 4673SOL    MW418460   3.754   3.519   2.586  0.1491 -0.5798 -0.3022
 4674SOL     OW18461   1.357   6.180   3.039 -0.1841 -0.2009 -0.1620
 4674SOL    HW218462   1.446   6.145   3.039 -0.6050 -1.3023  0.0475
 4674SOL    HW318463   1.367   6.270   3.007  1.0251 -0.2331  0.0688
 4674SOL    MW418464   1.370   6.187   3.035 -0.0801 -0.3505 -0.1039
 4675SOL     OW18465   5.209   0.848   2.286 -0.4418  0.1079  0.2969
 4675SOL    HW218466   5.226   0.755   2.305 -0.7649  0.1100  0.6266
 4675SOL    HW318467   5.275   0.895   2.337 -0.5240  0.0713  0.4379
 4675SOL    MW418468   5.220   0.842   2.295 -0.4953  0.1033  0.3590
 4676SOL     OW18469   2.874   5.731   2.725 -0.0813 -0.2645  0.1970
 4676SOL    HW218470   2.839   5.661   2.670 -0.7832 -1.8047  2.4167
 4676SOL    HW318471   2.844   5.708   2.814 -1.3191  3.4710  0.9306
 4676SOL    MW418472   2.865   5.719   2.730 -0.3372  0.0252  0.5866
 4677SOL     OW18473   0.326   4.947   3.589 -0.3962  0.2207 -0.3673
 4677SOL    HW218474   0.268   5.022   3.598 -1.6124 -0.7634  0.2118
 4677SOL    HW318475   0.413   4.981   3.613 -1.4370  0.7003  3.3473
 4677SOL    MW418476   0.330   4.962   3.593 -0.6940  0.1541  0.1992
 4678SOL     OW18477   2.323   5.449   2.671  0.2946 -0.2478 -0.4784
 4678SOL    HW218478   2.336   5.542   2.652  0.7445 -0.4428 -1.1727
 4678SOL    HW318479   2.259   5.420   2.607  1.4875 -0.8113 -1.4742
 4678SOL    MW418480   2.317   5.457   2.660  0.5113 -0.3479 -0.7014
 4679SOL     OW18481   2.609   5.282   2.208 -0.0145 -0.3822 -0.0088
 4679SOL    HW218482   2.662   5.321   2.138  0.1684 -1.5199 -0.5306
 4679SOL    HW318483   2.673   5.238   2.264 -0.2238 -0.0444  0.4986
 4679SOL    MW418484   2.625   5.281   2.206 -0.0180 -0.4877 -0.0107
 4680SOL     OW18485   4.108   4.718   4.381  0.2388  1.0779 -0.2413
 4680SOL    HW218486   4.078   4.760   4.300 -0.0526  1.8733  0.2706
 4680SOL    HW318487   4.151   4.788   4.430 -0.5182  0.8777  0.7564
 4680SOL    MW418488   4.109   4.733   4.377  0.1005  1.1564 -0.0422
 4681SOL     OW18489   5.146   4.567   0.813  0.1625 -0.0878 -0.1762
 4681SOL    HW218490   5.065   4.526   0.784  0.2994 -0.3584 -0.1790
 4681SOL    HW318491   5.214   4.502   0.794  0.5791  0.6840 -1.5251
 4681SOL    MW418492   5.144   4.553   0.806  0.2355 -0.0216 -0.3545
 4682SOL     OW18493   4.182   4.712   3.691 -0.4649  0.3064 -0.1623
 4682SOL    HW218494   4.113   4.724   3.625 -1.2519 -0.0527  0.5664
 4682SOL    HW318495   4.136   4.718   3.774  0.0050 -1.9716  0.3397
 4682SOL    MW418496   4.167   4.714   3.693 -0.5068 -0.0415  0.0001
 4683SOL     OW18497   3.734   1.169   5.456  0.3232  0.0841  0.1681
 4683SOL    HW218498   3.643   1.172   5.484  0.3737 -0.2012  0.3636
 4683SOL    HW318499   3.762   1.260   5.456 -0.1823  0.2487 -0.6239
 4683SOL    MW418500   3.726   1.181   5.460  0.2632  0.0682  0.0894
 4684SOL     OW18501   5.650   1.617   0.082  0.1108  0.0285  0.7136
 4684SOL    HW218502   5.634   1.539   0.029  0.9879  0.7141 -0.6168
 4684SOL    HW318503   5.653   1.585   0.172  1.5933 -1.6709  0.1125
 4684SOL    MW418504   5.649   1.602   0.087  0.4221 -0.1053  0.4587
 4685SOL     OW18505   1.457   2.516   2.895  0.1581  0.6733  0.6269
 4685SOL    HW218506   1.426   2.490   2.808  1.2124  1.8849 -0.1568
 4685SOL    HW318507   1.525   2.452   2.916 -0.9125 -0.3393  1.1235
 4685SOL    MW418508   1.462   2.504   2.886  0.1560  0.6995  0.5890
 4686SOL     OW18509   6.168   4.845   3.543 -0.1531 -0.1580  0.4493
 4686SOL    HW218510   6.077   4.872   3.529  0.3183  0.8691 -0.7891
 4686SOL    HW318511   6.161   4.756   3.579 -1.6399 -0.2614 -0.0292
 4686SOL    MW418512   6.155   4.837   3.545 -0.2871 -0.0361  0.2228
 4687SOL     OW18513   3.523   3.342   1.085  0.4228  0.3023 -0.2327
 4687SOL    HW218514   3.545   3.300   1.002 -1.8445 -2.3132  0.3230
 4687SOL    HW318515   3.581   3.418   1.090  2.7124 -1.1093 -2.7619
 4687SOL    MW418516   3.533   3.347   1.075  0.4257 -0.2290 -0.4931
 4688SOL     OW18517   4.120   5.346   0.156  0.1771  0.0485 -0.0269
 4688SOL    HW218518   4.026   5.341   0.139 -0.0344 -0.3625  1.1761
 4688SOL    HW318519   4.160   5.309   0.077 -0.7264 -1.1805  0.0492
 4688SOL    MW418520   4.113   5.340   0.144  0.0300 -0.1678  0.1419
 4689SOL     OW18521   0.162   5.166   3.620 -0.5674 -0.2507  0.2786
 4689SOL    HW218522   0.183   5.219   3.697  1.5701 -0.9015  0.2121
 4689SOL    HW318523   0.078   5.125   3.641 -0.5976  0.5116  1.7519
 4689SOL    MW418524   0.154   5.167   3.633 -0.2894 -0.2360  0.4642
 4690SOL     OW18525   3.775   3.778   6.026  0.1029  0.1642 -0.2063
 4690SOL    HW218526   3.682   3.793   6.007 -0.1764 -0.9635  0.2062
 4690SOL    HW318527   3.806   3.862   6.059 -1.1836  0.1217  1.2296
 4690SOL    MW418528   3.767   3.791   6.028 -0.1037  0.0098  0.0376
 4691SOL     OW18529   0.454   0.124   6.057  0.6951  0.1487  0.1470
 4691SOL    HW218530   0.396   0.194   6.026 -0.1697 -0.3899  0.4931
 4691SOL    HW318531   0.406   0.043   6.037  1.4392 -0.3274  0.2370
 4691SOL    MW418532   0.440   0.122   6.050  0.6792  0.0148  0.2045
 4692SOL     OW18533   2.637   2.865   6.298 -0.3083 -0.4621  0.0594
 4692SOL    HW218534   2.595   2.927   6.239 -0.5240 -1.7818 -1.2258
 4692SOL    HW318535   2.711   2.914   6.336 -0.3331  0.4988 -1.0882
 4692SOL    MW418536   2.641   2.880   6.296 -0.3400 -0.5094 -0.2616
 4693SOL     OW18537   4.483   3.259   3.564  0.1070  0.4786  0.3525
 4693SOL    HW218538   4.392   3.276   3.541 -0.0499 -0.3580  0.3300
 4693SOL    HW318539   4.492   3.293   3.653 -0.6145 -0.6522  0.8868
 4693SOL    MW418540   4.472   3.266   3.573 -0.0089  0.2190  0.4200
 4694SOL     OW18541   5.083   3.216   0.886  0.3326  0.0841  0.1695
 4694SOL    HW218542   5.142   3.247   0.817 -1.0137 -3.3559 -2.8824
 4694SOL    HW318543   5.132   3.147   0.930  0.5364  1.0876  1.6048
 4694SOL    MW418544   5.097   3.211   0.883  0.1818 -0.2374 -0.0438
 4695SOL     OW18545   3.350   4.508   3.957 -0.0583  0.4995  0.1214
 4695SOL    HW218546   3.280   4.464   4.004 -1.6319  1.2530 -1.4074
 4695SOL    HW318547   3.349   4.598   3.990  0.9841  0.2482  0.9029
 4695SOL    MW418548   3.341   4.514   3.968 -0.1284  0.5657  0.0228
 4696SOL     OW18549   5.954   6.459   1.151 -0.1619  0.9899  0.1294
 4696SOL    HW218550   5.915   6.374   1.170  0.1162  0.9228  0.4094
 4696SOL    HW318551   5.879   6.518   1.139 -0.3510  0.8294  0.5113
 4696SOL    MW418552   5.939   6.456   1.152 -0.1502  0.9599  0.2167
 4697SOL     OW18553   0.544   1.301   6.381 -0.0319  0.5321 -0.1615
 4697SOL    HW218554   0.517   1.244   6.309 -2.6064  2.4212 -0.8069
 4697SOL    HW318555   0.489   1.275   6.455  0.4752  0.6155  0.2532
 4697SOL    MW418556   0.533   1.290   6.381 -0.3046  0.7923 -0.1919
 4698SOL     OW18557   4.983   1.061   5.020  0.6798 -0.3125 -0.4826
 4698SOL    HW218558   5.056   1.007   5.048 -0.2334 -1.2921  0.1006
 4698SOL    HW318559   4.907   1.003   5.025 -0.2591  0.8853 -0.2966
 4698SOL    MW418560   4.982   1.046   5.025  0.4355 -0.2837 -0.3811
 4699SOL     OW18561   5.981   4.140   2.305 -0.2025 -0.7502  0.1518
 4699SOL    HW218562   5.955   4.096   2.386 -0.4634  1.0583  1.1088
 4699SOL    HW318563   6.047   4.204   2.333 -1.2688  0.8340 -0.8241
 4699SOL    MW418564   5.986   4.143   2.319 -0.3776 -0.3026  0.1493
 4700SOL     OW18565   1.848   4.306   1.483  0.1463 -0.0393  0.0797
 4700SOL    HW218566   1.830   4.306   1.389  1.1402  1.6549 -0.1568
 4700SOL    HW318567   1.937   4.272   1.491  0.3951  0.6485  0.3159
 4700SOL    MW418568   1.857   4.301   1.472  0.3103  0.2750  0.0797
 4701SOL     OW18569   3.733   5.600   5.334  1.1075  0.4823 -0.7573
 4701SOL    HW218570   3.678   5.657   5.279  0.4715  0.1831 -0.4471
 4701SOL    HW318571   3.817   5.596   5.288  0.7316  0.6037 -1.4779
 4701SOL    MW418572   3.737   5.607   5.320  0.9740  0.4589 -0.8115
 4702SOL     OW18573   3.388   3.100   2.357  0.4156 -0.4703  0.2018
 4702SOL    HW218574   3.420   3.015   2.388  2.2937 -0.8463 -2.4284
 4702SOL    HW318575   3.361   3.084   2.267  1.0627  1.7545 -0.4512
 4702SOL    MW418576   3.389   3.087   2.349  0.7488 -0.2264 -0.2314
 4703SOL     OW18577   3.199   4.482   2.963  0.0472 -0.4701  0.0287
 4703SOL    HW218578   3.191   4.541   2.888 -1.1566 -0.0599  0.4711
 4703SOL    HW318579   3.249   4.532   3.028  1.3324 -0.9236 -0.5625
 4703SOL    MW418580   3.205   4.496   2.962  0.0579 -0.4758  0.0090
 4704SOL     OW18581   3.314   3.343   3.224  0.0988 -0.1700 -0.0174
 4704SOL    HW218582   3.222   3.323   3.205  0.5679 -2.0206 -0.5833
 4704SOL    HW318583   3.362   3.273   3.180  1.7516  0.4932  0.6915
 4704SOL    MW418584   3.308   3.331   3.216  0.3787 -0.3266  0.0015
 4705SOL     OW18585   4.598   1.372   3.272 -0.5730 -0.0285 -0.6561
 4705SOL    HW218586   4.665   1.327   3.222  0.5133 -0.8088  1.3969
 4705SOL    HW318587   4.586   1.456   3.227  2.1205  0.3270 -0.8466
 4705SOL    MW418588   4.605   1.377   3.260 -0.0743 -0.0846 -0.4103
 4706SOL     OW18589   4.910   4.785   0.404  0.2239 -0.2168  0.2933
 4706SOL    HW218590   4.923   4.861   0.460 -1.5206  0.1820  0.2202
 4706SOL    HW318591   4.941   4.812   0.318  0.3056  0.1517  0.4368
 4706SOL    MW418592   4.916   4.798   0.400  0.0045 -0.1155  0.3025
 4707SOL     OW18593   1.170   1.365   4.647  0.0248  0.2738 -0.2145
 4707SOL    HW218594   1.238   1.363   4.580 -0.4003  0.2462 -0.6561
 4707SOL    HW318595   1.124   1.282   4.637  0.0457  0.2092  0.2076
 4707SOL    MW418596   1.173   1.354   4.637 -0.0285  0.2616 -0.2171
 4708SOL     OW18597   3.144   2.522   3.826 -0.4640  0.0715 -0.4582
 4708SOL    HW218598   3.077   2.575   3.870  0.0844 -0.2766  0.8280
 4708SOL    HW318599   3.164   2.572   3.746 -0.2464  1.6178  0.5073
 4708SOL    MW418600   3.137   2.536   3.821 -0.3630  0.2296 -0.1611
 4709SOL     OW18601   3.296   0.308   1.858  0.0926 -0.5643  0.1999
 4709SOL    HW218602   3.277   0.385   1.911  0.3396 -1.0603  1.0228
 4709SOL    HW318603   3.388   0.319   1.832  0.5026 -1.1308  1.3048
 4709SOL    MW418604   3.306   0.319   1.862  0.1793 -0.7045  0.4543
 4710SOL     OW18605   2.442   2.960   0.443  0.0271 -0.7812 -0.3042
 4710SOL    HW218606   2.425   2.930   0.354 -1.1944 -2.8597  0.5657
 4710SOL    HW318607   2.518   3.018   0.435 -0.3805 -0.5111 -2.7350
 4710SOL    MW418608   2.450   2.964   0.430 -0.1878 -1.0198 -0.5101
 4711SOL     OW18609   4.751   1.644   0.377  1.0380  0.6632  0.1908
 4711SOL    HW218610   4.695   1.576   0.339  0.8385  1.3878 -0.8444
 4711SOL    HW318611   4.743   1.718   0.317  2.1745  1.1954  0.6671
 4711SOL    MW418612   4.743   1.645   0.364  1.1616  0.8290  0.1170
 4712SOL     OW18613   0.816   1.701   6.279  0.8476  0.0386 -0.1256
 4712SOL    HW218614   0.749   1.659   6.333  1.1919  0.2527  0.4717
 4712SOL    HW318615   0.769   1.771   6.234  0.1848 -1.1724 -1.4121
 4712SOL    MW418616   0.801   1.705   6.280  0.8056 -0.0930 -0.2166
 4713SOL     OW18617   4.146   5.936   3.942 -0.3352 -0.3427 -0.0667
 4713SOL    HW218618   4.112   5.989   4.014 -0.2949 -2.5736  1.6913
 4713SOL    HW318619   4.069   5.917   3.888 -0.5946  0.2879  0.0684
 4713SOL    MW418620   4.132   5.941   3.944 -0.3641 -0.5538  0.1831
 4714SOL     OW18621   1.343   4.023   3.858 -0.0109 -0.0361  0.0591
 4714SOL    HW218622   1.379   3.937   3.835  0.9948  0.6236 -0.9146
 4714SOL    HW318623   1.411   4.085   3.833 -1.7352  1.2650 -1.6711
 4714SOL    MW418624   1.356   4.019   3.852 -0.1057  0.2226 -0.2976
 4715SOL     OW18625   6.240   2.558   4.961  0.4186  0.0909 -0.3209
 4715SOL    HW218626   6.233   2.585   5.053 -0.5521  2.3646 -0.9973
 4715SOL    HW318627   6.333   2.568   4.941  0.3894  1.2061 -0.0012
 4715SOL    MW418628   6.251   2.563   4.971  0.2867  0.5380 -0.3680
 4716SOL     OW18629   1.733   6.041   1.961 -0.2573  0.0086  0.0856
 4716SOL    HW218630   1.755   6.107   1.896  0.3653 -0.8514 -0.6105
 4716SOL    HW318631   1.789   5.966   1.939 -0.6563 -0.6070  1.0869
 4716SOL    MW418632   1.743   6.040   1.949 -0.2278 -0.1861  0.1259
 4717SOL     OW18633   1.301   4.780   2.694  0.2989  0.1736 -0.4357
 4717SOL    HW218634   1.396   4.791   2.690  0.2721  0.6892  0.2878
 4717SOL    HW318635   1.289   4.685   2.704  0.8917  0.3275  2.7866
 4717SOL    MW418636   1.312   4.769   2.695  0.3736  0.2619  0.0849
 4718SOL     OW18637   2.221   2.869   3.909 -0.0940  0.0135  0.2514
 4718SOL    HW218638   2.156   2.867   3.979 -0.2239 -2.2149  0.1418
 4718SOL    HW318639   2.185   2.811   3.841  1.0148  0.4399 -0.7290
 4718SOL    MW418640   2.208   2.861   3.909  0.0352 -0.2242  0.1076
 4719SOL     OW18641   0.741   6.384   0.134 -0.2224  0.1299  0.1898
 4719SOL    HW218642   0.794   6.313   0.098 -0.7117  0.0563 -0.3895
 4719SOL    HW318643   0.721   6.355   0.223 -0.7764 -0.6583 -0.1835
 4719SOL    MW418644   0.746   6.371   0.141 -0.3600  0.0162  0.0641
 4720SOL     OW18645   0.873   0.474   4.974 -0.0884  0.3962 -0.1243
 4720SOL    HW218646   0.821   0.546   5.010 -0.1192 -0.4307  1.5616
 4720SOL    HW318647   0.958   0.480   5.018  0.3608  0.1716 -0.9338
 4720SOL    MW418648   0.877   0.484   4.984 -0.0332  0.2575 -0.0086
 4721SOL     OW18649   5.929   0.440   2.404 -0.4958  0.0790  0.0451
 4721SOL    HW218650   5.864   0.489   2.355  0.7245  0.6057 -1.0949
 4721SOL    HW318651   5.981   0.507   2.449 -0.7461 -0.3376  0.9899
 4721SOL    MW418652   5.927   0.455   2.404 -0.3678  0.0935  0.0193
 4722SOL     OW18653   1.431   6.092   0.683 -0.0161  0.6468 -0.3584
 4722SOL    HW218654   1.360   6.061   0.626  0.5575  0.7085 -1.1215
 4722SOL    HW318655   1.445   6.021   0.746  0.7306 -0.3219 -1.5750
 4722SOL    MW418656   1.423   6.078   0.684  0.1581  0.5271 -0.6196
 4723SOL     OW18657   0.965   5.318   5.658 -0.2936  0.4047  0.0816
 4723SOL    HW218658   0.957   5.375   5.582 -0.5294  0.7635  0.3706
 4723SOL    HW318659   0.956   5.230   5.623  0.1081  0.5405 -0.3768
 4723SOL    MW418660   0.963   5.314   5.644 -0.2717  0.4699  0.0593
 4724SOL     OW18661   5.835   0.533   4.900 -0.0251  0.2200 -0.4102
 4724SOL    HW218662   5.884   0.537   4.982  0.5015 -1.2190 -0.6404
 4724SOL    HW318663   5.881   0.593   4.841  0.4595  0.1406 -0.1114
 4724SOL    MW418664   5.847   0.542   4.903  0.1083  0.0197 -0.4011
 4725SOL     OW18665   4.816   3.030   1.668 -0.1574 -0.4254 -0.4189
 4725SOL    HW218666   4.740   3.017   1.611 -0.3131  2.4287 -1.0158
 4725SOL    HW318667   4.863   3.103   1.629  1.2526 -0.1666  1.6233
 4725SOL    MW418668   4.812   3.038   1.656  0.0081 -0.0147 -0.2282
 4726SOL     OW18669   5.191   5.817   4.630 -0.5885 -0.1808 -0.2723
 4726SOL    HW218670   5.270   5.806   4.578 -0.2121  0.7178  0.1071
 4726SOL    HW318671   5.190   5.740   4.688  0.3960  0.1697  0.2313
 4726SOL    MW418672   5.201   5.805   4.631 -0.4090 -0.0160 -0.1558
 4727SOL     OW18673   6.257   4.333   6.145  0.7555 -0.0126  0.1622
 4727SOL    HW218674   6.230   4.413   6.191  3.1942  0.8881  0.1952
 4727SOL    HW318675   6.328   4.361   6.088 -0.2974 -1.6542 -2.0998
 4727SOL    MW418676   6.263   4.347   6.144  0.9383 -0.1103 -0.1319
 4728SOL     OW18677   6.130   0.949   4.542  0.3666 -0.0698  0.0410
 4728SOL    HW218678   6.099   1.014   4.606  0.2597  0.1249 -0.2041
 4728SOL    HW318679   6.198   0.995   4.493  0.3392 -0.1665 -0.0876
 4728SOL    MW418680   6.135   0.964   4.544  0.3489 -0.0569 -0.0083
 4729SOL     OW18681   0.236   3.855   1.854 -0.6763 -0.2891 -0.3263
 4729SOL    HW218682   0.192   3.812   1.781  1.5634 -2.8425 -0.3303
 4729SOL    HW318683   0.203   3.810   1.932 -1.6169  1.1053  0.1151
 4729SOL    MW418684   0.226   3.843   1.855 -0.5049 -0.4420 -0.2686
 4730SOL     OW18685   3.750   0.393   6.272  0.2728 -0.2451 -0.2556
 4730SOL    HW218686   3.817   0.362   6.333 -0.3009  1.7083  1.4875
 4730SOL    HW318687   3.782   0.478   6.242 -2.8283  2.6992  3.5660
 4730SOL    MW418688   3.763   0.400   6.276 -0.2120  0.4011  0.4786
 4731SOL     OW18689   2.155   4.688   0.086 -0.1707 -0.1038 -0.0182
 4731SOL    HW218690   2.120   4.609   0.127  0.8999 -1.7574 -2.0709
 4731SOL    HW318691   2.098   4.702   0.010  0.2978  0.4644 -0.2685
 4731SOL    MW418692   2.143   4.679   0.081  0.0324 -0.2470 -0.3221
 4732SOL     OW18693   4.001   4.368   1.882 -0.0317 -0.4319 -0.5387
 4732SOL    HW218694   3.991   4.461   1.903  1.1244 -0.5970  0.8320
 4732SOL    HW318695   4.004   4.366   1.786  1.9400  1.1990 -0.5858
 4732SOL    MW418696   4.000   4.380   1.872  0.3810 -0.2385 -0.3641
 4733SOL     OW18697   1.006   4.113   4.506 -0.0741  0.3686 -0.3744
 4733SOL    HW218698   0.911   4.124   4.499 -0.4449 -1.6955  0.8127
 4733SOL    HW318699   1.028   4.156   4.588  0.2154  1.7160 -1.1247
 4733SOL    MW418700   0.996   4.120   4.516 -0.0849  0.2740 -0.3167
 4734SOL     OW18701   1.894   1.724   2.835  0.0842  0.3406 -0.1020
 4734SOL    HW218702   1.859   1.635   2.836  0.2158  0.2551 -1.3860
 4734SOL    HW318703   1.852   1.766   2.760 -0.7110  1.6896  1.0506
 4734SOL    MW418704   1.884   1.718   2.825 -0.0034  0.5073 -0.1194
 4735SOL     OW18705   2.630   6.388   3.169 -0.2754 -0.0170  0.1609
 4735SOL    HW218706   2.575   6.466   3.162  0.8631  0.7658 -0.1750
 4735SOL    HW318707   2.655   6.368   3.079 -0.3886 -0.6544  0.2659
 4735SOL    MW418708   2.626   6.395   3.156 -0.1401  0.0022  0.1304
 4736SOL     OW18709   1.270   3.375   2.478  0.0521 -0.7643 -0.2865
 4736SOL    HW218710   1.294   3.456   2.522 -2.1396 -0.6629  0.8838
 4736SOL    HW318711   1.222   3.325   2.544 -2.5386 -1.0343 -2.2120
 4736SOL    MW418712   1.267   3.379   2.493 -0.5789 -0.7865 -0.3862
 4737SOL     OW18713   3.367   1.703   3.114  0.3394  0.0929 -0.6423
 4737SOL    HW218714   3.440   1.739   3.064  1.2717 -0.0910  0.5425
 4737SOL    HW318715   3.342   1.773   3.174  0.9742 -0.5836  0.4353
 4737SOL    MW418716   3.373   1.717   3.115  0.5462 -0.0207 -0.3438
 4738SOL     OW18717   1.189   0.388   1.493 -0.0116 -0.0020 -0.0423
 4738SOL    HW218718   1.137   0.326   1.442  0.2815 -0.9003  0.7218
 4738SOL    HW318719   1.269   0.341   1.515 -0.4035  0.0975  1.7819
 4738SOL    MW418720   1.192   0.374   1.489 -0.0246 -0.1074  0.2992
 4739SOL     OW18721   0.508   2.547   4.343  0.1023 -0.3694  0.0971
 4739SOL    HW218722   0.429   2.591   4.374  0.0970 -1.1180  1.1982
 4739SOL    HW318723   0.497   2.544   4.248 -0.1009  1.5684  0.0199
 4739SOL    MW418724   0.496   2.552   4.335  0.0748 -0.2125  0.2322
 4740SOL     OW18725   5.968   2.396   5.860 -0.6997  0.0305  0.1907
 4740SOL    HW218726   5.915   2.401   5.781 -3.0758 -1.3870  1.5613
 4740SOL    HW318727   5.928   2.460   5.919 -0.7308 -0.8439  1.1519
 4740SOL    MW418728   5.955   2.405   5.858 -1.0173 -0.2719  0.4983
 4741SOL     OW18729   1.987   1.701   4.938 -0.3585 -0.1796 -0.1848
 4741SOL    HW218730   2.060   1.640   4.943 -0.9524 -1.0323 -1.2921
 4741SOL    HW318731   2.001   1.749   4.857 -1.8375 -1.5144 -1.3092
 4741SOL    MW418732   1.998   1.699   4.928 -0.6320 -0.4682 -0.4792
 4742SOL     OW18733   0.935   0.489   4.080  0.3330 -0.7160  0.1400
 4742SOL    HW218734   0.882   0.436   4.019 -1.4479 -0.4244  1.3508
 4742SOL    HW318735   0.990   0.542   4.023  0.6479 -2.3296 -1.1612
 4742SOL    MW418736   0.935   0.489   4.064  0.1396 -0.8904  0.1281
 4743SOL     OW18737   3.704   0.271   0.451  0.4221  0.0167 -0.0896
 4743SOL    HW218738   3.760   0.233   0.519  0.7431 -0.5673 -0.6701
 4743SOL    HW318739   3.651   0.197   0.420  0.4907  0.2149 -0.6818
 4743SOL    MW418740   3.704   0.256   0.456  0.4735 -0.0342 -0.2443
 4744SOL     OW18741   5.764   4.275   4.284  0.1916  0.4685  0.0952
 4744SOL    HW218742   5.739   4.350   4.336 -2.3300 -0.0044 -0.3225
 4744SOL    HW318743   5.752   4.200   4.342  0.7149  0.2179 -0.1126
 4744SOL    MW418744   5.759   4.275   4.299 -0.0720  0.3730  0.0127
 4745SOL     OW18745   0.688   3.139   5.398 -0.0053  0.0769  0.0046
 4745SOL    HW218746   0.778   3.165   5.378 -0.3267  0.4086 -1.0843
 4745SOL    HW318747   0.641   3.151   5.316 -1.0422 -0.1311  0.5508
 4745SOL    MW418748   0.693   3.144   5.385 -0.1845  0.0932 -0.0670
 4746SOL     OW18749   1.564   3.903   0.411 -0.1506  0.0934 -0.2997
 4746SOL    HW218750   1.637   3.846   0.437 -0.6593 -0.2337  0.4467
 4746SOL    HW318751   1.523   3.858   0.337 -2.9008 -2.6142  2.5716
 4746SOL    MW418752   1.568   3.890   0.404 -0.5806 -0.3070  0.1776
 4747SOL     OW18753   6.117   4.816   0.771  0.1026 -0.3509 -0.2741
 4747SOL    HW218754   6.072   4.892   0.807  1.1486 -0.6982  1.9417
 4747SOL    HW318755   6.048   4.766   0.727 -0.9795  0.8463  0.0099
 4747SOL    MW418756   6.102   4.819   0.770  0.0978 -0.2387  0.0557
 4748SOL     OW18757   1.511   2.637   3.552  0.7973 -0.1637 -0.3448
 4748SOL    HW218758   1.448   2.660   3.483  0.3552  0.2136  0.1805
 4748SOL    HW318759   1.582   2.700   3.540  1.3217 -0.9098 -1.2558
 4748SOL    MW418760   1.512   2.649   3.541  0.8082 -0.2124 -0.3957
 4749SOL     OW18761   5.810   3.882   1.557 -0.0429 -0.4301 -0.2901
 4749SOL    HW218762   5.739   3.842   1.607 -1.0872  3.0204  1.3034
 4749SOL    HW318763   5.777   3.887   1.468 -0.8197 -0.9692 -0.0388
 4749SOL    MW418764   5.796   3.877   1.552 -0.2832 -0.0460 -0.0467
 4750SOL     OW18765   1.945   5.231   4.723  0.1166 -0.0402 -1.0943
 4750SOL    HW218766   1.898   5.164   4.773  0.8454 -0.0501 -0.4047
 4750SOL    HW318767   1.878   5.269   4.665 -0.6791 -0.2076 -0.3061
 4750SOL    MW418768   1.930   5.227   4.722  0.1078 -0.0636 -0.8993
 4751SOL     OW18769   1.961   4.464   3.674 -0.0442 -0.1943  0.0516
 4751SOL    HW218770   1.951   4.369   3.674 -1.9033 -0.0439 -0.1300
 4751SOL    HW318771   1.902   4.495   3.743  1.5361  0.7724  1.0276
 4751SOL    MW418772   1.952   4.456   3.683 -0.0810 -0.0469  0.1564
 4752SOL     OW18773   3.639   3.489   6.367  0.6478 -0.2709 -0.6119
 4752SOL    HW218774   3.712   3.520   6.314  0.9173 -0.3960 -0.3150
 4752SOL    HW318775   3.591   3.430   6.309 -1.3859  2.6001 -2.1151
 4752SOL    MW418776   3.642   3.485   6.352  0.4150  0.0914 -0.7710
 4753SOL     OW18777   5.105   0.319   5.599  0.1637  0.0027 -0.6098
 4753SOL    HW218778   5.125   0.237   5.645  1.1127 -0.2522 -1.4465
 4753SOL    HW318779   5.183   0.373   5.611  0.1467  0.1939 -1.3316
 4753SOL    MW418780   5.118   0.315   5.606  0.2867 -0.0057 -0.8154
 4754SOL     OW18781   2.392   0.700   2.695  0.1699 -0.3942 -0.3797
 4754SOL    HW218782   2.381   0.758   2.619  0.4551  0.8673  0.5128
 4754SOL    HW318783   2.303   0.681   2.723  0.0552 -1.0741 -1.1706
 4754SOL    MW418784   2.379   0.705   2.689  0.1924 -0.3174 -0.3663
 4755SOL     OW18785   1.675   1.868   5.063 -0.1926 -0.8959  0.2306
 4755SOL    HW218786   1.580   1.862   5.058 -0.2998 -0.8888  1.8056
 4755SOL    HW318787   1.693   1.893   5.154  1.2261  1.1343 -0.5396
 4755SOL    MW418788   1.665   1.871   5.074 -0.0196 -0.6271  0.3368
 4756SOL     OW18789   2.781   3.560   4.983  0.3107 -0.7777  0.4629
 4756SOL    HW218790   2.805   3.588   4.895 -1.7624 -0.4631 -0.0561
 4756SOL    HW318791   2.761   3.641   5.030 -0.1402 -1.0267  0.7124
 4756SOL    MW418792   2.781   3.574   4.978 -0.0223 -0.7691  0.4274
 4757SOL     OW18793   2.124   4.146   2.864 -0.3250  0.2528  0.0297
 4757SOL    HW218794   2.049   4.204   2.867  0.7567  1.9902 -2.8013
 4757SOL    HW318795   2.104   4.083   2.794 -0.6699 -1.7219  1.7917
 4757SOL    MW418796   2.112   4.145   2.855 -0.2278  0.2215 -0.1114
 4758SOL     OW18797   5.598   1.889   3.629  0.3371  0.2016  0.3305
 4758SOL    HW218798   5.553   1.819   3.583 -0.9590  0.8236  0.6164
 4758SOL    HW318799   5.537   1.917   3.696  1.6230  0.2888  1.5099
 4758SOL    MW418800   5.584   1.883   3.632  0.3357  0.2952  0.5239
 4759SOL     OW18801   2.896   0.450   5.051 -0.4515 -0.1681 -0.0754
 4759SOL    HW218802   2.850   0.505   5.114  0.3644 -0.6540  0.9844
 4759SOL    HW318803   2.961   0.509   5.011 -0.2439 -0.1060  0.3401
 4759SOL    MW418804   2.899   0.465   5.054 -0.3165 -0.2240  0.1192
 4760SOL     OW18805   0.672   5.224   2.280  0.3735  0.1790  0.1287
 4760SOL    HW218806   0.594   5.170   2.297  1.3159 -0.8294  1.3680
 4760SOL    HW318807   0.722   5.174   2.215 -0.6681  1.5418 -1.8592
 4760SOL    MW418808   0.668   5.211   2.273  0.3604  0.2257  0.0300
 4761SOL     OW18809   2.222   2.053   4.703 -0.5166  0.7165 -0.0281
 4761SOL    HW218810   2.274   2.120   4.747  0.0741  0.5864 -0.5003
 4761SOL    HW318811   2.279   2.021   4.633  0.2084 -2.0203  1.6663
 4761SOL    MW418812   2.236   2.058   4.700 -0.3430  0.3383  0.1332
 4762SOL     OW18813   1.068   6.257   4.204 -0.4497  0.3051  0.0108
 4762SOL    HW218814   1.038   6.307   4.280  0.9735 -1.2642  1.7241
 4762SOL    HW318815   1.161   6.277   4.198 -0.3489 -0.3421 -0.7055
 4762SOL    MW418816   1.076   6.266   4.214 -0.2486  0.0127  0.1423
 4763SOL     OW18817   5.656   5.602   6.420  0.1866 -0.0936  0.2326
 4763SOL    HW218818   5.684   5.681   6.466  0.7788  0.7453 -1.4600
 4763SOL    HW318819   5.570   5.624   6.385  0.6024  0.0565 -0.7403
 4763SOL    MW418820   5.648   5.616   6.421  0.3196  0.0369 -0.1191
 4764SOL     OW18821   4.309   1.670   3.893 -0.1755 -0.5108  0.1268
 4764SOL    HW218822   4.359   1.590   3.878  1.5937  0.1972  1.8086
 4764SOL    HW318823   4.275   1.661   3.981  0.9540  0.9845  0.7679
 4764SOL    MW418824   4.311   1.658   3.902  0.2069 -0.2201  0.4333
 4765SOL     OW18825   3.422   2.135   2.636 -0.0223 -0.1773 -0.3250
 4765SOL    HW218826   3.407   2.103   2.725 -0.9341  0.3091 -0.2917
 4765SOL    HW318827   3.508   2.100   2.612  0.4075  0.0122  0.8893
 4765SOL    MW418828   3.431   2.126   2.644 -0.0859 -0.0881 -0.1604
 4766SOL     OW18829   4.446   1.102   3.689 -0.0350  0.1808 -0.3815
 4766SOL    HW218830   4.494   1.173   3.647  0.5349 -0.3651 -0.6723
 4766SOL    HW318831   4.502   1.025   3.677  0.3644  0.0862  1.7882
 4766SOL    MW418832   4.460   1.101   3.682  0.0929  0.0963 -0.1336
 4767SOL     OW18833   3.685   2.393   1.413 -0.7214  0.3668 -0.0040
 4767SOL    HW218834   3.719   2.400   1.324 -1.7602  1.5863 -0.3402
 4767SOL    HW318835   3.620   2.322   1.409  1.4390 -1.7743  0.5775
 4767SOL    MW418836   3.681   2.385   1.401 -0.5734  0.2452  0.0284
 4768SOL     OW18837   4.435   0.543   3.521 -0.0081  0.5190  0.1743
 4768SOL    HW218838   4.516   0.505   3.489  0.9479  0.9829  1.8759
 4768SOL    HW318839   4.436   0.633   3.487  0.0067  0.4030 -0.1298
 4768SOL    MW418840   4.446   0.550   3.513  0.1200  0.5649  0.3587
 4769SOL     OW18841   5.645   1.098   5.855 -0.2402  0.2968  0.0603
 4769SOL    HW218842   5.616   1.100   5.764  0.8379  0.0339 -0.3026
 4769SOL    HW318843   5.696   1.179   5.866  2.4344 -1.1752 -0.5723
 4769SOL    MW418844   5.648   1.109   5.845  0.2549  0.0679 -0.0711
 4770SOL     OW18845   5.162   0.169   0.353  0.3716  0.0506 -0.3468
 4770SOL    HW218846   5.216   0.119   0.414 -0.1986  1.2589  1.2091
 4770SOL    HW318847   5.225   0.205   0.290  1.2374  0.3317  0.6373
 4770SOL    MW418848   5.178   0.167   0.353  0.4106  0.2471 -0.0117
 4771SOL     OW18849   0.157   5.530   2.530 -0.2858 -0.9867  0.3892
 4771SOL    HW218850   0.130   5.488   2.448 -0.4411 -1.4091  0.6513
 4771SOL    HW318851   0.252   5.537   2.524 -0.4654  1.1984 -0.8754
 4771SOL    MW418852   0.166   5.525   2.518 -0.3300 -0.7541  0.2569
 4772SOL     OW18853   5.365   3.763   4.629 -0.2515  0.1102  0.9290
 4772SOL    HW218854   5.306   3.775   4.704 -1.2196  0.4708  0.1259
 4772SOL    HW318855   5.451   3.750   4.669 -1.0669 -1.8892  2.2036
 4772SOL    MW418856   5.368   3.763   4.644 -0.4868 -0.1060  0.9912
 4773SOL     OW18857   5.942   0.330   2.033 -0.4657  0.6383  0.0081
 4773SOL    HW218858   5.940   0.250   2.087 -1.9252  0.8441  0.2893
 4773SOL    HW318859   5.982   0.396   2.090 -1.9747  0.8488  0.8747
 4773SOL    MW418860   5.947   0.328   2.048 -0.8574  0.6932  0.1595
 4774SOL     OW18861   2.989   1.464   4.932 -0.4692 -0.1421  0.3283
 4774SOL    HW218862   3.075   1.474   4.891  0.1882  0.9912  1.8800
 4774SOL    HW318863   2.997   1.383   4.984  0.5801  1.1961  2.4183
 4774SOL    MW418864   3.002   1.454   4.934 -0.2440  0.1839  0.8088
 4775SOL     OW18865   2.810   1.095   3.890 -0.3584 -0.9047  0.0455
 4775SOL    HW218866   2.751   1.078   3.963 -0.0286 -1.9396  0.0861
 4775SOL    HW318867   2.784   1.031   3.824  0.7664 -1.4324  0.1006
 4775SOL    MW418868   2.798   1.085   3.891 -0.1665 -1.1109  0.0581
 4776SOL     OW18869   4.130   1.661   5.199  0.6057 -0.0017  0.5189
 4776SOL    HW218870   4.091   1.705   5.123 -0.7983  1.2115  1.8505
 4776SOL    HW318871   4.075   1.584   5.212 -0.1634  0.6301  1.1878
 4776SOL    MW418872   4.117   1.657   5.191  0.3190  0.2417  0.7828
 4777SOL     OW18873   4.815   2.491   3.452 -0.5585  0.2702 -0.2410
 4777SOL    HW218874   4.857   2.406   3.463 -0.7526  0.2336  0.2054
 4777SOL    HW318875   4.730   2.470   3.412 -0.0228  0.3719 -1.4946
 4777SOL    MW418876   4.810   2.477   3.448 -0.5134  0.2788 -0.3475
 4778SOL     OW18877   3.112   6.399   2.566  0.0784 -0.0151  0.2271
 4778SOL    HW218878   3.178   6.467   2.557 -1.0111  0.9103 -1.1016
 4778SOL    HW318879   3.147   6.324   2.518 -0.6204  1.1093 -2.1508
 4778SOL    MW418880   3.125   6.398   2.559 -0.1575  0.2553 -0.2619
 4779SOL     OW18881   2.232   1.831   3.256 -0.2084 -0.0392  0.4289
 4779SOL    HW218882   2.259   1.891   3.326 -3.3521  0.0727  1.7094
 4779SOL    HW318883   2.138   1.820   3.269 -0.6394 -1.3263 -2.8493
 4779SOL    MW418884   2.224   1.837   3.267 -0.6800 -0.1943  0.1653
 4780SOL     OW18885   4.373   3.811   1.203  0.1057 -0.4758  0.3434
 4780SOL    HW218886   4.374   3.877   1.272 -0.5601  3.3744 -2.9524
 4780SOL    HW318887   4.465   3.786   1.192  0.2045 -1.2725  2.5607
 4780SOL    MW418888   4.385   3.816   1.211  0.0309 -0.0729  0.2011
 4781SOL     OW18889   2.524   0.214   4.733  0.4003 -0.2344  0.0483
 4781SOL    HW218890   2.545   0.250   4.647  0.2299 -1.1949 -0.4053
 4781SOL    HW318891   2.600   0.236   4.787  0.3286  0.7424 -0.2222
 4781SOL    MW418892   2.537   0.222   4.729  0.3684 -0.2323 -0.0473
 4782SOL     OW18893   6.286   5.197   0.738  0.4084  0.2458 -0.3747
 4782SOL    HW218894   6.326   5.284   0.743  0.8129  0.0017  1.8099
 4782SOL    HW318895   6.321   5.159   0.658  1.6757  1.4315 -0.4275
 4782SOL    MW418896   6.296   5.204   0.728  0.6290  0.3700 -0.0934
 4783SOL     OW18897   2.390   5.550   3.492 -0.4090  0.4733  0.4442
 4783SOL    HW218898   2.475   5.535   3.449 -0.5036 -1.8201  0.9076
 4783SOL    HW318899   2.326   5.538   3.422 -0.4696 -1.3368  0.7587
 4783SOL    MW418900   2.393   5.546   3.477 -0.4295 -0.0681  0.5469
 4784SOL     OW18901   3.385   1.293   5.263  0.4256  0.0592  0.2125
 4784SOL    HW218902   3.389   1.251   5.349  2.5171  1.4696  0.8975
 4784SOL    HW318903   3.376   1.386   5.282  1.8538  0.4932 -1.0304
 4784SOL    MW418904   3.385   1.300   5.276  0.8899  0.3025  0.1389
 4785SOL     OW18905   1.792   3.910   5.816  0.2981  0.0798  0.7105
 4785SOL    HW218906   1.879   3.930   5.783 -0.8944  1.4505 -1.9217
 4785SOL    HW318907   1.762   3.837   5.761 -0.5046  0.1115  1.0876
 4785SOL    MW418908   1.799   3.903   5.805  0.0349  0.2649  0.4130
 4786SOL     OW18909   0.471   3.351   3.771  0.4838  0.3911  0.3977
 4786SOL    HW218910   0.403   3.404   3.731  1.1575 -0.4660 -2.0724
 4786SOL    HW318911   0.424   3.286   3.823 -0.6456 -0.5387 -1.7089
 4786SOL    MW418912   0.456   3.349   3.773  0.4237  0.1554 -0.2062
 4787SOL     OW18913   5.117   1.521   0.647 -0.5195 -0.2135 -0.6798
 4787SOL    HW218914   5.155   1.588   0.703  0.7672 -1.2033 -0.3112
 4787SOL    HW318915   5.024   1.544   0.641 -0.3206  0.9565  0.3200
 4787SOL    MW418916   5.110   1.533   0.654 -0.3235 -0.1898 -0.4993
 4788SOL     OW18917   1.279   3.208   1.391 -0.6265  0.2710  0.5543
 4788SOL    HW218918   1.371   3.207   1.367 -0.6073  1.8011  0.4484
 4788SOL    HW318919   1.248   3.295   1.365 -2.2703 -0.4329 -0.0022
 4788SOL    MW418920   1.287   3.220   1.385 -0.8408  0.3800  0.4669
 4789SOL     OW18921   2.737   4.599   3.816 -0.0569 -0.0998 -0.6474
 4789SOL    HW218922   2.796   4.618   3.743  1.4003  0.4337  0.6369
 4789SOL    HW318923   2.673   4.670   3.814 -0.2395 -0.2736 -1.5856
 4789SOL    MW418924   2.736   4.611   3.806  0.1113 -0.0523 -0.6018
 4790SOL     OW18925   3.264   4.280   2.329  0.2529  0.2258 -0.6735
 4790SOL    HW218926   3.189   4.340   2.320  0.2776  0.1809 -1.2076
 4790SOL    HW318927   3.243   4.226   2.405  0.6352  1.5003  0.3698
 4790SOL    MW418928   3.251   4.281   2.338  0.3066  0.3881 -0.6063
 4791SOL     OW18929   2.307   4.272   5.469  1.0148 -0.0515  0.2668
 4791SOL    HW218930   2.227   4.251   5.516 -0.2431  0.5424 -1.5250
 4791SOL    HW318931   2.321   4.365   5.486  1.6329 -0.2638  0.9832
 4791SOL    MW418932   2.299   4.281   5.477  0.9303 -0.0012  0.1249
 4792SOL     OW18933   1.804   3.751   0.477 -0.3571  0.5323  0.0573
 4792SOL    HW218934   1.849   3.675   0.439  2.2867  2.1151 -0.2239
 4792SOL    HW318935   1.803   3.733   0.571 -0.5854 -0.2670 -0.0914
 4792SOL    MW418936   1.810   3.739   0.484 -0.0384  0.6357  0.0006
 4793SOL     OW18937   5.288   1.168   4.386  0.3782 -0.1775 -0.3025
 4793SOL    HW218938   5.350   1.141   4.454  0.4339 -0.0437 -0.3000
 4793SOL    HW318939   5.250   1.249   4.419  0.7199  0.1184 -0.6256
 4793SOL    MW418940   5.291   1.175   4.399  0.4307 -0.1208 -0.3448
 4794SOL     OW18941   0.851   2.463   5.665  0.6693  0.0209  0.4068
 4794SOL    HW218942   0.773   2.408   5.658 -0.1593  1.2885 -0.8608
 4794SOL    HW318943   0.924   2.402   5.651  0.0739 -1.4574  3.0355
 4794SOL    MW418944   0.851   2.447   5.662  0.4814 -0.0069  0.5864
 4795SOL     OW18945   4.973   4.328   5.031  0.6276 -0.5364 -0.2666
 4795SOL    HW218946   4.905   4.289   5.086 -0.0837  0.2775 -0.5436
 4795SOL    HW318947   5.042   4.261   5.027 -0.6685 -1.8957 -0.9680
 4795SOL    MW418948   4.973   4.314   5.038  0.3627 -0.6083 -0.3957
 4796SOL     OW18949   4.419   4.992   2.878 -0.0371 -0.4109  0.0978
 4796SOL    HW218950   4.345   4.937   2.905  0.2422  0.1380  2.1804
 4796SOL    HW318951   4.428   4.977   2.784 -2.4969 -0.8377 -0.1215
 4796SOL    MW418952   4.411   4.983   2.869 -0.3248 -0.3948  0.3437
 4797SOL     OW18953   4.235   0.507   0.108 -0.2172  0.1166 -0.3684
 4797SOL    HW218954   4.153   0.547   0.138  0.2899  0.6337  0.3932
 4797SOL    HW318955   4.209   0.448   0.037 -1.4116 -0.6472  0.6420
 4797SOL    MW418956   4.221   0.504   0.103 -0.3079  0.0841 -0.1346
 4798SOL     OW18957   5.387   2.206   3.872 -0.0905 -0.1006 -0.9275
 4798SOL    HW218958   5.366   2.240   3.959 -2.6511 -1.3513 -0.9904
 4798SOL    HW318959   5.476   2.239   3.855  0.3642  0.4633  1.9830
 4798SOL    MW418960   5.396   2.215   3.881 -0.3684 -0.1912 -0.5518
 4799SOL     OW18961   0.734   0.686   4.214 -0.1911  0.2861 -0.3323
 4799SOL    HW218962   0.801   0.638   4.166 -0.0596  0.6390 -0.5020
 4799SOL    HW318963   0.696   0.621   4.274 -0.0386 -0.0357 -0.5835
 4799SOL    MW418964   0.738   0.671   4.216 -0.1536  0.2902 -0.3879
 4800SOL     OW18965   0.999   1.413   1.194  0.2293 -0.6747 -0.1378
 4800SOL    HW218966   0.937   1.351   1.157 -0.2910 -0.0555 -0.3229
 4800SOL    HW318967   1.042   1.452   1.118 -1.2490  1.0205 -0.1814
 4800SOL    MW418968   0.996   1.410   1.179 -0.0344 -0.3694 -0.1680
 4801SOL     OW18969   1.417   0.129   4.095  0.6524 -0.3342 -0.0714
 4801SOL    HW218970   1.349   0.174   4.143 -0.0552 -0.9345 -0.4936
 4801SOL    HW318971   1.486   0.113   4.159  0.3587  0.1937  0.3771
 4801SOL    MW418972   1.417   0.133   4.110  0.5203 -0.3438 -0.0680
 4802SOL     OW18973   0.558   2.257   1.549  0.7115  0.1782  0.1470
 4802SOL    HW218974   0.520   2.341   1.574 -0.0625 -0.4297  1.1102
 4802SOL    HW318975   0.544   2.250   1.455  0.4468  0.9508  0.1233
 4802SOL    MW418976   0.551   2.267   1.540  0.5745  0.2000  0.2709
 4803SOL     OW18977   1.346   0.580   1.361 -0.4244  0.3631 -0.6458
 4803SOL    HW218978   1.291   0.508   1.390  0.6613 -0.5737 -0.8240
 4803SOL    HW318979   1.285   0.650   1.336 -1.5071 -0.6049 -0.7474
 4803SOL    MW418980   1.331   0.580   1.361 -0.4240  0.1118 -0.6827
 4804SOL     OW18981   1.805   2.760   1.884 -0.0211  0.3801  0.1460
 4804SOL    HW218982   1.809   2.787   1.792  0.9770  0.9921  0.3518
 4804SOL    HW318983   1.766   2.835   1.929 -1.4879 -0.3176  0.1021
 4804SOL    MW418984   1.801   2.773   1.877 -0.0830  0.3688  0.1674
 4805SOL     OW18985   6.092   5.183   6.022 -0.5420  0.2862  0.2657
 4805SOL    HW218986   6.069   5.242   6.094 -0.1976  0.7426  0.0106
 4805SOL    HW318987   6.137   5.239   5.959 -0.7789 -0.1253 -0.2740
 4805SOL    MW418988   6.095   5.198   6.023 -0.5278  0.2922  0.1608
 4806SOL     OW18989   4.364   4.744   4.281 -0.2124  0.1393 -0.4164
 4806SOL    HW218990   4.374   4.836   4.259 -0.0078  0.3701  0.6247
 4806SOL    HW318991   4.272   4.735   4.308 -0.4222 -0.1123 -1.1833
 4806SOL    MW418992   4.353   4.755   4.282 -0.2131  0.1365 -0.3802
 4807SOL     OW18993   3.046   0.702   2.628 -0.3567 -0.4235  0.2514
 4807SOL    HW218994   3.059   0.721   2.721 -2.3719  1.9471  0.1365
 4807SOL    HW318995   2.963   0.655   2.625  0.7650 -2.5102 -0.2365
 4807SOL    MW418996   3.037   0.698   2.640 -0.4746 -0.3861  0.1719
 4808SOL     OW18997   0.949   6.093   3.498 -0.0006 -0.0993  0.1443
 4808SOL    HW218998   0.969   6.063   3.409  0.7730  1.1309 -0.1163
 4808SOL    HW318999   1.023   6.150   3.521 -1.2192  1.2683  0.7655
 4808SOL    MW419000   0.962   6.096   3.489 -0.0593  0.2435  0.1919
 4809SOL     OW19001   1.073   1.263   5.497 -0.5282  0.1616  0.2645
 4809SOL    HW219002   1.110   1.204   5.563  0.6788  0.3576 -0.2159
 4809SOL    HW319003   1.145   1.281   5.437 -1.2059  1.1703 -0.2824
 4809SOL    MW419004   1.087   1.258   5.498 -0.4584  0.3205  0.1290
 4810SOL     OW19005   6.235   2.021   0.183 -0.1361  0.2446 -0.0680
 4810SOL    HW219006   6.170   2.051   0.120 -0.6003  1.8606  1.0900
 4810SOL    HW319007   6.194   2.038   0.269  1.0635 -0.4495  0.6677
 4810SOL    MW419008   6.221   2.028   0.186 -0.0390  0.3662  0.1819
 4811SOL     OW19009   3.889   3.991   4.772 -0.1838  0.8816  0.0192
 4811SOL    HW219010   3.873   3.932   4.846 -1.2969  1.6959  0.4676
 4811SOL    HW319011   3.984   3.990   4.760 -0.1832 -1.0198 -0.0250
 4811SOL    MW419012   3.899   3.983   4.780 -0.3306  0.7382  0.0725
 4812SOL     OW19013   5.993   1.083   1.210  0.0737  0.1572  0.2088
 4812SOL    HW219014   5.944   1.125   1.140 -0.2186 -0.4138  0.0670
 4812SOL    HW319015   6.081   1.120   1.203  0.2593 -0.4502 -0.9538
 4812SOL    MW419016   5.998   1.093   1.200  0.0596  0.0017  0.0367
 4813SOL     OW19017   3.052   1.125   2.968 -0.0305  0.1086 -0.3185
 4813SOL    HW219018   3.014   1.120   2.880 -0.2416 -1.2909 -0.1648
 4813SOL    HW319019   3.103   1.206   2.967 -1.8245  1.2944 -0.9892
 4813SOL    MW419020   3.054   1.135   2.956 -0.2950  0.0804 -0.3867
 4814SOL     OW19021   1.080   2.527   2.098  0.0103  0.6612  0.5081
 4814SOL    HW219022   0.999   2.552   2.143 -1.4448  0.0078 -1.5849
 4814SOL    HW319023   1.099   2.439   2.131 -0.7910  0.3632  0.1994
 4814SOL    MW419024   1.072   2.519   2.109 -0.2874  0.5356  0.1912
 4815SOL     OW19025   0.314   2.651   5.779  0.1044 -0.4857 -0.5838
 4815SOL    HW219026   0.337   2.627   5.690  0.6394  1.3191 -0.9689
 4815SOL    HW319027   0.245   2.718   5.769 -0.4614 -0.9013  0.3863
 4815SOL    MW419028   0.308   2.657   5.766  0.1003 -0.3024 -0.5066
 4816SOL     OW19029   2.841   3.476   1.401 -0.8830 -0.0050 -0.6608
 4816SOL    HW219030   2.932   3.481   1.433 -0.8335  1.9709 -1.0208
 4816SOL    HW319031   2.848   3.437   1.314 -0.1845  1.5070 -1.3120
 4816SOL    MW419032   2.854   3.472   1.394 -0.7843  0.4552 -0.7942
 4817SOL     OW19033   1.082   2.932   3.455  0.0421 -0.1804  0.2169
 4817SOL    HW219034   1.028   2.929   3.535  1.1353 -0.7595  0.9638
 4817SOL    HW319035   1.161   2.979   3.481 -0.2782  1.1115 -1.0073
 4817SOL    MW419036   1.085   2.938   3.469  0.1441 -0.0864  0.1539
 4818SOL     OW19037   5.117   4.354   4.737 -0.2940 -0.5939 -0.1484
 4818SOL    HW219038   5.159   4.408   4.670 -0.7610 -1.3954 -1.1046
 4818SOL    HW319039   5.031   4.395   4.750 -0.7083 -1.1779 -0.9848
 4818SOL    MW419040   5.111   4.367   4.730 -0.4103 -0.7767 -0.3849
 4819SOL     OW19041   6.324   3.915   1.270 -0.5408  0.2686 -0.3669
 4819SOL    HW219042   6.411   3.881   1.252 -0.9989 -1.6502  0.8185
 4819SOL    HW319043   6.265   3.841   1.255 -1.9867  1.4999 -1.0867
 4819SOL    MW419044   6.327   3.901   1.265 -0.7920  0.1779 -0.3055
 4820SOL     OW19045   3.268   0.405   4.182 -0.2023  0.6671  0.2423
 4820SOL    HW219046   3.209   0.392   4.108 -0.2326  0.4062  0.3116
 4820SOL    HW319047   3.344   0.450   4.145 -0.1124  0.3240  0.0046
 4820SOL    MW419048   3.270   0.409   4.168 -0.1944  0.5874  0.2201
 4821SOL     OW19049   4.133   3.508   3.655 -0.2252 -0.0199 -0.3122
 4821SOL    HW219050   4.116   3.437   3.716 -0.1322  0.3663  0.1724
 4821SOL    HW319051   4.048   3.549   3.640 -0.0144  0.8821  0.8215
 4821SOL    MW419052   4.120   3.504   3.661 -0.1851  0.1501 -0.0987
 4822SOL     OW19053   3.982   1.317   0.630 -0.1681  0.2575  0.3972
 4822SOL    HW219054   3.946   1.258   0.564 -0.4336  0.9749 -0.1166
 4822SOL    HW319055   4.064   1.276   0.657 -0.7165 -0.7287  0.6160
 4822SOL    MW419056   3.988   1.304   0.625 -0.2755  0.2220  0.3583
 4823SOL     OW19057   4.390   5.721   0.855  0.3379  0.4445  0.3933
 4823SOL    HW219058   4.390   5.644   0.799 -0.2273  1.5481 -1.2031
 4823SOL    HW319059   4.326   5.701   0.923 -0.4072 -0.1876 -0.4627
 4823SOL    MW419060   4.381   5.708   0.856  0.1650  0.5067  0.0697
 4824SOL     OW19061   4.702   5.640   3.417  0.0853  0.1792  0.5980
 4824SOL    HW219062   4.741   5.576   3.476 -0.5065  0.1174  0.9285
 4824SOL    HW319063   4.631   5.680   3.467 -0.3653  0.1939 -0.0360
 4824SOL    MW419064   4.698   5.637   3.431 -0.0522  0.1730  0.5580
 4825SOL     OW19065   5.373   4.470   6.204 -0.1470  0.2078  0.2886
 4825SOL    HW219066   5.415   4.528   6.141  0.3864 -0.7476 -0.2534
 4825SOL    HW319067   5.280   4.480   6.188 -0.0081 -0.7240 -1.3192
 4825SOL    MW419068   5.366   4.479   6.194 -0.0583 -0.0412  0.0050
 4826SOL     OW19069   4.009   3.530   3.927  0.4796 -0.2652  0.0382
 4826SOL    HW219070   4.022   3.595   3.996  1.6237 -0.7978  0.3462
 4826SOL    HW319071   3.918   3.542   3.900 -0.1234 -0.3178  1.9096
 4826SOL    MW419072   3.999   3.540   3.932  0.5510 -0.3424  0.3258
 4827SOL     OW19073   5.652   3.615   6.145 -0.4860 -0.2845  0.6768
 4827SOL    HW219074   5.726   3.665   6.111 -2.1052  0.6335 -1.8756
 4827SOL    HW319075   5.652   3.534   6.095 -1.1292 -0.2981  0.6792
 4827SOL    MW419076   5.662   3.611   6.134 -0.7845 -0.1652  0.3404
 4828SOL     OW19077   3.074   3.740   4.549 -0.1899  0.2976  0.2762
 4828SOL    HW219078   3.100   3.696   4.629  0.0156 -0.1822 -0.0490
 4828SOL    HW319079   3.039   3.670   4.493 -0.0661  0.5808 -0.1630
 4828SOL    MW419080   3.073   3.725   4.552 -0.1464  0.2717  0.1754
 4829SOL     OW19081   1.430   2.076   5.200 -0.4385 -0.6484 -0.3168
 4829SOL    HW219082   1.500   2.137   5.224 -1.7540  0.0684  2.0905
 4829SOL    HW319083   1.440   2.062   5.106  2.6803 -0.3163 -0.1209
 4829SOL    MW419084   1.441   2.082   5.191 -0.2006 -0.5100  0.0267
 4830SOL     OW19085   4.407   4.213   5.159 -0.2125  0.2975 -0.7955
 4830SOL    HW219086   4.326   4.260   5.143 -1.3347 -1.7995 -1.7390
 4830SOL    HW319087   4.462   4.231   5.083 -0.1203  0.9948 -0.5754
 4830SOL    MW419088   4.404   4.221   5.147 -0.3484  0.1128 -0.8909
 4831SOL     OW19089   0.236   6.250   2.883  0.0945 -0.1903 -0.4153
 4831SOL    HW219090   0.281   6.171   2.913  1.3322  0.8523  0.6000
 4831SOL    HW319091   0.157   6.254   2.937  0.3643 -0.3620 -0.0069
 4831SOL    MW419092   0.231   6.240   2.894  0.2934 -0.0754 -0.2275
 4832SOL     OW19093   5.653   2.299   2.215  0.3599  0.1374  0.3001
 4832SOL    HW219094   5.726   2.285   2.155  1.1976  1.0593  1.0700
 4832SOL    HW319095   5.591   2.354   2.167  0.6666  0.2385  0.0225
 4832SOL    MW419096   5.654   2.304   2.201  0.5109  0.2724  0.3650
 4833SOL     OW19097   0.479   5.477   1.187  0.0201 -0.3039 -0.4102
 4833SOL    HW219098   0.442   5.556   1.147  0.7638 -0.1067 -0.7429
 4833SOL    HW319099   0.574   5.489   1.179  0.2128 -0.1130  1.7125
 4833SOL    MW419100   0.487   5.489   1.181  0.1437 -0.2527 -0.1740
 4834SOL     OW19101   0.923   0.142   2.450  0.1544  0.0692 -0.1644
 4834SOL    HW219102   0.836   0.175   2.473 -0.6474  0.1232 -2.9725
 4834SOL    HW319103   0.983   0.198   2.498 -1.2793 -0.2255  2.1964
 4834SOL    MW419104   0.919   0.154   2.460 -0.1405  0.0374 -0.2234
 4835SOL     OW19105   0.449   4.465   3.297 -0.4789  0.4850  0.1449
 4835SOL    HW219106   0.533   4.489   3.338 -0.7522 -1.3767  1.9748
 4835SOL    HW319107   0.383   4.511   3.349 -0.8122 -1.6449  1.7166
 4835SOL    MW419108   0.452   4.474   3.309 -0.5589 -0.0417  0.5937
 4836SOL     OW19109   3.737   0.531   4.283  0.4806 -0.3597  0.4293
 4836SOL    HW219110   3.812   0.474   4.300  0.2891 -0.1129  2.4019
 4836SOL    HW319111   3.774   0.613   4.252  0.9986 -0.4095  0.9113
 4836SOL    MW419112   3.751   0.534   4.281  0.5236 -0.3337  0.7532
 4837SOL     OW19113   4.932   4.557   3.140  0.1080 -0.0091  0.3335
 4837SOL    HW219114   4.927   4.592   3.051 -0.5968  1.4185  0.8992
 4837SOL    HW319115   5.021   4.577   3.168  0.2140 -0.1270  0.0837
 4837SOL    MW419116   4.943   4.564   3.132  0.0290  0.1637  0.3751
 4838SOL     OW19117   6.224   0.910   1.827  0.4752  0.1896  0.3349
 4838SOL    HW219118   6.156   0.957   1.777 -1.8106 -1.8866  1.2616
 4838SOL    HW319119   6.249   0.838   1.770 -0.0625 -0.5622  1.0341
 4838SOL    MW419120   6.218   0.907   1.813  0.1027 -0.1835  0.5494
 4839SOL     OW19121   3.116   2.094   0.335  0.1996 -0.9357  0.3224
 4839SOL    HW219122   3.135   2.007   0.300 -1.6916 -1.1014 -0.3665
 4839SOL    HW319123   3.181   2.106   0.405  1.4159 -2.2779 -0.5262
 4839SOL    MW419124   3.127   2.084   0.340  0.1105 -1.1346  0.1196
 4840SOL     OW19125   1.412   5.544   1.641  0.5075  0.5983  0.5549
 4840SOL    HW219126   1.363   5.529   1.722 -1.5285  0.9184 -0.5431
 4840SOL    HW319127   1.382   5.630   1.611  1.8560  0.8510 -0.1226
 4840SOL    MW419128   1.402   5.553   1.648  0.4168  0.6739  0.3207
 4841SOL     OW19129   1.665   6.191   0.599  0.3285 -0.0918 -0.0274
 4841SOL    HW219130   1.590   6.140   0.629 -1.2410  0.3963 -2.7599
 4841SOL    HW319131   1.643   6.281   0.624 -0.2665  0.1111 -1.2047
 4841SOL    MW419132   1.652   6.196   0.606  0.0429 -0.0006 -0.5432
 4842SOL     OW19133   6.365   3.565   4.965  0.4518  0.0079 -0.5978
 4842SOL    HW219134   6.379   3.658   4.945  0.1655 -0.0911 -1.2878
 4842SOL    HW319135   6.338   3.527   4.882  0.3596 -0.6546 -0.2665
 4842SOL    MW419136   6.363   3.573   4.952  0.4018 -0.0925 -0.6452
 4843SOL     OW19137   2.081   3.957   6.246 -0.3821  0.1950 -0.0636
 4843SOL    HW219138   2.051   4.048   6.240  2.1798  1.2763  1.6546
 4843SOL    HW319139   2.116   3.937   6.159 -0.3729  1.1002 -0.2800
 4843SOL    MW419140   2.082   3.967   6.234 -0.0429  0.4571  0.1345
 4844SOL     OW19141   1.475   2.129   0.569  0.0901  0.4120 -0.3520
 4844SOL    HW219142   1.513   2.191   0.632  0.2950 -0.4820  0.4225
 4844SOL    HW319143   1.534   2.054   0.571 -1.5470 -0.9320  0.7355
 4844SOL    MW419144   1.488   2.127   0.578 -0.0989  0.1167 -0.1063
 4845SOL     OW19145   6.205   4.871   3.017 -0.0696  0.7746  0.3238
 4845SOL    HW219146   6.194   4.790   2.966  0.6240 -0.0451  1.4522
 4845SOL    HW319147   6.175   4.849   3.105 -2.3526  2.5039  0.0746
 4845SOL    MW419148   6.200   4.857   3.022 -0.2793  0.8946  0.4398
 4846SOL     OW19149   3.698   5.080   3.280  0.3629  0.2136  0.2878
 4846SOL    HW219150   3.704   5.106   3.189  0.5799 -0.0945  0.2130
 4846SOL    HW319151   3.703   4.984   3.279  0.9342  0.2346  0.6649
 4846SOL    MW419152   3.699   5.070   3.268  0.4669  0.1757  0.3277
 4847SOL     OW19153   3.781   5.053   1.104  1.0516  0.1617 -0.3133
 4847SOL    HW219154   3.713   5.060   1.036 -1.2742 -0.8554  1.7290
 4847SOL    HW319155   3.828   5.136   1.100 -1.5021  1.7034 -0.6951
 4847SOL    MW419156   3.778   5.065   1.094  0.4078  0.2309 -0.0942
 4848SOL     OW19157   0.390   0.972   4.104  0.0485  0.0016  0.2639
 4848SOL    HW219158   0.334   0.970   4.026  0.8488  0.0321 -0.3366
 4848SOL    HW319159   0.460   0.909   4.084  0.4689  0.2941  0.7997
 4848SOL    MW419160   0.392   0.963   4.091  0.2095  0.0442  0.2554
 4849SOL     OW19161   1.952   4.468   3.030 -0.5948  0.0418  0.6256
 4849SOL    HW219162   1.976   4.414   3.105  1.3398 -1.6450 -1.0586
 4849SOL    HW319163   1.925   4.406   2.963 -0.6102  1.3441 -0.6315
 4849SOL    MW419164   1.952   4.453   3.031 -0.3416 -0.0090  0.2376
 4850SOL     OW19165   5.656   0.256   3.973 -0.0820 -0.5457  0.5264
 4850SOL    HW219166   5.742   0.272   4.011  0.0440 -0.4502  0.2027
 4850SOL    HW319167   5.655   0.162   3.953  0.2231 -0.4181 -0.1344
 4850SOL    MW419168   5.667   0.245   3.975 -0.0251 -0.5163  0.3965
 4851SOL     OW19169   5.648   6.008   5.327 -0.1677 -0.1174  0.3806
 4851SOL    HW219170   5.698   5.928   5.343  0.3109  0.0806 -0.1033
 4851SOL    HW319171   5.581   5.982   5.264  0.8729  0.1705 -0.8898
 4851SOL    MW419172   5.646   5.994   5.321  0.0328 -0.0533  0.1491
 4852SOL     OW19173   3.200   0.253   2.430  0.2435  0.7047  0.7551
 4852SOL    HW219174   3.214   0.272   2.523  0.5026  1.9213  0.4822
 4852SOL    HW319175   3.134   0.316   2.402 -1.3266 -0.9601  0.5541
 4852SOL    MW419176   3.193   0.264   2.438  0.0705  0.6456  0.6926
 4853SOL     OW19177   4.341   6.367   3.242  0.7235  0.5224 -0.0045
 4853SOL    HW219178   4.376   6.286   3.279  0.2189  1.3692  2.5277
 4853SOL    HW319179   4.414   6.406   3.195  1.3953 -0.6768  0.0132
 4853SOL    MW419180   4.355   6.361   3.241  0.7456  0.4759  0.3319
 4854SOL     OW19181   5.033   3.479   3.597  0.3473 -0.6249  0.0577
 4854SOL    HW219182   5.000   3.391   3.615  0.6342 -0.5956  0.7649
 4854SOL    HW319183   5.074   3.473   3.511  0.9069 -1.3424  0.3652
 4854SOL    MW419184   5.034   3.467   3.588  0.4590 -0.7157  0.1916
 4855SOL     OW19185   5.191   1.347   1.640 -0.3094 -0.5582 -0.0386
 4855SOL    HW219186   5.264   1.284   1.640 -1.0965 -1.5575 -1.8971
 4855SOL    HW319187   5.119   1.300   1.598 -1.4229  1.0789 -0.0528
 4855SOL    MW419188   5.191   1.332   1.634 -0.5602 -0.4741 -0.2857
 4856SOL     OW19189   4.425   2.741   0.535  0.5061 -0.2035 -0.3252
 4856SOL    HW219190   4.489   2.754   0.605 -0.7498  2.8189  0.4102
 4856SOL    HW319191   4.473   2.763   0.455  0.6922  1.1864  0.1303
 4856SOL    MW419192   4.440   2.746   0.534  0.3649  0.3786 -0.1681
 4857SOL     OW19193   0.319   2.898   2.527  0.4885  0.0497  0.3375
 4857SOL    HW219194   0.334   2.865   2.615  1.3798 -1.4391 -0.3315
 4857SOL    HW319195   0.377   2.974   2.519  1.9580 -1.0445  0.3647
 4857SOL    MW419196   0.329   2.904   2.537  0.8000 -0.2911  0.2528
 4858SOL     OW19197   2.546   0.958   1.136 -0.4982 -0.2216 -0.2989
 4858SOL    HW219198   2.524   1.045   1.169  0.2324  0.1659 -0.7798
 4858SOL    HW319199   2.462   0.913   1.127 -1.0634  1.0077 -1.6109
 4858SOL    MW419200   2.532   0.964   1.139 -0.4764 -0.0083 -0.5355
 4859SOL     OW19201   1.293   2.756   4.727 -0.1581  0.5174  0.3286
 4859SOL    HW219202   1.253   2.831   4.770  0.6079  0.5346  1.0311
 4859SOL    HW319203   1.224   2.690   4.724 -0.5406  0.9022  0.6063
 4859SOL    MW419204   1.279   2.757   4.732 -0.1075  0.5705  0.4579
 4860SOL     OW19205   2.781   3.700   0.049  0.0500  0.6478  0.0771
 4860SOL    HW219206   2.741   3.785   0.031  1.7600  1.4446 -0.2056
 4860SOL    HW319207   2.708   3.638   0.052 -1.1046  1.8992 -1.1180
 4860SOL    MW419208   2.766   3.703   0.047  0.1233  0.9180 -0.1178
 4861SOL     OW19209   0.699   0.487   0.116  0.5024  0.5896  0.0271
 4861SOL    HW219210   0.737   0.538   0.045  1.1951 -0.4442 -0.3801
 4861SOL    HW319211   0.606   0.478   0.094  0.8511 -0.3636 -1.1777
 4861SOL    MW419212   0.692   0.492   0.104  0.6398  0.3275 -0.1856
 4862SOL     OW19213   0.191   6.091   4.120 -0.3318 -0.5952 -0.7158
 4862SOL    HW219214   0.223   6.068   4.207  0.7865  0.3791 -0.8418
 4862SOL    HW319215   0.099   6.064   4.120 -0.7401  0.6051  1.2600
 4862SOL    MW419216   0.183   6.085   4.131 -0.2381 -0.3083 -0.4718
 4863SOL     OW19217   6.369   4.256   4.031 -0.1336  0.3757 -0.4221
 4863SOL    HW219218   6.377   4.187   4.097 -0.7637 -1.4781 -2.1768
 4863SOL    HW319219   6.457   4.266   3.996 -0.3714 -0.9921 -1.4958
 4863SOL    MW419220   6.381   4.248   4.035 -0.2481 -0.0493 -0.7953
 4864SOL     OW19221   0.338   4.956   2.595 -0.6588 -0.0274 -0.1557
 4864SOL    HW219222   0.330   4.861   2.594  4.0992 -0.6996  0.0159
 4864SOL    HW319223   0.332   4.980   2.688 -0.6079 -0.3688 -0.0622
 4864SOL    MW419224   0.336   4.947   2.607 -0.0244 -0.1611 -0.1207
 4865SOL     OW19225   4.401   3.416   1.659  0.0754 -0.4118  0.6730
 4865SOL    HW219226   4.331   3.366   1.700 -0.6449  1.2428  1.5484
 4865SOL    HW319227   4.363   3.503   1.643  1.5703  0.1731  0.1103
 4865SOL    MW419228   4.387   3.421   1.662  0.1776 -0.1163  0.7143
 4866SOL     OW19229   3.033   3.794   2.489  0.1163 -0.4825 -0.0315
 4866SOL    HW219230   3.023   3.751   2.404 -0.8176  0.0768 -0.2175
 4866SOL    HW319231   3.004   3.728   2.552  0.6541 -0.8400 -0.1514
 4866SOL    MW419232   3.028   3.779   2.486  0.0640 -0.4558 -0.0719
 4867SOL     OW19233   2.962   3.583   6.281  0.6282  0.0232 -0.7026
 4867SOL    HW219234   2.913   3.551   6.205  1.7248 -0.8818 -1.0582
 4867SOL    HW319235   2.896   3.622   6.337 -0.7617 -2.3763 -0.5188
 4867SOL    MW419236   2.947   3.584   6.278  0.5895 -0.4127 -0.7252
 4868SOL     OW19237   0.635   0.127   5.833 -0.5031 -0.3522  0.2202
 4868SOL    HW219238   0.571   0.092   5.895 -0.1805 -0.2794  0.6060
 4868SOL    HW319239   0.690   0.185   5.886 -0.0062 -0.5585 -0.0582
 4868SOL    MW419240   0.634   0.130   5.848 -0.3950 -0.3698  0.2344
 4869SOL     OW19241   0.167   4.938   0.714  0.7206 -0.5926 -0.3280
 4869SOL    HW219242   0.184   5.030   0.691  1.2771 -0.7148 -0.4161
 4869SOL    HW319243   0.236   4.916   0.777  0.7552 -1.0308 -0.5158
 4869SOL    MW419244   0.179   4.947   0.720  0.7986 -0.6665 -0.3644
 4870SOL     OW19245   3.097   4.812   0.198 -0.6452  0.2794 -0.0254
 4870SOL    HW219246   3.085   4.906   0.191  1.3464  0.5616 -0.4472
 4870SOL    HW319247   3.015   4.779   0.236 -0.5559  2.4415  2.3148
 4870SOL    MW419248   3.085   4.820   0.202 -0.3707  0.6019  0.2277
 4871SOL     OW19249   2.564   0.244   5.571 -0.1940 -0.2467  0.2062
 4871SOL    HW219250   2.602   0.317   5.523  1.3314 -0.7301  0.6056
 4871SOL    HW319251   2.506   0.285   5.636  0.7129  0.6244  0.4921
 4871SOL    MW419252   2.561   0.259   5.573  0.1269 -0.1955  0.2967
 4872SOL     OW19253   5.678   1.624   3.206 -0.0588 -0.2633  0.7559
 4872SOL    HW219254   5.608   1.655   3.148 -0.3484  0.2516  1.3661
 4872SOL    HW319255   5.671   1.529   3.203 -0.2385 -0.2389  0.1515
 4872SOL    MW419256   5.668   1.616   3.198 -0.1207 -0.1921  0.7567
 4873SOL     OW19257   4.995   1.792   0.317  0.5095  0.0049 -0.1011
 4873SOL    HW219258   4.934   1.845   0.369  0.6293 -0.6934  0.7670
 4873SOL    HW319259   4.975   1.816   0.226  0.1516  1.0895  0.2454
 4873SOL    MW419260   4.984   1.802   0.312  0.4781  0.0559  0.0592
 4874SOL     OW19261   4.243   3.640   1.664 -0.4896 -0.9746 -0.1490
 4874SOL    HW219262   4.179   3.625   1.733 -0.4701  0.2256  0.1609
 4874SOL    HW319263   4.215   3.722   1.622  0.7334 -0.5087 -0.1076
 4874SOL    MW419264   4.231   3.649   1.667 -0.3257 -0.7548 -0.1026
 4875SOL     OW19265   1.109   0.729   2.234  0.0546  0.1417  0.8926
 4875SOL    HW219266   1.091   0.649   2.185  0.5463  2.0195 -2.7225
 4875SOL    HW319267   1.170   0.703   2.302  0.5240 -2.4901 -0.4114
 4875SOL    MW419268   1.114   0.715   2.236  0.1815  0.0422  0.2436
 4876SOL     OW19269   4.779   6.080   2.857  0.7281  0.4000  0.0465
 4876SOL    HW219270   4.782   6.173   2.876 -2.1730  0.3702  1.2158
 4876SOL    HW319271   4.805   6.038   2.939 -1.2654  0.2699  0.6811
 4876SOL    MW419272   4.783   6.086   2.871  0.0823  0.3789  0.2845
 4877SOL     OW19273   3.208   4.688   0.908  0.1364 -0.0431  0.5155
 4877SOL    HW219274   3.186   4.608   0.860  0.1285 -1.1229  2.2573
 4877SOL    HW319275   3.126   4.738   0.911 -0.1269 -0.4617  0.3303
 4877SOL    MW419276   3.194   4.684   0.902  0.1006 -0.2408  0.7209
 4878SOL     OW19277   3.584   3.254   5.291 -0.3479 -0.3704 -0.2356
 4878SOL    HW219278   3.541   3.177   5.328 -1.1686 -0.2478 -0.9088
 4878SOL    HW319279   3.513   3.316   5.273  0.2737  0.4590  0.0767
 4878SOL    MW419280   3.569   3.252   5.294 -0.3742 -0.2448 -0.2832
 4879SOL     OW19281   0.720   1.398   1.080  0.6323  0.0077 -0.1379
 4879SOL    HW219282   0.705   1.352   1.163  2.4390  1.2619  0.9575
 4879SOL    HW319283   0.755   1.332   1.021 -1.1920 -1.0328 -0.1301
 4879SOL    MW419284   0.723   1.383   1.084  0.6299  0.0359  0.0077
 4880SOL     OW19285   6.205   1.378   6.190 -0.2518 -0.2372  0.1787
 4880SOL    HW219286   6.140   1.440   6.223  0.8095  1.4098 -0.6084
 4880SOL    HW319287   6.155   1.305   6.156 -1.6929  0.8621 -0.1617
 4880SOL    MW419288   6.190   1.377   6.190 -0.3019  0.1251  0.0300
 4881SOL     OW19289   1.571   0.136   3.833 -0.0038 -0.3616  0.2627
 4881SOL    HW219290   1.661   0.166   3.828 -0.7487  1.9525 -1.1560
 4881SOL    HW319291   1.547   0.147   3.925  1.1236 -0.9092  0.6282
 4881SOL    MW419292   1.579   0.141   3.845  0.0466 -0.1285  0.1238
 4882SOL     OW19293   4.605   4.373   1.124 -0.0249 -0.0723 -0.0315
 4882SOL    HW219294   4.602   4.468   1.112 -1.1628 -0.1682 -0.6365
 4882SOL    HW319295   4.694   4.356   1.154  0.0623  1.2357  0.5367
 4882SOL    MW419296   4.616   4.383   1.126 -0.1635  0.0876 -0.0364
 4883SOL     OW19297   2.803   1.097   4.506 -0.4613 -0.2479 -0.3547
 4883SOL    HW219298   2.742   1.120   4.576 -2.3780 -0.0144 -2.0072
 4883SOL    HW319299   2.753   1.111   4.425  0.8321 -2.8348 -1.7193
 4883SOL    MW419300   2.788   1.102   4.504 -0.5436 -0.5584 -0.7528
 4884SOL     OW19301   4.033   1.094   3.877 -0.0781  0.1148 -0.4607
 4884SOL    HW219302   4.011   1.061   3.964  1.0266  0.3024 -0.0939
 4884SOL    HW319303   3.999   1.028   3.816  0.0634 -0.5320  0.1600
 4884SOL    MW419304   4.025   1.081   3.880  0.0864  0.0542 -0.3304
 4885SOL     OW19305   2.746   3.352   0.839  0.2706  0.3310  0.4426
 4885SOL    HW219306   2.827   3.320   0.799  1.3588 -0.0510  2.7685
 4885SOL    HW319307   2.751   3.447   0.829  0.8096  0.2869  0.2393
 4885SOL    MW419308   2.757   3.361   0.832  0.4853  0.2748  0.7226
 4886SOL     OW19309   3.320   0.592   2.607  0.6279 -0.2912  0.0147
 4886SOL    HW219310   3.226   0.610   2.600  0.7902  1.1510  1.1651
 4886SOL    HW319311   3.324   0.508   2.654 -0.0681 -0.9964 -1.1200
 4886SOL    MW419312   3.308   0.583   2.612  0.5575 -0.1940  0.0168
 4887SOL     OW19313   1.902   2.611   4.880 -0.9894 -0.5092  0.4771
 4887SOL    HW219314   1.826   2.662   4.906 -1.1205 -1.2409  1.6099
 4887SOL    HW319315   1.977   2.668   4.900 -1.2117  0.0400 -0.2287
 4887SOL    MW419316   1.902   2.625   4.886 -1.0360 -0.5333  0.5335
 4888SOL     OW19317   3.513   2.169   0.816  0.3571  0.0888  0.3703
 4888SOL    HW219318   3.536   2.191   0.906 -0.3466  0.0074  0.5761
 4888SOL    HW319319   3.509   2.074   0.815  0.6752  0.0754  0.1703
 4888SOL    MW419320   3.516   2.159   0.828  0.3062  0.0763  0.3711
 4889SOL     OW19321   2.310   1.345   1.892 -0.6170 -0.4476 -0.3650
 4889SOL    HW219322   2.403   1.368   1.888 -0.0494 -2.6188 -0.7973
 4889SOL    HW319323   2.265   1.430   1.892  1.2897  0.6604 -1.8555
 4889SOL    MW419324   2.317   1.359   1.892 -0.2905 -0.5879 -0.6187
 4890SOL     OW19325   5.985   0.079   2.773 -0.4183 -0.1676 -0.1276
 4890SOL    HW219326   6.010   0.088   2.681  1.6931 -0.2019  0.3976
 4890SOL    HW319327   5.980   0.169   2.806  3.2879 -0.1275  0.7561
 4890SOL    MW419328   5.988   0.092   2.765  0.3493 -0.1669  0.0583
 4891SOL     OW19329   5.919   2.195   0.662 -0.0290 -0.1844  0.1968
 4891SOL    HW219330   6.005   2.217   0.628  0.9072 -1.2204  1.8035
 4891SOL    HW319331   5.892   2.117   0.613  0.5575 -0.6688  0.6397
 4891SOL    MW419332   5.926   2.188   0.651  0.1719 -0.3850  0.4672
 4892SOL     OW19333   5.612   2.238   0.453 -0.0672  0.5463 -0.2799
 4892SOL    HW219334   5.642   2.191   0.375  1.9029 -0.4766  0.9934
 4892SOL    HW319335   5.518   2.247   0.441 -0.5732 -3.4938 -0.8314
 4892SOL    MW419336   5.604   2.233   0.441  0.1260 -0.1217 -0.1846
 4893SOL     OW19337   3.304   5.201   3.849  0.0555 -0.2848  0.0123
 4893SOL    HW219338   3.371   5.265   3.825 -0.8522 -0.4004 -3.2990
 4893SOL    HW319339   3.341   5.154   3.924  1.6690  2.5975  1.1557
 4893SOL    MW419340   3.318   5.203   3.856  0.1486  0.0803 -0.2737
 4894SOL     OW19341   3.854   5.226   0.108  0.2695  0.4949  0.2907
 4894SOL    HW219342   3.846   5.216   0.013  1.8500  0.3237  0.1481
 4894SOL    HW319343   3.778   5.278   0.133 -2.7759 -3.1463 -0.3831
 4894SOL    MW419344   3.843   5.231   0.099  0.0762 -0.0081  0.1830
 4895SOL     OW19345   1.395   4.095   3.235 -0.3378  0.6493  0.4272
 4895SOL    HW219346   1.430   4.106   3.146 -0.1270 -0.2376  0.3934
 4895SOL    HW319347   1.330   4.166   3.243  0.0681  1.1157 -0.2082
 4895SOL    MW419348   1.391   4.106   3.224 -0.2564  0.5938  0.3389
 4896SOL     OW19349   5.503   3.425   4.575  0.3233  0.8927 -0.0154
 4896SOL    HW219350   5.505   3.521   4.568  0.2119  0.9562  0.7232
 4896SOL    HW319351   5.415   3.401   4.546 -1.1389  1.3842  3.4960
 4896SOL    MW419352   5.491   3.434   4.570  0.1156  0.9659  0.5454
 4897SOL     OW19353   4.145   0.671   3.178 -0.1053  0.6353 -0.1772
 4897SOL    HW219354   4.165   0.689   3.086  1.0620 -0.0324 -0.0670
 4897SOL    HW319355   4.072   0.730   3.198 -0.8208  0.3181 -1.7126
 4897SOL    MW419356   4.138   0.681   3.169 -0.0457  0.5054 -0.3653
 4898SOL     OW19357   3.628   1.307   4.058 -0.0981  0.1431  0.0238
 4898SOL    HW219358   3.554   1.335   4.004  0.1632  1.3467  0.2615
 4898SOL    HW319359   3.653   1.222   4.021 -2.0823 -0.6855  0.4306
 4898SOL    MW419360   3.621   1.300   4.046 -0.3254  0.1926  0.1088
 4899SOL     OW19361   5.080   5.254   1.602 -0.1037  0.5854  0.2465
 4899SOL    HW219362   5.045   5.260   1.691  1.7811 -1.6669  1.2640
 4899SOL    HW319363   5.014   5.204   1.554 -1.0749  1.6979  0.3715
 4899SOL    MW419364   5.067   5.248   1.608  0.0168  0.4350  0.3972
 4900SOL     OW19365   0.080   2.244   6.323 -0.4070 -0.6252  0.3896
 4900SOL    HW219366   0.089   2.316   6.261 -1.0395 -0.9125 -0.0555
 4900SOL    HW319367   0.062   2.168   6.267  0.7661 -1.2333  0.8114
 4900SOL    MW419368   0.079   2.243   6.307 -0.3356 -0.7434  0.3865
 4901SOL     OW19369   5.057   1.488   2.861  0.4653 -0.0318  0.4598
 4901SOL    HW219370   5.009   1.521   2.937 -0.0726  0.8647 -0.2480
 4901SOL    HW319371   4.991   1.443   2.808  0.5126  0.6468 -0.2018
 4901SOL    MW419372   5.042   1.486   2.864  0.4005  0.1760  0.2791
 4902SOL     OW19373   5.169   1.069   1.268  0.4077 -0.3889 -0.3331
 4902SOL    HW219374   5.111   1.056   1.343  0.2230  0.5572 -0.2983
 4902SOL    HW319375   5.222   1.145   1.291  2.1188 -1.5819 -0.1005
 4902SOL    MW419376   5.168   1.077   1.281  0.6091 -0.4215 -0.2978
 4903SOL     OW19377   1.913   5.996   0.904 -0.5307  0.0007  0.2794
 4903SOL    HW219378   1.853   5.933   0.864 -0.5414 -0.0204  0.3276
 4903SOL    HW319379   1.925   6.064   0.838 -0.0128 -0.3759 -0.0160
 4903SOL    MW419380   1.907   5.996   0.890 -0.4638 -0.0518  0.2468
 4904SOL     OW19381   5.369   4.979   4.876 -0.0275 -0.0644  0.2258
 4904SOL    HW219382   5.436   5.035   4.914  0.4893 -0.8360  0.4838
 4904SOL    HW319383   5.392   4.974   4.783  0.1388 -0.1410  0.2705
 4904SOL    MW419384   5.381   4.985   4.869  0.0626 -0.1764  0.2658
 4905SOL     OW19385   0.630   6.119   2.872 -0.1949  0.2224  0.1752
 4905SOL    HW219386   0.542   6.084   2.884 -0.6859  0.6368 -1.8568
 4905SOL    HW319387   0.652   6.099   2.780  1.0831  1.7148  0.1026
 4905SOL    MW419388   0.622   6.112   2.861 -0.0911  0.4740 -0.1025
 4906SOL     OW19389   2.699   0.846   4.608 -0.4076 -0.0136  0.1356
 4906SOL    HW219390   2.733   0.921   4.558  0.5246 -0.1847  0.4919
 4906SOL    HW319391   2.759   0.774   4.587 -0.4125 -0.2651  0.9623
 4906SOL    MW419392   2.712   0.847   4.599 -0.2853 -0.0694  0.2917
 4907SOL     OW19393   4.183   3.046   2.271  0.6380 -0.4562 -0.1931
 4907SOL    HW219394   4.161   2.959   2.237  0.9628 -0.7895  0.4332
 4907SOL    HW319395   4.216   3.029   2.360 -2.1332  0.5404  1.1605
 4907SOL    MW419396   4.184   3.032   2.279  0.3152 -0.3687  0.0681
 4908SOL     OW19397   5.240   2.460   4.757 -0.2616  0.0695 -0.3441
 4908SOL    HW219398   5.165   2.497   4.710 -0.4972  0.6095  0.4218
 4908SOL    HW319399   5.249   2.516   4.834 -0.6877 -1.5079  0.9076
 4908SOL    MW419400   5.231   2.472   4.761 -0.3489 -0.0674 -0.0779
 4909SOL     OW19401   2.251   4.234   0.879  0.0282  0.4307 -0.3158
 4909SOL    HW219402   2.247   4.231   0.975  0.0537  0.8521 -0.3001
 4909SOL    HW319403   2.242   4.143   0.852  0.6292  0.2348  0.1156
 4909SOL    MW419404   2.249   4.222   0.888  0.1109  0.4605 -0.2568
 4910SOL     OW19405   6.298   0.940   0.851  0.0740 -0.2374 -0.1535
 4910SOL    HW219406   6.319   0.940   0.944  1.7504  2.1088 -0.4351
 4910SOL    HW319407   6.365   0.996   0.811 -0.6547 -1.0839 -2.7660
 4910SOL    MW419408   6.310   0.947   0.858  0.1991 -0.0396 -0.5353
 4911SOL     OW19409   4.157   2.545   6.301  0.1260  0.4077 -0.1253
 4911SOL    HW219410   4.216   2.617   6.322  0.1432 -0.2003  2.2964
 4911SOL    HW319411   4.187   2.473   6.357 -0.5689 -1.1495 -1.6635
 4911SOL    MW419412   4.169   2.545   6.311  0.0365  0.1221 -0.0087
 4912SOL     OW19413   6.233   4.095   5.906 -0.2741 -0.5144  0.3026
 4912SOL    HW219414   6.206   4.178   5.947  0.7864 -0.6287  1.2796
 4912SOL    HW319415   6.227   4.112   5.812  0.1937  0.7660  0.4832
 4912SOL    MW419416   6.228   4.108   5.899 -0.0725 -0.3606  0.4553
 4913SOL     OW19417   2.678   3.516   1.724  0.2531 -0.1861 -0.4902
 4913SOL    HW219418   2.643   3.535   1.637  0.9866  0.7539 -0.6001
 4913SOL    HW319419   2.722   3.432   1.715  1.3006  0.4301 -1.3439
 4913SOL    MW419420   2.680   3.507   1.712  0.4881  0.0192 -0.6173
 4914SOL     OW19421   0.058   3.033   3.101 -0.0432  0.1337 -0.6374
 4914SOL    HW219422   0.029   2.982   3.177  0.6850 -0.2758 -0.6280
 4914SOL    HW319423   0.105   2.970   3.046  0.7065  0.7438 -0.7107
 4914SOL    MW419424   0.061   3.018   3.104  0.1518  0.1602 -0.6458
 4915SOL     OW19425   0.514   4.440   0.875 -0.0368  0.0259 -0.0666
 4915SOL    HW219426   0.557   4.388   0.943  1.7181 -0.5199 -1.5158
 4915SOL    HW319427   0.548   4.529   0.888  1.4163 -0.3512 -1.0391
 4915SOL    MW419428   0.524   4.445   0.886  0.3864 -0.0959 -0.3861
 4916SOL     OW19429   1.673   3.747   0.060  0.3263 -0.1536 -0.5447
 4916SOL    HW219430   1.652   3.654   0.059 -0.4625  0.0228 -0.4484
 4916SOL    HW319431   1.758   3.753   0.015 -0.0009 -0.8232 -1.2580
 4916SOL    MW419432   1.682   3.736   0.054  0.1791 -0.2187 -0.6261
 4917SOL     OW19433   4.826   2.269   0.418  0.3128 -0.3488 -0.3139
 4917SOL    HW219434   4.794   2.359   0.421 -1.9419 -1.0211 -1.5750
 4917SOL    HW319435   4.779   2.225   0.488  0.1517 -0.8852 -0.7500
 4917SOL    MW419436   4.816   2.275   0.428 -0.0059 -0.5083 -0.5378
 4918SOL     OW19437   5.376   2.248   1.460  0.0717  0.0379 -0.5614
 4918SOL    HW219438   5.412   2.175   1.509  0.8329  0.5848 -0.2798
 4918SOL    HW319439   5.314   2.289   1.520  0.6829  0.4491 -0.1992
 4918SOL    MW419440   5.372   2.244   1.474  0.2528  0.1643 -0.4765
 4919SOL     OW19441   0.680   3.027   1.891 -0.2746 -0.3707 -0.4981
 4919SOL    HW219442   0.762   2.979   1.894 -0.5570 -0.7970  1.6271
 4919SOL    HW319443   0.616   2.965   1.856  0.3338  0.1044 -2.6018
 4919SOL    MW419444   0.682   3.013   1.887 -0.2316 -0.3643 -0.4952
 4920SOL     OW19445   6.401   3.004   1.588 -0.4936 -0.3636  0.3484
 4920SOL    HW219446   6.423   3.080   1.534  0.9346  0.1969  1.6314
 4920SOL    HW319447   6.482   2.983   1.634 -0.8402 -2.7371 -0.0248
 4920SOL    MW419448   6.414   3.011   1.587 -0.3509 -0.6028  0.4684
 4921SOL     OW19449   2.281   4.478   5.876 -0.1555 -0.0174 -0.0644
 4921SOL    HW219450   2.359   4.506   5.924 -0.5607  0.1317  0.5119
 4921SOL    HW319451   2.294   4.512   5.787 -1.0911  2.9476  0.8141
 4921SOL    MW419452   2.293   4.486   5.870 -0.3324  0.3934  0.1275
 4922SOL     OW19453   4.138   5.440   2.557  0.1995 -0.2041 -0.6969
 4922SOL    HW219454   4.224   5.478   2.539  0.1187 -0.1816 -1.0300
 4922SOL    HW319455   4.121   5.381   2.484  0.7698 -1.6643  0.3055
 4922SOL    MW419456   4.147   5.437   2.545  0.2641 -0.3938 -0.6086
 4923SOL     OW19457   1.394   4.188   0.965  0.0145 -0.2485  0.2330
 4923SOL    HW219458   1.358   4.263   0.919 -1.2546 -0.9851 -0.0342
 4923SOL    HW319459   1.475   4.220   1.006  1.1159  0.5063 -2.3100
 4923SOL    MW419460   1.400   4.202   0.964 -0.0077 -0.2461 -0.1377
 4924SOL     OW19461   1.307   5.580   3.492  0.0421  0.2230 -0.0350
 4924SOL    HW219462   1.217   5.610   3.477 -0.1469 -0.5430 -0.4892
 4924SOL    HW319463   1.301   5.526   3.571 -0.7129 -3.0332 -2.0908
 4924SOL    MW419464   1.294   5.577   3.500 -0.0824 -0.3077 -0.3661
 4925SOL     OW19465   4.399   5.668   4.041  0.4044  0.1927  0.3668
 4925SOL    HW219466   4.380   5.587   3.993  1.6061 -0.4750  0.9571
 4925SOL    HW319467   4.412   5.734   3.973 -0.7072 -0.0563 -0.1213
 4925SOL    MW419468   4.398   5.666   4.026  0.4163  0.0717  0.3803
 4926SOL     OW19469   0.007   4.494   4.835  0.4995  0.2108  0.5044
 4926SOL    HW219470  -0.017   4.523   4.747  4.8500 -1.2686 -1.4580
 4926SOL    HW319471  -0.066   4.441   4.865 -2.5979  3.4479 -0.6180
 4926SOL    MW419472  -0.006   4.491   4.828  0.6648  0.4427  0.0974
 4927SOL     OW19473   5.896   4.534   2.387  0.2812 -0.1458  0.0650
 4927SOL    HW219474   5.882   4.628   2.375  1.1198  0.0759  0.7229
 4927SOL    HW319475   5.928   4.503   2.302  1.5189  0.4751  0.2794
 4927SOL    MW419476   5.898   4.543   2.374  0.5551 -0.0347  0.1801
 4928SOL     OW19477   3.170   5.756   2.804  0.7029 -0.2896 -0.0568
 4928SOL    HW219478   3.084   5.734   2.769  0.7587  0.2346 -0.5391
 4928SOL    HW319479   3.231   5.707   2.748  0.7281 -0.5124  0.1646
 4928SOL    MW419480   3.167   5.746   2.792  0.7136 -0.2498 -0.0912
 4929SOL     OW19481   2.061   3.570   5.453 -0.7275 -0.2215 -0.0705
 4929SOL    HW219482   2.135   3.584   5.512 -1.6807 -0.0902  1.1301
 4929SOL    HW319483   2.027   3.658   5.436 -0.8383 -0.3099 -0.3090
 4929SOL    MW419484   2.066   3.583   5.458 -0.8679 -0.2159  0.0564
 4930SOL     OW19485   4.037   2.579   5.442  0.7361 -0.0857 -0.5046
 4930SOL    HW219486   3.995   2.631   5.374 -0.7120 -1.1987 -0.5191
 4930SOL    HW319487   3.975   2.582   5.515  0.6775 -1.6235 -0.4573
 4930SOL    MW419488   4.023   2.586   5.443  0.5373 -0.4354 -0.5003
 4931SOL     OW19489   2.469   1.735   3.905 -0.1532  0.4650  0.1924
 4931SOL    HW219490   2.508   1.649   3.919 -0.4664 -0.0224 -1.6947
 4931SOL    HW319491   2.376   1.722   3.928 -0.3106  0.1369 -0.5924
 4931SOL    MW419492   2.462   1.722   3.910 -0.2153  0.3574 -0.1602
 4932SOL     OW19493   0.565   2.704   3.226  0.2796 -0.2406 -0.4589
 4932SOL    HW219494   0.585   2.627   3.173 -0.2184  0.0278 -1.0554
 4932SOL    HW319495   0.489   2.679   3.279 -0.4429  0.1127 -1.3001
 4932SOL    MW419496   0.558   2.691   3.226  0.1186 -0.1586 -0.6486
 4933SOL     OW19497   4.830   1.245   4.549  0.3468  0.4075  0.7090
 4933SOL    HW219498   4.905   1.282   4.503 -0.5413  0.7587 -0.5054
 4933SOL    HW319499   4.864   1.222   4.636  1.6695  1.2152  0.4328
 4933SOL    MW419500   4.844   1.247   4.554  0.4041  0.5604  0.5123
 4934SOL     OW19501   4.131   3.265   4.161 -0.5270  0.3898  0.2506
 4934SOL    HW219502   4.174   3.326   4.101 -0.9127 -0.0704 -0.5226
 4934SOL    HW319503   4.054   3.312   4.192 -1.7235 -0.2156 -1.5992
 4934SOL    MW419504   4.126   3.279   4.157 -0.7358  0.2492 -0.0955
 4935SOL     OW19505   3.326   4.433   1.535  0.1915  0.2984 -0.0907
 4935SOL    HW219506   3.288   4.346   1.522 -0.2390  0.3743  0.6436
 4935SOL    HW319507   3.258   4.493   1.505  0.2950  0.3999 -0.1218
 4935SOL    MW419508   3.312   4.429   1.529  0.1483  0.3218  0.0021
 4936SOL     OW19509   4.160   0.386   6.308  0.2519  0.0197  0.0592
 4936SOL    HW219510   4.082   0.341   6.340 -0.9166  1.0882 -1.1468
 4936SOL    HW319511   4.219   0.316   6.281 -1.2071 -0.8426 -1.0527
 4936SOL    MW419512   4.158   0.371   6.309 -0.0948  0.0469 -0.2466
 4937SOL     OW19513   5.995   0.222   0.609  0.4616  0.2261 -0.5055
 4937SOL    HW219514   5.963   0.136   0.581  0.9607 -0.7109  1.6101
 4937SOL    HW319515   6.069   0.240   0.552  2.0004 -2.0013  0.6559
 4937SOL    MW419516   6.000   0.213   0.597  0.7305 -0.1914 -0.0731
 4938SOL     OW19517   3.689   6.309   4.465 -0.3114  0.6386  0.1644
 4938SOL    HW219518   3.685   6.379   4.400 -1.6692  0.6847  0.2800
 4938SOL    HW319519   3.703   6.354   4.548  1.1404  0.5976 -0.0300
 4938SOL    MW419520   3.690   6.324   4.467 -0.2990  0.6393  0.1540
 4939SOL     OW19521   4.732   2.703   2.100 -0.3051  0.3272 -0.3721
 4939SOL    HW219522   4.784   2.780   2.076 -0.1106  0.7273  1.2301
 4939SOL    HW319523   4.777   2.630   2.057  0.2437  0.9525 -0.8828
 4939SOL    MW419524   4.745   2.703   2.091 -0.2071  0.4625 -0.2281
 4940SOL     OW19525   0.435   0.848   5.501 -1.2980  0.3286  0.4820
 4940SOL    HW219526   0.522   0.888   5.509 -1.5473  1.1164 -0.5367
 4940SOL    HW319527   0.453   0.758   5.474 -0.8012  0.7009 -0.4922
 4940SOL    MW419528   0.449   0.841   5.499 -1.2654  0.4817  0.2191
 4941SOL     OW19529   2.459   5.577   3.084 -0.1075  0.4173 -0.6153
 4941SOL    HW219530   2.519   5.635   3.131 -0.3654  0.6428 -0.5619
 4941SOL    HW319531   2.461   5.495   3.133 -0.8944  0.8680  0.1898
 4941SOL    MW419532   2.467   5.574   3.097 -0.2454  0.5065 -0.5020
 4942SOL     OW19533   2.247   2.803   3.323 -0.0781  0.4469  0.6790
 4942SOL    HW219534   2.171   2.745   3.333 -0.6346  1.1905  0.8823
 4942SOL    HW319535   2.317   2.759   3.371 -0.3647 -0.2723  0.4503
 4942SOL    MW419536   2.246   2.790   3.331 -0.1893  0.4501  0.6757
 4943SOL     OW19537   1.712   5.935   3.605 -0.4303 -0.1605  0.3425
 4943SOL    HW219538   1.639   5.986   3.639  0.2424  0.1815  1.3443
 4943SOL    HW319539   1.716   5.957   3.512 -2.1206 -0.8679  0.0852
 4943SOL    MW419540   1.703   5.945   3.597 -0.5646 -0.2087  0.4407
 4944SOL     OW19541   1.462   3.812   2.568 -0.2988 -0.5483 -0.2292
 4944SOL    HW219542   1.410   3.736   2.543 -2.3668  0.5094  0.5882
 4944SOL    HW319543   1.434   3.881   2.508  0.8757 -0.1834 -0.3793
 4944SOL    MW419544   1.451   3.811   2.557 -0.4167 -0.3606 -0.1412
 4945SOL     OW19545   6.079   1.160   1.731 -0.6434 -0.1698  0.4994
 4945SOL    HW219546   6.149   1.210   1.774  0.6276 -1.5366  0.0852
 4945SOL    HW319547   5.999   1.205   1.758  0.4356  2.7920 -0.7177
 4945SOL    MW419548   6.078   1.173   1.740 -0.3334  0.0406  0.2842
 4946SOL     OW19549   1.389   3.993   0.758  0.7687  0.2513 -0.2367
 4946SOL    HW219550   1.312   4.005   0.702  0.8344  0.8167 -0.2089
 4946SOL    HW319551   1.375   4.052   0.832  1.5118  0.8194 -0.5304
 4946SOL    MW419552   1.377   4.003   0.760  0.8754  0.4008 -0.2718
 4947SOL     OW19553   0.021   2.382   5.839 -0.0515 -0.6226  0.2364
 4947SOL    HW219554  -0.047   2.315   5.830 -0.1678 -0.4101 -0.5840
 4947SOL    HW319555  -0.024   2.456   5.879  0.1536 -1.1358  1.4461
 4947SOL    MW419556   0.006   2.383   5.843 -0.0398 -0.6623  0.2878
 4948SOL     OW19557   0.548   4.314   6.277 -0.5902 -0.1065  0.3267
 4948SOL    HW219558   0.575   4.224   6.292 -0.6627 -0.0527  0.7864
 4948SOL    HW319559   0.473   4.327   6.334 -0.2493  0.4068  0.6762
 4948SOL    MW419560   0.542   4.304   6.286 -0.5548 -0.0317  0.4335
 4949SOL     OW19561   3.001   3.247   0.770  0.4045  0.0975  0.2958
 4949SOL    HW219562   3.069   3.191   0.732  0.1918 -0.8965  1.3476
 4949SOL    HW319563   3.042   3.284   0.848  0.2443  0.7360  0.0845
 4949SOL    MW419564   3.015   3.245   0.775  0.3553  0.0506  0.4067
 4950SOL     OW19565   4.092   4.562   1.286  0.4392 -0.3649  0.0574
 4950SOL    HW219566   4.103   4.615   1.208  0.8613 -0.5089  0.0169
 4950SOL    HW319567   3.999   4.572   1.309  0.3671 -0.1390 -0.3249
 4950SOL    MW419568   4.081   4.570   1.279  0.4854 -0.3541  0.0017
 4951SOL     OW19569   2.617   0.485   1.099  0.0121  0.4640 -0.2754
 4951SOL    HW219570   2.636   0.562   1.153  1.5071  0.4554 -0.7545
 4951SOL    HW319571   2.676   0.417   1.132 -1.0655 -0.3908 -0.0745
 4951SOL    MW419572   2.627   0.487   1.110  0.0672  0.3501 -0.3121
 4952SOL     OW19573   5.438   5.665   5.181  0.0754 -0.0788 -0.1801
 4952SOL    HW219574   5.410   5.591   5.127  1.0414  0.4454 -1.4621
 4952SOL    HW319575   5.381   5.661   5.258  1.8292 -3.7185  1.1627
 4952SOL    MW419576   5.427   5.655   5.184  0.4343 -0.4899 -0.1721
 4953SOL     OW19577   2.754   3.385   4.480  0.1348  0.1330 -0.2490
 4953SOL    HW219578   2.765   3.388   4.575 -2.3191 -1.9460  0.2120
 4953SOL    HW319579   2.751   3.292   4.458  0.5789  0.5501 -2.3913
 4953SOL    MW419580   2.755   3.373   4.489 -0.1304 -0.0862 -0.4708
 4954SOL     OW19581   3.703   1.070   6.374 -0.0448  0.5025 -0.0252
 4954SOL    HW219582   3.637   1.105   6.434  0.1558 -1.9804  1.8354
 4954SOL    HW319583   3.774   1.039   6.431  1.4210  0.4537 -1.7608
 4954SOL    MW419584   3.704   1.070   6.389  0.1750  0.1685 -0.0087
 4955SOL     OW19585   5.915   0.435   1.405 -0.7054 -0.2922  0.2270
 4955SOL    HW219586   5.888   0.521   1.438  0.4546  0.1072  0.1945
 4955SOL    HW319587   5.991   0.412   1.458 -0.3471 -0.7928 -0.4812
 4955SOL    MW419588   5.922   0.443   1.416 -0.5051 -0.3056  0.1292
 4956SOL     OW19589   4.757   1.528   4.586  0.1421  0.0288 -0.6110
 4956SOL    HW219590   4.747   1.568   4.500 -1.3493  0.8981 -0.0663
 4956SOL    HW319591   4.767   1.434   4.567 -0.2008  0.2013 -1.7270
 4956SOL    MW419592   4.757   1.521   4.572 -0.0999  0.1663 -0.6864
 4957SOL     OW19593   0.114   0.141   0.819  0.3211  0.1941  0.2527
 4957SOL    HW219594   0.059   0.172   0.891  0.1184  0.1855  0.1054
 4957SOL    HW319595   0.055   0.142   0.743 -0.3442 -2.6085  0.6385
 4957SOL    MW419596   0.099   0.145   0.818  0.2066 -0.1768  0.2842
 4958SOL     OW19597   3.109   4.871   4.711 -0.3806 -0.5772 -0.0044
 4958SOL    HW219598   3.123   4.947   4.767 -1.9232  0.5351 -1.0520
 4958SOL    HW319599   3.043   4.819   4.757  0.0479 -0.8406  0.3091
 4958SOL    MW419600   3.102   4.874   4.724 -0.5276 -0.4652 -0.1013
 4959SOL     OW19601   2.978   4.057   4.076  0.1445 -0.2557  0.6064
 4959SOL    HW219602   2.888   4.029   4.061  0.7232 -2.4492  0.9572
 4959SOL    HW319603   2.971   4.122   4.146 -1.1588 -0.3719  0.6047
 4959SOL    MW419604   2.965   4.062   4.083  0.0489 -0.5604  0.6525
 4960SOL     OW19605   1.219   0.172   5.124  0.1762 -0.0047 -0.3908
 4960SOL    HW219606   1.160   0.131   5.187 -0.8397  2.0805  0.0814
 4960SOL    HW319607   1.248   0.100   5.068 -1.9595 -1.2646  0.0347
 4960SOL    MW419608   1.215   0.157   5.125 -0.2396  0.1042 -0.2723
 4961SOL     OW19609   3.548   0.668   5.476  0.0786 -0.2279  0.0172
 4961SOL    HW219610   3.495   0.720   5.416  2.4697  0.8741 -1.2609
 4961SOL    HW319611   3.499   0.669   5.558 -2.3280 -0.1241 -1.3333
 4961SOL    MW419612   3.534   0.675   5.479  0.0766 -0.0688 -0.3296
 4962SOL     OW19613   6.115   2.210   6.141 -0.3938  0.2012  0.1295
 4962SOL    HW219614   6.148   2.183   6.227 -0.7471 -0.5861  0.0314
 4962SOL    HW319615   6.136   2.136   6.083 -2.7628 -0.6054  0.1836
 4962SOL    MW419616   6.122   2.197   6.145 -0.7530 -0.0091  0.1237
 4963SOL     OW19617   0.659   5.545   5.015 -0.1600  0.1875  0.1630
 4963SOL    HW219618   0.604   5.584   5.083 -0.1085  1.0826 -0.3043
 4963SOL    HW319619   0.743   5.591   5.022 -0.7404  1.6313 -1.7316
 4963SOL    MW419620   0.663   5.556   5.025 -0.2298  0.4961 -0.1486
 4964SOL     OW19621   1.921   4.703   0.353 -0.2323  0.0201  0.1072
 4964SOL    HW219622   1.900   4.611   0.342  1.6887 -0.5060  0.5768
 4964SOL    HW319623   1.841   4.742   0.390 -0.9480 -1.4928  0.2164
 4964SOL    MW419624   1.907   4.696   0.356 -0.0733 -0.2489  0.1835
 4965SOL     OW19625   3.673   2.289   0.199  0.0382 -0.0973 -0.2309
 4965SOL    HW219626   3.763   2.320   0.206  0.8110 -2.0422 -0.7460
 4965SOL    HW319627   3.619   2.368   0.198  1.6994  1.0814  0.5868
 4965SOL    MW419628   3.677   2.304   0.200  0.3594 -0.1984 -0.1910
 4966SOL     OW19629   2.068   2.080   0.069 -0.3543 -0.9743  0.1452
 4966SOL    HW219630   2.162   2.094   0.072 -0.1617 -1.9209 -0.7214
 4966SOL    HW319631   2.054   2.025  -0.008 -1.6627 -0.5139  0.0265
 4966SOL    MW419632   2.079   2.074   0.060 -0.5015 -1.0384  0.0152
 4967SOL     OW19633   0.506   3.985   4.066 -0.1716 -0.1436  0.1793
 4967SOL    HW219634   0.454   4.062   4.093 -1.1641 -0.6521 -0.2361
 4967SOL    HW319635   0.575   3.979   4.133 -0.0047  1.1663  0.1635
 4967SOL    MW419636   0.508   3.995   4.079 -0.2805 -0.0379  0.1224
 4968SOL     OW19637   5.339   0.578   0.262  0.4255  0.1686  0.3963
 4968SOL    HW219638   5.427   0.547   0.282 -0.1851 -2.0376 -0.0529
 4968SOL    HW319639   5.283   0.528   0.322 -0.6034  0.7060 -0.1026
 4968SOL    MW419640   5.343   0.567   0.273  0.2092 -0.0516  0.2712
 4969SOL     OW19641   3.934   3.413   3.213 -0.7450 -0.4865 -0.0625
 4969SOL    HW219642   3.999   3.464   3.262 -0.0724 -0.8355 -0.5650
 4969SOL    HW319643   3.903   3.473   3.145 -2.3701  0.3129  1.3136
 4969SOL    MW419644   3.939   3.428   3.210 -0.8707 -0.4270  0.0528
 4970SOL     OW19645   5.741   2.977   1.613 -0.5972 -0.1352 -1.0468
 4970SOL    HW219646   5.833   2.954   1.602 -0.9930 -1.7957 -1.2841
 4970SOL    HW319647   5.712   3.005   1.526 -1.0925 -2.9039 -1.8820
 4970SOL    MW419648   5.749   2.977   1.600 -0.7148 -0.7196 -1.1883
 4971SOL     OW19649   1.459   1.195   5.729  0.4204  0.0961 -0.0976
 4971SOL    HW219650   1.547   1.180   5.765  0.1510 -0.5879  0.2978
 4971SOL    HW319651   1.475   1.230   5.641  1.0902 -0.0958 -0.0612
 4971SOL    MW419652   1.473   1.197   5.722  0.4732 -0.0195 -0.0407
 4972SOL     OW19653   0.097   4.254   2.739  0.4099  0.2486  0.5659
 4972SOL    HW219654   0.156   4.269   2.666 -0.5208  0.5938 -0.1453
 4972SOL    HW319655   0.038   4.329   2.738 -1.1829 -0.9443  0.1044
 4972SOL    MW419656   0.097   4.266   2.729  0.0770  0.1367  0.4112
 4973SOL     OW19657   3.073   0.797   5.900  0.0058 -0.2375 -0.2974
 4973SOL    HW219658   3.039   0.814   5.988  1.9174  0.2817  0.3748
 4973SOL    HW319659   3.153   0.849   5.893 -0.5998  0.5253 -2.7288
 4973SOL    MW419660   3.079   0.806   5.910  0.1781 -0.0684 -0.5295
 4974SOL     OW19661   3.284   5.522   5.712  0.2007  0.0850 -0.9809
 4974SOL    HW219662   3.253   5.576   5.784 -1.6314 -0.6394 -1.1841
 4974SOL    HW319663   3.378   5.538   5.709 -0.1674  2.8377 -0.6832
 4974SOL    MW419664   3.292   5.532   5.721 -0.0895  0.3526 -0.9684
 4975SOL     OW19665   2.424   2.404   6.411  0.2328  0.2046 -0.2439
 4975SOL    HW219666   2.452   2.484   6.366 -1.6595  1.5863  0.8844
 4975SOL    HW319667   2.431   2.425   6.504 -1.9980 -0.2301  0.0875
 4975SOL    MW419668   2.428   2.417   6.417 -0.3112  0.3296 -0.0513
 4976SOL     OW19669   0.914   5.817   0.235 -0.2063 -0.3141  0.2306
 4976SOL    HW219670   0.918   5.773   0.320  1.3580 -0.3703  0.1514
 4976SOL    HW319671   0.882   5.750   0.175 -0.9057 -0.3998  0.6834
 4976SOL    MW419672   0.910   5.803   0.238 -0.0922 -0.3328  0.2799
 4977SOL     OW19673   2.634   2.213   4.195 -0.6879 -0.2603  0.2446
 4977SOL    HW219674   2.595   2.281   4.141 -0.6086 -0.4132 -0.0074
 4977SOL    HW319675   2.650   2.255   4.280 -1.1468 -0.1207  0.2638
 4977SOL    MW419676   2.631   2.227   4.199 -0.7380 -0.2621  0.2139
 4978SOL     OW19677   5.081   4.620   6.360  0.3021 -0.2334 -0.4261
 4978SOL    HW219678   5.129   4.690   6.315  1.7989 -1.2949 -0.5848
 4978SOL    HW319679   5.058   4.559   6.290  1.0462 -1.0008 -0.0288
 4978SOL    MW419680   5.085   4.621   6.345  0.5978 -0.4747 -0.3946
 4979SOL     OW19681   3.303   0.903   1.442 -0.0990  0.5030  0.2820
 4979SOL    HW219682   3.260   0.948   1.514 -0.0105  0.3272  0.4458
 4979SOL    HW319683   3.232   0.872   1.386 -0.1381  1.9423 -0.5085
 4979SOL    MW419684   3.288   0.905   1.444 -0.0925  0.6697  0.1993
 4980SOL     OW19685   3.809   2.532   3.216 -0.1467  0.7228 -0.2722
 4980SOL    HW219686   3.735   2.586   3.188  0.2916  0.7354 -1.4719
 4980SOL    HW319687   3.879   2.554   3.155  1.1786  1.4379  1.4132
 4980SOL    MW419688   3.809   2.542   3.205  0.0860  0.8188 -0.2081
 4981SOL     OW19689   0.581   2.145   2.440  0.3968 -0.6181  0.1672
 4981SOL    HW219690   0.583   2.051   2.460 -0.6188 -0.3094  1.9422
 4981SOL    HW319691   0.650   2.183   2.494 -0.4434 -0.1325  0.9395
 4981SOL    MW419692   0.590   2.138   2.450  0.1520 -0.5133  0.5033
 4982SOL     OW19693   2.638   4.318   6.143  0.1155 -0.5047  0.0226
 4982SOL    HW219694   2.720   4.328   6.191  0.7638  3.5734 -1.5307
 4982SOL    HW319695   2.640   4.228   6.111  2.3877 -1.5426  2.6688
 4982SOL    MW419696   2.649   4.308   6.145  0.5008 -0.1036  0.1668
 4983SOL     OW19697   4.008   2.026   1.168  0.3076  0.7542 -0.4150
 4983SOL    HW219698   3.966   2.104   1.205 -1.5463 -0.0584 -0.6914
 4983SOL    HW319699   4.073   2.000   1.233 -0.5445  1.2976  0.6886
 4983SOL    MW419700   4.011   2.033   1.181 -0.0494  0.7187 -0.3059
 4984SOL     OW19701   1.472   1.605   0.871  0.3829 -0.3669  0.5145
 4984SOL    HW219702   1.453   1.573   0.959 -1.6688 -0.6689  0.0182
 4984SOL    HW319703   1.386   1.617   0.831  1.2597 -1.3923 -1.8655
 4984SOL    MW419704   1.458   1.603   0.877  0.2278 -0.5421  0.1350
 4985SOL     OW19705   3.803   2.854   4.016  0.4605  0.2676  0.4135
 4985SOL    HW219706   3.856   2.781   3.984  0.7111  1.3941 -1.9026
 4985SOL    HW319707   3.851   2.932   3.990 -1.7664  1.3186 -0.8532
 4985SOL    MW419708   3.816   2.855   4.008  0.1998  0.5549 -0.0592
 4986SOL     OW19709   1.703   3.628   2.537  0.2561 -0.0146  0.0686
 4986SOL    HW219710   1.634   3.692   2.554 -0.5540 -0.9226  0.2787
 4986SOL    HW319711   1.710   3.625   2.441  1.0256  1.1190  0.0643
 4986SOL    MW419712   1.695   3.636   2.526  0.2507  0.0152  0.0958
 4987SOL     OW19713   5.125   5.442   3.736  0.1621  0.0508 -0.1063
 4987SOL    HW219714   5.111   5.359   3.691 -2.3122 -0.0266  0.6772
 4987SOL    HW319715   5.190   5.488   3.683 -0.6573 -1.1469 -2.2266
 4987SOL    MW419716   5.132   5.437   3.723 -0.2724 -0.1174 -0.2827
 4988SOL     OW19717   0.745   4.655   4.660 -0.3269  0.2535 -0.3397
 4988SOL    HW219718   0.731   4.696   4.746 -1.2052  0.6419 -0.6599
 4988SOL    HW319719   0.762   4.729   4.601 -0.2162  0.0271 -0.5930
 4988SOL    MW419720   0.745   4.671   4.664 -0.4282  0.2749 -0.4154
 4989SOL     OW19721   1.841   5.266   3.944 -0.3383  0.3257 -0.2226
 4989SOL    HW219722   1.900   5.335   3.914 -1.1208  1.2286  0.2240
 4989SOL    HW319723   1.894   5.186   3.944  0.9681  1.1553  0.4941
 4989SOL    MW419724   1.856   5.265   3.940 -0.2692  0.5543 -0.0692
 4990SOL     OW19725   6.321   2.264   4.683 -0.1253  1.0067 -0.1172
 4990SOL    HW219726   6.384   2.219   4.739 -1.2951  1.0929  1.2859
 4990SOL    HW319727   6.245   2.279   4.738 -2.7549 -1.9403 -2.5934
 4990SOL    MW419728   6.320   2.260   4.697 -0.6266  0.6293 -0.2588
 4991SOL     OW19729   0.472   3.963   2.629  0.9529  0.1787 -0.0982
 4991SOL    HW219730   0.439   3.933   2.714  1.0564 -0.3345 -0.2375
 4991SOL    HW319731   0.408   4.029   2.601  0.0252 -0.8051 -0.3682
 4991SOL    MW419732   0.459   3.968   2.637  0.8442 -0.0188 -0.1522
 4992SOL     OW19733   2.412   5.748   5.498 -0.1439  0.5865  0.1254
 4992SOL    HW219734   2.425   5.799   5.418  1.7305 -0.6202 -0.4176
 4992SOL    HW319735   2.338   5.691   5.478 -0.0615  0.7046 -0.5666
 4992SOL    MW419736   2.404   5.747   5.485  0.1143  0.4429 -0.0376
 4993SOL     OW19737   6.381   1.352   6.394 -0.5883  0.1761  0.0069
 4993SOL    HW219738   6.349   1.285   6.454  1.3488  0.6981  1.7381
 4993SOL    HW319739   6.320   1.350   6.321 -2.0396 -1.7063  1.1831
 4993SOL    MW419740   6.369   1.343   6.392 -0.5242 -0.0034  0.3905
 4994SOL     OW19741   3.370   4.311   2.803  0.6149 -0.2924 -0.2079
 4994SOL    HW219742   3.325   4.235   2.766  2.3826 -0.1209 -3.0054
 4994SOL    HW319743   3.300   4.372   2.826 -0.7309 -1.7981 -0.1566
 4994SOL    MW419744   3.355   4.309   2.801  0.6705 -0.4685 -0.5702
 4995SOL     OW19745   5.765   4.431   5.882 -0.3453 -0.1006 -0.3595
 4995SOL    HW219746   5.791   4.483   5.806  0.1871 -0.3100 -0.3251
 4995SOL    HW319747   5.762   4.494   5.954  0.3561 -0.1175 -0.3059
 4995SOL    MW419748   5.768   4.446   5.881 -0.1825 -0.1305 -0.3479
 4996SOL     OW19749   6.186   5.214   1.105  0.1785  0.4386  0.1095
 4996SOL    HW219750   6.174   5.124   1.072  1.6223 -0.0499  0.8284
 4996SOL    HW319751   6.259   5.248   1.053 -0.1571  1.0912  0.0619
 4996SOL    MW419752   6.194   5.206   1.094  0.3247  0.4602  0.1981
 4997SOL     OW19753   1.611   1.740   0.414  0.2931  0.7254 -0.0998
 4997SOL    HW219754   1.681   1.675   0.422 -0.6554 -0.2351  0.5279
 4997SOL    HW319755   1.590   1.765   0.504 -1.4224 -0.3814 -0.1510
 4997SOL    MW419756   1.618   1.735   0.427 -0.0584  0.4527 -0.0238
 4998SOL     OW19757   2.514   0.264   2.580 -0.5430  0.6946 -0.8615
 4998SOL    HW219758   2.556   0.298   2.500  0.1203 -1.7287 -1.6482
 4998SOL    HW319759   2.588   0.240   2.636 -0.9071 -0.8019 -0.9923
 4998SOL    MW419760   2.530   0.265   2.577 -0.5035  0.1774 -0.9825
 4999SOL     OW19761   4.779   3.548   5.072  0.1763 -0.1880  0.1599
 4999SOL    HW219762   4.686   3.540   5.095 -0.1573  1.8626 -0.3690
 4999SOL    HW319763   4.821   3.574   5.154  0.3472 -1.2901  0.4434
 4999SOL    MW419764   4.772   3.550   5.086  0.1549 -0.0629  0.1276
 5000SOL     OW19765   4.791   5.585   3.891 -0.5153  0.1395  0.5017
 5000SOL    HW219766   4.788   5.675   3.859 -0.7087 -0.7712 -2.2987
 5000SOL    HW319767   4.734   5.536   3.832  0.2320 -1.9823  1.4125
 5000SOL    MW419768   4.783   5.590   3.879 -0.4422 -0.2606  0.2524
 5001SOL     OW19769   4.578   1.741   5.042 -0.1544  0.4860  0.2228
 5001SOL    HW219770   4.566   1.760   4.949 -0.1557  0.9085  0.3097
 5001SOL    HW319771   4.529   1.810   5.087  1.2710  1.3086  0.5726
 5001SOL    MW419772   4.570   1.753   5.036  0.0335  0.6503  0.2804
 5002SOL     OW19773   4.501   5.180   0.312 -0.1589 -0.2251  0.0371
 5002SOL    HW219774   4.405   5.178   0.322 -0.1026  0.0202  0.6733
 5002SOL    HW319775   4.532   5.229   0.388  0.3855  0.9103 -0.8853
 5002SOL    MW419776   4.492   5.186   0.323 -0.0797 -0.0429 -0.0007
 5003SOL     OW19777   4.125   3.266   3.827 -0.5150 -0.2614 -0.2791
 5003SOL    HW219778   4.201   3.304   3.872 -0.0313 -1.3378 -0.1394
 5003SOL    HW319779   4.050   3.315   3.860  0.0477  0.3004  0.1846
 5003SOL    MW419780   4.125   3.277   3.837 -0.3769 -0.3293 -0.1995
 5004SOL     OW19781   4.014   4.447   2.454 -0.1827  0.2878 -0.2588
 5004SOL    HW219782   4.095   4.498   2.465  0.1853 -0.5694  1.3007
 5004SOL    HW319783   4.043   4.357   2.446 -0.9928 -0.0399  0.3702
 5004SOL    MW419784   4.028   4.442   2.454 -0.2410  0.1315  0.0300
 5005SOL     OW19785   1.225   1.668   2.102 -0.2278  0.0324  0.6733
 5005SOL    HW219786   1.252   1.714   2.022  0.0997  1.3770  1.5315
 5005SOL    HW319787   1.132   1.648   2.087  0.2759 -1.4013 -0.7972
 5005SOL    MW419788   1.216   1.672   2.089 -0.1182  0.0206  0.5925
 5006SOL     OW19789   2.264   2.567   1.181  0.6871 -0.1529 -0.4931
 5006SOL    HW219790   2.256   2.560   1.276  1.2472 -0.3346 -0.4545
 5006SOL    HW319791   2.179   2.599   1.152  1.5214  3.2292  0.3879
 5006SOL    MW419792   2.252   2.570   1.190  0.8711  0.2693 -0.3718
 5007SOL     OW19793   2.705   2.977   3.832  0.2775  0.1089 -0.2295
 5007SOL    HW219794   2.635   3.016   3.779 -0.6565  1.2784  1.7237
 5007SOL    HW319795   2.665   2.900   3.872  0.7338 -0.3430 -0.6368
 5007SOL    MW419796   2.690   2.972   3.830  0.2145  0.2036 -0.0255
 5008SOL     OW19797   5.909   4.575   5.691 -0.4639 -0.5088  0.1561
 5008SOL    HW219798   5.947   4.655   5.654 -2.8534 -0.1645 -1.7879
 5008SOL    HW319799   5.963   4.504   5.654  1.3386  0.0818  1.4811
 5008SOL    MW419800   5.921   4.576   5.681 -0.5413 -0.3855  0.0744
 5009SOL     OW19801   2.698   4.285   2.526  0.5524 -0.0500  0.2298
 5009SOL    HW219802   2.789   4.283   2.555  0.2255 -0.3252  1.2791
 5009SOL    HW319803   2.650   4.325   2.598 -0.2186 -0.2942 -0.1326
 5009SOL    MW419804   2.704   4.290   2.539  0.4075 -0.1185  0.3204
 5010SOL     OW19805   3.950   6.281   3.696  0.0046 -0.0659  0.0590
 5010SOL    HW219806   3.971   6.220   3.626  0.3963  0.4689 -0.3022
 5010SOL    HW319807   3.999   6.248   3.772  0.1754 -0.2299 -0.1210
 5010SOL    MW419808   3.959   6.269   3.697  0.0788 -0.0170 -0.0124
 5011SOL     OW19809   2.253   0.370   4.288  0.0114  0.0228  0.1549
 5011SOL    HW219810   2.224   0.283   4.314 -3.1801  0.7786 -0.4562
 5011SOL    HW319811   2.237   0.425   4.364 -1.0572  0.6169 -0.4696
 5011SOL    MW419812   2.247   0.366   4.301 -0.5507  0.2009 -0.0081
 5012SOL     OW19813   3.230   0.617   1.699 -0.1091 -0.3840  0.1622
 5012SOL    HW219814   3.325   0.622   1.688 -0.3413  0.6284 -1.7027
 5012SOL    HW319815   3.205   0.536   1.655  0.1097 -2.1981  3.0637
 5012SOL    MW419816   3.240   0.607   1.692 -0.1109 -0.4897  0.2990
 5013SOL     OW19817   1.493   4.714   2.192 -0.0082 -0.0680  0.5059
 5013SOL    HW219818   1.481   4.665   2.274  0.5043  1.4988  1.5608
 5013SOL    HW319819   1.585   4.702   2.171  0.3587  1.1676  1.2935
 5013SOL    MW419820   1.503   4.706   2.200  0.1078  0.3018  0.7490
 5014SOL     OW19821   0.002   6.087   3.459  0.0080 -0.3615  0.0468
 5014SOL    HW219822   0.028   6.069   3.369 -0.5741  1.6871 -0.5779
 5014SOL    HW319823  -0.012   6.001   3.498 -0.9104 -1.2828 -2.1669
 5014SOL    MW419824   0.004   6.073   3.453 -0.1900 -0.2128 -0.3277
 5015SOL     OW19825   5.582   4.416   1.106 -0.0664 -0.4240  0.0714
 5015SOL    HW219826   5.561   4.343   1.164  0.6795  0.3163  1.3195
 5015SOL    HW319827   5.522   4.486   1.133  1.0669  0.3031  0.7655
 5015SOL    MW419828   5.571   4.416   1.117  0.1815 -0.2304  0.3277
 5016SOL     OW19829   0.204   5.027   2.855 -0.1939 -0.1057  0.4611
 5016SOL    HW219830   0.177   5.117   2.870  0.4581  0.1425  0.1725
 5016SOL    HW319831   0.128   4.975   2.881 -1.2416  0.5971 -1.0468
 5016SOL    MW419832   0.191   5.032   2.861 -0.2461  0.0198  0.2241
 5017SOL     OW19833   5.691   2.715   1.138  0.3469  0.0787  0.0256
 5017SOL    HW219834   5.743   2.753   1.067  0.7381 -0.0794  0.2235
 5017SOL    HW319835   5.602   2.748   1.123  0.1369 -0.9796 -1.2988
 5017SOL    MW419836   5.686   2.725   1.126  0.3708 -0.0818 -0.1231
 5018SOL     OW19837   4.918   2.210   6.201  0.6107 -0.4491  0.1902
 5018SOL    HW219838   4.962   2.290   6.173 -0.7047 -0.3300 -1.7479
 5018SOL    HW319839   4.848   2.240   6.260  0.7540 -0.2871  0.2786
 5018SOL    MW419840   4.915   2.225   6.205  0.4560 -0.4120 -0.0538
 5019SOL     OW19841   5.448   0.125   5.646 -0.0120  0.3266  0.3394
 5019SOL    HW219842   5.482   0.056   5.589 -1.4028 -0.1447  0.0317
 5019SOL    HW319843   5.461   0.206   5.597  0.6953  0.1658  0.2581
 5019SOL    MW419844   5.454   0.127   5.632 -0.1022  0.2432  0.2881
 5020SOL     OW19845   1.881   4.170   1.857  0.0236 -0.7597  0.2092
 5020SOL    HW219846   1.965   4.126   1.842 -1.7001 -3.6584 -2.0321
 5020SOL    HW319847   1.901   4.263   1.847  2.7993 -1.4057 -1.3305
 5020SOL    MW419848   1.895   4.176   1.853  0.1624 -1.2274 -0.2897
 5021SOL     OW19849   2.245   4.930   1.466  0.4056 -0.2781 -0.4356
 5021SOL    HW219850   2.288   4.955   1.548  0.3709  1.1668 -0.8319
 5021SOL    HW319851   2.192   4.854   1.489 -0.9099  1.0778  1.3102
 5021SOL    MW419852   2.244   4.923   1.480  0.2274  0.0915 -0.2575
 5022SOL     OW19853   2.852   1.330   3.179 -0.4171  0.0951  0.1807
 5022SOL    HW219854   2.838   1.321   3.084 -1.5410  1.8407  0.1441
 5022SOL    HW319855   2.814   1.250   3.216 -1.2405  0.0368 -0.7510
 5022SOL    MW419856   2.845   1.318   3.171 -0.6740  0.3178  0.0529
 5023SOL     OW19857   1.040   6.161   3.911 -0.2998  0.1084  0.0352
 5023SOL    HW219858   1.036   6.070   3.882 -1.7307 -0.3370  1.5011
 5023SOL    HW319859   1.126   6.192   3.882 -0.3430 -1.2514 -1.7379
 5023SOL    MW419860   1.051   6.153   3.903 -0.4943 -0.1297 -0.0053
 5024SOL     OW19861   6.178   3.815   4.321 -0.2112  0.1143 -0.3707
 5024SOL    HW219862   6.088   3.804   4.350 -1.2469 -1.1854 -3.5774
 5024SOL    HW319863   6.172   3.872   4.244  1.8464  0.6729 -0.1977
 5024SOL    MW419864   6.166   3.821   4.315 -0.0763  0.0165 -0.7710
 5025SOL     OW19865   3.662   2.766   0.791 -0.1567  0.1666 -0.2050
 5025SOL    HW219866   3.568   2.774   0.808 -0.5359 -1.8813 -1.0012
 5025SOL    HW319867   3.701   2.759   0.878 -1.1544 -2.0547  0.1527
 5025SOL    MW419868   3.655   2.766   0.805 -0.3384 -0.3967 -0.2629
 5026SOL     OW19869   2.521   3.003   6.088  0.0650 -0.2165  0.0311
 5026SOL    HW219870   2.521   2.959   6.002  1.0189 -0.6187  0.2197
 5026SOL    HW319871   2.433   3.038   6.097  0.2611  0.7901 -1.6032
 5026SOL    MW419872   2.510   3.002   6.078  0.2167 -0.1367 -0.1597
 5027SOL     OW19873   2.822   0.462   3.992  0.4837 -0.2625  0.1848
 5027SOL    HW219874   2.787   0.515   4.064 -0.3413 -0.5995  0.0442
 5027SOL    HW319875   2.842   0.526   3.924 -1.8951 -0.1926 -0.5522
 5027SOL    MW419876   2.820   0.478   3.992  0.0610 -0.2977  0.0690
 5028SOL     OW19877   1.669   6.077   0.355  0.0358 -0.5541 -0.2061
 5028SOL    HW219878   1.598   6.104   0.298 -1.5472 -2.7957  0.5605
 5028SOL    HW319879   1.666   6.137   0.429 -1.0264 -0.5593 -0.2327
 5028SOL    MW419880   1.659   6.088   0.357 -0.3132 -0.8505 -0.1084
 5029SOL     OW19881   1.688   4.772   6.343 -0.0140  0.2172 -0.1679
 5029SOL    HW219882   1.604   4.817   6.355 -1.0472 -1.3706 -0.9632
 5029SOL    HW319883   1.683   4.696   6.402  0.8896  0.1433 -0.1747
 5029SOL    MW419884   1.676   4.768   6.352 -0.0311 -0.0020 -0.2738
 5030SOL     OW19885   0.797   3.554   0.304 -0.1785  0.3582 -0.1427
 5030SOL    HW219886   0.758   3.469   0.324 -1.0335  0.9734  0.9482
 5030SOL    HW319887   0.735   3.595   0.243 -0.4753  0.7209  0.3903
 5030SOL    MW419888   0.783   3.549   0.299 -0.3305  0.4872  0.0715
 5031SOL     OW19889   3.445   1.815   5.815 -0.1315 -0.1956  0.1136
 5031SOL    HW219890   3.432   1.909   5.800 -0.2243 -0.2575 -0.2134
 5031SOL    HW319891   3.383   1.793   5.884  0.1601  0.0592  0.4624
 5031SOL    MW419892   3.435   1.825   5.822 -0.1053 -0.1702  0.1164
 5032SOL     OW19893   2.598   6.015   5.037  0.2288  0.4328 -0.1061
 5032SOL    HW219894   2.624   6.073   5.109  1.5636  0.6298 -0.7195
 5032SOL    HW319895   2.676   6.009   4.982 -0.7294  0.2135 -1.4889
 5032SOL    MW419896   2.612   6.022   5.039  0.2785  0.4299 -0.3695
 5033SOL     OW19897   3.907   5.405   3.454  0.3051  0.1075  0.3058
 5033SOL    HW219898   3.922   5.486   3.405  0.3851  1.2626  2.1458
 5033SOL    HW319899   3.812   5.393   3.453  0.3363 -0.0971 -0.4508
 5033SOL    MW419900   3.896   5.414   3.447  0.3198  0.2329  0.4487
 5034SOL     OW19901   5.936   3.381   0.679  0.2547  0.3250 -0.2253
 5034SOL    HW219902   6.004   3.382   0.745 -0.5484 -1.5350  0.6994
 5034SOL    HW319903   5.882   3.458   0.698  0.9981  0.7437  0.2096
 5034SOL    MW419904   5.938   3.391   0.690  0.2468  0.1349 -0.0459
 5035SOL     OW19905   4.772   6.100   4.449  0.0204  0.1054  0.3804
 5035SOL    HW219906   4.855   6.088   4.404  0.1558  0.2634  0.5848
 5035SOL    HW319907   4.711   6.130   4.381  0.6235  1.9614  0.5795
 5035SOL    MW419908   4.775   6.103   4.434  0.1178  0.3712  0.4337
 5036SOL     OW19909   4.505   3.207   4.033 -0.3042  0.2600  0.6530
 5036SOL    HW219910   4.497   3.277   3.968  2.3418  0.2553  0.2112
 5036SOL    HW319911   4.463   3.242   4.111  1.7625  2.7929  0.7372
 5036SOL    MW419912   4.498   3.221   4.035  0.3176  0.5936  0.6058
 5037SOL     OW19913   0.801   4.805   6.105  0.2206 -0.0645  0.5603
 5037SOL    HW219914   0.828   4.823   6.015  0.2310  0.2703  0.6287
 5037SOL    HW319915   0.708   4.783   6.097  0.6857 -2.0920  0.2191
 5037SOL    MW419916   0.792   4.805   6.092  0.2833 -0.2878  0.5243
 5038SOL     OW19917   4.731   1.746   0.852 -0.2420 -0.3159 -0.1019
 5038SOL    HW219918   4.677   1.697   0.913 -1.4688  0.0024 -0.8900
 5038SOL    HW319919   4.689   1.832   0.847  2.0938  1.0508  1.5904
 5038SOL    MW419920   4.718   1.751   0.859 -0.0956 -0.0935  0.0174
 5039SOL     OW19921   1.655   2.397   3.618  0.0956 -0.3551  0.1871
 5039SOL    HW219922   1.715   2.395   3.544  0.1962  1.1348  0.2035
 5039SOL    HW319923   1.599   2.473   3.601  0.4052  0.2717  1.8571
 5039SOL    MW419924   1.655   2.407   3.606  0.1497 -0.0758  0.4096
 5040SOL     OW19925   1.620   0.766   3.134  0.0207 -0.0324 -0.1621
 5040SOL    HW219926   1.549   0.761   3.070  0.3487 -2.0189 -0.4332
 5040SOL    HW319927   1.647   0.858   3.133 -2.3570  0.7217 -0.2297
 5040SOL    MW419928   1.614   0.777   3.126 -0.2497 -0.1950 -0.2068
 5041SOL     OW19929   1.875   1.113   4.707 -0.3464 -0.1956  0.1935
 5041SOL    HW219930   1.856   1.207   4.707  1.0904  0.1285  1.1816
 5041SOL    HW319931   1.921   1.098   4.790  1.3380 -1.3518 -0.8914
 5041SOL    MW419932   1.878   1.123   4.718  0.0654 -0.3054  0.1808
 5042SOL     OW19933   6.278   6.215   3.771 -0.6388  0.0351 -0.7514
 5042SOL    HW219934   6.306   6.297   3.811 -0.2096  0.0594 -1.1022
 5042SOL    HW319935   6.227   6.243   3.694  2.2492  0.0253 -2.8522
 5042SOL    MW419936   6.275   6.230   3.766 -0.2011  0.0370 -1.0749
 5043SOL     OW19937   0.215   4.999   3.164  0.7662  0.6318  0.7027
 5043SOL    HW219938   0.279   5.038   3.104 -0.2787  0.1074 -0.8099
 5043SOL    HW319939   0.268   4.953   3.229  1.9489  0.0532 -0.6226
 5043SOL    MW419940   0.230   4.998   3.164  0.7844  0.4863  0.3282
 5044SOL     OW19941   2.788   1.357   0.685 -0.1237 -0.5414 -0.4514
 5044SOL    HW219942   2.722   1.391   0.746  0.8018 -0.8244  0.7504
 5044SOL    HW319943   2.770   1.403   0.603 -0.9649  0.3980  0.2248
 5044SOL    MW419944   2.777   1.368   0.682 -0.1125 -0.4548 -0.2036
 5045SOL     OW19945   1.542   1.692   2.474  0.0283  0.6321  0.3545
 5045SOL    HW219946   1.563   1.744   2.396  0.3971  0.3891  0.2920
 5045SOL    HW319947   1.523   1.605   2.441 -2.3513  1.1262  0.2682
 5045SOL    MW419948   1.542   1.688   2.460 -0.2370  0.6653  0.3349
 5046SOL     OW19949   5.822   1.745   5.773  0.0050 -0.2611 -0.4941
 5046SOL    HW219950   5.730   1.746   5.800 -0.4432 -1.0885 -1.9024
 5046SOL    HW319951   5.865   1.695   5.842 -0.4542  0.6780  0.5216
 5046SOL    MW419952   5.815   1.739   5.786 -0.1147 -0.2464 -0.5459
 5047SOL     OW19953   5.180   3.694   4.414  0.2332  1.1607 -0.4979
 5047SOL    HW219954   5.095   3.737   4.417  0.0913  1.0678 -2.1768
 5047SOL    HW319955   5.225   3.724   4.493 -0.6481  2.6912 -0.5414
 5047SOL    MW419956   5.174   3.703   4.425  0.0982  1.3504 -0.7252
 5048SOL     OW19957   3.870   0.904   0.101 -0.6997 -0.4637  0.1393
 5048SOL    HW219958   3.892   0.849   0.026 -1.4714 -1.9049  0.9389
 5048SOL    HW319959   3.943   0.891   0.162 -0.6153 -0.1558  0.1066
 5048SOL    MW419960   3.883   0.895   0.099 -0.7904 -0.6132  0.2405
 5049SOL     OW19961   3.677   2.336   4.892  0.5613  0.3363  0.0801
 5049SOL    HW219962   3.689   2.273   4.822 -0.6652  0.3242 -0.1397
 5049SOL    HW319963   3.660   2.419   4.848 -0.5454  0.2652  0.3446
 5049SOL    MW419964   3.676   2.339   4.877  0.2535  0.3253  0.0860
 5050SOL     OW19965   1.669   6.000   3.950 -0.2206  0.3034  0.2595
 5050SOL    HW219966   1.730   6.061   3.990  0.0432 -0.2073  0.6356
 5050SOL    HW319967   1.720   5.922   3.932 -0.0245  0.8749 -2.1072
 5050SOL    MW419968   1.684   5.998   3.953 -0.1599  0.3114 -0.0031
 5051SOL     OW19969   1.094   0.861   1.933 -0.0033 -0.4956  0.0052
 5051SOL    HW219970   1.189   0.877   1.933 -0.1750  0.7284 -1.7268
 5051SOL    HW319971   1.057   0.937   1.977 -0.2263 -0.6401  0.0670
 5051SOL    MW419972   1.102   0.873   1.939 -0.0554 -0.3532 -0.2152
 5052SOL     OW19973   2.610   4.053   3.185  0.3682 -0.4005 -0.4047
 5052SOL    HW219974   2.702   4.037   3.206  1.0498  2.0524 -1.1385
 5052SOL    HW319975   2.561   3.996   3.244  2.2884  1.0166  2.7866
 5052SOL    MW419976   2.616   4.044   3.195  0.7115  0.1101 -0.0805
 5053SOL     OW19977   2.981   0.958   5.689 -0.3685  0.2151 -0.4950
 5053SOL    HW219978   3.016   0.897   5.754 -0.5011 -1.1972 -1.6885
 5053SOL    HW319979   2.967   0.904   5.611  2.0800  2.2617 -2.5451
 5053SOL    MW419980   2.984   0.943   5.687 -0.0629  0.2988 -0.9229
 5054SOL     OW19981   1.687   5.165   4.437  0.2735 -0.5232 -0.5336
 5054SOL    HW219982   1.714   5.074   4.438  1.9418 -0.0475 -0.4684
 5054SOL    HW319983   1.734   5.204   4.363 -0.4926  0.2665 -0.6240
 5054SOL    MW419984   1.696   5.158   4.428  0.3925 -0.3562 -0.5369
 5055SOL     OW19985   1.755   0.469   3.675 -0.0677 -0.2574  0.4969
 5055SOL    HW219986   1.721   0.424   3.598 -0.5188 -1.2201  1.2350
 5055SOL    HW319987   1.784   0.399   3.733 -0.2557  0.4211  1.4416
 5055SOL    MW419988   1.754   0.454   3.673 -0.1520 -0.2949  0.7189
 5056SOL     OW19989   0.977   5.408   0.865  0.1492 -1.1283  0.0723
 5056SOL    HW219990   1.015   5.481   0.816  1.0863 -1.8920 -0.3729
 5056SOL    HW319991   0.883   5.424   0.863 -0.0832 -2.0967 -3.6804
 5056SOL    MW419992   0.969   5.420   0.858  0.2422 -1.3568 -0.4815
 5057SOL     OW19993   3.601   0.893   1.500  0.3061  0.1423 -0.5378
 5057SOL    HW219994   3.636   0.979   1.525  1.8929  0.0538 -2.2130
 5057SOL    HW319995   3.509   0.910   1.480  1.0087  1.9291 -2.6667
 5057SOL    MW419996   3.593   0.907   1.501  0.6082  0.3664 -1.0397
 5058SOL     OW19997   1.365   1.541   0.525 -0.0881 -0.5352 -0.5408
 5058SOL    HW219998   1.299   1.584   0.580 -0.8721 -1.5722 -0.6348
 5058SOL    HW319999   1.325   1.538   0.438  0.8703  0.4904 -1.0405
 5058SOL    MW420000   1.351   1.547   0.521 -0.0651 -0.5367 -0.6191
 5059SOL     OW20001   0.517   4.018   0.327  0.2305  0.3682 -0.1567
 5059SOL    HW220002   0.452   3.954   0.298  0.2606 -0.6504  1.8494
 5059SOL    HW320003   0.501   4.027   0.421  1.0201  2.4400 -0.1671
 5059SOL    MW420004   0.506   4.011   0.335  0.3387  0.5072  0.1066
 5060SOL     OW20005   0.464   2.213   6.270  0.6949  0.4622  0.0975
 5060SOL    HW220006   0.475   2.130   6.316  1.1093  1.1536  1.2737
 5060SOL    HW320007   0.428   2.272   6.335  0.5201  1.2492 -0.6989
 5060SOL    MW420008   0.461   2.210   6.284  0.7265  0.6572  0.1476
 5061SOL     OW20009   5.989   2.498   3.650 -0.2025  0.5410  0.1649
 5061SOL    HW220010   5.921   2.498   3.717  1.3876  0.9491  1.8818
 5061SOL    HW320011   6.036   2.416   3.663  1.2577  1.4310  0.8471
 5061SOL    MW420012   5.986   2.487   3.661  0.2000  0.7122  0.4814
 5062SOL     OW20013   5.910   3.986   6.045  0.1684 -0.5404  0.3000
 5062SOL    HW220014   5.960   4.064   6.069 -0.0483 -0.2343 -0.2273
 5062SOL    HW320015   5.831   4.021   6.003  0.9230 -1.0702 -1.6555
 5062SOL    MW420016   5.906   4.001   6.043  0.2393 -0.5699 -0.0276
 5063SOL     OW20017   5.896   2.575   0.774 -0.6244  0.0613  0.5363
 5063SOL    HW220018   5.963   2.523   0.817  0.4386  2.3063  1.7970
 5063SOL    HW320019   5.813   2.538   0.805  0.0282 -1.7731  0.1904
 5063SOL    MW420020   5.894   2.563   0.784 -0.3980  0.1155  0.6570
 5064SOL     OW20021   0.530   0.567   0.899  0.6745 -0.2104 -0.5738
 5064SOL    HW220022   0.493   0.604   0.819 -1.6252 -2.6191 -0.7527
 5064SOL    HW320023   0.596   0.506   0.868  0.5081 -0.3896 -0.5744
 5064SOL    MW420024   0.534   0.564   0.884  0.3491 -0.5519 -0.5975
 5065SOL     OW20025   0.879   5.838   4.355  0.4889  0.4216 -0.3428
 5065SOL    HW220026   0.794   5.878   4.373  0.5450  0.2835  0.2330
 5065SOL    HW320027   0.920   5.898   4.293  0.2900  0.8980 -0.0234
 5065SOL    MW420028   0.873   5.851   4.349  0.4700  0.4663 -0.2247
 5066SOL     OW20029   0.358   4.810   2.297  0.0418 -0.6822  0.4384
 5066SOL    HW220030   0.346   4.739   2.234  0.6416 -0.9956  0.6729
 5066SOL    HW320031   0.285   4.870   2.279 -1.0682 -1.8393  0.9139
 5066SOL    MW420032   0.346   4.809   2.286 -0.0255 -0.8762  0.5321
 5067SOL     OW20033   2.468   0.256   0.476 -0.2790  0.0393  0.5230
 5067SOL    HW220034   2.437   0.285   0.562  0.2581  0.5314  0.5577
 5067SOL    HW320035   2.562   0.243   0.488 -0.3479 -0.7948  0.2449
 5067SOL    MW420036   2.476   0.258   0.489 -0.2172 -0.0059  0.4909
 5068SOL     OW20037   2.787   0.109   0.985  0.5426 -0.6926 -0.1784
 5068SOL    HW220038   2.811   0.149   1.069  1.3595 -2.0240  0.2480
 5068SOL    HW320039   2.772   0.184   0.926 -0.7687  0.2769  1.3207
 5068SOL    MW420040   2.788   0.125   0.988  0.4774 -0.7403  0.0756
 5069SOL     OW20041   1.174   6.321   1.972 -0.7766  0.0678  0.0425
 5069SOL    HW220042   1.204   6.244   2.021 -2.1432 -0.2449  0.4414
 5069SOL    HW320043   1.097   6.350   2.019 -1.7315  0.1913 -1.5156
 5069SOL    MW420044   1.168   6.315   1.985 -1.0829  0.0429 -0.1104
 5070SOL     OW20045   2.879   0.937   1.795 -0.0865 -0.1509  0.0415
 5070SOL    HW220046   2.937   0.896   1.732 -0.4261  0.5937 -0.7824
 5070SOL    HW320047   2.793   0.899   1.777 -0.0578 -0.4737  0.5552
 5070SOL    MW420048   2.875   0.927   1.784 -0.1275 -0.0952  0.0006
 5071SOL     OW20049   1.639   0.504   2.017  0.7051 -0.3566 -0.4414
 5071SOL    HW220050   1.603   0.420   1.987 -2.0295 -0.2320  2.0496
 5071SOL    HW320051   1.562   0.559   2.032  2.2600  1.6479  0.6635
 5071SOL    MW420052   1.624   0.500   2.015  0.5494 -0.0757  0.0330
 5072SOL     OW20053   2.170   1.600   4.293 -0.3185  0.7086  0.2558
 5072SOL    HW220054   2.114   1.523   4.302 -0.8048  1.2328  2.1769
 5072SOL    HW320055   2.247   1.579   4.347 -0.6190  1.6978  1.0844
 5072SOL    MW420056   2.173   1.587   4.301 -0.4223  0.9083  0.6186
 5073SOL     OW20057   6.286   2.497   2.900  0.0932  0.3162  0.3453
 5073SOL    HW220058   6.226   2.468   2.831 -1.2611  1.8616  0.8093
 5073SOL    HW320059   6.256   2.452   2.979  0.8417 -0.4631  0.2019
 5073SOL    MW420060   6.274   2.487   2.901  0.0133  0.4172  0.3876
 5074SOL     OW20061   5.435   3.985   4.348  0.2386 -0.4741 -0.1097
 5074SOL    HW220062   5.374   4.015   4.415 -1.0223 -0.7872 -1.0519
 5074SOL    HW320063   5.521   3.989   4.388 -0.1816  1.7929  0.6574
 5074SOL    MW420064   5.438   3.989   4.362  0.0168 -0.2163 -0.1328
 5075SOL     OW20065   2.782   4.336   3.897  0.2089  0.0323  0.3163
 5075SOL    HW220066   2.756   4.424   3.868 -1.6845 -0.6547 -0.1844
 5075SOL    HW320067   2.797   4.345   3.991 -1.8101  0.5317  0.6387
 5075SOL    MW420068   2.781   4.349   3.905 -0.3073  0.0076  0.2928
 5076SOL     OW20069   3.103   6.353   0.560  0.2317  0.0178 -0.0676
 5076SOL    HW220070   3.033   6.342   0.624  1.3925 -2.0058  0.9637
 5076SOL    HW320071   3.097   6.277   0.503 -1.5476  2.3693 -3.3302
 5076SOL    MW420072   3.093   6.341   0.561  0.1501  0.0610 -0.3620
 5077SOL     OW20073   3.157   0.208   4.861  0.2878  0.5276  0.3228
 5077SOL    HW220074   3.240   0.160   4.857  0.7728  1.3699  0.1031
 5077SOL    HW320075   3.142   0.236   4.771 -0.4279  0.0735  0.2952
 5077SOL    MW420076   3.166   0.205   4.848  0.2574  0.5788  0.2902
 5078SOL     OW20077   4.604   1.648   2.600 -0.5853 -0.2950  0.4158
 5078SOL    HW220078   4.698   1.644   2.618 -0.2988 -0.0204 -0.8954
 5078SOL    HW320079   4.597   1.708   2.526 -1.9186  0.6161  1.2469
 5078SOL    MW420080   4.615   1.655   2.593 -0.7234 -0.1385  0.3525
 5079SOL     OW20081   1.999   1.399   4.355  0.5233 -0.1339 -0.1680
 5079SOL    HW220082   2.022   1.379   4.446  0.7849  0.8782 -0.0090
 5079SOL    HW320083   1.917   1.449   4.361 -0.8323 -2.1556 -0.6391
 5079SOL    MW420084   1.991   1.403   4.368  0.3790 -0.2671 -0.2092
 5080SOL     OW20085   6.249   3.210   0.433  0.4974 -0.0002  0.0227
 5080SOL    HW220086   6.256   3.124   0.391  2.1216  0.3852 -0.5841
 5080SOL    HW320087   6.297   3.201   0.515  1.3599  0.5081 -0.4041
 5080SOL    MW420088   6.256   3.197   0.438  0.8255  0.1177 -0.1137
 5081SOL     OW20089   5.863   3.177   4.202  0.0307 -0.4890  0.1402
 5081SOL    HW220090   5.957   3.188   4.189  0.5282 -2.7713  1.3449
 5081SOL    HW320091   5.838   3.249   4.260  1.4477 -0.9559  1.3688
 5081SOL    MW420092   5.872   3.188   4.208  0.2833 -0.8517  0.4613
 5082SOL     OW20093   6.013   2.310   4.205  0.1448  0.1900 -0.2456
 5082SOL    HW220094   5.930   2.341   4.240  0.6808 -0.0592  1.3485
 5082SOL    HW320095   6.060   2.276   4.282  2.0895  1.1676 -0.9492
 5082SOL    MW420096   6.009   2.309   4.220  0.4721  0.2861 -0.1281
 5083SOL     OW20097   0.250   2.606   1.790  0.1554 -0.1841 -0.3324
 5083SOL    HW220098   0.297   2.589   1.871  1.1472 -1.5268 -1.1406
 5083SOL    HW320099   0.313   2.587   1.720 -0.5060  1.4219 -1.4326
 5083SOL    MW420100   0.264   2.601   1.791  0.1990 -0.1494 -0.5842
 5084SOL     OW20101   1.011   0.134   3.643 -0.0261  0.6024  0.1277
 5084SOL    HW220102   0.983   0.074   3.712 -1.0140  0.6929 -0.1840
 5084SOL    HW320103   1.069   0.082   3.587 -1.0706 -0.1470 -0.2831
 5084SOL    MW420104   1.015   0.119   3.645 -0.2943  0.5155  0.0324
 5085SOL     OW20105   1.735   4.537   1.860 -0.0028 -0.6756  0.1945
 5085SOL    HW220106   1.688   4.527   1.777  0.1486  0.7879 -0.1069
 5085SOL    HW320107   1.773   4.625   1.855  0.4609 -0.7723  1.5935
 5085SOL    MW420108   1.734   4.547   1.849  0.0783 -0.4953  0.3393
 5086SOL     OW20109   1.728   5.585   0.976  0.0882  0.4261 -0.0437
 5086SOL    HW220110   1.771   5.633   1.046  0.2079  0.2696 -0.0086
 5086SOL    HW320111   1.634   5.598   0.991  0.0937 -0.1701  0.5397
 5086SOL    MW420112   1.721   5.593   0.987  0.1047  0.3268  0.0379
 5087SOL     OW20113   6.086   2.329   1.562  0.1370 -0.3621  0.5835
 5087SOL    HW220114   6.054   2.240   1.578 -1.3861  0.2267  0.9185
 5087SOL    HW320115   6.072   2.343   1.469 -0.6706 -0.0909  0.7364
 5087SOL    MW420116   6.080   2.319   1.552 -0.1705 -0.2486  0.6479
 5088SOL     OW20117   4.107   2.643   1.427 -0.1283 -0.3576 -0.1332
 5088SOL    HW220118   4.023   2.687   1.440 -0.2539 -0.8270  0.6846
 5088SOL    HW320119   4.170   2.715   1.419  0.0381  0.0991  3.4939
 5088SOL    MW420120   4.104   2.658   1.428 -0.1229 -0.3593  0.4533
 5089SOL     OW20121   0.740   5.505   5.548 -0.3957  0.2557 -0.3546
 5089SOL    HW220122   0.753   5.599   5.561 -0.2355  0.2414 -0.4035
 5089SOL    HW320123   0.729   5.469   5.636  2.5746 -0.1227 -0.0204
 5089SOL    MW420124   0.740   5.513   5.561  0.0174  0.2038 -0.3169
 5090SOL     OW20125   5.395   1.181   6.291  0.3158  0.6193  0.4610
 5090SOL    HW220126   5.441   1.114   6.341 -0.7357 -1.3810 -1.0750
 5090SOL    HW320127   5.406   1.154   6.199 -1.0405  1.9538 -0.1468
 5090SOL    MW420128   5.402   1.169   6.285 -0.0019  0.5315  0.1782
 5091SOL     OW20129   2.466   1.354   6.011  0.0901  0.0111 -0.1476
 5091SOL    HW220130   2.488   1.445   5.994  0.4098  0.2701  1.4372
 5091SOL    HW320131   2.517   1.303   5.948  0.1255  0.9017 -0.8488
 5091SOL    MW420132   2.475   1.359   6.001  0.1370  0.1628 -0.0310
 5092SOL     OW20133   5.601   5.085   4.952 -0.9145  0.0951 -0.1255
 5092SOL    HW220134   5.586   5.142   5.028 -0.0113  0.1733  0.0007
 5092SOL    HW320135   5.616   4.999   4.990 -2.0511 -0.1980 -0.3063
 5092SOL    MW420136   5.601   5.081   4.967 -0.9453  0.0667 -0.1327
 5093SOL     OW20137   3.968   2.643   3.875 -0.5259  0.0539  0.2492
 5093SOL    HW220138   4.026   2.657   3.800 -0.9026  0.1354 -0.0278
 5093SOL    HW320139   4.027   2.614   3.945 -0.0855  0.5673  0.1006
 5093SOL    MW420140   3.983   2.641   3.875 -0.5175  0.1324  0.1930
 5094SOL     OW20141   0.051   1.014   5.584  0.5212  0.2979 -0.2742
 5094SOL    HW220142   0.091   0.932   5.556 -1.1100 -0.9242  0.7777
 5094SOL    HW320143   0.050   1.069   5.505 -0.7356 -1.6888 -1.7173
 5094SOL    MW420144   0.056   1.011   5.570  0.1402 -0.1255 -0.3259
 5095SOL     OW20145   2.875   1.474   5.573  0.3506 -0.0567 -0.2651
 5095SOL    HW220146   2.950   1.416   5.583 -0.4342 -0.7656  2.1638
 5095SOL    HW320147   2.821   1.458   5.651 -1.1122  2.1906 -0.7105
 5095SOL    MW420148   2.878   1.464   5.585  0.0541  0.1463 -0.0034
 5096SOL     OW20149   1.864   2.428   3.427 -0.0480 -0.3325  0.1368
 5096SOL    HW220150   1.933   2.443   3.491  0.5944  0.0961 -0.6294
 5096SOL    HW320151   1.875   2.337   3.400  0.5314 -0.1377 -0.3171
 5096SOL    MW420152   1.875   2.418   3.432  0.1132 -0.2502 -0.0241
 5097SOL     OW20153   1.343   0.765   4.095  0.4855 -0.4719 -0.3850
 5097SOL    HW220154   1.356   0.688   4.039  0.4409 -1.1274  0.4840
 5097SOL    HW320155   1.319   0.729   4.180 -2.3135  0.5607 -0.6493
 5097SOL    MW420156   1.342   0.750   4.099  0.1103 -0.4222 -0.3052
 5098SOL     OW20157   0.395   5.367   5.252  0.3780 -0.2360 -0.4556
 5098SOL    HW220158   0.439   5.282   5.264 -1.0134 -0.9443 -0.1389
 5098SOL    HW320159   0.418   5.417   5.330 -0.6899 -1.2122  0.5153
 5098SOL    MW420160   0.404   5.362   5.264  0.0536 -0.4582 -0.2857
 5099SOL     OW20161   0.808   2.691   3.821 -0.4571 -0.0753 -0.3325
 5099SOL    HW220162   0.845   2.635   3.889  1.2902  1.0995 -0.2451
 5099SOL    HW320163   0.729   2.646   3.793 -0.7413 -1.0522  1.8300
 5099SOL    MW420164   0.802   2.678   3.826 -0.2641 -0.0492 -0.0356
 5100SOL     OW20165   3.602   4.768   1.048 -0.4249 -0.2978  0.2720
 5100SOL    HW220166   3.555   4.739   1.126 -1.8134  3.6345  1.1361
 5100SOL    HW320167   3.542   4.829   1.005  2.7353  2.9543 -0.0554
 5100SOL    MW420168   3.588   4.772   1.052 -0.1911  0.6501  0.3428
 5101SOL     OW20169   4.433   5.124   2.584 -0.3438  0.0102  0.8433
 5101SOL    HW220170   4.520   5.164   2.580 -0.7955  0.9918  0.3794
 5101SOL    HW320171   4.380   5.188   2.631 -1.2838  0.3866 -0.6480
 5101SOL    MW420172   4.438   5.138   2.589 -0.5274  0.1894  0.5853
 5102SOL     OW20173   4.712   0.213   0.617 -0.3199  0.1045  0.1992
 5102SOL    HW220174   4.753   0.298   0.634  2.1592 -1.0378  0.3128
 5102SOL    HW320175   4.767   0.173   0.549 -0.7784 -1.8581  0.9303
 5102SOL    MW420176   4.725   0.219   0.610 -0.0533 -0.3051  0.3106
 5103SOL     OW20177   5.166   3.634   5.687  0.2029 -0.3250  0.3071
 5103SOL    HW220178   5.215   3.604   5.610  0.4773  0.3356  0.2190
 5103SOL    HW320179   5.230   3.631   5.758 -0.2461 -1.6440  0.6784
 5103SOL    MW420180   5.181   3.630   5.686  0.1799 -0.4119  0.3445
 5104SOL     OW20181   5.786   0.830   6.341 -0.0884 -0.4320  0.4337
 5104SOL    HW220182   5.727   0.831   6.265  3.0077 -3.0671 -2.3621
 5104SOL    HW320183   5.757   0.755   6.393 -1.1144  0.2760  0.9142
 5104SOL    MW420184   5.774   0.820   6.338  0.1847 -0.6863  0.1282
 5105SOL     OW20185   2.710   5.925   3.791 -0.0825  0.6061 -0.2831
 5105SOL    HW220186   2.728   6.008   3.834 -0.0574  1.4611 -1.8947
 5105SOL    HW320187   2.646   5.945   3.723 -2.2929 -1.2175  1.1005
 5105SOL    MW420188   2.704   5.938   3.788 -0.3708  0.4783 -0.3131
 5106SOL     OW20189   1.898   5.817   2.898  1.0929 -0.3396 -0.3612
 5106SOL    HW220190   1.914   5.729   2.865  0.1442 -0.4439 -0.5777
 5106SOL    HW320191   1.972   5.869   2.866  1.3759 -0.9323 -0.6841
 5106SOL    MW420192   1.910   5.812   2.890  1.0050 -0.4315 -0.4324
 5107SOL     OW20193   3.973   0.400   0.748  0.5011 -0.3334  0.1556
 5107SOL    HW220194   4.041   0.387   0.682  0.0519  1.8468 -0.8261
 5107SOL    HW320195   4.021   0.411   0.830  1.2923  0.0747 -0.3458
 5107SOL    MW420196   3.989   0.400   0.750  0.5462  0.0081 -0.0400
 5108SOL     OW20197   1.288   6.312   0.758  0.1098 -0.5404  0.4118
 5108SOL    HW220198   1.350   6.370   0.802 -0.5868 -0.3970  1.2329
 5108SOL    HW320199   1.339   6.236   0.733  0.6175 -0.4216  1.0622
 5108SOL    MW420200   1.303   6.310   0.760  0.0849 -0.5058  0.6059
 5109SOL     OW20201   5.352   3.596   5.890 -0.1972 -0.3086  0.3823
 5109SOL    HW220202   5.336   3.518   5.943 -1.5323  1.1841  2.3420
 5109SOL    HW320203   5.387   3.660   5.952 -0.6148  1.1319 -0.8130
 5109SOL    MW420204   5.355   3.594   5.905 -0.4285  0.0784  0.4831
 5110SOL     OW20205   3.833   3.378   1.319  0.6564  0.1993  0.1573
 5110SOL    HW220206   3.881   3.342   1.244  0.0686  0.3155 -0.2774
 5110SOL    HW320207   3.785   3.304   1.354  1.0325  0.1165  0.5016
 5110SOL    MW420208   3.833   3.364   1.313  0.6285  0.2037  0.1454
 5111SOL     OW20209   5.837   4.256   2.101  0.0696 -0.1339 -0.2708
 5111SOL    HW220210   5.868   4.210   2.178 -1.8272 -0.5787  0.2550
 5111SOL    HW320211   5.804   4.188   2.043  1.7946  0.1546 -1.6846
 5111SOL    MW420212   5.837   4.241   2.103  0.0470 -0.1545 -0.3880
 5112SOL     OW20213   4.505   6.255   3.725  0.3305  0.4102 -0.1815
 5112SOL    HW220214   4.476   6.346   3.728 -0.0311  0.3266  3.7752
 5112SOL    HW320215   4.432   6.208   3.686 -0.4155  1.5433 -0.1974
 5112SOL    MW420216   4.492   6.261   3.720  0.1844  0.5487  0.3384
 5113SOL     OW20217   3.186   0.606   0.205 -0.3187 -0.4554 -0.3603
 5113SOL    HW220218   3.237   0.537   0.246 -1.7004  0.0934  2.5664
 5113SOL    HW320219   3.250   0.661   0.161  1.3416 -1.1360  1.0769
 5113SOL    MW420220   3.201   0.604   0.205 -0.2819 -0.4728  0.2155
 5114SOL     OW20221   3.881   1.122   3.611 -0.5870  0.1898 -0.3663
 5114SOL    HW220222   3.937   1.200   3.611 -0.4266  0.1238  1.8946
 5114SOL    HW320223   3.940   1.050   3.591 -0.1499  0.3044  0.4874
 5114SOL    MW420224   3.896   1.123   3.608 -0.5082  0.1962  0.0446
 5115SOL     OW20225   5.265   3.050   3.710  0.6223 -0.4669  0.1226
 5115SOL    HW220226   5.193   3.009   3.757 -0.0219 -0.2358 -0.6397
 5115SOL    HW320227   5.342   2.999   3.734  0.2562 -0.5263  1.1888
 5115SOL    MW420228   5.266   3.038   3.719  0.4890 -0.4442  0.1627
 5116SOL     OW20229   3.193   5.750   4.643 -0.1955 -0.3859 -0.3430
 5116SOL    HW220230   3.135   5.683   4.606  1.0428 -1.1383 -0.9665
 5116SOL    HW320231   3.149   5.778   4.723  0.1536 -3.3354  1.0115
 5116SOL    MW420232   3.179   5.745   4.648  0.0140 -0.8743 -0.2466
 5117SOL     OW20233   2.043   5.235   2.015 -0.1953 -0.2306 -0.1811
 5117SOL    HW220234   1.975   5.223   1.949 -2.1063  2.1953  1.1973
 5117SOL    HW320235   2.061   5.147   2.047 -1.1398 -1.1590 -2.0364
 5117SOL    MW420236   2.036   5.222   2.010 -0.5721 -0.0330 -0.2440
 5118SOL     OW20237   3.955   0.814   5.970  0.1252 -0.2804  0.1755
 5118SOL    HW220238   4.049   0.813   5.952  0.1583 -1.1984  0.3667
 5118SOL    HW320239   3.946   0.870   6.048  0.5707 -0.6085  0.4637
 5118SOL    MW420240   3.966   0.822   5.978  0.1884 -0.4448  0.2388
 5119SOL     OW20241   5.230   2.171   6.222 -0.4204 -0.0533 -0.0719
 5119SOL    HW220242   5.145   2.204   6.252  0.1061  0.8774  0.4291
 5119SOL    HW320243   5.273   2.139   6.301  0.1668  0.5632 -0.1338
 5119SOL    MW420244   5.224   2.171   6.236 -0.2734  0.1509 -0.0140
 5120SOL     OW20245   2.311   0.855   4.442 -0.4690 -0.1139  0.1598
 5120SOL    HW220246   2.378   0.831   4.377 -1.9467  0.1843 -1.5615
 5120SOL    HW320247   2.296   0.775   4.492 -0.2393 -0.7544 -0.7645
 5120SOL    MW420248   2.318   0.841   4.440 -0.6336 -0.1590 -0.1893
 5121SOL     OW20249   1.055   4.523   2.326 -0.3522 -0.3291  0.8100
 5121SOL    HW220250   1.136   4.471   2.320  0.1696  0.5769 -0.3704
 5121SOL    HW320251   0.996   4.482   2.263  0.2754  0.8205 -0.5871
 5121SOL    MW420252   1.058   4.511   2.317 -0.2006 -0.0579  0.4699
 5122SOL     OW20253   0.879   4.374   4.682  0.2640  0.4358  0.4039
 5122SOL    HW220254   0.961   4.356   4.728 -1.0379 -1.9076  1.9778
 5122SOL    HW320255   0.832   4.434   4.739  0.1258  0.3023  0.4325
 5122SOL    MW420256   0.884   4.379   4.695  0.0740  0.1090  0.6153
 5123SOL     OW20257   4.295   2.328   1.274  0.3121 -0.1335 -0.3497
 5123SOL    HW220258   4.321   2.245   1.232 -0.1131  0.1702 -1.2498
 5123SOL    HW320259   4.232   2.366   1.213 -2.1506 -0.7767  1.6421
 5123SOL    MW420260   4.290   2.322   1.260 -0.0690 -0.1783 -0.2057
 5124SOL     OW20261   2.177   1.923   3.717 -0.1900  0.3899  0.1039
 5124SOL    HW220262   2.223   1.968   3.788  0.0868  0.6845 -0.2528
 5124SOL    HW320263   2.238   1.927   3.643 -0.0731 -0.7554  0.1133
 5124SOL    MW420264   2.191   1.929   3.716 -0.1381  0.2777  0.0581
 5125SOL     OW20265   5.545   5.910   5.101 -0.3875 -0.2740 -0.1236
 5125SOL    HW220266   5.529   5.910   5.006  1.4086  0.1073 -0.4709
 5125SOL    HW320267   5.504   5.830   5.133 -0.7455 -0.5726 -1.2878
 5125SOL    MW420268   5.538   5.900   5.092 -0.1977 -0.2631 -0.3230
 5126SOL     OW20269   6.367   3.671   4.438 -0.4573  0.4250 -0.2002
 5126SOL    HW220270   6.357   3.698   4.529 -2.2737 -1.9044  0.3981
 5126SOL    HW320271   6.299   3.720   4.391 -1.2190 -0.2108  0.1992
 5126SOL    MW420272   6.356   3.681   4.444 -0.7974  0.0338 -0.0686
 5127SOL     OW20273   4.165   2.639   3.346  0.2912 -0.1110  0.1581
 5127SOL    HW220274   4.104   2.670   3.413  0.9452  1.6608 -0.0080
 5127SOL    HW320275   4.195   2.554   3.378  0.3586  0.5544  1.9772
 5127SOL    MW420276   4.161   2.632   3.359  0.3864  0.2106  0.3762
 5128SOL     OW20277   0.536   5.642   1.630  0.3581 -0.8715  0.2554
 5128SOL    HW220278   0.580   5.689   1.559 -0.3940 -0.7598 -0.1456
 5128SOL    HW320279   0.445   5.638   1.603  0.3376 -2.2118  0.4812
 5128SOL    MW420280   0.530   5.648   1.618  0.2562 -1.0336  0.2323
 5129SOL     OW20281   2.187   2.505   5.924 -0.3016 -0.3158  0.3839
 5129SOL    HW220282   2.162   2.481   6.013  0.6526 -2.1396  0.2068
 5129SOL    HW320283   2.277   2.535   5.932  0.2961 -1.8478 -0.1046
 5129SOL    MW420284   2.196   2.506   5.937 -0.0968 -0.7585  0.2961
 5130SOL     OW20285   3.348   3.781   5.055  0.2563 -0.2561 -0.4180
 5130SOL    HW220286   3.331   3.875   5.059 -0.0908 -0.2682 -1.2352
 5130SOL    HW320287   3.384   3.759   5.140 -1.1039  0.3382  0.3532
 5130SOL    MW420288   3.350   3.790   5.066  0.0310 -0.1793 -0.4241
 5131SOL     OW20289   0.777   5.523   1.526  0.1278  0.1670 -1.1463
 5131SOL    HW220290   0.697   5.546   1.573 -0.5037 -0.3457 -1.9491
 5131SOL    HW320291   0.844   5.521   1.594 -0.4444  1.0253 -0.5301
 5131SOL    MW420292   0.775   5.526   1.541 -0.0310  0.2126 -1.1709
 5132SOL     OW20293   6.101   2.770   3.628 -0.0825 -0.5042 -0.0782
 5132SOL    HW220294   6.014   2.774   3.588 -0.3299 -2.3322  0.1754
 5132SOL    HW320295   6.100   2.690   3.680  2.1335 -1.2181 -0.9985
 5132SOL    MW420296   6.090   2.760   3.630  0.1772 -0.8396 -0.1662
 5133SOL     OW20297   3.967   1.124   5.618  0.0148 -0.3752  0.7736
 5133SOL    HW220298   3.997   1.051   5.564  1.3689  1.2836 -0.8467
 5133SOL    HW320299   3.883   1.149   5.579 -1.3970 -2.1469  2.4853
 5133SOL    MW420300   3.960   1.118   5.606  0.0072 -0.3901  0.7856
 5134SOL     OW20301   4.437   4.197   5.448 -0.1176  0.5137 -0.1652
 5134SOL    HW220302   4.523   4.169   5.480 -0.0176 -0.2797 -1.0899
 5134SOL    HW320303   4.445   4.199   5.353 -1.6331 -1.4185 -0.3977
 5134SOL    MW420304   4.449   4.194   5.440 -0.3043  0.1541 -0.3179
 5135SOL     OW20305   2.092   2.829   5.963 -0.3242  0.5585 -0.8220
 5135SOL    HW220306   2.077   2.776   5.885  0.1366 -1.1761  0.1897
 5135SOL    HW320307   2.039   2.785   6.031  1.2060  0.5083  0.3867
 5135SOL    MW420308   2.083   2.816   5.962 -0.0615  0.3230 -0.5291
 5136SOL     OW20309   0.669   3.638   5.362 -0.0703  0.2134 -0.3106
 5136SOL    HW220310   0.758   3.655   5.332  0.6255  0.5414  1.7356
 5136SOL    HW320311   0.680   3.610   5.453 -2.0242 -0.3592 -0.2064
 5136SOL    MW420312   0.682   3.636   5.370 -0.2363  0.1812 -0.0269
 5137SOL     OW20313   0.110   2.813   5.469 -0.0499 -0.7920  0.3289
 5137SOL    HW220314   0.192   2.813   5.419 -0.1237 -3.3817  0.0635
 5137SOL    HW320315   0.136   2.845   5.555  0.8834  0.0113 -0.2167
 5137SOL    MW420316   0.125   2.817   5.474  0.0635 -1.0277  0.2219
 5138SOL     OW20317   3.139   2.921   1.809 -0.4181 -0.1264  0.1176
 5138SOL    HW220318   3.174   2.836   1.783  1.7655  0.7809 -0.0704
 5138SOL    HW320319   3.120   2.911   1.903 -1.2634 -1.1244 -0.1352
 5138SOL    MW420320   3.141   2.908   1.818 -0.2415 -0.1384  0.0594
 5139SOL     OW20321   4.605   4.265   0.407  0.1824 -0.4740 -0.1076
 5139SOL    HW220322   4.546   4.246   0.333  1.0831  1.9764 -1.5612
 5139SOL    HW320323   4.561   4.226   0.483 -1.2977 -2.1912 -1.7462
 5139SOL    MW420324   4.591   4.257   0.407  0.1059 -0.3773 -0.5156
 5140SOL     OW20325   1.362   6.445   3.207  0.2575  0.2011  0.5530
 5140SOL    HW220326   1.366   6.349   3.206 -0.6485  0.0882 -2.2919
 5140SOL    HW320327   1.385   6.469   3.296  2.2986 -2.5846  0.9216
 5140SOL    MW420328   1.366   6.435   3.219  0.4073 -0.1813  0.2263
 5141SOL     OW20329   0.954   0.918   4.771  0.2482  0.8583 -0.2179
 5141SOL    HW220330   0.870   0.873   4.781  0.5334  0.3128 -0.2227
 5141SOL    HW320331   1.019   0.850   4.788  0.7393  0.5875 -2.7658
 5141SOL    MW420332   0.952   0.903   4.774  0.3506  0.7506 -0.5547
 5142SOL     OW20333   4.255   3.354   5.370 -0.4130 -0.4609  0.4653
 5142SOL    HW220334   4.222   3.268   5.344 -0.2709 -0.4536  0.2603
 5142SOL    HW320335   4.338   3.363   5.323 -1.0318  0.3167 -0.5156
 5142SOL    MW420336   4.261   3.344   5.360 -0.4759 -0.3574  0.3088
 5143SOL     OW20337   5.918   5.330   0.298  0.3321 -0.9574  0.1093
 5143SOL    HW220338   5.991   5.281   0.336  1.2318  0.2110 -0.0349
 5143SOL    HW320339   5.841   5.304   0.350  1.4367  0.3228  2.5987
 5143SOL    MW420340   5.917   5.320   0.310  0.5966 -0.6343  0.4187
 5144SOL     OW20341   0.478   4.533   3.678 -0.2286  0.0235 -0.2641
 5144SOL    HW220342   0.450   4.598   3.743 -0.7713 -0.0250 -0.4435
 5144SOL    HW320343   0.496   4.454   3.729 -0.9963 -0.1189 -0.2081
 5144SOL    MW420344   0.477   4.531   3.693 -0.4015 -0.0017 -0.2804
 5145SOL     OW20345   6.172   1.905   4.880 -0.2093  0.0267  0.3796
 5145SOL    HW220346   6.173   1.990   4.924  0.0341  0.0347  0.3582
 5145SOL    HW320347   6.157   1.925   4.788  0.2580  0.0716  0.3142
 5145SOL    MW420348   6.170   1.919   4.874 -0.1155  0.0337  0.3682
 5146SOL     OW20349   0.918   5.028   5.606 -0.4216  0.1050  0.0208
 5146SOL    HW220350   0.969   4.961   5.652  0.5986  0.1733 -0.9805
 5146SOL    HW320351   0.879   4.982   5.532  0.6495  0.6819 -0.9318
 5146SOL    MW420352   0.920   5.013   5.603 -0.1457  0.1901 -0.2370
 5147SOL     OW20353   4.366   4.027   3.315  0.3649  0.3578  0.1444
 5147SOL    HW220354   4.299   4.078   3.360  1.1965  0.1798  1.6871
 5147SOL    HW320355   4.363   3.941   3.358  1.7610  0.4408  0.4742
 5147SOL    MW420356   4.357   4.022   3.327  0.6588  0.3452  0.3915
 5148SOL     OW20357   0.764   1.625   5.846 -0.5445  0.3304  0.6760
 5148SOL    HW220358   0.742   1.532   5.850 -0.8509  0.2565 -1.4946
 5148SOL    HW320359   0.858   1.627   5.829 -0.8540  0.2910 -1.3537
 5148SOL    MW420360   0.773   1.613   5.844 -0.6258  0.3155  0.1218
 5149SOL     OW20361   4.749   6.283   2.528 -0.2676  0.0515 -0.0964
 5149SOL    HW220362   4.766   6.352   2.592  0.0919 -1.1351  1.1320
 5149SOL    HW320363   4.825   6.283   2.471  0.4586 -0.3259  0.8491
 5149SOL    MW420364   4.761   6.292   2.529 -0.1243 -0.1549  0.1904
 5150SOL     OW20365   5.438   5.970   2.844  0.5223 -0.3929 -0.2628
 5150SOL    HW220366   5.455   5.886   2.887 -1.0002 -0.6975 -0.2119
 5150SOL    HW320367   5.424   6.031   2.916  0.7630 -0.2849 -0.3073
 5150SOL    MW420368   5.438   5.967   2.859  0.3532 -0.4189 -0.2619
 5151SOL     OW20369   5.557   5.257   2.958  0.0755  0.1271  0.5709
 5151SOL    HW220370   5.572   5.276   3.050 -2.0791  3.2579  0.4091
 5151SOL    HW320371   5.499   5.180   2.958 -0.0464  0.2085  1.8235
 5151SOL    MW420372   5.551   5.249   2.970 -0.2249  0.5509  0.7148
 5152SOL     OW20373   2.368   4.212   1.703  0.0667  0.1430 -0.5498
 5152SOL    HW220374   2.371   4.137   1.643 -1.6844 -0.4709  0.0684
 5152SOL    HW320375   2.443   4.198   1.762  0.9554 -0.0135 -1.6877
 5152SOL    MW420376   2.378   4.200   1.703 -0.0471  0.0413 -0.6183
 5153SOL     OW20377   5.621   2.801   0.697  0.0256  0.1127 -0.0824
 5153SOL    HW220378   5.672   2.781   0.618  1.2671  1.9743  0.1811
 5153SOL    HW320379   5.684   2.841   0.757 -1.5481  1.6243  0.6358
 5153SOL    MW420380   5.636   2.804   0.694 -0.0183  0.5577  0.0471
 5154SOL     OW20381   4.962   4.747   2.447 -0.0232 -0.3186  0.2206
 5154SOL    HW220382   4.973   4.795   2.365  1.2400 -1.5427 -0.3660
 5154SOL    HW320383   5.043   4.765   2.496 -0.0885 -0.8277  0.5260
 5154SOL    MW420384   4.974   4.756   2.442  0.1348 -0.5473  0.1835
 5155SOL     OW20385   1.422   2.482   5.941  0.0856 -0.0972  0.0153
 5155SOL    HW220386   1.431   2.407   6.000 -2.2762  0.3806  1.1223
 5155SOL    HW320387   1.467   2.554   5.985  0.7249 -0.3974 -0.1383
 5155SOL    MW420388   1.429   2.481   5.954 -0.1416 -0.0738  0.1411
 5156SOL     OW20389   4.835   0.992   2.745 -0.1376 -0.1488  0.3494
 5156SOL    HW220390   4.832   1.017   2.653  1.3444 -1.5000 -0.1229
 5156SOL    HW320391   4.744   0.974   2.768 -0.4404 -0.6497 -1.1161
 5156SOL    MW420392   4.823   0.993   2.736  0.0180 -0.3932  0.0937
 5157SOL     OW20393   0.212   5.209   5.584 -0.1350  0.0645  0.2921
 5157SOL    HW220394   0.128   5.194   5.627 -0.1370 -0.2176  0.1959
 5157SOL    HW320395   0.276   5.210   5.655 -0.1390 -0.3925  0.3095
 5157SOL    MW420396   0.209   5.207   5.599 -0.1358 -0.0330  0.2817
 5158SOL     OW20397   0.504   1.679   1.715 -0.7939  0.1378  0.2281
 5158SOL    HW220398   0.542   1.602   1.757 -0.9070 -0.2075 -0.2941
 5158SOL    HW320399   0.559   1.693   1.637 -1.3778 -0.0115 -0.2135
 5158SOL    MW420400   0.516   1.671   1.710 -0.8858  0.0725  0.1009
 5159SOL     OW20401   6.098   5.791   4.311  0.2665 -0.2614 -0.6936
 5159SOL    HW220402   6.162   5.856   4.342 -0.0345 -0.7304  1.0036
 5159SOL    HW320403   6.015   5.838   4.311  0.5969  0.4882 -3.3511
 5159SOL    MW420404   6.096   5.806   4.315  0.2704 -0.2244 -0.8203
 5160SOL     OW20405   5.266   3.439   0.039 -0.0375  0.5539 -0.0314
 5160SOL    HW220406   5.352   3.465   0.006 -0.4419  1.0403 -0.7184
 5160SOL    HW320407   5.274   3.447   0.134  1.0077 -0.4549  0.0029
 5160SOL    MW420408   5.279   3.443   0.047  0.0470  0.4849 -0.1175
 5161SOL     OW20409   3.188   0.032   1.617 -0.7328 -0.2955  0.2378
 5161SOL    HW220410   3.276   0.066   1.639  0.5567 -1.3904 -2.7264
 5161SOL    HW320411   3.194  -0.062   1.633 -0.6427 -0.6858 -1.7957
 5161SOL    MW420412   3.201   0.024   1.622 -0.5508 -0.4915 -0.4216
 5162SOL     OW20413   2.361   3.121   4.237 -0.0557  0.1376  0.7523
 5162SOL    HW220414   2.356   3.163   4.323 -1.4013  1.4584  0.0722
 5162SOL    HW320415   2.429   3.170   4.190  0.6768 -0.5811  1.0419
 5162SOL    MW420416   2.370   3.133   4.242 -0.1366  0.2171  0.7008
 5163SOL     OW20417   6.338   1.123   1.451  0.6532  0.0978 -0.1229
 5163SOL    HW220418   6.255   1.170   1.459  0.7457  0.3616 -0.6804
 5163SOL    HW320419   6.388   1.149   1.529  0.6852  0.9029 -0.3973
 5163SOL    MW420420   6.334   1.133   1.463  0.6696  0.2389 -0.2326
 5164SOL     OW20421   3.191   3.770   6.281  0.4105 -0.0140  0.0021
 5164SOL    HW220422   3.140   3.696   6.313  0.1890  0.6962  1.3524
 5164SOL    HW320423   3.279   3.756   6.317  0.2030  0.7042  0.8114
 5164SOL    MW420424   3.196   3.759   6.290  0.3539  0.1744  0.2870
 5165SOL     OW20425   3.704   0.231   3.338  0.2271  0.6224 -0.1431
 5165SOL    HW220426   3.727   0.141   3.315 -1.5636 -0.1024  0.7411
 5165SOL    HW320427   3.681   0.272   3.255 -0.2106 -0.1256 -0.3977
 5165SOL    MW420428   3.704   0.225   3.324 -0.0669  0.4281 -0.0600
 5166SOL     OW20429   2.617   1.119   1.481  0.1124  0.0496  0.4060
 5166SOL    HW220430   2.649   1.029   1.488  0.4992  0.2024  0.6605
 5166SOL    HW320431   2.695   1.173   1.497 -0.4253  0.4325  1.9144
 5166SOL    MW420432   2.632   1.115   1.484  0.0925  0.1203  0.6386
 5167SOL     OW20433   3.096   2.195   2.918  0.3049 -0.8466  0.1002
 5167SOL    HW220434   3.106   2.124   2.981  0.9449 -0.6651  0.2157
 5167SOL    HW320435   3.105   2.153   2.832 -1.4827 -1.2424  0.0754
 5167SOL    MW420436   3.098   2.180   2.915  0.1535 -0.8748  0.1122
 5168SOL     OW20437   3.374   5.174   0.785  0.2309  0.1372 -0.5077
 5168SOL    HW220438   3.286   5.205   0.808  0.1241 -0.6663  0.2394
 5168SOL    HW320439   3.361   5.123   0.705  0.1042  0.4231 -0.6731
 5168SOL    MW420440   3.361   5.171   0.778  0.2001  0.0689 -0.4309
 5169SOL     OW20441   0.885   2.679   0.859  0.1776 -0.2565 -0.3351
 5169SOL    HW220442   0.960   2.620   0.869 -1.3502 -2.2664 -0.1389
 5169SOL    HW320443   0.899   2.745   0.927  1.8388 -0.4803 -0.4051
 5169SOL    MW420444   0.897   2.680   0.870  0.1952 -0.5512 -0.3184
 5170SOL     OW20445   3.581   5.752   0.247  0.0893 -0.7558  1.4776
 5170SOL    HW220446   3.652   5.816   0.255  0.2385 -0.7386  0.2243
 5170SOL    HW320447   3.513   5.783   0.306  0.1205  0.6210  0.8228
 5170SOL    MW420448   3.582   5.764   0.256  0.1131 -0.5719  1.2258
 5171SOL     OW20449   0.366   3.109   3.097  0.0236  0.2336  0.4932
 5171SOL    HW220450   0.398   3.060   3.021 -0.7589  0.7854 -0.2122
 5171SOL    HW320451   0.446   3.137   3.143  0.4990 -0.4181  0.0829
 5171SOL    MW420452   0.381   3.107   3.093 -0.0169  0.2204  0.3460
 5172SOL     OW20453   1.131   4.786   2.239 -0.0742 -0.3077  0.0777
 5172SOL    HW220454   1.108   4.708   2.290 -1.8265  0.0310 -0.1323
 5172SOL    HW320455   1.058   4.796   2.177  2.4033 -1.3219 -3.3024
 5172SOL    MW420456   1.118   4.777   2.238  0.0215 -0.3968 -0.3960
 5173SOL     OW20457   0.300   3.815   4.170 -0.2387 -0.3374  0.5949
 5173SOL    HW220458   0.380   3.862   4.145 -0.1644 -0.4220  0.6690
 5173SOL    HW320459   0.311   3.728   4.132 -1.6190  0.4955 -1.9363
 5173SOL    MW420460   0.312   3.809   4.162 -0.4110 -0.2387  0.2707
 5174SOL     OW20461   5.343   4.371   2.784 -0.2699 -0.2715  0.0914
 5174SOL    HW220462   5.253   4.399   2.769  0.1822  0.7686 -0.8378
 5174SOL    HW320463   5.391   4.453   2.798  0.4606 -0.8395  1.0268
 5174SOL    MW420464   5.338   4.386   2.784 -0.1139 -0.2092  0.0922
 5175SOL     OW20465   1.548   1.344   2.772  0.4418 -0.6974 -0.5324
 5175SOL    HW220466   1.493   1.389   2.707  0.9175 -0.1035 -0.5340
 5175SOL    HW320467   1.579   1.266   2.727 -0.5079 -1.1166 -0.4880
 5175SOL    MW420468   1.545   1.340   2.757  0.3793 -0.6744 -0.5268
 5176SOL     OW20469   1.465   0.920   5.698 -0.1774 -0.4090 -1.0720
 5176SOL    HW220470   1.550   0.895   5.732  0.0955 -1.0231 -2.1904
 5176SOL    HW320471   1.467   1.016   5.697 -0.1897 -0.3595  0.5787
 5176SOL    MW420472   1.476   0.930   5.703 -0.1430 -0.4835 -1.0018
 5177SOL     OW20473   3.203   1.785   4.816  0.0524 -0.4749  0.2579
 5177SOL    HW220474   3.115   1.822   4.812 -0.9141 -2.5872  0.4192
 5177SOL    HW320475   3.225   1.785   4.909  0.1536 -0.0890  0.2334
 5177SOL    MW420476   3.194   1.790   4.828 -0.0617 -0.7026  0.2760
 5178SOL     OW20477   4.072   1.748   5.938 -0.2108 -0.6126 -1.1240
 5178SOL    HW220478   4.152   1.800   5.935 -0.8460  0.4410 -0.0688
 5178SOL    HW320479   4.014   1.788   5.873 -0.9028  0.3809  0.0678
 5178SOL    MW420480   4.075   1.760   5.929 -0.3859 -0.3425 -0.8275
 5179SOL     OW20481   5.543   1.741   4.399 -0.1364  1.1155  0.0449
 5179SOL    HW220482   5.457   1.719   4.364 -0.1087 -2.1523  1.7189
 5179SOL    HW320483   5.526   1.809   4.464 -1.3808  0.9220 -0.0578
 5179SOL    MW420484   5.529   1.747   4.403 -0.2969  0.6588  0.2522
 5180SOL     OW20485   1.147   1.861   4.107 -0.3015 -0.1895  0.3666
 5180SOL    HW220486   1.076   1.796   4.109  0.9217 -1.5738  1.1831
 5180SOL    HW320487   1.103   1.945   4.104 -1.9629 -1.0477 -1.4187
 5180SOL    MW420488   1.132   1.863   4.107 -0.3593 -0.4854  0.2388
 5181SOL     OW20489   6.400   1.220   3.806  0.1191 -0.1471 -0.9962
 5181SOL    HW220490   6.432   1.255   3.889  0.1618 -1.3413 -0.4916
 5181SOL    HW320491   6.325   1.276   3.784 -1.2260 -1.0880  0.9447
 5181SOL    MW420492   6.394   1.232   3.814 -0.0527 -0.4288 -0.6736
 5182SOL     OW20493   1.994   1.706   5.811 -0.3674  0.1220 -0.6059
 5182SOL    HW220494   2.089   1.691   5.806  0.2182  2.6726  0.9145
 5182SOL    HW320495   1.955   1.629   5.771  2.3253 -1.4498 -0.4150
 5182SOL    MW420496   2.002   1.694   5.805  0.0651  0.2511 -0.3801
 5183SOL     OW20497   4.550   2.455   1.197 -0.4022  0.7848  0.2385
 5183SOL    HW220498   4.470   2.406   1.218 -0.6109  1.0491  0.0738
 5183SOL    HW320499   4.524   2.547   1.203 -0.0988  0.8730  0.2280
 5183SOL    MW420500   4.536   2.461   1.200 -0.3897  0.8313  0.2154
 5184SOL     OW20501   1.123   2.659   4.430  0.6076  0.4271 -0.6348
 5184SOL    HW220502   1.089   2.633   4.345 -0.7996  0.3881 -0.0883
 5184SOL    HW320503   1.116   2.755   4.431  1.4345  0.4934 -0.8867
 5184SOL    MW420504   1.117   2.668   4.419  0.5310  0.4307 -0.5959
 5185SOL     OW20505   2.348   3.894   3.693 -0.3863 -0.4936  0.2193
 5185SOL    HW220506   2.328   3.865   3.782 -2.4947 -0.5635 -0.2347
 5185SOL    HW320507   2.269   3.875   3.643  1.3290 -2.1174 -2.1113
 5185SOL    MW420508   2.335   3.888   3.698 -0.4382 -0.7171 -0.1481
 5186SOL     OW20509   0.554   1.418   4.236 -0.1064 -0.4055 -0.4913
 5186SOL    HW220510   0.504   1.346   4.197 -0.2988 -0.1068 -0.7986
 5186SOL    HW320511   0.610   1.375   4.301 -0.2076 -0.8352 -0.6821
 5186SOL    MW420512   0.555   1.403   4.240 -0.1451 -0.4228 -0.5570
 5187SOL     OW20513   1.783   1.514   0.357  0.3538  0.2492 -0.6318
 5187SOL    HW220514   1.825   1.462   0.288 -0.4347  0.5218 -1.3343
 5187SOL    HW320515   1.852   1.529   0.421  0.8395 -0.8697 -0.8722
 5187SOL    MW420516   1.797   1.509   0.356  0.3138  0.1375 -0.7562
 5188SOL     OW20517   1.588   0.609   2.835  0.7331 -0.2028 -0.4131
 5188SOL    HW220518   1.659   0.672   2.835  0.9572 -0.4205  1.2304
 5188SOL    HW320519   1.515   0.654   2.878  1.1305 -1.2563  1.4679
 5188SOL    MW420520   1.588   0.623   2.841  0.8151 -0.3705  0.0519
 5189SOL     OW20521   3.710   5.065   5.505  0.2811  0.3890 -0.1529
 5189SOL    HW220522   3.690   5.001   5.437  0.2345  0.3439 -0.0982
 5189SOL    HW320523   3.626   5.109   5.521 -0.2843 -1.1205  1.4448
 5189SOL    MW420524   3.696   5.062   5.498  0.2004  0.1839  0.0651
 5190SOL     OW20525   0.546   2.545   4.072 -0.0982  0.4652  0.0005
 5190SOL    HW220526   0.524   2.632   4.041  0.4885  0.3048 -0.9147
 5190SOL    HW320527   0.641   2.537   4.056 -0.2950 -0.6436 -0.7784
 5190SOL    MW420528   0.556   2.555   4.066 -0.0468  0.2977 -0.2230
 5191SOL     OW20529   2.347   0.534   0.075  0.2097  0.0592 -0.1268
 5191SOL    HW220530   2.312   0.572   0.156  0.6144  1.0449 -0.4039
 5191SOL    HW320531   2.396   0.457   0.105  1.8504  1.3871  0.8019
 5191SOL    MW420532   2.349   0.529   0.090  0.4795  0.3644 -0.0408
 5192SOL     OW20533   1.065   0.068   5.362 -0.3818  0.0839 -0.2122
 5192SOL    HW220534   1.150   0.071   5.407 -0.0558 -0.1958 -0.8048
 5192SOL    HW320535   1.008   0.019   5.422 -0.5736  1.6194  0.9134
 5192SOL    MW420536   1.069   0.062   5.376 -0.3641  0.2495 -0.1419
 5193SOL     OW20537   4.440   3.338   2.865  0.3465 -0.0652  0.0650
 5193SOL    HW220538   4.487   3.417   2.892 -0.4874  0.1400  0.9685
 5193SOL    HW320539   4.357   3.370   2.831 -0.8699 -0.6272  2.3391
 5193SOL    MW420540   4.436   3.353   2.864  0.0760 -0.1123  0.4843
 5194SOL     OW20541   1.226   2.490   5.061 -0.1831  0.1160 -0.0126
 5194SOL    HW220542   1.216   2.449   4.975 -0.1712  0.1317 -0.0215
 5194SOL    HW320543   1.137   2.511   5.089 -0.2227 -0.2756  0.1657
 5194SOL    MW420544   1.213   2.487   5.054 -0.1867  0.0664  0.0098
 5195SOL     OW20545   3.564   4.735   5.433  0.1148  0.1855  0.3840
 5195SOL    HW220546   3.492   4.787   5.471 -0.1757  0.1274 -0.0816
 5195SOL    HW320547   3.525   4.650   5.415  0.6250 -0.2446  1.2600
 5195SOL    MW420548   3.549   4.731   5.436  0.1438  0.1211  0.4381
 5196SOL     OW20549   1.695   2.232   0.298 -0.4362 -0.1974  0.4672
 5196SOL    HW220550   1.650   2.311   0.329  0.3013  1.1681 -1.7438
 5196SOL    HW320551   1.788   2.256   0.296 -0.3460 -0.5957 -1.6148
 5196SOL    MW420552   1.701   2.246   0.302 -0.3270 -0.0698 -0.0992
 5197SOL     OW20553   0.459   4.188   1.380 -0.5907  0.5155  0.4590
 5197SOL    HW220554   0.538   4.140   1.355 -0.8397  0.9579 -1.2569
 5197SOL    HW320555   0.416   4.131   1.444  1.1801  0.3511  1.5770
 5197SOL    MW420556   0.464   4.174   1.385 -0.3899  0.5522  0.3801
 5198SOL     OW20557   5.885   1.304   5.918 -0.0767  0.0105 -0.1064
 5198SOL    HW220558   5.851   1.390   5.942 -1.1822 -0.1411 -1.0639
 5198SOL    HW320559   5.959   1.290   5.978 -1.6417  0.3815  2.0197
 5198SOL    MW420560   5.891   1.313   5.929 -0.4290  0.0394  0.0478
 5199SOL     OW20561   2.054   4.124   3.463 -0.1169 -0.5005  0.0082
 5199SOL    HW220562   2.015   4.146   3.548 -0.8293 -0.6601 -0.2790
 5199SOL    HW320563   2.121   4.192   3.450 -0.2973 -0.2194  0.4957
 5199SOL    MW420564   2.058   4.136   3.473 -0.2347 -0.4845  0.0346
 5200SOL     OW20565   5.456   0.831   3.894  0.0709  0.7389  0.4167
 5200SOL    HW220566   5.505   0.813   3.813 -0.3942  0.3291  0.2184
 5200SOL    HW320567   5.383   0.885   3.866  0.3932  1.3373  0.7107
 5200SOL    MW420568   5.453   0.836   3.879  0.0521  0.7638  0.4293
 5201SOL     OW20569   1.361   4.812   3.777 -0.1098  0.5879  0.0880
 5201SOL    HW220570   1.364   4.858   3.694  0.0624  0.5342  0.0650
 5201SOL    HW320571   1.452   4.791   3.797 -0.2659 -0.5366 -0.3466
 5201SOL    MW420572   1.373   4.815   3.769 -0.1077  0.4324  0.0276
 5202SOL     OW20573   4.079   2.983   0.473 -0.2582 -0.4960  0.2682
 5202SOL    HW220574   4.071   2.974   0.378 -0.1139 -1.1324  0.3133
 5202SOL    HW320575   4.036   2.905   0.508 -0.2418 -0.3036  0.7249
 5202SOL    MW420576   4.072   2.972   0.465 -0.2370 -0.5546  0.3344
 5203SOL     OW20577   0.676   2.972   2.291 -0.0745 -0.5093 -0.3375
 5203SOL    HW220578   0.629   2.893   2.318 -0.5873  0.4705  1.8778
 5203SOL    HW320579   0.767   2.943   2.281  0.0842 -1.1014  2.1611
 5203SOL    MW420580   0.682   2.957   2.293 -0.1212 -0.4581  0.2844
 5204SOL     OW20581   4.408   6.068   5.705 -0.3700  0.1543 -0.2998
 5204SOL    HW220582   4.397   6.138   5.641  0.4891  0.5088 -0.0793
 5204SOL    HW320583   4.368   5.991   5.665  0.9491  0.1299 -1.6769
 5204SOL    MW420584   4.402   6.067   5.691 -0.0826  0.1979 -0.4524
 5205SOL     OW20585   6.090   5.988   3.013 -0.2124  0.0756  0.2139
 5205SOL    HW220586   6.064   5.926   2.944 -2.4517  0.6960  0.4202
 5205SOL    HW320587   6.021   6.054   3.013  0.6977  1.1015  1.8440
 5205SOL    MW420588   6.078   5.989   3.004 -0.3878  0.2928  0.4562
 5206SOL     OW20589   5.085   0.663   5.242 -0.0250  0.0837 -0.2355
 5206SOL    HW220590   5.097   0.735   5.181  2.0841  0.4378  0.5234
 5206SOL    HW320591   5.171   0.621   5.247 -0.3974 -0.5326  1.7168
 5206SOL    MW420592   5.098   0.667   5.235  0.2041  0.0491  0.1222
 5207SOL     OW20593   3.763   0.210   1.913  0.2348  0.1761 -0.9789
 5207SOL    HW220594   3.740   0.148   1.983  1.1541 -1.1591 -1.8101
 5207SOL    HW320595   3.795   0.155   1.842  1.6305  1.6601 -1.5562
 5207SOL    MW420596   3.764   0.195   1.913  0.5402  0.1957 -1.1648
 5208SOL     OW20597   3.059   3.797   1.604 -0.4681 -0.3174 -0.5831
 5208SOL    HW220598   2.989   3.772   1.663 -0.2979  1.7408  0.5536
 5208SOL    HW320599   3.138   3.758   1.642  0.1278  3.1640  2.2897
 5208SOL    MW420600   3.060   3.788   1.616 -0.3670  0.4135 -0.0541
 5209SOL     OW20601   6.407   0.499   3.523 -0.1075 -0.0114 -0.0769
 5209SOL    HW220602   6.394   0.486   3.617 -5.1823  1.0980 -0.3617
 5209SOL    HW320603   6.432   0.591   3.516  0.6221 -0.1837  0.1727
 5209SOL    MW420604   6.409   0.510   3.535 -0.6808  0.1122 -0.0815
 5210SOL     OW20605   2.317   3.384   5.213  0.8852  0.2109  0.0415
 5210SOL    HW220606   2.348   3.469   5.242 -4.7681  2.2783  1.3516
 5210SOL    HW320607   2.282   3.399   5.125  0.8083 -1.0865 -0.1787
 5210SOL    MW420608   2.316   3.397   5.205  0.1292  0.3125  0.1853
 5211SOL     OW20609   0.638   0.726   2.969 -0.0948 -0.0243 -0.0354
 5211SOL    HW220610   0.688   0.710   3.049 -0.6088  0.3675  0.3749
 5211SOL    HW320611   0.578   0.652   2.963 -0.7467  0.4481  0.4973
 5211SOL    MW420612   0.636   0.714   2.979 -0.2486  0.0897  0.0890
 5212SOL     OW20613   5.479   1.167   4.600 -0.1473 -0.5080 -0.0448
 5212SOL    HW220614   5.465   1.085   4.647  0.0893 -0.3096  0.3819
 5212SOL    HW320615   5.567   1.158   4.562 -1.2881 -1.7158 -2.6395
 5212SOL    MW420616   5.489   1.155   4.601 -0.2666 -0.6412 -0.3308
 5213SOL     OW20617   2.718   0.316   0.783 -0.6105  0.2004  0.2960
 5213SOL    HW220618   2.729   0.286   0.692 -2.3957  0.6445 -0.1152
 5213SOL    HW320619   2.779   0.389   0.792  2.0628 -1.9326  0.5620
 5213SOL    MW420620   2.728   0.322   0.772 -0.4933 -0.0224  0.2768
 5214SOL     OW20621   1.109   3.002   3.186  0.2515 -0.4706 -0.1611
 5214SOL    HW220622   1.167   2.930   3.164  0.8991  0.0155 -0.0686
 5214SOL    HW320623   1.081   2.983   3.276 -0.0189 -0.8909 -0.3329
 5214SOL    MW420624   1.113   2.990   3.195  0.3013 -0.4620 -0.1716
 5215SOL     OW20625   3.230   5.307   3.402  0.2968  0.3934  0.0124
 5215SOL    HW220626   3.238   5.214   3.383 -0.3348  0.3544 -0.0819
 5215SOL    HW320627   3.199   5.312   3.492 -1.2227  0.4526 -0.4745
 5215SOL    MW420628   3.227   5.295   3.411  0.0130  0.3961 -0.0643
 5216SOL     OW20629   5.937   5.989   1.445 -0.1641  0.5440 -0.1363
 5216SOL    HW220630   5.973   5.940   1.370 -1.5051  0.8957 -1.0551
 5216SOL    HW320631   5.902   5.921   1.502 -0.0253  0.3136 -0.3199
 5216SOL    MW420632   5.937   5.973   1.442 -0.3228  0.5600 -0.2818
 5217SOL     OW20633   2.969   2.987   0.992  0.0393  0.0439  0.1750
 5217SOL    HW220634   2.901   3.029   1.046  0.1633 -1.4088  1.5260
 5217SOL    HW320635   2.940   2.897   0.983  0.5439  0.0202 -1.3976
 5217SOL    MW420636   2.956   2.981   0.998  0.1222 -0.1509  0.1458
 5218SOL     OW20637   4.673   3.046   3.652 -0.0172  0.2736 -0.0173
 5218SOL    HW220638   4.622   3.115   3.608 -1.5511 -1.4597 -1.0920
 5218SOL    HW320639   4.619   3.019   3.726 -0.3800 -1.1255 -0.7692
 5218SOL    MW420640   4.659   3.052   3.656 -0.2675 -0.1396 -0.2583
 5219SOL     OW20641   1.166   3.867   0.978  0.0104  0.3854  0.2767
 5219SOL    HW220642   1.196   3.800   0.917 -0.4614  0.3902  0.0318
 5219SOL    HW320643   1.077   3.888   0.948  0.5019  1.8225 -0.2472
 5219SOL    MW420644   1.158   3.861   0.966  0.0130  0.5756  0.1752
 5220SOL     OW20645   4.495   5.853   3.845  0.1210 -0.2365  0.1019
 5220SOL    HW220646   4.487   5.812   3.759 -1.4212  1.7258 -0.7768
 5220SOL    HW320647   4.589   5.869   3.855  0.2798  0.0473 -1.5249
 5220SOL    MW420648   4.507   5.850   3.835 -0.0615  0.0599 -0.2286
 5221SOL     OW20649   2.638   5.389   1.008  0.3555  0.1237  1.0616
 5221SOL    HW220650   2.606   5.465   1.056 -1.6089 -0.2173  0.3841
 5221SOL    HW320651   2.601   5.399   0.920  1.1832 -0.9360  0.5723
 5221SOL    MW420652   2.629   5.400   1.003  0.2055 -0.0611  0.9076
 5222SOL     OW20653   3.617   4.572   4.539  0.4969  0.1628 -0.2415
 5222SOL    HW220654   3.702   4.604   4.509  0.9169  0.7373  1.4448
 5222SOL    HW320655   3.571   4.650   4.571  0.0343 -0.3720  0.4352
 5222SOL    MW420656   3.622   4.586   4.539  0.4913  0.1681  0.0703
 5223SOL     OW20657   6.212   3.260   2.230  0.4273  0.1975  0.2869
 5223SOL    HW220658   6.183   3.246   2.320  1.1456  0.1030  0.5117
 5223SOL    HW320659   6.255   3.178   2.206  0.1569  0.1890 -0.1763
 5223SOL    MW420660   6.214   3.247   2.239  0.4864  0.1839  0.2555
 5224SOL     OW20661   2.349   2.182   5.153 -0.4392  0.7094 -0.6172
 5224SOL    HW220662   2.369   2.127   5.228  2.1107  2.6992  0.3092
 5224SOL    HW320663   2.266   2.148   5.119 -0.0108 -2.3288  1.0650
 5224SOL    MW420664   2.340   2.171   5.158 -0.0462  0.5711 -0.2731
 5225SOL     OW20665   0.915   3.926   0.884 -0.5441 -0.3963  0.0319
 5225SOL    HW220666   0.898   4.010   0.841  1.6336 -0.4158 -0.9856
 5225SOL    HW320667   0.861   3.863   0.836  0.4059 -0.1009 -1.4873
 5225SOL    MW420668   0.906   3.929   0.872 -0.1315 -0.3599 -0.3028
 5226SOL     OW20669   2.823   3.968   2.566  0.3746  0.6635 -0.6855
 5226SOL    HW220670   2.888   3.923   2.511 -0.7612  0.9846 -2.3835
 5226SOL    HW320671   2.749   3.983   2.507 -0.7668  1.3825  0.8719
 5226SOL    MW420672   2.822   3.964   2.551  0.0742  0.8007 -0.7040
 5227SOL     OW20673   5.749   2.125   1.627  0.1335  0.3019  0.3733
 5227SOL    HW220674   5.744   2.029   1.628 -1.2878  0.3465  0.0035
 5227SOL    HW320675   5.744   2.148   1.534  0.4495  0.7433  0.4626
 5227SOL    MW420676   5.747   2.115   1.615 -0.0123  0.3660  0.3363
 5228SOL     OW20677   4.243   2.012   3.501 -0.5427  0.4190 -0.0114
 5228SOL    HW220678   4.326   2.052   3.527  1.4912 -1.6060 -2.7686
 5228SOL    HW320679   4.232   1.938   3.561  0.4028 -0.0753 -0.4157
 5228SOL    MW420680   4.253   2.007   3.512 -0.1496  0.0866 -0.4285
 5229SOL     OW20681   4.684   5.689   2.514  0.0199 -0.0358  0.7991
 5229SOL    HW220682   4.600   5.644   2.523 -0.7750  1.2494  0.0146
 5229SOL    HW320683   4.720   5.658   2.431 -0.3961  0.5281  0.3984
 5229SOL    MW420684   4.677   5.679   2.504 -0.1399  0.2081  0.6427
 5230SOL     OW20685   1.254   5.766   5.095 -0.3196 -0.0954  0.0311
 5230SOL    HW220686   1.167   5.788   5.129 -0.5254  1.9875 -1.5889
 5230SOL    HW320687   1.315   5.797   5.161 -0.7724 -0.3205  0.5623
 5230SOL    MW420688   1.250   5.773   5.108 -0.4065  0.1497 -0.1125
 5231SOL     OW20689   5.617   1.826   2.117 -0.5013  0.2381 -0.4649
 5231SOL    HW220690   5.593   1.916   2.137 -0.8555  0.0405  0.0122
 5231SOL    HW320691   5.547   1.794   2.060 -0.5965  0.1292 -0.2864
 5231SOL    MW420692   5.605   1.834   2.112 -0.5606  0.1977 -0.3784
 5232SOL     OW20693   0.278   2.568   3.770 -0.2236  0.3497  0.5599
 5232SOL    HW220694   0.253   2.478   3.790 -0.7391  0.2457 -0.4549
 5232SOL    HW320695   0.214   2.596   3.704 -0.1186  1.4831  0.9172
 5232SOL    MW420696   0.266   2.560   3.764 -0.2777  0.4855  0.4731
 5233SOL     OW20697   3.592   2.204   1.089 -0.6657 -0.4145 -0.7009
 5233SOL    HW220698   3.558   2.210   1.178 -0.0767  0.3750 -0.5062
 5233SOL    HW320699   3.664   2.268   1.087 -0.4863 -0.6249 -1.6586
 5233SOL    MW420700   3.597   2.213   1.101 -0.5643 -0.3381 -0.8016
 5234SOL     OW20701   4.223   5.574   5.485  0.7727  0.6202 -0.0024
 5234SOL    HW220702   4.186   5.616   5.408  1.8340  0.2962 -0.7144
 5234SOL    HW320703   4.272   5.644   5.529  1.8805  0.3383 -0.7572
 5234SOL    MW420704   4.225   5.589   5.481  1.0589  0.5402 -0.1959
 5235SOL     OW20705   1.006   1.341   0.492  0.3347  0.4254  0.1554
 5235SOL    HW220706   0.939   1.399   0.455  0.1230  1.1314  1.5728
 5235SOL    HW320707   1.027   1.380   0.577  1.4244 -0.6517  0.4038
 5235SOL    MW420708   1.000   1.354   0.498  0.4506  0.3764  0.3752
 5236SOL     OW20709   5.444   5.875   4.509 -0.6889  0.0600 -0.4483
 5236SOL    HW220710   5.519   5.934   4.515 -0.9559  0.5031 -1.2383
 5236SOL    HW320711   5.481   5.791   4.483 -0.5639  0.6053 -2.2064
 5236SOL    MW420712   5.459   5.872   4.506 -0.7077  0.1904 -0.7845
 5237SOL     OW20713   1.838   1.017   4.446 -0.1212  0.0418  0.0357
 5237SOL    HW220714   1.843   1.040   4.539  0.6998 -0.6249  0.1725
 5237SOL    HW320715   1.781   0.940   4.444  0.5922 -0.4983  0.1083
 5237SOL    MW420716   1.831   1.010   4.458  0.0813 -0.1174  0.0634
 5238SOL     OW20717   1.520   5.627   5.956 -0.1358 -0.2453  0.8124
 5238SOL    HW220718   1.461   5.553   5.942  0.2097 -0.3088 -0.4807
 5238SOL    HW320719   1.542   5.623   6.049  0.0761 -1.9226  0.7283
 5238SOL    MW420720   1.515   5.617   5.966 -0.0623 -0.4750  0.6307
 5239SOL     OW20721   3.537   0.347   3.864 -0.2618  0.5993 -0.3328
 5239SOL    HW220722   3.570   0.396   3.789 -1.7971 -1.1488 -2.2777
 5239SOL    HW320723   3.511   0.414   3.927  0.2093  2.1682 -1.7308
 5239SOL    MW420724   3.538   0.362   3.862 -0.4022  0.5757 -0.7739
 5240SOL     OW20725   1.171   3.575   6.104  0.1945 -0.4216 -0.4068
 5240SOL    HW220726   1.101   3.519   6.071 -0.5427  0.6780 -0.7873
 5240SOL    HW320727   1.147   3.663   6.075  1.2140  0.1262  0.3293
 5240SOL    MW420728   1.159   3.580   6.096  0.2318 -0.2042 -0.3599
 5241SOL     OW20729   4.988   1.038   2.985  0.0867  0.4943 -0.0214
 5241SOL    HW220730   4.943   1.016   2.903 -0.7043  0.0892  0.5151
 5241SOL    HW320731   4.918   1.067   3.044  0.8621  2.7144 -0.0945
 5241SOL    MW420732   4.973   1.039   2.982  0.0846  0.7338  0.0398
 5242SOL     OW20733   5.676   6.249   4.675  0.7596 -0.6002 -0.0176
 5242SOL    HW220734   5.640   6.325   4.629  2.1213  0.3737  0.4555
 5242SOL    HW320735   5.645   6.258   4.765 -0.4056 -1.5092 -0.3136
 5242SOL    MW420736   5.668   6.260   4.681  0.7856 -0.5916  0.0057
 5243SOL     OW20737   5.506   4.677   0.660  0.0451  0.0958 -0.5992
 5243SOL    HW220738   5.565   4.675   0.735  0.9089 -1.1684 -1.2780
 5243SOL    HW320739   5.559   4.715   0.589 -0.8461  1.5487 -0.5336
 5243SOL    MW420740   5.521   4.682   0.660  0.0415  0.1207 -0.6801
 5244SOL     OW20741   4.222   2.247   5.637  0.1562  0.0530 -0.0515
 5244SOL    HW220742   4.130   2.260   5.615  0.1274 -0.0340  0.0214
 5244SOL    HW320743   4.254   2.336   5.656  0.3042  0.2009 -0.9243
 5244SOL    MW420744   4.214   2.261   5.636  0.1719  0.0610 -0.1570
 5245SOL     OW20745   6.190   6.365   0.625  0.0423  0.8574  0.2862
 5245SOL    HW220746   6.240   6.295   0.667  0.7729  1.2503  0.0803
 5245SOL    HW320747   6.255   6.432   0.604 -0.8379  2.2051  1.6962
 5245SOL    MW420748   6.205   6.364   0.627  0.0226  1.0870  0.4450
 5246SOL     OW20749   3.921   1.323   1.805  0.3261 -0.1345 -0.2561
 5246SOL    HW220750   3.938   1.229   1.803 -0.4088 -0.3303 -4.2947
 5246SOL    HW320751   4.005   1.362   1.829  0.9224 -1.7576  0.4301
 5246SOL    MW420752   3.934   1.316   1.808  0.3078 -0.3745 -0.6984
 5247SOL     OW20753   2.504   4.572   0.246  0.5723 -0.7459 -0.2976
 5247SOL    HW220754   2.457   4.534   0.172 -2.8430 -1.4836  2.0278
 5247SOL    HW320755   2.462   4.657   0.260  0.3646 -1.0871  1.3924
 5247SOL    MW420756   2.492   4.578   0.238  0.0943 -0.8882  0.2322
 5248SOL     OW20757   1.478   1.725   4.884  0.2166 -1.1301 -0.3102
 5248SOL    HW220758   1.568   1.755   4.871  0.1850 -0.1885  1.3713
 5248SOL    HW320759   1.472   1.644   4.832  0.6726  1.0017 -4.0460
 5248SOL    MW420760   1.489   1.718   4.875  0.2726 -0.7246 -0.5812
 5249SOL     OW20761   0.225   4.953   6.344 -0.3975  0.6565  0.0238
 5249SOL    HW220762   0.224   5.041   6.381 -0.4766  0.0759  1.4503
 5249SOL    HW320763   0.315   4.922   6.358  0.1558  1.1197 -2.0677
 5249SOL    MW420764   0.237   4.960   6.350 -0.3349  0.6410 -0.0639
 5250SOL     OW20765   4.484   1.873   2.699  0.0401  0.3428 -0.0709
 5250SOL    HW220766   4.528   1.789   2.686  1.6162  1.0033  0.6640
 5250SOL    HW320767   4.394   1.850   2.721  0.2368 -1.1181 -0.6813
 5250SOL    MW420768   4.478   1.859   2.700  0.2740  0.2372 -0.0545
 5251SOL     OW20769   3.051   3.257   3.188  0.1403 -0.5923 -0.2258
 5251SOL    HW220770   2.989   3.288   3.123 -2.5550 -2.9899  0.9948
 5251SOL    HW320771   3.015   3.174   3.220  2.2206 -0.4763  3.0039
 5251SOL    MW420772   3.038   3.250   3.184  0.0591 -0.8933  0.3614
 5252SOL     OW20773   4.939   1.606   3.077  0.0124  0.4865 -0.2986
 5252SOL    HW220774   4.896   1.569   3.155 -0.8180 -3.9662 -2.5291
 5252SOL    HW320775   4.878   1.671   3.044 -2.1354 -1.2190  0.0773
 5252SOL    MW420776   4.925   1.609   3.083 -0.3805 -0.3260 -0.5433
 5253SOL     OW20777   1.092   6.093   2.375  0.3535 -0.0002  0.0688
 5253SOL    HW220778   1.095   6.005   2.412  1.8161  0.8743  2.2535
 5253SOL    HW320779   1.179   6.105   2.335 -0.1322  0.1738 -0.9681
 5253SOL    MW420780   1.104   6.083   2.374  0.4824  0.1381  0.2202
 5254SOL     OW20781   4.626   5.766   5.639  0.2516 -0.0235  0.1301
 5254SOL    HW220782   4.707   5.813   5.660 -0.0772  1.0550 -0.9213
 5254SOL    HW320783   4.641   5.732   5.551 -1.5884  3.0499 -1.5604
 5254SOL    MW420784   4.639   5.768   5.631 -0.0346  0.5243 -0.2317
 5255SOL     OW20785   6.248   1.525   1.565 -0.2148 -0.4112  0.0384
 5255SOL    HW220786   6.235   1.543   1.658 -0.9988  1.0561 -0.3246
 5255SOL    HW320787   6.213   1.437   1.552 -2.8373  0.4786  0.6069
 5255SOL    MW420788   6.242   1.515   1.575 -0.6643 -0.1002  0.0655
 5256SOL     OW20789   0.259   6.004   6.250 -0.7078 -0.4956  0.3622
 5256SOL    HW220790   0.198   6.001   6.176 -0.8558 -0.4606  0.4837
 5256SOL    HW320791   0.285   6.096   6.256 -0.0409 -0.6351 -0.1804
 5256SOL    MW420792   0.254   6.015   6.241 -0.6393 -0.5094  0.3066
 5257SOL     OW20793   5.069   0.839   0.810  0.7581 -0.1345  0.2332
 5257SOL    HW220794   5.044   0.911   0.753 -0.8983 -0.4810  0.4843
 5257SOL    HW320795   5.067   0.762   0.753 -1.1090 -0.5135  0.7650
 5257SOL    MW420796   5.066   0.838   0.795  0.2932 -0.2302  0.3365
 5258SOL     OW20797   5.758   2.961   0.156 -0.5282 -0.7228  0.0398
 5258SOL    HW220798   5.808   2.885   0.186 -1.8333 -2.6565 -2.2699
 5258SOL    HW320799   5.687   2.969   0.219  0.5182 -0.3660  1.2073
 5258SOL    MW420800   5.755   2.952   0.168 -0.5623 -0.9309 -0.1109
 5259SOL     OW20801   6.270   0.650   2.018  0.2154 -1.0224 -0.1658
 5259SOL    HW220802   6.354   0.619   1.982 -0.5090 -1.7061 -1.3154
 5259SOL    HW320803   6.241   0.578   2.075  0.4210 -0.7546  0.2902
 5259SOL    MW420804   6.278   0.636   2.021  0.1469 -1.0772 -0.2573
 5260SOL     OW20805   2.690   1.802   3.319 -0.1514 -0.5102  0.0130
 5260SOL    HW220806   2.704   1.708   3.323 -1.0904 -0.6584 -0.0584
 5260SOL    HW320807   2.779   1.839   3.315  0.2006 -1.4428 -1.3432
 5260SOL    MW420808   2.704   1.795   3.319 -0.2288 -0.6528 -0.1754
 5261SOL     OW20809   3.359   1.100   2.673  0.3140 -0.0170 -0.3265
 5261SOL    HW220810   3.350   1.027   2.735  2.7570  1.1412  1.5266
 5261SOL    HW320811   3.389   1.059   2.593  1.1768 -1.1310  0.5347
 5261SOL    MW420812   3.361   1.085   2.671  0.7501 -0.0112  0.0316
 5262SOL     OW20813   2.251   6.045   1.982 -0.0349  0.1460  0.4541
 5262SOL    HW220814   2.255   6.042   1.887 -0.9860 -0.4603  0.4233
 5262SOL    HW320815   2.190   5.976   2.006  0.2904  0.2055  1.5167
 5262SOL    MW420816   2.244   6.036   1.973 -0.1175  0.0739  0.5903
 5263SOL     OW20817   0.489   3.436   1.897  0.3171  0.1824  0.0340
 5263SOL    HW220818   0.427   3.365   1.916 -0.2420  0.6042 -0.1626
 5263SOL    HW320819   0.564   3.393   1.857  0.5919 -0.4576  1.2280
 5263SOL    MW420820   0.491   3.421   1.894  0.2796  0.1536  0.1656
 5264SOL     OW20821   2.642   2.105   2.214  0.0841 -0.1955 -0.1670
 5264SOL    HW220822   2.648   2.043   2.287  0.1576  0.4142  0.3552
 5264SOL    HW320823   2.558   2.149   2.226 -1.2892 -2.0937 -2.1117
 5264SOL    MW420824   2.632   2.103   2.225 -0.0874 -0.3655 -0.3547
 5265SOL     OW20825   5.168   6.455   4.973 -0.4014  0.0021  0.5445
 5265SOL    HW220826   5.229   6.403   5.025  0.6933  0.7336  0.0576
 5265SOL    HW320827   5.168   6.413   4.887 -0.7388 -0.1141  0.6027
 5265SOL    MW420828   5.176   6.443   4.968 -0.3015  0.0833  0.4880
 5266SOL     OW20829   4.918   6.169   6.190  0.0609 -0.6709  0.1906
 5266SOL    HW220830   4.930   6.078   6.163 -1.2770 -0.6267 -0.6644
 5266SOL    HW320831   4.829   6.190   6.162  1.1603  1.6726 -1.9262
 5266SOL    MW420832   4.908   6.160   6.182  0.0295 -0.3559 -0.2015
 5267SOL     OW20833   1.909   4.349   6.364 -0.0625 -0.0367  0.1802
 5267SOL    HW220834   1.816   4.354   6.340 -1.0885 -0.2622  3.4859
 5267SOL    HW320835   1.939   4.439   6.361 -0.8705  0.2591  0.5716
 5267SOL    MW420836   1.901   4.361   6.361 -0.3045 -0.0274  0.6680
 5268SOL     OW20837   5.836   1.253   0.233  0.1909 -0.0036 -0.3948
 5268SOL    HW220838   5.793   1.181   0.186  1.4899 -0.2819 -1.2241
 5268SOL    HW320839   5.799   1.249   0.321  0.7001 -2.1437 -0.2057
 5268SOL    MW420840   5.826   1.243   0.238  0.4294 -0.3227 -0.4793
 5269SOL     OW20841   3.670   4.161   2.125  0.0267  0.3930 -0.3079
 5269SOL    HW220842   3.704   4.168   2.036  0.2999 -3.8428 -0.7580
 5269SOL    HW320843   3.577   4.142   2.114 -0.1105  0.6795  0.3402
 5269SOL    MW420844   3.662   4.159   2.112  0.0446 -0.1281 -0.2818
 5270SOL     OW20845   4.830   3.185   0.022  0.3606 -0.9774 -0.7415
 5270SOL    HW220846   4.862   3.118  -0.039  0.5430 -1.9678  0.3960
 5270SOL    HW320847   4.812   3.261  -0.033 -1.3986 -2.4471 -2.3544
 5270SOL    MW420848   4.832   3.186   0.007  0.1525 -1.3020 -0.8043
 5271SOL     OW20849   2.795   3.744   4.219 -0.7098  0.7948 -0.6205
 5271SOL    HW220850   2.801   3.827   4.266  1.9275  0.9808 -1.1428
 5271SOL    HW320851   2.873   3.695   4.246 -2.3479 -1.7234 -0.0512
 5271SOL    MW420852   2.806   3.748   4.229 -0.5779  0.4871 -0.6143
 5272SOL     OW20853   1.720   5.238   5.918 -0.2456 -0.2404 -0.7170
 5272SOL    HW220854   1.760   5.157   5.948  1.9697  1.4149  1.1376
 5272SOL    HW320855   1.659   5.262   5.989  0.6320  0.7158 -0.2689
 5272SOL    MW420856   1.717   5.231   5.932  0.1625  0.1041 -0.4132
 5273SOL     OW20857   2.473   3.732   3.051  0.2928  0.2354  0.0405
 5273SOL    HW220858   2.428   3.666   2.998  0.3715 -0.2678  0.5893
 5273SOL    HW320859   2.439   3.719   3.140 -0.7336  1.8396 -0.0606
 5273SOL    MW420860   2.463   3.722   3.056  0.1678  0.3806  0.0995
 5274SOL     OW20861   3.292   4.037   1.282 -0.2221  0.4221  0.0549
 5274SOL    HW220862   3.279   3.946   1.255  1.8650 -0.2628  1.1369
 5274SOL    HW320863   3.254   4.041   1.370  1.4161  0.0023  0.8231
 5274SOL    MW420864   3.285   4.026   1.290  0.2694  0.2763  0.2990
 5275SOL     OW20865   1.127   3.245   2.704  0.3113 -0.3238  0.0818
 5275SOL    HW220866   1.144   3.209   2.791  1.6374  0.2350  0.0699
 5275SOL    HW320867   1.044   3.291   2.713 -0.9296 -2.4536  0.3621
 5275SOL    MW420868   1.118   3.246   2.717  0.3225 -0.5311  0.1172
 5276SOL     OW20869   3.508   0.446   0.501  0.0619  0.0814  0.2930
 5276SOL    HW220870   3.569   0.379   0.468 -0.6751  0.2920 -1.6240
 5276SOL    HW320871   3.547   0.529   0.475 -0.5638  0.2563 -0.1033
 5276SOL    MW420872   3.521   0.448   0.493 -0.1179  0.1322 -0.0122
 5277SOL     OW20873   4.819   4.270   5.296 -0.2121  0.1337 -0.2162
 5277SOL    HW220874   4.757   4.330   5.254 -0.5984  0.7576  1.2062
 5277SOL    HW320875   4.774   4.186   5.299 -0.1624  0.0631 -1.0541
 5277SOL    MW420876   4.805   4.267   5.291 -0.2565  0.2067 -0.1391
 5278SOL     OW20877   3.406   1.456   0.493 -0.3522  0.1658 -0.3217
 5278SOL    HW220878   3.493   1.433   0.461 -1.2237 -2.0060 -1.3143
 5278SOL    HW320879   3.395   1.407   0.574 -0.1954  1.4844  0.5377
 5278SOL    MW420880   3.416   1.447   0.499 -0.4465  0.0533 -0.3392
 5279SOL     OW20881   2.542   3.480   1.946 -0.2911 -0.3007 -0.5494
 5279SOL    HW220882   2.587   3.476   1.862  0.6209 -0.0575 -0.0960
 5279SOL    HW320883   2.449   3.477   1.925 -0.0729 -0.1330 -1.5686
 5279SOL    MW420884   2.536   3.479   1.932 -0.1420 -0.2465 -0.6240
 5280SOL     OW20885   2.976   1.056   0.889 -0.4388  0.4192 -0.1728
 5280SOL    HW220886   3.023   1.107   0.955  0.7181  1.3379 -1.6411
 5280SOL    HW320887   2.969   0.969   0.927  2.9091  0.0745 -0.0186
 5280SOL    MW420888   2.981   1.051   0.903  0.1556  0.4949 -0.3462
 5281SOL     OW20889   3.306   6.267   0.034  0.3398 -0.2060  0.0111
 5281SOL    HW220890   3.380   6.214   0.062 -0.6039 -0.6094  1.9567
 5281SOL    HW320891   3.259   6.213  -0.029  1.3551 -0.1833 -0.7800
 5281SOL    MW420892   3.310   6.253   0.029  0.3493 -0.2562  0.1635
 5282SOL     OW20893   2.415   3.777   1.313  0.8630  0.3801 -0.0973
 5282SOL    HW220894   2.410   3.714   1.241 -0.2845 -0.3031  0.5317
 5282SOL    HW320895   2.435   3.724   1.390  0.5090  0.8685  0.3416
 5282SOL    MW420896   2.417   3.762   1.314  0.6649  0.3544  0.0436
 5283SOL     OW20897   1.852   4.581   5.650  0.2451 -0.0517  0.2200
 5283SOL    HW220898   1.896   4.585   5.565 -0.1390 -2.5749 -0.1758
 5283SOL    HW320899   1.922   4.595   5.714  0.6349  1.2892 -0.4588
 5283SOL    MW420900   1.867   4.583   5.647  0.2459 -0.2076  0.0782
 5284SOL     OW20901   0.238   6.323   0.816  0.9668  0.0820 -0.3013
 5284SOL    HW220902   0.209   6.414   0.820  1.7626  0.4032 -1.5026
 5284SOL    HW320903   0.250   6.306   0.722 -0.1900 -1.5902 -0.1905
 5284SOL    MW420904   0.236   6.333   0.804  0.9192 -0.0962 -0.4452
 5285SOL     OW20905   1.343   3.015   5.175 -1.0094 -0.0816 -0.1850
 5285SOL    HW220906   1.363   3.025   5.268  0.5126 -1.3678 -0.3305
 5285SOL    HW320907   1.307   2.926   5.168  0.4625 -0.6403 -1.0325
 5285SOL    MW420908   1.341   3.005   5.186 -0.6144 -0.3250 -0.3160
 5286SOL     OW20909   2.862   1.480   2.282 -0.3404  0.0490  0.0227
 5286SOL    HW220910   2.893   1.518   2.364  0.2565  0.1364 -0.2414
 5286SOL    HW320911   2.941   1.461   2.232 -0.7168  0.8660 -0.9230
 5286SOL    MW420912   2.877   1.482   2.286 -0.3113  0.1683 -0.1369
 5287SOL     OW20913   2.687   5.939   2.689 -0.3380 -0.1808  0.4127
 5287SOL    HW220914   2.739   5.859   2.697 -0.9234 -0.8481 -1.6982
 5287SOL    HW320915   2.750   6.009   2.705  0.5462 -1.0200  0.7879
 5287SOL    MW420916   2.703   5.937   2.692 -0.2986 -0.3796  0.1837
 5288SOL     OW20917   4.923   6.396   5.840 -0.1284 -0.2419  0.0120
 5288SOL    HW220918   4.992   6.405   5.907 -0.1568 -1.1411  0.1749
 5288SOL    HW320919   4.901   6.486   5.817 -0.5932  0.1227  1.7066
 5288SOL    MW420920   4.930   6.409   5.846 -0.1934 -0.3124  0.2571
 5289SOL     OW20921   4.713   5.370   4.283 -0.4777  0.3197 -0.4351
 5289SOL    HW220922   4.689   5.440   4.223 -0.2609  0.4839 -0.3296
 5289SOL    HW320923   4.748   5.301   4.226 -0.6471  0.3145 -0.5337
 5289SOL    MW420924   4.714   5.370   4.267 -0.4714  0.3407 -0.4342
 5290SOL     OW20925   2.207   1.280   1.525 -0.3272  0.5304 -0.0754
 5290SOL    HW220926   2.269   1.221   1.568 -0.9612  0.1397  0.3217
 5290SOL    HW320927   2.207   1.252   1.434 -0.2927  0.2057  0.0211
 5290SOL    MW420928   2.215   1.269   1.519 -0.4063  0.4360 -0.0103
 5291SOL     OW20929   4.484   5.865   5.344  1.3799  0.3482 -0.3803
 5291SOL    HW220930   4.520   5.952   5.325  0.7233  0.3993 -1.4540
 5291SOL    HW320931   4.410   5.855   5.284 -0.2921  0.1411  1.5989
 5291SOL    MW420932   4.479   5.875   5.334  1.0727  0.3276 -0.2608
 5292SOL     OW20933   1.160   0.782   1.285  0.0014  0.3578  0.0401
 5292SOL    HW220934   1.191   0.862   1.241 -0.4336  0.4743 -0.0548
 5292SOL    HW320935   1.080   0.759   1.239  0.8320 -0.9057 -0.8223
 5292SOL    MW420936   1.154   0.790   1.273  0.0536  0.2065 -0.0862
 5293SOL     OW20937   5.689   3.560   2.607 -0.1032 -0.1885 -0.2513
 5293SOL    HW220938   5.609   3.509   2.613  0.0179 -0.3096  0.5665
 5293SOL    HW320939   5.661   3.646   2.575 -0.7098  0.0622  0.9013
 5293SOL    MW420940   5.675   3.565   2.604 -0.1672 -0.1714  0.0087
 5294SOL     OW20941   2.094   3.463   1.409 -0.4021  0.2531  0.0372
 5294SOL    HW220942   2.036   3.525   1.366 -1.7962 -0.3430  0.9893
 5294SOL    HW320943   2.178   3.474   1.365 -1.1205  1.4336 -1.0984
 5294SOL    MW420944   2.097   3.473   1.397 -0.6808  0.3302  0.0130
 5295SOL     OW20945   2.248   1.368   4.013 -0.2290 -0.2204 -0.0016
 5295SOL    HW220946   2.265   1.424   3.938 -1.9292 -0.0759 -0.3016
 5295SOL    HW320947   2.323   1.383   4.071  1.3003 -0.5902 -1.7728
 5295SOL    MW420948   2.260   1.377   4.011 -0.2515 -0.2501 -0.2748
 5296SOL     OW20949   4.533   4.351   3.407 -0.0910 -0.0294  0.9371
 5296SOL    HW220950   4.612   4.398   3.379  0.0959 -0.3471  0.9175
 5296SOL    HW320951   4.561   4.259   3.413 -0.9296 -0.4363 -0.8386
 5296SOL    MW420952   4.547   4.345   3.404 -0.1770 -0.1250  0.7002
 5297SOL     OW20953   3.762   1.191   0.977  0.1582  0.0398  0.2278
 5297SOL    HW220954   3.836   1.131   0.985 -0.2364 -0.6386 -0.9711
 5297SOL    HW320955   3.799   1.270   0.937 -0.2179 -1.3706 -3.1909
 5297SOL    MW420956   3.777   1.194   0.973  0.0565 -0.2358 -0.3815
 5298SOL     OW20957   6.013   2.219   2.851 -0.2595 -0.3393  0.4668
 5298SOL    HW220958   5.942   2.266   2.896 -0.7968  0.7104 -1.3803
 5298SOL    HW320959   5.970   2.147   2.806 -0.1116  0.0607 -0.3330
 5298SOL    MW420960   5.998   2.216   2.851 -0.3109 -0.1481  0.1175
 5299SOL     OW20961   0.458   3.461   4.218 -0.1313 -0.0259 -0.5579
 5299SOL    HW220962   0.397   3.437   4.288 -1.6768  1.9307 -1.1659
 5299SOL    HW320963   0.532   3.501   4.264 -1.1770  1.3496 -0.0086
 5299SOL    MW420964   0.460   3.463   4.233 -0.4732  0.4138 -0.5656
 5300SOL     OW20965   6.185   5.433   4.950 -0.2591 -0.2568  0.5306
 5300SOL    HW220966   6.113   5.492   4.925 -1.5900 -1.8960  0.3415
 5300SOL    HW320967   6.264   5.483   4.932 -1.2861  0.7487 -1.5088
 5300SOL    MW420968   6.186   5.448   4.945 -0.5702 -0.3404  0.2366
 5301SOL     OW20969   6.329   5.875   3.214  0.0769 -0.0370  0.3309
 5301SOL    HW220970   6.265   5.926   3.164 -1.1798 -1.4325  0.4445
 5301SOL    HW320971   6.276   5.822   3.273  1.3389 -1.2690  0.4042
 5301SOL    MW420972   6.313   5.875   3.215  0.0776 -0.3837  0.3556
 5302SOL     OW20973   2.547   6.009   3.572  0.1045 -0.1414  0.2787
 5302SOL    HW220974   2.560   5.924   3.531 -0.9011 -0.1441 -0.0606
 5302SOL    HW320975   2.592   6.071   3.515  0.4778 -0.3903  0.2992
 5302SOL    MW420976   2.555   6.006   3.559  0.0211 -0.1746  0.2366
 5303SOL     OW20977   0.948   0.788   1.690  0.0806 -0.0807  0.3251
 5303SOL    HW220978   0.963   0.818   1.779 -1.2757 -1.7457  1.1784
 5303SOL    HW320979   0.980   0.859   1.635 -0.0194  1.4456  2.1415
 5303SOL    MW420980   0.954   0.801   1.694 -0.1115 -0.0990  0.6773
 5304SOL     OW20981   5.656   0.477   1.144 -0.1479 -0.3960 -0.4636
 5304SOL    HW220982   5.578   0.470   1.089  0.0296  2.5941 -1.2654
 5304SOL    HW320983   5.622   0.498   1.231 -0.2896 -0.2739 -0.5471
 5304SOL    MW420984   5.641   0.479   1.148 -0.1432  0.0146 -0.5804
 5305SOL     OW20985   0.757   2.814   1.321  1.1415 -0.2896  0.6559
 5305SOL    HW220986   0.775   2.906   1.337  1.2692 -0.2526  0.2895
 5305SOL    HW320987   0.734   2.779   1.408 -1.2484  0.5946  0.4272
 5305SOL    MW420988   0.757   2.821   1.335  0.8431 -0.1680  0.5774
 5306SOL     OW20989   4.958   2.284   1.389 -0.0971  0.3111  0.0462
 5306SOL    HW220990   5.028   2.223   1.368  0.0177  0.2510  0.5893
 5306SOL    HW320991   4.878   2.240   1.361  0.0400  0.1885 -0.1536
 5306SOL    MW420992   4.957   2.270   1.383 -0.0638  0.2870  0.0915
 5307SOL     OW20993   4.363   1.003   3.013  0.0927  0.0597 -0.4493
 5307SOL    HW220994   4.301   1.073   2.995 -1.6226 -1.2078  0.2781
 5307SOL    HW320995   4.314   0.923   2.995  0.7779 -1.0460  2.2406
 5307SOL    MW420996   4.349   1.002   3.008 -0.0432 -0.2534  0.0016
 5308SOL     OW20997   3.633   5.612   0.008  0.0702  0.0261  0.0367
 5308SOL    HW220998   3.606   5.670  -0.063 -0.0021 -1.2169 -0.9863
 5308SOL    HW320999   3.611   5.660   0.088  1.5361  2.1136 -0.7229
 5308SOL    MW421000   3.626   5.626   0.009  0.2541  0.1375 -0.1985
 5309SOL     OW21001   1.638   4.486   1.185 -0.8167  0.2504 -0.1753
 5309SOL    HW221002   1.553   4.487   1.228 -0.8585 -1.3802 -0.1420
 5309SOL    HW321003   1.646   4.398   1.149  0.8701  0.3424 -0.1407
 5309SOL    MW421004   1.628   4.475   1.186 -0.5996  0.0474 -0.1663
 5310SOL     OW21005   1.214   5.361   1.490  0.4117 -0.5173 -0.5598
 5310SOL    HW221006   1.173   5.429   1.437  2.1072  0.1988 -1.0314
 5310SOL    HW321007   1.262   5.409   1.558  0.7489 -1.2838 -0.2408
 5310SOL    MW421008   1.215   5.376   1.492  0.6799 -0.5240 -0.5799
 5311SOL     OW21009   4.373   3.624   4.441 -0.2953  0.0781 -0.4346
 5311SOL    HW221010   4.396   3.664   4.357  1.1282 -1.5486 -0.8687
 5311SOL    HW321011   4.324   3.545   4.419 -2.2217  0.9792  0.3836
 5311SOL    MW421012   4.369   3.619   4.427 -0.3617 -0.0177 -0.3839
 5312SOL     OW21013   5.838   2.504   5.357  0.1018  0.3003  0.1462
 5312SOL    HW221014   5.747   2.507   5.326  0.2818  0.9282 -0.3415
 5312SOL    HW321015   5.877   2.585   5.325  0.9076 -0.0810  0.1395
 5312SOL    MW421016   5.831   2.515   5.349  0.2319  0.3329  0.0810
 5313SOL     OW21017   1.204   2.292   1.805  0.1451 -0.5513  0.5625
 5313SOL    HW221018   1.222   2.385   1.791  0.8859 -0.5548  1.4355
 5313SOL    HW321019   1.273   2.262   1.863  1.5969 -2.3223 -1.8989
 5313SOL    MW421020   1.215   2.301   1.811  0.4344 -0.7854  0.3529
 5314SOL     OW21021   6.327   3.391   4.070 -0.0790  0.3655  0.5015
 5314SOL    HW221022   6.294   3.480   4.056  3.2142  1.4400 -1.3585
 5314SOL    HW321023   6.328   3.352   3.982  3.3804  0.4527  0.3863
 5314SOL    MW421024   6.323   3.398   4.056  0.8119  0.5188  0.2409
 5315SOL     OW21025   3.303   2.386   2.680 -0.0236 -0.2662  0.2976
 5315SOL    HW221026   3.216   2.369   2.642 -0.1504  0.1720  0.3937
 5315SOL    HW321027   3.351   2.305   2.664 -0.7094 -0.8261  0.9790
 5315SOL    MW421028   3.298   2.373   2.673 -0.1308 -0.2822  0.4001
 5316SOL     OW21029   2.677   6.386   0.493  0.0629  0.1378 -0.1809
 5316SOL    HW221030   2.696   6.339   0.411  1.6195  0.1898  0.1206
 5316SOL    HW321031   2.582   6.386   0.499 -0.0250 -1.7742 -0.9023
 5316SOL    MW421032   2.667   6.379   0.483  0.2567 -0.1076 -0.2363
 5317SOL     OW21033   4.155   2.278   1.986  0.5459  0.6537 -0.1747
 5317SOL    HW221034   4.068   2.319   1.989 -0.9060 -2.2120  0.9560
 5317SOL    HW321035   4.188   2.287   2.076  0.1846 -0.5900  0.1019
 5317SOL    MW421036   4.148   2.285   1.998  0.3066  0.1115  0.0110
 5318SOL     OW21037   0.692   5.378   4.503 -0.0811 -0.3795  0.0864
 5318SOL    HW221038   0.645   5.461   4.493  0.6178 -0.1266 -1.3675
 5318SOL    HW321039   0.624   5.311   4.488 -0.2647 -0.0297 -0.7437
 5318SOL    MW421040   0.677   5.380   4.499 -0.0131 -0.3000 -0.2149
 5319SOL     OW21041   5.504   1.965   4.577  0.5551 -0.1399  0.1779
 5319SOL    HW221042   5.573   2.030   4.565  1.1063 -0.5282  1.1732
 5319SOL    HW321043   5.425   2.008   4.542  1.2250  0.4069 -0.7275
 5319SOL    MW421044   5.502   1.980   4.571  0.7162 -0.1190  0.1897
 5320SOL     OW21045   6.318   2.307   1.115  0.6182 -0.0046 -0.1065
 5320SOL    HW221046   6.390   2.257   1.077  0.3751  0.9113 -1.8493
 5320SOL    HW321047   6.323   2.393   1.073 -1.3873  0.1267 -0.1805
 5320SOL    MW421048   6.328   2.311   1.104  0.3215  0.1336 -0.3462
 5321SOL     OW21049   6.359   0.798   2.587 -0.1483 -0.4371  0.5864
 5321SOL    HW221050   6.308   0.721   2.563  1.0697 -0.6648 -1.5472
 5321SOL    HW321051   6.450   0.768   2.582  0.3851  1.2918 -1.0787
 5321SOL    MW421052   6.365   0.784   2.584  0.0828 -0.2390  0.0853
 5322SOL     OW21053   3.527   0.194   5.084  0.2006 -0.4711 -0.2338
 5322SOL    HW221054   3.594   0.260   5.069  0.3794 -0.7032 -0.4523
 5322SOL    HW321055   3.472   0.231   5.153  1.3397 -0.8665  0.9114
 5322SOL    MW421056   3.528   0.207   5.091  0.3745 -0.5539 -0.1115
 5323SOL     OW21057   0.560   0.167   0.360 -0.1104 -0.2650  0.2766
 5323SOL    HW221058   0.526   0.236   0.417  1.7652  1.1362 -0.1986
 5323SOL    HW321059   0.653   0.187   0.352  0.0250 -1.4625 -1.8531
 5323SOL    MW421060   0.568   0.179   0.367  0.1549 -0.2381 -0.0671
 5324SOL     OW21061   3.300   5.337   4.570 -0.8924 -0.1120  0.6860
 5324SOL    HW221062   3.375   5.309   4.623  0.3784  2.3187  0.3226
 5324SOL    HW321063   3.227   5.342   4.633  0.1756  1.0872  1.9026
 5324SOL    MW421064   3.300   5.334   4.586 -0.5838  0.3669  0.7986
 5325SOL     OW21065   5.709   1.041   0.641 -0.1446  0.0579 -0.6654
 5325SOL    HW221066   5.777   0.975   0.630  1.1314  0.9797  1.0478
 5325SOL    HW321067   5.682   1.033   0.733  0.2676  2.0342 -0.3155
 5325SOL    MW421068   5.715   1.031   0.652  0.0781  0.4403 -0.3932
 5326SOL     OW21069   1.671   3.742   1.750 -0.0713 -0.5706  0.4765
 5326SOL    HW221070   1.725   3.789   1.814  2.1743  0.0683 -1.7461
 5326SOL    HW321071   1.638   3.810   1.692 -1.0299 -1.2502  0.2089
 5326SOL    MW421072   1.674   3.757   1.751  0.0985 -0.5760  0.1480
 5327SOL     OW21073   2.892   1.654   3.593 -0.2668 -0.2404  0.1593
 5327SOL    HW221074   2.856   1.647   3.504  0.6239  0.5065 -0.2848
 5327SOL    HW321075   2.983   1.682   3.579 -0.1893  0.1170  1.3192
 5327SOL    MW421076   2.899   1.657   3.579 -0.1390 -0.0947  0.2538
 5328SOL     OW21077   4.093   1.981   4.529  0.1431  0.0453  0.4939
 5328SOL    HW221078   4.084   1.915   4.460 -0.3880  0.3381  0.2746
 5328SOL    HW321079   4.180   1.966   4.566 -0.3554 -1.4257  1.1251
 5328SOL    MW421080   4.103   1.971   4.525  0.0073 -0.1101  0.5483
 5329SOL     OW21081   0.586   0.087   3.205  0.4888  0.0810  0.0228
 5329SOL    HW221082   0.674   0.085   3.244  0.5365 -1.2184 -0.0924
 5329SOL    HW321083   0.568   0.180   3.192  1.5739  0.4094  0.6636
 5329SOL    MW421084   0.595   0.099   3.208  0.6383 -0.0471  0.0922
 5330SOL     OW21085   3.656   0.834   4.434 -0.3851  0.3024  0.0244
 5330SOL    HW221086   3.646   0.825   4.339  0.3446  1.2763 -0.1584
 5330SOL    HW321087   3.569   0.858   4.465 -0.0944  2.6571 -0.7652
 5330SOL    MW421088   3.644   0.836   4.425 -0.2504  0.7416 -0.1039
 5331SOL     OW21089   1.764   2.208   6.177  0.0790 -0.8757  0.0990
 5331SOL    HW221090   1.838   2.153   6.152  0.2381 -0.9060  0.6094
 5331SOL    HW321091   1.688   2.164   6.142  0.2656 -1.0793 -0.0510
 5331SOL    MW421092   1.764   2.195   6.169  0.1246 -0.9065  0.1465
 5332SOL     OW21093   4.848   3.682   2.673  0.1932 -0.1560 -0.1206
 5332SOL    HW221094   4.779   3.673   2.607  0.9922 -0.8237 -0.8839
 5332SOL    HW321095   4.816   3.752   2.732  0.2355  1.7166 -2.1916
 5332SOL    MW421096   4.835   3.690   2.672  0.3042  0.0030 -0.4945
 5333SOL     OW21097   4.698   2.492   2.878 -0.5509  0.3011 -0.3953
 5333SOL    HW221098   4.683   2.400   2.856 -4.1928  0.8930 -1.0270
 5333SOL    HW321099   4.742   2.528   2.801  2.0993 -1.0300  0.3547
 5333SOL    MW421100   4.702   2.485   2.865 -0.6817  0.2036 -0.3797
 5334SOL     OW21101   3.771   1.795   5.091 -0.4122 -0.0860 -0.4244
 5334SOL    HW221102   3.858   1.836   5.091 -0.0206 -0.6142  3.1291
 5334SOL    HW321103   3.770   1.743   5.010  3.2839 -1.3449  0.1239
 5334SOL    MW421104   3.783   1.794   5.080  0.1272 -0.3218  0.1168
 5335SOL     OW21105   3.362   4.727   6.333  0.1008  0.2072  0.6152
 5335SOL    HW221106   3.371   4.813   6.373 -0.6576  0.6641 -0.1490
 5335SOL    HW321107   3.348   4.745   6.240  0.8139 -0.7823  0.2922
 5335SOL    MW421108   3.361   4.741   6.326  0.0948  0.1369  0.4717
 5336SOL     OW21109   0.587   6.198   1.415  0.3412 -0.2657 -0.1019
 5336SOL    HW221110   0.519   6.243   1.364  0.0660 -1.1196 -0.5118
 5336SOL    HW321111   0.623   6.133   1.355 -0.1692 -1.4792  0.8568
 5336SOL    MW421112   0.583   6.195   1.400  0.2376 -0.5385 -0.0295
 5337SOL     OW21113   4.058   1.893   5.559  0.0321 -0.4177  0.5382
 5337SOL    HW221114   4.125   1.862   5.499 -0.4502 -2.6076  1.0711
 5337SOL    HW321115   4.107   1.933   5.631  0.6231  3.2515 -1.6114
 5337SOL    MW421116   4.073   1.894   5.561  0.0464 -0.2225  0.3249
 5338SOL     OW21117   2.633   1.811   1.096 -0.6460  0.6643  0.8436
 5338SOL    HW221118   2.683   1.730   1.085  0.9183  1.8490 -1.7710
 5338SOL    HW321119   2.643   1.833   1.188 -1.8368 -2.4639  1.8712
 5338SOL    MW421120   2.641   1.803   1.107 -0.5967  0.4079  0.6342
 5339SOL     OW21121   1.809   2.482   3.982  0.4451 -0.2389  0.2186
 5339SOL    HW221122   1.742   2.439   3.928  0.2392  0.1877  0.1329
 5339SOL    HW321123   1.762   2.510   4.060  0.3725  0.6549 -0.1339
 5339SOL    MW421124   1.794   2.480   3.985  0.4083 -0.0647  0.1608
 5340SOL     OW21125   4.656   3.773   3.119  0.0208 -0.0396  0.0135
 5340SOL    HW221126   4.703   3.722   3.185 -1.4393 -0.1698  1.0006
 5340SOL    HW321127   4.588   3.714   3.087 -0.2562  0.5427 -0.5026
 5340SOL    MW421128   4.653   3.758   3.123 -0.2084  0.0200  0.0757
 5341SOL     OW21129   0.380   1.781   3.415 -0.7007 -0.5555  0.5052
 5341SOL    HW221130   0.430   1.776   3.496  0.5763  4.0425  0.3182
 5341SOL    HW321131   0.441   1.821   3.352 -2.4088 -1.6735 -2.0305
 5341SOL    MW421132   0.395   1.786   3.417 -0.7576 -0.0964  0.1460
 5342SOL     OW21133   3.203   3.586   3.062 -0.2437  0.0362 -0.1650
 5342SOL    HW221134   3.249   3.531   3.126  0.3418  1.2738  0.5043
 5342SOL    HW321135   3.181   3.525   2.991 -1.1071 -1.4183  1.2727
 5342SOL    MW421136   3.206   3.571   3.061 -0.2804  0.0076  0.1130
 5343SOL     OW21137   0.769   2.215   5.983 -0.3349  0.1578  0.0334
 5343SOL    HW221138   0.725   2.154   5.924 -1.6888  1.0693  0.0390
 5343SOL    HW321139   0.781   2.166   6.064  0.1731 -0.6274 -0.4991
 5343SOL    MW421140   0.765   2.201   5.986 -0.4465  0.1745 -0.0361
 5344SOL     OW21141   1.077   3.482   5.045  0.1322  0.2101  0.0213
 5344SOL    HW221142   1.086   3.574   5.019  1.1934 -0.7000 -3.3685
 5344SOL    HW321143   1.166   3.454   5.066  0.5327 -0.9170 -2.7830
 5344SOL    MW421144   1.090   3.491   5.044  0.3251 -0.0587 -0.7959
 5345SOL     OW21145   4.712   1.299   1.818  0.2639 -0.3348 -0.0243
 5345SOL    HW221146   4.684   1.389   1.799 -0.1707 -0.0496  1.8088
 5345SOL    HW321147   4.642   1.245   1.781  0.4949  0.0599 -1.0846
 5345SOL    MW421148   4.699   1.304   1.810  0.2371 -0.2451  0.0777
 5346SOL     OW21149   5.115   4.214   5.640 -0.2568  0.9523 -0.2627
 5346SOL    HW221150   5.152   4.229   5.553 -0.8142  1.9806 -0.3423
 5346SOL    HW321151   5.073   4.297   5.663  0.9618  1.1481  1.5243
 5346SOL    MW421152   5.114   4.227   5.632 -0.1696  1.1138 -0.0375
 5347SOL     OW21153   3.421   5.588   4.166 -0.8717  0.0325  0.1378
 5347SOL    HW221154   3.432   5.494   4.151  0.6925  0.3236 -0.7585
 5347SOL    HW321155   3.376   5.594   4.250 -0.3648 -1.5027  0.5490
 5347SOL    MW421156   3.416   5.577   4.175 -0.5984 -0.1316  0.0738
 5348SOL     OW21157   5.949   3.357   6.343  0.0624  0.2201  0.0217
 5348SOL    HW221158   5.947   3.292   6.413  1.2602 -0.9196 -0.9655
 5348SOL    HW321159   5.875   3.415   6.363 -0.9859 -1.3621  0.9973
 5348SOL    MW421160   5.939   3.356   6.355  0.0821 -0.1390  0.0202
 5349SOL     OW21161   0.364   0.724   1.339 -0.3656 -0.1526  0.3504
 5349SOL    HW221162   0.390   0.813   1.316  0.0177 -0.4170 -0.2609
 5349SOL    HW321163   0.269   0.724   1.330 -0.1884 -0.6430 -2.9138
 5349SOL    MW421164   0.355   0.736   1.335 -0.2916 -0.2522 -0.1609
 5350SOL     OW21165   4.745   5.228   6.265 -0.5825  0.0181  0.3914
 5350SOL    HW221166   4.726   5.228   6.358 -0.3232 -0.2616  0.4467
 5350SOL    HW321167   4.756   5.135   6.242 -0.8915  0.0659  0.0323
 5350SOL    MW421168   4.744   5.216   6.274 -0.5890 -0.0125  0.3513
 5351SOL     OW21169   4.263   6.197   1.626  0.8831  0.3449  0.2394
 5351SOL    HW221170   4.318   6.224   1.700 -1.4334  0.6873  1.9365
 5351SOL    HW321171   4.228   6.111   1.652  1.2238 -0.2649 -1.1860
 5351SOL    MW421172   4.266   6.189   1.639  0.6224  0.3096  0.2752
 5352SOL     OW21173   2.570   0.546   3.521 -0.4194  0.3846  0.0326
 5352SOL    HW221174   2.525   0.480   3.469 -2.5267  1.1320  0.8191
 5352SOL    HW321175   2.568   0.513   3.610  0.9495  0.2819  0.0485
 5352SOL    MW421176   2.564   0.533   3.526 -0.5168  0.4697  0.1385
 5353SOL     OW21177   0.363   2.020   1.198  0.2954  0.7352 -0.5733
 5353SOL    HW221178   0.415   1.940   1.197 -0.4041  0.2723 -0.5396
 5353SOL    HW321179   0.318   2.019   1.283 -0.4427  0.6827 -0.9578
 5353SOL    MW421180   0.364   2.010   1.209  0.1058  0.6672 -0.6196
 5354SOL     OW21181   2.792   2.735   5.143 -0.1753 -0.4793  0.1424
 5354SOL    HW221182   2.791   2.831   5.149  0.7207 -0.5007  0.8738
 5354SOL    HW321183   2.801   2.718   5.049  0.3104  0.1744  0.0560
 5354SOL    MW421184   2.793   2.746   5.131  0.0070 -0.3959  0.2275
 5355SOL     OW21185   3.209   1.098   1.636 -0.1446 -0.2748  0.0695
 5355SOL    HW221186   3.175   1.187   1.642  0.7848  0.0966 -0.0155
 5355SOL    HW321187   3.232   1.074   1.726  1.2733  0.2647 -0.1135
 5355SOL    MW421188   3.208   1.106   1.649  0.1651 -0.1546  0.0341
 5356SOL     OW21189   5.124   5.306   2.819  0.2222  0.6164 -0.2359
 5356SOL    HW221190   5.188   5.368   2.854 -0.2750 -0.7395  3.5075
 5356SOL    HW321191   5.040   5.337   2.853 -0.2682 -0.9785  0.0806
 5356SOL    MW421192   5.121   5.318   2.828  0.0919  0.2271  0.2997
 5357SOL     OW21193   3.678   3.849   6.361  0.2080 -0.4152 -0.1262
 5357SOL    HW221194   3.655   3.938   6.387 -1.3564 -0.4069 -1.3953
 5357SOL    HW321195   3.769   3.839   6.389  0.8899  2.0565 -1.1486
 5357SOL    MW421196   3.687   3.860   6.368  0.0916 -0.0880 -0.4285
 5358SOL     OW21197   0.137   3.380   4.995 -0.1502 -0.5454  0.6973
 5358SOL    HW221198   0.218   3.430   5.004 -0.0982  0.1860 -2.5690
 5358SOL    HW321199   0.067   3.446   4.996 -0.2023 -0.4513 -1.9656
 5358SOL    MW421200   0.138   3.395   4.997 -0.1503 -0.4364 -0.0850
 5359SOL     OW21201   3.323   1.710   6.053 -0.0002  0.3972  0.3609
 5359SOL    HW221202   3.272   1.630   6.046 -0.1245  0.5741 -0.8764
 5359SOL    HW321203   3.381   1.695   6.128 -0.5969 -0.5069  0.6512
 5359SOL    MW421204   3.324   1.698   6.062 -0.0953  0.3013  0.2359
 5360SOL     OW21205   3.298   4.486   0.064 -0.0317  0.1716  0.1091
 5360SOL    HW221206   3.320   4.539   0.140  1.9571  0.8066 -0.8200
 5360SOL    HW321207   3.315   4.543  -0.011 -0.8362 -0.7996 -0.8485
 5360SOL    MW421208   3.304   4.500   0.064  0.1245  0.1272 -0.1398
 5361SOL     OW21209   2.162   3.879   4.470  0.4007  0.1458  0.3356
 5361SOL    HW221210   2.087   3.886   4.530 -0.3574 -1.8669 -0.2768
 5361SOL    HW321211   2.122   3.876   4.383  1.1287 -1.2389  0.0181
 5361SOL    MW421212   2.147   3.880   4.466  0.3967 -0.3025  0.2129
 5362SOL     OW21213   3.064   0.292   1.220 -0.0818  0.1078 -0.1690
 5362SOL    HW221214   3.065   0.303   1.125 -2.9487  1.8488 -0.1067
 5362SOL    HW321215   3.118   0.365   1.252 -0.1747  0.2948 -0.4293
 5362SOL    MW421216   3.072   0.303   1.212 -0.4723  0.3621 -0.1951
 5363SOL     OW21217   3.249   4.531   5.776  0.2743  0.1414  0.5031
 5363SOL    HW221218   3.335   4.489   5.776  0.9158  1.2376 -2.0193
 5363SOL    HW321219   3.196   4.479   5.716 -1.1807 -1.0011  2.6459
 5363SOL    MW421220   3.254   4.519   5.768  0.1670  0.1353  0.4530
 5364SOL     OW21221   4.927   4.987   0.601 -0.2837 -0.4067  0.1536
 5364SOL    HW221222   4.968   5.072   0.584 -2.4175  1.0886  1.9263
 5364SOL    HW321223   4.996   4.935   0.643  0.5954  1.0546  0.5996
 5364SOL    MW421224   4.942   4.991   0.604 -0.4492 -0.0166  0.4463
 5365SOL     OW21225   1.683   4.152   5.833  0.7092  0.0812  0.3052
 5365SOL    HW221226   1.730   4.207   5.770  0.1742 -0.4054 -0.5336
 5365SOL    HW321227   1.717   4.064   5.818  1.3744  0.1216  1.4683
 5365SOL    MW421228   1.694   4.148   5.823  0.7263  0.0223  0.3480
 5366SOL     OW21229   6.286   4.718   3.936 -0.2689 -0.6593 -0.1610
 5366SOL    HW221230   6.206   4.694   3.888 -0.5923 -0.3504  0.2208
 5366SOL    HW321231   6.290   4.656   4.009 -0.0911 -0.7542 -0.2503
 5366SOL    MW421232   6.276   4.706   3.939 -0.2881 -0.6310 -0.1224
 5367SOL     OW21233   4.240   1.849   3.248 -0.7102 -0.3513 -0.0855
 5367SOL    HW221234   4.259   1.911   3.318  1.2661 -1.9870  0.9180
 5367SOL    HW321235   4.321   1.799   3.237 -2.1783 -2.7456 -0.8506
 5367SOL    MW421236   4.253   1.851   3.255 -0.6432 -0.8830 -0.0540
 5368SOL     OW21237   5.336   2.052   0.010 -0.1374 -0.7447 -0.0859
 5368SOL    HW221238   5.429   2.036   0.029 -0.1388  0.0531  0.6606
 5368SOL    HW321239   5.293   2.048   0.095 -0.5972  0.1028 -0.2725
 5368SOL    MW421240   5.343   2.049   0.023 -0.1982 -0.5276 -0.0121
 5369SOL     OW21241   2.696   1.543   1.385 -0.1514  0.2101  0.6172
 5369SOL    HW221242   2.663   1.520   1.299  1.6311 -1.6687  0.3661
 5369SOL    HW321243   2.764   1.478   1.404  0.6177  1.5026  2.7611
 5369SOL    MW421244   2.701   1.532   1.376  0.1852  0.1327  0.8669
 5370SOL     OW21245   3.261   2.951   1.097 -0.7467 -0.5458 -0.2599
 5370SOL    HW221246   3.166   2.949   1.083 -0.7979  1.7965 -0.7009
 5370SOL    HW321247   3.272   2.937   1.191 -1.7622  1.6392  0.2447
 5370SOL    MW421248   3.250   2.949   1.107 -0.8874  0.0515 -0.2515
 5371SOL     OW21249   4.456   1.486   1.406 -0.3636 -0.0172  0.4613
 5371SOL    HW221250   4.385   1.485   1.470 -0.3551 -0.2699  0.4699
 5371SOL    HW321251   4.519   1.422   1.440 -1.3453 -1.8024 -0.8975
 5371SOL    MW421252   4.455   1.477   1.419 -0.4920 -0.2860  0.2831
 5372SOL     OW21253   3.072   3.635   3.787  0.1242  0.7448 -0.5000
 5372SOL    HW221254   2.993   3.618   3.837 -0.3753  0.6775 -1.2856
 5372SOL    HW321255   3.133   3.567   3.814  0.2477  1.3400  0.7838
 5372SOL    MW421256   3.070   3.624   3.797  0.0746  0.8144 -0.4343
 5373SOL     OW21257   2.904   0.202   4.466  0.7345 -0.0971 -0.0852
 5373SOL    HW221258   2.876   0.123   4.514  2.5981 -0.3396  0.6900
 5373SOL    HW321259   2.941   0.168   4.384 -1.8368  0.2750 -1.5040
 5373SOL    MW421260   2.905   0.187   4.462  0.6411 -0.0800 -0.1701
 5374SOL     OW21261   3.139   5.705   0.189  0.4999 -0.6031  0.2256
 5374SOL    HW221262   3.233   5.720   0.191  0.6532 -1.2240 -1.0189
 5374SOL    HW321263   3.129   5.613   0.215  0.3056 -0.7494 -0.3600
 5374SOL    MW421264   3.150   5.694   0.193  0.4945 -0.7044 -0.0159
 5375SOL     OW21265   3.346   3.370   2.043  0.3784 -0.5016 -0.0471
 5375SOL    HW221266   3.300   3.292   2.072  0.4137 -1.2618 -1.8904
 5375SOL    HW321267   3.410   3.338   1.979  2.7325  0.6440  1.5637
 5375SOL    MW421268   3.348   3.356   2.038  0.6937 -0.4507 -0.0778
 5376SOL     OW21269   1.556   1.958   4.684  0.9419  0.0967  0.2583
 5376SOL    HW221270   1.463   1.961   4.661  0.7781 -3.1629  0.0249
 5376SOL    HW321271   1.599   2.016   4.620 -0.7638  0.5938 -0.4776
 5376SOL    MW421272   1.550   1.966   4.672  0.6953 -0.2678  0.1304
 5377SOL     OW21273   3.453   5.912   4.571  0.0686 -0.1298  0.2364
 5377SOL    HW221274   3.363   5.943   4.561  0.6358  1.4924 -0.2578
 5377SOL    HW321275   3.464   5.901   4.666 -0.7081 -0.5522  0.2843
 5377SOL    MW421276   3.443   5.915   4.582  0.0410  0.0285  0.1776
 5378SOL     OW21277   0.711   2.131   4.588  0.3579  0.4606  0.0776
 5378SOL    HW221278   0.700   2.224   4.608  0.1216  0.7286 -1.2492
 5378SOL    HW321279   0.792   2.106   4.633  0.0780  1.1335  0.9857
 5378SOL    MW421280   0.720   2.140   4.597  0.2898  0.5848  0.0223
 5379SOL     OW21281   2.669   3.894   1.720 -0.1132 -0.5019 -0.2199
 5379SOL    HW221282   2.637   3.975   1.758 -1.5135 -1.2042  0.1694
 5379SOL    HW321283   2.599   3.830   1.736 -0.6144 -0.9758 -3.4966
 5379SOL    MW421284   2.656   3.896   1.727 -0.3641 -0.6571 -0.6008
 5380SOL     OW21285   4.206   5.699   1.071 -0.4587  0.2117 -0.4114
 5380SOL    HW221286   4.226   5.685   1.163  1.3393 -0.8101 -0.9156
 5380SOL    HW321287   4.113   5.721   1.070 -0.5499  0.0937  1.6182
 5380SOL    MW421288   4.196   5.700   1.083 -0.2335  0.0613 -0.2101
 5381SOL     OW21289   1.015   1.317   2.045  0.2950 -0.7372 -0.4271
 5381SOL    HW221290   1.098   1.317   1.997 -1.0287  3.0391 -3.1955
 5381SOL    HW321291   0.964   1.247   2.004  1.3897 -1.7973 -0.0299
 5381SOL    MW421292   1.019   1.308   2.033  0.2648 -0.3788 -0.7400
 5382SOL     OW21293   2.146   1.781   6.064  0.1012  0.1562 -0.3026
 5382SOL    HW221294   2.075   1.786   6.000  0.2203  0.4671 -0.4154
 5382SOL    HW321295   2.106   1.809   6.146  0.1762  0.6802 -0.4397
 5382SOL    MW421296   2.131   1.786   6.066  0.1268  0.2664 -0.3356
 5383SOL     OW21297   5.741   2.430   2.474  0.7894 -0.6850  0.2135
 5383SOL    HW221298   5.705   2.517   2.458 -0.9702 -1.2232  1.0385
 5383SOL    HW321299   5.738   2.387   2.388 -2.3197 -1.3026  0.5103
 5383SOL    MW421300   5.736   2.436   2.461  0.1470 -0.8375  0.3615
 5384SOL     OW21301   3.245   2.596   2.001 -0.9574 -0.6088 -0.2975
 5384SOL    HW221302   3.240   2.613   1.907 -1.2633 -2.4716 -0.6652
 5384SOL    HW321303   3.204   2.510   2.011 -1.9854  0.0797  1.7117
 5384SOL    MW421304   3.239   2.587   1.990 -1.1334 -0.7637 -0.0809
 5385SOL     OW21305   4.661   5.588   4.120 -0.6549  0.3240  0.3896
 5385SOL    HW221306   4.574   5.613   4.089 -0.5692  1.3026  0.8935
 5385SOL    HW321307   4.714   5.583   4.040 -0.4910  2.5721  0.2804
 5385SOL    MW421308   4.656   5.591   4.105 -0.6220  0.7497  0.4417
 5386SOL     OW21309   3.121   0.217   6.246  0.8586 -0.1432  0.2383
 5386SOL    HW221310   3.053   0.258   6.193  0.7215 -0.2323  0.3430
 5386SOL    HW321311   3.181   0.289   6.267  0.9804 -0.1341 -0.1380
 5386SOL    MW421312   3.120   0.232   6.242  0.8566 -0.1538  0.2025
 5387SOL     OW21313   5.263   2.096   4.989 -0.1580 -0.4530  0.1501
 5387SOL    HW221314   5.301   2.171   5.035 -1.3297  0.8657 -0.9500
 5387SOL    HW321315   5.335   2.063   4.934  0.4478 -0.3106  0.8474
 5387SOL    MW421316   5.277   2.102   4.988 -0.2326 -0.2602  0.0970
 5388SOL     OW21317   0.072   3.816   0.922  0.0391  0.1779 -0.2148
 5388SOL    HW221318  -0.015   3.857   0.918 -0.5443 -0.8524  1.0981
 5388SOL    HW321319   0.101   3.832   1.012 -0.1142 -2.0129  0.2781
 5388SOL    MW421320   0.064   3.824   0.933 -0.0581 -0.2471  0.0234
 5389SOL     OW21321   5.008   2.846   5.820  0.0473  0.7388  0.2507
 5389SOL    HW221322   5.048   2.786   5.756 -3.0913 -0.0423 -1.1923
 5389SOL    HW321323   4.986   2.924   5.769 -0.9200  0.8221  0.7799
 5389SOL    MW421324   5.011   2.848   5.805 -0.4944  0.6467  0.1301
 5390SOL     OW21325   2.659   3.141   0.478  0.1718  0.2947  0.7472
 5390SOL    HW221326   2.718   3.103   0.543  2.0825  1.6018 -0.1212
 5390SOL    HW321327   2.621   3.217   0.522  0.4099  0.3991  0.7737
 5390SOL    MW421328   2.662   3.146   0.493  0.4553  0.4810  0.6361
 5391SOL     OW21329   4.502   0.531   5.811  0.1912 -0.5025  0.1087
 5391SOL    HW221330   4.535   0.446   5.839 -0.2686 -0.5745  0.4332
 5391SOL    HW321331   4.410   0.517   5.793  0.1689 -0.1271 -0.0782
 5391SOL    MW421332   4.494   0.518   5.813  0.1276 -0.4624  0.1269
 5392SOL     OW21333   5.071   4.317   0.308  0.5935 -0.6925  0.4173
 5392SOL    HW221334   4.979   4.336   0.288  0.2678  0.0183  2.4258
 5392SOL    HW321335   5.118   4.341   0.228 -0.5206  2.7983  0.6378
 5392SOL    MW421336   5.065   4.323   0.295  0.4036 -0.1382  0.7114
 5393SOL     OW21337   0.526   6.002   4.141  0.4969 -0.4698  0.1987
 5393SOL    HW221338   0.607   6.043   4.112  1.6187 -1.9344  1.1134
 5393SOL    HW321339   0.487   5.966   4.061  1.1800 -0.4805 -0.1337
 5393SOL    MW421340   0.532   6.002   4.126  0.7350 -0.6644  0.2755
 5394SOL     OW21341   5.947   6.031   6.426  0.7210  0.0960 -0.3196
 5394SOL    HW221342   5.883   6.009   6.494  0.5919  0.4767 -0.3145
 5394SOL    HW321343   5.974   5.946   6.390  0.6939 -0.1021  0.1160
 5394SOL    MW421344   5.942   6.017   6.430  0.7004  0.1201 -0.2614
 5395SOL     OW21345   5.315   3.028   1.869 -0.4006 -0.5894 -0.2921
 5395SOL    HW221346   5.409   3.011   1.863 -0.2749  0.1838 -0.7658
 5395SOL    HW321347   5.285   3.031   1.778 -0.9316 -1.0565 -0.1389
 5395SOL    MW421348   5.323   3.026   1.856 -0.4541 -0.5490 -0.3344
 5396SOL     OW21349   3.273   0.947   3.582  0.7525 -0.1677 -0.0085
 5396SOL    HW221350   3.227   0.869   3.615 -0.4956 -0.2435 -1.7643
 5396SOL    HW321351   3.238   1.019   3.634  0.0705 -0.4841 -0.0151
 5396SOL    MW421352   3.262   0.946   3.593  0.4979 -0.2194 -0.2410
 5397SOL     OW21353   0.681   4.391   0.418 -0.4406 -0.1302  0.1935
 5397SOL    HW221354   0.620   4.364   0.349 -1.9182 -1.7989  2.0280
 5397SOL    HW321355   0.739   4.316   0.428  1.3118  1.0258 -0.7836
 5397SOL    MW421356   0.681   4.377   0.410 -0.4044 -0.1978  0.3067
 5398SOL     OW21357   5.757   0.994   2.499 -0.1864  0.1266 -0.2088
 5398SOL    HW221358   5.843   1.001   2.456  0.1135  1.2701  0.5246
 5398SOL    HW321359   5.770   0.932   2.570  0.0314  0.3051 -0.0938
 5398SOL    MW421360   5.770   0.987   2.503 -0.1181  0.3010 -0.0969
 5399SOL     OW21361   4.096   1.557   0.505 -0.5259  0.0214  0.1884
 5399SOL    HW221362   4.054   1.500   0.569 -0.0963 -1.3145 -0.6702
 5399SOL    HW321363   4.057   1.532   0.422  0.3249  0.3456 -0.3185
 5399SOL    MW421364   4.086   1.546   0.503 -0.3569 -0.1121  0.0082
 5400SOL     OW21365   3.207   2.988   0.649  0.2947 -0.4961 -0.2326
 5400SOL    HW221366   3.232   3.052   0.716 -0.0491 -0.0071 -0.5614
 5400SOL    HW321367   3.278   2.993   0.585 -0.0880  0.1025 -0.6243
 5400SOL    MW421368   3.220   2.997   0.649  0.1988 -0.3526 -0.3276
 5401SOL     OW21369   2.586   6.090   1.494 -0.4345 -0.0905 -0.4031
 5401SOL    HW221370   2.659   6.075   1.434  0.4240 -2.8290  1.1015
 5401SOL    HW321371   2.518   6.031   1.463 -0.2667 -0.9496  0.7876
 5401SOL    MW421372   2.587   6.080   1.482 -0.2991 -0.5651 -0.0475
 5402SOL     OW21373   4.324   4.058   3.045 -0.0648 -0.0152  0.0013
 5402SOL    HW221374   4.364   3.977   3.012 -2.9930 -1.4393 -0.3101
 5402SOL    HW321375   4.360   4.069   3.133  0.4816 -1.5879 -0.0066
 5402SOL    MW421376   4.334   4.049   3.052 -0.3791 -0.4106 -0.0408
 5403SOL     OW21377   3.068   2.868   6.079 -0.6045  0.4101 -0.2073
 5403SOL    HW221378   3.076   2.803   6.149 -4.0989 -0.0866 -0.0859
 5403SOL    HW321379   3.115   2.828   6.005 -0.2219 -0.9101  0.7073
 5403SOL    MW421380   3.075   2.854   6.078 -1.0151  0.1704 -0.0706
 5404SOL     OW21381   4.216   3.408   2.460 -0.0296 -0.3400  0.4231
 5404SOL    HW221382   4.138   3.355   2.440  1.3583 -2.4247  0.2598
 5404SOL    HW321383   4.213   3.418   2.555 -0.2216 -0.8968  0.4841
 5404SOL    MW421384   4.205   3.402   2.470  0.1282 -0.6885  0.4096
 5405SOL     OW21385   1.783   4.673   3.007 -0.5328 -0.2814 -0.6545
 5405SOL    HW221386   1.847   4.604   3.026 -0.5905 -0.0444  0.4359
 5405SOL    HW321387   1.803   4.699   2.917 -0.4566 -1.6475 -1.0611
 5405SOL    MW421388   1.794   4.667   2.997 -0.5303 -0.4304 -0.5643
 5406SOL     OW21389   1.715   0.382   4.990 -0.0820 -0.3498  1.0431
 5406SOL    HW221390   1.637   0.346   5.030  0.7582 -0.0246  3.1159
 5406SOL    HW321391   1.746   0.448   5.053 -0.1602  2.2143 -1.4018
 5406SOL    MW421392   1.709   0.386   5.003  0.0185  0.0314  0.9940
 5407SOL     OW21393   0.760   1.253   4.709  0.2502  0.9044  0.1288
 5407SOL    HW221394   0.720   1.249   4.796  0.5442 -0.6529  0.2255
 5407SOL    HW321395   0.697   1.209   4.652  0.4314  1.1951 -0.3002
 5407SOL    MW421396   0.747   1.247   4.713  0.3129  0.7373  0.0850
 5408SOL     OW21397   5.988   2.529   2.553  0.3006 -0.1025  0.5723
 5408SOL    HW221398   6.019   2.547   2.464 -0.2332  1.2865  0.6362
 5408SOL    HW321399   5.902   2.490   2.540 -0.7454  2.0866  0.4561
 5408SOL    MW421400   5.981   2.527   2.539  0.0921  0.3696  0.5654
 5409SOL     OW21401   1.957   2.332   1.212 -0.6077  0.3664  0.0546
 5409SOL    HW221402   1.988   2.326   1.302  0.1336 -1.3345 -0.2734
 5409SOL    HW321403   1.972   2.424   1.187 -0.5761  0.7884  1.5504
 5409SOL    MW421404   1.963   2.344   1.220 -0.5057  0.1977  0.2087
 5410SOL     OW21405   6.219   3.251   6.429 -0.4108 -0.3070 -0.5124
 5410SOL    HW221406   6.282   3.246   6.501 -1.9961  0.9519  1.0236
 5410SOL    HW321407   6.135   3.226   6.467 -1.1320 -0.6123 -2.1839
 5410SOL    MW421408   6.216   3.247   6.443 -0.7151 -0.1812 -0.5303
 5411SOL     OW21409   1.255   5.746   5.943 -0.3682  0.0326  0.0675
 5411SOL    HW221410   1.249   5.728   5.850  0.3929 -0.4671  0.1046
 5411SOL    HW321411   1.331   5.695   5.973  0.2434  1.2519  0.6878
 5411SOL    MW421412   1.264   5.737   5.935 -0.1871  0.1276  0.1543
 5412SOL     OW21413   4.050   6.069   6.051 -0.2569 -0.2189 -0.7386
 5412SOL    HW221414   4.055   5.986   6.004  0.8704 -0.3462 -0.4121
 5412SOL    HW321415   4.025   6.133   5.985 -0.4404 -0.7021 -1.1367
 5412SOL    MW421416   4.047   6.067   6.036 -0.1324 -0.2994 -0.7481
 5413SOL     OW21417   3.544   2.145   1.371  0.4097  0.6483 -0.3820
 5413SOL    HW221418   3.449   2.132   1.372  0.3064  1.3406 -0.5189
 5413SOL    HW321419   3.579   2.070   1.420 -0.3602  1.5211  1.6341
 5413SOL    MW421420   3.536   2.133   1.378  0.2945  0.8548 -0.1341
 5414SOL     OW21421   1.124   5.934   4.638  0.2029  0.3718  0.9291
 5414SOL    HW221422   1.167   5.869   4.694  0.6425  0.0227  0.2044
 5414SOL    HW321423   1.064   5.882   4.584 -0.6441  0.7755  1.4570
 5414SOL    MW421424   1.122   5.918   4.638  0.1491  0.3790  0.9031
 5415SOL     OW21425   2.400   2.566   1.973  0.5062  0.0033 -0.0949
 5415SOL    HW221426   2.323   2.551   1.918  0.6318 -0.0206 -0.2664
 5415SOL    HW321427   2.439   2.645   1.936 -1.1408  1.8717  1.8918
 5415SOL    MW421428   2.395   2.575   1.961  0.3054  0.2467  0.1446
 5416SOL     OW21429   0.166   0.165   3.072 -0.0673 -0.4710 -0.1903
 5416SOL    HW221430   0.077   0.164   3.108 -1.4506  0.5663 -3.2820
 5416SOL    HW321431   0.157   0.132   2.983  2.7358 -0.5988 -0.5325
 5416SOL    MW421432   0.153   0.160   3.065  0.1201 -0.3510 -0.6434
 5417SOL     OW21433   0.846   5.839   4.841  0.1680 -0.3403 -0.6398
 5417SOL    HW221434   0.808   5.877   4.761 -2.4894 -0.5187  0.4267
 5417SOL    HW321435   0.794   5.876   4.912  1.2961 -1.5580  0.8897
 5417SOL    MW421436   0.834   5.849   4.840 -0.0338 -0.5245 -0.2973
 5418SOL     OW21437   3.845   3.403   5.791  0.0396  0.5219  0.6055
 5418SOL    HW221438   3.807   3.321   5.761  1.5753  0.1258 -0.3759
 5418SOL    HW321439   3.935   3.381   5.815  1.1449  2.2401 -1.6046
 5418SOL    MW421440   3.852   3.389   5.791  0.3880  0.6963  0.1844
 5419SOL     OW21441   5.132   4.398   1.712  0.5456 -0.2233 -0.4829
 5419SOL    HW221442   5.190   4.422   1.785 -0.9174  0.4641  0.5097
 5419SOL    HW321443   5.059   4.353   1.754  0.7821 -1.9569 -1.8059
 5419SOL    MW421444   5.130   4.395   1.727  0.3838 -0.3613 -0.5265
 5420SOL     OW21445   2.744   0.886   4.882  0.0113  0.3349 -0.0606
 5420SOL    HW221446   2.704   0.808   4.920  1.0306  0.5488  1.5205
 5420SOL    HW321447   2.764   0.861   4.792 -2.3005 -0.2554 -0.4849
 5420SOL    MW421448   2.741   0.872   4.875 -0.1592  0.2852  0.0920
 5421SOL     OW21449   5.362   6.382   3.189  0.0591 -0.8957 -0.1092
 5421SOL    HW221450   5.405   6.418   3.267  0.4083  0.0432 -0.7089
 5421SOL    HW321451   5.273   6.419   3.192  0.4201  0.0673 -0.7291
 5421SOL    MW421452   5.356   6.392   3.199  0.1528 -0.6447 -0.2701
 5422SOL     OW21453   1.629   2.711   1.070 -0.0968  0.1070 -0.1571
 5422SOL    HW221454   1.566   2.759   1.016  0.0719  0.5857  0.0719
 5422SOL    HW321455   1.704   2.697   1.012 -0.6357 -1.0052 -0.6328
 5422SOL    MW421456   1.631   2.715   1.055 -0.1456  0.0234 -0.1896
 5423SOL     OW21457   4.702   1.778   5.799  0.1367 -0.6407  0.1742
 5423SOL    HW221458   4.742   1.755   5.715  1.0653 -0.0992  0.4572
 5423SOL    HW321459   4.729   1.707   5.857  1.3883  0.1158  0.5622
 5423SOL    MW421460   4.711   1.765   5.795  0.4243 -0.4694  0.2627
 5424SOL     OW21461   1.695   2.698   5.274  0.0327 -0.5329 -0.2069
 5424SOL    HW221462   1.606   2.692   5.309 -0.0214 -0.5785 -0.3498
 5424SOL    HW321463   1.746   2.737   5.345 -0.0193 -0.8734  0.0196
 5424SOL    MW421464   1.690   2.703   5.288  0.0187 -0.5839 -0.1959
 5425SOL     OW21465   0.491   3.909   3.332 -0.2569  0.1087  0.1249
 5425SOL    HW221466   0.458   3.935   3.418 -1.5698  0.5462 -0.4868
 5425SOL    HW321467   0.415   3.875   3.286  0.4421 -0.1830 -0.8494
 5425SOL    MW421468   0.477   3.908   3.338 -0.3379  0.1279 -0.0844
 5426SOL     OW21469   5.747   0.291   0.428 -0.2025 -0.2834 -0.4588
 5426SOL    HW221470   5.754   0.234   0.352  0.8667 -2.0409  0.8788
 5426SOL    HW321471   5.835   0.294   0.465 -0.7574  0.1856  0.9167
 5426SOL    MW421472   5.759   0.284   0.423 -0.1346 -0.4534 -0.1008
 5427SOL     OW21473   0.309   0.265   1.183 -0.2904 -0.2304  0.4215
 5427SOL    HW221474   0.331   0.208   1.109  0.2574 -0.7922  1.0092
 5427SOL    HW321475   0.346   0.350   1.158 -0.4296 -0.3221 -0.1124
 5427SOL    MW421476   0.317   0.269   1.170 -0.2365 -0.3166  0.4286
 5428SOL     OW21477   5.701   4.758   3.169 -0.4249 -0.5792  0.2344
 5428SOL    HW221478   5.666   4.802   3.246  0.3055 -1.3151  1.0054
 5428SOL    HW321479   5.745   4.680   3.203 -1.8865 -2.0976 -1.0871
 5428SOL    MW421480   5.702   4.753   3.184 -0.5214 -0.8766  0.1617
 5429SOL     OW21481   0.556   1.317   2.829  0.2117  0.4257  0.1801
 5429SOL    HW221482   0.511   1.268   2.760 -1.0083  1.0513  0.4957
 5429SOL    HW321483   0.628   1.260   2.856  0.9110  0.2916 -1.7891
 5429SOL    MW421484   0.560   1.303   2.824  0.1430  0.4905 -0.0381
 5430SOL     OW21485   3.003   2.410   0.085  0.1086  0.3080 -0.2811
 5430SOL    HW221486   2.942   2.336   0.086 -0.6477  0.9217 -0.1107
 5430SOL    HW321487   3.089   2.370   0.099 -0.3928 -0.4371  0.7701
 5430SOL    MW421488   3.006   2.395   0.087 -0.0573  0.2907 -0.1199
 5431SOL     OW21489   0.926   6.191   4.687 -0.3198  0.0103 -0.1511
 5431SOL    HW221490   0.919   6.220   4.778 -1.2458  1.1526 -0.5657
 5431SOL    HW321491   0.992   6.122   4.689 -1.2078 -0.8567  1.5955
 5431SOL    MW421492   0.934   6.186   4.699 -0.5592  0.0466  0.0246
 5432SOL     OW21493   5.050   3.569   6.108 -0.1296 -0.0969  0.1136
 5432SOL    HW221494   5.104   3.508   6.058 -0.1310 -0.7794  0.9070
 5432SOL    HW321495   5.070   3.548   6.199 -0.6932  0.5933  0.4015
 5432SOL    MW421496   5.060   3.558   6.114 -0.2041 -0.0959  0.2563
 5433SOL     OW21497   2.394   1.856   5.997  0.2916 -0.1650  0.1631
 5433SOL    HW221498   2.298   1.848   5.991  0.2780 -0.1032  0.3130
 5433SOL    HW321499   2.418   1.906   5.919  0.4742 -2.3711 -1.3142
 5433SOL    MW421500   2.384   1.861   5.986  0.3139 -0.4479 -0.0121
 5434SOL     OW21501   6.061   1.457   0.198  0.6151  0.6909  0.2418
 5434SOL    HW221502   6.135   1.399   0.217  0.6676  0.3667 -0.9182
 5434SOL    HW321503   5.984   1.401   0.206  0.5040  0.9614  1.1632
 5434SOL    MW421504   6.061   1.442   0.202  0.6074  0.6838  0.2103
 5435SOL     OW21505   1.901   5.426   6.025 -0.4396 -0.1869  0.4943
 5435SOL    HW221506   1.834   5.387   5.969 -2.0042  0.6951  1.6530
 5435SOL    HW321507   1.961   5.470   5.965 -1.5542 -0.0299 -0.5447
 5435SOL    MW421508   1.900   5.427   6.010 -0.7931 -0.0498  0.5101
 5436SOL     OW21509   5.496   0.291   6.396  0.2880 -0.0594 -0.3793
 5436SOL    HW221510   5.426   0.297   6.461 -0.6701 -0.1463 -1.3751
 5436SOL    HW321511   5.521   0.382   6.379  1.0752 -0.0620  0.6346
 5436SOL    MW421512   5.490   0.304   6.403  0.2655 -0.0712 -0.3769
 5437SOL     OW21513   3.329   0.933   0.006  0.2270  0.8466  0.0295
 5437SOL    HW221514   3.322   0.927  -0.090 -0.7469  1.4621  0.0495
 5437SOL    HW321515   3.394   0.867   0.029  1.5378  1.6162 -1.1944
 5437SOL    MW421516   3.337   0.924  -0.004  0.2714  1.0294 -0.1293
 5438SOL     OW21517   0.898   2.218   4.027 -0.0116  0.4044  0.3542
 5438SOL    HW221518   0.848   2.163   4.086 -0.2184  1.2939  1.0283
 5438SOL    HW321519   0.950   2.157   3.975 -0.6291 -0.4423  0.7156
 5438SOL    MW421520   0.898   2.203   4.028 -0.1204  0.4101  0.4908
 5439SOL     OW21521   1.967   0.361   4.090  0.0004  0.3957 -0.3122
 5439SOL    HW221522   1.982   0.444   4.134 -1.0790  0.0340  0.8068
 5439SOL    HW321523   2.048   0.313   4.101 -0.5530 -0.1174  2.3546
 5439SOL    MW421524   1.979   0.366   4.097 -0.2150  0.2803  0.1873
 5440SOL     OW21525   2.000   5.399   2.246  0.2639 -0.8876 -0.3610
 5440SOL    HW221526   2.035   5.380   2.159  0.8712  2.7267 -1.0925
 5440SOL    HW321527   1.907   5.417   2.231  0.3242 -0.4648 -0.2518
 5440SOL    MW421528   1.992   5.399   2.233  0.3520 -0.3549 -0.4431
 5441SOL     OW21529   2.186   4.465   4.189  0.1077 -0.4450 -0.3043
 5441SOL    HW221530   2.171   4.384   4.140 -1.3553  0.2997 -1.1488
 5441SOL    HW321531   2.230   4.523   4.127 -1.8221  0.5297 -0.8140
 5441SOL    MW421532   2.190   4.462   4.174 -0.3400 -0.2181 -0.4830
 5442SOL     OW21533   0.009   1.899   4.936 -0.2643  0.9525  0.4381
 5442SOL    HW221534   0.010   1.901   5.032 -0.4401 -1.5820  0.5748
 5442SOL    HW321535  -0.084   1.894   4.914 -0.1777 -0.5086  0.2900
 5442SOL    MW421536  -0.003   1.899   4.946 -0.2761  0.4253  0.4366
 5443SOL     OW21537   5.486   1.683   2.490 -0.4409 -0.1570  0.5081
 5443SOL    HW221538   5.436   1.616   2.536  0.1126 -0.3446  0.8541
 5443SOL    HW321539   5.578   1.661   2.509 -0.2704  1.0622  1.1392
 5443SOL    MW421540   5.492   1.671   2.499 -0.3454 -0.0209  0.6371
 5444SOL     OW21541   3.224   3.659   5.353  0.2578  0.0451  0.1621
 5444SOL    HW221542   3.284   3.723   5.392  0.7254 -0.3028  0.0285
 5444SOL    HW321543   3.202   3.600   5.425  0.0343  0.2012  0.2224
 5444SOL    MW421544   3.229   3.660   5.368  0.2900  0.0198  0.1524
 5445SOL     OW21545   5.225   4.645   3.117 -0.0462  0.4171 -0.0283
 5445SOL    HW221546   5.233   4.689   3.032  1.7350  0.9409  0.3707
 5445SOL    HW321547   5.309   4.603   3.131 -1.0335 -1.5128  0.5314
 5445SOL    MW421548   5.237   4.645   3.108  0.0586  0.2316  0.0982
 5446SOL     OW21549   1.155   0.471   5.030 -0.3891 -0.3092  0.3258
 5446SOL    HW221550   1.242   0.494   5.063 -0.9898  0.3599  1.4908
 5446SOL    HW321551   1.170   0.393   4.977  1.2462  1.0170 -1.2938
 5446SOL    MW421552   1.169   0.464   5.027 -0.2526 -0.0459  0.2658
 5447SOL     OW21553   1.359   5.328   3.099  0.4325  0.1693 -0.0517
 5447SOL    HW221554   1.416   5.380   3.155  1.2208  0.9227 -1.5293
 5447SOL    HW321555   1.414   5.256   3.069 -0.6968 -1.7745  2.1507
 5447SOL    MW421556   1.374   5.325   3.103  0.3875  0.0122  0.0439
 5448SOL     OW21557   3.545   2.758   1.676 -0.1260  0.4919 -0.6638
 5448SOL    HW221558   3.577   2.669   1.693  0.2566  0.7232 -0.1277
 5448SOL    HW321559   3.569   2.774   1.584  0.1103  0.1681 -0.6641
 5448SOL    MW421560   3.553   2.748   1.666 -0.0443  0.4797 -0.5931
 5449SOL     OW21561   3.620   1.446   1.631 -0.2484  0.6133 -0.2583
 5449SOL    HW221562   3.661   1.423   1.714  0.0373  2.2724  0.1116
 5449SOL    HW321563   3.605   1.541   1.638 -2.2152  0.4212 -1.2401
 5449SOL    MW421564   3.624   1.456   1.643 -0.4702  0.8068 -0.3390
 5450SOL     OW21565   6.047   0.662   0.978 -0.2913 -0.2723 -0.5123
 5450SOL    HW221566   6.002   0.589   1.021  0.9698 -0.4531  0.5421
 5450SOL    HW321567   6.087   0.623   0.900 -2.6750  0.0797 -2.0307
 5450SOL    MW421568   6.046   0.647   0.973 -0.4394 -0.2497 -0.5735
 5451SOL     OW21569   4.494   1.962   0.817 -0.3229  0.7749  0.1710
 5451SOL    HW221570   4.437   1.938   0.890  0.3571  1.3282  0.9058
 5451SOL    HW321571   4.456   1.919   0.741 -1.2273  0.4447  0.7998
 5451SOL    MW421572   4.482   1.953   0.816 -0.3525  0.8044  0.3509
 5452SOL     OW21573   6.231   4.048   3.659 -0.0838  0.6853 -0.1445
 5452SOL    HW221574   6.289   4.124   3.657  0.3925  0.4675  2.0771
 5452SOL    HW321575   6.230   4.022   3.751  0.7685 -2.7392 -0.9613
 5452SOL    MW421576   6.239   4.054   3.671  0.0915  0.2047  0.0409
 5453SOL     OW21577   4.755   2.099   1.328 -0.3371  0.3867 -0.5450
 5453SOL    HW221578   4.804   2.029   1.372 -0.5185  0.4969 -0.1585
 5453SOL    HW321579   4.666   2.065   1.321 -0.4444  0.6100 -0.2818
 5453SOL    MW421580   4.750   2.085   1.333 -0.3752  0.4307 -0.4593
 5454SOL     OW21581   5.668   5.180   2.081  0.2336 -0.3124  0.5748
 5454SOL    HW221582   5.623   5.257   2.046 -0.2665 -0.8179  0.0993
 5454SOL    HW321583   5.760   5.207   2.087  0.2765 -0.1006 -0.7995
 5454SOL    MW421584   5.674   5.194   2.077  0.1733 -0.3512  0.3307
 5455SOL     OW21585   5.413   5.700   3.471 -0.3111  0.1905  0.1125
 5455SOL    HW221586   5.483   5.765   3.460 -0.7292  1.0315  1.9716
 5455SOL    HW321587   5.336   5.752   3.493  0.0135 -0.9288  4.9216
 5455SOL    MW421588   5.412   5.716   3.473 -0.3234  0.1538  0.9923
 5456SOL     OW21589   5.550   3.222   5.294  0.1572 -0.1894 -0.3585
 5456SOL    HW221590   5.555   3.198   5.202  0.1279  0.0370 -0.4193
 5456SOL    HW321591   5.638   3.251   5.316  0.7714 -2.3619  0.2753
 5456SOL    MW421592   5.562   3.223   5.285  0.2344 -0.4461 -0.2829
 5457SOL     OW21593   0.624   2.315   5.642 -0.1270 -0.1575  0.0888
 5457SOL    HW221594   0.546   2.336   5.692  0.3335 -0.3420  0.8968
 5457SOL    HW321595   0.663   2.240   5.687  1.4606  0.9935  0.7730
 5457SOL    MW421596   0.619   2.308   5.654  0.1432 -0.0300  0.2857
 5458SOL     OW21597   4.533   2.824   3.004 -0.3536 -0.1813  0.0708
 5458SOL    HW221598   4.615   2.843   2.959 -1.0995  0.7103 -0.9871
 5458SOL    HW321599   4.559   2.781   3.085  1.2562  1.6981  0.6292
 5458SOL    MW421600   4.547   2.820   3.008 -0.2396  0.1843  0.0049
 5459SOL     OW21601   3.863   0.533   5.696 -0.3561  0.0117 -0.0810
 5459SOL    HW221602   3.954   0.548   5.669 -0.2187  0.3047  0.5211
 5459SOL    HW321603   3.840   0.448   5.660  0.0165  0.1301 -0.6038
 5459SOL    MW421604   3.872   0.524   5.688 -0.2888  0.0660 -0.0705
 5460SOL     OW21605   5.618   0.303   0.826 -0.2668  0.2485  0.4103
 5460SOL    HW221606   5.576   0.228   0.783  0.2068 -0.5527  1.3289
 5460SOL    HW321607   5.548   0.343   0.878 -0.1923 -0.3954  1.0203
 5460SOL    MW421608   5.603   0.298   0.827 -0.1945  0.0578  0.6120
 5461SOL     OW21609   5.693   4.068   1.918  0.6159 -0.0606  0.0778
 5461SOL    HW221610   5.735   4.092   1.836  0.2895  0.2048 -0.0132
 5461SOL    HW321611   5.604   4.101   1.910  0.0507 -1.5806 -0.1734
 5461SOL    MW421612   5.687   4.076   1.906  0.4983 -0.2261  0.0327
 5462SOL     OW21613   4.392   4.033   2.298 -0.6485  0.0827 -0.1763
 5462SOL    HW221614   4.472   4.070   2.262 -1.7965  3.7591  0.6288
 5462SOL    HW321615   4.327   4.042   2.228 -1.4124  1.5420  0.6697
 5462SOL    MW421616   4.394   4.039   2.284 -0.9008  0.7603  0.0415
 5463SOL     OW21617   4.490   5.667   1.728 -0.2789 -0.1933 -0.1719
 5463SOL    HW221618   4.471   5.580   1.763 -0.8621 -0.3525 -0.8674
 5463SOL    HW321619   4.525   5.651   1.641 -2.8354  0.3247 -1.3817
 5463SOL    MW421620   4.492   5.654   1.721 -0.6931 -0.1459 -0.4232
 5464SOL     OW21621   3.206   1.663   2.372  0.2200 -0.1199  0.2464
 5464SOL    HW221622   3.286   1.695   2.412 -1.7149  1.2603  3.3663
 5464SOL    HW321623   3.154   1.742   2.354 -0.2666 -0.9193 -2.3089
 5464SOL    MW421624   3.209   1.678   2.375 -0.0995 -0.0433  0.3209
 5465SOL     OW21625   0.389   3.020   0.993 -0.4498 -0.4038  0.6971
 5465SOL    HW221626   0.326   3.028   0.920  0.2077  0.5930  0.2234
 5465SOL    HW321627   0.344   2.964   1.056 -0.9818 -1.4324 -0.5358
 5465SOL    MW421628   0.375   3.014   0.991 -0.4333 -0.4080  0.4719
 5466SOL     OW21629   0.353   5.897   3.647 -0.2667  0.4408 -0.3201
 5466SOL    HW221630   0.345   5.837   3.572 -2.3268  1.4976 -1.0454
 5466SOL    HW321631   0.334   5.983   3.610 -1.0642  1.0337  1.3670
 5466SOL    MW421632   0.349   5.900   3.632 -0.6437  0.6585 -0.1932
 5467SOL     OW21633   5.382   2.629   4.000 -0.0770 -0.1677 -0.2400
 5467SOL    HW221634   5.298   2.675   3.999 -0.3916 -0.7256 -1.8240
 5467SOL    HW321635   5.419   2.648   4.087 -1.8835 -0.0271  0.5354
 5467SOL    MW421636   5.376   2.637   4.012 -0.3569 -0.2228 -0.3467
 5468SOL     OW21637   2.559   1.595   5.707 -0.2008  0.1356  0.0343
 5468SOL    HW221638   2.619   1.536   5.753  0.2209  0.9620  0.5803
 5468SOL    HW321639   2.617   1.653   5.657 -0.6113  0.0661 -0.5311
 5468SOL    MW421640   2.575   1.595   5.706 -0.1993  0.2355  0.0318
 5469SOL     OW21641   0.813   1.316   5.071  0.2129 -0.5012 -0.3730
 5469SOL    HW221642   0.884   1.275   5.023  0.2296 -0.4779 -0.3685
 5469SOL    HW321643   0.815   1.408   5.042  2.0883  0.2467  1.8068
 5469SOL    MW421644   0.823   1.323   5.061  0.4626 -0.3994 -0.0848
 5470SOL     OW21645   3.782   6.192   2.207  0.0368  0.3521  0.2217
 5470SOL    HW221646   3.747   6.265   2.155 -0.6595  0.5258  0.9261
 5470SOL    HW321647   3.781   6.224   2.297  0.9533 -0.0663  0.3935
 5470SOL    MW421648   3.778   6.206   2.212  0.0658  0.3198  0.3373
 5471SOL     OW21649   1.543   2.031   2.661 -0.1778  0.3482  0.4299
 5471SOL    HW221650   1.503   1.948   2.687 -2.1581  1.1339  0.0767
 5471SOL    HW321651   1.601   2.054   2.734 -0.5891 -0.7013  1.1145
 5471SOL    MW421652   1.545   2.023   2.674 -0.4933  0.3134  0.4736
 5472SOL     OW21653   4.455   3.794   2.641 -0.0820  0.5061 -0.3037
 5472SOL    HW221654   4.539   3.838   2.624 -0.1560  0.1858 -1.6727
 5472SOL    HW321655   4.393   3.840   2.584 -1.0876  1.4200  1.4655
 5472SOL    MW421656   4.458   3.806   2.631 -0.2245  0.5844 -0.2509
 5473SOL     OW21657   1.161   1.481   3.907  0.6582 -0.6798  0.6168
 5473SOL    HW221658   1.088   1.497   3.967  0.3898 -0.9842  0.3742
 5473SOL    HW321659   1.119   1.465   3.822  0.9920 -1.2325  0.5550
 5473SOL    MW421660   1.146   1.481   3.903  0.6668 -0.7928  0.5766
 5474SOL     OW21661   1.251   1.740   3.865  0.0789  0.3174  0.9082
 5474SOL    HW221662   1.222   1.777   3.949  1.8095 -2.5058  2.9053
 5474SOL    HW321663   1.217   1.650   3.866  1.9740 -0.4518 -0.3912
 5474SOL    MW421664   1.242   1.733   3.877  0.5573 -0.1566  1.0002
 5475SOL     OW21665   0.925   3.905   0.514 -0.1240  0.0509 -0.3014
 5475SOL    HW221666   0.878   3.985   0.490 -1.2690 -0.7524 -0.8216
 5475SOL    HW321667   0.876   3.869   0.587  0.9411  0.2976  0.5599
 5475SOL    MW421668   0.912   3.910   0.520 -0.1346 -0.0225 -0.2564
 5476SOL     OW21669   1.015   3.959   6.248 -0.2836  0.4532 -0.1094
 5476SOL    HW221670   1.092   4.006   6.281  0.5127 -0.3852 -0.7249
 5476SOL    HW321671   0.971   3.926   6.327 -0.5474  1.7265  0.2971
 5476SOL    MW421672   1.019   3.961   6.263 -0.2134  0.5106 -0.1370
 5477SOL     OW21673   6.396   4.901   5.300  0.4888  0.1913  0.0986
 5477SOL    HW221674   6.369   4.810   5.297  0.1067  0.3212 -1.0207
 5477SOL    HW321675   6.383   4.933   5.211  3.2691  0.5904 -0.2564
 5477SOL    MW421676   6.391   4.893   5.288  0.8052  0.2611 -0.0959
 5478SOL     OW21677   4.946   1.129   1.009 -0.3791  0.8905 -0.2410
 5478SOL    HW221678   5.025   1.181   1.005 -0.4562  1.0374  0.1706
 5478SOL    HW321679   4.922   1.116   0.917  0.4618  0.3195 -0.3942
 5478SOL    MW421680   4.953   1.134   0.996 -0.2783  0.8345 -0.2069
 5479SOL     OW21681   0.800   5.121   0.613 -0.5934 -0.0928  0.0052
 5479SOL    HW221682   0.871   5.102   0.674 -0.8782  0.5223  0.5361
 5479SOL    HW321683   0.781   5.036   0.572 -0.3246 -0.4952  0.6938
 5479SOL    MW421684   0.807   5.107   0.616 -0.5955 -0.0647  0.1661
 5480SOL     OW21685   0.103   3.940   5.796 -0.2076  0.1255  0.1778
 5480SOL    HW221686   0.179   3.978   5.840 -0.3486  1.6688 -0.8345
 5480SOL    HW321687   0.036   3.934   5.865  0.0379  1.1159  0.5189
 5480SOL    MW421688   0.104   3.944   5.811 -0.1938  0.4598  0.0893
 5481SOL     OW21689   1.268   5.015   2.283  0.3042 -0.4835  0.3089
 5481SOL    HW221690   1.230   4.927   2.285 -0.4848 -0.1300  1.7940
 5481SOL    HW321691   1.199   5.073   2.314  1.4399  0.4049  1.3144
 5481SOL    MW421692   1.254   5.011   2.287  0.3500 -0.3196  0.6375
 5482SOL     OW21693   1.750   3.274   0.078  0.0647 -0.0737  0.1951
 5482SOL    HW221694   1.838   3.249   0.049  1.7813  3.8108  1.3653
 5482SOL    HW321695   1.750   3.259   0.172  0.3111  1.8292  0.5371
 5482SOL    MW421696   1.762   3.269   0.086  0.3237  0.6899  0.3946
 5483SOL     OW21697   3.319   4.672   0.269 -0.8664  0.0548  0.3943
 5483SOL    HW221698   3.236   4.707   0.238 -0.3024 -0.5074 -1.9193
 5483SOL    HW321699   3.317   4.687   0.364 -2.4598  2.4447  0.0855
 5483SOL    MW421700   3.308   4.679   0.278 -1.0022  0.2959  0.0483
 5484SOL     OW21701   4.565   3.686   3.509 -0.2246  1.0151 -0.2638
 5484SOL    HW221702   4.504   3.644   3.570 -0.5654 -0.3984 -1.5131
 5484SOL    HW321703   4.577   3.775   3.543 -2.4928  1.1258  0.3535
 5484SOL    MW421704   4.559   3.692   3.522 -0.5688  0.8432 -0.3472
 5485SOL     OW21705   2.614   1.375   2.171  0.0039  0.5318  0.3514
 5485SOL    HW221706   2.593   1.283   2.188  1.3390  0.1471  0.0049
 5485SOL    HW321707   2.702   1.387   2.206 -0.1174  1.6630  0.3163
 5485SOL    MW421708   2.623   1.364   2.178  0.1640  0.6303  0.3011
 5486SOL     OW21709   5.506   2.150   4.818  0.0703  0.2860  0.0646
 5486SOL    HW221710   5.585   2.194   4.847  0.3206  0.1688 -0.4406
 5486SOL    HW321711   5.476   2.199   4.742 -0.9273  0.9569  0.8525
 5486SOL    MW421712   5.512   2.162   4.812 -0.0283  0.3590  0.1019
 5487SOL     OW21713   3.380   4.933   5.550 -0.2824  0.5929  0.0869
 5487SOL    HW221714   3.341   4.883   5.622  1.5473 -0.8175  0.1704
 5487SOL    HW321715   3.325   5.011   5.543 -2.3811 -0.7197  0.9207
 5487SOL    MW421716   3.368   4.937   5.559 -0.3179  0.2336  0.2079
 5488SOL     OW21717   5.587   6.433   3.837  0.2408 -0.6252  0.4027
 5488SOL    HW221718   5.659   6.370   3.850  0.5372 -0.6326 -1.0907
 5488SOL    HW321719   5.508   6.381   3.852  0.4922 -1.2927 -0.4851
 5488SOL    MW421720   5.586   6.418   3.841  0.3131 -0.7142  0.0885
 5489SOL     OW21721   2.560   5.927   4.371 -0.0852 -0.0852 -0.4977
 5489SOL    HW221722   2.519   5.842   4.386  3.1918 -1.6429  0.5439
 5489SOL    HW321723   2.604   5.918   4.287 -0.2774  0.8678 -0.7152
 5489SOL    MW421724   2.561   5.915   4.362  0.3218 -0.1650 -0.3890
 5490SOL     OW21725   4.348   5.879   0.640 -0.5297 -0.9396  0.0549
 5490SOL    HW221726   4.339   5.833   0.724 -0.2574 -1.0953 -0.0009
 5490SOL    HW321727   4.440   5.871   0.618 -0.6739 -1.2420 -0.4559
 5490SOL    MW421728   4.359   5.871   0.648 -0.5128 -1.0001 -0.0199
 5491SOL     OW21729   2.798   5.919   1.317 -0.3525 -0.3007  0.6239
 5491SOL    HW221730   2.879   5.935   1.366 -0.0169  0.4557 -0.1601
 5491SOL    HW321731   2.741   5.875   1.380  0.9183 -1.5568  0.9770
 5491SOL    MW421732   2.801   5.915   1.332 -0.1406 -0.3666  0.5670
 5492SOL     OW21733   4.213   4.921   4.527  0.2321  0.7194  0.3574
 5492SOL    HW221734   4.251   4.865   4.595  0.4340 -0.7034 -0.8582
 5492SOL    HW321735   4.288   4.965   4.487  0.2867  0.3467  0.0410
 5492SOL    MW421736   4.228   4.919   4.530  0.2659  0.4825  0.1553
 5493SOL     OW21737   2.587   1.822   2.363  0.0471 -0.3158 -0.1299
 5493SOL    HW221738   2.590   1.735   2.323  0.3622  0.2044 -1.2531
 5493SOL    HW321739   2.628   1.810   2.449 -0.5527 -1.4195  0.0150
 5493SOL    MW421740   2.593   1.809   2.369  0.0096 -0.3928 -0.2590
 5494SOL     OW21741   3.506   1.572   2.136 -0.3945 -0.2407  0.1968
 5494SOL    HW221742   3.563   1.592   2.211 -0.0609 -1.0483  0.1636
 5494SOL    HW321743   3.560   1.517   2.079 -0.8802 -0.1961 -0.3078
 5494SOL    MW421744   3.521   1.567   2.139 -0.4146 -0.3414  0.1258
 5495SOL     OW21745   4.377   3.805   2.908 -0.5426  0.8132  0.0490
 5495SOL    HW221746   4.287   3.779   2.890 -0.2221 -0.4986  0.2092
 5495SOL    HW321747   4.416   3.819   2.822 -0.9313  1.5238 -0.0158
 5495SOL    MW421748   4.370   3.804   2.894 -0.5516  0.7339  0.0616
 5496SOL     OW21749   6.062   0.904   4.944  0.0917  0.8107 -0.2711
 5496SOL    HW221750   6.127   0.839   4.971 -0.2085  0.7406  0.3033
 5496SOL    HW321751   5.980   0.873   4.983 -0.8069 -0.3636 -2.8562
 5496SOL    MW421752   6.060   0.891   4.953 -0.0665  0.6465 -0.5364
 5497SOL     OW21753   2.753   5.163   4.168  0.0598  0.0530 -0.2175
 5497SOL    HW221754   2.680   5.219   4.142  0.8579  0.7246 -1.1054
 5497SOL    HW321755   2.749   5.089   4.108 -0.0529 -0.0342 -0.1004
 5497SOL    MW421756   2.743   5.161   4.156  0.1502  0.1301 -0.3192
 5498SOL     OW21757   3.124   1.403   5.726  0.3820 -0.2165 -0.1821
 5498SOL    HW221758   3.167   1.467   5.669  0.7382  0.1814  0.5169
 5498SOL    HW321759   3.149   1.318   5.690  1.4330  0.0155 -0.0285
 5498SOL    MW421760   3.133   1.400   5.714  0.5676 -0.1334 -0.0696
 5499SOL     OW21761   3.541   1.653   3.692  0.2073  0.3259 -0.7141
 5499SOL    HW221762   3.610   1.599   3.730 -0.7189  0.1254  0.7697
 5499SOL    HW321763   3.506   1.703   3.766 -2.1089 -0.5535 -1.1184
 5499SOL    MW421764   3.546   1.653   3.707 -0.2205  0.1834 -0.5717
 5500SOL     OW21765   1.753   3.493   0.949 -0.2113 -0.1690 -0.0685
 5500SOL    HW221766   1.693   3.528   1.015 -1.2393 -1.2817 -0.3802
 5500SOL    HW321767   1.696   3.459   0.881  0.8259  1.1388 -1.6718
 5500SOL    MW421768   1.737   3.493   0.949 -0.2101 -0.1432 -0.3212
 5501SOL     OW21769   1.441   3.282   4.606  0.3959  0.3760 -0.3516
 5501SOL    HW221770   1.491   3.214   4.651  0.8351 -0.0570 -1.4712
 5501SOL    HW321771   1.442   3.256   4.514 -1.0623  0.8891 -0.5310
 5501SOL    MW421772   1.448   3.270   4.600  0.2614  0.3866 -0.5230
 5502SOL     OW21773   4.325   1.035   5.325 -0.5029 -0.2343 -0.3573
 5502SOL    HW221774   4.336   1.093   5.400 -0.7402 -0.2759 -0.2910
 5502SOL    HW321775   4.396   1.059   5.265 -1.3130  0.9570 -0.8786
 5502SOL    MW421776   4.336   1.045   5.327 -0.6411 -0.0826 -0.4173
 5503SOL     OW21777   4.462   6.130   6.176 -0.1198  0.4632  0.1157
 5503SOL    HW221778   4.408   6.145   6.098  1.0158  1.7914 -0.4720
 5503SOL    HW321779   4.510   6.049   6.157 -0.1421  0.5690 -0.4132
 5503SOL    MW421780   4.461   6.122   6.163  0.0271  0.6524 -0.0316
 5504SOL     OW21781   6.282   1.300   1.865 -0.4995 -0.0794 -0.3018
 5504SOL    HW221782   6.343   1.282   1.794 -0.9897 -2.1723 -0.2419
 5504SOL    HW321783   6.298   1.231   1.929 -0.3487  1.5286  1.4741
 5504SOL    MW421784   6.292   1.289   1.864 -0.5443 -0.1434 -0.0596
 5505SOL     OW21785   4.428   0.712   0.457 -0.0240 -0.2372  0.4279
 5505SOL    HW221786   4.385   0.626   0.452  0.9887 -0.7167 -0.7480
 5505SOL    HW321787   4.488   0.705   0.531 -1.3326  0.1461  1.5494
 5505SOL    MW421788   4.430   0.700   0.466 -0.0630 -0.2499  0.4207
 5506SOL     OW21789   1.710   3.859   6.097 -0.3431 -0.0445 -0.4466
 5506SOL    HW221790   1.656   3.780   6.092  1.7613 -1.7407  1.3433
 5506SOL    HW321791   1.759   3.859   6.015 -0.6972 -0.3307 -0.6653
 5506SOL    MW421792   1.709   3.848   6.086 -0.1122 -0.3061 -0.2393
 5507SOL     OW21793   1.468   4.630   2.462 -0.1475 -0.1956  0.0340
 5507SOL    HW221794   1.413   4.673   2.527 -0.4048  0.3145 -0.5104
 5507SOL    HW321795   1.543   4.597   2.511  1.1047  2.6629  0.2082
 5507SOL    MW421796   1.471   4.631   2.477 -0.0163  0.2488 -0.0148
 5508SOL     OW21797   5.561   1.752   5.899 -0.5025 -0.0143  0.0300
 5508SOL    HW221798   5.533   1.702   5.976 -0.1589  1.0205  0.8649
 5508SOL    HW321799   5.488   1.748   5.839 -0.3515 -1.8063 -0.0909
 5508SOL    MW421800   5.548   1.745   5.902 -0.4372 -0.1142  0.1242
 5509SOL     OW21801   0.803   5.125   2.049  0.0583  0.2542  0.3704
 5509SOL    HW221802   0.765   5.117   1.962 -0.8026  0.1567  0.7373
 5509SOL    HW321803   0.839   5.214   2.051 -2.2967  1.2878  0.7837
 5509SOL    MW421804   0.803   5.136   2.038 -0.3660  0.3777  0.4733
 5510SOL     OW21805   1.361   5.207   0.106 -0.1824 -0.3825  0.5130
 5510SOL    HW221806   1.320   5.157   0.177 -1.5963 -1.5351 -1.0420
 5510SOL    HW321807   1.451   5.174   0.102 -0.3847 -1.0209  1.1192
 5510SOL    MW421808   1.368   5.196   0.115 -0.3956 -0.6188  0.3878
 5511SOL     OW21809   3.943   1.980   4.796 -0.1014 -0.4586  0.4798
 5511SOL    HW221810   3.854   2.012   4.785  0.3517  1.0387  0.8560
 5511SOL    HW321811   3.979   1.978   4.707  0.2338  1.3583  0.5209
 5511SOL    MW421812   3.936   1.984   4.783  0.0026 -0.0214  0.5349
 5512SOL     OW21813   0.250   5.155   1.494  0.3546 -0.0118 -0.2180
 5512SOL    HW221814   0.294   5.083   1.539  1.9068  0.5867 -0.7020
 5512SOL    HW321815   0.319   5.219   1.478 -0.6579  0.8799 -1.2218
 5512SOL    MW421816   0.265   5.154   1.498  0.4258  0.1848 -0.4143
 5513SOL     OW21817   3.585   4.093   2.632  0.1757 -0.1456  0.0633
 5513SOL    HW221818   3.584   4.183   2.665  2.3733  0.0578 -0.2807
 5513SOL    HW321819   3.525   4.094   2.558 -0.4469  0.8122  0.5615
 5513SOL    MW421820   3.577   4.105   2.627  0.3835  0.0076  0.0837
 5514SOL     OW21821   3.516   4.835   2.352 -0.7322  0.0653 -0.0475
 5514SOL    HW221822   3.594   4.802   2.306 -0.0081  0.3040  0.9834
 5514SOL    HW321823   3.443   4.800   2.301 -0.0074  1.9175 -2.5588
 5514SOL    MW421824   3.517   4.826   2.339 -0.5410  0.3412 -0.2428
 5515SOL     OW21825   1.703   2.080   5.667  0.2467 -0.2175 -0.2095
 5515SOL    HW221826   1.709   1.988   5.691  1.0250 -0.7384 -2.2164
 5515SOL    HW321827   1.657   2.081   5.583 -1.5227  1.4147  0.7009
 5515SOL    MW421828   1.698   2.068   5.659  0.1159 -0.0709 -0.3541
 5516SOL     OW21829   2.378   5.641   5.109  0.0650 -0.2376 -0.0549
 5516SOL    HW221830   2.297   5.655   5.061 -1.1147 -1.8712  1.3316
 5516SOL    HW321831   2.398   5.726   5.148 -1.0133  0.1857 -0.3963
 5516SOL    MW421832   2.370   5.654   5.108 -0.2329 -0.3973  0.0830
 5517SOL     OW21833   6.118   3.522   3.383 -0.1633  0.1424 -0.2170
 5517SOL    HW221834   6.175   3.566   3.320  1.6306  1.4872  2.1718
 5517SOL    HW321835   6.030   3.537   3.351  0.6219  1.7247 -1.7935
 5517SOL    MW421836   6.114   3.530   3.371  0.1770  0.5286 -0.1098
 5518SOL     OW21837   3.118   2.477   3.171  0.1238  0.5701 -0.6105
 5518SOL    HW221838   3.087   2.481   3.261 -0.2663 -0.9117 -0.6509
 5518SOL    HW321839   3.043   2.443   3.121  1.5051 -2.6603 -0.7855
 5518SOL    MW421840   3.104   2.473   3.176  0.2546 -0.0516 -0.6389
 5519SOL     OW21841   5.161   5.510   2.599  0.2179  0.0238  0.3178
 5519SOL    HW221842   5.158   5.552   2.685  1.5674  0.8355 -0.0126
 5519SOL    HW321843   5.221   5.437   2.610 -1.1207 -1.0807  0.5464
 5519SOL    MW421844   5.168   5.506   2.612  0.2193 -0.0148  0.3044
 5520SOL     OW21845   2.567   1.731   1.963 -0.3281  0.3550  0.5753
 5520SOL    HW221846   2.487   1.686   1.990 -0.2933  0.3079  0.6005
 5520SOL    HW321847   2.554   1.822   1.990 -0.6028  0.4616  0.0898
 5520SOL    MW421848   2.554   1.737   1.970 -0.3597  0.3628  0.5146
 5521SOL     OW21849   4.813   5.014   1.996 -0.0477 -0.2523 -0.2024
 5521SOL    HW221850   4.800   5.087   2.057  0.8962 -0.2773  0.0498
 5521SOL    HW321851   4.892   5.037   1.948  0.3763 -1.2086  0.0258
 5521SOL    MW421852   4.822   5.027   1.998  0.1328 -0.3818 -0.1390
 5522SOL     OW21853   1.932   2.544   5.248 -0.0411 -0.7489 -0.0287
 5522SOL    HW221854   2.014   2.590   5.234 -0.2716  0.4248  2.0302
 5522SOL    HW321855   1.864   2.609   5.228 -0.4178 -1.0232  0.3321
 5522SOL    MW421856   1.934   2.559   5.244 -0.1212 -0.6302  0.2906
 5523SOL     OW21857   3.383   0.685   5.754  0.0598  0.9185  0.0296
 5523SOL    HW221858   3.370   0.653   5.843  0.8195  0.8990  0.1413
 5523SOL    HW321859   3.316   0.641   5.702  1.1837 -1.0245  0.1476
 5523SOL    MW421860   3.372   0.675   5.759  0.3083  0.6595  0.0599
 5524SOL     OW21861   3.879   5.916   1.493  0.0489 -0.5505 -0.4983
 5524SOL    HW221862   3.961   5.902   1.446  0.5529  0.1363  0.1399
 5524SOL    HW321863   3.882   5.854   1.566  0.0813 -0.4196 -0.3862
 5524SOL    MW421864   3.890   5.906   1.497  0.1197 -0.4427 -0.3993
 5525SOL     OW21865   3.271   4.916   2.652 -0.3225 -0.7599  0.4654
 5525SOL    HW221866   3.362   4.942   2.663 -0.3858 -0.3564  0.0781
 5525SOL    HW321867   3.258   4.845   2.714  0.8328 -2.2323 -0.9233
 5525SOL    MW421868   3.281   4.910   2.662 -0.1784 -0.9009  0.2311
 5526SOL     OW21869   0.982   5.478   3.854  0.5541  0.6700 -0.2170
 5526SOL    HW221870   0.937   5.395   3.870  0.1209  0.8529 -0.4551
 5526SOL    HW321871   0.998   5.514   3.942 -0.1830  0.8167 -0.1327
 5526SOL    MW421872   0.978   5.472   3.868  0.3997  0.7135 -0.2373
 5527SOL     OW21873   2.778   3.211   6.095  0.6216 -0.1146  0.0550
 5527SOL    HW221874   2.767   3.146   6.026 -2.1404  0.3458 -0.0645
 5527SOL    HW321875   2.692   3.215   6.138  1.9917  0.2118  3.0209
 5527SOL    MW421876   2.765   3.203   6.092  0.4380 -0.0108  0.4305
 5528SOL     OW21877   0.463   1.254   4.037 -0.1855  0.2072  0.0770
 5528SOL    HW221878   0.506   1.331   4.000  1.7939 -0.1820  1.4184
 5528SOL    HW321879   0.522   1.182   4.017 -1.7043 -0.9072 -0.6160
 5528SOL    MW421880   0.476   1.255   4.029 -0.1247  0.0088  0.1625
 5529SOL     OW21881   3.039   2.968   5.119 -0.4303  0.2629  0.0544
 5529SOL    HW221882   3.092   2.919   5.057 -0.2128 -0.7183  0.9935
 5529SOL    HW321883   3.088   3.049   5.135  1.0302 -0.8038  1.2259
 5529SOL    MW421884   3.052   2.972   5.113 -0.2089 -0.0073  0.3328
 5530SOL     OW21885   3.300   4.226   0.834  0.4241  0.8011  0.3626
 5530SOL    HW221886   3.222   4.245   0.781  1.1526  0.7957 -0.7346
 5530SOL    HW321887   3.374   4.240   0.774  1.1771 -3.1346  0.1320
 5530SOL    MW421888   3.299   4.231   0.819  0.6196  0.2811  0.1874
 5531SOL     OW21889   5.190   5.224   4.889  0.1966  0.0807 -0.0951
 5531SOL    HW221890   5.225   5.139   4.861  1.6871  0.5666  0.2019
 5531SOL    HW321891   5.111   5.236   4.836  1.1199 -0.5295 -1.6878
 5531SOL    MW421892   5.184   5.214   4.878  0.5151  0.0643 -0.2661
 5532SOL     OW21893   6.185   5.835   5.724  0.4179 -0.4010  0.1248
 5532SOL    HW221894   6.157   5.744   5.737 -0.9089 -0.1855 -0.9537
 5532SOL    HW321895   6.164   5.878   5.807  1.7652 -1.2013  0.9296
 5532SOL    MW421896   6.179   5.828   5.737  0.4206 -0.4781  0.0887
 5533SOL     OW21897   5.062   6.316   1.997  0.6623  0.1687 -0.5383
 5533SOL    HW221898   5.157   6.325   2.004  0.5241  1.2326  0.1615
 5533SOL    HW321899   5.045   6.224   2.015  1.7004 -0.4423 -2.4127
 5533SOL    MW421900   5.072   6.305   2.000  0.7811  0.2284 -0.6932
 5534SOL     OW21901   3.772   5.835   4.378 -0.3900  0.2787  0.4238
 5534SOL    HW221902   3.698   5.895   4.369 -0.7713 -0.2367 -0.0075
 5534SOL    HW321903   3.733   5.755   4.415  0.0190  0.1354  0.5476
 5534SOL    MW421904   3.757   5.832   4.382 -0.3863  0.1918  0.3832
 5535SOL     OW21905   2.556   3.477   4.806 -0.3828  0.1637 -0.4476
 5535SOL    HW221906   2.461   3.486   4.798 -0.5574 -0.7495  0.4468
 5535SOL    HW321907   2.580   3.532   4.881 -0.2587  0.0363 -0.3937
 5535SOL    MW421908   2.547   3.486   4.815 -0.3895  0.0264 -0.3224
 5536SOL     OW21909   0.791   2.025   4.222  0.3009  0.3333 -0.0055
 5536SOL    HW221910   0.718   2.053   4.278  0.3329 -0.2856  0.3645
 5536SOL    HW321911   0.750   1.967   4.157  0.4642 -0.0428  0.2244
 5536SOL    MW421912   0.776   2.021   4.221  0.3267  0.2021  0.0737
 5537SOL     OW21913   1.758   3.136   0.611  0.1888  0.4124  0.3601
 5537SOL    HW221914   1.722   3.062   0.659  0.3137 -0.5101 -0.9225
 5537SOL    HW321915   1.707   3.211   0.642 -0.9421 -0.4323  0.6240
 5537SOL    MW421916   1.746   3.136   0.621  0.0561  0.1793  0.2257
 5538SOL     OW21917   2.058   5.305   1.623 -0.3521  0.2034  0.6123
 5538SOL    HW221918   2.044   5.390   1.663  0.3496  0.4400  0.3657
 5538SOL    HW321919   2.096   5.324   1.537 -0.4667 -0.3455  0.4336
 5538SOL    MW421920   2.062   5.318   1.617 -0.2746  0.1622  0.5562
 5539SOL     OW21921   5.385   4.907   1.074 -0.1464  0.3443  0.4009
 5539SOL    HW221922   5.316   4.968   1.102  0.4117  0.1958  2.2112
 5539SOL    HW321923   5.442   4.959   1.018 -0.7107  0.9738  0.4018
 5539SOL    MW421924   5.383   4.922   1.071 -0.1472  0.4077  0.6398
 5540SOL     OW21925   0.961   0.715   5.315 -0.1155 -0.0011 -0.0511
 5540SOL    HW221926   0.976   0.621   5.311  0.8339  0.1622 -0.5870
 5540SOL    HW321927   1.012   0.744   5.391 -0.8006  0.0227  0.4119
 5540SOL    MW421928   0.970   0.706   5.325 -0.0806  0.0236 -0.0608
 5541SOL     OW21929   2.181   1.619   0.417 -0.3317 -0.3214 -0.3162
 5541SOL    HW221930   2.215   1.535   0.448  0.5086  0.4639  1.0087
 5541SOL    HW321931   2.257   1.676   0.413 -0.9084  0.4261 -1.0860
 5541SOL    MW421932   2.195   1.616   0.421 -0.2969 -0.1192 -0.2429
 5542SOL     OW21933   2.159   2.731   5.000  0.1382 -0.0344 -0.3041
 5542SOL    HW221934   2.171   2.684   5.082  1.6388  0.6733 -0.0841
 5542SOL    HW321935   2.179   2.667   4.932 -0.5525 -0.4630 -0.1189
 5542SOL    MW421936   2.163   2.717   5.002  0.2450  0.0024 -0.2506
 5543SOL     OW21937   0.814   0.514   3.645  0.1527 -0.0636  0.5940
 5543SOL    HW221938   0.743   0.578   3.658  1.7870  1.6447  1.6604
 5543SOL    HW321939   0.798   0.446   3.710 -0.1238  0.6978  1.3453
 5543SOL    MW421940   0.802   0.514   3.655  0.3318  0.2623  0.8338
 5544SOL     OW21941   3.807   4.954   4.745  0.2123 -0.0537 -0.1544
 5544SOL    HW221942   3.795   4.990   4.833 -0.8020  2.0302 -1.0772
 5544SOL    HW321943   3.825   4.861   4.759  2.9215  0.7105  2.3787
 5544SOL    MW421944   3.807   4.946   4.758  0.4359  0.3221  0.0581
 5545SOL     OW21945   5.603   3.375   0.356 -0.1288 -0.1707  0.3228
 5545SOL    HW221946   5.574   3.314   0.288 -1.6262 -0.5886  1.2934
 5545SOL    HW321947   5.699   3.374   0.350 -0.2131 -0.6263 -1.3865
 5545SOL    MW421948   5.612   3.367   0.346 -0.3375 -0.2859  0.2253
 5546SOL     OW21949   0.964   4.583   4.504 -0.0715  0.6417 -0.0775
 5546SOL    HW221950   0.884   4.555   4.548  0.1783  0.7183  0.4260
 5546SOL    HW321951   0.993   4.506   4.455 -0.7383  0.7727 -0.6852
 5546SOL    MW421952   0.957   4.569   4.503 -0.1265  0.6691 -0.0913
 5547SOL     OW21953   3.017   2.038   3.963 -0.6980  0.4126  0.0467
 5547SOL    HW221954   3.090   2.001   4.013 -1.4135 -0.9249  0.1327
 5547SOL    HW321955   3.030   2.133   3.969  0.1521  0.2361  1.3824
 5547SOL    MW421956   3.029   2.046   3.970 -0.6803  0.2128  0.2343
 5548SOL     OW21957   6.111   5.731   1.015  0.0020  0.5596 -0.9792
 5548SOL    HW221958   6.179   5.795   0.993 -0.1532  1.9673  2.0834
 5548SOL    HW321959   6.034   5.760   0.966 -0.1019  2.9262  0.4256
 5548SOL    MW421960   6.110   5.743   1.005 -0.0322  1.0575 -0.3898
 5549SOL     OW21961   6.296   3.390   1.329  0.7030  0.6045 -0.5614
 5549SOL    HW221962   6.221   3.348   1.370  1.3079 -0.8719 -0.9219
 5549SOL    HW321963   6.291   3.364   1.237  2.5671 -0.9705 -0.2900
 5549SOL    MW421964   6.285   3.381   1.322  1.0287  0.2019 -0.5731
 5550SOL     OW21965   5.003   3.154   5.980  0.5269 -0.6011  0.5788
 5550SOL    HW221966   4.912   3.157   6.012  0.2771  3.4641  0.0738
 5550SOL    HW321967   4.994   3.136   5.886  0.4764 -2.4629  0.9132
 5550SOL    MW421968   4.990   3.152   5.972  0.4872 -0.3104  0.5563
 5551SOL     OW21969   5.515   4.300   3.003  0.6591  0.3335  0.1486
 5551SOL    HW221970   5.487   4.374   3.055 -0.7702 -1.6241  2.3627
 5551SOL    HW321971   5.465   4.307   2.922  0.4883  1.6982  0.3524
 5551SOL    MW421972   5.505   4.310   2.999  0.4480  0.2553  0.4676
 5552SOL     OW21973   4.768   2.219   2.345  0.1820  0.5134 -0.8304
 5552SOL    HW221974   4.744   2.311   2.331 -1.6649 -0.0096 -1.3584
 5552SOL    HW321975   4.705   2.188   2.410 -1.4296 -1.2393 -3.0895
 5552SOL    MW421976   4.757   2.227   2.352 -0.2743  0.2131 -1.1982
 5553SOL     OW21977   6.158   1.109   4.116 -0.1634 -0.0337 -0.1737
 5553SOL    HW221978   6.193   1.191   4.151  0.2242 -0.1302 -0.3270
 5553SOL    HW321979   6.184   1.108   4.024  1.1018 -0.9918  0.1612
 5553SOL    MW421980   6.166   1.119   4.109  0.0547 -0.1728 -0.1498
 5554SOL     OW21981   6.123   3.194   4.138  0.2610 -0.7872 -0.0230
 5554SOL    HW221982   6.122   3.139   4.059 -0.6503 -1.4369  0.4233
 5554SOL    HW321983   6.162   3.276   4.109 -0.2086 -0.9535 -1.2018
 5554SOL    MW421984   6.128   3.197   4.124  0.0788 -0.8949 -0.1196
 5555SOL     OW21985   4.700   4.900   4.361 -0.2444 -0.3930  0.3520
 5555SOL    HW221986   4.670   4.991   4.371  1.4593  0.4560 -1.4933
 5555SOL    HW321987   4.676   4.878   4.271  1.8483 -0.7192 -0.1745
 5555SOL    MW421988   4.693   4.909   4.350  0.2565 -0.3240  0.0391
 5556SOL     OW21989   0.641   0.844   1.889  0.3589  0.2421 -0.5279
 5556SOL    HW221990   0.663   0.885   1.973 -0.2134 -0.0710 -0.2206
 5556SOL    HW321991   0.595   0.913   1.841 -0.4995  0.0087 -0.0562
 5556SOL    MW421992   0.638   0.859   1.894  0.1702  0.1700 -0.4251
 5557SOL     OW21993   1.204   1.962   6.301 -0.2828  0.5126  0.7021
 5557SOL    HW221994   1.156   1.880   6.303  0.4560  0.0107 -0.6224
 5557SOL    HW321995   1.274   1.951   6.366 -1.2755  0.8411  1.8633
 5557SOL    MW421996   1.207   1.950   6.310 -0.3163  0.4897  0.6805
 5558SOL     OW21997   4.197   0.544   1.178  0.0364  0.3016 -0.3451
 5558SOL    HW221998   4.106   0.553   1.206  0.1462  1.5397 -0.3325
 5558SOL    HW321999   4.216   0.626   1.132  1.2677  0.2394  0.0271
 5558SOL    MW422000   4.187   0.556   1.176  0.2133  0.4568 -0.2943
 5559SOL     OW22001   2.212   2.912   1.045 -0.0950  0.1286  0.2908
 5559SOL    HW222002   2.270   2.925   1.120 -0.5922 -0.8508  0.8611
 5559SOL    HW322003   2.228   2.988   0.989  1.8632 -0.1825  0.3540
 5559SOL    MW422004   2.222   2.923   1.047  0.0978 -0.0417  0.3744
 5560SOL     OW22005   4.381   4.580   4.887  0.0908 -0.2899  0.1733
 5560SOL    HW222006   4.354   4.669   4.864  1.8646  0.6780  1.5040
 5560SOL    HW322007   4.388   4.581   4.983  1.6747 -1.3569  0.1166
 5560SOL    MW422008   4.379   4.592   4.897  0.5338 -0.3030  0.3414
 5561SOL     OW22009   5.039   2.773   0.430  0.4406  0.2303  0.0822
 5561SOL    HW222010   5.050   2.856   0.477  1.1475 -0.0654  0.4455
 5561SOL    HW322011   5.089   2.785   0.349 -0.6571  0.6858 -0.5498
 5561SOL    MW422012   5.047   2.785   0.425  0.3890  0.2514  0.0467
 5562SOL     OW22013   3.537   3.716   2.561  0.6457  0.2895  0.6291
 5562SOL    HW222014   3.523   3.730   2.655 -0.9080 -0.7097  0.5916
 5562SOL    HW322015   3.491   3.789   2.519 -1.3474 -0.8847  0.6174
 5562SOL    MW422016   3.529   3.728   2.568  0.1777  0.0027  0.6226
 5563SOL     OW22017   2.543   3.446   5.487  0.1667  0.3936  0.2924
 5563SOL    HW222018   2.528   3.356   5.458 -1.2449  0.6361  0.2206
 5563SOL    HW322019   2.614   3.477   5.431 -0.2959 -0.2199 -0.6741
 5563SOL    MW422020   2.550   3.438   5.476 -0.0806  0.3447  0.1554
 5564SOL     OW22021   5.250   5.217   3.405 -0.4340  0.1419 -0.2268
 5564SOL    HW222022   5.196   5.207   3.483  0.4786 -0.8758  0.3135
 5564SOL    HW322023   5.319   5.278   3.431 -0.7056  0.5955 -0.5650
 5564SOL    MW422024   5.252   5.223   3.418 -0.3494  0.0675 -0.2001
 5565SOL     OW22025   3.623   4.818   3.532  0.3314 -0.1624  0.1447
 5565SOL    HW222026   3.620   4.772   3.616 -1.5755 -0.7526 -0.2031
 5565SOL    HW322027   3.556   4.886   3.539 -0.5205 -0.8295 -1.2227
 5565SOL    MW422028   3.614   4.821   3.544 -0.0326 -0.3283 -0.0816
 5566SOL     OW22029   5.251   2.102   2.074  0.2720 -0.0487  0.3323
 5566SOL    HW222030   5.322   2.050   2.112  0.8866 -0.3497 -1.1585
 5566SOL    HW322031   5.172   2.064   2.111  0.7848 -1.1647  0.3362
 5566SOL    MW422032   5.250   2.090   2.084  0.4207 -0.2357  0.1361
 5567SOL     OW22033   5.185   0.096   5.764  0.1276 -0.1140  0.1438
 5567SOL    HW222034   5.280   0.110   5.767  0.1214  0.3676 -1.2490
 5567SOL    HW322035   5.170   0.052   5.680 -1.0501  1.3737 -0.4728
 5567SOL    MW422036   5.196   0.092   5.753 -0.0286  0.1458 -0.1213
 5568SOL     OW22037   5.296   5.660   3.197  0.5451  0.7488  0.0487
 5568SOL    HW222038   5.337   5.680   3.281  0.2363  0.0899  0.3680
 5568SOL    HW322039   5.236   5.733   3.182 -0.9331 -0.0975  1.4287
 5568SOL    MW422040   5.294   5.672   3.206  0.3094  0.5502  0.2729
 5569SOL     OW22041   2.654   4.040   6.078 -0.4588  0.2554  0.1959
 5569SOL    HW222042   2.572   4.042   6.128 -0.0256  1.2998  0.8842
 5569SOL    HW322043   2.723   4.037   6.144  0.0800 -1.4601 -0.3838
 5569SOL    MW422044   2.652   4.040   6.093 -0.3305  0.1669  0.2102
 5570SOL     OW22045   5.453   2.813   2.201  0.2225 -0.1377 -0.7035
 5570SOL    HW222046   5.473   2.907   2.195  0.6077 -0.2038 -0.4634
 5570SOL    HW322047   5.479   2.789   2.289 -1.9490  0.0126  0.0333
 5570SOL    MW422048   5.459   2.822   2.211 -0.0132 -0.1266 -0.5746
 5571SOL     OW22049   4.287   2.507   0.802  0.6443  0.6821 -0.1878
 5571SOL    HW222050   4.355   2.568   0.830  1.8665  0.1825 -1.9510
 5571SOL    HW322051   4.333   2.438   0.755 -1.0762  0.4512 -1.6783
 5571SOL    MW422052   4.302   2.506   0.800  0.5786  0.5857 -0.6171
 5572SOL     OW22053   0.582   2.653   4.696 -0.0713 -0.0675 -0.2394
 5572SOL    HW222054   0.660   2.706   4.681  0.9797 -1.8128 -1.2449
 5572SOL    HW322055   0.541   2.693   4.773  0.5722  2.2372 -0.9971
 5572SOL    MW422056   0.587   2.665   4.704  0.1523  0.0063 -0.4720
 5573SOL     OW22057   5.092   5.712   5.148 -0.0257 -0.3862  0.6326
 5573SOL    HW222058   5.065   5.803   5.140  0.3591 -0.3842 -0.9432
 5573SOL    HW322059   5.174   5.716   5.198 -0.4319  0.0409  1.2771
 5573SOL    MW422060   5.099   5.724   5.153 -0.0285 -0.3296  0.5098
 5574SOL     OW22061   0.127   2.801   0.358 -0.4098 -0.0172  0.2265
 5574SOL    HW222062   0.134   2.824   0.451 -0.3607 -0.0264  0.2249
 5574SOL    HW322063   0.215   2.774   0.333 -0.4204 -0.0030  0.1737
 5574SOL    MW422064   0.140   2.800   0.367 -0.4047 -0.0165  0.2193
 5575SOL     OW22065   1.614   2.593   1.923  0.0405 -0.7026 -0.1427
 5575SOL    HW222066   1.652   2.554   2.001 -0.8960  2.1786  1.9529
 5575SOL    HW322067   1.682   2.653   1.891  0.1677 -1.3795 -1.1827
 5575SOL    MW422068   1.628   2.596   1.929 -0.0663 -0.4118 -0.0034
 5576SOL     OW22069   1.223   3.554   6.383 -0.3516 -0.4721  0.4285
 5576SOL    HW222070   1.224   3.585   6.292 -0.7484 -1.0682  0.2139
 5576SOL    HW322071   1.269   3.470   6.380  0.3469 -0.1120  0.9290
 5576SOL    MW422072   1.229   3.547   6.370 -0.3118 -0.5032  0.4662
 5577SOL     OW22073   1.751   1.102   5.069 -0.7374 -0.6371 -0.6628
 5577SOL    HW222074   1.675   1.078   5.017 -2.0791  0.5470  0.6364
 5577SOL    HW322075   1.729   1.074   5.158 -0.5668  1.4760  0.1115
 5577SOL    MW422076   1.738   1.095   5.074 -0.8919 -0.2021 -0.3892
 5578SOL     OW22077   0.621   0.320   4.720  0.2976 -0.2000  0.0363
 5578SOL    HW222078   0.692   0.379   4.694  1.8521 -1.8445  0.3413
 5578SOL    HW322079   0.542   0.360   4.684  0.8807  3.2665  2.1335
 5578SOL    MW422080   0.620   0.333   4.712  0.5796  0.0404  0.3532
 5579SOL     OW22081   0.666   1.565   2.167 -0.3480  0.0659 -0.0629
 5579SOL    HW222082   0.610   1.611   2.104 -2.1106 -1.1792  0.5245
 5579SOL    HW322083   0.644   1.604   2.251  1.8430  1.5722 -0.1316
 5579SOL    MW422084   0.656   1.576   2.169 -0.2915  0.1003  0.0056
 5580SOL     OW22085   3.446   5.320   4.183 -0.3124 -0.4592  0.3954
 5580SOL    HW222086   3.497   5.258   4.131  3.4724  3.9176 -1.8656
 5580SOL    HW322087   3.466   5.298   4.274  1.0792 -2.3336 -0.3109
 5580SOL    MW422088   3.455   5.309   4.188  0.3705 -0.1291  0.0039
 5581SOL     OW22089   1.748   3.501   4.309 -0.0294  0.0466 -0.7866
 5581SOL    HW222090   1.743   3.586   4.265 -2.0070  1.0418  1.1473
 5581SOL    HW322091   1.658   3.483   4.337  0.6175 -1.9480  0.2081
 5581SOL    MW422092   1.736   3.510   4.307 -0.2050 -0.0852 -0.4002
 5582SOL     OW22093   0.298   6.062   5.840 -0.4536 -0.6107 -0.1693
 5582SOL    HW222094   0.224   6.055   5.900 -0.1149 -0.5574  0.2658
 5582SOL    HW322095   0.272   6.127   5.775 -0.7241 -0.4834  0.0681
 5582SOL    MW422096   0.285   6.069   5.839 -0.4446 -0.5869 -0.0805
 5583SOL     OW22097   3.065   5.646   5.067  0.6270 -1.1531  0.0166
 5583SOL    HW222098   3.020   5.696   5.135  0.6165 -1.2042  0.0466
 5583SOL    HW322099   2.999   5.583   5.036  0.5042 -0.8705 -0.3101
 5583SOL    MW422100   3.050   5.644   5.072  0.6094 -1.1226 -0.0226
 5584SOL     OW22101   4.531   2.961   6.237  0.0873  0.3531  0.1507
 5584SOL    HW222102   4.566   2.930   6.320  0.6448 -2.1318 -0.9182
 5584SOL    HW322103   4.607   2.964   6.179 -0.8536 -2.3851 -1.4347
 5584SOL    MW422104   4.546   2.957   6.240  0.0367 -0.3361 -0.1995
 5585SOL     OW22105   2.739   4.212   1.019  0.6205  0.3261 -0.3843
 5585SOL    HW222106   2.745   4.197   1.113  0.0521 -1.3902 -0.5848
 5585SOL    HW322107   2.655   4.255   1.007 -0.1958 -1.1670 -0.2522
 5585SOL    MW422108   2.729   4.216   1.029  0.4378 -0.0973 -0.3933
 5586SOL     OW22109   6.232   3.435   4.757 -0.1587 -0.1551  0.2107
 5586SOL    HW222110   6.285   3.384   4.695 -0.6494  0.5339 -0.8115
 5586SOL    HW322111   6.146   3.441   4.716 -0.2235  1.1526  0.4821
 5586SOL    MW422112   6.228   3.429   4.743 -0.2320  0.1084  0.1116
 5587SOL     OW22113   2.871   2.142   2.551  0.2778  0.0079  0.3664
 5587SOL    HW222114   2.834   2.187   2.627 -0.3384 -1.7502  1.1652
 5587SOL    HW322115   2.953   2.103   2.584  0.7778  0.4871 -0.2932
 5587SOL    MW422116   2.877   2.142   2.566  0.2625 -0.1608  0.3847
 5588SOL     OW22117   5.374   1.748   1.997  0.5900  0.1547 -0.1837
 5588SOL    HW222118   5.308   1.679   1.990  1.7409 -0.8696 -1.2987
 5588SOL    HW322119   5.340   1.819   1.944 -0.1959  0.1310  0.2721
 5588SOL    MW422120   5.361   1.748   1.989  0.6382  0.0164 -0.2706
 5589SOL     OW22121   2.276   2.421   0.821  0.4652  0.1144  0.0711
 5589SOL    HW222122   2.280   2.511   0.853 -0.8170  0.3562 -0.3764
 5589SOL    HW322123   2.188   2.413   0.784 -0.3059 -1.9970  2.0978
 5589SOL    MW422124   2.265   2.432   0.820  0.1943 -0.1323  0.2795
 5590SOL     OW22125   3.218   1.628   2.082 -0.0058 -0.6810  0.0262
 5590SOL    HW222126   3.204   1.624   2.176 -1.2744 -0.2258 -0.1282
 5590SOL    HW322127   3.313   1.625   2.071  0.1278 -2.6200  1.2222
 5590SOL    MW422128   3.229   1.627   2.093 -0.1556 -0.8768  0.1636
 5591SOL     OW22129   4.036   5.900   2.936  0.1344  0.8875  0.1247
 5591SOL    HW222130   3.966   5.949   2.979 -0.1240 -0.1943  0.9792
 5591SOL    HW322131   4.113   5.957   2.942 -0.2634  1.3673  0.7092
 5591SOL    MW422132   4.037   5.914   2.943  0.0478  0.8081  0.3145
 5592SOL     OW22133   0.085   2.444   4.925  0.0094  0.4469 -0.1583
 5592SOL    HW222134   0.068   2.369   4.868  0.5005  0.0567  0.1942
 5592SOL    HW322135   0.047   2.418   5.009  0.3321  0.5236  0.0099
 5592SOL    MW422136   0.078   2.431   4.929  0.1168  0.4055 -0.0896
 5593SOL     OW22137   2.712   5.671   6.014 -0.0615 -0.0000  0.2319
 5593SOL    HW222138   2.642   5.735   6.006  0.0046  0.1429  0.7260
 5593SOL    HW322139   2.785   5.707   5.965 -0.8033 -0.8630 -1.6069
 5593SOL    MW422140   2.712   5.684   6.007 -0.1507 -0.0950  0.0544
 5594SOL     OW22141   0.553   5.618   4.490 -0.1989  0.0040 -0.3683
 5594SOL    HW222142   0.559   5.631   4.585 -0.6722 -0.0184 -0.3306
 5594SOL    HW322143   0.545   5.707   4.455 -3.5243 -0.0380 -0.1025
 5594SOL    MW422144   0.553   5.632   4.498 -0.7001 -0.0045 -0.3283
 5595SOL     OW22145   4.753   4.269   6.035  0.4183 -0.2242  0.2919
 5595SOL    HW222146   4.724   4.358   6.056 -0.4424 -0.5724  0.6158
 5595SOL    HW322147   4.835   4.282   5.987  0.7241  0.7130  1.0136
 5595SOL    MW422148   4.760   4.283   6.032  0.3451 -0.1465  0.4299
 5596SOL     OW22149   1.423   4.994   3.578  0.0299  0.4110  0.4311
 5596SOL    HW222150   1.362   5.064   3.602 -0.9026 -0.9561  2.3203
 5596SOL    HW322151   1.421   4.992   3.482 -1.1045  1.9393  0.3870
 5596SOL    MW422152   1.415   5.003   3.568 -0.2428  0.4323  0.6745
 5597SOL     OW22153   3.969   1.412   2.940 -0.0513  0.1312  0.1381
 5597SOL    HW222154   3.921   1.340   2.900  1.2825 -1.9380  2.0227
 5597SOL    HW322155   3.988   1.472   2.868 -1.6502 -1.1224 -1.3991
 5597SOL    MW422156   3.965   1.410   2.925 -0.0862 -0.3072  0.1839
 5598SOL     OW22157   1.314   2.313   3.919 -0.3502 -0.0346 -0.2679
 5598SOL    HW222158   1.394   2.344   3.877 -0.2029  0.2914  0.2430
 5598SOL    HW322159   1.333   2.223   3.944  0.5203  0.5904  1.4655
 5598SOL    MW422160   1.327   2.305   3.917 -0.2159  0.0909  0.0282
 5599SOL     OW22161   2.778   2.324   3.817 -0.7127  0.5638 -0.6108
 5599SOL    HW222162   2.778   2.245   3.872 -0.1783  1.2634  0.4274
 5599SOL    HW322163   2.867   2.328   3.782  0.0752  2.0400  1.3782
 5599SOL    MW422164   2.790   2.314   3.820 -0.5382  0.8509 -0.2114
 5600SOL     OW22165   0.399   4.898   0.857 -0.0378  0.6309 -0.1260
 5600SOL    HW222166   0.443   4.949   0.789 -0.1928  1.2164  0.2013
 5600SOL    HW322167   0.465   4.834   0.886  0.8520  1.9140  0.8054
 5600SOL    MW422168   0.414   4.896   0.852  0.0591  0.8774  0.0401
 5601SOL     OW22169   5.074   0.294   1.884  0.5270 -0.2234 -0.1736
 5601SOL    HW222170   5.002   0.356   1.872  1.7795  1.4976  0.6791
 5601SOL    HW322171   5.108   0.280   1.796 -1.4426 -1.8762 -0.7212
 5601SOL    MW422172   5.069   0.300   1.871  0.4324 -0.2144 -0.1333
 5602SOL     OW22173   5.897   4.467   3.759 -0.0525  0.4263  0.5812
 5602SOL    HW222174   5.909   4.394   3.820 -0.6539 -0.9688 -0.9220
 5602SOL    HW322175   5.847   4.532   3.809 -3.9201 -2.2140  0.5047
 5602SOL    MW422176   5.892   4.466   3.774 -0.6422 -0.1061  0.3728
 5603SOL     OW22177   3.967   4.671   5.089  0.0702  0.5704  0.0468
 5603SOL    HW222178   3.943   4.582   5.061  0.7134  0.6136 -0.6981
 5603SOL    HW322179   3.902   4.694   5.155 -0.6045 -0.1356 -0.3535
 5603SOL    MW422180   3.956   4.662   5.094  0.0660  0.4829 -0.1043
 5604SOL     OW22181   2.731   5.816   5.547  0.1913 -0.0812 -0.1454
 5604SOL    HW222182   2.699   5.727   5.534  0.2360 -0.0743 -0.3091
 5604SOL    HW322183   2.701   5.840   5.635 -0.8377  0.1671 -0.5451
 5604SOL    MW422184   2.723   5.807   5.557  0.0614 -0.0475 -0.2197
 5605SOL     OW22185   5.001   4.652   1.343  0.3933  0.1521  0.8107
 5605SOL    HW222186   5.057   4.642   1.266  0.8860 -0.4106  1.2383
 5605SOL    HW322187   5.000   4.565   1.384 -0.0835  0.3777  1.2915
 5605SOL    MW422188   5.008   4.639   1.338  0.3954  0.1076  0.9306
 5606SOL     OW22189   0.245   2.382   5.658  0.2351 -0.1573 -0.6971
 5606SOL    HW222190   0.316   2.387   5.722 -0.4379  1.6304 -0.0519
 5606SOL    HW322191   0.165   2.377   5.710 -0.1966 -1.4145 -1.4189
 5606SOL    MW422192   0.244   2.382   5.673  0.0893 -0.0873 -0.7072
 5607SOL     OW22193   3.668   6.062   3.110 -0.2015  0.0962  0.3847
 5607SOL    HW222194   3.621   6.094   3.033  0.8783 -1.8851 -1.1943
 5607SOL    HW322195   3.637   5.972   3.122  1.8726 -0.6902  0.3148
 5607SOL    MW422196   3.658   6.054   3.101  0.2146 -0.2690  0.1672
 5608SOL     OW22197   4.523   3.241   1.451  0.8685 -0.3081 -0.3061
 5608SOL    HW222198   4.455   3.214   1.390  1.8723  0.7346 -1.9369
 5608SOL    HW322199   4.478   3.298   1.513  0.0329 -0.5853 -0.6428
 5608SOL    MW422200   4.508   3.245   1.451  0.8907 -0.2071 -0.5657
 5609SOL     OW22201   6.161   3.979   2.896 -0.9142 -0.1753 -0.0341
 5609SOL    HW222202   6.090   3.926   2.931 -1.4582  0.1385 -0.6303
 5609SOL    HW322203   6.240   3.930   2.916 -1.2210 -0.1725  1.3181
 5609SOL    MW422204   6.162   3.966   2.903 -1.0265 -0.1335  0.0657
 5610SOL     OW22205   2.524   3.302   6.181  0.0502 -0.0048 -0.0886
 5610SOL    HW222206   2.495   3.389   6.210  1.2909  0.0966  0.9700
 5610SOL    HW322207   2.521   3.306   6.086 -2.1768  0.3737 -0.0579
 5610SOL    MW422208   2.520   3.314   6.172 -0.0799  0.0585  0.0551
 5611SOL     OW22209   5.864   3.365   2.512  0.1999 -0.4278  0.0203
 5611SOL    HW222210   5.811   3.445   2.512  1.1402  0.2565  2.1633
 5611SOL    HW322211   5.806   3.299   2.474 -1.5599  0.6814  0.6297
 5611SOL    MW422212   5.849   3.367   2.507  0.0918 -0.1912  0.3834
 5612SOL     OW22213   3.505   1.262   2.845  0.4209 -0.2821 -0.6012
 5612SOL    HW222214   3.469   1.205   2.777 -0.3634  0.1136 -0.5287
 5612SOL    HW322215   3.523   1.204   2.919  0.5634 -0.5886 -0.8739
 5612SOL    MW422216   3.503   1.247   2.846  0.3362 -0.2703 -0.6276
 5613SOL     OW22217   2.530   6.181   1.764 -0.2174 -0.1220  0.1334
 5613SOL    HW222218   2.594   6.251   1.776 -1.1208  0.5826  0.9458
 5613SOL    HW322219   2.542   6.153   1.673  1.5470 -0.3160  0.4035
 5613SOL    MW422220   2.540   6.186   1.753 -0.1038 -0.0546  0.2763
 5614SOL     OW22221   2.936   0.879   3.032  0.0463  0.8966 -0.5242
 5614SOL    HW222222   2.849   0.897   2.995 -0.0726  1.2009 -0.1021
 5614SOL    HW322223   2.984   0.961   3.021  0.2534  0.7549 -0.6792
 5614SOL    MW422224   2.930   0.892   3.026  0.0579  0.9181 -0.4889
 5615SOL     OW22225   5.316   6.323   1.636 -0.0156 -0.3713  0.2963
 5615SOL    HW222226   5.318   6.406   1.589  0.6952  0.2630  1.4026
 5615SOL    HW322227   5.227   6.290   1.623 -0.0269  0.0929 -0.9214
 5615SOL    MW422228   5.305   6.330   1.628  0.0767 -0.2263  0.2816
 5616SOL     OW22229   2.927   2.545   1.812 -0.1560 -0.4450  0.0518
 5616SOL    HW222230   2.868   2.472   1.833 -0.2286 -0.5333 -0.4448
 5616SOL    HW322231   2.924   2.601   1.889 -0.1398 -0.9433  0.4238
 5616SOL    MW422232   2.919   2.543   1.825 -0.1634 -0.5224  0.0354
 5617SOL     OW22233   3.126   3.298   4.913 -0.1495 -0.7662  0.1639
 5617SOL    HW222234   3.046   3.246   4.909  0.0346 -0.9933 -1.5405
 5617SOL    HW322235   3.099   3.386   4.885 -0.0500 -0.4650  0.9705
 5617SOL    MW422236   3.112   3.303   4.909 -0.1121 -0.7565  0.0454
 5618SOL     OW22237   3.124   1.373   3.234 -0.0095 -0.1681  0.0708
 5618SOL    HW222238   3.040   1.351   3.195 -0.4578 -0.6565  1.2612
 5618SOL    HW322239   3.175   1.410   3.162 -1.5204  0.9213 -0.4886
 5618SOL    MW422240   3.120   1.375   3.220 -0.2680 -0.0888  0.1541
 5619SOL     OW22241   5.012   1.789   5.955 -0.3759  0.4291  0.6516
 5619SOL    HW222242   4.937   1.809   6.010  0.0882 -0.3792  1.5991
 5619SOL    HW322243   5.088   1.799   6.012  0.1325 -0.1909  0.1103
 5619SOL    MW422244   5.012   1.793   5.970 -0.2476  0.2407  0.7052
 5620SOL     OW22245   5.253   0.670   4.910  0.6294 -0.2341  0.0303
 5620SOL    HW222246   5.304   0.602   4.954 -0.3789 -1.0903 -0.0894
 5620SOL    HW322247   5.257   0.745   4.970  3.5498  0.4298 -0.7952
 5620SOL    MW422248   5.261   0.671   4.924  0.8817 -0.2595 -0.0944
 5621SOL     OW22249   0.931   2.922   3.676 -0.1965  0.1041 -0.1606
 5621SOL    HW222250   0.886   2.868   3.740  0.2324  0.7579  0.7117
 5621SOL    HW322251   0.866   2.989   3.651  0.1697  0.8582  0.8620
 5621SOL    MW422252   0.916   2.924   3.681 -0.0916  0.2899  0.0894
 5622SOL     OW22253   1.934   3.127   1.991 -0.3990 -0.1857  0.3709
 5622SOL    HW222254   1.844   3.110   2.019 -0.7061  0.6192 -0.0843
 5622SOL    HW322255   1.927   3.148   1.898 -0.0972  2.2633  0.8252
 5622SOL    MW422256   1.921   3.128   1.983 -0.3997  0.2436  0.3708
 5623SOL     OW22257   0.244   0.867   5.163  0.5143 -0.4513 -0.5559
 5623SOL    HW222258   0.287   0.935   5.214  0.7011 -1.1326  0.2125
 5623SOL    HW322259   0.153   0.896   5.157  0.5164 -0.3005  0.0656
 5623SOL    MW422260   0.238   0.880   5.169  0.5392 -0.5213 -0.3725
 5624SOL     OW22261   4.993   1.015   1.464 -0.0750  0.5148 -0.2240
 5624SOL    HW222262   5.030   0.970   1.540  0.3806 -0.1207 -0.8105
 5624SOL    HW322263   4.964   0.945   1.406 -1.8865  0.9987  0.0515
 5624SOL    MW422264   4.994   1.000   1.466 -0.2539  0.4948 -0.2650
 5625SOL     OW22265   4.077   2.970   1.525  0.7130 -0.0891 -0.0321
 5625SOL    HW222266   3.994   2.928   1.505  0.4530  0.0303  0.7488
 5625SOL    HW322267   4.137   2.898   1.545  0.4787 -0.1299  0.5391
 5625SOL    MW422268   4.074   2.955   1.525  0.6478 -0.0788  0.1463
 5626SOL     OW22269   4.191   4.217   4.037  0.4082  0.2743  0.3495
 5626SOL    HW222270   4.205   4.189   4.127  0.8149 -0.9842 -0.0730
 5626SOL    HW322271   4.272   4.261   4.013  3.1766 -4.8707 -1.3076
 5626SOL    MW422272   4.204   4.219   4.046  0.8271 -0.5705  0.0751
 5627SOL     OW22273   5.912   3.625   3.197  0.2314  0.1426  0.3903
 5627SOL    HW222274   5.872   3.541   3.174 -0.1496  0.2684  0.5871
 5627SOL    HW322275   5.947   3.658   3.114 -0.4833  0.2472  0.1301
 5627SOL    MW422276   5.912   3.618   3.183  0.0869  0.1730  0.3820
 5628SOL     OW22277   4.375   4.402   6.402  0.3697  0.1247  0.5929
 5628SOL    HW222278   4.377   4.320   6.451 -0.9151  0.1414  0.7043
 5628SOL    HW322279   4.437   4.459   6.446  1.5123 -0.8837  0.3286
 5628SOL    MW422280   4.383   4.399   6.414  0.3509 -0.0061  0.5727
 5629SOL     OW22281   4.203   0.365   1.730  0.2646 -0.2844 -0.2383
 5629SOL    HW222282   4.230   0.277   1.759 -0.3683 -0.1986  0.6372
 5629SOL    HW322283   4.271   0.423   1.763 -0.9615 -0.0514  2.0799
 5629SOL    MW422284   4.215   0.361   1.738  0.0193 -0.2424  0.1830
 5630SOL     OW22285   2.923   1.595   3.975  0.0849 -0.0050 -0.1030
 5630SOL    HW222286   2.885   1.552   3.899  1.4062  0.3480 -1.0117
 5630SOL    HW322287   2.985   1.658   3.938  1.9075 -0.9018  1.2778
 5630SOL    MW422288   2.926   1.598   3.960  0.4997 -0.0767 -0.0407
 5631SOL     OW22289   5.778   2.722   6.271 -0.5890  0.0431  0.1588
 5631SOL    HW222290   5.807   2.651   6.329  1.1109 -1.3809 -2.2593
 5631SOL    HW322291   5.692   2.692   6.239 -0.4025 -0.3663  0.0347
 5631SOL    MW422292   5.770   2.708   6.275 -0.3401 -0.1988 -0.1766
 5632SOL     OW22293   1.071   2.287   4.574 -0.1353 -0.6796 -0.1792
 5632SOL    HW222294   1.047   2.195   4.570  0.7590 -1.0117  1.2696
 5632SOL    HW322295   1.008   2.331   4.517 -0.6325 -2.1632 -0.8221
 5632SOL    MW422296   1.060   2.281   4.566 -0.0829 -0.9192 -0.0729
 5633SOL     OW22297   0.264   1.375   6.057 -0.5055 -0.0120  0.3903
 5633SOL    HW222298   0.318   1.447   6.089 -0.3991  0.5350 -0.9275
 5633SOL    HW322299   0.174   1.406   6.065 -0.3969  1.1002 -1.9249
 5633SOL    MW422300   0.259   1.388   6.062 -0.4771  0.2069 -0.0890
 5634SOL     OW22301   1.546   1.454   2.303 -0.4790 -0.1727 -0.3645
 5634SOL    HW222302   1.553   1.458   2.208  0.8503 -2.3523 -0.4158
 5634SOL    HW322303   1.591   1.373   2.327  1.6627  1.6233  2.3468
 5634SOL    MW422304   1.553   1.444   2.294 -0.0211 -0.2233 -0.0136
 5635SOL     OW22305   4.888   3.784   4.947 -0.3332 -0.3852 -0.0059
 5635SOL    HW222306   4.839   3.709   4.978 -0.5078 -0.4032 -0.3196
 5635SOL    HW322307   4.822   3.849   4.923 -0.2818 -0.9312 -1.7759
 5635SOL    MW422308   4.873   3.783   4.948 -0.3495 -0.4596 -0.2808
 5636SOL     OW22309   1.786   5.546   1.438  0.2666 -0.0175 -0.2398
 5636SOL    HW222310   1.849   5.480   1.466  1.2069  1.3138  0.8966
 5636SOL    HW322311   1.705   5.496   1.425  0.5631 -1.2355  1.9162
 5636SOL    MW422312   1.783   5.530   1.440  0.4298 -0.0026  0.1946
 5637SOL     OW22313   4.213   4.782   6.196 -0.3828  0.0727  0.4180
 5637SOL    HW222314   4.155   4.706   6.190  0.4640 -0.4958 -1.2278
 5637SOL    HW322315   4.290   4.750   6.244  0.6471 -0.6200 -1.5823
 5637SOL    MW422316   4.216   4.768   6.201 -0.1352 -0.0937 -0.0631
 5638SOL     OW22317   3.349   5.013   2.088 -1.0424 -0.2652 -0.7947
 5638SOL    HW222318   3.308   5.047   2.008 -0.0046 -1.0818 -1.6970
 5638SOL    HW322319   3.441   5.001   2.064 -0.5299  0.2967  0.7968
 5638SOL    MW422320   3.356   5.016   2.074 -0.8378 -0.2988 -0.7038
 5639SOL     OW22321   6.031   6.141   2.676  0.0123 -0.4007 -0.3476
 5639SOL    HW222322   6.099   6.205   2.694  0.2765 -0.4065 -1.2750
 5639SOL    HW322323   6.065   6.059   2.713  0.7592 -0.5200 -1.2482
 5639SOL    MW422324   6.045   6.139   2.683  0.1457 -0.4172 -0.5888
 5640SOL     OW22325   2.548   5.702   2.413 -0.1667 -0.2997  0.2288
 5640SOL    HW222326   2.635   5.672   2.437 -1.0262 -2.6599  0.7178
 5640SOL    HW322327   2.502   5.712   2.496 -0.8369 -0.6742 -0.0879
 5640SOL    MW422328   2.553   5.699   2.427 -0.3685 -0.6605  0.2515
 5641SOL     OW22329   2.589   5.003   1.891  0.0898 -0.5092  0.5480
 5641SOL    HW222330   2.554   5.045   1.969  0.8245  1.1644  0.0272
 5641SOL    HW322331   2.681   5.028   1.889  0.2671 -1.1518 -0.4550
 5641SOL    MW422332   2.596   5.012   1.901  0.2101 -0.3732  0.3470
 5642SOL     OW22333   5.886   2.521   6.412  0.3250  0.0086  0.5252
 5642SOL    HW222334   5.894   2.476   6.328  0.8346 -0.8530  1.0141
 5642SOL    HW322335   5.971   2.508   6.454 -0.1085 -0.0719  1.4108
 5642SOL    MW422336   5.898   2.513   6.407  0.3350 -0.1157  0.7065
 5643SOL     OW22337   3.149   5.607   3.445 -0.9182 -0.2916 -0.1722
 5643SOL    HW222338   3.180   5.657   3.521 -1.8188  1.4929 -0.9078
 5643SOL    HW322339   3.092   5.540   3.482 -0.5330 -0.1065  0.7833
 5643SOL    MW422340   3.146   5.605   3.460 -0.9862 -0.0318 -0.1432
 5644SOL     OW22341   4.354   3.612   0.435  0.3468  0.1418  0.4244
 5644SOL    HW222342   4.266   3.646   0.451  0.3139 -0.1823  0.9692
 5644SOL    HW322343   4.404   3.639   0.511  0.0100 -2.0692  1.5250
 5644SOL    MW422344   4.349   3.620   0.447  0.2981 -0.1927  0.6415
 5645SOL     OW22345   3.788   1.566   4.897 -0.1254 -0.0481 -0.0125
 5645SOL    HW222346   3.745   1.507   4.959  2.6258 -1.3616  0.7835
 5645SOL    HW322347   3.857   1.513   4.857  1.2982  2.1288 -0.6150
 5645SOL    MW422348   3.792   1.551   4.900  0.4254  0.0658  0.0131
 5646SOL     OW22349   2.551   5.630   4.866  0.2390 -0.6895  0.3133
 5646SOL    HW222350   2.602   5.632   4.947 -0.3969 -1.0519  0.7315
 5646SOL    HW322351   2.464   5.599   4.893  0.4619 -2.3322 -0.7465
 5646SOL    MW422352   2.546   5.627   4.881  0.1845 -0.9540  0.2287
 5647SOL     OW22353   2.302   4.340   6.198  0.0015 -0.0239 -0.0464
 5647SOL    HW222354   2.368   4.272   6.185 -0.0716 -0.0433 -0.3107
 5647SOL    HW322355   2.310   4.363   6.291 -0.8602 -1.2986  0.3657
 5647SOL    MW422356   2.312   4.334   6.209 -0.1219 -0.1946 -0.0269
 5648SOL     OW22357   2.434   5.150   2.517 -0.1047  0.0904 -0.6123
 5648SOL    HW222358   2.516   5.105   2.495  0.5915  0.7071  0.6066
 5648SOL    HW322359   2.366   5.084   2.504  0.7703 -0.9484 -0.0780
 5648SOL    MW422360   2.436   5.135   2.513  0.1026  0.0347 -0.3810
 5649SOL     OW22361   4.835   5.185   5.434  0.1719 -0.1874  0.8693
 5649SOL    HW222362   4.791   5.215   5.513 -0.3221 -0.7883  0.8361
 5649SOL    HW322363   4.771   5.127   5.392  0.9042 -0.8887  0.6912
 5649SOL    MW422364   4.821   5.181   5.439  0.2034 -0.3592  0.8414
 5650SOL     OW22365   1.837   4.003   5.257 -0.4617  0.8587 -0.0508
 5650SOL    HW222366   1.763   3.953   5.223  0.2826 -0.7367  0.5936
 5650SOL    HW322367   1.797   4.076   5.304 -1.6252  0.1268  0.1347
 5650SOL    MW422368   1.822   4.006   5.259 -0.5170  0.5516  0.0587
 5651SOL     OW22369   4.182   3.841   4.491 -0.1844  0.3761  0.0427
 5651SOL    HW222370   4.172   3.875   4.402 -0.5566 -1.8151 -0.8133
 5651SOL    HW322371   4.249   3.774   4.484 -2.2389 -1.9094  0.7052
 5651SOL    MW422372   4.189   3.837   4.478 -0.5046 -0.2145  0.0172
 5652SOL     OW22373   2.429   5.225   0.660  0.0078 -0.2450 -0.3959
 5652SOL    HW222374   2.348   5.206   0.613 -0.1868 -0.5508  0.0554
 5652SOL    HW322375   2.421   5.177   0.743  0.5501 -0.0963 -0.2503
 5652SOL    MW422376   2.417   5.216   0.665  0.0537 -0.2657 -0.3172
 5653SOL     OW22377   1.152   4.112   5.063 -0.0940 -0.1508  0.2019
 5653SOL    HW222378   1.093   4.061   5.119  0.2943 -0.3252  0.4569
 5653SOL    HW322379   1.196   4.173   5.123  0.4293 -0.4363  0.1213
 5653SOL    MW422380   1.150   4.113   5.078  0.0263 -0.2114  0.2249
 5654SOL     OW22381   0.069   1.696   3.753  0.4164  0.2149  0.2822
 5654SOL    HW222382   0.068   1.697   3.657 -0.9455 -0.1610  0.2668
 5654SOL    HW322383  -0.023   1.704   3.778  0.0859 -4.2282  1.4600
 5654SOL    MW422384   0.056   1.697   3.744  0.1931 -0.4209  0.4356
 5655SOL     OW22385   0.592   0.460   5.650  0.3938  0.1877  0.1958
 5655SOL    HW222386   0.554   0.374   5.670 -1.8644  0.9523 -0.4675
 5655SOL    HW322387   0.682   0.455   5.683  0.2295 -2.3017  0.4638
 5655SOL    MW422388   0.599   0.448   5.657  0.0742 -0.0399  0.1437
 5656SOL     OW22389   0.114   4.185   0.727 -0.1332  0.0614 -0.3067
 5656SOL    HW222390   0.134   4.228   0.810 -1.1934 -2.0438  1.1504
 5656SOL    HW322391   0.147   4.244   0.660  2.4640  0.9949  1.6456
 5656SOL    MW422392   0.121   4.198   0.729  0.0696 -0.0932  0.1431
 5657SOL     OW22393   2.780   2.041   6.060  0.6788 -0.4033  0.1878
 5657SOL    HW222394   2.847   2.008   6.119 -0.1851  0.3118  1.6291
 5657SOL    HW322395   2.793   2.135   6.059 -0.1918 -0.2694  0.3801
 5657SOL    MW422396   2.790   2.049   6.068  0.4499 -0.2913  0.4033
 5658SOL     OW22397   0.429   1.638   2.709  0.1044 -0.4750 -0.1563
 5658SOL    HW222398   0.413   1.570   2.644  2.3493 -1.6952  0.4675
 5658SOL    HW322399   0.482   1.595   2.777  0.1146  1.4498  1.1441
 5658SOL    MW422400   0.433   1.624   2.710  0.4020 -0.3821  0.0976
 5659SOL     OW22401   0.132   5.290   5.862 -0.9156  0.6354  0.2709
 5659SOL    HW222402   0.203   5.235   5.895 -0.2076  2.1148  1.3327
 5659SOL    HW322403   0.065   5.228   5.832 -0.4522 -0.7991  2.0441
 5659SOL    MW422404   0.132   5.275   5.862 -0.7610  0.6413  0.6449
 5660SOL     OW22405   1.055   1.719   3.332 -0.0156  0.0280 -0.5130
 5660SOL    HW222406   1.000   1.783   3.288  0.8123  0.3127 -1.1464
 5660SOL    HW322407   1.131   1.769   3.364  0.0272 -0.4073  0.0916
 5660SOL    MW422408   1.058   1.734   3.330  0.0993  0.0081 -0.5168
 5661SOL     OW22409   4.487   2.152   3.597 -0.5009 -0.8330  0.7892
 5661SOL    HW222410   4.484   2.240   3.634 -0.4729 -0.8928  0.9348
 5661SOL    HW322411   4.557   2.108   3.646  0.9955 -0.2738 -0.7541
 5661SOL    MW422412   4.496   2.158   3.609 -0.2998 -0.7671  0.6048
 5662SOL     OW22413   2.183   1.156   1.249 -0.3029  0.0203 -0.2523
 5662SOL    HW222414   2.158   1.069   1.279 -0.0686  0.1269  0.2645
 5662SOL    HW322415   2.276   1.150   1.231 -0.3115  0.1294 -0.3393
 5662SOL    MW422416   2.192   1.144   1.251 -0.2731  0.0488 -0.1956
 5663SOL     OW22417   0.608   0.952   3.611  0.0427  0.5405  0.3472
 5663SOL    HW222418   0.566   0.929   3.528 -1.0861  0.8350  0.8253
 5663SOL    HW322419   0.612   0.869   3.659  1.7263  0.1347 -0.4173
 5663SOL    MW422420   0.603   0.938   3.606  0.1159  0.5258  0.3094
 5664SOL     OW22421   0.219   5.387   3.425  0.3195  0.2239 -0.4811
 5664SOL    HW222422   0.208   5.324   3.496  1.1268  1.4816  0.8198
 5664SOL    HW322423   0.195   5.339   3.346 -2.7834 -0.6266  0.8164
 5664SOL    MW422424   0.214   5.373   3.424  0.0167  0.2776 -0.1383
 5665SOL     OW22425   1.504   5.889   0.837 -0.0670  0.5344  0.4561
 5665SOL    HW222426   1.468   5.814   0.790 -0.8978  0.4988  1.1354
 5665SOL    HW322427   1.483   5.872   0.929  1.6068  0.5606  0.8778
 5665SOL    MW422428   1.496   5.877   0.843  0.0442  0.5331  0.6014
 5666SOL     OW22429   0.592   4.336   4.292  0.1352 -0.5785 -0.4255
 5666SOL    HW222430   0.641   4.301   4.366  0.1822 -0.3237 -0.3371
 5666SOL    HW322431   0.571   4.426   4.316  1.5940  0.0579 -1.4202
 5666SOL    MW422432   0.595   4.343   4.305  0.3339 -0.4609 -0.5451
 5667SOL     OW22433   5.467   3.098   2.153  0.4939 -0.2557  0.1117
 5667SOL    HW222434   5.522   3.149   2.093 -0.8246  3.7702  1.9510
 5667SOL    HW322435   5.378   3.126   2.134 -0.4061 -2.3457  0.9581
 5667SOL    MW422436   5.463   3.108   2.143  0.2012 -0.0002  0.4661
 5668SOL     OW22437   4.219   3.476   0.026  0.5046  0.5035  0.1530
 5668SOL    HW222438   4.167   3.451  -0.051  0.1782 -0.4833  0.6882
 5668SOL    HW322439   4.212   3.402   0.086  1.1558  1.0613  0.9453
 5668SOL    MW422440   4.212   3.463   0.023  0.5474  0.4469  0.3281
 5669SOL     OW22441   0.813   3.905   1.150  0.1122  0.2219  0.2066
 5669SOL    HW222442   0.809   3.810   1.151  1.8538  0.1120 -0.4677
 5669SOL    HW322443   0.844   3.928   1.063  0.7811  1.3418  0.7128
 5669SOL    MW422444   0.817   3.896   1.139  0.4303  0.3552  0.1844
 5670SOL     OW22445   4.741   4.887   2.542 -0.2771  0.0664 -0.0447
 5670SOL    HW222446   4.833   4.861   2.535 -0.2958  0.4313 -2.3810
 5670SOL    HW322447   4.696   4.807   2.569  0.5207 -0.5460 -0.4913
 5670SOL    MW422448   4.747   4.873   2.545 -0.1743  0.0337 -0.4119
 5671SOL     OW22449   0.474   2.203   3.076  0.0804 -0.8119 -0.1446
 5671SOL    HW222450   0.557   2.212   3.123  0.3782 -2.7963 -0.1847
 5671SOL    HW322451   0.456   2.290   3.042  2.2450 -0.3436 -0.2608
 5671SOL    MW422452   0.483   2.216   3.078  0.4053 -1.0119 -0.1652
 5672SOL     OW22453   4.414   0.895   1.159  0.3022  1.0247  0.2711
 5672SOL    HW222454   4.401   0.981   1.199  0.7863  0.5262  1.5391
 5672SOL    HW322455   4.456   0.842   1.227 -0.6537 -0.4428 -0.2179
 5672SOL    MW422456   4.418   0.899   1.173  0.2399  0.7653  0.3739
 5673SOL     OW22457   5.598   0.225   2.371  0.2658 -0.4183 -0.2078
 5673SOL    HW222458   5.638   0.233   2.457  0.4363  1.3476 -0.4047
 5673SOL    HW322459   5.515   0.273   2.379  0.4191  0.0194 -1.0869
 5673SOL    MW422460   5.592   0.232   2.384  0.3085 -0.1275 -0.3498
 5674SOL     OW22461   1.043   2.608   4.722  0.0837 -0.2201 -1.1379
 5674SOL    HW222462   1.043   2.596   4.627 -0.5031 -0.9531 -1.0502
 5674SOL    HW322463   1.076   2.526   4.757 -0.0932 -0.1019 -0.6895
 5674SOL    MW422464   1.047   2.596   4.714 -0.0171 -0.3012 -1.0672
 5675SOL     OW22465   5.121   2.855   1.983 -0.7663 -0.0751 -0.0145
 5675SOL    HW222466   5.153   2.813   2.063 -0.7356  1.4353  0.8181
 5675SOL    HW322467   5.198   2.903   1.950 -0.9840 -0.0663 -0.5045
 5675SOL    MW422468   5.136   2.856   1.989 -0.7910  0.1253  0.0307
 5676SOL     OW22469   5.862   3.967   3.946 -0.6340 -0.1989  0.0444
 5676SOL    HW222470   5.907   3.955   3.863 -4.4823 -2.3042 -1.9906
 5676SOL    HW322471   5.824   4.055   3.941  0.8835  0.5403  0.6519
 5676SOL    MW422472   5.863   3.977   3.935 -0.9415 -0.3791 -0.1440
 5677SOL     OW22473   5.039   1.061   5.699  0.4154  0.0669  0.3338
 5677SOL    HW222474   5.081   1.116   5.633  0.4456  1.8249  1.7198
 5677SOL    HW322475   5.027   0.976   5.657  0.9078  0.9684 -1.7230
 5677SOL    MW422476   5.043   1.057   5.685  0.4843  0.4178  0.2453
 5678SOL     OW22477   4.127   3.692   2.885  0.0451  0.2109  0.6990
 5678SOL    HW222478   4.108   3.715   2.976 -1.4518  0.9375  0.2265
 5678SOL    HW322479   4.095   3.766   2.834 -0.6731 -0.9069 -0.5349
 5678SOL    MW422480   4.121   3.705   2.890 -0.2471  0.1593  0.4739
 5679SOL     OW22481   3.770   2.789   3.664  0.2008  0.0250  0.5029
 5679SOL    HW222482   3.818   2.738   3.730 -0.7479  0.2816  1.4207
 5679SOL    HW322483   3.824   2.782   3.585  0.8138 -1.2045  0.9940
 5679SOL    MW422484   3.784   2.781   3.662  0.1565 -0.1034  0.6888
 5680SOL     OW22485   3.366   2.831   2.633  0.4255  0.3405  0.1798
 5680SOL    HW222486   3.429   2.765   2.662  1.5575  0.9022 -0.9102
 5680SOL    HW322487   3.385   2.908   2.686  1.3917  0.8441 -0.8644
 5680SOL    MW422488   3.377   2.832   2.644  0.7024  0.4810 -0.1018
 5681SOL     OW22489   1.042   3.366   5.986  0.0058  0.0712 -0.1218
 5681SOL    HW222490   0.971   3.337   6.043  0.7466 -1.1141  0.2284
 5681SOL    HW322491   1.108   3.297   5.992  1.0343  0.9615 -0.7318
 5681SOL    MW422492   1.041   3.353   5.994  0.2392  0.0323 -0.1561
 5682SOL     OW22493   3.595   2.721   3.161 -0.1588  0.1944 -0.0479
 5682SOL    HW222494   3.639   2.804   3.145  0.5718 -0.1982 -0.1362
 5682SOL    HW322495   3.571   2.689   3.073 -0.5203  0.3535 -0.0080
 5682SOL    MW422496   3.598   2.727   3.147 -0.1101  0.1636 -0.0543
 5683SOL     OW22497   4.882   0.227   6.124  0.8899  0.1348 -0.4298
 5683SOL    HW222498   4.953   0.230   6.059 -0.2865  0.6532 -1.7504
 5683SOL    HW322499   4.847   0.316   6.125  0.3376 -0.0829  0.2909
 5683SOL    MW422500   4.887   0.239   6.115  0.6618  0.1745 -0.5089
 5684SOL     OW22501   2.633   3.176   4.866  0.3517 -0.0613 -0.6655
 5684SOL    HW222502   2.606   3.266   4.880 -0.7241 -0.4854  0.0498
 5684SOL    HW322503   2.571   3.123   4.916  0.2814 -1.2677 -1.9440
 5684SOL    MW422504   2.621   3.181   4.874  0.2005 -0.2764 -0.7398
 5685SOL     OW22505   4.939   0.654   4.603  0.4156 -0.0487  0.1934
 5685SOL    HW222506   4.905   0.739   4.573  2.2066 -1.0521 -6.2069
 5685SOL    HW322507   4.872   0.591   4.576  0.7811 -1.0189  1.4423
 5685SOL    MW422508   4.925   0.657   4.595  0.7001 -0.3091 -0.4862
 5686SOL     OW22509   1.480   0.309   0.895 -0.3166  0.2912  0.2520
 5686SOL    HW222510   1.392   0.271   0.900 -0.5649  0.9581  1.1414
 5686SOL    HW322511   1.467   0.403   0.906  0.5231  0.3875  0.5169
 5686SOL    MW422512   1.467   0.316   0.897 -0.2386  0.3919  0.4043
 5687SOL     OW22513   5.054   3.624   2.181  0.2633 -0.2397  0.2171
 5687SOL    HW222514   5.035   3.718   2.177 -0.8055 -0.4475 -0.0595
 5687SOL    HW322515   5.118   3.615   2.251  0.6561  0.7347  0.0032
 5687SOL    MW422516   5.060   3.636   2.190  0.1741 -0.1386  0.1524
 5688SOL     OW22517   5.239   3.133   5.222 -0.5577 -0.0732 -0.5647
 5688SOL    HW222518   5.198   3.140   5.308 -0.1761 -1.2992 -0.2674
 5688SOL    HW322519   5.318   3.081   5.237 -0.8542 -0.9253 -1.7753
 5688SOL    MW422520   5.244   3.127   5.235 -0.5465 -0.3474 -0.6852
 5689SOL     OW22521   0.090   5.531   2.822  0.2240 -0.2904 -0.2393
 5689SOL    HW222522   0.068   5.623   2.829  1.8827  0.0586  1.3742
 5689SOL    HW322523   0.103   5.516   2.729 -2.5937  0.4138 -0.8193
 5689SOL    MW422524   0.089   5.541   2.811  0.0711 -0.1515 -0.1029
 5690SOL     OW22525   5.623   3.318   3.741  0.1643 -0.4394  0.2860
 5690SOL    HW222526   5.530   3.302   3.752 -0.1227  1.5376  1.1348
 5690SOL    HW322527   5.641   3.294   3.650 -1.7142  1.3941 -0.6554
 5690SOL    MW422528   5.613   3.312   3.731 -0.1214  0.0633  0.2738
 5691SOL     OW22529   2.559   2.062   6.242 -0.1458  0.1544  0.2505
 5691SOL    HW222530   2.522   1.982   6.280  0.2501  0.2094  0.7813
 5691SOL    HW322531   2.636   2.032   6.194 -0.9824  0.0145 -1.0289
 5691SOL    MW422532   2.565   2.047   6.241 -0.2039  0.1432  0.1517
 5692SOL     OW22533   1.917   2.156   0.538  0.5706  0.2913  0.1438
 5692SOL    HW222534   1.907   2.175   0.445 -0.1781 -1.2912 -0.1463
 5692SOL    HW322535   1.910   2.060   0.543  1.2225  0.2975  1.7563
 5692SOL    MW422536   1.914   2.146   0.527  0.5578  0.0833  0.3182
 5693SOL     OW22537   2.760   2.736   4.867 -0.0453 -0.3680 -0.3178
 5693SOL    HW222538   2.804   2.656   4.838  0.0819 -0.2724 -0.3855
 5693SOL    HW322539   2.701   2.757   4.794  0.1312 -0.2383 -0.4234
 5693SOL    MW422540   2.758   2.728   4.853 -0.0053 -0.3383 -0.3407
 5694SOL     OW22541   2.940   6.008   2.014 -0.4370 -0.6243  0.5617
 5694SOL    HW222542   2.878   5.963   2.073 -0.1180  0.7097  1.9842
 5694SOL    HW322543   2.889   6.025   1.935 -2.1962  1.1106  1.9708
 5694SOL    MW422544   2.925   6.004   2.012 -0.6270 -0.2194  0.9353
 5695SOL     OW22545   2.708   4.717   2.050 -0.1733 -0.4415 -0.1946
 5695SOL    HW222546   2.708   4.626   2.021  1.9217 -0.2322 -1.0534
 5695SOL    HW322547   2.758   4.763   1.983  0.3184  1.0223  1.1148
 5695SOL    MW422548   2.714   4.711   2.037  0.1680 -0.2208 -0.1351
 5696SOL     OW22549   3.318   4.706   2.232 -0.0570 -0.3708  0.3019
 5696SOL    HW222550   3.352   4.647   2.165  0.7058  0.5509 -0.1538
 5696SOL    HW322551   3.265   4.769   2.185  1.1151  0.7557  0.4165
 5696SOL    MW422552   3.316   4.706   2.217  0.1983 -0.1005  0.2569
 5697SOL     OW22553   2.948   5.830   5.263  0.3046  0.3521 -0.0934
 5697SOL    HW222554   2.919   5.783   5.341  2.7252  1.7043  1.7624
 5697SOL    HW322555   2.886   5.903   5.255 -1.0735 -0.8398 -0.6107
 5697SOL    MW422556   2.936   5.834   5.273  0.4421  0.3732  0.0832
 5698SOL     OW22557   2.691   4.157   1.292 -0.1754 -0.1813  0.0071
 5698SOL    HW222558   2.713   4.233   1.347  0.2411  0.8984 -1.5911
 5698SOL    HW322559   2.694   4.083   1.353 -0.9758  1.0954  1.7087
 5698SOL    MW422560   2.694   4.158   1.308 -0.2261  0.1296  0.0207
 5699SOL     OW22561   1.977   3.598   4.454  0.8595 -0.9080  0.1864
 5699SOL    HW222562   1.974   3.688   4.484 -0.2883 -1.2495  1.1768
 5699SOL    HW322563   1.907   3.592   4.389 -0.3857 -1.5397  1.5375
 5699SOL    MW422564   1.967   3.609   4.449  0.5438 -1.0364  0.4953
 5700SOL     OW22565   1.194   3.344   0.603 -0.4936 -0.1195  0.6814
 5700SOL    HW222566   1.155   3.287   0.537  1.9512 -1.0584 -0.0876
 5700SOL    HW322567   1.142   3.425   0.599 -0.1044  0.1208 -2.9153
 5700SOL    MW422568   1.182   3.347   0.593 -0.1197 -0.2117  0.1054
 5701SOL     OW22569   2.657   5.467   2.870  0.4466 -0.4118 -0.5989
 5701SOL    HW222570   2.674   5.552   2.909 -0.5421 -0.8116  0.8053
 5701SOL    HW322571   2.592   5.426   2.928 -0.1525 -1.5660 -1.9942
 5701SOL    MW422572   2.651   5.473   2.883  0.2371 -0.6169 -0.5977
 5702SOL     OW22573   0.387   1.103   5.267 -0.0379 -0.0023  0.2453
 5702SOL    HW222574   0.390   1.132   5.358 -1.7989 -0.5909  0.5322
 5702SOL    HW322575   0.479   1.094   5.241  0.5595 -2.0726  2.6815
 5702SOL    MW422576   0.399   1.106   5.275 -0.1915 -0.3531  0.6046
 5703SOL     OW22577   6.188   3.666   6.069 -0.4182  0.3863 -0.4677
 5703SOL    HW222578   6.197   3.592   6.009 -1.2501  0.6356 -0.9160
 5703SOL    HW322579   6.199   3.627   6.156  2.2137  0.2345 -0.7724
 5703SOL    MW422580   6.191   3.651   6.072 -0.1807  0.3992 -0.5670
 5704SOL     OW22581   6.141   4.371   0.902  0.2303  0.2507  0.1956
 5704SOL    HW222582   6.152   4.299   0.840 -0.6903 -0.7150  1.1123
 5704SOL    HW322583   6.229   4.407   0.913  0.7572 -0.9477 -0.0192
 5704SOL    MW422584   6.154   4.367   0.895  0.1783 -0.0348  0.2882
 5705SOL     OW22585   5.925   2.540   1.187 -0.5463  0.3979  0.3544
 5705SOL    HW222586   6.001   2.588   1.154 -0.2582  0.6443  1.3640
 5705SOL    HW322587   5.849   2.584   1.147 -0.1944  0.4638 -0.2529
 5705SOL    MW422588   5.925   2.552   1.177 -0.4619  0.4391  0.4075
 5706SOL     OW22589   2.646   0.846   1.473 -0.0221  0.2188  0.7906
 5706SOL    HW222590   2.697   0.799   1.539  0.1649  0.1541  0.5997
 5706SOL    HW322591   2.679   0.814   1.390 -1.0187 -0.5223  0.6562
 5706SOL    MW422592   2.657   0.836   1.471 -0.1289  0.1125  0.7477
 5707SOL     OW22593   4.996   3.196   4.297  0.2549 -0.0407 -0.4889
 5707SOL    HW222594   4.912   3.165   4.264  0.0875 -0.5136  0.3625
 5707SOL    HW322595   4.976   3.279   4.340  0.2565 -0.0812 -0.4112
 5707SOL    MW422596   4.983   3.203   4.298  0.2330 -0.1084 -0.3663
 5708SOL     OW22597   0.296   6.163   1.654  0.0177  0.4664  0.0768
 5708SOL    HW222598   0.389   6.143   1.655  0.0367  0.4004 -0.9993
 5708SOL    HW322599   0.281   6.200   1.567 -0.9626  0.4534  0.2304
 5708SOL    MW422600   0.306   6.165   1.642 -0.1091  0.4560 -0.0449
 5709SOL     OW22601   2.991   0.868   3.961  0.5179 -0.2821  0.5792
 5709SOL    HW222602   2.972   0.890   4.052  0.9807  0.6259  0.4735
 5709SOL    HW322603   2.941   0.932   3.910  0.8068 -0.3366  0.2210
 5709SOL    MW422604   2.982   0.880   3.966  0.6171 -0.1695  0.5180
 5710SOL     OW22605   1.793   1.471   2.792  0.1835  0.0953 -0.1374
 5710SOL    HW222606   1.814   1.460   2.699 -0.2844 -0.4245 -0.1825
 5710SOL    HW322607   1.706   1.433   2.802  0.3481 -0.1133  0.5705
 5710SOL    MW422608   1.784   1.464   2.781  0.1435 -0.0008 -0.0500
 5711SOL     OW22609   2.306   2.690   0.892  0.2671 -0.1666 -0.0192
 5711SOL    HW222610   2.265   2.762   0.940 -0.6305 -0.6407 -0.0405
 5711SOL    HW322611   2.342   2.730   0.813 -1.5652  0.0470 -0.8018
 5711SOL    MW422612   2.305   2.704   0.888 -0.0931 -0.2009 -0.1253
 5712SOL     OW22613   5.080   5.218   5.137 -0.1830 -0.5558 -0.6698
 5712SOL    HW222614   5.114   5.229   5.049 -1.8936 -1.2575 -1.4668
 5712SOL    HW322615   5.024   5.141   5.132 -1.7730  0.4483  0.5594
 5712SOL    MW422616   5.077   5.210   5.125 -0.6185 -0.5159 -0.6128
 5713SOL     OW22617   2.357   0.580   4.949  0.5097  0.5559  0.1052
 5713SOL    HW222618   2.452   0.586   4.956  0.5384  0.3605 -0.1027
 5713SOL    HW322619   2.330   0.666   4.918  0.4670  1.1312  1.6553
 5713SOL    MW422620   2.366   0.592   4.946  0.5079  0.6060  0.2823
 5714SOL     OW22621   0.335   6.305   5.992 -0.2885 -0.0155 -0.6705
 5714SOL    HW222622   0.352   6.220   5.951 -0.5912  0.8886 -2.8062
 5714SOL    HW322623   0.247   6.329   5.962  0.6591  2.0350 -2.0298
 5714SOL    MW422624   0.326   6.297   5.983 -0.2034  0.3743 -1.1316
 5715SOL     OW22625   0.840   1.616   5.028 -0.1940  0.2428 -0.1164
 5715SOL    HW222626   0.925   1.638   5.065 -0.4867  0.3566  0.4932
 5715SOL    HW322627   0.831   1.674   4.952  0.0936  0.5143  0.0543
 5715SOL    MW422628   0.850   1.626   5.023 -0.1946  0.2937 -0.0134
 5716SOL     OW22629   2.771   1.413   0.406 -0.5288  0.2088 -0.3188
 5716SOL    HW222630   2.692   1.397   0.355  0.0268 -0.5332 -0.9493
 5716SOL    HW322631   2.837   1.438   0.342  0.1480 -0.6253  0.0386
 5716SOL    MW422632   2.769   1.414   0.391 -0.3662  0.0008 -0.3549
 5717SOL     OW22633   6.153   1.080   3.189 -0.3724 -0.1618 -0.2893
 5717SOL    HW222634   6.076   1.136   3.193  0.2284  0.6336  0.6048
 5717SOL    HW322635   6.215   1.129   3.135 -0.1264 -0.3104 -0.1439
 5717SOL    MW422636   6.151   1.094   3.183 -0.2607 -0.0764 -0.1522
 5718SOL     OW22637   3.057   5.672   6.367 -0.1264  0.3800  0.7956
 5718SOL    HW222638   3.091   5.711   6.447 -0.1909 -0.1384  1.0801
 5718SOL    HW322639   2.992   5.609   6.396 -1.1821  1.1954  0.2599
 5718SOL    MW422640   3.053   5.669   6.381 -0.2742  0.4192  0.7624
 5719SOL     OW22641   2.701   3.622   0.878  0.1520  0.4880  0.0058
 5719SOL    HW222642   2.628   3.668   0.919  0.9935 -0.4850  2.8149
 5719SOL    HW322643   2.778   3.672   0.903  0.8134 -0.8458  0.7449
 5719SOL    MW422644   2.702   3.635   0.887  0.3503  0.1837  0.4739
 5720SOL     OW22645   3.063   3.997   4.678 -0.0834 -0.3640  0.2792
 5720SOL    HW222646   3.153   4.013   4.707 -0.3560 -1.1040  1.6373
 5720SOL    HW322647   3.065   3.910   4.638 -0.0906 -0.1454 -0.2019
 5720SOL    MW422648   3.075   3.988   4.677 -0.1203 -0.4328  0.3949
 5721SOL     OW22649   5.432   5.988   1.004 -0.1073 -0.2007  0.0394
 5721SOL    HW222650   5.463   5.939   1.080  0.6909 -1.8967 -1.3058
 5721SOL    HW322651   5.501   6.052   0.987  0.1893 -0.4888  0.1460
 5721SOL    MW422652   5.445   5.990   1.012  0.0371 -0.4624 -0.1240
 5722SOL     OW22653   2.653   4.426   1.409 -0.1535  0.6729 -0.3411
 5722SOL    HW222654   2.744   4.454   1.395 -0.2885  1.7255  0.7785
 5722SOL    HW322655   2.622   4.479   1.481 -1.8543  0.7041 -1.0506
 5722SOL    MW422656   2.661   4.436   1.417 -0.3957  0.8159 -0.2870
 5723SOL     OW22657   5.055   2.802   5.052 -0.5992 -0.7919  0.3727
 5723SOL    HW222658   4.989   2.844   4.997 -0.0070  0.7568  0.7914
 5723SOL    HW322659   5.099   2.875   5.097  0.9880 -1.8108  0.5522
 5723SOL    MW422660   5.052   2.817   5.051 -0.3116 -0.7220  0.4516
 5724SOL     OW22661   0.514   1.961   0.003  0.4680  0.0522  0.2223
 5724SOL    HW222662   0.449   1.892   0.006 -0.9206  1.3059  0.1892
 5724SOL    HW322663   0.590   1.925   0.049 -0.4862 -1.1942  0.8775
 5724SOL    MW422664   0.516   1.948   0.009  0.1589  0.0532  0.3044
 5725SOL     OW22665   0.425   4.744   0.530  0.4675  0.2064  0.2999
 5725SOL    HW222666   0.359   4.702   0.585  0.0518  0.3232 -0.1132
 5725SOL    HW322667   0.503   4.689   0.540  0.2277 -0.0850  0.5664
 5725SOL    MW422668   0.427   4.731   0.539  0.3810  0.1833  0.2805
 5726SOL     OW22669   0.259   5.071   2.215 -0.3973 -0.1437 -0.0514
 5726SOL    HW222670   0.334   5.075   2.275 -1.2316 -1.7429  1.1852
 5726SOL    HW322671   0.186   5.105   2.266 -0.7359  0.4239 -0.8962
 5726SOL    MW422672   0.260   5.076   2.230 -0.5520 -0.2798  0.0003
 5727SOL     OW22673   5.766   5.822   1.979  0.0788 -0.0578 -0.1152
 5727SOL    HW222674   5.849   5.820   1.931 -1.0022  0.6201 -2.1300
 5727SOL    HW322675   5.759   5.735   2.019  1.9569  0.0452  0.5036
 5727SOL    MW422676   5.776   5.810   1.978  0.1840  0.0452 -0.2994
 5728SOL     OW22677   4.938   0.851   5.527 -0.1308 -0.6279  0.3647
 5728SOL    HW222678   4.880   0.902   5.472  0.6488  1.6377  1.5097
 5728SOL    HW322679   4.882   0.784   5.566 -1.4787  0.1116 -0.2440
 5728SOL    MW422680   4.923   0.849   5.525 -0.2058 -0.2314  0.4354
 5729SOL     OW22681   2.306   4.742   4.359  0.6711  0.1352  0.2905
 5729SOL    HW222682   2.230   4.713   4.408  0.5382 -0.1050 -0.0492
 5729SOL    HW322683   2.287   4.718   4.268  1.3434 -0.3493  0.2640
 5729SOL    MW422684   2.294   4.735   4.353  0.7423  0.0396  0.2422
 5730SOL     OW22685   4.408   0.768   4.680 -0.1141  0.2490  0.4568
 5730SOL    HW222686   4.335   0.707   4.685 -0.4067  0.4773 -0.8016
 5730SOL    HW322687   4.397   0.825   4.756 -2.2423  1.3650 -0.6111
 5730SOL    MW422688   4.397   0.767   4.691 -0.4335  0.4264  0.1499
 5731SOL     OW22689   0.762   5.969   4.615 -0.3757  0.1149 -0.4758
 5731SOL    HW222690   0.800   6.056   4.629  0.3334 -0.3629  0.6607
 5731SOL    HW322691   0.696   5.983   4.546  0.7196  1.2743 -1.3437
 5731SOL    MW422692   0.758   5.982   4.608 -0.1376  0.2048 -0.4404
 5732SOL     OW22693   4.243   1.832   5.358  0.7065  0.1866  0.0274
 5732SOL    HW222694   4.283   1.891   5.294  0.7427 -1.0657 -1.1440
 5732SOL    HW322695   4.189   1.773   5.305  0.7873 -0.9220  1.1591
 5732SOL    MW422696   4.241   1.832   5.342  0.7219 -0.1249  0.0221
 5733SOL     OW22697   0.782   5.779   5.600 -0.5724  0.6068 -0.0867
 5733SOL    HW222698   0.804   5.798   5.692  1.0849 -0.9691 -0.1029
 5733SOL    HW322699   0.864   5.794   5.553 -0.9250 -0.3629 -1.0310
 5733SOL    MW422700   0.796   5.784   5.606 -0.4002  0.2709 -0.2134
 5734SOL     OW22701   1.541   3.149   0.362  0.5844  0.0606 -1.0769
 5734SOL    HW222702   1.478   3.200   0.310 -0.5927 -1.3052 -1.0584
 5734SOL    HW322703   1.553   3.068   0.312  1.8554  0.0196 -0.7421
 5734SOL    MW422704   1.534   3.145   0.349  0.5968 -0.1250 -1.0303
 5735SOL     OW22705   0.263   2.631   6.057  0.7509 -0.5548  0.5901
 5735SOL    HW222706   0.347   2.616   6.100  2.2434 -0.1720 -1.9503
 5735SOL    HW322707   0.284   2.632   5.964 -2.0474 -0.1038 -0.1317
 5735SOL    MW422708   0.277   2.629   6.050  0.5786 -0.4448  0.1597
 5736SOL     OW22709   4.877   4.891   3.471  0.2254 -0.1460 -0.0585
 5736SOL    HW222710   4.814   4.887   3.543 -1.1734  1.5151 -1.0920
 5736SOL    HW322711   4.935   4.816   3.485 -1.2320 -1.0382  1.6456
 5736SOL    MW422712   4.876   4.880   3.482 -0.1514 -0.0446  0.0300
 5737SOL     OW22713   0.740   6.276   1.155 -0.2795  0.2623 -0.3435
 5737SOL    HW222714   0.817   6.299   1.207 -0.0529 -1.7434  0.3087
 5737SOL    HW322715   0.763   6.299   1.065  0.6142  0.7428 -0.0030
 5737SOL    MW422716   0.753   6.282   1.150 -0.1317  0.0611 -0.2125
 5738SOL     OW22717   5.937   5.251   5.546  0.2222 -0.1442 -0.5542
 5738SOL    HW222718   5.931   5.230   5.640  0.5909  2.2599  0.0762
 5738SOL    HW322719   6.016   5.206   5.517  0.5758 -0.2425  0.5124
 5738SOL    MW422720   5.947   5.242   5.555  0.3175  0.1600 -0.3303
 5739SOL     OW22721   5.283   0.199   2.168  0.2514 -0.7922  0.1437
 5739SOL    HW222722   5.317   0.134   2.106 -0.2917 -0.6309 -0.3354
 5739SOL    HW322723   5.195   0.219   2.135  0.6360  0.6401 -0.0771
 5739SOL    MW422724   5.276   0.193   2.155  0.2305 -0.5820  0.0513
 5740SOL     OW22725   4.871   5.497   4.518 -0.3386  0.7231  0.1970
 5740SOL    HW222726   4.924   5.574   4.497  1.6139 -0.7412 -0.6402
 5740SOL    HW322727   4.826   5.475   4.436  0.2624  0.1526  0.0109
 5740SOL    MW422728   4.872   5.504   4.504 -0.0017  0.4546  0.0620
 5741SOL     OW22729   1.237   5.841   1.087  0.4274 -0.1121 -0.0018
 5741SOL    HW222730   1.199   5.780   1.023  2.0652 -0.4291 -0.7191
 5741SOL    HW322731   1.328   5.814   1.095  0.5998  0.7937  1.4591
 5741SOL    MW422732   1.244   5.829   1.079  0.6662 -0.0344  0.0963
 5742SOL     OW22733   5.979   2.288   2.205 -0.7337  0.5718 -0.6356
 5742SOL    HW222734   6.054   2.345   2.222 -1.8153  1.6839  0.6219
 5742SOL    HW322735   5.972   2.234   2.283 -1.0236  0.2167 -0.9064
 5742SOL    MW422736   5.988   2.288   2.217 -0.9146  0.6717 -0.5054
 5743SOL     OW22737   1.346   6.300   4.181  0.1101 -0.2147  0.2950
 5743SOL    HW222738   1.384   6.250   4.109  1.0968  0.1391  0.5520
 5743SOL    HW322739   1.349   6.391   4.151  0.1281 -0.1108  0.6053
 5743SOL    MW422740   1.351   6.306   4.168  0.2427 -0.1543  0.3698
 5744SOL     OW22741   4.345   4.669   0.904 -0.2535  0.8058  0.5207
 5744SOL    HW222742   4.343   4.582   0.865  0.7664  1.2265 -0.5216
 5744SOL    HW322743   4.343   4.729   0.830 -1.1876  1.6961  1.2335
 5744SOL    MW422744   4.344   4.665   0.889 -0.2422  0.9788  0.4772
 5745SOL     OW22745   5.710   0.818   4.778 -0.0584 -0.3439 -0.4050
 5745SOL    HW222746   5.798   0.784   4.758  0.5846  0.5396  0.7874
 5745SOL    HW322747   5.658   0.797   4.700  0.7925 -2.2903 -0.5124
 5745SOL    MW422748   5.715   0.811   4.765  0.1387 -0.4842 -0.2618
 5746SOL     OW22749   0.358   4.733   4.990  0.0465  0.3480  0.8300
 5746SOL    HW222750   0.378   4.787   5.067  1.6542  1.1688 -0.0994
 5746SOL    HW322751   0.355   4.644   5.024 -0.1234  0.7767  1.9900
 5746SOL    MW422752   0.360   4.728   5.005  0.2362  0.5128  0.8604
 5747SOL     OW22753   5.098   2.479   3.913  0.4386  0.5875 -0.4697
 5747SOL    HW222754   5.028   2.424   3.948  1.5248  0.8526  2.3630
 5747SOL    HW322755   5.126   2.435   3.833  0.4011 -2.2962  1.0010
 5747SOL    MW422756   5.093   2.466   3.907  0.5769  0.2420  0.0981
 5748SOL     OW22757   0.913   6.365   2.644 -0.2489 -0.1257  0.0919
 5748SOL    HW222758   0.908   6.426   2.570  1.7942  0.0383  0.0239
 5748SOL    HW322759   0.864   6.408   2.714 -0.4019  0.7303 -0.5215
 5748SOL    MW422760   0.906   6.379   2.643  0.0005  0.0089  0.0020
 5749SOL     OW22761   5.985   0.320   4.755  0.0340 -0.3520  0.2266
 5749SOL    HW222762   5.934   0.377   4.812 -0.2238 -1.9651  1.7024
 5749SOL    HW322763   6.076   0.338   4.779 -0.0181 -0.1163  0.2460
 5749SOL    MW422764   5.990   0.330   4.766 -0.0069 -0.5337  0.4238
 5750SOL     OW22765   4.241   0.797   3.732 -0.0798  0.3090  0.9048
 5750SOL    HW222766   4.160   0.777   3.779  0.1556 -0.4468  1.0005
 5750SOL    HW322767   4.274   0.876   3.774 -1.0129  0.8956  0.5526
 5750SOL    MW422768   4.234   0.805   3.744 -0.1718  0.2867  0.8709
 5751SOL     OW22769   5.544   2.745   3.321  0.0457 -0.1134 -0.3299
 5751SOL    HW222770   5.605   2.773   3.252 -0.6401  0.3277 -0.7635
 5751SOL    HW322771   5.458   2.744   3.278 -0.3378 -0.1694  0.4309
 5751SOL    MW422772   5.541   2.748   3.306 -0.0954 -0.0626 -0.2868
 5752SOL     OW22773   2.509   6.015   1.037  0.1052  0.1102 -0.5907
 5752SOL    HW222774   2.578   6.066   1.079 -0.5372 -0.4034  1.1479
 5752SOL    HW322775   2.432   6.071   1.040 -0.4264 -0.6559  0.7011
 5752SOL    MW422776   2.508   6.029   1.043 -0.0497 -0.0586 -0.1909
 5753SOL     OW22777   4.634   3.828   2.275 -0.2014 -0.2992 -0.2898
 5753SOL    HW222778   4.689   3.906   2.271 -0.1430 -0.3302 -0.1094
 5753SOL    HW322779   4.579   3.833   2.197 -0.1148 -0.1402 -0.3411
 5753SOL    MW422780   4.634   3.839   2.264 -0.1823 -0.2823 -0.2728
 5754SOL     OW22781   3.154   5.130   4.438  0.4806  0.2797  0.1210
 5754SOL    HW222782   3.206   5.189   4.493 -1.1887  0.8662  1.1584
 5754SOL    HW322783   3.151   5.174   4.353  0.9885  0.6291  0.2763
 5754SOL    MW422784   3.160   5.144   4.434  0.3274  0.4032  0.2784
 5755SOL     OW22785   4.604   2.992   1.485 -0.5820  0.2566 -0.2865
 5755SOL    HW222786   4.580   3.085   1.482 -2.9075 -0.2324  0.5682
 5755SOL    HW322787   4.520   2.947   1.498  0.6136 -1.8942  0.3998
 5755SOL    MW422788   4.590   2.998   1.486 -0.7310 -0.0917 -0.0832
 5756SOL     OW22789   6.059   5.864   4.661 -0.1436 -0.4518 -0.0328
 5756SOL    HW222790   6.087   5.865   4.569  0.4033  0.5428  0.1269
 5756SOL    HW322791   6.097   5.944   4.698  1.6192 -1.9598  1.6437
 5756SOL    MW422792   6.068   5.874   4.654  0.1611 -0.5195  0.2094
 5757SOL     OW22793   0.331   3.108   6.285 -0.1806  0.2597  0.3427
 5757SOL    HW222794   0.262   3.041   6.278 -0.7080  0.9251 -1.1880
 5757SOL    HW322795   0.395   3.070   6.345 -0.9164 -1.2336  0.2288
 5757SOL    MW422796   0.330   3.094   6.292 -0.3473  0.1505  0.1257
 5758SOL     OW22797   6.071   2.686   4.270  0.0982  0.5745  0.4555
 5758SOL    HW222798   6.052   2.779   4.282  0.5235  0.5151  1.7998
 5758SOL    HW322799   6.167   2.681   4.264  0.2654  0.0589  2.6036
 5758SOL    MW422800   6.081   2.697   4.271  0.1764  0.4987  0.9163
 5759SOL     OW22801   6.352   4.121   4.746 -0.5482 -0.3203 -0.0934
 5759SOL    HW222802   6.446   4.104   4.754 -0.7951 -0.9872  2.0890
 5759SOL    HW322803   6.328   4.084   4.661  1.0428 -0.7404 -0.3968
 5759SOL    MW422804   6.361   4.114   4.736 -0.3709 -0.4637  0.1545
 5760SOL     OW22805   5.883   4.352   3.015 -0.1481 -0.2998 -0.0810
 5760SOL    HW222806   5.837   4.268   3.005  1.6752 -1.6653  1.9997
 5760SOL    HW322807   5.852   4.385   3.100 -0.3019  0.8041 -0.5550
 5760SOL    MW422808   5.873   4.345   3.025  0.0722 -0.3343  0.1310
 5761SOL     OW22809   1.755   4.377   5.990 -0.1040  0.5824  0.1452
 5761SOL    HW222810   1.735   4.287   5.965 -0.3254  0.4893  0.6279
 5761SOL    HW322811   1.841   4.395   5.952  0.2930 -0.1029  0.6874
 5761SOL    MW422812   1.764   4.368   5.982 -0.0808  0.4797  0.2804
 5762SOL     OW22813   5.108   5.487   1.202  0.1186 -0.3793 -0.8005
 5762SOL    HW222814   5.178   5.482   1.137  1.5563  2.1513  0.3724
 5762SOL    HW322815   5.154   5.489   1.286 -1.3240  1.4433  0.0164
 5762SOL    MW422816   5.123   5.487   1.205  0.1180  0.1951 -0.5379
 5763SOL     OW22817   1.947   3.152   6.371 -0.0957 -0.3268 -0.2502
 5763SOL    HW222818   1.898   3.142   6.289 -0.4953  0.2614 -0.0871
 5763SOL    HW322819   1.972   3.063   6.395  0.1783 -0.4887 -1.1052
 5763SOL    MW422820   1.944   3.139   6.363 -0.1122 -0.2705 -0.3415
 5764SOL     OW22821   5.586   3.492   5.510 -0.3126 -0.1039  0.2371
 5764SOL    HW222822   5.678   3.475   5.489 -0.3013 -2.4064  1.7732
 5764SOL    HW322823   5.589   3.561   5.577  0.0024  2.1904 -1.9511
 5764SOL    MW422824   5.598   3.499   5.516 -0.2695 -0.1050  0.1511
 5765SOL     OW22825   4.817   3.091   3.291  0.1904 -0.5149  0.3421
 5765SOL    HW222826   4.819   3.187   3.282  0.1570 -0.2125  2.7366
 5765SOL    HW322827   4.844   3.058   3.206 -0.7799  1.6055 -0.8646
 5765SOL    MW422828   4.821   3.099   3.279  0.0580 -0.1952  0.4988
 5766SOL     OW22829   5.502   3.482   0.776 -0.4254 -0.5659 -0.3786
 5766SOL    HW222830   5.589   3.511   0.749 -0.1357 -0.3309  0.7285
 5766SOL    HW322831   5.485   3.403   0.726  0.0449 -0.1101 -1.2681
 5766SOL    MW422832   5.511   3.476   0.766 -0.3252 -0.4748 -0.3499
 5767SOL     OW22833   0.381   5.445   6.419  0.1887  0.6041 -0.6035
 5767SOL    HW222834   0.347   5.451   6.508  0.6050 -0.4534 -0.3588
 5767SOL    HW322835   0.321   5.386   6.374  0.7465  0.0597 -0.6424
 5767SOL    MW422836   0.369   5.438   6.425  0.3172  0.3927 -0.5764
 5768SOL     OW22837   2.347   3.925   3.338  0.6103 -0.1736  0.3076
 5768SOL    HW222838   2.302   3.935   3.422  0.2038 -2.4197  0.3978
 5768SOL    HW322839   2.287   3.964   3.275 -1.0106 -2.1204  0.5713
 5768SOL    MW422840   2.333   3.932   3.341  0.3428 -0.7268  0.3543
 5769SOL     OW22841   1.689   3.823   5.519 -0.0318 -1.4083  0.5508
 5769SOL    HW222842   1.684   3.841   5.425  4.3604 -0.0323  0.3742
 5769SOL    HW322843   1.675   3.728   5.526  0.6139 -1.7240 -1.6383
 5769SOL    MW422844   1.686   3.813   5.507  0.6329 -1.2684  0.2387
 5770SOL     OW22845   3.122   0.735   3.674 -0.3141  0.3299  0.5497
 5770SOL    HW222846   3.191   0.706   3.733 -0.0859 -1.7343 -0.6316
 5770SOL    HW322847   3.053   0.767   3.732 -0.2421 -1.8948  2.0017
 5770SOL    MW422848   3.122   0.735   3.689 -0.2745 -0.2360  0.5854
 5771SOL     OW22849   3.730   2.971   4.261 -0.0256 -0.6595 -0.0033
 5771SOL    HW222850   3.764   2.910   4.196  0.6007 -2.2074  1.6581
 5771SOL    HW322851   3.635   2.960   4.258 -0.0481 -0.2351 -1.0753
 5771SOL    MW422852   3.722   2.961   4.252  0.0540 -0.8077  0.0745
 5772SOL     OW22853   1.140   5.570   1.359 -0.4661 -0.7205 -0.1010
 5772SOL    HW222854   1.141   5.660   1.392 -0.4865 -0.3960 -0.9614
 5772SOL    HW322855   1.083   5.573   1.282 -0.1058 -1.3761 -0.4037
 5772SOL    MW422856   1.133   5.582   1.353 -0.4213 -0.7642 -0.2544
 5773SOL     OW22857   2.876   6.119   0.710  0.3843  0.0692  0.3651
 5773SOL    HW222858   2.890   6.041   0.764  1.4280 -0.6388 -0.8771
 5773SOL    HW322859   2.839   6.085   0.628  1.8616  0.7342 -0.6123
 5773SOL    MW422860   2.873   6.104   0.706  0.7169  0.0635  0.0723
 5774SOL     OW22861   0.020   3.801   0.168  0.6751  0.3608  0.5151
 5774SOL    HW222862   0.025   3.815   0.073  1.9891  1.4837  0.7296
 5774SOL    HW322863  -0.018   3.713   0.176  2.3491 -0.5986 -1.1040
 5774SOL    MW422864   0.016   3.791   0.156  1.0693  0.3823  0.3297
 5775SOL     OW22865   5.820   2.845   5.593 -0.0859 -0.0053  0.1293
 5775SOL    HW222866   5.842   2.932   5.627 -0.8374  0.6728 -1.0438
 5775SOL    HW322867   5.734   2.856   5.552 -0.9977 -1.7295  1.4483
 5775SOL    MW422868   5.812   2.858   5.592 -0.3053 -0.1433  0.1485
 5776SOL     OW22869   0.601   1.460   3.506 -0.7695 -0.4697  0.3733
 5776SOL    HW222870   0.605   1.537   3.448 -0.1578 -0.9190 -0.1886
 5776SOL    HW322871   0.521   1.415   3.479  0.3765 -1.5836 -1.3101
 5776SOL    MW422872   0.591   1.464   3.495 -0.5376 -0.6759  0.0771
 5777SOL     OW22873   5.164   3.062   3.080  0.1530 -0.2347  0.0848
 5777SOL    HW222874   5.213   3.080   3.160 -0.0663 -1.3600  0.4891
 5777SOL    HW322875   5.180   3.138   3.024 -1.7520  1.8020  2.1684
 5777SOL    MW422876   5.173   3.074   3.083 -0.1272 -0.1145  0.4131
 5778SOL     OW22877   5.834   0.080   1.493 -0.3469  0.0299  0.0945
 5778SOL    HW222878   5.856   0.147   1.428 -0.2223 -1.0035 -0.9732
 5778SOL    HW322879   5.743   0.099   1.517 -0.0307  1.1083  0.4859
 5778SOL    MW422880   5.825   0.091   1.487 -0.2887  0.0359  0.0052
 5779SOL     OW22881   2.700   3.964   0.025  0.0871  0.0502  0.3615
 5779SOL    HW222882   2.776   3.998  -0.022  0.1433 -0.5884 -0.0231
 5779SOL    HW322883   2.655   4.042   0.059  1.9119  0.4015  2.2042
 5779SOL    MW422884   2.704   3.979   0.024  0.3353  0.0123  0.5538
 5780SOL     OW22885   3.875   6.442   3.289 -0.1031 -0.2950 -0.4646
 5780SOL    HW222886   3.830   6.395   3.360 -0.4335 -0.1950 -0.6055
 5780SOL    HW322887   3.964   6.453   3.321  0.5046 -2.6572 -1.1842
 5780SOL    MW422888   3.881   6.437   3.303 -0.0665 -0.5935 -0.5782
 5781SOL     OW22889   2.015   3.084   2.601  0.1487  0.6487  0.5207
 5781SOL    HW222890   2.001   3.128   2.518 -0.0698  2.7015  1.5957
 5781SOL    HW322891   2.017   3.154   2.666  2.0678 -0.7179  2.0643
 5781SOL    MW422892   2.014   3.099   2.599  0.3730  0.7392  0.8662
 5782SOL     OW22893   4.617   2.188   0.195 -0.0865  0.0559  0.2920
 5782SOL    HW222894   4.676   2.208   0.267 -0.0800 -1.7250  0.8339
 5782SOL    HW322895   4.620   2.092   0.188  0.4177  0.1886 -2.4998
 5782SOL    MW422896   4.625   2.178   0.203 -0.0191 -0.1615 -0.0048
 5783SOL     OW22897   5.949   5.384   6.188 -0.2826 -0.3533 -0.1083
 5783SOL    HW222898   5.857   5.401   6.170  0.0311  1.9786  0.1688
 5783SOL    HW322899   5.948   5.341   6.274 -1.0570  1.0750  0.6309
 5783SOL    MW422900   5.937   5.380   6.197 -0.3434  0.1428  0.0258
 5784SOL     OW22901   2.584   2.780   1.889  0.5387 -0.4166 -0.0442
 5784SOL    HW222902   2.623   2.844   1.949  0.9495  0.2108 -0.9516
 5784SOL    HW322903   2.635   2.790   1.808  0.7791 -2.0799 -0.1262
 5784SOL    MW422904   2.596   2.790   1.886  0.6247 -0.5533 -0.1748
 5785SOL     OW22905   2.926   2.181   4.551  0.2797 -1.3577  0.5468
 5785SOL    HW222906   2.990   2.137   4.496 -1.1664 -1.0289 -1.4899
 5785SOL    HW322907   2.919   2.269   4.515 -2.1954 -1.7652 -0.1025
 5785SOL    MW422908   2.934   2.187   4.539 -0.2377 -1.3681  0.1924
 5786SOL     OW22909   5.217   0.583   2.391 -0.0134 -0.2715 -0.1051
 5786SOL    HW222910   5.252   0.494   2.382  0.4934 -0.0759 -0.1423
 5786SOL    HW322911   5.176   0.584   2.477 -1.2027 -0.9284 -0.6492
 5786SOL    MW422912   5.216   0.572   2.401 -0.1035 -0.3324 -0.1818
 5787SOL     OW22913   3.818   5.990   6.215 -0.3028 -0.9113  0.0275
 5787SOL    HW222914   3.865   6.018   6.293 -0.4451 -1.3634  0.2842
 5787SOL    HW322915   3.866   6.029   6.142  0.4788 -1.3801  0.2822
 5787SOL    MW422916   3.831   5.999   6.216 -0.2184 -1.0328  0.0950
 5788SOL     OW22917   4.349   1.147   1.251  0.2551 -0.2968  0.0249
 5788SOL    HW222918   4.286   1.135   1.322 -0.0271 -1.1008 -0.3415
 5788SOL    HW322919   4.295   1.150   1.172  0.5783  0.4303 -0.1760
 5788SOL    MW422920   4.333   1.146   1.250  0.2605 -0.3069 -0.0500
 5789SOL     OW22921   4.554   2.831   5.158 -0.8764  0.5880  0.5703
 5789SOL    HW222922   4.565   2.757   5.218 -1.7052 -2.9980 -3.1962
 5789SOL    HW322923   4.642   2.867   5.148  0.1674 -1.8182  0.4415
 5789SOL    MW422924   4.567   2.826   5.164 -0.8480 -0.2026  0.0564
 5790SOL     OW22925   5.396   1.903   3.928  0.0836 -0.0772  0.4020
 5790SOL    HW222926   5.465   1.913   3.994  0.9178  1.4937 -0.6273
 5790SOL    HW322927   5.383   1.992   3.894 -0.6592 -0.7529 -1.1913
 5790SOL    MW422928   5.403   1.916   3.932  0.0957  0.0409  0.0560
 5791SOL     OW22929   1.262   5.766   4.799  0.4084  0.0765 -0.0882
 5791SOL    HW222930   1.331   5.702   4.784  1.1361  0.7698  0.2235
 5791SOL    HW322931   1.229   5.747   4.887 -0.6593 -1.0312 -0.7005
 5791SOL    MW422932   1.266   5.755   4.809  0.3635  0.0219 -0.1279
 5792SOL     OW22933   2.599   0.511   5.444 -0.1413  0.1587 -0.0147
 5792SOL    HW222934   2.614   0.589   5.497 -1.2364 -0.6921  1.6293
 5792SOL    HW322935   2.507   0.516   5.420  0.0269 -0.1380 -0.7425
 5792SOL    MW422936   2.589   0.522   5.448 -0.2636  0.0073  0.1062
 5793SOL     OW22937   1.890   3.384   3.154  0.2976  0.5869 -0.2235
 5793SOL    HW222938   1.851   3.382   3.067 -1.7482  0.7990  0.6312
 5793SOL    HW322939   1.953   3.455   3.151 -0.4388  1.2115 -1.2630
 5793SOL    MW422940   1.893   3.393   3.142 -0.0695  0.6973 -0.2479
 5794SOL     OW22941   1.186   0.204   0.614  0.0432 -0.2289 -0.6136
 5794SOL    HW222942   1.215   0.294   0.599  0.9432 -0.3606  0.2396
 5794SOL    HW322943   1.242   0.151   0.557  1.7354 -0.5039  1.1927
 5794SOL    MW422944   1.197   0.209   0.604  0.3852 -0.2826 -0.2627
 5795SOL     OW22945   2.979   2.669   5.744 -0.1900  0.0077  0.0722
 5795SOL    HW222946   2.896   2.635   5.776 -1.2125  2.3745  0.1783
 5795SOL    HW322947   3.020   2.595   5.700 -2.3042 -1.2721  0.1079
 5795SOL    MW422948   2.973   2.655   5.742 -0.6038  0.1511  0.0909
 5796SOL     OW22949   5.286   6.436   4.163 -0.1962 -0.2267  0.5000
 5796SOL    HW222950   5.360   6.407   4.216  0.0837 -0.7188 -0.1481
 5796SOL    HW322951   5.209   6.402   4.210  0.0575 -0.8326  0.4924
 5796SOL    MW422952   5.285   6.428   4.176 -0.1258 -0.3716  0.4135
 5797SOL     OW22953   0.741   2.282   2.616 -0.1795  0.4673  0.2025
 5797SOL    HW222954   0.710   2.340   2.685 -0.6401 -0.3321  0.6914
 5797SOL    HW322955   0.759   2.199   2.661 -3.4967 -1.1246 -1.0170
 5797SOL    MW422956   0.739   2.278   2.631 -0.6779  0.1518  0.1061
 5798SOL     OW22957   5.595   0.819   3.638 -0.3265 -0.5492 -0.0653
 5798SOL    HW222958   5.576   0.893   3.581 -0.8978  1.4992  2.5448
 5798SOL    HW322959   5.687   0.830   3.662 -0.3111 -0.9108  0.0562
 5798SOL    MW422960   5.605   0.830   3.634 -0.3998 -0.3267  0.2951
 5799SOL     OW22961   2.560   3.343   0.646  0.0625 -0.1598  0.6899
 5799SOL    HW222962   2.581   3.436   0.637  1.6749 -0.5618  0.0987
 5799SOL    HW322963   2.623   3.310   0.710  1.0159 -1.3024 -0.7836
 5799SOL    MW422964   2.571   3.351   0.654  0.4010 -0.3636  0.4175
 5800SOL     OW22965   5.190   1.074   4.035 -0.3357 -0.1406 -0.1067
 5800SOL    HW222966   5.175   1.032   3.951  0.6543 -2.0452  0.5844
 5800SOL    HW322967   5.272   1.122   4.023  1.2003 -2.4507  0.3628
 5800SOL    MW422968   5.199   1.075   4.023 -0.0024 -0.6967  0.0464
 5801SOL     OW22969   1.875   0.969   1.582 -0.0466  0.3227 -0.1165
 5801SOL    HW222970   1.921   0.909   1.641  1.0045  0.5444 -0.6691
 5801SOL    HW322971   1.783   0.944   1.587  0.2756 -0.8094  0.2657
 5801SOL    MW422972   1.869   0.958   1.590  0.1346  0.2026 -0.1390
 5802SOL     OW22973   4.214   0.141   0.159  0.5602  0.1429  0.6802
 5802SOL    HW222974   4.272   0.099   0.222 -0.9764 -1.3300  1.1801
 5802SOL    HW322975   4.200   0.075   0.091 -1.4850 -0.0522  1.2196
 5802SOL    MW422976   4.220   0.127   0.158  0.0876 -0.0772  0.8173
 5803SOL     OW22977   3.299   0.117   2.068 -0.2309  0.7073  0.0585
 5803SOL    HW222978   3.337   0.172   2.136 -1.0915  0.3742  0.8280
 5803SOL    HW322979   3.301   0.171   1.989  0.9660  1.0192  0.2826
 5803SOL    MW422980   3.304   0.131   2.067 -0.1865  0.7045  0.1896
 5804SOL     OW22981   0.454   5.839   1.815 -0.6669 -0.3905 -0.7577
 5804SOL    HW222982   0.478   5.759   1.768 -1.1494  0.4326 -2.5118
 5804SOL    HW322983   0.429   5.810   1.902  0.7101 -1.9560 -0.8415
 5804SOL    MW422984   0.454   5.825   1.820 -0.5489 -0.4884 -1.0002
 5805SOL     OW22985   4.146   5.425   1.440 -0.3345  0.0843 -0.0957
 5805SOL    HW222986   4.233   5.460   1.421 -0.0965 -1.0836 -1.3302
 5805SOL    HW322987   4.143   5.342   1.392 -1.8509 -0.2719  0.5611
 5805SOL    MW422988   4.157   5.418   1.431 -0.5032 -0.1168 -0.1719
 5806SOL     OW22989   2.068   6.317   1.065  0.2307 -0.2237 -0.4597
 5806SOL    HW222990   2.010   6.241   1.063  0.3129 -0.2768 -1.6077
 5806SOL    HW322991   2.019   6.384   1.113 -0.7574 -0.2993 -1.3324
 5806SOL    MW422992   2.054   6.316   1.071  0.1112 -0.2407 -0.7263
 5807SOL     OW22993   1.361   5.552   2.091 -0.0441  0.6722  0.4010
 5807SOL    HW222994   1.432   5.594   2.042  1.1607 -0.3750  1.1781
 5807SOL    HW322995   1.405   5.487   2.145 -1.6168 -0.0025  0.9228
 5807SOL    MW422996   1.377   5.549   2.092 -0.0926  0.4450  0.5724
 5808SOL     OW22997   2.773   6.258   3.594  0.4046 -0.1821  0.0569
 5808SOL    HW222998   2.832   6.331   3.612  1.7224 -0.8016 -1.5282
 5808SOL    HW322999   2.807   6.186   3.647  0.2438 -0.1737  0.1736
 5808SOL    MW423000   2.785   6.258   3.604  0.5573 -0.2627 -0.1369
 5809SOL     OW23001   3.087   0.728   4.819 -0.1311 -0.1478 -0.5070
 5809SOL    HW223002   3.077   0.780   4.739 -2.5539  1.0945  0.5042
 5809SOL    HW323003   3.180   0.734   4.840  0.7238 -1.0174 -3.4878
 5809SOL    MW423004   3.098   0.736   4.811 -0.3380 -0.0986 -0.7669
 5810SOL     OW23005   5.386   3.175   4.036 -0.1785 -0.2778  0.2734
 5810SOL    HW223006   5.338   3.205   4.114 -0.6305 -0.1075 -0.0663
 5810SOL    HW323007   5.427   3.254   4.001 -0.9228 -0.1438 -0.3128
 5810SOL    MW423008   5.385   3.189   4.042 -0.3363 -0.2377  0.1513
 5811SOL     OW23009   3.911   5.615   2.858  0.2649 -0.4884  0.8088
 5811SOL    HW223010   3.886   5.694   2.907 -0.3915 -0.2101  0.0541
 5811SOL    HW323011   4.007   5.616   2.859  0.2666  0.0607  1.2143
 5811SOL    MW423012   3.920   5.626   2.865  0.1785 -0.3792  0.7628
 5812SOL     OW23013   0.921   3.775   2.574 -0.2549  0.1812 -0.1727
 5812SOL    HW223014   0.959   3.724   2.502 -1.8686  1.4347 -2.0001
 5812SOL    HW323015   0.860   3.715   2.616  0.8170 -0.6144  0.3156
 5812SOL    MW423016   0.918   3.761   2.570 -0.3264  0.2416 -0.3494
 5813SOL     OW23017   3.342   1.441   2.539  0.0563 -0.2949 -0.4921
 5813SOL    HW223018   3.326   1.518   2.485 -0.8123 -0.4578 -0.4766
 5813SOL    HW323019   3.314   1.368   2.485  0.9089 -0.6201 -0.5228
 5813SOL    MW423020   3.336   1.441   2.525  0.0542 -0.3593 -0.4941
 5814SOL     OW23021   4.006   4.817   4.155 -0.2687 -0.1214  0.0665
 5814SOL    HW223022   4.000   4.776   4.068 -0.9920  0.5545 -0.2212
 5814SOL    HW323023   3.927   4.870   4.161 -0.8998 -1.1685  1.6873
 5814SOL    MW423024   3.995   4.818   4.144 -0.4474 -0.1704  0.2424
 5815SOL     OW23025   5.175   3.640   1.184  1.1765 -0.0575  0.0633
 5815SOL    HW223026   5.165   3.716   1.241 -1.3665 -1.3281  1.5156
 5815SOL    HW323027   5.127   3.663   1.104  0.6685 -0.0184  0.3782
 5815SOL    MW423028   5.167   3.653   1.181  0.7740 -0.2200  0.2965
 5816SOL     OW23029   0.558   2.629   0.405 -0.0034 -0.7890 -0.0900
 5816SOL    HW223030   0.635   2.678   0.377 -0.1629  0.2960  1.2421
 5816SOL    HW323031   0.568   2.543   0.364  1.2632 -0.2588 -0.9568
 5816SOL    MW423032   0.570   2.624   0.396  0.1427 -0.5759 -0.0286
 5817SOL     OW23033   4.013   0.065   5.506  0.0076  0.2386  0.0323
 5817SOL    HW223034   3.952  -0.007   5.521  0.5850 -0.8109 -2.1328
 5817SOL    HW323035   4.085   0.050   5.567 -0.5330 -0.1951  0.5718
 5817SOL    MW423036   4.015   0.054   5.516  0.0125  0.0429 -0.1822
 5818SOL     OW23037   4.235   5.677   1.554  0.3535 -0.5004  0.3072
 5818SOL    HW223038   4.303   5.677   1.622  0.0917 -0.5280  0.5673
 5818SOL    HW323039   4.201   5.588   1.554  1.9134 -1.1636 -1.4222
 5818SOL    MW423040   4.240   5.665   1.563  0.5248 -0.5915  0.1134
 5819SOL     OW23041   0.689   3.380   5.085 -0.3135 -0.3700 -0.3383
 5819SOL    HW223042   0.764   3.366   5.142 -0.6463 -0.5226  0.0683
 5819SOL    HW323043   0.709   3.462   5.039 -0.1573 -0.1151  0.1834
 5819SOL    MW423044   0.702   3.389   5.086 -0.3368 -0.3565 -0.2159
 5820SOL     OW23045   3.879   2.049   5.435  0.1023  0.1095 -0.4822
 5820SOL    HW223046   3.798   2.054   5.486 -0.5289  0.6199 -1.5084
 5820SOL    HW323047   3.934   1.988   5.484 -1.4258 -1.3317 -0.4682
 5820SOL    MW423048   3.876   2.041   5.448 -0.1826 -0.0133 -0.6158
 5821SOL     OW23049   0.792   5.681   0.449  0.0085  0.9238  0.0183
 5821SOL    HW223050   0.802   5.586   0.458 -0.1224  1.0697  2.5469
 5821SOL    HW323051   0.706   5.692   0.409  0.0253 -0.0007 -0.3127
 5821SOL    MW423052   0.782   5.670   0.445 -0.0066  0.8210  0.3082
 5822SOL     OW23053   6.229   5.300   3.648 -0.3696 -0.0820  0.3235
 5822SOL    HW223054   6.227   5.342   3.563  0.0333  0.8901  0.7764
 5822SOL    HW323055   6.137   5.287   3.672 -0.4824 -0.3931 -0.2583
 5822SOL    MW423056   6.217   5.304   3.640 -0.3313  0.0052  0.3065
 5823SOL     OW23057   1.465   3.252   4.320  0.4499 -0.3209  0.3149
 5823SOL    HW223058   1.449   3.345   4.334  0.9310 -0.3899  1.4387
 5823SOL    HW323059   1.497   3.246   4.230 -2.5954  0.1903 -0.9104
 5823SOL    MW423060   1.467   3.264   4.310  0.1116 -0.2626  0.3015
 5824SOL     OW23061   0.443   3.682   4.591  0.3346  0.5815 -0.4935
 5824SOL    HW223062   0.369   3.669   4.532  0.6775  0.3007 -0.8665
 5824SOL    HW323063   0.411   3.653   4.676  0.7637 -1.9560 -1.1057
 5824SOL    MW423064   0.429   3.677   4.594  0.4364  0.2097 -0.6235
 5825SOL     OW23065   5.238   3.429   4.478  0.0893  0.3144  0.3031
 5825SOL    HW223066   5.168   3.396   4.534 -0.5653  2.6055  0.9546
 5825SOL    HW323067   5.213   3.520   4.459  2.3251  0.8576 -0.3964
 5825SOL    MW423068   5.225   3.437   4.483  0.2980  0.6884  0.2967
 5826SOL     OW23069   4.332   0.087   5.547  0.5375  0.1634 -0.2204
 5826SOL    HW223070   4.343   0.078   5.452  2.0303  1.9836 -0.2661
 5826SOL    HW323071   4.417   0.066   5.583  0.4910  1.2215  0.5585
 5826SOL    MW423072   4.344   0.083   5.539  0.7283  0.5432 -0.1237
 5827SOL     OW23073   0.044   5.255   2.894  0.5003  0.4576  0.7547
 5827SOL    HW223074   0.036   5.350   2.885 -2.4193  0.1492 -1.0634
 5827SOL    HW323075   0.039   5.238   2.988  0.0223  2.0160  1.0244
 5827SOL    MW423076   0.042   5.265   2.905  0.0520  0.6225  0.5504
 5828SOL     OW23077   5.334   2.402   5.383 -0.0649 -0.2240 -0.0378
 5828SOL    HW223078   5.242   2.413   5.360 -0.0564 -0.0589  0.0089
 5828SOL    HW323079   5.336   2.409   5.479 -0.0569 -0.5950 -0.0092
 5828SOL    MW423080   5.322   2.404   5.393 -0.0627 -0.2512 -0.0279
 5829SOL     OW23081   4.034   2.126   2.876  0.7194  0.4252 -0.0916
 5829SOL    HW223082   4.068   2.074   2.803 -2.8508 -1.9768 -0.3196
 5829SOL    HW323083   3.964   2.179   2.837  0.3706  0.9232  1.1742
 5829SOL    MW423084   4.029   2.126   2.861  0.2023  0.1740  0.0453
 5830SOL     OW23085   0.603   3.449   4.591 -0.5512  0.2639  0.4447
 5830SOL    HW223086   0.590   3.412   4.678  0.9248  1.4372  1.2069
 5830SOL    HW323087   0.571   3.539   4.598  2.6683  1.4929  0.8510
 5830SOL    MW423088   0.597   3.456   4.603  0.0683  0.5809  0.5989
 5831SOL     OW23089   4.747   4.875   0.062  0.4354  0.2464  0.1540
 5831SOL    HW223090   4.775   4.904  -0.025  2.1547  0.3656  0.6929
 5831SOL    HW323091   4.738   4.780   0.054  0.3845  0.2804 -0.2170
 5831SOL    MW423092   4.750   4.867   0.050  0.6555  0.2666  0.1762
 5832SOL     OW23093   6.424   4.739   6.287 -0.1836  0.2501 -0.0209
 5832SOL    HW223094   6.441   4.715   6.379  1.0212 -1.1484 -0.5575
 5832SOL    HW323095   6.495   4.697   6.239 -0.5366  1.3466 -1.5665
 5832SOL    MW423096   6.436   4.731   6.293 -0.0712  0.2103 -0.2956
 5833SOL     OW23097   3.617   3.073   2.545 -0.4889 -0.1469  0.8430
 5833SOL    HW223098   3.568   3.058   2.626 -0.1296 -1.1053  0.8893
 5833SOL    HW323099   3.704   3.038   2.562 -0.9244 -2.0821 -0.5560
 5833SOL    MW423100   3.622   3.067   2.558 -0.4989 -0.5287  0.6646
 5834SOL     OW23101   0.501   2.772   2.366  0.2305  0.5776 -0.6958
 5834SOL    HW223102   0.486   2.680   2.346 -1.4552  1.0483 -1.8165
 5834SOL    HW323103   0.432   2.795   2.428  1.4186  0.8014  0.6010
 5834SOL    MW423104   0.490   2.763   2.372  0.1649  0.6692 -0.6725
 5835SOL     OW23105   5.345   5.047   3.218 -0.2059  0.1816  0.3099
 5835SOL    HW223106   5.287   4.971   3.223 -0.3958  0.2503 -0.6145
 5835SOL    HW323107   5.304   5.113   3.274 -0.6241 -0.0299  0.2541
 5835SOL    MW423108   5.332   5.046   3.226 -0.2861  0.1628  0.1806
 5836SOL     OW23109   2.322   0.210   6.223 -0.0642  0.0358 -0.4643
 5836SOL    HW223110   2.246   0.158   6.252 -0.4789 -0.3482 -2.1526
 5836SOL    HW323111   2.292   0.253   6.143  0.3461  2.7480  0.7115
 5836SOL    MW423112   2.308   0.209   6.216 -0.0648  0.3430 -0.5320
 5837SOL     OW23113   4.595   4.454   4.493 -0.2454 -0.1203 -0.4006
 5837SOL    HW223114   4.681   4.467   4.453 -0.4508 -3.8894 -2.6293
 5837SOL    HW323115   4.612   4.456   4.587  2.2940 -0.5224 -0.7654
 5837SOL    MW423116   4.609   4.456   4.500  0.0625 -0.6706 -0.7428
 5838SOL     OW23117   5.335   4.077   2.496 -0.0512  0.4233  0.1246
 5838SOL    HW223118   5.331   4.034   2.410  0.4388  0.4821  0.0681
 5838SOL    HW323119   5.356   4.168   2.476  1.8402  0.0780  0.3819
 5838SOL    MW423120   5.337   4.083   2.482  0.2630  0.3855  0.1511
 5839SOL     OW23121   0.088   0.131   1.979 -0.1337  0.4379  0.6396
 5839SOL    HW223122   0.006   0.108   1.936  0.5133 -0.9698  0.1127
 5839SOL    HW323123   0.099   0.067   2.049  0.9750  0.0134  0.1019
 5839SOL    MW423124   0.079   0.120   1.983  0.0980  0.1961  0.4991
 5840SOL     OW23125   3.992   5.105   6.066  0.4160 -0.0523  0.4372
 5840SOL    HW223126   3.954   5.116   6.153  1.9347  2.9355  0.8332
 5840SOL    HW323127   3.943   5.166   6.011  1.2016  0.0093 -0.2076
 5840SOL    MW423128   3.981   5.115   6.070  0.7200  0.3501  0.4044
 5841SOL     OW23129   4.872   0.757   5.939 -0.1849  0.3740 -0.1771
 5841SOL    HW223130   4.799   0.775   5.998 -0.2971  1.4957 -0.6468
 5841SOL    HW323131   4.830   0.730   5.857 -0.1299  1.8751 -0.7341
 5841SOL    MW423132   4.857   0.756   5.936 -0.1924  0.7201 -0.3126
 5842SOL     OW23133   2.094   1.094   2.275 -0.9410 -0.4788 -0.7898
 5842SOL    HW223134   2.012   1.140   2.256 -0.3773  2.6673  3.0242
 5842SOL    HW323135   2.069   1.029   2.341 -0.5933 -0.6141 -0.7889
 5842SOL    MW423136   2.080   1.091   2.282 -0.8207 -0.0816 -0.2865
 5843SOL     OW23137   5.061   0.572   0.655 -0.0281 -0.4682 -0.1892
 5843SOL    HW223138   4.974   0.533   0.664 -0.6296  0.8645  0.1628
 5843SOL    HW323139   5.087   0.552   0.565 -1.3085  0.2447 -0.7549
 5843SOL    MW423140   5.053   0.564   0.644 -0.2764 -0.1983 -0.2174
 5844SOL     OW23141   1.527   0.791   4.990 -0.1061 -0.2141  0.4394
 5844SOL    HW223142   1.519   0.886   4.988 -1.5467 -0.3081 -0.3158
 5844SOL    HW323143   1.460   0.761   4.927 -1.6323 -1.8138  2.6789
 5844SOL    MW423144   1.517   0.800   4.981 -0.4975 -0.4376  0.6352
 5845SOL     OW23145   2.599   0.126   6.207  0.1485 -0.5197  0.1838
 5845SOL    HW223146   2.625   0.172   6.287 -0.1900  1.3128 -0.7213
 5845SOL    HW323147   2.509   0.153   6.191 -0.4515 -2.3770  0.1953
 5845SOL    MW423148   2.591   0.135   6.215  0.0247 -0.5230  0.0659
 5846SOL     OW23149   1.163   3.594   3.605  0.2558 -0.3189 -0.2855
 5846SOL    HW223150   1.258   3.579   3.601  0.2850 -0.0518 -0.6029
 5846SOL    HW323151   1.151   3.681   3.569  0.0780  0.4901  1.6272
 5846SOL    MW423152   1.174   3.603   3.599  0.2362 -0.1769 -0.0750
 5847SOL     OW23153   4.097   4.999   5.009 -0.5332  0.0937 -0.2151
 5847SOL    HW223154   4.002   4.989   5.004 -0.3880 -0.8104 -2.6794
 5847SOL    HW323155   4.128   4.915   5.043 -0.5370 -0.3372 -1.2347
 5847SOL    MW423156   4.088   4.987   5.013 -0.5146 -0.0824 -0.6748
 5848SOL     OW23157   5.044   2.778   1.394  0.3025 -0.4023  0.4734
 5848SOL    HW223158   5.045   2.794   1.489 -1.1657 -0.3982  0.5227
 5848SOL    HW323159   5.131   2.803   1.364  0.8494 -0.5751  1.8512
 5848SOL    MW423160   5.055   2.784   1.403  0.1810 -0.4246  0.6616
 5849SOL     OW23161   0.520   2.103   4.985  0.5656  0.3244  0.6577
 5849SOL    HW223162   0.431   2.098   5.020  1.1013  1.3600  2.2894
 5849SOL    HW323163   0.531   2.195   4.960  0.7573 -0.0658 -0.7960
 5849SOL    MW423164   0.510   2.115   4.986  0.6616  0.4095  0.6812
 5850SOL     OW23165   6.337   1.626   5.273 -0.5437 -0.7265  0.0667
 5850SOL    HW223166   6.382   1.581   5.201 -1.0162 -0.0565 -0.6655
 5850SOL    HW323167   6.370   1.584   5.352  0.0179 -1.4531 -0.5408
 5850SOL    MW423168   6.347   1.615   5.274 -0.5319 -0.7340 -0.1100
 5851SOL     OW23169   6.215   4.539   1.349 -0.5969 -0.4077  0.0729
 5851SOL    HW223170   6.287   4.583   1.303 -1.1443 -0.4854 -0.8889
 5851SOL    HW323171   6.150   4.608   1.362  0.4759  0.1910  2.8481
 5851SOL    MW423172   6.216   4.554   1.345 -0.5276 -0.3389  0.3121
 5852SOL     OW23173   5.105   1.186   2.496 -0.1668 -0.5890 -0.7870
 5852SOL    HW223174   5.183   1.196   2.551 -0.9549  1.3160  0.0844
 5852SOL    HW323175   5.128   1.227   2.413 -0.0186 -0.6235 -0.7626
 5852SOL    MW423176   5.118   1.193   2.492 -0.2512 -0.3422 -0.6688
 5853SOL     OW23177   3.428   5.881   4.173 -0.3255 -0.0770  0.2353
 5853SOL    HW223178   3.425   5.787   4.157  0.0698  0.1601 -1.4173
 5853SOL    HW323179   3.492   5.915   4.110 -0.2702  1.2722  0.9674
 5853SOL    MW423180   3.436   5.873   4.163 -0.2661  0.1323  0.1139
 5854SOL     OW23181   0.610   2.868   6.030  0.1628  0.2792  0.0649
 5854SOL    HW223182   0.575   2.779   6.041 -1.2923  0.5120 -2.0202
 5854SOL    HW323183   0.696   2.855   5.990 -0.1858 -0.2129 -0.5449
 5854SOL    MW423184   0.617   2.854   6.026 -0.0752  0.2450 -0.2906
 5855SOL     OW23185   3.877   2.931   5.833 -0.2716  0.2351 -0.2052
 5855SOL    HW223186   3.794   2.977   5.825 -0.9583 -1.0504 -0.9508
 5855SOL    HW323187   3.900   2.937   5.926 -1.1261  0.7304 -0.0197
 5855SOL    MW423188   3.869   2.938   5.844 -0.4750  0.1308 -0.2791
 5856SOL     OW23189   6.296   5.965   4.400  0.0138 -0.3449 -0.6475
 5856SOL    HW223190   6.240   6.041   4.414  0.4482  0.2759 -2.1005
 5856SOL    HW323191   6.330   5.976   4.311  1.1192 -1.5670 -0.4090
 5856SOL    MW423192   6.293   5.976   4.390  0.2169 -0.4243 -0.8077
 5857SOL     OW23193   1.511   1.414   1.532  0.1830 -0.0158 -0.1194
 5857SOL    HW223194   1.451   1.383   1.464 -1.3547 -1.2247  1.6638
 5857SOL    HW323195   1.550   1.335   1.567  0.9688  0.5896  0.3940
 5857SOL    MW423196   1.508   1.400   1.528  0.0838 -0.0954  0.1836
 5858SOL     OW23197   3.460   3.773   3.771 -0.9538 -0.2030 -0.6545
 5858SOL    HW223198   3.374   3.810   3.789 -0.4426  0.1002  1.4014
 5858SOL    HW323199   3.519   3.820   3.830  0.4944 -0.9328 -1.4862
 5858SOL    MW423200   3.456   3.784   3.781 -0.6953 -0.2593 -0.4930
 5859SOL     OW23201   2.226   4.460   1.676  0.4790 -0.4050  0.1624
 5859SOL    HW223202   2.254   4.527   1.614 -1.0882 -1.9079 -2.3675
 5859SOL    HW323203   2.294   4.393   1.672 -0.2451 -1.0963 -0.9951
 5859SOL    MW423204   2.239   4.460   1.667  0.1767 -0.6945 -0.3241
 5860SOL     OW23205   1.784   0.547   5.208  0.1108  0.3354 -0.0699
 5860SOL    HW223206   1.722   0.576   5.275 -1.5644 -1.5608 -0.7037
 5860SOL    HW323207   1.840   0.484   5.253 -1.0334 -0.9602 -0.3740
 5860SOL    MW423208   1.783   0.543   5.223 -0.2612 -0.0857 -0.1937
 5861SOL     OW23209   5.569   0.572   3.490  0.0245 -0.0907 -0.3597
 5861SOL    HW223210   5.581   0.497   3.549  1.3919 -0.1459 -0.6642
 5861SOL    HW323211   5.570   0.648   3.549  0.8693 -0.1787 -0.2477
 5861SOL    MW423212   5.571   0.572   3.506  0.3164 -0.1096 -0.3851
 5862SOL     OW23213   2.318   0.137   1.061 -0.2796 -0.0175  0.0572
 5862SOL    HW223214   2.410   0.118   1.047 -0.3882 -0.2378 -0.3664
 5862SOL    HW323215   2.271   0.079   1.001 -0.6788  0.3551 -0.0059
 5862SOL    MW423216   2.324   0.127   1.051 -0.3466  0.0026 -0.0070
 5863SOL     OW23217   1.097   6.128   5.271 -0.1691  0.0799 -0.3918
 5863SOL    HW223218   1.058   6.209   5.240 -0.5679 -0.0352 -0.1919
 5863SOL    HW323219   1.167   6.155   5.330 -1.9532  0.2833  1.7584
 5863SOL    MW423220   1.101   6.142   5.275 -0.4571  0.0915 -0.0817
 5864SOL     OW23221   1.700   2.835   5.001 -0.0718  0.4473  0.4325
 5864SOL    HW223222   1.684   2.816   5.094 -1.3554 -0.6264  0.0213
 5864SOL    HW323223   1.630   2.789   4.955  0.7996  0.6031 -1.1045
 5864SOL    MW423224   1.689   2.826   5.007 -0.1262  0.3262  0.1755
 5865SOL     OW23225   1.286   4.295   0.103  0.0217 -0.0489  0.4634
 5865SOL    HW223226   1.266   4.222   0.044 -0.5081  0.0523  0.5162
 5865SOL    HW323227   1.342   4.256   0.170 -1.0633 -0.6540  1.0487
 5865SOL    MW423228   1.291   4.280   0.104 -0.1913 -0.1154  0.5476
 5866SOL     OW23229   4.967   4.707   5.578  0.2180 -0.2369  0.2725
 5866SOL    HW223230   4.885   4.658   5.589  0.3215 -0.3574  0.5123
 5866SOL    HW323231   4.962   4.778   5.641 -1.0749  1.6284 -1.7789
 5866SOL    MW423232   4.955   4.710   5.588  0.0610 -0.0067  0.0335
 5867SOL     OW23233   3.343   1.599   5.274  0.0774  0.6296  0.7371
 5867SOL    HW223234   3.431   1.635   5.274  0.1459  0.4829 -0.1386
 5867SOL    HW323235   3.324   1.581   5.366  2.9338 -4.2253  0.7292
 5867SOL    MW423236   3.352   1.601   5.286  0.4633 -0.0303  0.6205
 5868SOL     OW23237   0.297   1.066   0.944  0.0663 -0.9332  0.2875
 5868SOL    HW223238   0.278   0.973   0.959  0.9265 -1.0056  1.0067
 5868SOL    HW323239   0.385   1.066   0.906  0.8012 -0.3347  1.9052
 5868SOL    MW423240   0.306   1.053   0.941  0.2768 -0.8638  0.5958
 5869SOL     OW23241   4.307   6.027   1.913 -0.6419  0.9236  0.1118
 5869SOL    HW223242   4.398   5.997   1.907 -0.7279  0.6886 -0.0396
 5869SOL    HW323243   4.301   6.069   1.999 -0.8936 -0.8116  0.9855
 5869SOL    MW423244   4.318   6.028   1.924 -0.6864  0.6637  0.2071
 5870SOL     OW23245   5.536   5.451   5.599  0.0959 -0.3574  0.2954
 5870SOL    HW223246   5.444   5.445   5.571 -0.1835 -1.7681  1.4100
 5870SOL    HW323247   5.555   5.366   5.638  0.8514  0.9521  3.0917
 5870SOL    MW423248   5.526   5.439   5.601  0.1587 -0.3707  0.8114
 5871SOL     OW23249   5.382   0.877   2.872 -0.0752  0.2931 -0.3561
 5871SOL    HW223250   5.468   0.909   2.845  1.3150 -2.7545  0.0158
 5871SOL    HW323251   5.380   0.888   2.967  0.2529 -0.3833 -0.2696
 5871SOL    MW423252   5.393   0.883   2.881  0.1515 -0.1983 -0.2956
 5872SOL     OW23253   3.603   3.594   1.623 -0.5368  0.3074  0.0616
 5872SOL    HW223254   3.644   3.508   1.632 -0.1642  0.5170  0.3931
 5872SOL    HW323255   3.675   3.657   1.634 -0.7185  0.6545 -0.6600
 5872SOL    MW423256   3.618   3.591   1.625 -0.5116  0.3808  0.0102
 5873SOL     OW23257   5.521   3.900   5.552 -0.1119 -0.0143  0.8079
 5873SOL    HW223258   5.606   3.918   5.511 -1.0337 -0.4692 -1.4447
 5873SOL    HW323259   5.533   3.816   5.596  0.9732  0.5866  1.7113
 5873SOL    MW423260   5.534   3.891   5.553 -0.0904  0.0050  0.6299
 5874SOL     OW23261   5.586   6.195   2.478 -0.3408  0.1736  0.6445
 5874SOL    HW223262   5.587   6.215   2.384 -1.3993 -1.9389  0.1297
 5874SOL    HW323263   5.536   6.267   2.516 -2.0607 -0.1799 -0.7915
 5874SOL    MW423264   5.580   6.207   2.471 -0.7074 -0.1518  0.3871
 5875SOL     OW23265   4.322   4.813   4.750  0.3452 -0.3835  0.0230
 5875SOL    HW223266   4.383   4.766   4.694 -0.9358 -0.4945 -1.3428
 5875SOL    HW323267   4.365   4.897   4.766  1.3850 -0.9165  0.1287
 5875SOL    MW423268   4.336   4.818   4.745  0.3133 -0.4685 -0.1433
 5876SOL     OW23269   3.466   4.120   3.989  0.3514 -0.2582  0.8708
 5876SOL    HW223270   3.518   4.044   3.965  2.5768  1.2319  0.7327
 5876SOL    HW323271   3.400   4.127   3.920 -0.2345 -2.3010  1.1624
 5876SOL    MW423272   3.464   4.111   3.977  0.5677 -0.3311  0.8910
 5877SOL     OW23273   4.684   6.210   6.026  0.2521 -0.6638 -0.0988
 5877SOL    HW223274   4.676   6.170   5.940  0.5688 -1.2839  0.1578
 5877SOL    HW323275   4.605   6.184   6.074 -0.4482  0.5473 -0.5356
 5877SOL    MW423276   4.673   6.202   6.021  0.2015 -0.5859 -0.1226
 5878SOL     OW23277   2.362   1.679   0.933  0.2818  0.0889 -0.4136
 5878SOL    HW223278   2.414   1.726   0.997  1.2461 -0.8511 -0.4824
 5878SOL    HW323279   2.324   1.606   0.981 -0.6407  0.5099 -0.4681
 5878SOL    MW423280   2.364   1.676   0.948  0.2873  0.0204 -0.4298
 5879SOL     OW23281   2.588   4.956   3.551 -0.1452  0.1594  0.0295
 5879SOL    HW223282   2.499   4.976   3.521  0.2728  0.9277 -0.7465
 5879SOL    HW323283   2.630   4.914   3.476  0.3255  0.3277  0.1924
 5879SOL    MW423284   2.582   4.953   3.537 -0.0279  0.2830 -0.0514
 5880SOL     OW23285   4.425   0.749   5.195  0.2296 -0.2584 -0.0071
 5880SOL    HW223286   4.483   0.712   5.129  0.4055  1.3572 -0.7971
 5880SOL    HW323287   4.484   0.794   5.256 -0.1233  1.2518 -0.7247
 5880SOL    MW423288   4.441   0.750   5.194  0.2063  0.1540 -0.2060
 5881SOL     OW23289   5.057   5.212   0.562 -0.3060 -0.5699 -0.1910
 5881SOL    HW223290   5.114   5.241   0.491 -1.3799  0.9814 -0.4718
 5881SOL    HW323291   5.109   5.226   0.642  0.0300 -0.0451 -0.4992
 5881SOL    MW423292   5.072   5.218   0.563 -0.4034 -0.2960 -0.2687
 5882SOL     OW23293   1.103   6.247   0.574 -0.1254  0.4052  0.0637
 5882SOL    HW223294   1.044   6.322   0.565 -1.4327 -0.3322  1.7623
 5882SOL    HW323295   1.166   6.275   0.641 -0.2483  0.2145  0.2609
 5882SOL    MW423296   1.103   6.261   0.582 -0.3141  0.2828  0.3138
 5883SOL     OW23297   4.449   1.347   4.396 -0.0038  0.7274 -0.0750
 5883SOL    HW223298   4.508   1.349   4.321  0.5085 -1.9118  0.1566
 5883SOL    HW323299   4.471   1.266   4.442 -1.6818  1.2437  1.8077
 5883SOL    MW423300   4.460   1.337   4.392 -0.1576  0.4473  0.2040
 5884SOL     OW23301   0.658   1.250   1.312  0.3286 -0.2573 -0.0359
 5884SOL    HW223302   0.667   1.161   1.279 -1.4154 -0.4409 -0.1074
 5884SOL    HW323303   0.732   1.261   1.372  1.7406 -1.0157 -1.5445
 5884SOL    MW423304   0.669   1.240   1.316  0.2848 -0.3816 -0.2444
 5885SOL     OW23305   6.253   2.924   0.300  0.5607 -0.1695  0.1258
 5885SOL    HW223306   6.225   2.883   0.218  0.5185 -0.9289  0.5136
 5885SOL    HW323307   6.239   2.857   0.366 -0.1089  0.6874  0.8804
 5885SOL    MW423308   6.247   2.910   0.298  0.4668 -0.1566  0.2765
 5886SOL     OW23309   0.261   6.159   3.564 -0.3121 -0.1216  0.2937
 5886SOL    HW223310   0.230   6.232   3.618  0.1204  0.7960 -0.6587
 5886SOL    HW323311   0.183   6.131   3.515  0.1938  2.0782 -1.9770
 5886SOL    MW423312   0.247   6.165   3.565 -0.1883  0.2897 -0.1316
 5887SOL     OW23313   5.433   1.160   3.077 -0.0372 -0.0786 -0.0036
 5887SOL    HW223314   5.474   1.241   3.107 -0.1911 -0.4504  1.2657
 5887SOL    HW323315   5.349   1.187   3.040 -0.8918  0.1956  2.0351
 5887SOL    MW423316   5.427   1.174   3.076 -0.1702 -0.0914  0.4328
 5888SOL     OW23317   6.182   0.851   5.220 -0.2520  0.1711  0.0770
 5888SOL    HW223318   6.116   0.900   5.171  0.1634 -0.4870 -1.1901
 5888SOL    HW323319   6.264   0.872   5.178  0.2277  0.1629  0.9798
 5888SOL    MW423320   6.184   0.860   5.208 -0.1339  0.0832  0.0289
 5889SOL     OW23321   1.372   1.886   5.903  0.1743  0.4161 -0.1196
 5889SOL    HW223322   1.348   1.893   5.811  0.0453 -0.0356 -0.1262
 5889SOL    HW323323   1.441   1.950   5.916 -1.0373  1.7579 -0.1037
 5889SOL    MW423324   1.378   1.895   5.893 -0.0026  0.5336 -0.1184
 5890SOL     OW23325   0.644   0.600   1.231  0.6730  0.4410  0.7913
 5890SOL    HW223326   0.622   0.650   1.153 -0.0934 -0.4461  0.4289
 5890SOL    HW323327   0.715   0.542   1.204  1.6628  1.4011  1.2506
 5890SOL    MW423328   0.650   0.599   1.217  0.7025  0.4506  0.8041
 5891SOL     OW23329   4.660   3.927   2.515 -0.5954  0.0174  0.4018
 5891SOL    HW223330   4.639   3.897   2.426  0.2885 -0.6566  0.4049
 5891SOL    HW323331   4.752   3.954   2.509 -0.5009 -0.1369  1.1358
 5891SOL    MW423332   4.669   3.926   2.502 -0.4663 -0.0919  0.4990
 5892SOL     OW23333   0.794   0.351   5.345 -0.0237 -0.6265  0.3338
 5892SOL    HW223334   0.698   0.349   5.346 -0.1817  2.2071  2.1392
 5892SOL    HW323335   0.819   0.271   5.392 -1.5376 -0.9262  0.7114
 5892SOL    MW423336   0.784   0.340   5.351 -0.2443 -0.2922  0.6218
 5893SOL     OW23337   0.250   3.336   5.787 -0.4416  0.0533 -0.1387
 5893SOL    HW223338   0.333   3.383   5.778 -1.5693  2.9597  2.5659
 5893SOL    HW323339   0.191   3.380   5.726 -0.9750  0.8746  0.9249
 5893SOL    MW423340   0.254   3.348   5.778 -0.6608  0.5451  0.3585
 5894SOL     OW23341   0.024   3.798   3.299 -0.1268 -0.2578 -0.2354
 5894SOL    HW223342   0.033   3.802   3.394 -1.5661  1.0358 -0.1180
 5894SOL    HW323343   0.108   3.762   3.269  0.8736  0.5600  1.4160
 5894SOL    MW423344   0.036   3.793   3.308 -0.1847  0.0208 -0.0021
 5895SOL     OW23345   3.490   1.584   0.992  0.0694 -0.0591  0.2186
 5895SOL    HW223346   3.504   1.490   0.999 -0.9342 -0.5424 -2.7864
 5895SOL    HW323347   3.395   1.595   0.994 -0.1022  0.3060 -3.2399
 5895SOL    MW423348   3.480   1.573   0.993 -0.0856 -0.0747 -0.6342
 5896SOL     OW23349   3.721   6.338   3.513  0.4659  0.0578 -0.1219
 5896SOL    HW223350   3.685   6.249   3.521  0.7724 -0.0177  0.4631
 5896SOL    HW323351   3.796   6.339   3.573  0.1588  0.8713  0.2637
 5896SOL    MW423352   3.726   6.326   3.522  0.4658  0.1552  0.0062
 5897SOL     OW23353   0.858   1.643   1.036 -0.0427 -1.1378  0.4675
 5897SOL    HW223354   0.776   1.691   1.048  0.7402  1.0330 -1.9156
 5897SOL    HW323355   0.837   1.553   1.061 -3.3792 -0.8219 -0.7414
 5897SOL    MW423356   0.844   1.638   1.041 -0.3796 -0.8097 -0.0064
 5898SOL     OW23357   1.478   4.651   5.465 -0.1873  0.3531 -0.5092
 5898SOL    HW223358   1.387   4.675   5.446  0.1891  1.4299 -1.1025
 5898SOL    HW323359   1.488   4.666   5.559 -1.4262 -2.7392  0.2405
 5898SOL    MW423360   1.468   4.656   5.475 -0.3011  0.0872 -0.4885
 5899SOL     OW23361   4.327   3.953   5.182  0.1204 -0.0006  0.0602
 5899SOL    HW223362   4.354   4.045   5.172 -0.7092  0.1959 -0.4936
 5899SOL    HW323363   4.310   3.943   5.276  0.2829  0.3993  0.1344
 5899SOL    MW423364   4.328   3.964   5.193  0.0324  0.0781 -0.0031
 5900SOL     OW23365   2.048   1.796   1.103 -0.7599 -0.3905 -0.0317
 5900SOL    HW223366   2.007   1.814   1.187  0.2557  0.6478  0.2488
 5900SOL    HW323367   2.048   1.880   1.057  1.0390 -0.3521 -0.0250
 5900SOL    MW423368   2.042   1.809   1.108 -0.3886 -0.2484  0.0062
 5901SOL     OW23369   0.554   5.660   4.039 -0.5697 -0.0394  0.3418
 5901SOL    HW223370   0.517   5.593   3.980  2.8027  0.4804 -2.7203
 5901SOL    HW323371   0.548   5.741   3.989  1.1082  0.7362  1.3369
 5901SOL    MW423372   0.548   5.662   4.025  0.0966  0.1315  0.0691
 5902SOL     OW23373   4.869   5.689   1.948  0.5234  0.2476  0.4543
 5902SOL    HW223374   4.916   5.718   1.870  1.9723 -0.5720  0.9903
 5902SOL    HW323375   4.928   5.628   1.991 -0.9973 -0.7462  1.2408
 5902SOL    MW423376   4.883   5.685   1.944  0.5139  0.0084  0.6288
 5903SOL     OW23377   3.210   4.811   3.344  0.2426 -0.3504 -0.2417
 5903SOL    HW223378   3.157   4.819   3.424  0.0203 -0.6721 -0.3508
 5903SOL    HW323379   3.207   4.717   3.324  0.4249 -0.2912 -0.5420
 5903SOL    MW423380   3.202   4.799   3.352  0.2373 -0.3850 -0.2957
 5904SOL     OW23381   2.350   1.180   0.345 -0.2318  0.4035 -0.0261
 5904SOL    HW223382   2.417   1.244   0.322 -1.3548  1.3379 -0.8293
 5904SOL    HW323383   2.297   1.171   0.266  0.3212 -2.1067 -0.1658
 5904SOL    MW423384   2.352   1.187   0.332 -0.3070  0.1956 -0.1505
 5905SOL     OW23385   1.727   5.243   2.471  0.6216 -0.4111  0.1507
 5905SOL    HW223386   1.651   5.186   2.479  0.8879 -0.9034 -0.7022
 5905SOL    HW323387   1.733   5.263   2.377  1.0210  0.3507  0.3244
 5905SOL    MW423388   1.718   5.238   2.460  0.7095 -0.3756  0.0611
 5906SOL     OW23389   2.735   6.000   3.096 -0.1346  0.2368 -0.4718
 5906SOL    HW223390   2.810   6.048   3.061 -0.3816  2.5671  1.9134
 5906SOL    HW323391   2.669   6.004   3.026  1.0960  0.2206 -1.6695
 5906SOL    MW423392   2.736   6.007   3.082 -0.0048  0.5421 -0.3151
 5907SOL     OW23393   2.628   4.482   0.462  0.0845 -0.0881 -0.1707
 5907SOL    HW223394   2.578   4.524   0.391  0.3522  0.7783  0.1422
 5907SOL    HW323395   2.660   4.401   0.423  0.3097  0.4189 -1.0762
 5907SOL    MW423396   2.625   4.477   0.447  0.1496  0.0931 -0.2489
 5908SOL     OW23397   5.965   5.110   1.726 -0.3898  0.4900 -0.1546
 5908SOL    HW223398   6.003   5.053   1.792 -0.2908  0.8537  0.1079
 5908SOL    HW323399   5.888   5.063   1.695 -0.1073  0.0562 -0.2014
 5908SOL    MW423400   5.960   5.096   1.731 -0.3395  0.4808 -0.1261
 5909SOL     OW23401   6.258   1.650   1.313 -0.6980  0.3077 -0.5342
 5909SOL    HW223402   6.240   1.596   1.390 -1.2021  0.2364 -0.6951
 5909SOL    HW323403   6.194   1.721   1.319 -1.0252  0.0655 -1.1098
 5909SOL    MW423404   6.247   1.652   1.324 -0.8077  0.2663 -0.6314
 5910SOL     OW23405   0.212   5.797   3.171  0.1894  0.1398 -0.5530
 5910SOL    HW223406   0.250   5.730   3.114  1.4885 -0.3757  0.8567
 5910SOL    HW323407   0.122   5.766   3.186 -0.3971  0.5893 -2.7034
 5910SOL    MW423408   0.205   5.784   3.165  0.2834  0.1311 -0.6508
 5911SOL     OW23409   5.478   2.222   6.127 -0.1467 -0.5736  0.5381
 5911SOL    HW223410   5.389   2.212   6.162 -0.9967  0.9235 -1.0536
 5911SOL    HW323411   5.474   2.180   6.041  0.4426  0.2113  0.1197
 5911SOL    MW423412   5.466   2.215   6.120 -0.1811 -0.2725  0.2729
 5912SOL     OW23413   1.726   2.298   4.475  0.0966 -0.4544 -0.0386
 5912SOL    HW223414   1.765   2.210   4.479  1.4451  0.0798 -0.9528
 5912SOL    HW323415   1.784   2.348   4.418 -2.2771  0.2419 -1.9777
 5912SOL    MW423416   1.739   2.293   4.468 -0.0387 -0.2921 -0.4151
 5913SOL     OW23417   2.072   0.363   1.951 -0.7212 -0.0135 -0.1967
 5913SOL    HW223418   2.116   0.299   1.894 -1.9912 -0.6252 -0.5098
 5913SOL    HW323419   2.044   0.432   1.891 -2.2924 -0.7837 -0.3916
 5913SOL    MW423420   2.074   0.363   1.936 -1.0960 -0.1958 -0.2638
 5914SOL     OW23421   6.104   2.096   0.416  0.3169 -0.2374 -0.2788
 5914SOL    HW223422   6.091   2.019   0.471 -1.2526  0.7869  0.8774
 5914SOL    HW323423   6.170   2.148   0.462  1.6782 -1.0176 -1.2638
 5914SOL    MW423424   6.111   2.093   0.429  0.2894 -0.2052 -0.2562
 5915SOL     OW23425   3.226   3.749   1.373  0.3574  0.3819  0.5367
 5915SOL    HW223426   3.190   3.755   1.462  0.2635  0.3013  0.5051
 5915SOL    HW323427   3.221   3.656   1.352 -2.4881  0.6895 -0.7116
 5915SOL    MW423428   3.220   3.737   1.382 -0.0304  0.4118  0.3678
 5916SOL     OW23429   3.503   0.954   5.766  0.1241 -0.6224  0.9475
 5916SOL    HW223430   3.456   0.870   5.764  1.4655 -1.4022  0.6538
 5916SOL    HW323431   3.591   0.932   5.735  0.3488  1.0140  0.3640
 5916SOL    MW423432   3.508   0.940   5.762  0.3307 -0.5094  0.8318
 5917SOL     OW23433   2.020   0.083   1.614  0.4861 -0.3713 -0.2681
 5917SOL    HW223434   1.980   0.022   1.551  0.7913 -0.3153 -0.5190
 5917SOL    HW323435   2.025   0.166   1.566  1.2904 -0.4825 -0.3881
 5917SOL    MW423436   2.015   0.086   1.599  0.6325 -0.3786 -0.3170
 5918SOL     OW23437   5.924   3.446   5.852  0.2964 -0.4027  0.1046
 5918SOL    HW223438   5.869   3.524   5.851  1.0702  0.1593 -1.1538
 5918SOL    HW323439   5.882   3.388   5.916 -0.5400  0.8498  0.7429
 5918SOL    MW423440   5.911   3.449   5.861  0.2882 -0.1633  0.0228
 5919SOL     OW23441   3.722   1.853   0.172 -0.1789 -0.4573  0.4245
 5919SOL    HW223442   3.652   1.905   0.213  0.9991 -1.0683  3.4739
 5919SOL    HW323443   3.699   1.762   0.193  0.6225 -0.7798 -0.0793
 5919SOL    MW423444   3.710   1.848   0.180  0.0823 -0.5805  0.7604
 5920SOL     OW23445   0.782   1.704   0.233  0.0940  0.6795  0.2727
 5920SOL    HW223446   0.872   1.682   0.212  0.0661  0.1895  0.6513
 5920SOL    HW323447   0.730   1.656   0.169  0.0722  0.3654  0.5241
 5920SOL    MW423448   0.787   1.695   0.222  0.0874  0.5734  0.3558
 5921SOL     OW23449   3.295   6.190   4.289  0.1318  0.5321  0.3102
 5921SOL    HW223450   3.363   6.203   4.222  0.5063  0.9674  0.7693
 5921SOL    HW323451   3.344   6.183   4.371 -0.3110 -0.2176  0.5187
 5921SOL    MW423452   3.311   6.191   4.291  0.1228  0.4906  0.3982
 5922SOL     OW23453   4.533   0.091   0.064  0.6178  0.2846  0.3843
 5922SOL    HW223454   4.526   0.186   0.053  0.1951  0.2196  0.0371
 5922SOL    HW323455   4.493   0.074   0.150  0.1890  0.3658  0.2054
 5922SOL    MW423456   4.527   0.102   0.074  0.5055  0.2867  0.3149
 5923SOL     OW23457   4.951   4.005   5.106 -0.2715 -0.0087  0.0297
 5923SOL    HW223458   4.945   3.937   5.039  2.0215  0.2315 -0.4922
 5923SOL    HW323459   4.984   3.959   5.184  1.2484  0.4514 -0.3143
 5923SOL    MW423460   4.955   3.990   5.108  0.2316  0.0837 -0.0846
 5924SOL     OW23461   5.812   4.697   1.286 -0.2311  0.3884  0.2165
 5924SOL    HW223462   5.837   4.611   1.253 -1.1003  0.3748 -0.4469
 5924SOL    HW323463   5.816   4.755   1.210 -0.7978  0.6789  0.3969
 5924SOL    MW423464   5.816   4.694   1.272 -0.4205  0.4250  0.1528
 5925SOL     OW23465   3.555   0.315   0.770  0.3952 -0.7918 -0.1562
 5925SOL    HW223466   3.619   0.244   0.766  1.7059  0.3321  0.1833
 5925SOL    HW323467   3.548   0.346   0.680 -0.5182 -1.6030 -0.3873
 5925SOL    MW423468   3.563   0.309   0.758  0.4476 -0.7505 -0.1419
 5926SOL     OW23469   0.719   0.971   1.297  0.2971  0.2609  0.0016
 5926SOL    HW223470   0.708   0.915   1.374 -1.8337 -0.1848 -0.5550
 5926SOL    HW323471   0.655   0.937   1.234  1.6129  0.9529 -1.7792
 5926SOL    MW423472   0.709   0.959   1.299  0.1896  0.2934 -0.3068
 5927SOL     OW23473   1.591   2.935   3.932  0.3693  0.1719  0.2882
 5927SOL    HW223474   1.540   2.897   4.004  0.1046  0.9629  0.5204
 5927SOL    HW323475   1.664   2.874   3.921  1.5878  1.0858  2.6291
 5927SOL    MW423476   1.594   2.922   3.940  0.4951  0.3968  0.6277
 5928SOL     OW23477   4.290   2.661   5.427  0.2906  0.6597  0.1350
 5928SOL    HW223478   4.287   2.643   5.333 -0.0243 -0.1894  0.2938
 5928SOL    HW323479   4.210   2.622   5.461  0.4665  0.8466  0.7784
 5928SOL    MW423480   4.279   2.653   5.419  0.2722  0.5723  0.2408
 5929SOL     OW23481   0.684   0.787   5.296  0.5245  0.0503 -0.1349
 5929SOL    HW223482   0.772   0.757   5.321  0.5525  0.8473  0.7907
 5929SOL    HW323483   0.626   0.718   5.327  0.8929 -1.2484 -2.1245
 5929SOL    MW423484   0.688   0.774   5.303  0.5768 -0.0159 -0.2753
 5930SOL     OW23485   0.510   3.207   5.175  0.3203  0.3022  0.3217
 5930SOL    HW223486   0.562   3.257   5.112 -0.2991  2.5772  1.5105
 5930SOL    HW323487   0.447   3.159   5.121  0.4757  1.3856 -0.8533
 5930SOL    MW423488   0.508   3.207   5.159  0.2591  0.7453  0.3236
 5931SOL     OW23489   1.729   1.533   4.946 -0.3038 -0.3278 -0.2733
 5931SOL    HW223490   1.800   1.597   4.953 -1.4226  0.7793  2.6583
 5931SOL    HW323491   1.772   1.448   4.960  0.6164  0.1977  0.2269
 5931SOL    MW423492   1.744   1.530   4.948 -0.3300 -0.1124  0.1795
 5932SOL     OW23493   0.698   5.221   4.081 -0.3535 -0.1657  0.0885
 5932SOL    HW223494   0.693   5.138   4.129  1.3328 -0.4138 -0.1063
 5932SOL    HW323495   0.733   5.283   4.145 -0.2400  0.0530 -0.1872
 5932SOL    MW423496   0.702   5.218   4.096 -0.1161 -0.1696  0.0265
 5933SOL     OW23497   4.333   6.261   5.024 -0.0799  0.3064  0.1108
 5933SOL    HW223498   4.288   6.328   4.972 -0.4017 -0.4946 -0.6800
 5933SOL    HW323499   4.264   6.199   5.048  0.5322 -0.8050 -0.8961
 5933SOL    MW423500   4.318   6.262   5.020 -0.0416  0.0541 -0.1264
 5934SOL     OW23501   5.277   5.123   4.286  0.1398 -0.3868 -0.2320
 5934SOL    HW223502   5.306   5.095   4.199 -2.4917  0.5483 -1.5071
 5934SOL    HW323503   5.208   5.187   4.269  0.3767  0.7521  2.5805
 5934SOL    MW423504   5.272   5.127   4.273 -0.1761 -0.1131 -0.0292
 5935SOL     OW23505   6.069   1.684   4.286  0.1354  0.5066 -0.1219
 5935SOL    HW223506   5.983   1.723   4.300 -0.0358  0.2336 -0.3891
 5935SOL    HW323507   6.121   1.752   4.244  0.4208  1.0771  1.0951
 5935SOL    MW423508   6.065   1.698   4.282  0.1504  0.5458  0.0034
 5936SOL     OW23509   6.098   3.140   5.990 -0.4175  0.0921  0.1182
 5936SOL    HW223510   6.132   3.125   6.079  0.1300  1.1805  0.1072
 5936SOL    HW323511   6.020   3.194   6.003  0.1260  0.9514 -0.0979
 5936SOL    MW423512   6.092   3.145   6.004 -0.2735  0.3490  0.0882
 5937SOL     OW23513   5.391   1.022   2.413 -0.0677  0.3885 -0.2530
 5937SOL    HW223514   5.407   1.106   2.369 -0.4187  1.1445  1.0003
 5937SOL    HW323515   5.473   0.974   2.405  0.2571  1.0085 -0.6692
 5937SOL    MW423516   5.404   1.027   2.406 -0.0712  0.5701 -0.1426
 5938SOL     OW23517   2.066   3.176   1.305  0.3615 -0.0552 -0.0261
 5938SOL    HW223518   2.009   3.179   1.228  1.4970 -1.1269 -0.9479
 5938SOL    HW323519   2.060   3.263   1.342 -0.0969  0.5360 -1.4183
 5938SOL    MW423520   2.058   3.188   1.300  0.4508 -0.1186 -0.3314
 5939SOL     OW23521   4.968   3.881   2.217 -0.3252  0.3109 -0.2693
 5939SOL    HW223522   4.942   3.867   2.308 -0.6099 -0.6085 -0.4837
 5939SOL    HW323523   5.056   3.919   2.223 -0.0189 -0.4599  0.3836
 5939SOL    MW423524   4.976   3.884   2.230 -0.3223  0.0879 -0.2115
 5940SOL     OW23525   4.609   0.564   5.450 -0.2878 -0.2569 -0.0850
 5940SOL    HW223526   4.675   0.614   5.402 -0.6939 -0.1799 -0.5794
 5940SOL    HW323527   4.527   0.610   5.433 -0.9021 -1.7684 -1.6252
 5940SOL    MW423528   4.606   0.576   5.441 -0.4224 -0.4461 -0.3534
 5941SOL     OW23529   3.678   4.503   0.052 -0.1327 -0.0115 -0.7773
 5941SOL    HW223530   3.620   4.461  -0.011 -1.6439  1.5758 -0.5413
 5941SOL    HW323531   3.636   4.587   0.071  1.1352  0.2807  1.0819
 5941SOL    MW423532   3.665   4.509   0.046 -0.1648  0.2365 -0.5009
 5942SOL     OW23533   1.181   4.860   4.025  1.2896  0.2327  0.8696
 5942SOL    HW223534   1.225   4.829   3.946 -0.7032 -1.3020  0.2638
 5942SOL    HW323535   1.137   4.782   4.060  1.5576  1.0297  3.1377
 5942SOL    MW423536   1.181   4.846   4.019  1.0620  0.1354  1.0889
 5943SOL     OW23537   2.160   3.843   3.934  0.4251  0.2902 -0.7768
 5943SOL    HW223538   2.113   3.760   3.928  0.0422  0.5712 -1.9952
 5943SOL    HW323539   2.093   3.910   3.916  0.9895  0.7785 -1.1117
 5943SOL    MW423540   2.145   3.841   3.931  0.4490  0.3917 -0.9817
 5944SOL     OW23541   5.746   5.341   0.776  0.2267  0.0988  0.2226
 5944SOL    HW223542   5.823   5.369   0.726  0.5933  1.7358  1.5967
 5944SOL    HW323543   5.672   5.355   0.717  0.8257 -0.1099 -0.6015
 5944SOL    MW423544   5.747   5.346   0.762  0.3541  0.2873  0.2952
 5945SOL     OW23545   0.187   1.839   4.729 -0.0283 -0.3499  0.0537
 5945SOL    HW223546   0.212   1.929   4.707 -0.5192 -0.1476  0.3077
 5945SOL    HW323547   0.137   1.847   4.810  0.1021 -0.8790  0.1909
 5945SOL    MW423548   0.184   1.852   4.737 -0.0759 -0.3930  0.1053
 5946SOL     OW23549   3.217   1.582   0.968  0.0429  0.2279 -0.3432
 5946SOL    HW223550   3.189   1.666   0.932 -0.2040  0.2936 -0.0035
 5946SOL    HW323551   3.165   1.517   0.920 -1.5876  0.4151  1.0980
 5946SOL    MW423552   3.206   1.585   0.957 -0.2048  0.2612 -0.1083
 5947SOL     OW23553   5.235   5.458   0.968  0.0182 -0.0839  0.3354
 5947SOL    HW223554   5.216   5.551   0.962 -0.2450 -0.0065  1.9828
 5947SOL    HW323555   5.321   5.453   1.009  2.0493 -0.5373 -3.5173
 5947SOL    MW423556   5.244   5.469   0.972  0.2515 -0.1335  0.0444
 5948SOL     OW23557   5.950   0.712   4.705 -0.1570  0.2795  0.2393
 5948SOL    HW223558   5.986   0.661   4.633 -2.1357  1.0866 -1.4107
 5948SOL    HW323559   6.020   0.773   4.728 -0.0174  1.1184 -2.1507
 5948SOL    MW423560   5.964   0.713   4.698 -0.3997  0.4966 -0.2937
 5949SOL     OW23561   6.407   5.229   0.153 -0.1289  0.5112  0.3038
 5949SOL    HW223562   6.404   5.133   0.144 -1.6776  0.6535 -0.8816
 5949SOL    HW323563   6.432   5.242   0.245 -1.8257 -1.0481  1.0555
 5949SOL    MW423564   6.410   5.218   0.164 -0.5571  0.3242  0.2466
 5950SOL     OW23565   5.450   5.868   4.833 -0.4634 -0.2883  0.0805
 5950SOL    HW223566   5.361   5.903   4.822 -0.1942  0.2241 -0.5557
 5950SOL    HW323567   5.479   5.849   4.744  0.1274 -0.2999  0.2723
 5950SOL    MW423568   5.442   5.870   4.820 -0.3500 -0.2222  0.0219
 5951SOL     OW23569   6.352   6.077   6.403 -0.0602 -0.0147  0.3601
 5951SOL    HW223570   6.333   6.082   6.309  0.9597  0.2558  0.1542
 5951SOL    HW323571   6.274   6.111   6.446 -0.2186  0.6274 -0.4211
 5951SOL    MW423572   6.339   6.082   6.396  0.0535  0.1057  0.2299
 5952SOL     OW23573   5.593   2.930   4.225  0.3433  0.2371  0.3977
 5952SOL    HW223574   5.599   2.835   4.210 -0.8579  0.0955  0.6752
 5952SOL    HW323575   5.617   2.969   4.142  0.8205 -0.3124  0.2692
 5952SOL    MW423576   5.597   2.922   4.212  0.2478  0.1459  0.4173
 5953SOL     OW23577   1.173   5.313   3.318  0.4242  0.1041  0.3215
 5953SOL    HW223578   1.243   5.308   3.253 -0.9744  0.8787 -1.3195
 5953SOL    HW323579   1.128   5.228   3.311 -0.1171  0.4257 -0.2119
 5953SOL    MW423580   1.176   5.301   3.309  0.1683  0.2487  0.0346
 5954SOL     OW23581   3.045   1.780   2.684 -0.7698  0.5039 -0.3729
 5954SOL    HW223582   3.088   1.698   2.708 -0.4971  0.8943  0.5196
 5954SOL    HW323583   3.005   1.811   2.765 -0.6662  1.3688 -0.6386
 5954SOL    MW423584   3.045   1.774   2.698 -0.7201  0.6695 -0.2902
 5955SOL     OW23585   0.617   3.829   3.849 -0.4725  0.1070 -0.0378
 5955SOL    HW223586   0.562   3.865   3.918 -1.1460 -1.4983  0.3188
 5955SOL    HW323587   0.557   3.777   3.795  0.8163 -2.7936  1.1188
 5955SOL    MW423588   0.602   3.827   3.851 -0.3913 -0.4875  0.1619
 5956SOL     OW23589   2.243   3.502   6.167 -0.2624  0.1049 -0.0168
 5956SOL    HW223590   2.163   3.530   6.211 -0.6499  0.7078 -1.0834
 5956SOL    HW323591   2.313   3.548   6.214 -0.3341 -1.5825  1.9172
 5956SOL    MW423592   2.242   3.512   6.179 -0.3230 -0.0382  0.0976
 5957SOL     OW23593   5.821   1.804   3.017 -0.3415 -0.5763  0.0354
 5957SOL    HW223594   5.779   1.766   3.094 -0.9559  0.3227  0.1528
 5957SOL    HW323595   5.842   1.728   2.962  0.4706 -1.2689  1.2419
 5957SOL    MW423596   5.818   1.789   3.020 -0.3154 -0.5491  0.2101
 5958SOL     OW23597   3.851   5.852   0.710  0.0161 -0.2207  0.2290
 5958SOL    HW223598   3.904   5.924   0.746  1.6931 -1.7854  1.0342
 5958SOL    HW323599   3.775   5.847   0.769  0.5410  0.0570  0.9532
 5958SOL    MW423600   3.848   5.861   0.723  0.3066 -0.3905  0.4308
 5959SOL     OW23601   3.402   5.500   1.311 -0.1391 -0.0911  0.0133
 5959SOL    HW223602   3.411   5.469   1.221  0.5738 -0.0828  0.0789
 5959SOL    HW323603   3.486   5.481   1.352  0.1660  1.5144  0.1974
 5959SOL    MW423604   3.414   5.493   1.305 -0.0048  0.1218  0.0463
 5960SOL     OW23605   6.295   5.261   4.758 -0.2591 -0.0590  0.2227
 5960SOL    HW223606   6.237   5.301   4.822 -0.4116  1.7029 -0.9469
 5960SOL    HW323607   6.373   5.237   4.808 -1.1039 -0.4697  1.3936
 5960SOL    MW423608   6.298   5.263   4.773 -0.3907  0.1193  0.2228
 5961SOL     OW23609   3.827   0.253   4.653 -0.1421  0.6289 -0.1864
 5961SOL    HW223610   3.917   0.284   4.637 -0.6701  1.6972 -1.2710
 5961SOL    HW323611   3.783   0.329   4.691 -0.1931 -0.3964  1.9040
 5961SOL    MW423612   3.833   0.267   4.656 -0.2185  0.6346 -0.0537
 5962SOL     OW23613   5.982   0.586   3.452 -0.0740 -0.2228  0.1334
 5962SOL    HW223614   5.896   0.617   3.424 -0.0674 -0.5133 -0.2271
 5962SOL    HW323615   6.022   0.661   3.496 -0.2072  0.1588 -0.3794
 5962SOL    MW423616   5.976   0.600   3.454 -0.0907 -0.2108  0.0182
 5963SOL     OW23617   0.564   4.275   0.652  0.3634  0.2491 -0.0277
 5963SOL    HW223618   0.585   4.325   0.573 -0.7477  1.4751  0.4161
 5963SOL    HW323619   0.569   4.339   0.723 -0.9797 -0.2799  0.5821
 5963SOL    MW423620   0.568   4.290   0.651  0.0396  0.3410  0.1113
 5964SOL     OW23621   3.228   0.756   3.238  0.0593  0.5382  0.3424
 5964SOL    HW223622   3.276   0.717   3.164 -0.3332  0.0528  0.3367
 5964SOL    HW323623   3.240   0.850   3.227  0.2965  0.4581 -0.1437
 5964SOL    MW423624   3.236   0.763   3.227  0.0388  0.4636  0.2775
 5965SOL     OW23625   0.905   3.354   3.955  0.0209 -0.0254  0.0508
 5965SOL    HW223626   0.917   3.369   4.049  2.3264  2.2993 -0.4945
 5965SOL    HW323627   0.827   3.405   3.932  0.0344  0.2132  0.5291
 5965SOL    MW423628   0.896   3.363   3.965  0.3269  0.3128  0.0420
 5966SOL     OW23629   0.156   4.319   2.319 -0.8896  0.0779 -0.6843
 5966SOL    HW223630   0.126   4.397   2.365  0.4035  0.6182 -0.7106
 5966SOL    HW323631   0.096   4.310   2.245 -3.2601 -1.0294  1.2495
 5966SOL    MW423632   0.144   4.328   2.315 -1.0318  0.0031 -0.4326
 5967SOL     OW23633   4.927   1.260   1.576 -0.7227  0.0198 -0.2856
 5967SOL    HW223634   4.858   1.255   1.642 -1.1838  1.9964 -0.5545
 5967SOL    HW323635   4.939   1.170   1.547 -0.3875 -0.9810  2.5910
 5967SOL    MW423636   4.920   1.248   1.581 -0.7393  0.1485  0.0585
 5968SOL     OW23637   4.620   2.569   5.288  0.3367 -0.1131 -0.0214
 5968SOL    HW223638   4.578   2.580   5.373  2.7124  2.6302  0.9686
 5968SOL    HW323639   4.700   2.521   5.307  0.5048 -0.1835 -0.8729
 5968SOL    MW423640   4.625   2.564   5.301  0.6723  0.2396 -0.0031
 5969SOL     OW23641   2.273   4.737   3.348  0.5261 -0.2061 -0.5262
 5969SOL    HW223642   2.309   4.750   3.261  0.3982 -1.2773 -0.7640
 5969SOL    HW323643   2.321   4.662   3.383 -0.0879 -0.3991 -0.0621
 5969SOL    MW423644   2.284   4.728   3.341  0.4282 -0.3729 -0.4963
 5970SOL     OW23645   4.758   0.905   6.173 -0.5620  0.2991 -0.2545
 5970SOL    HW223646   4.848   0.937   6.174 -0.0489 -0.7664 -3.0233
 5970SOL    HW323647   4.717   0.950   6.100 -1.2775 -1.5913 -1.0904
 5970SOL    MW423648   4.764   0.915   6.164 -0.5887 -0.0909 -0.7301
 5971SOL     OW23649   2.318   1.894   0.343 -0.8276  0.0381  0.3133
 5971SOL    HW223650   2.355   1.943   0.416 -0.3433  0.6339 -0.3148
 5971SOL    HW323651   2.388   1.838   0.312 -0.6892  0.5427 -0.3339
 5971SOL    MW423652   2.332   1.893   0.348 -0.7454  0.1833  0.1451
 5972SOL     OW23653   6.290   2.577   2.026  0.2091 -0.8142  0.7095
 5972SOL    HW223654   6.282   2.672   2.016 -0.7600 -0.8759  0.7877
 5972SOL    HW323655   6.317   2.546   1.940 -4.2903 -0.9358 -0.9403
 5972SOL    MW423656   6.292   2.585   2.013 -0.5124 -0.8384  0.5021
 5973SOL     OW23657   2.643   3.910   0.690  0.3355 -0.0823 -0.4488
 5973SOL    HW223658   2.665   3.904   0.783  0.4171  3.9497 -0.0321
 5973SOL    HW323659   2.714   3.864   0.645  0.8662 -1.1702  1.4160
 5973SOL    MW423660   2.655   3.903   0.696  0.4163  0.3061 -0.1478
 5974SOL     OW23661   2.285   5.962   3.498 -0.1611 -0.6666  0.5434
 5974SOL    HW223662   2.307   5.952   3.405 -0.4241 -0.5322  0.4639
 5974SOL    HW323663   2.368   5.986   3.540  0.0444 -1.1303  0.4107
 5974SOL    MW423664   2.299   5.964   3.491 -0.1687 -0.7100  0.5154
 5975SOL     OW23665   0.388   4.305   6.063  0.4345  0.3299 -0.3138
 5975SOL    HW223666   0.338   4.224   6.075  0.2780  0.4222 -0.3533
 5975SOL    HW323667   0.459   4.299   6.127 -0.0879  0.5762  0.2951
 5975SOL    MW423668   0.391   4.293   6.073  0.3449  0.3746 -0.2386
 5976SOL     OW23669   3.074   1.967   3.061 -0.9565 -0.1573 -0.3743
 5976SOL    HW223670   3.108   1.881   3.038 -0.6219  0.1999 -1.2626
 5976SOL    HW323671   3.026   1.953   3.142  0.3843 -0.8801  0.3282
 5976SOL    MW423672   3.072   1.954   3.069 -0.7354 -0.2055 -0.3988
 5977SOL     OW23673   4.424   2.352   4.606 -0.5360 -0.7455  0.2369
 5977SOL    HW223674   4.501   2.377   4.656 -0.9331  2.8040 -0.6450
 5977SOL    HW323675   4.358   2.329   4.672  0.2812 -0.5383  1.1353
 5977SOL    MW423676   4.425   2.352   4.621 -0.4805 -0.2498  0.2391
 5978SOL     OW23677   4.743   0.151   3.762 -0.2208  0.0821  0.3604
 5978SOL    HW223678   4.647   0.161   3.760 -0.2088  0.4949  1.3210
 5978SOL    HW323679   4.766   0.164   3.854  0.6524 -1.0847  0.3193
 5978SOL    MW423680   4.733   0.154   3.774 -0.1040 -0.0174  0.4817
 5979SOL     OW23681   2.308   3.515   5.598 -0.1436  0.1896  0.2056
 5979SOL    HW223682   2.299   3.456   5.673 -0.0450  0.3033  0.3073
 5979SOL    HW323683   2.398   3.502   5.568 -0.2768 -0.0799 -0.0840
 5979SOL    MW423684   2.318   3.505   5.604 -0.1482  0.1691  0.1808
 5980SOL     OW23685   5.493   1.722   3.420  0.3843 -0.2163 -0.2065
 5980SOL    HW223686   5.554   1.721   3.347  0.7848 -0.6535  0.1284
 5980SOL    HW323687   5.426   1.785   3.395  0.5756 -0.2884 -0.9013
 5980SOL    MW423688   5.492   1.730   3.407  0.4624 -0.2835 -0.2540
 5981SOL     OW23689   5.706   4.034   4.442 -0.6000  0.3684 -0.0082
 5981SOL    HW223690   5.728   3.951   4.399 -1.7689 -0.2446  0.5221
 5981SOL    HW323691   5.711   4.013   4.536 -0.8592  0.9056  0.1289
 5981SOL    MW423692   5.710   4.020   4.449 -0.7884  0.3584  0.0798
 5982SOL     OW23693   1.625   0.044   4.809 -0.1865 -0.0192 -0.5130
 5982SOL    HW223694   1.614  -0.031   4.750 -2.8185  0.9524 -1.3849
 5982SOL    HW323695   1.702   0.090   4.774  1.3984 -2.1468 -0.0360
 5982SOL    MW423696   1.634   0.040   4.796 -0.3247 -0.1717 -0.5651
 5983SOL     OW23697   1.450   3.333   3.684 -0.1643 -0.8542  0.0190
 5983SOL    HW223698   1.537   3.318   3.648 -0.0790 -0.2294 -0.0477
 5983SOL    HW323699   1.432   3.256   3.737  0.6500 -0.7456  0.4695
 5983SOL    MW423700   1.459   3.321   3.686 -0.0456 -0.7575  0.0697
 5984SOL     OW23701   5.210   5.536   6.126 -0.0411  0.4984 -0.1709
 5984SOL    HW223702   5.227   5.537   6.220 -1.6724  2.0283  0.1811
 5984SOL    HW323703   5.245   5.619   6.094  1.1212 -0.3100 -1.0759
 5984SOL    MW423704   5.217   5.547   6.134 -0.1030  0.5936 -0.2439
 5985SOL     OW23705   4.001   4.445   4.201 -0.5254  0.4634 -0.6856
 5985SOL    HW223706   4.026   4.442   4.293 -0.9663 -1.1376 -0.5908
 5985SOL    HW323707   4.084   4.457   4.154  0.4006 -3.0599 -0.2737
 5985SOL    MW423708   4.015   4.446   4.207 -0.4614 -0.2127 -0.6188
 5986SOL     OW23709   1.711   3.813   1.382  1.2132  0.2129  0.1056
 5986SOL    HW223710   1.634   3.832   1.436  0.7450 -1.3107  0.0208
 5986SOL    HW323711   1.709   3.879   1.313  0.1769  0.4163  0.3164
 5986SOL    MW423712   1.701   3.824   1.380  1.0147  0.0387  0.1222
 5987SOL     OW23713   6.325   1.456   2.548 -0.2424 -0.2660  0.2470
 5987SOL    HW223714   6.306   1.374   2.503 -1.1814 -1.4973  2.6537
 5987SOL    HW323715   6.411   1.443   2.588 -0.6427 -0.3550  1.1155
 5987SOL    MW423716   6.334   1.444   2.547 -0.4191 -0.4402  0.6791
 5988SOL     OW23717   3.934   1.654   3.723  0.2104  0.6287  0.7401
 5988SOL    HW223718   3.973   1.636   3.637 -0.4010 -0.6835  0.7253
 5988SOL    HW323719   3.929   1.750   3.726 -0.0660  0.7035 -0.8342
 5988SOL    MW423720   3.939   1.664   3.712  0.0933  0.4654  0.5304
 5989SOL     OW23721   3.433   5.778   5.391 -0.4346  0.0424  0.1965
 5989SOL    HW223722   3.349   5.755   5.433  0.0903  0.7051  1.6817
 5989SOL    HW323723   3.484   5.818   5.461 -0.5607  4.0180 -1.6563
 5989SOL    MW423724   3.428   5.781   5.406 -0.3820  0.6544  0.1480
 5990SOL     OW23725   1.262   5.684   5.651  0.1010  0.1655  0.0343
 5990SOL    HW223726   1.201   5.711   5.582  1.3366  0.2852 -1.0701
 5990SOL    HW323727   1.269   5.589   5.641 -1.2355 -0.0962  1.3328
 5990SOL    MW423728   1.255   5.675   5.640  0.0877  0.1468  0.0599
 5991SOL     OW23729   0.378   6.348   1.300  0.0619  0.0034  0.2292
 5991SOL    HW223730   0.360   6.430   1.347 -3.7423 -0.6496  0.2721
 5991SOL    HW323731   0.398   6.374   1.211 -0.5929  1.0324  0.3710
 5991SOL    MW423732   0.378   6.362   1.295 -0.5264  0.0530  0.2536
 5992SOL     OW23733   5.509   5.570   1.309  0.1488 -0.1313  0.1924
 5992SOL    HW223734   5.482   5.660   1.289 -0.6655  0.1406  2.2451
 5992SOL    HW323735   5.595   5.580   1.351 -0.6639 -0.0854  1.9502
 5992SOL    MW423736   5.517   5.584   1.312 -0.0659 -0.0893  0.6951
 5993SOL     OW23737   3.727   3.264   3.324  0.1652 -0.3190  0.2075
 5993SOL    HW223738   3.747   3.260   3.417 -1.4534  1.2584  0.6910
 5993SOL    HW323739   3.805   3.303   3.284 -0.5550  2.9160  1.5795
 5993SOL    MW423740   3.740   3.269   3.331 -0.1434  0.3160  0.4523
 5994SOL     OW23741   6.378   4.314   3.661 -0.1585  0.2545  0.1596
 5994SOL    HW223742   6.413   4.373   3.728  0.0502  0.3277 -0.0118
 5994SOL    HW323743   6.435   4.328   3.585 -0.1676 -0.0964  0.0867
 5994SOL    MW423744   6.390   4.324   3.660 -0.1321  0.2179  0.1274
 5995SOL     OW23745   0.928   2.523   6.120  0.3173  0.4759  0.1532
 5995SOL    HW223746   0.857   2.488   6.066  0.9689  1.1825 -1.2050
 5995SOL    HW323747   1.008   2.487   6.082  0.6861 -2.8715  3.5277
 5995SOL    MW423748   0.929   2.514   6.108  0.4519  0.1275  0.4192
 5996SOL     OW23749   0.700   5.479   3.301 -0.3534  0.3434  0.1710
 5996SOL    HW223750   0.649   5.424   3.361  0.3084  0.5322  0.9196
 5996SOL    HW323751   0.771   5.422   3.272  0.6431  0.9405  1.3643
 5996SOL    MW423752   0.703   5.464   3.305 -0.1346  0.4471  0.4272
 5997SOL     OW23753   0.974   2.847   2.090 -0.0349  0.0240  0.0458
 5997SOL    HW223754   1.048   2.813   2.139 -0.5157 -0.5622  0.3707
 5997SOL    HW323755   0.918   2.771   2.073 -1.0032  0.5923  0.5769
 5997SOL    MW423756   0.976   2.833   2.094 -0.2261  0.0217  0.1587
 5998SOL     OW23757   3.977   4.950   2.327  0.5522 -0.1481  0.3868
 5998SOL    HW223758   3.953   4.990   2.243  0.3947 -2.4727 -0.7370
 5998SOL    HW323759   4.062   4.910   2.312  0.5118 -0.6218  1.3234
 5998SOL    MW423760   3.985   4.950   2.314  0.5261 -0.5173  0.3621
 5999SOL     OW23761   1.430   5.869   5.274 -0.4141  0.3138  0.2384
 5999SOL    HW223762   1.511   5.826   5.249  0.8953  2.6913  0.0951
 5999SOL    HW323763   1.422   5.852   5.368  0.0061 -0.2787  0.1712
 5999SOL    MW423764   1.440   5.861   5.283 -0.1859  0.5493  0.2106
 6000SOL     OW23765   2.296   5.099   5.331  0.4952  0.3748  0.0530
 6000SOL    HW223766   2.355   5.167   5.300  0.4293  0.6631  0.5608
 6000SOL    HW323767   2.211   5.143   5.340  0.5962  0.3780  0.9968
 6000SOL    MW423768   2.292   5.114   5.328  0.4998  0.4133  0.2445
 6001SOL     OW23769   4.449   4.682   3.801  0.4408 -0.1903  0.0693
 6001SOL    HW223770   4.367   4.680   3.750  0.3484 -0.2667  0.2215
 6001SOL    HW323771   4.492   4.599   3.780 -0.0764 -0.6838  0.9033
 6001SOL    MW423772   4.444   4.671   3.791  0.3604 -0.2655  0.1994
 6002SOL     OW23773   0.305   3.839   0.200 -0.0230  0.8616  0.3066
 6002SOL    HW223774   0.211   3.821   0.197  0.3386 -1.2773  0.5738
 6002SOL    HW323775   0.343   3.781   0.135  1.1908  1.2763  0.6135
 6002SOL    MW423776   0.298   3.829   0.191  0.1849  0.6341  0.3823
 6003SOL     OW23777   3.812   5.325   3.941 -0.3060 -0.3821 -0.5073
 6003SOL    HW223778   3.890   5.380   3.949 -1.1574  0.6579  1.3296
 6003SOL    HW323779   3.841   5.238   3.968  0.1477  0.1042  0.6470
 6003SOL    MW423780   3.826   5.320   3.945 -0.3584 -0.1807 -0.1126
 6004SOL     OW23781   1.306   1.160   4.230  0.5490  0.2686 -0.1303
 6004SOL    HW223782   1.381   1.102   4.240  0.7703  0.4663 -0.6499
 6004SOL    HW323783   1.325   1.212   4.152  0.9051  1.8741  0.9796
 6004SOL    MW423784   1.318   1.159   4.221  0.6251  0.5065 -0.0525
 6005SOL     OW23785   0.947   1.331   4.384 -0.1408  0.1571 -0.1089
 6005SOL    HW223786   0.967   1.282   4.304  0.7976 -1.2553  0.9357
 6005SOL    HW323787   0.982   1.276   4.454 -0.9045  1.3858  1.2721
 6005SOL    MW423788   0.955   1.317   4.382 -0.1178  0.1329  0.2111
 6006SOL     OW23789   0.529   2.410   2.763  0.0884 -0.2915 -0.4528
 6006SOL    HW223790   0.543   2.495   2.722 -2.4043  0.9523  1.0488
 6006SOL    HW323791   0.472   2.364   2.702  0.0266 -0.2173 -0.4509
 6006SOL    MW423792   0.524   2.415   2.749 -0.2486 -0.1176 -0.2545
 6007SOL     OW23793   1.229   2.662   0.694 -0.1922 -0.1702 -0.4417
 6007SOL    HW223794   1.204   2.736   0.639 -1.1902 -0.2600 -0.1194
 6007SOL    HW323795   1.214   2.692   0.784  0.7550 -0.2727 -0.2355
 6007SOL    MW423796   1.224   2.676   0.699 -0.1989 -0.1956 -0.3719
 6008SOL     OW23797   1.305   3.577   2.660  0.1803  0.2165 -0.0153
 6008SOL    HW223798   1.357   3.535   2.728 -0.1638 -2.5790 -1.3463
 6008SOL    HW323799   1.215   3.553   2.681 -0.0582  0.5411 -0.6462
 6008SOL    MW423800   1.300   3.568   2.672  0.1035 -0.1095 -0.2742
 6009SOL     OW23801   2.320   0.787   6.372  0.7097 -0.5966 -0.3472
 6009SOL    HW223802   2.406   0.787   6.414  0.2593  1.0029  0.6732
 6009SOL    HW323803   2.274   0.713   6.412 -0.1149  1.5252  3.0611
 6009SOL    MW423804   2.325   0.777   6.383  0.5415 -0.1056  0.2371
 6010SOL     OW23805   6.185   5.961   2.238  0.4273 -0.0114 -0.1520
 6010SOL    HW223806   6.143   5.876   2.250 -0.7791  0.6513  0.4654
 6010SOL    HW323807   6.223   5.981   2.324 -0.0989  0.4857 -0.0299
 6010SOL    MW423808   6.185   5.952   2.251  0.1987  0.1416 -0.0544
 6011SOL     OW23809   1.560   0.292   1.258 -0.0047  0.1208 -0.4585
 6011SOL    HW223810   1.604   0.208   1.260  1.0940  0.6790 -0.5406
 6011SOL    HW323811   1.542   0.312   1.350 -1.1631 -0.6451 -0.5036
 6011SOL    MW423812   1.563   0.284   1.271 -0.0125  0.0934 -0.4753
 6012SOL     OW23813   5.862   5.580   3.901 -0.1832  0.5768  0.0044
 6012SOL    HW223814   5.922   5.580   3.975 -1.1970 -0.0507  0.8563
 6012SOL    HW323815   5.816   5.496   3.908 -1.1462  1.0384 -0.6308
 6012SOL    MW423816   5.864   5.569   3.911 -0.4440  0.5549  0.0330
 6013SOL     OW23817   5.719   5.835   1.589 -0.0167  0.5817  0.2453
 6013SOL    HW223818   5.650   5.902   1.586 -0.9036 -0.2956  0.5165
 6013SOL    HW323819   5.679   5.761   1.636  1.3441  0.3128  1.0519
 6013SOL    MW423820   5.704   5.834   1.595  0.0458  0.4304  0.3875
 6014SOL     OW23821   2.265   3.236   3.192  0.0085  0.0405  0.3152
 6014SOL    HW223822   2.171   3.213   3.194 -0.4801  1.8773  0.0227
 6014SOL    HW323823   2.286   3.258   3.283 -0.4302  1.7465  0.0252
 6014SOL    MW423824   2.255   3.236   3.205 -0.1138  0.5079  0.2383
 6015SOL     OW23825   3.940   1.180   0.386 -0.3483 -0.2357  0.0530
 6015SOL    HW223826   3.955   1.096   0.342 -1.2931 -0.4991  0.2133
 6015SOL    HW323827   3.972   1.246   0.324 -1.5090 -0.6021 -0.9801
 6015SOL    MW423828   3.946   1.178   0.372 -0.6261 -0.3188 -0.0621
 6016SOL     OW23829   6.257   3.935   0.898 -0.1554  0.1599  0.0685
 6016SOL    HW223830   6.278   3.981   0.817  0.4724 -0.2216  0.0104
 6016SOL    HW323831   6.185   3.876   0.874  0.7898 -0.7992 -0.5139
 6016SOL    MW423832   6.250   3.933   0.884  0.0522 -0.0169 -0.0160
 6017SOL     OW23833   3.902   4.928   0.749  0.6209 -0.0422 -0.3394
 6017SOL    HW223834   3.865   4.864   0.811 -1.4808  1.1424 -0.2618
 6017SOL    HW323835   3.981   4.961   0.792 -0.0260 -0.2818  1.0943
 6017SOL    MW423836   3.907   4.924   0.763  0.2583  0.0824 -0.1400
 6018SOL     OW23837   5.342   5.475   2.873 -0.0089  0.3428 -0.1428
 6018SOL    HW223838   5.386   5.421   2.939  0.8060 -0.3064 -1.1803
 6018SOL    HW323839   5.381   5.561   2.883 -0.2197  0.3747  0.5076
 6018SOL    MW423840   5.353   5.479   2.883  0.0708  0.2613 -0.1939
 6019SOL     OW23841   3.556   6.160   4.942 -0.1364  0.3195  0.7845
 6019SOL    HW223842   3.490   6.203   4.887 -1.6576  0.1328  2.3740
 6019SOL    HW323843   3.637   6.168   4.892 -1.5454 -0.5200 -1.8691
 6019SOL    MW423844   3.558   6.167   4.928 -0.5230  0.1841  0.6441
 6020SOL     OW23845   1.477   0.299   1.932 -0.0755 -0.5965  0.0742
 6020SOL    HW223846   1.414   0.362   1.896 -0.6172 -1.7032 -0.9644
 6020SOL    HW323847   1.426   0.220   1.948  0.1909 -0.3016  3.0647
 6020SOL    MW423848   1.462   0.297   1.929 -0.1119 -0.7036  0.3317
 6021SOL     OW23849   1.939   3.173   3.485  0.6743  0.3117 -0.1878
 6021SOL    HW223850   1.845   3.189   3.492  0.6021 -0.4692  0.8083
 6021SOL    HW323851   1.952   3.146   3.394  0.4331  3.3257 -1.2363
 6021SOL    MW423852   1.928   3.172   3.474  0.6329  0.6063 -0.1947
 6022SOL     OW23853   4.213   4.137   2.645 -0.5049  0.0761  0.3469
 6022SOL    HW223854   4.147   4.146   2.577 -0.9992  0.0371  0.8118
 6022SOL    HW323855   4.172   4.175   2.723 -0.0797 -0.1946  0.7067
 6022SOL    MW423856   4.199   4.143   2.647 -0.5140  0.0352  0.4557
 6023SOL     OW23857   0.390   3.612   3.989  0.4067  0.3983 -0.1183
 6023SOL    HW223858   0.400   3.549   4.061 -1.1850  1.5578  1.1906
 6023SOL    HW323859   0.474   3.610   3.944  0.9149 -1.5334  0.8126
 6023SOL    MW423860   0.402   3.603   3.993  0.2637  0.2964  0.1772
 6024SOL     OW23861   1.291   4.375   3.504  0.0430 -0.2501 -0.4156
 6024SOL    HW223862   1.256   4.286   3.512  1.0451 -0.5499  0.9508
 6024SOL    HW323863   1.269   4.417   3.587  2.3985 -0.2784  0.2700
 6024SOL    MW423864   1.283   4.369   3.516  0.4860 -0.2934 -0.1449
 6025SOL     OW23865   1.950   2.361   1.795  0.1145 -0.1321 -0.9994
 6025SOL    HW223866   1.884   2.345   1.863  0.6572  1.3329 -0.0709
 6025SOL    HW323867   1.901   2.403   1.724  0.0721  1.2453 -0.1842
 6025SOL    MW423868   1.935   2.364   1.795  0.1805  0.2429 -0.7693
 6026SOL     OW23869   5.531   5.244   1.674  0.1513 -0.4187 -0.4440
 6026SOL    HW223870   5.599   5.177   1.669 -0.5719 -1.2382  0.4522
 6026SOL    HW323871   5.538   5.280   1.762 -0.7335 -0.6954 -0.2455
 6026SOL    MW423872   5.541   5.240   1.685 -0.0609 -0.5633 -0.2996
 6027SOL     OW23873   1.802   2.824   1.620  0.4208  0.2620 -0.2950
 6027SOL    HW223874   1.887   2.864   1.602  0.3764  0.3276 -0.3599
 6027SOL    HW323875   1.741   2.897   1.623  0.5774  0.3657  1.0986
 6027SOL    MW423876   1.805   2.839   1.618  0.4356  0.2843 -0.1197
 6028SOL     OW23877   3.434   5.865   1.469  0.2161  0.0978  0.4485
 6028SOL    HW223878   3.365   5.854   1.404  0.0742  1.4250  0.3481
 6028SOL    HW323879   3.513   5.831   1.427 -0.6604 -3.2900  1.2706
 6028SOL    MW423880   3.435   5.859   1.455  0.0817 -0.1741  0.5437
 6029SOL     OW23881   1.057   2.140   0.323  0.0510 -0.2514  0.0963
 6029SOL    HW223882   1.129   2.203   0.332 -0.6589  0.5618  0.2764
 6029SOL    HW323883   1.099   2.055   0.329  0.9760  0.2065  0.3991
 6029SOL    MW423884   1.072   2.137   0.325  0.0794 -0.0837  0.1600
 6030SOL     OW23885   5.927   0.719   2.408  0.1323  0.8394  0.0187
 6030SOL    HW223886   5.901   0.711   2.316  1.0529  2.6009 -0.4339
 6030SOL    HW323887   6.011   0.764   2.406  0.3166  0.6473  1.7276
 6030SOL    MW423888   5.934   0.724   2.395  0.2781  1.0465  0.1845
 6031SOL     OW23889   2.753   1.304   4.289  0.1577 -0.4638  0.1983
 6031SOL    HW223890   2.808   1.285   4.213 -0.8886  0.5070 -0.8404
 6031SOL    HW323891   2.784   1.389   4.320  0.5078 -0.8075  0.7981
 6031SOL    MW423892   2.764   1.313   4.283  0.0659 -0.3811  0.1404
 6032SOL     OW23893   3.327   0.407   0.944 -0.3382  0.6137 -0.6014
 6032SOL    HW223894   3.319   0.502   0.935  0.3142  0.6163 -1.3155
 6032SOL    HW323895   3.400   0.384   0.885 -0.3978 -0.3067 -0.3269
 6032SOL    MW423896   3.336   0.416   0.935 -0.2600  0.4926 -0.6594
 6033SOL     OW23897   4.604   0.693   0.694  0.2353 -0.2404 -0.1013
 6033SOL    HW223898   4.536   0.650   0.746 -0.6968  0.0039 -1.0862
 6033SOL    HW323899   4.665   0.728   0.759 -1.5906  1.2313  0.9174
 6033SOL    MW423900   4.603   0.692   0.710 -0.1286 -0.0140 -0.0969
 6034SOL     OW23901   1.146   0.337   2.256  0.3570 -0.0571 -0.2536
 6034SOL    HW223902   1.239   0.358   2.263  0.0381  1.3495 -0.0984
 6034SOL    HW323903   1.141   0.245   2.283  1.8574 -0.5472 -1.4826
 6034SOL    MW423904   1.157   0.327   2.261  0.5129  0.0638 -0.3953
 6035SOL     OW23905   0.629   4.034   6.284 -0.9069  0.0421 -0.2100
 6035SOL    HW223906   0.552   3.979   6.268 -0.5985 -0.2216 -0.8665
 6035SOL    HW323907   0.689   4.012   6.212 -0.8609  1.4010 -0.6246
 6035SOL    MW423908   0.627   4.024   6.272 -0.8602  0.1866 -0.3513
 6036SOL     OW23909   2.859   3.825   0.541 -0.0221 -0.0023  0.2557
 6036SOL    HW223910   2.828   3.756   0.481 -1.1754 -0.4243  1.2978
 6036SOL    HW323911   2.928   3.783   0.591  1.9108  0.7500 -1.6343
 6036SOL    MW423912   2.864   3.810   0.539  0.0808  0.0413  0.1439
 6037SOL     OW23913   3.556   0.179   0.095  0.0785  0.0346 -0.0479
 6037SOL    HW223914   3.508   0.157   0.015  0.0466  1.6151 -0.4898
 6037SOL    HW323915   3.646   0.149   0.078  0.7287  2.6604 -1.8051
 6037SOL    MW423916   3.562   0.172   0.082  0.1601  0.5896 -0.3380
 6038SOL     OW23917   2.430   2.451   5.610  0.1399  0.1648  0.3109
 6038SOL    HW223918   2.379   2.386   5.659 -0.0868 -1.0836 -1.4697
 6038SOL    HW323919   2.392   2.449   5.523  2.2196  0.3508 -0.6579
 6038SOL    MW423920   2.418   2.442   5.605  0.3844  0.0246 -0.0518
 6039SOL     OW23921   1.003   3.814   3.774 -0.3474  0.1392  0.7000
 6039SOL    HW223922   1.053   3.738   3.804 -2.9684 -1.7658  0.5783
 6039SOL    HW323923   1.045   3.839   3.692  0.5458 -1.2398  0.6944
 6039SOL    MW423924   1.015   3.807   3.767 -0.5753 -0.2941  0.6832
 6040SOL     OW23925   6.295   5.540   6.039 -0.0032 -0.1506  0.2360
 6040SOL    HW223926   6.212   5.575   6.072 -0.7170 -2.4135  1.0128
 6040SOL    HW323927   6.272   5.492   5.960  0.5707 -0.6935  0.3831
 6040SOL    MW423928   6.281   5.538   6.033 -0.0217 -0.5208  0.3579
 6041SOL     OW23929   6.135   2.018   4.612  0.1932  0.5054 -0.2846
 6041SOL    HW223930   6.122   2.073   4.534 -0.3425  1.6780  0.5936
 6041SOL    HW323931   6.193   1.949   4.583  0.5774  1.3217 -1.5532
 6041SOL    MW423932   6.141   2.016   4.598  0.1732  0.7679 -0.3361
 6042SOL     OW23933   4.385   2.402   4.024  0.1814  0.1791 -0.5409
 6042SOL    HW223934   4.367   2.313   3.993  0.6161  0.0518 -0.4355
 6042SOL    HW323935   4.394   2.393   4.119 -1.5004  0.6278 -0.3135
 6042SOL    MW423936   4.384   2.389   4.032  0.0169  0.2215 -0.4970
 6043SOL     OW23937   3.576   1.018   3.896 -0.2340  0.5378  0.1273
 6043SOL    HW223938   3.481   1.021   3.910 -0.4102 -1.9871 -0.0475
 6043SOL    HW323939   3.594   0.927   3.872  2.2749  0.9137  0.2949
 6043SOL    MW423940   3.566   1.006   3.894  0.0738  0.2543  0.1263
 6044SOL     OW23941   0.997   2.074   0.038 -0.1135 -0.1577 -0.1216
 6044SOL    HW223942   1.075   2.046  -0.010 -0.1029  0.4302 -0.4641
 6044SOL    HW323943   1.032   2.115   0.117 -0.0671  0.1711 -0.3096
 6044SOL    MW423944   1.012   2.076   0.042 -0.1060 -0.0367 -0.1916
 6045SOL     OW23945   3.645   4.761   2.767 -0.4072 -0.5300 -1.0036
 6045SOL    HW223946   3.717   4.795   2.714  0.0748 -0.2746 -0.1963
 6045SOL    HW323947   3.584   4.724   2.703 -0.1089  0.2760 -1.7739
 6045SOL    MW423948   3.646   4.761   2.751 -0.3043 -0.3900 -0.9987
 6046SOL     OW23949   5.455   2.226   0.818 -0.0118  0.1802  0.1662
 6046SOL    HW223950   5.379   2.212   0.875  0.0929  0.5745  0.4067
 6046SOL    HW323951   5.520   2.268   0.874  0.2589  0.1557 -0.1269
 6046SOL    MW423952   5.453   2.230   0.833  0.0378  0.2290  0.1593
 6047SOL     OW23953   2.491   5.647   4.043 -0.6988  0.1836  0.3278
 6047SOL    HW223954   2.457   5.640   3.954  1.9880 -2.8460 -0.6444
 6047SOL    HW323955   2.442   5.581   4.092  0.8042 -1.3205 -0.0953
 6047SOL    MW423956   2.480   5.637   4.038 -0.1460 -0.4146  0.1437
 6048SOL     OW23957   4.336   0.788   3.337 -0.0697 -0.3383  0.5559
 6048SOL    HW223958   4.373   0.841   3.266  0.2674 -1.6210 -0.2683
 6048SOL    HW323959   4.268   0.736   3.295 -1.5476  0.5923  1.6829
 6048SOL    MW423960   4.332   0.788   3.322 -0.2203 -0.3847  0.5959
 6049SOL     OW23961   5.901   0.247   4.097 -0.4676 -0.1822 -0.6617
 6049SOL    HW223962   5.950   0.329   4.089 -0.9688 -0.0451 -3.2550
 6049SOL    HW323963   5.953   0.183   4.048 -0.4955 -1.2431  0.6411
 6049SOL    MW423964   5.914   0.249   4.089 -0.5374 -0.3041 -0.8320
 6050SOL     OW23965   0.209   3.496   1.172 -0.0128 -0.4293 -0.3260
 6050SOL    HW223966   0.292   3.454   1.152 -1.0381 -2.0739 -1.3647
 6050SOL    HW323967   0.191   3.473   1.263  0.3624 -0.5973 -0.2961
 6050SOL    MW423968   0.217   3.488   1.182 -0.0986 -0.6685 -0.4591
 6051SOL     OW23969   0.424   1.946   1.967 -0.1043  0.1425  0.6265
 6051SOL    HW223970   0.469   1.943   1.883  0.4391 -0.3778  0.9263
 6051SOL    HW323971   0.446   2.031   2.004 -0.7556  0.5838  0.0303
 6051SOL    MW423972   0.433   1.957   1.961 -0.1185  0.1321  0.5874
 6052SOL     OW23973   1.829   1.685   3.508 -0.2785 -0.0839 -0.0009
 6052SOL    HW223974   1.753   1.627   3.513 -1.0278  0.9389  0.6759
 6052SOL    HW323975   1.884   1.660   3.583 -0.9285  0.5287  0.6865
 6052SOL    MW423976   1.827   1.674   3.518 -0.4632  0.1318  0.1791
 6053SOL     OW23977   0.081   2.172   0.944  0.1355 -0.0452 -0.5134
 6053SOL    HW223978   0.080   2.087   0.989 -1.7175  0.2213  0.0235
 6053SOL    HW323979   0.145   2.224   0.992  1.4325 -1.1575 -0.9509
 6053SOL    MW423980   0.089   2.167   0.956  0.0621 -0.1568 -0.5003
 6054SOL     OW23981   5.839   1.155   0.979  0.4084 -0.2454 -0.2893
 6054SOL    HW223982   5.813   1.233   0.930 -0.1872  0.6208  1.3407
 6054SOL    HW323983   5.899   1.108   0.920 -0.4475  0.6156 -1.9184
 6054SOL    MW423984   5.843   1.159   0.965  0.2169 -0.0175 -0.2892
 6055SOL     OW23985   3.765   4.052   5.495 -0.3491  0.6860  0.0371
 6055SOL    HW223986   3.840   4.036   5.439  0.0690 -1.9775  1.1612
 6055SOL    HW323987   3.800   4.101   5.569  0.3215 -0.4448  0.5001
 6055SOL    MW423988   3.780   4.056   5.498 -0.2054  0.1854  0.2465
 6056SOL     OW23989   3.254   6.367   3.434  0.0636 -0.2959  0.1511
 6056SOL    HW223990   3.311   6.394   3.362 -1.9673 -0.3761 -1.5978
 6056SOL    HW323991   3.235   6.448   3.481  2.5145 -0.4413  1.5519
 6056SOL    MW423992   3.259   6.381   3.431  0.1190 -0.3257  0.1052
 6057SOL     OW23993   0.487   1.430   5.187 -0.0630  0.7128 -0.0926
 6057SOL    HW223994   0.514   1.338   5.195  0.7050  0.7688 -1.6730
 6057SOL    HW323995   0.521   1.471   5.267  0.5752 -0.1575  0.1072
 6057SOL    MW423996   0.495   1.423   5.199  0.1226  0.6053 -0.2747
 6058SOL     OW23997   0.500   4.691   5.812  0.5783  0.2908  0.5780
 6058SOL    HW223998   0.479   4.617   5.755  2.2494 -0.3634  0.7713
 6058SOL    HW323999   0.446   4.763   5.778 -1.2540 -1.0303  0.5246
 6058SOL    MW424000   0.490   4.691   5.800  0.5570  0.0301  0.5965
 6059SOL     OW24001   1.943   4.651   6.330  0.2252 -0.9336 -0.4439
 6059SOL    HW224002   1.888   4.721   6.366 -2.2977 -1.5711 -2.8001
 6059SOL    HW324003   1.963   4.679   6.241 -1.3612 -3.4099 -1.6679
 6059SOL    MW424004   1.939   4.664   6.323 -0.3170 -1.3445 -0.9163
 6060SOL     OW24005   6.379   4.741   0.853 -0.4689 -0.0697 -0.0271
 6060SOL    HW224006   6.412   4.828   0.875 -1.1479 -0.2355  1.9045
 6060SOL    HW324007   6.286   4.755   0.833 -0.3503 -0.2318 -0.7169
 6060SOL    MW424008   6.371   4.754   0.853 -0.5428 -0.1130  0.1368
 6061SOL     OW24009   1.782   2.589   0.658 -0.5962 -0.6409 -0.0011
 6061SOL    HW224010   1.698   2.545   0.644 -0.0579 -1.8537  0.4591
 6061SOL    HW324011   1.847   2.520   0.646  0.2968  0.1228  0.3933
 6061SOL    MW424012   1.779   2.574   0.654 -0.4073 -0.7002  0.1117
 6062SOL     OW24013   1.557   0.260   3.092  0.0854  0.2060  0.1873
 6062SOL    HW224014   1.611   0.184   3.112 -1.6362 -1.2007 -0.2845
 6062SOL    HW324015   1.517   0.284   3.176  0.5655  0.5840  0.3192
 6062SOL    MW424016   1.559   0.253   3.106 -0.0784  0.0703  0.1424
 6063SOL     OW24017   6.381   3.542   2.931 -0.4328  0.0502  0.4655
 6063SOL    HW224018   6.380   3.448   2.950 -0.2879 -0.0792 -0.1432
 6063SOL    HW324019   6.304   3.555   2.876 -1.3776  0.5828  1.8404
 6063SOL    MW424020   6.371   3.531   2.926 -0.5384  0.1034  0.5666
 6064SOL     OW24021   0.354   0.145   3.894  0.3067  0.1317 -0.2694
 6064SOL    HW224022   0.398   0.138   3.809 -0.1545  2.3206 -0.7485
 6064SOL    HW324023   0.399   0.216   3.939 -0.6724  0.2617  0.5441
 6064SOL    MW424024   0.365   0.153   3.888  0.1166  0.4377 -0.2253
 6065SOL     OW24025   2.391   5.031   1.682 -0.1556  0.1139  0.0336
 6065SOL    HW224026   2.328   5.094   1.717 -1.4196 -1.8147  1.4627
 6065SOL    HW324027   2.471   5.046   1.732  0.3724  2.0806 -1.2757
 6065SOL    MW424028   2.393   5.041   1.693 -0.2527  0.1189  0.0494
 6066SOL     OW24029   1.616   3.345   5.293 -0.1578 -0.0944  0.6203
 6066SOL    HW224030   1.658   3.265   5.326  1.3244  0.4396  0.1014
 6066SOL    HW324031   1.687   3.409   5.288 -0.8552  0.6107 -1.0710
 6066SOL    MW424032   1.631   3.343   5.296 -0.0543  0.0691  0.3287
 6067SOL     OW24033   5.148   5.166   6.098 -0.4480 -0.2276  0.5832
 6067SOL    HW224034   5.181   5.190   6.185  3.1373 -2.7764  0.1546
 6067SOL    HW324035   5.200   5.220   6.038 -1.6756  0.2573 -0.0750
 6067SOL    MW424036   5.159   5.177   6.102 -0.1369 -0.4999  0.4398
 6068SOL     OW24037   1.829   4.456   0.279  0.3430  0.4179 -0.5519
 6068SOL    HW224038   1.774   4.485   0.206  0.0679 -0.1177 -0.5595
 6068SOL    HW324039   1.767   4.421   0.343  0.6341  0.2917 -0.3405
 6068SOL    MW424040   1.813   4.455   0.278  0.3451  0.3306 -0.5250
 6069SOL     OW24041   3.118   1.146   2.558  0.1849 -0.3053  0.1035
 6069SOL    HW224042   3.059   1.140   2.634  1.6502  1.8247  1.5340
 6069SOL    HW324043   3.204   1.123   2.594  0.6486 -0.8919 -1.3402
 6069SOL    MW424044   3.121   1.142   2.573  0.4394 -0.1017  0.1017
 6070SOL     OW24045   1.776   2.334   0.035  0.2025 -0.1755  0.1680
 6070SOL    HW224046   1.771   2.243   0.007 -1.7738 -0.0487 -0.0395
 6070SOL    HW324047   1.753   2.333   0.128  1.9703 -0.0549  0.6437
 6070SOL    MW424048   1.773   2.322   0.043  0.1750 -0.1429  0.2034
 6071SOL     OW24049   1.916   1.457   2.061 -0.1325 -0.0312 -0.9564
 6071SOL    HW224050   1.976   1.455   1.987 -0.2308  0.3662 -1.0536
 6071SOL    HW324051   1.855   1.528   2.039 -0.2994 -0.0671 -0.6044
 6071SOL    MW424052   1.916   1.466   2.048 -0.1675  0.0165 -0.9228
 6072SOL     OW24053   4.541   4.572   0.107  0.4326 -0.4368  0.2608
 6072SOL    HW224054   4.637   4.564   0.104  0.6514  1.4252  1.1169
 6072SOL    HW324055   4.523   4.661   0.080 -1.1807 -1.1114 -1.0317
 6072SOL    MW424056   4.551   4.582   0.103  0.2486 -0.2801  0.2032
 6073SOL     OW24057   2.385   3.318   1.191 -0.4100  0.8644 -0.2064
 6073SOL    HW224058   2.457   3.381   1.197 -0.3433  0.7894 -0.2200
 6073SOL    HW324059   2.323   3.359   1.131 -0.3353  0.8866 -0.2693
 6073SOL    MW424060   2.387   3.332   1.184 -0.3914  0.8575 -0.2165
 6074SOL     OW24061   1.047   1.208   4.149 -0.3947 -0.6686 -0.0495
 6074SOL    HW224062   1.007   1.125   4.124  0.7101 -0.7646 -1.6491
 6074SOL    HW324063   1.139   1.186   4.168 -0.5910 -0.1474  1.6605
 6074SOL    MW424064   1.054   1.194   4.149 -0.2749 -0.6125 -0.0349
 6075SOL     OW24065   5.562   0.369   3.700 -0.0897 -0.3426 -0.2320
 6075SOL    HW224066   5.503   0.438   3.729  1.9758  1.6575 -0.4466
 6075SOL    HW324067   5.572   0.312   3.776 -1.5652 -0.2456  0.0634
 6075SOL    MW424068   5.556   0.370   3.714 -0.0119 -0.0659 -0.2213
 6076SOL     OW24069   2.007   5.320   2.529 -0.4119 -0.4575 -0.2229
 6076SOL    HW224070   1.920   5.334   2.494 -0.4802  1.5923  0.5782
 6076SOL    HW324071   2.066   5.337   2.456 -0.6545 -2.0926 -0.8296
 6076SOL    MW424072   2.004   5.324   2.515 -0.4529 -0.4028 -0.1973
 6077SOL     OW24073   0.332   3.488   2.659 -0.2297  0.7548 -0.3863
 6077SOL    HW224074   0.373   3.429   2.595 -0.0821 -0.5771  0.8719
 6077SOL    HW324075   0.365   3.575   2.636 -0.2783  0.3468 -2.1744
 6077SOL    MW424076   0.342   3.492   2.647 -0.2167  0.5252 -0.4562
 6078SOL     OW24077   3.583   4.470   1.617 -0.2225  0.1061  0.2870
 6078SOL    HW224078   3.601   4.560   1.646 -0.7340 -0.3824  2.3088
 6078SOL    HW324079   3.502   4.476   1.567  0.4442  0.9368 -0.7336
 6078SOL    MW424080   3.575   4.483   1.614 -0.2020  0.1512  0.4191
 6079SOL     OW24081   4.249   1.286   0.740  0.2244  0.0805 -0.2956
 6079SOL    HW224082   4.332   1.275   0.786 -0.8655 -1.1448  1.5028
 6079SOL    HW324083   4.258   1.233   0.661  1.8501  1.5984 -1.1984
 6079SOL    MW424084   4.261   1.278   0.735  0.2951  0.1191 -0.1774
 6080SOL     OW24085   1.719   2.541   5.863  0.2612  0.0743 -0.2645
 6080SOL    HW224086   1.639   2.577   5.899 -0.2055 -0.3973 -0.8155
 6080SOL    HW324087   1.700   2.448   5.850  1.2284 -0.2563  0.5308
 6080SOL    MW424088   1.706   2.534   5.866  0.3273 -0.0316 -0.2322
 6081SOL     OW24089   2.973   0.321   6.054  0.4195  1.1833  0.5224
 6081SOL    HW224090   2.888   0.282   6.035  0.3424  1.2175  0.7809
 6081SOL    HW324091   2.973   0.404   6.007  0.4124  1.0653  0.3157
 6081SOL    MW424092   2.962   0.327   6.045  0.4084  1.1723  0.5292
 6082SOL     OW24093   0.726   5.205   1.789 -0.0571  0.3151  0.0924
 6082SOL    HW224094   0.798   5.221   1.728  0.6707  0.8094  1.0534
 6082SOL    HW324095   0.655   5.260   1.757  0.6420  1.3350  0.2483
 6082SOL    MW424096   0.726   5.214   1.777  0.1312  0.5149  0.2398
 6083SOL     OW24097   0.056   0.111   5.610  0.2035  0.7426  0.3946
 6083SOL    HW224098   0.151   0.112   5.599  0.4020  0.2832  1.8157
 6083SOL    HW324099   0.029   0.024   5.581  0.2135  0.8701 -0.0011
 6083SOL    MW424100   0.065   0.100   5.605  0.2310  0.6988  0.5299
 6084SOL     OW24101   0.139   3.748   5.592  0.5713  0.3578 -0.3382
 6084SOL    HW224102   0.139   3.792   5.676  1.0587  0.4454 -0.3824
 6084SOL    HW324103   0.231   3.743   5.567  0.3162  2.5211 -2.0109
 6084SOL    MW424104   0.151   3.753   5.599  0.6020  0.6548 -0.5647
 6085SOL     OW24105   0.650   1.456   1.798 -0.1586 -0.4080  0.0886
 6085SOL    HW224106   0.638   1.428   1.889  0.8430  2.0407  1.0655
 6085SOL    HW324107   0.741   1.485   1.793 -0.4250  0.2991 -1.4722
 6085SOL    MW424108   0.661   1.456   1.809 -0.0616  0.0084  0.0116
 6086SOL     OW24109   1.285   0.713   6.331 -0.3393  0.1755 -0.1836
 6086SOL    HW224110   1.331   0.761   6.261 -0.9047 -0.3053 -0.9002
 6086SOL    HW324111   1.210   0.674   6.287  0.2047 -1.5308  0.3553
 6086SOL    MW424112   1.281   0.714   6.316 -0.3421 -0.1130 -0.2070
 6087SOL     OW24113   4.772   5.271   2.164 -0.1689 -0.6622  0.0017
 6087SOL    HW224114   4.684   5.234   2.166 -0.1573 -0.6866  0.0664
 6087SOL    HW324115   4.768   5.346   2.223  0.2683 -1.5893  1.2494
 6087SOL    MW424116   4.760   5.276   2.172 -0.1097 -0.7878  0.1749
 6088SOL     OW24117   1.461   4.958   5.775 -0.2065 -0.4310 -0.3265
 6088SOL    HW224118   1.480   4.973   5.867 -0.4781 -1.8186 -0.0272
 6088SOL    HW324119   1.532   4.900   5.745 -0.2348 -0.1625 -0.9307
 6088SOL    MW424120   1.473   4.952   5.783 -0.2460 -0.5787 -0.3667
 6089SOL     OW24121   5.010   2.363   0.093 -0.7312 -0.0780 -0.7919
 6089SOL    HW224122   4.936   2.379   0.035 -0.2336  0.6096 -1.2656
 6089SOL    HW324123   5.000   2.273   0.122 -2.0094  0.1543 -0.4582
 6089SOL    MW424124   4.999   2.354   0.089 -0.8342  0.0434 -0.8104
 6090SOL     OW24125   2.659   1.374   3.524  0.8618 -0.7266 -0.3260
 6090SOL    HW224126   2.713   1.373   3.603  0.6649 -0.7489 -0.1894
 6090SOL    HW324127   2.573   1.342   3.553  0.0054  1.6788  0.0448
 6090SOL    MW424128   2.655   1.370   3.538  0.7228 -0.4122 -0.2590
 6091SOL     OW24129   3.543   4.842   5.045 -0.4115  0.0917 -0.2210
 6091SOL    HW224130   3.494   4.823   4.965  0.0524 -0.6793 -0.3303
 6091SOL    HW324131   3.575   4.932   5.033  0.1595 -0.2242 -1.1792
 6091SOL    MW424132   3.541   4.851   5.033 -0.2750 -0.0517 -0.3619
 6092SOL     OW24133   6.316   4.894   1.157  0.5159  0.0201 -0.4302
 6092SOL    HW224134   6.345   4.932   1.240 -2.8012 -0.0524  0.9254
 6092SOL    HW324135   6.370   4.936   1.090  1.9768  1.5248  1.5917
 6092SOL    MW424136   6.327   4.904   1.159  0.2710  0.2091  0.0154
 6093SOL     OW24137   3.469   2.987   0.554  0.1994 -0.1523 -0.4106
 6093SOL    HW224138   3.507   3.041   0.485  0.8587  0.3833  0.3441
 6093SOL    HW324139   3.514   3.015   0.634  0.6733 -1.9261 -0.0001
 6093SOL    MW424140   3.480   2.998   0.556  0.3489 -0.3157 -0.2569
 6094SOL     OW24141   0.292   3.116   1.668  0.2077  0.9574 -0.2166
 6094SOL    HW224142   0.371   3.078   1.630  0.2149  1.6587 -0.9319
 6094SOL    HW324143   0.316   3.139   1.757  1.1347  2.0679 -0.7184
 6094SOL    MW424144   0.305   3.114   1.675  0.3309  1.1965 -0.3771
 6095SOL     OW24145   0.776   2.259   6.315 -0.5058 -0.2300 -0.2584
 6095SOL    HW224146   0.818   2.174   6.326  0.7892  0.3918 -0.0692
 6095SOL    HW324147   0.688   2.240   6.285  0.8092 -1.5895 -3.7291
 6095SOL    MW424148   0.770   2.246   6.313 -0.1614 -0.3274 -0.6913
 6096SOL     OW24149   5.225   2.656   1.731 -0.2173 -0.1562 -0.3179
 6096SOL    HW224150   5.277   2.716   1.785 -0.7858  0.0390  0.0177
 6096SOL    HW324151   5.146   2.706   1.710 -1.2741 -1.2193  1.0136
 6096SOL    MW424152   5.222   2.671   1.735 -0.4318 -0.2707 -0.0979
 6097SOL     OW24153   0.897   2.098   1.982  0.4545  0.6702 -0.2756
 6097SOL    HW224154   0.913   2.193   1.986  0.9256  0.6607 -1.5851
 6097SOL    HW324155   0.985   2.059   1.982  0.3121  0.0365  3.0137
 6097SOL    MW424156   0.911   2.106   1.983  0.4979  0.5854 -0.0144
 6098SOL     OW24157   4.871   1.622   3.771  0.0048 -0.1229 -0.7099
 6098SOL    HW224158   4.777   1.608   3.776  0.0631 -0.8149 -1.3482
 6098SOL    HW324159   4.902   1.612   3.861 -0.2911 -1.8644 -0.7657
 6098SOL    MW424160   4.863   1.619   3.783 -0.0265 -0.4440 -0.8015
 6099SOL     OW24161   2.275   4.200   2.488  0.2166 -0.1156 -0.7170
 6099SOL    HW224162   2.319   4.230   2.567  1.2214 -2.5620 -0.2560
 6099SOL    HW324163   2.303   4.262   2.420  1.0186  0.8026  0.4020
 6099SOL    MW424164   2.284   4.212   2.489  0.4550 -0.3172 -0.5085
 6100SOL     OW24165   6.400   0.620   0.346 -0.2107 -0.2454 -0.1967
 6100SOL    HW224166   6.354   0.696   0.380 -0.3504  0.0753 -1.0988
 6100SOL    HW324167   6.336   0.575   0.291  0.9140  0.9645 -2.6132
 6100SOL    MW424168   6.385   0.624   0.343 -0.0808 -0.0435 -0.6345
 6101SOL     OW24169   3.957   6.061   3.160  0.1869  0.1277 -0.3346
 6101SOL    HW224170   3.975   5.978   3.203  1.5113 -0.3535 -1.7598
 6101SOL    HW324171   3.861   6.068   3.160  0.0003 -1.8844 -1.0578
 6101SOL    MW424172   3.947   6.051   3.166  0.3371 -0.2012 -0.6181
 6102SOL     OW24173   0.131   6.426   4.117 -0.3386  0.0378 -0.3568
 6102SOL    HW224174   0.080   6.444   4.037 -2.2856  1.8297  1.1819
 6102SOL    HW324175   0.101   6.340   4.146  1.1226 -1.1046 -2.0071
 6102SOL    MW424176   0.120   6.417   4.110 -0.4027  0.1235 -0.3715
 6103SOL     OW24177   5.468   4.531   3.143 -0.1757 -0.2267 -0.3316
 6103SOL    HW224178   5.557   4.566   3.145 -0.3382  0.3227 -1.5793
 6103SOL    HW324179   5.457   4.488   3.228  1.2216 -0.1781 -0.1002
 6103SOL    MW424180   5.478   4.530   3.155 -0.0128 -0.1478 -0.4657
 6104SOL     OW24181   1.884   4.746   4.646 -0.1664 -0.3275  0.5897
 6104SOL    HW224182   1.895   4.825   4.700  1.3591 -0.0972 -0.0116
 6104SOL    HW324183   1.973   4.720   4.624 -0.7314 -0.8886 -1.1480
 6104SOL    MW424184   1.897   4.753   4.650 -0.0397 -0.3712  0.2811
 6105SOL     OW24185   0.600   4.707   0.943 -0.5934 -0.3041  0.1194
 6105SOL    HW224186   0.681   4.673   0.905 -0.9906 -0.2345 -0.8081
 6105SOL    HW324187   0.609   4.690   1.037  0.9119  0.5798  0.1652
 6105SOL    MW424188   0.612   4.700   0.950 -0.4472 -0.1783  0.0031
 6106SOL     OW24189   6.146   3.338   0.877 -0.3165  0.4238  0.6755
 6106SOL    HW224190   6.158   3.422   0.921  1.4164  0.3573  0.4057
 6106SOL    HW324191   6.199   3.345   0.797  0.5658 -1.1949  1.0614
 6106SOL    MW424192   6.155   3.350   0.872  0.0286  0.2014  0.6908
 6107SOL     OW24193   5.639   5.786   2.638 -1.0635 -0.0047 -0.2775
 6107SOL    HW224194   5.563   5.843   2.637 -0.8433  0.2854 -0.7272
 6107SOL    HW324195   5.685   5.809   2.719 -0.4115  1.2183 -0.9743
 6107SOL    MW424196   5.635   5.797   2.649 -0.9485  0.1949 -0.4287
 6108SOL     OW24197   5.786   2.502   2.019 -0.6413 -0.6515  0.0448
 6108SOL    HW224198   5.708   2.478   1.968 -0.4491 -1.7987  0.2589
 6108SOL    HW324199   5.844   2.427   2.010  0.5230  0.2626 -0.2424
 6108SOL    MW424200   5.783   2.489   2.011 -0.4623 -0.6822  0.0352
 6109SOL     OW24201   3.241   1.513   4.819 -0.5470  0.2941  0.1441
 6109SOL    HW224202   3.245   1.608   4.833  2.4079  0.6390 -2.1461
 6109SOL    HW324203   3.305   1.477   4.880  2.2584  0.4409 -2.5003
 6109SOL    MW424204   3.250   1.521   4.829  0.2130  0.3590 -0.5069
 6110SOL     OW24205   2.120   5.762   1.472 -0.1674  0.3555  0.5485
 6110SOL    HW224206   2.076   5.830   1.523 -1.9238  0.4405 -0.9692
 6110SOL    HW324207   2.197   5.806   1.435 -1.0329  1.4210 -0.0414
 6110SOL    MW424208   2.124   5.777   1.474 -0.5133  0.5073  0.2704
 6111SOL     OW24209   2.090   6.159   3.445 -0.2885  0.8769 -0.4313
 6111SOL    HW224210   2.146   6.083   3.460  0.2738  1.0766 -1.4386
 6111SOL    HW324211   2.030   6.160   3.520  0.8879  0.5255  0.5390
 6111SOL    MW424212   2.089   6.149   3.457 -0.0591  0.8569 -0.4362
 6112SOL     OW24213   6.387   3.398   5.391  0.0208 -0.3823  0.3769
 6112SOL    HW224214   6.457   3.360   5.338  0.7958  0.7652  0.5357
 6112SOL    HW324215   6.311   3.400   5.332  0.7237  0.3813 -0.5368
 6112SOL    MW424216   6.386   3.393   5.376  0.2158 -0.1301  0.2773
 6113SOL     OW24217   3.068   3.551   3.496  0.3082 -0.5761  0.1951
 6113SOL    HW224218   3.071   3.641   3.464 -2.5726 -0.2285  0.5593
 6113SOL    HW324219   3.044   3.559   3.588 -1.3391 -1.6649 -0.0814
 6113SOL    MW424220   3.065   3.564   3.504 -0.2893 -0.6739  0.2066
 6114SOL     OW24221   0.439   0.467   1.810  0.2805 -0.1900  0.4295
 6114SOL    HW224222   0.441   0.524   1.887  1.9880 -0.7966  0.8714
 6114SOL    HW324223   0.441   0.526   1.735  0.5070  0.3615  0.8654
 6114SOL    MW424224   0.439   0.482   1.810  0.5357 -0.1973  0.5453
 6115SOL     OW24225   5.703   4.911   2.954  0.7165  0.2068 -0.1888
 6115SOL    HW224226   5.713   4.843   3.021  0.2875 -1.0325 -1.3320
 6115SOL    HW324227   5.739   4.872   2.875 -2.0063  0.1821 -1.5598
 6115SOL    MW424228   5.709   4.897   2.952  0.3006  0.0401 -0.5205
 6116SOL     OW24229   4.207   1.781   2.112  0.0447 -0.1330  0.4276
 6116SOL    HW224230   4.117   1.793   2.141  0.3253  0.8553  0.8979
 6116SOL    HW324231   4.231   1.864   2.072  1.8629  0.8446  3.3045
 6116SOL    MW424232   4.198   1.793   2.110  0.3216  0.1264  0.8692
 6117SOL     OW24233   0.156   3.929   2.366  0.5051  0.8302 -0.1324
 6117SOL    HW224234   0.065   3.958   2.358 -0.1491 -0.9490  0.4798
 6117SOL    HW324235   0.202   4.005   2.402 -0.5290  2.0575 -1.2731
 6117SOL    MW424236   0.150   3.943   2.369  0.2824  0.7574 -0.2021
 6118SOL     OW24237   1.613   2.579   4.689  0.7095  0.1768 -0.1891
 6118SOL    HW224238   1.651   2.502   4.730 -0.4540  0.1990  0.9677
 6118SOL    HW324239   1.541   2.545   4.636 -0.3499  0.5254  0.9940
 6118SOL    MW424240   1.609   2.564   4.687  0.4162  0.2257  0.1196
 6119SOL     OW24241   1.734   4.416   2.118 -0.1458 -0.0132  0.0877
 6119SOL    HW224242   1.775   4.500   2.137  1.4584 -0.8380  0.4171
 6119SOL    HW324243   1.705   4.423   2.027  2.5014 -0.0437 -0.8264
 6119SOL    MW424244   1.735   4.428   2.108  0.4151 -0.1260  0.0105
 6120SOL     OW24245   5.679   6.435   3.189 -0.5261  0.8234 -0.6903
 6120SOL    HW224246   5.677   6.516   3.241 -1.6491 -0.1682  0.8948
 6120SOL    HW324247   5.667   6.365   3.253  2.9791 -0.8573 -1.6636
 6120SOL    MW424248   5.677   6.437   3.204 -0.2118  0.4708 -0.6096
 6121SOL     OW24249   4.907   6.347   2.307  0.1936 -0.5315  0.4388
 6121SOL    HW224250   4.916   6.439   2.329  0.3174 -0.7891  1.5429
 6121SOL    HW324251   4.864   6.346   2.221  0.4470  0.5444  0.2923
 6121SOL    MW424252   4.903   6.359   2.299  0.2434 -0.4235  0.5651
 6122SOL     OW24253   3.060   3.799   6.006  0.1916 -0.2709 -0.1817
 6122SOL    HW224254   2.965   3.783   6.010 -0.1855  1.8416  2.2013
 6122SOL    HW324255   3.092   3.776   6.093  1.0944  2.7703  0.3987
 6122SOL    MW424256   3.051   3.794   6.018  0.2610  0.4091  0.2092
 6123SOL     OW24257   4.286   2.602   5.141  0.6379 -0.2559  0.4216
 6123SOL    HW224258   4.361   2.542   5.140  0.2318 -0.7656  0.5489
 6123SOL    HW324259   4.212   2.548   5.166 -0.2696 -0.3100 -2.1345
 6123SOL    MW424260   4.286   2.587   5.144  0.4646 -0.3303  0.1011
 6124SOL     OW24261   4.144   3.922   3.610 -0.2447  0.2893 -0.0798
 6124SOL    HW224262   4.076   3.863   3.643  1.5366 -1.9959 -0.2391
 6124SOL    HW324263   4.097   3.983   3.553 -2.5063  0.5568  1.9083
 6124SOL    MW424264   4.128   3.922   3.607 -0.3081  0.0231  0.1615
 6125SOL     OW24265   2.076   2.691   1.696 -0.1693 -1.1086  0.3045
 6125SOL    HW224266   2.100   2.782   1.716 -2.6146  0.0288 -1.3929
 6125SOL    HW324267   2.096   2.643   1.776 -0.4851  1.2924  1.9429
 6125SOL    MW424268   2.082   2.697   1.709 -0.5336 -0.6417  0.2967
 6126SOL     OW24269   3.372   3.892   3.354 -0.7464 -0.1591  0.5566
 6126SOL    HW224270   3.304   3.827   3.339  1.1240 -2.3922  1.2037
 6126SOL    HW324271   3.427   3.889   3.275  0.7970 -1.2819  1.6224
 6126SOL    MW424272   3.370   3.883   3.342 -0.2960 -0.6018  0.7826
 6127SOL     OW24273   5.095   3.633   6.378 -0.6858  0.4612 -0.2343
 6127SOL    HW224274   5.161   3.577   6.418 -0.4233  1.3709  0.6640
 6127SOL    HW324275   5.137   3.718   6.370 -0.6232  0.2696 -2.8037
 6127SOL    MW424276   5.109   3.637   6.382 -0.6429  0.5559 -0.4548
 6128SOL     OW24277   6.381   0.382   1.747 -0.0753 -0.9991  0.2180
 6128SOL    HW224278   6.313   0.341   1.800 -0.1328 -0.7419  0.3435
 6128SOL    HW324279   6.422   0.445   1.806  0.2926 -1.1734  0.1536
 6128SOL    MW424280   6.378   0.385   1.762 -0.0343 -0.9882  0.2261
 6129SOL     OW24281   6.166   3.346   5.231 -0.0149  0.0348 -0.0067
 6129SOL    HW224282   6.082   3.391   5.242  0.4931  0.9310  0.2653
 6129SOL    HW324283   6.151   3.258   5.266 -0.0568  1.0342  2.6530
 6129SOL    MW424284   6.153   3.340   5.237  0.0466  0.2849  0.3801
 6130SOL     OW24285   4.048   3.011   0.194  0.0593 -0.0048 -0.2279
 6130SOL    HW224286   4.063   2.973   0.107  0.4315 -0.2327 -0.0621
 6130SOL    HW324287   4.000   3.093   0.176  0.3894  0.0942 -0.6650
 6130SOL    MW424288   4.043   3.017   0.180  0.1520 -0.0218 -0.2637
 6131SOL     OW24289   1.254   1.003   3.801 -0.2985 -0.1815  0.4061
 6131SOL    HW224290   1.283   1.068   3.865 -1.0055 -0.0462  0.5969
 6131SOL    HW324291   1.322   0.935   3.803  1.4200  1.3611 -1.0851
 6131SOL    MW424292   1.267   1.003   3.809 -0.1651  0.0399  0.2345
 6132SOL     OW24293   5.195   2.234   5.956  0.4226 -0.2628 -0.0935
 6132SOL    HW224294   5.151   2.316   5.980 -0.2333 -0.2790 -1.1829
 6132SOL    HW324295   5.205   2.188   6.039  0.7112  0.8695  0.5244
 6132SOL    MW424296   5.190   2.239   5.970  0.3742 -0.1155 -0.1557
 6133SOL     OW24297   4.888   6.272   4.081 -1.0775  0.7109 -0.2331
 6133SOL    HW224298   4.949   6.289   4.152 -1.5179  0.3265  0.2478
 6133SOL    HW324299   4.910   6.336   4.014  1.2028 -0.7033 -0.9442
 6133SOL    MW424300   4.899   6.283   4.081 -0.8347  0.4736 -0.2635
 6134SOL     OW24301   5.366   0.859   5.314 -0.5911  0.0956 -0.6565
 6134SOL    HW224302   5.436   0.801   5.287 -0.7385 -0.0261 -0.7791
 6134SOL    HW324303   5.322   0.813   5.385  2.0880  1.9629  2.4960
 6134SOL    MW424304   5.369   0.845   5.320 -0.2570  0.3259 -0.2567
 6135SOL     OW24305   1.515   4.177   4.987 -0.3537  0.6346 -0.3713
 6135SOL    HW224306   1.450   4.239   5.019  0.3401  0.3244  1.7708
 6135SOL    HW324307   1.586   4.231   4.953  0.2088  1.0516  1.4017
 6135SOL    MW424308   1.516   4.192   4.987 -0.1880  0.6487  0.1453
 6136SOL     OW24309   0.926   0.272   5.710  0.1442  0.0121  0.7422
 6136SOL    HW224310   0.883   0.216   5.645 -0.7834  0.4898  0.9229
 6136SOL    HW324311   0.990   0.322   5.659  1.8497 -2.0043  0.7588
 6136SOL    MW424312   0.928   0.271   5.695  0.2469 -0.1909  0.7682
 6137SOL     OW24313   3.953   1.725   6.226 -0.4019 -0.4945 -0.0671
 6137SOL    HW224314   3.983   1.757   6.141 -0.5919 -0.1009  0.0119
 6137SOL    HW324315   4.027   1.743   6.285 -1.3488  2.0664  0.5024
 6137SOL    MW424316   3.967   1.732   6.222 -0.5519 -0.1047  0.0185
 6138SOL     OW24317   0.573   2.970   0.371 -0.0421  0.8681 -0.1793
 6138SOL    HW224318   0.618   2.907   0.315 -0.6111  0.7743 -0.5422
 6138SOL    HW324319   0.513   2.918   0.423 -0.6550  1.1263 -0.6182
 6138SOL    MW424320   0.571   2.955   0.370 -0.1980  0.8898 -0.2851
 6139SOL     OW24321   6.160   2.512   0.058  0.1164  0.0726 -0.1430
 6139SOL    HW224322   6.223   2.521  -0.014 -0.1450 -1.5658 -0.6311
 6139SOL    HW324323   6.207   2.461   0.124  0.5973  2.1683  1.2032
 6139SOL    MW424324   6.174   2.506   0.057  0.1453  0.1329 -0.0298
 6140SOL     OW24325   1.590   2.598   2.628 -0.0118 -0.4461  0.1902
 6140SOL    HW224326   1.617   2.615   2.718  3.1573 -3.1452 -0.0696
 6140SOL    HW324327   1.497   2.575   2.634 -0.2402  0.8564  2.5102
 6140SOL    MW424328   1.582   2.597   2.641  0.3762 -0.6304  0.4620
 6141SOL     OW24329   2.212   2.990   0.601 -0.4602 -0.4206  0.1072
 6141SOL    HW224330   2.193   3.067   0.546  0.9120  1.3134  1.8951
 6141SOL    HW324331   2.295   2.957   0.566  0.8747  1.2150  1.5589
 6141SOL    MW424332   2.221   2.996   0.589 -0.1030  0.0240  0.5346
 6142SOL     OW24333   1.864   4.000   4.849  0.2364  0.2896  0.1607
 6142SOL    HW224334   1.918   4.061   4.899 -0.7102  1.6867 -0.4397
 6142SOL    HW324335   1.858   3.922   4.904 -0.3298  1.5618  2.0070
 6142SOL    MW424336   1.871   3.998   4.863  0.0368  0.6418  0.3251
 6143SOL     OW24337   4.256   5.342   3.390  0.0407  0.1839 -0.0962
 6143SOL    HW224338   4.210   5.315   3.469 -1.7798 -1.2134 -1.5425
 6143SOL    HW324339   4.209   5.299   3.318  1.5597  1.4455 -1.9686
 6143SOL    MW424340   4.244   5.333   3.391  0.0009  0.1660 -0.5341
 6144SOL     OW24341   0.831   4.302   4.131  0.1695  0.1732 -0.5359
 6144SOL    HW224342   0.812   4.328   4.040  1.9064  2.4586 -0.3424
 6144SOL    HW324343   0.747   4.310   4.176 -0.6409 -0.6215 -1.8424
 6144SOL    MW424344   0.818   4.307   4.125  0.2917  0.3699 -0.6827
 6145SOL     OW24345   4.166   0.415   3.925 -0.1838 -0.1562 -0.0226
 6145SOL    HW224346   4.084   0.366   3.929 -0.6175  0.5221 -0.2172
 6145SOL    HW324347   4.181   0.429   3.832  1.7630 -2.8260 -0.2132
 6145SOL    MW424348   4.157   0.411   3.914  0.0158 -0.4189 -0.0734
 6146SOL     OW24349   4.147   4.496   4.742  0.3888 -0.1126  0.2150
 6146SOL    HW224350   4.207   4.552   4.790  2.4149 -1.2667 -0.8425
 6146SOL    HW324351   4.111   4.436   4.808  2.5427 -1.1775  0.5072
 6146SOL    MW424352   4.150   4.495   4.757  0.9403 -0.4054  0.1141
 6147SOL     OW24353   5.638   4.192   2.597  0.1985  0.0869  0.0654
 6147SOL    HW224354   5.630   4.152   2.511  0.5337  1.3560 -0.5933
 6147SOL    HW324355   5.596   4.131   2.657  2.1415 -2.0393 -0.6069
 6147SOL    MW424356   5.632   4.179   2.593  0.4990 -0.0262 -0.1102
 6148SOL     OW24357   2.643   2.199   5.300  0.6096  0.2939 -0.1535
 6148SOL    HW224358   2.677   2.274   5.349  0.6489  1.1453 -1.4307
 6148SOL    HW324359   2.615   2.236   5.216  0.1313 -1.0415 -0.6121
 6148SOL    MW424360   2.643   2.214   5.296  0.5517  0.2301 -0.3825
 6149SOL     OW24361   0.328   5.266   2.588  0.2648 -0.1524  0.4402
 6149SOL    HW224362   0.361   5.356   2.591 -0.4638  0.1548 -0.2598
 6149SOL    HW324363   0.233   5.276   2.583  0.0233 -0.9971  2.3667
 6149SOL    MW424364   0.320   5.279   2.588  0.1368 -0.2233  0.6020
 6150SOL     OW24365   2.816   5.632   1.986 -0.0257  0.3822 -0.6304
 6150SOL    HW224366   2.910   5.649   1.991  0.1377 -0.6720  0.5562
 6150SOL    HW324367   2.774   5.712   2.017  0.5661  0.1094  0.9436
 6150SOL    MW424368   2.823   5.644   1.990  0.0740  0.2071 -0.2661
 6151SOL     OW24369   1.717   5.929   1.249  0.2248 -0.2417 -0.5662
 6151SOL    HW224370   1.772   5.853   1.233  2.1021  0.3716  2.1985
 6151SOL    HW324371   1.665   5.904   1.327 -1.2362  0.3137 -1.3222
 6151SOL    MW424372   1.717   5.916   1.257  0.2798 -0.0875 -0.3012
 6152SOL     OW24373   3.510   6.172   2.438  0.3894  0.0324  0.2113
 6152SOL    HW224374   3.418   6.176   2.411  0.2328 -1.7099  0.3988
 6152SOL    HW324375   3.506   6.168   2.534  0.6240 -0.7278  0.1903
 6152SOL    MW424376   3.497   6.172   2.447  0.3997 -0.2978  0.2333
 6153SOL     OW24377   6.010   4.008   2.593  0.7849  0.0599  0.4862
 6153SOL    HW224378   6.066   3.939   2.556  0.7284 -0.7791  1.9015
 6153SOL    HW324379   5.960   3.964   2.662 -0.2860  1.2140  0.4878
 6153SOL    MW424380   6.011   3.993   2.597  0.6361  0.1015  0.6732
 6154SOL     OW24381   1.377   0.699   2.998  0.1815 -0.6216 -0.3462
 6154SOL    HW224382   1.353   0.775   3.052 -1.3924 -2.1898  1.3149
 6154SOL    HW324383   1.324   0.709   2.919  1.3940  0.9400 -1.0071
 6154SOL    MW424384   1.367   0.711   2.995  0.1338 -0.6225 -0.2142
 6155SOL     OW24385   0.849   0.226   2.165  0.1566 -0.2692  0.0293
 6155SOL    HW224386   0.822   0.316   2.147  1.7699  0.0192 -1.0637
 6155SOL    HW324387   0.898   0.232   2.247 -1.0410 -0.4307  0.7849
 6155SOL    MW424388   0.852   0.239   2.174  0.2115 -0.2525 -0.0152
 6156SOL     OW24389   1.433   2.750   2.055 -0.1723 -0.5165 -0.1191
 6156SOL    HW224390   1.496   2.707   1.998  0.3237  0.1582 -0.0919
 6156SOL    HW324391   1.485   2.785   2.127 -0.7324 -0.9584  0.5100
 6156SOL    MW424392   1.448   2.749   2.057 -0.1807 -0.4858 -0.0325
 6157SOL     OW24393   3.577   3.616   1.199 -0.4399  0.7636  0.0034
 6157SOL    HW224394   3.673   3.618   1.202 -0.1190 -2.9974  4.6444
 6157SOL    HW324395   3.550   3.691   1.253  0.2190 -0.1677  1.7220
 6157SOL    MW424396   3.586   3.626   1.207 -0.3107  0.1445  0.8424
 6158SOL     OW24397   3.832   4.334   0.478  0.1109  0.6630  0.2210
 6158SOL    HW224398   3.796   4.249   0.451  0.6904  0.4746  0.0116
 6158SOL    HW324399   3.900   4.352   0.413 -0.1818  1.4153  0.1171
 6158SOL    MW424400   3.836   4.325   0.466  0.1487  0.7374  0.1796
 6159SOL     OW24401   4.714   6.359   3.609  0.0475  0.0871  0.4215
 6159SOL    HW224402   4.733   6.439   3.659  0.5996  0.0526  0.2787
 6159SOL    HW324403   4.651   6.312   3.663  0.6838  0.0253  1.1231
 6159SOL    MW424404   4.708   6.364   3.623  0.2043  0.0744  0.4953
 6160SOL     OW24405   5.514   1.912   1.327  0.2937 -0.7916 -0.0289
 6160SOL    HW224406   5.473   1.912   1.413 -1.2686 -0.1953 -0.7419
 6160SOL    HW324407   5.586   1.975   1.334  0.5602 -1.1868  0.9861
 6160SOL    MW424408   5.518   1.920   1.339  0.1228 -0.7651  0.0109
 6161SOL     OW24409   0.504   2.913   5.725  0.1611  0.4753 -0.2296
 6161SOL    HW224410   0.469   2.825   5.739 -0.9169  0.3413 -3.1965
 6161SOL    HW324411   0.553   2.907   5.643 -0.7013  2.8284 -0.9887
 6161SOL    MW424412   0.506   2.901   5.716 -0.0949  0.7680 -0.7212
 6162SOL     OW24413   2.052   0.703   5.235 -0.3610  0.1447 -0.0204
 6162SOL    HW224414   2.028   0.762   5.307 -0.7549  0.6473 -0.5563
 6162SOL    HW324415   1.969   0.678   5.196 -0.2778 -1.5683  0.7980
 6162SOL    MW424416   2.038   0.707   5.240 -0.4020 -0.0150  0.0169
 6163SOL     OW24417   3.041   0.142   2.993  0.4595  0.3037 -0.2389
 6163SOL    HW224418   2.980   0.133   3.066 -0.5538 -0.4956 -1.1509
 6163SOL    HW324419   3.037   0.235   2.969 -1.3210  0.0667 -1.0171
 6163SOL    MW424420   3.032   0.153   2.999  0.0909  0.1669 -0.4619
 6164SOL     OW24421   4.163   1.712   3.011 -0.3875 -0.0572 -0.1348
 6164SOL    HW224422   4.198   1.775   3.074 -0.3694  0.2674 -0.4711
 6164SOL    HW324423   4.138   1.637   3.065  0.0900  0.0222  0.2008
 6164SOL    MW424424   4.164   1.710   3.026 -0.3221 -0.0039 -0.1349
 6165SOL     OW24425   4.802   3.819   5.984  0.3281 -0.2789 -0.1215
 6165SOL    HW224426   4.864   3.815   5.910 -0.2611 -0.0607 -0.6306
 6165SOL    HW324427   4.787   3.727   6.006  0.7007 -0.3400 -0.1030
 6165SOL    MW424428   4.808   3.806   5.977  0.2995 -0.2582 -0.1862
 6166SOL     OW24429   2.256   4.913   1.096  0.2184 -0.5543 -0.2377
 6166SOL    HW224430   2.187   4.848   1.080 -0.4064 -0.0052  0.1275
 6166SOL    HW324431   2.334   4.862   1.114 -0.3638 -1.2223  0.4887
 6166SOL    MW424432   2.257   4.898   1.096  0.0592 -0.5700 -0.0937
 6167SOL     OW24433   5.491   4.260   0.865  0.3965  0.4815 -0.0480
 6167SOL    HW224434   5.526   4.313   0.937 -0.9719 -0.6358  1.5196
 6167SOL    HW324435   5.439   4.322   0.813  3.4339  1.8790 -1.6784
 6167SOL    MW424436   5.489   4.275   0.868  0.6167  0.5185 -0.0563
 6168SOL     OW24437   0.665   4.144   3.260  0.5071  0.1967 -0.2682
 6168SOL    HW224438   0.600   4.074   3.259  1.9720 -1.2323 -0.5630
 6168SOL    HW324439   0.675   4.167   3.352  1.6980 -1.7096  0.1430
 6168SOL    MW424440   0.658   4.138   3.272  0.8575 -0.2434 -0.2529
 6169SOL     OW24441   4.585   3.190   2.028 -0.1093  0.3335  0.1112
 6169SOL    HW224442   4.581   3.144   2.111 -0.6953  0.7637  0.3240
 6169SOL    HW324443   4.502   3.170   1.985 -0.8056  1.9556  0.6255
 6169SOL    MW424444   4.574   3.182   2.033 -0.2785  0.6043  0.2072
 6170SOL     OW24445   2.764   1.782   5.931 -0.3605 -0.1751  0.2574
 6170SOL    HW224446   2.689   1.726   5.951 -1.5474  0.8011 -1.2386
 6170SOL    HW324447   2.727   1.870   5.925  0.0063 -0.0835 -4.3195
 6170SOL    MW424448   2.749   1.786   5.932 -0.4687 -0.0342 -0.5439
 6171SOL     OW24449   3.211   5.536   5.291 -0.0267  0.6016 -0.3466
 6171SOL    HW224450   3.298   5.533   5.251 -0.4201 -2.9407 -1.2775
 6171SOL    HW324451   3.156   5.582   5.228  0.9607  2.2949 -0.0358
 6171SOL    MW424452   3.215   5.542   5.278  0.0517  0.3576 -0.4284
 6172SOL     OW24453   4.778   0.260   0.222 -0.6399 -0.9269  0.6942
 6172SOL    HW224454   4.809   0.239   0.134  0.0584  0.1828  0.6594
 6172SOL    HW324455   4.683   0.270   0.212 -0.5417 -0.6118  0.0289
 6172SOL    MW424456   4.769   0.259   0.209 -0.5348 -0.7389  0.6018
 6173SOL     OW24457   4.693   4.777   3.644  0.4598 -0.1787 -0.0733
 6173SOL    HW224458   4.599   4.787   3.657  0.6440  0.0811  1.2795
 6173SOL    HW324459   4.727   4.762   3.732  1.5043 -1.8529 -0.7315
 6173SOL    MW424460   4.685   4.777   3.657  0.6219 -0.3653  0.0184
 6174SOL     OW24461   2.860   3.696   2.277 -0.4737  0.6528  0.0962
 6174SOL    HW224462   2.895   3.665   2.194 -2.1472  0.3928 -0.5563
 6174SOL    HW324463   2.834   3.787   2.260  0.4907  1.0780  0.7743
 6174SOL    MW424464   2.861   3.704   2.264 -0.5673  0.6746  0.0996
 6175SOL     OW24465   4.523   2.834   0.311  0.4267 -0.5011 -0.5047
 6175SOL    HW224466   4.614   2.830   0.341 -0.1152 -0.5933  1.2309
 6175SOL    HW324467   4.500   2.927   0.318  0.4069 -0.4707 -0.9853
 6175SOL    MW424468   4.532   2.846   0.316  0.3526 -0.5092 -0.3392
 6176SOL     OW24469   6.326   2.869   1.941 -0.0531  0.0782 -0.1840
 6176SOL    HW224470   6.244   2.843   1.899 -0.0381 -1.3285  0.5857
 6176SOL    HW324471   6.384   2.891   1.868 -1.4209  2.2660 -0.7275
 6176SOL    MW424472   6.323   2.868   1.926 -0.2316  0.1813 -0.1542
 6177SOL     OW24473   4.491   2.739   4.899 -0.1325 -0.4537  0.1311
 6177SOL    HW224474   4.526   2.818   4.858 -0.9597 -0.3080 -0.3241
 6177SOL    HW324475   4.510   2.749   4.992 -0.1582  0.2479  0.0653
 6177SOL    MW424476   4.498   2.751   4.906 -0.2451 -0.3419  0.0624
 6178SOL     OW24477   2.105   3.545   0.625  0.1315 -0.2801 -0.4300
 6178SOL    HW224478   2.075   3.618   0.570  0.1902 -0.0756 -0.1922
 6178SOL    HW324479   2.024   3.506   0.658  0.1172  0.5281  0.5454
 6178SOL    MW424480   2.090   3.549   0.622  0.1374 -0.1465 -0.2699
 6179SOL     OW24481   5.094   4.063   5.885 -0.1111  0.1270  0.0063
 6179SOL    HW224482   5.138   4.092   5.805  0.9146  0.6373  0.7305
 6179SOL    HW324483   5.106   3.968   5.885  2.3775  0.3751  0.9298
 6179SOL    MW424484   5.102   4.054   5.874  0.3526  0.2271  0.2237
 6180SOL     OW24485   0.504   0.450   2.928  0.3695  0.0530  0.1018
 6180SOL    HW224486   0.570   0.398   2.974 -0.6855 -1.1293  0.3096
 6180SOL    HW324487   0.452   0.386   2.880 -1.6770  0.7777  1.2483
 6180SOL    MW424488   0.506   0.435   2.928 -0.0397 -0.0074  0.2805
 6181SOL     OW24489   4.203   2.013   5.770 -0.9846  0.0049  0.0112
 6181SOL    HW224490   4.213   2.087   5.709 -0.6559 -0.3179 -0.3299
 6181SOL    HW324491   4.291   1.978   5.779 -1.0789 -0.1209  0.4672
 6181SOL    MW424492   4.216   2.018   5.763 -0.9537 -0.0543  0.0263
 6182SOL     OW24493   2.153   1.033   3.111 -0.2932  0.0430 -0.1552
 6182SOL    HW224494   2.102   1.048   3.191  0.6306 -1.5004  0.7699
 6182SOL    HW324495   2.152   1.118   3.066 -1.3099  0.7939  1.1983
 6182SOL    MW424496   2.146   1.047   3.116 -0.3054 -0.0615  0.1454
 6183SOL     OW24497   4.645   4.973   5.441  0.2209  0.0345  0.5691
 6183SOL    HW224498   4.554   4.975   5.413  0.3437 -2.3660 -0.1847
 6183SOL    HW324499   4.641   4.966   5.536 -0.3159  1.3904  0.6724
 6183SOL    MW424500   4.633   4.973   5.450  0.1663 -0.1033  0.4833
 6184SOL     OW24501   3.586   1.002   0.814 -0.3510 -0.1159 -0.0249
 6184SOL    HW224502   3.551   1.037   0.733  0.3715 -1.6820 -1.0810
 6184SOL    HW324503   3.639   1.072   0.850 -1.9160  1.1429 -0.0728
 6184SOL    MW424504   3.589   1.016   0.808 -0.4622 -0.1565 -0.1706
 6185SOL     OW24505   1.136   2.883   0.523 -0.6467  0.0415 -0.3376
 6185SOL    HW224506   1.119   2.851   0.434 -0.0959 -0.7884 -0.1526
 6185SOL    HW324507   1.218   2.932   0.515 -1.7176  1.8739 -0.7147
 6185SOL    MW424508   1.145   2.886   0.510 -0.7153  0.1738 -0.3629
 6186SOL     OW24509   3.554   6.050   6.157 -0.1753  0.1945  0.3902
 6186SOL    HW224510   3.547   6.095   6.073  1.2873 -0.9023 -0.3584
 6186SOL    HW324511   3.647   6.033   6.168 -0.2820  0.7294  2.4818
 6186SOL    MW424512   3.565   6.053   6.147  0.0036  0.1203  0.5674
 6187SOL     OW24513   0.210   2.097   5.699 -0.1793  0.2423  0.4400
 6187SOL    HW224514   0.230   2.189   5.682 -1.4161  0.8003  1.8224
 6187SOL    HW324515   0.284   2.066   5.753  0.1969  0.4390  0.0418
 6187SOL    MW424516   0.223   2.105   5.704 -0.2929  0.3419  0.5699
 6188SOL     OW24517   1.710   2.209   1.534 -0.1905 -0.0447 -0.0823
 6188SOL    HW224518   1.794   2.191   1.576 -0.6136 -0.2994  0.6675
 6188SOL    HW324519   1.663   2.264   1.596 -0.5555  0.1629 -0.5285
 6188SOL    MW424520   1.715   2.214   1.547 -0.2945 -0.0509 -0.0422
 6189SOL     OW24521   3.527   4.721   1.397 -0.0034 -0.1186  0.8212
 6189SOL    HW224522   3.487   4.767   1.471 -2.4034  1.8377 -1.4823
 6189SOL    HW324523   3.452   4.690   1.346  1.5260 -0.6860 -1.1766
 6189SOL    MW424524   3.512   4.723   1.400 -0.1183  0.0646  0.2537
 6190SOL     OW24525   3.425   1.325   5.901  0.1299 -0.0638 -0.4132
 6190SOL    HW224526   3.493   1.385   5.933  0.2307  0.3370 -1.3425
 6190SOL    HW324527   3.343   1.368   5.923  0.1941 -0.0168 -0.2639
 6190SOL    MW424528   3.423   1.339   5.908  0.1516 -0.0047 -0.5161
 6191SOL     OW24529   2.670   1.158   4.971  0.1483 -0.9299  0.1147
 6191SOL    HW224530   2.721   1.079   4.953  0.6275 -0.8359  0.9862
 6191SOL    HW324531   2.736   1.223   4.998 -0.3291 -0.4895  0.2232
 6191SOL    MW424532   2.686   1.156   4.972  0.1485 -0.8594  0.2440
 6192SOL     OW24533   1.389   0.893   1.863  0.3087 -0.1919  0.1177
 6192SOL    HW224534   1.479   0.925   1.855  1.1026 -2.2123  0.1553
 6192SOL    HW324535   1.387   0.816   1.805 -1.2271 -0.4909  0.5433
 6192SOL    MW424536   1.401   0.887   1.854  0.2108 -0.4979  0.1788
 6193SOL     OW24537   2.241   3.974   2.654  0.7195 -0.0122  0.1259
 6193SOL    HW224538   2.254   4.048   2.594 -0.4873 -0.0783 -0.2515
 6193SOL    HW324539   2.203   3.906   2.599  0.4968 -0.4181  0.7763
 6193SOL    MW424540   2.238   3.975   2.639  0.5309 -0.0744  0.1619
 6194SOL     OW24541   3.494   4.210   1.321  0.1846  0.5163 -0.0474
 6194SOL    HW224542   3.432   4.147   1.283  1.5746  0.1924 -1.9337
 6194SOL    HW324543   3.483   4.199   1.416 -0.1817 -2.0228 -0.2936
 6194SOL    MW424544   3.484   4.200   1.329  0.3197  0.1386 -0.3287
 6195SOL     OW24545   2.064   6.186   3.885  0.8468  0.4662 -0.3653
 6195SOL    HW224546   1.983   6.186   3.834  0.1432  0.9605  0.7166
 6195SOL    HW324547   2.127   6.142   3.829 -0.6386 -1.6204 -0.4898
 6195SOL    MW424548   2.061   6.181   3.871  0.5580  0.2561 -0.2390
 6196SOL     OW24549   5.725   2.065   0.266  0.3171 -0.0683  0.0954
 6196SOL    HW224550   5.787   2.136   0.248  0.0491  0.0002 -0.5813
 6196SOL    HW324551   5.696   2.036   0.179  0.0471 -0.6725  0.3802
 6196SOL    MW424552   5.730   2.070   0.252  0.2461 -0.1390  0.0437
 6197SOL     OW24553   2.200   3.103   5.712 -0.0505 -0.0555  0.1707
 6197SOL    HW224554   2.186   3.070   5.623 -1.4054  1.4054 -0.1990
 6197SOL    HW324555   2.273   3.050   5.745 -2.4939 -3.9394 -0.0326
 6197SOL    MW424556   2.208   3.092   5.704 -0.5516 -0.3752  0.0951
 6198SOL     OW24557   5.173   2.126   2.642  0.1098 -0.7204  0.4323
 6198SOL    HW224558   5.216   2.149   2.559 -0.5720 -0.6530  0.0878
 6198SOL    HW324559   5.241   2.139   2.708  0.7998 -1.1900 -0.1590
 6198SOL    MW424560   5.188   2.131   2.640  0.1109 -0.7735  0.3088
 6199SOL     OW24561   3.566   1.265   4.327 -0.1130  0.1031  0.1016
 6199SOL    HW224562   3.638   1.205   4.344 -0.2728 -0.1012  0.0647
 6199SOL    HW324563   3.563   1.274   4.232  0.1542  0.4718  0.1263
 6199SOL    MW424564   3.575   1.258   4.317 -0.0988  0.1248  0.1000
 6200SOL     OW24565   5.637   0.684   0.770  0.2683 -0.1072 -0.1080
 6200SOL    HW224566   5.680   0.602   0.750 -0.4821 -0.7156  0.6712
 6200SOL    HW324567   5.547   0.674   0.737  0.8526  1.4227 -2.3968
 6200SOL    MW424568   5.631   0.672   0.763  0.2464  0.0144 -0.3072
 6201SOL     OW24569   5.221   4.500   4.509  0.2189 -0.0021  0.0830
 6201SOL    HW224570   5.192   4.590   4.523 -0.3939 -0.2683  0.5635
 6201SOL    HW324571   5.143   4.454   4.477  0.2431 -0.6023  0.8640
 6201SOL    MW424572   5.207   4.506   4.507  0.1412 -0.1164  0.2494
 6202SOL     OW24573   4.867   2.178   2.092  0.2212  0.5327  0.6694
 6202SOL    HW224574   4.825   2.184   2.177  1.5162  2.7040  1.2139
 6202SOL    HW324575   4.872   2.268   2.060  2.0360  0.0766 -0.5392
 6202SOL    MW424576   4.862   2.191   2.099  0.6315  0.7590  0.5817
 6203SOL     OW24577   0.161   2.370   1.535 -0.1985 -0.6888  0.3923
 6203SOL    HW224578   0.141   2.388   1.444 -0.7453  1.8623  0.9449
 6203SOL    HW324579   0.093   2.309   1.563 -1.4912  0.3742 -0.3079
 6203SOL    MW424580   0.149   2.364   1.527 -0.4412 -0.2119  0.3728
 6204SOL     OW24581   3.195   0.207   0.634 -0.7112  0.0944 -0.5491
 6204SOL    HW224582   3.124   0.172   0.688 -0.4587  0.3042 -0.0685
 6204SOL    HW324583   3.261   0.138   0.634 -0.5829  0.2132 -0.3276
 6204SOL    MW424584   3.195   0.193   0.641 -0.6609  0.1377 -0.4565
 6205SOL     OW24585   3.103   5.271   6.394  0.1477 -0.3232 -0.1824
 6205SOL    HW224586   3.195   5.248   6.405 -0.1567 -1.0589  1.1096
 6205SOL    HW324587   3.055   5.194   6.426 -0.9175  0.7948  1.0639
 6205SOL    MW424588   3.109   5.257   6.400 -0.0330 -0.2728  0.1525
 6206SOL     OW24589   2.326   3.487   2.960  0.2088  0.5251  0.3617
 6206SOL    HW224590   2.301   3.404   2.918 -2.2084  1.7508 -0.7823
 6206SOL    HW324591   2.278   3.488   3.042  0.8834  0.4572  0.7647
 6206SOL    MW424592   2.317   3.476   2.965 -0.0211  0.6778  0.2640
 6207SOL     OW24593   3.551   1.121   3.086 -0.2670 -1.1099  0.6903
 6207SOL    HW224594   3.616   1.175   3.131 -0.9230 -0.4475  0.8737
 6207SOL    HW324595   3.470   1.135   3.136 -0.6815 -1.4644  0.1285
 6207SOL    MW424596   3.549   1.130   3.099 -0.4082 -1.0692  0.6404
 6208SOL     OW24597   3.758   2.426   1.150  0.2807  0.0163  0.8847
 6208SOL    HW224598   3.693   2.484   1.111  0.3876  0.7564  1.7600
 6208SOL    HW324599   3.836   2.480   1.160  0.0458  0.0808  2.7169
 6208SOL    MW424600   3.759   2.441   1.147  0.2638  0.1225  1.2420
 6209SOL     OW24601   4.725   0.398   5.117 -0.4235 -0.6694  0.0581
 6209SOL    HW224602   4.778   0.381   5.040 -0.3628 -2.1081  0.3856
 6209SOL    HW324603   4.787   0.395   5.190 -0.8223 -1.6950  0.3779
 6209SOL    MW424604   4.740   0.396   5.117 -0.4681 -0.9945  0.1435
 6210SOL     OW24605   0.435   4.822   2.871 -0.1984 -0.3949 -0.1414
 6210SOL    HW224606   0.382   4.902   2.879  1.9991  1.3611 -1.5831
 6210SOL    HW324607   0.502   4.831   2.939 -0.3360 -1.3804  0.1361
 6210SOL    MW424608   0.437   4.834   2.881  0.0734 -0.2933 -0.2950
 6211SOL     OW24609   4.786   0.184   4.020 -0.2799  0.2213 -0.6231
 6211SOL    HW224610   4.744   0.161   4.103  1.7439  1.6408  0.8937
 6211SOL    HW324611   4.879   0.191   4.040  0.2096  1.2724 -2.8615
 6211SOL    MW424612   4.792   0.182   4.033  0.0517  0.5472 -0.7183
 6212SOL     OW24613   2.145   4.801   2.228  0.3222 -0.5557 -0.8019
 6212SOL    HW224614   2.165   4.862   2.157  1.9939 -0.7240 -0.5147
 6212SOL    HW324615   2.102   4.727   2.184 -0.6280  0.2714 -1.3134
 6212SOL    MW424616   2.142   4.799   2.213  0.4174 -0.4688 -0.8315
 6213SOL     OW24617   1.833   2.896   3.235  0.5581  0.6572 -0.1405
 6213SOL    HW224618   1.891   2.971   3.226  1.4404 -0.2931 -4.0568
 6213SOL    HW324619   1.745   2.933   3.231  0.9331  1.6593  0.5704
 6213SOL    MW424620   1.829   2.911   3.234  0.7240  0.6641 -0.5634
 6214SOL     OW24621   2.967   1.754   1.358  0.2291 -0.1263 -0.7582
 6214SOL    HW224622   2.984   1.698   1.434  0.7151  1.0518  0.0542
 6214SOL    HW324623   3.047   1.807   1.350 -0.7481  1.4767 -0.5235
 6214SOL    MW424624   2.980   1.754   1.367  0.1643  0.2407 -0.6200
 6215SOL     OW24625   3.521   3.073   3.427  0.4548 -0.2364 -0.6689
 6215SOL    HW224626   3.614   3.089   3.437  0.6204 -0.3813 -1.8270
 6215SOL    HW324627   3.495   3.030   3.508  1.4346 -0.3737 -0.4164
 6215SOL    MW424628   3.530   3.069   3.439  0.6059 -0.2736 -0.7884
 6216SOL     OW24629   0.339   4.472   5.047  0.7870  0.1586  0.7396
 6216SOL    HW224630   0.278   4.452   5.118  0.8238  0.7641  0.9475
 6216SOL    HW324631   0.303   4.425   4.972  0.3088  0.1453  0.9690
 6216SOL    MW424632   0.326   4.463   5.046  0.7287  0.2367  0.7973
 6217SOL     OW24633   3.787   1.186   2.505  0.7349  0.0314 -0.2574
 6217SOL    HW224634   3.814   1.212   2.594  1.1318 -0.1316 -0.3296
 6217SOL    HW324635   3.816   1.095   2.497  2.8741  0.7458 -1.4069
 6217SOL    MW424636   3.794   1.177   2.516  1.0695  0.1041 -0.4186
 6218SOL     OW24637   2.443   5.292   5.209 -0.5035  0.0334  0.7657
 6218SOL    HW224638   2.522   5.301   5.263 -0.3648 -1.5904  0.8830
 6218SOL    HW324639   2.472   5.311   5.120  0.4088 -1.9835  0.5818
 6218SOL    MW424640   2.457   5.296   5.204 -0.3648 -0.4470  0.7569
 6219SOL     OW24641   3.986   5.502   5.014 -0.1895  0.0229  0.1178
 6219SOL    HW224642   4.039   5.484   4.936 -1.6432  0.2256 -0.9602
 6219SOL    HW324643   3.936   5.422   5.028  0.9836 -0.4907  1.6559
 6219SOL    MW424644   3.987   5.489   5.005 -0.2265 -0.0181  0.1785
 6220SOL     OW24645   1.222   1.392   1.343  0.3399 -0.2620 -0.1676
 6220SOL    HW224646   1.147   1.395   1.284 -0.3058 -1.2984  0.5542
 6220SOL    HW324647   1.264   1.308   1.324  2.5035  1.1215 -1.9188
 6220SOL    MW424648   1.218   1.381   1.333  0.5402 -0.2162 -0.3034
 6221SOL     OW24649   2.840   5.511   4.011  0.1184  0.0296 -0.1031
 6221SOL    HW224650   2.912   5.570   4.034  0.1148  0.9960 -2.3189
 6221SOL    HW324651   2.784   5.563   3.953 -1.1522 -1.4319 -0.2418
 6221SOL    MW424652   2.842   5.526   4.006 -0.0498 -0.0357 -0.4137
 6222SOL     OW24653   0.468   1.771   1.208 -0.0149 -0.2298 -0.1982
 6222SOL    HW224654   0.499   1.741   1.293 -0.2995  0.5689  0.1874
 6222SOL    HW324655   0.428   1.693   1.169 -0.4142 -0.4577  0.6437
 6222SOL    MW424656   0.467   1.756   1.214 -0.1051 -0.1545 -0.0362
 6223SOL     OW24657   4.935   6.314   0.287  0.3944  0.7191  0.2975
 6223SOL    HW224658   4.843   6.290   0.271  0.2764  0.5232  1.2285
 6223SOL    HW324659   4.932   6.407   0.308  0.3620  0.6323  0.6830
 6223SOL    MW424660   4.922   6.323   0.288  0.3746  0.6818  0.4712
 6224SOL     OW24661   5.159   4.464   3.465 -0.0940 -0.4965 -0.0464
 6224SOL    HW224662   5.109   4.412   3.528 -1.1474 -1.1199 -1.3391
 6224SOL    HW324663   5.125   4.553   3.473  0.5735 -0.3255  1.0336
 6224SOL    MW424664   5.148   4.469   3.474 -0.1449 -0.5562 -0.0745
 6225SOL     OW24665   3.945   5.646   2.508 -0.0892  0.1075  0.2463
 6225SOL    HW224666   4.008   5.582   2.540 -0.4854  0.5368  2.0134
 6225SOL    HW324667   3.866   5.630   2.560  0.1404  2.6808  1.5377
 6225SOL    MW424668   3.943   5.635   2.519 -0.1112  0.5037  0.6499
 6226SOL     OW24669   1.876   3.122   0.334  0.8658  0.0875 -0.3833
 6226SOL    HW224670   1.911   3.033   0.330  1.7584  0.2659  1.9065
 6226SOL    HW324671   1.829   3.125   0.417 -0.1733  1.4255 -0.9819
 6226SOL    MW424672   1.874   3.110   0.344  0.8465  0.2876 -0.1602
 6227SOL     OW24673   6.152   3.196   3.571  0.1949  0.2271 -0.3723
 6227SOL    HW224674   6.149   3.144   3.491 -1.2964 -1.0844  0.4706
 6227SOL    HW324675   6.068   3.180   3.614  1.8831 -1.2542  2.7447
 6227SOL    MW424676   6.140   3.187   3.566  0.2209 -0.1414  0.1502
 6228SOL     OW24677   2.034   1.202   0.609 -0.6649  0.0998  0.3843
 6228SOL    HW224678   2.000   1.291   0.603 -0.6477  0.1356  0.7869
 6228SOL    HW324679   1.982   1.152   0.547 -0.7249  0.3759  0.2101
 6228SOL    MW424680   2.023   1.207   0.600 -0.6705  0.1410  0.4144
 6229SOL     OW24681   2.844   1.290   1.482 -0.7753 -0.3166  0.4017
 6229SOL    HW224682   2.899   1.211   1.481  2.0503  1.5073 -0.7746
 6229SOL    HW324683   2.871   1.338   1.560  1.7324  2.0095 -1.6782
 6229SOL    MW424684   2.855   1.286   1.492 -0.0716  0.2310 -0.0279
 6230SOL     OW24685   0.914   3.550   6.368  0.4800 -0.2374 -1.0643
 6230SOL    HW224686   0.892   3.637   6.402 -0.9082 -0.1904 -2.0066
 6230SOL    HW324687   1.010   3.548   6.369  0.5254  0.7379  0.3321
 6230SOL    MW424688   0.924   3.561   6.373  0.3028 -0.1026 -1.0044
 6231SOL     OW24689   4.615   1.081   0.536  0.0399  0.1875  0.0945
 6231SOL    HW224690   4.645   1.006   0.484 -1.6486 -1.4608  1.3733
 6231SOL    HW324691   4.539   1.115   0.487 -0.7378 -0.5400  0.7701
 6231SOL    MW424692   4.609   1.076   0.522 -0.2855 -0.1259  0.3524
 6232SOL     OW24693   3.436   4.043   1.632  0.5559  0.0619  0.1373
 6232SOL    HW224694   3.415   3.977   1.699 -0.3036 -1.2304 -1.3172
 6232SOL    HW324695   3.530   4.035   1.619  0.3819 -1.4321 -0.4891
 6232SOL    MW424696   3.445   4.033   1.639  0.4195 -0.3057 -0.1373
 6233SOL     OW24697   5.140   0.306   6.372 -0.5621  0.3590  0.7166
 6233SOL    HW224698   5.188   0.242   6.319 -0.0679  0.8447  0.5717
 6233SOL    HW324699   5.055   0.264   6.388 -0.1008 -0.5011  0.9709
 6233SOL    MW424700   5.135   0.292   6.367 -0.4360  0.3096  0.7310
 6234SOL     OW24701   5.878   5.133   5.815  0.3176 -0.1983 -0.7146
 6234SOL    HW224702   5.892   5.039   5.813 -0.2332 -0.2993 -0.2264
 6234SOL    HW324703   5.917   5.162   5.897 -1.1295 -0.2980  0.0499
 6234SOL    MW424704   5.885   5.125   5.825  0.0540 -0.2248 -0.5493
 6235SOL     OW24705   2.830   4.647   2.303  0.1058 -0.6485  0.1167
 6235SOL    HW224706   2.796   4.690   2.224  0.0339  2.4219  1.6491
 6235SOL    HW324707   2.924   4.663   2.300  0.1112 -0.5902  0.5956
 6235SOL    MW424708   2.838   4.655   2.292  0.0970 -0.2357  0.3821
 6236SOL     OW24709   4.267   3.426   3.987 -0.1308  0.5916  0.0267
 6236SOL    HW224710   4.344   3.446   3.934 -0.6137  0.3694 -0.7787
 6236SOL    HW324711   4.213   3.505   3.980 -0.0439  0.6922  0.4727
 6236SOL    MW424712   4.270   3.439   3.979 -0.1831  0.5756 -0.0207
 6237SOL     OW24713   1.182   5.637   0.924  0.2034  0.3127  0.6130
 6237SOL    HW224714   1.141   5.665   0.842  1.6131  0.4842 -0.0582
 6237SOL    HW324715   1.223   5.553   0.904  0.3207  0.2142  1.2302
 6237SOL    MW424716   1.182   5.630   0.911  0.4049  0.3223  0.6059
 6238SOL     OW24717   5.926   4.663   0.633 -0.4008  0.1759  0.3742
 6238SOL    HW224718   5.873   4.608   0.689  1.3364  0.6422  2.6301
 6238SOL    HW324719   5.868   4.689   0.562 -2.2159 -1.7973  1.0580
 6238SOL    MW424720   5.911   4.659   0.631 -0.4110 -0.0229  0.7621
 6239SOL     OW24721   3.000   1.717   5.780  0.4884 -0.1290 -0.3831
 6239SOL    HW224722   3.029   1.632   5.812  2.2715  0.8951  0.8620
 6239SOL    HW324723   2.919   1.735   5.829  0.8560 -0.5012  0.3698
 6239SOL    MW424724   2.993   1.708   5.791  0.7722 -0.0430 -0.1195
 6240SOL     OW24725   6.038   2.486   1.805  0.5179 -0.4530  0.1697
 6240SOL    HW224726   6.069   2.448   1.723 -0.3318  1.6861 -1.2544
 6240SOL    HW324727   6.115   2.488   1.862  1.9881  0.8696 -1.7432
 6240SOL    MW424728   6.052   2.482   1.802  0.5998  0.0038 -0.2705
 6241SOL     OW24729   1.247   5.059   1.430 -0.3835 -0.1640 -0.3583
 6241SOL    HW224730   1.255   5.147   1.465  1.2922 -0.8719  1.2050
 6241SOL    HW324731   1.239   5.003   1.507  0.2829 -1.5260 -1.2316
 6241SOL    MW424732   1.247   5.063   1.444 -0.0745 -0.4371 -0.2673
 6242SOL     OW24733   2.522   2.281   1.452  0.1637  0.6139 -0.0517
 6242SOL    HW224734   2.468   2.272   1.374 -0.3337  0.0709  0.3418
 6242SOL    HW324735   2.518   2.374   1.474  0.8259  0.8917 -1.0186
 6242SOL    MW424736   2.515   2.292   1.445  0.1854  0.5789 -0.1273
 6243SOL     OW24737   1.675   5.762   5.234  0.8578 -0.4185 -0.0950
 6243SOL    HW224738   1.675   5.714   5.316  0.0692 -1.4745 -0.6889
 6243SOL    HW324739   1.750   5.822   5.241  0.9611 -0.6728  1.2656
 6243SOL    MW424740   1.685   5.764   5.246  0.7673 -0.5914  0.0061
 6244SOL     OW24741   1.781   5.133   2.861  0.4378  0.4952 -0.0992
 6244SOL    HW224742   1.808   5.074   2.932 -1.1674 -1.1420 -0.7629
 6244SOL    HW324743   1.840   5.111   2.788  0.2378  0.1286 -0.1538
 6244SOL    MW424744   1.792   5.122   2.861  0.1997  0.2308 -0.1940
 6245SOL     OW24745   1.290   4.659   1.008  0.5448 -0.4811  0.6929
 6245SOL    HW224746   1.213   4.713   0.988  0.2809 -1.0002  0.2916
 6245SOL    HW324747   1.307   4.675   1.101  2.6685  3.1410 -0.1100
 6245SOL    MW424748   1.282   4.668   1.017  0.7902 -0.0717  0.5340
 6246SOL     OW24749   3.433   4.526   0.659 -0.4629  0.1722 -0.1737
 6246SOL    HW224750   3.440   4.440   0.618  2.3736  1.3219 -2.4394
 6246SOL    HW324751   3.483   4.519   0.740 -1.5766 -0.6749  0.4685
 6246SOL    MW424752   3.441   4.514   0.665 -0.2356  0.2121 -0.3879
 6247SOL     OW24753   4.064   3.608   0.510  0.4680 -0.1997  0.2258
 6247SOL    HW224754   4.013   3.677   0.552 -0.4503 -0.2850 -0.7101
 6247SOL    HW324755   4.004   3.570   0.445  1.0990 -1.5706  0.4063
 6247SOL    MW424756   4.049   3.612   0.507  0.4301 -0.3918  0.1262
 6248SOL     OW24757   6.227   5.661   1.515 -0.2312 -0.0773 -0.1467
 6248SOL    HW224758   6.283   5.738   1.504 -0.4467 -0.1001 -1.6045
 6248SOL    HW324759   6.235   5.638   1.608  3.4781 -1.0684 -0.5502
 6248SOL    MW424760   6.236   5.668   1.526  0.2298 -0.2111 -0.3923
 6249SOL     OW24761   3.096   1.495   4.338  0.0745 -0.0572  0.2717
 6249SOL    HW224762   3.166   1.526   4.280  0.3691 -2.7002 -0.9635
 6249SOL    HW324763   3.141   1.440   4.402 -0.6936 -0.3956  0.5293
 6249SOL    MW424764   3.111   1.492   4.339  0.0120 -0.4506  0.1427
 6250SOL     OW24765   4.249   3.890   2.485 -0.9312 -0.3279  0.0660
 6250SOL    HW224766   4.206   3.953   2.543 -1.7743 -0.2068 -0.6543
 6250SOL    HW324767   4.288   3.945   2.416  0.3913 -0.4390  0.7008
 6250SOL    MW424768   4.249   3.906   2.483 -0.8679 -0.3266  0.0547
 6251SOL     OW24769   2.760   1.385   5.325  0.3841 -0.5506 -0.2801
 6251SOL    HW224770   2.687   1.327   5.347 -1.0165  1.4735  0.8107
 6251SOL    HW324771   2.805   1.399   5.408 -1.0467  2.0660  0.1941
 6251SOL    MW424772   2.756   1.380   5.339  0.0105  0.0617 -0.0736
 6252SOL     OW24773   6.221   6.091   1.129 -0.2143  0.3288 -0.1648
 6252SOL    HW224774   6.237   6.097   1.224 -0.2806 -0.3878 -0.1035
 6252SOL    HW324775   6.237   6.180   1.097 -0.9359  0.7658  0.6267
 6252SOL    MW424776   6.226   6.104   1.138 -0.3182  0.2919 -0.0523
 6253SOL     OW24777   3.300   1.900   1.138  0.2680 -0.3531  0.2720
 6253SOL    HW224778   3.393   1.878   1.140  0.0913 -1.1173  0.2528
 6253SOL    HW324779   3.267   1.875   1.224  0.0060 -0.4151  0.1550
 6253SOL    MW424780   3.308   1.894   1.149  0.2101 -0.4621  0.2541
 6254SOL     OW24781   4.945   2.422   1.635  0.2007  0.4821  0.2288
 6254SOL    HW224782   4.924   2.377   1.554  0.3006 -0.7139  0.8536
 6254SOL    HW324783   5.039   2.407   1.648 -0.3755 -2.1193  2.1789
 6254SOL    MW424784   4.955   2.414   1.626  0.1379 -0.0189  0.5685
 6255SOL     OW24785   2.595   2.454   3.645 -0.2497 -0.2433 -0.1572
 6255SOL    HW224786   2.580   2.395   3.571 -0.5366 -0.8656  0.3898
 6255SOL    HW324787   2.669   2.415   3.692  1.4906  1.3869 -1.3692
 6255SOL    MW424788   2.603   2.441   3.642 -0.0580 -0.1103 -0.2449
 6256SOL     OW24789   3.912   2.917   6.099  0.0834  0.2242  0.3777
 6256SOL    HW224790   3.853   2.980   6.139 -0.8739 -1.2974  1.4381
 6256SOL    HW324791   3.984   2.908   6.161 -0.1731 -0.2935  0.6075
 6256SOL    MW424792   3.914   2.924   6.112 -0.0768 -0.0448  0.5479
 6257SOL     OW24793   2.519   2.385   2.675  0.1910 -0.2241  0.3908
 6257SOL    HW224794   2.481   2.336   2.748  0.7907 -1.8411 -0.3227
 6257SOL    HW324795   2.609   2.353   2.670  0.7724  1.3403  0.1736
 6257SOL    MW424796   2.526   2.374   2.684  0.3468 -0.2310  0.2680
 6258SOL     OW24797   6.378   2.284   0.137  0.0255  0.5820  0.7989
 6258SOL    HW224798   6.437   2.270   0.063  0.5175  0.0181  1.2828
 6258SOL    HW324799   6.326   2.204   0.141 -1.0688  1.2361  0.1342
 6258SOL    MW424800   6.379   2.272   0.128 -0.0539  0.5939  0.7751
 6259SOL     OW24801   4.568   2.462   3.346 -0.1180 -0.0645  0.0831
 6259SOL    HW224802   4.490   2.450   3.401 -0.8827 -1.6627 -1.2423
 6259SOL    HW324803   4.533   2.473   3.257  1.1430 -0.0405 -0.4284
 6259SOL    MW424804   4.553   2.462   3.341 -0.0525 -0.2722 -0.1592
 6260SOL     OW24805   5.405   1.846   4.834 -0.4204  0.3889  0.1329
 6260SOL    HW224806   5.437   1.756   4.838  0.2242  0.6612  1.7224
 6260SOL    HW324807   5.444   1.881   4.754  0.4025 -0.3569  0.1914
 6260SOL    MW424808   5.414   1.839   4.824 -0.2268  0.3264  0.3503
 6261SOL     OW24809   0.652   3.140   3.172 -0.2245 -0.6255  0.0008
 6261SOL    HW224810   0.722   3.075   3.169 -1.1312 -1.7603  1.8595
 6261SOL    HW324811   0.685   3.208   3.230 -0.7080 -1.2788  1.0756
 6261SOL    MW424812   0.665   3.140   3.179 -0.4079 -0.8614  0.3878
 6262SOL     OW24813   4.104   4.781   0.571 -0.1093  0.0867  0.2335
 6262SOL    HW224814   4.174   4.846   0.581  0.7456 -0.5564 -1.2223
 6262SOL    HW324815   4.029   4.820   0.615  1.2105  0.7043  2.0679
 6262SOL    MW424816   4.103   4.795   0.578  0.1776  0.0833  0.2834
 6263SOL     OW24817   3.114   4.551   4.611 -0.1291 -0.2787  0.2496
 6263SOL    HW224818   3.191   4.587   4.655 -0.1089  0.6487 -0.5267
 6263SOL    HW324819   3.055   4.527   4.683 -0.2283  1.5056  0.8242
 6263SOL    MW424820   3.116   4.553   4.626 -0.1395  0.0791  0.2230
 6264SOL     OW24821   5.908   3.659   5.529  0.3538  0.3815  0.2094
 6264SOL    HW224822   5.877   3.572   5.503  1.3401  0.3587 -0.9361
 6264SOL    HW324823   5.844   3.720   5.492  0.7203  0.2458 -0.6521
 6264SOL    MW424824   5.895   3.655   5.521  0.5323  0.3606 -0.0554
 6265SOL     OW24825   3.679   6.094   5.428  0.1198  0.0845 -0.2026
 6265SOL    HW224826   3.634   6.076   5.345  0.6576  0.0486 -0.4927
 6265SOL    HW324827   3.767   6.059   5.415 -0.3141 -1.6515  1.0512
 6265SOL    MW424828   3.685   6.087   5.415  0.1335 -0.1493 -0.0754
 6266SOL     OW24829   2.130   4.608   4.557  0.4695  0.3639 -0.3888
 6266SOL    HW224830   2.198   4.623   4.624  1.5223  1.3588 -1.6307
 6266SOL    HW324831   2.113   4.514   4.562  1.3089  0.2383  0.5475
 6266SOL    MW424832   2.137   4.597   4.567  0.7192  0.4786 -0.4291
 6267SOL     OW24833   0.279   2.574   2.532 -0.5115  0.0319 -0.2831
 6267SOL    HW224834   0.189   2.565   2.501 -0.5257  0.4227 -0.3714
 6267SOL    HW324835   0.320   2.490   2.514 -1.4488 -0.9279  1.7588
 6267SOL    MW424836   0.272   2.562   2.526 -0.6370 -0.0431 -0.0254
 6268SOL     OW24837   5.278   3.835   1.788  0.0686 -0.4134  0.5751
 6268SOL    HW224838   5.188   3.864   1.779  0.3198  0.5493  1.0856
 6268SOL    HW324839   5.273   3.758   1.845 -0.4961 -0.8159 -0.0033
 6268SOL    MW424840   5.266   3.828   1.794  0.0273 -0.3395  0.5661
 6269SOL     OW24841   4.872   3.209   5.429  0.7370 -0.1078  0.0954
 6269SOL    HW224842   4.795   3.258   5.457  0.0055  0.1650 -2.1879
 6269SOL    HW324843   4.917   3.267   5.367  2.6316 -0.3889  1.1111
 6269SOL    MW424844   4.868   3.223   5.425  0.8905 -0.1089 -0.0718
 6270SOL     OW24845   4.888   5.889   5.763 -0.0870 -0.1377  0.0586
 6270SOL    HW224846   4.830   5.961   5.790 -0.8268 -0.4646 -0.6052
 6270SOL    HW324847   4.966   5.933   5.730 -0.7046  0.4088 -0.7484
 6270SOL    MW424848   4.890   5.905   5.762 -0.2661 -0.1087 -0.1355
 6271SOL     OW24849   4.006   4.002   1.738  0.0291  0.0768 -0.3157
 6271SOL    HW224850   4.069   3.967   1.673  1.1343  0.8286  0.3168
 6271SOL    HW324851   4.050   3.990   1.822 -0.9941 -0.0232  0.2144
 6271SOL    MW424852   4.020   3.996   1.740  0.0399  0.1628 -0.1623
 6272SOL     OW24853   4.088   3.035   3.496 -0.6106 -0.5239 -0.0448
 6272SOL    HW224854   4.105   2.954   3.543 -1.7468 -1.0146 -0.4305
 6272SOL    HW324855   4.120   3.019   3.407 -2.6323 -1.3399 -0.6884
 6272SOL    MW424856   4.094   3.022   3.490 -1.0272 -0.6963 -0.1806
 6273SOL     OW24857   5.614   5.284   1.299 -0.3434  0.4663  0.8260
 6273SOL    HW224858   5.562   5.312   1.223  0.1655 -0.6277  0.0482
 6273SOL    HW324859   5.599   5.190   1.305  2.9431 -0.2786 -0.5892
 6273SOL    MW424860   5.605   5.275   1.290  0.1574  0.2237  0.5367
 6274SOL     OW24861   0.535   5.314   0.511 -0.2442 -0.5167  0.2286
 6274SOL    HW224862   0.613   5.334   0.460  0.4406 -2.2052  0.5714
 6274SOL    HW324863   0.463   5.323   0.449  0.2656  0.4393 -0.2511
 6274SOL    MW424864   0.536   5.318   0.496 -0.0866 -0.6134  0.2106
 6275SOL     OW24865   3.105   3.146   6.392  0.5210  0.0280 -0.3639
 6275SOL    HW224866   3.081   3.233   6.361  0.7472 -0.2093 -1.2243
 6275SOL    HW324867   3.201   3.145   6.390  0.5117 -0.6410 -1.5562
 6275SOL    MW424868   3.114   3.157   6.388  0.5496 -0.0916 -0.6347
 6276SOL     OW24869   1.786   1.523   1.209 -0.4449 -0.2035  0.3182
 6276SOL    HW224870   1.792   1.566   1.123  0.0399 -2.7356 -1.0176
 6276SOL    HW324871   1.852   1.455   1.206 -1.9947 -1.8614  1.7881
 6276SOL    MW424872   1.795   1.520   1.197 -0.5854 -0.7563  0.3359
 6277SOL     OW24873   5.268   2.496   0.150 -0.9001  0.1742 -0.2153
 6277SOL    HW224874   5.191   2.441   0.159 -1.4211  0.8844 -0.2512
 6277SOL    HW324875   5.288   2.495   0.057 -1.0789  0.2698 -0.2549
 6277SOL    MW424876   5.261   2.488   0.139 -0.9925  0.2805 -0.2253
 6278SOL     OW24877   4.124   4.266   5.561  0.4229 -0.3199 -0.4590
 6278SOL    HW224878   4.115   4.354   5.597  0.9720 -0.0810 -0.8982
 6278SOL    HW324879   4.168   4.217   5.630 -0.4616 -0.4260  0.0447
 6278SOL    MW424880   4.128   4.271   5.575  0.3786 -0.3024 -0.4505
 6279SOL     OW24881   5.525   3.654   1.028 -0.4271  0.1301 -0.4397
 6279SOL    HW224882   5.588   3.686   0.964 -1.3798  1.0214 -0.9666
 6279SOL    HW324883   5.464   3.601   0.977  0.7747 -2.1275  0.3233
 6279SOL    MW424884   5.525   3.652   1.013 -0.3942 -0.0502 -0.4086
 6280SOL     OW24885   2.106   3.807   0.453  0.0513 -0.3948  0.1444
 6280SOL    HW224886   2.031   3.865   0.467  0.0236 -0.5119  0.4784
 6280SOL    HW324887   2.104   3.788   0.359  0.3464  0.5346 -0.0548
 6280SOL    MW424888   2.096   3.812   0.442  0.0866 -0.2877  0.1622
 6281SOL     OW24889   3.768   4.786   2.257  0.1699  0.4324 -0.1236
 6281SOL    HW224890   3.828   4.713   2.240  0.5497  0.9235 -0.9369
 6281SOL    HW324891   3.822   4.851   2.301  0.4495  1.1650 -1.4815
 6281SOL    MW424892   3.783   4.785   2.260  0.2569  0.5938 -0.4100
 6282SOL     OW24893   0.179   1.994   4.212 -0.3584 -0.2750 -0.6393
 6282SOL    HW224894   0.131   1.915   4.189  0.2680 -0.4895 -1.2290
 6282SOL    HW324895   0.258   1.963   4.255  0.5928 -0.0540 -2.1453
 6282SOL    MW424896   0.183   1.980   4.215 -0.1503 -0.2742 -0.9158
 6283SOL     OW24897   1.965   2.244   0.278 -0.3203 -0.4281  0.0953
 6283SOL    HW224898   1.995   2.182   0.212  3.2884  0.2430  0.8589
 6283SOL    HW324899   2.001   2.328   0.250 -2.6897  0.8345  0.5525
 6283SOL    MW424900   1.974   2.247   0.266 -0.1568 -0.1729  0.2564
 6284SOL     OW24901   6.426   0.809   2.216  0.1139 -0.4865 -0.2292
 6284SOL    HW224902   6.437   0.736   2.277 -0.5365  0.4711  1.1010
 6284SOL    HW324903   6.371   0.774   2.146  0.7909 -1.5845 -0.2460
 6284SOL    MW424904   6.420   0.795   2.215  0.1174 -0.5050 -0.0559
 6285SOL     OW24905   4.163   1.594   6.359  0.1651  0.2287  0.3148
 6285SOL    HW224906   4.083   1.541   6.356 -0.4550  1.1879 -0.9705
 6285SOL    HW324907   4.229   1.541   6.315  0.0337 -0.2155  0.6408
 6285SOL    MW424908   4.161   1.580   6.353  0.0659  0.2966  0.1882
 6286SOL     OW24909   3.501   4.100   4.877  0.4138  0.1986 -0.4657
 6286SOL    HW224910   3.417   4.101   4.832 -0.7417 -0.4040  1.5349
 6286SOL    HW324911   3.498   4.175   4.935  0.1605 -1.1845  1.4022
 6286SOL    MW424912   3.490   4.110   4.879  0.2279 -0.0634  0.0447
 6287SOL     OW24913   2.378   3.869   5.411 -0.0280 -0.3421  0.3373
 6287SOL    HW224914   2.343   3.864   5.499  1.1469 -0.1969  0.8348
 6287SOL    HW324915   2.385   3.778   5.382  0.4844 -0.4420  0.7685
 6287SOL    MW424916   2.374   3.856   5.419  0.1946 -0.3361  0.4599
 6288SOL     OW24917   4.201   3.430   2.750 -0.2311 -0.5837  0.1944
 6288SOL    HW224918   4.185   3.517   2.786  0.0778 -0.3004 -0.3439
 6288SOL    HW324919   4.119   3.382   2.767 -1.2755  0.5070 -1.5296
 6288SOL    MW424920   4.188   3.435   2.757 -0.3281 -0.4024 -0.1041
 6289SOL     OW24921   4.447   5.553   2.215 -0.1158  0.0575  0.1935
 6289SOL    HW224922   4.453   5.557   2.310 -0.1745 -1.0833  0.2553
 6289SOL    HW324923   4.377   5.614   2.193 -0.8092 -0.4350  0.9717
 6289SOL    MW424924   4.439   5.562   2.224 -0.2150 -0.1580  0.3043
 6290SOL     OW24925   5.792   5.594   2.163  0.5526  0.0605 -0.3110
 6290SOL    HW224926   5.710   5.606   2.211 -0.4550 -0.9021 -1.7472
 6290SOL    HW324927   5.834   5.520   2.207 -0.1298 -0.5002 -0.5898
 6290SOL    MW424928   5.787   5.586   2.175  0.3296 -0.1404 -0.5373
 6291SOL     OW24929   0.164   0.066   2.807 -0.0596  0.0142 -0.1393
 6291SOL    HW224930   0.176  -0.023   2.841 -0.0721 -0.2820 -0.8721
 6291SOL    HW324931   0.089   0.058   2.747 -0.3789  0.6291  0.1676
 6291SOL    MW424932   0.155   0.053   2.803 -0.1034  0.0562 -0.1955
 6292SOL     OW24933   0.274   5.268   4.642 -0.8422 -0.3369 -0.2061
 6292SOL    HW224934   0.207   5.201   4.656 -1.1588  0.4140  2.3011
 6292SOL    HW324935   0.334   5.258   4.716 -0.8386  2.0522  0.1880
 6292SOL    MW424936   0.273   5.258   4.653 -0.8835  0.0774  0.1767
 6293SOL     OW24937   1.409   1.055   6.294  0.2622 -0.3997 -0.3930
 6293SOL    HW224938   1.485   1.063   6.236  1.0946 -1.8314  0.4550
 6293SOL    HW324939   1.369   1.142   6.293  1.5088  0.1933 -1.3956
 6293SOL    MW424940   1.414   1.068   6.286  0.5365 -0.5104 -0.4134
 6294SOL     OW24941   3.207   5.696   5.519  0.5990 -0.3042  0.2659
 6294SOL    HW224942   3.215   5.633   5.590 -1.3492 -0.8673  0.0501
 6294SOL    HW324943   3.203   5.643   5.440 -3.4050 -0.2465  0.2320
 6294SOL    MW424944   3.207   5.681   5.518 -0.1863 -0.3709  0.2329
 6295SOL     OW24945   3.391   3.180   4.174 -0.3197 -0.0555  0.2862
 6295SOL    HW224946   3.430   3.244   4.234  0.7247 -1.4392  1.1453
 6295SOL    HW324947   3.457   3.167   4.106 -0.9280  0.4823 -0.4172
 6295SOL    MW424948   3.405   3.187   4.173 -0.2622 -0.1671  0.3068
 6296SOL     OW24949   2.795   3.520   3.813 -0.3547  0.2055  0.0306
 6296SOL    HW224950   2.795   3.577   3.736  1.4600  1.1809  0.6980
 6296SOL    HW324951   2.703   3.498   3.826 -0.8902  1.4176 -1.3992
 6296SOL    MW424952   2.783   3.524   3.804 -0.1859  0.4941 -0.0700
 6297SOL     OW24953   4.006   4.189   6.346  0.0165 -0.1562  0.5269
 6297SOL    HW224954   3.989   4.123   6.279  1.7738  1.6596 -1.8915
 6297SOL    HW324955   3.943   4.258   6.328  1.8050  1.2426 -0.6708
 6297SOL    MW424956   3.995   4.189   6.335  0.4843  0.2679  0.0498
 6298SOL     OW24957   2.460   0.753   4.238 -0.3306  0.3593 -0.0121
 6298SOL    HW224958   2.452   0.658   4.230  0.8277  0.2523 -0.0199
 6298SOL    HW324959   2.459   0.785   4.147  1.5999  0.1285 -0.1544
 6298SOL    MW424960   2.459   0.745   4.225  0.0770  0.3148 -0.0319
 6299SOL     OW24961   6.207   2.440   5.507  0.1424  0.6882  0.2264
 6299SOL    HW224962   6.167   2.392   5.434  1.6763  1.9175 -1.5052
 6299SOL    HW324963   6.148   2.514   5.522  0.1511  0.7904 -0.2248
 6299SOL    MW424964   6.194   2.443   5.500  0.3459  0.8639 -0.0616
 6300SOL     OW24965   6.356   4.638   5.196 -0.2510  0.4173 -0.4537
 6300SOL    HW224966   6.376   4.680   5.113 -1.0229  1.3527 -0.1771
 6300SOL    HW324967   6.261   4.646   5.205 -0.1352  0.6967  0.7060
 6300SOL    MW424968   6.346   4.644   5.186 -0.3376  0.5775 -0.2642
 6301SOL     OW24969   0.578   1.196   4.958  0.3207 -0.9198  0.4126
 6301SOL    HW224970   0.639   1.242   5.015 -0.0877 -0.5439  0.5526
 6301SOL    HW324971   0.597   1.103   4.972  1.0876 -0.8034  0.1927
 6301SOL    MW424972   0.589   1.190   4.967  0.3680 -0.8549  0.4021
 6302SOL     OW24973   0.789   2.668   6.356  0.3363 -0.1653 -0.5049
 6302SOL    HW224974   0.819   2.639   6.270 -0.4654 -0.3390 -0.7320
 6302SOL    HW324975   0.736   2.745   6.338  1.2604  0.6027 -0.0350
 6302SOL    MW424976   0.786   2.674   6.342  0.3525 -0.0869 -0.4729
 6303SOL     OW24977   0.278   5.654   3.489 -0.6145  0.1150  0.3683
 6303SOL    HW224978   0.291   5.559   3.483  1.7839  0.3670  0.6598
 6303SOL    HW324979   0.330   5.689   3.416 -0.0819  1.2667  1.2734
 6303SOL    MW424980   0.287   5.646   3.479 -0.2278  0.3002  0.5262
 6304SOL     OW24981   3.289   0.310   2.684  0.3674 -0.1519 -0.2126
 6304SOL    HW224982   3.377   0.285   2.655  0.2843  0.0324 -0.6235
 6304SOL    HW324983   3.283   0.274   2.772  0.1485 -1.8576 -0.8783
 6304SOL    MW424984   3.300   0.302   2.692  0.3276 -0.3526 -0.3546
 6305SOL     OW24985   0.669   2.677   5.042  0.4781  0.3119  0.3724
 6305SOL    HW224986   0.659   2.653   5.134  2.5472 -1.0232  0.3085
 6305SOL    HW324987   0.700   2.768   5.044  0.0217  0.4628  0.9541
 6305SOL    MW424988   0.672   2.686   5.054  0.6909  0.1556  0.4407
 6306SOL     OW24989   4.405   5.535   2.507  0.6790 -0.0127  0.7216
 6306SOL    HW224990   4.400   5.618   2.554 -0.9446  0.0511  0.4976
 6306SOL    HW324991   4.424   5.470   2.575 -2.3458 -0.0218  1.6723
 6306SOL    MW424992   4.407   5.537   2.522  0.0657 -0.0055  0.8175
 6307SOL     OW24993   5.484   1.917   1.038  0.3922  0.2666 -0.2486
 6307SOL    HW224994   5.530   1.947   1.116  0.1488  1.7087 -0.6367
 6307SOL    HW324995   5.549   1.867   0.989  1.1013  0.9799 -0.0453
 6307SOL    MW424996   5.498   1.914   1.042  0.4536  0.5510 -0.2730
 6308SOL     OW24997   5.463   0.914   4.307 -0.1322  0.2748  0.8176
 6308SOL    HW224998   5.438   0.826   4.276  0.6952  0.7782 -1.5018
 6308SOL    HW324999   5.406   0.973   4.258  0.4009  1.1132  1.1989
 6308SOL    MW425000   5.452   0.910   4.296  0.0473  0.4518  0.5619
 6309SOL     OW25001   0.921   0.955   0.915  0.2651 -0.1968  0.1068
 6309SOL    HW225002   1.010   0.919   0.909 -0.2733 -1.3767 -1.6179
 6309SOL    HW325003   0.869   0.883   0.951 -0.7675 -1.1993 -3.0550
 6309SOL    MW425004   0.926   0.940   0.919  0.0578 -0.4848 -0.5379
 6310SOL     OW25005   2.824   1.578   4.346 -0.4023  0.3639 -0.3258
 6310SOL    HW225006   2.805   1.671   4.333  1.0089  0.4344 -2.2900
 6310SOL    HW325007   2.919   1.571   4.336 -0.3066 -1.1076  1.2251
 6310SOL    MW425008   2.834   1.590   4.343 -0.2034  0.1791 -0.3803
 6311SOL     OW25009   4.051   5.911   4.370  0.3228 -0.5633  0.1604
 6311SOL    HW225010   3.964   5.872   4.367  0.6023 -1.1387 -1.2362
 6311SOL    HW325011   4.040   5.992   4.419 -1.0886 -0.4025 -0.3985
 6311SOL    MW425012   4.038   5.916   4.376  0.1734 -0.6180 -0.0976
 6312SOL     OW25013   6.017   5.120   0.784  0.3189 -0.0775 -0.1275
 6312SOL    HW225014   6.108   5.149   0.789  0.6800 -1.3155  1.0457
 6312SOL    HW325015   5.978   5.146   0.867  0.2841 -1.6605  0.3794
 6312SOL    MW425016   6.024   5.127   0.796  0.3619 -0.4497  0.0942
 6313SOL     OW25017   1.850   0.992   6.428 -0.0977  0.1015 -0.0799
 6313SOL    HW225018   1.944   0.978   6.443 -0.4112 -2.9072 -0.2555
 6313SOL    HW325019   1.817   1.028   6.510  1.0670  0.2828  0.3209
 6313SOL    MW425020   1.858   0.995   6.441  0.0146 -0.2716 -0.0501
 6314SOL     OW25021   2.333   3.905   2.114  0.4255  0.2452  0.0077
 6314SOL    HW225022   2.299   3.827   2.159  1.5871 -0.0962  0.3253
 6314SOL    HW325023   2.406   3.872   2.062  2.7174  1.4894  2.2356
 6314SOL    MW425024   2.338   3.890   2.114  0.8811  0.3643  0.3436
 6315SOL     OW25025   3.360   2.066   5.180 -0.3581  0.3015  0.6505
 6315SOL    HW225026   3.271   2.097   5.197 -0.6093  0.4083 -0.7646
 6315SOL    HW325027   3.392   2.123   5.110  0.2313 -0.7880  0.0140
 6315SOL    MW425028   3.352   2.078   5.173 -0.3135  0.1719  0.3798
 6316SOL     OW25029   1.200   2.896   0.046 -0.1314  1.0956 -0.0187
 6316SOL    HW225030   1.142   2.842  -0.009 -1.3564  2.4148 -0.0876
 6316SOL    HW325031   1.272   2.837   0.069 -0.7630 -0.1849 -1.1211
 6316SOL    MW425032   1.202   2.881   0.042 -0.3763  1.1007 -0.1733
 6317SOL     OW25033   4.978   5.442   5.464 -0.0928 -0.1600  0.0740
 6317SOL    HW225034   4.939   5.528   5.447  0.3794 -0.0804 -0.6202
 6317SOL    HW325035   4.911   5.380   5.435 -0.1652 -0.0236 -0.0542
 6317SOL    MW425036   4.964   5.445   5.458 -0.0400 -0.1315 -0.0345
 6318SOL     OW25037   1.450   3.548   1.370  0.1082  0.1724 -0.2327
 6318SOL    HW225038   1.359   3.520   1.367  0.4845 -1.0498 -0.6776
 6318SOL    HW325039   1.446   3.639   1.399 -1.2317  0.0545  0.0068
 6318SOL    MW425040   1.438   3.556   1.374 -0.0190 -0.0044 -0.2598
 6319SOL     OW25041   0.915   3.213   4.921 -0.2760 -1.0069 -0.4916
 6319SOL    HW225042   1.010   3.219   4.917 -0.1698 -0.9486  1.2211
 6319SOL    HW325043   0.891   3.264   4.999 -1.8935  0.5273 -1.9093
 6319SOL    MW425044   0.924   3.220   4.931 -0.4754 -0.7968 -0.4527
 6320SOL     OW25045   4.344   5.403   3.963  0.2459  0.0854  0.3981
 6320SOL    HW225046   4.249   5.412   3.959  0.3339  1.1376  0.2572
 6320SOL    HW325047   4.369   5.375   3.874  0.1193  0.3762  0.2712
 6320SOL    MW425048   4.335   5.400   3.950  0.2408  0.2626  0.3627
 6321SOL     OW25049   1.697   3.562   2.099 -0.0943 -0.0600  0.5328
 6321SOL    HW225050   1.692   3.475   2.139 -0.8359  0.2154  1.0711
 6321SOL    HW325051   1.615   3.570   2.049  0.9227 -0.4947 -1.2790
 6321SOL    MW425052   1.685   3.552   2.097 -0.0580 -0.0810  0.3648
 6322SOL     OW25053   3.085   1.855   1.908  0.1897 -0.0796 -0.1884
 6322SOL    HW225054   3.096   1.933   1.962  1.0827  0.0521 -0.5360
 6322SOL    HW325055   3.137   1.788   1.951  1.3879  0.1818 -1.1591
 6322SOL    MW425056   3.093   1.856   1.921  0.4656 -0.0277 -0.3624
 6323SOL     OW25057   2.717   4.986   4.585 -0.2605  0.2497 -0.1765
 6323SOL    HW225058   2.784   5.054   4.575  0.3716 -0.4970 -1.0914
 6323SOL    HW325059   2.659   4.997   4.509 -0.7976  0.4538  0.2523
 6323SOL    MW425060   2.718   4.996   4.574 -0.2480  0.1781 -0.2406
 6324SOL     OW25061   3.556   5.420   2.537  0.8246  0.6785 -0.0620
 6324SOL    HW225062   3.483   5.396   2.481  0.2803  0.8592  0.5529
 6324SOL    HW325063   3.627   5.362   2.510  0.7027  1.0359 -1.2030
 6324SOL    MW425064   3.556   5.409   2.526  0.7367  0.7495 -0.1314
 6325SOL     OW25065   3.817   4.491   2.855 -0.1027  0.3172  0.2239
 6325SOL    HW225066   3.848   4.562   2.800  1.6500 -0.0882  0.6332
 6325SOL    HW325067   3.746   4.450   2.804 -1.7935  2.8527  0.3662
 6325SOL    MW425068   3.811   4.495   2.841 -0.0945  0.5983  0.2967
 6326SOL     OW25069   5.653   5.345   0.396  0.3346  0.2896  0.0480
 6326SOL    HW225070   5.618   5.294   0.323  3.4536  1.1795 -2.2930
 6326SOL    HW325071   5.583   5.345   0.461 -2.1213 -1.7160 -2.3495
 6326SOL    MW425072   5.639   5.338   0.395  0.4221  0.1424 -0.5772
 6327SOL     OW25073   3.155   1.722   2.959 -0.0745 -0.3790 -0.3025
 6327SOL    HW225074   3.132   1.630   2.946 -2.3208  0.1178 -0.3303
 6327SOL    HW325075   3.230   1.720   3.018 -0.3078 -2.2210 -0.0125
 6327SOL    MW425076   3.162   1.710   2.965 -0.4016 -0.5565 -0.2679
 6328SOL     OW25077   5.405   0.807   1.089  0.1599  0.1715 -0.2586
 6328SOL    HW225078   5.315   0.814   1.058  0.6175  1.6861 -1.3656
 6328SOL    HW325079   5.458   0.808   1.010  1.1650 -0.4831  0.3886
 6328SOL    MW425080   5.400   0.808   1.075  0.3529  0.2850 -0.3193
 6329SOL     OW25081   1.413   3.812   0.183 -0.4083  0.4337  0.0912
 6329SOL    HW225082   1.479   3.795   0.115 -0.3959 -0.9802  0.4124
 6329SOL    HW325083   1.362   3.730   0.187 -0.8506  0.7509  1.2980
 6329SOL    MW425084   1.415   3.799   0.174 -0.4650  0.2890  0.2928
 6330SOL     OW25085   4.425   0.576   0.871  0.0314  0.8138 -0.2498
 6330SOL    HW225086   4.480   0.542   0.942 -0.0524  1.9628  0.3872
 6330SOL    HW325087   4.388   0.497   0.830 -0.6719  0.1389  1.5897
 6330SOL    MW425088   4.427   0.561   0.875 -0.0725  0.8764  0.0770
 6331SOL     OW25089   1.557   5.069   1.970 -0.3482  0.6397 -0.0369
 6331SOL    HW225090   1.609   5.036   2.044  1.6743 -0.0264 -1.6415
 6331SOL    HW325091   1.466   5.062   1.999  0.3374 -0.3535  2.0749
 6331SOL    MW425092   1.552   5.064   1.984  0.0091  0.4208  0.0300
 6332SOL     OW25093   0.591   4.207   1.935 -0.0990 -0.1592 -0.3506
 6332SOL    HW225094   0.655   4.155   1.982 -0.4758  1.0242  1.5838
 6332SOL    HW325095   0.507   4.182   1.972 -0.2911  1.7317  0.6058
 6332SOL    MW425096   0.588   4.197   1.946 -0.1741  0.2464  0.0308
 6333SOL     OW25097   4.027   6.334   5.154  0.2643  0.2953  0.0322
 6333SOL    HW225098   4.108   6.334   5.206  1.5971  0.7303 -1.9345
 6333SOL    HW325099   3.996   6.424   5.159 -0.1566  0.1182  0.8254
 6333SOL    MW425100   4.034   6.346   5.162  0.3846  0.3293 -0.1226
 6334SOL     OW25101   4.887   0.696   1.518 -0.0535  0.1218  0.2740
 6334SOL    HW225102   4.802   0.740   1.513  0.1472  0.4831  0.0925
 6334SOL    HW325103   4.909   0.674   1.428 -0.5035 -1.0240  0.4237
 6334SOL    MW425104   4.879   0.699   1.506 -0.0864  0.0183  0.2698
 6335SOL     OW25105   1.318   3.191   0.797 -0.4506  0.1365  0.6039
 6335SOL    HW225106   1.327   3.119   0.736  0.0300  0.1699  0.6351
 6335SOL    HW325107   1.267   3.257   0.749  0.2281  0.3096  0.1086
 6335SOL    MW425108   1.312   3.191   0.783 -0.2976  0.1637  0.5426
 6336SOL     OW25109   4.414   4.369   3.974  0.3373  1.0409 -0.1716
 6336SOL    HW225110   4.460   4.299   3.928 -1.2364 -1.0189  1.1968
 6336SOL    HW325111   4.474   4.395   4.044 -0.2722 -1.2752  1.3034
 6336SOL    MW425112   4.428   4.363   3.977  0.0493  0.4636  0.2036
 6337SOL     OW25113   2.598   4.319   2.919  0.0771 -0.2595 -0.3548
 6337SOL    HW225114   2.675   4.272   2.950 -0.7920 -1.9938 -0.6852
 6337SOL    HW325115   2.631   4.377   2.851  1.0231 -1.5137 -1.0076
 6337SOL    MW425116   2.612   4.320   2.914  0.0872 -0.6538 -0.4845
 6338SOL     OW25117   3.819   5.536   5.929 -0.9062 -0.0070  0.5932
 6338SOL    HW225118   3.760   5.557   6.001  1.5056 -0.6892  2.9433
 6338SOL    HW325119   3.820   5.440   5.926 -2.2351 -0.0351 -1.5852
 6338SOL    MW425120   3.812   5.526   5.938 -0.7634 -0.1007  0.6158
 6339SOL     OW25121   2.516   4.679   4.544  0.3824 -0.4001  0.0283
 6339SOL    HW225122   2.448   4.687   4.478 -0.0480 -0.8818  0.4032
 6339SOL    HW325123   2.508   4.589   4.575  0.5475 -0.1627  0.7733
 6339SOL    MW425124   2.506   4.668   4.539  0.3474 -0.4323  0.1761
 6340SOL     OW25125   5.804   0.671   1.498 -0.4419  0.3409 -0.3083
 6340SOL    HW225126   5.794   0.737   1.430  1.1184 -0.9820 -1.9245
 6340SOL    HW325127   5.856   0.715   1.566 -2.7365  1.9425  0.5498
 6340SOL    MW425128   5.810   0.686   1.498 -0.5388  0.3777 -0.4083
 6341SOL     OW25129   0.289   0.682   4.210  0.6942  0.4146  0.2409
 6341SOL    HW225130   0.231   0.712   4.140  0.4837 -0.5959 -0.0304
 6341SOL    HW325131   0.270   0.741   4.284 -1.7257 -0.7325  0.6473
 6341SOL    MW425132   0.279   0.694   4.211  0.3472  0.1299  0.2587
 6342SOL     OW25133   5.228   4.129   0.031 -0.1368 -0.2412  0.4610
 6342SOL    HW225134   5.311   4.083   0.023 -0.2317 -0.5847  1.3926
 6342SOL    HW325135   5.253   4.222   0.036  0.1509 -0.3022  0.1976
 6342SOL    MW425136   5.243   4.135   0.031 -0.1114 -0.2945  0.5492
 6343SOL     OW25137   4.584   3.554   2.027  0.7126 -0.0773 -0.0440
 6343SOL    HW225138   4.620   3.465   2.027  2.3223  0.4825  2.3751
 6343SOL    HW325139   4.522   3.555   2.101  1.1621  0.9494  0.3401
 6343SOL    MW425140   4.580   3.542   2.037  0.9843  0.1320  0.3259
 6344SOL     OW25141   6.210   0.982   3.821  0.0858 -0.5917 -0.4259
 6344SOL    HW225142   6.275   1.052   3.818 -0.1529 -0.3907 -1.4385
 6344SOL    HW325143   6.257   0.904   3.792 -0.0838 -0.4724 -1.0356
 6344SOL    MW425144   6.225   0.981   3.817  0.0319 -0.5494 -0.6399
 6345SOL     OW25145   5.493   2.729   5.084  0.4541  0.3793  0.7390
 6345SOL    HW225146   5.419   2.675   5.056  0.3300  1.2546 -0.7174
 6345SOL    HW325147   5.516   2.780   5.006  2.1564  0.6226  1.3610
 6345SOL    MW425148   5.486   2.728   5.070  0.6624  0.5269  0.6289
 6346SOL     OW25149   0.905   6.370   3.815 -0.0984 -0.3867 -0.2341
 6346SOL    HW225150   0.945   6.290   3.847 -0.1219 -1.4468 -2.6266
 6346SOL    HW325151   0.813   6.363   3.841 -0.1215 -1.1980 -0.5098
 6346SOL    MW425152   0.898   6.359   3.822 -0.1045 -0.6336 -0.5861
 6347SOL     OW25153   1.824   6.166   1.102  0.0406 -0.1734 -0.1936
 6347SOL    HW225154   1.780   6.123   1.175  2.8154 -0.2460  1.5987
 6347SOL    HW325155   1.848   6.095   1.043  1.2699 -0.6776  0.8670
 6347SOL    MW425156   1.821   6.151   1.104  0.5689 -0.2495  0.1828
 6348SOL     OW25157   5.910   3.728   6.137  0.1016 -0.0205 -0.3597
 6348SOL    HW225158   5.986   3.679   6.105  0.9386 -0.5468  2.1788
 6348SOL    HW325159   5.920   3.816   6.102  1.2713 -0.3867 -0.9695
 6348SOL    MW425160   5.921   3.733   6.128  0.3664 -0.1382 -0.1053
 6349SOL     OW25161   2.498   0.960   0.459 -0.2081 -0.8808 -0.4161
 6349SOL    HW225162   2.543   1.009   0.528  0.5336 -1.4784 -0.4629
 6349SOL    HW325163   2.507   1.015   0.382  1.1363 -1.3278 -0.6082
 6349SOL    MW425164   2.505   0.973   0.458  0.0672 -1.0187 -0.4476
 6350SOL     OW25165   2.568   3.368   2.202  0.1857 -0.0381  0.3093
 6350SOL    HW225166   2.585   3.445   2.256 -2.4898  1.0657 -0.3031
 6350SOL    HW325167   2.553   3.402   2.114  0.5570 -1.4399 -0.3360
 6350SOL    MW425168   2.568   3.382   2.198 -0.1183 -0.0775  0.1434
 6351SOL     OW25169   5.744   1.570   2.492  0.2885 -0.4754  0.2181
 6351SOL    HW225170   5.708   1.487   2.523 -0.9413 -0.9545 -2.2688
 6351SOL    HW325171   5.839   1.557   2.492  0.1482 -1.5344  0.7761
 6351SOL    MW425172   5.752   1.557   2.496  0.1077 -0.6783 -0.0364
 6352SOL     OW25173   0.418   6.145   0.279  0.0770 -0.7284  0.3864
 6352SOL    HW225174   0.332   6.144   0.321 -0.2732 -0.0459 -0.2785
 6352SOL    HW325175   0.426   6.234   0.244  0.0697 -1.4508 -1.5579
 6352SOL    MW425176   0.408   6.157   0.280  0.0298 -0.7337  0.0421
 6353SOL     OW25177   3.820   2.909   2.832 -0.0234 -0.0317  0.2061
 6353SOL    HW225178   3.847   2.960   2.756 -1.3070  0.1226 -0.1782
 6353SOL    HW325179   3.900   2.897   2.883  0.7236  0.4511 -0.8173
 6353SOL    MW425180   3.834   2.914   2.829 -0.0942  0.0524  0.0204
 6354SOL     OW25181   2.746   4.848   1.078 -0.0544 -0.0990 -0.0624
 6354SOL    HW225182   2.717   4.924   1.027 -0.3743 -1.4025 -1.9174
 6354SOL    HW325183   2.732   4.773   1.020  1.3725 -1.4664  1.2602
 6354SOL    MW425184   2.740   4.848   1.064  0.0916 -0.4514 -0.1326
 6355SOL     OW25185   0.093   2.285   1.914  0.2622 -0.7838 -0.0663
 6355SOL    HW225186   0.187   2.266   1.908  0.3389 -0.2386 -0.6596
 6355SOL    HW325187   0.059   2.266   1.827 -0.0805 -0.4756 -0.0009
 6355SOL    MW425188   0.101   2.280   1.902  0.2271 -0.6712 -0.1360
 6356SOL     OW25189   5.376   3.960   3.001  0.4491  0.1060  0.1635
 6356SOL    HW225190   5.345   3.888   2.946 -0.3550 -0.1058  0.8623
 6356SOL    HW325191   5.423   3.917   3.073  1.8106  0.3957 -0.5188
 6356SOL    MW425192   5.378   3.944   3.004  0.5226  0.1163  0.1657
 6357SOL     OW25193   3.510   4.309   5.044 -0.2666 -0.6901 -0.1854
 6357SOL    HW225194   3.487   4.301   5.136  0.4960  2.7591  0.4357
 6357SOL    HW325195   3.465   4.389   5.015  1.9001  0.0148 -1.9188
 6357SOL    MW425196   3.501   4.319   5.052  0.1199 -0.1420 -0.3322
 6358SOL     OW25197   1.937   0.751   2.254  0.1687 -0.1883  0.0721
 6358SOL    HW225198   1.919   0.844   2.266 -0.0170 -0.2306  0.1187
 6358SOL    HW325199   2.032   0.744   2.265  0.1171 -0.0875  0.6006
 6358SOL    MW425200   1.947   0.762   2.257  0.1374 -0.1806  0.1479
 6359SOL     OW25201   5.139   2.852   4.661  0.7844  0.2308 -0.6435
 6359SOL    HW225202   5.151   2.918   4.594  0.5918 -0.2516 -1.1597
 6359SOL    HW325203   5.053   2.814   4.643  0.6202  0.2603  0.0212
 6359SOL    MW425204   5.129   2.856   4.650  0.7373  0.1710 -0.6239
 6360SOL     OW25205   6.263   5.634   4.712 -0.2762 -0.3610  0.0854
 6360SOL    HW225206   6.195   5.692   4.744 -1.7593 -1.6161 -0.6789
 6360SOL    HW325207   6.246   5.627   4.618  1.0031 -0.6155 -0.1557
 6360SOL    MW425208   6.252   5.641   4.704 -0.3031 -0.5602 -0.0473
 6361SOL     OW25209   4.254   6.159   0.556 -0.3620 -0.1060  0.0496
 6361SOL    HW225210   4.321   6.227   0.557  0.3716 -0.7490 -1.6049
 6361SOL    HW325211   4.284   6.095   0.621  0.9246 -0.6126 -0.9920
 6361SOL    MW425212   4.267   6.160   0.565 -0.0955 -0.2576 -0.3061
 6362SOL     OW25213   0.115   1.879   2.063  0.6059  0.4802 -0.4276
 6362SOL    HW225214   0.175   1.828   2.117  0.8514  1.9795  0.7810
 6362SOL    HW325215   0.070   1.937   2.124  0.0675  1.4495 -1.6833
 6362SOL    MW425216   0.117   1.880   2.078  0.5672  0.8059 -0.4338
 6363SOL     OW25217   3.356   4.182   3.734  0.0500 -0.7426 -0.0880
 6363SOL    HW225218   3.321   4.270   3.729  0.2582 -0.7190 -2.9397
 6363SOL    HW325219   3.295   4.128   3.684  0.5883 -1.9799  0.5216
 6363SOL    MW425220   3.344   4.186   3.726  0.1485 -0.9028 -0.3838
 6364SOL     OW25221   4.800   2.643   1.522  0.3594 -0.1424  0.6727
 6364SOL    HW225222   4.878   2.613   1.569  2.6812 -1.4854 -3.5386
 6364SOL    HW325223   4.746   2.565   1.514  0.6340 -0.2681 -0.0076
 6364SOL    MW425224   4.803   2.629   1.527  0.7019 -0.3361  0.0273
 6365SOL     OW25225   4.772   5.261   4.869 -0.1063  0.3989 -0.0260
 6365SOL    HW225226   4.786   5.294   4.958 -0.1323 -0.0469  0.1468
 6365SOL    HW325227   4.846   5.294   4.819  0.2235  0.1659  0.3003
 6365SOL    MW425228   4.783   5.269   4.874 -0.0662  0.3093  0.0398
 6366SOL     OW25229   0.991   4.953   4.307 -0.1969  0.5624  0.0306
 6366SOL    HW225230   0.940   5.021   4.352 -0.4437  1.9295 -2.1805
 6366SOL    HW325231   1.038   5.000   4.238  1.2500 -1.2342 -0.2664
 6366SOL    MW425232   0.990   4.968   4.304 -0.0386  0.5058 -0.3003
 6367SOL     OW25233   3.741   3.161   5.695 -0.6736 -0.1922  0.0006
 6367SOL    HW225234   3.775   3.206   5.618 -0.7074 -0.5406 -0.2219
 6367SOL    HW325235   3.654   3.130   5.669 -0.5252 -0.6617  0.0391
 6367SOL    MW425236   3.734   3.163   5.682 -0.6585 -0.3001 -0.0237
 6368SOL     OW25237   6.108   0.391   6.374 -0.3271  0.3019  0.1303
 6368SOL    HW225238   6.177   0.445   6.411 -1.4610  1.8161  0.1147
 6368SOL    HW325239   6.041   0.453   6.345 -0.8113 -1.0094 -1.7101
 6368SOL    MW425240   6.108   0.406   6.375 -0.5406  0.3287 -0.1146
 6369SOL     OW25241   3.736   5.163   0.668 -0.2431  0.5439  0.2215
 6369SOL    HW225242   3.773   5.082   0.703 -0.2787  0.1176 -0.6780
 6369SOL    HW325243   3.718   5.142   0.576 -0.6755  1.4344  0.0973
 6369SOL    MW425244   3.738   5.149   0.660 -0.3048  0.6051  0.0864
 6370SOL     OW25245   2.813   3.057   2.554 -0.1911  0.8557  0.5494
 6370SOL    HW225246   2.841   3.142   2.590  1.4907  0.4838  0.2142
 6370SOL    HW325247   2.864   3.048   2.473 -2.0480  0.5344 -0.6444
 6370SOL    MW425248   2.824   3.067   2.548 -0.2142  0.7643  0.3477
 6371SOL     OW25249   0.543   2.594   6.083 -0.2470  0.4202  0.3443
 6371SOL    HW225250   0.608   2.551   6.028 -1.8172 -2.7620  0.7941
 6371SOL    HW325251   0.550   2.550   6.167 -1.5662  1.4843  1.0536
 6371SOL    MW425252   0.553   2.583   6.087 -0.6282  0.1408  0.4972
 6372SOL     OW25253   4.124   2.927   2.569 -0.1031 -0.2569 -0.3984
 6372SOL    HW225254   4.204   2.979   2.574 -0.5996  0.4201  0.7813
 6372SOL    HW325255   4.150   2.840   2.600  0.2154 -0.0761 -0.1565
 6372SOL    MW425256   4.138   2.922   2.574 -0.1266 -0.1437 -0.2108
 6373SOL     OW25257   1.662   4.650   4.840 -0.1630 -0.0400 -0.3026
 6373SOL    HW225258   1.754   4.664   4.819 -0.1519  0.2140 -0.0961
 6373SOL    HW325259   1.614   4.682   4.763 -0.1169  0.7295 -0.0219
 6373SOL    MW425260   1.668   4.656   4.827 -0.1555  0.0950 -0.2383
 6374SOL     OW25261   1.513   6.052   1.471 -0.2125  0.1986 -0.0989
 6374SOL    HW225262   1.452   6.077   1.401 -0.0768 -1.2241 -0.7697
 6374SOL    HW325263   1.474   5.973   1.509  0.4801  0.1085  0.4415
 6374SOL    MW425264   1.500   6.045   1.467 -0.1032 -0.0010 -0.1161
 6375SOL     OW25265   5.632   3.107   6.084 -0.2808 -0.5285 -0.6779
 6375SOL    HW225266   5.665   3.025   6.048 -0.0371 -1.2042  0.9710
 6375SOL    HW325267   5.610   3.086   6.175  0.8615  1.4902  0.1388
 6375SOL    MW425268   5.634   3.094   6.091 -0.0980 -0.3513 -0.3526
 6376SOL     OW25269   5.271   2.474   2.876 -0.5551  0.1722 -0.2927
 6376SOL    HW225270   5.244   2.390   2.915 -1.9125  0.5616 -0.3406
 6376SOL    HW325271   5.194   2.503   2.827  0.1420  1.1135 -0.8616
 6376SOL    MW425272   5.257   2.466   2.874 -0.6422  0.3478 -0.3741
 6377SOL     OW25273   1.486   4.943   4.822 -0.4546  0.1168 -0.3350
 6377SOL    HW225274   1.540   5.010   4.864 -1.2474 -0.1882  1.2572
 6377SOL    HW325275   1.542   4.907   4.753  0.8840  0.7329  0.3811
 6377SOL    MW425276   1.501   4.947   4.819 -0.3826  0.1578 -0.0305
 6378SOL     OW25277   6.358   1.406   3.521 -0.8574 -0.4421  0.4920
 6378SOL    HW225278   6.330   1.317   3.501 -0.9333 -0.3581  0.2179
 6378SOL    HW325279   6.359   1.451   3.436 -4.4763  0.8816  0.9815
 6378SOL    MW425280   6.355   1.400   3.507 -1.3449 -0.2564  0.5204
 6379SOL     OW25281   2.643   4.417   3.375  0.2611 -0.2033 -0.3591
 6379SOL    HW225282   2.625   4.443   3.285  2.0957  1.3336 -0.3335
 6379SOL    HW325283   2.569   4.451   3.425  0.6325  1.4983 -0.9081
 6379SOL    MW425284   2.630   4.425   3.370  0.5521  0.2240 -0.4282
 6380SOL     OW25285   3.098   1.775   3.852  0.1327  0.6826 -0.3076
 6380SOL    HW225286   3.062   1.860   3.878 -0.0056  1.4307 -2.7550
 6380SOL    HW325287   3.188   1.776   3.886 -0.0676  1.5136  0.2248
 6380SOL    MW425288   3.105   1.786   3.860  0.0881  0.8909 -0.5602
 6381SOL     OW25289   5.827   4.073   6.370 -0.2768 -0.3472 -0.2659
 6381SOL    HW225290   5.866   4.126   6.300 -0.7159 -0.3312 -0.4978
 6381SOL    HW325291   5.885   3.996   6.377  0.5390  0.2937  0.2797
 6381SOL    MW425292   5.840   4.070   6.362 -0.2271 -0.2605 -0.2245
 6382SOL     OW25293   1.730   0.396   3.362 -0.0731  0.4157 -0.8242
 6382SOL    HW225294   1.731   0.484   3.323 -0.6154 -0.3357 -2.6276
 6382SOL    HW325295   1.768   0.340   3.295 -1.6907 -1.0644 -0.5779
 6382SOL    MW425296   1.735   0.401   3.348 -0.3581  0.1213 -1.0297
 6383SOL     OW25297   3.902   6.080   5.733  0.2333  0.1292 -0.1605
 6383SOL    HW225298   3.979   6.031   5.706  0.1834 -0.1296  0.1636
 6383SOL    HW325299   3.840   6.014   5.763 -0.2055  0.3172 -0.6327
 6383SOL    MW425300   3.904   6.065   5.734  0.1688  0.1199 -0.1800
 6384SOL     OW25301   2.159   5.374   5.133 -0.2388 -0.6916  0.1197
 6384SOL    HW225302   2.164   5.364   5.038  0.1404 -3.6870  0.3538
 6384SOL    HW325303   2.245   5.345   5.164 -0.3537  0.2525  1.3877
 6384SOL    MW425304   2.171   5.369   5.125 -0.2039 -0.9623  0.3179
 6385SOL     OW25305   2.937   0.298   2.656 -0.2172 -0.4294  0.1011
 6385SOL    HW225306   2.911   0.380   2.613 -0.6761  1.3907  3.4976
 6385SOL    HW325307   2.861   0.273   2.708  1.2172 -0.8235  2.1214
 6385SOL    MW425308   2.923   0.306   2.657 -0.0885 -0.2413  0.8157
 6386SOL     OW25309   2.776   1.483   4.605 -0.0808  0.1524 -0.1075
 6386SOL    HW225310   2.771   1.523   4.518 -0.5452  1.1530  0.3581
 6386SOL    HW325311   2.855   1.430   4.603  0.9025  1.5791 -0.5696
 6386SOL    MW425312   2.786   1.481   4.593 -0.0124  0.4726 -0.1070
 6387SOL     OW25313   3.892   4.444   6.325  0.0896  0.3437  0.3233
 6387SOL    HW225314   3.818   4.470   6.379 -0.1594  0.1805  0.0610
 6387SOL    HW325315   3.969   4.461   6.380 -0.1691  0.0338  0.7882
 6387SOL    MW425316   3.892   4.450   6.340  0.0226  0.2813  0.3500
 6388SOL     OW25317   4.091   4.737   1.062 -0.5276 -0.1105  0.4484
 6388SOL    HW225318   4.165   4.716   1.004  1.2650  0.1073  2.5421
 6388SOL    HW325319   4.016   4.697   1.018  0.8183 -0.5327 -1.6794
 6388SOL    MW425320   4.091   4.729   1.048 -0.1135 -0.1374  0.4439
 6389SOL     OW25321   4.105   3.183   4.547  0.2331  0.5422 -0.4767
 6389SOL    HW225322   4.137   3.271   4.526  1.6245 -0.0675 -0.9991
 6389SOL    HW325323   4.015   3.182   4.515  0.4312  1.5499 -1.1113
 6389SOL    MW425324   4.097   3.195   4.540  0.4428  0.5947 -0.6294
 6390SOL     OW25325   2.547   5.503   5.807  0.0779 -0.6542  0.4667
 6390SOL    HW225326   2.598   5.576   5.841 -1.0000  1.0548 -1.3344
 6390SOL    HW325327   2.483   5.484   5.875 -1.0678  1.6592  0.1181
 6390SOL    MW425328   2.545   5.510   5.820 -0.2155 -0.1235  0.1831
 6391SOL     OW25329   4.299   4.443   2.254 -0.3713  0.4134 -0.4874
 6391SOL    HW225330   4.286   4.444   2.349  2.1544  1.4795 -0.0517
 6391SOL    HW325331   4.393   4.426   2.244 -0.8652 -1.4280 -2.8891
 6391SOL    MW425332   4.310   4.441   2.266 -0.1032  0.3111 -0.7468
 6392SOL     OW25333   3.829   4.989   5.034 -0.1479 -0.2291 -0.6145
 6392SOL    HW225334   3.798   4.959   5.120  3.5581 -1.1124  0.5957
 6392SOL    HW325335   3.837   5.084   5.043 -1.5771 -0.0691 -0.7229
 6392SOL    MW425336   3.826   4.998   5.047  0.1525 -0.3246 -0.4691
 6393SOL     OW25337   6.219   0.115   4.299  0.3727  0.5639  0.0390
 6393SOL    HW225338   6.284   0.046   4.309 -0.3644 -0.1815 -0.1980
 6393SOL    HW325339   6.165   0.109   4.378 -0.0221  0.5086 -0.2311
 6393SOL    MW425340   6.220   0.105   4.311  0.2234  0.4583 -0.0279
 6394SOL     OW25341   5.196   0.459   0.854  0.5006  0.6310 -0.3787
 6394SOL    HW225342   5.174   0.366   0.856  3.0211 -0.0897 -1.8461
 6394SOL    HW325343   5.148   0.494   0.780 -2.1694  1.1017  1.4266
 6394SOL    MW425344   5.187   0.451   0.845  0.4809  0.5980 -0.3341
 6395SOL     OW25345   2.514   1.577   1.603  0.7862 -0.7405  0.0593
 6395SOL    HW225346   2.525   1.514   1.674  0.9681 -1.6312 -0.7477
 6395SOL    HW325347   2.571   1.546   1.533 -0.7688 -0.9589 -1.1869
 6395SOL    MW425348   2.523   1.565   1.603  0.6051 -0.8869 -0.2116
 6396SOL     OW25349   0.131   0.500   1.010  0.1925 -0.1757 -0.1418
 6396SOL    HW225350   0.159   0.491   0.919 -0.5099 -0.6226 -0.3208
 6396SOL    HW325351   0.212   0.491   1.061  0.5108 -0.4783 -0.6928
 6396SOL    MW425352   0.146   0.497   1.005  0.1418 -0.2746 -0.2381
 6397SOL     OW25353   2.244   6.030   1.681 -0.6341  0.1666 -0.2366
 6397SOL    HW225354   2.243   6.119   1.647 -0.8951  0.0624 -0.5124
 6397SOL    HW325355   2.154   5.999   1.670 -0.5428 -0.1321 -0.1569
 6397SOL    MW425356   2.232   6.037   1.675 -0.6565  0.1135 -0.2624
 6398SOL     OW25357   2.014   3.558   6.320 -0.1097 -0.2639 -0.2366
 6398SOL    HW225358   1.982   3.648   6.320  1.0807  0.1956 -1.2650
 6398SOL    HW325359   2.036   3.541   6.411  0.0673  0.6579 -0.0928
 6398SOL    MW425360   2.013   3.568   6.332  0.0707 -0.0817 -0.3533
 6399SOL     OW25361   1.915   1.793   3.978  0.8378 -0.0759  0.0651
 6399SOL    HW225362   1.944   1.765   3.891 -0.1753 -0.8960 -0.0198
 6399SOL    HW325363   1.846   1.731   4.002  0.5053  0.6622  1.0865
 6399SOL    MW425364   1.910   1.781   3.969  0.6603 -0.0867  0.1887
 6400SOL     OW25365   4.474   5.143   5.179 -0.3692 -0.1179 -0.3241
 6400SOL    HW225366   4.517   5.226   5.199 -0.4913 -0.2243  0.3928
 6400SOL    HW325367   4.532   5.100   5.116 -0.5067  0.6895 -1.0276
 6400SOL    MW425368   4.487   5.148   5.173 -0.4034 -0.0254 -0.3223
 6401SOL     OW25369   3.377   3.860   1.832  0.2293 -0.1959 -0.2491
 6401SOL    HW225370   3.307   3.909   1.877 -0.9787 -3.0611  1.2284
 6401SOL    HW325371   3.332   3.788   1.788  2.0941 -1.0814 -0.8219
 6401SOL    MW425372   3.362   3.857   1.832  0.3160 -0.6907 -0.1298
 6402SOL     OW25373   5.986   1.091   6.335  0.8550  1.0418 -0.1777
 6402SOL    HW225374   5.951   1.002   6.330 -2.8933  2.2276  1.4953
 6402SOL    HW325375   6.063   1.083   6.392 -0.4283 -0.9297  1.4445
 6402SOL    MW425376   5.992   1.078   6.342  0.1911  0.9382  0.2571
 6403SOL     OW25377   6.196   2.365   2.657 -0.0199  0.0751  0.0164
 6403SOL    HW225378   6.141   2.423   2.604  1.5574  0.6205 -1.0785
 6403SOL    HW325379   6.134   2.317   2.712 -1.6791 -0.1126 -1.9140
 6403SOL    MW425380   6.181   2.367   2.657 -0.0307  0.1223 -0.3827
 6404SOL     OW25381   2.118   0.480   2.530  0.0574  0.0958 -0.0289
 6404SOL    HW225382   2.158   0.433   2.603 -0.6895  0.8913  0.9293
 6404SOL    HW325383   2.076   0.412   2.477  1.6133 -0.6159 -0.3983
 6404SOL    MW425384   2.118   0.465   2.533  0.1641  0.1069  0.0488
 6405SOL     OW25385   2.919   0.492   4.739 -0.1922  0.3156 -0.3457
 6405SOL    HW225386   2.990   0.462   4.681  1.0433  1.3893  0.5519
 6405SOL    HW325387   2.960   0.557   4.795 -0.8689 -1.8148  2.9104
 6405SOL    MW425388   2.934   0.496   4.739 -0.1185  0.1762  0.2024
 6406SOL     OW25389   2.637   2.926   0.910  0.3072 -0.0373 -0.3866
 6406SOL    HW225390   2.614   2.996   0.971  1.5153 -1.3622  1.7181
 6406SOL    HW325391   2.671   2.856   0.965  0.3771 -1.8038 -2.5125
 6406SOL    MW425392   2.639   2.926   0.925  0.4758 -0.4452 -0.3894
 6407SOL     OW25393   0.878   2.457   1.435 -0.8002  0.2507 -0.4045
 6407SOL    HW225394   0.852   2.461   1.527 -0.3561 -1.9566 -0.1293
 6407SOL    HW325395   0.968   2.426   1.437 -0.2656  1.6268 -1.5711
 6407SOL    MW425396   0.886   2.454   1.448 -0.6711  0.1410 -0.5221
 6408SOL     OW25397   5.140   0.862   6.028 -0.0232 -0.5097 -0.2664
 6408SOL    HW225398   5.071   0.817   5.980 -2.1762  1.9172  0.3563
 6408SOL    HW325399   5.178   0.924   5.966 -0.4218  0.2031  0.1924
 6408SOL    MW425400   5.136   0.864   6.014 -0.3598 -0.0955 -0.1237
 6409SOL     OW25401   0.112   3.089   5.921 -0.2032 -0.0487  0.0562
 6409SOL    HW225402   0.041   3.128   5.870 -0.1455  1.0295  0.7644
 6409SOL    HW325403   0.189   3.141   5.898  0.4001 -1.2287 -0.7319
 6409SOL    MW425404   0.113   3.101   5.911 -0.1160 -0.0621  0.0456
 6410SOL     OW25405   3.567   1.292   2.380 -0.1472  0.3098  0.4386
 6410SOL    HW225406   3.643   1.253   2.423  0.2642  1.0826  0.4345
 6410SOL    HW325407   3.577   1.270   2.288 -0.3160 -0.2070  0.5418
 6410SOL    MW425408   3.578   1.284   2.374 -0.1152  0.3435  0.4517
 6411SOL     OW25409   1.893   3.504   0.405  0.1242 -0.2821 -0.1695
 6411SOL    HW225410   1.955   3.454   0.458  0.2418  1.5566  1.5586
 6411SOL    HW325411   1.815   3.449   0.399  0.3394 -0.7937  1.4357
 6411SOL    MW425412   1.891   3.490   0.411  0.1681 -0.1070  0.2703
 6412SOL     OW25413   3.033   1.888   4.574 -0.4633 -0.2064 -1.0105
 6412SOL    HW225414   2.946   1.855   4.597  0.2245 -2.6802 -1.5970
 6412SOL    HW325415   3.084   1.809   4.555  2.0581  1.1213 -0.2448
 6412SOL    MW425416   3.028   1.873   4.575 -0.0399 -0.3576 -0.9869
 6413SOL     OW25417   3.210   0.497   5.604  0.0177 -0.1441 -0.2459
 6413SOL    HW225418   3.119   0.475   5.583  0.4930 -0.9529 -1.6287
 6413SOL    HW325419   3.260   0.467   5.527  1.4325  0.4159  0.4199
 6413SOL    MW425420   3.205   0.490   5.591  0.2671 -0.1769 -0.3405
 6414SOL     OW25421   5.917   1.384   0.606 -0.0155  0.0443 -0.5784
 6414SOL    HW225422   5.906   1.472   0.570  0.4334  0.0043 -0.8260
 6414SOL    HW325423   5.842   1.335   0.573 -1.5133  0.8820  1.3430
 6414SOL    MW425424   5.906   1.389   0.597 -0.1539  0.1496 -0.3575
 6415SOL     OW25425   6.073   5.860   3.870 -0.8561 -0.4326 -0.1625
 6415SOL    HW225426   6.165   5.855   3.842 -0.3926 -1.0840  1.3858
 6415SOL    HW325427   6.054   5.774   3.906 -1.2117  0.5238  2.0590
 6415SOL    MW425428   6.083   5.848   3.871 -0.8419 -0.3924  0.3348
 6416SOL     OW25429   2.137   4.853   3.786  0.0536 -0.5294  0.1138
 6416SOL    HW225430   2.191   4.900   3.724  0.7260 -1.0848  0.2733
 6416SOL    HW325431   2.052   4.843   3.742 -0.4712  1.7328  0.4684
 6416SOL    MW425432   2.133   4.858   3.772  0.0731 -0.3042  0.1816
 6417SOL     OW25433   1.047   2.831   0.261 -0.2012 -0.3341  0.0178
 6417SOL    HW225434   1.106   2.862   0.193  0.4970  0.6392  1.0358
 6417SOL    HW325435   1.055   2.736   0.258 -0.0681 -0.3010 -1.1390
 6417SOL    MW425436   1.055   2.822   0.252 -0.0916 -0.2013 -0.0005
 6418SOL     OW25437   3.903   2.568   0.007  0.4813 -0.1681 -0.0387
 6418SOL    HW225438   3.864   2.655   0.004 -1.7942 -1.1203 -0.1543
 6418SOL    HW325439   3.975   2.571  -0.055  0.7718  1.7691  0.3474
 6418SOL    MW425440   3.907   2.580  -0.001  0.2194 -0.0381 -0.0030
 6419SOL     OW25441   3.183   5.094   1.853  0.2646 -0.0074  0.4975
 6419SOL    HW225442   3.193   5.006   1.816 -0.3851 -1.1714  2.9217
 6419SOL    HW325443   3.115   5.134   1.800 -1.1001 -1.8421  0.7531
 6419SOL    MW425444   3.175   5.088   1.841 -0.0012 -0.4031  0.8511
 6420SOL     OW25445   0.562   0.560   6.068  0.6546  0.2799  0.1676
 6420SOL    HW225446   0.648   0.598   6.084  0.0648  1.4102  0.7565
 6420SOL    HW325447   0.543   0.581   5.976  1.6983 -1.4409 -0.4841
 6420SOL    MW425448   0.570   0.568   6.058  0.7145  0.2020  0.1593
 6421SOL     OW25449   0.290   6.080   2.001  0.3471  0.0640  0.3647
 6421SOL    HW225450   0.244   6.146   1.949  0.5311 -0.7491 -0.8794
 6421SOL    HW325451   0.308   6.123   2.085 -2.3379  0.5656  0.7883
 6421SOL    MW425452   0.286   6.094   2.005  0.0171  0.0229  0.2564
 6422SOL     OW25453   6.354   5.961   1.840 -0.4964 -0.5558 -0.4120
 6422SOL    HW225454   6.442   5.952   1.803  0.0228 -0.4002  0.7320
 6422SOL    HW325455   6.332   5.874   1.873 -1.1865 -0.8287 -1.5330
 6422SOL    MW425456   6.363   5.948   1.839 -0.5189 -0.5713 -0.4090
 6423SOL     OW25457   0.916   1.543   1.835  0.4541  0.2660  0.0086
 6423SOL    HW225458   0.924   1.561   1.928  0.9254 -0.3776  0.0970
 6423SOL    HW325459   0.996   1.497   1.812  0.1278 -0.0057 -0.6136
 6423SOL    MW425460   0.927   1.539   1.844  0.4733  0.1452 -0.0619
 6424SOL     OW25461   0.458   6.151   5.569  0.1647  0.4109  0.0843
 6424SOL    HW225462   0.468   6.061   5.600  0.6543 -0.0978 -1.4737
 6424SOL    HW325463   0.484   6.205   5.644  1.1014 -0.7558  0.6341
 6424SOL    MW425464   0.463   6.147   5.583  0.3529  0.1898 -0.0487
 6425SOL     OW25465   1.946   0.133   1.175 -0.3751  0.3789 -0.2265
 6425SOL    HW225466   1.896   0.185   1.112 -0.2017  2.5385  1.3153
 6425SOL    HW325467   1.880   0.083   1.223 -0.5484 -0.8735 -1.6812
 6425SOL    MW425468   1.931   0.133   1.173 -0.3751  0.4986 -0.2150
 6426SOL     OW25469   2.963   4.825   0.870  0.4191  0.2322  0.0194
 6426SOL    HW225470   2.914   4.843   0.950 -0.3561 -1.9115  0.1062
 6426SOL    HW325471   2.904   4.851   0.799 -0.7746 -1.9398  0.1308
 6426SOL    MW425472   2.949   4.831   0.872  0.1593 -0.3372  0.0455
 6427SOL     OW25473   0.833   2.726   5.771  0.2137  0.0400  0.5930
 6427SOL    HW225474   0.767   2.763   5.712 -0.1742  0.2290  1.1473
 6427SOL    HW325475   0.868   2.651   5.722  0.1472  0.4050 -0.0294
 6427SOL    MW425476   0.829   2.721   5.757  0.1537  0.1131  0.5840
 6428SOL     OW25477   0.803   1.613   2.791 -0.2994  0.3291 -0.2108
 6428SOL    HW225478   0.753   1.586   2.714  1.4973 -0.6928 -1.0778
 6428SOL    HW325479   0.843   1.696   2.765  1.1659 -0.5422 -0.8096
 6428SOL    MW425480   0.801   1.620   2.777  0.1310  0.0793 -0.4042
 6429SOL     OW25481   2.332   3.662   4.528 -0.6775 -0.7264  0.0211
 6429SOL    HW225482   2.413   3.654   4.478  0.4821 -0.3101  1.7621
 6429SOL    HW325483   2.294   3.746   4.500  1.1051  0.6040  1.3747
 6429SOL    MW425484   2.337   3.672   4.518 -0.2893 -0.4959  0.4294
 6430SOL     OW25485   6.181   0.320   5.229 -0.4007 -0.4098  0.0720
 6430SOL    HW225486   6.183   0.224   5.226  1.1353 -0.4037  0.1735
 6430SOL    HW325487   6.203   0.341   5.319  0.1159  0.0551 -0.1647
 6430SOL    MW425488   6.184   0.310   5.241 -0.1299 -0.3476  0.0542
 6431SOL     OW25489   1.708   1.724   4.622  0.3439 -0.0204 -0.1218
 6431SOL    HW225490   1.642   1.655   4.634  1.0733 -0.5853  0.9228
 6431SOL    HW325491   1.658   1.805   4.614 -0.4823 -0.4071  0.8859
 6431SOL    MW425492   1.693   1.725   4.623  0.3312 -0.1459  0.1490
 6432SOL     OW25493   0.121   5.979   5.485 -0.1439  0.2262 -0.2507
 6432SOL    HW225494   0.144   6.069   5.507 -0.5384  0.2813 -0.0624
 6432SOL    HW325495   0.202   5.941   5.451 -0.1153  0.8126 -0.8547
 6432SOL    MW425496   0.135   5.986   5.484 -0.1922  0.3109 -0.3055
 6433SOL     OW25497   5.627   1.166   5.555  0.1589 -0.0121 -0.3807
 6433SOL    HW225498   5.651   1.258   5.563 -0.7015  0.3370 -1.5793
 6433SOL    HW325499   5.693   1.128   5.497  0.4932 -0.1615  0.0855
 6433SOL    MW425500   5.639   1.173   5.548  0.0895  0.0143 -0.4773
 6434SOL     OW25501   4.906   5.006   5.141  0.0132 -0.1870  0.7688
 6434SOL    HW225502   4.949   4.965   5.216  2.4938  0.9847  0.0958
 6434SOL    HW325503   4.923   4.947   5.068 -0.1884 -0.0612  0.6177
 6434SOL    MW425504   4.914   4.993   5.141  0.3139 -0.0158  0.6601
 6435SOL     OW25505   0.831   2.305   1.019  0.2077 -0.7470  0.3647
 6435SOL    HW225506   0.786   2.348   1.091  1.0392 -1.0697  1.0965
 6435SOL    HW325507   0.905   2.363   0.999 -0.3741 -0.3291 -0.6797
 6435SOL    MW425508   0.835   2.319   1.026  0.2406 -0.7344  0.3235
 6436SOL     OW25509   4.571   0.569   6.260  0.1497 -0.4135 -0.0557
 6436SOL    HW225510   4.506   0.583   6.329  1.2656 -0.8214  1.1044
 6436SOL    HW325511   4.538   0.620   6.186 -1.0279  0.1050  0.7869
 6436SOL    MW425512   4.558   0.577   6.259  0.1416 -0.3989  0.2086
 6437SOL     OW25513   0.973   5.027   5.082 -0.0286 -0.2468 -0.1842
 6437SOL    HW225514   1.057   5.060   5.116  1.3036 -0.0710 -3.3285
 6437SOL    HW325515   0.998   4.955   5.024 -2.0808 -0.2409 -1.1531
 6437SOL    MW425516   0.988   5.022   5.079 -0.1236 -0.2228 -0.7269
 6438SOL     OW25517   0.066   4.337   5.699 -0.3285 -0.0611 -0.1595
 6438SOL    HW225518   0.149   4.304   5.664  0.3829  0.7665  0.7101
 6438SOL    HW325519   0.022   4.377   5.623  0.2657 -0.1021 -0.5311
 6438SOL    MW425520   0.071   4.338   5.684 -0.1563  0.0427 -0.0938
 6439SOL     OW25521   4.904   1.316   0.023 -0.3015  0.2882  0.1388
 6439SOL    HW225522   4.991   1.280   0.001 -0.9601 -0.3175 -1.6966
 6439SOL    HW325523   4.922   1.379   0.092  1.6249  0.1880 -0.1873
 6439SOL    MW425524   4.918   1.319   0.029 -0.1342  0.1950 -0.1464
 6440SOL     OW25525   0.359   3.167   1.930 -0.2780  0.3638 -0.5081
 6440SOL    HW225526   0.269   3.166   1.962 -0.0021  0.0400  0.3039
 6440SOL    HW325527   0.403   3.099   1.981  1.0313  2.2022  0.9589
 6440SOL    MW425528   0.353   3.158   1.941 -0.0689  0.5636 -0.2074
 6441SOL     OW25529   6.318   4.938   4.324  0.0625 -0.6394  0.4902
 6441SOL    HW225530   6.262   4.994   4.377 -0.2433 -1.9477  1.6155
 6441SOL    HW325531   6.261   4.902   4.257 -0.2270 -1.2263  1.0493
 6441SOL    MW425532   6.303   4.941   4.322 -0.0161 -0.8895  0.7124
 6442SOL     OW25533   5.472   4.257   1.292  0.3704  0.0031 -0.7478
 6442SOL    HW225534   5.412   4.183   1.279  2.5419 -1.6386 -2.2491
 6442SOL    HW325535   5.486   4.261   1.387 -0.4066 -1.0071 -0.5783
 6442SOL    MW425536   5.466   4.248   1.303  0.5543 -0.3468 -0.9235
 6443SOL     OW25537   4.995   0.534   6.308  1.0679  0.0202 -0.0410
 6443SOL    HW225538   5.051   0.457   6.316  2.4028  0.9687  0.1355
 6443SOL    HW325539   5.056   0.606   6.295 -0.1456  1.0639 -0.1073
 6443SOL    MW425540   5.010   0.533   6.308  1.0839  0.2830 -0.0265
 6444SOL     OW25541   3.885   3.021   5.240 -0.5805 -0.7030  0.2412
 6444SOL    HW225542   3.824   3.042   5.170  0.2101  0.1826 -0.2034
 6444SOL    HW325543   3.891   2.925   5.239 -1.7281 -0.7805  0.1088
 6444SOL    MW425544   3.878   3.011   5.231 -0.6276 -0.5964  0.1651
 6445SOL     OW25545   4.836   6.174   3.309  0.5085 -0.0000  0.1227
 6445SOL    HW225546   4.829   6.116   3.385 -1.6984  1.4970  1.1707
 6445SOL    HW325547   4.853   6.116   3.235  0.4682 -1.7252  1.4221
 6445SOL    MW425548   4.838   6.159   3.309  0.2120 -0.0301  0.4324
 6446SOL     OW25549   1.815   3.908   1.953 -0.2816 -0.1371 -0.1092
 6446SOL    HW225550   1.741   3.882   2.009 -0.6219 -0.2865 -0.6225
 6446SOL    HW325551   1.813   4.004   1.955 -0.4189 -0.1403 -0.0349
 6446SOL    MW425552   1.805   3.917   1.961 -0.3447 -0.1572 -0.1672
 6447SOL     OW25553   6.153   5.420   3.023  0.0314 -0.5339  0.1587
 6447SOL    HW225554   6.083   5.381   3.075 -0.5262 -1.2764 -1.1022
 6447SOL    HW325555   6.132   5.513   3.021 -0.5375 -0.6541  0.3689
 6447SOL    MW425556   6.141   5.427   3.030 -0.1172 -0.6477  0.0200
 6448SOL     OW25557   1.831   6.058   6.100 -0.1449 -0.1121  0.6677
 6448SOL    HW225558   1.864   6.142   6.133  0.8815 -0.5489  0.8156
 6448SOL    HW325559   1.742   6.076   6.072  0.4704  1.3505 -0.4873
 6448SOL    MW425560   1.824   6.071   6.101  0.0717  0.0233  0.5348
 6449SOL     OW25561   1.472   3.811   2.855  0.0852  0.3021  0.0680
 6449SOL    HW225562   1.400   3.755   2.883 -0.2399  0.4275 -0.4932
 6449SOL    HW325563   1.468   3.809   2.759  1.0306  0.0537  0.0192
 6449SOL    MW425564   1.462   3.803   2.846  0.1671  0.2859 -0.0125
 6450SOL     OW25565   0.735   3.624   2.723  0.1003  0.1439 -0.5793
 6450SOL    HW225566   0.655   3.640   2.673  0.1265  1.3003 -0.2851
 6450SOL    HW325567   0.721   3.670   2.806  1.1750  0.5791 -0.6279
 6450SOL    MW425568   0.722   3.632   2.728  0.2455  0.3539 -0.5469
 6451SOL     OW25569   3.919   4.847   3.567 -0.9431  0.7922 -0.1015
 6451SOL    HW225570   3.828   4.860   3.593 -0.3419  0.3296  2.5068
 6451SOL    HW325571   3.937   4.919   3.506 -3.2173  0.4466 -1.3299
 6451SOL    MW425572   3.909   4.858   3.562 -1.1638  0.6856  0.0806
 6452SOL     OW25573   1.344   4.757   0.628 -0.3317  0.0904 -0.7515
 6452SOL    HW225574   1.410   4.751   0.698 -0.7969 -1.5447 -0.4178
 6452SOL    HW325575   1.377   4.826   0.570  0.2636  1.2112  0.8611
 6452SOL    MW425576   1.357   4.765   0.629 -0.3146  0.0226 -0.4947
 6453SOL     OW25577   1.073   5.574   4.151 -0.3890 -0.4022  0.2075
 6453SOL    HW225578   1.087   5.517   4.227 -0.1213 -1.7078 -0.7892
 6453SOL    HW325579   0.979   5.594   4.153  0.0033  1.6144  2.2449
 6453SOL    MW425580   1.062   5.569   4.161 -0.3019 -0.3084  0.3448
 6454SOL     OW25581   5.345   1.670   3.703  0.0382  0.1353  0.1174
 6454SOL    HW225582   5.312   1.687   3.792  0.2863  1.0182  0.0499
 6454SOL    HW325583   5.318   1.747   3.653 -0.5656 -0.6014 -0.7174
 6454SOL    MW425584   5.337   1.683   3.708 -0.0087  0.1546 -0.0016
 6455SOL     OW25585   1.291   5.270   6.278  0.2760  0.0765 -0.3859
 6455SOL    HW225586   1.316   5.229   6.360  0.6195 -1.5802 -1.2712
 6455SOL    HW325587   1.229   5.209   6.238 -1.2457  1.6769 -0.5837
 6455SOL    MW425588   1.286   5.257   6.283  0.1206  0.0691 -0.5288
 6456SOL     OW25589   0.723   1.966   1.828 -0.0166 -0.3010 -0.4670
 6456SOL    HW225590   0.782   1.902   1.787  0.2815  1.2633 -2.6315
 6456SOL    HW325591   0.776   2.008   1.895  0.1457 -1.4819  0.1709
 6456SOL    MW425592   0.738   1.963   1.831  0.0441 -0.2504 -0.6684
 6457SOL     OW25593   2.190   1.929   5.627  0.0061  0.3186 -0.0830
 6457SOL    HW225594   2.145   1.976   5.697 -1.5749 -0.5232 -0.4900
 6457SOL    HW325595   2.125   1.920   5.558  0.6596 -1.3005 -0.5346
 6457SOL    MW425596   2.176   1.934   5.627 -0.1163 -0.0061 -0.1963
 6458SOL     OW25597   2.474   6.369   3.840 -0.1280 -0.1098  0.4885
 6458SOL    HW225598   2.457   6.414   3.922  1.0014 -1.4808  1.5405
 6458SOL    HW325599   2.394   6.321   3.820 -1.2921  2.1553 -0.5770
 6458SOL    MW425600   2.461   6.368   3.848 -0.1325  0.0082  0.4867
 6459SOL     OW25601   4.477   1.704   2.052  0.4450 -0.4305 -0.1803
 6459SOL    HW225602   4.381   1.704   2.060  0.5085 -2.1574  1.3327
 6459SOL    HW325603   4.493   1.678   1.961 -0.5012  0.6554 -0.6851
 6459SOL    MW425604   4.466   1.700   2.041  0.3286 -0.5151 -0.0473
 6460SOL     OW25605   3.550   0.080   2.908  0.2774  0.4591 -0.0666
 6460SOL    HW225606   3.467   0.108   2.947  1.0899 -0.4122  2.4437
 6460SOL    HW325607   3.542  -0.015   2.901  0.9523  0.4043 -0.0974
 6460SOL    MW425608   3.538   0.072   2.912  0.4737  0.3369  0.2605
 6461SOL     OW25609   4.809   3.453   1.544 -0.3524 -0.2023  0.0506
 6461SOL    HW225610   4.831   3.382   1.484  1.7926  1.2030 -0.9144
 6461SOL    HW325611   4.869   3.523   1.522  0.1295  0.6252  3.4646
 6461SOL    MW425612   4.820   3.453   1.533 -0.0058  0.0923  0.3737
 6462SOL     OW25613   5.663   5.561   3.645  0.5577  0.5380  0.0498
 6462SOL    HW225614   5.701   5.647   3.625  0.8068  0.6093  0.8034
 6462SOL    HW325615   5.676   5.550   3.739 -1.4074  0.6047  0.3629
 6462SOL    MW425616   5.670   5.571   3.655  0.3313  0.5562  0.1905
 6463SOL     OW25617   4.515   3.553   3.034  0.3187  0.0328  0.3853
 6463SOL    HW225618   4.484   3.536   3.122  0.0072 -1.9771 -0.0764
 6463SOL    HW325619   4.459   3.624   3.002 -0.5817 -0.2772  1.2431
 6463SOL    MW425620   4.503   3.560   3.041  0.1588 -0.2733  0.4375
 6464SOL     OW25621   4.712   2.913   2.788  0.1539  0.8828 -0.1232
 6464SOL    HW225622   4.785   2.914   2.727  0.3590 -0.1951  0.0749
 6464SOL    HW325623   4.658   2.988   2.763  0.6092  0.8799 -1.1532
 6464SOL    MW425624   4.715   2.923   2.777  0.2410  0.7402 -0.2330
 6465SOL     OW25625   5.383   6.243   5.112 -0.1797 -0.8317 -0.0772
 6465SOL    HW225626   5.426   6.313   5.159 -1.4195  0.5786 -0.9579
 6465SOL    HW325627   5.453   6.197   5.066  0.5611  0.3639 -0.1670
 6465SOL    MW425628   5.398   6.246   5.112 -0.2455 -0.4879 -0.2052
 6466SOL     OW25629   1.999   2.648   4.382 -0.5384 -0.1698 -0.1337
 6466SOL    HW225630   1.921   2.686   4.422  0.0173 -0.2338  1.0609
 6466SOL    HW325631   1.996   2.677   4.291 -1.4744  0.5664  0.1172
 6466SOL    MW425632   1.988   2.657   4.376 -0.5886 -0.0811  0.0570
 6467SOL     OW25633   1.670   2.579   1.349  0.4771 -0.3260 -0.3637
 6467SOL    HW225634   1.678   2.640   1.276  0.7455 -0.7756 -0.7160
 6467SOL    HW325635   1.681   2.492   1.310 -0.2421 -0.6255  0.0788
 6467SOL    MW425636   1.673   2.575   1.334  0.4177 -0.4248 -0.3518
 6468SOL     OW25637   2.787   1.665   0.779  0.2637 -0.1211  0.0089
 6468SOL    HW225638   2.828   1.706   0.703  0.8417  1.4183  1.1043
 6468SOL    HW325639   2.729   1.733   0.814 -0.8785 -1.2062  0.2938
 6468SOL    MW425640   2.785   1.679   0.773  0.1893 -0.0611  0.1910
 6469SOL     OW25641   5.544   2.488   1.864  0.8451 -0.1603  0.5030
 6469SOL    HW225642   5.507   2.575   1.877  0.4585  0.3573 -2.9636
 6469SOL    HW325643   5.482   2.429   1.907 -1.1596  1.0632 -0.5242
 6469SOL    MW425644   5.531   2.492   1.871  0.5296  0.0694 -0.0899
 6470SOL     OW25645   2.639   4.804   4.162 -0.1038  0.4347  0.1914
 6470SOL    HW225646   2.654   4.880   4.106  0.3151 -0.2693 -0.6927
 6470SOL    HW325647   2.724   4.762   4.169 -0.5322 -0.5671 -0.2880
 6470SOL    MW425648   2.652   4.808   4.156 -0.1051  0.2097  0.0115
 6471SOL     OW25649   5.060   4.971   1.018 -0.6034 -0.1438  0.1575
 6471SOL    HW225650   4.965   4.962   1.011 -0.5307 -0.4127 -0.5689
 6471SOL    HW325651   5.094   4.934   0.936  0.1154  0.1614  0.3087
 6471SOL    MW425652   5.052   4.965   1.006 -0.4989 -0.1391  0.0816
 6472SOL     OW25653   2.020   6.059   4.803  0.0324  0.4428 -0.4409
 6472SOL    HW225654   2.068   6.138   4.826 -1.1175  1.5095 -1.5668
 6472SOL    HW325655   2.000   6.018   4.887  1.9244  0.5304  0.0966
 6472SOL    MW425656   2.024   6.064   4.817  0.1303  0.5951 -0.5186
 6473SOL     OW25657   5.831   3.437   5.373 -0.3469  0.1539 -0.4718
 6473SOL    HW225658   5.803   3.465   5.286  1.2064  1.7556 -0.5132
 6473SOL    HW325659   5.860   3.347   5.361 -1.4620 -0.1191 -1.2844
 6473SOL    MW425660   5.831   3.429   5.360 -0.2891  0.3292 -0.5845
 6474SOL     OW25661   1.806   0.723   1.996  0.0134  1.0189  0.4017
 6474SOL    HW225662   1.838   0.739   2.085 -0.2449  0.3654  0.6208
 6474SOL    HW325663   1.750   0.646   2.005  0.8767  0.2560 -0.5253
 6474SOL    MW425664   1.803   0.715   2.009  0.0932  0.8321  0.3083
 6475SOL     OW25665   0.062   4.036   5.555 -0.5917 -0.0160  0.2205
 6475SOL    HW225666   0.068   3.969   5.487  0.3513 -0.0110  0.2836
 6475SOL    HW325667   0.061   3.988   5.637  1.6060  0.0342  0.3500
 6475SOL    MW425668   0.063   4.021   5.557 -0.1773 -0.0087  0.2459
 6476SOL     OW25669   1.604   1.807   3.298  0.1840 -0.1487 -0.1046
 6476SOL    HW225670   1.636   1.832   3.211  0.1261 -0.5350 -0.2381
 6476SOL    HW325671   1.584   1.713   3.290 -2.1285  0.3005 -0.3826
 6476SOL    MW425672   1.606   1.798   3.285 -0.1287 -0.1404 -0.1589
 6477SOL     OW25673   3.020   0.113   4.211  0.0079  1.0239  0.3308
 6477SOL    HW225674   2.972   0.139   4.132  0.5280 -1.6922 -0.9848
 6477SOL    HW325675   3.026   0.018   4.205  3.4357  1.0183  1.6756
 6477SOL    MW425676   3.014   0.104   4.200  0.5288  0.6648  0.3347
 6478SOL     OW25677   5.732   4.117   3.008  0.5134  0.6345  0.2733
 6478SOL    HW225678   5.655   4.171   2.991  0.8776  0.9654 -0.3577
 6478SOL    HW325679   5.748   4.128   3.102 -1.2934 -0.9084  0.8223
 6478SOL    MW425680   5.724   4.125   3.018  0.3230  0.4746  0.2625
 6479SOL     OW25681   2.585   5.527   5.516  0.7263  0.0476  0.2317
 6479SOL    HW225682   2.526   5.602   5.502 -0.7021 -1.2316 -0.9339
 6479SOL    HW325683   2.580   5.510   5.610 -0.8045 -0.0366  0.1635
 6479SOL    MW425684   2.576   5.535   5.526  0.3359 -0.1323  0.0689
 6480SOL     OW25685   2.904   4.472   0.943 -0.6758  0.0385  0.0095
 6480SOL    HW225686   2.884   4.386   0.979 -2.6691 -0.2177 -1.5094
 6480SOL    HW325687   2.949   4.518   1.014 -0.0570 -2.0345  1.0419
 6480SOL    MW425688   2.907   4.467   0.958 -0.8572 -0.2688 -0.0547
 6481SOL     OW25689   0.079   5.797   2.507 -0.0120 -0.1356  0.0136
 6481SOL    HW225690  -0.007   5.766   2.481  0.4755 -1.1075 -0.4588
 6481SOL    HW325691   0.130   5.718   2.524  0.3589  0.4200  1.7767
 6481SOL    MW425692   0.074   5.783   2.506  0.1013 -0.1906  0.1839
 6482SOL     OW25693   2.003   5.026   6.357 -0.3289  0.2271 -0.5215
 6482SOL    HW225694   1.974   4.975   6.432  0.8647  2.1593  1.3904
 6482SOL    HW325695   1.924   5.064   6.321 -0.7084  2.7892  2.5640
 6482SOL    MW425696   1.989   5.024   6.362 -0.2215  0.8201  0.1378
 6483SOL     OW25697   2.435   0.802   5.523 -0.3076  0.3776  0.2229
 6483SOL    HW225698   2.424   0.770   5.612  2.9157 -1.0529  0.2315
 6483SOL    HW325699   2.398   0.734   5.467  1.6491 -0.9168  0.4157
 6483SOL    MW425700   2.429   0.789   5.527  0.3758  0.0181  0.2495
 6484SOL     OW25701   5.297   3.562   5.427  0.7244 -0.4102 -0.3592
 6484SOL    HW225702   5.281   3.523   5.341 -0.2621  0.9642 -0.8272
 6484SOL    HW325703   5.379   3.522   5.456  1.3863 -0.4808 -2.1865
 6484SOL    MW425704   5.306   3.551   5.420  0.6816 -0.2382 -0.6620
 6485SOL     OW25705   0.060   4.028   3.168  0.3409 -0.4898  0.3405
 6485SOL    HW225706   0.152   4.052   3.155  0.0610  0.2236 -0.3873
 6485SOL    HW325707   0.063   3.954   3.229  1.3017  0.5945  1.6652
 6485SOL    MW425708   0.072   4.021   3.174  0.4308 -0.2526  0.4193
 6486SOL     OW25709   3.644   0.533   3.663  0.4712 -0.2443 -0.3866
 6486SOL    HW225710   3.700   0.467   3.623  0.0784 -0.0908 -1.2040
 6486SOL    HW325711   3.555   0.509   3.636  0.0935 -0.6474  1.1161
 6486SOL    MW425712   3.640   0.521   3.654  0.3696 -0.2773 -0.2962
 6487SOL     OW25713   0.827   5.444   5.276  0.2162 -0.0854 -0.8559
 6487SOL    HW225714   0.800   5.432   5.368 -0.9294 -0.4138 -1.2162
 6487SOL    HW325715   0.794   5.367   5.231 -3.2794  2.0223 -2.3672
 6487SOL    MW425716   0.819   5.432   5.282 -0.3962  0.1493 -1.1028
 6488SOL     OW25717   1.375   0.063   1.743 -0.9409 -0.5787 -0.7322
 6488SOL    HW225718   1.380  -0.029   1.767 -1.4518 -0.3434  0.3026
 6488SOL    HW325719   1.283   0.079   1.724 -1.0904  0.0307  0.4146
 6488SOL    MW425720   1.364   0.053   1.743 -1.0280 -0.4673 -0.4444
 6489SOL     OW25721   6.094   4.018   1.124 -0.6469 -0.7370 -0.0569
 6489SOL    HW225722   6.148   3.998   1.201 -0.1458 -0.9796 -0.4684
 6489SOL    HW325723   6.153   4.008   1.050 -1.4259 -1.6689 -0.5737
 6489SOL    MW425724   6.109   4.014   1.125 -0.6836 -0.8920 -0.1793
 6490SOL     OW25725   3.040   4.188   1.214  0.0670  0.1007  0.1202
 6490SOL    HW225726   3.117   4.163   1.265  0.0152 -0.0985  0.1037
 6490SOL    HW325727   3.006   4.105   1.180  0.8127  0.3249 -1.2490
 6490SOL    MW425728   3.045   4.174   1.216  0.1586  0.1040 -0.0627
 6491SOL     OW25729   3.176   0.927   4.372 -0.1753  0.4582  0.7492
 6491SOL    HW225730   3.213   1.015   4.378  0.4808  0.1928  0.6936
 6491SOL    HW325731   3.100   0.936   4.315  0.7225  0.7365 -0.4468
 6491SOL    MW425732   3.171   0.940   4.366  0.0297  0.4599  0.5841
 6492SOL     OW25733   3.194   5.654   2.254  0.2830 -0.1788 -0.1679
 6492SOL    HW225734   3.262   5.722   2.249 -0.7059  0.8390 -0.2918
 6492SOL    HW325735   3.238   5.575   2.222  1.6848  0.2085  0.6962
 6492SOL    MW425736   3.209   5.653   2.249  0.3375  0.0066 -0.0703
 6493SOL     OW25737   1.424   4.872   4.174 -0.2405  0.0671  0.0908
 6493SOL    HW225738   1.477   4.926   4.116  0.9955 -0.8946  0.2955
 6493SOL    HW325739   1.338   4.868   4.131  0.4860 -0.1684 -1.3789
 6493SOL    MW425740   1.419   4.879   4.161  0.0184 -0.0909 -0.0761
 6494SOL     OW25741   2.340   5.121   3.962  0.1386 -0.3873  0.0629
 6494SOL    HW225742   2.391   5.051   3.923  0.3479 -0.3289  0.2282
 6494SOL    HW325743   2.393   5.200   3.950 -0.0868 -0.2602 -0.1071
 6494SOL    MW425744   2.354   5.123   3.955  0.1365 -0.3628  0.0623
 6495SOL     OW25745   0.700   5.239   5.988 -0.0291 -0.1400 -0.1452
 6495SOL    HW225746   0.699   5.193   5.904  0.4643 -0.6333  0.1103
 6495SOL    HW325747   0.771   5.303   5.980 -0.7064  0.5774 -0.4960
 6495SOL    MW425748   0.710   5.242   5.976 -0.0533 -0.1105 -0.1578
 6496SOL     OW25749   3.308   1.170   4.401 -0.2076  0.0928 -0.0012
 6496SOL    HW225750   3.396   1.205   4.387  0.3072 -0.6416  1.1696
 6496SOL    HW325751   3.273   1.222   4.473  0.1748 -1.0725  1.0652
 6496SOL    MW425752   3.315   1.181   4.409 -0.0892 -0.1579  0.2940
 6497SOL     OW25753   1.949   1.567   5.205 -0.5346  0.6732  0.4593
 6497SOL    HW225754   1.910   1.652   5.183 -0.5576 -0.0583 -2.8125
 6497SOL    HW325755   2.040   1.587   5.228  0.2418  1.4868 -2.8243
 6497SOL    MW425756   1.956   1.581   5.205 -0.4352  0.6840 -0.4056
 6498SOL     OW25757   0.421   0.312   3.480 -0.1471  0.0699  0.1955
 6498SOL    HW225758   0.328   0.305   3.460 -0.1671  0.5251  0.1281
 6498SOL    HW325759   0.464   0.326   3.396  0.1508 -1.5759  0.0231
 6498SOL    MW425760   0.414   0.313   3.467 -0.1104 -0.0872  0.1638
 6499SOL     OW25761   4.864   2.077   4.919  0.0294 -0.5498 -0.5996
 6499SOL    HW225762   4.868   2.047   5.010 -1.2777 -0.9247 -0.6414
 6499SOL    HW325763   4.932   2.027   4.874  0.0934 -1.0027 -0.0075
 6499SOL    MW425764   4.874   2.067   4.925 -0.1346 -0.6590 -0.5270
 6500SOL     OW25765   3.564   1.188   1.821  0.2744 -0.3107  0.2285
 6500SOL    HW225766   3.631   1.158   1.759 -0.4309  0.4152 -0.9242
 6500SOL    HW325767   3.500   1.234   1.766 -0.8961 -0.5261  1.3754
 6500SOL    MW425768   3.565   1.190   1.805  0.0269 -0.2434  0.2277
 6501SOL     OW25769   0.467   0.369   0.545 -0.2622 -0.0713 -0.5922
 6501SOL    HW225770   0.472   0.462   0.527 -0.9681  0.2788  0.8785
 6501SOL    HW325771   0.382   0.357   0.588  0.4197 -1.1478  0.5155
 6501SOL    MW425772   0.456   0.379   0.548 -0.2654 -0.1671 -0.2520
 6502SOL     OW25773   6.118   5.878   0.700 -0.1074 -0.2098  0.1156
 6502SOL    HW225774   6.089   5.930   0.774 -0.9876  1.5620 -1.3730
 6502SOL    HW325775   6.212   5.895   0.693  0.1316 -0.9740  1.2130
 6502SOL    MW425776   6.126   5.887   0.709 -0.1920 -0.0769  0.0640
 6503SOL     OW25777   0.145   3.148   4.831  0.0709 -0.2413  0.0891
 6503SOL    HW225778   0.118   3.225   4.882 -0.7329  2.0350 -3.4414
 6503SOL    HW325779   0.063   3.105   4.808  0.4149 -1.1244  0.4498
 6503SOL    MW425780   0.131   3.152   4.835  0.0103 -0.0575 -0.3291
 6504SOL     OW25781   2.912   2.357   5.236 -0.0122 -0.2928  0.3510
 6504SOL    HW225782   2.964   2.437   5.227  1.0272 -0.9539  0.2381
 6504SOL    HW325783   2.849   2.376   5.306 -0.7445  1.1009 -0.6418
 6504SOL    MW425784   2.911   2.370   5.244  0.0283 -0.1961  0.2051
 6505SOL     OW25785   1.411   4.428   1.339  0.0301 -0.3221 -0.2073
 6505SOL    HW225786   1.383   4.430   1.430 -0.9755  0.5261 -0.5168
 6505SOL    HW325787   1.374   4.348   1.303 -0.3485 -0.1916 -0.1071
 6505SOL    MW425788   1.403   4.418   1.346 -0.1526 -0.1930 -0.2349
 6506SOL     OW25789   4.052   1.472   3.196 -0.0615 -0.9068 -0.1149
 6506SOL    HW225790   4.004   1.431   3.124 -0.9351  1.3314 -0.9006
 6506SOL    HW325791   4.112   1.404   3.226 -0.8740 -2.4782 -1.8037
 6506SOL    MW425792   4.053   1.458   3.191 -0.2839 -0.8189 -0.4414
 6507SOL     OW25793   5.642   1.025   4.142 -0.3053 -0.0756  0.7974
 6507SOL    HW225794   5.723   1.060   4.177 -0.0336 -0.4434  0.5414
 6507SOL    HW325795   5.601   0.980   4.216 -0.5325  0.5579  1.0604
 6507SOL    MW425796   5.647   1.024   4.156 -0.2994 -0.0406  0.7983
 6508SOL     OW25797   0.601   0.194   1.530  0.3402 -0.5848  0.8219
 6508SOL    HW225798   0.511   0.195   1.500  0.1967 -1.0019  1.2147
 6508SOL    HW325799   0.631   0.284   1.521 -0.0691 -0.4736  0.5559
 6508SOL    MW425800   0.593   0.206   1.525  0.2672 -0.6252  0.8386
 6509SOL     OW25801   6.047   1.282   2.134 -0.1585  0.8046  0.4613
 6509SOL    HW225802   6.079   1.370   2.155 -0.1660  1.1371 -0.8630
 6509SOL    HW325803   6.127   1.232   2.113 -0.3587  1.6698 -2.9761
 6509SOL    MW425804   6.062   1.287   2.134 -0.1859  0.9626 -0.1669
 6510SOL     OW25805   6.057   5.576   3.700 -0.4295 -0.1682 -0.1232
 6510SOL    HW225806   5.994   5.579   3.772  0.0800  1.9044  0.2964
 6510SOL    HW325807   6.141   5.558   3.743 -0.5859 -2.6109 -0.6503
 6510SOL    MW425808   6.060   5.574   3.715 -0.3829 -0.2170 -0.1374
 6511SOL     OW25809   3.501   4.577   3.417  0.6586 -0.0704  0.2078
 6511SOL    HW225810   3.553   4.509   3.460  0.8427 -0.1020 -0.0631
 6511SOL    HW325811   3.514   4.655   3.471  1.0728 -0.0501  0.0788
 6511SOL    MW425812   3.510   4.578   3.430  0.7376 -0.0719  0.1550
 6512SOL     OW25813   0.850   6.314   0.899  0.1900 -0.0240 -0.2364
 6512SOL    HW225814   0.927   6.346   0.946 -1.0671 -0.5493  2.3711
 6512SOL    HW325815   0.868   6.221   0.883  0.3799  0.0141 -0.2413
 6512SOL    MW425816   0.863   6.306   0.903  0.0492 -0.0883  0.1070
 6513SOL     OW25817   3.786   5.576   0.431  0.3710  0.1037  0.1642
 6513SOL    HW225818   3.874   5.603   0.457  0.4499 -0.3551  0.3926
 6513SOL    HW325819   3.754   5.647   0.376  1.8445 -0.7997 -1.9817
 6513SOL    MW425820   3.793   5.589   0.427  0.5758 -0.0761 -0.0888
 6514SOL     OW25821   0.932   0.196   3.251 -0.4421 -0.0396  0.0827
 6514SOL    HW225822   0.899   0.284   3.234 -1.4204 -0.4605 -0.2196
 6514SOL    HW325823   0.890   0.169   3.332  0.8684  0.2611  0.8957
 6514SOL    MW425824   0.922   0.204   3.259 -0.3982 -0.0555  0.1501
 6515SOL     OW25825   4.741   0.874   3.348 -0.4102  0.7190  0.3949
 6515SOL    HW225826   4.650   0.897   3.326  0.1611  1.0389 -1.8467
 6515SOL    HW325827   4.764   0.806   3.285  0.8669  0.5098  1.0614
 6515SOL    MW425828   4.732   0.868   3.337 -0.1663  0.7336  0.1871
 6516SOL     OW25829   5.371   2.662   0.367 -0.2018 -0.5556 -1.2052
 6516SOL    HW225830   5.422   2.600   0.419 -0.7877  1.1782  1.6204
 6516SOL    HW325831   5.321   2.606   0.307 -0.4669 -2.8422  0.9671
 6516SOL    MW425832   5.371   2.646   0.366 -0.3141 -0.6285 -0.5458
 6517SOL     OW25833   4.663   5.440   1.953 -0.1155  0.0791 -0.1570
 6517SOL    HW225834   4.568   5.451   1.947 -0.2209 -0.6604  0.0757
 6517SOL    HW325835   4.677   5.396   2.037  0.3156 -1.1191 -0.8427
 6517SOL    MW425836   4.652   5.436   1.963 -0.0725 -0.1765 -0.2168
 6518SOL     OW25837   5.784   6.110   0.504 -0.0431 -0.2908  0.2178
 6518SOL    HW225838   5.769   6.061   0.585 -0.5166 -2.0948 -0.9043
 6518SOL    HW325839   5.879   6.107   0.492  0.2478  1.5208  1.5603
 6518SOL    MW425840   5.795   6.103   0.513 -0.0672 -0.2898  0.2469
 6519SOL     OW25841   2.092   2.982   5.087  0.1011  0.0406 -0.7326
 6519SOL    HW225842   2.013   3.012   5.043  0.9908  0.3187 -2.1817
 6519SOL    HW325843   2.100   2.890   5.061  1.1851  0.4792 -2.0375
 6519SOL    MW425844   2.083   2.974   5.078  0.3615  0.1352 -1.0960
 6520SOL     OW25845   6.052   3.353   3.825 -0.4499  0.4182  0.3634
 6520SOL    HW225846   6.031   3.262   3.805 -1.7961  0.6691  0.5258
 6520SOL    HW325847   6.111   3.380   3.755  0.3041 -0.6831  0.5401
 6520SOL    MW425848   6.057   3.344   3.813 -0.5280  0.3060  0.4082
 6521SOL     OW25849   1.243   1.701   0.737 -0.5145  0.3645  0.3542
 6521SOL    HW225850   1.245   1.788   0.696  0.9564  0.3077  0.2721
 6521SOL    HW325851   1.159   1.699   0.782 -0.0581  2.3689  1.4449
 6521SOL    MW425852   1.232   1.712   0.738 -0.2602  0.6215  0.4873
 6522SOL     OW25853   3.478   1.746   6.306 -0.1732 -0.0510 -0.5456
 6522SOL    HW225854   3.452   1.836   6.286  1.0790  0.7968  1.3450
 6522SOL    HW325855   3.574   1.747   6.301 -0.0575 -0.8774  0.9341
 6522SOL    MW425856   3.487   1.758   6.302  0.0073 -0.0482 -0.1009
 6523SOL     OW25857   0.848   0.776   2.335 -1.1046 -0.7577  0.0465
 6523SOL    HW225858   0.781   0.709   2.324 -0.8536 -1.5793  2.7087
 6523SOL    HW325859   0.924   0.743   2.287 -0.9363 -2.5205  1.4328
 6523SOL    MW425860   0.850   0.763   2.327 -1.0493 -1.0987  0.5806
 6524SOL     OW25861   5.877   2.633   1.494 -0.4976 -0.2104  0.4045
 6524SOL    HW225862   5.873   2.606   1.402 -0.4899  0.4649  0.1990
 6524SOL    HW325863   5.798   2.596   1.533 -0.5219 -0.4680  0.1179
 6524SOL    MW425864   5.866   2.624   1.487 -0.4998 -0.1553  0.3396
 6525SOL     OW25865   3.956   0.401   1.859  0.2645  0.6057  0.4790
 6525SOL    HW225866   4.041   0.369   1.829  0.3447  1.7488 -0.5922
 6525SOL    HW325867   3.899   0.324   1.857  0.6225  0.3393 -1.3594
 6525SOL    MW425868   3.960   0.387   1.855  0.3223  0.7214  0.0951
 6526SOL     OW25869   1.445   4.983   4.427  0.0442 -0.0513  0.0861
 6526SOL    HW225870   1.458   4.934   4.346 -1.6700 -1.0306  0.3805
 6526SOL    HW325871   1.515   5.049   4.426  1.0640 -1.0974 -1.3634
 6526SOL    MW425872   1.456   4.986   4.416 -0.0474 -0.3185 -0.0663
 6527SOL     OW25873   4.942   3.804   5.735 -0.1046 -0.6173  0.0703
 6527SOL    HW225874   5.022   3.751   5.729 -0.7108 -1.8993  2.0916
 6527SOL    HW325875   4.953   3.873   5.670  1.6891 -2.0059 -1.1896
 6527SOL    MW425876   4.954   3.806   5.726  0.0521 -0.9696  0.1707
 6528SOL     OW25877   4.166   0.599   5.540 -0.0136  0.0762 -0.1637
 6528SOL    HW225878   4.192   0.582   5.449  1.1440 -1.9523  0.4656
 6528SOL    HW325879   4.214   0.533   5.590  0.7336  2.2272  2.1262
 6528SOL    MW425880   4.176   0.588   5.535  0.2377  0.0923  0.2214
 6529SOL     OW25881   0.915   1.902   5.637 -0.1304 -0.2942 -0.0503
 6529SOL    HW225882   0.921   1.996   5.618 -0.4697  0.7249  4.0417
 6529SOL    HW325883   0.826   1.878   5.610 -0.6353  1.0090  0.3628
 6529SOL    MW425884   0.904   1.911   5.631 -0.2418  0.0122  0.5441
 6530SOL     OW25885   5.302   4.478   1.922 -0.1286 -0.1895 -0.3213
 6530SOL    HW225886   5.249   4.556   1.906  0.3851 -0.0296 -1.3464
 6530SOL    HW325887   5.266   4.440   2.003  0.7630  2.0903  1.2498
 6530SOL    MW425888   5.290   4.483   1.931  0.0568  0.1324 -0.2493
 6531SOL     OW25889   4.129   3.870   1.536  0.3707 -0.1998 -0.0278
 6531SOL    HW225890   4.189   3.933   1.496 -0.7519 -0.1100 -1.6610
 6531SOL    HW325891   4.053   3.868   1.477  0.2391 -2.8951  0.0991
 6531SOL    MW425892   4.127   3.878   1.523  0.2052 -0.5436 -0.2265
 6532SOL     OW25893   2.785   2.451   4.298 -0.3926  0.2754  0.0261
 6532SOL    HW225894   2.739   2.532   4.317  0.2994  0.8128 -0.5358
 6532SOL    HW325895   2.796   2.451   4.203  0.9599  0.2726  0.1676
 6532SOL    MW425896   2.781   2.461   4.288 -0.1228  0.3459 -0.0294
 6533SOL     OW25897   1.991   5.930   1.639  0.0436 -0.5834 -0.0663
 6533SOL    HW225898   1.920   5.975   1.595 -0.6310 -1.7174 -0.1793
 6533SOL    HW325899   1.950   5.889   1.715  0.4045 -1.8138 -0.5004
 6533SOL    MW425900   1.977   5.930   1.643  0.0022 -0.8954 -0.1385
 6534SOL     OW25901   5.772   1.174   3.002 -0.1709  0.1317  0.2637
 6534SOL    HW225902   5.733   1.250   2.958 -0.6377 -0.2159  0.0719
 6534SOL    HW325903   5.850   1.153   2.949 -1.5710 -1.2642 -1.3947
 6534SOL    MW425904   5.777   1.181   2.989 -0.4172 -0.0983  0.0196
 6535SOL     OW25905   3.317   6.268   5.890 -0.1420  0.1381 -0.6351
 6535SOL    HW225906   3.314   6.348   5.836  0.2363 -0.1192 -1.0464
 6535SOL    HW325907   3.282   6.295   5.974  0.1690  0.7967 -0.7099
 6535SOL    MW425908   3.312   6.282   5.894 -0.0511  0.1910 -0.6992
 6536SOL     OW25909   5.835   6.150   5.620  0.3212  0.1050  0.1383
 6536SOL    HW225910   5.776   6.081   5.651  0.7001 -0.4044 -0.2726
 6536SOL    HW325911   5.870   6.117   5.538  2.7862 -0.5402  1.3515
 6536SOL    MW425912   5.832   6.136   5.613  0.6964 -0.0473  0.2442
 6537SOL     OW25913   3.637   4.341   3.481  0.5450 -0.5496  0.2006
 6537SOL    HW225914   3.641   4.291   3.400  1.2779 -0.8042  0.3864
 6537SOL    HW325915   3.615   4.277   3.548 -1.2514 -0.1406  0.0483
 6537SOL    MW425916   3.635   4.326   3.479  0.4047 -0.5293  0.2050
 6538SOL     OW25917   5.938   2.121   1.183 -0.6453 -0.3250 -0.2370
 6538SOL    HW225918   5.918   2.148   1.094  1.7873  0.5006 -0.5902
 6538SOL    HW325919   5.985   2.194   1.221  0.4960 -1.5973  0.9110
 6538SOL    MW425920   5.941   2.134   1.176 -0.1737 -0.3839 -0.1321
 6539SOL     OW25921   3.230   0.484   0.614  0.3306  0.2743  0.0328
 6539SOL    HW225922   3.308   0.483   0.558 -1.1396  1.9472 -2.2666
 6539SOL    HW325923   3.203   0.393   0.619  0.4820  0.0451 -2.1660
 6539SOL    MW425924   3.237   0.472   0.607  0.1566  0.4648 -0.5607
 6540SOL     OW25925   4.189   1.169   1.040  0.3153 -0.5931 -0.1957
 6540SOL    HW225926   4.109   1.116   1.046  0.0998 -0.2392  0.0746
 6540SOL    HW325927   4.202   1.182   0.946  0.6366 -1.5263 -0.2923
 6540SOL    MW425928   4.180   1.164   1.029  0.3293 -0.6695 -0.1728
 6541SOL     OW25929   0.338   5.751   4.699  0.3977  0.2877  0.2980
 6541SOL    HW225930   0.420   5.708   4.726 -0.0044 -0.9829 -0.4144
 6541SOL    HW325931   0.272   5.682   4.704 -0.5746  1.2109  0.5171
 6541SOL    MW425932   0.340   5.736   4.703  0.2164  0.2419  0.2329
 6542SOL     OW25933   3.025   6.140   4.638  0.0538  0.4018 -0.1000
 6542SOL    HW225934   2.992   6.230   4.629 -0.0850  0.6217  2.0045
 6542SOL    HW325935   2.947   6.085   4.637  0.0734  0.3786 -0.5508
 6542SOL    MW425936   3.011   6.145   4.637  0.0381  0.4278  0.1182
 6543SOL     OW25937   1.569   3.259   5.951  0.1687  0.3735  0.1520
 6543SOL    HW225938   1.580   3.243   6.045  0.5734  1.2423  0.2550
 6543SOL    HW325939   1.514   3.337   5.946  0.5830  0.6385 -0.3281
 6543SOL    MW425940   1.563   3.267   5.963  0.2768  0.5231  0.1022
 6544SOL     OW25941   2.712   6.209   3.892 -0.0034  0.1654 -0.0402
 6544SOL    HW225942   2.644   6.269   3.861  0.2238  1.2720  1.4540
 6544SOL    HW325943   2.715   6.223   3.987  3.0156  0.9277 -0.1436
 6544SOL    MW425944   2.704   6.219   3.901  0.4249  0.4120  0.1433
 6545SOL     OW25945   5.178   1.532   6.211  0.7573 -0.0327  0.0987
 6545SOL    HW225946   5.094   1.515   6.169  0.1588 -1.0866  1.6416
 6545SOL    HW325947   5.196   1.453   6.262  2.3395  0.4701  0.3752
 6545SOL    MW425948   5.169   1.519   6.212  0.8871 -0.1054  0.3387
 6546SOL     OW25949   0.101   0.676   6.360  0.1261  0.3099  0.4461
 6546SOL    HW225950   0.136   0.593   6.326  0.6843  0.2266  1.1991
 6546SOL    HW325951   0.043   0.708   6.291 -0.6000 -1.0291  0.4062
 6546SOL    MW425952   0.098   0.669   6.346  0.1039  0.1223  0.5402
 6547SOL     OW25953   0.902   1.376   2.479 -0.2659 -0.2392  0.4027
 6547SOL    HW225954   0.926   1.313   2.412  0.4868  1.2557 -0.8124
 6547SOL    HW325955   0.918   1.461   2.438 -1.6868  0.7543  1.8039
 6547SOL    MW425956   0.907   1.379   2.465 -0.3541  0.0892  0.4273
 6548SOL     OW25957   3.418   2.467   3.982  0.0045  0.7376 -0.2030
 6548SOL    HW225958   3.458   2.421   3.908  1.6933  2.6309 -0.5655
 6548SOL    HW325959   3.324   2.460   3.966  0.2904 -0.2405 -1.6675
 6548SOL    MW425960   3.411   2.460   3.970  0.2651  0.8584 -0.4440
 6549SOL     OW25961   1.821   0.268   0.974 -0.2539  0.5825  0.1437
 6549SOL    HW225962   1.861   0.309   0.897 -0.2025  0.2976  0.0164
 6549SOL    HW325963   1.737   0.312   0.984  1.1125  2.9940  1.9314
 6549SOL    MW425964   1.816   0.279   0.965 -0.0668  0.8631  0.3628
 6550SOL     OW25965   4.880   5.736   3.214 -0.1239 -0.1671 -0.1576
 6550SOL    HW225966   4.825   5.693   3.279 -0.5774  0.9626  0.2272
 6550SOL    HW325967   4.922   5.664   3.166 -0.4098 -1.0204  0.8425
 6550SOL    MW425968   4.879   5.721   3.216 -0.2215 -0.1306  0.0251
 6551SOL     OW25969   3.009   4.512   3.896  0.0535 -0.4795 -0.5008
 6551SOL    HW225970   3.027   4.503   3.990 -0.9388  0.9341 -0.1530
 6551SOL    HW325971   2.938   4.450   3.880 -1.6163  1.1735  0.2789
 6551SOL    MW425972   3.002   4.502   3.907 -0.2977 -0.0749 -0.3520
 6552SOL     OW25973   4.461   3.673   6.271 -0.9707  0.2652  0.0455
 6552SOL    HW225974   4.465   3.637   6.360 -1.7797  1.4464  0.5830
 6552SOL    HW325975   4.550   3.703   6.253  0.4451 -4.1125 -1.4108
 6552SOL    MW425976   4.473   3.672   6.280 -0.8906 -0.1566 -0.0757
 6553SOL     OW25977   2.599   5.869   1.858 -0.0779 -0.7584  0.0661
 6553SOL    HW225978   2.540   5.943   1.874 -0.8269 -1.1248 -0.8947
 6553SOL    HW325979   2.673   5.908   1.812  0.9225 -0.1329  2.0821
 6553SOL    MW425980   2.601   5.884   1.854 -0.0448 -0.7242  0.2053
 6554SOL     OW25981   5.274   4.728   1.737  0.2359  0.4061 -0.2963
 6554SOL    HW225982   5.335   4.802   1.748 -0.4898  1.0930 -0.7886
 6554SOL    HW325983   5.220   4.752   1.662 -1.8195  0.6613  1.1583
 6554SOL    MW425984   5.275   4.741   1.729 -0.1311  0.5304 -0.1694
 6555SOL     OW25985   6.094   6.032   1.728  0.4485 -0.4247 -0.1591
 6555SOL    HW225986   6.071   6.025   1.636  1.8011  0.3343 -0.5864
 6555SOL    HW325987   6.185   6.004   1.733  0.3879 -0.5031  0.9617
 6555SOL    MW425988   6.103   6.027   1.717  0.6189 -0.3349 -0.0676
 6556SOL     OW25989   6.213   0.563   5.972  0.2020  0.3181  0.5050
 6556SOL    HW225990   6.249   0.631   5.916 -0.1609 -0.3578 -0.5785
 6556SOL    HW325991   6.123   0.592   5.990  0.4984  0.8196  1.2378
 6556SOL    MW425992   6.206   0.576   5.967  0.1932  0.2951  0.4587
 6557SOL     OW25993   3.669   0.470   1.532 -0.2113 -0.2070 -0.8920
 6557SOL    HW225994   3.748   0.519   1.555  0.4165 -1.4921 -0.1470
 6557SOL    HW325995   3.655   0.412   1.608 -1.8369 -0.0504 -1.0399
 6557SOL    MW425996   3.678   0.469   1.545 -0.3430 -0.3559 -0.8132
 6558SOL     OW25997   2.993   1.274   4.608 -0.2760 -0.0627  0.0039
 6558SOL    HW225998   2.926   1.219   4.568 -1.4083  0.3797  1.2129
 6558SOL    HW325999   3.004   1.239   4.696  0.6799  0.2290  0.0213
 6558SOL    MW426000   2.986   1.262   4.615 -0.2993  0.0341  0.1657
 6559SOL     OW26001   5.876   5.001   1.263  0.0407 -0.0440  0.1984
 6559SOL    HW226002   5.814   5.023   1.193 -0.6344  1.6662  1.2741
 6559SOL    HW326003   5.944   4.950   1.219 -0.9960 -0.0875 -1.4548
 6559SOL    MW426004   5.877   4.997   1.248 -0.1851  0.1759  0.1222
 6560SOL     OW26005   6.405   1.245   3.207 -0.1664 -0.1957  0.5076
 6560SOL    HW226006   6.475   1.181   3.193 -0.9968 -0.7952 -1.2102
 6560SOL    HW326007   6.449   1.321   3.244  1.6077 -0.1612 -1.4973
 6560SOL    MW426008   6.420   1.247   3.210 -0.0419 -0.2702  0.0165
 6561SOL     OW26009   1.342   3.948   5.307  0.1319  0.0724  0.1021
 6561SOL    HW226010   1.326   4.027   5.255  1.7703  0.4000  0.0423
 6561SOL    HW326011   1.392   3.979   5.382  0.2921 -0.8270  0.3707
 6561SOL    MW426012   1.347   3.963   5.310  0.3692 -0.0030  0.1297
 6562SOL     OW26013   1.010   3.303   5.653  0.2513 -0.3698  0.7158
 6562SOL    HW226014   1.050   3.387   5.676  0.9179 -0.7852  1.1233
 6562SOL    HW326015   0.916   3.321   5.653  0.3568  0.2635  1.2904
 6562SOL    MW426016   1.003   3.317   5.656  0.3532 -0.3411  0.8453
 6563SOL     OW26017   2.088   0.202   5.209  0.0433  0.3713  0.1675
 6563SOL    HW226018   2.040   0.198   5.127  1.7739  0.1019 -0.8974
 6563SOL    HW326019   2.136   0.285   5.205 -0.3102  0.6473  1.2046
 6563SOL    MW426020   2.088   0.212   5.198  0.2249  0.3722  0.1638
 6564SOL     OW26021   0.371   1.647   0.887 -0.0033 -0.3610 -0.2215
 6564SOL    HW226022   0.457   1.657   0.846  0.1740  1.1532  0.4819
 6564SOL    HW326023   0.389   1.598   0.967  0.1752 -0.2480 -0.1900
 6564SOL    MW426024   0.385   1.642   0.892  0.0437 -0.1463 -0.1245
 6565SOL     OW26025   0.824   3.301   0.072 -0.0275 -0.4587  0.2242
 6565SOL    HW226026   0.863   3.388   0.059  1.7181 -1.2841 -0.4186
 6565SOL    HW326027   0.738   3.307   0.031  1.4392 -0.0235 -3.0988
 6565SOL    MW426028   0.818   3.313   0.065  0.3964 -0.5102 -0.2990
 6566SOL     OW26029   4.563   3.634   5.790  0.0206  0.3357  0.3021
 6566SOL    HW226030   4.616   3.559   5.816 -0.8573 -0.4210 -0.0127
 6566SOL    HW326031   4.488   3.595   5.744 -0.3487  1.4199 -0.0422
 6566SOL    MW426032   4.560   3.619   5.788 -0.1439  0.3789  0.2151
 6567SOL     OW26033   1.768   3.305   1.748  0.3304  0.1570 -0.2928
 6567SOL    HW226034   1.675   3.317   1.728  0.1596 -0.7656 -0.0676
 6567SOL    HW326035   1.796   3.232   1.694  1.0174  0.6235 -0.5938
 6567SOL    MW426036   1.760   3.297   1.738  0.3985  0.0968 -0.3028
 6568SOL     OW26037   0.709   4.078   5.416 -0.1247  0.0228  0.3163
 6568SOL    HW226038   0.700   4.173   5.425 -0.9878  0.0748 -0.8326
 6568SOL    HW326039   0.695   4.044   5.505 -0.3937  0.9290  0.6346
 6568SOL    MW426040   0.706   4.086   5.429 -0.2741  0.1492  0.2067
 6569SOL     OW26041   4.965   3.452   5.682  0.1862  0.0341  0.0457
 6569SOL    HW226042   5.029   3.381   5.686 -0.8488 -1.0268 -1.1478
 6569SOL    HW326043   5.017   3.532   5.683  1.5848 -0.8106 -1.5866
 6569SOL    MW426044   4.980   3.453   5.683  0.2342 -0.2173 -0.3271
 6570SOL     OW26045   6.151   5.066   5.537  0.5341  0.5553 -0.4075
 6570SOL    HW226046   6.205   5.037   5.464  1.4558  1.3083 -0.0477
 6570SOL    HW326047   6.078   5.005   5.539  1.7308 -0.9277 -0.4731
 6570SOL    MW426048   6.149   5.054   5.528  0.8136  0.4590 -0.3687
 6571SOL     OW26049   2.759   4.359   5.599 -0.1245  0.7974 -0.5082
 6571SOL    HW226050   2.725   4.444   5.571 -0.2127  0.6704 -0.7844
 6571SOL    HW326051   2.744   4.357   5.694 -0.4760  0.9302 -0.5600
 6571SOL    MW426052   2.753   4.370   5.608 -0.1825  0.7982 -0.5515
 6572SOL     OW26053   2.653   1.091   0.651 -0.3975 -0.5296  0.0717
 6572SOL    HW226054   2.718   1.162   0.658  0.8133 -1.5822 -0.0774
 6572SOL    HW326055   2.622   1.079   0.741 -1.9038  1.3027 -0.1414
 6572SOL    MW426056   2.658   1.099   0.664 -0.4365 -0.4268  0.0239
 6573SOL     OW26057   3.140   3.118   2.513 -0.1650  0.5400  0.3953
 6573SOL    HW226058   3.225   3.085   2.486  0.2555  2.2360 -0.4528
 6573SOL    HW326059   3.141   3.113   2.609 -0.2350 -2.0384  0.3332
 6573SOL    MW426060   3.151   3.113   2.522 -0.1187  0.4236  0.2752
 6574SOL     OW26061   3.428   4.974   0.078 -0.2732 -0.8061 -0.2531
 6574SOL    HW226062   3.489   4.901   0.082 -1.8570 -2.1925 -0.4904
 6574SOL    HW326063   3.408   4.994   0.169 -2.3484 -2.9192 -0.1588
 6574SOL    MW426064   3.434   4.967   0.090 -0.7560 -1.2678 -0.2720
 6575SOL     OW26065   4.162   5.181   1.281 -0.2093 -0.0290 -0.5275
 6575SOL    HW226066   4.242   5.184   1.229  1.8486 -0.8955  2.3066
 6575SOL    HW326067   4.096   5.142   1.223  0.9934  1.8402 -3.3703
 6575SOL    MW426068   4.164   5.176   1.267  0.2209  0.1033 -0.5286
 6576SOL     OW26069   0.570   4.515   2.596  0.5324 -0.1469  0.5826
 6576SOL    HW226070   0.572   4.573   2.520  2.0947 -0.6524  0.2121
 6576SOL    HW326071   0.635   4.551   2.656 -0.0948 -0.2371  1.3428
 6576SOL    MW426072   0.579   4.527   2.594  0.6558 -0.2255  0.6340
 6577SOL     OW26073   1.025   1.795   5.884 -0.1696 -0.1661 -0.2405
 6577SOL    HW226074   1.009   1.861   5.951  4.2066  0.7517  0.2101
 6577SOL    HW326075   0.978   1.826   5.807 -0.7680  1.7645  0.8474
 6577SOL    MW426076   1.016   1.808   5.882  0.3288  0.2097 -0.0376
 6578SOL     OW26077   2.770   2.838   2.989 -0.3526 -0.0131  0.1771
 6578SOL    HW226078   2.689   2.799   3.022 -0.9672  0.4825 -0.6926
 6578SOL    HW326079   2.768   2.822   2.895  0.4090  0.2887  0.1005
 6578SOL    MW426080   2.759   2.831   2.981 -0.3332  0.0921  0.0522
 6579SOL     OW26081   5.063   2.963   1.117 -0.0842 -0.0504  0.2190
 6579SOL    HW226082   5.149   2.940   1.081 -0.0529 -0.2425  0.4177
 6579SOL    HW326083   5.017   2.879   1.126  0.0866 -0.0542  1.0959
 6579SOL    MW426084   5.068   2.949   1.113 -0.0575 -0.0762  0.3609
 6580SOL     OW26085   5.666   5.388   4.924 -0.3055 -0.0299 -0.5174
 6580SOL    HW226086   5.660   5.419   4.834 -3.0869  0.8508 -0.1322
 6580SOL    HW326087   5.706   5.461   4.972 -0.2720  0.1170 -0.7682
 6580SOL    MW426088   5.671   5.402   4.918 -0.6680  0.1056 -0.4997
 6581SOL     OW26089   2.114   1.562   1.902  0.0673 -0.2365 -0.4645
 6581SOL    HW226090   2.130   1.619   1.978  1.3847  0.2465 -1.0803
 6581SOL    HW326091   2.115   1.622   1.827 -0.4954 -0.8145 -0.9410
 6581SOL    MW426092   2.116   1.578   1.902  0.1669 -0.2490 -0.6086
 6582SOL     OW26093   1.902   5.534   1.948  0.2030  0.0138 -0.3218
 6582SOL    HW226094   1.962   5.543   1.874 -0.5934  0.2223 -0.9626
 6582SOL    HW326095   1.824   5.492   1.910  0.3532 -1.2654  0.7150
 6582SOL    MW426096   1.900   5.530   1.933  0.1177 -0.1274 -0.2695
 6583SOL     OW26097   1.044   2.075   1.320 -0.2445 -0.4298  0.4123
 6583SOL    HW226098   1.063   2.098   1.411  0.6222  0.9182 -0.0820
 6583SOL    HW326099   1.075   2.150   1.270 -0.0269 -1.4677 -1.0601
 6583SOL    MW426100   1.051   2.088   1.326 -0.1015 -0.3889  0.1528
 6584SOL     OW26101   5.338   0.033   0.509 -0.0965  0.1684 -0.3470
 6584SOL    HW226102   5.371   0.056   0.596 -0.9549  2.5722 -0.5646
 6584SOL    HW326103   5.405  -0.024   0.471  1.6916  1.3979  0.8240
 6584SOL    MW426104   5.351   0.029   0.515  0.0262  0.6477 -0.2212
 6585SOL     OW26105   4.214   3.389   0.321 -0.4713  0.5207 -0.9415
 6585SOL    HW226106   4.277   3.455   0.352  1.5874 -1.5681 -0.4296
 6585SOL    HW326107   4.235   3.310   0.371 -0.8430 -1.3988 -3.6097
 6585SOL    MW426108   4.225   3.388   0.332 -0.2487 -0.0081 -1.2260
 6586SOL     OW26109   0.699   4.718   1.212  0.3143 -0.4266 -0.9408
 6586SOL    HW226110   0.790   4.701   1.239 -0.2507  0.7156  2.0518
 6586SOL    HW326111   0.650   4.643   1.245 -0.0926 -0.1082 -0.8180
 6586SOL    MW426112   0.705   4.706   1.220  0.1860 -0.2339 -0.5298
 6587SOL     OW26113   5.536   5.652   2.264 -0.1209 -0.3131  0.2438
 6587SOL    HW226114   5.489   5.602   2.197  1.2414 -1.0282 -0.2185
 6587SOL    HW326115   5.480   5.728   2.281 -1.6906 -1.3880  0.1212
 6587SOL    MW426116   5.523   5.656   2.257 -0.1482 -0.5493  0.1666
 6588SOL     OW26117   4.418   1.716   1.687  0.0828 -0.6026 -0.9102
 6588SOL    HW226118   4.489   1.770   1.651  2.5540 -3.9529 -1.4783
 6588SOL    HW326119   4.369   1.688   1.610 -0.9786  0.4012 -0.6400
 6588SOL    MW426120   4.421   1.720   1.672  0.2688 -0.9122 -0.9495
 6589SOL     OW26121   1.647   1.456   3.499  0.5755 -0.6113  0.3326
 6589SOL    HW226122   1.589   1.486   3.429  3.3650 -1.5909 -2.6242
 6589SOL    HW326123   1.691   1.379   3.463  1.2200 -2.0444  3.7319
 6589SOL    MW426124   1.645   1.450   3.485  1.0286 -0.9297  0.3910
 6590SOL     OW26125   4.071   5.027   3.712  0.3994 -0.0422 -0.2536
 6590SOL    HW226126   4.039   4.952   3.662 -0.2283  0.1168 -0.0930
 6590SOL    HW326127   4.167   5.020   3.707  0.3717  0.3982 -2.1328
 6590SOL    MW426128   4.080   5.016   3.704  0.3129  0.0369 -0.4804
 6591SOL     OW26129   5.754   3.577   0.711  0.0254  0.1639 -0.4044
 6591SOL    HW226130   5.712   3.651   0.667 -0.5534  0.6033  0.8392
 6591SOL    HW326131   5.789   3.614   0.792  0.6793 -0.7156 -0.2680
 6591SOL    MW426132   5.753   3.591   0.716  0.0353  0.1058 -0.2223
 6592SOL     OW26133   3.769   6.447   3.954 -0.2134  0.4037 -0.4917
 6592SOL    HW226134   3.741   6.504   4.025  1.1222 -0.0126  0.4168
 6592SOL    HW326135   3.798   6.507   3.885  0.7199  0.8497  0.2639
 6592SOL    MW426136   3.769   6.463   3.954  0.0860  0.4076 -0.2721
 6593SOL     OW26137   2.458   0.480   4.139  0.4870 -0.3011  0.3398
 6593SOL    HW226138   2.529   0.415   4.146  0.6736 -0.1314  0.0555
 6593SOL    HW326139   2.388   0.445   4.194  1.4368  0.3961  2.0651
 6593SOL    MW426140   2.458   0.466   4.147  0.6370 -0.1867  0.5299
 6594SOL     OW26141   4.357   4.536   5.680 -0.0258  0.1296  0.3166
 6594SOL    HW226142   4.359   4.499   5.592  0.3605  0.7056  0.0808
 6594SOL    HW326143   4.264   4.547   5.699 -0.0840  1.3721 -0.6076
 6594SOL    MW426144   4.345   4.533   5.671  0.0175  0.3696  0.1635
 6595SOL     OW26145   5.634   2.961   4.644 -0.1144  0.1777 -0.4489
 6595SOL    HW226146   5.715   2.913   4.628  0.6766  1.0123  0.8993
 6595SOL    HW326147   5.661   3.053   4.642 -0.7475  0.4292  1.3595
 6595SOL    MW426148   5.648   2.967   4.642 -0.0936  0.3210 -0.0324
 6596SOL     OW26149   3.102   5.341   3.657 -0.2480 -0.6853  0.2890
 6596SOL    HW226150   3.009   5.363   3.658  0.0242  0.6372 -0.9153
 6596SOL    HW326151   3.116   5.290   3.737 -1.7975 -0.0647  0.9765
 6596SOL    MW426152   3.092   5.337   3.668 -0.4165 -0.4289  0.2208
 6597SOL     OW26153   4.353   1.929   4.608  0.0061 -0.2540  0.5664
 6597SOL    HW226154   4.426   1.991   4.621 -0.9022  1.2363 -1.0964
 6597SOL    HW326155   4.334   1.897   4.696  2.6843 -0.7403  1.0579
 6597SOL    MW426156   4.360   1.933   4.621  0.2396 -0.1215  0.4118
 6598SOL     OW26157   2.798   4.847   2.593  0.3120  0.2608  0.3564
 6598SOL    HW226158   2.747   4.883   2.521 -1.2436 -0.1830  1.1897
 6598SOL    HW326159   2.802   4.918   2.657  1.0722  0.4128  0.1477
 6598SOL    MW426160   2.792   4.861   2.592  0.2070  0.2223  0.4388
 6599SOL     OW26161   2.895   4.331   6.265 -0.2300  0.6953 -0.3322
 6599SOL    HW226162   2.907   4.383   6.344  1.0663  2.9067 -1.8449
 6599SOL    HW326163   2.975   4.345   6.215  0.4258 -3.2376 -0.7140
 6599SOL    MW426164   2.907   4.340   6.268  0.0275  0.4681 -0.5822
 6600SOL     OW26165   5.507   1.338   0.658  0.1641 -0.3989  0.0011
 6600SOL    HW226166   5.474   1.264   0.711  1.7960 -0.7835  0.5549
 6600SOL    HW326167   5.500   1.414   0.716 -0.5675 -0.3016 -0.2071
 6600SOL    MW426168   5.502   1.338   0.673  0.2829 -0.4368  0.0467
 6601SOL     OW26169   1.195   0.866   0.863  0.2789 -0.2331 -0.2233
 6601SOL    HW226170   1.221   0.788   0.912  1.2407 -0.0032 -0.3543
 6601SOL    HW326171   1.275   0.917   0.854  0.0963 -0.1839 -1.8778
 6601SOL    MW426172   1.209   0.862   0.868  0.3817 -0.1963 -0.4589
 6602SOL     OW26173   0.174   4.017   3.753  0.1834  0.5093 -0.4886
 6602SOL    HW226174   0.179   4.105   3.791  0.7671  0.6326 -0.8459
 6602SOL    HW326175   0.242   4.016   3.685 -0.3919  0.0654 -1.0688
 6602SOL    MW426176   0.184   4.028   3.749  0.1845  0.4670 -0.6123
 6603SOL     OW26177   1.328   3.247   5.714  0.5829 -0.3553 -0.4406
 6603SOL    HW226178   1.284   3.164   5.699  0.8567 -1.1629  2.5215
 6603SOL    HW326179   1.303   3.272   5.803  1.6308  2.0315 -0.7204
 6603SOL    MW426180   1.319   3.239   5.724  0.7573 -0.1470 -0.0867
 6604SOL     OW26181   0.870   3.749   5.175 -0.9050 -0.0584  0.9288
 6604SOL    HW226182   0.961   3.720   5.185 -0.5030  0.4297 -0.9053
 6604SOL    HW326183   0.875   3.845   5.181 -0.7956  0.2073 -1.9087
 6604SOL    MW426184   0.883   3.758   5.177 -0.8375  0.0410  0.3124
 6605SOL     OW26185   5.204   4.108   4.487 -0.0933 -0.0429  0.1086
 6605SOL    HW226186   5.152   4.051   4.431 -1.0689 -0.0064  0.9384
 6605SOL    HW326187   5.187   4.076   4.576  1.7801 -0.3983  0.3849
 6605SOL    MW426188   5.195   4.096   4.491  0.0251 -0.0849  0.2546
 6606SOL     OW26189   6.414   6.075   4.778  0.4698  0.1484 -0.2420
 6606SOL    HW226190   6.459   6.130   4.715  1.4468 -1.0998 -0.6753
 6606SOL    HW326191   6.429   5.985   4.747  1.3227 -0.5383  1.9413
 6606SOL    MW426192   6.422   6.070   4.766  0.7112 -0.1069 -0.0111
 6607SOL     OW26193   3.820   1.846   0.997 -0.2009 -0.2159  0.3277
 6607SOL    HW226194   3.856   1.764   1.032  1.5502  0.5826  0.4947
 6607SOL    HW326195   3.873   1.914   1.037 -0.3410  0.9000 -1.3283
 6607SOL    MW426196   3.832   1.844   1.007  0.0116  0.0367  0.1313
 6608SOL     OW26197   1.909   3.674   3.472  0.3659 -0.1628 -0.4300
 6608SOL    HW226198   1.986   3.634   3.434 -0.3100  0.7541 -2.9553
 6608SOL    HW326199   1.836   3.618   3.445  0.0393 -0.7685  1.5329
 6608SOL    MW426200   1.909   3.661   3.464  0.2337 -0.1217 -0.5042
 6609SOL     OW26201   4.104   4.902   1.921  0.3818  0.4450  0.1241
 6609SOL    HW226202   4.117   4.976   1.981  1.6960  0.5140 -0.2070
 6609SOL    HW326203   4.193   4.878   1.895 -0.0861 -0.7031 -0.4440
 6609SOL    MW426204   4.118   4.909   1.926  0.4934  0.3026  0.0054
 6610SOL     OW26205   0.103   3.225   1.999  0.2006  0.4327 -0.2623
 6610SOL    HW226206   0.130   3.302   2.048 -1.3382  0.9523 -0.1875
 6610SOL    HW326207   0.057   3.170   2.064  2.8835 -1.4956  0.1680
 6610SOL    MW426208   0.100   3.228   2.014  0.3515  0.2468 -0.1957
 6611SOL     OW26209   0.342   3.159   4.602 -0.6404 -0.4273  0.1671
 6611SOL    HW226210   0.268   3.146   4.661  0.3775 -1.4671  1.2790
 6611SOL    HW326211   0.335   3.250   4.574 -0.0852  0.8366  3.5405
 6611SOL    MW426212   0.332   3.169   4.606 -0.4329 -0.3977  0.7589
 6612SOL     OW26213   2.496   4.052   5.798 -0.2520  0.9958  0.1087
 6612SOL    HW226214   2.547   4.083   5.723 -0.4224 -0.5862 -0.7201
 6612SOL    HW326215   2.558   4.050   5.871  0.6247  0.1387 -0.6213
 6612SOL    MW426216   2.511   4.056   5.797 -0.1588  0.6740 -0.0969
 6613SOL     OW26217   5.740   4.542   2.856 -0.4501  0.9772  0.1413
 6613SOL    HW226218   5.755   4.487   2.779 -0.2392  0.3419  0.6287
 6613SOL    HW326219   5.806   4.513   2.920 -0.7175  1.3933  0.6158
 6613SOL    MW426220   5.751   4.531   2.854 -0.4575  0.9483  0.2682
 6614SOL     OW26221   2.116   0.963   0.069 -0.1028  0.1135  0.4357
 6614SOL    HW226222   2.175   0.902   0.024 -1.2239  0.2743 -1.3570
 6614SOL    HW326223   2.109   0.929   0.158  1.7721 -0.5473  0.3723
 6614SOL    MW426224   2.123   0.951   0.075 -0.0033  0.0475  0.1908
 6615SOL     OW26225   4.266   4.455   1.477  0.2709  0.8606  0.5122
 6615SOL    HW226226   4.187   4.489   1.434 -0.7787 -0.9487  0.8803
 6615SOL    HW326227   4.305   4.397   1.412 -0.5365 -0.7706  1.4012
 6615SOL    MW426228   4.261   4.452   1.463  0.0259  0.4067  0.6780
 6616SOL     OW26229   0.001   4.992   1.717  0.2733 -0.0953  0.9838
 6616SOL    HW226230   0.004   5.088   1.711 -0.7812 -0.0494  1.1183
 6616SOL    HW326231  -0.039   4.975   1.802  0.0115 -0.6583  0.7497
 6616SOL    MW426232  -0.004   5.003   1.728  0.0996 -0.1635  0.9707
 6617SOL     OW26233   2.355   0.080   3.586 -0.5489 -0.6117  0.6870
 6617SOL    HW226234   2.437   0.044   3.553  0.8229  1.6914  1.3165
 6617SOL    HW326235   2.352   0.054   3.678  0.7017  1.1753  1.2811
 6617SOL    MW426236   2.365   0.072   3.594 -0.2029 -0.0720  0.8484
 6618SOL     OW26237   4.539   2.069   6.088 -0.5611 -0.0184  0.1683
 6618SOL    HW226238   4.515   2.134   6.022  0.6825  1.0223  0.6755
 6618SOL    HW326239   4.476   2.082   6.159 -1.1138 -0.2658 -0.2728
 6618SOL    MW426240   4.528   2.080   6.089 -0.4699  0.0863  0.1770
 6619SOL     OW26241   4.936   3.417   4.453  0.9640 -0.4160  0.3255
 6619SOL    HW226242   4.916   3.501   4.493  3.1219  0.6932 -0.7583
 6619SOL    HW326243   4.885   3.353   4.503 -0.2003  1.4401  1.6025
 6619SOL    MW426244   4.927   3.419   4.465  1.0951 -0.0248  0.3510
 6620SOL     OW26245   2.769   6.254   0.291  0.2519  0.2050 -0.0268
 6620SOL    HW226246   2.716   6.220   0.219 -0.0130  2.7973 -1.1607
 6620SOL    HW326247   2.839   6.303   0.249  0.2772  1.5290  1.4454
 6620SOL    MW426248   2.771   6.256   0.276  0.2203  0.7217  0.0178
 6621SOL     OW26249   1.134   2.498   5.921 -0.2510  0.4172  0.0640
 6621SOL    HW226250   1.130   2.563   5.851  2.0531  0.0492 -0.4913
 6621SOL    HW326251   1.228   2.485   5.936 -0.6707 -1.6195  1.2548
 6621SOL    MW426252   1.146   2.505   5.914 -0.0024  0.0999  0.1479
 6622SOL     OW26253   1.236   5.105   4.797 -0.0587  0.7521 -0.0659
 6622SOL    HW226254   1.314   5.051   4.779 -0.4408 -0.4845  1.7601
 6622SOL    HW326255   1.170   5.071   4.737  1.1749  2.9878 -2.9390
 6622SOL    MW426256   1.238   5.093   4.787  0.0536  0.8839 -0.2040
 6623SOL     OW26257   3.731   1.468   1.962  0.1429 -0.9878  0.4486
 6623SOL    HW226258   3.771   1.552   1.942  0.0822 -1.3607 -1.3984
 6623SOL    HW326259   3.788   1.403   1.920 -0.0897 -1.8326  1.4018
 6623SOL    MW426260   3.744   1.470   1.954  0.1042 -1.1484  0.3307
 6624SOL     OW26261   1.863   4.791   1.889  0.2101  0.1584 -0.1887
 6624SOL    HW226262   1.954   4.764   1.876 -0.0814  0.3493 -3.5009
 6624SOL    HW326263   1.868   4.872   1.939  1.9366  0.6459 -1.0950
 6624SOL    MW426264   1.875   4.798   1.894  0.3995  0.2479 -0.7453
 6625SOL     OW26265   1.788   1.386   4.666  0.1454  0.7719  0.3134
 6625SOL    HW226266   1.739   1.374   4.585  2.0277  2.0592 -1.0937
 6625SOL    HW326267   1.735   1.446   4.718  0.0724  1.9000 -1.0331
 6625SOL    MW426268   1.775   1.392   4.662  0.3841  1.0906 -0.0499
 6626SOL     OW26269   2.502   1.468   4.729 -0.1647 -0.0291  0.2003
 6626SOL    HW226270   2.568   1.452   4.662 -0.4728  0.9462 -0.3535
 6626SOL    HW326271   2.474   1.380   4.757  1.8802 -0.4768  0.9927
 6626SOL    MW426272   2.507   1.454   4.724  0.0644  0.0405  0.2318
 6627SOL     OW26273   1.442   0.285   2.562  0.4753  0.4327 -1.0725
 6627SOL    HW226274   1.530   0.319   2.545  0.8238  0.4113  0.5779
 6627SOL    HW326275   1.425   0.304   2.654 -0.9814 -0.1785 -1.1811
 6627SOL    MW426276   1.451   0.292   2.572  0.3291  0.3492 -0.8690
 6628SOL     OW26277   4.224   6.007   6.274  0.7702  0.8299 -0.8119
 6628SOL    HW226278   4.305   6.051   6.248  0.0511  1.8044 -1.4786
 6628SOL    HW326279   4.160   6.033   6.208 -0.5719  1.6622  0.7269
 6628SOL    MW426280   4.226   6.017   6.262  0.4982  1.0682 -0.6968
 6629SOL     OW26281   6.237   4.265   2.325  0.2431  0.4904 -0.3429
 6629SOL    HW226282   6.280   4.284   2.408 -0.2061 -0.5541  0.1588
 6629SOL    HW326283   6.259   4.173   2.307 -0.3077  0.4705 -0.9775
 6629SOL    MW426284   6.245   4.255   2.333  0.1111  0.3500 -0.3604
 6630SOL     OW26285   4.685   2.129   0.605  0.3723  0.0505  0.1512
 6630SOL    HW226286   4.598   2.091   0.589 -0.0320  1.3847 -0.9596
 6630SOL    HW326287   4.686   2.148   0.699 -0.2971 -0.5369  0.2849
 6630SOL    MW426288   4.674   2.126   0.616  0.2307  0.1490  0.0223
 6631SOL     OW26289   2.806   5.546   0.005  0.3180 -0.4872 -0.2545
 6631SOL    HW226290   2.794   5.454  -0.018 -0.5328 -0.4926  0.1796
 6631SOL    HW326291   2.755   5.594  -0.061 -1.2413 -0.4541  0.9158
 6631SOL    MW426292   2.797   5.540  -0.007  0.0000 -0.4835 -0.0428
 6632SOL     OW26293   5.371   4.424   0.685 -0.6176 -0.1183 -0.5230
 6632SOL    HW226294   5.339   4.414   0.595 -0.1472  1.5946 -0.9179
 6632SOL    HW326295   5.419   4.506   0.684 -0.4461 -0.1619  1.2693
 6632SOL    MW426296   5.373   4.433   0.673 -0.5329  0.1019 -0.3386
 6633SOL     OW26297   6.369   4.632   0.116  0.3003 -0.0300 -0.1829
 6633SOL    HW226298   6.286   4.675   0.096 -0.0363 -0.6893 -0.2514
 6633SOL    HW326299   6.381   4.644   0.210 -0.6108 -1.1717  0.0979
 6633SOL    MW426300   6.360   4.639   0.126  0.1356 -0.2676 -0.1549
 6634SOL     OW26301   4.055   4.269   4.479 -0.1369 -0.2177  0.5049
 6634SOL    HW226302   4.126   4.307   4.531  0.4814 -1.3806  0.5507
 6634SOL    HW326303   3.978   4.272   4.536  0.1478  0.0273  0.8763
 6634SOL    MW426304   4.054   4.274   4.493 -0.0177 -0.3388  0.5599
 6635SOL     OW26305   3.574   1.790   3.450  0.2463 -0.3641  0.1592
 6635SOL    HW226306   3.646   1.744   3.406 -0.2406 -1.3686  0.3791
 6635SOL    HW326307   3.581   1.763   3.542 -0.3228 -0.3450  0.2095
 6635SOL    MW426308   3.584   1.780   3.456  0.1070 -0.4941  0.1948
 6636SOL     OW26309   1.902   6.295   6.230 -0.2693  0.1474  0.4009
 6636SOL    HW226310   1.856   6.352   6.169 -1.2223 -1.3938 -0.3819
 6636SOL    HW326311   1.983   6.342   6.251 -0.7029  1.4543 -0.7358
 6636SOL    MW426312   1.907   6.308   6.225 -0.4523  0.1165  0.1476
 6637SOL     OW26313   5.019   0.864   0.109  0.3067  0.4527  0.0427
 6637SOL    HW226314   5.077   0.825   0.045  0.2440  0.4685 -0.0231
 6637SOL    HW326315   4.937   0.880   0.062  0.1754  0.2266  0.1938
 6637SOL    MW426316   5.016   0.861   0.095  0.2811  0.4249  0.0540
 6638SOL     OW26317   0.591   1.167   3.755  0.0066 -0.6999  0.2756
 6638SOL    HW226318   0.605   1.093   3.695 -0.4076 -0.7265  0.2128
 6638SOL    HW326319   0.497   1.181   3.754 -0.2248 -1.7625  2.1992
 6638SOL    MW426320   0.580   1.159   3.747 -0.0786 -0.8436  0.5211
 6639SOL     OW26321   4.629   4.093   3.408  0.2358  0.2901 -0.5690
 6639SOL    HW226322   4.689   4.084   3.333 -0.0899 -0.6230 -0.7372
 6639SOL    HW326323   4.545   4.061   3.375 -0.3565  1.5834 -0.3387
 6639SOL    MW426324   4.626   4.087   3.393  0.1147  0.3403 -0.5608
 6640SOL     OW26325   2.144   5.489   6.364  0.1911  0.0035  0.4176
 6640SOL    HW226326   2.097   5.408   6.382  0.5080  0.1333  1.9264
 6640SOL    HW326327   2.227   5.460   6.324  0.1823 -0.3975  0.6857
 6640SOL    MW426328   2.149   5.475   6.361  0.2318 -0.0323  0.6520
 6641SOL     OW26329   6.249   1.659   1.816 -0.2686 -0.5022 -0.4611
 6641SOL    HW226330   6.279   1.649   1.907 -0.3879 -1.4677 -0.5108
 6641SOL    HW326331   6.223   1.751   1.809  0.7249 -0.1548  0.1730
 6641SOL    MW426332   6.250   1.670   1.827 -0.1533 -0.5837 -0.3840
 6642SOL     OW26333   0.402   6.438   1.036  0.3394 -0.2183  0.0447
 6642SOL    HW226334   0.482   6.463   0.992  0.1199 -1.0542 -0.8550
 6642SOL    HW326335   0.345   6.405   0.967  0.2684 -2.2872  0.9902
 6642SOL    MW426336   0.405   6.437   1.021  0.3011 -0.6015  0.0507
 6643SOL     OW26337   4.937   0.586   1.064 -0.2630 -0.2964 -0.2524
 6643SOL    HW226338   4.982   0.518   1.013  0.4436 -1.4848  1.8288
 6643SOL    HW326339   5.007   0.649   1.086 -0.5475  0.1674 -0.6508
 6643SOL    MW426340   4.952   0.585   1.060 -0.2073 -0.3920 -0.0304
 6644SOL     OW26341   3.979   5.342   4.468  0.2508  0.4595  0.6445
 6644SOL    HW226342   3.976   5.250   4.494 -0.5927  0.0651 -0.7170
 6644SOL    HW326343   4.071   5.366   4.471  0.7203 -1.0027 -0.7741
 6644SOL    MW426344   3.991   5.333   4.472  0.2015  0.2146  0.2777
 6645SOL     OW26345   5.740   4.610   6.104 -0.2144 -0.3729 -0.4530
 6645SOL    HW226346   5.655   4.653   6.095 -0.5151 -1.0785 -0.9580
 6645SOL    HW326347   5.736   4.568   6.190  0.6817  1.9016  0.7994
 6645SOL    MW426348   5.728   4.610   6.114 -0.1358 -0.1659 -0.3544
 6646SOL     OW26349   1.434   2.503   4.476  0.3325  0.1347 -0.2801
 6646SOL    HW226350   1.435   2.592   4.440 -0.0238  0.8414  1.3574
 6646SOL    HW326351   1.346   2.471   4.457  0.9367 -0.4944 -2.2318
 6646SOL    MW426352   1.422   2.511   4.469  0.3652  0.1449 -0.3216
 6647SOL     OW26353   4.606   4.161   0.920  0.0861  0.7276  0.6223
 6647SOL    HW226354   4.671   4.187   0.855 -0.5975  1.4823  0.2128
 6647SOL    HW326355   4.614   4.226   0.990 -0.1425  0.7542  0.6249
 6647SOL    MW426356   4.615   4.173   0.921 -0.0342  0.8307  0.5686
 6648SOL     OW26357   2.301   4.332   4.840 -0.1876  0.2164 -0.5033
 6648SOL    HW226358   2.220   4.329   4.788 -0.4775 -0.8598 -0.0275
 6648SOL    HW326359   2.286   4.402   4.904 -0.5598  0.3226 -0.7047
 6648SOL    MW426360   2.288   4.341   4.842 -0.2750  0.0884 -0.4671
 6649SOL     OW26361   4.226   2.314   0.368  0.1031 -0.3776  0.1522
 6649SOL    HW226362   4.140   2.351   0.385 -0.2396 -1.3150  0.4992
 6649SOL    HW326363   4.247   2.263   0.446 -0.4738 -2.8118 -1.1510
 6649SOL    MW426364   4.218   2.312   0.380 -0.0182 -0.8225  0.0261
 6650SOL     OW26365   2.696   6.088   3.353 -0.9499  0.4083 -0.0236
 6650SOL    HW226366   2.736   6.175   3.357 -0.7340  0.2791  0.7601
 6650SOL    HW326367   2.693   6.068   3.259  0.8867  0.4013 -0.1159
 6650SOL    MW426368   2.701   6.097   3.341 -0.6791  0.3903  0.0676
 6651SOL     OW26369   4.884   1.006   0.665  0.3900  0.2108 -0.3226
 6651SOL    HW226370   4.918   0.987   0.577 -0.3734 -2.4102 -0.1340
 6651SOL    HW326371   4.800   1.049   0.649  1.8272  3.1802 -0.7699
 6651SOL    MW426372   4.878   1.009   0.651  0.4789  0.2568 -0.3568
 6652SOL     OW26373   1.606   6.455   0.652 -0.4097  0.3498  0.1578
 6652SOL    HW226374   1.546   6.479   0.582 -1.0880 -0.1089  0.5768
 6652SOL    HW326375   1.562   6.482   0.732 -0.0263  0.0749  0.4650
 6652SOL    MW426376   1.592   6.462   0.653 -0.4486  0.2530  0.2536
 6653SOL     OW26377   6.048   4.418   6.382 -0.2388 -0.3515 -0.1762
 6653SOL    HW226378   6.062   4.443   6.473 -1.8860 -1.9791  0.5895
 6653SOL    HW326379   6.083   4.491   6.332  1.1298  0.3916  1.7263
 6653SOL    MW426380   6.055   4.431   6.388 -0.2756 -0.4682  0.1759
 6654SOL     OW26381   2.809   5.737   1.107 -0.3993 -0.0818  0.6431
 6654SOL    HW226382   2.813   5.808   1.171  2.0911  0.7558 -0.3229
 6654SOL    HW326383   2.899   5.708   1.098 -0.7990 -0.8005 -1.7748
 6654SOL    MW426384   2.821   5.743   1.114 -0.1235 -0.0661  0.1966
 6655SOL     OW26385   3.627   0.864   0.253  1.0083 -0.6919 -0.0396
 6655SOL    HW226386   3.589   0.941   0.296 -0.0536 -0.5652 -1.1269
 6655SOL    HW326387   3.710   0.895   0.217  0.1021  0.2934 -1.3996
 6655SOL    MW426388   3.633   0.879   0.254  0.7487 -0.5451 -0.3625
 6656SOL     OW26389   0.602   1.603   5.403  0.3516 -0.1244  0.4977
 6656SOL    HW226390   0.676   1.543   5.400  1.8237  1.6199 -0.0324
 6656SOL    HW326391   0.601   1.644   5.317 -1.5737 -0.4496  0.3233
 6656SOL    MW426392   0.612   1.600   5.391  0.2918  0.0628  0.4047
 6657SOL     OW26393   0.520   4.507   1.260 -0.8297  0.0698 -0.0622
 6657SOL    HW226394   0.537   4.488   1.352 -0.6730  2.1829  0.4049
 6657SOL    HW326395   0.427   4.531   1.257 -0.4723  1.5611 -0.1211
 6657SOL    MW426396   0.510   4.508   1.271 -0.7619  0.5453 -0.0084
 6658SOL     OW26397   0.399   1.864   4.340 -0.1202  0.0585 -0.1963
 6658SOL    HW226398   0.465   1.929   4.366 -0.2444 -0.0266  0.3502
 6658SOL    HW326399   0.386   1.811   4.418  0.5849 -1.1599 -0.8731
 6658SOL    MW426400   0.406   1.866   4.354 -0.0436 -0.1135 -0.2135
 6659SOL     OW26401   3.293   1.033   3.150  0.5780 -0.0352 -0.1274
 6659SOL    HW226402   3.225   1.080   3.101  1.0323  0.8616  0.0672
 6659SOL    HW326403   3.301   1.082   3.232  0.1085 -1.2782  0.6933
 6659SOL    MW426404   3.285   1.046   3.154  0.5760 -0.0809  0.0066
 6660SOL     OW26405   4.742   4.768   4.649 -0.0856 -0.0987  0.3720
 6660SOL    HW226406   4.769   4.852   4.687  0.1769 -0.0943  0.1740
 6660SOL    HW326407   4.704   4.791   4.564  1.3377 -0.3154 -0.3410
 6660SOL    MW426408   4.740   4.782   4.643  0.1368 -0.1267  0.2518
 6661SOL     OW26409   5.620   6.278   3.419 -0.5705  0.1009  0.1770
 6661SOL    HW226410   5.677   6.214   3.463  2.2040  1.6898 -0.8625
 6661SOL    HW326411   5.628   6.357   3.472  1.8705  1.6761 -2.2640
 6661SOL    MW426412   5.629   6.280   3.432  0.1176  0.5183 -0.2822
 6662SOL     OW26413   1.140   0.330   3.449 -0.3774 -1.0406 -0.2674
 6662SOL    HW226414   1.097   0.282   3.520  0.6528  0.1465  1.2293
 6662SOL    HW326415   1.068   0.373   3.402 -0.9717  1.0490  2.2950
 6662SOL    MW426416   1.125   0.330   3.452 -0.3199 -0.6083  0.2682
 6663SOL     OW26417   1.836   4.291   5.648  0.1206 -0.6342  0.1924
 6663SOL    HW226418   1.835   4.386   5.633 -2.6206 -0.5183  0.6657
 6663SOL    HW326419   1.803   4.254   5.567 -1.5433 -0.9318  0.9581
 6663SOL    MW426420   1.832   4.299   5.635 -0.4606 -0.6582  0.3559
 6664SOL     OW26421   3.364   2.320   5.636 -0.2492  0.1006 -0.2055
 6664SOL    HW226422   3.403   2.303   5.551  2.0611 -2.9618  1.2730
 6664SOL    HW326423   3.404   2.402   5.666  0.8195 -0.1103 -1.0344
 6664SOL    MW426424   3.374   2.329   5.629  0.1967 -0.3313 -0.1198
 6665SOL     OW26425   2.164   2.270   4.367  0.5502  0.4245 -0.1193
 6665SOL    HW226426   2.173   2.259   4.272  0.3041  1.4950 -0.2802
 6665SOL    HW326427   2.194   2.187   4.404  0.1491 -0.2023 -1.1560
 6665SOL    MW426428   2.169   2.258   4.359  0.4648  0.4831 -0.2773
 6666SOL     OW26429   0.007   3.541   1.515  0.1233 -1.1281  0.1399
 6666SOL    HW226430  -0.021   3.486   1.442 -1.9836 -1.0612  0.8181
 6666SOL    HW326431   0.052   3.481   1.574 -1.1469 -1.9253  0.3381
 6666SOL    MW426432   0.009   3.526   1.513 -0.3223 -1.2244  0.2555
 6667SOL     OW26433   0.256   5.605   1.579  0.0379  0.0491  0.0267
 6667SOL    HW226434   0.204   5.560   1.645 -0.0170 -0.5280 -0.3983
 6667SOL    HW326435   0.217   5.579   1.496  0.0213  0.8783 -0.2319
 6667SOL    MW426436   0.244   5.595   1.577  0.0285  0.0824 -0.0635
 6668SOL     OW26437   0.434   4.489   2.278 -0.1666 -0.0156  0.2128
 6668SOL    HW226438   0.387   4.420   2.323 -1.2990 -0.4231 -1.5184
 6668SOL    HW326439   0.375   4.519   2.210  0.9986  1.4330 -0.2321
 6668SOL    MW426440   0.420   4.484   2.275 -0.1623  0.1217 -0.0743
 6669SOL     OW26441   3.340   6.305   1.270 -0.1333  0.5416 -0.0047
 6669SOL    HW226442   3.264   6.359   1.291 -0.5632  0.7068 -1.8114
 6669SOL    HW326443   3.375   6.343   1.190  0.5130 -0.8934 -0.4415
 6669SOL    MW426444   3.335   6.317   1.262 -0.1047  0.3741 -0.3007
 6670SOL     OW26445   1.436   3.570   3.542  0.2267  0.5055  0.2466
 6670SOL    HW226446   1.503   3.629   3.577 -0.5714  0.8332  1.2500
 6670SOL    HW326447   1.436   3.495   3.601  0.8492 -0.2773 -0.7080
 6670SOL    MW426448   1.445   3.568   3.554  0.2036  0.4454  0.2530
 6671SOL     OW26449   3.524   2.813   5.790  0.0075  0.0781  0.5418
 6671SOL    HW226450   3.587   2.746   5.814  2.0285  1.1442 -1.3668
 6671SOL    HW326451   3.469   2.772   5.724  1.2909  0.2417 -0.6810
 6671SOL    MW426452   3.525   2.799   5.784  0.4435  0.2403  0.1286
 6672SOL     OW26453   0.828   5.146   6.232  0.2072  0.6156  0.5921
 6672SOL    HW226454   0.908   5.121   6.186  1.6458  2.2976  2.0542
 6672SOL    HW326455   0.762   5.155   6.163  2.3997  3.5438 -1.3097
 6672SOL    MW426456   0.830   5.144   6.217  0.6863  1.2238  0.5341
 6673SOL     OW26457   1.144   3.754   4.930 -0.2148 -0.1867 -0.0258
 6673SOL    HW226458   1.224   3.786   4.973 -0.6372 -0.5526  1.0640
 6673SOL    HW326459   1.176   3.700   4.857  0.5085  1.4815 -0.9970
 6673SOL    MW426460   1.159   3.751   4.926 -0.1751 -0.0149 -0.0102
 6674SOL     OW26461   3.225   6.062   6.279  0.2706 -0.1782  0.2069
 6674SOL    HW226462   3.156   6.036   6.218  0.4227  0.3956 -0.2141
 6674SOL    HW326463   3.299   6.087   6.223  0.6459 -0.2990  0.6414
 6674SOL    MW426464   3.226   6.062   6.263  0.3402 -0.1184  0.2087
 6675SOL     OW26465   1.029   3.705   0.341  0.2635  0.6502  0.2982
 6675SOL    HW226466   0.953   3.649   0.328  1.3045 -1.9425  3.7531
 6675SOL    HW326467   0.993   3.785   0.379 -0.9377  0.6727 -0.8254
 6675SOL    MW426468   1.014   3.708   0.345  0.2424  0.3111  0.6058
 6676SOL     OW26469   6.041   2.047   1.572  0.2417  0.0312  0.1585
 6676SOL    HW226470   6.050   2.007   1.658 -0.2953 -0.7410 -0.1233
 6676SOL    HW326471   6.117   2.016   1.522 -0.8815 -1.8823 -0.4993
 6676SOL    MW426472   6.052   2.038   1.576  0.0227 -0.3232  0.0345
 6677SOL     OW26473   3.807   0.730   5.503 -0.1771  0.2584  0.4204
 6677SOL    HW226474   3.713   0.723   5.486 -0.4586  1.1510  1.5347
 6677SOL    HW326475   3.820   0.682   5.585  0.6931 -1.5308 -0.6834
 6677SOL    MW426476   3.796   0.723   5.511 -0.0995  0.1401  0.4218
 6678SOL     OW26477   4.551   3.959   4.587  0.1850 -0.4663  0.4312
 6678SOL    HW226478   4.525   3.870   4.611 -0.3666 -0.5058 -0.2744
 6678SOL    HW326479   4.480   4.014   4.621  0.5246 -0.2857  0.8648
 6678SOL    MW426480   4.538   3.955   4.595  0.1570 -0.4477  0.3953
 6679SOL     OW26481   4.756   1.504   5.076  0.0366  0.0733 -0.5021
 6679SOL    HW226482   4.785   1.471   4.991 -0.1208 -1.4895  0.0221
 6679SOL    HW326483   4.692   1.572   5.055 -0.6061 -0.8580 -1.6482
 6679SOL    MW426484   4.751   1.508   5.062 -0.0690 -0.2558 -0.5842
 6680SOL     OW26485   0.268   3.733   3.183 -0.0007 -0.4127 -0.2761
 6680SOL    HW226486   0.340   3.673   3.204  1.6470  0.3481 -3.1068
 6680SOL    HW326487   0.235   3.702   3.098 -2.6340 -0.3119  0.6252
 6680SOL    MW426488   0.273   3.721   3.174 -0.1307 -0.2990 -0.5307
 6681SOL     OW26489   1.839   0.241   3.866  0.5099  0.3026  0.2659
 6681SOL    HW226490   1.913   0.211   3.812  1.1668  0.8346  0.8461
 6681SOL    HW326491   1.880   0.283   3.942 -0.3953  0.5026  0.6612
 6681SOL    MW426492   1.854   0.243   3.869  0.4771  0.3992  0.3946
 6682SOL     OW26493   3.070   5.344   5.690 -0.0690  0.3509  0.0412
 6682SOL    HW226494   3.022   5.348   5.773  1.6418 -1.0764  1.1716
 6682SOL    HW326495   3.149   5.396   5.706  0.3484 -0.0584 -0.6408
 6682SOL    MW426496   3.074   5.352   5.703  0.2118  0.1086  0.1004
 6683SOL     OW26497   0.095   3.878   3.978  0.2531  0.4067  0.5362
 6683SOL    HW226498   0.176   3.847   4.018 -0.2992 -1.7670  0.0928
 6683SOL    HW326499   0.123   3.922   3.897  0.9977 -0.2107  0.4528
 6683SOL    MW426500   0.109   3.880   3.972  0.2784  0.0385  0.4667
 6684SOL     OW26501   2.968   4.828   4.461 -0.3356  0.4226 -0.2258
 6684SOL    HW226502   2.887   4.878   4.476 -0.9430 -0.7534  0.5925
 6684SOL    HW326503   3.005   4.816   4.548 -0.7129 -1.3531 -0.2788
 6684SOL    MW426504   2.962   4.833   4.474 -0.4655  0.0331 -0.1248
 6685SOL     OW26505   1.419   5.461   2.474  0.4204 -0.0477  0.5512
 6685SOL    HW226506   1.403   5.550   2.503  0.1525  0.6866 -1.6868
 6685SOL    HW326507   1.445   5.414   2.554 -0.8435  1.6442  2.0310
 6685SOL    MW426508   1.421   5.466   2.488  0.2183  0.2724  0.4511
 6686SOL     OW26509   0.959   6.025   0.599 -0.1907  0.0647  0.4268
 6686SOL    HW226510   1.006   6.105   0.576 -2.4274  2.3718  3.1031
 6686SOL    HW326511   0.886   6.022   0.537  0.3092 -0.3498 -0.1496
 6686SOL    MW426512   0.955   6.036   0.588 -0.4198  0.3144  0.7038
 6687SOL     OW26513   0.655   1.203   2.367 -0.3780 -0.0955  0.2403
 6687SOL    HW226514   0.695   1.274   2.417 -1.1467  0.4501  0.0880
 6687SOL    HW326515   0.672   1.124   2.419 -0.0027  0.2710  0.6821
 6687SOL    MW426516   0.663   1.202   2.380 -0.4299  0.0248  0.2785
 6688SOL     OW26517   4.276   3.210   2.050  0.3130 -0.9236  0.1046
 6688SOL    HW226518   4.215   3.284   2.042  1.9937  0.4149 -1.1684
 6688SOL    HW326519   4.232   3.149   2.109 -1.3365  0.9071  0.8852
 6688SOL    MW426520   4.262   3.212   2.057  0.3171 -0.5055  0.0396
 6689SOL     OW26521   5.821   6.316   6.307 -0.3431  0.3539  0.0146
 6689SOL    HW226522   5.771   6.235   6.316  0.9284 -0.2832  1.8350
 6689SOL    HW326523   5.778   6.377   6.366 -0.3586  0.5324 -0.1799
 6689SOL    MW426524   5.809   6.313   6.316 -0.1774  0.2934  0.2291
 6690SOL     OW26525   4.171   2.246   4.408  0.2221  0.9901  0.2834
 6690SOL    HW226526   4.135   2.301   4.478  0.4658 -0.7060  1.8181
 6690SOL    HW326527   4.155   2.156   4.437  1.9413  0.2132 -0.9731
 6690SOL    MW426528   4.164   2.242   4.421  0.4811  0.6638  0.3201
 6691SOL     OW26529   5.493   3.596   1.607  0.3283  0.1083 -0.6085
 6691SOL    HW226530   5.512   3.525   1.667 -0.3272 -1.1860 -1.8722
 6691SOL    HW326531   5.523   3.565   1.522 -3.7268 -0.5202 -2.0359
 6691SOL    MW426532   5.499   3.583   1.604 -0.2932 -0.1454 -0.9636
 6692SOL     OW26533   0.155   5.760   4.179 -0.2878  0.1696  0.5098
 6692SOL    HW226534   0.175   5.805   4.097 -0.7018  0.0797  0.3547
 6692SOL    HW326535   0.160   5.667   4.157 -0.1466  0.1431  0.6503
 6692SOL    MW426536   0.158   5.754   4.165 -0.3238  0.1543  0.5079
 6693SOL     OW26537   1.284   1.502   1.715 -0.1362 -0.3662 -0.6519
 6693SOL    HW226538   1.360   1.479   1.662 -0.4434  0.4864 -1.5057
 6693SOL    HW326539   1.209   1.476   1.661 -0.4532  0.0282 -0.4083
 6693SOL    MW426540   1.284   1.496   1.701 -0.2186 -0.2017 -0.7324
 6694SOL     OW26541   3.223   1.192   4.123 -0.5968  0.1283 -0.2233
 6694SOL    HW226542   3.139   1.237   4.131 -0.6829 -0.1068  0.2430
 6694SOL    HW326543   3.258   1.190   4.213  0.7837  1.8961 -0.6487
 6694SOL    MW426544   3.217   1.198   4.136 -0.4261  0.3305 -0.2179
 6695SOL     OW26545   5.616   5.484   5.280  0.3136  0.2305  0.4136
 6695SOL    HW226546   5.552   5.548   5.250 -1.4224 -1.0745  1.1770
 6695SOL    HW326547   5.656   5.525   5.357 -1.4142  0.1125  1.4311
 6695SOL    MW426548   5.613   5.498   5.286 -0.1434  0.0428  0.6486
 6696SOL     OW26549   3.478   4.208   3.048 -0.4076 -0.0186  0.2945
 6696SOL    HW226550   3.394   4.172   3.075 -1.0525 -0.6467 -2.2524
 6696SOL    HW326551   3.456   4.272   2.980  1.1085  0.8191  0.5470
 6696SOL    MW426552   3.464   4.212   3.042 -0.2926  0.0091 -0.0082
 6697SOL     OW26553   1.516   1.603   4.254 -0.3208 -0.0570 -0.2496
 6697SOL    HW226554   1.577   1.623   4.183 -0.4472 -0.6968 -0.5458
 6697SOL    HW326555   1.480   1.688   4.279 -1.7753  0.0172 -2.2937
 6697SOL    MW426556   1.520   1.617   4.248 -0.5294 -0.1316 -0.5584
 6698SOL     OW26557   0.771   6.392   1.515 -0.2010  0.6043 -0.2356
 6698SOL    HW226558   0.723   6.474   1.529  0.0375  0.5407  1.0730
 6698SOL    HW326559   0.702   6.326   1.502 -0.4843  0.6017  1.1363
 6698SOL    MW426560   0.755   6.394   1.515 -0.2069  0.5956  0.1181
 6699SOL     OW26561   2.950   0.797   5.475 -0.3954  0.3920  0.3576
 6699SOL    HW226562   2.927   0.708   5.501  1.2464  0.7103  3.3663
 6699SOL    HW326563   3.027   0.786   5.419 -0.1977 -0.0974  0.7167
 6699SOL    MW426564   2.957   0.783   5.471 -0.1527  0.3694  0.8019
 6700SOL     OW26565   1.649   4.328   3.313  0.0657 -0.3141  0.1539
 6700SOL    HW226566   1.708   4.394   3.350  0.4051 -0.0539 -0.8232
 6700SOL    HW326567   1.578   4.378   3.274  0.1159 -0.5408 -0.2337
 6700SOL    MW426568   1.648   4.343   3.313  0.1171 -0.3097 -0.0261
 6701SOL     OW26569   0.082   1.013   2.390  0.3135  0.0776  0.3011
 6701SOL    HW226570   0.141   1.055   2.328  1.0135 -0.2312  0.7378
 6701SOL    HW326571   0.044   0.940   2.342 -2.1119  2.0348 -0.9691
 6701SOL    MW426572   0.084   1.009   2.376  0.0858  0.2951  0.1911
 6702SOL     OW26573   3.290   3.133   0.868  0.1624 -0.1403  1.0653
 6702SOL    HW226574   3.375   3.178   0.866  0.4220 -0.6293  0.8961
 6702SOL    HW326575   3.291   3.083   0.950  0.1291 -0.3208  0.9559
 6702SOL    MW426576   3.302   3.132   0.879  0.1922 -0.2286  1.0286
 6703SOL     OW26577   6.298   0.994   6.050  0.5603  0.7517 -0.2363
 6703SOL    HW226578   6.312   0.997   5.955 -0.7008 -0.0979 -0.4741
 6703SOL    HW326579   6.375   1.036   6.087  1.3806  0.5163 -1.6136
 6703SOL    MW426580   6.310   1.000   6.042  0.5022  0.6086 -0.4494
 6704SOL     OW26581   0.749   4.146   4.854  0.4226  0.2905  0.7507
 6704SOL    HW226582   0.791   4.232   4.853 -0.2212  0.7552  3.8670
 6704SOL    HW326583   0.821   4.085   4.870  0.6097  0.4927  0.6898
 6704SOL    MW426584   0.764   4.150   4.856  0.3623  0.3785  1.1538
 6705SOL     OW26585   5.943   5.690   0.593  0.0594 -0.1968  0.3947
 6705SOL    HW226586   5.964   5.596   0.599  0.4696 -0.1686 -0.4107
 6705SOL    HW326587   6.024   5.734   0.618 -0.4579 -0.0341  1.8539
 6705SOL    MW426588   5.957   5.683   0.597  0.0453 -0.1716  0.4810
 6706SOL     OW26589   5.527   1.648   1.716 -0.1547 -0.0510 -0.5355
 6706SOL    HW226590   5.451   1.707   1.715  1.2035  1.7867  0.4788
 6706SOL    HW326591   5.520   1.600   1.633 -0.6960  2.3700 -1.9965
 6706SOL    MW426592   5.516   1.649   1.705 -0.0469  0.5109 -0.5945
 6707SOL     OW26593   5.480   2.040   2.217 -0.5089  0.0817  0.6193
 6707SOL    HW226594   5.517   2.128   2.220 -1.6611  0.5936  0.5060
 6707SOL    HW326595   5.448   2.025   2.306  0.2784 -0.5013  0.8130
 6707SOL    MW426596   5.481   2.050   2.229 -0.5571  0.0723  0.6299
 6708SOL     OW26597   1.339   6.438   4.898 -0.1123 -0.7448 -0.0775
 6708SOL    HW226598   1.433   6.450   4.904  0.2778 -2.9761 -0.7207
 6708SOL    HW326599   1.325   6.346   4.920 -2.2830 -0.1890  1.1504
 6708SOL    MW426600   1.349   6.428   4.902 -0.3472 -0.9659 -0.0003
 6709SOL     OW26601   5.451   1.787   3.059 -0.1679  0.7794  0.2761
 6709SOL    HW226602   5.462   1.866   3.006  0.3287  1.2429  1.0566
 6709SOL    HW326603   5.363   1.795   3.095 -0.8966 -0.0111 -1.2091
 6709SOL    MW426604   5.440   1.798   3.056 -0.1985  0.7363  0.1831
 6710SOL     OW26605   5.681   4.162   5.915 -0.0039  0.0581  0.7126
 6710SOL    HW226606   5.715   4.251   5.925  0.0022  0.1303  0.0724
 6710SOL    HW326607   5.586   4.173   5.914 -0.1036 -0.1939  3.0004
 6710SOL    MW426608   5.673   4.175   5.916 -0.0162  0.0344  0.9300
 6711SOL     OW26609   5.811   5.525   2.697 -0.0260 -0.6299  0.2389
 6711SOL    HW226610   5.735   5.504   2.642  0.2957  0.1239 -0.5132
 6711SOL    HW326611   5.832   5.443   2.742 -1.2993 -0.8406  0.4806
 6711SOL    MW426612   5.804   5.512   2.696 -0.1516 -0.5582  0.1715
 6712SOL     OW26613   2.567   4.154   5.510  0.3382  0.0199 -0.7711
 6712SOL    HW226614   2.619   4.235   5.516 -0.4301  0.5731 -1.3479
 6712SOL    HW326615   2.477   4.184   5.506  0.0196 -0.8948 -0.6107
 6712SOL    MW426616   2.562   4.169   5.510  0.1948 -0.0278 -0.8260
 6713SOL     OW26617   1.697   4.361   4.863  0.5821  0.0619 -0.4320
 6713SOL    HW226618   1.663   4.451   4.865  0.1904 -0.0915  0.6951
 6713SOL    HW326619   1.773   4.364   4.922  0.4950 -0.3661 -0.2956
 6713SOL    MW426620   1.703   4.374   4.871  0.5189 -0.0148 -0.2653
 6714SOL     OW26621   2.069   5.355   2.815 -0.2691  0.7219 -0.1423
 6714SOL    HW226622   2.044   5.334   2.726 -0.7168  1.0381 -0.0939
 6714SOL    HW326623   2.155   5.397   2.807 -0.7035  1.5596 -0.5077
 6714SOL    MW426624   2.077   5.358   2.803 -0.3855  0.8741 -0.1841
 6715SOL     OW26625   3.766   5.896   5.914  0.5662 -0.1824  0.2185
 6715SOL    HW226626   3.672   5.882   5.903  0.2431 -1.2133  3.3377
 6715SOL    HW326627   3.807   5.824   5.867 -0.3573 -1.3467  1.1320
 6715SOL    MW426628   3.759   5.885   5.907  0.4017 -0.4721  0.7506
 6716SOL     OW26629   3.080   3.737   0.678  0.3951 -0.2212  0.1984
 6716SOL    HW226630   3.121   3.798   0.739  0.6109  0.9288 -1.0338
 6716SOL    HW326631   3.123   3.756   0.594 -0.2101 -1.4282 -0.4100
 6716SOL    MW426632   3.091   3.748   0.675  0.3437 -0.2287 -0.0445
 6717SOL     OW26633   0.600   1.644   1.411 -0.2219  0.0327  0.7081
 6717SOL    HW226634   0.667   1.581   1.385 -0.1566 -0.2920  1.6176
 6717SOL    HW326635   0.649   1.716   1.451 -0.0774  1.8502 -2.4039
 6717SOL    MW426636   0.615   1.646   1.413 -0.1942  0.2296  0.4175
 6718SOL     OW26637   2.749   0.309   3.002  0.4000 -0.6337 -0.9722
 6718SOL    HW226638   2.710   0.264   3.077 -0.3696 -0.8971 -1.5108
 6718SOL    HW326639   2.801   0.380   3.040 -2.7722  1.5096 -0.2321
 6718SOL    MW426640   2.750   0.313   3.017 -0.1201 -0.3857 -0.9456
 6719SOL     OW26641   5.304   5.948   2.031  0.2115 -0.5834 -0.7814
 6719SOL    HW226642   5.367   5.924   1.962 -1.5893 -0.1787 -2.6785
 6719SOL    HW326643   5.221   5.958   1.984 -0.9631  0.3821  1.3901
 6719SOL    MW426644   5.301   5.946   2.015 -0.1811 -0.4026 -0.7452
 6720SOL     OW26645   0.258   4.292   2.958  0.3788  0.0187  0.5859
 6720SOL    HW226646   0.200   4.284   2.882 -0.0092 -0.6396  0.9309
 6720SOL    HW326647   0.270   4.386   2.970  0.7362  0.1198 -0.4970
 6720SOL    MW426648   0.252   4.303   2.949  0.3748 -0.0548  0.4885
 6721SOL     OW26649   1.177   4.569   3.082 -0.3506 -0.6605 -0.3632
 6721SOL    HW226650   1.152   4.518   3.005  2.1061  0.0619 -1.7722
 6721SOL    HW326651   1.249   4.519   3.121 -0.9964 -0.5753  0.9673
 6721SOL    MW426652   1.183   4.556   3.077 -0.1117 -0.5540 -0.3736
 6722SOL     OW26653   3.180   0.499   1.389  0.3078 -0.2528  0.1309
 6722SOL    HW226654   3.193   0.441   1.464  1.4406 -0.0410  0.1141
 6722SOL    HW326655   3.266   0.537   1.373 -0.2676  0.9069 -0.2995
 6722SOL    MW426656   3.193   0.496   1.397  0.3813 -0.0718  0.0719
 6723SOL     OW26657   3.401   1.355   4.978  0.0751 -0.2867  0.3706
 6723SOL    HW226658   3.356   1.284   5.023  0.5429 -1.4606 -0.9658
 6723SOL    HW326659   3.479   1.372   5.031 -0.0887 -0.6984  0.7486
 6723SOL    MW426660   3.405   1.348   4.991  0.1152 -0.4959  0.2442
 6724SOL     OW26661   3.456   2.637   5.169  0.5979 -0.1366 -0.9036
 6724SOL    HW226662   3.417   2.571   5.226  0.1779  0.8122 -0.0661
 6724SOL    HW326663   3.416   2.621   5.084 -1.0857  0.3371 -0.2433
 6724SOL    MW426664   3.445   2.626   5.166  0.3204  0.0511 -0.7060
 6725SOL     OW26665   5.832   3.081   5.749  0.4677  0.2407  0.8953
 6725SOL    HW226666   5.747   3.126   5.747 -2.1461 -4.1381 -1.2944
 6725SOL    HW326667   5.890   3.136   5.697 -3.1676  0.2113 -3.8037
 6725SOL    MW426668   5.828   3.094   5.742 -0.3568 -0.3409 -0.0136
 6726SOL     OW26669   2.483   3.030   3.159  0.2853  0.5666 -0.0402
 6726SOL    HW226670   2.417   3.095   3.184 -2.0948 -0.6127 -2.6310
 6726SOL    HW326671   2.534   3.072   3.090  1.1344  0.8924  0.7786
 6726SOL    MW426672   2.481   3.044   3.153  0.0833  0.4540 -0.2740
 6727SOL     OW26673   6.407   4.598   0.471  0.7298  0.2318 -0.0803
 6727SOL    HW226674   6.446   4.511   0.479  1.0890  0.5648  4.1072
 6727SOL    HW326675   6.315   4.586   0.492  1.2360  1.0317  3.0694
 6727SOL    MW426676   6.400   4.585   0.475  0.8440  0.3813  0.8878
 6728SOL     OW26677   6.124   4.509   0.508 -0.3770  0.2127  0.6292
 6728SOL    HW226678   6.100   4.517   0.416  0.3093  1.4863  0.5386
 6728SOL    HW326679   6.054   4.552   0.556 -0.3554  0.2179  0.6563
 6728SOL    MW426680   6.112   4.515   0.502 -0.2836  0.3814  0.6208
 6729SOL     OW26681   6.021   4.362   4.161  0.8789 -0.3441 -0.5629
 6729SOL    HW226682   5.939   4.330   4.199  0.9382  0.2564  0.0923
 6729SOL    HW326683   6.017   4.335   4.069 -0.6643  0.8153 -0.8790
 6729SOL    MW426684   6.010   4.354   4.154  0.6831 -0.1119 -0.5182
 6730SOL     OW26685   5.719   5.334   3.905  0.0892  0.1241 -0.2723
 6730SOL    HW226686   5.668   5.276   3.848 -0.2525 -1.3180  1.4166
 6730SOL    HW326687   5.716   5.292   3.991  1.8571  1.4301  0.4887
 6730SOL    MW426688   5.712   5.321   3.908  0.2773  0.1061  0.0509
 6731SOL     OW26689   0.515   4.838   4.298 -0.2649 -0.4595  0.1494
 6731SOL    HW226690   0.455   4.903   4.262 -0.9069 -0.0853  1.8087
 6731SOL    HW326691   0.541   4.874   4.383  1.1610 -1.3177  0.1098
 6731SOL    MW426692   0.511   4.851   4.304 -0.1615 -0.5234  0.3631
 6732SOL     OW26693   1.880   2.182   0.989 -0.2253  0.7571  0.2621
 6732SOL    HW226694   1.917   2.241   1.054 -0.6361  0.2727  0.9480
 6732SOL    HW326695   1.844   2.109   1.040 -1.3401  0.7886 -0.4367
 6732SOL    MW426696   1.880   2.180   1.004 -0.4266  0.6974  0.2604
 6733SOL     OW26697   4.727   3.453   6.356  0.1135  0.2501  0.1483
 6733SOL    HW226698   4.634   3.457   6.378 -0.7643 -0.6720 -2.9277
 6733SOL    HW326699   4.765   3.530   6.398 -2.0055  0.6491  1.4882
 6733SOL    MW426700   4.720   3.464   6.365 -0.2819  0.1811 -0.0807
 6734SOL     OW26701   6.181   3.954   3.402  0.3494 -0.4514  0.1544
 6734SOL    HW226702   6.251   3.898   3.369  0.2012 -0.9139  0.5980
 6734SOL    HW326703   6.212   3.985   3.487  1.0172  1.2869 -0.6809
 6734SOL    MW426704   6.194   3.950   3.409  0.4180 -0.2831  0.1027
 6735SOL     OW26705   2.823   0.532   4.464 -0.4718  0.1169  0.0294
 6735SOL    HW226706   2.912   0.515   4.433 -1.3189 -2.5341 -1.2318
 6735SOL    HW326707   2.825   0.506   4.556  0.0578  0.1411  0.0321
 6735SOL    MW426708   2.835   0.527   4.472 -0.5137 -0.2296 -0.1366
 6736SOL     OW26709   4.370   4.481   3.197  0.2602 -0.0403 -0.3361
 6736SOL    HW226710   4.287   4.436   3.180 -0.8408  1.2745  1.1962
 6736SOL    HW326711   4.422   4.418   3.246  0.5812 -1.2106 -2.0932
 6736SOL    MW426712   4.366   4.467   3.201  0.1573 -0.0212 -0.3657
 6737SOL     OW26713   5.915   6.261   0.280 -0.0470  0.1889 -0.5286
 6737SOL    HW226714   5.999   6.243   0.236  0.3046  5.1272 -2.5144
 6737SOL    HW326715   5.855   6.196   0.243  2.3214 -2.0101 -0.8171
 6737SOL    MW426716   5.918   6.250   0.269  0.3119  0.5503 -0.8286
 6738SOL     OW26717   0.306   1.785   6.425 -0.1712 -0.1215  0.1413
 6738SOL    HW226718   0.324   1.720   6.492 -1.8992 -0.0135  0.7717
 6738SOL    HW326719   0.325   1.740   6.342  1.4054 -0.4490  0.6428
 6738SOL    MW426720   0.311   1.770   6.423 -0.1912 -0.1505  0.2906
 6739SOL     OW26721   1.196   4.990   0.038 -0.4736 -0.8074  0.7908
 6739SOL    HW226722   1.182   4.928   0.109  0.2214  0.0669  1.7139
 6739SOL    HW326723   1.141   5.066   0.060 -1.4592 -1.1403 -0.4207
 6739SOL    MW426724   1.187   4.992   0.050 -0.5119 -0.7360  0.7528
 6740SOL     OW26725   0.714   0.336   6.001 -0.6978 -0.1793 -0.0960
 6740SOL    HW226726   0.786   0.381   5.958 -0.3029  0.9430  1.6402
 6740SOL    HW326727   0.662   0.406   6.041 -0.7159 -1.1521  1.7057
 6740SOL    MW426728   0.716   0.351   6.001 -0.6481 -0.1596  0.3708
 6741SOL     OW26729   1.002   4.063   1.904  0.0077  0.6770 -0.9722
 6741SOL    HW226730   0.991   3.993   1.840 -0.5663  1.3765 -1.6639
 6741SOL    HW326731   1.050   4.023   1.976 -1.8951 -0.9276 -0.5163
 6741SOL    MW426732   1.007   4.048   1.905 -0.3191  0.5576 -1.0033
 6742SOL     OW26733   0.264   0.325   5.769  0.0013 -0.3014  0.2235
 6742SOL    HW226734   0.217   0.365   5.842  0.7324  0.4229  0.3252
 6742SOL    HW326735   0.223   0.362   5.691  1.3056  1.5174  0.3191
 6742SOL    MW426736   0.253   0.335   5.768  0.2698  0.0341  0.2496
 6743SOL     OW26737   5.547   2.852   5.558  0.0177  0.2224  0.3377
 6743SOL    HW226738   5.537   2.780   5.495  1.3570 -1.0194  1.4671
 6743SOL    HW326739   5.506   2.927   5.516  0.0196 -0.8032 -1.5971
 6743SOL    MW426740   5.540   2.852   5.544  0.1947 -0.0767  0.2315
 6744SOL     OW26741   2.402   4.347   4.377  0.0780 -1.0484 -0.3059
 6744SOL    HW226742   2.333   4.388   4.325 -0.1757  0.6568  1.2729
 6744SOL    HW326743   2.368   4.260   4.397 -0.8888 -0.8281 -0.9164
 6744SOL    MW426744   2.389   4.341   4.373 -0.0830 -0.7943 -0.1781
 6745SOL     OW26745   3.847   4.529   0.729 -0.2199 -0.3387 -0.4883
 6745SOL    HW226746   3.793   4.580   0.668 -1.0740  0.8328  1.1616
 6745SOL    HW326747   3.876   4.453   0.679 -0.3575  0.8977 -2.5240
 6745SOL    MW426748   3.843   4.526   0.715 -0.3508 -0.0210 -0.5392
 6746SOL     OW26749   0.448   5.970   5.103 -0.2939  0.2063 -0.3433
 6746SOL    HW226750   0.467   5.886   5.063  0.6594 -0.5678  1.6210
 6746SOL    HW326751   0.499   6.033   5.052 -0.1861 -0.5412 -1.1787
 6746SOL    MW426752   0.457   5.968   5.091 -0.1539  0.0055 -0.1943
 6747SOL     OW26753   2.296   1.002   0.780 -0.8694 -0.2592 -0.3911
 6747SOL    HW226754   2.315   1.095   0.794  0.6976 -0.6945  0.7389
 6747SOL    HW326755   2.268   0.996   0.689  0.2302  1.1635 -0.8653
 6747SOL    MW426756   2.295   1.013   0.770 -0.5176 -0.1289 -0.3046
 6748SOL     OW26757   4.136   6.330   4.313 -0.0105 -0.2906 -0.1321
 6748SOL    HW226758   4.068   6.295   4.369 -0.2588  3.5483  2.3300
 6748SOL    HW326759   4.092   6.397   4.260  1.4090  0.6892 -0.1286
 6748SOL    MW426760   4.122   6.334   4.313  0.1440  0.3452  0.1932
 6749SOL     OW26761   0.291   2.389   4.615  0.3419 -0.2562  0.8529
 6749SOL    HW226762   0.309   2.481   4.597 -1.4569  0.4987  2.5129
 6749SOL    HW326763   0.299   2.345   4.530 -0.0577  1.6595 -0.2220
 6749SOL    MW426764   0.294   2.395   4.602  0.0519  0.0961  0.9301
 6750SOL     OW26765   1.192   5.809   3.173 -0.3395  0.5413 -0.0974
 6750SOL    HW226766   1.222   5.811   3.264  0.5324 -3.6892 -0.0920
 6750SOL    HW326767   1.115   5.752   3.175 -0.7275  0.9589 -1.9186
 6750SOL    MW426768   1.186   5.801   3.185 -0.2756  0.0382 -0.3370
 6751SOL     OW26769   5.980   5.186   4.226 -0.1439 -1.0269 -0.7556
 6751SOL    HW226770   6.024   5.150   4.303  0.4489 -0.4640 -0.8203
 6751SOL    HW326771   6.040   5.167   4.154 -0.2296 -0.6633 -0.9218
 6751SOL    MW426772   5.994   5.179   4.227 -0.0770 -0.9047 -0.7861
 6752SOL     OW26773   0.190   0.903   4.762 -0.3785  1.0623  0.6838
 6752SOL    HW226774   0.225   0.815   4.779 -1.3241 -0.4351 -3.7232
 6752SOL    HW326775   0.267   0.959   4.760  0.7030 -0.3576  0.2781
 6752SOL    MW426776   0.205   0.899   4.764 -0.3606  0.6774  0.0488
 6753SOL     OW26777   2.208   3.452   1.026 -0.4136 -0.6552  0.0507
 6753SOL    HW226778   2.121   3.412   1.027 -1.0160  0.5053 -1.7778
 6753SOL    HW326779   2.245   3.429   0.941  0.4235  0.1836  0.1651
 6753SOL    MW426780   2.201   3.444   1.015 -0.3826 -0.3914 -0.1754
 6754SOL     OW26781   2.247   0.831   4.846  0.4723  0.2581  0.3531
 6754SOL    HW226782   2.247   0.875   4.931  0.1934  2.6136 -0.7689
 6754SOL    HW326783   2.319   0.872   4.798 -0.7463  0.6367 -1.2739
 6754SOL    MW426784   2.256   0.842   4.851  0.2747  0.6188 -0.0096
 6755SOL     OW26785   1.813   1.001   0.504  0.2224  0.3493  0.0912
 6755SOL    HW226786   1.747   1.032   0.566  1.8586 -0.0344  2.1443
 6755SOL    HW326787   1.784   1.034   0.419 -1.8749  1.3101  1.1174
 6755SOL    MW426788   1.801   1.010   0.501  0.1616  0.4254  0.4975
 6756SOL     OW26789   2.119   0.159   4.422  0.3034 -0.1978 -0.0987
 6756SOL    HW226790   2.172   0.124   4.494 -0.2336 -1.2248 -0.1988
 6756SOL    HW326791   2.031   0.165   4.457  0.1413 -0.1704 -0.5030
 6756SOL    MW426792   2.114   0.155   4.436  0.2112 -0.3297 -0.1652
 6757SOL     OW26793   1.902   4.891   0.136  0.4964  0.2037  0.3260
 6757SOL    HW226794   1.941   4.832   0.200  1.8185  0.6872  0.0131
 6757SOL    HW326795   1.810   4.896   0.160  0.6746 -0.7566  1.2937
 6757SOL    MW426796   1.895   4.884   0.147  0.6944  0.1408  0.4124
 6758SOL     OW26797   4.396   0.426   1.323 -0.0380  0.2840 -0.2364
 6758SOL    HW226798   4.424   0.385   1.241 -0.5699  2.0731 -1.3555
 6758SOL    HW326799   4.315   0.472   1.301 -0.1331  0.8984  1.2717
 6758SOL    MW426800   4.389   0.427   1.309 -0.1207  0.6011 -0.1851
 6759SOL     OW26801   6.221   1.980   2.544 -0.1870 -0.6012 -0.8018
 6759SOL    HW226802   6.285   1.915   2.573 -0.2141 -0.9457 -1.4858
 6759SOL    HW326803   6.271   2.062   2.537  0.5241 -1.1531 -2.6431
 6759SOL    MW426804   6.236   1.983   2.547 -0.0968 -0.7195 -1.1350
 6760SOL     OW26805   0.527   5.895   5.580 -0.0305  0.2607 -0.0567
 6760SOL    HW226806   0.614   5.855   5.578  0.6105  1.6120 -1.8012
 6760SOL    HW326807   0.478   5.841   5.642  1.6929 -1.2437  0.1076
 6760SOL    MW426808   0.532   5.882   5.588  0.2814  0.2405 -0.2651
 6761SOL     OW26809   6.350   2.261   3.882 -0.1918  0.2557 -0.0531
 6761SOL    HW226810   6.264   2.271   3.840  0.4750  0.6720 -1.3618
 6761SOL    HW326811   6.347   2.319   3.957 -0.0900  2.4763 -1.6675
 6761SOL    MW426812   6.338   2.270   3.886 -0.0904  0.6036 -0.4387
 6762SOL     OW26813   5.833   3.184   5.209  0.1517  0.0396 -0.1702
 6762SOL    HW226814   5.920   3.156   5.238 -0.2877 -0.8339  0.3388
 6762SOL    HW326815   5.841   3.193   5.114  0.1725 -2.4585 -0.4668
 6762SOL    MW426816   5.845   3.181   5.200  0.0965 -0.4052 -0.1422
 6763SOL     OW26817   2.949   3.688   0.997  0.1715 -0.1729  0.1042
 6763SOL    HW226818   2.938   3.774   1.036 -0.1699 -0.6615  1.1414
 6763SOL    HW326819   3.039   3.664   1.019  0.9899  0.7686 -2.0086
 6763SOL    MW426820   2.960   3.696   1.005  0.2345 -0.1132 -0.0377
 6764SOL     OW26821   0.717   5.582   6.091 -0.5452 -0.4987  0.5459
 6764SOL    HW226822   0.701   5.659   6.036  0.4527  0.2556  1.2836
 6764SOL    HW326823   0.783   5.532   6.043 -1.2673 -0.9726  0.0169
 6764SOL    MW426824   0.723   5.585   6.077 -0.5088 -0.4617  0.5734
 6765SOL     OW26825   0.999   3.561   4.141 -0.2646 -0.0714 -0.6999
 6765SOL    HW226826   1.044   3.583   4.060  0.4140 -0.1433 -0.3534
 6765SOL    HW326827   1.014   3.636   4.199 -0.4255 -0.1830 -0.5107
 6765SOL    MW426828   1.007   3.574   4.138 -0.1963 -0.0956 -0.6292
 6766SOL     OW26829   3.096   6.165   2.166 -0.7182 -0.1976 -0.4541
 6766SOL    HW226830   3.044   6.092   2.133 -1.5185 -0.0210  0.3525
 6766SOL    HW326831   3.130   6.208   2.088  0.2769 -1.7745 -0.9374
 6766SOL    MW426832   3.093   6.161   2.152 -0.6925 -0.3824 -0.4115
 6767SOL     OW26833   5.016   2.820   1.665 -0.4567 -0.2523  0.2197
 6767SOL    HW226834   5.064   2.902   1.675 -0.3626 -0.1950 -0.6462
 6767SOL    HW326835   4.924   2.846   1.659 -0.3076 -0.0312 -1.8052
 6767SOL    MW426836   5.010   2.834   1.666 -0.4246 -0.2156 -0.1617
 6768SOL     OW26837   6.019   4.325   5.866  0.0511  0.7279 -0.0138
 6768SOL    HW226838   5.936   4.372   5.874 -0.6403 -0.7499  3.2279
 6768SOL    HW326839   6.082   4.392   5.840 -1.5668  2.6176  0.6433
 6768SOL    MW426840   6.016   4.340   5.864 -0.2536  0.7822  0.5006
 6769SOL     OW26841   0.375   1.817   0.379  0.4502 -0.0229  0.3004
 6769SOL    HW226842   0.454   1.872   0.386  3.4248 -3.6877 -0.9284
 6769SOL    HW326843   0.355   1.794   0.470  0.0727  1.7587  0.7111
 6769SOL    MW426844   0.383   1.821   0.392  0.7929 -0.2714  0.1925
 6770SOL     OW26845   1.418   0.680   2.058  0.2294  0.0227 -0.0914
 6770SOL    HW226846   1.378   0.605   2.013  3.0152 -1.3091 -0.5908
 6770SOL    HW326847   1.409   0.753   1.997 -1.5405 -0.1300 -0.0743
 6770SOL    MW426848   1.412   0.679   2.044  0.3634 -0.1732 -0.1551
 6771SOL     OW26849   1.302   1.385   5.352 -0.0735  0.1401 -0.0862
 6771SOL    HW226850   1.249   1.454   5.312 -0.4153 -0.4768 -0.7114
 6771SOL    HW326851   1.365   1.432   5.406 -0.3098  0.9433 -0.4948
 6771SOL    MW426852   1.303   1.400   5.354 -0.1497  0.1647 -0.2226
 6772SOL     OW26853   3.949   5.766   0.992  0.0743 -0.6318  0.0032
 6772SOL    HW226854   3.915   5.778   0.903 -1.9649 -0.7440  0.7261
 6772SOL    HW326855   3.920   5.678   1.017  0.6557 -0.6098  0.7699
 6772SOL    MW426856   3.941   5.756   0.983 -0.1180 -0.6437  0.1998
 6773SOL     OW26857   4.049   3.470   5.541  0.6002  0.0824 -0.2416
 6773SOL    HW226858   3.970   3.417   5.540 -0.3644  1.4196  0.6887
 6773SOL    HW326859   4.111   3.423   5.485 -0.5820 -1.3887 -0.3719
 6773SOL    MW426860   4.047   3.457   5.534  0.3170  0.0648 -0.1361
 6774SOL     OW26861   6.418   0.951   5.136  0.1937  0.1650 -0.1513
 6774SOL    HW226862   6.426   1.020   5.202  0.1532  0.5832 -0.5802
 6774SOL    HW326863   6.414   0.998   5.053  0.0961 -0.3534 -0.4407
 6774SOL    MW426864   6.418   0.967   5.134  0.1755  0.1518 -0.2460
 6775SOL     OW26865   0.554   0.975   4.649  0.6502  0.0065 -0.8344
 6775SOL    HW226866   0.536   0.981   4.555  1.5930 -0.4727 -1.0536
 6775SOL    HW326867   0.476   1.012   4.691  1.1141  2.2469 -1.8404
 6775SOL    MW426868   0.541   0.981   4.642  0.8358  0.2389 -0.9961
 6776SOL     OW26869   2.344   5.138   0.935  0.1791  0.4079 -0.4225
 6776SOL    HW226870   2.368   5.176   1.020  0.8489  0.3394 -0.5758
 6776SOL    HW326871   2.307   5.052   0.957  1.7956 -0.2875 -0.2751
 6776SOL    MW426872   2.342   5.132   0.949  0.4808  0.3071 -0.4233
 6777SOL     OW26873   5.555   6.049   1.535  0.2060 -0.2492 -0.3851
 6777SOL    HW226874   5.630   6.104   1.515  0.1279  0.2476  0.6203
 6777SOL    HW326875   5.518   6.087   1.615 -2.7910  1.2678 -2.3247
 6777SOL    MW426876   5.560   6.061   1.543 -0.1997  0.0165 -0.5084
 6778SOL     OW26877   3.882   6.300   2.449 -0.7454  0.6556 -0.1199
 6778SOL    HW226878   3.827   6.268   2.521 -0.3928  1.7845  0.6720
 6778SOL    HW326879   3.860   6.392   2.441  0.6449  1.0055 -0.1606
 6778SOL    MW426880   3.872   6.308   2.457 -0.5154  0.8507 -0.0208
 6779SOL     OW26881   1.240   2.440   1.481 -0.5668  0.0823  0.0300
 6779SOL    HW226882   1.315   2.477   1.527  0.2750  0.6112 -1.6793
 6779SOL    HW326883   1.270   2.354   1.451 -1.5481 -0.8172  1.5406
 6779SOL    MW426884   1.254   2.434   1.483 -0.5852  0.0334  0.0038
 6780SOL     OW26885   4.193   4.002   4.740 -0.2204 -0.0517 -0.5028
 6780SOL    HW226886   4.217   3.939   4.807  0.6002  1.1571  0.3866
 6780SOL    HW326887   4.189   3.951   4.659  0.8120 -1.1597  0.1159
 6780SOL    MW426888   4.196   3.987   4.738  0.0241 -0.0384 -0.3039
 6781SOL     OW26889   5.420   1.137   5.372 -0.2189  0.2410  0.0407
 6781SOL    HW226890   5.482   1.148   5.444 -0.3245  1.3098 -0.0151
 6781SOL    HW326891   5.436   1.048   5.340 -1.5410 -1.0519  2.6229
 6781SOL    MW426892   5.430   1.126   5.377 -0.4073  0.2114  0.3740
 6782SOL     OW26893   2.596   2.210   5.582  0.6510 -0.0045 -0.7218
 6782SOL    HW226894   2.587   2.187   5.489 -0.2708 -0.2425 -0.5792
 6782SOL    HW326895   2.553   2.294   5.591 -0.4675 -0.6071 -0.2584
 6782SOL    MW426896   2.589   2.218   5.571  0.3818 -0.1154 -0.6419
 6783SOL     OW26897   4.195   6.242   5.562 -0.2299 -0.0034 -0.7331
 6783SOL    HW226898   4.191   6.284   5.648 -1.2776 -0.5161 -0.4994
 6783SOL    HW326899   4.243   6.303   5.507  0.2664  0.4392  0.1624
 6783SOL    MW426900   4.201   6.255   5.566 -0.3026 -0.0126 -0.5841
 6784SOL     OW26901   5.842   5.368   3.533  0.0726 -0.6883 -0.5698
 6784SOL    HW226902   5.865   5.305   3.602  0.4788 -1.4763 -1.3993
 6784SOL    HW326903   5.777   5.425   3.574 -0.0260 -1.4113  0.3302
 6784SOL    MW426904   5.836   5.367   3.548  0.1132 -0.8877 -0.5605
 6785SOL     OW26905   1.016   4.896   4.677  0.6666 -0.2137  0.1034
 6785SOL    HW226906   1.020   4.813   4.723 -1.5953 -0.7525 -0.5412
 6785SOL    HW326907   0.938   4.939   4.712  0.3192  0.4619 -1.4089
 6785SOL    MW426908   1.006   4.891   4.687  0.3223 -0.1957 -0.1812
 6786SOL     OW26909   2.662   0.720   5.918 -0.1453 -0.2351  0.0194
 6786SOL    HW226910   2.664   0.625   5.935 -2.3380 -0.5179 -0.8673
 6786SOL    HW326911   2.653   0.759   6.005  1.8320 -0.7392  0.4897
 6786SOL    MW426912   2.661   0.712   5.932 -0.1737 -0.3389 -0.0355
 6787SOL     OW26913   1.441   6.094   5.611  0.1211 -0.0248  0.1543
 6787SOL    HW226914   1.425   6.055   5.697 -0.1162 -2.6842 -0.9799
 6787SOL    HW326915   1.369   6.154   5.598 -2.2325 -2.6386  0.2001
 6787SOL    MW426916   1.430   6.097   5.621 -0.2207 -0.7205  0.0107
 6788SOL     OW26917   6.221   1.168   3.465 -0.1705 -0.1618 -0.1353
 6788SOL    HW226918   6.126   1.180   3.476 -0.0857  0.0164  0.4628
 6788SOL    HW326919   6.233   1.154   3.372 -1.0392 -2.4425  0.0414
 6788SOL    MW426920   6.210   1.168   3.454 -0.2739 -0.4392 -0.0331
 6789SOL     OW26921   6.421   0.523   4.203 -0.1320 -0.6039 -0.3531
 6789SOL    HW226922   6.471   0.453   4.160 -0.6464 -0.7917 -0.6414
 6789SOL    HW326923   6.363   0.557   4.135 -1.6702 -1.5667  0.4183
 6789SOL    MW426924   6.420   0.518   4.188 -0.4028 -0.7557 -0.2894
 6790SOL     OW26925   6.250   4.237   5.201 -0.4267 -0.1749  0.5871
 6790SOL    HW226926   6.216   4.150   5.223 -0.1017 -0.0632  1.5792
 6790SOL    HW326927   6.340   4.236   5.234 -1.2031  1.3975  2.9908
 6790SOL    MW426928   6.257   4.225   5.208 -0.4862  0.0473  1.0351
 6791SOL     OW26929   0.290   6.206   2.246 -0.0322  0.2919 -0.1841
 6791SOL    HW226930   0.239   6.286   2.249  0.6811  0.9182 -2.4448
 6791SOL    HW326931   0.376   6.230   2.279 -0.3596 -0.0737  0.9939
 6791SOL    MW426932   0.295   6.220   2.251  0.0187  0.3263 -0.3269
 6792SOL     OW26933   5.130   3.097   5.468  0.2883  0.5355 -0.4165
 6792SOL    HW226934   5.129   3.003   5.448 -2.1749  0.2874  0.4984
 6792SOL    HW326935   5.044   3.129   5.441  0.7308  2.3428  0.1442
 6792SOL    MW426936   5.118   3.089   5.462  0.0217  0.7412 -0.2218
 6793SOL     OW26937   2.249   1.619   4.645 -0.4537 -0.3042  0.0487
 6793SOL    HW226938   2.174   1.676   4.654  0.1974  0.4898  0.5568
 6793SOL    HW326939   2.212   1.533   4.625 -1.6077 -0.3878  2.2818
 6793SOL    MW426940   2.234   1.615   4.644 -0.5200 -0.2104  0.4104
 6794SOL     OW26941   3.091   4.900   4.199 -0.1315  0.2651  0.0473
 6794SOL    HW226942   3.061   4.882   4.288 -0.3340 -1.6426 -0.3752
 6794SOL    HW326943   3.084   4.995   4.190  0.5440  0.5907  2.2941
 6794SOL    MW426944   3.086   4.910   4.209 -0.0691  0.0564  0.2880
 6795SOL     OW26945   0.647   0.472   1.495 -0.2832  0.0845  0.2336
 6795SOL    HW226946   0.639   0.505   1.405  0.9098 -1.0046 -0.2958
 6795SOL    HW326947   0.695   0.541   1.541 -1.1034  0.7553  0.1236
 6795SOL    MW426948   0.652   0.486   1.489 -0.2340  0.0293  0.1492
 6796SOL     OW26949   1.669   0.471   1.080  0.4783 -0.4296  0.1766
 6796SOL    HW226950   1.764   0.482   1.093  0.1878  1.3197  1.1730
 6796SOL    HW326951   1.643   0.408   1.147  0.5175  1.3496  1.9545
 6796SOL    MW426952   1.678   0.464   1.091  0.4451  0.0359  0.5426
 6797SOL     OW26953   4.106   0.280   5.846 -0.3736 -0.2003 -0.0172
 6797SOL    HW226954   4.026   0.316   5.884 -0.3037 -0.9907  0.9370
 6797SOL    HW326955   4.134   0.213   5.909  1.6653  0.8283  0.2816
 6797SOL    MW426956   4.100   0.276   5.860 -0.0954 -0.1689  0.1481
 6798SOL     OW26957   1.666   5.618   1.722 -0.1027  0.2481  0.2066
 6798SOL    HW226958   1.578   5.603   1.689 -0.4472  1.9338  0.2539
 6798SOL    HW326959   1.723   5.575   1.658 -0.8460  1.8556 -1.6364
 6798SOL    MW426960   1.662   5.610   1.709 -0.2462  0.6826 -0.0303
 6799SOL     OW26961   4.005   1.011   4.533 -0.6761  0.0040  0.1231
 6799SOL    HW226962   4.014   0.916   4.533  0.4320  0.0913 -0.5456
 6799SOL    HW326963   3.938   1.029   4.599  0.2499 -1.1216  1.4227
 6799SOL    MW426964   3.997   1.001   4.541 -0.4078 -0.1330  0.2064
 6800SOL     OW26965   3.892   5.069   5.718 -0.7850  0.3259 -0.1008
 6800SOL    HW226966   3.843   5.053   5.638 -1.7950 -1.2930  0.7989
 6800SOL    HW326967   3.982   5.045   5.697 -1.3788 -1.9591 -0.2574
 6800SOL    MW426968   3.897   5.064   5.705 -0.9966 -0.1892 -0.0028
 6801SOL     OW26969   4.633   1.253   6.234 -0.2294 -0.0516  0.0001
 6801SOL    HW226970   4.661   1.338   6.267  4.5406 -0.2164 -2.6136
 6801SOL    HW326971   4.619   1.200   6.313 -0.8575  2.4093  1.6514
 6801SOL    MW426972   4.635   1.257   6.249  0.3171  0.2513 -0.1268
 6802SOL     OW26973   4.471   6.211   4.029  0.5761  0.8699  0.3413
 6802SOL    HW226974   4.479   6.221   3.934  0.6269  1.3250  0.3924
 6802SOL    HW326975   4.454   6.300   4.061 -2.5457  0.3406  0.4498
 6802SOL    MW426976   4.470   6.224   4.020  0.1709  0.8601  0.3624
 6803SOL     OW26977   3.866   0.373   3.948  0.3143 -0.0746 -0.1506
 6803SOL    HW226978   3.814   0.321   4.010  1.2982  0.0056  0.7866
 6803SOL    HW326979   3.870   0.319   3.869  0.4274 -0.9586  0.4404
 6803SOL    MW426980   3.860   0.359   3.946  0.4591 -0.1806  0.0510
 6804SOL     OW26981   3.743   6.204   0.148  0.3184  0.1792 -0.0445
 6804SOL    HW226982   3.835   6.177   0.145  0.4558  0.0955  2.7190
 6804SOL    HW326983   3.728   6.245   0.063  2.3952 -1.3574 -1.2452
 6804SOL    MW426984   3.753   6.206   0.136  0.6105 -0.0346  0.1617
 6805SOL     OW26985   2.539   2.804   5.463 -0.2716  0.2903  0.1986
 6805SOL    HW226986   2.543   2.728   5.405  0.1049  2.2110 -2.4897
 6805SOL    HW326987   2.630   2.823   5.485 -0.3760 -0.0842  1.0024
 6805SOL    MW426988   2.551   2.797   5.458 -0.2357  0.4943 -0.0500
 6806SOL     OW26989   2.338   6.265   0.014 -0.4470 -0.0389 -0.0167
 6806SOL    HW226990   2.415   6.234   0.062  0.0569 -0.9725 -1.3660
 6806SOL    HW326991   2.305   6.338   0.066  1.3497  0.3828  0.6052
 6806SOL    MW426992   2.344   6.270   0.027 -0.1435 -0.1065 -0.1127
 6807SOL     OW26993   2.023   2.690   2.440  0.4408  0.1341 -0.2208
 6807SOL    HW226994   2.110   2.671   2.405  0.2822  0.1711 -0.6491
 6807SOL    HW326995   1.983   2.745   2.372 -0.0406 -0.1717 -0.1853
 6807SOL    MW426996   2.029   2.695   2.426  0.3563  0.0987 -0.2727
 6808SOL     OW26997   4.111   3.417   2.013 -0.3507 -0.7804 -0.6312
 6808SOL    HW226998   4.062   3.441   2.092 -1.6318 -2.1735 -0.9551
 6808SOL    HW326999   4.112   3.497   1.960 -0.0741 -0.0283  0.4820
 6808SOL    MW427000   4.105   3.431   2.016 -0.4832 -0.8650 -0.5270
 6809SOL     OW27001   1.125   3.052   5.681  0.1314  0.6244  0.1162
 6809SOL    HW227002   1.100   3.143   5.666 -0.0496  0.5283 -0.1921
 6809SOL    HW327003   1.051   3.015   5.729 -0.2234  0.3998 -0.5911
 6809SOL    MW427004   1.112   3.059   5.685  0.0607  0.5821 -0.0178
 6810SOL     OW27005   5.167   5.999   6.387  0.0797 -0.1128  0.2451
 6810SOL    HW227006   5.158   5.908   6.360 -1.8244 -0.1977  0.9878
 6810SOL    HW327007   5.090   6.016   6.441  0.5363  1.8596  0.3754
 6810SOL    MW427008   5.156   5.989   6.391 -0.1113  0.1362  0.3603
 6811SOL     OW27009   1.532   0.428   0.649 -0.6272  0.1152  0.1192
 6811SOL    HW227010   1.522   0.521   0.673 -2.5364 -0.2028  0.7534
 6811SOL    HW327011   1.531   0.381   0.733  0.6910 -0.4830 -0.1762
 6811SOL    MW427012   1.530   0.434   0.663 -0.7052 -0.0057  0.1639
 6812SOL     OW27013   0.388   0.579   3.183  0.0013 -0.3183  0.3005
 6812SOL    HW227014   0.367   0.616   3.268 -0.1333 -0.6501  0.4146
 6812SOL    HW327015   0.308   0.533   3.156  0.0625 -0.2686  0.0245
 6812SOL    MW427016   0.375   0.578   3.190 -0.0084 -0.3555  0.2791
 6813SOL     OW27017   5.797   1.935   0.505  0.1049 -0.2285  0.1814
 6813SOL    HW227018   5.709   1.943   0.540  0.5621  0.4329  1.2238
 6813SOL    HW327019   5.795   1.984   0.423 -0.6129 -0.6348 -0.0531
 6813SOL    MW427020   5.785   1.943   0.498  0.0705 -0.1948  0.2880
 6814SOL     OW27021   2.216   4.497   2.723 -0.6486  0.2332 -0.0242
 6814SOL    HW227022   2.265   4.417   2.744 -0.7696  0.1362 -0.1071
 6814SOL    HW327023   2.155   4.470   2.654 -5.1100 -1.3374  3.9119
 6814SOL    MW427024   2.214   4.483   2.717 -1.2532  0.0132  0.4841
 6815SOL     OW27025   4.430   0.064   0.329  0.2259  0.2250  0.0092
 6815SOL    HW227026   4.449  -0.012   0.383 -0.7292  1.7063  2.6271
 6815SOL    HW327027   4.430   0.138   0.390 -0.8150  2.0645 -2.0473
 6815SOL    MW427028   4.433   0.064   0.344 -0.0374  0.6631  0.0833
 6816SOL     OW27029   0.418   0.968   1.230 -0.2436  0.3286  0.5572
 6816SOL    HW227030   0.364   1.036   1.270  0.0815  1.3744 -0.6830
 6816SOL    HW327031   0.407   0.981   1.136  3.2999  1.6360  0.1396
 6816SOL    MW427032   0.410   0.979   1.223  0.2668  0.6391  0.3385
 6817SOL     OW27033   1.183   3.478   1.375 -0.3649  0.2622 -0.4058
 6817SOL    HW227034   1.150   3.526   1.450  1.9942 -0.8251  1.4446
 6817SOL    HW327035   1.187   3.543   1.304 -2.2371  1.4095  0.4795
 6817SOL    MW427036   1.179   3.493   1.375 -0.3006  0.2701 -0.0448
 6818SOL     OW27037   3.489   4.194   5.309  0.6887  0.0798  0.1711
 6818SOL    HW227038   3.557   4.133   5.283  0.6748  0.4640 -0.7951
 6818SOL    HW327039   3.537   4.264   5.355  1.3790  1.7001 -2.7602
 6818SOL    MW427040   3.504   4.195   5.312  0.7779  0.3443 -0.3431
 6819SOL     OW27041   4.605   2.176   3.325 -0.4388  0.7371  0.2970
 6819SOL    HW227042   4.581   2.269   3.324 -1.2334  0.5480 -0.7163
 6819SOL    HW327043   4.574   2.144   3.410  1.4082  1.7449  1.4127
 6819SOL    MW427044   4.597   2.184   3.336 -0.2999  0.8451  0.3105
 6820SOL     OW27045   1.333   6.123   3.339 -0.1845 -0.7684  0.3590
 6820SOL    HW227046   1.373   6.037   3.344  2.0403  0.2565  1.3478
 6820SOL    HW327047   1.264   6.114   3.273  0.3924 -3.1190  0.0134
 6820SOL    MW427048   1.329   6.111   3.331  0.1852 -0.9433  0.4439
 6821SOL     OW27049   2.355   4.187   3.640  0.3931  0.4270  0.0484
 6821SOL    HW227050   2.386   4.230   3.719 -0.2329  1.2402 -0.1404
 6821SOL    HW327051   2.363   4.093   3.659  1.0537  0.6187  0.7441
 6821SOL    MW427052   2.360   4.180   3.653  0.3977  0.5596  0.1153
 6822SOL     OW27053   2.681   0.138   3.779 -0.4667  0.1713  0.3445
 6822SOL    HW227054   2.601   0.085   3.774 -0.2762 -0.0566 -0.2880
 6822SOL    HW327055   2.650   0.228   3.770 -0.9573  0.3274  2.7730
 6822SOL    MW427056   2.666   0.143   3.777 -0.5063  0.1619  0.5815
 6823SOL     OW27057   1.990   1.547   3.317  0.1660  0.3739  0.1934
 6823SOL    HW227058   1.924   1.578   3.378  1.9095  1.3743  1.6705
 6823SOL    HW327059   2.073   1.582   3.350  1.2031  1.3078 -2.9611
 6823SOL    MW427060   1.993   1.556   3.329  0.5329  0.6291 -0.0279
 6824SOL     OW27061   0.936   3.437   3.512  0.0459 -0.1545  0.0495
 6824SOL    HW227062   0.889   3.511   3.551  0.2654  0.4027 -0.7212
 6824SOL    HW327063   1.025   3.469   3.499  0.5510 -1.0539  1.0724
 6824SOL    MW427064   0.941   3.451   3.515  0.1415 -0.1996  0.0827
 6825SOL     OW27065   5.048   3.862   2.965  0.1271 -0.3723 -0.6486
 6825SOL    HW227066   5.081   3.952   2.973  0.4893 -0.6661  3.8548
 6825SOL    HW327067   4.956   3.873   2.938 -0.2727  1.5305  1.1905
 6825SOL    MW427068   5.040   3.876   2.963  0.1222 -0.1600  0.1882
 6826SOL     OW27069   1.095   5.836   2.501  0.1466  0.4842  0.5925
 6826SOL    HW227070   1.069   5.777   2.431  0.4606  1.2224 -0.1561
 6826SOL    HW327071   1.187   5.814   2.517  1.0052  2.3844 -1.3757
 6826SOL    MW427072   1.104   5.825   2.494  0.3013  0.8323  0.2340
 6827SOL     OW27073   4.147   2.691   2.738  0.1427  0.4760  0.1367
 6827SOL    HW227074   4.108   2.745   2.808  1.6308 -0.0738  1.4611
 6827SOL    HW327075   4.084   2.621   2.724 -0.9511  1.5098 -0.2801
 6827SOL    MW427076   4.134   2.689   2.746  0.1947  0.5399  0.2564
 6828SOL     OW27077   4.098   5.270   3.604  0.1948 -0.3993  0.1031
 6828SOL    HW227078   4.101   5.184   3.646 -0.3429  0.9067  3.1439
 6828SOL    HW327079   4.009   5.276   3.569  0.0339 -0.8693  0.4137
 6828SOL    MW427080   4.086   5.260   3.605  0.1026 -0.2890  0.5453
 6829SOL     OW27081   4.505   3.444   0.619 -0.5244 -0.1669 -0.3421
 6829SOL    HW227082   4.530   3.490   0.539  0.6664  1.1394  0.7244
 6829SOL    HW327083   4.410   3.454   0.624 -0.4319  1.1125 -0.8043
 6829SOL    MW427084   4.495   3.451   0.609 -0.3551  0.1742 -0.2624
 6830SOL     OW27085   5.171   6.041   2.566 -0.0928 -0.1542  0.2059
 6830SOL    HW227086   5.125   6.005   2.490 -0.5237  1.0299 -0.1277
 6830SOL    HW327087   5.263   6.018   2.553 -0.1978 -0.1435 -0.5793
 6830SOL    MW427088   5.177   6.033   2.554 -0.1635  0.0034  0.0583
 6831SOL     OW27089   3.356   5.977   3.308  0.4266  0.4098  0.5101
 6831SOL    HW227090   3.323   6.054   3.262  0.8270  0.0771 -0.3531
 6831SOL    HW327091   3.280   5.918   3.312  0.3638  0.4799  0.3602
 6831SOL    MW427092   3.341   5.979   3.302  0.4712  0.3751  0.3764
 6832SOL     OW27093   4.412   5.159   1.834 -0.8147 -0.5077 -0.3781
 6832SOL    HW227094   4.503   5.161   1.803 -1.1497  0.0963 -1.3692
 6832SOL    HW327095   4.363   5.117   1.763 -1.4172 -0.1869 -0.1589
 6832SOL    MW427096   4.418   5.154   1.820 -0.9383 -0.3857 -0.4800
 6833SOL     OW27097   1.459   1.068   2.233  0.0333  0.2013  0.5782
 6833SOL    HW227098   1.480   1.116   2.153  0.2399  1.0305  1.1127
 6833SOL    HW327099   1.535   1.012   2.249 -0.5343 -0.9321 -0.4755
 6833SOL    MW427100   1.472   1.067   2.225 -0.0143  0.1612  0.5097
 6834SOL     OW27101   0.527   4.255   2.544  0.0351 -0.1738  0.7642
 6834SOL    HW227102   0.555   4.345   2.560  0.0361 -0.2384  1.1361
 6834SOL    HW327103   0.595   4.217   2.489 -1.1397  0.7705 -1.4370
 6834SOL    MW427104   0.539   4.262   2.539 -0.1198 -0.0577  0.5229
 6835SOL     OW27105   0.870   4.893   6.378 -0.2220 -0.2432  0.0701
 6835SOL    HW227106   0.822   4.976   6.387 -0.8265 -0.5574 -0.2234
 6835SOL    HW327107   0.856   4.866   6.287 -1.2887 -1.4224  0.5582
 6835SOL    MW427108   0.862   4.900   6.367 -0.4425 -0.4402  0.0958
 6836SOL     OW27109   3.967   5.319   1.929 -0.2454 -0.2687  0.6500
 6836SOL    HW227110   3.895   5.370   1.966 -0.1624 -0.8371  1.6369
 6836SOL    HW327111   3.988   5.363   1.847 -0.8561  0.6724  0.9825
 6836SOL    MW427112   3.960   5.332   1.923 -0.3150 -0.2195  0.8241
 6837SOL     OW27113   1.124   4.054   5.487  0.9912  0.3154  0.2833
 6837SOL    HW227114   1.208   4.029   5.450  0.8547 -0.0021  0.1850
 6837SOL    HW327115   1.076   3.972   5.496  0.8278  0.4541  0.6817
 6837SOL    MW427116   1.128   4.040   5.483  0.9517  0.2918  0.3229
 6838SOL     OW27117   2.686   2.341   6.265  0.7607 -0.0917 -0.3690
 6838SOL    HW227118   2.618   2.275   6.261  1.6142 -0.9397 -1.5710
 6838SOL    HW327119   2.654   2.405   6.329 -1.3533 -0.2232 -1.2189
 6838SOL    MW427120   2.673   2.341   6.273  0.5944 -0.2210 -0.6397
 6839SOL     OW27121   1.240   5.153   4.414 -0.2430  0.6997 -0.2882
 6839SOL    HW227122   1.233   5.167   4.319 -2.5801 -1.4335 -0.5609
 6839SOL    HW327123   1.306   5.085   4.423 -0.9873 -0.0956 -0.5855
 6839SOL    MW427124   1.248   5.146   4.402 -0.6496  0.3134 -0.3634
 6840SOL     OW27125   5.195   2.789   2.989  0.1029  0.0145  0.1824
 6840SOL    HW227126   5.173   2.880   3.012  0.5946  0.9859 -2.8162
 6840SOL    HW327127   5.125   2.762   2.930  0.8648 -0.9612 -0.2955
 6840SOL    MW427128   5.183   2.797   2.984  0.2683  0.0140 -0.2763
 6841SOL     OW27129   4.631   4.038   5.897  0.0315  0.1569 -0.0885
 6841SOL    HW227130   4.687   3.961   5.898 -1.1984 -0.7690 -0.0751
 6841SOL    HW327131   4.683   4.106   5.939  1.3797 -0.4776 -0.6805
 6841SOL    MW427132   4.645   4.037   5.903  0.0471 -0.0490 -0.1648
 6842SOL     OW27133   5.931   2.958   2.630 -0.5663 -0.4682 -0.4731
 6842SOL    HW227134   5.859   2.948   2.568 -0.9891  1.8431 -0.4299
 6842SOL    HW327135   6.006   2.985   2.576 -0.5703  0.1828 -0.1655
 6842SOL    MW427136   5.931   2.960   2.615 -0.6226 -0.0774 -0.4268
 6843SOL     OW27137   0.274   0.920   5.932  0.3098  0.3275  0.0303
 6843SOL    HW227138   0.227   0.842   5.903 -1.5330  0.9393  1.1621
 6843SOL    HW327139   0.309   0.897   6.018  0.4867  0.4904  0.0034
 6843SOL    MW427140   0.272   0.907   5.939  0.0900  0.4297  0.1761
 6844SOL     OW27141   2.284   6.192   0.787  0.0058 -0.0330  0.1328
 6844SOL    HW227142   2.377   6.194   0.768 -0.1455  0.5928 -0.5999
 6844SOL    HW327143   2.250   6.122   0.730  0.2319 -1.2689  1.4615
 6844SOL    MW427144   2.291   6.183   0.777  0.0156 -0.1135  0.2115
 6845SOL     OW27145   2.780   3.216   2.049 -0.0651  1.2416 -0.0050
 6845SOL    HW227146   2.758   3.122   2.047  1.8234  0.6827  2.0879
 6845SOL    HW327147   2.723   3.252   2.117 -0.6858  1.6250 -0.7095
 6845SOL    MW427148   2.769   3.208   2.058  0.1022  1.2184  0.1782
 6846SOL     OW27149   0.249   2.040   2.619 -0.4181  0.3585  0.3626
 6846SOL    HW227150   0.200   2.038   2.537  1.0893  0.5020 -0.5786
 6846SOL    HW327151   0.182   2.035   2.687 -1.6706 -0.5301 -0.8709
 6846SOL    MW427152   0.234   2.039   2.617 -0.3845  0.2602  0.0757
 6847SOL     OW27153   3.771   6.233   4.194 -0.6513 -0.5695  0.0592
 6847SOL    HW227154   3.720   6.169   4.244  0.6765 -1.8618 -0.1734
 6847SOL    HW327155   3.857   6.193   4.184  0.4228  1.5031  0.3761
 6847SOL    MW427156   3.776   6.219   4.200 -0.3344 -0.4665  0.0703
 6848SOL     OW27157   3.158   4.028   6.375  0.8115  0.1216 -0.0196
 6848SOL    HW227158   3.235   4.049   6.428  1.7847 -0.3895 -1.1709
 6848SOL    HW327159   3.181   3.946   6.330 -0.0131  0.4543 -1.1141
 6848SOL    MW427160   3.171   4.020   6.376  0.8311  0.0980 -0.3159
 6849SOL     OW27161   4.769   2.811   0.421  0.4372  0.0299 -0.0299
 6849SOL    HW227162   4.749   2.821   0.514  1.4833  1.7089  0.0487
 6849SOL    HW327163   4.860   2.784   0.418 -0.1395 -2.0290 -0.5476
 6849SOL    MW427164   4.778   2.809   0.433  0.4991 -0.0202 -0.0879
 6850SOL     OW27165   6.028   3.461   1.844  0.3542  0.4303 -0.0966
 6850SOL    HW227166   6.060   3.477   1.755 -1.1805  1.9146 -0.4243
 6850SOL    HW327167   6.105   3.428   1.891  1.0866 -0.8384 -2.0497
 6850SOL    MW427168   6.043   3.459   1.839  0.2483  0.4587 -0.3975
 6851SOL     OW27169   0.324   0.154   1.423  0.1556 -0.5591  0.5105
 6851SOL    HW227170   0.265   0.177   1.495 -0.3489 -0.1708 -0.0078
 6851SOL    HW327171   0.308   0.222   1.357  1.0346 -0.5773  0.2717
 6851SOL    MW427172   0.314   0.166   1.424  0.2050 -0.5102  0.4106
 6852SOL     OW27173   4.327   2.993   1.783 -0.3498 -0.2892  0.5398
 6852SOL    HW227174   4.275   3.072   1.767  0.6359  0.4466  0.8058
 6852SOL    HW327175   4.279   2.947   1.852 -1.3174 -0.3019 -0.1188
 6852SOL    MW427176   4.314   2.998   1.790 -0.3474 -0.1938  0.4880
 6853SOL     OW27177   0.824   1.782   4.779 -0.0858 -0.3766  0.1944
 6853SOL    HW227178   0.730   1.799   4.780 -0.3340 -1.5532 -0.6823
 6853SOL    HW327179   0.835   1.717   4.710  1.1400 -1.6500  1.5359
 6853SOL    MW427180   0.813   1.776   4.770  0.0432 -0.6999  0.2557
 6854SOL     OW27181   5.144   1.565   4.650 -0.1811  0.2241  0.7002
 6854SOL    HW227182   5.182   1.651   4.639  2.4691 -0.9316  0.0349
 6854SOL    HW327183   5.139   1.552   4.745 -0.7774  1.1566  0.8029
 6854SOL    MW427184   5.148   1.574   4.661  0.0899  0.1947  0.6259
 6855SOL     OW27185   0.965   0.454   5.906  0.1067 -0.5514  0.0568
 6855SOL    HW227186   0.972   0.381   5.844  0.8191 -0.5843  0.1647
 6855SOL    HW327187   1.051   0.458   5.947  0.7789  1.6305 -1.3805
 6855SOL    MW427188   0.977   0.445   5.903  0.2893 -0.2678 -0.1186
 6856SOL     OW27189   6.417   0.264   1.030  0.6898 -0.1707 -0.3738
 6856SOL    HW227190   6.469   0.344   1.027  0.6423  0.1892  3.4498
 6856SOL    HW327191   6.326   0.295   1.025  0.6616  0.1315  1.3556
 6856SOL    MW427192   6.412   0.279   1.029  0.6798 -0.0833  0.3589
 6857SOL     OW27193   5.094   0.341   3.812  0.6229 -0.3636  0.0815
 6857SOL    HW227194   5.122   0.264   3.763 -1.5517 -1.7287  0.8232
 6857SOL    HW327195   5.064   0.306   3.897  1.0567  1.5011  1.0580
 6857SOL    MW427196   5.094   0.326   3.817  0.3932 -0.2977  0.3082
 6858SOL     OW27197   5.187   4.849   4.201  0.4770 -0.5318  0.1482
 6858SOL    HW227198   5.188   4.944   4.212 -1.7675 -0.4076 -0.2670
 6858SOL    HW327199   5.261   4.831   4.143 -0.9141  1.4001 -2.4352
 6858SOL    MW427200   5.197   4.859   4.195 -0.0027 -0.2605 -0.2474
 6859SOL     OW27201   5.980   1.193   2.834 -0.1164 -0.4187  0.3593
 6859SOL    HW227202   6.050   1.128   2.830  0.9355  0.6893 -0.0069
 6859SOL    HW327203   5.963   1.217   2.743  0.2022  0.5077  0.5285
 6859SOL    MW427204   5.987   1.188   2.822  0.0644 -0.1503  0.3333
 6860SOL     OW27205   2.399   2.820   4.851 -0.0212  0.4321 -0.4408
 6860SOL    HW227206   2.428   2.896   4.902  0.2881 -0.5583  0.9102
 6860SOL    HW327207   2.329   2.782   4.903  2.1477 -2.2323  0.7518
 6860SOL    MW427208   2.393   2.825   4.864  0.3058 -0.0501 -0.1052
 6861SOL     OW27209   1.400   5.387   0.402 -0.0003  0.2068 -0.0338
 6861SOL    HW227210   1.437   5.470   0.430 -1.9205  0.6724  1.3322
 6861SOL    HW327211   1.404   5.390   0.307 -0.1976  1.9592 -0.0180
 6861SOL    MW427212   1.405   5.398   0.393 -0.2797  0.4994  0.1485
 6862SOL     OW27213   0.424   5.258   5.775  0.3629  0.3998  0.1263
 6862SOL    HW227214   0.506   5.214   5.754 -0.2648  0.2174 -2.1561
 6862SOL    HW327215   0.449   5.350   5.786  0.8837  0.3541 -0.5925
 6862SOL    MW427216   0.438   5.265   5.774  0.3488  0.3697 -0.2697
 6863SOL     OW27217   3.253   1.021   0.280 -0.0577  0.5960 -0.4356
 6863SOL    HW227218   3.256   0.995   0.188  1.1558  0.0092 -0.2541
 6863SOL    HW327219   3.266   1.116   0.278 -2.5856  1.0065 -0.9869
 6863SOL    MW427220   3.255   1.030   0.267 -0.2311  0.5728 -0.4844
 6864SOL     OW27221   3.133   5.429   0.237 -0.2908  0.1210  0.0324
 6864SOL    HW227222   3.110   5.383   0.157  0.4529  1.1044 -0.7720
 6864SOL    HW327223   3.065   5.404   0.300 -0.6577 -0.9767 -0.7712
 6864SOL    MW427224   3.121   5.419   0.235 -0.2411  0.1059 -0.1797
 6865SOL     OW27225   2.326   0.571   3.162 -0.3043 -0.1931 -0.0872
 6865SOL    HW227226   2.315   0.661   3.132 -1.2216 -1.0600 -2.6445
 6865SOL    HW327227   2.418   0.551   3.144  0.6508  0.9591  2.9512
 6865SOL    MW427228   2.337   0.580   3.155 -0.2993 -0.1554 -0.0237
 6866SOL     OW27229   1.346   5.803   6.352  0.3717  0.5810 -0.1810
 6866SOL    HW227230   1.384   5.799   6.440  1.1443 -0.2545 -0.5321
 6866SOL    HW327231   1.304   5.718   6.340  0.5215  0.5797 -0.7272
 6866SOL    MW427232   1.346   5.791   6.362  0.4934  0.4706 -0.2994
 6867SOL     OW27233   5.378   6.278   5.805 -0.3734 -0.3652  0.1760
 6867SOL    HW227234   5.317   6.313   5.870 -1.5689 -1.7188 -0.1725
 6867SOL    HW327235   5.323   6.262   5.728  0.8117  0.2178 -0.8218
 6867SOL    MW427236   5.363   6.281   5.803 -0.3748 -0.4668 -0.0016
 6868SOL     OW27237   0.588   4.644   3.998  0.7974 -0.2746 -0.0656
 6868SOL    HW227238   0.658   4.629   4.061  0.0156 -1.4841  0.5620
 6868SOL    HW327239   0.513   4.596   4.034 -0.1154  0.3030 -1.1321
 6868SOL    MW427240   0.587   4.635   4.011  0.5738 -0.3579 -0.1235
 6869SOL     OW27241   0.668   2.332   3.580 -0.1817  0.1842 -0.1532
 6869SOL    HW227242   0.763   2.332   3.577 -0.1856 -0.2482 -0.2768
 6869SOL    HW327243   0.645   2.252   3.626 -0.4998  0.0426 -0.5545
 6869SOL    MW427244   0.677   2.322   3.586 -0.2242  0.1085 -0.2224
 6870SOL     OW27245   3.875   6.205   1.026  0.2214 -0.0635  0.2813
 6870SOL    HW227246   3.870   6.299   1.005 -0.1113 -0.2705 -0.5969
 6870SOL    HW327247   3.941   6.200   1.095 -0.3163  0.9106  0.9073
 6870SOL    MW427248   3.883   6.217   1.032  0.1066  0.0377  0.2480
 6871SOL     OW27249   0.145   0.266   2.490 -0.3146  0.0625 -0.4805
 6871SOL    HW227250   0.164   0.350   2.533  0.7211 -1.3363  1.9977
 6871SOL    HW327251   0.226   0.243   2.445 -0.1847 -0.1893 -0.1181
 6871SOL    MW427252   0.158   0.274   2.490 -0.1608 -0.1553 -0.1057
 6872SOL     OW27253   3.632   4.442   3.938 -0.1417 -0.5863  0.1888
 6872SOL    HW227254   3.539   4.449   3.961 -1.0648 -1.0058 -2.9969
 6872SOL    HW327255   3.652   4.523   3.891  0.7473 -1.0373 -0.2475
 6872SOL    MW427256   3.622   4.453   3.935 -0.1462 -0.7011 -0.2891
 6873SOL     OW27257   1.821   4.132   0.870 -0.2022 -0.1442 -0.3573
 6873SOL    HW227258   1.864   4.048   0.885  1.8691  0.5031 -2.1946
 6873SOL    HW327259   1.776   4.121   0.786  0.3622  0.6548 -0.7780
 6873SOL    MW427260   1.820   4.119   0.861  0.1455  0.0466 -0.6552
 6874SOL     OW27261   0.686   1.192   0.292 -0.0362  0.2147  0.0465
 6874SOL    HW227262   0.751   1.164   0.356 -0.1839  0.6958  0.4117
 6874SOL    HW327263   0.717   1.157   0.209  0.4208  0.0134  0.3004
 6874SOL    MW427264   0.699   1.184   0.290  0.0046  0.2516  0.1282
 6875SOL     OW27265   4.991   2.493   4.287  0.3162  0.1134  0.5509
 6875SOL    HW227266   4.931   2.422   4.311  2.0020 -1.5783 -0.0080
 6875SOL    HW327267   4.935   2.555   4.239 -1.5782  0.1087  2.5809
 6875SOL    MW427268   4.975   2.492   4.283  0.2887 -0.1105  0.7450
 6876SOL     OW27269   6.370   6.433   3.935  0.1346  0.1273 -0.5116
 6876SOL    HW227270   6.364   6.473   3.848 -1.1876 -1.9385 -1.4470
 6876SOL    HW327271   6.292   6.462   3.981  1.3492  2.0912  0.4770
 6876SOL    MW427272   6.359   6.442   3.929  0.1204  0.1139 -0.5046
 6877SOL     OW27273   6.241   2.435   4.094 -0.2223  0.4398  0.0534
 6877SOL    HW227274   6.253   2.507   4.156  0.6882 -0.8846  1.4754
 6877SOL    HW327275   6.158   2.395   4.119  0.6206 -0.7057  1.1012
 6877SOL    MW427276   6.231   2.439   4.105  0.0091  0.1139  0.3793
 6878SOL     OW27277   3.785   4.171   4.273 -0.2308  0.2348  0.1379
 6878SOL    HW227278   3.846   4.244   4.285 -1.2471  0.9592  1.0848
 6878SOL    HW327279   3.766   4.169   4.180 -0.5428  1.4774  0.1675
 6878SOL    MW427280   3.791   4.180   4.263 -0.4061  0.4944  0.2667
 6879SOL     OW27281   4.854   3.028   2.295  0.0722  0.4000 -0.3219
 6879SOL    HW227282   4.921   3.084   2.334  0.6672  0.4494 -1.3825
 6879SOL    HW327283   4.872   2.941   2.333  2.2242 -0.0981 -2.2655
 6879SOL    MW427284   4.865   3.024   2.305  0.4347  0.3408 -0.7183
 6880SOL     OW27285   0.302   1.043   3.428  0.0569 -0.5477  0.7149
 6880SOL    HW227286   0.231   1.039   3.492 -0.3071  0.3140  0.3820
 6880SOL    HW327287   0.258   1.042   3.343  0.1175  3.4630  0.4549
 6880SOL    MW427288   0.287   1.042   3.425  0.0168  0.0952  0.6367
 6881SOL     OW27289   0.144   3.312   4.195  0.0578 -0.7914 -0.0953
 6881SOL    HW227290   0.072   3.364   4.158 -0.4816 -1.8835 -0.6432
 6881SOL    HW327291   0.104   3.226   4.213  0.8538 -0.9461  1.0236
 6881SOL    MW427292   0.129   3.307   4.193  0.0917 -0.9559 -0.0200
 6882SOL     OW27293   4.388   4.018   0.997  0.0343  0.7224  0.5706
 6882SOL    HW227294   4.408   3.958   1.069 -0.5473 -0.4537 -0.2199
 6882SOL    HW327295   4.473   4.052   0.969  0.5562 -0.9729 -0.0087
 6882SOL    MW427296   4.402   4.014   1.003  0.0264  0.3436  0.3899
 6883SOL     OW27297   0.698   3.574   5.622  0.2838 -0.5579  0.4365
 6883SOL    HW227298   0.738   3.487   5.621 -0.6244 -0.9942  0.7492
 6883SOL    HW327299   0.738   3.618   5.697  0.5422 -0.8064  0.4447
 6883SOL    MW427300   0.708   3.568   5.632  0.1980 -0.6482  0.4789
 6884SOL     OW27301   5.158   3.242   5.701 -0.0074 -0.1184 -0.6759
 6884SOL    HW227302   5.140   3.167   5.644  0.2358 -0.8425  0.1838
 6884SOL    HW327303   5.230   3.214   5.757  0.1703  0.8066 -0.4168
 6884SOL    MW427304   5.165   3.229   5.700  0.0481 -0.0919 -0.5283
 6885SOL     OW27305   0.835   4.373   0.902  0.3662  0.8187 -0.2466
 6885SOL    HW227306   0.843   4.283   0.870  0.7622 -0.3149  2.6921
 6885SOL    HW327307   0.765   4.369   0.967 -1.4969  3.3089 -1.9221
 6885SOL    MW427308   0.827   4.360   0.907  0.1726  0.9977 -0.0800
 6886SOL     OW27309   4.579   3.956   0.492  0.3947  0.0453  0.3524
 6886SOL    HW227310   4.581   3.890   0.423 -0.5878 -2.0015  2.1248
 6886SOL    HW327311   4.666   3.995   0.491  0.3907  0.1117 -2.0024
 6886SOL    MW427312   4.591   3.952   0.483  0.2646 -0.2160  0.2756
 6887SOL     OW27313   0.299   0.798   1.015  0.3124  0.4870  0.0977
 6887SOL    HW227314   0.207   0.795   1.041  0.8289  0.1550  2.0714
 6887SOL    HW327315   0.337   0.717   1.050  1.4619  0.8412 -0.2710
 6887SOL    MW427316   0.292   0.787   1.023  0.5322  0.4900  0.3095
 6888SOL     OW27317   3.588   1.909   1.173  0.0778  0.1514  1.1129
 6888SOL    HW227318   3.613   2.002   1.174  0.8505 -0.0101 -0.2872
 6888SOL    HW327319   3.657   1.867   1.122 -0.8630 -1.0169  0.7624
 6888SOL    MW427320   3.601   1.916   1.166  0.0556 -0.0240  0.8820
 6889SOL     OW27321   4.973   0.645   4.873 -0.3892 -0.0069  0.4377
 6889SOL    HW227322   4.967   0.634   4.778  0.6793 -0.6969  0.4316
 6889SOL    HW327323   5.064   0.670   4.888 -0.1640 -1.2880  1.3780
 6889SOL    MW427324   4.984   0.647   4.862 -0.2185 -0.2670  0.5610
 6890SOL     OW27325   1.464   2.681   4.950 -0.3653 -0.2419 -0.0817
 6890SOL    HW227326   1.413   2.693   4.869  0.8752  2.6253 -0.5807
 6890SOL    HW327327   1.405   2.709   5.020 -1.5659 -3.0667  0.1416
 6890SOL    MW427328   1.450   2.686   4.948 -0.3601 -0.2363 -0.1180
 6891SOL     OW27329   0.428   2.971   1.318  0.1761 -0.4384  0.0575
 6891SOL    HW227330   0.469   2.970   1.405  0.3167 -2.3490  0.0160
 6891SOL    HW327331   0.467   3.046   1.274  1.5722 -0.5795  0.9837
 6891SOL    MW427332   0.438   2.981   1.324  0.3788 -0.7091  0.1742
 6892SOL     OW27333   3.385   2.709   3.365  0.1433  0.4895  0.1881
 6892SOL    HW227334   3.337   2.791   3.368 -0.8103 -0.0850  1.3897
 6892SOL    HW327335   3.432   2.712   3.282 -1.6991  1.2262 -0.8915
 6892SOL    MW427336   3.385   2.720   3.354 -0.2256  0.5109  0.2042
 6893SOL     OW27337   1.905   0.474   1.744  0.2591  0.0489  0.1369
 6893SOL    HW227338   1.915   0.568   1.755 -0.5532  0.1125  0.4394
 6893SOL    HW327339   1.953   0.453   1.664 -0.5606  0.9233 -0.6101
 6893SOL    MW427340   1.913   0.484   1.735  0.0438  0.1727  0.0783
 6894SOL     OW27341   5.418   4.569   1.548  0.2202  0.3750 -0.4705
 6894SOL    HW227342   5.376   4.631   1.608 -0.3040  0.3106 -0.7656
 6894SOL    HW327343   5.480   4.622   1.498  2.2783  0.0536  1.6109
 6894SOL    MW427344   5.420   4.584   1.549  0.4226  0.3241 -0.2348
 6895SOL     OW27345   4.884   3.845   0.776 -0.6989  0.0571 -0.0260
 6895SOL    HW227346   4.880   3.759   0.733 -0.6814 -0.2085  0.4914
 6895SOL    HW327347   4.804   3.849   0.828 -0.4100  0.1039  0.4167
 6895SOL    MW427348   4.873   3.834   0.777 -0.6585  0.0283  0.1007
 6896SOL     OW27349   5.069   2.042   1.653 -0.0443  0.7076  0.3098
 6896SOL    HW227350   5.038   1.978   1.589 -1.1243  0.8539  0.6553
 6896SOL    HW327351   5.114   2.108   1.601  0.3523  0.0888 -0.1390
 6896SOL    MW427352   5.071   2.043   1.638 -0.1345  0.6452  0.2962
 6897SOL     OW27353   6.402   0.362   3.767 -0.0594  0.1841  0.3159
 6897SOL    HW227354   6.402   0.274   3.729 -0.6865  0.3413 -0.0745
 6897SOL    HW327355   6.320   0.366   3.816 -0.6453  0.9655 -0.6901
 6897SOL    MW427356   6.391   0.351   3.768 -0.2194  0.3080  0.1317
 6898SOL     OW27357   6.405   0.472   0.605  0.4721  0.9370  0.4610
 6898SOL    HW227358   6.411   0.564   0.628  0.4261  1.1023 -0.1789
 6898SOL    HW327359   6.392   0.471   0.511 -0.1398  0.2969  0.5408
 6898SOL    MW427360   6.404   0.484   0.596  0.3853  0.8744  0.3871
 6899SOL     OW27361   0.847   0.256   0.298  0.0098  0.3882  0.1611
 6899SOL    HW227362   0.839   0.347   0.325 -0.7806  0.1209  0.8576
 6899SOL    HW327363   0.933   0.251   0.255  0.7721  1.1091  1.5329
 6899SOL    MW427364   0.857   0.267   0.296  0.0061  0.4481  0.4340
 6900SOL     OW27365   4.053   2.616   3.094  0.0893 -0.1817 -0.3201
 6900SOL    HW227366   4.114   2.562   3.044 -2.2942 -3.1920 -0.2950
 6900SOL    HW327367   4.097   2.631   3.178  1.6228 -0.3703 -1.0559
 6900SOL    MW427368   4.067   2.611   3.099 -0.0229 -0.6038 -0.4139
 6901SOL     OW27369   4.209   4.470   0.523  0.2036  0.0965  0.3442
 6901SOL    HW227370   4.278   4.469   0.457  0.6454  0.9052  0.7847
 6901SOL    HW327371   4.202   4.562   0.550  0.4589 -0.3007  1.8608
 6901SOL    MW427372   4.217   4.482   0.518  0.2956  0.1508  0.6024
 6902SOL     OW27373   0.424   5.523   2.582 -0.0627  0.0932  0.4347
 6902SOL    HW227374   0.447   5.580   2.655 -0.2573  2.5354 -1.3176
 6902SOL    HW327375   0.488   5.543   2.514 -1.8160  0.3050 -1.2406
 6902SOL    MW427376   0.435   5.533   2.582 -0.3197  0.4433 -0.0175
 6903SOL     OW27377   2.020   0.187   3.687  0.1255 -0.5570  0.1751
 6903SOL    HW227378   1.937   0.188   3.639 -0.4684 -0.4711  1.1836
 6903SOL    HW327379   2.058   0.273   3.671 -1.0535  0.2448  1.5101
 6903SOL    MW427380   2.014   0.198   3.678 -0.1084 -0.4399  0.4843
 6904SOL     OW27381   0.889   4.799   1.537  0.3749 -0.0666 -0.0587
 6904SOL    HW227382   0.819   4.853   1.500  0.0695 -0.7528 -0.5081
 6904SOL    HW327383   0.915   4.740   1.465  3.0765  1.7231 -0.6863
 6904SOL    MW427384   0.883   4.798   1.522  0.6910  0.0790 -0.2008
 6905SOL     OW27385   3.943   0.842   0.544  0.1791 -0.0192  0.0432
 6905SOL    HW227386   3.879   0.829   0.614  1.1140  0.2829  0.9804
 6905SOL    HW327387   4.003   0.768   0.552 -0.6866 -0.9611 -1.5939
 6905SOL    MW427388   3.943   0.831   0.554  0.1882 -0.1036 -0.0492
 6906SOL     OW27389   2.585   4.896   1.514  0.4608 -0.1929 -0.2003
 6906SOL    HW227390   2.500   4.928   1.543  0.6697 -0.4374  0.7183
 6906SOL    HW327391   2.626   4.971   1.473 -0.4365 -0.2340 -1.2148
 6906SOL    MW427392   2.579   4.910   1.513  0.3700 -0.2306 -0.2129
 6907SOL     OW27393   1.335   3.345   5.210  0.2000  0.7575  0.3981
 6907SOL    HW227394   1.333   3.278   5.278 -0.7449  0.7946  0.4199
 6907SOL    HW327395   1.421   3.385   5.219  0.9854 -0.8008  0.0273
 6907SOL    MW427396   1.346   3.341   5.220  0.1790  0.5568  0.3521
 6908SOL     OW27397   2.757   0.679   3.177  0.1652 -0.8477 -0.2741
 6908SOL    HW227398   2.806   0.752   3.138  1.9439 -1.1563  1.2199
 6908SOL    HW327399   2.732   0.712   3.264  1.2084 -2.0413  0.5201
 6908SOL    MW427400   2.760   0.693   3.183  0.5375 -1.0459  0.0278
 6909SOL     OW27401   4.086   1.709   1.818  0.8501 -0.0725  0.2186
 6909SOL    HW227402   4.127   1.643   1.874 -0.3925  0.7578  2.2143
 6909SOL    HW327403   4.112   1.793   1.857  0.2079  0.5542 -0.6516
 6909SOL    MW427404   4.095   1.711   1.830  0.6014  0.1197  0.3671
 6910SOL     OW27405   3.557   3.227   0.825  0.1823 -0.4651  0.0173
 6910SOL    HW227406   3.529   3.276   0.747  0.3587 -0.5003 -0.0676
 6910SOL    HW327407   3.607   3.153   0.791  1.7201  0.4493  0.2159
 6910SOL    MW427408   3.560   3.224   0.810  0.4084 -0.3491  0.0323
 6911SOL     OW27409   1.621   1.069   2.632 -0.2145 -0.2724 -0.2553
 6911SOL    HW227410   1.560   1.005   2.594 -2.0108  0.6945  0.8767
 6911SOL    HW327411   1.659   1.113   2.556 -0.5725 -1.2056 -1.0015
 6911SOL    MW427412   1.618   1.066   2.617 -0.4987 -0.2680 -0.2044
 6912SOL     OW27413   6.194   6.456   4.911 -0.0141 -0.4100 -0.0643
 6912SOL    HW227414   6.099   6.468   4.907 -0.0833 -0.8144  0.3799
 6912SOL    HW327415   6.229   6.545   4.911 -0.3364 -0.2589 -1.4654
 6912SOL    MW427416   6.186   6.469   4.910 -0.0658 -0.4434 -0.1905
 6913SOL     OW27417   2.408   1.865   2.845  0.0750  0.4021 -0.7144
 6913SOL    HW227418   2.330   1.851   2.898 -1.0468  1.9751 -1.8411
 6913SOL    HW327419   2.461   1.927   2.895  0.1881  0.0106 -0.3476
 6913SOL    MW427420   2.405   1.871   2.858 -0.0581  0.5579 -0.8147
 6914SOL     OW27421   4.515   2.413   6.223  0.3196  0.1867 -1.0397
 6914SOL    HW227422   4.488   2.436   6.312 -1.1922 -1.7207 -0.9210
 6914SOL    HW327423   4.458   2.464   6.166  0.6132  0.6733 -0.8977
 6914SOL    MW427424   4.504   2.423   6.227  0.1589 -0.0007 -1.0053
 6915SOL     OW27425   3.101   1.643   3.330 -0.0106 -0.6521 -0.1465
 6915SOL    HW227426   3.192   1.672   3.330 -0.1554 -0.1420 -1.4357
 6915SOL    HW327427   3.106   1.549   3.311  0.2279 -0.6021 -0.3302
 6915SOL    MW427428   3.113   1.634   3.328  0.0018 -0.5782 -0.3408
 6916SOL     OW27429   0.824   0.566   2.683  0.2590 -0.2734 -0.3924
 6916SOL    HW227430   0.877   0.526   2.615  1.1308  0.8804 -0.4247
 6916SOL    HW327431   0.873   0.551   2.764  0.1037 -0.1380 -0.2722
 6916SOL    MW427432   0.837   0.559   2.685  0.3535 -0.1033 -0.3808
 6917SOL     OW27433   2.747   4.696   0.578 -0.2226  0.4248  0.3167
 6917SOL    HW227434   2.714   4.611   0.550 -1.3297  1.2225 -0.9024
 6917SOL    HW327435   2.837   4.679   0.605 -0.0614 -0.9605 -0.9483
 6917SOL    MW427436   2.754   4.683   0.578 -0.3474  0.3473 -0.0111
 6918SOL     OW27437   6.408   1.382   2.974  0.8186 -0.3016 -0.1643
 6918SOL    HW227438   6.365   1.338   2.901  1.9879  0.2875 -1.2520
 6918SOL    HW327439   6.403   1.320   3.047 -0.3909 -0.8881 -0.7304
 6918SOL    MW427440   6.402   1.368   2.974  0.8133 -0.3013 -0.3825
 6919SOL     OW27441   0.970   4.943   1.882 -0.1030  0.5015  0.4310
 6919SOL    HW227442   0.893   4.927   1.826  0.1419 -1.3024  0.5465
 6919SOL    HW327443   0.938   5.001   1.950 -1.3096  0.0033  0.3190
 6919SOL    MW427444   0.955   4.948   1.883 -0.2298  0.1978  0.4315
 6920SOL     OW27445   1.253   5.425   3.762  0.3941 -0.0053  0.3694
 6920SOL    HW227446   1.314   5.427   3.836 -0.3067 -0.2099  0.9701
 6920SOL    HW327447   1.166   5.433   3.802  0.0530  1.0384 -0.5228
 6920SOL    MW427448   1.249   5.426   3.777  0.2567  0.1054  0.3309
 6921SOL     OW27449   0.984   3.756   1.960  0.7590  0.0737 -0.2666
 6921SOL    HW227450   0.896   3.720   1.951  1.6283 -2.1697 -0.5320
 6921SOL    HW327451   1.005   3.744   2.053  0.5252  1.3075 -0.0420
 6921SOL    MW427452   0.975   3.749   1.971  0.8429 -0.0595 -0.2720
 6922SOL     OW27453   5.636   3.184   2.922 -0.4481 -0.1120 -0.0734
 6922SOL    HW227454   5.729   3.187   2.900 -0.1576  0.1124  1.1175
 6922SOL    HW327455   5.629   3.112   2.985 -0.4665  1.9009  2.3807
 6922SOL    MW427456   5.648   3.175   2.927 -0.4122  0.1832  0.4075
 6923SOL     OW27457   0.047   4.219   2.020 -0.0378 -0.3469  0.0946
 6923SOL    HW227458  -0.019   4.282   2.047 -1.3609 -1.5315 -0.2587
 6923SOL    HW327459   0.003   4.163   1.956  1.9189  0.0929 -1.7533
 6923SOL    MW427460   0.032   4.220   2.015  0.0458 -0.4452 -0.1958
 6924SOL     OW27461   1.251   6.319   0.340  0.2673  0.0863  0.3484
 6924SOL    HW227462   1.198   6.383   0.292  0.6990  0.8786  0.9079
 6924SOL    HW327463   1.190   6.281   0.404 -0.5503 -1.6258 -1.3668
 6924SOL    MW427464   1.236   6.322   0.342  0.2164 -0.0350  0.1959
 6925SOL     OW27465   6.141   6.454   5.262 -0.1893 -0.2155  0.1881
 6925SOL    HW227466   6.197   6.397   5.210 -1.1306  0.8447 -2.1307
 6925SOL    HW327467   6.058   6.406   5.269 -0.6188  0.3427 -0.8150
 6925SOL    MW427468   6.137   6.440   5.256 -0.3702 -0.0020 -0.2502
 6926SOL     OW27469   5.097   4.374   2.123 -0.5377  0.6864 -0.6652
 6926SOL    HW227470   5.159   4.396   2.192  0.6330 -1.1911 -1.0487
 6926SOL    HW327471   5.057   4.457   2.100  0.8958  1.7596  0.4971
 6926SOL    MW427472   5.100   4.388   2.129 -0.1941  0.5803 -0.5624
 6927SOL     OW27473   2.184   3.866   4.922  0.4937 -0.0227 -0.4395
 6927SOL    HW227474   2.203   3.839   5.012 -0.3179  1.9637  0.3814
 6927SOL    HW327475   2.091   3.848   4.910  0.2626  1.0285 -0.3515
 6927SOL    MW427476   2.174   3.860   4.933  0.3562  0.3781 -0.3196
 6928SOL     OW27477   0.649   4.695   6.415 -0.6466  0.6132 -0.2845
 6928SOL    HW227478   0.685   4.630   6.355  1.2617  0.5039  0.9123
 6928SOL    HW327479   0.706   4.771   6.405 -0.1060  0.4852  1.5610
 6928SOL    MW427480   0.661   4.697   6.406 -0.3235  0.5819  0.1169
 6929SOL     OW27481   5.453   1.783   5.243  0.4038  0.1642 -0.0476
 6929SOL    HW227482   5.513   1.834   5.188 -0.8529  0.5778 -1.0853
 6929SOL    HW327483   5.370   1.786   5.196  0.0542 -2.0969  0.2986
 6929SOL    MW427484   5.450   1.790   5.229  0.1918 -0.0796 -0.1388
 6930SOL     OW27485   5.536   2.600   4.459  0.4911  0.2091 -0.0404
 6930SOL    HW227486   5.605   2.566   4.515 -1.0116 -1.1718  1.0516
 6930SOL    HW327487   5.464   2.538   4.468 -0.7178  1.2959 -1.5641
 6930SOL    MW427488   5.536   2.588   4.467  0.1333  0.1703 -0.0974
 6931SOL     OW27489   1.670   3.632   5.760  0.0989 -0.1913 -0.3812
 6931SOL    HW227490   1.683   3.545   5.721 -0.5379 -0.6190  0.3320
 6931SOL    HW327491   1.740   3.640   5.824 -1.1760 -1.1826  1.2200
 6931SOL    MW427492   1.681   3.621   5.763 -0.1533 -0.3785 -0.0758
 6932SOL     OW27493   0.741   2.545   3.033 -0.8668  0.1419 -0.0686
 6932SOL    HW227494   0.750   2.464   2.984 -0.1328  1.1171 -1.6241
 6932SOL    HW327495   0.820   2.549   3.087 -0.7693 -0.0509 -0.1958
 6932SOL    MW427496   0.753   2.535   3.034 -0.7571  0.2451 -0.2906
 6933SOL     OW27497   1.380   5.851   2.319 -0.1755 -0.2202 -0.4093
 6933SOL    HW227498   1.474   5.849   2.299 -0.0228 -0.6383  0.3365
 6933SOL    HW327499   1.338   5.809   2.244  0.1185  1.0373 -1.3260
 6933SOL    MW427500   1.387   5.845   2.307 -0.1166 -0.1095 -0.4319
 6934SOL     OW27501   2.506   3.068   2.703 -0.0753 -0.5925  0.4172
 6934SOL    HW227502   2.543   3.130   2.641  1.2220 -2.1661 -0.4494
 6934SOL    HW327503   2.570   3.063   2.774  0.5781 -1.9763 -0.2234
 6934SOL    MW427504   2.519   3.075   2.704  0.1821 -0.9827  0.2184
 6935SOL     OW27505   4.890   6.006   4.057 -0.3436  0.6195  0.6224
 6935SOL    HW227506   4.903   6.100   4.067 -1.4292  0.7308  1.0802
 6935SOL    HW327507   4.800   5.991   4.086 -1.5596  0.0009 -2.9355
 6935SOL    MW427508   4.880   6.016   4.062 -0.6472  0.5526  0.2134
 6936SOL     OW27509   3.362   5.221   5.818 -0.0610 -0.3358  0.5128
 6936SOL    HW227510   3.397   5.286   5.879  0.1886  0.5124 -0.5037
 6936SOL    HW327511   3.275   5.200   5.854 -0.0001  0.2878  1.0596
 6936SOL    MW427512   3.355   5.227   5.831 -0.0200 -0.1416  0.4508
 6937SOL     OW27513   3.215   6.310   0.912 -0.2050 -0.3832 -0.0305
 6937SOL    HW227514   3.258   6.379   0.963  0.2349 -1.0423  0.4962
 6937SOL    HW327515   3.169   6.358   0.842 -0.6945  0.5138  0.8805
 6937SOL    MW427516   3.215   6.326   0.909 -0.2116 -0.3518  0.1592
 6938SOL     OW27517   3.902   3.075   2.610 -0.1068 -0.6489  0.9910
 6938SOL    HW227518   3.970   3.011   2.588  1.5115  0.8894  1.2968
 6938SOL    HW327519   3.938   3.124   2.684 -0.7863  1.3333  0.0735
 6938SOL    MW427520   3.915   3.073   2.617  0.0171 -0.1844  0.9103
 6939SOL     OW27521   3.605   4.065   4.537 -0.0000  0.4112  0.4699
 6939SOL    HW227522   3.673   4.130   4.557  0.6101 -0.4232  1.2022
 6939SOL    HW327523   3.592   4.019   4.620 -1.0969  0.2094  0.1944
 6939SOL    MW427524   3.613   4.068   4.551 -0.0643  0.2745  0.5302
 6940SOL     OW27525   4.729   3.222   2.553  0.1375 -0.2318 -0.2733
 6940SOL    HW227526   4.712   3.266   2.470 -1.4489  0.1395  0.2018
 6940SOL    HW327527   4.775   3.287   2.606  0.3536 -0.1606 -0.5452
 6940SOL    MW427528   4.733   3.236   2.549 -0.0433 -0.1734 -0.2465
 6941SOL     OW27529   2.786   5.048   6.290 -0.2224 -0.1505  0.8230
 6941SOL    HW227530   2.793   4.953   6.292 -0.0340 -0.3286 -2.6593
 6941SOL    HW327531   2.801   5.072   6.198  0.6905  3.3331  1.7064
 6941SOL    MW427532   2.789   5.039   6.278 -0.0771  0.2856  0.4801
 6942SOL     OW27533   4.938   4.024   5.553 -0.3403  0.2039 -0.5843
 6942SOL    HW227534   4.996   4.095   5.583 -0.6613  0.2388 -0.0410
 6942SOL    HW327535   4.850   4.061   5.557 -0.4685 -0.0819 -0.7311
 6942SOL    MW427536   4.934   4.038   5.558 -0.3995  0.1708 -0.5320
 6943SOL     OW27537   5.073   2.115   3.403  0.1972  0.0266  0.0992
 6943SOL    HW227538   5.116   2.183   3.351 -1.3556  1.9016  1.1280
 6943SOL    HW327539   4.986   2.106   3.362 -0.1209 -0.3021  0.8258
 6943SOL    MW427540   5.067   2.123   3.390 -0.0496  0.2306  0.3308
 6944SOL     OW27541   3.118   2.672   0.928  0.9340  0.3451  0.1856
 6944SOL    HW227542   3.046   2.687   0.989 -0.8069 -0.0452 -1.6551
 6944SOL    HW327543   3.163   2.596   0.963 -0.9421 -0.8136  0.2469
 6944SOL    MW427544   3.114   2.664   0.940  0.4568  0.1408 -0.0492
 6945SOL     OW27545   2.465   5.559   3.777  0.3186  0.3068  0.2351
 6945SOL    HW227546   2.436   5.568   3.686 -3.0958 -0.9413  1.0456
 6945SOL    HW327547   2.467   5.465   3.792 -0.8329  0.5113  1.8768
 6945SOL    MW427548   2.462   5.548   3.767 -0.2838  0.1691  0.5587
 6946SOL     OW27549   5.001   1.217   4.778  0.1321 -0.3049 -0.7481
 6946SOL    HW227550   5.088   1.258   4.783 -0.4320  0.8249  0.6533
 6946SOL    HW327551   4.988   1.180   4.865 -0.9983 -0.0154 -0.7852
 6946SOL    MW427552   5.011   1.217   4.790 -0.0915 -0.1176 -0.5681
 6947SOL     OW27553   4.760   1.559   5.984 -0.1271 -0.7582  0.6792
 6947SOL    HW227554   4.777   1.556   6.078  0.1156 -1.7292  0.6170
 6947SOL    HW327555   4.810   1.486   5.948 -1.5588 -1.4708  0.0218
 6947SOL    MW427556   4.769   1.549   5.992 -0.2840 -0.9803  0.5843
 6948SOL     OW27557   1.019   6.025   3.234 -0.1092 -0.0272  0.0912
 6948SOL    HW227558   1.088   5.964   3.206  0.5930  1.5419 -1.8813
 6948SOL    HW327559   0.955   6.022   3.163 -0.3934  1.0233  0.2877
 6948SOL    MW427560   1.019   6.017   3.221 -0.0540  0.3185 -0.1431
 6949SOL     OW27561   5.822   1.507   1.606 -0.2145  0.3417  0.1373
 6949SOL    HW227562   5.772   1.431   1.637 -0.8287  0.8297  0.3504
 6949SOL    HW327563   5.862   1.544   1.684 -0.1407  0.4089  0.0685
 6949SOL    MW427564   5.821   1.502   1.620 -0.2858  0.4149  0.1563
 6950SOL     OW27565   4.891   2.798   0.807 -0.3053  0.2214 -0.1558
 6950SOL    HW227566   4.898   2.719   0.753  0.0070  0.0102  0.1878
 6950SOL    HW327567   4.908   2.768   0.896  1.0754  0.8843 -0.1724
 6950SOL    MW427568   4.894   2.784   0.812 -0.0819  0.2810 -0.1127
 6951SOL     OW27569   1.869   4.140   0.221 -0.5648  0.0603 -0.1157
 6951SOL    HW227570   1.897   4.230   0.241 -0.7329  0.0664  0.1004
 6951SOL    HW327571   1.938   4.106   0.164 -0.1506  0.0985  0.3527
 6951SOL    MW427572   1.882   4.147   0.216 -0.5323  0.0661 -0.0254
 6952SOL     OW27573   0.487   1.943   2.660 -0.0611 -0.0796 -0.0992
 6952SOL    HW227574   0.466   1.849   2.663 -0.7241  0.0062 -1.1886
 6952SOL    HW327575   0.406   1.984   2.629  0.7764  0.6412 -1.4374
 6952SOL    MW427576   0.473   1.936   2.656 -0.0381  0.0268 -0.4195
 6953SOL     OW27577   3.039   5.492   2.487 -0.3195  0.4168  0.1092
 6953SOL    HW227578   3.063   5.441   2.410 -1.6938 -1.6673  0.9621
 6953SOL    HW327579   3.110   5.555   2.498  0.4310  0.0588 -2.2016
 6953SOL    MW427580   3.051   5.493   2.478 -0.4018  0.0946 -0.0832
 6954SOL     OW27581   0.582   3.018   4.554  0.5747 -0.8586  0.1235
 6954SOL    HW227582   0.497   3.062   4.553  0.6067 -0.8062 -0.3938
 6954SOL    HW327583   0.595   2.989   4.464  1.4923 -0.1210  0.0058
 6954SOL    MW427584   0.573   3.020   4.542  0.7000 -0.7543  0.0397
 6955SOL     OW27585   5.003   3.017   6.286 -0.5903 -0.5550  0.2035
 6955SOL    HW227586   4.974   3.016   6.195 -2.4658  0.5292  0.7407
 6955SOL    HW327587   5.075   3.081   6.287 -0.5579 -0.5743 -0.5059
 6955SOL    MW427588   5.009   3.025   6.275 -0.8334 -0.4145  0.1808
 6956SOL     OW27589   0.227   0.370   1.967 -0.4511  0.5074 -0.0961
 6956SOL    HW227590   0.282   0.382   1.889 -0.4205  0.7077 -0.0465
 6956SOL    HW327591   0.194   0.281   1.961  0.4706  0.1234  0.2475
 6956SOL    MW427592   0.230   0.360   1.956 -0.3254  0.4832 -0.0442
 6957SOL     OW27593   0.498   6.345   2.716 -0.2561 -0.0906  0.3475
 6957SOL    HW227594   0.561   6.278   2.745 -0.6724 -1.5949 -1.9188
 6957SOL    HW327595   0.433   6.349   2.786  0.8041 -0.6549  1.3945
 6957SOL    MW427596   0.497   6.336   2.729 -0.1711 -0.3635  0.1866
 6958SOL     OW27597   2.500   1.727   4.251  0.4137 -0.2972  0.1923
 6958SOL    HW227598   2.522   1.726   4.344  0.6572  1.7189  0.2004
 6958SOL    HW327599   2.584   1.710   4.207  0.7888  1.0797  0.3300
 6958SOL    MW427600   2.514   1.725   4.257  0.4953  0.1505  0.2115
 6959SOL     OW27601   1.996   4.728   3.288  0.2310 -0.4590 -0.1223
 6959SOL    HW227602   1.955   4.811   3.314  0.0831 -0.0860 -1.4855
 6959SOL    HW327603   2.083   4.731   3.327  0.1532  0.2409  0.0083
 6959SOL    MW427604   2.002   4.739   3.297  0.2012 -0.3175 -0.2849
 6960SOL     OW27605   3.705   1.630   0.804 -0.0128  0.6836 -0.0285
 6960SOL    HW227606   3.780   1.576   0.831  0.1173  0.0507 -1.5373
 6960SOL    HW327607   3.643   1.624   0.876  0.8307  0.1215  0.6662
 6960SOL    MW427608   3.707   1.622   0.817  0.1157  0.5259 -0.1359
 6961SOL     OW27609   4.536   1.137   1.674  0.1077 -0.2643  0.4876
 6961SOL    HW227610   4.545   1.187   1.593  0.2095  1.2319  1.3890
 6961SOL    HW327611   4.460   1.081   1.659 -1.0362  1.3459  0.0150
 6961SOL    MW427612   4.527   1.136   1.661 -0.0298  0.1455  0.5442
 6962SOL     OW27613   3.827   3.729   1.710 -0.5683 -0.0307 -0.2504
 6962SOL    HW227614   3.881   3.804   1.688  3.0310 -2.1301  0.6095
 6962SOL    HW327615   3.772   3.759   1.783  0.9844  1.6809  0.2885
 6962SOL    MW427616   3.827   3.742   1.717  0.1115 -0.0819 -0.0659
 6963SOL     OW27617   1.418   3.539   4.958 -0.2177 -0.1601 -0.1044
 6963SOL    HW227618   1.449   3.597   4.889  1.0657 -0.9765 -0.2369
 6963SOL    HW327619   1.471   3.460   4.949 -0.3462 -0.4588  1.5351
 6963SOL    MW427620   1.429   3.536   4.948 -0.0654 -0.3073  0.0944
 6964SOL     OW27621   1.601   6.236   3.289  0.7101  0.1475  0.2810
 6964SOL    HW227622   1.511   6.207   3.301  1.0097 -1.1640 -0.4775
 6964SOL    HW327623   1.652   6.155   3.283  2.0765  0.8544  1.5362
 6964SOL    MW427624   1.596   6.221   3.290  0.9299  0.0677  0.3465
 6965SOL     OW27625   3.881   0.155   2.478  0.1228  0.1863 -0.3839
 6965SOL    HW227626   3.852   0.238   2.441  0.0565 -0.0760 -0.9307
 6965SOL    HW327627   3.925   0.179   2.560 -0.6555  0.6791 -0.1032
 6965SOL    MW427628   3.883   0.169   2.484  0.0114  0.2167 -0.4190
 6966SOL     OW27629   4.580   0.857   3.930  0.3420  0.0118  0.1366
 6966SOL    HW227630   4.545   0.801   3.860  0.6325  0.4587 -0.3728
 6966SOL    HW327631   4.512   0.923   3.943 -0.0450 -0.5070  0.8074
 6966SOL    MW427632   4.566   0.858   3.922  0.3293  0.0023  0.1579
 6967SOL     OW27633   0.490   5.653   2.805 -0.3827  0.0306 -0.4847
 6967SOL    HW227634   0.563   5.652   2.866 -0.6219 -1.9498 -0.1726
 6967SOL    HW327635   0.413   5.670   2.860 -0.3634  0.4106 -0.5697
 6967SOL    MW427636   0.489   5.655   2.820 -0.4117 -0.1806 -0.4547
 6968SOL     OW27637   4.540   3.106   3.345 -0.3347  0.0551  0.2185
 6968SOL    HW227638   4.634   3.091   3.339  0.1010  2.7541 -2.1701
 6968SOL    HW327639   4.529   3.164   3.420 -0.3195 -1.3235  1.3167
 6968SOL    MW427640   4.551   3.111   3.354 -0.2752  0.2293  0.0482
 6969SOL     OW27641   4.298   1.277   5.488  0.2506 -0.2436  0.1764
 6969SOL    HW227642   4.342   1.361   5.475  0.8738 -0.6892 -0.6466
 6969SOL    HW327643   4.258   1.285   5.575  2.1289  0.1117  1.0653
 6969SOL    MW427644   4.298   1.289   5.498  0.5806 -0.2555  0.1851
 6970SOL     OW27645   3.784   5.187   6.284 -0.0423  0.3007  0.1069
 6970SOL    HW227646   3.748   5.114   6.233  1.6122 -0.3515 -0.1801
 6970SOL    HW327647   3.743   5.265   6.247  0.7187 -0.2000 -1.8810
 6970SOL    MW427648   3.774   5.188   6.273  0.2764  0.1486 -0.1933
 6971SOL     OW27649   1.670   2.079   3.885  0.3737  0.1686  0.1450
 6971SOL    HW227650   1.626   2.002   3.920  1.5584  0.5036  2.6476
 6971SOL    HW327651   1.720   2.046   3.810 -1.5840 -0.8125 -0.7885
 6971SOL    MW427652   1.671   2.064   3.880  0.2717  0.0834  0.3520
 6972SOL     OW27653   3.703   5.286   3.031 -0.0232 -0.1305 -0.0711
 6972SOL    HW227654   3.770   5.336   3.078 -0.6596 -0.9379  1.7701
 6972SOL    HW327655   3.629   5.346   3.024  0.0641 -0.0165 -0.0349
 6972SOL    MW427656   3.702   5.301   3.036 -0.0956 -0.2220  0.1766
 6973SOL     OW27657   2.367   1.944   1.672 -0.5055  0.2559  0.2618
 6973SOL    HW227658   2.457   1.916   1.686 -0.3484  0.0805 -0.9888
 6973SOL    HW327659   2.355   1.942   1.577 -2.3263 -1.3039  0.4537
 6973SOL    MW427660   2.377   1.940   1.661 -0.7250  0.0269  0.1221
 6974SOL     OW27661   3.292   4.299   6.271 -0.1423 -0.0223  0.1874
 6974SOL    HW227662   3.276   4.206   6.286  0.5375  0.0195  1.2205
 6974SOL    HW327663   3.280   4.340   6.357  1.0855  0.6249  0.0677
 6974SOL    MW427664   3.288   4.293   6.284  0.1094  0.0686  0.3079
 6975SOL     OW27665   1.956   3.315   0.675  0.0560 -0.6296 -0.1434
 6975SOL    HW227666   1.895   3.243   0.659 -1.1466 -0.4330  2.9682
 6975SOL    HW327667   2.037   3.287   0.631 -0.9328 -2.9704 -0.6469
 6975SOL    MW427668   1.959   3.302   0.667 -0.2331 -0.9125  0.2007
 6976SOL     OW27669   3.544   2.612   2.864 -0.0647 -0.2226 -0.6423
 6976SOL    HW227670   3.589   2.638   2.784 -1.1145 -0.9649 -1.4909
 6976SOL    HW327671   3.579   2.526   2.885 -0.0881 -0.2004 -0.5093
 6976SOL    MW427672   3.555   2.604   2.856 -0.2063 -0.3176 -0.7367
 6977SOL     OW27673   0.984   5.873   6.071 -0.4968 -0.7156 -0.4375
 6977SOL    HW227674   0.988   5.808   6.142  0.5363  0.1657  0.3443
 6977SOL    HW327675   1.076   5.883   6.043 -0.0422  2.8333  1.7559
 6977SOL    MW427676   0.997   5.865   6.076 -0.3005 -0.1311 -0.0450
 6978SOL     OW27677   5.914   3.177   2.861  0.2169  0.1014 -0.1936
 6978SOL    HW227678   5.907   3.116   2.788 -0.5144  0.0884 -0.1193
 6978SOL    HW327679   5.922   3.263   2.820  2.0389 -0.0808 -0.3150
 6978SOL    MW427680   5.914   3.180   2.846  0.3608  0.0757 -0.1998
 6979SOL     OW27681   1.319   3.800   3.250 -1.0659  0.1197  0.4191
 6979SOL    HW227682   1.298   3.829   3.338 -1.3855  0.1208  0.3434
 6979SOL    HW327683   1.321   3.880   3.198 -2.2825 -0.0020  0.1418
 6979SOL    MW427684   1.316   3.814   3.255 -1.2686  0.1038  0.3725
 6980SOL     OW27685   1.648   2.865   4.696  0.0021 -0.1738 -1.1322
 6980SOL    HW227686   1.621   2.777   4.721  1.2340 -0.3984 -0.5160
 6980SOL    HW327687   1.743   2.859   4.684  0.1225  1.0883 -0.9573
 6980SOL    MW427688   1.657   2.853   4.698  0.1805 -0.0369 -1.0278
 6981SOL     OW27689   2.342   0.486   1.638  0.0441 -0.3228  0.0374
 6981SOL    HW227690   2.434   0.458   1.637 -0.4939 -2.2348 -0.4009
 6981SOL    HW327691   2.340   0.559   1.700  1.5858 -1.2455  1.2515
 6981SOL    MW427692   2.354   0.492   1.646  0.1766 -0.6968  0.1398
 6982SOL     OW27693   5.267   5.682   5.391 -0.2814  0.7393 -0.1087
 6982SOL    HW227694   5.240   5.597   5.427 -0.0049  1.1969  1.2580
 6982SOL    HW327695   5.307   5.727   5.465  1.7611  1.1550 -1.3982
 6982SOL    MW427696   5.269   5.677   5.406  0.0246  0.8545 -0.0985
 6983SOL     OW27697   3.955   4.030   3.237  0.2183 -0.6105 -0.4235
 6983SOL    HW227698   3.888   3.976   3.280 -0.0770 -0.1585 -0.3103
 6983SOL    HW327699   3.996   3.971   3.173 -0.2070 -0.9268 -0.4097
 6983SOL    MW427700   3.951   4.015   3.234  0.1232 -0.5926 -0.4067
 6984SOL     OW27701   5.068   0.604   1.727 -0.0989 -0.0987  0.1618
 6984SOL    HW227702   4.989   0.607   1.673 -0.3756 -0.4131  0.5433
 6984SOL    HW327703   5.137   0.575   1.666 -0.4051 -0.4371 -0.0284
 6984SOL    MW427704   5.067   0.600   1.712 -0.1758 -0.1848  0.1871
 6985SOL     OW27705   1.075   4.312   0.662 -0.4652  0.2992  0.1103
 6985SOL    HW227706   1.133   4.240   0.638 -1.6068 -0.7282  0.3095
 6985SOL    HW327707   1.117   4.352   0.738 -0.9875 -1.7132  1.5415
 6985SOL    MW427708   1.088   4.308   0.669 -0.6848 -0.1018  0.3254
 6986SOL     OW27709   0.945   4.496   1.785  0.2238  0.2245 -0.6346
 6986SOL    HW227710   0.961   4.526   1.696  2.5495 -1.8708 -1.0434
 6986SOL    HW327711   0.886   4.421   1.775 -0.5222  0.7455 -0.2503
 6986SOL    MW427712   0.939   4.490   1.772  0.4322  0.0168 -0.6378
 6987SOL     OW27713   5.957   2.200   5.506 -0.9741  0.6243 -0.5188
 6987SOL    HW227714   5.963   2.131   5.572  2.1622  1.1242 -0.1511
 6987SOL    HW327715   5.915   2.273   5.552 -1.1885  0.1186  0.1134
 6987SOL    MW427716   5.952   2.200   5.521 -0.5886  0.6236 -0.3869
 6988SOL     OW27717   3.560   1.113   1.169  0.3444 -0.6694  0.3928
 6988SOL    HW227718   3.596   1.144   1.252  1.1725 -1.1382  0.2199
 6988SOL    HW327719   3.634   1.117   1.108 -0.5152  0.7330 -0.6277
 6988SOL    MW427720   3.575   1.118   1.171  0.3402 -0.5462  0.2354
 6989SOL     OW27721   5.932   4.996   3.445 -0.2266  0.2099 -0.3926
 6989SOL    HW227722   6.016   5.041   3.440 -1.0221  1.8252 -0.1245
 6989SOL    HW327723   5.871   5.056   3.401 -1.3051 -0.7127 -0.1781
 6989SOL    MW427724   5.935   5.010   3.439 -0.4739  0.3013 -0.3290
 6990SOL     OW27725   2.340   4.059   4.795  0.1122  0.1474  0.1110
 6990SOL    HW227726   2.288   3.996   4.845  0.5204  0.5144  1.0171
 6990SOL    HW327727   2.324   4.143   4.838  2.4615  0.0752  1.2544
 6990SOL    MW427728   2.331   4.062   4.807  0.4760  0.1863  0.3814
 6991SOL     OW27729   5.969   4.829   5.575  0.1030 -0.0948  0.7203
 6991SOL    HW227730   5.887   4.815   5.623  0.7984  0.2697  2.0799
 6991SOL    HW327731   5.950   4.802   5.485 -1.7166  0.6944  0.8407
 6991SOL    MW427732   5.956   4.823   5.569 -0.0453  0.0574  0.9156
 6992SOL     OW27733   4.019   2.378   4.233 -0.1276  0.3387  0.7171
 6992SOL    HW227734   4.082   2.333   4.288  2.2260  0.2567 -1.8636
 6992SOL    HW327735   4.005   2.320   4.159 -0.4744  1.8817 -0.4904
 6992SOL    MW427736   4.025   2.365   4.231  0.1371  0.5314  0.2173
 6993SOL     OW27737   1.194   1.883   0.314  0.1672  0.1568 -0.3511
 6993SOL    HW227738   1.168   1.792   0.301 -1.5670  0.5429  0.1627
 6993SOL    HW327739   1.246   1.882   0.394 -0.8335 -0.2388  0.3144
 6993SOL    MW427740   1.197   1.871   0.323 -0.1937  0.1556 -0.1955
 6994SOL     OW27741   2.146   1.849   4.394 -0.7946  0.6517  0.1112
 6994SOL    HW227742   2.164   1.765   4.353 -2.5480  0.3377 -0.1017
 6994SOL    HW327743   2.111   1.826   4.481 -0.0784  1.2057  0.5530
 6994SOL    MW427744   2.144   1.835   4.400 -0.9314  0.6834  0.1414
 6995SOL     OW27745   6.205   4.908   4.830 -0.1198 -0.5803  0.5323
 6995SOL    HW227746   6.250   4.944   4.907  0.9235 -1.1609  0.2194
 6995SOL    HW327747   6.168   4.984   4.786  0.4702 -0.0913  0.8685
 6995SOL    MW427748   6.206   4.923   4.835  0.0957 -0.5924  0.5354
 6996SOL     OW27749   4.053   6.086   2.320 -0.4572  0.3044  0.3106
 6996SOL    HW227750   3.974   6.134   2.346 -1.5029 -1.1550 -0.0593
 6996SOL    HW327751   4.030   6.044   2.237 -0.0991 -1.9682  1.2942
 6996SOL    MW427752   4.040   6.087   2.312 -0.5479 -0.1880  0.3916
 6997SOL     OW27753   1.280   0.051   5.558  0.0049  0.0869 -0.0877
 6997SOL    HW227754   1.363   0.085   5.591  1.7921 -3.4097 -0.4648
 6997SOL    HW327755   1.225   0.042   5.636  0.9463  0.0888  0.5895
 6997SOL    MW427756   1.283   0.054   5.573  0.3649 -0.3742 -0.0481
 6998SOL     OW27757   3.982   4.767   3.108  1.3532 -0.0544 -0.5845
 6998SOL    HW227758   3.915   4.812   3.159 -0.1888  0.5007 -2.9182
 6998SOL    HW327759   3.935   4.693   3.068  3.3920 -2.7564  1.6904
 6998SOL    MW427760   3.967   4.763   3.109  1.4187 -0.3377 -0.5923
 6999SOL     OW27761   5.567   3.418   3.056  0.2657 -0.1735  0.0623
 6999SOL    HW227762   5.601   3.487   2.999 -3.0148  0.9922 -0.6701
 6999SOL    HW327763   5.563   3.340   2.999 -2.1317  0.7575 -1.1918
 6999SOL    MW427764   5.571   3.417   3.041 -0.4834  0.1031 -0.1998
 7000SOL     OW27765   4.484   0.372   0.170  0.2459 -0.4830  0.3010
 7000SOL    HW227766   4.554   0.436   0.163 -0.0168  0.0019  1.6901
 7000SOL    HW327767   4.403   0.424   0.166  0.0325 -0.4281  3.1203
 7000SOL    MW427768   4.482   0.387   0.169  0.1831 -0.4118  0.8562
 7001SOL     OW27769   1.152   0.455   6.327 -0.2766 -0.7868  0.5753
 7001SOL    HW227770   1.214   0.433   6.396  0.3835 -0.7774 -0.0036
 7001SOL    HW327771   1.205   0.461   6.248 -0.7760  0.7596  0.3372
 7001SOL    MW427772   1.167   0.453   6.326 -0.2554 -0.5815  0.4675
 7002SOL     OW27773   4.937   4.934   2.774 -0.1530  0.4626  0.1406
 7002SOL    HW227774   4.991   4.993   2.721 -1.6411  1.4271 -0.3596
 7002SOL    HW327775   4.850   4.973   2.773 -0.7249 -0.6734  1.5104
 7002SOL    MW427776   4.932   4.947   2.767 -0.4248  0.4400  0.2553
 7003SOL     OW27777   5.239   0.382   3.492  0.5892 -0.2140 -0.2806
 7003SOL    HW227778   5.158   0.433   3.498  0.5269 -0.3507  0.1220
 7003SOL    HW327779   5.290   0.409   3.569  1.1212  0.1920 -0.7676
 7003SOL    MW427780   5.235   0.392   3.503  0.6512 -0.1785 -0.2918
 7004SOL     OW27781   2.199   0.937   5.400  0.0173  0.3825  0.2007
 7004SOL    HW227782   2.283   0.914   5.439  0.2842  1.6020  0.3740
 7004SOL    HW327783   2.179   1.024   5.435 -0.6463  0.7004 -0.9094
 7004SOL    MW427784   2.207   0.945   5.410 -0.0351  0.5853  0.0771
 7005SOL     OW27785   1.465   0.183   5.726 -0.4698 -0.6172 -0.5521
 7005SOL    HW227786   1.411   0.189   5.804 -0.1052 -2.3451 -0.1136
 7005SOL    HW327787   1.508   0.097   5.733  0.8275 -0.1224 -1.8377
 7005SOL    MW427788   1.464   0.172   5.737 -0.2505 -0.7799 -0.6639
 7006SOL     OW27789   5.417   2.935   2.875 -0.4019  0.3670  0.5801
 7006SOL    HW227790   5.339   2.891   2.910  0.1236 -1.4760 -0.4436
 7006SOL    HW327791   5.472   2.951   2.952 -0.1092 -1.8567  0.8771
 7006SOL    MW427792   5.414   2.932   2.890 -0.2939 -0.1696  0.4843
 7007SOL     OW27793   5.172   6.213   2.345  0.6662  0.0681  0.1802
 7007SOL    HW227794   5.172   6.165   2.427  0.7600 -1.5960 -0.7449
 7007SOL    HW327795   5.081   6.237   2.331  0.4022 -0.9627  0.0550
 7007SOL    MW427796   5.160   6.210   2.354  0.6437 -0.2874  0.0416
 7008SOL     OW27797   0.107   6.186   0.315  0.2067 -0.3875  0.1726
 7008SOL    HW227798   0.118   6.247   0.243 -0.0964  0.3628  0.7562
 7008SOL    HW327799   0.017   6.200   0.345  0.8774  0.5746  1.8399
 7008SOL    MW427800   0.096   6.196   0.309  0.2552 -0.1616  0.4696
 7009SOL     OW27801   0.134   2.436   4.246 -0.0745  0.3258 -0.5941
 7009SOL    HW227802   0.084   2.391   4.177  0.2652 -0.5434 -0.2793
 7009SOL    HW327803   0.177   2.509   4.200  1.1970 -0.9994 -1.5924
 7009SOL    MW427804   0.133   2.440   4.231  0.1381  0.0363 -0.6843
 7010SOL     OW27805   5.981   2.141   2.455  0.1662 -0.3087  0.1465
 7010SOL    HW227806   6.047   2.091   2.504 -1.3170 -0.3317  2.2723
 7010SOL    HW327807   5.900   2.093   2.470 -0.8816  1.4117  0.2126
 7010SOL    MW427808   5.979   2.128   2.464 -0.1677 -0.0848  0.4357
 7011SOL     OW27809   0.955   3.071   3.949  0.3872  0.1187 -0.0533
 7011SOL    HW227810   0.951   3.163   3.976 -0.0634  0.2298 -0.4719
 7011SOL    HW327811   1.006   3.072   3.868  0.8931 -0.0776  0.2665
 7011SOL    MW427812   0.961   3.084   3.942  0.3945  0.1075 -0.0663
 7012SOL     OW27813   0.334   3.133   5.612  0.2844 -0.0355  0.3160
 7012SOL    HW227814   0.380   3.072   5.669 -0.5281 -0.2179  0.7947
 7012SOL    HW327815   0.301   3.201   5.671 -0.8213 -0.3832  0.1239
 7012SOL    MW427816   0.336   3.134   5.627  0.0313 -0.1054  0.3538
 7013SOL     OW27817   0.018   5.341   6.176 -0.1825  0.1626  0.1632
 7013SOL    HW227818  -0.064   5.320   6.222 -0.1356  1.0742  0.6777
 7013SOL    HW327819  -0.009   5.390   6.099 -0.3406 -2.1992 -1.3855
 7013SOL    MW427820   0.004   5.344   6.172 -0.1972 -0.0288  0.0267
 7014SOL     OW27821   0.269   4.703   4.486  0.0502  0.2963 -0.0432
 7014SOL    HW227822   0.339   4.668   4.432 -0.7180  0.3673 -1.1090
 7014SOL    HW327823   0.305   4.703   4.575  1.2926  0.0797 -0.5290
 7014SOL    MW427824   0.283   4.699   4.491  0.1127  0.2771 -0.2479
 7015SOL     OW27825   4.205   1.351   4.279  0.5810  0.0632  0.7974
 7015SOL    HW227826   4.283   1.346   4.335  0.2725 -0.6663  1.1699
 7015SOL    HW327827   4.200   1.265   4.237  0.8234  0.6072 -0.3841
 7015SOL    MW427828   4.215   1.339   4.280  0.5723  0.0387  0.6907
 7016SOL     OW27829   5.612   3.114   6.387  0.3461 -0.1810  0.0785
 7016SOL    HW227830   5.670   3.085   6.457 -0.5507  0.4563  1.1175
 7016SOL    HW327831   5.546   3.045   6.379 -0.6669  0.6066  1.2241
 7016SOL    MW427832   5.611   3.101   6.395  0.0941  0.0070  0.3668
 7017SOL     OW27833   4.698   1.011   4.749  0.5198 -0.0612 -0.2272
 7017SOL    HW227834   4.748   0.964   4.815  0.8757  1.1621  0.4167
 7017SOL    HW327835   4.608   0.983   4.762  0.4867  0.6212  1.2245
 7017SOL    MW427836   4.693   1.001   4.760  0.5624  0.1903  0.0493
 7018SOL     OW27837   4.723   4.674   2.125 -0.3074 -0.3342 -0.5161
 7018SOL    HW227838   4.690   4.702   2.040 -0.2573  1.3188 -0.0207
 7018SOL    HW327839   4.720   4.753   2.179 -0.2979 -1.3409  1.0105
 7018SOL    MW427840   4.718   4.688   2.121 -0.2995 -0.2489 -0.2493
 7019SOL     OW27841   1.308   4.154   1.276 -0.3967  0.2868  0.4184
 7019SOL    HW227842   1.253   4.183   1.203 -0.2246  0.4869  0.3664
 7019SOL    HW327843   1.359   4.081   1.241 -2.1340 -1.2931  1.0668
 7019SOL    MW427844   1.308   4.148   1.262 -0.6032  0.1047  0.4971
 7020SOL     OW27845   3.435   1.091   5.534  0.2160  0.3607 -0.5854
 7020SOL    HW227846   3.483   1.070   5.614  1.3769  1.4746 -0.9454
 7020SOL    HW327847   3.346   1.109   5.563  0.3413 -0.3865  0.2967
 7020SOL    MW427848   3.429   1.091   5.548  0.3857  0.4091 -0.5165
 7021SOL     OW27849   5.949   6.249   2.402 -0.1071  0.2075 -0.3200
 7021SOL    HW227850   5.969   6.209   2.317  1.3363 -0.6649  0.3930
 7021SOL    HW327851   6.034   6.254   2.446 -0.8103  0.8488  0.9862
 7021SOL    MW427852   5.963   6.245   2.396 -0.0094  0.1770 -0.0536
 7022SOL     OW27853   5.448   4.031   6.176 -0.3388  0.1487  0.0607
 7022SOL    HW227854   5.493   4.109   6.209 -0.5492  0.8391 -1.2213
 7022SOL    HW327855   5.358   4.059   6.162 -0.4860 -0.4062 -0.1526
 7022SOL    MW427856   5.442   4.045   6.179 -0.3860  0.1665 -0.1366
 7023SOL     OW27857   4.916   0.886   2.076 -0.2294 -0.0879  0.0889
 7023SOL    HW227858   4.844   0.834   2.040 -0.6951  1.2500 -1.0027
 7023SOL    HW327859   4.926   0.853   2.166 -0.0242 -2.5147 -0.7475
 7023SOL    MW427860   4.908   0.875   2.083 -0.2637 -0.2315 -0.1655
 7024SOL     OW27861   5.155   4.133   3.032 -0.1913 -0.6987  0.1163
 7024SOL    HW227862   5.140   4.146   3.126 -0.0662  2.9184 -0.2008
 7024SOL    HW327863   5.244   4.097   3.027  0.3781  0.4310  1.3942
 7024SOL    MW427864   5.165   4.130   3.044 -0.0997 -0.0725  0.2431
 7025SOL     OW27865   1.059   0.725   5.681 -0.1558  0.4129 -0.2387
 7025SOL    HW227866   1.134   0.668   5.699  1.4403  3.0153  2.4844
 7025SOL    HW327867   1.093   0.789   5.618 -1.2044 -0.3356 -1.5827
 7025SOL    MW427868   1.074   0.726   5.675 -0.0835  0.6575 -0.0567
 7026SOL     OW27869   0.136   5.660   3.730 -0.4914 -0.1117  0.2159
 7026SOL    HW227870   0.186   5.654   3.649 -1.6158 -1.0818 -0.4396
 7026SOL    HW327871   0.160   5.745   3.767 -0.0904  0.4230 -1.2177
 7026SOL    MW427872   0.146   5.670   3.724 -0.5868 -0.1692 -0.0597
 7027SOL     OW27873   5.200   3.606   1.933 -0.8579 -0.1434  0.4578
 7027SOL    HW227874   5.172   3.617   2.024 -1.0818 -1.0501  0.5077
 7027SOL    HW327875   5.120   3.585   1.885 -0.7132  0.1458  0.0839
 7027SOL    MW427876   5.186   3.605   1.938 -0.8684 -0.2249  0.4150
 7028SOL     OW27877   1.875   5.380   0.749 -0.9468 -0.1026  0.4743
 7028SOL    HW227878   1.939   5.337   0.806  0.6713  1.2770 -0.2137
 7028SOL    HW327879   1.918   5.461   0.722 -1.2752 -1.0407 -3.3706
 7028SOL    MW427880   1.889   5.385   0.753 -0.7766 -0.0444 -0.1238
 7029SOL     OW27881   1.956   1.839   1.383 -0.1487  0.0969 -0.1121
 7029SOL    HW227882   2.031   1.897   1.374  1.0302 -1.4254 -0.5272
 7029SOL    HW327883   1.932   1.845   1.475  0.8955  0.1266  0.1724
 7029SOL    MW427884   1.963   1.847   1.394  0.1446 -0.1001 -0.1293
 7030SOL     OW27885   1.255   4.184   2.508  0.2132  0.1778  0.1486
 7030SOL    HW227886   1.261   4.106   2.453 -0.4948  0.9508 -1.0847
 7030SOL    HW327887   1.284   4.255   2.451 -0.8091  1.0543  0.6801
 7030SOL    MW427888   1.260   4.183   2.493 -0.0151  0.3955  0.0560
 7031SOL     OW27889   0.149   6.075   3.223  0.2789  0.2225  0.7855
 7031SOL    HW227890   0.169   5.983   3.208  0.9351  0.2496  1.4277
 7031SOL    HW327891   0.234   6.119   3.223 -0.0249  0.8296  0.5068
 7031SOL    MW427892   0.163   6.069   3.221  0.3254  0.3062  0.8334
 7032SOL     OW27893   2.631   4.237   0.107  0.3291  0.6789  0.2878
 7032SOL    HW227894   2.670   4.256   0.193 -1.1507  2.0411  0.6940
 7032SOL    HW327895   2.627   4.322   0.063 -1.9579  0.5634  0.1911
 7032SOL    MW427896   2.636   4.251   0.113 -0.1679  0.8434  0.3286
 7033SOL     OW27897   2.840   5.466   0.616  0.3435  0.6560  0.2756
 7033SOL    HW227898   2.759   5.443   0.662 -0.0180  1.1423 -0.1073
 7033SOL    HW327899   2.850   5.397   0.550 -0.5689  1.3821 -0.6612
 7033SOL    MW427900   2.831   5.454   0.613  0.1755  0.8159  0.1015
 7034SOL     OW27901   1.483   2.109   3.583 -0.3691  0.0362  0.1251
 7034SOL    HW227902   1.571   2.088   3.613 -0.3687  0.8535  0.7408
 7034SOL    HW327903   1.426   2.072   3.650 -0.4568  0.2479  0.1662
 7034SOL    MW427904   1.487   2.101   3.596 -0.3807  0.1720  0.2118
 7035SOL     OW27905   1.366   4.621   3.401 -0.3251  0.0091  0.0003
 7035SOL    HW227906   1.451   4.629   3.445 -0.1155  1.2871 -0.5960
 7035SOL    HW327907   1.327   4.541   3.438  0.1470  0.6327  1.9671
 7035SOL    MW427908   1.372   4.611   3.412 -0.2352  0.2600  0.1811
 7036SOL     OW27909   0.848   5.305   4.734  0.3494  0.1205  0.0735
 7036SOL    HW227910   0.886   5.388   4.762 -1.9620  1.7483 -1.2222
 7036SOL    HW327911   0.818   5.321   4.644 -0.2795 -2.0893 -0.1824
 7036SOL    MW427912   0.849   5.318   4.725 -0.0385  0.0437 -0.1312
 7037SOL     OW27913   2.910   0.895   4.240 -0.4512  0.0854  0.1401
 7037SOL    HW227914   2.876   0.806   4.255  1.5679 -0.8543 -0.4919
 7037SOL    HW327915   2.835   0.944   4.209 -1.7087 -1.3200  0.8167
 7037SOL    MW427916   2.896   0.890   4.238 -0.3507 -0.2240  0.1460
 7038SOL     OW27917   2.893   2.722   1.089 -0.3600  1.0167 -0.1315
 7038SOL    HW227918   2.853   2.772   1.160 -0.1704  0.9331  0.0351
 7038SOL    HW327919   2.854   2.635   1.095  1.6050  0.1736  1.5776
 7038SOL    MW427920   2.883   2.717   1.099 -0.0757  0.8945  0.1160
 7039SOL     OW27921   5.481   4.945   3.595 -0.0186 -0.4309  0.3343
 7039SOL    HW227922   5.495   4.857   3.631  0.1733 -0.8098 -0.6123
 7039SOL    HW327923   5.515   4.939   3.505  2.6148  1.4105  1.0914
 7039SOL    MW427924   5.487   4.932   3.588  0.3542 -0.2379  0.3093
 7040SOL     OW27925   4.984   1.698   3.533  0.1624  0.0777 -0.2095
 7040SOL    HW227926   5.051   1.765   3.552 -0.7750  0.8896  0.3366
 7040SOL    HW327927   4.935   1.690   3.614 -0.4045 -0.5258 -0.6055
 7040SOL    MW427928   4.987   1.706   3.546 -0.0361  0.1052 -0.1897
 7041SOL     OW27929   1.065   3.219   3.694 -0.1256 -0.6019 -0.0764
 7041SOL    HW227930   1.135   3.209   3.630  1.8696  1.8325  1.4966
 7041SOL    HW327931   1.013   3.292   3.660 -0.5115 -0.9107 -0.1390
 7041SOL    MW427932   1.068   3.228   3.681  0.0867 -0.3214  0.1229
 7042SOL     OW27933   4.579   1.618   1.036 -0.0493  0.1466  0.0714
 7042SOL    HW227934   4.514   1.550   1.053  0.7315 -0.1497  2.2344
 7042SOL    HW327935   4.627   1.626   1.119  3.4140 -0.4651 -1.6899
 7042SOL    MW427936   4.577   1.610   1.049  0.5106  0.0268  0.1244
 7043SOL     OW27937   5.611   2.662   4.209 -0.1038 -0.2088  0.8659
 7043SOL    HW227938   5.695   2.619   4.195 -0.3188 -0.3411 -0.1041
 7043SOL    HW327939   5.586   2.636   4.298  0.8260 -0.2411  1.1318
 7043SOL    MW427940   5.619   2.653   4.219 -0.0095 -0.2305  0.7730
 7044SOL     OW27941   2.902   1.526   0.175 -0.2425 -0.2984 -0.2415
 7044SOL    HW227942   2.906   1.453   0.113  0.1484  0.9880 -1.7996
 7044SOL    HW327943   2.878   1.602   0.121 -1.0369  0.6696  1.3942
 7044SOL    MW427944   2.899   1.526   0.160 -0.2957 -0.0009 -0.2313
 7045SOL     OW27945   1.608   1.823   0.878 -0.0111  0.1552 -0.7337
 7045SOL    HW227946   1.567   1.858   0.958  0.6213 -1.2964  0.2844
 7045SOL    HW327947   1.565   1.738   0.865  1.3882 -0.5773 -0.6826
 7045SOL    MW427948   1.597   1.816   0.887  0.2569 -0.1329 -0.5927
 7046SOL     OW27949   5.810   4.659   5.394  0.3887  0.2186  0.1651
 7046SOL    HW227950   5.794   4.630   5.304  2.1352 -0.3817  0.0222
 7046SOL    HW327951   5.811   4.579   5.446 -2.2662  0.6653  1.0664
 7046SOL    MW427952   5.808   4.645   5.389  0.2688  0.1984  0.2652
 7047SOL     OW27953   0.857   5.554   0.134 -0.2579 -0.2029  0.1377
 7047SOL    HW227954   0.931   5.511   0.177  3.2471  1.7288 -3.2360
 7047SOL    HW327955   0.840   5.500   0.057 -2.0188 -0.3116  0.5834
 7047SOL    MW427956   0.865   5.541   0.129 -0.0278  0.0376 -0.2486
 7048SOL     OW27957   3.761   0.598   1.917  0.4437 -0.5450  0.3784
 7048SOL    HW227958   3.838   0.542   1.929  0.3871 -0.4334  1.3821
 7048SOL    HW327959   3.697   0.565   1.981 -0.2673 -0.4934 -0.2842
 7048SOL    MW427960   3.762   0.586   1.927  0.3424 -0.5234  0.4234
 7049SOL     OW27961   2.655   6.265   4.637 -0.3286 -0.5223  0.0467
 7049SOL    HW227962   2.658   6.276   4.732  0.9427  0.8532 -0.1199
 7049SOL    HW327963   2.709   6.187   4.620 -0.4914 -0.7225  0.4363
 7049SOL    MW427964   2.662   6.256   4.647 -0.1824 -0.3672  0.0762
 7050SOL     OW27965   1.322   1.871   5.643 -0.1200 -0.9481  0.1848
 7050SOL    HW227966   1.327   1.961   5.611 -1.3454  0.1697  2.8595
 7050SOL    HW327967   1.235   1.841   5.616 -1.2148  0.0479  2.3918
 7050SOL    MW427968   1.311   1.879   5.635 -0.4261 -0.6692  0.8289
 7051SOL     OW27969   3.802   1.727   1.921 -0.2067 -0.2841  0.3386
 7051SOL    HW227970   3.796   1.802   1.981  0.6305 -1.0515  1.4234
 7051SOL    HW327971   3.888   1.735   1.881 -0.9009  0.4300 -1.0999
 7051SOL    MW427972   3.812   1.738   1.924 -0.1878 -0.2911  0.2919
 7052SOL     OW27973   3.033   3.661   2.022  0.4464 -0.1070  0.4238
 7052SOL    HW227974   3.033   3.565   2.017 -1.3438 -0.0857 -1.9901
 7052SOL    HW327975   2.976   3.688   1.950  1.3186  2.8191  0.7260
 7052SOL    MW427976   3.025   3.652   2.012  0.3253  0.2819  0.1452
 7053SOL     OW27977   0.125   5.208   2.019 -0.3358  0.2763 -0.3169
 7053SOL    HW227978   0.107   5.302   2.033 -0.2818  0.3829 -0.9345
 7053SOL    HW327979   0.177   5.182   2.095 -0.3322  0.7513 -0.1515
 7053SOL    MW427980   0.129   5.217   2.031 -0.3282  0.3530 -0.3765
 7054SOL     OW27981   0.456   0.829   2.417 -0.0473  0.1577  0.1466
 7054SOL    HW227982   0.499   0.747   2.395  0.3662  0.7369 -1.2919
 7054SOL    HW327983   0.521   0.879   2.465 -0.0901 -0.0978  0.4744
 7054SOL    MW427984   0.470   0.825   2.421  0.0016  0.2004  0.0000
 7055SOL     OW27985   0.724   2.484   5.921 -0.7818  0.0532  0.3139
 7055SOL    HW227986   0.733   2.393   5.893 -1.8392  0.6359 -2.1486
 7055SOL    HW327987   0.739   2.535   5.842  0.9774  2.1479  1.8681
 7055SOL    MW427988   0.727   2.479   5.907 -0.6892  0.4064  0.1941
 7056SOL     OW27989   4.864   5.866   2.644  0.4697  0.4139 -0.6196
 7056SOL    HW227990   4.803   5.808   2.599  1.0057 -0.7730  0.1166
 7056SOL    HW327991   4.824   5.882   2.729  1.1729 -0.4134 -0.1129
 7056SOL    MW427992   4.851   5.860   2.649  0.6332  0.1482 -0.4556
 7057SOL     OW27993   0.642   1.578   0.019 -0.1812 -0.6810  0.2253
 7057SOL    HW227994   0.628   1.493  -0.022 -3.9998  0.4489 -1.2656
 7057SOL    HW327995   0.563   1.592   0.072  0.8560  1.4555  1.3211
 7057SOL    MW427996   0.630   1.569   0.021 -0.5481 -0.2500  0.1732
 7058SOL     OW27997   0.624   0.638   2.246 -0.1874  0.3923  0.0883
 7058SOL    HW227998   0.561   0.682   2.190  1.4773  1.1025 -1.3301
 7058SOL    HW327999   0.652   0.561   2.195  0.1847  0.1623  0.6243
 7058SOL    MW428000   0.619   0.634   2.232  0.0813  0.4556 -0.0281
 7059SOL     OW28001   5.017   2.353   0.812 -0.0135  0.3964  0.4839
 7059SOL    HW228002   5.060   2.362   0.897  1.9956 -0.5296 -0.3829
 7059SOL    HW328003   5.039   2.434   0.766 -2.2775  1.5386  1.2809
 7059SOL    MW428004   5.026   2.365   0.817 -0.0472  0.4249  0.4747
 7060SOL     OW28005   6.247   2.283   3.343 -0.0893 -0.3826 -0.0107
 7060SOL    HW228006   6.285   2.208   3.299 -0.1505  0.0013 -0.7199
 7060SOL    HW328007   6.308   2.303   3.415  1.5907  0.8122 -1.6706
 7060SOL    MW428008   6.260   2.276   3.347  0.1243 -0.1743 -0.3233
 7061SOL     OW28009   0.274   5.286   1.112  0.1922 -0.2224  0.4694
 7061SOL    HW228010   0.294   5.198   1.145  1.1625  0.0508  0.6369
 7061SOL    HW328011   0.337   5.343   1.157 -1.7930  0.8752  1.9953
 7061SOL    MW428012   0.285   5.282   1.122  0.0583 -0.0416  0.6928
 7062SOL     OW28013   3.647   6.435   5.944  0.3172  0.4599 -0.1476
 7062SOL    HW228014   3.649   6.486   5.863 -0.3837 -0.5880 -0.8489
 7062SOL    HW328015   3.652   6.344   5.915 -1.8809 -0.0290  0.8394
 7062SOL    MW428016   3.648   6.430   5.930 -0.0653  0.2571 -0.1099
 7063SOL     OW28017   0.185   6.455   2.232  0.2661  0.0751  0.3215
 7063SOL    HW228018   0.254   6.518   2.251  0.2341  0.9446 -2.0300
 7063SOL    HW328019   0.128   6.457   2.308  2.7769 -0.6926  2.3607
 7063SOL    MW428020   0.187   6.463   2.244  0.5931  0.0885  0.2803
 7064SOL     OW28021   4.643   4.788   4.112  0.5052  0.3043  0.7265
 7064SOL    HW228022   4.687   4.750   4.036 -0.3301 -0.2238  0.5015
 7064SOL    HW328023   4.586   4.718   4.145 -1.5571  1.5237 -0.0828
 7064SOL    MW428024   4.641   4.774   4.107  0.1229  0.3955  0.5900
 7065SOL     OW28025   2.646   1.769   3.049  0.5531 -0.7142 -0.3350
 7065SOL    HW228026   2.562   1.722   3.038 -0.3137  0.7257 -0.1057
 7065SOL    HW328027   2.657   1.774   3.143  1.4922 -1.8628 -0.3601
 7065SOL    MW428028   2.636   1.763   3.060  0.5626 -0.6758 -0.3081
 7066SOL     OW28029   6.098   3.244   1.438  0.3088 -0.6018  0.2242
 7066SOL    HW228030   6.096   3.165   1.384  0.2320  0.4232 -1.3291
 7066SOL    HW328031   6.008   3.275   1.439  0.5363  0.0910 -0.1385
 7066SOL    MW428032   6.086   3.238   1.431  0.3287 -0.3752 -0.0286
 7067SOL     OW28033   6.184   3.318   3.202  0.5101  0.7853  0.5496
 7067SOL    HW228034   6.176   3.391   3.263  0.3299  0.1447  1.3027
 7067SOL    HW328035   6.278   3.302   3.196  0.5038  0.5941  0.9645
 7067SOL    MW428036   6.196   3.325   3.209  0.4855  0.6756  0.7037
 7068SOL     OW28037   4.288   1.999   1.368  0.4992  0.1988 -0.2535
 7068SOL    HW228038   4.379   1.971   1.358  0.1940 -1.1772  0.5736
 7068SOL    HW328039   4.248   1.933   1.425 -0.8332  1.1842  0.0162
 7068SOL    MW428040   4.295   1.987   1.374  0.2831  0.1472 -0.1088
 7069SOL     OW28041   5.501   1.710   0.585 -0.5655 -0.4082  1.0373
 7069SOL    HW228042   5.430   1.661   0.628 -1.8990 -0.7284 -1.3453
 7069SOL    HW328043   5.541   1.647   0.526 -0.5805  0.6683 -0.1620
 7069SOL    MW428044   5.497   1.695   0.583 -0.7434 -0.3084  0.5647
 7070SOL     OW28045   1.752   2.640   2.838  0.6523 -0.1997  0.6362
 7070SOL    HW228046   1.690   2.689   2.892  0.9761 -1.4639  2.2098
 7070SOL    HW328047   1.806   2.708   2.796 -1.5709  0.9329 -0.6222
 7070SOL    MW428048   1.751   2.655   2.839  0.4017 -0.2171  0.6778
 7071SOL     OW28049   1.505   5.293   6.105 -0.1862  0.1893  0.5872
 7071SOL    HW228050   1.451   5.341   6.042  0.3118 -0.9962 -0.7924
 7071SOL    HW328051   1.454   5.294   6.186 -1.1738  1.1467 -0.0172
 7071SOL    MW428052   1.491   5.300   6.107 -0.2508  0.1592  0.3254
 7072SOL     OW28053   1.869   0.177   4.278  0.1299 -0.1823  0.1272
 7072SOL    HW228054   1.920   0.102   4.246 -0.8600 -1.0504  0.5261
 7072SOL    HW328055   1.893   0.249   4.220  1.8705 -0.5233  0.3465
 7072SOL    MW428056   1.879   0.176   4.266  0.2289 -0.3418  0.2088
 7073SOL     OW28057   2.505   2.051   3.761  0.7176 -0.3243  0.3341
 7073SOL    HW228058   2.440   2.115   3.732  0.4407 -0.1899  1.2340
 7073SOL    HW328059   2.578   2.062   3.700 -0.4456 -1.1134 -1.2499
 7073SOL    MW428060   2.506   2.061   3.749  0.5276 -0.4106  0.2439
 7074SOL     OW28061   5.920   0.560   5.164 -0.3911 -0.2736 -0.2728
 7074SOL    HW228062   6.013   0.561   5.139 -0.3789 -1.7395 -0.4154
 7074SOL    HW328063   5.912   0.482   5.219 -1.5680 -0.2576 -0.4110
 7074SOL    MW428064   5.931   0.550   5.168 -0.5448 -0.4649 -0.3099
 7075SOL     OW28065   5.002   3.385   5.274  0.0620  0.4513  0.7684
 7075SOL    HW228066   5.086   3.403   5.231 -0.7421  1.1317 -0.6239
 7075SOL    HW328067   4.967   3.472   5.294 -0.5611  0.1973  0.8058
 7075SOL    MW428068   5.009   3.399   5.271 -0.1263  0.5076  0.5896
 7076SOL     OW28069   1.607   4.432   5.337 -0.0382  0.0431 -0.4205
 7076SOL    HW228070   1.677   4.467   5.282  0.4720  0.4493  0.4600
 7076SOL    HW328071   1.576   4.507   5.388 -1.3290 -0.0655 -1.0028
 7076SOL    MW428072   1.612   4.447   5.337 -0.1412  0.0824 -0.3812
 7077SOL     OW28073   2.442   1.159   2.275 -0.5814 -0.1037  0.1312
 7077SOL    HW228074   2.366   1.111   2.242  0.7188 -1.8374 -0.4590
 7077SOL    HW328075   2.467   1.113   2.355 -1.6856  2.0609  1.8440
 7077SOL    MW428076   2.435   1.147   2.281 -0.5556 -0.0469  0.2793
 7078SOL     OW28077   0.111   5.416   5.290 -0.0178 -0.2920  0.4411
 7078SOL    HW228078   0.195   5.395   5.250 -0.8079  0.2973 -1.6565
 7078SOL    HW328079   0.117   5.510   5.311 -0.6188  0.0929 -1.0186
 7078SOL    MW428080   0.123   5.426   5.288 -0.2013 -0.1634 -0.0282
 7079SOL     OW28081   1.267   6.175   4.619  0.1136 -0.0518  0.1460
 7079SOL    HW228082   1.231   6.087   4.603 -1.1480  0.5632 -0.5341
 7079SOL    HW328083   1.268   6.184   4.714 -1.6509 -0.0780  0.2081
 7079SOL    MW428084   1.262   6.164   4.629 -0.2856  0.0259  0.0645
 7080SOL     OW28085   4.742   4.097   1.495 -0.0240  0.1086 -0.2521
 7080SOL    HW228086   4.707   4.184   1.517 -1.4384 -0.7702  1.2168
 7080SOL    HW328087   4.716   4.042   1.569  2.4496 -1.1881 -0.2567
 7080SOL    MW428088   4.734   4.101   1.508  0.1158 -0.1784 -0.0589
 7081SOL     OW28089   1.709   1.653   1.988  0.7103 -0.1424  0.5681
 7081SOL    HW228090   1.630   1.608   2.018  0.4048  0.5597  0.8440
 7081SOL    HW328091   1.694   1.667   1.894 -0.0406  1.0412  0.8392
 7081SOL    MW428092   1.696   1.649   1.980  0.5709  0.1064  0.6403
 7082SOL     OW28093   2.725   3.352   5.173 -0.6116 -0.5191  0.3808
 7082SOL    HW228094   2.746   3.411   5.101 -1.9338  0.7815  0.9942
 7082SOL    HW328095   2.682   3.277   5.131 -1.0798  0.0757 -0.2133
 7082SOL    MW428096   2.722   3.350   5.158 -0.8478 -0.2690  0.3833
 7083SOL     OW28097   2.508   5.680   0.189  0.3772  0.1963 -0.1530
 7083SOL    HW228098   2.494   5.683   0.284 -0.5412  2.1086 -0.2911
 7083SOL    HW328099   2.438   5.734   0.153 -0.0625 -1.5367 -2.0506
 7083SOL    MW428100   2.497   5.688   0.197  0.1980  0.2200 -0.4216
 7084SOL     OW28101   2.343   2.059   0.112  0.1031  0.1275 -0.3162
 7084SOL    HW228102   2.343   1.973   0.152  2.4587  0.3965  0.4274
 7084SOL    HW328103   2.376   2.118   0.181 -0.7044  1.4956 -1.0428
 7084SOL    MW428104   2.348   2.056   0.127  0.3073  0.3435 -0.3140
 7085SOL     OW28105   2.662   4.672   6.144 -0.1049  0.0725  0.4773
 7085SOL    HW228106   2.740   4.706   6.101  0.9210 -1.9751  0.5723
 7085SOL    HW328107   2.599   4.743   6.141  1.8651  1.9194  0.6616
 7085SOL    MW428108   2.664   4.686   6.138  0.2904  0.0460  0.5141
 7086SOL     OW28109   5.144   0.761   6.298 -0.2779 -0.3371  0.2408
 7086SOL    HW228110   5.237   0.746   6.313  0.0729 -0.2167 -1.5748
 7086SOL    HW328111   5.137   0.776   6.203 -1.9134  1.3315  0.5599
 7086SOL    MW428112   5.155   0.761   6.287 -0.4474 -0.1010  0.0433
 7087SOL     OW28113   0.567   3.341   6.028  0.0036 -0.1291 -0.0431
 7087SOL    HW228114   0.514   3.262   6.035 -0.8548  0.4433  0.0348
 7087SOL    HW328115   0.545   3.377   5.942  0.0573  0.2585  0.1029
 7087SOL    MW428116   0.557   3.335   6.017 -0.1025 -0.0025 -0.0135
 7088SOL     OW28117   2.228   4.057   5.252 -1.2925  0.2874  0.2980
 7088SOL    HW228118   2.279   3.992   5.301 -0.8690  1.2274  1.1544
 7088SOL    HW328119   2.237   4.138   5.304 -0.0864  1.5592 -1.7792
 7088SOL    MW428120   2.236   4.059   5.266 -1.0775  0.5792  0.1369
 7089SOL     OW28121   3.817   5.672   4.831  0.8758  0.5292  0.0468
 7089SOL    HW228122   3.761   5.595   4.816 -0.6348  1.7818 -1.0565
 7089SOL    HW328123   3.886   5.640   4.889  0.3228 -1.6681 -0.4004
 7089SOL    MW428124   3.819   5.657   4.836  0.6035  0.4046 -0.1578
 7090SOL     OW28125   4.826   0.219   5.809 -0.4643  0.1324 -0.1391
 7090SOL    HW228126   4.744   0.240   5.853 -0.5285  0.2558 -0.3172
 7090SOL    HW328127   4.834   0.284   5.739 -0.4671 -0.1927 -0.4426
 7090SOL    MW428128   4.816   0.230   5.805 -0.4732  0.1058 -0.2026
 7091SOL     OW28129   2.196   2.237   4.102 -0.1398  0.0934 -0.0175
 7091SOL    HW228130   2.275   2.282   4.071  0.1622  0.1413  0.7983
 7091SOL    HW328131   2.210   2.145   4.081  0.9907 -0.1887  1.7924
 7091SOL    MW428132   2.208   2.231   4.095  0.0492  0.0625  0.3289
 7092SOL     OW28133   5.983   5.247   1.432  0.1803  0.9392 -0.4748
 7092SOL    HW228134   5.919   5.205   1.375  0.9904 -0.4275 -0.4293
 7092SOL    HW328135   5.968   5.208   1.518  0.2283  1.5685 -0.1781
 7092SOL    MW428136   5.973   5.236   1.436  0.2935  0.8419 -0.4296
 7093SOL     OW28137   5.515   3.222   0.934 -0.0593  0.4688  0.3736
 7093SOL    HW228138   5.583   3.176   0.886 -0.4627 -0.2305  0.4610
 7093SOL    HW328139   5.523   3.313   0.905 -1.0504 -0.1098 -1.9558
 7093SOL    MW428140   5.525   3.228   0.924 -0.2432  0.3002  0.0778
 7094SOL     OW28141   2.213   4.176   1.155 -0.1575 -0.4313 -0.0989
 7094SOL    HW228142   2.126   4.216   1.150 -1.0637 -2.2918 -0.1838
 7094SOL    HW328143   2.252   4.211   1.235 -0.9924  0.4280 -0.0602
 7094SOL    MW428144   2.207   4.186   1.165 -0.3873 -0.5634 -0.1050
 7095SOL     OW28145   2.290   2.287   5.797 -0.0870  0.0145  0.2158
 7095SOL    HW228146   2.251   2.364   5.838  1.9581  1.8384 -1.0479
 7095SOL    HW328147   2.355   2.256   5.860  1.2927  1.2955 -0.5169
 7095SOL    MW428148   2.293   2.293   5.811  0.3649  0.4241 -0.0476
 7096SOL     OW28149   0.406   1.656   3.675  0.5043 -0.6565 -0.7372
 7096SOL    HW228150   0.368   1.728   3.726  1.5914 -0.1034 -0.6780
 7096SOL    HW328151   0.333   1.595   3.662 -0.8880  1.1948 -2.1906
 7096SOL    MW428152   0.391   1.657   3.680  0.4641 -0.3393 -0.9211
 7097SOL     OW28153   0.249   3.203   2.787 -0.0111  0.3333  0.0788
 7097SOL    HW228154   0.261   3.275   2.849  1.7508  0.0616  0.1149
 7097SOL    HW328155   0.208   3.243   2.711 -1.3694  0.8550  1.0456
 7097SOL    MW428156   0.245   3.218   2.786  0.0422  0.3663  0.2111
 7098SOL     OW28157   3.717   3.238   2.150 -0.0278 -0.0617 -0.0229
 7098SOL    HW228158   3.662   3.305   2.109  0.1342  0.6883  0.9392
 7098SOL    HW328159   3.727   3.267   2.241  1.8672 -0.2120 -0.1259
 7098SOL    MW428160   3.711   3.251   2.157  0.2436  0.0174  0.0904
 7099SOL     OW28161   0.398   3.883   2.910 -0.1660 -0.1665  0.4005
 7099SOL    HW228162   0.335   3.812   2.922 -0.5029 -0.0150 -0.3837
 7099SOL    HW328163   0.375   3.947   2.976 -0.7768 -0.1619  0.1894
 7099SOL    MW428164   0.387   3.882   2.920 -0.2910 -0.1459  0.2692
 7100SOL     OW28165   3.009   4.091   0.592  0.3936  0.4752  0.0888
 7100SOL    HW228166   3.070   4.044   0.648  0.1218  1.0412  0.8733
 7100SOL    HW328167   2.945   4.024   0.566  0.9534  0.0370 -0.1859
 7100SOL    MW428168   3.008   4.076   0.596  0.4316  0.4921  0.1560
 7101SOL     OW28169   0.452   1.692   4.122  0.2358 -0.6141 -0.4435
 7101SOL    HW228170   0.456   1.605   4.160  0.9141  0.2013  1.5084
 7101SOL    HW328171   0.453   1.751   4.197  0.1945  1.0887 -1.7130
 7101SOL    MW428172   0.453   1.688   4.137  0.3199 -0.2818 -0.3534
 7102SOL     OW28173   3.113   0.561   4.418  0.0146 -0.4284 -0.3545
 7102SOL    HW228174   3.185   0.618   4.446 -0.7011  1.0405 -1.3867
 7102SOL    HW328175   3.136   0.536   4.329 -0.7634  0.0888 -0.7062
 7102SOL    MW428176   3.126   0.566   4.410 -0.1825 -0.1663 -0.5371
 7103SOL     OW28177   0.962   6.044   1.507  0.2629  0.6067  0.1302
 7103SOL    HW228178   1.021   6.098   1.560 -1.3761  1.4223  1.2006
 7103SOL    HW328179   0.943   5.968   1.562  1.0516 -0.1631 -0.6145
 7103SOL    MW428180   0.967   6.041   1.521  0.1507  0.6127  0.1732
 7104SOL     OW28181   3.309   1.196   1.342  0.5161  0.3214  0.4113
 7104SOL    HW228182   3.319   1.110   1.383  0.9868  0.1940  0.0308
 7104SOL    HW328183   3.397   1.232   1.341  0.0130  1.8659  2.8474
 7104SOL    MW428184   3.322   1.190   1.347  0.5119  0.5083  0.6825
 7105SOL     OW28185   3.161   4.079   5.902  0.2621  0.4486 -0.2851
 7105SOL    HW228186   3.106   4.157   5.895  0.3078  0.2936 -3.8724
 7105SOL    HW328187   3.105   4.013   5.944 -0.8442  1.4925 -0.0708
 7105SOL    MW428188   3.146   4.081   5.907  0.1222  0.5659 -0.7301
 7106SOL     OW28189   3.228   6.203   2.397  0.1232  0.3320 -0.6579
 7106SOL    HW228190   3.172   6.174   2.325 -1.0098  0.7942  0.0125
 7106SOL    HW328191   3.207   6.142   2.468  1.1022 -0.0104 -0.6555
 7106SOL    MW428192   3.218   6.191   2.397  0.1029  0.3478 -0.5691
 7107SOL     OW28193   4.508   0.252   1.159 -0.1048  0.2699 -0.5310
 7107SOL    HW228194   4.442   0.193   1.122  1.9310 -2.3399 -0.2926
 7107SOL    HW328195   4.591   0.209   1.142  1.4207  2.3589  1.0827
 7107SOL    MW428196   4.510   0.239   1.152  0.3651  0.2012 -0.2866
 7108SOL     OW28197   1.710   3.570   3.981 -0.3417  0.6331  0.0207
 7108SOL    HW228198   1.723   3.524   3.898 -0.6956 -0.5110  0.5736
 7108SOL    HW328199   1.619   3.550   4.005 -0.1307  0.6363  0.8637
 7108SOL    MW428200   1.700   3.561   3.973 -0.3605  0.4826  0.2048
 7109SOL     OW28201   2.327   4.797   0.304  0.7116 -0.7301  0.6294
 7109SOL    HW228202   2.259   4.792   0.237  1.6754 -3.7628 -0.3268
 7109SOL    HW328203   2.280   4.792   0.387 -0.3976  1.4261  0.1937
 7109SOL    MW428204   2.312   4.795   0.306  0.6924 -0.8457  0.4458
 7110SOL     OW28205   5.855   1.788   0.025  0.4876 -0.1218  0.3009
 7110SOL    HW228206   5.904   1.814   0.102  0.9902  0.6252 -0.2480
 7110SOL    HW328207   5.793   1.722   0.056 -1.1491  2.0148  1.9053
 7110SOL    MW428208   5.853   1.783   0.039  0.3380  0.2587  0.4402
 7111SOL     OW28209   1.137   0.087   1.618  0.2561  0.4826  0.2743
 7111SOL    HW228210   1.125   0.126   1.531  0.2262 -0.2083 -0.0369
 7111SOL    HW328211   1.059   0.113   1.666  0.0169  0.4184 -0.0753
 7111SOL    MW428212   1.125   0.096   1.613  0.2206  0.3830  0.1871
 7112SOL     OW28213   4.834   0.422   1.788  0.9255  0.4384  0.7234
 7112SOL    HW228214   4.746   0.389   1.805 -0.6759  2.6756 -2.4245
 7112SOL    HW328215   4.856   0.389   1.701  2.2228  1.8645  0.4670
 7112SOL    MW428216   4.826   0.413   1.779  0.8854  0.9218  0.2743
 7113SOL     OW28217   4.606   5.736   1.059 -0.0909  0.3245 -0.5181
 7113SOL    HW228218   4.542   5.727   0.989 -0.0519  1.2009 -0.6804
 7113SOL    HW328219   4.555   5.756   1.137  0.0215  2.2089 -0.8777
 7113SOL    MW428220   4.591   5.738   1.060 -0.0709  0.6887 -0.5870
 7114SOL     OW28221   4.602   4.895   0.828 -0.0505  0.1201 -0.7187
 7114SOL    HW228222   4.652   4.976   0.833  0.1309 -0.0580  1.2915
 7114SOL    HW328223   4.663   4.831   0.790  1.5058 -0.1921  2.0204
 7114SOL    MW428224   4.617   4.897   0.824  0.1788  0.0554 -0.0921
 7115SOL     OW28225   1.486   4.205   2.664  0.0828  0.1341 -0.5648
 7115SOL    HW228226   1.396   4.202   2.632  0.2555  0.7729 -1.1357
 7115SOL    HW328227   1.481   4.170   2.753 -0.8564  0.8608 -0.3180
 7115SOL    MW428228   1.473   4.200   2.671 -0.0183  0.3143 -0.6076
 7116SOL     OW28229   4.478   2.799   2.082 -0.0587  0.3466 -0.0236
 7116SOL    HW228230   4.496   2.875   2.138 -0.2031 -0.4041  1.0719
 7116SOL    HW328231   4.561   2.752   2.077 -0.5642 -0.8012  1.4796
 7116SOL    MW428232   4.491   2.803   2.089 -0.1444  0.0961  0.3192
 7117SOL     OW28233   3.193   5.982   4.446  0.5906  0.2975  0.2079
 7117SOL    HW228234   3.201   6.068   4.404  1.1306  0.2639  0.2294
 7117SOL    HW328235   3.141   5.998   4.525  0.6311  0.5892  0.1756
 7117SOL    MW428236   3.187   5.996   4.451  0.6672  0.3316  0.2065
 7118SOL     OW28237   3.288   2.436   0.989  0.3413 -0.2325 -0.6030
 7118SOL    HW228238   3.294   2.419   0.895 -0.8116  1.7982 -1.0936
 7118SOL    HW328239   3.378   2.457   1.015  0.8141 -1.6031 -1.0456
 7118SOL    MW428240   3.301   2.436   0.980  0.2515 -0.1454 -0.7261
 7119SOL     OW28241   0.606   3.758   0.195  0.4695 -0.6137  0.2963
 7119SOL    HW228242   0.612   3.847   0.231  0.9512  0.4042 -2.1186
 7119SOL    HW328243   0.550   3.711   0.257 -0.9793  1.7626  0.9153
 7119SOL    MW428244   0.600   3.764   0.208  0.3419 -0.1659  0.0594
 7120SOL     OW28245   2.392   6.256   6.167 -0.1600 -0.1220 -0.1782
 7120SOL    HW228246   2.375   6.271   6.260  0.8121 -1.8295  0.3222
 7120SOL    HW328247   2.418   6.164   6.162 -2.1810 -0.6816 -2.4388
 7120SOL    MW428248   2.393   6.246   6.179 -0.2984 -0.4211 -0.4104
 7121SOL     OW28249   3.680   0.560   0.911 -0.4629 -0.2051 -0.5431
 7121SOL    HW228250   3.657   0.638   0.861 -0.7090 -0.6052 -1.0681
 7121SOL    HW328251   3.675   0.489   0.848 -0.8853 -0.7424  0.0759
 7121SOL    MW428252   3.676   0.561   0.896 -0.5511 -0.3288 -0.5307
 7122SOL     OW28253   3.161   0.363   1.619 -0.1272 -0.3022  0.3806
 7122SOL    HW228254   3.199   0.314   1.693 -0.1169 -2.8788 -1.2188
 7122SOL    HW328255   3.071   0.332   1.614 -0.4750  0.7418  0.0252
 7122SOL    MW428256   3.155   0.352   1.628 -0.1717 -0.5044  0.1227
 7123SOL     OW28257   5.819   2.380   2.991 -0.2062 -0.0928  0.3445
 7123SOL    HW228258   5.848   2.413   3.077  0.3270 -1.3410  0.6634
 7123SOL    HW328259   5.775   2.297   3.011  0.5162 -0.7321 -0.6550
 7123SOL    MW428260   5.817   2.373   3.005 -0.0405 -0.3418  0.2547
 7124SOL     OW28261   2.428   3.713   1.708  0.6164 -0.3110  0.1585
 7124SOL    HW228262   2.419   3.625   1.672 -2.8965  0.4249 -1.2123
 7124SOL    HW328263   2.386   3.709   1.793  2.1110 -0.3299  0.9191
 7124SOL    MW428264   2.421   3.701   1.714  0.3501 -0.2164  0.0780
 7125SOL     OW28265   3.521   5.103   1.750  0.2005  0.3652 -0.1272
 7125SOL    HW228266   3.540   5.162   1.677 -0.6852 -0.3737 -0.9756
 7125SOL    HW328267   3.603   5.055   1.764 -0.5474 -2.0814 -3.0895
 7125SOL    MW428268   3.535   5.105   1.742 -0.0150 -0.0551 -0.6300
 7126SOL     OW28269   1.625   1.185   0.694  0.1118 -0.8497  0.1953
 7126SOL    HW228270   1.587   1.268   0.665 -0.9880 -1.2535  0.4069
 7126SOL    HW328271   1.703   1.209   0.742  0.7680 -0.0369 -1.2044
 7126SOL    MW428272   1.630   1.199   0.696  0.0533 -0.7957  0.0386
 7127SOL     OW28273   4.029   2.380   4.589 -0.0924 -0.0718 -0.5127
 7127SOL    HW228274   3.999   2.317   4.656 -0.7506 -0.2298 -0.9510
 7127SOL    HW328275   4.014   2.465   4.629 -1.2457 -0.1423 -0.7594
 7127SOL    MW428276   4.023   2.383   4.603 -0.3314 -0.1020 -0.6030
 7128SOL     OW28277   4.165   5.106   5.651 -0.1876 -0.1106  0.1206
 7128SOL    HW228278   4.248   5.063   5.632 -1.1482 -0.9519 -2.5839
 7128SOL    HW328279   4.156   5.174   5.585 -0.9344  1.0924  1.3928
 7128SOL    MW428280   4.175   5.109   5.640 -0.4129 -0.0629 -0.0684
 7129SOL     OW28281   4.875   1.525   1.463  0.0027 -0.1730  0.3457
 7129SOL    HW228282   4.950   1.572   1.501  0.1770 -0.7707  0.7568
 7129SOL    HW328283   4.868   1.446   1.515 -0.5131 -0.4359 -0.1173
 7129SOL    MW428284   4.884   1.521   1.475 -0.0424 -0.2865  0.3388
 7130SOL     OW28285   2.122   3.317   2.123  0.5679 -0.0120 -0.1657
 7130SOL    HW228286   2.049   3.269   2.083 -1.2416  1.1682  1.5124
 7130SOL    HW328287   2.196   3.256   2.120 -0.9083 -1.8597 -0.5445
 7130SOL    MW428288   2.122   3.302   2.118  0.1344 -0.1000  0.0057
 7131SOL     OW28289   6.058   1.949   5.377  0.4343 -0.0897  0.2281
 7131SOL    HW228290   6.082   1.924   5.466 -1.3288 -0.8573  0.5311
 7131SOL    HW328291   6.081   2.042   5.371  1.4763 -0.2665  1.1366
 7131SOL    MW428292   6.064   1.958   5.388  0.3392 -0.2143  0.3880
 7132SOL     OW28293   4.656   4.792   3.315 -0.3097  0.2923  0.0189
 7132SOL    HW228294   4.726   4.842   3.357  0.4838  0.3649 -1.3283
 7132SOL    HW328295   4.678   4.795   3.222 -0.4993 -2.1908 -0.1517
 7132SOL    MW428296   4.668   4.799   3.308 -0.2300 -0.0257 -0.1814
 7133SOL     OW28297   2.517   5.989   2.921 -0.1087 -0.6816 -0.2446
 7133SOL    HW228298   2.488   5.898   2.928 -0.0377 -0.7128 -0.3522
 7133SOL    HW328299   2.581   5.988   2.851  1.1483 -0.8532  0.8755
 7133SOL    MW428300   2.521   5.977   2.913  0.0665 -0.7083 -0.1110
 7134SOL     OW28301   0.738   4.857   3.938  0.2351 -0.3696  0.5462
 7134SOL    HW228302   0.758   4.896   4.023 -1.1327 -0.7680  1.0868
 7134SOL    HW328303   0.662   4.801   3.955 -0.2813 -0.1864 -1.0078
 7134SOL    MW428304   0.730   4.855   3.952 -0.0135 -0.3980  0.4125
 7135SOL     OW28305   0.821   3.092   1.294 -0.2424 -0.4730 -0.4916
 7135SOL    HW228306   0.812   3.123   1.384 -1.6837  2.4843 -1.5170
 7135SOL    HW328307   0.915   3.095   1.277 -0.0625  0.1763  0.5374
 7135SOL    MW428308   0.832   3.097   1.303 -0.4089  0.0028 -0.4912
 7136SOL     OW28309   2.641   6.310   2.101 -0.3016 -0.3839  0.3363
 7136SOL    HW228310   2.574   6.242   2.100 -1.1291  0.4169 -1.0982
 7136SOL    HW328311   2.592   6.392   2.106  0.6392  0.1665  0.7951
 7136SOL    MW428312   2.626   6.311   2.102 -0.2866 -0.2057  0.2076
 7137SOL     OW28313   0.592   3.578   0.566  0.2866  0.4930 -0.1993
 7137SOL    HW228314   0.514   3.582   0.622  1.0920 -1.6297  1.1933
 7137SOL    HW328315   0.625   3.668   0.563 -0.9158  1.0026  1.0667
 7137SOL    MW428316   0.586   3.590   0.573  0.2342  0.2802  0.1514
 7138SOL     OW28317   3.656   2.099   5.602  0.3647  0.4043  0.3680
 7138SOL    HW228318   3.588   2.079   5.666  0.1885 -0.7682 -0.1624
 7138SOL    HW328319   3.610   2.145   5.532  0.2113  0.0812  0.2537
 7138SOL    MW428320   3.641   2.102   5.601  0.3212  0.2070  0.2829
 7139SOL     OW28321   0.984   2.536   5.173 -0.6140 -0.8590 -0.9753
 7139SOL    HW228322   0.977   2.450   5.214 -0.6507 -0.1886  0.4586
 7139SOL    HW328323   0.895   2.569   5.169 -0.6163 -0.9269 -1.6403
 7139SOL    MW428324   0.972   2.529   5.178 -0.6191 -0.7795 -0.8738
 7140SOL     OW28325   1.045   1.574   5.308 -0.2707  0.4012 -0.3383
 7140SOL    HW228326   1.084   1.622   5.381  1.6851 -0.8209 -0.5336
 7140SOL    HW328327   1.045   1.636   5.235  0.8480  0.5890 -0.1880
 7140SOL    MW428328   1.050   1.588   5.308  0.1350  0.2647 -0.3442
 7141SOL     OW28329   3.561   2.512   4.216  0.2618  0.5274 -0.0249
 7141SOL    HW228330   3.515   2.581   4.264  0.8794  0.9494 -0.0274
 7141SOL    HW328331   3.517   2.509   4.131 -0.5956  0.0314  0.4296
 7141SOL    MW428332   3.549   2.521   4.211  0.2302  0.5177  0.0347
 7142SOL     OW28333   2.251   0.713   1.359  0.8310 -0.0855  0.3066
 7142SOL    HW228334   2.312   0.768   1.408  0.4643 -0.3546  1.0871
 7142SOL    HW328335   2.295   0.628   1.354  1.4392  0.2778 -0.9808
 7142SOL    MW428336   2.265   0.709   1.365  0.8628 -0.0730  0.2397
 7143SOL     OW28337   4.755   2.164   4.445  0.2369  0.2022  0.2907
 7143SOL    HW228338   4.747   2.246   4.397  4.5190  0.6181 -0.1223
 7143SOL    HW328339   4.713   2.099   4.389  0.1750  1.5485 -1.2861
 7143SOL    MW428340   4.749   2.166   4.431  0.7937  0.4347  0.0282
 7144SOL     OW28341   0.512   2.801   3.962 -0.5548  0.6111  0.6982
 7144SOL    HW228342   0.586   2.858   3.939  0.0364 -0.1605  0.6634
 7144SOL    HW328343   0.438   2.839   3.914  0.0866  0.6531 -0.3032
 7144SOL    MW428344   0.512   2.814   3.952 -0.3922  0.5148  0.5615
 7145SOL     OW28345   0.222   3.745   4.420 -0.5539 -0.4343 -0.0484
 7145SOL    HW228346   0.251   3.772   4.333 -1.9390 -0.0641 -0.4232
 7145SOL    HW328347   0.128   3.733   4.412 -0.5976 -1.2215  1.2037
 7145SOL    MW428348   0.214   3.747   4.408 -0.7424 -0.4893  0.0674
 7146SOL     OW28349   4.373   1.416   1.084  0.3206  0.3965  0.1281
 7146SOL    HW228350   4.384   1.390   1.176  0.1758 -2.5122 -0.5688
 7146SOL    HW328351   4.406   1.341   1.034  0.8877  2.1042 -2.2425
 7146SOL    MW428352   4.379   1.402   1.090  0.3763  0.2380 -0.2767
 7147SOL     OW28353   3.997   4.938   1.231  0.1279  0.3408 -0.2208
 7147SOL    HW228354   4.034   4.877   1.167  0.5934 -0.1523  0.4999
 7147SOL    HW328355   3.929   4.985   1.183  0.5627  0.0826 -1.1112
 7147SOL    MW428356   3.993   4.936   1.216  0.2467  0.2417 -0.2432
 7148SOL     OW28357   0.159   5.690   5.266  0.9644  0.2940  0.4877
 7148SOL    HW228358   0.080   5.736   5.294  1.3173  0.1943  1.6692
 7148SOL    HW328359   0.231   5.747   5.291  1.3926 -0.7707  1.7597
 7148SOL    MW428360   0.158   5.704   5.273  1.0675  0.1404  0.8114
 7149SOL     OW28361   5.440   0.981   0.548  0.3694  0.4837 -0.1145
 7149SOL    HW228362   5.414   0.889   0.537  0.7117  0.3811 -0.0799
 7149SOL    HW328363   5.533   0.977   0.570  0.1382  0.7823  0.9526
 7149SOL    MW428364   5.449   0.968   0.549  0.3840  0.5096  0.0309
 7150SOL     OW28365   4.887   1.173   2.198  0.0692  0.0287 -0.0853
 7150SOL    HW228366   4.974   1.207   2.219  0.0293  0.8602 -1.1980
 7150SOL    HW328367   4.904   1.098   2.140  0.0585 -0.1362  0.1235
 7150SOL    MW428368   4.901   1.168   2.193  0.0625  0.1167 -0.2046
 7151SOL     OW28369   5.448   2.495   2.181 -0.1458  0.4367  0.5572
 7151SOL    HW228370   5.481   2.584   2.168 -1.6251  1.1226  1.2581
 7151SOL    HW328371   5.432   2.489   2.275  1.3935 -1.1339  0.7644
 7151SOL    MW428372   5.450   2.506   2.192 -0.1379  0.3200  0.6770
 7152SOL     OW28373   4.710   4.407   5.733  0.3310 -0.2352 -0.7346
 7152SOL    HW228374   4.679   4.463   5.662  1.0003  0.1424 -0.7378
 7152SOL    HW328375   4.805   4.403   5.720  0.2208 -2.1619 -1.3227
 7152SOL    MW428376   4.718   4.414   5.722  0.4048 -0.4396 -0.8126
 7153SOL     OW28377   4.235   5.141   0.328  0.5015 -0.7469  0.2877
 7153SOL    HW228378   4.203   5.228   0.302  1.3069 -0.5001  0.1047
 7153SOL    HW328379   4.166   5.081   0.298  0.0130 -0.1924  0.2730
 7153SOL    MW428380   4.222   5.145   0.320  0.5433 -0.6412  0.2616
 7154SOL     OW28381   2.348   2.289   1.236  0.4116  0.8626 -0.0818
 7154SOL    HW228382   2.345   2.237   1.155  0.8546 -0.7137  0.8750
 7154SOL    HW328383   2.328   2.378   1.207 -0.3511  0.1964 -1.7969
 7154SOL    MW428384   2.345   2.294   1.222  0.3694  0.5667 -0.1818
 7155SOL     OW28385   1.239   2.758   5.156 -0.0211 -0.0380 -0.2550
 7155SOL    HW228386   1.268   2.753   5.247 -0.0309  1.5588 -0.1427
 7155SOL    HW328387   1.233   2.666   5.128  0.7459 -0.5300  1.0958
 7155SOL    MW428388   1.242   2.745   5.165  0.0788  0.1077 -0.0620
 7156SOL     OW28389   2.025   0.405   0.359  0.0029  0.5943  0.4977
 7156SOL    HW228390   1.938   0.429   0.390 -0.9990  0.4112 -1.9761
 7156SOL    HW328391   2.037   0.315   0.389 -1.3727  0.0507 -0.4774
 7156SOL    MW428392   2.015   0.396   0.367 -0.3108  0.4984  0.0427
 7157SOL     OW28393   0.592   1.990   0.386 -0.3461  0.4209  0.1867
 7157SOL    HW228394   0.640   2.014   0.307 -0.4901  0.9479  0.2527
 7157SOL    HW328395   0.585   2.071   0.436 -0.5457  0.1649  0.5871
 7157SOL    MW428396   0.597   2.004   0.382 -0.3914  0.4567  0.2483
 7158SOL     OW28397   3.548   2.890   5.243  0.4795 -0.0299  0.4461
 7158SOL    HW228398   3.505   2.813   5.207 -0.5951  0.0431  1.5279
 7158SOL    HW328399   3.607   2.855   5.310  0.3346  0.0504  0.6158
 7158SOL    MW428400   3.551   2.875   5.247  0.3186 -0.0096  0.6112
 7159SOL     OW28401   5.480   0.211   3.064 -0.1664 -0.5870 -0.0191
 7159SOL    HW228402   5.447   0.131   3.105  0.5696 -0.3393  1.1137
 7159SOL    HW328403   5.539   0.249   3.130 -0.9438  1.1992 -0.3072
 7159SOL    MW428404   5.484   0.205   3.078 -0.1719 -0.3186  0.0924
 7160SOL     OW28405   2.886   0.591   0.166  0.0563  0.5836  0.5646
 7160SOL    HW228406   2.867   0.664   0.223 -1.6679  2.8193 -2.5581
 7160SOL    HW328407   2.979   0.600   0.144  0.2718  0.7692  1.5278
 7160SOL    MW428408   2.896   0.602   0.171 -0.1427  0.9031  0.2797
 7161SOL     OW28409   4.107   3.727   5.465  0.4974  0.3614  0.0394
 7161SOL    HW228410   4.047   3.728   5.391  0.4147  1.2668  0.1169
 7161SOL    HW328411   4.097   3.639   5.502  2.4757 -1.0762 -2.5651
 7161SOL    MW428412   4.098   3.715   5.460  0.7475  0.2911 -0.2940
 7162SOL     OW28413   2.068   0.339   4.711 -0.6999 -0.1934 -0.1465
 7162SOL    HW228414   2.164   0.343   4.708 -0.6947  0.6389  0.5976
 7162SOL    HW328415   2.042   0.425   4.742 -1.8380  0.4063 -2.6109
 7162SOL    MW428416   2.077   0.351   4.715 -0.8494 -0.0045 -0.3734
 7163SOL     OW28417   1.285   6.086   2.051 -0.1426 -0.2082  0.4380
 7163SOL    HW228418   1.352   6.059   1.987  0.3211 -1.8979  1.5732
 7163SOL    HW328419   1.211   6.028   2.033 -0.5948  0.3673  0.4342
 7163SOL    MW428420   1.284   6.075   2.040 -0.1411 -0.3552  0.5873
 7164SOL     OW28421   3.860   1.301   1.315 -0.3726 -0.2150 -0.8599
 7164SOL    HW228422   3.871   1.230   1.378 -0.3244  0.6809  0.1758
 7164SOL    HW328423   3.765   1.309   1.304 -0.4974  0.9808  0.7422
 7164SOL    MW428424   3.849   1.293   1.322 -0.3827  0.0610 -0.5119
 7165SOL     OW28425   4.155   0.939   5.070  0.2703 -0.4713 -0.1407
 7165SOL    HW228426   4.173   0.987   5.151 -1.7595  0.0147  0.0798
 7165SOL    HW328427   4.112   1.003   5.013 -1.0604 -1.5829 -0.4387
 7165SOL    MW428428   4.152   0.954   5.073 -0.1730 -0.5538 -0.1510
 7166SOL     OW28429   4.524   0.159   0.801  0.4258 -0.2044 -0.3632
 7166SOL    HW228430   4.554   0.110   0.878 -0.0396  1.8381  1.1959
 7166SOL    HW328431   4.601   0.164   0.745  1.1192 -0.7554  0.4972
 7166SOL    MW428432   4.538   0.153   0.804  0.4559 -0.0076 -0.0440
 7167SOL     OW28433   2.423   2.844   4.297 -0.0133 -0.0424  0.4806
 7167SOL    HW228434   2.355   2.833   4.364 -2.9078 -1.4441 -2.3717
 7167SOL    HW328435   2.407   2.931   4.261 -1.3236 -0.8573 -1.0628
 7167SOL    MW428436   2.412   2.854   4.301 -0.5680 -0.3349 -0.0994
 7168SOL     OW28437   2.783   5.796   0.819 -0.1273  0.5922 -0.1080
 7168SOL    HW228438   2.697   5.826   0.788 -1.4477 -2.3764  0.3187
 7168SOL    HW328439   2.767   5.765   0.908  1.1036 -1.0059 -0.4001
 7168SOL    MW428440   2.769   5.796   0.826 -0.1391 -0.0103 -0.0902
 7169SOL     OW28441   5.902   4.777   1.698  0.2713 -0.2936 -1.0412
 7169SOL    HW228442   5.838   4.707   1.688  0.2118 -0.1777 -1.4764
 7169SOL    HW328443   5.963   4.766   1.625  0.3682 -0.0049 -1.0086
 7169SOL    MW428444   5.902   4.766   1.687  0.2762 -0.2402 -1.0943
 7170SOL     OW28445   6.016   0.830   3.669 -0.1134 -0.5637  0.5771
 7170SOL    HW228446   5.947   0.867   3.614  1.1456  0.0433 -0.6371
 7170SOL    HW328447   6.066   0.906   3.699  0.0875 -1.0081  1.3911
 7170SOL    MW428448   6.013   0.845   3.665  0.0792 -0.5422  0.5243
 7171SOL     OW28449   6.270   3.630   3.173  0.4789  0.5807  0.3832
 7171SOL    HW228450   6.297   3.599   3.087  0.7033 -0.6312  0.8574
 7171SOL    HW328451   6.344   3.682   3.205  0.2450  1.3441 -0.2904
 7171SOL    MW428452   6.283   3.632   3.166  0.4776  0.5215  0.3569
 7172SOL     OW28453   4.007   3.490   4.693  0.2389 -0.0363  0.0085
 7172SOL    HW228454   4.001   3.536   4.609 -1.1656  1.5341  0.8937
 7172SOL    HW328455   3.934   3.428   4.691 -0.8381  1.1643  0.6815
 7172SOL    MW428456   3.997   3.488   4.682 -0.0885  0.3293  0.2141
 7173SOL     OW28457   3.090   6.455   5.307 -0.1347  0.6918 -0.4363
 7173SOL    HW228458   3.142   6.416   5.236 -0.1460  0.2122 -0.1867
 7173SOL    HW328459   3.106   6.397   5.382  0.0949  1.3526  0.0277
 7173SOL    MW428460   3.099   6.442   5.308 -0.1059  0.7157 -0.3422
 7174SOL     OW28461   2.651   2.848   5.805  0.0349 -0.0794  0.9190
 7174SOL    HW228462   2.708   2.885   5.871  1.8186 -1.6254  0.3342
 7174SOL    HW328463   2.663   2.753   5.812 -0.9168 -0.3576 -0.5743
 7174SOL    MW428464   2.660   2.840   5.814  0.1446 -0.3201  0.6448
 7175SOL     OW28465   0.984   1.443   0.769  0.2009 -0.1221 -0.8018
 7175SOL    HW228466   1.054   1.444   0.835 -0.1626 -0.8113 -0.3951
 7175SOL    HW328467   0.950   1.533   0.769 -0.6227 -0.4077  0.8532
 7175SOL    MW428468   0.989   1.455   0.778  0.0443 -0.2507 -0.5298
 7176SOL     OW28469   4.908   6.390   5.358  0.4154  0.4346  0.0494
 7176SOL    HW228470   4.881   6.298   5.367  2.1212  0.0076  1.3663
 7176SOL    HW328471   4.827   6.437   5.341 -0.8268 -1.0422  1.5041
 7176SOL    MW428472   4.894   6.384   5.357  0.4766  0.1834  0.4151
 7177SOL     OW28473   2.781   5.174   3.794  0.1607  0.2615  0.0237
 7177SOL    HW228474   2.851   5.199   3.854  0.6053 -3.1674  1.1551
 7177SOL    HW328475   2.826   5.136   3.719 -0.4464 -1.0083  0.2820
 7177SOL    MW428476   2.796   5.173   3.792  0.1392 -0.3584  0.2070
 7178SOL     OW28477   3.123   6.366   0.232  0.4725  0.3607 -0.4057
 7178SOL    HW228478   3.078   6.310   0.295  1.1177 -0.5565 -0.7488
 7178SOL    HW328479   3.188   6.309   0.191  1.7762  1.5850 -0.1072
 7178SOL    MW428480   3.126   6.351   0.235  0.7296  0.4012 -0.4116
 7179SOL     OW28481   1.383   3.036   0.574  0.0037  0.0434  0.2918
 7179SOL    HW228482   1.421   3.076   0.495 -0.1860 -0.7019 -0.1921
 7179SOL    HW328483   1.458   2.995   0.618 -0.0691 -0.5988 -0.1593
 7179SOL    MW428484   1.398   3.036   0.569 -0.0309 -0.1397  0.1684
 7180SOL     OW28485   2.647   2.274   0.679 -0.1292  1.1292 -0.7252
 7180SOL    HW228486   2.623   2.268   0.772 -1.9741  0.0211 -1.2142
 7180SOL    HW328487   2.586   2.214   0.635  1.5431  0.6483 -2.5223
 7180SOL    MW428488   2.635   2.265   0.686 -0.1520  0.9196 -1.0268
 7181SOL     OW28489   0.789   1.252   3.527 -0.0268 -0.1586 -0.0782
 7181SOL    HW228490   0.804   1.238   3.620 -1.3925 -0.6141  0.0991
 7181SOL    HW328491   0.706   1.299   3.523 -1.1163 -2.0439 -1.1109
 7181SOL    MW428492   0.780   1.257   3.539 -0.3508 -0.4675 -0.1911
 7182SOL     OW28493   1.656   0.486   1.594 -0.0587 -0.2525 -0.5383
 7182SOL    HW228494   1.707   0.514   1.519  0.0672  1.7871  0.2428
 7182SOL    HW328495   1.720   0.481   1.666 -0.4428 -0.6090 -0.2146
 7182SOL    MW428496   1.671   0.489   1.594 -0.0928 -0.0304 -0.3925
 7183SOL     OW28497   0.273   2.726   5.250  0.2753 -0.9439 -0.1979
 7183SOL    HW228498   0.202   2.756   5.194  0.4686 -0.2161 -0.0666
 7183SOL    HW328499   0.352   2.765   5.211  0.4402 -0.6330  0.4358
 7183SOL    MW428500   0.274   2.735   5.237  0.3226 -0.8068 -0.0970
 7184SOL     OW28501   2.566   2.329   5.048 -0.1499 -0.1076  0.4119
 7184SOL    HW228502   2.525   2.414   5.036 -0.7359 -0.1710  1.8269
 7184SOL    HW328503   2.493   2.267   5.051  0.1826 -0.4915  0.7068
 7184SOL    MW428504   2.551   2.332   5.047 -0.1834 -0.1666  0.6375
 7185SOL     OW28505   5.240   5.057   1.436  0.4192 -0.4316  0.0490
 7185SOL    HW228506   5.169   5.119   1.454 -0.5880 -1.5685  0.0779
 7185SOL    HW328507   5.201   4.971   1.449  1.9392 -1.0774  0.5064
 7185SOL    MW428508   5.225   5.054   1.440  0.4869 -0.6668  0.1131
 7186SOL     OW28509   4.302   4.415   0.786  0.3670 -0.4045 -0.8176
 7186SOL    HW228510   4.281   4.420   0.692  1.6049  1.9523 -1.0459
 7186SOL    HW328511   4.217   4.404   0.829 -0.3514 -0.3508 -2.1559
 7186SOL    MW428512   4.288   4.414   0.779  0.4356 -0.0865 -1.0243
 7187SOL     OW28513   2.078   1.509   6.187 -0.0715 -0.4066 -0.6804
 7187SOL    HW228514   2.122   1.590   6.162 -1.0481  0.0909 -0.8236
 7187SOL    HW328515   1.988   1.520   6.156 -0.4879 -1.1037  0.2417
 7187SOL    MW428516   2.072   1.521   6.179 -0.2553 -0.4330 -0.5776
 7188SOL     OW28517   0.821   2.597   2.141  0.0673  0.5046  0.0896
 7188SOL    HW228518   0.784   2.561   2.221 -0.9920 -0.1237 -0.6608
 7188SOL    HW328519   0.755   2.579   2.074  1.2380  0.3985 -1.0630
 7188SOL    MW428520   0.807   2.590   2.143  0.0820  0.4077 -0.1614
 7189SOL     OW28521   2.137   3.545   3.174 -0.3042 -0.3004  0.2694
 7189SOL    HW228522   2.119   3.639   3.186  0.5617 -0.0312 -0.4981
 7189SOL    HW328523   2.139   3.510   3.263  0.2205  0.5744  0.6136
 7189SOL    MW428524   2.135   3.553   3.188 -0.1207 -0.1494  0.2136
 7190SOL     OW28525   0.198   0.760   1.776  0.5645 -0.1509 -0.5452
 7190SOL    HW228526   0.177   0.789   1.687  2.5810 -0.4640 -1.1638
 7190SOL    HW328527   0.188   0.839   1.830 -1.3126 -0.1023 -0.8827
 7190SOL    MW428528   0.194   0.774   1.771  0.5829 -0.1858 -0.6713
 7191SOL     OW28529   2.590   5.859   4.692  0.2425  0.6441  0.3996
 7191SOL    HW228530   2.566   5.809   4.770  1.0619 -2.0968 -0.9669
 7191SOL    HW328531   2.519   5.841   4.629  0.2234  1.7769  0.0757
 7191SOL    MW428532   2.577   5.850   4.694  0.3481  0.4320  0.1766
 7192SOL     OW28533   3.486   1.434   5.616  0.2077 -0.6200  0.2611
 7192SOL    HW228534   3.478   1.374   5.689  0.8800 -0.3243  0.5863
 7192SOL    HW328535   3.556   1.494   5.641 -0.8816  0.7212  0.2458
 7192SOL    MW428536   3.494   1.434   5.629  0.1527 -0.4040  0.3020
 7193SOL     OW28537   4.928   4.663   2.883  0.1503  0.2553  0.0324
 7193SOL    HW228538   4.943   4.753   2.854 -1.4681  0.8678  0.9700
 7193SOL    HW328539   4.978   4.610   2.821 -0.6789  1.6561 -1.9591
 7193SOL    MW428540   4.936   4.668   2.871 -0.1726  0.5209 -0.1067
 7194SOL     OW28541   4.708   4.726   0.596  0.8734  0.5064 -0.1473
 7194SOL    HW228542   4.622   4.730   0.554  1.0352 -0.4872 -0.6180
 7194SOL    HW328543   4.770   4.752   0.527  1.0444 -0.0366 -0.2079
 7194SOL    MW428544   4.705   4.730   0.581  0.9173  0.3036 -0.2174
 7195SOL     OW28545   3.265   1.000   5.928  0.2449 -0.2715  0.0758
 7195SOL    HW228546   3.304   0.992   6.015  0.8263  0.0654 -0.1462
 7195SOL    HW328547   3.340   1.006   5.869 -0.0557 -2.7463 -0.7014
 7195SOL    MW428548   3.280   1.000   5.932  0.2819 -0.5536 -0.0560
 7196SOL     OW28549   5.158   1.159   5.459  0.0886 -0.6082  0.9936
 7196SOL    HW228550   5.244   1.137   5.422 -0.5167 -1.9491  0.3278
 7196SOL    HW328551   5.098   1.155   5.385 -0.8293 -1.4173  1.7523
 7196SOL    MW428552   5.162   1.155   5.445 -0.1124 -0.8919  1.0059
 7197SOL     OW28553   0.331   4.149   2.041 -0.2313 -0.6419  0.0674
 7197SOL    HW228554   0.334   4.186   2.129  0.5879 -0.8664  0.1397
 7197SOL    HW328555   0.259   4.196   1.998 -0.2356 -0.0957  0.6561
 7197SOL    MW428556   0.322   4.160   2.047 -0.1238 -0.5995  0.1546
 7198SOL     OW28557   2.556   2.936   3.563 -0.0178 -0.1715 -0.2701
 7198SOL    HW228558   2.611   2.913   3.488 -0.9490 -1.3257 -0.6301
 7198SOL    HW328559   2.515   2.854   3.589 -1.4619  0.6155  0.0732
 7198SOL    MW428560   2.558   2.922   3.557 -0.3312 -0.2200 -0.2723
 7199SOL     OW28561   0.892   1.596   1.384  0.0126 -0.5563 -0.2628
 7199SOL    HW228562   0.918   1.535   1.315  2.8173 -0.5687  0.6870
 7199SOL    HW328563   0.933   1.679   1.361  1.4522 -0.6903  1.5665
 7199SOL    MW428564   0.900   1.599   1.372  0.5726 -0.5756  0.1038
 7200SOL     OW28565   3.614   1.246   2.123 -0.2335  0.3186 -0.4003
 7200SOL    HW228566   3.666   1.307   2.071 -2.3366  1.7399 -0.9839
 7200SOL    HW328567   3.565   1.195   2.058 -2.1223  1.4023  0.1167
 7200SOL    MW428568   3.614   1.247   2.108 -0.7602  0.6491 -0.4091
 7201SOL     OW28569   5.979   4.711   1.957 -0.2300  0.4263  0.5446
 7201SOL    HW228570   5.919   4.744   1.890  2.0400  1.0903 -1.2939
 7201SOL    HW328571   6.065   4.710   1.915  0.8295 -2.2298  2.4483
 7201SOL    MW428572   5.983   4.715   1.943  0.2093  0.1635  0.5532
 7202SOL     OW28573   6.365   1.557   0.157 -0.1349 -0.2164  0.0426
 7202SOL    HW228574   6.383   1.512   0.074  2.9122  0.0199  0.4553
 7202SOL    HW328575   6.323   1.638   0.131 -2.7391 -1.7582 -0.9328
 7202SOL    MW428576   6.362   1.561   0.142 -0.0765 -0.3887 -0.0317
 7203SOL     OW28577   5.829   2.047   4.246  0.7448  0.1513 -0.1931
 7203SOL    HW228578   5.825   1.952   4.258 -0.9532  0.0161 -1.4814
 7203SOL    HW328579   5.797   2.083   4.328  1.2295 -0.3733  0.2410
 7203SOL    MW428580   5.825   2.039   4.258  0.5847  0.0642 -0.3058
 7204SOL     OW28581   5.997   5.191   6.406  0.0456 -0.0813 -0.3049
 7204SOL    HW228582   6.090   5.212   6.396 -0.1299  0.7789 -0.2672
 7204SOL    HW328583   5.976   5.223   6.494  0.3625 -2.8349  0.8651
 7204SOL    MW428584   6.007   5.198   6.416  0.0643 -0.3311 -0.1455
 7205SOL     OW28585   2.941   1.255   5.114 -0.4887  0.1766 -0.0647
 7205SOL    HW228586   3.003   1.195   5.155  0.2886 -0.4527 -2.0910
 7205SOL    HW328587   2.885   1.283   5.187  0.5409 -1.2222  1.3477
 7205SOL    MW428588   2.942   1.251   5.129 -0.2503 -0.0910 -0.1457
 7206SOL     OW28589   4.742   2.683   6.088  0.1403 -0.3415 -0.1887
 7206SOL    HW228590   4.728   2.629   6.011 -1.6956  0.8931 -0.7760
 7206SOL    HW328591   4.738   2.621   6.161  1.2844 -1.4301 -1.0043
 7206SOL    MW428592   4.740   2.668   6.088  0.0490 -0.3222 -0.3738
 7207SOL     OW28593   3.816   5.270   2.537  0.1392 -0.2902  0.0513
 7207SOL    HW228594   3.815   5.225   2.622  2.2749  0.0382  0.2898
 7207SOL    HW328595   3.908   5.269   2.510 -0.2572  1.0620 -1.4936
 7207SOL    MW428596   3.828   5.264   2.544  0.3687 -0.0685 -0.1210
 7208SOL     OW28597   1.405   3.750   0.600 -0.2918 -0.1038  1.1349
 7208SOL    HW228598   1.406   3.823   0.662 -3.3035  0.6581  0.4306
 7208SOL    HW328599   1.432   3.788   0.517 -0.2324 -0.1774  1.1201
 7208SOL    MW428600   1.409   3.764   0.597 -0.6813 -0.0130  1.0400
 7209SOL     OW28601   5.200   1.559   4.939  0.2977 -0.4165  0.3669
 7209SOL    HW228602   5.159   1.546   5.025  0.3579  2.5043  0.9289
 7209SOL    HW328603   5.291   1.582   4.959 -0.0574  1.7922 -0.3172
 7209SOL    MW428604   5.206   1.560   4.953  0.2588  0.2603  0.3508
 7210SOL     OW28605   6.119   4.775   0.116 -0.2204 -0.6105 -0.0244
 7210SOL    HW228606   6.154   4.839   0.055  0.4668 -0.5821  0.3897
 7210SOL    HW328607   6.116   4.821   0.201 -2.9657 -0.0071 -0.3406
 7210SOL    MW428608   6.123   4.789   0.119 -0.4920 -0.5272 -0.0115
 7211SOL     OW28609   3.338   5.303   2.388 -0.1466  0.3136  0.6231
 7211SOL    HW228610   3.264   5.247   2.412 -0.0367  0.1303  0.5388
 7211SOL    HW328611   3.306   5.355   2.314  0.0098 -0.2206  0.1682
 7211SOL    MW428612   3.324   5.302   2.381 -0.1114  0.2189  0.5519
 7212SOL     OW28613   3.024   3.534   4.778 -0.2827 -0.1345 -0.2717
 7212SOL    HW228614   3.034   3.592   4.853  0.5821 -1.8590  1.0274
 7212SOL    HW328615   2.935   3.549   4.747 -0.0719  1.8714 -0.0183
 7212SOL    MW428616   3.014   3.544   4.784 -0.1408 -0.0973 -0.0669
 7213SOL     OW28617   2.849   5.545   5.362  0.4168 -0.0941  0.2892
 7213SOL    HW228618   2.861   5.554   5.457  2.8212  1.7809 -0.0931
 7213SOL    HW328619   2.911   5.478   5.336 -0.8790 -1.2668  0.0896
 7213SOL    MW428620   2.859   5.538   5.371  0.5631 -0.0014  0.2124
 7214SOL     OW28621   5.190   0.346   1.568  0.4176  0.7704 -0.3098
 7214SOL    HW228622   5.245   0.423   1.556 -0.0506  1.7965  3.0266
 7214SOL    HW328623   5.100   0.378   1.557  0.1986  0.8893  1.4742
 7214SOL    MW428624   5.185   0.360   1.565  0.3270  0.9215  0.3658
 7215SOL     OW28625   0.757   6.012   1.300 -0.2482  0.1492 -0.1953
 7215SOL    HW228626   0.817   6.028   1.372 -0.3240  0.5007 -0.2090
 7215SOL    HW328627   0.773   6.084   1.239 -0.0300 -0.2616 -0.6319
 7215SOL    MW428628   0.767   6.023   1.301 -0.2294  0.1414 -0.2547
 7216SOL     OW28629   3.349   1.666   0.669 -0.6263  0.5783  0.1590
 7216SOL    HW228630   3.262   1.636   0.696 -0.9715  0.6827 -0.7772
 7216SOL    HW328631   3.371   1.610   0.594 -0.1366  0.9262  0.0394
 7216SOL    MW428632   3.340   1.654   0.662 -0.6072  0.6380  0.0197
 7217SOL     OW28633   4.116   2.751   3.629  0.2377  0.1248  0.4530
 7217SOL    HW228634   4.201   2.709   3.617  0.8052  1.4885 -0.7473
 7217SOL    HW328635   4.133   2.821   3.692 -0.0413  0.2489  0.3926
 7217SOL    MW428636   4.130   2.755   3.635  0.2757  0.3211  0.2866
 7218SOL     OW28637   2.680   3.109   2.930 -0.6796  0.3629  0.3613
 7218SOL    HW228638   2.723   3.167   2.993  0.8999 -1.3856  1.0135
 7218SOL    HW328639   2.732   3.028   2.934 -1.6127 -0.4167 -1.9062
 7218SOL    MW428640   2.693   3.106   2.939 -0.5944  0.0293  0.1482
 7219SOL     OW28641   1.946   2.413   4.668 -0.0161 -0.5099 -0.0626
 7219SOL    HW228642   1.915   2.484   4.724  0.7300 -1.2614  1.3533
 7219SOL    HW328643   1.873   2.351   4.667  0.2978 -0.9086  0.8355
 7219SOL    MW428644   1.932   2.414   4.675  0.1238 -0.6617  0.2427
 7220SOL     OW28645   5.823   2.034   3.323 -0.3994 -0.1921 -0.3146
 7220SOL    HW228646   5.832   1.939   3.315 -1.3581 -0.1908 -1.6764
 7220SOL    HW328647   5.795   2.063   3.236  0.0507  1.3645  0.0311
 7220SOL    MW428648   5.821   2.025   3.310 -0.4665  0.0134 -0.4487
 7221SOL     OW28649   6.064   1.795   1.088  0.5722  0.0039  0.2092
 7221SOL    HW228650   6.055   1.828   1.178 -0.7584  1.9648 -0.5887
 7221SOL    HW328651   6.015   1.713   1.087 -0.1906  0.4378  1.0433
 7221SOL    MW428652   6.057   1.788   1.100  0.2960  0.3199  0.2140
 7222SOL     OW28653   0.703   2.915   6.305 -0.5543 -0.4496  0.1047
 7222SOL    HW228654   0.785   2.966   6.306 -0.6096 -0.3133 -1.2716
 7222SOL    HW328655   0.664   2.934   6.220 -1.6913 -1.0584  0.4785
 7222SOL    MW428656   0.709   2.924   6.294 -0.7116 -0.5119 -0.0276
 7223SOL     OW28657   3.916   1.923   3.711 -0.0204 -0.3138  0.7034
 7223SOL    HW228658   3.879   1.925   3.623 -0.4469 -2.8435  0.7713
 7223SOL    HW328659   3.864   1.986   3.761 -1.1192 -0.3558 -0.3668
 7223SOL    MW428660   3.905   1.932   3.706 -0.2216 -0.6531  0.5712
 7224SOL     OW28661   6.275   3.233   1.103 -0.1728 -0.3965  0.4338
 7224SOL    HW228662   6.263   3.139   1.112 -1.1513 -0.3921 -0.6117
 7224SOL    HW328663   6.228   3.256   1.023  1.1197  0.7880 -0.0307
 7224SOL    MW428664   6.267   3.224   1.093 -0.1313 -0.2396  0.2346
 7225SOL     OW28665   3.104   2.799   2.695  0.0825 -0.1395 -0.4653
 7225SOL    HW228666   3.187   2.778   2.651  0.6157  0.3791  0.2698
 7225SOL    HW328667   3.090   2.725   2.754  1.2093  0.8101  1.0590
 7225SOL    MW428668   3.113   2.786   2.697  0.3015  0.0542 -0.1672
 7226SOL     OW28669   1.020   4.554   3.386 -0.6263  0.4495  0.4017
 7226SOL    HW228670   0.995   4.471   3.345 -0.0323  0.0710  0.7828
 7226SOL    HW328671   1.033   4.614   3.313  0.3204 -0.1876  0.0303
 7226SOL    MW428672   1.019   4.551   3.371 -0.4230  0.3155  0.4030
 7227SOL     OW28673   3.824   5.742   4.114 -0.2820  0.0924  0.3186
 7227SOL    HW228674   3.754   5.685   4.082  0.4091 -0.8632  0.4586
 7227SOL    HW328675   3.801   5.758   4.206 -0.1723 -0.4738  0.4542
 7227SOL    MW428676   3.812   5.736   4.122 -0.1763 -0.1084  0.3550
 7228SOL     OW28677   4.103   4.011   2.199  0.1356 -0.2406 -0.4083
 7228SOL    HW228678   4.033   3.977   2.144  0.4216 -1.4943 -0.0339
 7228SOL    HW328679   4.121   4.098   2.165 -2.0266  0.3743 -0.1121
 7228SOL    MW428680   4.096   4.018   2.187 -0.1119 -0.3249 -0.3198
 7229SOL     OW28681   5.697   1.560   4.632  0.4864  0.2417 -0.3448
 7229SOL    HW228682   5.606   1.547   4.604  0.1432  2.6720 -0.5989
 7229SOL    HW328683   5.749   1.513   4.567 -0.5234  0.4462 -1.3324
 7229SOL    MW428684   5.692   1.552   4.620  0.3079  0.5893 -0.5086
 7230SOL     OW28685   1.422   2.912   3.216 -0.0415  0.1049 -0.3269
 7230SOL    HW228686   1.391   2.866   3.294 -0.8547  0.9705 -0.1365
 7230SOL    HW328687   1.449   2.841   3.157 -0.9765 -0.6179  0.0840
 7230SOL    MW428688   1.422   2.896   3.219 -0.2721  0.1237 -0.2476
 7231SOL     OW28689   0.184   4.148   4.384  0.6461  0.6553  0.2874
 7231SOL    HW228690   0.115   4.210   4.409 -0.0853 -0.3374  0.7809
 7231SOL    HW328691   0.224   4.123   4.467 -0.2756 -0.9056  0.2946
 7231SOL    MW428692   0.180   4.153   4.398  0.4280  0.3184  0.3535
 7232SOL     OW28693   6.213   2.422   2.247 -0.2418 -0.1857  0.3578
 7232SOL    HW228694   6.246   2.493   2.191  1.6803 -1.0079  0.3685
 7232SOL    HW328695   6.256   2.343   2.213  0.6838 -0.7808  2.6823
 7232SOL    MW428696   6.223   2.421   2.235  0.1339 -0.3727  0.6659
 7233SOL     OW28697   2.037   5.446   3.874  0.1092 -0.4555  0.4138
 7233SOL    HW228698   2.098   5.392   3.824  0.2386  0.8543 -0.9200
 7233SOL    HW328699   2.015   5.518   3.815 -0.9169  0.3501  1.7215
 7233SOL    MW428700   2.042   5.449   3.860 -0.0091 -0.1764  0.4104
 7234SOL     OW28701   4.420   3.166   0.862 -0.5240 -0.2472 -0.0442
 7234SOL    HW228702   4.489   3.175   0.796  0.2298  0.6208  0.8287
 7234SOL    HW328703   4.382   3.254   0.870  0.8487  0.2209  2.1843
 7234SOL    MW428704   4.424   3.179   0.854 -0.2434 -0.0709  0.3650
 7235SOL     OW28705   0.948   1.737   0.773 -0.4850  0.3832 -0.0565
 7235SOL    HW228706   0.922   1.725   0.864 -0.2340  0.5950  0.0472
 7235SOL    HW328707   0.868   1.762   0.727 -0.8165 -0.7174 -0.0950
 7235SOL    MW428708   0.934   1.739   0.779 -0.4956  0.2659 -0.0479
 7236SOL     OW28709   6.242   5.601   0.532 -0.7517  0.2631  0.4918
 7236SOL    HW228710   6.320   5.553   0.561 -0.7608  1.1255  2.0820
 7236SOL    HW328711   6.277   5.677   0.486 -0.7158 -0.4561 -0.7075
 7236SOL    MW428712   6.257   5.605   0.530 -0.7482  0.2820  0.5433
 7237SOL     OW28713   1.321   1.859   3.336  0.7897 -0.6062  0.1743
 7237SOL    HW228714   1.309   1.943   3.380 -1.8490 -0.6626 -0.2907
 7237SOL    HW328715   1.416   1.851   3.326  1.1517  2.1298  0.5589
 7237SOL    MW428716   1.332   1.869   3.340  0.4894 -0.2526  0.1637
 7238SOL     OW28717   5.577   5.218   5.219  0.0603 -0.4878  0.2007
 7238SOL    HW228718   5.642   5.171   5.271 -0.0339  0.5300  1.2678
 7238SOL    HW328719   5.589   5.310   5.242 -1.6336 -0.2588  0.3007
 7238SOL    MW428720   5.587   5.224   5.228 -0.1756 -0.3233  0.3547
 7239SOL     OW28721   2.611   0.841   1.786 -0.8974 -0.1059 -0.0068
 7239SOL    HW228722   2.609   0.768   1.847  0.1027  1.2279  1.7063
 7239SOL    HW328723   2.591   0.918   1.839 -1.0348  0.9826 -1.5729
 7239SOL    MW428724   2.608   0.841   1.801 -0.7836  0.2137  0.0126
 7240SOL     OW28725   1.332   1.302   6.172 -0.1886 -0.2843 -0.0429
 7240SOL    HW228726   1.305   1.240   6.104  0.2828 -0.0746 -0.4310
 7240SOL    HW328727   1.425   1.316   6.156 -0.2358  0.3325  0.1886
 7240SOL    MW428728   1.341   1.296   6.161 -0.1326 -0.1752 -0.0635
 7241SOL     OW28729   5.791   4.065   5.011 -0.2159 -0.4643 -0.4138
 7241SOL    HW228730   5.873   4.101   4.977  0.2445 -0.0057  1.0756
 7241SOL    HW328731   5.722   4.104   4.957  0.5749 -1.7757 -2.4759
 7241SOL    MW428732   5.793   4.075   4.999 -0.0508 -0.5768 -0.4894
 7242SOL     OW28733   1.189   4.274   3.217 -0.3164 -0.4781  0.3573
 7242SOL    HW228734   1.113   4.297   3.270  0.0831 -0.8476  1.0991
 7242SOL    HW328735   1.152   4.252   3.131 -0.9272  0.5039  0.3623
 7242SOL    MW428736   1.174   4.274   3.212 -0.3443 -0.3973  0.4559
 7243SOL     OW28737   0.809   3.277   4.497 -0.8795 -0.6884  0.1288
 7243SOL    HW228738   0.768   3.191   4.501 -0.8126 -0.7967 -1.1186
 7243SOL    HW328739   0.736   3.339   4.503 -1.0861 -0.8606 -0.4882
 7243SOL    MW428740   0.794   3.274   4.498 -0.8979 -0.7254 -0.1172
 7244SOL     OW28741   4.928   5.106   3.318  0.5848  0.3642  0.1247
 7244SOL    HW228742   4.902   5.041   3.382  0.2449 -1.3131 -1.6127
 7244SOL    HW328743   4.998   5.064   3.268  1.7391  2.1030  0.1748
 7244SOL    MW428744   4.934   5.092   3.320  0.6923  0.3723 -0.0979
 7245SOL     OW28745   3.118   2.259   4.127  0.0094 -0.3252  0.3012
 7245SOL    HW228746   3.209   2.255   4.156 -0.2946  0.1415  1.3953
 7245SOL    HW328747   3.088   2.345   4.155 -0.7868 -0.5123  0.0358
 7245SOL    MW428748   3.126   2.270   4.135 -0.1357 -0.2883  0.4105
 7246SOL     OW28749   0.331   6.366   4.530  0.5925 -0.3298  0.8597
 7246SOL    HW228750   0.305   6.457   4.513 -1.5833 -1.3302 -2.3217
 7246SOL    HW328751   0.402   6.350   4.468 -0.1875 -1.1849  0.1488
 7246SOL    MW428752   0.337   6.376   4.519  0.2025 -0.5746  0.3461
 7247SOL     OW28753   3.116   5.421   2.776  0.0008  0.0042  0.0072
 7247SOL    HW228754   3.202   5.460   2.761  0.5273 -0.5371  1.4708
 7247SOL    HW328755   3.084   5.399   2.689  2.6230 -2.4692 -0.4484
 7247SOL    MW428756   3.123   5.423   2.763  0.4162 -0.3935  0.1402
 7248SOL     OW28757   2.081   1.380   4.639  0.3041 -0.4079  0.3953
 7248SOL    HW228758   1.991   1.397   4.666  0.6296 -2.0470  2.9008
 7248SOL    HW328759   2.097   1.290   4.667  2.2133 -0.7383 -1.5384
 7248SOL    MW428760   2.071   1.370   4.646  0.5990 -0.6678  0.4707
 7249SOL     OW28761   3.552   2.066   0.294  0.2334  0.4071 -0.0032
 7249SOL    HW228762   3.477   2.044   0.238 -0.6739  0.5243  1.1430
 7249SOL    HW328763   3.584   2.149   0.259 -0.2598  0.4328 -0.4092
 7249SOL    MW428764   3.546   2.074   0.282  0.0486  0.4260  0.0944
 7250SOL     OW28765   4.035   4.734   0.286 -0.5168  0.2013  0.2084
 7250SOL    HW228766   4.041   4.730   0.381 -1.7476 -1.5931  0.2597
 7250SOL    HW328767   4.011   4.824   0.267 -2.6691  0.0335  1.7972
 7250SOL    MW428768   4.033   4.745   0.296 -0.9632 -0.0576  0.4248
 7251SOL     OW28769   4.876   3.402   2.688 -0.1200 -0.3019  0.1619
 7251SOL    HW228770   4.884   3.372   2.778 -1.8670  0.6802  0.6916
 7251SOL    HW328771   4.865   3.497   2.695  0.2572 -0.1403 -1.1213
 7251SOL    MW428772   4.876   3.411   2.701 -0.3007 -0.1510  0.0625
 7252SOL     OW28773   0.208   5.509   4.074 -0.1337  0.3268  0.3994
 7252SOL    HW228774   0.303   5.520   4.080 -0.0173 -0.7429  0.6439
 7252SOL    HW328775   0.186   5.448   4.144 -0.6552 -1.5064 -1.2833
 7252SOL    MW428776   0.217   5.503   4.084 -0.1872 -0.0562  0.2097
 7253SOL     OW28777   6.413   0.610   5.363 -0.1814 -0.4074 -0.1681
 7253SOL    HW228778   6.325   0.627   5.398 -0.2336 -0.8212 -0.1018
 7253SOL    HW328779   6.445   0.535   5.413  0.6834  0.4768  0.6537
 7253SOL    MW428780   6.406   0.603   5.374 -0.0742 -0.3453 -0.0509
 7254SOL     OW28781   1.797   1.751   2.583 -0.9382 -0.7017 -0.1153
 7254SOL    HW228782   1.724   1.700   2.547 -2.2118  0.9344  0.0296
 7254SOL    HW328783   1.807   1.824   2.521 -0.9187  0.3032  1.0495
 7254SOL    MW428784   1.788   1.754   2.570 -1.1037 -0.3533  0.0575
 7255SOL     OW28785   1.269   0.565   5.658  0.2617  0.4393 -0.0507
 7255SOL    HW228786   1.290   0.618   5.581 -3.1492 -0.5475 -1.8718
 7255SOL    HW328787   1.233   0.484   5.622  0.0788 -0.7706  2.6139
 7255SOL    MW428788   1.267   0.561   5.643 -0.2125  0.1495  0.0606
 7256SOL     OW28789   2.430   2.585   5.003  0.0125 -0.3461 -0.2476
 7256SOL    HW228790   2.466   2.651   4.943  0.6078  0.3964  0.8761
 7256SOL    HW328791   2.460   2.613   5.090 -0.0896 -1.8685  0.3145
 7256SOL    MW428792   2.439   2.598   5.007  0.0776 -0.4490 -0.0252
 7257SOL     OW28793   3.109   5.835   3.274  0.4502 -0.0485 -0.2158
 7257SOL    HW228794   3.048   5.880   3.333 -0.4694 -0.9105 -0.4894
 7257SOL    HW328795   3.133   5.756   3.321  2.8684  1.1559  0.7105
 7257SOL    MW428796   3.104   5.831   3.288  0.6479 -0.0034 -0.1297
 7258SOL     OW28797   3.004   3.859   5.064  0.6977  0.2951 -0.2046
 7258SOL    HW228798   3.019   3.766   5.051 -0.2171  0.1519 -0.3091
 7258SOL    HW328799   3.008   3.872   5.159  1.3956  0.2569 -0.2275
 7258SOL    MW428800   3.006   3.849   5.075  0.6691  0.2712 -0.2214
 7259SOL     OW28801   1.719   3.426   1.361  0.2245  0.6171 -0.3758
 7259SOL    HW228802   1.628   3.452   1.372 -0.5486 -2.5309  1.9448
 7259SOL    HW328803   1.765   3.469   1.433 -0.4095 -1.4519  1.3566
 7259SOL    MW428804   1.713   3.435   1.372  0.0389 -0.0712  0.1589
 7260SOL     OW28805   3.391   3.477   4.721 -0.7699  0.5845 -0.2212
 7260SOL    HW228806   3.481   3.510   4.728 -1.2189  1.6016  1.2496
 7260SOL    HW328807   3.366   3.497   4.630 -0.0007  1.6454 -0.2276
 7260SOL    MW428808   3.400   3.484   4.710 -0.7277  0.8587 -0.0280
 7261SOL     OW28809   0.133   6.353   1.541  0.2329 -0.0241  0.3339
 7261SOL    HW228810   0.043   6.359   1.575  0.2354  2.3244  0.0973
 7261SOL    HW328811   0.185   6.405   1.602  1.0460  0.4286 -0.7092
 7261SOL    MW428812   0.128   6.361   1.554  0.3405  0.3455  0.1651
 7262SOL     OW28813   2.898   5.312   2.933  0.1308  0.0233  0.1253
 7262SOL    HW228814   2.832   5.377   2.909 -1.2385 -0.8215  1.4631
 7262SOL    HW328815   2.981   5.353   2.909 -0.8266  1.3132 -1.1584
 7262SOL    MW428816   2.900   5.326   2.927 -0.1762  0.0820  0.1325
 7263SOL     OW28817   0.804   6.099   2.635 -0.2323  0.5263  0.1586
 7263SOL    HW228818   0.831   6.191   2.625  1.9300 -0.0716  0.1042
 7263SOL    HW328819   0.885   6.051   2.649 -1.0227 -1.7814 -2.3975
 7263SOL    MW428820   0.818   6.105   2.636 -0.0513  0.1429 -0.1858
 7264SOL     OW28821   6.241   2.448   0.325 -0.0977  0.3699 -0.2605
 7264SOL    HW228822   6.278   2.535   0.311 -3.3539  1.9280 -0.1290
 7264SOL    HW328823   6.307   2.388   0.291  0.8094  3.0153 -3.6983
 7264SOL    MW428824   6.254   2.451   0.319 -0.4076  0.9245 -0.6967
 7265SOL     OW28825   2.269   2.703   6.172 -0.1504 -0.4804 -0.0620
 7265SOL    HW228826   2.219   2.742   6.100  0.1552  1.3489  0.6718
 7265SOL    HW328827   2.214   2.632   6.204 -1.2122 -0.0078 -0.7901
 7265SOL    MW428828   2.255   2.699   6.166 -0.2502 -0.1767 -0.0612
 7266SOL     OW28829   0.590   4.388   1.498  0.3920 -0.0344 -0.0145
 7266SOL    HW228830   0.677   4.350   1.510  0.0748 -0.2615  1.9108
 7266SOL    HW328831   0.536   4.316   1.464  0.7279 -0.1675 -0.2631
 7266SOL    MW428832   0.594   4.374   1.495  0.3945 -0.0820  0.2067
 7267SOL     OW28833   0.803   2.161   1.631 -0.1301  0.3619  0.0964
 7267SOL    HW228834   0.767   2.128   1.713 -1.4657  1.6951  0.0962
 7267SOL    HW328835   0.728   2.166   1.572  0.4772  1.0803 -0.6438
 7267SOL    MW428836   0.789   2.157   1.634 -0.2262  0.6326 -0.0013
 7268SOL     OW28837   2.406   0.378   5.747  0.9649 -0.1709  0.0131
 7268SOL    HW228838   2.324   0.363   5.701  0.9397  2.8806 -1.1824
 7268SOL    HW328839   2.386   0.363   5.839 -1.2415  1.3999 -0.1411
 7268SOL    MW428840   2.393   0.374   5.753  0.6705  0.4390 -0.1650
 7269SOL     OW28841   4.373   1.991   4.322  0.1771  0.1824  0.1802
 7269SOL    HW228842   4.371   1.964   4.413 -0.5272 -1.7268 -0.3563
 7269SOL    HW328843   4.297   1.949   4.282 -0.0665  1.7446 -1.1000
 7269SOL    MW428844   4.363   1.982   4.329  0.0520  0.1366 -0.0595
 7270SOL     OW28845   2.675   4.467   4.846  0.5226  1.1557  0.4783
 7270SOL    HW228846   2.623   4.438   4.771 -0.3343 -0.4424  1.6415
 7270SOL    HW328847   2.743   4.400   4.856 -0.1120  0.6668  1.8295
 7270SOL    MW428848   2.677   4.454   4.837  0.3258  0.8804  0.8101
 7271SOL     OW28849   1.168   1.860   4.860 -0.2768  0.1448  0.1773
 7271SOL    HW228850   1.258   1.828   4.860  0.2560  1.3924 -2.4818
 7271SOL    HW328851   1.115   1.784   4.838  0.3081 -0.2286  0.0423
 7271SOL    MW428852   1.173   1.846   4.857 -0.1294  0.2601 -0.1913
 7272SOL     OW28853   1.463   5.966   4.795  0.1251 -0.4793  0.3925
 7272SOL    HW228854   1.382   5.915   4.795  0.0436 -0.3480  0.2499
 7272SOL    HW328855   1.526   5.909   4.839 -0.7826  0.5996  3.3669
 7272SOL    MW428856   1.461   5.952   4.801 -0.0055 -0.3196  0.7661
 7273SOL     OW28857   0.986   2.077   5.212  0.4762  0.2649 -0.0832
 7273SOL    HW228858   0.895   2.049   5.220  0.7826 -0.9338 -0.6222
 7273SOL    HW328859   0.985   2.168   5.242 -1.0773  0.6146 -1.0626
 7273SOL    MW428860   0.974   2.086   5.217  0.3116  0.1529 -0.2836
 7274SOL     OW28861   0.187   1.323   0.409  0.4025  0.7667  0.3782
 7274SOL    HW228862   0.173   1.374   0.330  0.5800 -1.2069 -1.0038
 7274SOL    HW328863   0.102   1.323   0.453 -0.6648 -0.7095 -1.4974
 7274SOL    MW428864   0.174   1.330   0.404  0.2851  0.3115 -0.0516
 7275SOL     OW28865   2.485   0.874   3.986  0.0308 -0.3884 -0.3107
 7275SOL    HW228866   2.485   0.842   3.896 -0.3548  0.8232 -0.7635
 7275SOL    HW328867   2.426   0.950   3.984  0.2392 -0.1820  0.8960
 7275SOL    MW428868   2.477   0.880   3.974  0.0074 -0.2013 -0.2112
 7276SOL     OW28869   2.769   0.633   4.209  0.3921 -0.5082 -0.1479
 7276SOL    HW228870   2.681   0.671   4.221  0.7810  0.3802 -0.0297
 7276SOL    HW328871   2.788   0.590   4.292  1.4373  2.2150  1.1393
 7276SOL    MW428872   2.760   0.633   4.221  0.5813 -0.0317  0.0375
 7277SOL     OW28873   1.333   5.406   5.905 -0.3213  0.6227 -0.3236
 7277SOL    HW228874   1.328   5.387   5.811 -0.3115  1.1255 -0.4289
 7277SOL    HW328875   1.241   5.415   5.932 -0.3688 -0.4413 -0.0848
 7277SOL    MW428876   1.320   5.405   5.896 -0.3263  0.5487 -0.3060
 7278SOL     OW28877   2.663   5.296   5.384  0.7066  0.5938  0.2052
 7278SOL    HW228878   2.728   5.316   5.317  0.2736  1.1057 -0.0624
 7278SOL    HW328879   2.658   5.375   5.437 -1.0588  1.2601 -0.8902
 7278SOL    MW428880   2.671   5.309   5.382  0.4165  0.7492  0.0254
 7279SOL     OW28881   1.843   4.021   1.190 -0.3302 -0.0609  0.1275
 7279SOL    HW228882   1.809   3.983   1.109  0.1552  1.0565 -0.6321
 7279SOL    HW328883   1.930   3.983   1.200 -0.3357 -0.0951  0.0454
 7279SOL    MW428884   1.850   4.011   1.181 -0.2669  0.0820  0.0165
 7280SOL     OW28885   5.540   5.547   3.958  0.1146  0.0969 -0.1559
 7280SOL    HW228886   5.576   5.460   3.941 -0.6468 -0.0668 -1.0069
 7280SOL    HW328887   5.491   5.569   3.878 -1.2254  0.5297  0.7426
 7280SOL    MW428888   5.538   5.539   3.945 -0.1627  0.1324 -0.1496
 7281SOL     OW28889   3.793   4.440   1.058 -0.7211 -0.0179  0.1263
 7281SOL    HW228890   3.719   4.467   1.005 -0.7037  0.1728  0.1996
 7281SOL    HW328891   3.816   4.517   1.110 -0.8471 -0.2529  0.5367
 7281SOL    MW428892   3.787   4.453   1.058 -0.7354 -0.0237  0.1902
 7282SOL     OW28893   3.545   5.837   2.733 -0.5619 -0.0057  0.1738
 7282SOL    HW228894   3.496   5.847   2.651  1.3216  1.2092 -0.8779
 7282SOL    HW328895   3.613   5.773   2.712  0.2077  0.6440  0.6290
 7282SOL    MW428896   3.547   5.830   2.719 -0.2119  0.2403  0.0951
 7283SOL     OW28897   1.417   0.324   3.350  0.6314 -0.4512  0.3575
 7283SOL    HW228898   1.322   0.313   3.350  0.8402 -3.2708 -2.1549
 7283SOL    HW328899   1.441   0.319   3.442 -1.6514  0.9600  1.1241
 7283SOL    MW428900   1.408   0.322   3.362  0.3578 -0.6370  0.1271
 7284SOL     OW28901   3.782   2.120   5.075  0.4277  0.2362  0.1642
 7284SOL    HW228902   3.696   2.148   5.041  0.9577  1.7064 -0.0412
 7284SOL    HW328903   3.767   2.031   5.107 -1.0450  0.2599 -0.3627
 7284SOL    MW428904   3.769   2.112   5.075  0.3033  0.4333  0.0676
 7285SOL     OW28905   2.919   2.736   4.290 -0.2956  0.4948 -0.4349
 7285SOL    HW228906   2.950   2.792   4.218 -0.8756 -1.8738 -2.6881
 7285SOL    HW328907   2.824   2.730   4.276 -0.4735  0.2812  0.7837
 7285SOL    MW428908   2.910   2.743   4.278 -0.3956  0.1541 -0.5714
 7286SOL     OW28909   2.110   4.028   0.114 -0.1083  0.4776 -0.3618
 7286SOL    HW228910   2.110   4.016   0.019  0.2908  1.1970 -0.4570
 7286SOL    HW328911   2.107   3.939   0.149  0.7667  0.1575 -1.0525
 7286SOL    MW428912   2.110   4.014   0.107  0.0598  0.5303 -0.4655
 7287SOL     OW28913   4.323   2.436   3.483 -0.0926  0.1219 -0.3026
 7287SOL    HW228914   4.268   2.379   3.537 -3.1482  1.7455 -1.4628
 7287SOL    HW328915   4.343   2.510   3.541 -0.1201  0.0637 -0.2176
 7287SOL    MW428916   4.318   2.438   3.498 -0.4994  0.3285 -0.4444
 7288SOL     OW28917   3.200   0.391   3.322  0.3616 -0.3876 -0.2558
 7288SOL    HW228918   3.115   0.417   3.286 -0.4505 -0.8040  1.2719
 7288SOL    HW328919   3.236   0.473   3.357  0.9410 -0.0742 -1.5118
 7288SOL    MW428920   3.193   0.406   3.322  0.3309 -0.4011 -0.2199
 7289SOL     OW28921   2.733   4.736   1.345  0.2314 -0.0362 -0.3330
 7289SOL    HW228922   2.667   4.784   1.395  0.2772  1.3237 -1.5171
 7289SOL    HW328923   2.739   4.783   1.262  2.3858 -0.3730 -0.4222
 7289SOL    MW428924   2.725   4.748   1.341  0.5217  0.0988 -0.5010
 7290SOL     OW28925   1.445   2.126   2.401  0.7030  0.3116 -0.3546
 7290SOL    HW228926   1.481   2.057   2.345  1.6495  1.0135 -0.6281
 7290SOL    HW328927   1.491   2.114   2.485  0.4803  0.2733 -0.2391
 7290SOL    MW428928   1.456   2.115   2.405  0.7985  0.3992 -0.3754
 7291SOL     OW28929   3.491   5.081   4.901  0.7992  0.5579  0.3478
 7291SOL    HW228930   3.510   5.113   4.813  0.2162 -1.3637 -0.5462
 7291SOL    HW328931   3.395   5.075   4.905  0.6649  2.5919  1.9162
 7291SOL    MW428932   3.481   5.084   4.890  0.7046  0.5728  0.4367
 7292SOL     OW28933   6.029   3.975   2.087  0.4316 -0.0583 -0.3141
 7292SOL    HW228934   6.065   4.034   2.021  0.7454  1.2369  0.9765
 7292SOL    HW328935   6.021   4.029   2.166 -0.7831 -1.3257  0.4689
 7292SOL    MW428936   6.033   3.990   2.089  0.3127 -0.0546 -0.0405
 7293SOL     OW28937   4.436   1.152   4.711 -0.3822 -0.2755  0.0172
 7293SOL    HW228938   4.352   1.167   4.667  0.4283  1.4732 -1.0196
 7293SOL    HW328939   4.499   1.139   4.640  0.1560 -2.1994  0.7913
 7293SOL    MW428940   4.433   1.152   4.696 -0.2043 -0.2987 -0.0175
 7294SOL     OW28941   4.610   0.277   2.656  0.2351 -0.3137  0.2904
 7294SOL    HW228942   4.645   0.364   2.676  0.8440 -0.9179  2.0755
 7294SOL    HW328943   4.600   0.276   2.560  1.7517  1.1388  0.0765
 7294SOL    MW428944   4.613   0.289   2.646  0.5156 -0.2018  0.4977
 7295SOL     OW28945   2.116   3.873   3.543 -0.1551 -0.3682 -0.4380
 7295SOL    HW228946   2.028   3.839   3.522 -0.7338  1.8974 -1.9412
 7295SOL    HW328947   2.116   3.962   3.511  2.6722 -0.2133 -0.2340
 7295SOL    MW428948   2.104   3.880   3.536  0.1416 -0.0488 -0.6094
 7296SOL     OW28949   0.094   4.197   1.427  0.2779  0.2992 -0.1302
 7296SOL    HW228950   0.112   4.291   1.434  0.3803  0.3311 -0.7274
 7296SOL    HW328951   0.116   4.176   1.336 -1.7159  0.1157 -0.6084
 7296SOL    MW428952   0.099   4.207   1.416  0.0284  0.2792 -0.2721
 7297SOL     OW28953   4.194   2.070   0.212  0.2118  0.3451  0.2130
 7297SOL    HW228954   4.243   2.124   0.273  0.4648 -1.0915  1.3274
 7297SOL    HW328955   4.105   2.070   0.246 -0.4268  2.1088 -1.2404
 7297SOL    MW428956   4.189   2.077   0.224  0.1609  0.3883  0.1682
 7298SOL     OW28957   2.108   0.603   0.751  0.1569 -0.4578  0.2700
 7298SOL    HW228958   2.045   0.661   0.707  0.2593 -0.3744  0.2311
 7298SOL    HW328959   2.178   0.591   0.686  0.1516 -0.5978  0.2915
 7298SOL    MW428960   2.109   0.609   0.737  0.1697 -0.4653  0.2677
 7299SOL     OW28961   0.288   6.311   6.271  0.0965 -0.5762  0.3453
 7299SOL    HW228962   0.289   6.324   6.176 -0.2926 -2.1780  0.0951
 7299SOL    HW328963   0.380   6.313   6.296  0.1768  0.2972  0.0057
 7299SOL    MW428964   0.300   6.313   6.262  0.0557 -0.6723  0.2675
 7300SOL     OW28965   3.824   3.123   1.502 -0.0692  0.1425  0.2313
 7300SOL    HW228966   3.919   3.114   1.492 -0.1032 -2.1081  1.3360
 7300SOL    HW328967   3.804   3.078   1.583 -2.0413  1.1745  0.3802
 7300SOL    MW428968   3.834   3.116   1.511 -0.3339 -0.0182  0.3967
 7301SOL     OW28969   2.518   3.292   5.906  0.0603 -0.1500  0.4577
 7301SOL    HW228970   2.566   3.223   5.859 -1.1328 -0.4531 -0.3466
 7301SOL    HW328971   2.523   3.368   5.849 -0.5142 -0.2153  0.3206
 7301SOL    MW428972   2.525   3.293   5.892 -0.1729 -0.1986  0.3335
 7302SOL     OW28973   0.641   5.673   5.285 -0.4274  0.0004 -0.6191
 7302SOL    HW228974   0.697   5.597   5.269  0.3262  0.6105 -0.9514
 7302SOL    HW328975   0.573   5.641   5.343  0.3831 -0.7171 -0.0448
 7302SOL    MW428976   0.640   5.659   5.290 -0.2210 -0.0137 -0.5871
 7303SOL     OW28977   2.301   3.588   4.792 -0.2292  0.5405 -0.2301
 7303SOL    HW228978   2.298   3.677   4.827  2.5196  0.7672 -0.3105
 7303SOL    HW328979   2.307   3.599   4.697 -0.0551  0.2934 -0.2510
 7303SOL    MW428980   2.302   3.601   4.784  0.1564  0.5378 -0.2435
 7304SOL     OW28981   2.563   3.714   2.077  0.5764  0.0065 -0.4716
 7304SOL    HW228982   2.557   3.693   2.170  0.3069  0.0261 -0.4832
 7304SOL    HW328983   2.551   3.630   2.032  0.4540  0.0352 -0.4936
 7304SOL    MW428984   2.561   3.701   2.083  0.5247  0.0129 -0.4760
 7305SOL     OW28985   3.426   2.168   4.943 -0.0911 -0.1122  0.3323
 7305SOL    HW228986   3.457   2.251   4.907 -0.2045 -0.4035 -0.4591
 7305SOL    HW328987   3.459   2.101   4.882 -1.3051 -0.5143  0.0903
 7305SOL    MW428988   3.434   2.170   4.930 -0.2662 -0.2036  0.1960
 7306SOL     OW28989   0.102   4.257   0.008 -0.0731 -0.1752 -0.4486
 7306SOL    HW228990   0.052   4.293   0.081 -0.2327 -0.5436 -0.3761
 7306SOL    HW328991   0.039   4.202  -0.039 -0.2993  0.9651 -1.5299
 7306SOL    MW428992   0.087   4.254   0.011 -0.1240 -0.0733 -0.5817
 7307SOL     OW28993   3.396   3.819   0.048 -0.2161  0.8383 -0.1049
 7307SOL    HW228994   3.410   3.882   0.119 -0.5321 -0.2130  0.9378
 7307SOL    HW328995   3.484   3.784   0.029 -0.3005  0.0856  0.7990
 7307SOL    MW428996   3.410   3.822   0.055 -0.2689  0.6003  0.1519
 7308SOL     OW28997   5.357   4.915   0.623 -0.4691  0.4332  0.5429
 7308SOL    HW228998   5.410   4.994   0.633  0.1461  0.1709 -0.5784
 7308SOL    HW328999   5.418   4.842   0.636 -0.7539  0.1321  0.2261
 7308SOL    MW429000   5.372   4.916   0.626 -0.4255  0.3589  0.3532
 7309SOL     OW29001   0.354   5.572   0.786  0.0653 -0.0310  0.0587
 7309SOL    HW229002   0.333   5.481   0.767  0.8881 -0.0125 -1.0021
 7309SOL    HW329003   0.355   5.616   0.701  1.2889  0.6138  0.3779
 7309SOL    MW429004   0.352   5.566   0.773  0.3353  0.0565 -0.0391
 7310SOL     OW29005   1.897   4.299   2.809 -0.2952  0.1614  0.4774
 7310SOL    HW229006   1.855   4.218   2.780  2.8487 -1.6148  0.3893
 7310SOL    HW329007   1.911   4.349   2.728  2.0385 -1.5250 -0.2841
 7310SOL    MW429008   1.893   4.295   2.794  0.4275 -0.2955  0.3653
 7311SOL     OW29009   1.281   0.233   1.199 -0.4012  0.2415  0.2390
 7311SOL    HW229010   1.254   0.227   1.107  0.1717 -2.4629  0.1867
 7311SOL    HW329011   1.376   0.235   1.196 -0.2875 -2.0801  0.7862
 7311SOL    MW429012   1.290   0.233   1.186 -0.3106 -0.4216  0.3043
 7312SOL     OW29013   3.916   3.726   0.000 -0.2459 -0.0462  0.2025
 7312SOL    HW229014   4.008   3.753   0.003 -0.5318  1.1405 -0.6289
 7312SOL    HW329015   3.907   3.680  -0.083 -0.4066 -0.1083  0.2539
 7312SOL    MW429016   3.927   3.724  -0.011 -0.3049  0.1022  0.0996
 7313SOL     OW29017   2.811   1.837   4.948 -0.8569  0.6362  0.4175
 7313SOL    HW229018   2.866   1.912   4.924  0.7620 -1.2429 -2.2592
 7313SOL    HW329019   2.836   1.818   5.039  0.7813  1.6403  0.2313
 7313SOL    MW429020   2.822   1.844   4.957 -0.4272  0.5208  0.0397
 7314SOL     OW29021   0.110   1.076   0.737  0.3978  0.2813  0.2742
 7314SOL    HW229022   0.180   1.065   0.802 -0.1606 -1.3379  0.6574
 7314SOL    HW329023   0.145   1.035   0.658 -0.6878 -2.1072  0.9408
 7314SOL    MW429024   0.124   1.069   0.735  0.1809 -0.2475  0.4127
 7315SOL     OW29025   6.428   3.353   3.806 -0.0377 -0.4226 -0.1799
 7315SOL    HW229026   6.472   3.270   3.789 -1.1545 -1.2594  0.8142
 7315SOL    HW329027   6.497   3.411   3.839  0.5946 -1.2452 -0.0220
 7315SOL    MW429028   6.443   3.350   3.808 -0.1016 -0.6416 -0.0279
 7316SOL     OW29029   2.564   5.301   4.953 -0.3912 -0.7228  0.4097
 7316SOL    HW229030   2.557   5.207   4.933  0.0284 -0.8146  0.6676
 7316SOL    HW329031   2.557   5.344   4.867 -1.1457 -0.9509  0.3510
 7316SOL    MW429032   2.562   5.294   4.939 -0.4354 -0.7650  0.4360
 7317SOL     OW29033   1.556   2.297   4.266  0.2707 -0.2653 -0.8025
 7317SOL    HW229034   1.601   2.300   4.350 -1.6398 -0.1873  0.2689
 7317SOL    HW329035   1.573   2.383   4.227 -1.9601  1.2994  1.3149
 7317SOL    MW429036   1.564   2.309   4.272 -0.2757 -0.0486 -0.3818
 7318SOL     OW29037   4.573   5.739   4.327  0.1060  0.7229 -0.2685
 7318SOL    HW229038   4.480   5.722   4.341  0.1509  0.2208 -0.5565
 7318SOL    HW329039   4.596   5.683   4.252  0.6232  0.8914 -0.2344
 7318SOL    MW429040   4.564   5.729   4.319  0.1802  0.6789 -0.3020
 7319SOL     OW29041   0.661   1.730   3.387 -0.1069  0.2678  0.0978
 7319SOL    HW229042   0.707   1.804   3.427  2.3505  0.1305 -2.2079
 7319SOL    HW329043   0.668   1.745   3.293 -2.5762 -1.2052 -0.4273
 7319SOL    MW429044   0.668   1.741   3.380 -0.1085  0.0553 -0.2757
 7320SOL     OW29045   2.488   1.379   4.186 -0.0557  0.5231 -0.2238
 7320SOL    HW229046   2.464   1.445   4.251  0.1002 -0.8042  1.2519
 7320SOL    HW329047   2.570   1.342   4.220  0.1565 -0.0308 -1.3139
 7320SOL    MW429048   2.496   1.382   4.199 -0.0071  0.2749 -0.1729
 7321SOL     OW29049   3.511   5.010   2.789 -0.0218  0.2110  0.4167
 7321SOL    HW229050   3.462   5.049   2.862  2.1607  2.3687  0.8751
 7321SOL    HW329051   3.532   4.922   2.818  3.0140  1.7680  3.7602
 7321SOL    MW429052   3.508   5.004   2.802  0.6667  0.7011  0.9183
 7322SOL     OW29053   5.736   5.738   6.150  0.3262 -0.2816  0.5004
 7322SOL    HW229054   5.659   5.792   6.166  0.4106  0.4582 -1.4060
 7322SOL    HW329055   5.701   5.649   6.144 -0.9601  0.2889 -3.1964
 7322SOL    MW429056   5.721   5.733   6.152  0.1677 -0.1087 -0.2389
 7323SOL     OW29057   5.141   0.305   4.898  0.8930  0.2413 -0.6462
 7323SOL    HW229058   5.183   0.337   4.818  0.6034 -0.1449 -0.9546
 7323SOL    HW329059   5.169   0.213   4.904  0.1835  0.0113 -0.7988
 7323SOL    MW429060   5.151   0.297   4.888  0.7612  0.1600 -0.7070
 7324SOL     OW29061   4.782   1.114   3.143 -0.3016 -0.1664  0.3240
 7324SOL    HW229062   4.749   1.164   3.069 -1.0153  0.9266  1.3551
 7324SOL    HW329063   4.708   1.061   3.171 -0.4488  0.4307  1.0882
 7324SOL    MW429064   4.768   1.113   3.137 -0.4152  0.0566  0.5609
 7325SOL     OW29065   5.252   2.811   6.186 -0.3468  0.0383  0.1831
 7325SOL    HW229066   5.160   2.788   6.173 -1.1214  1.9229  1.8305
 7325SOL    HW329067   5.281   2.844   6.101 -0.7216 -1.8909 -0.7440
 7325SOL    MW429068   5.244   2.812   6.173 -0.4985  0.0324  0.2781
 7326SOL     OW29069   1.813   6.146   5.744  0.5081  0.0399 -0.0293
 7326SOL    HW229070   1.740   6.148   5.806 -0.2100  1.5127 -0.8620
 7326SOL    HW329071   1.870   6.217   5.772  0.7719 -0.0459 -0.3499
 7326SOL    MW429072   1.811   6.156   5.756  0.4481  0.2229 -0.1815
 7327SOL     OW29073   0.211   4.650   0.670  0.1381  0.5573  1.1186
 7327SOL    HW229074   0.126   4.638   0.629  0.1990  0.4820  1.0139
 7327SOL    HW329075   0.208   4.738   0.708 -0.0224  0.5153  1.2008
 7327SOL    MW429076   0.200   4.660   0.670  0.1249  0.5418  1.1156
 7328SOL     OW29077   1.662   6.414   3.095  0.6683 -0.0841  0.1249
 7328SOL    HW229078   1.582   6.416   3.043  0.1020 -0.5480  0.9393
 7328SOL    HW329079   1.639   6.360   3.171  2.0321 -0.9628 -0.0678
 7328SOL    MW429080   1.648   6.407   3.098  0.7735 -0.2612  0.2069
 7329SOL     OW29081   0.613   3.671   2.290 -0.3562  0.5902 -1.1038
 7329SOL    HW229082   0.556   3.673   2.212 -3.6622  0.6284  1.0912
 7329SOL    HW329083   0.624   3.762   2.314 -0.4994  0.5311 -0.8038
 7329SOL    MW429084   0.607   3.683   2.283 -0.8113  0.5875 -0.7746
 7330SOL     OW29085   1.366   1.463   2.594 -0.0913  0.2079  0.0949
 7330SOL    HW229086   1.291   1.488   2.648  1.1118 -0.5923  2.2681
 7330SOL    HW329087   1.328   1.414   2.521 -1.7268  0.4188  0.7682
 7330SOL    MW429088   1.351   1.459   2.591 -0.1483  0.1301  0.4705
 7331SOL     OW29089   3.430   2.624   6.401  0.1872  0.3623  0.0016
 7331SOL    HW229090   3.346   2.623   6.354 -1.1009  0.7058  2.1450
 7331SOL    HW329091   3.461   2.714   6.392  1.9203 -0.3903 -3.2427
 7331SOL    MW429092   3.423   2.636   6.394  0.2459  0.3083 -0.1437
 7332SOL     OW29093   2.515   5.357   1.899 -0.4897 -0.0639  0.4855
 7332SOL    HW229094   2.429   5.322   1.875  0.1011  1.0342 -4.2011
 7332SOL    HW329095   2.498   5.449   1.920 -0.5668 -0.1444  0.7875
 7332SOL    MW429096   2.501   5.365   1.899 -0.4219  0.0703 -0.0930
 7333SOL     OW29097   0.570   1.357   3.198 -0.0414 -0.1565 -0.9303
 7333SOL    HW229098   0.609   1.434   3.238 -1.7882 -0.2243  1.0746
 7333SOL    HW329099   0.518   1.391   3.125 -1.2520  0.6980  0.2731
 7333SOL    MW429100   0.568   1.371   3.194 -0.4316 -0.0527 -0.5070
 7334SOL     OW29101   1.325   4.154   4.104 -0.1814 -0.1751 -0.8139
 7334SOL    HW229102   1.409   4.125   4.138  0.0477  0.8205 -0.4926
 7334SOL    HW329103   1.317   4.111   4.019  0.3084 -0.8584 -0.5199
 7334SOL    MW429104   1.335   4.145   4.097 -0.0865 -0.1339 -0.7328
 7335SOL     OW29105   3.424   6.102   3.811 -0.5301 -0.4171  0.1327
 7335SOL    HW229106   3.400   6.087   3.719  1.0313 -1.1479 -0.1818
 7335SOL    HW329107   3.509   6.144   3.806 -0.9776  0.6622  1.2481
 7335SOL    MW429108   3.432   6.106   3.798 -0.3831 -0.3711  0.2384
 7336SOL     OW29109   0.736   0.399   3.915  0.2688 -0.4235  0.2276
 7336SOL    HW229110   0.743   0.309   3.949  0.3543 -0.8785 -0.9215
 7336SOL    HW329111   0.642   0.410   3.897 -0.5417  1.3575  4.4608
 7336SOL    MW429112   0.724   0.388   3.917  0.1732 -0.2485  0.6345
 7337SOL     OW29113   0.946   4.242   6.183 -0.5089  0.1223 -0.1100
 7337SOL    HW229114   0.969   4.308   6.248 -1.5352  1.4922 -1.0588
 7337SOL    HW329115   0.909   4.170   6.234  0.2812  0.4209  0.9296
 7337SOL    MW429116   0.944   4.241   6.198 -0.5400  0.3424 -0.0980
 7338SOL     OW29117   1.974   1.116   2.644  0.2925 -0.5872 -0.2314
 7338SOL    HW229118   2.066   1.135   2.661  0.2061  1.4319 -1.6930
 7338SOL    HW329119   1.931   1.128   2.729  1.0003  1.2700 -0.0805
 7338SOL    MW429120   1.980   1.120   2.658  0.3745 -0.0757 -0.4043
 7339SOL     OW29121   3.416   0.281   5.333 -0.4048 -0.0095 -0.8411
 7339SOL    HW229122   3.371   0.360   5.303 -0.9849  0.1249  0.3057
 7339SOL    HW329123   3.508   0.306   5.341 -0.4365  0.2788 -1.3654
 7339SOL    MW429124   3.422   0.295   5.330 -0.4855  0.0463 -0.7590
 7340SOL     OW29125   5.830   0.951   3.486  0.3148 -0.1314  0.2899
 7340SOL    HW229126   5.792   1.033   3.454  2.2871  0.2824 -1.2172
 7340SOL    HW329127   5.790   0.883   3.431 -0.9847 -0.1570  1.2386
 7340SOL    MW429128   5.820   0.953   3.474  0.4036 -0.0802  0.2162
 7341SOL     OW29129   0.809   3.278   2.475  0.5467  0.2317 -0.0506
 7341SOL    HW229130   0.854   3.300   2.557 -1.0201 -1.0326  1.2107
 7341SOL    HW329131   0.872   3.222   2.428  1.5392  1.1328  0.1530
 7341SOL    MW429132   0.823   3.273   2.479  0.4709  0.1838  0.1427
 7342SOL     OW29133   1.858   2.996   5.720  0.1573 -0.3113 -0.2828
 7342SOL    HW229134   1.928   2.934   5.697 -0.1158 -1.1771  1.0727
 7342SOL    HW329135   1.894   3.082   5.698  0.8389 -0.8851 -1.5261
 7342SOL    MW429136   1.872   2.999   5.714  0.2112 -0.5012 -0.2680
 7343SOL     OW29137   2.902   4.666   4.245 -0.0860 -0.1164 -0.3848
 7343SOL    HW229138   2.959   4.694   4.173  0.3632 -0.8850 -0.3357
 7343SOL    HW329139   2.938   4.711   4.322  0.2721 -0.3562 -0.4086
 7343SOL    MW429140   2.915   4.676   4.246  0.0205 -0.2494 -0.3815
 7344SOL     OW29141   6.173   2.672   1.519  0.5839 -0.1041 -0.0133
 7344SOL    HW229142   6.079   2.656   1.523  0.7736 -1.3223 -0.2474
 7344SOL    HW329143   6.181   2.766   1.535 -0.5666 -0.2007  1.4039
 7344SOL    MW429144   6.161   2.682   1.522  0.4571 -0.2776  0.1428
 7345SOL     OW29145   1.860   6.369   5.436 -0.1205  0.3493 -0.0888
 7345SOL    HW229146   1.768   6.360   5.412 -0.8702  0.9671  2.2483
 7345SOL    HW329147   1.860   6.437   5.503  2.0988  0.5893 -0.2739
 7345SOL    MW429148   1.848   6.377   5.442  0.0734  0.4625  0.1951
 7346SOL     OW29149   2.534   6.378   1.526 -0.1258 -0.2518  0.3257
 7346SOL    HW229150   2.447   6.366   1.564 -0.3284  0.2254  0.0181
 7346SOL    HW329151   2.559   6.291   1.495 -1.4902  0.0355 -1.7161
 7346SOL    MW429152   2.526   6.365   1.527 -0.3326 -0.1509  0.0157
 7347SOL     OW29153   1.486   1.585   0.152  0.0261  0.2748  0.2008
 7347SOL    HW229154   1.523   1.593   0.241  0.2261  0.7442  0.0818
 7347SOL    HW329155   1.455   1.495   0.147  1.3441 -0.2107  0.2407
 7347SOL    MW429156   1.487   1.575   0.163  0.2263  0.2727  0.1903
 7348SOL     OW29157   4.180   4.076   4.288 -0.4351  0.5022 -0.7486
 7348SOL    HW229158   4.261   4.055   4.335  0.5950  1.8573 -1.8232
 7348SOL    HW329159   4.131   4.131   4.348  0.7084  1.9341 -1.0768
 7348SOL    MW429160   4.184   4.080   4.302 -0.1483  0.8699 -0.9337
 7349SOL     OW29161   0.419   2.612   3.474 -0.2160  0.2557 -0.3188
 7349SOL    HW229162   0.479   2.602   3.548  1.3369 -1.0006 -1.6742
 7349SOL    HW329163   0.392   2.523   3.452  0.9718  0.3525 -2.4851
 7349SOL    MW429164   0.423   2.599   3.481  0.1456  0.1027 -0.7835
 7350SOL     OW29165   0.437   2.686   5.486 -0.2471 -0.1490 -0.8249
 7350SOL    HW229166   0.396   2.691   5.400 -0.9349 -0.6876 -0.5355
 7350SOL    HW329167   0.495   2.762   5.490 -0.1431 -0.1714 -1.7944
 7350SOL    MW429168   0.439   2.697   5.476 -0.3241 -0.2230 -0.9146
 7351SOL     OW29169   5.967   1.056   0.423 -0.2442 -0.0251 -0.0635
 7351SOL    HW229170   5.932   1.113   0.354  1.6645  1.8178  0.3644
 7351SOL    HW329171   6.050   1.023   0.387 -1.0347 -2.1252 -0.0590
 7351SOL    MW429172   5.974   1.059   0.409 -0.0966 -0.0590 -0.0064
 7352SOL     OW29173   1.625   1.023   5.321 -0.1206 -0.5352 -0.0000
 7352SOL    HW229174   1.570   1.101   5.332 -0.2800 -0.7783  1.0949
 7352SOL    HW329175   1.566   0.958   5.284 -0.5786 -0.7690  1.0942
 7352SOL    MW429176   1.610   1.025   5.318 -0.2021 -0.5981  0.2888
 7353SOL     OW29177   4.290   0.818   5.608  0.3653 -0.0011  0.5649
 7353SOL    HW229178   4.241   0.738   5.588  0.1746 -0.0973  1.3824
 7353SOL    HW329179   4.359   0.821   5.542 -1.2851  0.6423 -1.2709
 7353SOL    MW429180   4.292   0.808   5.597  0.1224  0.0711  0.4306
 7354SOL     OW29181   0.180   6.438   5.308 -0.2025 -0.0543  0.3554
 7354SOL    HW229182   0.143   6.391   5.383  0.5917  0.0931  0.8454
 7354SOL    HW329183   0.242   6.377   5.269  0.5005  0.4233  0.7242
 7354SOL    MW429184   0.183   6.424   5.312 -0.0050  0.0281  0.4687
 7355SOL     OW29185   3.258   3.331   3.499  0.2252  0.4078  0.0897
 7355SOL    HW229186   3.297   3.322   3.412 -0.7682 -1.0705 -0.2464
 7355SOL    HW329187   3.209   3.413   3.495  1.4559  1.1489 -0.2031
 7355SOL    MW429188   3.256   3.340   3.487  0.2565  0.3106  0.0068
 7356SOL     OW29189   2.971   2.631   2.313  0.3169  0.2378  0.1996
 7356SOL    HW229190   3.058   2.671   2.323  0.8990 -1.3821  2.3340
 7356SOL    HW329191   2.990   2.538   2.295 -0.9210 -0.4932  2.3706
 7356SOL    MW429192   2.985   2.624   2.312  0.2304 -0.0724  0.7677
 7357SOL     OW29193   4.547   0.342   4.434 -0.5622  0.2816 -0.3580
 7357SOL    HW229194   4.526   0.423   4.388 -1.4475  0.7439  0.8116
 7357SOL    HW329195   4.588   0.287   4.368 -0.1427  1.5979 -1.2342
 7357SOL    MW429196   4.550   0.345   4.419 -0.6237  0.5163 -0.3193
 7358SOL     OW29197   5.982   2.723   2.784 -0.0787  0.9891 -0.5000
 7358SOL    HW229198   5.976   2.667   2.706  0.3061  0.2928 -0.0491
 7358SOL    HW329199   5.988   2.812   2.750 -1.5859  0.8447 -1.2240
 7358SOL    MW429200   5.982   2.727   2.770 -0.2268  0.8782 -0.5360
 7359SOL     OW29201   5.631   3.003   1.886  0.7066  0.3382 -0.3653
 7359SOL    HW229202   5.672   2.968   1.807 -1.2535  0.9545 -1.7363
 7359SOL    HW329203   5.647   3.098   1.881 -1.3585  0.6922 -1.3070
 7359SOL    MW429204   5.639   3.011   1.875  0.1755  0.4662 -0.6705
 7360SOL     OW29205   0.037   1.693   5.892 -0.0916 -0.3241  0.2582
 7360SOL    HW229206  -0.052   1.728   5.901 -0.2674 -0.8574  0.6002
 7360SOL    HW329207   0.050   1.685   5.798 -0.3723 -0.1602  0.2045
 7360SOL    MW429208   0.027   1.697   5.881 -0.1518 -0.3728  0.2962
 7361SOL     OW29209   4.942   3.542   1.785 -0.1008  0.0946 -0.1559
 7361SOL    HW229210   4.897   3.513   1.706 -0.7827 -1.2054  0.6863
 7361SOL    HW329211   4.878   3.598   1.830  0.0706  0.3428 -0.2160
 7361SOL    MW429212   4.928   3.546   1.780 -0.1682 -0.0442 -0.0527
 7362SOL     OW29213   4.176   5.985   4.731  0.0674 -0.2065  0.0830
 7362SOL    HW229214   4.270   5.986   4.747  0.1712 -0.8619 -0.4505
 7362SOL    HW329215   4.153   5.893   4.732 -0.5441 -0.0563  0.0525
 7362SOL    MW429216   4.185   5.973   4.733  0.0004 -0.2731  0.0086
 7363SOL     OW29217   5.395   4.080   1.839 -0.5627 -0.6112  0.5263
 7363SOL    HW229218   5.418   4.116   1.753  2.0763 -0.6562  1.1086
 7363SOL    HW329219   5.339   4.005   1.820 -0.4770 -0.2964 -1.1286
 7363SOL    MW429220   5.391   4.075   1.825 -0.2032 -0.5756  0.3848
 7364SOL     OW29221   5.374   5.610   3.736 -0.2320  0.1105 -0.1234
 7364SOL    HW229222   5.316   5.685   3.737 -1.9262 -1.1159 -0.8212
 7364SOL    HW329223   5.422   5.618   3.653  0.6358  1.1281  0.4562
 7364SOL    MW429224   5.373   5.621   3.725 -0.3411  0.0830 -0.1390
 7365SOL     OW29225   2.976   4.510   0.324  0.3387  0.4728  0.5222
 7365SOL    HW229226   2.996   4.525   0.416  0.7494  1.6687  0.2594
 7365SOL    HW329227   2.910   4.575   0.303  0.8008  0.7160 -0.2150
 7365SOL    MW429228   2.970   4.520   0.333  0.4538  0.6627  0.3903
 7366SOL     OW29229   0.648   3.908   5.642  0.1787  0.3177  0.2356
 7366SOL    HW229230   0.720   3.854   5.674  0.8109  1.2993  0.5427
 7366SOL    HW329231   0.586   3.846   5.604  0.0077 -0.7820  2.1940
 7366SOL    MW429232   0.649   3.893   5.641  0.2395  0.3021  0.5345
 7367SOL     OW29233   5.710   4.221   0.694 -0.1972 -0.2942  0.3492
 7367SOL    HW229234   5.626   4.218   0.740  0.1517  1.7011  1.2073
 7367SOL    HW329235   5.690   4.262   0.610 -0.2710 -0.9408  0.0441
 7367SOL    MW429236   5.696   4.226   0.689 -0.1609 -0.1163  0.4222
 7368SOL     OW29237   1.643   5.149   5.474 -0.9164  0.1205  0.4667
 7368SOL    HW229238   1.630   5.056   5.456 -0.8118 -0.0180  1.0836
 7368SOL    HW329239   1.717   5.152   5.535 -0.7327  0.6253  0.2206
 7368SOL    MW429240   1.651   5.137   5.480 -0.8784  0.1688  0.5156
 7369SOL     OW29241   5.034   2.669   3.427 -0.1049  0.2691 -0.2227
 7369SOL    HW229242   5.017   2.718   3.507  0.7524  0.4765 -0.1626
 7369SOL    HW329243   4.961   2.607   3.421  0.0858 -0.1012  0.9933
 7369SOL    MW429244   5.022   2.667   3.436  0.0334  0.2476 -0.0543
 7370SOL     OW29245   4.109   1.831   4.274 -0.8799  0.0845 -0.3768
 7370SOL    HW229246   4.070   1.858   4.191 -0.2731 -0.1497 -0.7511
 7370SOL    HW329247   4.174   1.765   4.249  0.2732  0.9959  0.1471
 7370SOL    MW429248   4.113   1.826   4.260 -0.6477  0.1739 -0.3570
 7371SOL     OW29249   4.457   1.932   5.200  0.1589  0.5574 -0.1255
 7371SOL    HW229250   4.525   1.959   5.260 -1.3533  1.4490  1.2592
 7371SOL    HW329251   4.446   2.006   5.140  2.0292 -0.5301 -1.9451
 7371SOL    MW429252   4.464   1.945   5.200  0.2061  0.5316 -0.1829
 7372SOL     OW29253   2.262   5.338   2.409 -0.2212 -0.2542 -0.7218
 7372SOL    HW229254   2.309   5.408   2.363  0.2619 -1.1982 -1.6958
 7372SOL    HW329255   2.329   5.271   2.425 -0.6036 -0.3614  0.5092
 7372SOL    MW429256   2.277   5.339   2.405 -0.2080 -0.3929 -0.6879
 7373SOL     OW29257   3.089   6.275   5.555  0.1322  0.0930  0.3171
 7373SOL    HW229258   3.094   6.313   5.643 -0.6181 -1.0529  0.8683
 7373SOL    HW329259   3.176   6.237   5.541 -0.0697 -0.6643  1.0195
 7373SOL    MW429260   3.101   6.275   5.565  0.0066 -0.1581  0.4825
 7374SOL     OW29261   5.283   3.852   3.541  0.2016  0.4963 -0.0532
 7374SOL    HW229262   5.225   3.795   3.592  0.1008  0.0981 -0.6061
 7374SOL    HW329263   5.332   3.901   3.607  0.0277  0.0368  0.4256
 7374SOL    MW429264   5.282   3.851   3.556  0.1654  0.3831 -0.0630
 7375SOL     OW29265   5.290   1.534   3.155  0.2107  0.1788  0.0341
 7375SOL    HW229266   5.250   1.482   3.224  1.5122 -0.0701  0.6312
 7375SOL    HW329267   5.246   1.619   3.160  0.0069  0.0284  0.9072
 7375SOL    MW429268   5.279   1.539   3.164  0.3555  0.1261  0.2281
 7376SOL     OW29269   2.677   2.848   1.302  0.2897  0.0013  0.1483
 7376SOL    HW229270   2.615   2.796   1.250  0.4520 -0.1336  0.0843
 7376SOL    HW329271   2.623   2.910   1.350  0.1277  0.0607 -0.1075
 7376SOL    MW429272   2.662   2.849   1.301  0.2897 -0.0087  0.1061
 7377SOL     OW29273   3.052   5.344   2.230  0.2241  0.1979  0.1412
 7377SOL    HW229274   3.078   5.253   2.221 -1.1587 -0.2814  0.7300
 7377SOL    HW329275   2.993   5.360   2.157  1.5083  1.0484 -0.7516
 7377SOL    MW429276   3.047   5.334   2.219  0.2111  0.2469  0.1011
 7378SOL     OW29277   3.254   0.872   1.862 -0.2029 -0.1607  0.0744
 7378SOL    HW229278   3.241   0.817   1.785  1.7876  1.3909 -1.5024
 7378SOL    HW329279   3.167   0.882   1.901 -0.8157 -3.3766 -0.2088
 7378SOL    MW429280   3.241   0.866   1.857 -0.0211 -0.3803 -0.1710
 7379SOL     OW29281   1.782   6.103   1.509 -0.4989 -0.2454 -0.7280
 7379SOL    HW229282   1.693   6.079   1.482 -0.0174 -1.1601 -1.5234
 7379SOL    HW329283   1.771   6.131   1.600 -1.2920 -2.4624 -0.0603
 7379SOL    MW429284   1.769   6.104   1.518 -0.5400 -0.6586 -0.7448
 7380SOL     OW29285   4.005   0.621   0.197 -0.0516  0.4905  0.1267
 7380SOL    HW229286   3.967   0.680   0.132 -0.1104 -0.3353 -0.6033
 7380SOL    HW329287   3.935   0.560   0.217  0.3481  0.0140  0.0793
 7380SOL    MW429288   3.991   0.621   0.191 -0.0066  0.3187  0.0241
 7381SOL     OW29289   3.503   3.830   1.355  0.0742 -0.0265  0.4833
 7381SOL    HW229290   3.518   3.879   1.437 -1.2676  0.9395  0.1845
 7381SOL    HW329291   3.415   3.794   1.365  0.3674 -0.9018 -0.0571
 7381SOL    MW429292   3.494   3.832   1.367 -0.0642 -0.0145  0.3726
 7382SOL     OW29293   4.194   1.162   0.496  0.4150 -0.1509 -0.4512
 7382SOL    HW229294   4.242   1.088   0.459  0.3957 -0.1403 -0.4967
 7382SOL    HW329295   4.107   1.157   0.458 -0.9302 -2.4797  2.5229
 7382SOL    MW429296   4.189   1.152   0.486  0.2350 -0.4568 -0.0648
 7383SOL     OW29297   2.345   5.564   1.711 -0.0016  0.0252 -0.2675
 7383SOL    HW229298   2.430   5.560   1.667 -0.5250 -0.5850 -1.2662
 7383SOL    HW329299   2.366   5.590   1.801  1.1106  1.1790 -0.8295
 7383SOL    MW429300   2.359   5.567   1.717  0.0761  0.0969 -0.4734
 7384SOL     OW29301   3.322   1.743   4.555  0.4986 -0.1445 -0.1263
 7384SOL    HW229302   3.417   1.735   4.542  0.3334 -1.0009 -0.8650
 7384SOL    HW329303   3.311   1.735   4.650  1.1180 -0.5957 -0.0839
 7384SOL    MW429304   3.333   1.741   4.566  0.5585 -0.3170 -0.2181
 7385SOL     OW29305   1.768   0.541   0.036 -0.4556 -0.3653  0.2218
 7385SOL    HW229306   1.697   0.520   0.096 -0.5206  0.2247  0.3578
 7385SOL    HW329307   1.798   0.456   0.004 -1.1878 -0.6210  0.1981
 7385SOL    MW429308   1.762   0.527   0.040 -0.5608 -0.3212  0.2366
 7386SOL     OW29309   2.796   2.497   2.487  0.0683 -0.1832  0.4970
 7386SOL    HW229310   2.757   2.446   2.416  2.2086  0.0109 -0.8795
 7386SOL    HW329311   2.856   2.557   2.444  0.3211  1.0040  2.3784
 7386SOL    MW429312   2.799   2.498   2.472  0.3840 -0.0009  0.5636
 7387SOL     OW29313   3.341   4.768   4.824 -0.2632 -0.1078  0.1759
 7387SOL    HW229314   3.422   4.787   4.777 -0.4195 -0.6856 -0.3351
 7387SOL    HW329315   3.272   4.798   4.766 -0.4596 -0.8670  0.0121
 7387SOL    MW429316   3.343   4.775   4.810 -0.3097 -0.2842  0.0869
 7388SOL     OW29317   3.642   3.576   4.678  0.1068 -0.0785  0.2668
 7388SOL    HW229318   3.671   3.590   4.768 -1.3141 -0.6624  0.8413
 7388SOL    HW329319   3.692   3.499   4.648  2.0928  1.3172 -0.1933
 7388SOL    MW429320   3.653   3.567   4.686  0.1813  0.0286  0.2819
 7389SOL     OW29321   3.742   4.570   6.016  0.2238 -0.5871  0.2016
 7389SOL    HW229322   3.837   4.562   6.019  0.2055 -0.9842 -0.1583
 7389SOL    HW329323   3.710   4.481   6.033 -0.0974 -0.3137  1.0463
 7389SOL    MW429324   3.750   4.557   6.019  0.1791 -0.6034  0.2656
 7390SOL     OW29325   2.815   4.787   6.347 -0.0295  0.3300 -0.5248
 7390SOL    HW229326   2.907   4.766   6.364 -0.0219  1.5325  1.1396
 7390SOL    HW329327   2.785   4.717   6.289  1.5910 -0.8053 -0.0664
 7390SOL    MW429328   2.823   4.775   6.341  0.1853  0.3389 -0.2448
 7391SOL     OW29329   2.044   2.370   1.459 -0.3510  0.3699  0.0151
 7391SOL    HW229330   2.117   2.429   1.479  1.2291 -1.8853  1.3792
 7391SOL    HW329331   1.969   2.410   1.503  0.1004  2.5168 -1.0466
 7391SOL    MW429332   2.044   2.383   1.468 -0.0830  0.3556  0.0550
 7392SOL     OW29333   3.139   1.138   3.374 -0.2096  0.0045  0.6195
 7392SOL    HW229334   3.125   1.222   3.331  1.5663 -0.4108 -0.9369
 7392SOL    HW329335   3.202   1.156   3.443 -0.0909  0.0252  0.5070
 7392SOL    MW429336   3.146   1.151   3.377  0.0404 -0.0476  0.3993
 7393SOL     OW29337   3.290   6.124   3.549 -0.7859  0.4274  0.1920
 7393SOL    HW229338   3.297   6.067   3.473 -0.0604  0.4882  0.2020
 7393SOL    HW329339   3.278   6.212   3.512 -1.2288  0.3537  0.1635
 7393SOL    MW429340   3.290   6.128   3.534 -0.7486  0.4257  0.1896
 7394SOL     OW29341   3.500   3.841   3.095 -0.5664 -0.0033 -0.3846
 7394SOL    HW229342   3.567   3.778   3.124 -0.3959 -0.3021 -1.3906
 7394SOL    HW329343   3.538   3.882   3.018 -1.7196 -0.4922 -1.2390
 7394SOL    MW429344   3.514   3.838   3.089 -0.6960 -0.1072 -0.6301
 7395SOL     OW29345   2.802   2.942   6.011 -0.3325  0.6929 -0.0542
 7395SOL    HW229346   2.896   2.922   6.017 -0.2537  1.2037  0.5373
 7395SOL    HW329347   2.765   2.909   6.092 -0.3706  1.9853  0.4746
 7395SOL    MW429348   2.810   2.935   6.022 -0.3271  0.9308  0.0936
 7396SOL     OW29349   1.622   3.035   6.416  0.2475 -0.3223 -0.1265
 7396SOL    HW229350   1.665   3.121   6.424  1.0282 -0.7758  0.6255
 7396SOL    HW329351   1.603   3.009   6.506  1.6940 -1.7603 -0.1790
 7396SOL    MW429352   1.625   3.043   6.429  0.5414 -0.5718 -0.0342
 7397SOL     OW29353   4.300   2.243   2.864 -0.2956 -0.0171  0.0968
 7397SOL    HW229354   4.212   2.207   2.869 -0.7685  1.0154 -0.4453
 7397SOL    HW329355   4.339   2.222   2.949  0.0067 -3.0546 -0.6825
 7397SOL    MW429356   4.294   2.236   2.876 -0.3181 -0.2816 -0.0775
 7398SOL     OW29357   5.633   1.281   1.648  0.4230 -0.2651  0.2994
 7398SOL    HW229358   5.578   1.334   1.590  0.7193 -0.2759  0.0095
 7398SOL    HW329359   5.572   1.246   1.713 -0.0663 -1.0044 -0.5394
 7398SOL    MW429360   5.617   1.283   1.649  0.3976 -0.3641  0.1505
 7399SOL     OW29361   0.220   5.047   0.299 -0.4034 -0.0206 -1.0775
 7399SOL    HW229362   0.166   4.993   0.357  1.3414  0.1762  0.8590
 7399SOL    HW329363   0.293   4.991   0.273  0.7009  0.9167 -0.1512
 7399SOL    MW429364   0.222   5.033   0.303 -0.0275  0.1290 -0.6998
 7400SOL     OW29365   3.642   1.599   0.242 -0.3011 -0.6931 -0.3152
 7400SOL    HW229366   3.648   1.584   0.336  0.7594  1.1498 -0.0554
 7400SOL    HW329367   3.550   1.621   0.228  0.1774  2.7713  0.9826
 7400SOL    MW429368   3.630   1.600   0.253 -0.0981  0.0071 -0.1097
 7401SOL     OW29369   0.858   5.568   2.157 -0.3491 -0.1110 -0.4769
 7401SOL    HW229370   0.846   5.529   2.244 -0.4077 -0.7017 -0.7433
 7401SOL    HW329371   0.770   5.577   2.122 -0.2397 -2.9007 -1.7598
 7401SOL    MW429372   0.845   5.564   2.164 -0.3424 -0.5570 -0.6813
 7402SOL     OW29373   0.961   4.674   1.287  0.4436 -0.1291  0.7179
 7402SOL    HW229374   1.012   4.755   1.293 -0.6532  0.6416  0.0844
 7402SOL    HW329375   0.985   4.636   1.203  1.0112 -0.5188  1.0462
 7402SOL    MW429376   0.971   4.680   1.277  0.3738 -0.0788  0.6776
 7403SOL     OW29377   5.417   1.297   5.825 -0.1791  0.2089  0.1590
 7403SOL    HW229378   5.422   1.363   5.895  1.4745 -0.1091  0.3799
 7403SOL    HW329379   5.496   1.311   5.774  0.5519 -1.9972  0.5793
 7403SOL    MW429380   5.428   1.308   5.828  0.1355 -0.1241  0.2436
 7404SOL     OW29381   2.888   5.120   1.251  0.4132  0.3104  0.5534
 7404SOL    HW229382   2.894   5.201   1.202  3.8138  0.0854  0.3269
 7404SOL    HW329383   2.957   5.127   1.318  0.9864 -2.4093  0.3877
 7404SOL    MW429384   2.898   5.131   1.253  0.9375 -0.0781  0.5017
 7405SOL     OW29385   3.069   5.625   1.119 -0.1004 -0.1234  0.0242
 7405SOL    HW229386   3.089   5.614   1.026 -1.5914  2.2197 -0.6739
 7405SOL    HW329387   3.144   5.672   1.154  0.5665 -1.2047  0.0896
 7405SOL    MW429388   3.081   5.630   1.111 -0.2091  0.0431 -0.0593
 7406SOL     OW29389   2.705   4.426   2.007  0.0778 -0.0619 -0.0149
 7406SOL    HW229390   2.697   4.404   2.100 -1.1588  0.1515 -0.0536
 7406SOL    HW329391   2.616   4.420   1.973  0.5395 -0.2969 -1.2327
 7406SOL    MW429392   2.693   4.423   2.015 -0.0244 -0.0648 -0.1807
 7407SOL     OW29393   6.344   2.594   4.325  0.2918 -0.1443 -0.1959
 7407SOL    HW229394   6.315   2.548   4.404  0.3788 -0.8581 -0.5709
 7407SOL    HW329395   6.416   2.541   4.292  1.3567  1.0450  0.1464
 7407SOL    MW429396   6.350   2.581   4.331  0.4438 -0.0816 -0.2002
 7408SOL     OW29397   3.661   1.221   3.741 -0.1714  0.3379  0.4597
 7408SOL    HW229398   3.637   1.146   3.794 -0.6759  0.2001  0.0491
 7408SOL    HW329399   3.734   1.191   3.687  1.5510  1.0052  2.3041
 7408SOL    MW429400   3.667   1.207   3.741 -0.0107  0.4078  0.6489
 7409SOL     OW29401   3.626   2.577   5.933 -0.2036 -0.1024 -0.1215
 7409SOL    HW229402   3.667   2.507   5.882  0.7476 -0.5288  1.1655
 7409SOL    HW329403   3.692   2.599   6.000 -1.2640  0.6586  0.7057
 7409SOL    MW429404   3.640   2.571   5.935 -0.2180 -0.0583  0.1575
 7410SOL     OW29405   0.735   1.767   4.134  0.0089  0.1863  0.4409
 7410SOL    HW229406   0.754   1.781   4.041  0.9840  0.9248  0.7265
 7410SOL    HW329407   0.649   1.726   4.136  0.1209 -0.1360 -0.8036
 7410SOL    MW429408   0.726   1.763   4.122  0.1524  0.2413  0.3144
 7411SOL     OW29409   3.050   6.339   2.826  0.3834 -0.1235 -0.5905
 7411SOL    HW229410   3.082   6.351   2.736 -0.1700 -0.9748 -0.9161
 7411SOL    HW329411   3.090   6.411   2.875  2.2043 -0.7034 -1.1236
 7411SOL    MW429412   3.060   6.350   2.820  0.5506 -0.3123 -0.7038
 7412SOL     OW29413   3.929   4.758   5.499 -0.4725  0.7342 -0.4529
 7412SOL    HW229414   3.895   4.797   5.579 -0.0579 -0.1517  0.1728
 7412SOL    HW329415   4.017   4.792   5.490  0.3557 -0.9220  0.7672
 7412SOL    MW429416   3.936   4.767   5.508 -0.3085  0.3988 -0.2094
 7413SOL     OW29417   5.984   1.860   3.773  0.6980 -0.4054 -0.5200
 7413SOL    HW229418   5.960   1.827   3.860 -1.6733 -0.4401 -1.1000
 7413SOL    HW329419   5.912   1.919   3.750  0.5570 -1.4119 -2.9600
 7413SOL    MW429420   5.971   1.863   3.781  0.3665 -0.5428 -0.9185
 7414SOL     OW29421   1.864   4.595   1.297 -0.3516 -0.2921  0.1991
 7414SOL    HW229422   1.846   4.579   1.390 -0.9841  2.0814  0.5661
 7414SOL    HW329423   1.782   4.573   1.253  0.0629 -1.7751  0.1053
 7414SOL    MW429424   1.851   4.590   1.304 -0.3804 -0.1746  0.2352
 7415SOL     OW29425   3.333   3.059   2.087  0.1498  0.0258  0.0759
 7415SOL    HW229426   3.248   3.018   2.072  0.5519 -1.6644  1.9442
 7415SOL    HW329427   3.378   3.052   2.003 -1.6394  1.3452 -1.0756
 7415SOL    MW429428   3.328   3.053   2.074 -0.0332 -0.0231  0.1705
 7416SOL     OW29429   2.634   4.421   2.284 -0.7784 -0.4288 -0.2858
 7416SOL    HW229430   2.671   4.508   2.290 -0.4595 -0.4654 -1.5153
 7416SOL    HW329431   2.663   4.377   2.364 -1.0892  0.6296  0.4318
 7416SOL    MW429432   2.642   4.426   2.295 -0.7773 -0.2940 -0.3534
 7417SOL     OW29433   6.015   6.008   0.918  0.3336 -0.4137  0.2354
 7417SOL    HW229434   5.937   6.061   0.903  1.1562  0.7737  0.0792
 7417SOL    HW329435   6.057   6.047   0.995 -0.0496 -2.0400  1.3213
 7417SOL    MW429436   6.010   6.020   0.926  0.3915 -0.4716  0.3580
 7418SOL     OW29437   3.494   6.029   5.616  0.1270  0.1264 -0.2328
 7418SOL    HW229438   3.556   6.030   5.543  1.3018  0.8110  0.7364
 7418SOL    HW329439   3.429   6.096   5.593 -1.2870 -1.7358 -2.0534
 7418SOL    MW429440   3.494   6.038   5.603  0.0954 -0.0290 -0.3451
 7419SOL     OW29441   1.992   2.647   3.298 -0.2244  0.4662 -0.4051
 7419SOL    HW229442   1.932   2.722   3.298 -0.2527  0.5514  2.1229
 7419SOL    HW329443   1.938   2.572   3.322  0.3475  0.2296  0.1841
 7419SOL    MW429444   1.977   2.647   3.301 -0.1527  0.4463  0.0062
 7420SOL     OW29445   1.100   3.847   4.590  0.0826 -0.0029 -0.7251
 7420SOL    HW229446   1.056   3.932   4.592  2.3049  1.2236  1.2975
 7420SOL    HW329447   1.099   3.818   4.681  2.3904 -0.4379 -0.7896
 7420SOL    MW429448   1.094   3.855   4.602  0.6803  0.1016 -0.4668
 7421SOL     OW29449   1.971   3.896   0.870  0.0106  0.6551  0.3948
 7421SOL    HW229450   2.047   3.926   0.820 -0.5100  0.0032 -0.8240
 7421SOL    HW329451   2.005   3.828   0.927  0.5313  1.1048  0.6286
 7421SOL    MW429452   1.985   3.891   0.871  0.0106  0.6284  0.2649
 7422SOL     OW29453   3.832   0.727   3.530 -0.1524 -0.2717 -0.2924
 7422SOL    HW229454   3.763   0.664   3.509  0.4020 -0.2139 -2.5518
 7422SOL    HW329455   3.798   0.811   3.502  0.0003  0.1063  0.6204
 7422SOL    MW429456   3.819   0.729   3.524 -0.0591 -0.2142 -0.4701
 7423SOL     OW29457   0.205   2.155   3.132  0.1900 -0.6120 -0.0224
 7423SOL    HW229458   0.290   2.193   3.110 -0.5720  1.0645 -0.2571
 7423SOL    HW329459   0.174   2.114   3.052 -0.2365  0.8638 -0.6566
 7423SOL    MW429460   0.212   2.155   3.119  0.0332 -0.1961 -0.1370
 7424SOL     OW29461   4.131   5.978   5.620  0.0329 -0.0426  0.4196
 7424SOL    HW229462   4.193   5.917   5.580  1.2826  0.6578  1.2263
 7424SOL    HW329463   4.162   6.064   5.592 -0.8568  0.2989  0.4747
 7424SOL    MW429464   4.143   5.981   5.611  0.0804  0.0949  0.5333
 7425SOL     OW29465   6.335   5.151   2.668  0.0881 -0.7956 -0.5228
 7425SOL    HW229466   6.352   5.057   2.671  0.5016 -0.7342 -0.7073
 7425SOL    HW329467   6.389   5.187   2.738  0.9204 -0.5684 -1.2589
 7425SOL    MW429468   6.345   5.143   2.678  0.2525 -0.7575 -0.6442
 7426SOL     OW29469   1.620   2.196   3.321 -0.2221 -0.0198 -0.6551
 7426SOL    HW229470   1.548   2.170   3.264  0.0423 -0.2295 -0.8936
 7426SOL    HW329471   1.583   2.191   3.410 -0.3443 -0.6622 -0.7341
 7426SOL    MW429472   1.605   2.192   3.325 -0.2033 -0.1322 -0.6970
 7427SOL     OW29473   5.737   4.632   3.908 -0.1566 -0.2404 -0.0772
 7427SOL    HW229474   5.680   4.679   3.847 -0.2385 -0.7948 -0.4367
 7427SOL    HW329475   5.680   4.568   3.950 -0.1566  0.3036  0.7806
 7427SOL    MW429476   5.722   4.630   3.905 -0.1674 -0.2417 -0.0115
 7428SOL     OW29477   3.621   4.137   3.674  0.2221  0.6513  0.7152
 7428SOL    HW229478   3.605   4.069   3.609  0.6237  0.9614  0.2788
 7428SOL    HW329479   3.535   4.159   3.709 -0.0021  0.5052  0.2566
 7428SOL    MW429480   3.608   4.131   3.670  0.2455  0.6730  0.5971
 7429SOL     OW29481   5.238   4.396   0.093  0.1649  0.1781 -0.2878
 7429SOL    HW229482   5.190   4.449   0.029  1.9136 -0.3218 -2.1311
 7429SOL    HW329483   5.319   4.445   0.109  0.3678 -0.3879  0.4713
 7429SOL    MW429484   5.243   4.409   0.086  0.4224  0.0374 -0.4309
 7430SOL     OW29485   0.527   3.090   2.538 -0.5143 -0.3767 -0.6261
 7430SOL    HW229486   0.588   3.078   2.466 -0.7405  0.1189 -0.9115
 7430SOL    HW329487   0.515   3.185   2.544 -1.3074 -0.4658 -0.6277
 7430SOL    MW429488   0.533   3.101   2.530 -0.6488 -0.3231 -0.6640
 7431SOL     OW29489   6.225   3.589   3.630 -0.3520  1.1422 -0.6328
 7431SOL    HW229490   6.292   3.522   3.625  0.0751  1.1771  2.5722
 7431SOL    HW329491   6.168   3.572   3.555  1.6474 -0.5829 -1.8706
 7431SOL    MW429492   6.226   3.578   3.619 -0.0319  0.9192 -0.3732
 7432SOL     OW29493   4.777   4.309   4.822 -0.5871  0.3813 -0.0378
 7432SOL    HW229494   4.846   4.300   4.888 -1.0294  1.5787  0.6197
 7432SOL    HW329495   4.755   4.403   4.824 -1.2017  0.2741 -1.2853
 7432SOL    MW429496   4.783   4.321   4.831 -0.7266  0.5252 -0.1157
 7433SOL     OW29497   4.428   6.083   4.822  0.0608 -0.0974 -0.2390
 7433SOL    HW229498   4.401   6.132   4.744 -0.8862 -1.8240 -1.0645
 7433SOL    HW329499   4.405   6.139   4.896 -1.4267  0.5199 -1.1294
 7433SOL    MW429500   4.421   6.097   4.821 -0.2604 -0.2437 -0.4654
 7434SOL     OW29501   4.218   5.682   4.338 -0.0936 -0.2215  0.2944
 7434SOL    HW229502   4.182   5.767   4.365  0.4576  0.2229 -0.3331
 7434SOL    HW329503   4.188   5.672   4.247 -0.4468 -0.8695  0.4720
 7434SOL    MW429504   4.209   5.692   4.329 -0.0675 -0.2484  0.2351
 7435SOL     OW29505   2.422   5.052   0.364 -0.0968  0.3578  0.5649
 7435SOL    HW229506   2.350   5.107   0.335 -0.8695 -0.5383  0.7455
 7435SOL    HW329507   2.392   4.962   0.348 -0.6491 -0.2415  4.2291
 7435SOL    MW429508   2.409   5.047   0.358 -0.2716  0.1605  1.0722
 7436SOL     OW29509   2.238   0.380   2.165  0.0320  0.7628 -0.1769
 7436SOL    HW229510   2.170   0.412   2.105 -0.3085  0.7981  0.2296
 7436SOL    HW329511   2.192   0.322   2.225 -0.1387  2.7155  1.6974
 7436SOL    MW429512   2.223   0.377   2.165 -0.0355  1.0251  0.1241
 7437SOL     OW29513   2.319   6.263   5.772  0.2162 -0.3048 -0.1067
 7437SOL    HW229514   2.411   6.249   5.794  0.2606  0.9161  0.5563
 7437SOL    HW329515   2.310   6.226   5.685  0.9283 -1.9345  0.4615
 7437SOL    MW429516   2.330   6.256   5.764  0.3160 -0.3587  0.0558
 7438SOL     OW29517   3.169   4.946   6.153 -0.1083  0.2790  0.5960
 7438SOL    HW229518   3.084   4.952   6.110  0.4701  0.2684 -0.5767
 7438SOL    HW329519   3.198   4.856   6.137  0.9370  0.8029 -0.6253
 7438SOL    MW429520   3.162   4.935   6.145  0.1059  0.3467  0.2801
 7439SOL     OW29521   4.932   4.756   4.311 -0.2854  0.8482  0.7523
 7439SOL    HW229522   5.009   4.793   4.269 -0.6936  1.7213  0.7611
 7439SOL    HW329523   4.868   4.827   4.312 -0.9861  0.2308  1.0238
 7439SOL    MW429524   4.934   4.770   4.306 -0.4317  0.8819  0.7893
 7440SOL     OW29525   0.764   0.478   2.062 -0.1536 -0.1304  0.2736
 7440SOL    HW229526   0.742   0.439   1.978  0.8261  0.3137 -0.2100
 7440SOL    HW329527   0.838   0.536   2.043  1.0795 -1.1487  1.6871
 7440SOL    MW429528   0.771   0.481   2.048  0.1383 -0.2062  0.3963
 7441SOL     OW29529   4.259   3.378   4.382  0.2271  0.1936 -0.2171
 7441SOL    HW229530   4.202   3.332   4.321  0.7058 -1.1435  0.3062
 7441SOL    HW329531   4.342   3.332   4.377 -0.5361 -2.1000  3.6924
 7441SOL    MW429532   4.262   3.366   4.374  0.1896 -0.2854  0.3678
 7442SOL     OW29533   2.905   4.128   2.060  0.5757  0.3039 -0.1369
 7442SOL    HW229534   2.975   4.086   2.011 -1.3001 -0.7877 -2.0478
 7442SOL    HW329535   2.873   4.060   2.119  0.6348  0.5614  0.1955
 7442SOL    MW429536   2.910   4.113   2.062  0.3360  0.1939 -0.3452
 7443SOL     OW29537   5.773   0.778   0.992  0.3291  0.4197 -0.6781
 7443SOL    HW229538   5.863   0.759   0.965  0.0536  0.6911 -1.8604
 7443SOL    HW329539   5.719   0.729   0.930 -0.3777 -1.4949  1.3159
 7443SOL    MW429540   5.778   0.769   0.980  0.1995  0.2029 -0.5710
 7444SOL     OW29541   5.032   4.679   3.618  0.2434 -0.1825  0.0784
 7444SOL    HW229542   4.945   4.642   3.626  0.2953 -0.2473  0.3466
 7444SOL    HW329543   5.027   4.763   3.665  0.4355 -0.3756  0.4543
 7444SOL    MW429544   5.020   4.685   3.625  0.2756 -0.2165  0.1634
 7445SOL     OW29545   2.260   3.417   0.338 -0.2703 -1.0252 -0.0744
 7445SOL    HW229546   2.339   3.371   0.309 -0.3683 -0.4187 -1.3829
 7445SOL    HW329547   2.292   3.483   0.400  0.2494 -0.8140 -0.5600
 7445SOL    MW429548   2.275   3.420   0.342 -0.2147 -0.9173 -0.3111
 7446SOL     OW29549   4.374   3.771   4.194  0.5057  0.5357  0.2303
 7446SOL    HW229550   4.408   3.779   4.105 -1.4922  0.8824 -0.5533
 7446SOL    HW329551   4.424   3.835   4.244  1.7563  0.2378 -0.5982
 7446SOL    MW429552   4.385   3.781   4.189  0.4071  0.5422  0.0176
 7447SOL     OW29553   2.640   2.207   0.948  0.4375  0.2425 -0.2924
 7447SOL    HW229554   2.549   2.204   0.979 -0.0672 -1.4408 -1.7430
 7447SOL    HW329555   2.663   2.115   0.932  1.7146  0.7794 -1.8082
 7447SOL    MW429556   2.631   2.194   0.950  0.5394  0.0912 -0.6838
 7448SOL     OW29557   4.152   1.564   4.598 -0.1377 -0.5739 -0.5763
 7448SOL    HW229558   4.092   1.637   4.582 -0.3246 -0.7083 -0.4895
 7448SOL    HW329559   4.224   1.579   4.537  0.0368 -0.0754 -0.2497
 7448SOL    MW429560   4.153   1.576   4.587 -0.1393 -0.5258 -0.5217
 7449SOL     OW29561   0.199   1.177   2.194 -0.3304  0.0620 -0.2873
 7449SOL    HW229562   0.232   1.205   2.109  0.3815  0.1273 -0.0039
 7449SOL    HW329563   0.248   1.230   2.257 -1.1729  0.3360  0.1485
 7449SOL    MW429564   0.210   1.188   2.191 -0.3476  0.1068 -0.1924
 7450SOL     OW29565   3.808   4.792   5.745  0.2278  0.0433  0.3394
 7450SOL    HW229566   3.751   4.869   5.742  0.6878  0.3685 -0.3713
 7450SOL    HW329567   3.869   4.810   5.817 -0.8446 -0.5198  1.4127
 7450SOL    MW429568   3.809   4.804   5.754  0.1470  0.0119  0.3873
 7451SOL     OW29569   5.957   5.676   2.498 -0.0975 -0.3511  0.7019
 7451SOL    HW229570   5.913   5.759   2.482 -1.2531 -1.0984 -0.1347
 7451SOL    HW329571   5.907   5.636   2.570 -0.3326 -0.8702  0.2563
 7451SOL    MW429572   5.944   5.682   2.505 -0.2810 -0.5182  0.5327
 7452SOL     OW29573   2.054   5.731   6.168  0.0572 -0.0920  0.0466
 7452SOL    HW229574   2.040   5.655   6.224 -1.0114  2.3071  3.3416
 7452SOL    HW329575   2.141   5.762   6.190 -0.5254  1.1097  0.7574
 7452SOL    MW429576   2.063   5.725   6.178 -0.1606  0.3831  0.5751
 7453SOL     OW29577   4.912   2.783   3.169 -0.4864  0.5317 -0.5763
 7453SOL    HW229578   4.829   2.763   3.212 -0.1603 -0.0359 -0.2056
 7453SOL    HW329579   4.968   2.815   3.240  0.4817 -1.6652 -0.3045
 7453SOL    MW429580   4.908   2.785   3.184 -0.3157  0.1670 -0.4915
 7454SOL     OW29581   4.743   1.979   1.063 -0.1369 -0.7874 -0.2771
 7454SOL    HW229582   4.837   1.969   1.044 -0.0120 -1.7348  0.7641
 7454SOL    HW329583   4.740   2.026   1.146 -0.6100 -0.0050 -0.7287
 7454SOL    MW429584   4.755   1.984   1.071 -0.1828 -0.8092 -0.1993
 7455SOL     OW29585   5.990   0.078   2.136 -0.0329  0.6870 -0.3971
 7455SOL    HW229586   5.902   0.069   2.174 -0.4959  1.4836 -1.2537
 7455SOL    HW329587   6.014  -0.011   2.109 -0.1401  0.2891  0.7595
 7455SOL    MW429588   5.981   0.065   2.138 -0.1081  0.7396 -0.3575
 7456SOL     OW29589   0.130   0.964   1.955 -0.1990  0.3653 -0.2381
 7456SOL    HW229590   0.178   0.928   2.030 -0.7091  2.5888  1.2339
 7456SOL    HW329591   0.039   0.939   1.972 -0.1392 -0.3511 -0.9065
 7456SOL    MW429592   0.124   0.956   1.968 -0.2584  0.5641 -0.1321
 7457SOL     OW29593   0.094   6.038   6.021 -0.3248  0.7174 -0.3329
 7457SOL    HW229594   0.019   6.076   6.066 -1.4408  0.8427 -2.1916
 7457SOL    HW329595   0.063   5.951   5.993  0.6121  0.3138 -0.1443
 7457SOL    MW429596   0.080   6.031   6.023 -0.3484  0.6807 -0.5532
 7458SOL     OW29597   0.486   5.876   6.367 -1.0651  0.4221  0.3783
 7458SOL    HW229598   0.399   5.887   6.328 -0.4444 -0.9379 -1.5366
 7458SOL    HW329599   0.511   5.786   6.345  0.9486  0.8677  0.6360
 7458SOL    MW429600   0.478   5.866   6.359 -0.7175  0.3015  0.1597
 7459SOL     OW29601   5.345   5.321   3.901  0.0702 -0.6188 -0.1279
 7459SOL    HW229602   5.274   5.383   3.883  1.0956  0.8968  0.7945
 7459SOL    HW329603   5.389   5.310   3.817  0.8799  1.2540  0.0024
 7459SOL    MW429604   5.341   5.328   3.888  0.3123 -0.1717  0.0110
 7460SOL     OW29605   4.037   2.622   4.819  0.4643 -0.3412  0.1560
 7460SOL    HW229606   4.007   2.708   4.849  0.9503 -0.2942  0.5219
 7460SOL    HW329607   4.132   2.623   4.834  0.4421 -1.0170  0.3694
 7460SOL    MW429608   4.046   2.633   4.825  0.5255 -0.4241  0.2324
 7461SOL     OW29609   1.489   3.561   1.911  0.1710 -0.2456 -0.2884
 7461SOL    HW229610   1.533   3.617   1.848 -0.4742  0.3913 -0.1813
 7461SOL    HW329611   1.456   3.487   1.859  0.6609 -0.3186 -0.4970
 7461SOL    MW429612   1.490   3.558   1.896  0.1505 -0.1712 -0.3018
 7462SOL     OW29613   0.823   2.784   4.653 -0.4550  0.2078  0.3448
 7462SOL    HW229614   0.899   2.738   4.690  1.3661  0.7940 -2.3294
 7462SOL    HW329615   0.818   2.865   4.704 -0.4836 -0.6414  1.7593
 7462SOL    MW429616   0.833   2.788   4.665 -0.2185  0.1731  0.1786
 7463SOL     OW29617   0.708   3.089   5.804 -0.2918  0.3134 -0.2685
 7463SOL    HW229618   0.783   3.071   5.860  0.2423  0.9756 -0.7608
 7463SOL    HW329619   0.655   3.009   5.808 -0.2184  0.3087  1.0910
 7463SOL    MW429620   0.711   3.076   5.812 -0.2117  0.4001 -0.1541
 7464SOL     OW29621   1.858   5.576   5.623  0.1659  0.0344 -0.1226
 7464SOL    HW229622   1.833   5.659   5.662 -2.6970 -1.5131  1.6957
 7464SOL    HW329623   1.916   5.536   5.688 -1.1748 -0.7559  0.6187
 7464SOL    MW429624   1.862   5.581   5.637 -0.3887 -0.2741  0.2151
 7465SOL     OW29625   1.630   0.813   4.377 -0.0736  0.0714  0.0982
 7465SOL    HW229626   1.616   0.808   4.472 -2.5766 -0.6074 -0.2217
 7465SOL    HW329627   1.617   0.724   4.346  1.6445  0.1131 -0.8148
 7465SOL    MW429628   1.626   0.801   4.386 -0.1771 -0.0127 -0.0645
 7466SOL     OW29629   5.992   3.032   4.495 -0.2260 -0.3284 -0.5965
 7466SOL    HW229630   6.071   2.980   4.480  1.0571  1.4630 -0.4200
 7466SOL    HW329631   5.934   3.011   4.422  1.2795 -0.1337 -1.8857
 7466SOL    MW429632   5.995   3.022   4.484  0.1419 -0.0664 -0.7433
 7467SOL     OW29633   5.397   0.635   4.249  0.6582 -0.1203 -0.5508
 7467SOL    HW229634   5.435   0.551   4.275  0.1328 -0.7519 -1.7317
 7467SOL    HW329635   5.313   0.639   4.295  1.0414  0.1270  0.1274
 7467SOL    MW429636   5.391   0.624   4.258  0.6395 -0.1710 -0.6171
 7468SOL     OW29637   4.175   4.872   5.465 -0.7102  0.1618  0.4585
 7468SOL    HW229638   4.257   4.825   5.481 -1.1064 -0.7585 -0.1105
 7468SOL    HW329639   4.201   4.951   5.419 -0.1096  0.0731  0.6387
 7468SOL    MW429640   4.189   4.876   5.461 -0.6832  0.0286  0.4072
 7469SOL     OW29641   1.030   5.235   0.141  0.3531  0.3818  0.5304
 7469SOL    HW229642   1.059   5.303   0.203 -0.4514  1.4179 -0.1859
 7469SOL    HW329643   0.960   5.189   0.187 -2.0617  2.8051 -0.4092
 7469SOL    MW429644   1.024   5.238   0.156 -0.0717  0.8382  0.3119
 7470SOL     OW29645   0.050   1.067   3.569 -0.0714 -0.4031  0.1232
 7470SOL    HW229646   0.058   1.113   3.652  1.2292  0.0705 -0.2406
 7470SOL    HW329647  -0.039   1.089   3.539 -0.6003 -0.6764  1.4139
 7470SOL    MW429648   0.039   1.076   3.576  0.0304 -0.3767  0.2455
 7471SOL     OW29649   3.006   6.279   3.307  0.4164 -0.5197 -0.0420
 7471SOL    HW229650   2.967   6.355   3.264 -2.5598 -1.2739  1.0493
 7471SOL    HW329651   3.035   6.312   3.392  0.2428 -0.3500 -0.0468
 7471SOL    MW429652   3.005   6.293   3.313  0.0008 -0.5968  0.1014
 7472SOL     OW29653   2.716   2.331   0.408 -0.1482  0.7597 -0.0247
 7472SOL    HW229654   2.761   2.246   0.406 -2.0468 -0.3033  0.1600
 7472SOL    HW329655   2.691   2.342   0.499 -1.7817  0.4570 -0.4113
 7472SOL    MW429656   2.719   2.321   0.420 -0.6142  0.5795 -0.0514
 7473SOL     OW29657   0.312   5.294   0.832 -0.3074 -0.4709  0.0577
 7473SOL    HW229658   0.291   5.266   0.921 -1.7928  1.6617  0.4553
 7473SOL    HW329659   0.406   5.283   0.824 -0.1169 -0.4508  1.9958
 7473SOL    MW429660   0.321   5.289   0.842 -0.4782 -0.1869  0.3659
 7474SOL     OW29661   5.100   4.076   4.749  0.0570 -0.4417  0.0216
 7474SOL    HW229662   5.143   4.087   4.834  2.3199  1.0848 -1.2180
 7474SOL    HW329663   5.066   4.163   4.728 -0.6984 -0.8661 -0.5394
 7474SOL    MW429664   5.101   4.089   4.757  0.2559 -0.2963 -0.2160
 7475SOL     OW29665   4.789   0.075   2.676  0.1992  0.0021  0.1359
 7475SOL    HW229666   4.722   0.142   2.659 -0.2128 -0.4354 -0.0015
 7475SOL    HW329667   4.867   0.125   2.701 -0.1899  0.5222  0.3419
 7475SOL    MW429668   4.790   0.091   2.677  0.0935  0.0130  0.1450
 7476SOL     OW29669   5.755   2.938   2.381  0.3877 -0.2917  0.1031
 7476SOL    HW229670   5.780   2.925   2.289 -0.4527 -0.0180 -0.1709
 7476SOL    HW329671   5.700   3.016   2.380 -1.4507 -1.5293  0.5074
 7476SOL    MW429672   5.751   2.947   2.369  0.0342 -0.4189  0.1203
 7477SOL     OW29673   5.747   5.465   1.492 -0.3445 -0.1067  0.4055
 7477SOL    HW229674   5.827   5.499   1.452 -1.4727  1.5871 -0.5273
 7477SOL    HW329675   5.723   5.390   1.438 -0.1695  0.2856 -0.2284
 7477SOL    MW429676   5.754   5.460   1.480 -0.4702  0.1686  0.1988
 7478SOL     OW29677   1.131   1.500   4.309 -0.0605  0.1341 -0.3332
 7478SOL    HW229678   1.057   1.443   4.331  0.2885  0.3870  1.7889
 7478SOL    HW329679   1.208   1.454   4.343  0.7270  0.1074 -2.0741
 7478SOL    MW429680   1.131   1.487   4.317  0.0894  0.1639 -0.2829
 7479SOL     OW29681   5.960   6.292   0.873 -0.8366  0.2013  0.3914
 7479SOL    HW229682   5.959   6.293   0.778 -1.4455  0.0939  0.3951
 7479SOL    HW329683   5.995   6.378   0.898 -0.6188  0.2048  0.0726
 7479SOL    MW429684   5.965   6.303   0.864 -0.8882  0.1876  0.3498
 7480SOL     OW29685   3.724   4.509   5.687 -0.6978  0.2443  0.0444
 7480SOL    HW229686   3.738   4.600   5.714 -0.4250 -0.0784  1.0131
 7480SOL    HW329687   3.809   4.467   5.699 -0.5726  0.0696 -1.2978
 7480SOL    MW429688   3.737   4.515   5.692 -0.6453  0.1787 -0.0049
 7481SOL     OW29689   5.068   6.230   1.560 -0.6525  0.3740 -0.0920
 7481SOL    HW229690   4.974   6.216   1.575 -0.9384  1.1383 -1.0870
 7481SOL    HW329691   5.100   6.146   1.526 -0.1358 -1.2020  3.7089
 7481SOL    MW429692   5.060   6.217   1.558 -0.6221  0.2669  0.2782
 7482SOL     OW29693   0.249   4.233   1.177  0.3201 -1.0356 -0.2469
 7482SOL    HW229694   0.314   4.216   1.244 -0.3839  0.0699  0.7614
 7482SOL    HW329695   0.250   4.328   1.166 -1.6270 -0.8913  0.3662
 7482SOL    MW429696   0.258   4.243   1.184 -0.0297 -0.8707 -0.0330
 7483SOL     OW29697   0.696   0.194   0.009 -0.6253 -0.5830 -0.0306
 7483SOL    HW229698   0.721   0.119   0.064  0.4456 -0.9294 -0.9476
 7483SOL    HW329699   0.708   0.270   0.066  0.7154 -0.9186  0.1876
 7483SOL    MW429700   0.701   0.194   0.024 -0.3071 -0.6729 -0.1228
 7484SOL     OW29701   3.768   2.308   4.548 -0.1643  0.2185 -0.1723
 7484SOL    HW229702   3.728   2.394   4.560  0.1289  0.0444  2.8008
 7484SOL    HW329703   3.860   2.326   4.533 -0.1466  0.4460  0.1961
 7484SOL    MW429704   3.775   2.321   4.548 -0.1233  0.2256  0.2686
 7485SOL     OW29705   0.410   2.768   0.199 -0.1792 -0.6780  0.0817
 7485SOL    HW229706   0.451   2.852   0.178  1.3578 -1.5538 -0.6082
 7485SOL    HW329707   0.465   2.731   0.267 -0.2454 -1.5715 -0.3394
 7485SOL    MW429708   0.423   2.774   0.205  0.0149 -0.9114 -0.0649
 7486SOL     OW29709   0.824   2.934   3.126  0.3570 -0.0313  0.1516
 7486SOL    HW229710   0.919   2.938   3.138  0.3953 -0.9234  0.1754
 7486SOL    HW329711   0.789   2.916   3.213  0.1176  0.7424  0.2324
 7486SOL    MW429712   0.832   2.932   3.139  0.3305 -0.0469  0.1654
 7487SOL     OW29713   4.256   2.333   0.036  0.1115  0.7431  0.2103
 7487SOL    HW229714   4.210   2.251   0.054  1.7966  0.0036  1.3636
 7487SOL    HW329715   4.306   2.351   0.115  0.6871  2.2719 -0.4590
 7487SOL    MW429716   4.257   2.324   0.049  0.4098  0.8472  0.2742
 7488SOL     OW29717   0.106   1.715   0.967  0.7657  0.2238  0.7727
 7488SOL    HW229718   0.124   1.780   1.035  1.6778 -0.1874  0.9443
 7488SOL    HW329719   0.193   1.685   0.939  0.3830 -2.3880  2.1279
 7488SOL    MW429720   0.120   1.720   0.972  0.8356 -0.1750  0.9741
 7489SOL     OW29721   5.115   4.691   1.076 -0.2107 -0.1384  0.6265
 7489SOL    HW229722   5.144   4.658   0.991 -1.8351 -1.1147  0.3890
 7489SOL    HW329723   5.112   4.786   1.065  0.0796 -0.2216 -0.2607
 7489SOL    MW429724   5.118   4.699   1.063 -0.3867 -0.2782  0.4781
 7490SOL     OW29725   3.232   2.757   2.253 -0.2264  0.0599  0.1098
 7490SOL    HW229726   3.241   2.691   2.184 -1.4940 -1.6051  1.4346
 7490SOL    HW329727   3.321   2.777   2.280  0.2387 -0.0332 -1.2757
 7490SOL    MW429728   3.245   2.751   2.248 -0.3323 -0.1720  0.1018
 7491SOL     OW29729   3.567   3.901   3.544 -0.4063  0.2049  0.0768
 7491SOL    HW229730   3.488   3.895   3.491 -1.6715  0.9824  1.7860
 7491SOL    HW329731   3.551   3.844   3.619  1.1583 -0.5378 -0.0966
 7491SOL    MW429732   3.555   3.892   3.547 -0.3668  0.2095  0.2795
 7492SOL     OW29733   5.603   2.051   0.682 -0.1671  0.1206 -0.4073
 7492SOL    HW229734   5.536   2.083   0.743  0.1971 -0.5668  0.3762
 7492SOL    HW329735   5.608   2.118   0.614 -1.2737  0.4400 -0.2008
 7492SOL    MW429736   5.595   2.064   0.681 -0.2651  0.0721 -0.2767
 7493SOL     OW29737   3.645   2.450   5.280  0.2065 -0.5401  0.2216
 7493SOL    HW229738   3.595   2.509   5.224  0.6784  0.1099  0.4695
 7493SOL    HW329739   3.720   2.424   5.227  0.2207 -0.5788  0.2604
 7493SOL    MW429740   3.648   2.454   5.266  0.2706 -0.4594  0.2594
 7494SOL     OW29741   0.496   5.286   3.455  0.2615  0.1717  0.4075
 7494SOL    HW229742   0.412   5.331   3.445  0.3352  0.5796  1.5235
 7494SOL    HW329743   0.518   5.297   3.547  1.9043  0.7128 -0.0113
 7494SOL    MW429744   0.487   5.294   3.466  0.4880  0.2969  0.4995
 7495SOL     OW29745   1.104   5.107   4.086  0.5533 -0.2399  0.1479
 7495SOL    HW229746   1.193   5.138   4.103  0.4555 -0.5991  1.4827
 7495SOL    HW329747   1.115   5.019   4.051  0.8289  1.1239 -3.5461
 7495SOL    MW429748   1.117   5.100   4.084  0.5767 -0.1074 -0.1634
 7496SOL     OW29749   5.182   4.827   2.601  0.3372  0.3278 -0.1822
 7496SOL    HW229750   5.211   4.788   2.683 -2.3028  0.7723  1.0631
 7496SOL    HW329751   5.197   4.921   2.613  1.7391  0.2622 -1.0631
 7496SOL    MW429752   5.188   4.835   2.613  0.1738  0.3778 -0.1341
 7497SOL     OW29753   2.131   6.363   5.245  0.4722  0.0372 -0.0616
 7497SOL    HW229754   2.060   6.327   5.190  1.1610  1.2347 -1.8021
 7497SOL    HW329755   2.124   6.457   5.234  0.5103  0.3406  2.1496
 7497SOL    MW429756   2.120   6.370   5.236  0.5681  0.2352  0.0005
 7498SOL     OW29757   3.250   2.251   0.143  0.3596  0.0944  0.4858
 7498SOL    HW229758   3.310   2.319   0.173  0.6229 -0.3542  0.9848
 7498SOL    HW329759   3.217   2.211   0.223 -1.0173  0.6753  0.2450
 7498SOL    MW429760   3.254   2.255   0.157  0.2127  0.1118  0.5199
 7499SOL     OW29761   3.917   0.587   1.219 -0.6513 -1.0335 -0.2549
 7499SOL    HW229762   3.889   0.671   1.256 -0.6050 -1.6973  1.3917
 7499SOL    HW329763   3.910   0.598   1.124 -0.7038  0.7948 -0.0624
 7499SOL    MW429764   3.912   0.599   1.212 -0.6522 -0.8799 -0.0122
 7500SOL     OW29765   1.441   4.089   2.946  0.2749 -0.0170  0.2835
 7500SOL    HW229766   1.429   3.997   2.921  0.2970  0.6690 -2.6375
 7500SOL    HW329767   1.536   4.099   2.956  0.4834  0.1261 -1.5609
 7500SOL    MW429768   1.452   4.078   2.944  0.3053  0.0924 -0.3452
 7501SOL     OW29769   4.211   0.833   5.862  0.2172 -0.1951 -0.2535
 7501SOL    HW229770   4.244   0.750   5.895 -2.5007 -1.0994  0.4830
 7501SOL    HW329771   4.236   0.835   5.770  1.1531 -1.3502 -0.0378
 7501SOL    MW429772   4.219   0.823   5.855 -0.0179 -0.4668 -0.1279
 7502SOL     OW29773   2.402   4.547   3.479 -0.1203  0.7218 -0.2172
 7502SOL    HW229774   2.404   4.554   3.574  0.9639 -0.0745 -0.1645
 7502SOL    HW329775   2.349   4.469   3.462 -0.4264  0.9413 -0.2719
 7502SOL    MW429776   2.395   4.537   3.489 -0.0176  0.6457 -0.2175
 7503SOL     OW29777   0.008   3.272   0.204  0.3855  0.0259  0.2999
 7503SOL    HW229778  -0.042   3.279   0.285  0.8341 -0.2479  0.6080
 7503SOL    HW329779   0.056   3.190   0.213 -0.6330 -0.7180 -0.8654
 7503SOL    MW429780   0.008   3.262   0.216  0.3103 -0.1084  0.1868
 7504SOL     OW29781   4.458   2.116   2.144  0.0040  0.3617 -0.3508
 7504SOL    HW229782   4.411   2.070   2.074 -0.6698  0.0399  0.2998
 7504SOL    HW329783   4.550   2.113   2.117 -0.0130 -1.4022 -0.3231
 7504SOL    MW429784   4.464   2.110   2.131 -0.0871  0.0865 -0.2613
 7505SOL     OW29785   3.655   3.485   3.524  0.4317 -0.1557 -0.5522
 7505SOL    HW229786   3.635   3.490   3.430 -2.2151 -1.1348 -0.1224
 7505SOL    HW329787   3.620   3.400   3.551  1.1119  0.1335  1.3544
 7505SOL    MW429788   3.648   3.474   3.515  0.1722 -0.2468 -0.2440
 7506SOL     OW29789   5.421   6.042   3.342 -0.0706 -0.1398  0.4442
 7506SOL    HW229790   5.506   6.004   3.365  1.7879  2.4591 -1.5243
 7506SOL    HW329791   5.422   6.129   3.383 -0.5433  1.0033 -1.8094
 7506SOL    MW429792   5.432   6.048   3.350  0.1123  0.3539 -0.1129
 7507SOL     OW29793   2.039   6.110   5.443 -0.4471 -0.0197  0.3279
 7507SOL    HW229794   2.026   6.203   5.423  1.5084 -0.3017 -2.8507
 7507SOL    HW329795   1.951   6.072   5.438 -1.2778  1.5900  1.6585
 7507SOL    MW429796   2.025   6.117   5.440 -0.2987  0.1555  0.0841
 7508SOL     OW29797   1.170   4.726   0.168 -0.4525 -0.4024  0.6076
 7508SOL    HW229798   1.151   4.724   0.074  0.5170 -0.9170  0.4167
 7508SOL    HW329799   1.083   4.730   0.209 -0.8898  2.3207 -0.3214
 7508SOL    MW429800   1.156   4.726   0.161 -0.3823 -0.1110  0.4599
 7509SOL     OW29801   0.917   2.727   1.790  0.1547  0.7824 -0.5065
 7509SOL    HW229802   0.949   2.805   1.745  0.5246  0.9368  0.0033
 7509SOL    HW329803   0.996   2.675   1.806  0.0982  0.9411  0.3432
 7509SOL    MW429804   0.932   2.730   1.787  0.1960  0.8237 -0.3271
 7510SOL     OW29805   2.829   5.987   4.892  0.4343 -0.3261  0.2135
 7510SOL    HW229806   2.911   5.941   4.913  1.0750  0.7199  0.0830
 7510SOL    HW329807   2.805   5.955   4.805  1.0576 -0.1633 -0.0217
 7510SOL    MW429808   2.837   5.977   4.883  0.6011 -0.1666  0.1653
 7511SOL     OW29809   3.094   4.756   2.029 -0.1421 -0.6372 -0.0932
 7511SOL    HW229810   3.120   4.800   1.947  0.0483  0.5771  0.5981
 7511SOL    HW329811   3.026   4.695   2.002  0.7577 -1.1390 -1.3534
 7511SOL    MW429812   3.088   4.754   2.014  0.0017 -0.5432 -0.1682
 7512SOL     OW29813   1.587   1.975   0.251  0.9024 -0.1403 -0.7581
 7512SOL    HW229814   1.630   2.050   0.293  0.5608 -0.4989  0.2825
 7512SOL    HW329815   1.596   1.904   0.315 -0.9934 -0.3017 -0.6074
 7512SOL    MW429816   1.594   1.976   0.265  0.6072 -0.2089 -0.6009
 7513SOL     OW29817   2.446   5.657   1.967  0.0109 -0.0801  0.4426
 7513SOL    HW229818   2.478   5.627   2.052  0.8092  1.0823  0.5842
 7513SOL    HW329819   2.514   5.717   1.936 -0.2106 -0.5792 -1.0871
 7513SOL    MW429820   2.459   5.661   1.974  0.0870  0.0074  0.2594
 7514SOL     OW29821   3.017   0.404   2.004 -0.4827  0.0696  0.1770
 7514SOL    HW229822   2.932   0.380   2.043 -1.1124  0.8998 -0.6659
 7514SOL    HW329823   3.034   0.335   1.940 -0.1507 -0.4962  0.8548
 7514SOL    MW429824   3.008   0.391   2.001 -0.5220  0.1045  0.1552
 7515SOL     OW29825   2.252   1.300   2.640  0.6377 -0.2179  0.4460
 7515SOL    HW229826   2.241   1.372   2.701 -0.3612  0.2061 -0.2112
 7515SOL    HW329827   2.328   1.251   2.673  1.4604  1.2370  0.7804
 7515SOL    MW429828   2.261   1.303   2.652  0.6145  0.0300  0.4034
 7516SOL     OW29829   1.133   3.896   3.518 -0.0400  0.3143 -0.4669
 7516SOL    HW229830   1.166   3.984   3.539  0.3137 -0.0713  0.6414
 7516SOL    HW329831   1.073   3.910   3.445  1.0605  1.2954 -1.2147
 7516SOL    MW429832   1.129   3.910   3.511  0.1519  0.3929 -0.4193
 7517SOL     OW29833   1.516   2.394   6.394  0.4618  0.8904 -0.0032
 7517SOL    HW229834   1.473   2.411   6.478 -1.5078 -1.1006 -0.5224
 7517SOL    HW329835   1.608   2.381   6.417 -0.0791  0.0631  1.9280
 7517SOL    MW429836   1.523   2.395   6.408  0.1305  0.5185  0.1831
 7518SOL     OW29837   3.069   3.179   3.629  0.4311  0.2398 -0.3847
 7518SOL    HW229838   3.097   3.196   3.719  0.1336  1.6239 -0.5236
 7518SOL    HW329839   3.120   3.240   3.576  2.4079 -2.1985 -1.4983
 7518SOL    MW429840   3.079   3.189   3.634  0.6527  0.1007 -0.5500
 7519SOL     OW29841   4.542   5.440   2.749  0.1617 -0.4891  0.2275
 7519SOL    HW229842   4.622   5.492   2.759 -0.5352  0.5160  0.7629
 7519SOL    HW329843   4.534   5.391   2.831  1.7797 -2.8997 -0.9650
 7519SOL    MW429844   4.551   5.440   2.761  0.2833 -0.6745  0.1408
 7520SOL     OW29845   2.131   2.935   1.822 -0.9706 -0.1805  0.2571
 7520SOL    HW229846   2.070   3.003   1.793  0.1188  0.7702  0.1339
 7520SOL    HW329847   2.214   2.958   1.781  0.0242 -0.1799  2.1702
 7520SOL    MW429848   2.134   2.947   1.813 -0.6956 -0.0550  0.4933
 7521SOL     OW29849   3.815   6.137   4.849  0.4498 -0.4704 -0.3057
 7521SOL    HW229850   3.811   6.062   4.790 -3.1311 -1.3801  0.8474
 7521SOL    HW329851   3.817   6.099   4.936 -1.7574  0.6437  0.3161
 7521SOL    MW429852   3.814   6.122   4.852 -0.3138 -0.4434 -0.0715
 7522SOL     OW29853   6.428   2.533   2.390  0.1160 -0.0003  0.9086
 7522SOL    HW229854   6.396   2.614   2.430 -0.8912  0.5022 -0.8097
 7522SOL    HW329855   6.349   2.483   2.369  0.6250 -0.5281  0.1835
 7522SOL    MW429856   6.414   2.537   2.392  0.0503 -0.0036  0.5862
 7523SOL     OW29857   5.124   0.129   3.628 -0.2059 -0.9089  0.0735
 7523SOL    HW229858   5.172   0.098   3.552 -0.4523 -0.5266 -0.2415
 7523SOL    HW329859   5.048   0.176   3.592  1.6134  2.6270  0.4195
 7523SOL    MW429860   5.120   0.131   3.613  0.0016 -0.3920  0.0776
 7524SOL     OW29861   0.985   0.457   2.461  0.4831 -0.3667 -0.5272
 7524SOL    HW229862   1.029   0.434   2.379  0.8299 -2.2481  0.1318
 7524SOL    HW329863   1.055   0.493   2.516  0.1888  1.1917 -1.1319
 7524SOL    MW429864   1.000   0.459   2.458  0.4900 -0.4093 -0.5200
 7525SOL     OW29865   1.793   5.260   5.214  0.0358 -0.0851  0.2780
 7525SOL    HW229866   1.732   5.226   5.279 -0.0546 -0.5032 -0.0252
 7525SOL    HW329867   1.873   5.209   5.227  0.1707  0.1470  0.3664
 7525SOL    MW429868   1.795   5.249   5.225  0.0417 -0.1097  0.2497
 7526SOL     OW29869   4.866   2.947   2.028 -0.0239 -0.1456  0.7390
 7526SOL    HW229870   4.960   2.927   2.023 -0.0074 -0.1235  0.9512
 7526SOL    HW329871   4.852   2.969   2.120 -0.1580  0.2458  0.6226
 7526SOL    MW429872   4.877   2.947   2.039 -0.0394 -0.0911  0.7516
 7527SOL     OW29873   0.906   4.772   3.568 -0.2867 -0.6401 -0.3779
 7527SOL    HW229874   0.979   4.721   3.532  1.7810  0.9787  1.2569
 7527SOL    HW329875   0.938   4.862   3.567 -1.3748 -0.1354  2.4041
 7527SOL    MW429876   0.920   4.777   3.563 -0.1575 -0.3599  0.2049
 7528SOL     OW29877   3.417   4.886   1.600 -0.0043 -0.3752  0.1306
 7528SOL    HW229878   3.437   4.974   1.631  2.0148 -0.3894 -0.9713
 7528SOL    HW329879   3.351   4.853   1.662  0.2381  1.3699  1.3897
 7528SOL    MW429880   3.411   4.893   1.612  0.2941 -0.1468  0.1513
 7529SOL     OW29881   0.185   2.433   0.525  0.0399  0.0746  1.1415
 7529SOL    HW229882   0.217   2.344   0.511 -0.2342 -0.0894  1.5212
 7529SOL    HW329883   0.260   2.480   0.561  0.6183  0.3927 -0.4249
 7529SOL    MW429884   0.199   2.427   0.528  0.0801  0.0949  0.9850
 7530SOL     OW29885   1.606   1.383   4.430 -0.0178 -0.4183  0.6569
 7530SOL    HW229886   1.622   1.319   4.361  0.6351 -0.6765  1.0325
 7530SOL    HW329887   1.621   1.468   4.388 -1.0948 -0.4976  0.1055
 7530SOL    MW429888   1.610   1.386   4.416 -0.0737 -0.4629  0.6337
 7531SOL     OW29889   2.290   0.707   5.997  0.2714 -0.4847  0.2664
 7531SOL    HW229890   2.324   0.660   6.073  0.4803  0.8469  1.0275
 7531SOL    HW329891   2.339   0.672   5.923  1.6126 -0.2771  1.0291
 7531SOL    MW429892   2.301   0.696   5.998  0.4759 -0.2816  0.4674
 7532SOL     OW29893   6.130   3.067   5.240  0.0832 -0.4900 -0.1341
 7532SOL    HW229894   6.178   3.035   5.317 -0.0783 -0.4202 -0.0042
 7532SOL    HW329895   6.186   3.043   5.166  2.0694  2.5944  0.1706
 7532SOL    MW429896   6.144   3.059   5.241  0.3239 -0.0738 -0.0768
 7533SOL     OW29897   2.004   1.879   0.260 -0.2146 -0.4527  0.0147
 7533SOL    HW229898   1.998   1.941   0.187 -2.4361 -0.8764 -0.2271
 7533SOL    HW329899   2.098   1.872   0.277  0.3555  0.0953 -2.4220
 7533SOL    MW429900   2.015   1.886   0.252 -0.4325 -0.4363 -0.3387
 7534SOL     OW29901   2.539   1.452   1.174 -0.3919 -0.8690  0.1655
 7534SOL    HW229902   2.468   1.515   1.186  0.7086  0.0925  2.1005
 7534SOL    HW329903   2.538   1.432   1.081 -1.6200  1.0037 -0.2749
 7534SOL    MW429904   2.530   1.457   1.163 -0.4087 -0.4951  0.3627
 7535SOL     OW29905   1.390   5.434   4.009  0.0791  0.6667  0.3454
 7535SOL    HW229906   1.465   5.446   3.952 -1.0744  0.6166 -1.2468
 7535SOL    HW329907   1.371   5.521   4.043  0.9659  0.6406  0.9571
 7535SOL    MW429908   1.397   5.447   4.006  0.0439  0.6566  0.2160
 7536SOL     OW29909   1.783   6.202   2.182 -0.0064 -0.3788 -0.0538
 7536SOL    HW229910   1.769   6.155   2.100 -0.2399  1.1711 -0.9347
 7536SOL    HW329911   1.697   6.239   2.204  0.4761  0.8851 -0.2011
 7536SOL    MW429912   1.770   6.200   2.174  0.0264 -0.0076 -0.1895
 7537SOL     OW29913   3.754   1.067   5.994  0.4914  0.2015 -0.4394
 7537SOL    HW229914   3.673   1.104   6.031 -1.0792 -2.9380 -0.3706
 7537SOL    HW329915   3.734   1.053   5.902  0.7228 -1.0291 -0.3268
 7537SOL    MW429916   3.740   1.070   5.987  0.3147 -0.3751 -0.4155
 7538SOL     OW29917   1.663   0.962   1.899 -0.6183 -0.1514  0.8618
 7538SOL    HW229918   1.708   0.887   1.937 -0.9611 -0.7714  0.0787
 7538SOL    HW329919   1.733   1.025   1.880 -0.0329 -1.1432 -0.4506
 7538SOL    MW429920   1.678   0.961   1.902 -0.5862 -0.3640  0.5853
 7539SOL     OW29921   1.093   3.563   5.766  0.3233  0.0273 -0.4894
 7539SOL    HW229922   1.186   3.577   5.749  0.4219  0.6655  0.5023
 7539SOL    HW329923   1.092   3.509   5.845 -0.1363  2.1627  1.0420
 7539SOL    MW429924   1.105   3.557   5.774  0.2757  0.3932 -0.1565
 7540SOL     OW29925   3.435   5.778   0.479  0.0267 -0.6856  0.6322
 7540SOL    HW229926   3.346   5.804   0.504  0.4438  0.4327  0.9958
 7540SOL    HW329927   3.445   5.690   0.516 -0.7466 -0.6124  1.0367
 7540SOL    MW429928   3.424   5.770   0.487 -0.0203 -0.5284  0.7336
 7541SOL     OW29929   2.424   1.063   6.111 -0.0352  0.3442 -0.9254
 7541SOL    HW229930   2.350   1.056   6.172 -0.9932 -0.2394 -2.1229
 7541SOL    HW329931   2.433   1.157   6.095  0.6039  0.5659  0.5188
 7541SOL    MW429932   2.416   1.075   6.117 -0.0773  0.2965 -0.8928
 7542SOL     OW29933   1.137   4.890   1.257 -0.1512 -0.5736  0.5855
 7542SOL    HW229934   1.139   4.972   1.306 -0.8425 -0.8053  1.0221
 7542SOL    HW329935   1.223   4.851   1.270  0.8474  0.9287 -1.1300
 7542SOL    MW429936   1.148   4.895   1.265 -0.1106 -0.4059  0.4168
 7543SOL     OW29937   2.936   5.059   0.104  0.3160  0.4204 -0.6284
 7543SOL    HW229938   2.883   5.051   0.025  0.9630  2.0334 -1.2818
 7543SOL    HW329939   2.872   5.076   0.174 -0.1617  0.4312 -1.0616
 7543SOL    MW429940   2.921   5.060   0.103  0.3383  0.6346 -0.7718
 7544SOL     OW29941   5.443   2.570   3.069 -0.1994  0.0709  0.0328
 7544SOL    HW229942   5.390   2.580   3.149 -0.5768 -0.0035 -0.2036
 7544SOL    HW329943   5.378   2.558   3.000  0.0254  1.8875 -0.5564
 7544SOL    MW429944   5.427   2.570   3.071 -0.2196  0.3007 -0.0761
 7545SOL     OW29945   1.351   4.513   5.190 -0.2520  0.0076  0.7524
 7545SOL    HW229946   1.430   4.485   5.237 -0.2700 -1.5170 -0.0658
 7545SOL    HW329947   1.313   4.581   5.245  1.5013  0.6088  1.2938
 7545SOL    MW429948   1.357   4.518   5.203 -0.0231 -0.1143  0.7159
 7546SOL     OW29949   6.025   4.894   0.357 -0.4726  0.1329 -0.3565
 7546SOL    HW229950   6.077   4.929   0.429  1.1112 -0.6737 -1.0591
 7546SOL    HW329951   5.957   4.960   0.342  0.8843  1.6709  0.0148
 7546SOL    MW429952   6.023   4.907   0.364 -0.0846  0.2294 -0.4002
 7547SOL     OW29953   1.163   0.534   2.656 -0.5360  0.0994 -0.0410
 7547SOL    HW229954   1.214   0.461   2.689 -0.7040 -0.4522 -0.9711
 7547SOL    HW329955   1.197   0.610   2.703 -0.6286 -0.6155  1.2202
 7547SOL    MW429956   1.174   0.535   2.667 -0.5704 -0.0677  0.0027
 7548SOL     OW29957   5.363   3.354   3.452 -0.2177 -0.2948  0.1212
 7548SOL    HW229958   5.358   3.334   3.546 -0.7032  0.7744  0.3439
 7548SOL    HW329959   5.457   3.353   3.432 -0.0587  0.2207  0.8019
 7548SOL    MW429960   5.375   3.351   3.462 -0.2607 -0.0857  0.2404
 7549SOL     OW29961   6.251   5.226   6.348 -0.1621 -0.3925  0.6837
 7549SOL    HW229962   6.276   5.243   6.439 -1.3017 -1.2272  1.1684
 7549SOL    HW329963   6.259   5.131   6.338 -3.0186 -0.7166  0.8697
 7549SOL    MW429964   6.256   5.216   6.359 -0.6893 -0.5454  0.7722
 7550SOL     OW29965   1.018   6.336   4.465 -0.4816  0.0147 -0.1271
 7550SOL    HW229966   0.999   6.289   4.546 -0.7516  0.2310 -0.0592
 7550SOL    HW329967   1.113   6.348   4.465 -0.5358  0.5259  0.4483
 7550SOL    MW429968   1.028   6.331   4.476 -0.5244  0.1107 -0.0422
 7551SOL     OW29969   0.177   6.164   1.212 -0.2166  0.4519 -0.6757
 7551SOL    HW229970   0.109   6.221   1.176  0.3943 -0.0494 -2.7848
 7551SOL    HW329971   0.237   6.224   1.257 -1.6762  0.9606  0.6812
 7551SOL    MW429972   0.176   6.179   1.213 -0.3286  0.4529 -0.7749
 7552SOL     OW29973   0.433   6.418   0.197  0.0335 -0.2190  0.2752
 7552SOL    HW229974   0.483   6.487   0.241  0.3061  1.1166 -1.9674
 7552SOL    HW329975   0.354   6.463   0.167 -0.1609 -1.0874 -0.5397
 7552SOL    MW429976   0.429   6.433   0.199  0.0438 -0.1574 -0.1282
 7553SOL     OW29977   5.930   3.800   1.902 -0.5756 -0.2059  0.2302
 7553SOL    HW229978   5.868   3.840   1.841 -0.2209 -1.0635 -0.7277
 7553SOL    HW329979   5.941   3.865   1.971 -0.4956  1.0776 -0.9438
 7553SOL    MW429980   5.923   3.814   1.903 -0.5182 -0.1497 -0.0511
 7554SOL     OW29981   6.174   2.977   1.106 -0.0968  0.4815 -0.3195
 7554SOL    HW229982   6.130   2.994   1.190  1.0556  1.7182  0.0725
 7554SOL    HW329983   6.109   3.002   1.040  0.3412  3.5331  0.2351
 7554SOL    MW429984   6.159   2.983   1.109  0.1131  1.0473 -0.1946
 7555SOL     OW29985   0.496   3.578   3.179 -0.5224 -0.3276 -0.1134
 7555SOL    HW229986   0.495   3.499   3.233 -1.3929  0.0051  0.3714
 7555SOL    HW329987   0.485   3.545   3.089 -0.6393 -0.7762  0.0610
 7555SOL    MW429988   0.494   3.563   3.174 -0.6526 -0.3429 -0.0264
 7556SOL     OW29989   3.018   1.557   1.189  0.2461 -0.6224 -0.1753
 7556SOL    HW229990   3.012   1.626   1.255 -1.9561 -1.1334  0.2403
 7556SOL    HW329991   3.098   1.577   1.141  0.1104  1.7636  0.4438
 7556SOL    MW429992   3.027   1.569   1.191 -0.0624 -0.3750 -0.0388
 7557SOL     OW29993   2.927   2.139   2.234  0.5505  0.8187  0.1042
 7557SOL    HW229994   2.846   2.087   2.236 -0.4657  2.3668  1.1385
 7557SOL    HW329995   2.951   2.150   2.326  0.2200  2.9016 -0.0111
 7557SOL    MW429996   2.919   2.133   2.246  0.3728  1.2978  0.2255
 7558SOL     OW29997   3.023   1.176   0.506 -0.4765  0.6196  0.2988
 7558SOL    HW229998   2.988   1.219   0.583  0.2331 -0.8315  1.4813
 7558SOL    HW329999   3.025   1.083   0.528  0.3173  0.2231 -1.2360
 7558SOL    MW430000   3.019   1.169   0.519 -0.2781  0.3759  0.2523
 7559SOL     OW30001   1.772   4.718   2.179  0.0460 -0.2645 -0.2343
 7559SOL    HW230002   1.825   4.794   2.201 -0.1549 -0.6050  1.6154
 7559SOL    HW330003   1.783   4.707   2.084 -1.0704  2.8676 -0.8116
 7559SOL    MW430004   1.780   4.726   2.169 -0.1278  0.1038 -0.0664
 7560SOL     OW30005   4.356   5.377   3.668  0.0599  0.7916 -0.1478
 7560SOL    HW230006   4.265   5.354   3.687  0.8277 -0.5270  2.4403
 7560SOL    HW330007   4.386   5.309   3.608  0.0547 -0.4695  1.2117
 7560SOL    MW430008   4.348   5.365   3.663  0.1606  0.4512  0.3730
 7561SOL     OW30009   3.791   3.289   3.842 -0.4764 -0.3928  0.0123
 7561SOL    HW230010   3.777   3.384   3.843 -1.7244 -0.5551 -0.0768
 7561SOL    HW330011   3.752   3.259   3.924  2.2408 -0.5685  1.3555
 7561SOL    MW430012   3.784   3.297   3.853 -0.2825 -0.4374  0.1777
 7562SOL     OW30013   1.863   4.932   3.079 -0.1736  0.4477 -0.2348
 7562SOL    HW230014   1.825   4.845   3.068  0.2352  0.0770  1.1433
 7562SOL    HW330015   1.957   4.916   3.090 -0.2444  0.9436  1.2249
 7562SOL    MW430016   1.870   4.918   3.079 -0.1290  0.4642  0.1396
 7563SOL     OW30017   5.230   0.903   4.640 -0.1789 -0.8180 -0.6131
 7563SOL    HW230018   5.173   0.948   4.578 -1.6606 -2.3291 -0.4257
 7563SOL    HW330019   5.170   0.854   4.696  1.2302 -0.9256  0.8596
 7563SOL    MW430020   5.214   0.902   4.639 -0.1885 -1.0315 -0.3941
 7564SOL     OW30021   4.046   1.883   5.033  0.1462 -0.0320  0.1204
 7564SOL    HW230022   4.001   1.906   4.952 -1.5587 -1.5560  0.5785
 7564SOL    HW330023   4.054   1.966   5.080 -0.7204  0.5292 -0.6863
 7564SOL    MW430024   4.041   1.897   5.028 -0.1931 -0.1590  0.0744
 7565SOL     OW30025   3.409   5.857   2.239  0.2163  0.1618 -0.0417
 7565SOL    HW230026   3.413   5.814   2.153 -1.1221  0.2656 -0.1655
 7565SOL    HW330027   3.500   5.883   2.256  0.1600  2.6018 -2.6972
 7565SOL    MW430028   3.422   5.855   2.230  0.0323  0.4974 -0.4084
 7566SOL     OW30029   0.169   2.620   2.771  0.1260  0.3596  0.0206
 7566SOL    HW230030   0.213   2.609   2.687 -1.1247 -1.7446 -0.4184
 7566SOL    HW330031   0.153   2.531   2.803 -2.5338  1.0059  0.7892
 7566SOL    MW430032   0.172   2.607   2.764 -0.3899  0.1672  0.0641
 7567SOL     OW30033   2.051   4.975   4.979  0.2206 -0.1269  0.1146
 7567SOL    HW230034   2.143   4.971   4.953  0.2666 -0.0098  0.2624
 7567SOL    HW330035   2.026   4.884   4.993 -0.1891 -0.3392 -1.7141
 7567SOL    MW430036   2.059   4.963   4.977  0.1726 -0.1395 -0.1071
 7568SOL     OW30037   5.125   0.221   5.995  0.1911 -0.1453  0.0438
 7568SOL    HW230038   5.181   0.181   6.062 -0.1474 -1.5785 -0.4803
 7568SOL    HW330039   5.147   0.173   5.915  0.7563  1.6929 -0.9417
 7568SOL    MW430040   5.135   0.209   5.993  0.2210 -0.0919 -0.1554
 7569SOL     OW30041   5.085   5.980   1.494  0.3636  0.4228 -0.2152
 7569SOL    HW230042   5.080   5.909   1.558  0.9196 -0.5242 -1.1960
 7569SOL    HW330043   5.028   5.952   1.423  2.6821 -0.4050 -1.8583
 7569SOL    MW430044   5.077   5.967   1.493  0.7428  0.1886 -0.5614
 7570SOL     OW30045   1.426   1.202   5.175 -0.1069 -0.1906 -0.4020
 7570SOL    HW230046   1.491   1.272   5.170 -0.5802  0.3508  0.6991
 7570SOL    HW330047   1.358   1.236   5.232 -0.4551 -1.4642 -0.0161
 7570SOL    MW430048   1.426   1.216   5.182 -0.2153 -0.2872 -0.2058
 7571SOL     OW30049   1.215   2.172   2.950  0.5159 -0.0262 -0.7262
 7571SOL    HW230050   1.188   2.237   3.015 -1.1060  0.2994 -1.6797
 7571SOL    HW330051   1.208   2.088   2.996  1.8227  0.3635  0.2555
 7571SOL    MW430052   1.211   2.169   2.965  0.4743  0.0681 -0.7224
 7572SOL     OW30053   4.334   1.670   2.345  0.4450  0.0935 -0.1396
 7572SOL    HW230054   4.346   1.593   2.289  0.0270 -0.0220 -0.0754
 7572SOL    HW330055   4.285   1.732   2.290 -0.8350 -0.4003  0.4126
 7572SOL    MW430056   4.329   1.668   2.330  0.2210  0.0131 -0.0582
 7573SOL     OW30057   1.371   0.699   4.734 -0.0364 -0.5340  0.9318
 7573SOL    HW230058   1.398   0.607   4.730  2.2763  0.1174 -0.2203
 7573SOL    HW330059   1.334   0.717   4.648  0.2795 -0.1916  0.8657
 7573SOL    MW430060   1.370   0.689   4.722  0.3104 -0.4029  0.7710
 7574SOL     OW30061   2.665   2.664   0.143  0.1525  0.0091 -0.6297
 7574SOL    HW230062   2.719   2.690   0.217 -0.5826  0.9067 -0.4035
 7574SOL    HW330063   2.723   2.674   0.067 -0.3227  3.1973 -0.6765
 7574SOL    MW430064   2.680   2.668   0.143 -0.0072  0.5482 -0.6060
 7575SOL     OW30065   0.033   0.879   1.091  0.8239 -0.1805 -0.1326
 7575SOL    HW230066   0.047   0.952   1.150 -0.4363  1.5927 -1.8881
 7575SOL    HW330067  -0.031   0.824   1.135  0.2210  0.8733  0.3320
 7575SOL    MW430068   0.027   0.881   1.104  0.5781  0.1925 -0.3030
 7576SOL     OW30069   1.450   4.502   6.381 -0.2387  0.0741  0.3907
 7576SOL    HW230070   1.529   4.467   6.340 -1.1091 -0.6261 -0.7484
 7576SOL    HW330071   1.413   4.429   6.429  0.6356  0.8228  2.3203
 7576SOL    MW430072   1.456   4.488   6.382 -0.2382  0.0805  0.4950
 7577SOL     OW30073   5.972   0.699   5.982  0.6324 -0.2160  0.2012
 7577SOL    HW230074   5.973   0.794   5.983  1.2003 -0.1764 -1.4383
 7577SOL    HW330075   5.893   0.676   5.934  1.5949 -0.4969 -1.3173
 7577SOL    MW430076   5.962   0.708   5.976  0.8343 -0.2478 -0.2154
 7578SOL     OW30077   6.091   4.007   4.119  0.2564  0.0918 -0.0546
 7578SOL    HW230078   6.157   3.980   4.055  0.1195 -4.0319  1.2445
 7578SOL    HW330079   6.007   3.993   4.074  0.2014  0.1176  0.0389
 7578SOL    MW430080   6.088   4.001   4.105  0.2311 -0.4488  0.1291
 7579SOL     OW30081   0.344   4.120   0.061  0.3072  0.7551  0.1806
 7579SOL    HW230082   0.352   4.061  -0.014  0.7862  2.2711 -1.0083
 7579SOL    HW330083   0.258   4.160   0.051 -0.1158  0.1019  1.1135
 7579SOL    MW430084   0.334   4.117   0.050  0.3146  0.8690  0.1468
 7580SOL     OW30085   2.192   6.015   4.530  0.3167  0.0674  0.4412
 7580SOL    HW230086   2.104   6.048   4.545 -0.0133  0.3430 -1.7781
 7580SOL    HW330087   2.247   6.064   4.591 -0.5920  2.4823 -0.5840
 7580SOL    MW430088   2.188   6.026   4.540  0.1533  0.4224  0.0132
 7581SOL     OW30089   4.418   0.465   3.992 -0.1738 -0.5527 -0.5622
 7581SOL    HW230090   4.447   0.517   3.918  0.5232 -1.1217 -0.7066
 7581SOL    HW330091   4.326   0.447   3.975 -0.5690  1.0300 -0.2587
 7581SOL    MW430092   4.410   0.469   3.980 -0.1340 -0.4190 -0.5412
 7582SOL     OW30093   1.071   5.968   4.200  0.4961  0.1794  0.2042
 7582SOL    HW230094   1.158   5.960   4.238  0.0931 -0.3954  1.0272
 7582SOL    HW330095   1.055   6.063   4.197  1.4990  0.3418 -0.8135
 7582SOL    MW430096   1.080   5.980   4.204  0.5753  0.1250  0.1785
 7583SOL     OW30097   2.497   5.867   5.994 -0.4735 -0.0065  0.2212
 7583SOL    HW230098   2.422   5.897   6.045  0.1351  1.5478  0.2794
 7583SOL    HW330099   2.478   5.893   5.904 -0.3223 -0.2258  0.1254
 7583SOL    MW430100   2.485   5.875   5.989 -0.3733  0.1696  0.2162
 7584SOL     OW30101   0.873   2.311   2.908 -0.0485 -1.0304  0.3598
 7584SOL    HW230102   0.946   2.367   2.883  1.1047 -1.5693  2.2999
 7584SOL    HW330103   0.871   2.243   2.841 -0.3971  0.3435 -1.0863
 7584SOL    MW430104   0.882   2.310   2.896  0.0577 -0.9202  0.4250
 7585SOL     OW30105   4.696   4.634   5.540  0.5885  0.5472  0.2417
 7585SOL    HW230106   4.747   4.660   5.463 -0.3770  0.0456 -0.5824
 7585SOL    HW330107   4.619   4.691   5.539 -0.4370 -0.8078 -0.3301
 7585SOL    MW430108   4.693   4.645   5.530  0.3258  0.3023  0.0575
 7586SOL     OW30109   0.092   4.344   3.418  0.1267  0.2014  0.0753
 7586SOL    HW230110   0.030   4.319   3.349  0.0500 -1.6429  0.7638
 7586SOL    HW330111   0.105   4.438   3.406 -2.0197  0.4376 -0.7207
 7586SOL    MW430112   0.086   4.353   3.407 -0.1666 -0.0108  0.0612
 7587SOL     OW30113   4.007   3.267   2.373  0.0158 -0.3939  0.5867
 7587SOL    HW230114   3.927   3.247   2.422 -0.0875  0.5927  0.8385
 7587SOL    HW330115   4.030   3.184   2.331 -1.8933 -0.3739 -0.6194
 7587SOL    MW430116   4.000   3.253   2.374 -0.2497 -0.2611  0.4608
 7588SOL     OW30117   5.708   3.033   1.293  0.5237  0.0187 -0.3660
 7588SOL    HW230118   5.648   2.992   1.231  0.8045  0.4528 -0.9417
 7588SOL    HW330119   5.705   3.126   1.272  2.0760 -0.0411 -1.0429
 7588SOL    MW430120   5.700   3.040   1.282  0.7655  0.0681 -0.5313
 7589SOL     OW30121   4.685   4.038   5.246 -0.1167 -0.3123 -0.1668
 7589SOL    HW230122   4.759   4.014   5.190  0.4708  1.4840 -0.2231
 7589SOL    HW330123   4.617   4.066   5.185 -0.5531 -1.1623 -0.0788
 7589SOL    MW430124   4.686   4.038   5.231 -0.0968 -0.1874 -0.1626
 7590SOL     OW30125   2.541   3.595   2.337  0.3858 -0.2633 -0.4315
 7590SOL    HW230126   2.554   3.603   2.432 -0.6920 -1.4889 -0.1460
 7590SOL    HW330127   2.455   3.635   2.322  0.5462 -0.0867 -0.8921
 7590SOL    MW430128   2.531   3.601   2.348  0.2648 -0.4017 -0.4546
 7591SOL     OW30129   3.302   5.745   1.246  0.0510 -0.3289  0.0451
 7591SOL    HW230130   3.353   5.665   1.259  2.8769  1.3388 -0.0650
 7591SOL    HW330131   3.348   5.791   1.176 -1.0219  1.7771  0.6542
 7591SOL    MW430132   3.315   5.740   1.238  0.2823  0.1690  0.1110
 7592SOL     OW30133   4.836   3.022   3.007  0.1934 -0.4789 -0.0742
 7592SOL    HW230134   4.885   2.947   3.038 -1.6655 -1.5119  0.5295
 7592SOL    HW330135   4.795   2.993   2.926 -0.7712 -0.2333  0.3111
 7592SOL    MW430136   4.837   3.008   3.001 -0.1791 -0.5828  0.0563
 7593SOL     OW30137   5.645   4.993   4.244  0.1022 -0.3977 -0.4604
 7593SOL    HW230138   5.569   4.942   4.272 -1.9405  3.0595  0.9705
 7593SOL    HW330139   5.719   4.954   4.291 -1.4872 -1.4133  1.3457
 7593SOL    MW430140   5.645   4.981   4.254 -0.3770 -0.0756 -0.0333
 7594SOL     OW30141   5.955   1.419   0.867 -0.1987 -1.0385  0.2202
 7594SOL    HW230142   5.930   1.414   0.775  0.6603 -1.5632  0.0037
 7594SOL    HW330143   6.042   1.379   0.870  0.1676 -0.2252  1.1051
 7594SOL    MW430144   5.963   1.413   0.855 -0.0371 -1.0004  0.3084
 7595SOL     OW30145   0.709   4.534   6.200 -0.4253 -0.0552 -0.2196
 7595SOL    HW230146   0.763   4.512   6.123 -0.0055 -0.1787  0.1064
 7595SOL    HW330147   0.680   4.449   6.233 -1.6166  0.0380 -0.9395
 7595SOL    MW430148   0.712   4.520   6.194 -0.5271 -0.0592 -0.2715
 7596SOL     OW30149   3.936   5.950   5.394  0.1092 -0.3423 -0.3815
 7596SOL    HW230150   3.891   5.868   5.416  1.2698 -0.5155  1.5788
 7596SOL    HW330151   4.005   5.958   5.460  0.4724  1.8739 -0.9488
 7596SOL    MW430152   3.939   5.940   5.405  0.3102 -0.0728 -0.1977
 7597SOL     OW30153   3.625   5.877   0.858  0.2587 -0.1877 -0.2489
 7597SOL    HW230154   3.552   5.815   0.865  1.2997 -1.4783 -0.4350
 7597SOL    HW330155   3.646   5.899   0.949  0.1962 -0.5024 -0.1555
 7597SOL    MW430156   3.618   5.872   0.871  0.3878 -0.3995 -0.2611
 7598SOL     OW30157   1.319   5.662   4.162  0.3715  0.5746 -0.4240
 7598SOL    HW230158   1.228   5.636   4.149 -0.0359  1.6668  0.1112
 7598SOL    HW330159   1.351   5.605   4.232 -0.4407  1.3093  0.5844
 7598SOL    MW430160   1.312   5.651   4.169  0.2106  0.8156 -0.2204
 7599SOL     OW30161   2.021   2.409   5.037 -0.1447 -0.5135 -0.0554
 7599SOL    HW230162   1.977   2.444   5.115 -0.5744 -1.9061  0.3480
 7599SOL    HW330163   1.973   2.447   4.964 -1.7363 -1.6236  0.3804
 7599SOL    MW430164   2.009   2.419   5.038 -0.4114 -0.8437  0.0553
 7600SOL     OW30165   5.808   4.385   2.648  0.4880 -0.1184  0.1282
 7600SOL    HW230166   5.745   4.313   2.638  0.4591 -0.1944  0.7903
 7600SOL    HW330167   5.788   4.445   2.576 -0.9800  0.3211  0.8522
 7600SOL    MW430168   5.797   4.384   2.637  0.2905 -0.0704  0.3111
 7601SOL     OW30169   0.968   4.209   3.698  0.0038 -0.0029 -0.1241
 7601SOL    HW230170   0.892   4.196   3.642  1.9074 -3.2017 -2.2790
 7601SOL    HW330171   0.950   4.156   3.776 -0.8107  0.9902  0.3909
 7601SOL    MW430172   0.956   4.200   3.701  0.1475 -0.2939 -0.3404
 7602SOL     OW30173   2.950   1.039   1.444 -0.5044 -0.7155  0.2393
 7602SOL    HW230174   2.958   0.981   1.368  0.6837 -0.6845  0.3312
 7602SOL    HW330175   2.989   0.990   1.516 -2.2620 -1.0462  1.0334
 7602SOL    MW430176   2.956   1.025   1.443 -0.5795 -0.7550  0.3562
 7603SOL     OW30177   2.075   2.948   1.485  0.8578  0.4700 -0.2712
 7603SOL    HW230178   2.060   3.018   1.421  1.1320 -1.1309 -2.1908
 7603SOL    HW330179   2.036   2.870   1.444  0.9771 -0.6155  1.5785
 7603SOL    MW430180   2.068   2.947   1.471  0.9097  0.1156 -0.2804
 7604SOL     OW30181   2.442   2.001   2.051 -0.0716 -0.0475 -0.3198
 7604SOL    HW230182   2.517   2.046   2.089 -1.3524  1.4975  0.5236
 7604SOL    HW330183   2.393   1.968   2.127 -1.0056  0.2960 -0.7493
 7604SOL    MW430184   2.445   2.003   2.066 -0.3638  0.2017 -0.2652
 7605SOL     OW30185   2.832   4.217   1.812 -0.4472  0.5479  0.0993
 7605SOL    HW230186   2.855   4.191   1.901 -0.0344  2.5417  0.6341
 7605SOL    HW330187   2.887   4.162   1.756  0.2932  0.2104  1.1200
 7605SOL    MW430188   2.842   4.206   1.816 -0.2950  0.7664  0.3045
 7606SOL     OW30189   1.291   0.656   2.413 -0.0824  0.6266  0.1320
 7606SOL    HW230190   1.257   0.601   2.484 -1.8534  0.2583 -0.9369
 7606SOL    HW330191   1.340   0.595   2.357 -0.3473  0.5220  0.0111
 7606SOL    MW430192   1.293   0.640   2.415 -0.3510  0.5642 -0.0250
 7607SOL     OW30193   2.017   1.702   3.739 -0.0801  0.0482 -0.1159
 7607SOL    HW230194   2.074   1.778   3.737 -0.8760  0.6516 -0.3486
 7607SOL    HW330195   2.077   1.627   3.740  0.7373  0.6707  1.3973
 7607SOL    MW430196   2.032   1.702   3.739 -0.0772  0.2099  0.0530
 7608SOL     OW30197   2.796   3.639   0.333 -0.2665  0.9471  0.1119
 7608SOL    HW230198   2.801   3.681   0.247 -0.9517  0.1871 -0.3059
 7608SOL    HW330199   2.791   3.546   0.314  1.1674  0.6538  1.0382
 7608SOL    MW430200   2.796   3.632   0.319 -0.1677  0.8081  0.1790
 7609SOL     OW30201   4.193   1.187   1.494 -0.4868 -0.0098 -0.3004
 7609SOL    HW230202   4.102   1.160   1.478 -0.4818  0.1651 -0.6369
 7609SOL    HW330203   4.231   1.115   1.544 -0.4448 -0.6928 -1.2768
 7609SOL    MW430204   4.186   1.174   1.498 -0.4806 -0.0769 -0.4736
 7610SOL     OW30205   5.869   0.111   1.772  0.1562 -0.0046 -0.3389
 7610SOL    HW230206   5.884   0.203   1.797 -0.6540  0.1064 -0.2214
 7610SOL    HW330207   5.848   0.114   1.679 -0.6975  0.0411 -0.1592
 7610SOL    MW430208   5.868   0.124   1.763 -0.0634  0.0161 -0.2997
 7611SOL     OW30209   6.339   0.865   3.214 -0.1999  0.5851 -0.1791
 7611SOL    HW230210   6.286   0.786   3.201  1.4672 -0.0911 -4.7725
 7611SOL    HW330211   6.288   0.935   3.174  0.3418  0.8456 -0.4300
 7611SOL    MW430212   6.325   0.864   3.207  0.0915  0.5303 -0.8182
 7612SOL     OW30213   1.131   2.727   6.244  0.5023  0.4044 -0.3298
 7612SOL    HW230214   1.058   2.670   6.222  0.3150  0.3981  0.2971
 7612SOL    HW330215   1.208   2.670   6.241  0.9623  0.9645 -3.8718
 7612SOL    MW430216   1.131   2.712   6.241  0.5383  0.4774 -0.7144
 7613SOL     OW30217   0.853   5.030   2.457 -0.4122 -0.3889 -0.1247
 7613SOL    HW230218   0.798   5.027   2.535  0.9192 -0.8362  0.8238
 7613SOL    HW330219   0.935   4.989   2.483  0.7262  1.0580 -1.2234
 7613SOL    MW430220   0.856   5.024   2.470 -0.0864 -0.2570 -0.1445
 7614SOL     OW30221   0.111   2.152   4.828 -0.1863  0.1181  0.3846
 7614SOL    HW230222   0.068   2.071   4.857  0.1200 -0.3412 -0.3952
 7614SOL    HW330223   0.160   2.182   4.904 -0.7447 -0.1238  0.8540
 7614SOL    MW430224   0.112   2.145   4.842 -0.2196  0.0256  0.3436
 7615SOL     OW30225   1.253   6.001   0.488 -0.2390  0.4679 -0.2375
 7615SOL    HW230226   1.182   5.979   0.549 -0.2605  0.6594 -0.1911
 7615SOL    HW330227   1.208   6.043   0.415 -0.0349  2.0581  0.5024
 7615SOL    MW430228   1.238   6.004   0.487 -0.2149  0.7030 -0.1337
 7616SOL     OW30229   5.621   0.818   5.675  0.7655  0.1012 -0.0417
 7616SOL    HW230230   5.667   0.849   5.597  1.4338 -2.0570 -0.5784
 7616SOL    HW330231   5.535   0.860   5.670  0.7871  0.0016 -1.9644
 7616SOL    MW430232   5.616   0.828   5.664  0.8565 -0.1967 -0.3662
 7617SOL     OW30233   2.570   5.430   4.677 -0.4144 -0.3542 -0.2796
 7617SOL    HW230234   2.529   5.410   4.593  1.5089 -1.3339 -1.0590
 7617SOL    HW330235   2.568   5.525   4.683  0.1004 -0.2020 -1.8477
 7617SOL    MW430236   2.564   5.440   4.667 -0.0927 -0.4634 -0.5893
 7618SOL     OW30237   4.987   5.353   4.738  0.2865  0.6524  0.4863
 7618SOL    HW230238   4.954   5.394   4.658 -0.3090 -0.2812  0.2448
 7618SOL    HW330239   5.031   5.424   4.784  0.8104  1.1586 -0.7574
 7618SOL    MW430240   4.988   5.368   4.734  0.2770  0.5960  0.2904
 7619SOL     OW30241   2.976   2.480   4.514 -0.8152 -0.1788 -0.2100
 7619SOL    HW230242   2.922   2.504   4.589 -1.4810 -0.1618 -0.6873
 7619SOL    HW330243   2.927   2.509   4.437 -0.3659 -0.6123 -0.6817
 7619SOL    MW430244   2.963   2.487   4.513 -0.8438 -0.2338 -0.3352
 7620SOL     OW30245   1.034   3.563   2.939  0.0774  0.5333 -0.3125
 7620SOL    HW230246   1.016   3.501   2.869 -1.1983 -1.3473  1.5547
 7620SOL    HW330247   1.026   3.649   2.898 -0.2854 -0.4883 -2.5131
 7620SOL    MW430248   1.031   3.566   2.925 -0.1388  0.1504 -0.3565
 7621SOL     OW30249   2.373   2.460   4.387 -0.0414 -0.3821  0.1005
 7621SOL    HW230250   2.289   2.414   4.382 -0.3764  0.2528 -0.2262
 7621SOL    HW330251   2.428   2.403   4.439  0.0375 -1.8894 -1.5567
 7621SOL    MW430252   2.369   2.447   4.393 -0.0752 -0.4972 -0.1612
 7622SOL     OW30253   6.216   0.603   3.148  0.5501  0.1519 -0.4744
 7622SOL    HW230254   6.185   0.552   3.073 -1.1957  0.9039 -0.3114
 7622SOL    HW330255   6.212   0.541   3.221  2.9924 -0.8154 -1.0574
 7622SOL    MW430256   6.212   0.588   3.148  0.6420  0.1235 -0.5298
 7623SOL     OW30257   1.467   0.438   4.729  0.2785  0.2350  0.2451
 7623SOL    HW230258   1.403   0.387   4.779 -1.1598  0.7622 -0.9522
 7623SOL    HW330259   1.490   0.381   4.655 -0.8170  1.0116 -0.7270
 7623SOL    MW430260   1.461   0.424   4.726 -0.0558  0.4070 -0.0411
 7624SOL     OW30261   5.237   2.466   3.528  0.4483 -0.4484 -0.4695
 7624SOL    HW230262   5.316   2.516   3.546  1.2306 -1.2267 -1.5717
 7624SOL    HW330263   5.166   2.530   3.533  1.1613  0.3066  0.3178
 7624SOL    MW430264   5.238   2.481   3.531  0.6456 -0.4515 -0.5110
 7625SOL     OW30265   2.043   2.464   5.684  0.2777 -0.0463 -0.6855
 7625SOL    HW230266   2.030   2.370   5.697 -0.6488  0.0283 -0.9397
 7625SOL    HW330267   2.075   2.496   5.768  0.8635 -0.6347 -0.6826
 7625SOL    MW430268   2.045   2.456   5.697  0.2328 -0.1141 -0.7187
 7626SOL     OW30269   0.475   3.474   5.799  0.4631  0.2151  0.7402
 7626SOL    HW230270   0.525   3.480   5.718  0.7930 -0.4018  0.8964
 7626SOL    HW330271   0.506   3.548   5.852  1.0632 -0.0392  0.7515
 7626SOL    MW430272   0.486   3.485   5.796  0.5858  0.1002  0.7623
 7627SOL     OW30273   4.079   4.119   5.053 -0.1126 -0.2023  0.1731
 7627SOL    HW230274   4.058   4.120   5.146  1.3190 -0.2932  0.5274
 7627SOL    HW330275   4.155   4.061   5.047 -0.4599 -0.5533 -1.1212
 7627SOL    MW430276   4.087   4.111   5.064  0.0304 -0.2606  0.0491
 7628SOL     OW30277   4.528   4.230   4.913  0.0950 -0.4290  0.3762
 7628SOL    HW230278   4.602   4.287   4.892 -1.8413  2.4827  0.7859
 7628SOL    HW330279   4.474   4.232   4.835 -0.1888 -1.4439  0.5443
 7628SOL    MW430280   4.531   4.238   4.900 -0.1979 -0.1788  0.4524
 7629SOL     OW30281   1.532   0.892   0.066 -0.4927  0.1976 -0.3434
 7629SOL    HW230282   1.597   0.845   0.013 -1.3011 -1.7431  0.3158
 7629SOL    HW330283   1.474   0.933   0.003  0.0445  0.0432 -0.9431
 7629SOL    MW430284   1.533   0.891   0.051 -0.5284 -0.0789 -0.3356
 7630SOL     OW30285   5.585   1.917   5.037 -0.1492 -0.3875 -0.3371
 7630SOL    HW230286   5.592   2.013   5.034  0.8181 -0.3511  1.5507
 7630SOL    HW330287   5.509   1.897   4.983 -1.5991  1.6212  0.8267
 7630SOL    MW430288   5.576   1.927   5.029 -0.2129 -0.1177  0.0655
 7631SOL     OW30289   3.216   4.787   5.742  0.1893 -0.1234 -0.1732
 7631SOL    HW230290   3.236   4.696   5.761 -0.4082 -0.4876 -1.2442
 7631SOL    HW330291   3.151   4.812   5.809  0.0851 -0.5834 -0.1020
 7631SOL    MW430292   3.210   4.778   5.754  0.0967 -0.2321 -0.3051
 7632SOL     OW30293   2.567   2.409   1.786 -0.0693  0.2539 -0.6351
 7632SOL    HW230294   2.504   2.343   1.758 -0.1332  0.3066 -0.6174
 7632SOL    HW330295   2.519   2.462   1.849 -0.0852  0.4485 -0.8086
 7632SOL    MW430296   2.552   2.407   1.791 -0.0798  0.2865 -0.6557
 7633SOL     OW30297   0.833   3.327   6.168  0.4834 -0.5085  0.2546
 7633SOL    HW230298   0.746   3.302   6.136 -0.5931  0.7740  2.0323
 7633SOL    HW330299   0.830   3.422   6.172  2.2466 -0.4042 -0.2802
 7633SOL    MW430300   0.821   3.336   6.164  0.5740 -0.3255  0.4186
 7634SOL     OW30301   1.553   4.128   0.617  0.1579  0.6896  0.1132
 7634SOL    HW230302   1.575   4.073   0.542  1.1403  2.4169 -0.9301
 7634SOL    HW330303   1.507   4.070   0.677  2.1053 -1.5604 -0.4191
 7634SOL    MW430304   1.550   4.113   0.615  0.5444  0.6206 -0.0947
 7635SOL     OW30305   0.102   2.450   1.276 -0.6652 -0.3560  0.4922
 7635SOL    HW230306   0.159   2.524   1.296 -0.7163  0.6689 -2.5047
 7635SOL    HW330307   0.014   2.489   1.272 -0.6304 -0.3624 -1.6231
 7635SOL    MW430308   0.098   2.465   1.278 -0.6674 -0.2216 -0.1823
 7636SOL     OW30309   3.644   3.902   3.927 -0.0878 -0.6298  0.1124
 7636SOL    HW230310   3.731   3.917   3.888 -0.5242  1.8846 -0.0986
 7636SOL    HW330311   3.662   3.884   4.019  0.6716  0.6627  0.2515
 7636SOL    MW430312   3.658   3.902   3.934 -0.0452 -0.1275  0.1029
 7637SOL     OW30313   1.418   0.083   0.473  0.1015 -0.3341  0.0518
 7637SOL    HW230314   1.450   0.117   0.390  1.9808  0.2498  0.9462
 7637SOL    HW330315   1.372   0.003   0.451  1.6533 -0.8553 -1.4433
 7637SOL    MW430316   1.416   0.077   0.459  0.5542 -0.3258 -0.0274
 7638SOL     OW30317   6.259   3.693   5.637  0.1196 -0.0765 -0.5556
 7638SOL    HW230318   6.267   3.640   5.716  0.2473  0.7633  0.0133
 7638SOL    HW330319   6.219   3.775   5.667 -3.8868 -1.2569 -2.0547
 7638SOL    MW430320   6.255   3.697   5.651 -0.3922 -0.1215 -0.6784
 7639SOL     OW30321   5.988   5.595   4.859  0.1033  0.1050 -0.3634
 7639SOL    HW230322   5.941   5.663   4.907 -0.0985  0.7040 -1.3777
 7639SOL    HW330323   5.922   5.554   4.803  0.3941 -0.3805 -0.3590
 7639SOL    MW430324   5.973   5.599   4.858  0.1151  0.1199 -0.4966
 7640SOL     OW30325   0.756   3.897   2.369  0.0199  0.3793 -0.2415
 7640SOL    HW230326   0.735   3.985   2.339 -0.5536  0.3155 -0.0476
 7640SOL    HW330327   0.764   3.905   2.464  1.1248  0.4429 -0.3288
 7640SOL    MW430328   0.754   3.910   2.378  0.0900  0.3793 -0.2274
 7641SOL     OW30329   1.786   0.149   0.471 -0.1902  0.2232 -0.5422
 7641SOL    HW230330   1.749   0.093   0.540  0.5105  0.1102 -0.2477
 7641SOL    HW330331   1.793   0.235   0.511 -1.0383  0.4711 -0.9158
 7641SOL    MW430332   1.782   0.153   0.485 -0.2096  0.2410 -0.5526
 7642SOL     OW30333   2.413   0.051   2.426 -0.2316  0.1326  0.2763
 7642SOL    HW230334   2.460   0.122   2.470  0.4233  0.7601 -1.3848
 7642SOL    HW330335   2.461  -0.028   2.451  0.9070  0.6192 -0.2828
 7642SOL    MW430336   2.426   0.050   2.435  0.0051  0.2796 -0.0166
 7643SOL     OW30337   3.218   0.482   4.976  0.0600  0.4506 -0.0649
 7643SOL    HW230338   3.170   0.402   4.954  0.0469  0.7860 -1.3463
 7643SOL    HW330339   3.228   0.478   5.071 -0.1818 -0.9319 -0.0681
 7643SOL    MW430340   3.213   0.471   4.986  0.0264  0.3124 -0.2344
 7644SOL     OW30341   2.438   0.313   3.435 -0.0895 -0.0360 -0.1013
 7644SOL    HW230342   2.359   0.358   3.404 -0.3891 -1.2407 -1.1457
 7644SOL    HW330343   2.407   0.231   3.472  0.5419  0.1996  1.0312
 7644SOL    MW430344   2.424   0.308   3.436 -0.0457 -0.1638 -0.0897
 7645SOL     OW30345   5.245   3.342   4.215 -0.0575 -0.8562 -0.2275
 7645SOL    HW230346   5.170   3.285   4.233  0.8505 -1.8493  0.5810
 7645SOL    HW330347   5.265   3.382   4.300  1.2950 -1.8436 -0.0393
 7645SOL    MW430348   5.238   3.340   4.229  0.2408 -1.1175 -0.0960
 7646SOL     OW30349   1.421   1.834   1.358 -0.1770 -0.1438  0.2706
 7646SOL    HW230350   1.493   1.772   1.370 -0.1977 -0.2072  0.0654
 7646SOL    HW330351   1.441   1.906   1.419 -0.4164 -0.5878  0.8786
 7646SOL    MW430352   1.433   1.836   1.367 -0.2113 -0.2107  0.3237
 7647SOL     OW30353   1.245   0.442   2.987 -0.0225  0.3105 -0.0221
 7647SOL    HW230354   1.294   0.507   3.037  1.6823 -1.9218  1.4275
 7647SOL    HW330355   1.224   0.374   3.051 -2.3178 -0.3022 -1.3238
 7647SOL    MW430356   1.249   0.442   3.002 -0.1004 -0.0649 -0.0026
 7648SOL     OW30357   5.302   3.833   4.957  0.1524  0.2536  0.6696
 7648SOL    HW230358   5.351   3.912   4.932  0.5010  0.6988  2.6044
 7648SOL    HW330359   5.218   3.867   4.988 -0.9176 -0.4075 -1.3534
 7648SOL    MW430360   5.298   3.848   4.958  0.0572  0.2251  0.6579
 7649SOL     OW30361   2.016   4.756   1.098 -0.0065  0.0489 -0.2984
 7649SOL    HW230362   1.966   4.831   1.065  2.5480  2.9564  1.8517
 7649SOL    HW330363   1.968   4.728   1.176 -0.7981 -0.4178 -0.9336
 7649SOL    MW430364   2.003   4.762   1.104  0.2261  0.3710 -0.0986
 7650SOL     OW30365   4.499   2.423   2.068  0.1601  0.1438 -0.2997
 7650SOL    HW230366   4.499   2.327   2.072  1.2109  0.1712  0.5729
 7650SOL    HW330367   4.533   2.443   1.980  0.1863 -0.2812 -0.3886
 7650SOL    MW430368   4.503   2.413   2.057  0.3022  0.0913 -0.1963
 7651SOL     OW30369   6.217   4.206   2.640  0.3778  0.5176  0.5637
 7651SOL    HW230370   6.139   4.151   2.631 -0.1422  1.4022 -0.5082
 7651SOL    HW330371   6.272   4.159   2.703 -1.5975  0.5486  2.4349
 7651SOL    MW430372   6.214   4.193   2.648  0.0486  0.6384  0.6692
 7652SOL     OW30373   0.099   0.500   2.642 -0.4801  0.1107 -0.4644
 7652SOL    HW230374   0.184   0.538   2.665 -0.3665  0.5593 -1.5449
 7652SOL    HW330375   0.048   0.507   2.722 -0.0401  1.4115 -0.2623
 7652SOL    MW430376   0.104   0.506   2.655 -0.4071  0.3416 -0.5803
 7653SOL     OW30377   0.105   2.897   2.332 -0.2777  0.4093  0.2890
 7653SOL    HW230378   0.150   2.879   2.250 -0.3996 -0.3224  0.3695
 7653SOL    HW330379   0.175   2.904   2.397 -0.1664  1.2459  0.0803
 7653SOL    MW430380   0.120   2.895   2.330 -0.2791  0.4232  0.2720
 7654SOL     OW30381   5.340   5.849   2.275  0.1694  0.2809 -0.0575
 7654SOL    HW230382   5.323   5.894   2.192 -1.9548 -1.7463 -0.8367
 7654SOL    HW330383   5.264   5.792   2.287  1.3985 -1.0037  2.2652
 7654SOL    MW430384   5.328   5.848   2.265  0.0513 -0.1560  0.1462
 7655SOL     OW30385   0.149   3.794   1.575 -0.1782 -0.0376  0.3891
 7655SOL    HW230386   0.074   3.853   1.574  0.0496  0.2642  0.7375
 7655SOL    HW330387   0.114   3.709   1.547 -0.5168  0.2528 -0.0715
 7655SOL    MW430388   0.134   3.790   1.571 -0.1928  0.0405  0.3743
 7656SOL     OW30389   4.976   5.151   5.829  0.0801  0.4283  0.7485
 7656SOL    HW230390   4.887   5.138   5.862 -0.6627 -0.2891 -1.3763
 7656SOL    HW330391   4.985   5.246   5.821 -1.6730  0.4565 -1.8712
 7656SOL    MW430392   4.966   5.162   5.833 -0.2492  0.3373  0.1225
 7657SOL     OW30393   0.420   6.385   4.217  0.0677 -0.3179 -0.2786
 7657SOL    HW230394   0.328   6.381   4.189  0.2297  0.4458 -0.9765
 7657SOL    HW330395   0.452   6.468   4.180  0.3407  0.7233  2.0928
 7657SOL    MW430396   0.412   6.396   4.208  0.1251 -0.0798 -0.0578
 7658SOL     OW30397   5.373   5.441   4.969 -0.0157  0.2476 -0.1808
 7658SOL    HW230398   5.309   5.390   4.919 -0.6745  0.9349 -0.0575
 7658SOL    HW330399   5.457   5.402   4.946 -0.3882 -0.0365 -1.1203
 7658SOL    MW430400   5.376   5.429   4.959 -0.1518  0.3008 -0.2885
 7659SOL     OW30401   1.737   3.973   3.580 -0.2911  0.4586  0.8284
 7659SOL    HW230402   1.768   3.973   3.489  0.1569 -0.9247  0.9634
 7659SOL    HW330403   1.645   3.998   3.573 -0.5785 -0.7525 -0.1526
 7659SOL    MW430404   1.729   3.977   3.567 -0.2699  0.1163  0.7168
 7660SOL     OW30405   1.840   5.177   5.678 -0.3633  0.4615  0.6182
 7660SOL    HW230406   1.798   5.205   5.759  0.4265 -0.3704  1.3419
 7660SOL    HW330407   1.932   5.200   5.690  0.1169 -1.4173  0.7967
 7660SOL    MW430408   1.847   5.184   5.690 -0.1958  0.1039  0.7373
 7661SOL     OW30409   2.557   6.151   0.672  0.1858  0.5812 -0.5901
 7661SOL    HW230410   2.561   6.116   0.583 -0.1356  1.5595 -1.0123
 7661SOL    HW330411   2.645   6.184   0.689  0.4504 -0.2708 -0.2460
 7661SOL    MW430412   2.569   6.151   0.662  0.1783  0.5979 -0.6004
 7662SOL     OW30413   1.847   1.336   6.256 -0.2028 -0.0320 -0.6066
 7662SOL    HW230414   1.879   1.347   6.346  0.1232  0.4370 -0.7730
 7662SOL    HW330415   1.781   1.405   6.246  0.8095  0.8782 -1.1922
 7662SOL    MW430416   1.842   1.347   6.267 -0.0262  0.1500 -0.7058
 7663SOL     OW30417   5.385   0.556   0.655  0.2540  0.1363 -0.8064
 7663SOL    HW230418   5.401   0.476   0.604 -0.7816  0.7743 -2.1967
 7663SOL    HW330419   5.348   0.524   0.738  1.1483 -0.8748 -0.7635
 7663SOL    MW430420   5.382   0.541   0.660  0.2353  0.0871 -0.9842
 7664SOL     OW30421   2.434   1.490   5.145 -0.5136  0.3565  0.5191
 7664SOL    HW230422   2.422   1.428   5.217 -0.9868 -1.2127 -0.8329
 7664SOL    HW330423   2.516   1.461   5.103 -0.1782  1.3243  0.4950
 7664SOL    MW430424   2.443   1.478   5.149 -0.5318  0.2771  0.3376
 7665SOL     OW30425   0.538   0.577   5.404  0.1955  0.0932 -0.2708
 7665SOL    HW230426   0.561   0.534   5.486  1.3023  0.0297 -0.6011
 7665SOL    HW330427   0.553   0.511   5.337 -0.5620  0.1930 -0.5491
 7665SOL    MW430428   0.543   0.563   5.406  0.2416  0.0980 -0.3511
 7666SOL     OW30429   2.145   0.820   0.914  0.7154 -0.4555  0.9334
 7666SOL    HW230430   2.191   0.890   0.868 -0.8718 -0.0467 -0.1322
 7666SOL    HW330431   2.157   0.742   0.859 -0.6212 -0.1215  0.1193
 7666SOL    MW430432   2.153   0.819   0.901  0.3297 -0.3575  0.6854
 7667SOL     OW30433   2.537   4.347   4.137 -0.0876  0.4618 -0.3711
 7667SOL    HW230434   2.492   4.331   4.220  0.5663 -2.9144 -0.5130
 7667SOL    HW330435   2.622   4.382   4.162  0.5477 -1.5999  0.5351
 7667SOL    MW430436   2.542   4.349   4.151  0.0825 -0.2557 -0.2702
 7668SOL     OW30437   4.597   1.532   3.726 -0.1090 -0.1380 -0.2631
 7668SOL    HW230438   4.596   1.461   3.662  0.6657 -0.2280 -0.1854
 7668SOL    HW330439   4.593   1.612   3.673  0.5317 -0.2122 -0.4387
 7668SOL    MW430440   4.596   1.533   3.711  0.0777 -0.1597 -0.2760
 7669SOL     OW30441   6.212   4.206   4.339  0.6443  0.5740  0.0095
 7669SOL    HW230442   6.164   4.263   4.279 -1.2629  1.3307  2.0953
 7669SOL    HW330443   6.229   4.126   4.288 -1.5656  0.8527 -1.3098
 7669SOL    MW430444   6.208   4.203   4.324  0.1011  0.7106  0.1106
 7670SOL     OW30445   3.651   1.593   2.401  0.3248  0.0981  0.0004
 7670SOL    HW230446   3.657   1.498   2.390  0.3954 -0.0722  1.3760
 7670SOL    HW330447   3.741   1.622   2.414  0.1979  0.1849  0.7402
 7670SOL    MW430448   3.663   1.584   2.401  0.3174  0.0870  0.2795
 7671SOL     OW30449   0.522   5.355   1.677 -0.4834 -0.4799 -0.0935
 7671SOL    HW230450   0.467   5.316   1.745  1.4417 -0.6007  1.5119
 7671SOL    HW330451   0.524   5.448   1.698  1.1848 -0.6980  0.9105
 7671SOL    MW430452   0.515   5.362   1.689 -0.0093 -0.5246  0.2508
 7672SOL     OW30453   5.958   1.286   3.440 -0.5064  0.2839 -0.0722
 7672SOL    HW230454   5.867   1.288   3.469 -0.3465 -0.2387  0.4756
 7672SOL    HW330455   5.953   1.264   3.347 -0.8387 -2.8552  0.5919
 7672SOL    MW430456   5.945   1.283   3.432 -0.5291 -0.1992  0.0877
 7673SOL     OW30457   1.129   4.905   1.649 -0.1222 -0.1957 -0.6349
 7673SOL    HW230458   1.083   4.932   1.728  0.6802 -0.1188 -0.1814
 7673SOL    HW330459   1.063   4.859   1.597 -0.6333 -0.3406  0.1257
 7673SOL    MW430460   1.114   4.902   1.653 -0.0837 -0.2047 -0.4747
 7674SOL     OW30461   1.889   6.174   3.649 -0.0568 -0.4496 -0.1563
 7674SOL    HW230462   1.825   6.239   3.618  0.5517  2.6035  4.0287
 7674SOL    HW330463   1.845   6.090   3.639 -2.9421  1.0736 -1.4276
 7674SOL    MW430464   1.875   6.172   3.644 -0.3572  0.1542  0.2281
 7675SOL     OW30465   4.348   2.841   1.542  0.7638 -0.1529  0.2444
 7675SOL    HW230466   4.352   2.882   1.628  1.1510 -0.5466  0.4178
 7675SOL    HW330467   4.358   2.748   1.559  1.9728 -0.1495 -0.3068
 7675SOL    MW430468   4.350   2.834   1.555  0.9744 -0.2044  0.1945
 7676SOL     OW30469   4.142   6.056   5.025  0.2733 -0.2280  0.7972
 7676SOL    HW230470   4.051   6.065   5.052  0.2544  1.3813  0.2651
 7676SOL    HW330471   4.138   6.013   4.940  0.0860 -1.0548  1.2101
 7676SOL    MW430472   4.130   6.051   5.018  0.2461 -0.1247  0.7815
 7677SOL     OW30473   3.502   5.010   5.289 -0.3010 -0.6030 -0.1542
 7677SOL    HW230474   3.463   4.955   5.221  0.1233 -0.2865 -0.6573
 7677SOL    HW330475   3.493   4.958   5.370  0.3222 -1.5143 -0.6554
 7677SOL    MW430476   3.496   4.996   5.291 -0.1628 -0.6814 -0.2867
 7678SOL     OW30477   0.967   4.738   5.293  0.0145 -0.2022  0.4555
 7678SOL    HW230478   0.963   4.710   5.201  1.7601 -0.4701  0.4234
 7678SOL    HW330479   0.925   4.666   5.341  0.7354 -0.9336  0.0122
 7678SOL    MW430480   0.961   4.725   5.287  0.3399 -0.3341  0.3928
 7679SOL     OW30481   4.881   2.051   3.918 -0.3735  0.0318  0.5384
 7679SOL    HW230482   4.951   2.056   3.983 -0.8580 -1.4339  1.2270
 7679SOL    HW330483   4.926   2.038   3.835  0.1916 -1.5785  1.0610
 7679SOL    MW430484   4.896   2.050   3.916 -0.3628 -0.3740  0.6982
 7680SOL     OW30485   4.157   4.945   6.404 -0.2303  0.4256 -0.1846
 7680SOL    HW230486   4.218   4.888   6.452  0.0439  1.0133  0.1761
 7680SOL    HW330487   4.098   4.884   6.360 -1.0908 -0.1530  1.6546
 7680SOL    MW430488   4.157   4.930   6.404 -0.3077  0.4268  0.1057
 7681SOL     OW30489   2.183   1.751   1.675  0.3293 -0.3081  0.5789
 7681SOL    HW230490   2.249   1.821   1.681  0.9108 -0.8739  0.8276
 7681SOL    HW330491   2.208   1.701   1.597 -0.9521  0.6247 -0.4768
 7681SOL    MW430492   2.195   1.754   1.665  0.2370 -0.2597  0.4724
 7682SOL     OW30493   4.141   4.271   2.992 -0.4801 -0.5110  0.3128
 7682SOL    HW230494   4.132   4.288   3.086  0.7374  0.6512  0.2531
 7682SOL    HW330495   4.213   4.208   2.986  0.4072  0.4776  0.1234
 7682SOL    MW430496   4.150   4.265   3.004 -0.2024 -0.2272  0.2799
 7683SOL     OW30497   0.818   0.137   5.148 -0.0173 -0.0822 -0.4962
 7683SOL    HW230498   0.846   0.138   5.057 -1.0981  1.0681 -0.8376
 7683SOL    HW330499   0.822   0.229   5.176 -0.2079 -0.3503  0.4581
 7683SOL    MW430500   0.822   0.149   5.140 -0.1850  0.0342 -0.4153
 7684SOL     OW30501   6.086   2.121   1.949 -0.1929 -0.1966  0.5634
 7684SOL    HW230502   6.054   2.102   2.037 -0.9588 -0.0164  0.3272
 7684SOL    HW330503   6.020   2.179   1.911  0.2918 -0.0128 -0.0179
 7684SOL    MW430504   6.073   2.126   1.956 -0.2300 -0.1486  0.4555
 7685SOL     OW30505   3.534   6.461   3.696  0.0062  0.4659  0.0854
 7685SOL    HW230506   3.604   6.432   3.637  1.0861  3.3054 -0.1778
 7685SOL    HW330507   3.580   6.498   3.772 -1.3302 -0.7158  1.5443
 7685SOL    MW430508   3.549   6.462   3.698 -0.0276  0.6847  0.2432
 7686SOL     OW30509   6.064   0.477   5.678 -0.0554 -0.2358  0.4324
 7686SOL    HW230510   6.088   0.503   5.767 -1.0301 -1.1389  0.9785
 7686SOL    HW330511   6.043   0.559   5.634  1.3179  0.3103  0.7435
 7686SOL    MW430512   6.064   0.491   5.684 -0.0028 -0.2829  0.5455
 7687SOL     OW30513   0.084   1.736   4.177 -0.4238  0.7106  0.2830
 7687SOL    HW230514   0.146   1.672   4.143 -1.3397 -0.8301  1.4067
 7687SOL    HW330515   0.055   1.700   4.261 -1.5669  2.2099  0.5830
 7687SOL    MW430516   0.088   1.723   4.183 -0.6955  0.7051  0.4708
 7688SOL     OW30517   3.687   4.769   6.202 -0.0921 -0.3176  0.1943
 7688SOL    HW230518   3.705   4.704   6.135  2.1890 -0.4740  0.8453
 7688SOL    HW330519   3.603   4.744   6.239 -1.0111 -0.6886 -2.0154
 7688SOL    MW430520   3.679   4.757   6.198  0.0876 -0.3872 -0.0114
 7689SOL     OW30521   0.159   1.702   5.590 -0.0525  0.1674  0.4416
 7689SOL    HW230522   0.250   1.722   5.612  0.1186  1.1883 -0.9973
 7689SOL    HW330523   0.124   1.784   5.556 -1.2747 -0.4209  0.2073
 7689SOL    MW430524   0.166   1.715   5.588 -0.1912  0.2245  0.2208
 7690SOL     OW30525   2.106   3.008   2.931 -0.2335 -0.1670 -0.2297
 7690SOL    HW230526   2.043   2.959   2.878  1.6339  0.1407 -2.9272
 7690SOL    HW330527   2.164   2.941   2.967 -0.2409 -0.2322 -0.3388
 7690SOL    MW430528   2.106   2.993   2.929  0.0119 -0.1350 -0.6000
 7691SOL     OW30529   1.963   3.337   4.835  0.0314  0.0107 -0.7128
 7691SOL    HW230530   1.931   3.248   4.848  0.7846 -0.0829  0.7888
 7691SOL    HW330531   1.892   3.393   4.869 -0.9972  0.0865 -2.8325
 7691SOL    MW430532   1.949   3.333   4.841 -0.0049  0.0083 -0.7944
 7692SOL     OW30533   6.397   2.983   2.701  0.5424  0.2565  0.3141
 7692SOL    HW230534   6.326   2.983   2.764  1.5298 -1.4219  1.4965
 7692SOL    HW330535   6.362   2.937   2.625 -0.1255  0.8156  0.2786
 7692SOL    MW430536   6.383   2.977   2.699  0.5846  0.1088  0.4655
 7693SOL     OW30537   3.571   4.748   0.149 -0.1707  0.2042 -0.3147
 7693SOL    HW230538   3.633   4.783   0.213  0.1042 -0.1773 -0.3718
 7693SOL    HW330539   3.491   4.734   0.200 -0.5609  1.7020 -0.4676
 7693SOL    MW430540   3.569   4.751   0.164 -0.1859  0.3515 -0.3424
 7694SOL     OW30541   0.993   0.625   2.001 -0.3144  0.1017  0.1667
 7694SOL    HW230542   1.053   0.561   1.965  0.7345  0.7640  0.6781
 7694SOL    HW330543   1.031   0.710   1.978  0.1364  0.5512  2.3270
 7694SOL    MW430544   1.006   0.628   1.993 -0.1165  0.2484  0.5192
 7695SOL     OW30545   6.146   6.087   4.808 -0.5891 -0.4080  0.2319
 7695SOL    HW230546   6.128   6.035   4.887 -1.1940  0.9245  1.0049
 7695SOL    HW330547   6.242   6.091   4.803 -0.4693 -2.9583 -0.8060
 7695SOL    MW430548   6.157   6.081   4.818 -0.6531 -0.5687  0.1970
 7696SOL     OW30549   0.236   5.478   5.638  0.3699 -0.0378 -0.5313
 7696SOL    HW230550   0.155   5.503   5.683  0.9638 -0.9223  1.1132
 7696SOL    HW330551   0.232   5.382   5.634  2.3491 -0.3134  1.7232
 7696SOL    MW430552   0.224   5.469   5.643  0.7094 -0.1909 -0.0169
 7697SOL     OW30553   2.968   2.734   3.175  0.0739  0.5151 -0.3482
 7697SOL    HW230554   3.036   2.680   3.135  0.9719  0.4276  1.2012
 7697SOL    HW330555   2.904   2.749   3.105  0.1339 -1.9758 -1.0104
 7697SOL    MW430556   2.968   2.729   3.161  0.2003  0.1749 -0.2312
 7698SOL     OW30557   4.909   3.349   4.890 -0.4940 -0.3425  0.6949
 7698SOL    HW230558   4.819   3.367   4.864 -0.3404 -1.8726 -1.1139
 7698SOL    HW330559   4.928   3.414   4.958 -2.1354  1.5913 -0.5859
 7698SOL    MW430560   4.900   3.360   4.895 -0.6903 -0.2893  0.2873
 7699SOL     OW30561   2.721   5.862   2.160 -0.1533  0.5451 -0.4952
 7699SOL    HW230562   2.657   5.922   2.121 -1.7993 -0.6120  0.2946
 7699SOL    HW330563   2.719   5.882   2.253 -0.0994 -0.1590 -0.3381
 7699SOL    MW430564   2.712   5.872   2.167 -0.3633  0.2996 -0.3703
 7700SOL     OW30565   6.290   1.607   3.089  0.3542 -0.0895 -0.3072
 7700SOL    HW230566   6.201   1.593   3.122  0.0916  0.6981 -0.6551
 7700SOL    HW330567   6.310   1.527   3.040 -1.0665  0.6229 -2.1714
 7700SOL    MW430568   6.280   1.595   3.087  0.1321  0.1084 -0.5991
 7701SOL     OW30569   3.009   0.431   2.301 -0.8829 -0.1031 -0.2946
 7701SOL    HW230570   3.022   0.414   2.208 -3.2006 -1.1180 -0.5024
 7701SOL    HW330571   2.923   0.392   2.321 -0.3479 -0.1291  2.3170
 7701SOL    MW430572   2.999   0.424   2.291 -1.1181 -0.2404  0.0225
 7702SOL     OW30573   3.362   3.075   0.013 -0.1750  0.7351 -0.1257
 7702SOL    HW230574   3.365   3.065   0.108  1.1267  2.6019  0.1013
 7702SOL    HW330575   3.388   2.990  -0.022 -2.0057 -0.3928  1.1159
 7702SOL    MW430576   3.366   3.063   0.021 -0.2448  0.8326  0.0681
 7703SOL     OW30577   3.832   4.714   4.404  0.0334  0.0341  0.7819
 7703SOL    HW230578   3.928   4.704   4.404  0.1692  1.2067  0.6039
 7703SOL    HW330579   3.806   4.692   4.314  0.0980 -0.6339  0.9274
 7703SOL    MW430580   3.842   4.710   4.392  0.0598  0.1007  0.7776
 7704SOL     OW30581   5.782   2.741   4.921 -0.2353  0.1554 -0.4289
 7704SOL    HW230582   5.854   2.795   4.954  1.5330 -2.2197 -0.1994
 7704SOL    HW330583   5.721   2.734   4.994 -0.9955  2.5061 -0.7419
 7704SOL    MW430584   5.784   2.747   4.935 -0.1023  0.1522 -0.4399
 7705SOL     OW30585   4.259   4.028   6.011  0.3242  0.4709 -0.2831
 7705SOL    HW230586   4.315   3.989   5.944  1.7824  0.2592  1.0046
 7705SOL    HW330587   4.318   4.083   6.063 -0.4840 -0.2745  1.5130
 7705SOL    MW430588   4.274   4.030   6.009  0.4100  0.3446  0.1238
 7706SOL     OW30589   4.860   6.325   2.939 -0.2189 -0.3470 -0.6562
 7706SOL    HW230590   4.816   6.407   2.962  0.1375 -0.5709  0.9444
 7706SOL    HW330591   4.890   6.290   3.023 -0.4338 -2.1676 -1.3037
 7706SOL    MW430592   4.859   6.331   2.953 -0.2003 -0.6167 -0.5304
 7707SOL     OW30593   6.152   5.142   2.189  0.0610  0.1140  0.3011
 7707SOL    HW230594   6.192   5.229   2.194  1.8758 -0.6146 -0.5668
 7707SOL    HW330595   6.156   5.109   2.279  0.3296  0.5195  0.4416
 7707SOL    MW430596   6.158   5.149   2.202  0.3359  0.0714  0.2051
 7708SOL     OW30597   0.316   1.637   1.485 -0.2324 -0.1690  0.1729
 7708SOL    HW230598   0.308   1.633   1.581  0.4445  2.6394  0.4322
 7708SOL    HW330599   0.405   1.607   1.467 -0.1098 -0.0109  0.5027
 7708SOL    MW430600   0.326   1.632   1.496 -0.1269  0.2224  0.2506
 7709SOL     OW30601   3.278   1.021   2.165  0.0540 -0.2251  0.0440
 7709SOL    HW230602   3.271   0.927   2.184  0.5766 -0.1614  0.5799
 7709SOL    HW330603   3.203   1.039   2.108 -1.4105 -0.4861  1.8168
 7709SOL    MW430604   3.267   1.011   2.160 -0.0702 -0.2511  0.3486
 7710SOL     OW30605   0.629   2.524   0.849 -0.2109 -0.6250 -0.0927
 7710SOL    HW230606   0.598   2.586   0.914 -0.7797 -0.0111 -0.9350
 7710SOL    HW330607   0.713   2.559   0.819 -0.8363  0.1302 -1.0456
 7710SOL    MW430608   0.636   2.537   0.853 -0.3685 -0.4443 -0.3296
 7711SOL     OW30609   6.076   3.542   0.306  0.2922  0.2817 -0.2647
 7711SOL    HW230610   6.080   3.586   0.390  1.7960 -2.2253  1.1070
 7711SOL    HW330611   6.155   3.569   0.260 -0.1012  0.9932 -0.5302
 7711SOL    MW430612   6.087   3.551   0.311  0.4387  0.0448 -0.1188
 7712SOL     OW30613   4.359   4.133   5.729 -0.5490  0.0254 -0.5019
 7712SOL    HW230614   4.434   4.158   5.674  0.1310 -0.9958 -0.0703
 7712SOL    HW330615   4.379   4.044   5.757 -1.3980  0.1487  0.5382
 7712SOL    MW430616   4.372   4.125   5.725 -0.5713 -0.0931 -0.3077
 7713SOL     OW30617   3.388   2.688   4.333 -0.1775  0.1287  0.0133
 7713SOL    HW230618   3.414   2.780   4.333  0.4756 -0.0447 -0.5103
 7713SOL    HW330619   3.340   2.676   4.414  0.7127  0.6709  0.6408
 7713SOL    MW430620   3.385   2.698   4.344  0.0262  0.1774  0.0270
 7714SOL     OW30621   4.150   2.393   1.014  0.4818  0.1299  0.0244
 7714SOL    HW230622   4.065   2.362   0.981 -0.3682  1.9229  0.3984
 7714SOL    HW330623   4.189   2.439   0.940 -0.3962  2.1553  0.7388
 7714SOL    MW430624   4.144   2.395   1.000  0.2538  0.6337  0.1680
 7715SOL     OW30625   3.882   4.043   2.908  0.0155 -0.3339 -0.3481
 7715SOL    HW230626   3.896   4.121   2.855  0.3083 -0.7253 -0.8513
 7715SOL    HW330627   3.787   4.027   2.902 -0.2291  0.6277  0.6827
 7715SOL    MW430628   3.871   4.051   2.900  0.0219 -0.2587 -0.2785
 7716SOL     OW30629   3.927   3.766   4.938 -0.2015 -0.5777  0.2947
 7716SOL    HW230630   3.843   3.719   4.945 -0.6581  0.0496 -0.7417
 7716SOL    HW330631   3.991   3.697   4.918 -0.5127 -1.0270  0.8137
 7716SOL    MW430632   3.924   3.750   4.936 -0.3028 -0.5542  0.2264
 7717SOL     OW30633   0.805   1.263   0.854  0.1349 -0.1793 -0.3384
 7717SOL    HW230634   0.860   1.338   0.833 -2.4610  1.1898 -2.9152
 7717SOL    HW330635   0.819   1.201   0.782 -1.4700  0.1098 -0.9349
 7717SOL    MW430636   0.814   1.264   0.842 -0.4194  0.0395 -0.7571
 7718SOL     OW30637   5.927   2.750   2.062 -0.1455 -0.1036  0.4562
 7718SOL    HW230638   5.870   2.674   2.054  0.6985 -0.8497  1.3114
 7718SOL    HW330639   5.869   2.825   2.051 -0.7276 -0.8284 -2.2453
 7718SOL    MW430640   5.912   2.750   2.060 -0.1109 -0.2977  0.2126
 7719SOL     OW30641   3.791   5.034   1.792  0.5401 -0.2185  0.3050
 7719SOL    HW230642   3.869   5.014   1.843  1.5910  0.3753 -0.9916
 7719SOL    HW330643   3.821   5.095   1.725 -1.0671  0.0933 -0.1868
 7719SOL    MW430644   3.805   5.039   1.790  0.4667 -0.0990  0.0691
 7720SOL     OW30645   3.423   1.052   2.400 -0.8732 -0.0945 -0.0579
 7720SOL    HW230646   3.459   1.141   2.390 -1.8309  0.6632  2.4413
 7720SOL    HW330647   3.362   1.043   2.327  0.5434  0.5661 -1.3904
 7720SOL    MW430648   3.419   1.063   2.389 -0.8126  0.0926  0.0960
 7721SOL     OW30649   4.197   3.751   0.050 -0.0925  0.1713  0.8053
 7721SOL    HW230650   4.228   3.794  -0.030  0.2623  0.4364  1.0830
 7721SOL    HW330651   4.209   3.658   0.033  0.3973  0.2451  0.7143
 7721SOL    MW430652   4.203   3.745   0.037  0.0189  0.2161  0.8299
 7722SOL     OW30653   5.041   2.943   3.916  0.1629 -0.5615  0.3970
 7722SOL    HW230654   5.122   2.917   3.960 -0.1436 -0.2816  1.1453
 7722SOL    HW330655   5.033   3.037   3.932  1.1993  0.0524 -2.1920
 7722SOL    MW430656   5.050   2.952   3.924  0.2592 -0.4436  0.1542
 7723SOL     OW30657   1.249   0.466   0.627 -0.5412 -0.2998  0.7133
 7723SOL    HW230658   1.344   0.465   0.619 -0.6086  0.0564 -0.1996
 7723SOL    HW330659   1.218   0.511   0.549 -1.3693  1.6453  2.0737
 7723SOL    MW430660   1.257   0.472   0.616 -0.6593  0.0039  0.7724
 7724SOL     OW30661   5.216   0.144   4.636  0.1490  0.2492  0.4032
 7724SOL    HW230662   5.311   0.147   4.647  0.0178 -0.2797  2.1639
 7724SOL    HW330663   5.194   0.051   4.648 -0.5042  0.1705 -1.1621
 7724SOL    MW430664   5.226   0.132   4.639  0.0455  0.1690  0.4290
 7725SOL     OW30665   2.374   4.267   3.172  0.2413  0.3624  0.6372
 7725SOL    HW230666   2.299   4.210   3.156  0.9064 -0.8456  1.6626
 7725SOL    HW330667   2.449   4.208   3.177  1.2278  1.5015  0.0484
 7725SOL    MW430668   2.374   4.252   3.171  0.4592  0.3533  0.6948
 7726SOL     OW30669   0.325   0.037   3.271  0.3959  0.1209  0.1090
 7726SOL    HW230670   0.415   0.066   3.259  0.2321  0.1733 -1.0365
 7726SOL    HW330671   0.273   0.095   3.216 -0.7121  2.0049  2.9155
 7726SOL    MW430672   0.330   0.048   3.262  0.2281  0.3764  0.3282
 7727SOL     OW30673   5.196   1.860   5.460 -0.2411  0.2376 -0.3385
 7727SOL    HW230674   5.291   1.855   5.469 -0.4369 -1.2682  1.5918
 7727SOL    HW330675   5.178   1.950   5.434  1.6633  0.6590 -0.2911
 7727SOL    MW430676   5.206   1.871   5.457 -0.0156  0.0946 -0.0776
 7728SOL     OW30677   2.858   0.045   2.449 -0.0676 -0.1208  0.0898
 7728SOL    HW230678   2.873  -0.024   2.385  0.2479 -0.0878  0.1213
 7728SOL    HW330679   2.945   0.059   2.488 -0.5112 -1.1281  1.5148
 7728SOL    MW430680   2.872   0.037   2.446 -0.0845 -0.2494  0.2819
 7729SOL     OW30681   1.060   0.502   1.226 -0.5171  0.2317  0.2306
 7729SOL    HW230682   1.052   0.547   1.310 -1.3108  0.2494  0.1588
 7729SOL    HW330683   1.137   0.446   1.235  0.0830  1.0912  0.5590
 7729SOL    MW430684   1.069   0.500   1.238 -0.5426  0.3474  0.2644
 7730SOL     OW30685   3.857   4.154   0.213  0.6003 -0.4616  0.7234
 7730SOL    HW230686   3.894   4.103   0.141 -0.0854  0.3311 -0.2300
 7730SOL    HW330687   3.898   4.240   0.205 -1.2656  0.4004 -0.2827
 7730SOL    MW430688   3.867   4.159   0.202  0.2637 -0.2433  0.4649
 7731SOL     OW30689   0.310   4.526   0.380 -0.0290 -0.3025  0.0208
 7731SOL    HW230690   0.338   4.600   0.434 -0.9603 -0.0682  0.2103
 7731SOL    HW330691   0.358   4.537   0.298  0.2111  0.2433  0.2296
 7731SOL    MW430692   0.320   4.537   0.376 -0.1202 -0.1995  0.0733
 7732SOL     OW30693   2.791   3.805   5.671  0.4830  0.0330  0.3933
 7732SOL    HW230694   2.821   3.875   5.613  1.5588 -2.2583 -1.9784
 7732SOL    HW330695   2.785   3.728   5.616 -0.5388 -1.8457  2.9212
 7732SOL    MW430696   2.794   3.804   5.656  0.4901 -0.5172  0.4139
 7733SOL     OW30697   1.847   1.275   5.407  0.0414 -0.2176 -0.3481
 7733SOL    HW230698   1.875   1.198   5.456 -0.0900  0.3158  0.5778
 7733SOL    HW330699   1.928   1.310   5.370  0.3569  0.2061  0.7073
 7733SOL    MW430700   1.862   1.270   5.408  0.0657 -0.0913 -0.0867
 7734SOL     OW30701   2.832   0.574   1.585 -0.6019  0.0095 -0.1846
 7734SOL    HW230702   2.858   0.489   1.551 -1.6470 -1.4312  2.2913
 7734SOL    HW330703   2.883   0.584   1.666  0.6690  2.5374 -1.1715
 7734SOL    MW430704   2.842   0.564   1.591 -0.5721  0.1530  0.0118
 7735SOL     OW30705   4.320   4.035   1.393 -0.3919  0.3710  0.0093
 7735SOL    HW230706   4.332   4.109   1.333 -0.5731  0.6721  0.3446
 7735SOL    HW330707   4.360   4.063   1.475 -1.0385  0.3573  0.3391
 7735SOL    MW430708   4.327   4.048   1.396 -0.5011  0.4089  0.0971
 7736SOL     OW30709   5.492   3.602   3.709 -0.4442  0.3175 -0.4937
 7736SOL    HW230710   5.528   3.670   3.766  1.6197 -0.1293 -1.1927
 7736SOL    HW330711   5.550   3.527   3.720 -3.3580 -1.8925  1.2060
 7736SOL    MW430712   5.504   3.601   3.718 -0.5563 -0.0330 -0.3616
 7737SOL     OW30713   0.029   1.545   3.300 -0.2336 -0.6557  0.4409
 7737SOL    HW230714  -0.013   1.586   3.224  0.6908 -1.8242 -0.7540
 7737SOL    HW330715   0.032   1.614   3.366 -1.1805  0.3615 -0.5353
 7737SOL    MW430716   0.024   1.559   3.299 -0.2366 -0.6757  0.1545
 7738SOL     OW30717   5.401   4.641   1.144 -0.3346  0.3473  0.6664
 7738SOL    HW230718   5.313   4.602   1.147  0.1256 -0.9392 -1.1910
 7738SOL    HW330719   5.388   4.726   1.101 -1.0048  1.4228  2.7971
 7738SOL    MW430720   5.387   4.647   1.139 -0.3623  0.3195  0.7025
 7739SOL     OW30721   4.552   2.431   5.077  0.6733  0.2697 -0.0520
 7739SOL    HW230722   4.524   2.341   5.091 -1.4251  1.1408  1.9355
 7739SOL    HW330723   4.582   2.461   5.162 -0.0373  1.8650 -0.3235
 7739SOL    MW430724   4.552   2.423   5.090  0.3027  0.5952  0.1744
 7740SOL     OW30725   4.724   0.909   0.357  0.3565 -0.1060  0.3418
 7740SOL    HW230726   4.770   0.850   0.297  1.6860 -0.0936  1.3139
 7740SOL    HW330727   4.725   0.994   0.312 -0.3809 -0.4953 -0.4578
 7740SOL    MW430728   4.730   0.912   0.343  0.4346 -0.1557  0.3646
 7741SOL     OW30729   4.662   2.509   0.493 -0.0051  0.2448  0.6313
 7741SOL    HW230730   4.713   2.574   0.443  0.1952  0.9032  1.6603
 7741SOL    HW330731   4.575   2.513   0.454  0.4332 -0.0989 -0.4288
 7741SOL    MW430732   4.657   2.518   0.481  0.0792  0.2863  0.6272
 7742SOL     OW30733   6.225   1.748   2.103 -0.1984 -0.5195  0.2061
 7742SOL    HW230734   6.294   1.695   2.143 -1.5806 -1.9787  0.7424
 7742SOL    HW330735   6.252   1.839   2.120  1.7322 -1.0282  0.0998
 7742SOL    MW430736   6.238   1.753   2.110 -0.1260 -0.7791  0.2629
 7743SOL     OW30737   1.377   3.111   3.823 -0.0654 -0.2725  0.0857
 7743SOL    HW230738   1.459   3.072   3.854  0.9251  1.3898 -0.3564
 7743SOL    HW330739   1.328   3.036   3.789  0.8988 -1.4256  1.1234
 7743SOL    MW430740   1.382   3.096   3.822  0.1925 -0.2054  0.1643
 7744SOL     OW30741   5.221   6.071   5.283  0.3630 -0.5329 -0.4289
 7744SOL    HW230742   5.258   6.122   5.211 -2.1290  3.8777  1.0362
 7744SOL    HW330743   5.245   6.120   5.362 -1.1954 -2.3506  1.2909
 7744SOL    MW430744   5.229   6.084   5.284 -0.1714 -0.1908 -0.0087
 7745SOL     OW30745   2.398   2.264   2.262 -0.7929  0.2866  0.0009
 7745SOL    HW230746   2.317   2.277   2.213 -1.1993 -0.9407  0.3189
 7745SOL    HW330747   2.372   2.270   2.354 -0.6600 -0.8225  0.1168
 7745SOL    MW430748   2.384   2.267   2.268 -0.8290 -0.0216  0.0582
 7746SOL     OW30749   2.191   6.418   3.388  0.2384  0.4083 -0.3696
 7746SOL    HW230750   2.242   6.458   3.458 -0.9058 -0.3274  0.9364
 7746SOL    HW330751   2.163   6.333   3.423 -2.7066  1.1755 -0.5735
 7746SOL    MW430752   2.194   6.412   3.402 -0.3011  0.4124 -0.2242
 7747SOL     OW30753   4.884   1.470   4.838  0.1635 -0.3200  0.3172
 7747SOL    HW230754   4.858   1.500   4.751  2.1325 -0.5057 -0.3825
 7747SOL    HW330755   4.914   1.380   4.824 -2.2003 -1.4142  1.7402
 7747SOL    MW430756   4.884   1.462   4.825  0.1114 -0.4889  0.4127
 7748SOL     OW30757   2.589   5.799   3.202  0.0885  0.1485  0.5414
 7748SOL    HW230758   2.663   5.839   3.156 -0.0773  0.8041  0.8398
 7748SOL    HW330759   2.613   5.800   3.294 -0.1328  0.0242  0.6027
 7748SOL    MW430760   2.602   5.804   3.208  0.0375  0.2186  0.5889
 7749SOL     OW30761   5.485   2.613   3.560 -0.1749  0.4178 -0.7684
 7749SOL    HW230762   5.538   2.534   3.548 -1.0394  0.0735 -2.5966
 7749SOL    HW330763   5.482   2.653   3.474 -0.4824  2.0100 -0.0486
 7749SOL    MW430764   5.492   2.608   3.547 -0.3296  0.5824 -0.9146
 7750SOL     OW30765   0.083   5.547   0.123 -0.0546  0.9617  0.4299
 7750SOL    HW230766  -0.006   5.522   0.099  0.7889 -1.7477 -0.2304
 7750SOL    HW330767   0.102   5.625   0.070 -1.3675  0.4452 -0.8569
 7750SOL    MW430768   0.074   5.554   0.113 -0.1165  0.5360  0.1730
 7751SOL     OW30769   2.901   0.055   4.901 -0.2550 -0.1846  0.7025
 7751SOL    HW230770   2.984   0.102   4.906 -0.0257 -0.4473 -0.3788
 7751SOL    HW330771   2.924  -0.037   4.915 -0.1491 -0.4312 -0.9202
 7751SOL    MW430772   2.915   0.049   4.904 -0.2108 -0.2518  0.3457
 7752SOL     OW30773   1.405   1.669   6.311 -0.0089 -0.0376 -0.6230
 7752SOL    HW230774   1.405   1.704   6.400 -0.4912  0.3585 -0.7718
 7752SOL    HW330775   1.398   1.574   6.322 -2.6314  0.1259 -0.2539
 7752SOL    MW430776   1.404   1.661   6.324 -0.4186  0.0362 -0.5939
 7753SOL     OW30777   6.399   3.845   6.060  0.2755  0.7120  0.6470
 7753SOL    HW230778   6.327   3.783   6.050  0.8882 -0.0435  0.7830
 7753SOL    HW330779   6.358   3.931   6.059 -0.4019  0.4244 -1.6749
 7753SOL    MW430780   6.384   3.848   6.059  0.2670  0.5743  0.3586
 7754SOL     OW30781   2.297   2.843   3.055 -0.5289  0.1649  0.6544
 7754SOL    HW230782   2.368   2.904   3.077 -0.0577 -0.2124  0.2157
 7754SOL    HW330783   2.270   2.807   3.139  0.1040 -0.0146  0.7873
 7754SOL    MW430784   2.303   2.846   3.069 -0.3832  0.0914  0.6141
 7755SOL     OW30785   4.991   6.315   0.011  0.0395 -0.4889 -0.2696
 7755SOL    HW230786   4.942   6.260  -0.050  1.1016 -0.3673 -1.2852
 7755SOL    HW330787   4.970   6.280   0.098 -3.6692  1.0080 -0.3759
 7755SOL    MW430788   4.982   6.303   0.014 -0.3097 -0.2754 -0.4176
 7756SOL     OW30789   1.445   1.926   1.076 -0.3027 -0.2939  0.4761
 7756SOL    HW230790   1.419   1.894   1.162  1.6185  2.2318  2.1258
 7756SOL    HW330791   1.434   2.021   1.081  1.3200  0.0748 -1.5077
 7756SOL    MW430792   1.440   1.934   1.088  0.1649  0.0880  0.4320
 7757SOL     OW30793   4.408   2.525   0.353  0.2628 -0.5267 -0.0930
 7757SOL    HW230794   4.343   2.455   0.362 -0.5323 -0.2212 -2.6921
 7757SOL    HW330795   4.384   2.589   0.420 -1.5541 -0.8488 -0.3965
 7757SOL    MW430796   4.396   2.524   0.363 -0.0818 -0.5289 -0.4759
 7758SOL     OW30797   1.992   0.851   2.580 -0.2553  0.4087  0.1567
 7758SOL    HW230798   1.906   0.815   2.600 -0.7423  1.1545 -0.5669
 7758SOL    HW330799   1.984   0.944   2.597  0.4705  0.4553  0.2686
 7758SOL    MW430800   1.980   0.858   2.585 -0.2238  0.5132  0.0760
 7759SOL     OW30801   5.623   1.613   3.807 -0.5905 -0.0097  0.4072
 7759SOL    HW230802   5.698   1.632   3.751  0.7917 -1.0132  1.8402
 7759SOL    HW330803   5.547   1.626   3.750  0.7135 -0.4666 -1.5291
 7759SOL    MW430804   5.623   1.617   3.792 -0.2361 -0.2024  0.3408
 7760SOL     OW30805   1.908   0.323   5.657  0.1068 -0.0288 -0.0316
 7760SOL    HW230806   1.869   0.403   5.693 -1.1699  0.2111 -1.8495
 7760SOL    HW330807   1.868   0.253   5.708 -0.8370  0.3579 -0.2253
 7760SOL    MW430808   1.898   0.324   5.669 -0.1862  0.0539 -0.2970
 7761SOL     OW30809   2.176   5.991   0.616 -0.7025 -0.2613 -0.2351
 7761SOL    HW230810   2.207   5.938   0.543 -0.9749 -0.6285 -0.0821
 7761SOL    HW330811   2.087   5.960   0.633 -0.8891  0.2881 -0.1894
 7761SOL    MW430812   2.169   5.980   0.609 -0.7630 -0.2373 -0.2089
 7762SOL     OW30813   4.644   3.632   2.489 -0.0572 -0.2649 -0.0327
 7762SOL    HW230814   4.564   3.650   2.537  1.2747 -0.8968  2.6094
 7762SOL    HW330815   4.654   3.708   2.431 -1.7721  0.5348  0.6426
 7762SOL    MW430816   4.635   3.645   2.488 -0.1077 -0.2427  0.4050
 7763SOL     OW30817   0.000   5.873   1.498  0.2573  0.5840  0.0579
 7763SOL    HW230818   0.055   5.873   1.420  0.7092 -0.2169  0.3613
 7763SOL    HW330819   0.062   5.882   1.571  0.0718 -1.0057  0.4409
 7763SOL    MW430820   0.016   5.874   1.498  0.2925  0.2686  0.1484
 7764SOL     OW30821   2.121   5.225   5.729 -0.0742 -0.2739 -0.5470
 7764SOL    HW230822   2.169   5.168   5.789 -0.5071 -0.6019 -0.5068
 7764SOL    HW330823   2.183   5.239   5.656 -0.1851 -1.3384 -0.8731
 7764SOL    MW430824   2.136   5.219   5.727 -0.1460 -0.4576 -0.5847
 7765SOL     OW30825   2.331   5.752   2.911 -0.0707 -0.2693  0.5526
 7765SOL    HW230826   2.254   5.767   2.966 -0.6214 -0.5659 -0.1327
 7765SOL    HW330827   2.380   5.683   2.956 -0.9787 -1.1542  0.2245
 7765SOL    MW430828   2.327   5.745   2.924 -0.2632 -0.4252  0.4189
 7766SOL     OW30829   2.163   4.550   4.941  0.0400 -0.0383  0.7851
 7766SOL    HW230830   2.234   4.593   4.894 -0.8374  1.8822  1.1049
 7766SOL    HW330831   2.188   4.553   5.033  0.4825 -1.2852  0.7262
 7766SOL    MW430832   2.175   4.556   4.947 -0.0174  0.0505  0.8195
 7767SOL     OW30833   5.155   1.569   5.869 -0.2018 -0.2652  0.0066
 7767SOL    HW230834   5.109   1.488   5.892 -1.8509  0.7981  0.5807
 7767SOL    HW330835   5.098   1.639   5.900  1.5275  1.1347  0.1640
 7767SOL    MW430836   5.141   1.567   5.876 -0.1912  0.0598  0.1031
 7768SOL     OW30837   5.631   5.216   5.726  0.2804  0.1410  0.1427
 7768SOL    HW230838   5.715   5.178   5.754  0.7356  1.0775  0.0689
 7768SOL    HW330839   5.595   5.150   5.666  0.3701 -0.8277  1.1297
 7768SOL    MW430840   5.637   5.202   5.722  0.3523  0.1368  0.2632
 7769SOL     OW30841   0.555   0.791   0.699 -0.3360  0.7978 -0.4053
 7769SOL    HW230842   0.585   0.882   0.699 -3.3541  1.8894  0.3924
 7769SOL    HW330843   0.546   0.769   0.607  0.2412  1.3478 -0.6056
 7769SOL    MW430844   0.558   0.800   0.687 -0.6581  1.0144 -0.3265
 7770SOL     OW30845   2.369   0.850   2.043  0.0802  0.1921 -0.1201
 7770SOL    HW230846   2.363   0.944   2.023 -0.0168  0.1379 -0.3526
 7770SOL    HW330847   2.458   0.838   2.074 -0.5033  0.7267  1.8677
 7770SOL    MW430848   2.380   0.861   2.044 -0.0096  0.2555  0.1115
 7771SOL     OW30849   2.557   5.377   4.110 -0.2327  0.1899  0.2662
 7771SOL    HW230850   2.607   5.458   4.102  0.0059 -0.1641 -2.6243
 7771SOL    HW330851   2.476   5.403   4.154  0.5085  1.6448  0.8335
 7771SOL    MW430852   2.553   5.391   4.115 -0.1034  0.3351 -0.0403
 7772SOL     OW30853   3.011   0.715   2.265 -0.3410  0.0366 -0.1759
 7772SOL    HW230854   2.990   0.631   2.304  0.8383  0.4762  1.4861
 7772SOL    HW330855   3.006   0.778   2.337  0.1976  1.1688 -1.0828
 7772SOL    MW430856   3.008   0.712   2.279 -0.1143  0.2440 -0.0763
 7773SOL     OW30857   5.795   2.716   3.033 -0.2875 -0.4494 -0.1808
 7773SOL    HW230858   5.828   2.687   2.948 -0.2433 -0.3961 -0.1820
 7773SOL    HW330859   5.817   2.646   3.094 -2.3919 -1.6049 -0.6399
 7773SOL    MW430860   5.802   2.703   3.030 -0.5593 -0.5948 -0.2415
 7774SOL     OW30861   0.744   2.749   0.245 -0.6659  0.5323 -0.0285
 7774SOL    HW230862   0.837   2.773   0.254 -0.2205 -1.2740  0.6385
 7774SOL    HW330863   0.734   2.730   0.151  0.2077 -1.1887  0.1684
 7774SOL    MW430864   0.755   2.749   0.234 -0.4919  0.0669  0.0855
 7775SOL     OW30865   5.482   2.027   1.628  0.5777 -0.2154  0.0430
 7775SOL    HW230866   5.564   2.066   1.660  0.5407  0.2057 -0.3661
 7775SOL    HW330867   5.435   2.002   1.707  0.5106  0.7668  0.3197
 7775SOL    MW430868   5.487   2.029   1.643  0.5640 -0.0302  0.0255
 7776SOL     OW30869   5.647   0.937   1.608 -0.0120  0.4157  0.4768
 7776SOL    HW230870   5.584   0.899   1.548 -0.2561 -0.1450  1.0761
 7776SOL    HW330871   5.699   0.997   1.554  0.6536 -1.0561 -0.5755
 7776SOL    MW430872   5.646   0.940   1.593  0.0436  0.1475  0.4170
 7777SOL     OW30873   0.123   1.118   6.351 -0.3902 -0.0896  0.1789
 7777SOL    HW230874   0.149   1.106   6.260 -1.3754 -3.3137  0.1957
 7777SOL    HW330875   0.056   1.186   6.348 -2.1814 -1.7871 -1.9570
 7777SOL    MW430876   0.117   1.125   6.338 -0.7565 -0.7389 -0.1007
 7778SOL     OW30877   5.676   0.490   2.272  0.3205 -0.3556  0.6795
 7778SOL    HW230878   5.624   0.527   2.343 -0.2451 -2.0022  1.1833
 7778SOL    HW330879   5.660   0.396   2.278  0.7101 -0.5888 -1.2955
 7778SOL    MW430880   5.667   0.482   2.282  0.2972 -0.6036  0.4854
 7779SOL     OW30881   0.339   1.256   3.036  0.3515  0.0183  0.1973
 7779SOL    HW230882   0.337   1.329   2.974 -0.0745 -0.4875 -0.3971
 7779SOL    HW330883   0.366   1.181   2.983 -1.9147 -0.8442  0.1542
 7779SOL    MW430884   0.343   1.256   3.021 -0.0037 -0.1622  0.1132
 7780SOL     OW30885   6.194   3.638   1.652 -0.1239 -0.0510 -0.2207
 7780SOL    HW230886   6.279   3.603   1.624  0.2536  0.0937  0.7020
 7780SOL    HW330887   6.216   3.702   1.719 -0.9358  0.4309 -0.4109
 7780SOL    MW430888   6.208   3.641   1.657 -0.1812  0.0317 -0.1241
 7781SOL     OW30889   3.108   2.086   2.049  0.0149 -0.0519 -0.2673
 7781SOL    HW230890   3.093   2.159   1.988  1.6020  0.1433 -0.4590
 7781SOL    HW330891   3.034   2.090   2.110 -0.5638  0.9598 -1.0083
 7781SOL    MW430892   3.096   2.096   2.049  0.1479  0.1073 -0.3904
 7782SOL     OW30893   2.885   1.771   2.231  0.0947 -0.2890 -0.0787
 7782SOL    HW230894   2.885   1.752   2.137 -2.1328 -0.5240 -0.1034
 7782SOL    HW330895   2.850   1.691   2.271  2.1080 -0.6264  1.1056
 7782SOL    MW430896   2.880   1.758   2.224  0.0664 -0.3645  0.0743
 7783SOL     OW30897   4.813   5.991   1.775  0.3121 -0.2462 -0.2127
 7783SOL    HW230898   4.724   5.964   1.801  0.2595 -2.1781 -2.0489
 7783SOL    HW330899   4.799   6.053   1.704  0.4141 -0.6455 -0.5859
 7783SOL    MW430900   4.799   5.995   1.769  0.3186 -0.5538 -0.5042
 7784SOL     OW30901   3.411   0.963   4.595  0.0543  0.0473 -0.4095
 7784SOL    HW230902   3.435   1.031   4.658 -2.9233 -0.3194  1.2995
 7784SOL    HW330903   3.375   1.011   4.520  0.7077  0.4097 -0.4964
 7784SOL    MW430904   3.410   0.978   4.593 -0.2524  0.0467 -0.1955
 7785SOL     OW30905   3.834   0.653   3.959  0.3573  0.0594  0.3083
 7785SOL    HW230906   3.841   0.558   3.963 -1.7405 -0.2047 -0.7399
 7785SOL    HW330907   3.864   0.683   4.045 -0.3742 -1.6546  1.2202
 7785SOL    MW430908   3.839   0.644   3.971 -0.0160 -0.2016  0.2903
 7786SOL     OW30909   6.267   2.913   5.458 -0.0470 -0.6644 -0.3655
 7786SOL    HW230910   6.358   2.884   5.459 -0.2254 -1.2222  0.0022
 7786SOL    HW330911   6.219   2.843   5.502 -0.0667  1.5273  3.6280
 7786SOL    MW430912   6.273   2.900   5.464 -0.0731 -0.4488  0.2099
 7787SOL     OW30913   5.275   1.944   1.830  0.3186  0.6684 -0.3762
 7787SOL    HW230914   5.209   1.927   1.763 -0.3141 -0.0719  0.4152
 7787SOL    HW330915   5.231   2.002   1.892  0.3863  0.1457  0.1711
 7787SOL    MW430916   5.260   1.949   1.829  0.2441  0.5018 -0.1996
 7788SOL     OW30917   2.321   2.562   0.550 -0.5858  0.0054 -0.1801
 7788SOL    HW230918   2.409   2.598   0.535  0.9567 -3.3500  0.0200
 7788SOL    HW330919   2.315   2.555   0.645 -0.2092 -1.6428 -0.2616
 7788SOL    MW430920   2.332   2.566   0.561 -0.3326 -0.6548 -0.1644
 7789SOL     OW30921   2.729   6.295   6.197  0.2137  0.2476 -0.0445
 7789SOL    HW230922   2.652   6.352   6.194  0.5954  1.1512  3.1493
 7789SOL    HW330923   2.695   6.208   6.179 -1.4669  0.7082  0.6840
 7789SOL    MW430924   2.715   6.291   6.194  0.0423  0.4276  0.4730
 7790SOL     OW30925   6.062   2.946   4.776  0.1908 -0.0409  0.3731
 7790SOL    HW230926   6.065   2.909   4.865  1.5070 -2.0537 -0.4395
 7790SOL    HW330927   6.148   2.986   4.764  1.2734 -2.5383 -1.0099
 7790SOL    MW430928   6.074   2.946   4.787  0.5073 -0.6360  0.0834
 7791SOL     OW30929   1.018   2.910   5.088  0.1069 -0.3329 -0.2734
 7791SOL    HW230930   1.088   2.853   5.118  0.8972  0.4432 -0.6283
 7791SOL    HW330931   1.053   2.952   5.009 -1.3955 -1.2635 -1.5109
 7791SOL    MW430932   1.032   2.908   5.081  0.0129 -0.3533 -0.4835
 7792SOL     OW30933   1.098   5.451   0.289  0.1218 -0.2456  0.0038
 7792SOL    HW230934   1.182   5.445   0.243  0.2152 -0.5578  0.2116
 7792SOL    HW330935   1.119   5.427   0.379 -0.2782 -0.7488 -0.0359
 7792SOL    MW430936   1.112   5.447   0.295  0.0813 -0.3532  0.0260
 7793SOL     OW30937   4.905   5.365   6.073  0.1263 -0.0519  0.0898
 7793SOL    HW230938   4.855   5.325   6.144 -1.4056 -2.2129 -2.0391
 7793SOL    HW330939   4.987   5.315   6.070 -0.3455 -0.8211 -0.4099
 7793SOL    MW430940   4.909   5.353   6.082 -0.1380 -0.4385 -0.2570
 7794SOL     OW30941   5.848   4.798   0.079  0.1945  0.0926 -0.4635
 7794SOL    HW230942   5.942   4.798   0.097 -0.0882  0.4358  1.1489
 7794SOL    HW330943   5.818   4.711   0.106 -0.2141  0.5593  0.6364
 7794SOL    MW430944   5.857   4.786   0.085  0.1033  0.1995 -0.1057
 7795SOL     OW30945   5.298   0.116   1.482 -0.1020 -0.2942 -0.2152
 7795SOL    HW230946   5.275   0.194   1.533  0.8946  0.5674 -1.0423
 7795SOL    HW330947   5.393   0.119   1.474 -0.0272 -1.7459 -0.0584
 7795SOL    MW430948   5.307   0.127   1.487  0.0394 -0.3721 -0.3036
 7796SOL     OW30949   3.392   2.138   2.139 -0.2823  0.6549 -0.2400
 7796SOL    HW230950   3.373   2.231   2.150  1.8990  1.1318 -0.1977
 7796SOL    HW330951   3.306   2.098   2.125 -1.4664  2.4038  1.4976
 7796SOL    MW430952   3.378   2.145   2.139 -0.1508  0.9486 -0.0052
 7797SOL     OW30953   3.716   5.629   2.664  0.1566 -0.2061  0.0030
 7797SOL    HW230954   3.770   5.611   2.741  0.7482 -2.0575 -0.7898
 7797SOL    HW330955   3.660   5.552   2.656 -1.1532  0.7607 -0.4122
 7797SOL    MW430956   3.716   5.616   2.673  0.0619 -0.3228 -0.1564
 7798SOL     OW30957   0.311   3.029   5.367  0.4327  0.2802  0.2340
 7798SOL    HW230958   0.256   3.092   5.320  0.6500  0.3452  0.0640
 7798SOL    HW330959   0.328   3.069   5.452 -0.2950 -0.0138  0.5240
 7798SOL    MW430960   0.306   3.042   5.372  0.3653  0.2500  0.2498
 7799SOL     OW30961   6.279   2.969   5.004 -0.4214  0.2615 -0.1385
 7799SOL    HW230962   6.295   3.053   4.962  0.2003 -0.2610 -0.9895
 7799SOL    HW330963   6.366   2.939   5.031 -0.7844  0.5088  1.4181
 7799SOL    MW430964   6.293   2.976   5.002 -0.3873  0.2252 -0.0454
 7800SOL     OW30965   1.671   3.870   1.007  0.3881 -0.2876 -0.2694
 7800SOL    HW230966   1.671   3.784   1.050  1.0221 -0.0569  0.1992
 7800SOL    HW330967   1.667   3.850   0.913 -0.0761 -0.8135 -0.1424
 7800SOL    MW430968   1.670   3.856   1.000  0.4105 -0.3265 -0.1908
 7801SOL     OW30969   1.609   2.273   5.846  0.1127  0.2817  0.2350
 7801SOL    HW230970   1.643   2.214   5.779  2.7906  1.9645 -0.0419
 7801SOL    HW330971   1.541   2.323   5.802  0.4940  0.0344 -0.6421
 7801SOL    MW430972   1.605   2.272   5.832  0.5164  0.4711  0.0828
 7802SOL     OW30973   1.548   5.679   1.965  0.1590  0.2038 -0.0319
 7802SOL    HW230974   1.612   5.701   2.033 -0.3276 -0.8660  0.8009
 7802SOL    HW330975   1.601   5.660   1.888  0.6773  2.9404 -0.4746
 7802SOL    MW430976   1.563   5.679   1.964  0.1632  0.4237  0.0196
 7803SOL     OW30977   0.874   0.841   0.274  0.5419  0.3851  0.1336
 7803SOL    HW230978   0.917   0.864   0.192 -1.5189  1.5782 -0.6996
 7803SOL    HW330979   0.880   0.921   0.327  1.1315 -0.1044  0.8136
 7803SOL    MW430980   0.880   0.855   0.270  0.3478  0.4780  0.1134
 7804SOL     OW30981   5.314   3.017   0.979  0.2559  0.6568  0.3406
 7804SOL    HW230982   5.381   3.085   0.968 -0.1075  0.8875 -0.5131
 7804SOL    HW330983   5.293   2.989   0.890 -0.4549  0.2587  0.6227
 7804SOL    MW430984   5.320   3.022   0.966  0.1142  0.6347  0.2652
 7805SOL     OW30985   2.562   6.366   3.464  0.3418  0.4406 -0.1873
 7805SOL    HW230986   2.624   6.314   3.515  2.1189  2.5238 -0.0607
 7805SOL    HW330987   2.586   6.349   3.373 -0.7191 -0.8225 -0.2479
 7805SOL    MW430988   2.574   6.357   3.459  0.4363  0.5488 -0.1786
 7806SOL     OW30989   1.590   6.379   2.319 -0.0502 -0.4362  0.1901
 7806SOL    HW230990   1.613   6.468   2.292  1.1459 -1.2971 -1.8666
 7806SOL    HW330991   1.637   6.367   2.402 -0.0365  0.7489  0.3725
 7806SOL    MW430992   1.600   6.389   2.327  0.1094 -0.3935 -0.0572
 7807SOL     OW30993   1.412   2.721   0.119 -0.7448 -0.8075 -0.0456
 7807SOL    HW230994   1.403   2.630   0.146  2.0280 -1.0249  0.3428
 7807SOL    HW330995   1.428   2.717   0.024 -0.4303 -0.7414  0.0040
 7807SOL    MW430996   1.413   2.708   0.110 -0.3375 -0.8275  0.0122
 7808SOL     OW30997   0.269   0.230   4.460  0.1539 -0.3995  0.1404
 7808SOL    HW230998   0.181   0.267   4.469  0.7465  0.6655  2.3251
 7808SOL    HW330999   0.313   0.289   4.399  0.2154  0.9183  1.3874
 7808SOL    MW431000   0.263   0.243   4.454  0.2402 -0.0851  0.5932
 7809SOL     OW31001   2.169   5.228   3.758  0.0917 -0.2394  0.1430
 7809SOL    HW231002   2.082   5.189   3.768  0.1357 -0.5069 -0.4861
 7809SOL    HW331003   2.219   5.192   3.832  0.2167 -1.6306 -0.5756
 7809SOL    MW431004   2.164   5.218   3.769  0.1140 -0.4582 -0.0348
 7810SOL     OW31005   0.071   0.628   5.091 -0.4868 -0.4144  0.5151
 7810SOL    HW231006   0.050   0.604   5.181 -0.0864  0.2273  0.7882
 7810SOL    HW331007   0.133   0.700   5.099  0.2274 -0.9177 -0.2752
 7810SOL    MW431008   0.076   0.635   5.104 -0.3398 -0.3961  0.4469
 7811SOL     OW31009   4.736   1.588   5.352 -0.1281  0.1594  0.6746
 7811SOL    HW231010   4.647   1.563   5.378 -0.7060  0.9521 -0.4558
 7811SOL    HW331011   4.741   1.563   5.260  0.9381 -0.1461  0.8049
 7811SOL    MW431012   4.725   1.581   5.343 -0.0637  0.2237  0.5426
 7812SOL     OW31013   2.831   1.256   6.000 -0.0369 -0.2565  0.3485
 7812SOL    HW231014   2.829   1.183   5.938 -1.2700 -0.9887  1.2050
 7812SOL    HW331015   2.924   1.266   6.021  0.1502 -1.7627  0.3937
 7812SOL    MW431016   2.843   1.247   5.995 -0.1749 -0.5518  0.4675
 7813SOL     OW31017   4.945   3.246   1.988 -0.4779 -0.2245  0.2431
 7813SOL    HW231018   4.953   3.291   2.071 -0.5657 -0.2991  0.2927
 7813SOL    HW331019   4.994   3.165   1.999 -1.3688 -0.7281  0.5821
 7813SOL    MW431020   4.952   3.241   2.000 -0.6071 -0.3008  0.2943
 7814SOL     OW31021   1.720   0.721   0.945 -0.4100  0.1608  0.0963
 7814SOL    HW231022   1.734   0.707   0.851 -2.0657 -0.9489 -0.0135
 7814SOL    HW331023   1.774   0.655   0.987 -1.3380 -0.7832 -0.1618
 7814SOL    MW431024   1.729   0.711   0.938 -0.7509 -0.1102  0.0477
 7815SOL     OW31025   5.643   6.389   6.069  0.5831 -0.3346 -0.2005
 7815SOL    HW231026   5.694   6.445   6.010  0.5633  0.9836  0.9671
 7815SOL    HW331027   5.707   6.358   6.134  0.8021 -2.5556 -1.4021
 7815SOL    MW431028   5.658   6.393   6.070  0.6094 -0.4537 -0.2050
 7816SOL     OW31029   2.724   3.985   4.367  0.1423 -0.1452 -0.2296
 7816SOL    HW231030   2.644   4.017   4.326  0.3104  1.0810  0.3630
 7816SOL    HW331031   2.696   3.955   4.454  0.2465 -0.1998 -0.2147
 7816SOL    MW431032   2.710   3.985   4.373  0.1782  0.0094 -0.1495
 7817SOL     OW31033   5.674   1.365   2.825 -0.4366 -0.0556 -0.0426
 7817SOL    HW231034   5.642   1.334   2.740 -0.0622 -0.7240  0.0510
 7817SOL    HW331035   5.614   1.436   2.849 -0.2107  0.5263 -1.1209
 7817SOL    MW431036   5.662   1.370   2.817 -0.3574 -0.0670 -0.1725
 7818SOL     OW31037   0.036   2.249   5.455  0.0052  0.3561  0.0014
 7818SOL    HW231038   0.131   2.245   5.441 -0.1163  0.3847 -0.8663
 7818SOL    HW331039   0.018   2.342   5.471  0.0633  0.4215 -0.3050
 7818SOL    MW431040   0.046   2.261   5.455 -0.0031  0.3685 -0.1535
 7819SOL     OW31041   0.289   1.583   2.450 -0.0412 -0.0681 -0.2431
 7819SOL    HW231042   0.257   1.601   2.362  0.9911  0.8823 -0.4537
 7819SOL    HW331043   0.218   1.534   2.492 -1.3917  1.2262 -0.9330
 7819SOL    MW431044   0.276   1.579   2.444 -0.0832  0.2281 -0.3619
 7820SOL     OW31045   4.626   4.958   5.023  0.0826 -0.1521  0.1650
 7820SOL    HW231046   4.709   4.999   5.047  1.3824 -1.3339 -2.0144
 7820SOL    HW331047   4.617   4.974   4.929  0.6160 -4.4260 -0.8500
 7820SOL    MW431048   4.636   4.965   5.014  0.3245 -0.8719 -0.2564
 7821SOL     OW31049   5.631   1.745   4.074 -0.2720  0.6754 -0.2844
 7821SOL    HW231050   5.601   1.706   3.992 -1.3680  1.3440 -0.2181
 7821SOL    HW331051   5.563   1.723   4.138  1.5467 -1.6640  1.0388
 7821SOL    MW431052   5.618   1.737   4.072 -0.1767  0.4549 -0.1011
 7822SOL     OW31053   5.984   3.851   3.671 -0.3914 -0.1666 -0.4543
 7822SOL    HW231054   6.076   3.826   3.676 -0.3889 -0.0745  0.0486
 7822SOL    HW331055   5.979   3.911   3.596  0.4299  1.7429  0.9242
 7822SOL    MW431056   5.996   3.856   3.662 -0.2827  0.0975 -0.2060
 7823SOL     OW31057   3.616   3.847   0.687  0.2331 -0.2097 -0.4199
 7823SOL    HW231058   3.596   3.772   0.742 -2.1818 -1.0914 -2.3422
 7823SOL    HW331059   3.577   3.922   0.733 -0.7677 -0.7596 -0.3480
 7823SOL    MW431060   3.609   3.847   0.700 -0.2175 -0.3986 -0.6640
 7824SOL     OW31061   2.739   6.010   5.325 -0.6146 -0.4808 -0.8751
 7824SOL    HW231062   2.768   6.097   5.355  1.1191 -0.9402 -1.0790
 7824SOL    HW331063   2.716   5.963   5.405  1.2315 -0.7528 -0.4543
 7824SOL    MW431064   2.740   6.016   5.340 -0.1423 -0.5773 -0.8465
 7825SOL     OW31065   1.405   1.133   1.344  0.1728 -0.2865 -0.2580
 7825SOL    HW231066   1.349   1.088   1.282 -0.6328 -0.7389  0.7755
 7825SOL    HW331067   1.494   1.113   1.315 -0.1663 -2.2927 -0.0020
 7825SOL    MW431068   1.409   1.125   1.332  0.0218 -0.6109 -0.0879
 7826SOL     OW31069   4.898   3.067   5.689 -0.0884 -0.7138 -0.5026
 7826SOL    HW231070   4.805   3.063   5.711  0.4341 -0.8866  1.9302
 7826SOL    HW331071   4.903   3.133   5.621 -1.8338  0.3127  0.2791
 7826SOL    MW431072   4.886   3.075   5.683 -0.2497 -0.6012 -0.0785
 7827SOL     OW31073   2.263   6.325   1.583  0.4708  0.8240 -0.2831
 7827SOL    HW231074   2.176   6.356   1.607 -0.3345 -1.2962 -0.2713
 7827SOL    HW331075   2.257   6.307   1.490  1.3474  1.9960 -0.5814
 7827SOL    MW431076   2.251   6.327   1.574  0.4802  0.6989 -0.3209
 7828SOL     OW31077   5.101   1.328   2.246  0.1614 -0.1335  0.3009
 7828SOL    HW231078   5.121   1.344   2.154 -1.4326 -1.8920 -0.4030
 7828SOL    HW331079   5.080   1.415   2.281 -2.7652  0.2098 -1.9404
 7828SOL    MW431080   5.101   1.342   2.238 -0.4350 -0.3202 -0.0877
 7829SOL     OW31081   4.004   2.338   2.421  0.0311 -0.2964 -0.1340
 7829SOL    HW231082   3.972   2.409   2.367  0.1714  0.6551  1.0038
 7829SOL    HW331083   4.099   2.340   2.409 -0.1161 -2.0135 -2.1524
 7829SOL    MW431084   4.013   2.347   2.412  0.0302 -0.3974 -0.2502
 7830SOL     OW31085   4.638   2.452   1.813  0.7928 -0.5964 -0.5106
 7830SOL    HW231086   4.621   2.538   1.774  0.4174 -1.3054 -1.9930
 7830SOL    HW331087   4.691   2.406   1.748  0.5809 -1.6458  0.0349
 7830SOL    MW431088   4.642   2.457   1.799  0.7153 -0.8284 -0.6342
 7831SOL     OW31089   4.739   2.643   4.547  0.1443  0.1213  0.2378
 7831SOL    HW231090   4.812   2.597   4.589  0.1217  0.6553  0.8724
 7831SOL    HW331091   4.678   2.662   4.619 -1.2707 -1.4659 -0.4436
 7831SOL    MW431092   4.740   2.639   4.562 -0.0454 -0.0177  0.2316
 7832SOL     OW31093   0.877   0.936   3.472  0.2633  0.4967 -0.1992
 7832SOL    HW231094   0.804   0.879   3.447  0.7116 -0.6438  1.0071
 7832SOL    HW331095   0.835   1.017   3.500 -0.6004 -0.3008  0.9080
 7832SOL    MW431096   0.862   0.939   3.472  0.2085  0.2410  0.1061
 7833SOL     OW31097   4.304   3.151   0.078 -0.2505 -0.1601 -0.4779
 7833SOL    HW231098   4.248   3.076   0.061 -1.8670  0.9504 -0.2812
 7833SOL    HW331099   4.328   3.143   0.170 -1.9268  0.4929  0.0463
 7833SOL    MW431100   4.300   3.140   0.088 -0.6850  0.0726 -0.3828
 7834SOL     OW31101   6.227   4.725   1.841 -0.6417  0.0505  0.1842
 7834SOL    HW231102   6.224   4.669   1.763  1.5978  0.6291 -0.3630
 7834SOL    HW331103   6.299   4.690   1.893 -0.4919  1.2335  0.7912
 7834SOL    MW431104   6.236   4.713   1.838 -0.3265  0.2829  0.1921
 7835SOL     OW31105   2.201   6.199   1.340 -0.2000 -0.6996  0.0398
 7835SOL    HW231106   2.140   6.125   1.335 -0.0161 -0.9773  1.6250
 7835SOL    HW331107   2.248   6.196   1.256 -2.5843 -0.2302 -1.4201
 7835SOL    MW431108   2.199   6.189   1.328 -0.4903 -0.6743  0.0564
 7836SOL     OW31109   5.303   2.336   1.925 -0.0026  0.2116 -0.0885
 7836SOL    HW231110   5.222   2.384   1.941 -0.4273  0.1176 -1.8044
 7836SOL    HW331111   5.291   2.254   1.973  0.9349  1.8592  3.2920
 7836SOL    MW431112   5.290   2.332   1.933  0.0651  0.4166  0.1311
 7837SOL     OW31113   1.049   1.437   1.563  0.5835  0.2268  0.2872
 7837SOL    HW231114   0.989   1.507   1.538 -0.8786 -0.9190  0.4686
 7837SOL    HW331115   1.104   1.423   1.486  1.5770  2.1823  0.5660
 7837SOL    MW431116   1.049   1.444   1.550  0.5216  0.3337  0.3479
 7838SOL     OW31117   4.892   3.212   1.428 -0.0042  0.0867 -0.3758
 7838SOL    HW231118   4.978   3.184   1.398 -0.1133 -2.0661  1.1497
 7838SOL    HW331119   4.832   3.185   1.358 -0.1070 -3.8221  0.9902
 7838SOL    MW431120   4.895   3.205   1.414 -0.0322 -0.7131  0.0057
 7839SOL     OW31121   3.059   4.865   1.265 -0.2475 -0.1318 -0.1196
 7839SOL    HW231122   3.145   4.902   1.246 -1.1592  1.7593 -0.8349
 7839SOL    HW331123   2.997   4.933   1.238 -1.9955 -1.6323 -0.1129
 7839SOL    MW431124   3.062   4.879   1.259 -0.5984 -0.0802 -0.2131
 7840SOL     OW31125   2.760   1.135   6.257  0.0787  0.3534 -0.2301
 7840SOL    HW231126   2.783   1.178   6.175 -2.5110  0.8602 -0.7744
 7840SOL    HW331127   2.731   1.048   6.231 -0.7084  0.5001  0.1336
 7840SOL    MW431128   2.759   1.130   6.243 -0.3668  0.4396 -0.2539
 7841SOL     OW31129   3.473   0.803   3.386 -0.3669  0.4318 -0.0796
 7841SOL    HW231130   3.432   0.861   3.451  0.0381  0.9773 -0.3067
 7841SOL    HW331131   3.401   0.777   3.329 -0.4628  1.1746 -0.3156
 7841SOL    MW431132   3.458   0.807   3.387 -0.3261  0.6018 -0.1407
 7842SOL     OW31133   4.891   1.994   5.173 -0.1610  0.4348 -0.0706
 7842SOL    HW231134   4.970   1.946   5.147  0.1980  0.8694  0.1967
 7842SOL    HW331135   4.924   2.072   5.218 -0.6810  1.8753 -2.0227
 7842SOL    MW431136   4.906   1.998   5.176 -0.1822  0.6822 -0.2929
 7843SOL     OW31137   2.497   1.851   0.720  0.1703 -0.0827 -0.0701
 7843SOL    HW231138   2.439   1.814   0.786  1.6201 -1.2317  0.6326
 7843SOL    HW331139   2.574   1.880   0.770  1.1539 -0.6660 -1.1847
 7843SOL    MW431140   2.500   1.850   0.735  0.4913 -0.3112 -0.1244
 7844SOL     OW31141   4.622   1.870   1.599 -0.1038 -0.1279 -0.1426
 7844SOL    HW231142   4.598   1.960   1.622  0.2298  0.2012 -1.0590
 7844SOL    HW331143   4.621   1.868   1.504  0.1720 -1.0226 -0.1361
 7844SOL    MW431144   4.619   1.881   1.590 -0.0234 -0.2025 -0.2627
 7845SOL     OW31145   1.440   0.939   0.755  0.3530 -0.6094 -0.2473
 7845SOL    HW231146   1.384   0.967   0.683  0.1283 -0.7545 -0.1284
 7845SOL    HW331147   1.503   1.010   0.765 -0.9898  0.4738  0.8965
 7845SOL    MW431148   1.441   0.952   0.747  0.1462 -0.4856 -0.0807
 7846SOL     OW31149   2.186   2.537   4.755 -0.3825  0.1555  0.4540
 7846SOL    HW231150   2.110   2.486   4.729  0.4769 -1.0762  0.2678
 7846SOL    HW331151   2.203   2.595   4.680 -0.9050  0.1675  0.3446
 7846SOL    MW431152   2.178   2.538   4.742 -0.3380 -0.0054  0.4150
 7847SOL     OW31153   3.892   3.048   2.011  0.0884  0.0358 -0.2188
 7847SOL    HW231154   3.833   3.074   2.082 -0.2970  1.3165 -0.9807
 7847SOL    HW331155   3.947   2.981   2.050 -0.3991  0.3961  1.1672
 7847SOL    MW431156   3.891   3.043   2.025 -0.0268  0.2523 -0.1365
 7848SOL     OW31157   6.147   1.950   0.860 -0.0320  0.0229  0.1228
 7848SOL    HW231158   6.108   1.912   0.781 -0.9393 -0.5399  0.8259
 7848SOL    HW331159   6.113   1.897   0.932  0.7364  0.5651  0.9117
 7848SOL    MW431160   6.138   1.938   0.859 -0.0503  0.0202  0.3196
 7849SOL     OW31161   1.428   6.138   0.224  0.3412  0.1578  0.0841
 7849SOL    HW231162   1.371   6.190   0.280 -1.1655 -0.7892 -0.4904
 7849SOL    HW331163   1.397   6.156   0.135  0.3692 -1.0122 -0.1787
 7849SOL    MW431164   1.416   6.147   0.219  0.1461 -0.1215 -0.0264
 7850SOL     OW31165   1.629   5.600   2.924  0.1938 -0.3689  0.5762
 7850SOL    HW231166   1.546   5.577   2.881  0.3200  0.3793 -0.0969
 7850SOL    HW331167   1.612   5.683   2.968  0.3366 -0.6642  1.1953
 7850SOL    MW431168   1.616   5.608   2.924  0.2293 -0.3092  0.5691
 7851SOL     OW31169   0.370   0.559   2.665 -0.2376  0.1250 -0.0456
 7851SOL    HW231170   0.449   0.572   2.613 -1.0233 -0.0546 -1.3415
 7851SOL    HW331171   0.363   0.464   2.676  0.6192  0.2187  1.5481
 7851SOL    MW431172   0.379   0.548   2.660 -0.2282  0.1136 -0.0063
 7852SOL     OW31173   5.484   0.139   4.710  0.7289  0.6313 -0.4798
 7852SOL    HW231174   5.516   0.113   4.623  0.3556 -0.0602 -0.4209
 7852SOL    HW331175   5.561   0.133   4.767  1.2177  2.0803 -0.9444
 7852SOL    MW431176   5.498   0.134   4.706  0.7442  0.7312 -0.5333
 7853SOL     OW31177   0.833   4.386   5.959  0.1600 -0.1320 -0.6085
 7853SOL    HW231178   0.823   4.337   5.878 -0.4838 -0.5725 -0.2731
 7853SOL    HW331179   0.860   4.320   6.024  0.6199  0.2049 -0.4543
 7853SOL    MW431180   0.835   4.371   5.957  0.1358 -0.1456 -0.5439
 7854SOL     OW31181   0.429   6.383   0.571 -0.4112  0.3229 -0.0847
 7854SOL    HW231182   0.370   6.309   0.553  1.0743 -1.5467  2.0999
 7854SOL    HW331183   0.492   6.348   0.635  1.5003  2.9763 -0.3640
 7854SOL    MW431184   0.429   6.368   0.577  0.0370  0.4263  0.1667
 7855SOL     OW31185   4.807   1.806   4.688  0.1479  0.0332 -0.5695
 7855SOL    HW231186   4.825   1.726   4.639  1.6059  1.4142 -2.4208
 7855SOL    HW331187   4.867   1.872   4.651 -0.4100  1.7970  1.4274
 7855SOL    MW431188   4.818   1.804   4.677  0.2666  0.4481 -0.5503
 7856SOL     OW31189   0.646   2.582   1.932  0.1408 -0.7326 -0.1667
 7856SOL    HW231190   0.666   2.540   1.848 -0.3983  2.4188 -2.0111
 7856SOL    HW331191   0.560   2.547   1.956 -0.0374 -1.1225 -1.2979
 7856SOL    MW431192   0.638   2.572   1.924  0.0461 -0.3682 -0.5593
 7857SOL     OW31193   0.930   5.372   6.326  0.1508  0.5461  0.1370
 7857SOL    HW231194   0.892   5.296   6.282  1.8693  0.3058 -1.0378
 7857SOL    HW331195   1.001   5.337   6.378 -0.1571  1.1646  0.9895
 7857SOL    MW431196   0.934   5.358   6.327  0.3369  0.5960  0.0945
 7858SOL     OW31197   1.802   1.024   5.519 -0.4478 -0.0862 -0.4287
 7858SOL    HW231198   1.743   1.054   5.589  0.3488  0.6772 -0.0608
 7858SOL    HW331199   1.743   0.988   5.453 -1.3703  0.9764 -0.2379
 7858SOL    MW431200   1.786   1.023   5.520 -0.4644  0.1547 -0.3550
 7859SOL     OW31201   0.671   2.568   5.316 -1.1719  0.3041 -0.2226
 7859SOL    HW231202   0.597   2.595   5.371 -0.8356 -1.3572  1.1078
 7859SOL    HW331203   0.671   2.473   5.321  0.6821  0.2534 -0.7264
 7859SOL    MW431204   0.661   2.559   5.324 -0.8829  0.0783 -0.1135
 7860SOL     OW31205   2.055   5.278   0.074 -0.4317 -0.1335 -0.4735
 7860SOL    HW231206   2.043   5.195   0.028 -1.7736 -0.1900 -0.0446
 7860SOL    HW331207   2.142   5.270   0.114 -0.8457 -1.6798  0.2260
 7860SOL    MW431208   2.065   5.266   0.073 -0.6633 -0.3450 -0.3246
 7861SOL     OW31209   3.595   4.122   0.822 -0.2232 -0.0446  0.3958
 7861SOL    HW231210   3.545   4.093   0.898  0.4123 -0.4229  0.6724
 7861SOL    HW331211   3.686   4.099   0.842 -0.2943 -2.1692 -1.4189
 7861SOL    MW431212   3.600   4.115   0.834 -0.1487 -0.3748  0.1929
 7862SOL     OW31213   5.397   2.949   6.374  0.2738  0.4750 -0.1387
 7862SOL    HW231214   5.367   2.902   6.451 -0.8975  3.1331  1.1470
 7862SOL    HW331215   5.345   2.912   6.302 -1.3848  0.5087  0.9843
 7862SOL    MW431216   5.386   2.938   6.374 -0.0995  0.8302  0.1791
 7863SOL     OW31217   0.728   5.729   2.984  0.3438  1.0783  0.3335
 7863SOL    HW231218   0.676   5.803   3.017  0.1804  0.4980  1.3876
 7863SOL    HW331219   0.785   5.704   3.056 -1.0064 -1.1193  0.7386
 7863SOL    MW431220   0.728   5.736   2.998  0.1441  0.7118  0.5260
 7864SOL     OW31221   0.675   6.253   4.576 -0.0926  0.3138  0.1291
 7864SOL    HW231222   0.715   6.335   4.605 -0.4912  0.3862  0.4718
 7864SOL    HW331223   0.696   6.249   4.482  0.0733  0.7214  0.1446
 7864SOL    MW431224   0.683   6.264   4.567 -0.1233  0.3771  0.1763
 7865SOL     OW31225   3.538   0.199   2.649  0.4010  0.2543  0.3754
 7865SOL    HW231226   3.618   0.251   2.640 -0.4190  1.5834  0.6421
 7865SOL    HW331227   3.544   0.160   2.736 -0.6439  2.8572  1.7198
 7865SOL    MW431228   3.549   0.201   2.659  0.1549  0.7731  0.5880
 7866SOL     OW31229   3.179   6.373   6.150  0.0926  0.0558 -0.0855
 7866SOL    HW231230   3.154   6.444   6.209 -0.1845 -0.6252  0.6322
 7866SOL    HW331231   3.097   6.343   6.112 -0.0734 -1.3094  1.2738
 7866SOL    MW431232   3.165   6.378   6.153  0.0342 -0.2141  0.1885
 7867SOL     OW31233   2.617   1.984   0.127 -0.2059  0.3317 -0.0119
 7867SOL    HW231234   2.535   2.032   0.114 -0.1000  0.4233 -0.3492
 7867SOL    HW331235   2.680   2.028   0.070 -0.4389 -1.0368 -1.3837
 7867SOL    MW431236   2.614   1.996   0.118 -0.2227  0.1632 -0.2374
 7868SOL     OW31237   0.961   3.083   2.361  0.2665  0.7068  0.0982
 7868SOL    HW231238   0.946   3.013   2.424  0.2076 -0.1708 -0.8719
 7868SOL    HW331239   1.054   3.079   2.341 -0.1655 -0.8469 -1.9185
 7868SOL    MW431240   0.971   3.073   2.367  0.2018  0.3860 -0.2958
 7869SOL     OW31241   0.351   5.310   4.912  0.1999 -0.4612  0.3998
 7869SOL    HW231242   0.349   5.400   4.944  0.6697 -0.5628  0.7252
 7869SOL    HW331243   0.444   5.287   4.909  0.0633 -1.1462  0.9355
 7869SOL    MW431244   0.363   5.319   4.916  0.2439 -0.5650  0.5134
 7870SOL     OW31245   4.772   0.902   0.016  0.1866 -0.0889  0.4173
 7870SOL    HW231246   4.769   0.913  -0.079 -0.0496  0.2542  0.4606
 7870SOL    HW331247   4.723   0.821   0.032 -1.1408  0.6638  0.3571
 7870SOL    MW431248   4.765   0.892   0.006 -0.0197  0.0557  0.4151
 7871SOL     OW31249   4.906   5.834   1.309  0.5662 -0.2659  0.3208
 7871SOL    HW231250   4.887   5.788   1.228  0.3597 -0.3132  0.3925
 7871SOL    HW331251   4.882   5.771   1.378  0.5102 -0.1395  0.4173
 7871SOL    MW431252   4.900   5.819   1.308  0.5316 -0.2555  0.3430
 7872SOL     OW31253   0.693   5.126   5.743  0.5045  0.3875 -0.2884
 7872SOL    HW231254   0.645   5.071   5.681 -0.4639 -1.5048  1.9948
 7872SOL    HW331255   0.784   5.096   5.735  0.2323 -0.4906 -0.1499
 7872SOL    MW431256   0.699   5.115   5.734  0.3408  0.0220  0.0311
 7873SOL     OW31257   5.868   1.664   3.625 -0.5470 -0.5041  0.6576
 7873SOL    HW231258   5.907   1.743   3.662 -0.2738 -0.3171 -0.0049
 7873SOL    HW331259   5.937   1.597   3.633 -0.5970 -0.5409  0.7702
 7873SOL    MW431260   5.883   1.665   3.631 -0.5175 -0.4843  0.5850
 7874SOL     OW31261   2.529   4.880   5.885 -0.5028 -0.3626  0.1334
 7874SOL    HW231262   2.503   4.900   5.975  1.2228  0.5007  0.4828
 7874SOL    HW331263   2.531   4.965   5.841 -2.8424 -0.9208 -1.2118
 7874SOL    MW431264   2.526   4.894   5.891 -0.5838 -0.3223  0.0020
 7875SOL     OW31265   0.924   4.312   3.323  0.0989 -0.3211 -0.2870
 7875SOL    HW231266   0.881   4.251   3.264  0.7535  0.9325 -2.1705
 7875SOL    HW331267   0.875   4.306   3.405  0.4553 -3.6773 -0.2098
 7875SOL    MW431268   0.912   4.303   3.326  0.2323 -0.5985 -0.5253
 7876SOL     OW31269   3.772   5.231   5.930 -0.1478 -0.1033 -0.5725
 7876SOL    HW231270   3.784   5.181   5.849 -0.4553  1.6684 -1.7523
 7876SOL    HW331271   3.724   5.171   5.987 -1.5340 -0.7914 -2.3512
 7876SOL    MW431272   3.767   5.216   5.927 -0.3713  0.0397 -0.9628
 7877SOL     OW31273   1.206   5.704   0.551 -0.8780  0.2095 -0.2968
 7877SOL    HW231274   1.192   5.759   0.474 -1.4841  0.7730  0.2088
 7877SOL    HW331275   1.295   5.726   0.580 -0.1922 -0.8381 -1.4818
 7877SOL    MW431276   1.216   5.714   0.545 -0.8675  0.1456 -0.3865
 7878SOL     OW31277   0.614   0.697   3.746  0.2020 -0.5836 -0.2904
 7878SOL    HW231278   0.535   0.648   3.723 -1.8051  1.5592  1.5948
 7878SOL    HW331279   0.622   0.687   3.841  1.0296  0.8734 -0.1801
 7878SOL    MW431280   0.605   0.689   3.756  0.0464 -0.1087 -0.0271
 7879SOL     OW31281   3.535   1.852   5.433 -0.2346 -0.2960  0.3633
 7879SOL    HW231282   3.576   1.836   5.518 -0.7049  1.6696  1.0147
 7879SOL    HW331283   3.443   1.868   5.454 -0.1799  1.1716 -0.3710
 7879SOL    MW431284   3.528   1.852   5.447 -0.2894  0.1570  0.3523
 7880SOL     OW31285   6.102   5.701   2.209 -0.2861 -0.4362 -0.9332
 7880SOL    HW231286   6.151   5.690   2.290 -0.2681  0.6009 -0.7874
 7880SOL    HW331287   6.011   5.685   2.234 -0.3181  0.1783 -0.6299
 7880SOL    MW431288   6.097   5.697   2.223 -0.2879 -0.2183 -0.8739
 7881SOL     OW31289   3.699   3.932   2.291 -0.1456 -0.8852 -0.1380
 7881SOL    HW231290   3.707   3.998   2.222 -1.6062 -1.0221 -0.4501
 7881SOL    HW331291   3.682   3.850   2.245  1.9397 -1.5981  0.2256
 7881SOL    MW431292   3.698   3.930   2.276 -0.0632 -0.9973 -0.1312
 7882SOL     OW31293   3.048   5.511   4.488  0.1505  0.2193  0.4544
 7882SOL    HW231294   2.956   5.488   4.476  0.4328 -1.4497  1.2924
 7882SOL    HW331295   3.064   5.581   4.424 -1.2269 -0.6940 -0.9394
 7882SOL    MW431296   3.038   5.517   4.478  0.0060 -0.1214  0.3811
 7883SOL     OW31297   2.202   0.159   2.643 -0.2347  0.7314 -0.5060
 7883SOL    HW231298   2.196   0.106   2.723 -0.0774 -0.2851 -1.1500
 7883SOL    HW331299   2.258   0.108   2.585  1.3578  2.3858 -0.5462
 7883SOL    MW431300   2.209   0.145   2.646 -0.0039  0.8156 -0.5963
 7884SOL     OW31301   3.001   2.507   6.203 -0.3724  0.3981  0.4207
 7884SOL    HW231302   3.051   2.429   6.229  0.1102  1.1406  1.8155
 7884SOL    HW331303   2.926   2.508   6.262 -2.0872 -0.6540 -1.6015
 7884SOL    MW431304   2.998   2.497   6.214 -0.5349  0.3573  0.3380
 7885SOL     OW31305   0.927   5.844   1.692 -0.1493  0.3347 -0.0448
 7885SOL    HW231306   0.966   5.773   1.743 -0.7972 -0.2744 -0.3721
 7885SOL    HW331307   0.856   5.877   1.746 -0.7706 -0.2430 -0.4852
 7885SOL    MW431308   0.923   5.839   1.706 -0.3168  0.1781 -0.1461
 7886SOL     OW31309   5.358   3.161   5.872 -0.3170 -0.6310 -0.1006
 7886SOL    HW231310   5.438   3.210   5.850 -1.4157  0.7152 -1.2545
 7886SOL    HW331311   5.314   3.217   5.936 -0.9598 -0.7554 -0.4370
 7886SOL    MW431312   5.363   3.175   5.878 -0.5468 -0.4698 -0.2972
 7887SOL     OW31313   5.238   0.261   5.362 -0.6405 -0.1826 -0.5688
 7887SOL    HW231314   5.200   0.267   5.449 -0.9996 -0.9885 -0.6638
 7887SOL    HW331315   5.178   0.204   5.313  0.5138 -1.2334 -0.8170
 7887SOL    MW431316   5.225   0.254   5.367 -0.5356 -0.4276 -0.6141
 7888SOL     OW31317   3.803   3.672   5.766  0.2148  0.1271  0.3179
 7888SOL    HW231318   3.789   3.715   5.849  1.2515 -0.2145  0.6852
 7888SOL    HW331319   3.806   3.578   5.787 -1.5833 -0.1420 -0.4031
 7888SOL    MW431320   3.801   3.665   5.779  0.1143  0.0465  0.2712
 7889SOL     OW31321   5.459   5.971   2.511  0.2841  0.3136 -0.4449
 7889SOL    HW231322   5.503   6.053   2.489  0.2832  0.4807  0.1514
 7889SOL    HW331323   5.446   5.927   2.427 -0.7790  1.4568 -0.9039
 7889SOL    MW431324   5.463   5.976   2.497  0.1438  0.4865 -0.4268
 7890SOL     OW31325   5.320   1.952   0.696 -0.0590  0.2378 -0.1260
 7890SOL    HW231326   5.413   1.932   0.706 -0.2297 -0.1966  0.6265
 7890SOL    HW331327   5.291   1.899   0.622  0.0663 -0.3959  0.2747
 7890SOL    MW431328   5.328   1.943   0.688 -0.0650  0.0969  0.0262
 7891SOL     OW31329   5.780   3.136   3.248 -0.5022 -0.4481  0.1105
 7891SOL    HW231330   5.822   3.211   3.205 -1.8630  0.1788 -0.1820
 7891SOL    HW331331   5.846   3.067   3.246 -0.3263 -0.3070 -2.6043
 7891SOL    MW431332   5.794   3.137   3.242 -0.6586 -0.3468 -0.2863
 7892SOL     OW31333   0.678   4.936   1.433  0.0050 -0.0577 -0.6099
 7892SOL    HW231334   0.722   5.019   1.420  2.0871 -1.2484 -1.6698
 7892SOL    HW331335   0.623   4.925   1.355  0.5414 -0.1321 -0.9831
 7892SOL    MW431336   0.676   4.945   1.421  0.3505 -0.2246 -0.7990
 7893SOL     OW31337   4.714   4.545   5.982 -0.0876  0.2064  0.3527
 7893SOL    HW231338   4.807   4.523   5.973 -0.0210  0.9740 -1.1550
 7893SOL    HW331339   4.679   4.537   5.893 -0.9506  2.1020  0.4685
 7893SOL    MW431340   4.722   4.541   5.969 -0.1927  0.5577  0.1691
 7894SOL     OW31341   3.401   5.581   0.871 -0.1168  0.3646  0.1257
 7894SOL    HW231342   3.425   5.563   0.780 -1.2250 -0.2106 -0.0665
 7894SOL    HW331343   3.445   5.512   0.921 -1.3246 -0.7156 -0.2314
 7894SOL    MW431344   3.410   5.569   0.866 -0.4224  0.1462  0.0532
 7895SOL     OW31345   4.899   1.230   0.431  0.2666  0.0551 -0.0054
 7895SOL    HW231346   4.909   1.317   0.394 -0.6237  0.6651  1.1181
 7895SOL    HW331347   4.851   1.181   0.364  0.3470  0.5692 -0.4462
 7895SOL    MW431348   4.894   1.235   0.417  0.1598  0.2034  0.0846
 7896SOL     OW31349   0.365   5.738   5.764  0.1118 -0.6081  0.0902
 7896SOL    HW231350   0.291   5.794   5.740  0.6337  1.1876  2.3079
 7896SOL    HW331351   0.354   5.659   5.711 -3.0322 -0.1534 -0.1164
 7896SOL    MW431352   0.354   5.735   5.754 -0.2341 -0.3112  0.3556
 7897SOL     OW31353   3.141   5.325   0.857  0.1973  0.1921 -0.0777
 7897SOL    HW231354   3.171   5.300   0.945 -0.1310  0.5534  0.1423
 7897SOL    HW331355   3.141   5.421   0.859 -0.4280  0.2006 -0.2557
 7897SOL    MW431356   3.145   5.335   0.869  0.0714  0.2408 -0.0722
 7898SOL     OW31357   5.596   3.810   1.725  0.5557 -0.1363  0.3930
 7898SOL    HW231358   5.543   3.744   1.681  1.1711 -0.6005  0.3293
 7898SOL    HW331359   5.533   3.862   1.775 -0.0393 -0.2025 -0.2727
 7898SOL    MW431360   5.581   3.808   1.726  0.5584 -0.2063  0.2968
 7899SOL     OW31361   2.363   4.702   2.341  0.0371 -0.3728  0.0937
 7899SOL    HW231362   2.284   4.721   2.291  0.0985 -0.6260 -0.1015
 7899SOL    HW331363   2.357   4.609   2.361 -0.7091 -0.0011  1.8306
 7899SOL    MW431364   2.352   4.692   2.337 -0.0533 -0.3572  0.2971
 7900SOL     OW31365   0.739   5.066   3.047  0.1055 -0.2558 -0.1392
 7900SOL    HW231366   0.698   4.979   3.051 -2.1038  0.7050 -0.1820
 7900SOL    HW331367   0.750   5.092   3.138  2.0042 -1.0738 -0.0982
 7900SOL    MW431368   0.735   5.058   3.060  0.0645 -0.2370 -0.1394
 7901SOL     OW31369   3.020   0.945   4.639  0.4115  0.4249  0.0180
 7901SOL    HW231370   2.942   0.981   4.597  0.7583  0.1014 -0.9234
 7901SOL    HW331371   3.083   0.934   4.568  0.8381 -0.6153  0.5341
 7901SOL    MW431372   3.018   0.948   4.624  0.5135  0.2450 -0.0381
 7902SOL     OW31373   3.637   2.873   4.696  0.0560 -0.6307 -1.1261
 7902SOL    HW231374   3.682   2.957   4.706  0.2365 -0.8607  0.0895
 7902SOL    HW331375   3.674   2.837   4.615  0.4174  0.1807 -1.3431
 7902SOL    MW431376   3.648   2.880   4.686  0.1275 -0.5540 -0.9943
 7903SOL     OW31377   2.296   0.746   1.793 -0.2254  0.0155 -0.4355
 7903SOL    HW231378   2.339   0.789   1.719 -0.4354 -0.2827 -0.7366
 7903SOL    HW331379   2.335   0.786   1.871 -0.0201  0.3491 -0.7081
 7903SOL    MW431380   2.307   0.757   1.794 -0.2260  0.0202 -0.5112
 7904SOL     OW31381   4.955   1.383   5.902 -0.3658  0.2189 -0.1136
 7904SOL    HW231382   4.919   1.316   5.843  0.0806 -0.1637  0.0467
 7904SOL    HW331383   4.952   1.344   5.989 -1.0068  0.7793  0.1270
 7904SOL    MW431384   4.950   1.369   5.905 -0.3915  0.2423 -0.0607
 7905SOL     OW31385   6.085   4.452   2.711 -0.1890 -0.3651 -0.0525
 7905SOL    HW231386   6.141   4.374   2.708 -0.3187 -0.4450 -0.5487
 7905SOL    HW331387   5.997   4.418   2.697 -0.2146 -0.0995 -0.5487
 7905SOL    MW431388   6.081   4.437   2.709 -0.2095 -0.3406 -0.1835
 7906SOL     OW31389   0.917   2.890   0.688 -0.3805 -0.3841 -0.8013
 7906SOL    HW231390   0.901   2.800   0.718  0.8930 -0.5646 -0.6023
 7906SOL    HW331391   0.997   2.883   0.635  1.2557  1.0176  1.3222
 7906SOL    MW431392   0.925   2.877   0.685  0.0034 -0.2230 -0.4949
 7907SOL     OW31393   3.866   4.756   1.620  0.6745  0.4104 -0.1770
 7907SOL    HW231394   3.778   4.758   1.657  1.1946 -0.8218  1.2262
 7907SOL    HW331395   3.884   4.846   1.595 -0.4260  0.9589  0.9015
 7907SOL    MW431396   3.857   4.768   1.622  0.5979  0.3202  0.1504
 7908SOL     OW31397   0.598   4.824   3.112  0.2751 -0.3240 -0.0991
 7908SOL    HW231398   0.630   4.735   3.123  0.0998 -0.4084 -0.2563
 7908SOL    HW331399   0.545   4.841   3.190 -3.0549 -1.8225 -1.7874
 7908SOL    MW431400   0.595   4.815   3.123 -0.1874 -0.5329 -0.3426
 7909SOL     OW31401   2.244   0.997   5.895  0.3541 -0.0675 -0.3655
 7909SOL    HW231402   2.271   0.905   5.886  0.3448 -0.1578  0.3943
 7909SOL    HW331403   2.311   1.036   5.952  0.1398  0.2898 -0.3551
 7909SOL    MW431404   2.257   0.990   5.902  0.3246 -0.0323 -0.2639
 7910SOL     OW31405   1.140   1.792   1.336  0.4888 -0.0702 -0.1409
 7910SOL    HW231406   1.232   1.803   1.360  0.6990 -2.2207  0.1687
 7910SOL    HW331407   1.116   1.877   1.298  3.0608  0.0583 -1.7750
 7910SOL    MW431408   1.149   1.805   1.334  0.8558 -0.3370 -0.3156
 7911SOL     OW31409   2.184   6.019   6.335 -0.4713  0.8434  0.3478
 7911SOL    HW231410   2.105   6.052   6.378 -0.3651  0.4602  0.8473
 7911SOL    HW331411   2.255   6.073   6.371 -0.5105  1.2674 -0.1900
 7911SOL    MW431412   2.183   6.031   6.346 -0.4624  0.8488  0.3428
 7912SOL     OW31413   6.395   3.055   2.156 -0.5048 -0.5994  0.1046
 7912SOL    HW231414   6.458   3.020   2.219  3.2832  2.6443 -1.4301
 7912SOL    HW331415   6.378   2.982   2.096  1.9573 -1.6217  0.5414
 7912SOL    MW431416   6.401   3.041   2.156  0.3198 -0.3063 -0.0403
 7913SOL     OW31417   6.098   5.543   0.310  0.0289 -0.0304  0.0711
 7913SOL    HW231418   6.024   5.483   0.323  0.4701 -0.6752 -0.3485
 7913SOL    HW331419   6.143   5.544   0.395 -0.2250  0.0427  0.2056
 7913SOL    MW431420   6.094   5.535   0.323  0.0536 -0.1058  0.0335
 7914SOL     OW31421   0.133   3.577   3.876  0.0389 -0.1194 -0.1494
 7914SOL    HW231422   0.221   3.592   3.910 -0.0333  2.3763 -0.8940
 7914SOL    HW331423   0.080   3.648   3.913 -1.9486 -2.0486  1.0263
 7914SOL    MW431424   0.137   3.588   3.885 -0.2328 -0.0447 -0.0925
 7915SOL     OW31425   1.219   2.734   0.955  0.2225  0.1939 -0.3989
 7915SOL    HW231426   1.212   2.671   1.027 -1.2988 -0.7959 -1.3569
 7915SOL    HW331427   1.143   2.792   0.966 -0.7347 -0.7187 -1.8508
 7915SOL    MW431428   1.208   2.733   0.966 -0.1045 -0.0571 -0.7169
 7916SOL     OW31429   5.535   3.177   5.026 -0.2460  0.1196  0.0489
 7916SOL    HW231430   5.493   3.244   4.973  3.2774  1.3234 -1.5444
 7916SOL    HW331431   5.543   3.101   4.969 -0.7090 -0.2930  0.5199
 7916SOL    MW431432   5.531   3.176   5.012  0.1578  0.2240 -0.0991
 7917SOL     OW31433   1.465   3.065   2.948 -0.3526 -0.4938 -1.0323
 7917SOL    HW231434   1.438   3.064   2.856 -1.4365 -0.6073 -0.7187
 7917SOL    HW331435   1.432   2.983   2.984 -0.1944 -0.3122 -0.4655
 7917SOL    MW431436   1.457   3.054   2.940 -0.4748 -0.4848 -0.9162
 7918SOL     OW31437   1.493   0.846   1.084 -0.2526 -0.1188  0.1645
 7918SOL    HW231438   1.541   0.803   1.014  0.7973  1.9333 -0.4505
 7918SOL    HW331439   1.527   0.807   1.165 -0.2775 -1.3215 -0.3949
 7918SOL    MW431440   1.504   0.835   1.086 -0.1174 -0.0067  0.0095
 7919SOL     OW31441   5.494   3.104   1.519  0.6034 -0.2331 -0.7220
 7919SOL    HW231442   5.510   3.087   1.427 -0.2020 -1.2574 -0.6874
 7919SOL    HW331443   5.536   3.032   1.565  0.8063  0.1519 -0.2898
 7919SOL    MW431444   5.501   3.093   1.513  0.5239 -0.3175 -0.6604
 7920SOL     OW31445   1.528   4.580   4.217 -0.7798  0.5236 -0.4775
 7920SOL    HW231446   1.460   4.647   4.226 -0.9494  0.1582  1.2388
 7920SOL    HW331447   1.607   4.628   4.195 -0.9720  1.2687  0.4090
 7920SOL    MW431448   1.529   4.595   4.215 -0.8275  0.5737 -0.1341
 7921SOL     OW31449   3.179   5.296   4.193 -0.4115  0.4208  0.0799
 7921SOL    HW231450   3.274   5.304   4.188 -0.2635 -1.4003 -0.8983
 7921SOL    HW331451   3.147   5.386   4.180  1.1400  0.9634 -0.2544
 7921SOL    MW431452   3.187   5.309   4.190 -0.1873  0.2521 -0.0933
 7922SOL     OW31453   0.132   0.051   3.479 -0.0731 -0.0611  0.5955
 7922SOL    HW231454   0.136   0.139   3.441  0.8910  1.4905  3.9448
 7922SOL    HW331455   0.210   0.007   3.445  0.4237  1.0247  0.2915
 7922SOL    MW431456   0.143   0.057   3.469  0.1196  0.2869  0.9973
 7923SOL     OW31457   1.990   5.995   4.079 -0.0461  0.2082  0.3138
 7923SOL    HW231458   1.930   6.051   4.128 -0.2224  0.5333 -0.2588
 7923SOL    HW331459   2.032   6.053   4.016 -2.4058 -0.7278 -2.3528
 7923SOL    MW431460   1.988   6.010   4.077 -0.3807  0.1276 -0.1136
 7924SOL     OW31461   0.201   1.488   0.181  0.0233 -0.5212 -0.2674
 7924SOL    HW231462   0.267   1.549   0.215  1.2916 -1.7834 -0.3592
 7924SOL    HW331463   0.119   1.537   0.186  0.8227  0.8167  0.6437
 7924SOL    MW431464   0.199   1.502   0.186  0.2961 -0.5112 -0.1593
 7925SOL     OW31465   0.003   1.398   1.183 -0.0609 -0.1093  0.0826
 7925SOL    HW231466  -0.049   1.470   1.147 -0.0803 -0.8409 -1.3918
 7925SOL    HW331467   0.070   1.380   1.117  0.6015 -0.7726  0.8994
 7925SOL    MW431468   0.005   1.405   1.170  0.0239 -0.2933 -0.0042
 7926SOL     OW31469   5.542   3.373   6.047  0.0975 -0.0389  0.3392
 7926SOL    HW231470   5.583   3.287   6.049 -0.1483 -0.1496  1.9467
 7926SOL    HW331471   5.520   3.392   6.138  0.1546  1.7386  0.0319
 7926SOL    MW431472   5.544   3.364   6.059  0.0726  0.1810  0.5108
 7927SOL     OW31473   0.342   0.291   2.725 -0.5106 -0.2967  0.2560
 7927SOL    HW231474   0.392   0.247   2.657 -1.0493  1.0099 -1.0610
 7927SOL    HW331475   0.264   0.236   2.737 -0.3880 -0.5663 -0.1616
 7927SOL    MW431476   0.338   0.278   2.718 -0.5655 -0.1599  0.0272
 7928SOL     OW31477   2.037   0.365   1.295  0.1072 -0.2288 -0.0926
 7928SOL    HW231478   2.074   0.400   1.214 -0.6825 -0.4060 -0.5385
 7928SOL    HW331479   2.010   0.276   1.273  0.5264 -0.5309  0.5626
 7928SOL    MW431480   2.039   0.358   1.282  0.0583 -0.2921 -0.0650
 7929SOL     OW31481   0.333   4.790   5.275  0.2488 -0.2177 -0.0213
 7929SOL    HW231482   0.299   4.711   5.317 -0.6234 -0.3695 -0.9743
 7929SOL    HW331483   0.271   4.859   5.299 -0.3440 -0.3345 -1.1231
 7929SOL    MW431484   0.320   4.788   5.284  0.0555 -0.2532 -0.2924
 7930SOL     OW31485   0.771   6.120   4.044  0.1050  0.0017 -0.8528
 7930SOL    HW231486   0.865   6.136   4.044  0.0056  0.6828 -1.7403
 7930SOL    HW331487   0.746   6.126   3.952 -1.1767  2.1209 -0.4284
 7930SOL    MW431488   0.780   6.123   4.032 -0.0772  0.3711 -0.9139
 7931SOL     OW31489   3.821   3.798   4.584  0.4141  0.2106 -0.0981
 7931SOL    HW231490   3.735   3.760   4.600  0.9676 -1.5903 -1.1364
 7931SOL    HW331491   3.834   3.859   4.657 -1.1820 -0.4459  0.7869
 7931SOL    MW431492   3.811   3.801   4.596  0.2766 -0.1136 -0.1183
 7932SOL     OW31493   4.126   4.279   1.638 -0.5354  0.3279 -0.5825
 7932SOL    HW231494   4.041   4.261   1.599  0.3656 -0.9102 -2.0670
 7932SOL    HW331495   4.172   4.332   1.573  0.0974  0.3444 -0.1306
 7932SOL    MW431496   4.121   4.284   1.625 -0.3330  0.1667 -0.7188
 7933SOL     OW31497   5.266   1.096   3.387  0.3939 -0.2122 -0.5355
 7933SOL    HW231498   5.181   1.071   3.424  0.3823 -0.7359 -0.9088
 7933SOL    HW331499   5.255   1.188   3.363  0.8202  0.5389  1.9510
 7933SOL    MW431500   5.253   1.105   3.388  0.4486 -0.1822 -0.2567
 7934SOL     OW31501   5.615   2.565   0.822  0.0286  0.2031 -0.2837
 7934SOL    HW231502   5.634   2.650   0.782 -2.1763  1.7332  1.6207
 7934SOL    HW331503   5.522   2.570   0.845  0.3011 -1.9604  1.6632
 7934SOL    MW431504   5.605   2.577   0.820 -0.2264  0.1196  0.2244
 7935SOL     OW31505   5.556   4.461   1.785 -0.0150  0.3081 -0.0187
 7935SOL    HW231506   5.472   4.462   1.831 -0.2343  2.2683 -0.3587
 7935SOL    HW331507   5.532   4.468   1.693  0.4958 -0.5264 -0.2177
 7935SOL    MW431508   5.542   4.462   1.779  0.0235  0.4566 -0.0898
 7936SOL     OW31509   1.498   5.965   4.524 -0.2780 -0.2178 -0.1686
 7936SOL    HW231510   1.590   5.982   4.501 -1.0152  0.9408 -2.5904
 7936SOL    HW331511   1.496   5.972   4.620  1.6868  2.4815 -0.2056
 7936SOL    MW431512   1.510   5.969   4.534 -0.1160  0.2912 -0.4930
 7937SOL     OW31513   3.167   1.356   1.530  0.1471 -0.3635 -0.0939
 7937SOL    HW231514   3.147   1.449   1.523  1.6204  0.1410  1.7083
 7937SOL    HW331515   3.225   1.338   1.456  3.0494  1.1505  1.6546
 7937SOL    MW431516   3.172   1.366   1.520  0.7244 -0.0972  0.3746
 7938SOL     OW31517   6.175   0.063   6.416 -0.4280  0.8903 -0.0298
 7938SOL    HW231518   6.246   0.031   6.360 -0.5618  0.9932 -0.2565
 7938SOL    HW331519   6.101   0.075   6.357 -0.2152  2.1877 -0.0660
 7938SOL    MW431520   6.175   0.060   6.401 -0.4176  1.0751 -0.0645
 7939SOL     OW31521   3.163   3.427   2.843 -0.0042 -0.1284 -0.4964
 7939SOL    HW231522   3.105   3.362   2.804 -1.1869  0.5161  0.1325
 7939SOL    HW331523   3.166   3.498   2.779 -0.0392 -0.0848 -0.4492
 7939SOL    MW431524   3.156   3.428   2.830 -0.1649 -0.0376 -0.4072
 7940SOL     OW31525   4.390   6.384   6.291  0.0401  0.7758 -0.0890
 7940SOL    HW231526   4.444   6.310   6.264 -2.2605 -1.0488  0.0021
 7940SOL    HW331527   4.440   6.425   6.361  1.3637 -0.7594 -0.0746
 7940SOL    MW431528   4.404   6.380   6.297 -0.0888  0.3325 -0.0750
 7941SOL     OW31529   5.222   4.224   3.991 -0.1521 -0.5307 -0.1144
 7941SOL    HW231530   5.258   4.249   4.076 -3.3044  2.4745  0.5822
 7941SOL    HW331531   5.154   4.160   4.013 -1.4861  0.8077 -0.1683
 7941SOL    MW431532   5.217   4.219   4.005 -0.7440  0.0424 -0.0296
 7942SOL     OW31533   4.822   4.771   5.319  0.5999 -0.9240 -0.8741
 7942SOL    HW231534   4.767   4.835   5.365  1.0147 -0.2520 -1.3009
 7942SOL    HW331535   4.787   4.769   5.230 -0.2498 -2.2790 -0.5367
 7942SOL    MW431536   4.810   4.779   5.313  0.5425 -1.0141 -0.8859
 7943SOL     OW31537   5.749   0.202   1.101  0.1826 -0.4443  0.3232
 7943SOL    HW231538   5.704   0.286   1.113 -0.2404 -0.9332  2.5707
 7943SOL    HW331539   5.726   0.176   1.012 -0.2070  1.5020 -0.1953
 7943SOL    MW431540   5.740   0.209   1.091  0.0754 -0.2520  0.5513
 7944SOL     OW31541   2.315   1.086   3.940  0.3219 -0.1574 -0.2417
 7944SOL    HW231542   2.223   1.065   3.958  0.6154 -0.9191  0.4689
 7944SOL    HW331543   2.322   1.179   3.961 -0.0984 -0.2912  0.5441
 7944SOL    MW431544   2.304   1.095   3.945  0.3052 -0.2756 -0.0443
 7945SOL     OW31545   0.099   0.399   5.528 -0.6808 -0.2622 -0.8543
 7945SOL    HW231546   0.161   0.363   5.465 -2.2814  0.0312 -2.6691
 7945SOL    HW331547   0.034   0.329   5.541 -0.0672 -0.5618  0.9975
 7945SOL    MW431548   0.098   0.385   5.522 -0.8110 -0.2630 -0.8494
 7946SOL     OW31549   1.708   4.389   0.544 -0.2271  0.6753  0.2664
 7946SOL    HW231550   1.668   4.303   0.549 -0.1160  0.6225  0.2622
 7946SOL    HW331551   1.761   4.396   0.623 -0.1703  0.7060  0.2261
 7946SOL    MW431552   1.710   4.379   0.555 -0.2050  0.6724  0.2605
 7947SOL     OW31553   0.453   2.977   2.113  0.4859 -0.0986 -0.6123
 7947SOL    HW231554   0.402   2.905   2.151  0.3305  0.1873 -0.2741
 7947SOL    HW331555   0.532   2.981   2.166  0.1191  0.5163 -0.0990
 7947SOL    MW431556   0.457   2.968   2.125  0.4170  0.0203 -0.5000
 7948SOL     OW31557   3.728   4.216   3.223 -0.6399 -0.3811  0.3906
 7948SOL    HW231558   3.798   4.163   3.186  0.3052  0.7407  0.5162
 7948SOL    HW331559   3.656   4.209   3.160  0.1133 -0.3762 -0.4859
 7948SOL    MW431560   3.727   4.208   3.210 -0.4159 -0.2325  0.2915
 7949SOL     OW31561   5.335   1.155   0.756  0.5642  0.0616 -0.4072
 7949SOL    HW231562   5.247   1.155   0.719  0.5124  0.0630 -0.2824
 7949SOL    HW331563   5.375   1.076   0.722  1.2264  1.0981 -2.1846
 7949SOL    MW431564   5.329   1.145   0.747  0.6448  0.1985 -0.6252
 7950SOL     OW31565   2.848   1.913   2.888 -0.7490 -0.6631  0.0797
 7950SOL    HW231566   2.919   1.956   2.935 -0.2762 -0.4745 -0.7732
 7950SOL    HW331567   2.772   1.921   2.945 -0.2998 -0.0482  0.6043
 7950SOL    MW431568   2.847   1.920   2.902 -0.6274 -0.5571  0.0364
 7951SOL     OW31569   3.612   2.405   3.764 -0.1725  0.2832  0.3976
 7951SOL    HW231570   3.623   2.463   3.689 -0.4792 -0.8565 -0.5588
 7951SOL    HW331571   3.695   2.411   3.811  0.5333  0.0200 -0.7670
 7951SOL    MW431572   3.625   2.413   3.760 -0.1198  0.0981  0.1178
 7952SOL     OW31573   5.597   5.380   1.924  0.0233 -0.0383  0.0452
 7952SOL    HW231574   5.533   5.438   1.966  0.2119 -0.7129  1.3070
 7952SOL    HW331575   5.654   5.440   1.876  0.0382  0.8166  1.0799
 7952SOL    MW431576   5.596   5.396   1.923  0.0501 -0.0145  0.3482
 7953SOL     OW31577   1.554   1.084   3.418  0.1730 -0.2149  0.0669
 7953SOL    HW231578   1.551   0.992   3.447 -0.3505 -0.0587  0.5216
 7953SOL    HW331579   1.466   1.118   3.436  0.0537  0.0989 -1.0492
 7953SOL    MW431580   1.542   1.076   3.424  0.0882 -0.1529 -0.0204
 7954SOL     OW31581   0.675   0.988   3.945 -0.7003  0.7281 -0.1612
 7954SOL    HW231582   0.748   0.940   3.906 -2.8958 -2.7973 -0.3641
 7954SOL    HW331583   0.648   1.051   3.879  0.2374 -0.0725 -1.3345
 7954SOL    MW431584   0.681   0.990   3.931 -0.8662  0.1573 -0.3428
 7955SOL     OW31585   0.713   6.054   3.728  0.0671  0.0987  0.4197
 7955SOL    HW231586   0.684   5.988   3.665  0.4401  0.6063 -0.2833
 7955SOL    HW331587   0.795   6.088   3.692 -0.7418  1.8345  0.1217
 7955SOL    MW431588   0.720   6.050   3.715  0.0096  0.3947  0.2876
 7956SOL     OW31589   2.270   3.421   1.908 -0.4472  0.1020 -0.1965
 7956SOL    HW231590   2.205   3.402   1.840 -1.1136  2.2898 -0.2495
 7956SOL    HW331591   2.222   3.409   1.990 -0.5785  0.5314 -0.2071
 7956SOL    MW431592   2.255   3.417   1.910 -0.5524  0.4473 -0.2049
 7957SOL     OW31593   1.262   3.144   3.515 -0.2271 -0.2144  0.2393
 7957SOL    HW231594   1.270   3.215   3.451  1.5791 -0.1430  0.4803
 7957SOL    HW331595   1.328   3.165   3.581 -1.2739 -0.8932  1.5588
 7957SOL    MW431596   1.272   3.156   3.515 -0.1269 -0.2946  0.4452
 7958SOL     OW31597   2.757   0.608   5.217  0.2672  0.2636 -0.2754
 7958SOL    HW231598   2.737   0.698   5.243  1.6050 -0.2543  3.0047
 7958SOL    HW331599   2.711   0.554   5.281  1.2014 -1.3182 -0.8828
 7958SOL    MW431600   2.748   0.613   5.229  0.5670 -0.0134  0.0773
 7959SOL     OW31601   0.699   0.850   5.817  0.1603 -0.2900  0.3528
 7959SOL    HW231602   0.611   0.824   5.843  0.7395 -0.6749  2.0928
 7959SOL    HW331603   0.742   0.768   5.794  0.7272 -0.4270  1.7744
 7959SOL    MW431604   0.693   0.836   5.817  0.3115 -0.3588  0.7699
 7960SOL     OW31605   3.242   1.377   4.585 -0.9572  0.5892  0.2993
 7960SOL    HW231606   3.252   1.424   4.668  1.1099 -2.9620  2.3066
 7960SOL    HW331607   3.153   1.341   4.589 -1.2256  1.2536  0.4822
 7960SOL    MW431608   3.231   1.379   4.597 -0.7199  0.2083  0.5883
 7961SOL     OW31609   4.225   2.981   3.766  0.2013  0.1102 -0.4099
 7961SOL    HW231610   4.185   3.002   3.850  0.8759  0.0497 -0.0624
 7961SOL    HW331611   4.221   3.063   3.716 -0.3561  0.0980 -0.3846
 7961SOL    MW431612   4.219   2.994   3.770  0.2167  0.1006 -0.3607
 7962SOL     OW31613   0.808   4.788   2.281 -0.5052 -0.1909  0.1479
 7962SOL    HW231614   0.751   4.823   2.213 -1.4078 -2.7591 -0.5255
 7962SOL    HW331615   0.837   4.865   2.329 -3.1264  1.4073 -0.5841
 7962SOL    MW431616   0.804   4.803   2.279 -0.9701 -0.3188 -0.0375
 7963SOL     OW31617   1.245   4.547   3.742  0.4198  0.0699  0.0614
 7963SOL    HW231618   1.294   4.628   3.728 -0.0193  0.0417 -1.9847
 7963SOL    HW331619   1.171   4.573   3.797  0.0542  1.1728 -0.9086
 7963SOL    MW431620   1.241   4.561   3.747  0.3137  0.2117 -0.3365
 7964SOL     OW31621   1.163   5.868   3.498 -0.5271  0.2133  0.7097
 7964SOL    HW231622   1.097   5.938   3.494  1.5921  2.3515  1.1442
 7964SOL    HW331623   1.200   5.875   3.586 -0.9210 -2.1703  1.1231
 7964SOL    MW431624   1.159   5.879   3.509 -0.2995  0.1809  0.8216
 7965SOL     OW31625   2.635   0.614   1.957  0.7353  0.6241  0.0543
 7965SOL    HW231626   2.557   0.560   1.946  0.1020  1.5098  0.0392
 7965SOL    HW331627   2.616   0.667   2.034 -0.1751  3.2537 -1.8195
 7965SOL    MW431628   2.622   0.614   1.966  0.5316  1.0879 -0.1949
 7966SOL     OW31629   4.877   5.351   1.320 -0.3291 -0.1658  0.2250
 7966SOL    HW231630   4.959   5.386   1.286 -0.3160 -1.1948 -0.8892
 7966SOL    HW331631   4.809   5.403   1.277 -0.2719  0.9637  1.4682
 7966SOL    MW431632   4.879   5.362   1.310 -0.3198 -0.1526  0.2420
 7967SOL     OW31633   2.018   5.186   3.380 -0.4283  0.0362 -0.3486
 7967SOL    HW231634   1.977   5.266   3.413 -0.6748 -0.4875  0.6243
 7967SOL    HW331635   2.111   5.198   3.398 -0.6662 -0.6571  1.4369
 7967SOL    MW431636   2.025   5.198   3.386 -0.4922 -0.1244  0.0154
 7968SOL     OW31637   5.095   0.614   3.885 -0.1625 -0.2833  0.4267
 7968SOL    HW231638   5.094   0.524   3.853  0.7122 -0.2052  0.1505
 7968SOL    HW331639   5.056   0.608   3.972  0.3220 -1.0179  0.6117
 7968SOL    MW431640   5.090   0.601   3.893  0.0168 -0.3699  0.4147
 7969SOL     OW31641   5.573   5.370   3.226 -0.1442 -0.1541 -0.6192
 7969SOL    HW231642   5.635   5.311   3.268  0.7855  0.9071 -0.4716
 7969SOL    HW331643   5.624   5.447   3.204 -1.2704  0.4787 -1.0964
 7969SOL    MW431644   5.588   5.372   3.229 -0.1702  0.0694 -0.6627
 7970SOL     OW31645   3.217   4.239   4.358  0.1738  0.0426  0.0427
 7970SOL    HW231646   3.305   4.257   4.325  0.8475  1.0620  2.2343
 7970SOL    HW331647   3.200   4.149   4.333  1.8033 -0.1615 -0.4749
 7970SOL    MW431648   3.226   4.230   4.350  0.4777  0.1501  0.2635
 7971SOL     OW31649   4.654   0.085   6.150  0.3972  0.2139  0.0134
 7971SOL    HW231650   4.742   0.119   6.132  0.5891  0.1323  0.7690
 7971SOL    HW331651   4.669   0.010   6.208 -0.2163  0.6349  0.7303
 7971SOL    MW431652   4.668   0.080   6.155  0.3416  0.2587  0.2077
 7972SOL     OW31653   1.159   3.994   4.290 -0.0577 -0.2500 -0.0479
 7972SOL    HW231654   1.134   4.012   4.381 -2.0157 -1.1577 -0.3432
 7972SOL    HW331655   1.184   4.079   4.255  0.2891  0.1894  1.2128
 7972SOL    MW431656   1.159   4.007   4.298 -0.2703 -0.3118  0.0795
 7973SOL     OW31657   1.868   1.765   0.013  0.2611  0.4038 -0.5188
 7973SOL    HW231658   1.818   1.847   0.007 -1.4165 -0.4612  0.8329
 7973SOL    HW331659   1.902   1.764   0.102 -0.4898 -0.7639 -0.2261
 7973SOL    MW431660   1.865   1.776   0.024 -0.0593  0.1356 -0.3018
 7974SOL     OW31661   3.639   4.002   5.146  0.0030  0.0309 -0.7042
 7974SOL    HW231662   3.584   3.990   5.068  0.1116  0.6331 -0.8758
 7974SOL    HW331663   3.713   4.054   5.115  0.1931  0.0290 -0.2585
 7974SOL    MW431664   3.642   4.007   5.132  0.0424  0.1101 -0.6680
 7975SOL     OW31665   0.562   4.995   3.778 -0.2323  0.1920 -0.5582
 7975SOL    HW231666   0.508   5.041   3.842  1.5863  0.9061  0.5212
 7975SOL    HW331667   0.639   4.967   3.826  0.5807 -0.4291 -2.1408
 7975SOL    MW431668   0.565   4.997   3.793  0.1149  0.2042 -0.6246
 7976SOL     OW31669   0.017   2.882   3.365 -0.2893  0.5935 -0.3074
 7976SOL    HW231670   0.108   2.912   3.367 -0.4646  1.1193 -0.0990
 7976SOL    HW331671  -0.029   2.939   3.426 -0.9872  1.0930 -1.2604
 7976SOL    MW431672   0.023   2.894   3.373 -0.4045  0.7287 -0.4057
 7977SOL     OW31673   5.466   5.678   0.540 -0.1923  0.0030 -0.3610
 7977SOL    HW231674   5.498   5.736   0.610  0.2563 -1.6066  0.8246
 7977SOL    HW331675   5.544   5.656   0.489 -0.3282  0.2767 -0.6900
 7977SOL    MW431676   5.480   5.683   0.543 -0.1510 -0.1732 -0.2480
 7978SOL     OW31677   3.158   2.054   6.392 -1.1201 -0.5061  0.2275
 7978SOL    HW231678   3.209   2.105   6.456  0.0987 -0.4851 -0.7105
 7978SOL    HW331679   3.147   1.969   6.433  0.2667 -0.7257  0.2012
 7978SOL    MW431680   3.163   2.050   6.406 -0.7763 -0.5323  0.1003
 7979SOL     OW31681   4.617   4.482   4.115 -0.0779 -0.5729 -0.1609
 7979SOL    HW231682   4.674   4.512   4.044  0.8582 -0.2342  0.7160
 7979SOL    HW331683   4.676   4.464   4.188 -1.1972  1.3375  1.3348
 7979SOL    MW431684   4.632   4.484   4.115 -0.1021 -0.2762  0.1521
 7980SOL     OW31685   0.311   2.656   4.536 -0.0532  0.3433  0.3653
 7980SOL    HW231686   0.401   2.668   4.567 -0.2816 -1.0642  1.7229
 7980SOL    HW331687   0.277   2.745   4.528  1.7468  0.9646 -1.2216
 7980SOL    MW431688   0.318   2.669   4.539  0.1542  0.2395  0.3351
 7981SOL     OW31689   0.950   5.046   3.634  0.0417  0.2279 -0.2948
 7981SOL    HW231690   1.041   5.074   3.624 -0.0355  0.4422 -0.4063
 7981SOL    HW331691   0.928   5.069   3.725 -0.5091  1.9922 -0.8342
 7981SOL    MW431692   0.959   5.053   3.645 -0.0412  0.4889 -0.3807
 7982SOL     OW31693   0.704   3.056   2.756 -0.0580 -0.1692  0.9101
 7982SOL    HW231694   0.648   3.059   2.679  0.2782  0.3945  0.6878
 7982SOL    HW331695   0.681   2.973   2.798  1.0051 -1.3421 -0.7150
 7982SOL    MW431696   0.694   3.045   2.752  0.1266 -0.2496  0.6663
 7983SOL     OW31697   3.853   0.269   5.588 -0.2233  0.1767  0.5422
 7983SOL    HW231698   3.923   0.208   5.566 -1.4240 -0.1092 -3.2831
 7983SOL    HW331699   3.775   0.214   5.599 -1.0768  0.7747 -1.8085
 7983SOL    MW431700   3.852   0.254   5.586 -0.4943  0.2179 -0.2726
 7984SOL     OW31701   5.191   3.352   1.755  0.2424 -0.0243 -0.4115
 7984SOL    HW231702   5.205   3.408   1.679 -0.1794  0.9672  0.2183
 7984SOL    HW331703   5.115   3.390   1.799  1.5478  0.5033  1.4885
 7984SOL    MW431704   5.183   3.364   1.751  0.3590  0.1761 -0.0777
 7985SOL     OW31705   0.111   6.282   0.049  0.0047  0.2805 -0.1983
 7985SOL    HW231706   0.051   6.219   0.011 -0.1735  0.5112 -0.3021
 7985SOL    HW331707   0.180   6.293  -0.016 -0.0612  0.3303 -0.2600
 7985SOL    MW431708   0.112   6.275   0.036 -0.0275  0.3175 -0.2202
 7986SOL     OW31709   6.370   5.518   3.182  0.1891  0.5603 -0.0151
 7986SOL    HW231710   6.435   5.450   3.198  1.2219  1.3467 -0.6891
 7986SOL    HW331711   6.310   5.480   3.118  0.0752 -0.1158  0.4846
 7986SOL    MW431712   6.371   5.504   3.175  0.3103  0.5749 -0.0381
 7987SOL     OW31713   2.553   1.487   3.908  0.0420  0.4095 -0.0022
 7987SOL    HW231714   2.559   1.455   3.998  0.6857  1.2795  0.2747
 7987SOL    HW331715   2.643   1.484   3.876  0.1772  2.2431  0.1500
 7987SOL    MW431716   2.566   1.482   3.916  0.1448  0.7662  0.0544
 7988SOL     OW31717   6.259   4.480   1.612  0.3171  0.2888 -0.1677
 7988SOL    HW231718   6.229   4.494   1.522 -0.5005  1.5874  0.2831
 7988SOL    HW331719   6.352   4.460   1.603  0.3583  0.8980 -1.2750
 7988SOL    MW431720   6.267   4.479   1.599  0.2147  0.5405 -0.2543
 7989SOL     OW31721   0.473   4.494   5.628 -0.0374 -0.1284 -0.4265
 7989SOL    HW231722   0.475   4.424   5.693 -1.6462 -0.9787 -1.2277
 7989SOL    HW331723   0.547   4.476   5.571  0.7222 -0.0153  0.4998
 7989SOL    MW431724   0.483   4.483   5.629 -0.1494 -0.2257 -0.4100
 7990SOL     OW31725   2.591   4.577   1.642  0.3483  0.0332 -0.3078
 7990SOL    HW231726   2.543   4.581   1.725 -0.1352  1.2530 -0.6125
 7990SOL    HW331727   2.667   4.633   1.656  0.2452  0.2714 -0.6847
 7990SOL    MW431728   2.595   4.585   1.655  0.2709  0.2256 -0.3977
 7991SOL     OW31729   4.596   0.624   5.017 -0.1499  0.2295 -0.4159
 7991SOL    HW231730   4.613   0.602   4.925 -1.3016  0.0003 -0.5966
 7991SOL    HW331731   4.648   0.561   5.067  1.6074  1.2572 -0.8768
 7991SOL    MW431732   4.605   0.613   5.011 -0.0700  0.3348 -0.5006
 7992SOL     OW31733   5.955   0.261   0.137  0.3433  0.2008 -0.2855
 7992SOL    HW231734   5.983   0.336   0.189 -0.8647  0.9561 -0.6802
 7992SOL    HW331735   6.027   0.245   0.076  0.8815  0.6229  0.2288
 7992SOL    MW431736   5.968   0.269   0.136  0.2549  0.3561 -0.2697
 7993SOL     OW31737   0.376   4.830   3.340  0.1329 -0.7103  0.1396
 7993SOL    HW231738   0.342   4.745   3.367  0.3804 -0.9032 -0.1494
 7993SOL    HW331739   0.363   4.887   3.416 -1.0616 -0.7122 -0.0494
 7993SOL    MW431740   0.370   4.827   3.354  0.0079 -0.7360  0.0765
 7994SOL     OW31741   3.102   0.679   2.905 -0.3093 -1.0132 -0.1521
 7994SOL    HW231742   3.066   0.743   2.967 -1.3417  0.0439 -1.7670
 7994SOL    HW331743   3.192   0.665   2.936  0.2641  1.8791 -0.1583
 7994SOL    MW431744   3.109   0.686   2.917 -0.3698 -0.4921 -0.3660
 7995SOL     OW31745   5.993   3.011   1.306 -0.0696  0.5754 -0.7142
 7995SOL    HW231746   6.005   2.982   1.397 -0.5718  1.6105 -0.3035
 7995SOL    HW331747   5.899   3.007   1.292 -0.2316  2.6065 -0.4169
 7995SOL    MW431748   5.983   3.007   1.316 -0.1573  0.9799 -0.6208
 7996SOL     OW31749   0.007   2.308   3.546  0.1126  0.2132 -0.2506
 7996SOL    HW231750   0.068   2.326   3.475  0.1429 -0.2212 -0.3384
 7996SOL    HW331751   0.062   2.303   3.624  0.2756 -0.7285 -0.4082
 7996SOL    MW431752   0.022   2.309   3.547  0.1381  0.0317 -0.2830
 7997SOL     OW31753   0.086   0.232   1.558  0.1617 -0.2427  0.1921
 7997SOL    HW231754   0.037   0.291   1.616  1.0911  0.9043 -0.1482
 7997SOL    HW331755   0.065   0.262   1.470 -1.2455 -1.9807 -0.1134
 7997SOL    MW431756   0.077   0.244   1.554  0.0987 -0.3207  0.1069
 7998SOL     OW31757   4.392   1.582   0.338  0.6340  0.4221  0.3434
 7998SOL    HW231758   4.381   1.573   0.432  1.2994  0.6936  0.4496
 7998SOL    HW331759   4.472   1.533   0.318 -0.0275 -0.4664 -0.2336
 7998SOL    MW431760   4.401   1.574   0.348  0.6345  0.3407  0.2813
 7999SOL     OW31761   2.922   5.335   1.764  0.4077  0.0775  0.1909
 7999SOL    HW231762   2.901   5.328   1.671 -0.0126  3.8556 -0.1339
 7999SOL    HW331763   2.991   5.401   1.769 -0.3107  0.7497  2.6472
 7999SOL    MW431764   2.928   5.343   1.752  0.2575  0.6647  0.4721
 8000SOL     OW31765   0.747   5.916   5.312  0.1402 -0.1942  0.0825
 8000SOL    HW231766   0.699   5.834   5.310 -1.5293  0.7475 -1.1797
 8000SOL    HW331767   0.679   5.983   5.302  1.4957  1.3263  0.6455
 8000SOL    MW431768   0.731   5.914   5.310  0.0988  0.1306 -0.0098
 8001SOL     OW31769   1.424   2.711   5.380  0.0386  0.3754 -0.0439
 8001SOL    HW231770   1.390   2.767   5.450 -0.9663 -0.4688  0.1686
 8001SOL    HW331771   1.412   2.622   5.413 -1.2820 -0.0763 -1.6446
 8001SOL    MW431772   1.418   2.707   5.394 -0.2683  0.2045 -0.2270
 8002SOL     OW31773   4.832   1.089   3.854 -0.1689 -0.2611 -0.0858
 8002SOL    HW231774   4.804   1.147   3.925  0.6269  0.3820 -0.2788
 8002SOL    HW331775   4.752   1.045   3.826 -0.6136 -0.0022  0.7411
 8002SOL    MW431776   4.818   1.091   3.860 -0.1226 -0.1421 -0.0022
 8003SOL     OW31777   5.087   6.392   3.856 -0.2987 -0.0787 -0.5743
 8003SOL    HW231778   5.093   6.458   3.788 -1.0089 -0.8049 -1.3692
 8003SOL    HW331779   5.178   6.373   3.880 -0.0191 -0.0483 -1.5661
 8003SOL    MW431780   5.100   6.398   3.851 -0.3555 -0.1705 -0.8100
 8004SOL     OW31781   4.621   2.147   2.573 -0.0126 -0.1680 -0.1482
 8004SOL    HW231782   4.533   2.183   2.577  0.4253  0.8603  0.6772
 8004SOL    HW331783   4.610   2.053   2.589 -0.8963  0.0417  0.5190
 8004SOL    MW431784   4.608   2.139   2.575 -0.0714 -0.0047  0.0487
 8005SOL     OW31785   4.255   6.209   1.365  0.2496  0.0435  0.5096
 8005SOL    HW231786   4.262   6.201   1.460  1.5691 -2.0298  0.3051
 8005SOL    HW331787   4.288   6.126   1.331 -0.0767  0.7665 -1.7775
 8005SOL    MW431788   4.260   6.197   1.373  0.3806 -0.1346  0.1808
 8006SOL     OW31789   6.190   0.847   4.207  0.0663 -0.1024 -0.2131
 8006SOL    HW231790   6.179   0.937   4.177  0.3537 -0.6502 -2.1160
 8006SOL    HW331791   6.101   0.810   4.202  0.1538 -0.2592 -0.6277
 8006SOL    MW431792   6.177   0.854   4.202  0.1158 -0.1953 -0.5189
 8007SOL     OW31793   3.642   0.856   6.155  0.9522 -0.0897 -0.0664
 8007SOL    HW231794   3.676   0.910   6.083 -0.7924  0.1435 -0.7683
 8007SOL    HW331795   3.665   0.905   6.234 -0.8373  1.9446 -0.6956
 8007SOL    MW431796   3.649   0.870   6.156  0.4859  0.2094 -0.2421
 8008SOL     OW31797   6.005   6.016   3.445  0.0958  0.5460 -0.2628
 8008SOL    HW231798   6.071   6.081   3.468  0.2201  0.3650 -0.1042
 8008SOL    HW331799   6.022   5.943   3.505 -0.0524  0.3746 -0.4308
 8008SOL    MW431800   6.016   6.015   3.456  0.0927  0.4995 -0.2640
 8009SOL     OW31801   6.420   4.565   2.394  0.2719  0.5868 -0.1394
 8009SOL    HW231802   6.471   4.609   2.462  1.5036 -0.1644 -0.5454
 8009SOL    HW331803   6.331   4.561   2.430  0.5086  1.7651  0.6667
 8009SOL    MW431804   6.415   4.571   2.408  0.4657  0.6432 -0.0866
 8010SOL     OW31805   2.430   4.955   5.573  0.4409  0.2743  0.2525
 8010SOL    HW231806   2.518   4.939   5.539  0.0937  1.1055 -1.1307
 8010SOL    HW331807   2.385   5.002   5.503 -0.9332  0.3879  1.1573
 8010SOL    MW431808   2.435   4.959   5.559  0.2138  0.3990  0.1894
 8011SOL     OW31809   2.301   4.925   3.577  0.3693  0.1092 -0.3875
 8011SOL    HW231810   2.265   4.867   3.511  2.0129 -0.5036 -0.7901
 8011SOL    HW331811   2.294   5.012   3.539  1.1656 -0.2201 -1.3359
 8011SOL    MW431812   2.295   4.929   3.564  0.6912 -0.0151 -0.5657
 8012SOL     OW31813   2.424   4.605   4.083 -0.4300  0.3644 -0.3750
 8012SOL    HW231814   2.474   4.525   4.100  0.3186  0.9881  0.4210
 8012SOL    HW331815   2.490   4.673   4.068 -1.0569  0.6939 -1.8512
 8012SOL    MW431816   2.439   4.603   4.083 -0.4140  0.4902 -0.4648
 8013SOL     OW31817   4.307   1.026   3.902  0.4968  0.1047 -0.2084
 8013SOL    HW231818   4.379   1.089   3.913  1.0885 -0.4851 -0.6090
 8013SOL    HW331819   4.235   1.077   3.865  0.7529  0.6803  0.0863
 8013SOL    MW431820   4.307   1.041   3.899  0.6087  0.1028 -0.2224
 8014SOL     OW31821   5.185   3.825   6.084 -0.0988 -0.3154 -0.0123
 8014SOL    HW231822   5.156   3.735   6.092 -0.2468 -0.4148 -1.3612
 8014SOL    HW331823   5.280   3.821   6.098  0.0690 -0.8777 -1.1500
 8014SOL    MW431824   5.194   3.813   6.087 -0.0962 -0.4027 -0.3404
 8015SOL     OW31825   4.571   2.993   4.322  0.1895 -0.2541 -0.5027
 8015SOL    HW231826   4.501   2.954   4.269  0.3550  0.1970 -1.0629
 8015SOL    HW331827   4.584   3.080   4.285  1.9124 -0.7736 -1.2562
 8015SOL    MW431828   4.564   2.999   4.310  0.4387 -0.2631 -0.6760
 8016SOL     OW31829   4.592   6.024   2.589 -0.1839  0.3547 -0.0243
 8016SOL    HW231830   4.645   6.101   2.571  0.4160 -0.1393 -0.4110
 8016SOL    HW331831   4.639   5.977   2.657  0.3034 -0.4791 -0.9050
 8016SOL    MW431832   4.605   6.028   2.595 -0.0405  0.1795 -0.1915
 8017SOL     OW31833   0.312   3.565   0.682 -0.1144 -0.3380  0.2899
 8017SOL    HW231834   0.257   3.565   0.604  0.6737 -1.5351 -0.2987
 8017SOL    HW331835   0.277   3.495   0.736  1.3845 -1.8085 -0.5485
 8017SOL    MW431836   0.300   3.556   0.679  0.1873 -0.6900  0.1016
 8018SOL     OW31837   4.854   3.667   4.555  0.2055  0.2615  0.8242
 8018SOL    HW231838   4.915   3.705   4.618 -1.1186 -0.6897  2.8329
 8018SOL    HW331839   4.768   3.683   4.594 -0.6443 -0.7358 -0.5614
 8018SOL    MW431840   4.851   3.674   4.569 -0.0813  0.0044  0.9064
 8019SOL     OW31841   4.027   5.731   0.130 -0.1685 -0.0025 -0.1115
 8019SOL    HW231842   4.052   5.801   0.070  0.1536 -0.6523 -0.7446
 8019SOL    HW331843   4.012   5.655   0.075  0.4492 -0.6976  0.6514
 8019SOL    MW431844   4.028   5.731   0.115 -0.0445 -0.1799 -0.0944
 8020SOL     OW31845   3.319   1.557   4.184 -0.2838  0.5682 -0.5774
 8020SOL    HW231846   3.327   1.517   4.097  0.2986  2.2771 -1.3607
 8020SOL    HW331847   3.409   1.568   4.213 -0.4733  0.1681  0.1762
 8020SOL    MW431848   3.332   1.553   4.176 -0.2319  0.7409 -0.5813
 8021SOL     OW31849   0.526   0.108   3.653  0.0129  0.2124  0.3642
 8021SOL    HW231850   0.509   0.021   3.616  0.1575 -0.8199  2.5651
 8021SOL    HW331851   0.486   0.169   3.590  1.8523 -1.2386 -2.4036
 8021SOL    MW431852   0.518   0.104   3.640  0.2747 -0.1153  0.2894
 8022SOL     OW31853   1.386   5.163   5.572  0.2895 -0.4610 -0.1077
 8022SOL    HW231854   1.463   5.162   5.515 -0.0131 -1.8678 -0.5348
 8022SOL    HW331855   1.419   5.136   5.658 -0.0162 -3.3916 -0.7956
 8022SOL    MW431856   1.400   5.160   5.576  0.2092 -1.0332 -0.2548
 8023SOL     OW31857   4.967   1.370   1.257 -0.0450 -0.7569 -0.5260
 8023SOL    HW231858   4.938   1.433   1.322 -0.0352 -0.0407 -1.2067
 8023SOL    HW331859   4.898   1.303   1.257  0.7229 -1.6501  1.3495
 8023SOL    MW431860   4.954   1.369   1.266  0.0576 -0.7803 -0.3684
 8024SOL     OW31861   0.692   3.029   3.881  0.0413  0.1507 -0.3313
 8024SOL    HW231862   0.785   3.039   3.898 -0.0084 -2.0582  1.7180
 8024SOL    HW331863   0.650   3.076   3.954 -0.3269 -1.7765  0.7718
 8024SOL    MW431864   0.698   3.037   3.893 -0.0138 -0.3950  0.0846
 8025SOL     OW31865   1.884   3.791   6.324  0.7118 -0.3452 -0.0903
 8025SOL    HW231866   1.820   3.783   6.253  0.3855 -2.2182  0.3547
 8025SOL    HW331867   1.956   3.842   6.287  0.6174 -1.4108 -1.8297
 8025SOL    MW431868   1.885   3.797   6.310  0.6563 -0.7329 -0.2610
 8026SOL     OW31869   0.275   3.386   4.426  0.5745 -0.2185  0.5450
 8026SOL    HW231870   0.215   3.354   4.358  0.9467 -1.8066  0.9365
 8026SOL    HW331871   0.218   3.434   4.486  0.2880  1.5556 -1.0328
 8026SOL    MW431872   0.259   3.388   4.425  0.5858 -0.1940  0.3885
 8027SOL     OW31873   6.012   2.917   1.583  0.2019  0.0634 -0.0487
 8027SOL    HW231874   6.062   2.990   1.619  1.1307 -0.4888 -0.1882
 8027SOL    HW331875   6.003   2.856   1.657 -0.6235  0.3354  0.0843
 8027SOL    MW431876   6.018   2.919   1.598  0.2156  0.0264 -0.0495
 8028SOL     OW31877   5.346   1.894   2.769 -0.2888 -0.1447 -0.9560
 8028SOL    HW231878   5.351   1.911   2.675 -0.3407 -0.0172 -0.9355
 8028SOL    HW331879   5.264   1.846   2.781 -1.1626  1.3523 -0.7461
 8028SOL    MW431880   5.336   1.890   2.758 -0.4109  0.0696 -0.9256
 8029SOL     OW31881   3.895   3.629   3.544 -0.1011  0.7003  0.2003
 8029SOL    HW231882   3.872   3.715   3.507 -0.1960  1.8710  2.7750
 8029SOL    HW331883   3.812   3.584   3.555 -0.0966  0.4555 -0.6845
 8029SOL    MW431884   3.881   3.635   3.541 -0.1130  0.8225  0.4232
 8030SOL     OW31885   3.265   3.549   2.425 -0.1728  0.3305  0.0483
 8030SOL    HW231886   3.231   3.596   2.501 -0.5912  1.8906 -1.0545
 8030SOL    HW331887   3.325   3.484   2.462 -2.4452 -0.8694  1.8799
 8030SOL    MW431888   3.269   3.547   2.440 -0.5278  0.3780  0.1445
 8031SOL     OW31889   3.796   3.383   5.084 -0.3449 -0.2377 -0.4984
 8031SOL    HW231890   3.765   3.342   5.166  0.3153 -2.2399 -1.1861
 8031SOL    HW331891   3.891   3.371   5.086 -0.2757  0.1156 -1.3369
 8031SOL    MW431892   3.805   3.376   5.095 -0.2486 -0.4553 -0.6998
 8032SOL     OW31893   2.393   5.800   1.198 -0.1037 -0.4776 -0.1319
 8032SOL    HW231894   2.367   5.837   1.283 -2.2133  0.4641 -1.1358
 8032SOL    HW331895   2.462   5.858   1.167  0.7851 -0.9013  0.9566
 8032SOL    MW431896   2.399   5.812   1.205 -0.2648 -0.4092 -0.1207
 8033SOL     OW31897   0.947   4.660   5.035 -0.6435  0.4037  0.0018
 8033SOL    HW231898   1.019   4.656   4.972 -2.5072  0.1582 -2.2546
 8033SOL    HW331899   0.908   4.572   5.033 -2.4369  1.1574 -0.6854
 8033SOL    MW431900   0.951   4.648   5.026 -1.1260  0.4707 -0.3865
 8034SOL     OW31901   3.523   1.178   6.111  0.0622  0.6055 -0.0474
 8034SOL    HW231902   3.460   1.175   6.183  0.3561  1.3619  0.2559
 8034SOL    HW331903   3.478   1.227   6.041  0.5108  1.7026  0.3983
 8034SOL    MW431904   3.509   1.184   6.111  0.1602  0.8500  0.0515
 8035SOL     OW31905   5.534   1.451   6.264  0.5692  0.0251  0.6422
 8035SOL    HW231906   5.475   1.377   6.278  0.2211  0.2638  0.4289
 8035SOL    HW331907   5.622   1.414   6.276  0.5990 -1.1341 -2.3773
 8035SOL    MW431908   5.538   1.437   6.268  0.5272 -0.0963  0.2157
 8036SOL     OW31909   3.035   0.088   0.826  0.0210  0.0244 -0.0260
 8036SOL    HW231910   2.942   0.069   0.839 -0.0655  0.1304 -0.4742
 8036SOL    HW331911   3.050   0.167   0.878 -0.1440  0.0083  0.0480
 8036SOL    MW431912   3.024   0.096   0.834 -0.0122  0.0363 -0.0754
 8037SOL     OW31913   4.120   2.993   6.342  0.8831 -0.3952  0.3157
 8037SOL    HW231914   4.190   2.931   6.324  1.8851  0.9323 -0.5639
 8037SOL    HW331915   4.144   3.071   6.293 -1.1920  0.1300  0.0415
 8037SOL    MW431916   4.132   2.995   6.333  0.7415 -0.1508  0.1634
 8038SOL     OW31917   3.993   0.722   6.337 -0.0046  0.2202 -0.2343
 8038SOL    HW231918   4.038   0.787   6.282 -0.4130  0.2170 -0.5735
 8038SOL    HW331919   3.937   0.674   6.276  0.1108 -0.2889  0.0585
 8038SOL    MW431920   3.992   0.725   6.322 -0.0433  0.1526 -0.2405
 8039SOL     OW31921   3.722   5.443   5.563 -0.1563  0.4931 -0.7325
 8039SOL    HW231922   3.813   5.437   5.591  0.1595  1.7858 -1.4423
 8039SOL    HW331923   3.726   5.455   5.468 -1.0592  0.8260 -0.7393
 8039SOL    MW431924   3.735   5.444   5.554 -0.2338  0.7076 -0.8271
 8040SOL     OW31925   2.609   4.615   5.519  0.0550 -0.0593  0.4288
 8040SOL    HW231926   2.632   4.582   5.432  1.2666 -1.9818  1.3885
 8040SOL    HW331927   2.687   4.662   5.548 -1.1921  2.6897 -0.3923
 8040SOL    MW431928   2.623   4.617   5.511  0.0503  0.0497  0.4471
 8041SOL     OW31929   3.632   4.093   0.033  0.3910  0.1124  0.2842
 8041SOL    HW231930   3.596   4.139   0.109 -0.7106 -0.3937  0.0954
 8041SOL    HW331931   3.614   4.150  -0.041  0.6198  0.1815  0.2819
 8041SOL    MW431932   3.625   4.107   0.033  0.2758  0.0547  0.2590
 8042SOL     OW31933   0.683   6.059   6.296 -0.1499 -0.0988  0.5224
 8042SOL    HW231934   0.619   5.990   6.313  0.3491 -0.8365 -0.4203
 8042SOL    HW331935   0.634   6.140   6.299 -0.9786 -0.5947  0.5625
 8042SOL    MW431936   0.668   6.061   6.298 -0.1934 -0.2615  0.4033
 8043SOL     OW31937   2.989   0.876   5.044  0.1808  0.5134 -0.2198
 8043SOL    HW231938   2.995   0.840   4.955 -1.8257 -0.1930 -0.1265
 8043SOL    HW331939   2.895   0.885   5.060  0.4754  0.3389  1.9380
 8043SOL    MW431940   2.977   0.872   5.035 -0.0451  0.3972  0.0772
 8044SOL     OW31941   2.833   5.369   2.064  0.0586 -0.0622  0.1441
 8044SOL    HW231942   2.857   5.325   1.983 -0.3737 -0.9811  0.4926
 8044SOL    HW331943   2.802   5.455   2.037 -0.8683 -0.6562 -0.7545
 8044SOL    MW431944   2.832   5.375   2.050 -0.1207 -0.2618  0.0715
 8045SOL     OW31945   2.848   4.014   4.881 -0.2557 -0.0759 -0.1593
 8045SOL    HW231946   2.893   4.004   4.797  0.1015 -3.2208  0.2845
 8045SOL    HW331947   2.905   3.970   4.944 -1.1787  1.0292  1.5111
 8045SOL    MW431948   2.862   4.007   4.878 -0.3303 -0.3450  0.1197
 8046SOL     OW31949   0.657   0.357   0.741  0.5561 -0.1074 -0.3300
 8046SOL    HW231950   0.668   0.269   0.778  0.2131 -0.1347 -0.2948
 8046SOL    HW331951   0.602   0.344   0.664  0.3156  0.1094 -0.1946
 8046SOL    MW431952   0.651   0.344   0.736  0.4792 -0.0824 -0.3075
 8047SOL     OW31953   4.833   0.308   0.949  0.3598  0.2612 -0.0784
 8047SOL    HW231954   4.776   0.370   0.995 -1.4853 -1.1569 -0.3049
 8047SOL    HW331955   4.803   0.222   0.980  2.0125 -0.5728 -0.6850
 8047SOL    MW431956   4.822   0.305   0.959  0.3344 -0.0359 -0.1883
 8048SOL     OW31957   2.345   4.142   0.236 -0.5464 -0.2180 -0.7943
 8048SOL    HW231958   2.321   4.227   0.273 -0.4592 -0.7214  0.4717
 8048SOL    HW331959   2.265   4.109   0.196 -0.8041  0.0724 -0.5134
 8048SOL    MW431960   2.332   4.148   0.236 -0.5689 -0.2461 -0.5902
 8049SOL     OW31961   1.445   3.953   1.145 -0.2465  0.0816  0.1364
 8049SOL    HW231962   1.382   3.970   1.076 -0.0706  0.3940  0.0520
 8049SOL    HW331963   1.530   3.958   1.102 -0.1555 -0.2427  0.2683
 8049SOL    MW431964   1.448   3.956   1.130 -0.2113  0.0800  0.1426
 8050SOL     OW31965   5.216   1.804   6.152  0.4731 -0.0013 -0.2774
 8050SOL    HW231966   5.236   1.710   6.154  1.0849  0.1049 -1.1815
 8050SOL    HW331967   5.296   1.846   6.182  0.6515  0.2889 -1.1331
 8050SOL    MW431968   5.229   1.797   6.156  0.5774  0.0510 -0.5096
 8051SOL     OW31969   3.471   0.199   1.518  1.1675 -0.0813 -0.0790
 8051SOL    HW231970   3.496   0.106   1.519 -0.0326 -0.5032 -2.2901
 8051SOL    HW331971   3.495   0.228   1.429  0.0450  1.2889  0.0473
 8051SOL    MW431972   3.478   0.191   1.506  0.8611  0.0438 -0.3541
 8052SOL     OW31973   0.694   1.940   6.182  0.0154  0.3804 -0.3882
 8052SOL    HW231974   0.628   1.965   6.248  0.5965 -0.6170  0.6003
 8052SOL    HW331975   0.650   1.873   6.130 -0.4048  1.0870 -0.9664
 8052SOL    MW431976   0.679   1.935   6.184  0.0367  0.3421 -0.3341
 8053SOL     OW31977   1.728   6.274   2.861 -0.2732 -0.4851  0.1343
 8053SOL    HW231978   1.738   6.342   2.928 -0.0598 -1.7116  1.3949
 8053SOL    HW331979   1.673   6.208   2.903 -0.9368 -0.8554 -1.2662
 8053SOL    MW431980   1.722   6.274   2.875 -0.3326 -0.6958  0.1159
 8054SOL     OW31981   3.357   0.858   6.174  0.5058 -0.2052  0.5360
 8054SOL    HW231982   3.323   0.773   6.144 -0.2037  0.5110 -0.7344
 8054SOL    HW331983   3.449   0.858   6.148  0.5760 -0.6722  0.7673
 8054SOL    MW431984   3.365   0.846   6.167  0.4215 -0.1723  0.3989
 8055SOL     OW31985   0.711   1.108   2.936  0.1111  0.1495 -0.1570
 8055SOL    HW231986   0.697   1.125   3.029  1.1827  1.4043 -0.1963
 8055SOL    HW331987   0.798   1.069   2.932  0.5103  1.0670 -0.7082
 8055SOL    MW431988   0.720   1.105   2.948  0.3052  0.4361 -0.2349
 8056SOL     OW31989   5.793   1.112   5.277 -0.7217  0.0845  0.4558
 8056SOL    HW231990   5.775   1.021   5.301 -0.7281  0.4946  2.1220
 8056SOL    HW331991   5.739   1.127   5.200 -2.0163 -0.8367  1.1388
 8056SOL    MW431992   5.783   1.102   5.270 -0.8934  0.0170  0.7658
 8057SOL     OW31993   3.440   0.035   6.280  0.0116 -0.1929 -0.2481
 8057SOL    HW231994   3.403   0.091   6.212 -0.0039  1.5276  1.0919
 8057SOL    HW331995   3.364  -0.009   6.319 -0.4161  1.3486  0.7766
 8057SOL    MW431996   3.425   0.037   6.276 -0.0469  0.2375  0.0639
 8058SOL     OW31997   2.680   0.214   0.015 -0.7280 -0.5260  0.1927
 8058SOL    HW231998   2.770   0.184   0.023  0.3837  1.3709 -3.1593
 8058SOL    HW331999   2.688   0.309   0.003 -3.2187 -0.2742  0.0821
 8058SOL    MW432000   2.693   0.223   0.015 -0.9100 -0.2425 -0.2641
 8059SOL     OW32001   0.195   0.507   3.855  0.3246 -0.1827  0.3573
 8059SOL    HW232002   0.118   0.458   3.825  0.5132  0.1214 -0.6624
 8059SOL    HW332003   0.159   0.582   3.902  0.0273 -0.8607  1.2400
 8059SOL    MW432004   0.180   0.510   3.858  0.3103 -0.2320  0.3392
 8060SOL     OW32005   0.534   5.449   3.045  0.0988 -0.8380 -0.4072
 8060SOL    HW232006   0.581   5.403   2.975  2.6054  0.7981  0.0666
 8060SOL    HW332007   0.603   5.474   3.107 -0.9317  3.6104 -0.7029
 8060SOL    MW432008   0.550   5.446   3.044  0.2935 -0.0352 -0.3837
 8061SOL     OW32009   6.054   4.751   1.467 -0.8085 -0.0955  0.1213
 8061SOL    HW232010   5.974   4.767   1.416  0.0965 -1.2547 -1.7662
 8061SOL    HW332011   6.097   4.837   1.472 -0.2575 -0.1516 -2.3236
 8061SOL    MW432012   6.049   4.765   1.461 -0.6164 -0.2558 -0.4503
 8062SOL     OW32013   0.984   2.602   3.177 -0.3077  0.2974  0.3525
 8062SOL    HW232014   1.027   2.525   3.140  1.5829  1.1075  0.7624
 8062SOL    HW332015   1.004   2.673   3.116 -0.1177  0.9261  1.1334
 8062SOL    MW432016   0.992   2.601   3.164 -0.0332  0.4872  0.5096
 8063SOL     OW32017   2.763   0.299   2.380  0.5220  0.5182 -0.4985
 8063SOL    HW232018   2.770   0.210   2.415 -1.2525  0.9536  1.1472
 8063SOL    HW332019   2.715   0.289   2.298  0.7484 -0.0887 -0.5606
 8063SOL    MW432020   2.757   0.286   2.374  0.3177  0.4956 -0.2895
 8064SOL     OW32021   5.548   4.724   1.359 -0.2026 -0.0484 -0.3819
 8064SOL    HW232022   5.489   4.696   1.289 -0.9522  1.2716 -0.3226
 8064SOL    HW332023   5.635   4.696   1.331 -0.7020 -0.9477 -1.0594
 8064SOL    MW432024   5.552   4.717   1.346 -0.3674  0.0071 -0.4635
 8065SOL     OW32025   5.963   3.233   2.118 -0.1244 -0.2276 -0.2470
 8065SOL    HW232026   6.055   3.254   2.135  0.2511 -1.5545 -0.4521
 8065SOL    HW332027   5.956   3.234   2.023 -0.5542  0.7180 -0.2138
 8065SOL    MW432028   5.974   3.236   2.108 -0.1316 -0.2779 -0.2697
 8066SOL     OW32029   0.169   3.896   0.524 -0.2937  0.3442 -0.2141
 8066SOL    HW232030   0.211   3.918   0.608  0.6593 -1.0369 -0.2972
 8066SOL    HW332031   0.151   3.981   0.484  0.8165  1.0118  0.6253
 8066SOL    MW432032   0.172   3.910   0.530 -0.0215  0.2501 -0.1143
 8067SOL     OW32033   0.565   5.615   6.305  0.0715  0.2290 -0.4066
 8067SOL    HW232034   0.614   5.583   6.229  2.5881 -1.8760  1.8739
 8067SOL    HW332035   0.499   5.548   6.321 -0.3981  0.6244 -0.6638
 8067SOL    MW432036   0.563   5.602   6.297  0.3415  0.0035 -0.1397
 8068SOL     OW32037   2.674   1.030   4.124 -0.6627 -0.1023 -0.4072
 8068SOL    HW232038   2.622   0.963   4.080 -0.4345 -0.1977 -0.5312
 8068SOL    HW332039   2.632   1.040   4.210 -0.9309 -0.1233 -0.5362
 8068SOL    MW432040   2.662   1.022   4.130 -0.6679 -0.1177 -0.4406
 8069SOL     OW32041   1.890   6.335   4.429 -0.0799  0.4214 -0.1213
 8069SOL    HW232042   1.893   6.384   4.511  0.3689 -0.3430  0.3355
 8069SOL    HW332043   1.924   6.395   4.363 -1.4220  1.4026  0.0563
 8069SOL    MW432044   1.895   6.349   4.431 -0.1977  0.4500 -0.0376
 8070SOL     OW32045   1.761   3.995   4.394 -0.5483  0.0265  0.4041
 8070SOL    HW232046   1.687   4.012   4.336 -0.0162  0.6300 -0.1207
 8070SOL    HW332047   1.736   4.036   4.477 -0.7828  0.2683  0.2172
 8070SOL    MW432048   1.748   4.003   4.397 -0.5090  0.1380  0.3102
 8071SOL     OW32049   6.265   6.328   0.963  0.3566 -0.1417  0.2615
 8071SOL    HW232050   6.308   6.288   0.888 -0.0040  0.1992 -0.1272
 8071SOL    HW332051   6.199   6.386   0.926 -0.1451 -0.3207  0.8466
 8071SOL    MW432052   6.262   6.330   0.948  0.2428 -0.1204  0.2874
 8072SOL     OW32053   6.081   2.253   3.756  0.1119 -0.6747  0.4660
 8072SOL    HW232054   6.040   2.205   3.829  0.1698 -0.6414  0.5196
 8072SOL    HW332055   6.073   2.193   3.681 -0.1662 -0.6119  0.4411
 8072SOL    MW432056   6.074   2.238   3.756  0.0829 -0.6620  0.4698
 8073SOL     OW32057   3.473   2.503   0.229 -0.6176  0.1120 -0.0027
 8073SOL    HW232058   3.454   2.543   0.144  0.2828  0.5754  0.0079
 8073SOL    HW332059   3.461   2.575   0.292 -1.3948 -0.2577  0.2812
 8073SOL    MW432060   3.469   2.518   0.226 -0.6013  0.1243  0.0361
 8074SOL     OW32061   3.317   0.983   3.960  0.3487  0.0774 -0.6829
 8074SOL    HW232062   3.294   0.894   3.987 -0.4814  0.4915  0.0044
 8074SOL    HW332063   3.274   1.040   4.024 -0.5129  1.0397 -2.0561
 8074SOL    MW432064   3.308   0.979   3.972  0.1255  0.2590 -0.7734
 8075SOL     OW32065   5.307   0.596   1.562 -0.4243  0.0445  0.2322
 8075SOL    HW232066   5.325   0.598   1.468 -1.2577 -1.3308  0.0077
 8075SOL    HW332067   5.393   0.604   1.603  0.3080 -2.1874 -0.7169
 8075SOL    MW432068   5.321   0.597   1.555 -0.4376 -0.4315  0.0773
 8076SOL     OW32069   4.496   3.249   6.337  0.0412  0.2037  0.4005
 8076SOL    HW232070   4.525   3.168   6.296 -1.0440  0.8269 -1.7132
 8076SOL    HW332071   4.430   3.222   6.400  0.1766 -0.6049  0.2025
 8076SOL    MW432072   4.491   3.235   6.340 -0.0841  0.1793  0.0955
 8077SOL     OW32073   1.566   5.294   0.663  0.3028 -0.2041 -0.2431
 8077SOL    HW232074   1.625   5.364   0.633  0.2760 -0.4009 -0.7657
 8077SOL    HW332075   1.618   5.244   0.726 -0.1657  1.1828  1.3271
 8077SOL    MW432076   1.581   5.297   0.667  0.2375 -0.0471 -0.1049
 8078SOL     OW32077   1.350   0.761   0.267  0.0631  0.7617  0.6463
 8078SOL    HW232078   1.416   0.798   0.208 -0.0858  0.1799  0.1003
 8078SOL    HW332079   1.288   0.832   0.281  1.7192  1.9516  2.6476
 8078SOL    MW432080   1.351   0.775   0.261  0.2620  0.8419  0.8383
 8079SOL     OW32081   4.688   2.492   2.287  0.6215  0.1197 -0.1980
 8079SOL    HW232082   4.708   2.585   2.278  1.7258 -0.1204 -0.3341
 8079SOL    HW332083   4.638   2.471   2.207  0.5381  0.5453 -0.2603
 8079SOL    MW432084   4.684   2.502   2.275  0.7562  0.1442 -0.2242
 8080SOL     OW32085   3.049   6.007   6.056 -0.2974 -0.0536 -0.0978
 8080SOL    HW232086   3.115   6.001   5.987  1.2704 -0.9993  1.4090
 8080SOL    HW332087   3.001   5.924   6.050  0.1690 -0.3554  0.2379
 8080SOL    MW432088   3.051   5.995   6.046 -0.0290 -0.2182  0.1453
 8081SOL     OW32089   2.980   0.089   0.030 -0.2914 -0.1062  0.6550
 8081SOL    HW232090   3.040   0.049   0.092  0.2819 -0.5389 -0.1638
 8081SOL    HW332091   3.034   0.148  -0.022 -0.6684 -0.1038  0.2539
 8081SOL    MW432092   2.995   0.091   0.032 -0.2655 -0.1630  0.4940
 8082SOL     OW32093   5.879   4.839   6.027  0.6326  0.2621  0.0701
 8082SOL    HW232094   5.870   4.896   6.103 -0.7427 -0.8275  0.7596
 8082SOL    HW332095   5.844   4.755   6.055  0.5115 -0.2975 -1.6220
 8082SOL    MW432096   5.873   4.835   6.041  0.4351  0.0445 -0.0622
 8083SOL     OW32097   4.589   0.630   0.236  0.3954  0.1452  0.3500
 8083SOL    HW232098   4.672   0.644   0.281  0.8947  0.9348 -0.7729
 8083SOL    HW332099   4.523   0.645   0.303  1.0623  2.9309  0.5354
 8083SOL    MW432100   4.591   0.634   0.251  0.5493  0.6169  0.2263
 8084SOL     OW32101   2.811   6.046   1.756 -0.3720 -0.0288  0.2975
 8084SOL    HW232102   2.760   6.127   1.759  0.6049  0.6065  0.2690
 8084SOL    HW332103   2.854   6.049   1.670 -0.6423 -0.7807  0.1300
 8084SOL    MW432104   2.810   6.057   1.745 -0.2788 -0.0442  0.2717
 8085SOL     OW32105   3.496   0.641   1.737  0.1197 -0.1943 -0.6256
 8085SOL    HW232106   3.535   0.572   1.790 -0.9828 -0.4621 -0.1364
 8085SOL    HW332107   3.511   0.613   1.646  0.2169 -0.7748 -0.4332
 8085SOL    MW432108   3.503   0.629   1.732 -0.0130 -0.3062 -0.5357
 8086SOL     OW32109   5.608   3.384   3.354 -0.2964 -0.0906  0.3836
 8086SOL    HW232110   5.567   3.414   3.272 -1.1713  0.3169  0.9525
 8086SOL    HW332111   5.655   3.304   3.329 -1.3953 -0.5437 -0.3218
 8086SOL    MW432112   5.609   3.377   3.340 -0.5568 -0.0966  0.3656
 8087SOL     OW32113   1.043   4.488   1.514  0.4642 -0.1213 -0.1048
 8087SOL    HW232114   1.132   4.481   1.550  0.5419 -3.2484 -0.6276
 8087SOL    HW332115   1.055   4.534   1.431  1.2309  1.4207  0.8098
 8087SOL    MW432116   1.057   4.493   1.508  0.5756 -0.3305 -0.0531
 8088SOL     OW32117   2.733   6.137   1.166  0.1134  0.0080  0.0197
 8088SOL    HW232118   2.805   6.148   1.104  1.5616 -0.9889  1.4251
 8088SOL    HW332119   2.761   6.064   1.222 -0.9929  1.0113  1.9773
 8088SOL    MW432120   2.746   6.129   1.165  0.1585  0.0089  0.4634
 8089SOL     OW32121   4.962   2.311   2.548  0.6131  0.0725  0.3639
 8089SOL    HW232122   4.891   2.259   2.509  0.5447  0.8959 -0.6275
 8089SOL    HW332123   5.013   2.247   2.597 -1.1180 -0.4609  1.5739
 8089SOL    MW432124   4.959   2.295   2.549  0.3757  0.1108  0.3927
 8090SOL     OW32125   2.220   5.753   4.635 -0.2540  0.5486  0.4158
 8090SOL    HW232126   2.216   5.752   4.731 -0.3712 -1.5187  0.4287
 8090SOL    HW332127   2.194   5.842   4.611  0.0234  1.1866  2.3006
 8090SOL    MW432128   2.216   5.764   4.645 -0.2329  0.3600  0.6662
 8091SOL     OW32129   2.052   4.236   6.168  0.1940 -0.1962 -0.1654
 8091SOL    HW232130   2.000   4.268   6.241  0.1032  0.3863 -0.4800
 8091SOL    HW332131   2.141   4.264   6.187  0.1249  0.1951 -0.4106
 8091SOL    MW432132   2.057   4.244   6.180  0.1729 -0.0677 -0.2393
 8092SOL     OW32133   4.278   4.047   0.524 -0.5435  0.0501 -0.3836
 8092SOL    HW232134   4.334   4.109   0.571 -1.5369  0.4985  0.2394
 8092SOL    HW332135   4.320   4.038   0.438  0.2693  0.6688 -0.0692
 8092SOL    MW432136   4.291   4.054   0.519 -0.5673  0.1909 -0.2599
 8093SOL     OW32137   1.263   3.180   6.005 -0.1762 -0.1368  0.8495
 8093SOL    HW232138   1.328   3.179   6.076  2.6458 -3.9472 -1.3899
 8093SOL    HW332139   1.194   3.121   6.035  0.2137 -0.4903  1.0648
 8093SOL    MW432140   1.263   3.172   6.018  0.2476 -0.6862  0.5824
 8094SOL     OW32141   3.292   0.609   6.060  0.3222 -0.5707 -0.4037
 8094SOL    HW232142   3.221   0.563   6.016 -0.4086 -2.1828  2.2641
 8094SOL    HW332143   3.347   0.540   6.096  1.3795  0.6514  0.4065
 8094SOL    MW432144   3.290   0.594   6.059  0.3652 -0.6221  0.0552
 8095SOL     OW32145   4.790   3.142   1.162 -0.3425 -0.5690  0.4173
 8095SOL    HW232146   4.875   3.116   1.128  0.5081 -0.1629  2.1125
 8095SOL    HW332147   4.788   3.237   1.153 -1.0034 -0.6569 -0.4394
 8095SOL    MW432148   4.801   3.151   1.156 -0.3175 -0.5270  0.5280
 8096SOL     OW32149   2.119   0.378   0.000  0.1319  0.1155  0.0603
 8096SOL    HW232150   2.101   0.451  -0.060 -0.7272 -1.4856 -1.7272
 8096SOL    HW332151   2.207   0.397   0.034 -0.2211  2.1665 -0.0129
 8096SOL    MW432152   2.128   0.390  -0.003 -0.0280  0.1749 -0.1852
 8097SOL     OW32153   4.490   1.336   5.759  0.2462  0.0935  0.2794
 8097SOL    HW232154   4.483   1.317   5.853 -0.9786  0.4502  0.2709
 8097SOL    HW332155   4.400   1.338   5.728  0.3387  3.7443 -0.1511
 8097SOL    MW432156   4.477   1.334   5.768  0.0968  0.6223  0.2215
 8098SOL     OW32157   1.022   3.588   0.603 -0.0371  0.2216  0.7221
 8098SOL    HW232158   0.996   3.641   0.528 -0.0875 -0.0080  0.5758
 8098SOL    HW332159   0.955   3.520   0.609  0.0155  0.1877  0.9211
 8098SOL    MW432160   1.010   3.586   0.594 -0.0368  0.1868  0.7290
 8099SOL     OW32161   6.219   0.042   0.262  0.1587  0.0029 -0.5213
 8099SOL    HW232162   6.207   0.042   0.167 -0.6805 -0.2291 -0.4215
 8099SOL    HW332163   6.239  -0.049   0.284  2.1681  0.3533 -0.6676
 8099SOL    MW432164   6.220   0.030   0.252  0.3131  0.0185 -0.5274
 8100SOL     OW32165   0.815   3.586   3.124 -0.0704  0.2777  0.5326
 8100SOL    HW232166   0.773   3.640   3.057 -0.0501 -1.0432 -0.5845
 8100SOL    HW332167   0.907   3.585   3.098 -0.2960 -1.4461 -0.3102
 8100SOL    MW432168   0.822   3.593   3.111 -0.0975 -0.1240  0.2740
 8101SOL     OW32169   4.036   2.040   2.205  0.1717 -0.4819  0.1620
 8101SOL    HW232170   4.119   2.051   2.250  0.1836  1.1950 -0.1806
 8101SOL    HW332171   4.005   1.953   2.230  2.6481 -1.7058 -0.7827
 8101SOL    MW432172   4.043   2.030   2.214  0.5000 -0.4222 -0.0079
 8102SOL     OW32173   3.984   2.690   5.720  0.2358 -0.1788  0.3180
 8102SOL    HW232174   4.070   2.694   5.763 -0.5231 -0.2978  1.9129
 8102SOL    HW332175   3.936   2.764   5.755 -0.6027 -0.5902  0.0642
 8102SOL    MW432176   3.989   2.700   5.730  0.0251 -0.2488  0.4950
 8103SOL     OW32177   4.985   3.681   1.481  0.6879  0.3137  0.2807
 8103SOL    HW232178   4.969   3.746   1.549  0.3243 -0.0547  0.5541
 8103SOL    HW332179   5.068   3.641   1.505  0.0874 -0.5070  1.0854
 8103SOL    MW432180   4.994   3.684   1.493  0.5607  0.1568  0.4229
 8104SOL     OW32181   2.010   2.580   0.024  0.4171  0.2722 -0.0768
 8104SOL    HW232182   2.044   2.554   0.110 -0.0087 -0.0951 -0.0166
 8104SOL    HW332183   1.956   2.506  -0.004 -0.5027  0.9240 -0.0779
 8104SOL    MW432184   2.007   2.567   0.032  0.2396  0.3098 -0.0690
 8105SOL     OW32185   2.149   2.061   1.351  0.1953 -0.2847 -0.3482
 8105SOL    HW232186   2.240   2.031   1.360  0.4147  0.1529 -1.0107
 8105SOL    HW332187   2.157   2.147   1.309 -0.5049 -0.0229  0.0473
 8105SOL    MW432188   2.162   2.069   1.347  0.1319 -0.1924 -0.3835
 8106SOL     OW32189   3.063   2.519   1.568  0.1477  0.2417  0.2190
 8106SOL    HW232190   3.058   2.424   1.557 -1.1643  0.5506 -2.9569
 8106SOL    HW332191   3.006   2.538   1.642 -0.6691 -1.3665  0.0409
 8106SOL    MW432192   3.055   2.509   1.576 -0.1332  0.0703 -0.2235
 8107SOL     OW32193   0.558   2.004   2.920 -0.0663  0.2779  0.2488
 8107SOL    HW232194   0.539   2.087   2.964 -0.9397  0.3039 -0.1636
 8107SOL    HW332195   0.507   2.007   2.839 -0.5254 -0.8881  0.4748
 8107SOL    MW432196   0.549   2.015   2.915 -0.2421  0.1275  0.2242
 8108SOL     OW32197   5.694   2.152   4.492  0.0820  0.2500  0.2248
 8108SOL    HW232198   5.748   2.183   4.564  0.7295  1.2228 -0.6453
 8108SOL    HW332199   5.647   2.229   4.461  0.1174 -0.0538 -0.6428
 8108SOL    MW432200   5.695   2.166   4.497  0.1721  0.3383 -0.0044
 8109SOL     OW32201   0.218   6.369   3.758 -0.3237 -0.1065  0.2808
 8109SOL    HW232202   0.237   6.453   3.801  0.8049 -1.2173  2.1133
 8109SOL    HW332203   0.135   6.341   3.797 -0.5702  0.0175 -0.1437
 8109SOL    MW432204   0.210   6.377   3.769 -0.2073 -0.2367  0.4666
 8110SOL     OW32205   4.523   4.912   0.230  0.4573  0.1838 -0.0942
 8110SOL    HW232206   4.604   4.912   0.178  1.1580  1.2571  0.9394
 8110SOL    HW332207   4.508   5.004   0.251 -0.2587 -0.1364  0.8856
 8110SOL    MW432208   4.532   4.924   0.226  0.4553  0.2832  0.1714
 8111SOL     OW32209   5.654   0.235   5.212  0.5094  0.1464  0.0134
 8111SOL    HW232210   5.663   0.196   5.125  1.4483  1.6115 -0.5932
 8111SOL    HW332211   5.744   0.241   5.244  0.2797  0.7264  0.5706
 8111SOL    MW432212   5.667   0.231   5.205  0.6030  0.4163  0.0069
 8112SOL     OW32213   0.185   1.578   2.192  0.2279  0.0478  0.1556
 8112SOL    HW232214   0.116   1.538   2.140  1.2805 -2.2170  0.3603
 8112SOL    HW332215   0.249   1.608   2.128  0.5231 -0.7863  0.0473
 8112SOL    MW432216   0.185   1.577   2.177  0.4057 -0.3610  0.1683
 8113SOL     OW32217   5.674   4.472   2.038  0.5655  0.4698 -0.2977
 8113SOL    HW232218   5.657   4.448   1.947 -0.2411  0.7466 -0.2279
 8113SOL    HW332219   5.741   4.410   2.067 -0.9245 -1.2521 -0.3455
 8113SOL    MW432220   5.680   4.460   2.030  0.2625  0.2791 -0.2948
 8114SOL     OW32221   1.158   2.742   2.959 -0.2100 -0.3653  0.1429
 8114SOL    HW232222   1.145   2.654   2.924  2.0621 -0.5497 -0.4264
 8114SOL    HW332223   1.195   2.792   2.886  1.2739  0.2142  1.2364
 8114SOL    MW432224   1.161   2.737   2.945  0.2855 -0.3131  0.2121
 8115SOL     OW32225   2.805   3.681   3.582 -0.4729  0.1418  0.3210
 8115SOL    HW232226   2.802   3.605   3.523 -1.7119 -0.4598  1.1055
 8115SOL    HW332227   2.725   3.729   3.562 -0.4471  0.4172  0.8692
 8115SOL    MW432228   2.794   3.677   3.572 -0.6330  0.0987  0.4968
 8116SOL     OW32229   5.664   5.740   4.116 -0.2055  0.0742 -0.7298
 8116SOL    HW232230   5.631   5.822   4.079  0.8265 -0.1089 -2.0974
 8116SOL    HW332231   5.635   5.672   4.055  0.4726 -0.3729 -0.5672
 8116SOL    MW432232   5.656   5.742   4.103  0.0201 -0.0089 -0.8888
 8117SOL     OW32233   1.021   2.039   3.860  0.7283  0.4457 -0.6506
 8117SOL    HW232234   0.972   1.958   3.851  2.1222 -0.6639  1.1763
 8117SOL    HW332235   1.101   2.025   3.811  1.2134  0.4917  0.1095
 8117SOL    MW432236   1.025   2.027   3.853  0.9762  0.3054 -0.3093
 8118SOL     OW32237   0.849   6.176   2.304 -0.0307  0.6382 -0.3384
 8118SOL    HW232238   0.936   6.155   2.338 -0.9908  0.6447  2.3196
 8118SOL    HW332239   0.862   6.254   2.251  1.6036  0.5088 -0.1748
 8118SOL    MW432240   0.862   6.183   2.301  0.0583  0.6220  0.0339
 8119SOL     OW32241   1.148   5.627   2.243  0.5865 -0.1334  0.8653
 8119SOL    HW232242   1.218   5.593   2.188 -0.9366  0.0715 -1.3354
 8119SOL    HW332243   1.148   5.570   2.320  0.7478 -2.5751 -0.8405
 8119SOL    MW432244   1.157   5.615   2.246  0.4068 -0.4285  0.3499
 8120SOL     OW32245   6.051   6.039   0.467  0.0737 -0.1875  0.2986
 8120SOL    HW232246   6.073   5.982   0.541 -1.4259  0.6975  1.4893
 8120SOL    HW332247   6.011   5.981   0.403 -0.8295 -0.6028  1.2193
 8120SOL    MW432248   6.049   6.024   0.469 -0.2433 -0.1255  0.5772
 8121SOL     OW32249   2.655   5.358   1.617  0.1458 -0.1923 -0.5399
 8121SOL    HW232250   2.649   5.315   1.702  0.5000 -0.0130 -0.4233
 8121SOL    HW332251   2.663   5.286   1.554  0.4912 -0.3084 -0.3663
 8121SOL    MW432252   2.655   5.343   1.620  0.2381 -0.1839 -0.5016
 8122SOL     OW32253   2.475   3.699   1.024  0.9121  0.7174  0.8182
 8122SOL    HW232254   2.417   3.671   0.954  1.5569 -0.5109  0.7376
 8122SOL    HW332255   2.453   3.791   1.039  2.0107  1.5953 -2.2550
 8122SOL    MW432256   2.464   3.708   1.017  1.1421  0.6711  0.4021
 8123SOL     OW32257   2.612   4.534   3.119 -0.6103  0.6333  0.6243
 8123SOL    HW232258   2.691   4.582   3.094 -0.0134  0.2028  1.6354
 8123SOL    HW332259   2.597   4.474   3.046 -1.5177  2.4724 -0.7828
 8123SOL    MW432260   2.620   4.533   3.106 -0.6512  0.8191  0.5721
 8124SOL     OW32261   4.243   4.005   5.442 -0.1126 -0.0587 -0.5973
 8124SOL    HW232262   4.282   4.086   5.472 -1.3968 -0.1849  1.6703
 8124SOL    HW332263   4.305   3.937   5.468  0.8102  0.1028 -2.2140
 8124SOL    MW432264   4.256   4.006   5.449 -0.1603 -0.0540 -0.5114
 8125SOL     OW32265   5.774   0.881   3.904 -0.3172 -0.7810  0.2155
 8125SOL    HW232266   5.818   0.962   3.879  0.1999 -0.4706  2.0127
 8125SOL    HW332267   5.714   0.907   3.973 -0.2254 -1.9159  0.7329
 8125SOL    MW432268   5.772   0.895   3.910 -0.2369 -0.8898  0.5209
 8126SOL     OW32269   4.275   2.454   6.071  0.0079  0.4287  0.2678
 8126SOL    HW232270   4.229   2.487   6.148 -0.5614 -1.0322  0.5929
 8126SOL    HW332271   4.228   2.374   6.047  1.4119 -0.2424 -0.3688
 8126SOL    MW432272   4.263   2.448   6.078  0.1180  0.1474  0.2267
 8127SOL     OW32273   5.878   3.596   0.966  0.2597 -0.0427 -0.1549
 8127SOL    HW232274   5.961   3.630   0.932  0.8687 -0.3235  1.0119
 8127SOL    HW332275   5.862   3.648   1.045  0.3212 -1.2877  0.6944
 8127SOL    MW432276   5.887   3.608   0.972  0.3482 -0.2440  0.1111
 8128SOL     OW32277   3.892   3.726   2.495 -0.4666  0.0958  0.0682
 8128SOL    HW232278   3.858   3.810   2.463 -0.9545  0.4237  1.3796
 8128SOL    HW332279   3.977   3.717   2.451 -0.3553  1.3379 -0.0236
 8128SOL    MW432280   3.899   3.736   2.485 -0.5163  0.3030  0.2291
 8129SOL     OW32281   5.443   5.820   6.259 -0.6032  0.3728  0.1703
 8129SOL    HW232282   5.375   5.835   6.194 -0.1605 -0.3808 -0.4760
 8129SOL    HW332283   5.415   5.741   6.305 -0.6759  0.6372  0.5894
 8129SOL    MW432284   5.431   5.812   6.257 -0.5544  0.3082  0.1403
 8130SOL     OW32285   4.322   6.037   0.975  0.2723 -0.3154 -0.2824
 8130SOL    HW232286   4.320   5.956   0.924  1.1297 -0.1464 -0.6071
 8130SOL    HW332287   4.319   6.008   1.066  1.3467 -0.7690 -0.3774
 8130SOL    MW432288   4.322   6.022   0.980  0.5272 -0.3529 -0.3378
 8131SOL     OW32289   1.900   1.017   1.204  0.6757  0.4293  0.0861
 8131SOL    HW232290   1.914   0.943   1.263  0.2802 -0.2790 -0.6981
 8131SOL    HW332291   1.925   0.985   1.118  1.2013  1.4438 -0.1524
 8131SOL    MW432292   1.905   1.003   1.200  0.6928  0.4697 -0.0488
 8132SOL     OW32293   4.008   6.272   0.621 -0.3694 -0.1402  0.4081
 8132SOL    HW232294   3.977   6.347   0.570  0.3141  0.2998  0.6347
 8132SOL    HW332295   4.088   6.245   0.577 -0.3272 -0.4062  0.6504
 8132SOL    MW432296   4.014   6.278   0.608 -0.2737 -0.1172  0.4700
 8133SOL     OW32297   0.321   5.748   0.174 -0.1154 -0.1178 -0.1622
 8133SOL    HW232298   0.249   5.810   0.164 -1.0474 -0.6577  2.4545
 8133SOL    HW332299   0.334   5.713   0.086 -1.1276  2.0311 -1.2543
 8133SOL    MW432300   0.313   5.752   0.161 -0.3719  0.0945  0.0390
 8134SOL     OW32301   4.142   0.677   0.654 -0.8708  0.0142 -0.2733
 8134SOL    HW232302   4.177   0.597   0.616 -0.1830 -0.5888  1.5044
 8134SOL    HW332303   4.218   0.720   0.694 -1.7171 -0.1593  1.6485
 8134SOL    MW432304   4.156   0.672   0.654 -0.8917 -0.0883  0.2148
 8135SOL     OW32305   0.001   5.582   1.099 -0.1733 -0.0539  0.6975
 8135SOL    HW232306  -0.046   5.665   1.095  0.8934  0.6091  1.4444
 8135SOL    HW332307   0.003   5.560   1.192  1.1042  0.0216  0.7060
 8135SOL    MW432308  -0.005   5.590   1.111  0.1360  0.0435  0.7971
 8136SOL     OW32309   4.242   5.609   3.559  0.2471 -0.5307  0.1605
 8136SOL    HW232310   4.236   5.619   3.464  0.6829 -1.4686  0.0230
 8136SOL    HW332311   4.283   5.523   3.571  0.1285 -0.4482  1.1967
 8136SOL    MW432312   4.246   5.599   3.548  0.2889 -0.6435  0.2791
 8137SOL     OW32313   2.270   2.202   6.240 -0.3109 -0.1893  0.2970
 8137SOL    HW232314   2.333   2.133   6.223  0.5217  0.3968  0.9236
 8137SOL    HW332315   2.317   2.264   6.296 -1.5531  0.0698  1.0944
 8137SOL    MW432316   2.284   2.201   6.245 -0.3649 -0.0778  0.4849
 8138SOL     OW32317   4.315   2.790   6.329 -0.2462  0.5642 -0.1348
 8138SOL    HW232318   4.385   2.843   6.291  0.3586 -0.0898  0.0413
 8138SOL    HW332319   4.333   2.790   6.423 -0.9452  1.0392  0.0124
 8138SOL    MW432320   4.326   2.797   6.337 -0.2586  0.5406 -0.0922
 8139SOL     OW32321   4.018   1.826   0.549  0.0920  0.0715 -0.0770
 8139SOL    HW232322   4.041   1.734   0.540 -0.3775  0.0830 -1.7403
 8139SOL    HW332323   3.961   1.829   0.626  2.8950 -0.4194  2.1846
 8139SOL    MW432324   4.013   1.814   0.558  0.3999  0.0083  0.0019
 8140SOL     OW32325   2.169   2.066   0.679 -0.3553 -0.3425  0.4404
 8140SOL    HW232326   2.148   1.973   0.677  1.0495 -0.6817 -2.2106
 8140SOL    HW332327   2.111   2.105   0.614  0.4670  0.2942  0.0772
 8140SOL    MW432328   2.159   2.059   0.670 -0.0614 -0.3032  0.0427
 8141SOL     OW32329   4.889   0.100   1.925  0.6288 -0.4478  0.2037
 8141SOL    HW232330   4.939   0.019   1.916 -2.7664 -2.6071 -1.3115
 8141SOL    HW332331   4.950   0.169   1.899  2.7609 -2.8738 -1.7550
 8141SOL    MW432332   4.903   0.099   1.920  0.4621 -1.0527 -0.2547
 8142SOL     OW32333   5.877   2.267   1.846 -0.7678  0.2917 -0.0400
 8142SOL    HW232334   5.907   2.351   1.811 -1.5562  0.0971 -1.2620
 8142SOL    HW332335   5.838   2.222   1.770 -0.1694 -1.2722  0.5290
 8142SOL    MW432336   5.876   2.272   1.831 -0.7929  0.0597 -0.1261
 8143SOL     OW32337   6.154   0.348   0.965  0.1687  0.0734 -0.4577
 8143SOL    HW232338   6.142   0.408   0.892  1.1389  1.3382  0.3792
 8143SOL    HW332339   6.084   0.373   1.027  0.3583  0.1136 -0.2592
 8143SOL    MW432340   6.143   0.359   0.964  0.3217  0.2456 -0.3211
 8144SOL     OW32341   1.473   3.165   6.201  0.0295 -0.4302  0.1312
 8144SOL    HW232342   1.440   3.226   6.266  0.9661  0.3222 -0.0712
 8144SOL    HW332343   1.521   3.099   6.252  0.6117  0.0604  0.2318
 8144SOL    MW432344   1.475   3.164   6.216  0.2299 -0.2662  0.1178
 8145SOL     OW32345   4.858   1.396   5.504  0.1585  0.4162 -0.2187
 8145SOL    HW232346   4.813   1.464   5.454 -0.8009  0.1009  0.1880
 8145SOL    HW332347   4.878   1.328   5.439 -1.3348 -0.1182 -0.1686
 8145SOL    MW432348   4.855   1.396   5.488 -0.1651  0.3041 -0.1584
 8146SOL     OW32349   5.556   6.356   5.481  0.0518 -0.2327  0.3015
 8146SOL    HW232350   5.510   6.356   5.397  0.6702 -0.5224 -0.0396
 8146SOL    HW332351   5.588   6.267   5.492  1.7633  0.3050 -0.1551
 8146SOL    MW432352   5.554   6.345   5.471  0.3592 -0.2000  0.1963
 8147SOL     OW32353   5.632   3.806   0.119 -0.3449 -0.2708 -0.1508
 8147SOL    HW232354   5.603   3.897   0.113 -0.6651 -0.4277 -1.2977
 8147SOL    HW332355   5.707   3.808   0.178 -1.5373  0.4221  1.4179
 8147SOL    MW432356   5.638   3.818   0.126 -0.5444 -0.2001 -0.0952
 8148SOL     OW32357   3.577   0.736   0.496  0.9682 -0.3349 -0.4965
 8148SOL    HW232358   3.491   0.774   0.514  1.4944 -0.0298  1.7479
 8148SOL    HW332359   3.610   0.785   0.421  0.1829  1.2544  0.1576
 8148SOL    MW432360   3.570   0.747   0.489  0.9340 -0.0849 -0.1141
 8149SOL     OW32361   0.665   2.282   5.360  0.1825 -0.3206  1.1866
 8149SOL    HW232362   0.634   2.207   5.309  0.9061  0.1243  0.0461
 8149SOL    HW332363   0.626   2.270   5.447 -2.8571  0.0570 -0.0412
 8149SOL    MW432364   0.656   2.270   5.365 -0.1230 -0.2121  0.8741
 8150SOL     OW32365   2.240   3.209   3.725  0.2521 -0.1630 -0.2316
 8150SOL    HW232366   2.322   3.165   3.748 -0.2257 -1.7984 -1.4579
 8150SOL    HW332367   2.226   3.188   3.633 -2.1322 -0.9619  0.2280
 8150SOL    MW432368   2.249   3.201   3.716 -0.1255 -0.4842 -0.3328
 8151SOL     OW32369   2.622   0.728   6.422 -0.3808  0.0163  0.3597
 8151SOL    HW232370   2.647   0.753   6.510  2.3589  2.3176 -0.9356
 8151SOL    HW332371   2.654   0.638   6.412  1.0747  0.4271  1.1136
 8151SOL    MW432372   2.629   0.719   6.432  0.1727  0.3741  0.2883
 8152SOL     OW32373   4.938   4.569   4.703  0.4694 -0.3728 -0.4772
 8152SOL    HW232374   4.851   4.597   4.729  0.5440  0.6854 -1.2763
 8152SOL    HW332375   4.995   4.595   4.775  0.4223  0.9398 -0.8744
 8152SOL    MW432376   4.934   4.576   4.716  0.4731 -0.0600 -0.6350
 8153SOL     OW32377   5.075   6.441   1.350 -0.5201 -0.4857  0.9093
 8153SOL    HW232378   5.145   6.494   1.389  0.6836 -0.5974 -0.9922
 8153SOL    HW332379   5.060   6.371   1.413  0.4834  0.0180  1.7365
 8153SOL    MW432380   5.082   6.439   1.364 -0.2289 -0.4340  0.7675
 8154SOL     OW32381   3.857   1.412   0.867 -0.2783  0.3655  0.1515
 8154SOL    HW232382   3.900   1.382   0.787 -0.7575  0.0806 -0.0001
 8154SOL    HW332383   3.926   1.411   0.934 -0.7393 -3.3858  0.7930
 8154SOL    MW432384   3.872   1.408   0.865 -0.4024 -0.1670  0.2161
 8155SOL     OW32385   2.286   0.057   4.628 -0.2750 -0.4337 -0.1870
 8155SOL    HW232386   2.377   0.078   4.649  0.5150 -1.8309 -1.9377
 8155SOL    HW332387   2.264  -0.016   4.686  0.0024 -0.6178 -0.3105
 8155SOL    MW432388   2.295   0.050   4.639 -0.1342 -0.6423 -0.4343
 8156SOL     OW32389   1.540   2.068   6.035  0.2066 -0.8221  0.1923
 8156SOL    HW232390   1.574   2.122   5.963  0.5804  0.7453  1.4707
 8156SOL    HW332391   1.476   2.125   6.078 -2.5209 -2.9061 -0.8139
 8156SOL    MW432392   1.536   2.083   6.031 -0.1039 -0.8902  0.2282
 8157SOL     OW32393   4.612   6.321   5.055  0.2332  0.5742  0.8604
 8157SOL    HW232394   4.523   6.338   5.024  0.7792  0.9142 -0.6269
 8157SOL    HW332395   4.656   6.406   5.049  1.1752  0.0348 -0.2908
 8157SOL    MW432396   4.606   6.335   5.050  0.4295  0.5479  0.5122
 8158SOL     OW32397   4.642   0.475   1.062  0.1378  0.1874 -0.0554
 8158SOL    HW232398   4.704   0.508   1.127  0.1537 -2.2072  1.2400
 8158SOL    HW332399   4.608   0.394   1.100 -0.4786 -0.8823 -2.6925
 8158SOL    MW432400   4.646   0.469   1.075  0.0586 -0.2697 -0.2324
 8159SOL     OW32401   0.547   6.324   6.347 -0.4245  0.0981 -0.8446
 8159SOL    HW232402   0.602   6.363   6.279  1.4921 -1.8224 -0.4980
 8159SOL    HW332403   0.570   6.372   6.426 -1.7676  1.5131 -1.2480
 8159SOL    MW432404   0.558   6.336   6.348 -0.3488  0.0314 -0.8521
 8160SOL     OW32405   5.690   0.652   5.894  0.0105 -0.0412 -0.1153
 8160SOL    HW232406   5.625   0.585   5.914  1.2519 -1.0762  0.6270
 8160SOL    HW332407   5.650   0.705   5.825 -1.0712 -1.4390 -0.6124
 8160SOL    MW432408   5.676   0.651   5.888  0.0315 -0.3622 -0.0830
 8161SOL     OW32409   6.256   6.083   1.423 -0.1121 -0.0443 -0.1089
 8161SOL    HW232410   6.304   6.010   1.462  0.5474 -0.5778 -1.8302
 8161SOL    HW332411   6.321   6.153   1.415  0.1358 -0.4096 -1.4742
 8161SOL    MW432412   6.271   6.083   1.427  0.0076 -0.1629 -0.5161
 8162SOL     OW32413   1.696   5.939   2.773  0.3837  0.7562  0.3665
 8162SOL    HW232414   1.734   5.968   2.690  0.7216 -1.5154 -0.3525
 8162SOL    HW332415   1.768   5.893   2.817 -0.3789  0.0803  0.9239
 8162SOL    MW432416   1.711   5.937   2.768  0.3277  0.3673  0.3452
 8163SOL     OW32417   5.448   2.816   3.733  0.0125  0.3532 -0.3054
 8163SOL    HW232418   5.460   2.742   3.674  0.7588  0.2852 -0.0836
 8163SOL    HW332419   5.447   2.776   3.820 -0.6880  0.4922 -0.2458
 8163SOL    MW432420   5.449   2.801   3.737  0.0186  0.3625 -0.2683
 8164SOL     OW32421   0.026   4.587   3.254 -0.0679 -0.2916  0.4415
 8164SOL    HW232422   0.060   4.611   3.168 -1.8611 -0.8557 -0.4666
 8164SOL    HW332423   0.036   4.666   3.307  0.1164  0.3864 -0.5791
 8164SOL    MW432424   0.032   4.600   3.250 -0.2802 -0.2766  0.1870
 8165SOL     OW32425   1.199   0.185   3.858  0.0467 -0.9047  0.0777
 8165SOL    HW232426   1.148   0.148   3.929 -0.8041  0.7379  0.3736
 8165SOL    HW332427   1.140   0.185   3.782  0.5321 -1.4959 -0.3134
 8165SOL    MW432428   1.185   0.180   3.857 -0.0015 -0.7660  0.0652
 8166SOL     OW32429   5.396   4.852   5.254  0.5618 -0.1131 -0.8056
 8166SOL    HW232430   5.474   4.850   5.310 -1.6549 -1.9122  2.5274
 8166SOL    HW332431   5.422   4.802   5.176  2.3546 -1.9532  0.8487
 8166SOL    MW432432   5.410   4.845   5.251  0.5058 -0.5932 -0.1476
 8167SOL     OW32433   0.899   1.086   0.429 -1.2988 -0.1069  0.1434
 8167SOL    HW232434   0.870   1.056   0.515 -0.7742 -0.5610  0.1620
 8167SOL    HW332435   0.937   1.173   0.446  1.8845 -1.5253  0.9751
 8167SOL    MW432436   0.900   1.094   0.443 -0.8096 -0.3539  0.2556
 8168SOL     OW32437   4.179   2.823   1.950  0.2913  0.3077  0.5007
 8168SOL    HW232438   4.095   2.817   1.904  0.0814  1.8847  0.6161
 8168SOL    HW332439   4.230   2.748   1.918 -0.0581  1.0064 -1.8463
 8168SOL    MW432440   4.175   2.812   1.940  0.2175  0.6080  0.2063
 8169SOL     OW32441   4.895   2.205   5.387  0.9338  0.3402  0.3731
 8169SOL    HW232442   4.886   2.294   5.420 -0.0570  0.1049  0.7439
 8169SOL    HW332443   4.916   2.153   5.464  0.6600  0.1149  0.2928
 8169SOL    MW432444   4.897   2.210   5.401  0.7670  0.2794  0.4114
 8170SOL     OW32445   5.576   1.511   1.986  0.6173 -0.1423  0.2839
 8170SOL    HW232446   5.672   1.506   1.979  0.5648 -1.0806  0.0599
 8170SOL    HW332447   5.551   1.568   1.914  1.0002 -0.0233  0.2396
 8170SOL    MW432448   5.586   1.518   1.975  0.6609 -0.2504  0.2485
 8171SOL     OW32449   0.794   5.446   2.404 -0.3654  0.1832  0.2747
 8171SOL    HW232450   0.720   5.506   2.400 -0.1242  0.5647  1.1406
 8171SOL    HW332451   0.759   5.362   2.377 -0.4698  0.9151 -2.0542
 8171SOL    MW432452   0.780   5.443   2.400 -0.3474  0.3301  0.0817
 8172SOL     OW32453   5.994   2.600   4.534  0.5495 -0.1328 -0.3371
 8172SOL    HW232454   5.933   2.667   4.566  1.2067  0.3862 -0.1680
 8172SOL    HW332455   6.021   2.631   4.448  0.3469 -0.5206 -0.5461
 8172SOL    MW432456   5.989   2.613   4.527  0.6095 -0.1155 -0.3424
 8173SOL     OW32457   4.431   3.829   3.934  0.1158  0.1561 -0.1038
 8173SOL    HW232458   4.397   3.912   3.900 -0.4378  0.5006  1.2067
 8173SOL    HW332459   4.523   3.829   3.909  0.9828  2.6834  2.4378
 8173SOL    MW432460   4.438   3.840   3.926  0.1571  0.5350  0.4044
 8174SOL     OW32461   0.329   4.572   4.072 -0.3864 -0.1989 -0.6013
 8174SOL    HW232462   0.319   4.664   4.048 -0.3492  0.1572  0.6620
 8174SOL    HW332463   0.271   4.561   4.147  0.1108 -1.0461 -0.3289
 8174SOL    MW432464   0.320   4.583   4.079 -0.3159 -0.2637 -0.3987
 8175SOL     OW32465   0.517   6.446   1.716  0.3422 -0.2697  0.5652
 8175SOL    HW232466   0.422   6.451   1.717  0.2696 -1.3683  0.5786
 8175SOL    HW332467   0.545   6.515   1.656 -0.5376 -0.8338 -0.5097
 8175SOL    MW432468   0.508   6.456   1.708  0.2166 -0.4891  0.4252
 8176SOL     OW32469   5.835   4.683   4.571  0.1301 -0.4035  0.0804
 8176SOL    HW232470   5.835   4.742   4.646  0.6080 -0.6814  0.3072
 8176SOL    HW332471   5.915   4.630   4.582  0.5900  0.0353 -1.0034
 8176SOL    MW432472   5.846   4.684   4.583  0.2538 -0.3823 -0.0326
 8177SOL     OW32473   1.987   0.790   1.350  0.2582  0.1784 -0.2714
 8177SOL    HW232474   2.078   0.759   1.353 -0.0386 -0.6821  0.7181
 8177SOL    HW332475   1.974   0.833   1.435 -0.5863 -0.7665  0.1039
 8177SOL    MW432476   1.997   0.791   1.362  0.1076 -0.0598 -0.0914
 8178SOL     OW32477   5.558   0.674   4.976 -0.8631 -0.4989 -0.0041
 8178SOL    HW232478   5.602   0.730   4.911  1.2914 -1.5059  0.4968
 8178SOL    HW332479   5.572   0.585   4.943 -1.0843 -0.9368  1.0671
 8178SOL    MW432480   5.566   0.670   4.963 -0.6080 -0.6895  0.2033
 8179SOL     OW32481   4.123   4.523   0.007 -0.2179 -0.5492  0.1563
 8179SOL    HW232482   4.157   4.607   0.040 -1.2300  0.8766 -2.1936
 8179SOL    HW332483   4.202   4.475  -0.020  0.3062  0.1377  0.4241
 8179SOL    MW432484   4.138   4.528   0.008 -0.2823 -0.2705 -0.1184
 8180SOL     OW32485   2.214   3.380   4.956 -0.1554  0.1907  0.2430
 8180SOL    HW232486   2.254   3.458   4.916 -0.7802 -0.3225 -1.5078
 8180SOL    HW332487   2.128   3.373   4.914 -0.2206 -1.2842  0.5641
 8180SOL    MW432488   2.208   3.389   4.945 -0.2464 -0.0716  0.0543
 8181SOL     OW32489   3.669   5.498   1.435  0.2666  0.7042  0.3331
 8181SOL    HW232490   3.670   5.486   1.530 -1.0951 -2.3516  0.0994
 8181SOL    HW332491   3.761   5.508   1.411  0.6372  1.5090  1.9321
 8181SOL    MW432492   3.681   5.498   1.445  0.1358  0.4072  0.5132
 8182SOL     OW32493   4.631   4.423   2.544  0.2649  0.0368  0.2532
 8182SOL    HW232494   4.626   4.420   2.449  1.4968 -0.7046  0.1930
 8182SOL    HW332495   4.588   4.343   2.574 -0.6265  0.5475  0.3502
 8182SOL    MW432496   4.625   4.412   2.535  0.3099  0.0063  0.2580
 8183SOL     OW32497   1.628   2.804   2.261  0.2729 -0.1064 -0.7206
 8183SOL    HW232498   1.628   2.709   2.251 -0.1011 -0.4052  1.5628
 8183SOL    HW332499   1.720   2.828   2.267  0.3678 -0.3384 -1.2723
 8183SOL    MW432500   1.640   2.795   2.261  0.2361 -0.1764 -0.4921
 8184SOL     OW32501   4.133   5.692   4.715 -0.3016  0.0063 -0.4798
 8184SOL    HW232502   4.114   5.598   4.716 -2.6599  0.3970  1.5607
 8184SOL    HW332503   4.205   5.703   4.777  0.1526 -0.4353 -0.9130
 8184SOL    MW432504   4.140   5.681   4.723 -0.5528 -0.0004 -0.2677
 8185SOL     OW32505   1.974   6.319   1.415  0.7139  0.0736  0.4418
 8185SOL    HW232506   2.044   6.276   1.367  0.3019 -0.1124  0.0017
 8185SOL    HW332507   1.900   6.259   1.411  0.3022  0.5789  0.2854
 8185SOL    MW432508   1.973   6.306   1.408  0.6052  0.1157  0.3631
 8186SOL     OW32509   6.245   5.710   2.461 -0.2134  0.3271 -0.3100
 8186SOL    HW232510   6.175   5.738   2.520  0.2648  1.0382 -0.0757
 8186SOL    HW332511   6.292   5.642   2.510 -0.2858  0.3744 -0.1749
 8186SOL    MW432512   6.242   5.705   2.475 -0.1598  0.4272 -0.2613
 8187SOL     OW32513   0.628   3.715   0.897  0.2097 -0.2273 -0.1856
 8187SOL    HW232514   0.610   3.785   0.960 -1.3390  0.1592 -0.9992
 8187SOL    HW332515   0.587   3.638   0.936 -0.4450 -0.0639 -0.5297
 8187SOL    MW432516   0.620   3.714   0.910 -0.0810 -0.1547 -0.3384
 8188SOL     OW32517   0.269   2.361   1.067 -0.2707  0.0617  0.7427
 8188SOL    HW232518   0.214   2.426   1.110  0.8356  1.8028 -0.3324
 8188SOL    HW332519   0.308   2.408   0.993  0.6688 -1.8130 -0.0278
 8188SOL    MW432520   0.267   2.376   1.063 -0.0008  0.0441  0.4992
 8189SOL     OW32521   1.125   5.433   0.579 -0.2806 -0.3168  0.3890
 8189SOL    HW232522   1.155   5.524   0.587  0.5760 -0.2517 -2.4067
 8189SOL    HW332523   1.030   5.440   0.571 -0.1627  0.4945 -0.7501
 8189SOL    MW432524   1.116   5.446   0.579 -0.1521 -0.2012 -0.1301
 8190SOL     OW32525   1.054   4.268   2.977 -0.6823  0.5845 -0.1353
 8190SOL    HW232526   0.959   4.274   2.988 -1.0049 -1.0370 -1.5837
 8190SOL    HW332527   1.075   4.336   2.912 -0.9352  0.5588 -0.2438
 8190SOL    MW432528   1.044   4.278   2.970 -0.7582  0.3672 -0.3407
 8191SOL     OW32529   0.668   2.067   5.781  0.0612 -0.3034 -0.6677
 8191SOL    HW232530   0.735   1.999   5.782  0.3787  0.0015 -0.1688
 8191SOL    HW332531   0.586   2.021   5.797  0.4434 -0.4244  1.2719
 8191SOL    MW432532   0.666   2.052   5.783  0.1535 -0.2791 -0.3460
 8192SOL     OW32533   5.474   1.471   1.485 -0.0324  0.9211  0.2969
 8192SOL    HW232534   5.439   1.403   1.428 -0.3854  0.7360  0.7323
 8192SOL    HW332535   5.539   1.517   1.431  1.4255 -0.8049  0.4905
 8192SOL    MW432536   5.478   1.468   1.471  0.1134  0.6689  0.3799
 8193SOL     OW32537   5.937   5.586   3.400 -0.3319  0.2317  0.2916
 8193SOL    HW232538   5.943   5.625   3.487  0.6093  0.1247  0.2786
 8193SOL    HW332539   5.892   5.503   3.415  0.4026 -0.0902  0.7830
 8193SOL    MW432540   5.931   5.580   3.414 -0.1108  0.1751  0.3547
 8194SOL     OW32541   3.000   0.775   1.004  0.6626 -0.0838 -0.3888
 8194SOL    HW232542   3.059   0.790   1.077 -1.0646 -0.1817  1.1002
 8194SOL    HW332543   3.033   0.696   0.962  0.5192 -1.2628  1.5887
 8194SOL    MW432544   3.012   0.767   1.008  0.4158 -0.2523  0.0686
 8195SOL     OW32545   5.857   2.331   6.197  0.0057  0.1184  0.3339
 8195SOL    HW232546   5.813   2.268   6.253 -1.9431  0.7311 -0.4436
 8195SOL    HW332547   5.942   2.291   6.178 -0.2192 -1.1369  1.7917
 8195SOL    MW432548   5.863   2.318   6.202 -0.2811  0.0336  0.4237
 8196SOL     OW32549   5.545   4.060   0.074  0.9883  0.1558  0.2912
 8196SOL    HW232550   5.536   4.138   0.130 -0.5694 -0.6783  1.2907
 8196SOL    HW332551   5.597   4.090   0.000 -1.2122  2.7489 -0.3734
 8196SOL    MW432552   5.550   4.074   0.072  0.4924  0.3879  0.3354
 8197SOL     OW32553   3.287   4.007   0.652 -0.4043  0.5050  0.3695
 8197SOL    HW232554   3.345   4.083   0.641  1.8626 -0.7941  2.3491
 8197SOL    HW332555   3.318   3.944   0.588 -0.4959  0.2688  0.5562
 8197SOL    MW432556   3.299   4.009   0.642 -0.1173  0.3024  0.6553
 8198SOL     OW32557   2.582   6.177   5.506  0.1186  0.2739 -0.2536
 8198SOL    HW232558   2.494   6.142   5.495  0.1266  0.1203  0.1574
 8198SOL    HW332559   2.623   6.119   5.570  0.8993 -0.3477 -1.2780
 8198SOL    MW432560   2.576   6.164   5.513  0.2227  0.1716 -0.3345
 8199SOL     OW32561   6.110   5.963   5.071 -0.7947 -0.4257 -0.4254
 8199SOL    HW232562   6.143   5.877   5.095  0.1906 -0.5635 -2.1179
 8199SOL    HW332563   6.018   5.949   5.050 -1.2917 -0.5666  1.6979
 8199SOL    MW432564   6.103   5.950   5.071 -0.7303 -0.4624 -0.3686
 8200SOL     OW32565   2.395   5.386   4.453  0.0192 -0.3547 -0.0920
 8200SOL    HW232566   2.401   5.291   4.465 -0.6107 -0.3991 -0.0775
 8200SOL    HW332567   2.309   5.409   4.488  0.2540  0.2560  0.0990
 8200SOL    MW432568   2.384   5.376   4.459 -0.0329 -0.2800 -0.0649
 8201SOL     OW32569   3.531   3.234   6.245 -0.4217 -0.3559  0.4008
 8201SOL    HW232570   3.473   3.205   6.316  1.5258  1.8243  3.1455
 8201SOL    HW332571   3.480   3.299   6.197 -1.1376 -0.3178  1.1821
 8201SOL    MW432572   3.517   3.239   6.248 -0.2592 -0.0632  0.8660
 8202SOL     OW32573   6.277   6.220   0.392  0.0867  0.2744  0.4603
 8202SOL    HW232574   6.211   6.151   0.394 -0.5176  0.8273  2.8322
 8202SOL    HW332575   6.253   6.278   0.464  0.8602  2.7148 -1.1262
 8202SOL    MW432576   6.265   6.218   0.402  0.1090  0.6693  0.5639
 8203SOL     OW32577   6.365   1.933   1.634 -0.3528  0.6924 -0.0277
 8203SOL    HW232578   6.391   1.869   1.567 -0.5095 -0.4671  0.9804
 8203SOL    HW332579   6.436   1.931   1.698 -0.9103  0.6739  0.5964
 8203SOL    MW432580   6.378   1.924   1.633 -0.4471  0.5370  0.1877
 8204SOL     OW32581   6.132   0.270   3.849 -0.1418  0.3188 -0.3494
 8204SOL    HW232582   6.059   0.324   3.818 -0.5096 -0.3094 -0.6049
 8204SOL    HW332583   6.144   0.295   3.940  0.6219  1.8396 -0.8344
 8204SOL    MW432584   6.124   0.280   3.857 -0.0895  0.4366 -0.4471
 8205SOL     OW32585   2.818   3.153   4.021  0.3554  0.2917  0.0357
 8205SOL    HW232586   2.912   3.137   4.010  0.2982  0.7469 -1.2282
 8205SOL    HW332587   2.777   3.112   3.946 -0.0810  3.3789 -1.5698
 8205SOL    MW432588   2.825   3.145   4.010  0.2903  0.7591 -0.3429
 8206SOL     OW32589   4.571   1.036   5.146  0.2649 -0.4994 -0.3064
 8206SOL    HW232590   4.532   0.988   5.072 -1.5034 -0.5590  0.6005
 8206SOL    HW332591   4.552   1.128   5.126  0.4089 -0.4625 -0.2683
 8206SOL    MW432592   4.563   1.042   5.133  0.0506 -0.5024 -0.1817
 8207SOL     OW32593   0.913   3.447   4.705  0.5703  0.1189  0.1793
 8207SOL    HW232594   0.895   3.397   4.625  0.9780  1.3906 -0.7566
 8207SOL    HW332595   0.998   3.416   4.734  2.9104  2.9867 -2.7809
 8207SOL    MW432596   0.922   3.437   4.698  0.9329  0.6651 -0.3348
 8208SOL     OW32597   0.912   6.262   4.990  0.4302 -0.0753 -0.3732
 8208SOL    HW232598   0.906   6.287   5.082 -0.5644 -1.2328 -0.0805
 8208SOL    HW332599   0.975   6.190   4.989  0.6441  0.1161 -0.6381
 8208SOL    MW432600   0.919   6.255   5.002  0.3272 -0.2028 -0.3695
 8209SOL     OW32601   4.754   0.508   2.674  0.3066 -0.0196  0.0052
 8209SOL    HW232602   4.683   0.571   2.662  0.7255  0.8206  1.6610
 8209SOL    HW332603   4.800   0.508   2.590 -1.0520  0.1480 -0.7695
 8209SOL    MW432604   4.751   0.517   2.662  0.1826  0.1134  0.1215
 8210SOL     OW32605   3.071   3.873   2.831  0.0838  0.1915 -0.6293
 8210SOL    HW232606   3.104   3.879   2.921 -0.9195 -0.5395 -0.1998
 8210SOL    HW332607   2.976   3.870   2.840  0.0035 -1.0559 -1.6424
 8210SOL    MW432608   3.063   3.874   2.844 -0.0591 -0.0695 -0.7063
 8211SOL     OW32609   3.903   1.736   1.470 -0.7615  0.1398  0.1281
 8211SOL    HW232610   3.912   1.702   1.381 -2.9273  0.4026 -0.2419
 8211SOL    HW332611   3.923   1.661   1.526  1.3935  0.1692 -0.5184
 8211SOL    MW432612   3.907   1.721   1.466 -0.7629  0.1783 -0.0060
 8212SOL     OW32613   0.733   2.765   2.842 -0.5170 -0.4766  0.3022
 8212SOL    HW232614   0.733   2.699   2.911 -1.3703  0.1210  0.8937
 8212SOL    HW332615   0.790   2.835   2.875  0.0234 -0.7038 -0.1260
 8212SOL    MW432616   0.740   2.766   2.855 -0.5583 -0.4277  0.3237
 8213SOL     OW32617   4.216   0.163   0.583 -0.1344  0.1297 -0.3941
 8213SOL    HW232618   4.287   0.217   0.617  0.7129 -0.1419 -1.6285
 8213SOL    HW332619   4.183   0.115   0.659  0.8014  0.5017  0.2669
 8213SOL    MW432620   4.221   0.164   0.597  0.1009  0.1429 -0.4697
 8214SOL     OW32621   6.076   6.312   1.520  0.1067  0.2645 -0.1147
 8214SOL    HW232622   6.113   6.253   1.455 -1.4410 -1.2960  0.3430
 8214SOL    HW332623   6.069   6.396   1.475 -2.2571 -1.0909 -2.5364
 8214SOL    MW432624   6.080   6.316   1.505 -0.4094 -0.1202 -0.3738
 8215SOL     OW32625   2.384   5.622   0.445  0.2162  0.0631 -0.1584
 8215SOL    HW232626   2.310   5.561   0.432  1.0024 -1.2030  1.0916
 8215SOL    HW332627   2.379   5.647   0.537  2.3829 -1.5202  0.4740
 8215SOL    MW432628   2.373   5.617   0.455  0.6058 -0.3129  0.0900
 8216SOL     OW32629   2.465   1.098   5.161 -0.3627 -0.3839  0.1645
 8216SOL    HW232630   2.496   1.128   5.246 -0.2939  0.3814 -0.1203
 8216SOL    HW332631   2.525   1.139   5.098  0.9365 -2.6223 -0.1739
 8216SOL    MW432632   2.477   1.107   5.164 -0.1822 -0.5782  0.0823
 8217SOL     OW32633   0.387   2.956   2.821 -0.1396  0.4302  0.0790
 8217SOL    HW232634   0.343   3.038   2.801  0.3843  0.6538 -0.1733
 8217SOL    HW332635   0.321   2.904   2.868 -1.0049  0.3372 -1.2117
 8217SOL    MW432636   0.373   2.960   2.825 -0.1847  0.4474 -0.1246
 8218SOL     OW32637   3.613   4.001   2.903  0.0552  0.0149  0.3821
 8218SOL    HW232638   3.613   4.016   2.809 -4.0002  2.0247  0.5133
 8218SOL    HW332639   3.569   4.077   2.940 -1.4478 -2.1556  3.5561
 8218SOL    MW432640   3.607   4.013   2.896 -0.6782 -0.0063  0.8182
 8219SOL     OW32641   3.416   6.439   3.185 -0.4575  0.6103  0.0424
 8219SOL    HW232642   3.484   6.420   3.121 -1.6189 -1.3163 -0.6972
 8219SOL    HW332643   3.425   6.533   3.202  2.7468  0.3637  0.4474
 8219SOL    MW432644   3.426   6.449   3.179 -0.1880  0.3236 -0.0018
 8220SOL     OW32645   1.579   4.106   2.425  0.1316  0.2011 -0.1144
 8220SOL    HW232646   1.658   4.056   2.445 -0.2535 -0.0095  0.9833
 8220SOL    HW332647   1.543   4.128   2.511 -0.6542  0.8529 -0.5963
 8220SOL    MW432648   1.585   4.103   2.439 -0.0229  0.2593 -0.0332
 8221SOL     OW32649   0.698   3.753   1.934  0.5037  0.0262 -0.2633
 8221SOL    HW232650   0.662   3.689   1.996 -1.0685  2.3181  1.3588
 8221SOL    HW332651   0.621   3.788   1.889  1.2791  0.9792 -0.8791
 8221SOL    MW432652   0.683   3.749   1.937  0.3986  0.4543 -0.1305
 8222SOL     OW32653   1.259   4.417   0.859  0.3583 -0.3435 -0.2427
 8222SOL    HW232654   1.289   4.500   0.897 -0.5112  1.0290 -2.4093
 8222SOL    HW332655   1.309   4.407   0.778  1.3596 -2.6377  0.5527
 8222SOL    MW432656   1.269   4.426   0.854  0.3757 -0.4651 -0.4236
 8223SOL     OW32657   2.873   5.104   4.969 -0.2613 -0.4283 -0.4119
 8223SOL    HW232658   2.871   5.157   5.049 -1.1358 -0.6582 -0.2755
 8223SOL    HW332659   2.838   5.161   4.901  0.6284 -0.1800 -0.6762
 8223SOL    MW432660   2.868   5.119   4.971 -0.2593 -0.4259 -0.4288
 8224SOL     OW32661   2.824   3.328   6.409 -0.1430 -0.2032 -0.1233
 8224SOL    HW232662   2.891   3.363   6.349  0.3857 -1.1188 -0.0822
 8224SOL    HW332663   2.813   3.237   6.383 -1.5456 -0.0070 -0.2534
 8224SOL    MW432664   2.832   3.321   6.398 -0.2583 -0.2981 -0.1350
 8225SOL     OW32665   4.856   4.604   1.057  0.1530 -0.1634 -0.1352
 8225SOL    HW232666   4.947   4.632   1.063  0.2939 -0.6830  0.2186
 8225SOL    HW332667   4.808   4.668   1.110  0.5114 -0.7333  0.9149
 8225SOL    MW432668   4.861   4.617   1.065  0.2189 -0.3072  0.0500
 8226SOL     OW32669   2.136   0.117   5.775  0.4128  0.1500 -0.1189
 8226SOL    HW232670   2.130   0.024   5.798  0.5896 -0.3177 -1.8008
 8226SOL    HW332671   2.132   0.118   5.679  0.0992  1.9130 -0.1209
 8226SOL    MW432672   2.135   0.104   5.765  0.3947  0.3209 -0.3410
 8227SOL     OW32673   5.859   2.465   4.899  0.5567  0.3187  0.1980
 8227SOL    HW232674   5.852   2.558   4.916 -1.5034  0.1547  0.4934
 8227SOL    HW332675   5.875   2.425   4.984 -0.2994  0.2764  0.3466
 8227SOL    MW432676   5.861   2.472   4.912  0.1719  0.2915  0.2566
 8228SOL     OW32677   0.799   3.390   0.602  0.4588  0.2001 -0.2251
 8228SOL    HW232678   0.778   3.325   0.535 -0.0642 -0.6801  0.7602
 8228SOL    HW332679   0.728   3.454   0.595  0.8383  0.5494 -1.0295
 8228SOL    MW432680   0.787   3.390   0.592  0.4399  0.1300 -0.2012
 8229SOL     OW32681   0.251   2.046   1.453  0.1858 -0.8735 -0.0073
 8229SOL    HW232682   0.164   2.007   1.449  0.3108 -1.3394  1.3577
 8229SOL    HW332683   0.292   2.005   1.529  0.7721  1.0330  0.7428
 8229SOL    MW432684   0.245   2.035   1.462  0.2797 -0.6835  0.2717
 8230SOL     OW32685   1.505   3.558   4.592 -0.1825  0.2012  0.2307
 8230SOL    HW232686   1.506   3.464   4.605  0.2738 -0.1716 -2.0685
 8230SOL    HW332687   1.574   3.591   4.650 -0.8823 -0.7503  1.6549
 8230SOL    MW432688   1.515   3.550   4.601 -0.2146  0.0265  0.1152
 8231SOL     OW32689   5.333   0.542   5.280 -0.1128 -0.0686  0.2519
 8231SOL    HW232690   5.349   0.514   5.190  2.5715  1.7173  0.0422
 8231SOL    HW332691   5.307   0.463   5.326  1.5041 -1.7065 -1.4818
 8231SOL    MW432692   5.332   0.528   5.274  0.4547 -0.0491 -0.0045
 8232SOL     OW32693   5.217   0.763   5.528  0.5844 -0.0505 -0.7294
 8232SOL    HW232694   5.122   0.770   5.523  0.2609  0.6798  3.1605
 8232SOL    HW332695   5.233   0.674   5.560  0.9461  0.6869  1.2660
 8232SOL    MW432696   5.207   0.752   5.532  0.5894  0.1432  0.0471
 8233SOL     OW32697   2.811   0.180   4.029  0.6202 -0.3611  0.7849
 8233SOL    HW232698   2.762   0.114   3.981  1.1782  0.4425 -0.9735
 8233SOL    HW332699   2.804   0.259   3.975  0.4118  0.8873  2.5536
 8233SOL    MW432700   2.804   0.182   4.015  0.6663 -0.0903  0.7863
 8234SOL     OW32701   1.353   1.616   5.135 -0.6151  0.4486  0.1870
 8234SOL    HW232702   1.283   1.562   5.097  0.8101 -2.2480  1.1037
 8234SOL    HW332703   1.401   1.648   5.059  0.1251 -1.9751 -0.4752
 8234SOL    MW432704   1.350   1.613   5.120 -0.3294 -0.2270  0.2206
 8235SOL     OW32705   3.632   5.629   3.343  0.8268 -0.1543  0.1737
 8235SOL    HW232706   3.606   5.543   3.310  1.7620 -0.7538  0.9289
 8235SOL    HW332707   3.728   5.630   3.335  0.7980  1.0246 -0.2834
 8235SOL    MW432708   3.641   5.618   3.338  0.9464 -0.0779  0.2130
 8236SOL     OW32709   2.185   1.353   5.975 -0.2056 -0.0680  0.0087
 8236SOL    HW232710   2.279   1.372   5.981 -0.4909  1.1567  0.7881
 8236SOL    HW332711   2.145   1.409   6.041 -1.3590 -1.6205  0.6784
 8236SOL    MW432712   2.192   1.363   5.984 -0.3954 -0.1113  0.1999
 8237SOL     OW32713   0.102   4.775   3.033  0.0471  0.4173 -0.4863
 8237SOL    HW232714   0.008   4.784   3.046  0.1176 -0.2320  0.6567
 8237SOL    HW332715   0.140   4.853   3.075  0.1669 -0.8178  1.8625
 8237SOL    MW432716   0.095   4.787   3.040  0.0722  0.1686 -0.0256
 8238SOL     OW32717   2.144   5.855   0.871  0.0435 -0.2082  0.1156
 8238SOL    HW232718   2.057   5.895   0.877  0.0925  0.0857 -1.0275
 8238SOL    HW332719   2.187   5.901   0.800  0.6631 -1.2596 -0.2068
 8238SOL    MW432720   2.138   5.866   0.863  0.1317 -0.3081 -0.0778
 8239SOL     OW32721   2.023   6.457   2.476 -0.0071 -0.2517  0.5104
 8239SOL    HW232722   1.988   6.393   2.538  1.5856 -0.4078  1.2960
 8239SOL    HW332723   2.069   6.520   2.531  2.7909 -1.2329 -0.5374
 8239SOL    MW432724   2.025   6.457   2.492  0.5722 -0.4017  0.4758
 8240SOL     OW32725   3.387   4.430   4.661 -0.8841  0.7947 -0.2611
 8240SOL    HW232726   3.386   4.338   4.635 -1.3085  0.8587 -0.4829
 8240SOL    HW332727   3.456   4.469   4.609  1.8551 -0.1127  2.4065
 8240SOL    MW432728   3.396   4.423   4.651 -0.5787  0.6834  0.0616
 8241SOL     OW32729   1.798   0.048   5.687 -0.6864  0.2668 -0.1628
 8241SOL    HW232730   1.729  -0.014   5.663 -1.4318  0.8725  0.3525
 8241SOL    HW332731   1.862  -0.005   5.733  0.4064 -0.7723 -2.7093
 8241SOL    MW432732   1.797   0.033   5.690 -0.6406  0.2096 -0.4308
 8242SOL     OW32733   3.026   4.310   5.844 -0.0835  0.6475 -0.0788
 8242SOL    HW232734   2.944   4.346   5.880 -1.2226  0.1780 -2.0363
 8242SOL    HW332735   3.025   4.337   5.752  0.0681 -2.4824 -1.1090
 8242SOL    MW432736   3.015   4.318   5.837 -0.2138  0.1726 -0.4730
 8243SOL     OW32737   1.962   1.289   2.889 -0.1900 -0.0986  0.3914
 8243SOL    HW232738   1.921   1.372   2.864  0.6116 -0.1528 -1.2642
 8243SOL    HW332739   2.053   1.312   2.907 -0.3658 -0.3569  1.6961
 8243SOL    MW432740   1.969   1.303   2.888 -0.1074 -0.1398  0.3451
 8244SOL     OW32741   5.330   5.068   1.736  0.2939  0.2704  0.1946
 8244SOL    HW232742   5.407   5.124   1.727 -0.8970  1.9348  0.0061
 8244SOL    HW332743   5.285   5.074   1.652 -0.7336  0.3770  0.7392
 8244SOL    MW432744   5.334   5.076   1.724  0.0012  0.5041  0.2416
 8245SOL     OW32745   5.889   4.777   2.770 -0.5958 -0.2325 -0.2761
 8245SOL    HW232746   5.848   4.820   2.695  0.9361 -0.0914 -1.0725
 8245SOL    HW332747   5.856   4.688   2.767  0.2262 -0.5290 -1.7883
 8245SOL    MW432748   5.879   4.771   2.760 -0.2852 -0.2530 -0.5807
 8246SOL     OW32749   0.010   2.850   0.968 -0.0504  0.1775  0.0734
 8246SOL    HW232750  -0.031   2.923   0.922  1.1878  0.2122 -1.0042
 8246SOL    HW332751   0.036   2.886   1.053 -0.0778  0.7990 -0.1814
 8246SOL    MW432752   0.008   2.864   0.973  0.1094  0.2641 -0.1024
 8247SOL     OW32753   2.031   0.598   4.859  0.2259 -0.1997 -0.0309
 8247SOL    HW232754   2.089   0.649   4.915 -0.2236  0.4236 -0.1220
 8247SOL    HW332755   1.943   0.632   4.878 -0.2133 -1.6691  0.6971
 8247SOL    MW432756   2.027   0.609   4.869  0.1087 -0.3113  0.0531
 8248SOL     OW32757   2.385   2.217   1.684 -0.4596  0.3838 -0.3194
 8248SOL    HW232758   2.419   2.240   1.597  3.1777  0.7451  1.0538
 8248SOL    HW332759   2.360   2.125   1.676 -0.6325  0.5240 -1.8219
 8248SOL    MW432760   2.386   2.208   1.671 -0.0025  0.4500 -0.3364
 8249SOL     OW32761   2.107   0.192   3.229  0.7261 -0.0374  0.8175
 8249SOL    HW232762   2.013   0.175   3.221  0.8854 -0.3806 -0.5814
 8249SOL    HW332763   2.142   0.115   3.274  0.4985 -0.4598  0.2869
 8249SOL    MW432764   2.099   0.180   3.233  0.7171 -0.1384  0.5630
 8250SOL     OW32765   0.205   1.167   4.192 -0.1043  0.6928  0.3294
 8250SOL    HW232766   0.156   1.095   4.230 -2.2414  2.2292  0.6752
 8250SOL    HW332767   0.282   1.126   4.153 -0.8386 -1.6411  1.1743
 8250SOL    MW432768   0.209   1.152   4.192 -0.4832  0.5876  0.4865
 8251SOL     OW32769   3.737   6.440   5.027  0.1111  0.2569  0.0332
 8251SOL    HW232770   3.643   6.453   5.024  0.1746  0.6847 -0.0406
 8251SOL    HW332771   3.747   6.353   5.067 -0.3255 -0.0490 -0.5017
 8251SOL    MW432772   3.726   6.430   5.032  0.0619  0.2730 -0.0471
 8252SOL     OW32773   0.193   3.754   2.127  0.1058 -0.3594  0.2213
 8252SOL    HW232774   0.192   3.818   2.198 -0.9483 -1.1332  0.9250
 8252SOL    HW332775   0.101   3.738   2.107  0.3109 -2.2715  0.6335
 8252SOL    MW432776   0.181   3.760   2.134 -0.0062 -0.7138  0.3685
 8253SOL     OW32777   0.227   4.055   5.092 -0.2178 -0.6963  0.0217
 8253SOL    HW232778   0.315   4.087   5.069 -0.5612 -0.6298 -1.2819
 8253SOL    HW332779   0.200   4.111   5.164  2.2231 -3.0290  3.0162
 8253SOL    MW432780   0.235   4.067   5.098  0.0589 -0.9953  0.2448
 8254SOL     OW32781   5.932   0.089   4.902 -0.2544  0.3413 -0.5907
 8254SOL    HW232782   5.955   0.161   4.843  1.5835 -0.1071 -0.4793
 8254SOL    HW332783   5.921   0.013   4.844  0.4593  0.1364 -0.4569
 8254SOL    MW432784   5.933   0.088   4.886  0.0823  0.2551 -0.5583
 8255SOL     OW32785   4.209   0.465   0.483  0.2520 -0.6458  0.3090
 8255SOL    HW232786   4.145   0.410   0.438 -0.0249 -1.8452  2.0514
 8255SOL    HW332787   4.277   0.404   0.511 -0.2330 -0.2362  2.6165
 8255SOL    MW432788   4.209   0.450   0.481  0.1514 -0.7500  0.8433
 8256SOL     OW32789   0.089   5.202   2.393  0.3386  0.0395  0.4988
 8256SOL    HW232790   0.009   5.255   2.395  0.7211  0.9912 -3.0524
 8256SOL    HW332791   0.066   5.122   2.440 -1.5507  1.6341  2.5119
 8256SOL    MW432792   0.076   5.198   2.400  0.1398  0.3755  0.2958
 8257SOL     OW32793   1.893   2.158   3.363  0.4185  0.1916 -0.1348
 8257SOL    HW232794   1.801   2.155   3.334  0.7863 -2.1592 -1.3142
 8257SOL    HW332795   1.943   2.153   3.282  1.5444 -1.3696  0.6195
 8257SOL    MW432796   1.887   2.157   3.349  0.6156 -0.3245 -0.1909
 8258SOL     OW32797   0.311   3.336   1.439  0.3617 -0.2916 -0.2423
 8258SOL    HW232798   0.404   3.340   1.414  0.8262  1.0048  1.5148
 8258SOL    HW332799   0.312   3.300   1.527 -0.8916 -0.9607 -0.4900
 8258SOL    MW432800   0.324   3.332   1.447  0.2577 -0.2088 -0.0432
 8259SOL     OW32801   4.616   2.402   4.789  0.1120  0.2385 -0.7990
 8259SOL    HW232802   4.590   2.494   4.782 -1.0744  0.0112  0.2879
 8259SOL    HW332803   4.629   2.388   4.883  1.8826 -0.3089 -1.0898
 8259SOL    MW432804   4.614   2.412   4.801  0.1891  0.1363 -0.6939
 8260SOL     OW32805   1.310   4.501   6.109  0.6275  0.1137 -0.5157
 8260SOL    HW232806   1.388   4.534   6.065  1.7687 -0.8449  0.7027
 8260SOL    HW332807   1.323   4.523   6.201 -1.1842  1.0908 -0.4459
 8260SOL    MW432808   1.322   4.508   6.115  0.5390  0.1161 -0.3458
 8261SOL     OW32809   5.913   5.512   0.055 -0.6547 -0.0237 -0.3301
 8261SOL    HW232810   5.906   5.457   0.133  0.0346  0.1419 -0.1458
 8261SOL    HW332811   5.822   5.523   0.025 -0.7404 -2.0355 -0.9276
 8261SOL    MW432812   5.900   5.506   0.061 -0.5751 -0.2673 -0.3846
 8262SOL     OW32813   5.856   0.269   3.518  0.1414 -0.4692 -0.1669
 8262SOL    HW232814   5.949   0.244   3.522 -0.1109 -2.2414 -2.5085
 8262SOL    HW332815   5.810   0.195   3.557 -0.3284  0.0649  0.2988
 8262SOL    MW432816   5.862   0.256   3.523  0.0461 -0.6326 -0.4144
 8263SOL     OW32817   3.391   0.489   3.529 -0.0457 -0.2029 -0.5175
 8263SOL    HW232818   3.416   0.397   3.522  0.1243 -0.1385 -0.7769
 8263SOL    HW332819   3.354   0.497   3.617 -0.7286 -0.6738 -0.7604
 8263SOL    MW432820   3.390   0.478   3.540 -0.1133 -0.2565 -0.5838
 8264SOL     OW32821   1.820   0.384   4.456  0.2474  0.5348  0.0895
 8264SOL    HW232822   1.816   0.349   4.545 -0.0037 -0.5772 -0.3421
 8264SOL    HW332823   1.829   0.307   4.400 -0.1894  1.1713 -0.8876
 8264SOL    MW432824   1.820   0.369   4.460  0.1566  0.4720 -0.0964
 8265SOL     OW32825   0.161   2.038   2.341  0.2254 -0.5423  0.1323
 8265SOL    HW232826   0.069   2.028   2.316 -0.1395 -2.5352  1.9675
 8265SOL    HW332827   0.183   2.128   2.319 -2.7113  0.5728  1.3389
 8265SOL    MW432828   0.152   2.049   2.334 -0.2102 -0.6581  0.5336
 8266SOL     OW32829   6.193   2.251   4.438 -0.5504  0.5266  0.1484
 8266SOL    HW232830   6.221   2.266   4.529 -2.0597  0.7444  0.6032
 8266SOL    HW332831   6.251   2.181   4.407 -0.5601 -0.1594  1.5764
 8266SOL    MW432832   6.204   2.244   4.446 -0.7508  0.4648  0.3968
 8267SOL     OW32833   0.599   4.775   2.467  0.5870  0.7339  0.5676
 8267SOL    HW232834   0.677   4.789   2.415  0.3653  2.1629  0.5736
 8267SOL    HW332835   0.527   4.807   2.413  0.1647  0.6444  1.0608
 8267SOL    MW432836   0.600   4.781   2.453  0.5020  0.9106  0.6335
 8268SOL     OW32837   1.308   2.280   0.395 -0.0268 -0.1988  0.0697
 8268SOL    HW232838   1.385   2.232   0.427  0.2454  0.2238  0.0516
 8268SOL    HW332839   1.264   2.310   0.474  0.1993  0.1433  0.0662
 8268SOL    MW432840   1.313   2.278   0.409  0.0389 -0.0979  0.0668
 8269SOL     OW32841   5.116   1.509   4.247 -0.4420 -0.3201  0.2370
 8269SOL    HW232842   5.048   1.551   4.194  0.1179  0.8811  0.4406
 8269SOL    HW332843   5.187   1.573   4.249  0.3215 -1.1677  0.8196
 8269SOL    MW432844   5.116   1.523   4.240 -0.2674 -0.2734  0.3407
 8270SOL     OW32845   6.298   2.962   3.627 -0.7256 -0.1949 -0.0527
 8270SOL    HW232846   6.237   2.888   3.623 -0.9420  0.0226 -3.1975
 8270SOL    HW332847   6.242   3.038   3.642 -0.7012 -0.4125  1.2942
 8270SOL    MW432848   6.283   2.962   3.629 -0.7509 -0.1949 -0.2899
 8271SOL     OW32849   2.006   0.631   6.290  0.4439  0.1288  0.0228
 8271SOL    HW232850   2.037   0.711   6.248 -1.0639 -0.1913 -1.8088
 8271SOL    HW332851   1.969   0.661   6.373  2.1625  0.9656  0.5294
 8271SOL    MW432852   2.005   0.645   6.296  0.4717  0.1970 -0.1520
 8272SOL     OW32853   0.917   6.204   6.145  0.0181 -0.1768 -0.0561
 8272SOL    HW232854   0.858   6.130   6.160 -0.0577  0.2454  2.0167
 8272SOL    HW332855   0.861   6.281   6.151  0.1527  0.0936 -1.8875
 8272SOL    MW432856   0.902   6.204   6.148  0.0259 -0.0854 -0.0243
 8273SOL     OW32857   5.037   2.043   3.683 -0.0599  0.2320  0.4634
 8273SOL    HW232858   5.029   2.062   3.590 -0.0896  0.2698  0.4736
 8273SOL    HW332859   5.081   2.119   3.719 -2.2703  1.3952  0.9014
 8273SOL    MW432860   5.042   2.055   3.676 -0.3554  0.3905  0.5226
 8274SOL     OW32861   0.310   3.628   5.087 -0.4596  0.1015  0.2989
 8274SOL    HW232862   0.356   3.598   5.165  1.6144 -0.5273 -1.0938
 8274SOL    HW332863   0.244   3.690   5.121  0.8314  0.4112  2.4587
 8274SOL    MW432864   0.307   3.632   5.102 -0.0156  0.0594  0.4001
 8275SOL     OW32865   2.552   2.751   2.353  0.0287  0.4499 -0.2173
 8275SOL    HW232866   2.557   2.670   2.301 -2.7507 -0.5838  0.9135
 8275SOL    HW332867   2.554   2.721   2.444 -2.6042  1.3959  0.2443
 8275SOL    MW432868   2.553   2.736   2.358 -0.6854  0.4384 -0.0072
 8276SOL     OW32869   5.835   2.226   4.742  0.2967  0.5398  0.3826
 8276SOL    HW232870   5.915   2.208   4.693  0.2625 -1.9091  1.0801
 8276SOL    HW332871   5.814   2.143   4.783 -2.4430  1.2089  0.4913
 8276SOL    MW432872   5.843   2.213   4.741 -0.0692  0.3050  0.4890
 8277SOL     OW32873   5.722   2.131   3.091 -0.5777 -0.0133 -0.0783
 8277SOL    HW232874   5.734   2.097   3.002 -0.0278 -1.4633  0.5124
 8277SOL    HW332875   5.629   2.121   3.108 -0.7444  0.5853 -0.5998
 8277SOL    MW432876   5.711   2.125   3.082 -0.5271 -0.1257 -0.0691
 8278SOL     OW32877   5.914   5.137   4.997  0.3606 -0.0789 -0.2343
 8278SOL    HW232878   5.822   5.160   4.989  0.2175 -0.6741 -0.3586
 8278SOL    HW332879   5.941   5.112   4.908  0.4287 -0.6719 -0.0488
 8278SOL    MW432880   5.906   5.137   4.984  0.3507 -0.2357 -0.2262
 8279SOL     OW32881   2.139   1.739   2.114 -0.0745 -0.3045 -0.1932
 8279SOL    HW232882   2.164   1.765   2.202 -0.5125 -1.1378  0.1902
 8279SOL    HW332883   2.045   1.757   2.109 -0.1036 -0.5041 -0.3922
 8279SOL    MW432884   2.130   1.745   2.125 -0.1361 -0.4408 -0.1689
 8280SOL     OW32885   5.791   2.610   3.831  0.3264 -0.2848  0.2035
 8280SOL    HW232886   5.842   2.633   3.909  0.2796  0.1526  0.1022
 8280SOL    HW332887   5.778   2.692   3.785 -0.7472 -0.3306  0.3910
 8280SOL    MW432888   5.796   2.624   3.835  0.1786 -0.2331  0.2148
 8281SOL     OW32889   2.543   4.796   3.799  0.5921 -0.0331  0.6740
 8281SOL    HW232890   2.535   4.839   3.714  1.5270 -0.3262  0.4274
 8281SOL    HW332891   2.604   4.851   3.848 -1.8644  1.5800  2.1230
 8281SOL    MW432892   2.550   4.809   3.794  0.3913  0.1411  0.8326
 8282SOL     OW32893   2.867   1.169   2.096 -0.2577  0.3816 -0.6437
 8282SOL    HW232894   2.924   1.114   2.042 -1.3029  1.1716 -2.6376
 8282SOL    HW332895   2.896   1.258   2.078  0.5758  0.6377  1.5851
 8282SOL    MW432896   2.879   1.173   2.087 -0.2857  0.5196 -0.6127
 8283SOL     OW32897   4.572   1.522   6.395  0.1572 -0.1106  0.2331
 8283SOL    HW232898   4.499   1.501   6.335 -0.1684  1.1867  0.1524
 8283SOL    HW332899   4.613   1.599   6.356  1.8560 -1.0663  0.0604
 8283SOL    MW432900   4.568   1.529   6.382  0.3384 -0.0655  0.1996
 8284SOL     OW32901   6.309   1.107   2.113 -0.7047 -0.1682 -0.6591
 8284SOL    HW232902   6.270   1.020   2.114 -0.1266 -0.4330 -0.8804
 8284SOL    HW332903   6.403   1.092   2.105 -0.5401  0.4624 -0.0212
 8284SOL    MW432904   6.316   1.094   2.112 -0.6067 -0.1200 -0.6041
 8285SOL     OW32905   2.814   2.280   1.812 -0.3453  0.4815 -0.3738
 8285SOL    HW232906   2.725   2.309   1.830 -0.4359 -0.6936  1.2540
 8285SOL    HW332907   2.809   2.185   1.811  0.9175  0.3930 -0.0912
 8285SOL    MW432908   2.802   2.272   1.814 -0.1907  0.3148 -0.1217
 8286SOL     OW32909   3.333   2.479   5.362  0.5236 -0.1301 -0.6114
 8286SOL    HW232910   3.244   2.497   5.330 -0.4803  1.5178  2.6355
 8286SOL    HW332911   3.347   2.386   5.342 -2.4428 -0.7746 -0.1965
 8286SOL    MW432912   3.323   2.469   5.355 -0.0002  0.0023 -0.1282
 8287SOL     OW32913   0.889   3.438   1.882 -0.1647 -0.1440  0.2715
 8287SOL    HW232914   0.854   3.471   1.965  0.6748  0.2451  0.4762
 8287SOL    HW332915   0.984   3.444   1.892 -0.0446 -0.8094 -0.4325
 8287SOL    MW432916   0.897   3.443   1.894 -0.0381 -0.1804  0.2056
 8288SOL     OW32917   3.558   5.573   5.761  0.7276 -0.1876 -0.3521
 8288SOL    HW232918   3.626   5.548   5.698  0.7581 -0.5864 -0.1633
 8288SOL    HW332919   3.566   5.509   5.831 -1.8230 -2.1571 -1.7162
 8288SOL    MW432920   3.568   5.561   5.762  0.3951 -0.5001 -0.5072
 8289SOL     OW32921   0.936   6.034   1.995 -0.4871 -0.4113  0.1199
 8289SOL    HW232922   0.855   6.012   1.949 -1.3460  2.4241  0.0989
 8289SOL    HW332923   0.915   6.018   2.088 -1.3511  0.9653  0.1833
 8289SOL    MW432924   0.922   6.029   2.001 -0.7144  0.1444  0.1255
 8290SOL     OW32925   6.244   1.881   4.189 -0.3715 -0.3795  0.0616
 8290SOL    HW232926   6.325   1.835   4.166  0.5112  0.7171  0.8597
 8290SOL    HW332927   6.273   1.961   4.232 -1.7437  1.8625 -2.7784
 8290SOL    MW432928   6.259   1.885   4.192 -0.4361  0.0610 -0.2078
 8291SOL     OW32929   1.109   1.092   5.180  0.5359 -0.0160  0.3574
 8291SOL    HW232930   1.044   1.099   5.250 -0.5493 -1.8890 -0.3846
 8291SOL    HW332931   1.130   0.999   5.177  1.8131  0.2834 -0.7152
 8291SOL    MW432932   1.103   1.081   5.189  0.5613 -0.2236  0.1180
 8292SOL     OW32933   1.319   2.337   3.533 -0.0521  0.3443  0.0034
 8292SOL    HW232934   1.392   2.280   3.554  0.5389  0.9791 -0.2923
 8292SOL    HW332935   1.260   2.330   3.607 -1.1325 -2.4348 -0.9935
 8292SOL    MW432936   1.321   2.329   3.545 -0.1167  0.0614 -0.1671
 8293SOL     OW32937   6.376   5.933   4.117  0.7446 -0.1272 -0.5556
 8293SOL    HW232938   6.422   5.869   4.171  0.5477  0.3893  0.2572
 8293SOL    HW332939   6.352   5.886   4.038  0.9038 -0.9557 -0.1220
 8293SOL    MW432940   6.379   5.919   4.114  0.7397 -0.1684 -0.3911
 8294SOL     OW32941   0.175   4.144   1.765  0.1369  0.0915 -0.3913
 8294SOL    HW232942   0.082   4.121   1.757 -0.1100  1.2465 -1.0727
 8294SOL    HW332943   0.208   4.086   1.833 -1.4130  0.6111  0.8658
 8294SOL    MW432944   0.167   4.133   1.773 -0.1002  0.3124 -0.3153
 8295SOL     OW32945   1.599   0.812   2.237 -0.5144  0.6459  0.1093
 8295SOL    HW232946   1.538   0.770   2.177  1.3375  0.9858 -2.1594
 8295SOL    HW332947   1.561   0.798   2.324 -3.5098  0.4389 -1.1208
 8295SOL    MW432948   1.586   0.805   2.240 -0.6653  0.6634 -0.3524
 8296SOL     OW32949   0.990   4.477   0.466  0.5381 -0.6546 -0.7928
 8296SOL    HW232950   1.076   4.515   0.448  1.0188 -1.8050 -0.9839
 8296SOL    HW332951   1.005   4.417   0.539 -0.4059  0.2162  0.1631
 8296SOL    MW432952   1.003   4.474   0.473  0.4770 -0.6915 -0.6919
 8297SOL     OW32953   1.585   0.600   5.374  0.1699 -0.1001 -0.0926
 8297SOL    HW232954   1.629   0.561   5.449 -0.0132 -0.2442 -0.0594
 8297SOL    HW332955   1.521   0.660   5.413  0.9060  0.7417 -0.1478
 8297SOL    MW432956   1.582   0.603   5.389  0.2429 -0.0081 -0.0955
 8298SOL     OW32957   0.354   1.118   4.796 -0.6405  0.1554 -0.1860
 8298SOL    HW232958   0.361   1.172   4.718 -2.8966 -0.0461 -0.6151
 8298SOL    HW332959   0.418   1.154   4.857 -1.7068  3.0754 -0.6361
 8298SOL    MW432960   0.363   1.130   4.794 -1.0789  0.5141 -0.3020
 8299SOL     OW32961   0.651   1.447   2.584 -0.3020  0.3392 -0.9348
 8299SOL    HW232962   0.740   1.422   2.558 -0.4555  0.0351 -1.1648
 8299SOL    HW332963   0.635   1.401   2.666  0.7892  2.5353  0.6232
 8299SOL    MW432964   0.661   1.438   2.591 -0.1783  0.5888 -0.7596
 8300SOL     OW32965   2.804   5.568   0.294 -0.3587  0.4320  0.0237
 8300SOL    HW232966   2.754   5.488   0.308 -0.3489  0.4273  0.0305
 8300SOL    HW332967   2.811   5.575   0.199 -0.3422  0.4141  0.0235
 8300SOL    MW432968   2.798   5.558   0.283 -0.3552  0.4290  0.0245
 8301SOL     OW32969   0.911   3.102   6.300 -0.0748  0.7983 -0.2911
 8301SOL    HW232970   0.928   3.131   6.390 -2.7543  0.2343  0.4900
 8301SOL    HW332971   0.882   3.181   6.255  1.1144  1.0460 -0.6804
 8301SOL    MW432972   0.910   3.116   6.306 -0.2715  0.7566 -0.2394
 8302SOL     OW32973   4.804   5.888   0.296 -0.2271  0.6709  0.0706
 8302SOL    HW232974   4.712   5.860   0.297 -0.1360  0.3401  1.5991
 8302SOL    HW332975   4.854   5.807   0.304  0.3502  0.5720 -3.2138
 8302SOL    MW432976   4.798   5.874   0.298 -0.1389  0.6142 -0.1610
 8303SOL     OW32977   5.333   5.052   4.030 -0.8490  0.0909  0.5528
 8303SOL    HW232978   5.343   5.142   3.999 -1.2379 -0.0134  0.1116
 8303SOL    HW332979   5.422   5.016   4.027 -0.8244  0.1888 -0.1255
 8303SOL    MW432980   5.346   5.059   4.026 -0.8971  0.0900  0.4051
 8304SOL     OW32981   2.146   2.554   4.041  0.3488 -0.2610  0.3854
 8304SOL    HW232982   2.104   2.632   4.077 -0.2580  0.0510 -0.9452
 8304SOL    HW332983   2.238   2.563   4.064  0.2724  0.8221  0.2821
 8304SOL    MW432984   2.152   2.565   4.049  0.2587 -0.0769  0.1962
 8305SOL     OW32985   3.916   3.482   2.199 -0.4046  0.0322 -0.1005
 8305SOL    HW232986   3.865   3.430   2.137 -1.7079  0.8530  0.2369
 8305SOL    HW332987   3.934   3.422   2.272 -1.0840 -0.2102 -0.1288
 8305SOL    MW432988   3.912   3.467   2.201 -0.6662  0.1085 -0.0597
 8306SOL     OW32989   3.960   1.027   3.028 -0.1101 -0.5083  0.0569
 8306SOL    HW232990   4.036   1.083   3.018 -1.0119  0.4361 -1.8824
 8306SOL    HW332991   3.972   0.957   2.964 -0.9738 -0.2288 -0.4254
 8306SOL    MW432992   3.971   1.025   3.018 -0.3430 -0.3468 -0.2626
 8307SOL     OW32993   5.290   4.793   2.855 -0.4734  0.1226 -0.6712
 8307SOL    HW232994   5.333   4.878   2.867 -1.6700  0.9195 -1.8008
 8307SOL    HW332995   5.360   4.736   2.822  0.7595  0.1544  1.6364
 8307SOL    MW432996   5.305   4.797   2.853 -0.4686  0.2319 -0.5157
 8308SOL     OW32997   3.959   2.298   5.541  0.2026 -0.5066 -0.2994
 8308SOL    HW232998   4.003   2.359   5.482 -0.7345 -0.2309 -0.7319
 8308SOL    HW332999   3.941   2.221   5.487  0.6689 -0.8573  0.0333
 8308SOL    MW433000   3.962   2.296   5.526  0.1405 -0.5165 -0.3125
 8309SOL     OW33001   0.375   2.289   1.823 -0.2698  0.4399 -0.6238
 8309SOL    HW233002   0.393   2.252   1.736 -1.9049  1.0239 -1.2464
 8309SOL    HW333003   0.409   2.223   1.884 -0.0921 -0.5114 -1.7002
 8309SOL    MW433004   0.382   2.275   1.819 -0.4621  0.3915 -0.8480
 8310SOL     OW33005   3.453   2.951   4.326 -0.6163 -0.1373 -0.2055
 8310SOL    HW233006   3.413   3.027   4.284 -0.6425  0.7726  1.3561
 8310SOL    HW333007   3.429   2.960   4.419 -1.6953 -2.7436 -0.1362
 8310SOL    MW433008   3.445   2.962   4.333 -0.7621 -0.3611  0.0097
 8311SOL     OW33009   2.467   4.750   1.095 -0.1862  0.1469 -0.3058
 8311SOL    HW233010   2.561   4.766   1.087 -0.0082 -1.0511 -0.7912
 8311SOL    HW333011   2.461   4.670   1.146 -0.9692  0.4831  0.1473
 8311SOL    MW433012   2.478   4.742   1.101 -0.2660  0.0332 -0.3101
 8312SOL     OW33013   4.989   1.019   3.458  0.0377 -0.7568 -0.3690
 8312SOL    HW233014   4.917   0.971   3.418  1.2624 -2.2392 -0.9023
 8312SOL    HW333015   4.947   1.082   3.516 -1.7657  0.3078 -2.6836
 8312SOL    MW433016   4.974   1.021   3.460 -0.0387 -0.8119 -0.7448
 8313SOL     OW33017   2.751   2.066   3.993 -0.2959  0.5257  0.3428
 8313SOL    HW233018   2.846   2.061   3.992 -0.3355 -0.6831  1.2374
 8313SOL    HW333019   2.730   2.107   4.077 -0.5809  0.3724  0.3463
 8313SOL    MW433020   2.761   2.071   4.004 -0.3387  0.3460  0.4613
 8314SOL     OW33021   2.399   4.547   3.753  0.0923 -0.1597  0.2369
 8314SOL    HW233022   2.451   4.619   3.788  2.5130 -2.0201  0.7398
 8314SOL    HW333023   2.317   4.551   3.803 -0.5994  3.1143 -0.8769
 8314SOL    MW433024   2.395   4.557   3.764  0.3204  0.0268  0.1563
 8315SOL     OW33025   1.809   5.809   4.647 -0.0127  0.1449  0.0449
 8315SOL    HW233026   1.824   5.742   4.580  2.9948  0.0395  0.7173
 8315SOL    HW333027   1.837   5.891   4.606  0.9902  0.2156  0.8424
 8315SOL    MW433028   1.814   5.811   4.632  0.5164  0.1403  0.2388
 8316SOL     OW33029   3.425   5.496   5.113  0.1414  0.1593 -0.2232
 8316SOL    HW233030   3.383   5.490   5.027  0.0071 -1.9293 -0.0616
 8316SOL    HW333031   3.447   5.405   5.135 -0.2773  0.5834  2.1716
 8316SOL    MW433032   3.423   5.483   5.104  0.0685 -0.0603  0.1141
 8317SOL     OW33033   0.779   4.835   4.463  0.5412 -0.0303  0.5840
 8317SOL    HW233034   0.830   4.887   4.526  2.2857 -1.0936  0.1204
 8317SOL    HW333035   0.840   4.818   4.391 -0.7264 -0.7290 -0.3689
 8317SOL    MW433036   0.794   4.840   4.462  0.6041 -0.2628  0.3971
 8318SOL     OW33037   4.961   5.388   3.294 -0.2392  0.2668 -0.0929
 8318SOL    HW233038   4.893   5.405   3.229 -0.0059 -0.5834 -0.5759
 8318SOL    HW333039   4.981   5.294   3.284 -0.0950  0.1492  1.0973
 8318SOL    MW433040   4.955   5.378   3.284 -0.1894  0.1391  0.0004
 8319SOL     OW33041   0.595   2.539   3.756 -0.0046 -0.5190 -0.5871
 8319SOL    HW233042   0.504   2.531   3.786  0.0461  0.1661 -0.2311
 8319SOL    HW333043   0.608   2.464   3.698 -0.3830 -1.3643  0.3960
 8319SOL    MW433044   0.585   2.528   3.752 -0.0479 -0.5401 -0.4104
 8320SOL     OW33045   4.367   3.651   3.690  0.6826  0.1141  0.3673
 8320SOL    HW233046   4.384   3.702   3.769  2.1132 -1.9269  1.4893
 8320SOL    HW333047   4.274   3.626   3.697  0.2886  1.5388  0.3986
 8320SOL    MW433048   4.357   3.654   3.702  0.8193  0.0328  0.5194
 8321SOL     OW33049   1.625   0.724   0.404  0.0380 -0.7557  0.1423
 8321SOL    HW233050   1.575   0.769   0.336  2.4446  2.4547  0.2477
 8321SOL    HW333051   1.641   0.636   0.369 -0.9571 -0.0368 -2.2667
 8321SOL    MW433052   1.620   0.718   0.391  0.2242 -0.2373 -0.1616
 8322SOL     OW33053   3.275   4.708   6.074 -0.4525 -0.0875  0.0337
 8322SOL    HW233054   3.357   4.712   6.025 -0.3099  1.7253  0.3668
 8322SOL    HW333055   3.253   4.615   6.075  0.3481 -0.3564 -2.1009
 8322SOL    MW433056   3.283   4.696   6.068 -0.3281  0.1162 -0.2040
 8323SOL     OW33057   3.733   5.794   5.548  0.1216  0.3180  0.2672
 8323SOL    HW233058   3.719   5.728   5.481 -0.8573  0.2649  0.5057
 8323SOL    HW333059   3.796   5.755   5.608  0.6142  0.1649 -0.3515
 8323SOL    MW433060   3.739   5.780   5.547  0.0574  0.2908  0.2170
 8324SOL     OW33061   1.456   2.963   4.176  0.7836 -0.3681  0.1355
 8324SOL    HW233062   1.512   2.893   4.210  1.6785 -0.6641 -1.8054
 8324SOL    HW333063   1.380   2.918   4.140  0.8294 -0.2490 -0.1119
 8324SOL    MW433064   1.454   2.948   4.176  0.9077 -0.3914 -0.1532
 8325SOL     OW33065   1.095   5.537   6.049 -0.3058 -0.4363 -0.1361
 8325SOL    HW233066   1.146   5.612   6.017 -0.2994 -0.3582  0.0490
 8325SOL    HW333067   1.094   5.549   6.144 -1.3793  0.0299 -0.1858
 8325SOL    MW433068   1.101   5.549   6.058 -0.4466 -0.3645 -0.1182
 8326SOL     OW33069   4.433   2.361   4.310  0.4229  0.0506  0.2681
 8326SOL    HW233070   4.386   2.430   4.355 -0.4552  1.0657 -2.0415
 8326SOL    HW333071   4.398   2.280   4.347 -1.1430  0.8210  0.5599
 8326SOL    MW433072   4.422   2.359   4.321  0.1005  0.2862  0.0019
 8327SOL     OW33073   0.420   4.875   0.265  0.3559 -0.1062  0.0910
 8327SOL    HW233074   0.419   4.790   0.222  0.7146 -0.5620  0.9493
 8327SOL    HW333075   0.427   4.854   0.359  0.0163  0.8575  0.3451
 8327SOL    MW433076   0.421   4.861   0.272  0.3584 -0.0392  0.2377
 8328SOL     OW33077   3.571   0.043   0.357 -0.0706 -0.4920 -0.3598
 8328SOL    HW233078   3.607  -0.046   0.354  0.1307 -0.4199 -0.1018
 8328SOL    HW333079   3.554   0.065   0.266  0.7624 -0.4339 -0.5059
 8328SOL    MW433080   3.573   0.034   0.345  0.0659 -0.4748 -0.3450
 8329SOL     OW33081   0.158   2.917   6.140  0.1713 -0.2192 -0.5840
 8329SOL    HW233082   0.181   2.841   6.087 -0.6582 -0.1905 -1.0000
 8329SOL    HW333083   0.132   2.983   6.075  1.9071  0.8099 -0.3173
 8329SOL    MW433084   0.158   2.916   6.124  0.2909 -0.0796 -0.6037
 8330SOL     OW33085   6.154   5.104   4.455  0.2800  0.4206  0.4135
 8330SOL    HW233086   6.091   5.110   4.527  1.0560  0.4342  1.1012
 8330SOL    HW333087   6.206   5.184   4.461 -0.6323  1.1847 -1.1335
 8330SOL    MW433088   6.152   5.115   4.465  0.2620  0.5232  0.3001
 8331SOL     OW33089   3.300   0.465   3.785 -0.8748  0.0143  0.0275
 8331SOL    HW233090   3.369   0.401   3.803 -0.2998  0.9968  1.4556
 8331SOL    HW333091   3.218   0.415   3.796 -0.4385 -0.7918 -0.2541
 8331SOL    MW433092   3.298   0.450   3.789 -0.7414  0.0376  0.1788
 8332SOL     OW33093   0.469   0.122   2.529  0.0652  1.0498 -0.1196
 8332SOL    HW233094   0.561   0.141   2.548  0.5321 -0.2956 -0.8741
 8332SOL    HW333095   0.450   0.043   2.580 -0.4325  0.8880 -0.5454
 8332SOL    MW433096   0.479   0.114   2.538  0.0612  0.8509 -0.2753
 8333SOL     OW33097   4.861   4.273   1.806 -0.1200 -0.1730  0.1149
 8333SOL    HW233098   4.801   4.245   1.876  1.4154  1.1677  2.0662
 8333SOL    HW333099   4.803   4.298   1.734 -2.4365  4.7995  3.1743
 8333SOL    MW433100   4.845   4.273   1.806 -0.2231  0.6600  0.7760
 8334SOL     OW33101   1.690   1.235   2.412 -0.2827  0.5580 -0.1058
 8334SOL    HW233102   1.764   1.288   2.442 -0.4027  0.9092 -0.4312
 8334SOL    HW333103   1.731   1.166   2.359 -0.0119 -0.4358  1.3486
 8334SOL    MW433104   1.705   1.233   2.409 -0.2628  0.4732  0.0432
 8335SOL     OW33105   3.524   2.853   1.119 -0.1266 -1.0227  0.3279
 8335SOL    HW233106   3.576   2.934   1.126 -0.4512 -0.7290 -0.5278
 8335SOL    HW333107   3.436   2.883   1.097 -0.1513 -1.6280 -0.4248
 8335SOL    MW433108   3.520   2.868   1.117 -0.1727 -1.0638  0.1157
 8336SOL     OW33109   2.924   5.822   4.105 -0.3735 -0.1025 -0.0379
 8336SOL    HW233110   2.970   5.812   4.022 -1.2571 -1.4763 -0.3815
 8336SOL    HW333111   2.832   5.827   4.082 -0.5185  1.8883  0.7076
 8336SOL    MW433112   2.918   5.822   4.091 -0.5092 -0.0211  0.0151
 8337SOL     OW33113   1.064   0.074   0.188  0.2506  0.2618 -0.3783
 8337SOL    HW233114   0.988   0.016   0.193  0.3567  0.0908 -0.7095
 8337SOL    HW333115   1.068   0.101   0.096 -0.2013  1.3502 -0.0879
 8337SOL    MW433116   1.054   0.070   0.176  0.2050  0.3828 -0.3837
 8338SOL     OW33117   0.159   0.809   4.462  0.0639  0.4240  0.3082
 8338SOL    HW233118   0.104   0.855   4.398  0.7175 -0.0363 -0.6156
 8338SOL    HW333119   0.115   0.823   4.546 -1.8238 -0.4680 -0.4764
 8338SOL    MW433120   0.145   0.817   4.464 -0.0989  0.2456  0.0828
 8339SOL     OW33121   5.606   3.605   1.947  0.2662 -0.0277  0.6332
 8339SOL    HW233122   5.619   3.666   1.874  0.0941 -0.1017  0.5376
 8339SOL    HW333123   5.691   3.598   1.988  0.9107 -1.6490 -0.8622
 8339SOL    MW433124   5.619   3.612   1.943  0.3285 -0.2514  0.4233
 8340SOL     OW33125   0.437   3.372   2.222 -0.1068  0.6343  0.3275
 8340SOL    HW233126   0.343   3.380   2.206  0.1140  0.4073 -1.1794
 8340SOL    HW333127   0.477   3.434   2.162  0.7770 -0.3496 -0.1237
 8340SOL    MW433128   0.430   3.381   2.212  0.0389  0.4745  0.0692
 8341SOL     OW33129   4.747   2.826   1.294  0.0007 -0.2470 -0.1164
 8341SOL    HW233130   4.776   2.779   1.372 -1.8569 -2.1044 -0.4544
 8341SOL    HW333131   4.738   2.917   1.323  0.4387 -0.6858  1.5076
 8341SOL    MW433132   4.750   2.832   1.308 -0.1866 -0.5499  0.0532
 8342SOL     OW33133   6.311   3.741   4.695  0.1230 -0.0942  0.0206
 8342SOL    HW233134   6.272   3.658   4.723  2.8440 -1.7385 -0.6608
 8342SOL    HW333135   6.364   3.769   4.770  0.8452 -0.1170 -0.4636
 8342SOL    MW433136   6.313   3.733   4.708  0.5773 -0.3141 -0.1332
 8343SOL     OW33137   4.770   1.160   1.244 -0.4358 -0.0977  0.1429
 8343SOL    HW233138   4.838   1.120   1.298 -1.1006 -0.5797  0.6419
 8343SOL    HW333139   4.796   1.142   1.154 -0.0127 -0.4560  0.3391
 8343SOL    MW433140   4.782   1.152   1.240 -0.4677 -0.2086  0.2346
 8344SOL     OW33141   3.239   1.369   2.962  0.3012 -0.1464 -0.0415
 8344SOL    HW233142   3.204   1.399   2.878 -0.6174 -2.5497 -0.5893
 8344SOL    HW333143   3.323   1.329   2.940  1.1946  1.3145  0.5772
 8344SOL    MW433144   3.246   1.368   2.948  0.2979 -0.2707 -0.0321
 8345SOL     OW33145   1.232   2.541   1.208  0.3207 -0.2647  0.3406
 8345SOL    HW233146   1.166   2.608   1.227  1.3173  0.5518  1.0251
 8345SOL    HW333147   1.240   2.491   1.289  0.8534 -0.0757  0.4104
 8345SOL    MW433148   1.224   2.544   1.221  0.5224 -0.1320  0.4401
 8346SOL     OW33149   3.733   1.496   3.820 -0.3096  0.4554 -1.1900
 8346SOL    HW233150   3.796   1.545   3.767  2.4875 -0.7281  0.7926
 8346SOL    HW333151   3.729   1.410   3.779  0.3742  0.1475 -0.6411
 8346SOL    MW433152   3.741   1.492   3.807  0.1497  0.2587 -0.8560
 8347SOL     OW33153   2.089   3.382   4.604 -0.3002 -0.1360  0.2490
 8347SOL    HW233154   2.041   3.361   4.684  0.2808 -0.0432  0.6263
 8347SOL    HW333155   2.052   3.466   4.576 -1.4243 -0.7994 -0.3170
 8347SOL    MW433156   2.078   3.390   4.611 -0.3718 -0.2113  0.2241
 8348SOL     OW33157   4.286   4.489   1.791 -0.2419  0.2184 -0.4716
 8348SOL    HW233158   4.299   4.516   1.700 -1.6302  0.2647 -0.6734
 8348SOL    HW333159   4.216   4.424   1.787  0.4645 -0.6360  0.4468
 8348SOL    MW433160   4.278   4.484   1.778 -0.3319  0.1117 -0.3771
 8349SOL     OW33161   4.077   5.944   3.562 -0.9307  0.0300  0.1871
 8349SOL    HW233162   4.160   5.969   3.603 -0.3980 -1.4242  0.0490
 8349SOL    HW333163   4.012   5.955   3.631 -0.1514 -1.7217  1.2765
 8349SOL    MW433164   4.079   5.949   3.577 -0.7576 -0.3930  0.3126
 8350SOL     OW33165   0.321   1.222   3.774  0.4486  0.1403 -0.0540
 8350SOL    HW233166   0.363   1.262   3.850 -0.9181  1.5617  0.0102
 8350SOL    HW333167   0.282   1.296   3.726  1.1616 -0.7280 -2.0804
 8350SOL    MW433168   0.321   1.237   3.777  0.3623  0.2133 -0.3129
 8351SOL     OW33169   0.821   1.411   2.964 -0.3558 -0.2238 -0.5641
 8351SOL    HW233170   0.810   1.489   2.909 -0.3678 -1.0349 -1.7507
 8351SOL    HW333171   0.821   1.445   3.054 -1.8599  0.9798 -0.9692
 8351SOL    MW433172   0.820   1.426   2.969 -0.5558 -0.1720 -0.7741
 8352SOL     OW33173   4.812   4.377   0.241 -0.1528 -0.1588  0.0663
 8352SOL    HW233174   4.794   4.316   0.169  1.6377 -0.4921 -0.1316
 8352SOL    HW333175   4.758   4.344   0.313 -1.3038 -0.3357 -0.8383
 8352SOL    MW433176   4.802   4.364   0.241 -0.0684 -0.2261 -0.0792
 8353SOL     OW33177   3.714   5.450   0.663  0.8466  0.0487  0.5887
 8353SOL    HW233178   3.752   5.474   0.579 -1.2906 -0.8522 -0.7084
 8353SOL    HW333179   3.740   5.358   0.675 -2.0983 -1.1642 -1.1707
 8353SOL    MW433180   3.722   5.441   0.654  0.1761 -0.2302  0.1854
 8354SOL     OW33181   3.509   6.265   4.101  0.2367 -0.3197  0.3113
 8354SOL    HW233182   3.483   6.353   4.075 -0.4653 -0.9528 -1.2876
 8354SOL    HW333183   3.600   6.274   4.129  0.8239  0.5983 -1.7101
 8354SOL    MW433184   3.518   6.278   4.101  0.2216 -0.2821 -0.1663
 8355SOL     OW33185   4.297   6.453   5.247 -0.0692  0.1029 -1.2672
 8355SOL    HW233186   4.315   6.402   5.168 -0.6500  0.5384 -1.6904
 8355SOL    HW333187   4.279   6.542   5.215  1.2076  0.6569 -0.5205
 8355SOL    MW433188   4.297   6.458   5.233  0.0227  0.2335 -1.2245
 8356SOL     OW33189   1.406   4.872   6.300  0.4006  0.5643 -0.2169
 8356SOL    HW233190   1.357   4.791   6.284  0.4773  0.3307  0.6523
 8356SOL    HW333191   1.348   4.924   6.356  0.6126  0.8348 -0.2458
 8356SOL    MW433192   1.392   4.868   6.305  0.4387  0.5692 -0.1060
 8357SOL     OW33193   3.539   4.831   4.621 -0.5922  0.6000 -0.4318
 8357SOL    HW233194   3.612   4.894   4.614 -1.5838  1.9942  1.0378
 8357SOL    HW333195   3.473   4.864   4.560 -0.4697  0.0043 -0.8950
 8357SOL    MW433196   3.540   4.844   4.612 -0.7068  0.7054 -0.2990
 8358SOL     OW33197   2.733   0.477   6.408  0.3847  0.4535  0.0135
 8358SOL    HW233198   2.803   0.504   6.350  1.0679  1.3663  1.2308
 8358SOL    HW333199   2.756   0.513   6.494 -0.9444 -0.2580  0.7145
 8358SOL    MW433200   2.745   0.485   6.412  0.2995  0.4801  0.2666
 8359SOL     OW33201   1.794   5.320   0.476 -0.3601 -0.1561 -0.4351
 8359SOL    HW233202   1.828   5.323   0.565 -1.4716 -1.0534  0.0445
 8359SOL    HW333203   1.848   5.256   0.431  0.7344  0.8881 -0.6718
 8359SOL    MW433204   1.805   5.312   0.482 -0.3623 -0.1367 -0.4031
 8360SOL     OW33205   0.668   0.852   6.314  0.6710 -0.0893 -0.3049
 8360SOL    HW233206   0.697   0.896   6.234  0.4956  0.3582 -0.1239
 8360SOL    HW333207   0.733   0.784   6.329  0.8113 -0.0466 -0.7230
 8360SOL    MW433208   0.680   0.849   6.306  0.6664 -0.0246 -0.3362
 8361SOL     OW33209   0.626   1.795   0.983 -0.2377  0.2239  0.0112
 8361SOL    HW233210   0.575   1.803   1.063  0.3864  0.4123  0.3961
 8361SOL    HW333211   0.641   1.885   0.954 -0.7208  0.1518 -0.4959
 8361SOL    MW433212   0.621   1.808   0.990 -0.2191  0.2392 -0.0049
 8362SOL     OW33213   2.268   3.697   2.313 -0.0918  0.6044 -0.2417
 8362SOL    HW233214   2.236   3.762   2.375 -1.7185 -0.0060 -0.3970
 8362SOL    HW333215   2.192   3.642   2.294  0.6362  0.1110 -1.9355
 8362SOL    MW433216   2.254   3.698   2.318 -0.2103  0.4588 -0.4857
 8363SOL     OW33217   2.529   2.557   1.555  0.1724  0.1395 -0.0152
 8363SOL    HW233218   2.544   2.516   1.640 -1.0909  1.2031  0.7595
 8363SOL    HW333219   2.615   2.559   1.514  0.9305  0.1967  1.5114
 8363SOL    MW433220   2.542   2.552   1.560  0.1057  0.2874  0.2884
 8364SOL     OW33221   3.139   5.073   2.264  0.2248  0.5842 -0.3965
 8364SOL    HW233222   3.222   5.055   2.220  0.1012 -0.6565 -0.1543
 8364SOL    HW333223   3.123   4.995   2.317 -1.7957  0.1904 -1.5104
 8364SOL    MW433224   3.148   5.060   2.265 -0.0581  0.3686 -0.5115
 8365SOL     OW33225   3.984   3.630   4.458  0.2908  0.0256 -0.8057
 8365SOL    HW233226   3.925   3.691   4.502 -0.4098 -1.9363  1.1881
 8365SOL    HW333227   4.069   3.674   4.460 -0.2574  1.1067  0.2616
 8365SOL    MW433228   3.988   3.644   4.464  0.1260 -0.0906 -0.4018
 8366SOL     OW33229   4.396   4.316   5.932 -0.1021 -0.2616 -0.5059
 8366SOL    HW233230   4.407   4.240   5.875  0.1730 -0.9252  0.4112
 8366SOL    HW333231   4.433   4.389   5.882  2.2102 -1.2109 -0.3202
 8366SOL    MW433232   4.402   4.316   5.918  0.2393 -0.4744 -0.3604
 8367SOL     OW33233   0.747   5.501   1.217 -0.5838  0.5311  0.1577
 8367SOL    HW233234   0.828   5.528   1.172 -0.4659  0.8199  0.5384
 8367SOL    HW333235   0.768   5.509   1.310 -1.0202  0.5083  0.2594
 8367SOL    MW433236   0.761   5.506   1.224 -0.6258  0.5662  0.2214
 8368SOL     OW33237   2.890   2.686   2.051 -0.5619  0.1322 -0.4490
 8368SOL    HW233238   2.966   2.741   2.069  1.4148 -2.1466 -1.2509
 8368SOL    HW333239   2.892   2.618   2.118 -0.8109 -0.9683 -1.5018
 8368SOL    MW433240   2.900   2.684   2.062 -0.3339 -0.3136 -0.6937
 8369SOL     OW33241   3.189   5.210   1.137  0.0723  0.0683  0.2650
 8369SOL    HW233242   3.159   5.265   1.210  0.6415  0.4277  0.2369
 8369SOL    HW333243   3.243   5.143   1.178  1.6710  1.1777  0.0514
 8369SOL    MW433244   3.192   5.209   1.152  0.3584  0.2621  0.2331
 8370SOL     OW33245   6.159   0.476   2.228 -0.9486 -0.0822 -0.2992
 8370SOL    HW233246   6.231   0.414   2.216  0.3150  1.3455 -0.4068
 8370SOL    HW333247   6.109   0.441   2.302  0.5148 -0.5332  0.5132
 8370SOL    MW433248   6.162   0.463   2.236 -0.5888  0.0466 -0.2062
 8371SOL     OW33249   6.241   4.157   5.621  0.9617 -0.4427 -0.1445
 8371SOL    HW233250   6.334   4.165   5.641  0.8303  1.1125 -0.0200
 8371SOL    HW333251   6.233   4.072   5.578  2.2360 -1.1341  0.9055
 8371SOL    MW433252   6.252   4.147   5.618  1.1125 -0.3287  0.0105
 8372SOL     OW33253   1.562   4.374   3.575  0.1432  0.8424 -0.0721
 8372SOL    HW233254   1.468   4.355   3.569  0.4973 -1.5774  0.8519
 8372SOL    HW333255   1.598   4.342   3.492  0.2574  0.9371 -0.0586
 8372SOL    MW433256   1.555   4.367   3.563  0.2050  0.5356  0.0516
 8373SOL     OW33257   5.928   0.032   3.120 -0.0428  0.6103 -0.0062
 8373SOL    HW233258   5.948   0.124   3.140  0.8664  0.4986 -0.3640
 8373SOL    HW333259   5.834   0.025   3.133 -0.5242  2.1543 -2.1202
 8373SOL    MW433260   5.918   0.044   3.124  0.0136  0.7993 -0.3323
 8374SOL     OW33261   0.141   5.892   0.843 -0.1269  0.8124  0.5194
 8374SOL    HW233262   0.183   5.828   0.900  2.7737  1.3199 -0.8593
 8374SOL    HW333263   0.178   5.976   0.870  0.6778  1.1541 -1.4679
 8374SOL    MW433264   0.151   5.895   0.854  0.3620  0.9244  0.0753
 8375SOL     OW33265   4.024   4.539   6.111  0.4153  0.7398  0.1417
 8375SOL    HW233266   3.969   4.502   6.180  0.0404 -0.2422 -0.6543
 8375SOL    HW333267   4.069   4.463   6.074  1.2453  1.3591 -0.1465
 8375SOL    MW433268   4.023   4.524   6.116  0.4754  0.6920 -0.0014
 8376SOL     OW33269   2.745   6.343   1.840 -0.1080 -0.0053 -0.1262
 8376SOL    HW233270   2.698   6.334   1.923  0.0321 -2.0676 -0.2131
 8376SOL    HW333271   2.835   6.365   1.866 -0.7406  2.6929  0.0812
 8376SOL    MW433272   2.751   6.345   1.855 -0.1729  0.0786 -0.1103
 8377SOL     OW33273   1.968   2.947   3.665 -0.1239 -0.5517 -0.5536
 8377SOL    HW233274   1.959   3.014   3.598  0.9877 -0.9709 -1.1386
 8377SOL    HW333275   2.021   2.988   3.733  1.4073 -1.1264 -1.3586
 8377SOL    MW433276   1.974   2.961   3.665  0.2248 -0.6828 -0.7370
 8378SOL     OW33277   3.702   4.593   0.501  0.4798  0.6531  0.3239
 8378SOL    HW233278   3.616   4.585   0.542 -0.6331  0.3155 -1.8821
 8378SOL    HW333279   3.731   4.503   0.488 -0.5523  0.5957 -2.1349
 8378SOL    MW433280   3.694   4.580   0.504  0.1968  0.6010 -0.2915
 8379SOL     OW33281   3.659   5.945   2.344 -0.5628  0.4373  0.0523
 8379SOL    HW233282   3.702   5.994   2.274  2.4801 -0.4791  1.0820
 8379SOL    HW333283   3.617   6.012   2.398  1.7346  1.8196  0.2881
 8379SOL    MW433284   3.659   5.961   2.342  0.1417  0.4988  0.2192
 8380SOL     OW33285   3.909   2.393   2.045 -0.2901 -0.3151  0.3323
 8380SOL    HW233286   3.889   2.318   2.102  0.5297  0.2600  1.4115
 8380SOL    HW333287   3.825   2.416   2.007 -0.3670 -2.5754 -1.0520
 8380SOL    MW433288   3.895   2.386   2.048 -0.1921 -0.5374  0.2921
 8381SOL     OW33289   4.154   5.022   0.854 -0.2079  0.0181 -0.2042
 8381SOL    HW233290   4.219   4.971   0.804 -0.9989 -0.4614 -0.7597
 8381SOL    HW333291   4.140   5.100   0.802 -0.5587 -0.1807 -0.4055
 8381SOL    MW433292   4.161   5.026   0.841 -0.3586 -0.0714 -0.3040
 8382SOL     OW33293   1.029   3.548   5.437 -0.3944 -0.4858 -0.0722
 8382SOL    HW233294   1.108   3.511   5.477  0.2644  1.0999  0.1637
 8382SOL    HW333295   1.003   3.483   5.372  1.5651 -0.6984 -0.7116
 8382SOL    MW433296   1.036   3.535   5.434 -0.0489 -0.3047 -0.1255
 8383SOL     OW33297   3.057   4.454   2.597  0.3468  0.1090 -0.8957
 8383SOL    HW233298   2.985   4.510   2.625  0.4155  0.2892 -1.0804
 8383SOL    HW333299   3.021   4.365   2.600  0.1951  0.1757 -0.7431
 8383SOL    MW433300   3.043   4.449   2.601  0.3359  0.1416 -0.8999
 8384SOL     OW33301   5.311   4.482   2.260  0.0603 -0.1437 -0.0096
 8384SOL    HW233302   5.341   4.452   2.345 -1.4367  2.3268  1.5171
 8384SOL    HW333303   5.338   4.574   2.256  1.5198 -0.5773 -2.9615
 8384SOL    MW433304   5.319   4.490   2.270  0.0554  0.1251 -0.1976
 8385SOL     OW33305   0.286   2.437   5.211 -0.3527  0.4103 -0.1882
 8385SOL    HW233306   0.324   2.468   5.128 -0.3124  1.5474  0.2481
 8385SOL    HW333307   0.249   2.515   5.252  1.7878  0.3695  2.0414
 8385SOL    MW433308   0.286   2.451   5.205 -0.0650  0.5549  0.1636
 8386SOL     OW33309   0.791   3.102   1.009 -0.0608 -0.3832 -0.9928
 8386SOL    HW233310   0.843   3.041   1.061  0.7586 -1.7047 -3.1860
 8386SOL    HW333311   0.735   3.046   0.954 -2.6362  0.9706  0.0622
 8386SOL    MW433312   0.790   3.087   1.008 -0.2925 -0.3790 -1.1429
 8387SOL     OW33313   5.864   6.211   1.235 -0.8228 -0.0353 -0.3883
 8387SOL    HW233314   5.815   6.217   1.317  0.5447  0.5572  0.4390
 8387SOL    HW333315   5.891   6.120   1.230  0.0081  0.1414  0.4308
 8387SOL    MW433316   5.861   6.200   1.245 -0.5328  0.0662 -0.1711
 8388SOL     OW33317   0.560   0.658   4.475 -0.0249 -0.0518 -0.2675
 8388SOL    HW233318   0.622   0.685   4.543  0.5751  1.6309 -1.4324
 8388SOL    HW333319   0.516   0.738   4.449 -1.8190 -1.0195 -0.3799
 8388SOL    MW433320   0.562   0.672   4.480 -0.1824  0.0425 -0.4361
 8389SOL     OW33321   1.804   0.169   3.535 -0.0448  0.2688 -0.4800
 8389SOL    HW233322   1.784   0.233   3.466 -1.2752 -0.5630 -0.9271
 8389SOL    HW333323   1.768   0.087   3.502  1.6638 -0.7293 -0.0074
 8389SOL    MW433324   1.797   0.166   3.521  0.0183  0.0273 -0.4766
 8390SOL     OW33325   6.163   4.220   1.496  0.1204 -0.0449  0.3220
 8390SOL    HW233326   6.240   4.198   1.443 -0.0829  1.8584 -0.8334
 8390SOL    HW333327   6.189   4.297   1.546 -1.8354  2.5561 -2.3122
 8390SOL    MW433328   6.177   4.227   1.496 -0.1645  0.5494 -0.1780
 8391SOL     OW33329   4.600   0.513   1.514  0.2758 -0.4201 -0.5303
 8391SOL    HW233330   4.686   0.513   1.474  0.7142 -1.1106  0.3597
 8391SOL    HW333331   4.541   0.484   1.445  0.4161  1.8753 -1.7338
 8391SOL    MW433332   4.603   0.509   1.500  0.3522 -0.2084 -0.5717
 8392SOL     OW33333   0.977   5.668   0.730 -0.4080 -0.1439  0.0305
 8392SOL    HW233334   0.886   5.695   0.731 -0.1050  0.9136 -0.1005
 8392SOL    HW333335   1.009   5.695   0.644  0.5191  1.2320  0.7654
 8392SOL    MW433336   0.969   5.675   0.719 -0.2457  0.1772  0.1102
 8393SOL     OW33337   0.676   5.384   0.257 -0.2016 -0.1823 -0.1668
 8393SOL    HW233338   0.616   5.353   0.189  0.4103  1.5640 -1.5861
 8393SOL    HW333339   0.728   5.452   0.214  1.7616 -0.5737  1.4527
 8393SOL    MW433340   0.675   5.389   0.242  0.1381 -0.0035 -0.1404
 8394SOL     OW33341   4.787   2.076   5.768  0.1704  0.0155 -0.2859
 8394SOL    HW233342   4.868   2.080   5.718  1.2727  2.3098  1.4691
 8394SOL    HW333343   4.781   1.986   5.799  2.1826 -0.1474 -0.2608
 8394SOL    MW433344   4.797   2.065   5.765  0.5813  0.2967 -0.0511
 8395SOL     OW33345   4.443   0.548   4.269 -0.0253 -0.3139 -0.4556
 8395SOL    HW233346   4.493   0.630   4.275  0.3690 -0.4014 -1.9745
 8395SOL    HW333347   4.430   0.536   4.175 -0.9630 -1.4803 -0.1966
 8395SOL    MW433348   4.448   0.557   4.257 -0.0970 -0.4793 -0.6219
 8396SOL     OW33349   0.632   2.690   1.097  0.0956  0.2557  0.4312
 8396SOL    HW233350   0.658   2.606   1.136  2.3035  0.6642  0.0011
 8396SOL    HW333351   0.652   2.755   1.164  1.6867  0.7319 -0.4507
 8396SOL    MW433352   0.638   2.687   1.111  0.5968  0.3724  0.2581
 8397SOL     OW33353   0.726   6.398   6.152  0.0560  0.2159  0.4361
 8397SOL    HW233354   0.786   6.468   6.177 -1.6025  1.6443  0.6498
 8397SOL    HW333355   0.650   6.443   6.115 -0.5709 -1.5459 -0.5640
 8397SOL    MW433356   0.724   6.413   6.151 -0.2455  0.1719  0.3323
 8398SOL     OW33357   2.689   5.380   6.069  0.2536 -0.2571  0.6187
 8398SOL    HW233358   2.622   5.317   6.043  0.0142 -0.2013  1.0911
 8398SOL    HW333359   2.652   5.465   6.047  0.0585 -0.2108  1.1125
 8398SOL    MW433360   2.675   5.382   6.063  0.1963 -0.2437  0.7462
 8399SOL     OW33361   0.690   6.187   3.230 -0.0122  0.0625  0.9493
 8399SOL    HW233362   0.756   6.232   3.282 -1.5615  2.8485  0.7193
 8399SOL    HW333363   0.705   6.217   3.140 -1.1999  0.3337  0.8126
 8399SOL    MW433364   0.700   6.197   3.225 -0.3733  0.4658  0.9009
 8400SOL     OW33365   4.360   0.138   1.440 -0.1464 -0.6882 -0.1103
 8400SOL    HW233366   4.392   0.228   1.432 -0.7775 -0.1756  2.2164
 8400SOL    HW333367   4.279   0.136   1.389  0.0894 -0.0568 -0.5198
 8400SOL    MW433368   4.354   0.150   1.432 -0.1986 -0.5372  0.1426
 8401SOL     OW33369   6.154   3.647   5.368 -0.0533 -0.9104  0.4348
 8401SOL    HW233370   6.195   3.618   5.449  1.0716  0.1128  0.2509
 8401SOL    HW333371   6.062   3.660   5.391  0.3391 -0.1682  1.6706
 8401SOL    MW433372   6.147   3.645   5.382  0.1469 -0.6775  0.5736
 8402SOL     OW33373   3.546   2.490   4.590  0.1840  0.1166  0.2496
 8402SOL    HW233374   3.529   2.508   4.498  1.4905  0.9036  0.1300
 8402SOL    HW333375   3.476   2.537   4.637  0.0849  0.5280 -0.3030
 8402SOL    MW433376   3.534   2.499   4.584  0.3433  0.2747  0.1609
 8403SOL     OW33377   3.592   5.062   2.511  0.1737 -0.2598 -0.3118
 8403SOL    HW233378   3.552   5.062   2.598  0.1194 -2.7552 -0.2676
 8403SOL    HW333379   3.546   4.993   2.463  0.4755  0.7833 -2.2200
 8403SOL    MW433380   3.581   5.053   2.516  0.2064 -0.4514 -0.5577
 8404SOL     OW33381   5.310   6.218   2.122  0.4187 -0.7257  0.1303
 8404SOL    HW233382   5.263   6.217   2.205  0.7223  0.4058  0.3255
 8404SOL    HW333383   5.309   6.127   2.093 -0.0842 -1.0557  1.1480
 8404SOL    MW433384   5.304   6.206   2.129  0.3924 -0.6199  0.2904
 8405SOL     OW33385   2.804   4.426   4.166  0.4668  0.5080  0.4507
 8405SOL    HW233386   2.829   4.354   4.225  0.9255  0.4730  0.2198
 8405SOL    HW333387   2.841   4.504   4.207  1.2795  0.4136 -0.0641
 8405SOL    MW433388   2.812   4.427   4.179  0.6345  0.4909  0.3523
 8406SOL     OW33389   2.833   3.005   5.471 -0.6281  0.0635 -0.1954
 8406SOL    HW233390   2.886   3.081   5.498 -1.4041  0.8067 -0.6917
 8406SOL    HW333391   2.887   2.929   5.492 -0.3668  0.6874  1.5564
 8406SOL    MW433392   2.847   3.005   5.477 -0.6960  0.2439 -0.0297
 8407SOL     OW33393   1.876   6.099   4.575 -0.0181  0.1707 -0.4379
 8407SOL    HW233394   1.933   6.104   4.653 -0.1418 -0.1044 -0.3306
 8407SOL    HW333395   1.888   6.184   4.532 -1.2415  1.0011  0.7867
 8407SOL    MW433396   1.885   6.111   4.580 -0.1958  0.2440 -0.2622
 8408SOL     OW33397   1.273   6.321   3.803 -0.0640 -0.4479 -0.0926
 8408SOL    HW233398   1.251   6.410   3.829  1.9573  0.4521 -1.2718
 8408SOL    HW333399   1.363   6.308   3.832 -0.3933 -2.2267  0.2910
 8408SOL    MW433400   1.282   6.331   3.810  0.1593 -0.5638 -0.1976
 8409SOL     OW33401   3.203   1.884   1.421  0.5594  0.6279  0.4642
 8409SOL    HW233402   3.270   1.827   1.459  0.0034 -0.0048  0.5177
 8409SOL    HW333403   3.244   1.970   1.415  0.9145  0.5611  1.7758
 8409SOL    MW433404   3.217   1.887   1.425  0.5329  0.5356  0.6443
 8410SOL     OW33405   4.329   6.041   3.652 -0.3253 -0.1050 -0.1867
 8410SOL    HW233406   4.400   5.995   3.606 -0.9540 -2.3738  0.9533
 8410SOL    HW333407   4.330   6.003   3.740 -0.2781  2.8505  1.2099
 8410SOL    MW433408   4.339   6.030   3.657 -0.4020 -0.0144  0.1480
 8411SOL     OW33409   2.280   1.753   0.068 -0.0656 -0.0145  0.2746
 8411SOL    HW233410   2.211   1.691   0.090  0.4102 -0.9300 -0.7603
 8411SOL    HW333411   2.360   1.700   0.064  0.4705  0.7852  0.0715
 8411SOL    MW433412   2.282   1.738   0.071  0.0679 -0.0298  0.1113
 8412SOL     OW33413   3.188   3.160   5.243  0.4769  0.3023 -0.7735
 8412SOL    HW233414   3.259   3.122   5.294 -1.5193 -0.1155  1.8828
 8412SOL    HW333415   3.199   3.255   5.254  1.6923  0.3460 -2.0327
 8412SOL    MW433416   3.199   3.168   5.251  0.3739  0.2530 -0.5892
 8413SOL     OW33417   1.309   3.643   3.002 -0.5241 -0.1244  0.3521
 8413SOL    HW233418   1.326   3.690   3.084 -0.5520 -0.3826  0.5060
 8413SOL    HW333419   1.217   3.617   3.009 -0.0283 -1.7921  1.0820
 8413SOL    MW433420   1.299   3.646   3.014 -0.4623 -0.3785  0.4687
 8414SOL     OW33421   0.067   5.491   2.050 -0.6056  0.0524 -0.6782
 8414SOL    HW233422   0.076   5.585   2.064  0.0202  0.3796 -2.9436
 8414SOL    HW333423   0.053   5.482   1.956 -1.9648 -2.0471 -0.3337
 8414SOL    MW433424   0.066   5.502   2.040 -0.7023 -0.1815 -0.9317
 8415SOL     OW33425   6.249   6.422   1.908 -0.0688 -0.2373 -0.3380
 8415SOL    HW233426   6.162   6.383   1.895 -0.2426 -0.1100  0.3857
 8415SOL    HW333427   6.290   6.367   1.975 -0.0439  0.3840  0.1659
 8415SOL    MW433428   6.243   6.409   1.915 -0.0884 -0.1385 -0.1760
 8416SOL     OW33429   1.977   0.760   1.736  0.0598  0.1045 -0.4158
 8416SOL    HW233430   1.942   0.796   1.818  0.4177  2.0789 -1.0851
 8416SOL    HW333431   2.072   0.756   1.752  0.0657 -0.0908 -0.5089
 8416SOL    MW433432   1.985   0.764   1.749  0.1078  0.3392 -0.5164
 8417SOL     OW33433   3.633   2.969   2.183 -0.0038  0.0076 -0.3199
 8417SOL    HW233434   3.558   2.939   2.235 -0.1071  1.0112  0.1452
 8417SOL    HW333435   3.649   3.058   2.215  1.8944 -0.4602  0.1535
 8417SOL    MW433436   3.625   2.977   2.194  0.2330  0.0783 -0.1961
 8418SOL     OW33437   5.227   5.873   3.674  0.1339 -0.0169 -0.5365
 8418SOL    HW233438   5.160   5.881   3.742  1.1843 -0.6952  0.6025
 8418SOL    HW333439   5.258   5.963   3.661 -0.8785  0.2860 -0.9822
 8418SOL    MW433440   5.222   5.886   3.681  0.1389 -0.0664 -0.4450
 8419SOL     OW33441   5.159   0.869   3.780  0.5855 -0.6932  0.2781
 8419SOL    HW233442   5.133   0.782   3.809 -1.2013 -0.4409 -0.4275
 8419SOL    HW333443   5.182   0.857   3.687  0.8966 -0.5056  0.3286
 8419SOL    MW433444   5.159   0.856   3.771  0.3908 -0.6352  0.1917
 8420SOL     OW33445   5.907   4.942   6.288  0.1296  0.0888  0.3199
 8420SOL    HW233446   5.912   5.029   6.328 -4.9258  1.2365 -0.9443
 8420SOL    HW333447   5.875   4.886   6.358  1.1432 -0.2745  0.5062
 8420SOL    MW433448   5.904   4.946   6.303 -0.4036  0.1923  0.1777
 8421SOL     OW33449   1.531   6.290   1.177  0.3640  0.2833 -0.2378
 8421SOL    HW233450   1.454   6.242   1.206  1.2512 -0.3435  1.1983
 8421SOL    HW333451   1.513   6.311   1.085 -2.3596  1.8977  0.5457
 8421SOL    MW433452   1.519   6.287   1.168  0.1217  0.4136  0.0551
 8422SOL     OW33453   0.718   2.446   1.217  0.0618  0.3384  0.1907
 8422SOL    HW233454   0.637   2.397   1.231 -0.2332  1.2882  2.0948
 8422SOL    HW333455   0.755   2.456   1.304  0.6715  2.5766 -0.2774
 8422SOL    MW433456   0.712   2.441   1.230  0.1033  0.7590  0.3802
 8423SOL     OW33457   4.647   0.887   1.579 -0.8180  0.3829 -0.3174
 8423SOL    HW233458   4.666   0.836   1.657 -0.7578  1.4675  0.3948
 8423SOL    HW333459   4.646   0.978   1.609 -0.3410  0.8610 -1.6567
 8423SOL    MW433460   4.650   0.892   1.593 -0.7472  0.5891 -0.4002
 8424SOL     OW33461   4.654   1.061   5.971 -0.1009 -0.2699 -0.1390
 8424SOL    HW233462   4.588   1.029   5.910 -0.8412 -0.0891  0.5530
 8424SOL    HW333463   4.712   1.115   5.917 -0.9125  0.1247 -0.6358
 8424SOL    MW433464   4.653   1.064   5.956 -0.3056 -0.1940 -0.1133
 8425SOL     OW33465   6.013   4.405   5.263 -1.2665 -0.3876 -0.1290
 8425SOL    HW233466   5.940   4.346   5.247 -1.2984 -0.1189 -1.0353
 8425SOL    HW333467   6.091   4.354   5.240 -1.2881 -0.1249 -0.8186
 8425SOL    MW433468   6.014   4.390   5.258 -1.2735 -0.3175 -0.3395
 8426SOL     OW33469   3.782   3.926   0.359  0.2315 -0.7539 -0.0423
 8426SOL    HW233470   3.826   4.005   0.326 -1.0501 -0.1509 -0.3460
 8426SOL    HW333471   3.827   3.906   0.441  1.3094 -0.3785 -0.5116
 8426SOL    MW433472   3.794   3.934   0.365  0.2046 -0.6248 -0.1443
 8427SOL     OW33473   3.722   0.401   5.048 -0.6283  0.3962 -0.1632
 8427SOL    HW233474   3.805   0.360   5.069 -0.1953  0.8374 -0.9561
 8427SOL    HW333475   3.708   0.465   5.118  0.4570  1.3798 -0.8035
 8427SOL    MW433476   3.731   0.404   5.060 -0.4280  0.5842 -0.3523
 8428SOL     OW33477   0.876   2.613   3.445  0.4996 -0.1322  0.1395
 8428SOL    HW233478   0.826   2.694   3.456  0.7382 -0.0615  0.7173
 8428SOL    HW333479   0.911   2.619   3.356  0.5435  0.4168  0.1887
 8428SOL    MW433480   0.874   2.624   3.434  0.5369 -0.0504  0.2222
 8429SOL     OW33481   5.215   1.064   0.130  0.5129  0.1577  0.2591
 8429SOL    HW233482   5.134   1.014   0.128  0.9609 -0.6148  1.2176
 8429SOL    HW333483   5.228   1.087   0.222  0.0200  2.5758 -0.1895
 8429SOL    MW433484   5.206   1.061   0.142  0.5069  0.3748  0.3263
 8430SOL     OW33485   6.272   5.157   3.061  0.3471  0.3399  0.1774
 8430SOL    HW233486   6.234   5.225   3.005 -0.1498 -0.1803 -0.1250
 8430SOL    HW333487   6.239   5.075   3.025  0.4358 -0.0309  0.9242
 8430SOL    MW433488   6.262   5.155   3.049  0.2933  0.2223  0.2361
 8431SOL     OW33489   4.217   1.457   1.574 -0.1848 -0.8093 -0.2654
 8431SOL    HW233490   4.126   1.472   1.548 -0.9183 -2.8573  0.8889
 8431SOL    HW333491   4.231   1.364   1.559  1.3190 -0.7827  0.7617
 8431SOL    MW433492   4.207   1.447   1.569 -0.0832 -1.0760  0.0224
 8432SOL     OW33493   0.235   1.893   3.840  0.2457  0.0137  0.2278
 8432SOL    HW233494   0.211   1.956   3.908 -0.0755 -0.2118  0.3236
 8432SOL    HW333495   0.157   1.839   3.828  1.0493 -1.4483  1.3408
 8432SOL    MW433496   0.221   1.894   3.847  0.3093 -0.2089  0.3873
 8433SOL     OW33497   6.126   4.805   2.623 -0.2033 -0.0010 -0.5810
 8433SOL    HW233498   6.139   4.736   2.559  0.0595 -0.9347  0.4385
 8433SOL    HW333499   6.055   4.773   2.679 -0.3787  0.7478 -0.3648
 8433SOL    MW433500   6.119   4.792   2.622 -0.1918 -0.0254 -0.4179
 8434SOL     OW33501   6.380   2.533   1.756  0.2291  0.1943 -0.0730
 8434SOL    HW233502   6.469   2.528   1.721 -0.5597 -2.2853 -2.0254
 8434SOL    HW333503   6.326   2.557   1.680 -1.0303 -0.7344  0.4963
 8434SOL    MW433504   6.384   2.536   1.741 -0.0412 -0.2554 -0.2554
 8435SOL     OW33505   1.093   0.218   4.594  0.0269 -0.1497  0.1594
 8435SOL    HW233506   1.142   0.145   4.556 -0.2337 -1.3057  1.9620
 8435SOL    HW333507   1.029   0.177   4.652  1.1706  1.5052  2.7648
 8435SOL    MW433508   1.091   0.203   4.597  0.1434 -0.0839  0.7410
 8436SOL     OW33509   0.049   3.379   3.474  0.1891  0.1223 -0.1448
 8436SOL    HW233510   0.034   3.347   3.385 -1.0827  0.4294 -0.0626
 8436SOL    HW333511   0.052   3.300   3.528 -3.8573 -0.0030  0.1953
 8436SOL    MW433512   0.048   3.364   3.470 -0.5126  0.1463 -0.0891
 8437SOL     OW33513   5.387   2.671   5.737 -0.1439 -0.8943  0.0520
 8437SOL    HW233514   5.438   2.734   5.685 -1.5918 -0.1249 -0.5160
 8437SOL    HW333515   5.355   2.722   5.811 -1.1505 -0.9976 -0.2960
 8437SOL    MW433516   5.389   2.686   5.740 -0.4677 -0.8064 -0.0689
 8438SOL     OW33517   1.387   3.520   4.345 -0.1133 -0.4778  0.2132
 8438SOL    HW233518   1.418   3.533   4.434 -0.1917 -0.8264  0.2908
 8438SOL    HW333519   1.298   3.488   4.354  0.3738 -1.9586  0.0486
 8438SOL    MW433520   1.379   3.517   4.358 -0.0593 -0.7192  0.2017
 8439SOL     OW33521   1.134   3.087   1.870 -0.4617  0.0467 -0.9747
 8439SOL    HW233522   1.074   3.122   1.935 -0.7389  0.5924 -1.5204
 8439SOL    HW333523   1.157   3.000   1.903  0.7461  0.9568  0.7317
 8439SOL    MW433524   1.129   3.080   1.883 -0.3389  0.2387 -0.8216
 8440SOL     OW33525   2.317   5.886   0.404 -0.2233  0.3878 -0.6144
 8440SOL    HW233526   2.340   5.794   0.414 -0.0462  0.4207 -0.6974
 8440SOL    HW333527   2.236   5.886   0.354 -0.7027  0.2501  0.1611
 8440SOL    MW433528   2.310   5.874   0.399 -0.2632  0.3740 -0.5230
 8441SOL     OW33529   4.789   0.499   6.110 -0.3370  1.0612  0.3470
 8441SOL    HW233530   4.712   0.507   6.167 -0.8832  2.4203 -0.5251
 8441SOL    HW333531   4.864   0.516   6.168 -0.4339 -2.3355  1.6849
 8441SOL    MW433532   4.789   0.502   6.125 -0.4219  0.7923  0.4084
 8442SOL     OW33533   3.614   6.438   0.782  0.6349  0.8155  0.1288
 8442SOL    HW233534   3.573   6.452   0.868 -0.4967  0.9369 -0.4117
 8442SOL    HW333535   3.542   6.446   0.720  1.1585 -0.8001 -0.7359
 8442SOL    MW433536   3.599   6.441   0.785  0.5547  0.6184 -0.0566
 8443SOL     OW33537   2.176   6.205   5.992 -0.1516 -0.4704 -0.2675
 8443SOL    HW233538   2.209   6.233   5.906 -0.9907  1.5551  0.0089
 8443SOL    HW333539   2.242   6.236   6.054  0.1961 -1.4716 -0.1244
 8443SOL    MW433540   2.189   6.213   5.989 -0.2164 -0.3352 -0.2121
 8444SOL     OW33541   0.965   5.687   6.279 -0.4538  0.1825 -0.7581
 8444SOL    HW233542   0.891   5.628   6.296  1.2000 -1.7507  0.1637
 8444SOL    HW333543   0.946   5.765   6.332 -1.9115 -0.1615 -0.7234
 8444SOL    MW433544   0.953   5.690   6.289 -0.4279 -0.1180 -0.6319
 8445SOL     OW33545   0.908   2.359   4.357  0.1685 -0.4942  0.4336
 8445SOL    HW233546   0.856   2.294   4.311 -1.2946 -0.2764  1.6920
 8445SOL    HW333547   0.848   2.433   4.371  1.4095  0.6127  0.1698
 8445SOL    MW433548   0.893   2.360   4.353  0.1392 -0.3194  0.5648
 8446SOL     OW33549   2.448   0.561   0.879 -0.3430 -0.1140 -0.6220
 8446SOL    HW233550   2.508   0.519   0.941  0.3374 -0.9602 -1.8016
 8446SOL    HW333551   2.468   0.654   0.886  0.6475 -0.3215 -0.4900
 8446SOL    MW433552   2.459   0.567   0.888 -0.1225 -0.2530 -0.7602
 8447SOL     OW33553   4.374   2.817   4.248 -0.5040  0.1511  0.3462
 8447SOL    HW233554   4.395   2.795   4.157  0.6520  0.5444  0.5032
 8447SOL    HW333555   4.282   2.792   4.258 -0.4838 -0.4330 -0.7612
 8447SOL    MW433556   4.365   2.811   4.237 -0.3488  0.1259  0.2208
 8448SOL     OW33557   2.255   1.345   0.135 -0.1512 -0.0203 -0.4375
 8448SOL    HW233558   2.212   1.269   0.096 -0.8309  0.4592 -0.6351
 8448SOL    HW333559   2.348   1.331   0.118 -0.1642 -1.2587  0.3257
 8448SOL    MW433560   2.262   1.333   0.128 -0.2426 -0.1204 -0.3629
 8449SOL     OW33561   0.495   3.530   0.297 -0.2365  0.0493 -0.4348
 8449SOL    HW233562   0.482   3.524   0.391  0.3985  1.3345 -0.2512
 8449SOL    HW333563   0.407   3.529   0.260 -0.4910 -0.2158  0.1733
 8449SOL    MW433564   0.482   3.529   0.304 -0.1863  0.1839 -0.3304
 8450SOL     OW33565   0.474   1.984   5.429  0.3015  0.3223 -0.2406
 8450SOL    HW233566   0.392   1.961   5.385  1.2349 -0.2796 -1.7248
 8450SOL    HW333567   0.460   2.074   5.461 -0.9866  0.1560 -0.3019
 8450SOL    MW433568   0.461   1.993   5.427  0.2547  0.2210 -0.4445
 8451SOL     OW33569   3.123   1.968   5.788  0.0177  0.5120  0.0516
 8451SOL    HW233570   3.113   1.875   5.770 -1.0378  0.3660  1.2573
 8451SOL    HW333571   3.036   2.005   5.775  0.1580  1.1160  0.7524
 8451SOL    MW433572   3.110   1.961   5.784 -0.1030  0.5724  0.3032
 8452SOL     OW33573   4.900   4.475   2.502 -0.1721 -0.1619  0.2129
 8452SOL    HW233574   4.913   4.569   2.485 -0.6978 -0.1874 -0.3765
 8452SOL    HW333575   4.810   4.469   2.534 -0.4530 -0.5684 -0.6347
 8452SOL    MW433576   4.890   4.487   2.504 -0.2785 -0.2189  0.0233
 8453SOL     OW33577   4.223   4.580   4.076  0.1117 -0.2011 -0.2651
 8453SOL    HW233578   4.296   4.545   4.023  0.4864  1.1177 -0.6536
 8453SOL    HW333579   4.261   4.654   4.123 -1.0878  0.8192 -0.8506
 8453SOL    MW433580   4.238   4.585   4.075  0.0029  0.1075 -0.3936
 8454SOL     OW33581   6.085   1.160   6.081 -0.2565  0.3414  0.7646
 8454SOL    HW233582   6.053   1.146   6.170  1.1621  0.4383  1.3240
 8454SOL    HW333583   6.167   1.110   6.077  0.0519  0.8849 -0.2649
 8454SOL    MW433584   6.092   1.151   6.092 -0.0286  0.4259  0.7026
 8455SOL     OW33585   6.369   6.188   2.049  0.1318  0.2729  0.4643
 8455SOL    HW233586   6.346   6.128   1.977 -1.3071  0.6105  0.6243
 8455SOL    HW333587   6.454   6.224   2.023 -0.3593  0.3866 -1.0821
 8455SOL    MW433588   6.377   6.184   2.036 -0.1228  0.3324  0.2814
 8456SOL     OW33589   2.312   5.038   3.212  0.3772 -0.0988 -0.3133
 8456SOL    HW233590   2.252   4.988   3.156  1.7535 -1.6048 -0.5044
 8456SOL    HW333591   2.397   4.996   3.200  1.6337  2.2652 -0.4499
 8456SOL    MW433592   2.316   5.026   3.203  0.7245  0.0144 -0.3565
 8457SOL     OW33593   1.400   6.052   4.019 -0.0596  0.1733 -0.2729
 8457SOL    HW233594   1.495   6.036   4.021 -0.1041 -0.0869 -0.1784
 8457SOL    HW333595   1.367   6.009   4.098  0.0463  2.2518  0.9820
 8457SOL    MW433596   1.408   6.044   4.030 -0.0515  0.4132 -0.0949
 8458SOL     OW33597   0.056   6.406   1.105 -0.0507 -0.0328  0.0077
 8458SOL    HW233598   0.078   6.497   1.084 -1.2417  0.0825 -0.8395
 8458SOL    HW333599  -0.020   6.386   1.050 -1.0227 -0.9120  1.5815
 8458SOL    MW433600   0.049   6.416   1.095 -0.3361 -0.1336  0.1035
 8459SOL     OW33601   2.933   2.857   0.583 -0.6829  0.5922  0.1760
 8459SOL    HW233602   3.021   2.893   0.570 -0.1696 -0.7988 -0.4800
 8459SOL    HW333603   2.880   2.931   0.612  0.3955  1.7607 -0.7277
 8459SOL    MW433604   2.938   2.871   0.585 -0.4729  0.5629 -0.0298
 8460SOL     OW33605   1.815   5.336   1.086  0.0291  0.2529 -0.0029
 8460SOL    HW233606   1.774   5.406   1.035  1.2526 -0.5630 -2.1981
 8460SOL    HW333607   1.907   5.362   1.094  0.0186  0.0013  1.2089
 8460SOL    MW433608   1.822   5.349   1.080  0.1892  0.1120 -0.1326
 8461SOL     OW33609   5.256   1.026   2.071 -0.0156  0.0127  1.0727
 8461SOL    HW233610   5.224   0.982   2.149 -0.1334  0.0831  1.0651
 8461SOL    HW333611   5.278   0.955   2.010 -0.5527 -0.0287  0.9248
 8461SOL    MW433612   5.255   1.011   2.073 -0.1020  0.0165  1.0522
 8462SOL     OW33613   3.360   1.379   3.955 -0.4580 -0.2524 -0.0919
 8462SOL    HW233614   3.304   1.308   3.987 -2.5538  1.1539 -0.4411
 8462SOL    HW333615   3.322   1.404   3.871  0.0202  1.4970  0.1706
 8462SOL    MW433616   3.348   1.373   3.948 -0.6714  0.1640 -0.1033
 8463SOL     OW33617   1.545   4.214   3.806  0.2790  0.6615  0.1080
 8463SOL    HW233618   1.550   4.261   3.722  1.1133  0.3628 -0.0250
 8463SOL    HW333619   1.560   4.282   3.872 -2.1838  1.2498  0.1630
 8463SOL    MW433620   1.548   4.229   3.804  0.0641  0.6997  0.0977
 8464SOL     OW33621   4.027   6.037   0.825  0.4238 -0.6017  0.3249
 8464SOL    HW233622   3.999   6.069   0.910 -0.8447 -1.5223  0.2835
 8464SOL    HW333623   4.033   6.115   0.770  1.4518  0.0211  1.2941
 8464SOL    MW433624   4.024   6.051   0.829  0.3920 -0.6410  0.4473
 8465SOL     OW33625   1.991   5.997   2.323  0.1162 -0.1950  0.3779
 8465SOL    HW233626   1.916   6.030   2.371  0.0029  0.0531  0.0360
 8465SOL    HW333627   2.049   6.073   2.313 -0.3773  0.0530 -0.8520
 8465SOL    MW433628   1.989   6.011   2.328  0.0361 -0.1295  0.1705
 8466SOL     OW33629   5.464   3.326   1.715  0.2174  0.1760  0.1975
 8466SOL    HW233630   5.374   3.299   1.736  0.7191 -1.4623  0.3881
 8466SOL    HW333631   5.484   3.280   1.634  0.9330  0.4463  0.2187
 8466SOL    MW433632   5.454   3.316   1.707  0.3780 -0.0045  0.2255
 8467SOL     OW33633   4.733   3.454   4.208  0.3121 -0.6991 -0.1365
 8467SOL    HW233634   4.717   3.547   4.223  1.6731 -0.1315 -1.8846
 8467SOL    HW333635   4.786   3.427   4.283 -1.3584 -0.4964  1.1799
 8467SOL    MW433636   4.738   3.463   4.220  0.2713 -0.5975 -0.1935
 8468SOL     OW33637   2.190   0.357   5.558  0.2688 -0.0150 -0.5842
 8468SOL    HW233638   2.191   0.268   5.523  0.1874  0.0794 -0.8263
 8468SOL    HW333639   2.101   0.368   5.593  0.2054  0.0547 -0.7678
 8468SOL    MW433640   2.178   0.347   5.558  0.2497  0.0067 -0.6404
 8469SOL     OW33641   0.400   2.493   1.578 -0.6380 -0.4590  0.2780
 8469SOL    HW233642   0.414   2.535   1.493  0.1838 -2.4673 -0.6430
 8469SOL    HW333643   0.312   2.455   1.573 -0.9310  0.1599  0.6666
 8469SOL    MW433644   0.390   2.493   1.567 -0.5682 -0.6423  0.2078
 8470SOL     OW33645   3.425   0.045   5.501  0.1462 -0.6402 -0.1684
 8470SOL    HW233646   3.411   0.123   5.447 -3.8045 -0.5928  0.5937
 8470SOL    HW333647   3.410  -0.028   5.441  1.6595 -0.8229 -0.3712
 8470SOL    MW433648   3.421   0.046   5.486 -0.1754 -0.6581 -0.0946
 8471SOL     OW33649   0.161   1.902   1.798  0.4819 -0.2633  0.0630
 8471SOL    HW233650   0.151   1.922   1.892 -0.5213  2.2263 -0.4856
 8471SOL    HW333651   0.249   1.932   1.776  0.3367  0.1301  0.0089
 8471SOL    MW433652   0.171   1.908   1.808  0.3304  0.1171 -0.0165
 8472SOL     OW33653   2.107   5.718   2.551  0.2872 -0.4936  0.0475
 8472SOL    HW233654   2.056   5.644   2.584 -2.4694  1.1102 -0.2920
 8472SOL    HW333655   2.105   5.707   2.456 -0.6421  0.3070 -0.0312
 8472SOL    MW433656   2.100   5.706   2.543 -0.1991 -0.1764 -0.0077
 8473SOL     OW33657   3.050   6.253   4.180 -0.1696 -0.2431  0.2002
 8473SOL    HW233658   3.139   6.234   4.209  0.1240  0.2005 -0.3926
 8473SOL    HW333659   3.053   6.241   4.085 -0.4020  1.0812  0.0094
 8473SOL    MW433660   3.062   6.249   4.171 -0.1615 -0.0098  0.0968
 8474SOL     OW33661   5.099   2.338   5.226 -0.1715 -0.1347 -0.1868
 8474SOL    HW233662   5.125   2.259   5.272  0.0502 -1.0772 -1.8393
 8474SOL    HW333663   5.020   2.367   5.270 -0.2219 -1.2440  0.4879
 8474SOL    MW433664   5.092   2.332   5.238 -0.1489 -0.4054 -0.3158
 8475SOL     OW33665   1.454   4.238   4.673 -0.5996 -0.1043 -0.1949
 8475SOL    HW233666   1.404   4.187   4.737  0.4538 -0.0554  0.7055
 8475SOL    HW333667   1.506   4.298   4.727  0.5366 -0.2742 -1.0819
 8475SOL    MW433668   1.454   4.239   4.689 -0.3107 -0.1202 -0.1931
 8476SOL     OW33669   3.682   4.776   1.977 -0.3532 -0.2396 -0.0049
 8476SOL    HW233670   3.774   4.750   1.982 -0.4797 -0.7238 -0.1122
 8476SOL    HW333671   3.673   4.845   2.042  0.3000  0.4693 -0.6482
 8476SOL    MW433672   3.693   4.782   1.986 -0.2837 -0.2099 -0.1039
 8477SOL     OW33673   1.412   2.778   4.456  0.2072  0.6178  0.4113
 8477SOL    HW233674   1.375   2.768   4.544  0.5416  1.1831  0.6213
 8477SOL    HW333675   1.351   2.837   4.411  0.1088  0.4366  0.3074
 8477SOL    MW433676   1.399   2.784   4.462  0.2383  0.6684  0.4253
 8478SOL     OW33677   1.627   4.982   2.235 -0.2890  0.4600 -0.0534
 8478SOL    HW233678   1.596   4.893   2.222 -0.8537  0.7323 -0.6651
 8478SOL    HW333679   1.582   5.012   2.314  2.3333 -0.8407  2.1141
 8478SOL    MW433680   1.617   4.974   2.243 -0.0175  0.3243  0.1519
 8479SOL     OW33681   0.910   2.952   5.924 -0.0003 -0.0488  0.0783
 8479SOL    HW233682   0.971   2.959   5.998  0.8207  0.1043 -0.5978
 8479SOL    HW333683   0.923   2.863   5.891  1.2115  0.5627 -1.1942
 8479SOL    MW433684   0.920   2.941   5.929  0.2679  0.0521 -0.1788
 8480SOL     OW33685   3.739   0.769   0.726  0.7283 -0.0923  0.1633
 8480SOL    HW233686   3.696   0.729   0.650  0.4872 -1.3668  0.9321
 8480SOL    HW333687   3.676   0.834   0.758 -0.4079 -1.4837  0.8823
 8480SOL    MW433688   3.725   0.772   0.720  0.5465 -0.4440  0.3596
 8481SOL     OW33689   5.011   2.695   6.112  0.4681 -0.0775  0.0658
 8481SOL    HW233690   5.008   2.743   6.029  0.3685  1.0836  0.7189
 8481SOL    HW333691   4.919   2.678   6.133  0.4815 -0.1445  0.0722
 8481SOL    MW433692   4.998   2.699   6.104  0.4567  0.0669  0.1528
 8482SOL     OW33693   0.134   0.303   4.102  0.3448  0.9731  0.5112
 8482SOL    HW233694   0.175   0.301   4.016 -0.2790  0.9330  0.2108
 8482SOL    HW333695   0.144   0.214   4.135  0.0220  0.8220  0.2083
 8482SOL    MW433696   0.140   0.291   4.095  0.2199  0.9479  0.4316
 8483SOL     OW33697   3.823   1.211   2.790  0.0988  0.3676  0.0770
 8483SOL    HW233698   3.818   1.115   2.795 -1.3527  0.3980 -0.3017
 8483SOL    HW333699   3.731   1.240   2.793  0.5164  1.7444  0.1406
 8483SOL    MW433700   3.810   1.202   2.791 -0.0376  0.5532  0.0354
 8484SOL     OW33701   6.062   5.965   5.477 -0.6307 -0.0122  0.1765
 8484SOL    HW233702   6.101   5.934   5.559  0.8746  0.2342 -0.4056
 8484SOL    HW333703   6.038   5.885   5.430 -3.1650 -0.1497  1.5575
 8484SOL    MW433704   6.064   5.950   5.481 -0.7665  0.0021  0.2819
 8485SOL     OW33705   4.498   3.011   1.104  0.3947  0.0577 -0.3416
 8485SOL    HW233706   4.468   3.042   1.019  1.5921 -2.6511 -1.8828
 8485SOL    HW333707   4.590   3.035   1.107 -0.1814  2.5105  1.4977
 8485SOL    MW433708   4.506   3.018   1.093  0.4766  0.0239 -0.3023
 8486SOL     OW33709   1.193   0.211   3.128 -0.1311  0.0455  0.0651
 8486SOL    HW233710   1.261   0.151   3.157  1.8574  2.1052 -0.0798
 8486SOL    HW333711   1.130   0.213   3.201 -1.1142 -3.2664 -0.5440
 8486SOL    MW433712   1.193   0.203   3.142  0.0015 -0.1197 -0.0344
 8487SOL     OW33713   5.591   0.509   0.297 -0.3051 -0.0418 -0.6613
 8487SOL    HW233714   5.621   0.423   0.326  2.2797  0.1862 -2.2965
 8487SOL    HW333715   5.601   0.566   0.373 -0.4331 -0.8572 -0.0295
 8487SOL    MW433716   5.596   0.505   0.311  0.0191 -0.1193 -0.7937
 8488SOL     OW33717   6.089   0.087   5.558  0.8076 -0.2542  0.9386
 8488SOL    HW233718   6.009   0.054   5.518  1.2055  1.6560 -1.7195
 8488SOL    HW333719   6.084   0.061   5.650 -3.4131  0.8493  1.1866
 8488SOL    MW433720   6.078   0.079   5.565  0.3032  0.1434  0.6206
 8489SOL     OW33721   5.909   0.860   0.634 -0.0180  0.3081  0.0374
 8489SOL    HW233722   5.941   0.888   0.720  0.1219 -1.7372  0.7041
 8489SOL    HW333723   5.951   0.920   0.572  2.4643 -0.1466  1.1395
 8489SOL    MW433724   5.919   0.872   0.638  0.3280 -0.0218  0.2708
 8490SOL     OW33725   1.513   5.765   5.559 -0.0436  0.0846  0.2449
 8490SOL    HW233726   1.573   5.785   5.631 -1.1972 -0.5082  1.4127
 8490SOL    HW333727   1.430   5.746   5.602 -0.4733 -1.4507 -1.1692
 8490SOL    MW433728   1.510   5.765   5.574 -0.2525 -0.1962  0.2124
 8491SOL     OW33729   0.034   0.796   3.470 -0.5202 -0.7359 -0.0324
 8491SOL    HW233730  -0.022   0.833   3.401  1.4195  1.4388 -0.5629
 8491SOL    HW333731   0.046   0.867   3.532 -0.8755 -2.1652  1.7566
 8491SOL    MW433732   0.028   0.810   3.469 -0.3112 -0.6376  0.1336
 8492SOL     OW33733   1.438   0.267   1.542 -0.0607  0.0147 -0.6144
 8492SOL    HW233734   1.423   0.209   1.616  0.0866 -1.1952 -1.4984
 8492SOL    HW333735   1.525   0.304   1.558  0.9900 -2.0196 -1.2810
 8492SOL    MW433736   1.448   0.264   1.554  0.0974 -0.4133 -0.8190
 8493SOL     OW33737   5.386   4.726   4.997 -0.0261 -0.2811 -0.3136
 8493SOL    HW233738   5.368   4.813   4.962 -1.3659 -0.3024  0.2816
 8493SOL    HW333739   5.466   4.698   4.951  0.7879  1.4926 -0.0508
 8493SOL    MW433740   5.395   4.734   4.986 -0.0954 -0.0499 -0.2004
 8494SOL     OW33741   5.277   5.923   4.299  0.3671 -0.4742 -0.0389
 8494SOL    HW233742   5.337   5.918   4.373 -0.0938  0.8337  0.4556
 8494SOL    HW333743   5.285   5.839   4.255  0.5425 -1.3308  1.5842
 8494SOL    MW433744   5.286   5.912   4.303  0.3295 -0.4147  0.2405
 8495SOL     OW33745   5.319   2.134   4.482  0.3511 -0.7236  0.6083
 8495SOL    HW233746   5.369   2.212   4.507 -0.7499 -0.3106  1.6213
 8495SOL    HW333747   5.247   2.130   4.545 -1.9536 -0.2958 -1.8464
 8495SOL    MW433748   5.316   2.143   4.493 -0.0982 -0.6127  0.4181
 8496SOL     OW33749   6.307   0.080   2.680 -0.2811 -0.3564  0.4038
 8496SOL    HW233750   6.268   0.004   2.636  0.8662 -2.4763  2.8313
 8496SOL    HW333751   6.272   0.077   2.769 -0.8221  2.5050  0.3830
 8496SOL    MW433752   6.297   0.069   2.686 -0.2011 -0.2585  0.7214
 8497SOL     OW33753   1.920   2.031   1.932 -0.2088  0.2286  0.6918
 8497SOL    HW233754   1.931   1.983   1.850  1.2425  1.9911 -0.2456
 8497SOL    HW333755   2.005   2.073   1.947 -1.5582  3.2024  0.8937
 8497SOL    MW433756   1.933   2.030   1.923 -0.1953  0.8535  0.5948
 8498SOL     OW33757   5.583   2.432   4.968  0.0536  0.2042 -0.1609
 8498SOL    HW233758   5.552   2.499   4.908  2.4334  0.7429 -0.8964
 8498SOL    HW333759   5.678   2.435   4.961  0.3584 -1.0996  2.1688
 8498SOL    MW433760   5.591   2.441   4.959  0.4078  0.1032  0.0494
 8499SOL     OW33761   5.219   3.509   4.894  0.0088 -0.0247 -0.1744
 8499SOL    HW233762   5.214   3.600   4.865 -0.0165  0.5116  1.4456
 8499SOL    HW333763   5.160   3.462   4.835 -0.8716  1.2043 -0.3033
 8499SOL    MW433764   5.210   3.515   4.882 -0.1107  0.2082  0.0223
 8500SOL     OW33765   5.719   2.114   1.350 -0.2694 -0.3901 -0.2217
 8500SOL    HW233766   5.679   2.200   1.334  0.1424 -0.3336 -0.9921
 8500SOL    HW333767   5.795   2.112   1.291  0.2947 -0.8862  0.5082
 8500SOL    MW433768   5.724   2.125   1.340 -0.1407 -0.4481 -0.2271
 8501SOL     OW33769   2.246   0.557   4.489  0.2155  0.2770  0.2246
 8501SOL    HW233770   2.256   0.501   4.566 -1.0994 -0.7139 -0.2791
 8501SOL    HW333771   2.154   0.584   4.490 -0.3063 -1.1450 -1.8633
 8501SOL    MW433772   2.236   0.553   4.499 -0.0268 -0.0413 -0.1174
 8502SOL     OW33773   3.039   6.032   3.685 -0.4545  0.1701 -0.5655
 8502SOL    HW233774   3.050   5.961   3.747 -0.4653 -0.5001 -1.3114
 8502SOL    HW333775   3.127   6.049   3.651 -0.4740  0.4072 -0.5003
 8502SOL    MW433776   3.052   6.025   3.688 -0.4585  0.1130 -0.6553
 8503SOL     OW33777   0.054   0.346   1.305  0.1254 -0.1341 -0.1057
 8503SOL    HW233778  -0.015   0.376   1.245 -0.0844  0.3834  0.3894
 8503SOL    HW333779   0.108   0.288   1.251 -1.7904 -2.1149 -0.0419
 8503SOL    MW433780   0.052   0.342   1.290 -0.1551 -0.3272 -0.0320
 8504SOL     OW33781   3.510   6.077   0.170  0.0076 -0.3504 -0.8077
 8504SOL    HW233782   3.596   6.117   0.172  0.4528 -1.2966  0.2330
 8504SOL    HW333783   3.483   6.072   0.262 -0.5721 -1.2558 -1.0096
 8504SOL    MW433784   3.518   6.081   0.182 -0.0102 -0.5947 -0.6970
 8505SOL     OW33785   2.281   1.086   3.657 -0.3187  0.2271 -0.7426
 8505SOL    HW233786   2.299   1.076   3.750  0.7533 -0.2126 -0.9859
 8505SOL    HW333787   2.190   1.118   3.653  0.5984  3.3638  0.5964
 8505SOL    MW433788   2.271   1.089   3.668 -0.0563  0.5830 -0.5980
 8506SOL     OW33789   3.377   5.482   2.127 -0.7092  0.8237 -0.3326
 8506SOL    HW233790   3.367   5.428   2.049 -0.3934  0.5597 -0.1963
 8506SOL    HW333791   3.462   5.524   2.117  1.1993 -2.1984  1.6194
 8506SOL    MW433792   3.387   5.480   2.116 -0.4157  0.3901 -0.0571
 8507SOL     OW33793   1.212   3.225   4.972  0.4281 -0.4540  0.1225
 8507SOL    HW233794   1.245   3.286   4.906  2.0542 -1.2770  0.1420
 8507SOL    HW333795   1.271   3.236   5.047  0.5561 -1.8109  0.2426
 8507SOL    MW433796   1.224   3.235   4.973  0.6595 -0.7416  0.1409
 8508SOL     OW33797   3.226   1.143   3.763  1.1282 -0.4306  0.0913
 8508SOL    HW233798   3.151   1.193   3.796  1.0389 -0.3051 -0.2943
 8508SOL    HW333799   3.237   1.071   3.825  0.5773 -0.5498  0.0472
 8508SOL    MW433800   3.218   1.140   3.776  1.0437 -0.4298  0.0346
 8509SOL     OW33801   3.923   2.248   1.380 -0.6276 -0.3039  0.1024
 8509SOL    HW233802   3.851   2.302   1.411 -0.9194 -1.8785  2.4189
 8509SOL    HW333803   3.999   2.274   1.433 -0.5457 -1.4567  0.5919
 8509SOL    MW433804   3.924   2.259   1.391 -0.6553 -0.6637  0.4726
 8510SOL     OW33805   3.998   5.849   2.129  0.0985  0.1025 -0.2967
 8510SOL    HW233806   3.930   5.878   2.069  0.9540 -0.7775 -1.7421
 8510SOL    HW333807   3.965   5.767   2.166  0.0542  0.0479 -0.4563
 8510SOL    MW433808   3.985   5.842   2.126  0.2055 -0.0208 -0.5084
 8511SOL     OW33809   3.505   1.886   0.826  0.1556 -0.5706  0.4747
 8511SOL    HW233810   3.550   1.834   0.892  0.5939 -0.7654  0.0276
 8511SOL    HW333811   3.438   1.828   0.791 -1.5106  0.2020  2.2124
 8511SOL    MW433812   3.502   1.871   0.830 -0.0064 -0.4944  0.6450
 8512SOL     OW33813   4.715   1.111   4.236  0.1318  0.4412 -0.0496
 8512SOL    HW233814   4.717   1.021   4.203 -2.0532 -0.1073  1.1013
 8512SOL    HW333815   4.806   1.140   4.234  0.7380 -1.3774 -1.5318
 8512SOL    MW433816   4.727   1.103   4.231 -0.0765  0.1289 -0.0933
 8513SOL     OW33817   5.357   4.493   0.407 -0.5459  0.0855  0.4386
 8513SOL    HW233818   5.396   4.525   0.325  1.6626 -3.4564 -0.0927
 8513SOL    HW333819   5.268   4.529   0.407 -0.3311  0.9564 -3.0441
 8513SOL    MW433820   5.350   4.502   0.396 -0.2262 -0.2669 -0.0910
 8514SOL     OW33821   0.295   4.040   6.001 -0.3205 -0.0689  0.0140
 8514SOL    HW233822   0.379   4.025   5.959 -0.4865 -0.6618 -0.1145
 8514SOL    HW333823   0.304   4.001   6.088  0.3541  2.0037  0.9296
 8514SOL    MW433824   0.307   4.033   6.007 -0.2534  0.1263  0.1178
 8515SOL     OW33825   5.916   2.753   5.279 -0.0327  0.1362 -0.0322
 8515SOL    HW233826   5.857   2.822   5.308 -2.3662 -0.8208 -2.1262
 8515SOL    HW333827   5.928   2.770   5.186  1.2364 -0.9798 -0.0918
 8515SOL    MW433828   5.910   2.764   5.271 -0.1731 -0.1373 -0.3163
 8516SOL     OW33829   0.093   2.918   4.008  0.5120 -0.0595 -0.0875
 8516SOL    HW233830   0.155   2.919   3.936  0.2683  1.2828 -0.2930
 8516SOL    HW333831   0.011   2.889   3.968 -0.1122  2.5127 -0.8039
 8516SOL    MW433832   0.090   2.914   3.993  0.3975  0.4570 -0.2092
 8517SOL     OW33833   1.283   6.243   5.433  0.1297  0.1359 -0.0226
 8517SOL    HW233834   1.349   6.221   5.367 -0.3595 -0.6330 -0.2693
 8517SOL    HW333835   1.304   6.333   5.459  1.8768 -0.4097  0.6194
 8517SOL    MW433836   1.294   6.252   5.428  0.2957 -0.0376  0.0296
 8518SOL     OW33837   0.462   5.144   6.097  0.1151 -0.3222  0.0936
 8518SOL    HW233838   0.413   5.223   6.120  0.5020 -0.8513  3.0340
 8518SOL    HW333839   0.540   5.176   6.051 -0.9277  0.7916 -0.9561
 8518SOL    MW433840   0.466   5.158   6.094  0.0286 -0.2451  0.3431
 8519SOL     OW33841   5.805   2.461   4.326 -0.4849 -0.1335  0.0330
 8519SOL    HW233842   5.842   2.512   4.398  0.8017  0.1945 -0.8248
 8519SOL    HW333843   5.724   2.425   4.362  0.7835 -1.1146  2.1067
 8519SOL    MW433844   5.799   2.463   4.340 -0.1478 -0.2197  0.1935
 8520SOL     OW33845   2.533   4.439   0.942  0.3838  0.1588  0.1538
 8520SOL    HW233846   2.605   4.494   0.912  1.1158 -1.0543 -0.3657
 8520SOL    HW333847   2.509   4.476   1.027  0.7465  1.3626 -0.2436
 8520SOL    MW433848   2.539   4.451   0.949  0.5282  0.1576  0.0328
 8521SOL     OW33849   4.436   4.503   0.359 -0.6902  0.1080  0.6521
 8521SOL    HW233850   4.452   4.527   0.268 -1.6220 -1.6618 -0.0187
 8521SOL    HW333851   4.513   4.454   0.385 -1.4424 -1.4911 -0.0065
 8521SOL    MW433852   4.448   4.500   0.351 -0.9124 -0.3365  0.4767
 8522SOL     OW33853   3.227   2.773   5.873 -0.1707 -0.3135  0.2577
 8522SOL    HW233854   3.156   2.730   5.826  0.4172 -1.7752  0.6480
 8522SOL    HW333855   3.285   2.701   5.899  0.0371  0.5484  2.3327
 8522SOL    MW433856   3.225   2.758   5.870 -0.0657 -0.3927  0.5829
 8523SOL     OW33857   1.850   3.976   2.461 -0.2897  0.1291 -0.2654
 8523SOL    HW233858   1.920   4.023   2.416 -1.3706  1.8644 -0.2384
 8523SOL    HW333859   1.826   3.905   2.401  1.0447 -0.1137 -0.5392
 8523SOL    MW433860   1.856   3.973   2.447 -0.2562  0.3260 -0.2980
 8524SOL     OW33861   0.801   2.074   2.766 -0.6665  0.3350 -0.2842
 8524SOL    HW233862   0.751   2.034   2.838 -0.3010 -1.1063 -0.7863
 8524SOL    HW333863   0.874   2.014   2.752  0.5863  1.8235 -0.3236
 8524SOL    MW433864   0.804   2.061   2.773 -0.4530  0.3412 -0.3557
 8525SOL     OW33865   3.414   5.103   3.077 -0.0246 -0.3976  0.0858
 8525SOL    HW233866   3.411   5.089   3.172 -0.8556 -0.8897 -0.0059
 8525SOL    HW333867   3.328   5.138   3.055  1.0028  2.1866 -0.1290
 8525SOL    MW433868   3.402   5.106   3.087  0.0013 -0.1216  0.0454
 8526SOL     OW33869   4.842   1.735   5.556 -0.3213  0.1499 -0.2761
 8526SOL    HW233870   4.915   1.673   5.556 -1.7287 -1.6176  0.7586
 8526SOL    HW333871   4.800   1.722   5.471 -0.6781 -0.4369 -0.0189
 8526SOL    MW433872   4.846   1.725   5.545 -0.5541 -0.1607 -0.1056
 8527SOL     OW33873   1.057   5.447   5.406  0.0970 -0.7276  0.5189
 8527SOL    HW233874   0.984   5.441   5.345  0.7818 -1.5035 -0.2444
 8527SOL    HW333875   1.131   5.478   5.353 -0.0143  1.5690  1.5830
 8527SOL    MW433876   1.057   5.451   5.391  0.1727 -0.5270  0.5586
 8528SOL     OW33877   0.791   2.432   0.108  0.1179  0.0997  0.0092
 8528SOL    HW233878   0.797   2.521   0.072  0.5013  0.9160  1.9467
 8528SOL    HW333879   0.760   2.378   0.035 -0.6753  1.9178 -1.0589
 8528SOL    MW433880   0.788   2.437   0.093  0.0639  0.4473  0.1239
 8529SOL     OW33881   1.545   3.939   2.133 -0.1972 -0.3247  1.0492
 8529SOL    HW233882   1.513   4.007   2.074 -0.4450 -0.0189  1.5279
 8529SOL    HW333883   1.480   3.869   2.125  0.7315 -1.0795 -0.4272
 8529SOL    MW433884   1.532   3.939   2.124 -0.1073 -0.3839  0.9176
 8530SOL     OW33885   6.404   2.643   0.208  0.4785  0.2619 -0.9139
 8530SOL    HW233886   6.466   2.571   0.212 -0.4542 -0.5661 -1.0579
 8530SOL    HW333887   6.446   2.714   0.257  1.0282 -0.6554 -0.0223
 8530SOL    MW433888   6.417   2.643   0.215  0.4279  0.0316 -0.8152
 8531SOL     OW33889   4.037   5.398   0.747  0.1966  0.7340  0.0443
 8531SOL    HW233890   4.030   5.314   0.700  0.4719 -0.3236  1.7867
 8531SOL    HW333891   4.051   5.463   0.679  0.2913 -0.6886 -1.3458
 8531SOL    MW433892   4.038   5.395   0.732  0.2454  0.4067  0.0908
 8532SOL     OW33893   6.223   1.996   6.017 -0.2856  0.1288  0.6667
 8532SOL    HW233894   6.260   1.999   5.929 -0.6443  0.6984  0.5357
 8532SOL    HW333895   6.209   1.902   6.033  0.9712 -0.0846  0.6265
 8532SOL    MW433896   6.226   1.984   6.007 -0.1671  0.1758  0.6441
 8533SOL     OW33897   2.919   1.304   1.199  0.3264 -0.5407  0.4711
 8533SOL    HW233898   2.931   1.399   1.187 -1.0270 -0.5253 -1.1700
 8533SOL    HW333899   2.898   1.295   1.292 -0.7807  0.9705  0.4225
 8533SOL    MW433900   2.918   1.316   1.210  0.0018 -0.3393  0.2481
 8534SOL     OW33901   6.024   0.953   0.875  0.1556 -0.2676 -0.1895
 8534SOL    HW233902   6.027   0.879   0.935 -1.4490 -0.7668 -0.6795
 8534SOL    HW333903   6.116   0.976   0.860  0.6177 -0.6611  1.7756
 8534SOL    MW433904   6.037   0.947   0.881  0.0049 -0.3854  0.0051
 8535SOL     OW33905   5.314   0.315   0.160  0.8601 -0.2428 -0.0502
 8535SOL    HW233906   5.244   0.282   0.102  2.0286 -0.6514 -1.2825
 8535SOL    HW333907   5.289   0.405   0.179 -1.3797 -1.1396  1.7488
 8535SOL    MW433908   5.301   0.322   0.155  0.7188 -0.4151  0.0246
 8536SOL     OW33909   1.302   2.486   2.655 -0.1121 -0.2911 -0.2612
 8536SOL    HW233910   1.334   2.396   2.649 -0.2588 -0.2848 -1.2065
 8536SOL    HW333911   1.253   2.500   2.574 -1.9207 -0.0643  0.8059
 8536SOL    MW433912   1.300   2.476   2.644 -0.3701 -0.2603 -0.2452
 8537SOL     OW33913   4.800   4.169   3.747  0.2286  0.7291  0.3218
 8537SOL    HW233914   4.824   4.091   3.697  0.1027  0.2243  1.0356
 8537SOL    HW333915   4.707   4.181   3.729  0.5153  1.4557 -0.7754
 8537SOL    MW433916   4.791   4.160   3.738  0.2498  0.7584  0.2712
 8538SOL     OW33917   1.674   1.222   1.683  0.1866 -0.1691 -0.0354
 8538SOL    HW233918   1.684   1.149   1.621 -1.4746 -0.7121  0.2764
 8538SOL    HW333919   1.755   1.272   1.674  1.9982 -2.7612  0.6860
 8538SOL    MW433920   1.686   1.219   1.674  0.2064 -0.5827  0.1009
 8539SOL     OW33921   2.259   2.941   2.616 -0.5582 -0.0339  0.3414
 8539SOL    HW233922   2.338   2.992   2.634 -0.1505 -0.3959 -0.3538
 8539SOL    HW333923   2.187   3.002   2.630 -0.0545  0.9371 -1.1017
 8539SOL    MW433924   2.260   2.956   2.620 -0.4379  0.0465  0.0593
 8540SOL     OW33925   4.731   2.947   4.856  0.0515 -0.0220  0.0194
 8540SOL    HW233926   4.699   3.033   4.882  2.1530  0.8169  0.0583
 8540SOL    HW333927   4.753   2.956   4.763  0.5222 -0.4298  0.0835
 8540SOL    MW433928   4.730   2.959   4.847  0.3908  0.0349  0.0330
 8541SOL     OW33929   0.535   4.250   2.829 -0.3735  0.3433 -0.1475
 8541SOL    HW233930   0.534   4.246   2.733  0.5407  0.4918 -0.1782
 8541SOL    HW333931   0.451   4.214   2.856 -0.3826 -0.2987 -0.9943
 8541SOL    MW433932   0.524   4.245   2.820 -0.2541  0.2782 -0.2633
 8542SOL     OW33933   1.755   6.015   3.356  0.5973 -0.0879 -0.0784
 8542SOL    HW233934   1.768   5.965   3.275  0.7501 -0.4965  0.1957
 8542SOL    HW333935   1.842   6.044   3.381  0.4818  0.4839 -0.3433
 8542SOL    MW433936   1.768   6.012   3.349  0.6022 -0.0663 -0.0772
 8543SOL     OW33937   1.017   2.933   0.936 -0.3021 -0.1775 -0.1635
 8543SOL    HW233938   1.013   3.026   0.958  1.3007  0.3282 -1.7985
 8543SOL    HW333939   0.978   2.926   0.849 -0.1393 -0.9740 -0.1830
 8543SOL    MW433940   1.012   2.944   0.928 -0.0692 -0.2159 -0.3818
 8544SOL     OW33941   0.496   4.929   6.316 -0.3667 -0.1008  0.0493
 8544SOL    HW233942   0.508   4.847   6.268  0.7785 -0.6087  1.1272
 8544SOL    HW333943   0.490   4.996   6.248  1.6041 -0.7336 -0.8427
 8544SOL    MW433944   0.497   4.927   6.301  0.0444 -0.2513  0.0739
 8545SOL     OW33945   0.806   3.648   3.629 -0.4307 -0.3255 -0.4618
 8545SOL    HW233946   0.780   3.700   3.553  2.1144  0.7418 -0.7190
 8545SOL    HW333947   0.854   3.710   3.684 -0.5707 -1.5494  1.0870
 8545SOL    MW433948   0.809   3.663   3.626 -0.1134 -0.3462 -0.2914
 8546SOL     OW33949   4.025   4.329   0.842  0.4861 -0.6492 -0.0671
 8546SOL    HW233950   4.062   4.286   0.919  0.9041  0.2929  0.2750
 8546SOL    HW333951   3.974   4.402   0.877  1.3454  0.2844 -0.6967
 8546SOL    MW433952   4.023   4.333   0.856  0.6546 -0.4017 -0.1051
 8547SOL     OW33953   0.982   5.324   2.105  0.5336  0.4424 -0.8400
 8547SOL    HW233954   0.998   5.288   2.192  1.8997 -2.0489 -2.0179
 8547SOL    HW333955   0.958   5.415   2.121  1.3959  0.2636  2.0809
 8547SOL    MW433956   0.981   5.331   2.119  0.8276  0.0902 -0.6101
 8548SOL     OW33957   0.413   4.964   1.623  0.3694 -0.5185  0.0412
 8548SOL    HW233958   0.437   5.025   1.693 -0.4191 -1.5906  1.2972
 8548SOL    HW333959   0.497   4.939   1.584  0.7754  0.6018  0.1349
 8548SOL    MW433960   0.428   4.969   1.627  0.3189 -0.5121  0.2193
 8549SOL     OW33961   1.877   5.536   4.595 -0.5366 -0.2418  0.5014
 8549SOL    HW233962   1.961   5.534   4.551 -1.4945  0.0332 -1.4533
 8549SOL    HW333963   1.898   5.550   4.688  1.5196 -0.0406  0.0405
 8549SOL    MW433964   1.891   5.537   4.602 -0.3917 -0.1790  0.1827
 8550SOL     OW33965   3.728   3.282   2.424  0.5112 -0.2159 -0.1075
 8550SOL    HW233966   3.734   3.355   2.485  0.7076 -0.7704  0.5459
 8550SOL    HW333967   3.689   3.211   2.475 -2.0391  0.1584 -1.3989
 8550SOL    MW433968   3.724   3.282   2.439  0.2006 -0.2397 -0.1917
 8551SOL     OW33969   1.175   0.612   1.669 -0.3550 -0.4944 -0.5319
 8551SOL    HW233970   1.101   0.672   1.670 -0.7842 -1.0157 -0.6134
 8551SOL    HW333971   1.149   0.543   1.607  1.0450  0.3925 -2.1953
 8551SOL    MW433972   1.162   0.611   1.661 -0.2269 -0.4462 -0.7621
 8552SOL     OW33973   2.303   5.199   3.483  0.0616  0.2543  0.4190
 8552SOL    HW233974   2.290   5.223   3.574 -2.1417 -1.1105  0.5435
 8552SOL    HW333975   2.320   5.282   3.438 -0.2893  1.1184  1.8247
 8552SOL    MW433976   2.304   5.213   3.489 -0.2754  0.1883  0.6209
 8553SOL     OW33977   6.000   5.406   1.142  0.1010 -0.1834 -0.5094
 8553SOL    HW233978   6.014   5.442   1.230 -0.2979 -1.0129 -0.0919
 8553SOL    HW333979   6.048   5.323   1.143  0.4012 -0.0254 -1.2067
 8553SOL    MW433980   6.008   5.399   1.154  0.0880 -0.2720 -0.5463
 8554SOL     OW33981   2.436   3.067   3.877 -0.1533 -0.0488  0.3430
 8554SOL    HW233982   2.372   3.006   3.911 -0.8597  0.2922 -0.3357
 8554SOL    HW333983   2.459   3.123   3.951 -0.9557  0.0868  0.4985
 8554SOL    MW433984   2.431   3.066   3.891 -0.3523  0.0141  0.2740
 8555SOL     OW33985   0.997   5.546   4.754  0.5487  0.0911 -0.1937
 8555SOL    HW233986   1.017   5.591   4.672 -1.1401  1.4209  0.0518
 8555SOL    HW333987   1.081   5.512   4.785  1.8905  2.7574 -0.6319
 8555SOL    MW433988   1.010   5.548   4.747  0.5030  0.6183 -0.2191
 8556SOL     OW33989   2.991   5.214   1.502 -0.8785 -0.3197 -0.3266
 8556SOL    HW233990   3.031   5.126   1.504 -0.8518 -0.3087 -0.4021
 8556SOL    HW333991   3.062   5.272   1.477 -1.0527 -0.3565 -0.9121
 8556SOL    MW433992   3.005   5.210   1.499 -0.8980 -0.3231 -0.4138
 8557SOL     OW33993   0.332   5.085   5.090 -0.2617 -0.1771  0.8673
 8557SOL    HW233994   0.344   5.176   5.062 -1.4116 -0.6210 -1.2463
 8557SOL    HW333995   0.270   5.090   5.162 -1.9743  0.6193 -0.5713
 8557SOL    MW433996   0.326   5.098   5.095 -0.6394 -0.1306  0.3986
 8558SOL     OW33997   3.347   1.897   3.307  0.5427  0.2225 -0.4561
 8558SOL    HW233998   3.414   1.855   3.361 -0.8400 -0.1149  1.0524
 8558SOL    HW333999   3.388   1.978   3.278  1.6272  0.0067  0.3788
 8558SOL    MW434000   3.362   1.902   3.310  0.5034  0.1495 -0.1470
 8559SOL     OW34001   4.471   5.519   0.048  0.2175  0.0658  0.0219
 8559SOL    HW234002   4.402   5.541   0.111  0.3964  1.6327 -0.3011
 8559SOL    HW334003   4.506   5.603   0.020  1.2462 -0.6623 -0.9669
 8559SOL    MW434004   4.466   5.533   0.053  0.3769  0.1764 -0.1512
 8560SOL     OW34005   5.983   5.782   1.248 -0.4615  0.2516  0.2978
 8560SOL    HW234006   6.001   5.719   1.318  0.5546  1.8653  1.5720
 8560SOL    HW334007   6.051   5.766   1.183 -1.0389 -0.8508 -0.0557
 8560SOL    MW434008   5.994   5.771   1.249 -0.4036  0.3191  0.4193
 8561SOL     OW34009   3.909   5.468   3.098 -0.5277  0.2839  0.0773
 8561SOL    HW234010   3.986   5.411   3.101 -0.3072  0.6073  1.1705
 8561SOL    HW334011   3.906   5.500   3.008  0.2671 -0.2042 -0.1307
 8561SOL    MW434012   3.919   5.465   3.086 -0.3938  0.2622  0.1941
 8562SOL     OW34013   1.139   2.422   0.568 -0.1073  0.4221  0.1855
 8562SOL    HW234014   1.119   2.377   0.650  1.1987 -0.7917 -0.1243
 8562SOL    HW334015   1.179   2.505   0.595  0.0371  0.1641  0.7780
 8562SOL    MW434016   1.142   2.427   0.582  0.0840  0.2279  0.2228
 8563SOL     OW34017   2.256   1.390   2.385  0.4534 -0.5726 -0.1776
 8563SOL    HW234018   2.313   1.339   2.327  0.0561 -1.2089 -0.0209
 8563SOL    HW334019   2.247   1.335   2.463 -0.8404 -0.7573 -0.4341
 8563SOL    MW434020   2.262   1.376   2.388  0.2303 -0.6809 -0.1908
 8564SOL     OW34021   0.783   1.529   0.461 -0.0810 -0.3649  0.4376
 8564SOL    HW234022   0.759   1.556   0.550 -0.3465  1.3792 -0.1230
 8564SOL    HW334023   0.779   1.609   0.410  1.1119 -1.1329 -0.9483
 8564SOL    MW434024   0.780   1.543   0.466  0.0414 -0.2361  0.1807
 8565SOL     OW34025   0.327   4.632   2.048  0.1669 -0.1960 -0.0006
 8565SOL    HW234026   0.408   4.630   1.997 -0.1322  0.0573 -0.4928
 8565SOL    HW334027   0.263   4.587   1.993  0.2204 -1.3417  0.8372
 8565SOL    MW434028   0.329   4.626   2.034  0.1345 -0.3137  0.0450
 8566SOL     OW34029   2.399   0.942   3.438  0.2829 -0.4230  0.1344
 8566SOL    HW234030   2.367   0.852   3.430 -1.9339  0.3248 -0.2660
 8566SOL    HW334031   2.334   0.985   3.494  0.0364  1.4341 -1.4647
 8566SOL    MW434032   2.386   0.936   3.444 -0.0421 -0.0793 -0.1294
 8567SOL     OW34033   6.214   0.380   4.343  0.0144  0.4308 -0.6400
 8567SOL    HW234034   6.277   0.426   4.288  2.2355  1.1492  2.2212
 8567SOL    HW334035   6.226   0.287   4.321  2.3582  0.5258 -0.0521
 8567SOL    MW434036   6.224   0.374   4.333  0.6167  0.5381 -0.1850
 8568SOL     OW34037   0.318   2.664   6.355 -0.1353  0.1787 -0.7046
 8568SOL    HW234038   0.227   2.692   6.352 -0.1845  0.1280  0.1388
 8568SOL    HW334039   0.356   2.712   6.428  0.8495  1.1313 -1.8045
 8568SOL    MW434040   0.311   2.674   6.364 -0.0119  0.2977 -0.7384
 8569SOL     OW34041   2.155   1.265   4.977  0.0685  0.1541 -0.0706
 8569SOL    HW234042   2.192   1.352   4.962 -0.7908  0.5073 -0.1897
 8569SOL    HW334043   2.064   1.281   5.002 -0.3760 -0.7452 -0.9965
 8569SOL    MW434044   2.148   1.278   4.978 -0.1035  0.0821 -0.2085
 8570SOL     OW34045   1.300   0.935   3.140  0.1936 -0.1227 -0.1515
 8570SOL    HW234046   1.260   0.926   3.227 -1.0767 -0.3101 -0.7417
 8570SOL    HW334047   1.259   1.013   3.102  1.5527  0.6106 -0.1765
 8570SOL    MW434048   1.290   0.944   3.147  0.2053 -0.0507 -0.2327
 8571SOL     OW34049   3.317   6.390   3.877  0.0479 -0.3459 -0.4084
 8571SOL    HW234050   3.334   6.307   3.922 -2.0685 -0.6852 -0.1601
 8571SOL    HW334051   3.370   6.385   3.797 -0.0514 -1.9531 -0.4054
 8571SOL    MW434052   3.326   6.379   3.872 -0.2445 -0.6027 -0.3752
 8572SOL     OW34053   0.831   0.655   6.066  0.1278  0.1832  0.4244
 8572SOL    HW234054   0.919   0.624   6.044  0.5874  0.9725  1.0540
 8572SOL    HW334055   0.837   0.751   6.058 -0.8455  0.2103 -0.1083
 8572SOL    MW434056   0.844   0.664   6.062  0.0601  0.2909  0.4372
 8573SOL     OW34057   0.533   0.368   5.238 -0.0322 -0.1230  0.2905
 8573SOL    HW234058   0.548   0.329   5.153 -0.6284 -0.6286  0.4121
 8573SOL    HW334059   0.438   0.365   5.250 -0.1230  1.5692  0.2058
 8573SOL    MW434060   0.523   0.363   5.229 -0.1228  0.0336  0.2954
 8574SOL     OW34061   3.856   2.196   0.546 -0.7091 -0.4674 -0.2525
 8574SOL    HW234062   3.877   2.130   0.481 -2.2221 -0.6082 -0.6466
 8574SOL    HW334063   3.904   2.170   0.624  1.6544  0.0653 -1.4413
 8574SOL    MW434064   3.865   2.184   0.548 -0.5969 -0.4157 -0.4614
 8575SOL     OW34065   0.484   4.127   5.006 -0.6967 -0.2593  0.3802
 8575SOL    HW234066   0.502   4.034   4.993 -0.8456 -0.3874  1.0530
 8575SOL    HW334067   0.570   4.169   5.003 -0.5661 -0.4985  0.6703
 8575SOL    MW434068   0.498   4.120   5.004 -0.6991 -0.3077  0.5073
 8576SOL     OW34069   0.835   3.695   4.751 -0.6646 -0.2824  0.4374
 8576SOL    HW234070   0.786   3.721   4.673  0.6892  0.8173 -0.0773
 8576SOL    HW334071   0.862   3.605   4.734 -1.4836 -0.4983  0.2275
 8576SOL    MW434072   0.832   3.686   4.739 -0.5940 -0.1658  0.3418
 8577SOL     OW34073   3.975   6.058   0.436 -0.0153 -0.0821 -0.3782
 8577SOL    HW234074   3.939   6.124   0.495  0.8496  0.5427 -0.5393
 8577SOL    HW334075   4.012   6.108   0.363  0.7398 -0.7353 -0.4543
 8577SOL    MW434076   3.975   6.073   0.434  0.1984 -0.0859 -0.4095
 8578SOL     OW34077   5.236   1.993   0.290 -0.8556 -0.0332 -0.5084
 8578SOL    HW234078   5.205   1.928   0.353 -1.3288 -0.5698 -1.2817
 8578SOL    HW334079   5.156   2.037   0.261 -0.6515  0.1355 -0.8174
 8578SOL    MW434080   5.221   1.990   0.295 -0.8911 -0.0817 -0.6512
 8579SOL     OW34081   6.359   2.252   2.472  0.0816 -0.3969  0.0086
 8579SOL    HW234082   6.438   2.306   2.473 -1.1453  1.5420  1.4519
 8579SOL    HW334083   6.299   2.297   2.532 -2.2768 -1.5211 -1.3504
 8579SOL    MW434084   6.362   2.265   2.480 -0.3914 -0.2894  0.0197
 8580SOL     OW34085   2.091   4.434   0.178  0.1734  0.3979  0.9838
 8580SOL    HW234086   1.999   4.435   0.204  0.0001 -2.0275  0.7404
 8580SOL    HW334087   2.140   4.434   0.261 -0.1605 -0.8899  1.1995
 8580SOL    MW434088   2.085   4.434   0.192  0.1065 -0.0920  0.9801
 8581SOL     OW34089   2.191   3.561   4.288  0.6655 -0.3730 -0.0029
 8581SOL    HW234090   2.112   3.594   4.331  0.0213 -2.7528  0.8213
 8581SOL    HW334091   2.253   3.545   4.360  1.1606 -0.3863 -0.4238
 8581SOL    MW434092   2.189   3.563   4.304  0.6458 -0.6887  0.0503
 8582SOL     OW34093   1.944   6.116   0.304  0.3483 -0.2340 -0.4343
 8582SOL    HW234094   1.974   6.176   0.371  0.4620  1.2858 -1.7738
 8582SOL    HW334095   1.851   6.104   0.322  0.8099 -1.5926  1.2401
 8582SOL    MW434096   1.936   6.122   0.315  0.4242 -0.2128 -0.3901
 8583SOL     OW34097   2.069   0.530   3.061  0.2000 -0.2621  0.4902
 8583SOL    HW234098   2.065   0.439   3.034 -1.4700 -0.4942  1.3530
 8583SOL    HW334099   2.158   0.542   3.093  0.2075 -1.8315  1.1418
 8583SOL    MW434100   2.080   0.520   3.062 -0.0194 -0.4998  0.6900
 8584SOL     OW34101   3.271   0.413   6.391  0.3510 -0.8713  0.1339
 8584SOL    HW234102   3.307   0.389   6.477 -0.7538  1.0394  1.2077
 8584SOL    HW334103   3.346   0.406   6.331  0.9836 -2.9056  1.0859
 8584SOL    MW434104   3.286   0.409   6.394  0.2887 -0.8876  0.4012
 8585SOL     OW34105   3.055   0.921   0.638 -0.6853  0.6586 -0.1715
 8585SOL    HW234106   2.964   0.903   0.615 -0.5480 -1.2656  0.6079
 8585SOL    HW334107   3.050   0.976   0.716 -1.1358  2.1444 -1.1993
 8585SOL    MW434108   3.042   0.926   0.645 -0.7266  0.6007 -0.2042
 8586SOL     OW34109   5.010   0.552   3.524 -0.2674  0.2621 -0.2104
 8586SOL    HW234110   4.972   0.482   3.577  0.1599  1.1401  1.2989
 8586SOL    HW334111   4.960   0.549   3.442 -0.6606 -1.3984  0.0540
 8586SOL    MW434112   4.998   0.542   3.520 -0.2629  0.1589  0.0236
 8587SOL     OW34113   4.899   1.329   2.657  0.0613 -0.2736  0.2029
 8587SOL    HW234114   4.960   1.276   2.606  0.1333 -0.7901  0.8185
 8587SOL    HW334115   4.813   1.292   2.637  0.0994 -0.5394  0.5361
 8587SOL    MW434116   4.896   1.317   2.647  0.0759 -0.3768  0.3281
 8588SOL     OW34117   5.504   2.726   2.725  0.0244 -0.5960  0.2815
 8588SOL    HW234118   5.572   2.676   2.769  1.3126 -0.6490 -1.6544
 8588SOL    HW334119   5.490   2.802   2.781  0.8455 -1.1769  1.3021
 8588SOL    MW434120   5.511   2.730   2.738  0.3027 -0.6796  0.1607
 8589SOL     OW34121   5.819   5.941   2.461 -0.0524  0.3178  0.5325
 8589SOL    HW234122   5.801   5.968   2.371  0.1739 -0.9300  0.0924
 8589SOL    HW334123   5.744   5.887   2.485  0.1933  0.1274  0.8644
 8589SOL    MW434124   5.807   5.937   2.452  0.0099  0.1281  0.5182
 8590SOL     OW34125   5.001   6.029   4.324  1.0074 -0.1670  0.3367
 8590SOL    HW234126   5.089   5.994   4.331  1.2907  0.2352 -0.9044
 8590SOL    HW334127   4.961   5.980   4.251 -0.0469 -0.8368  1.3285
 8590SOL    MW434128   5.007   6.018   4.315  0.9057 -0.2023  0.3038
 8591SOL     OW34129   4.302   1.632   4.197 -0.0495 -0.0993  0.2025
 8591SOL    HW234130   4.281   1.539   4.201  0.2853 -0.1608  0.6505
 8591SOL    HW334131   4.348   1.650   4.279  0.6894  0.2642 -0.2831
 8591SOL    MW434132   4.305   1.622   4.208  0.0922 -0.0595  0.1976
 8592SOL     OW34133   3.945   0.844   3.242 -0.1175  0.6392 -0.1917
 8592SOL    HW234134   3.873   0.893   3.282 -0.4032  0.1472 -0.1013
 8592SOL    HW334135   3.972   0.899   3.168 -0.8007  0.6821 -0.4247
 8592SOL    MW434136   3.939   0.858   3.237 -0.2454  0.5799 -0.2105
 8593SOL     OW34137   3.095   5.686   2.002 -0.1775  0.2939 -0.1450
 8593SOL    HW234138   3.079   5.780   1.994 -1.6474  0.2548  1.6841
 8593SOL    HW334139   3.156   5.678   2.075  0.4426 -0.1598 -0.6989
 8593SOL    MW434140   3.101   5.697   2.011 -0.2896  0.2289  0.0232
 8594SOL     OW34141   0.767   2.433   1.689 -0.2643  0.0748 -0.4271
 8594SOL    HW234142   0.778   2.343   1.657 -0.6768  0.6314 -2.2430
 8594SOL    HW334143   0.821   2.437   1.768 -0.2965 -1.7860 -0.2679
 8594SOL    MW434144   0.776   2.422   1.695 -0.3230 -0.0973 -0.6457
 8595SOL     OW34145   0.436   0.680   1.620 -0.2497 -0.1688  0.2283
 8595SOL    HW234146   0.356   0.720   1.654 -0.2757  0.0042 -0.0328
 8595SOL    HW334147   0.420   0.671   1.526 -0.2775 -0.8828  0.3014
 8595SOL    MW434148   0.423   0.684   1.612 -0.2568 -0.2402  0.2035
 8596SOL     OW34149   2.294   5.344   5.552  0.0883 -0.2071 -0.2745
 8596SOL    HW234150   2.280   5.417   5.492  0.1664  0.1124  0.0888
 8596SOL    HW334151   2.382   5.357   5.586 -0.8524  1.1537  1.9204
 8596SOL    MW434152   2.304   5.355   5.549 -0.0255  0.0146  0.0631
 8597SOL     OW34153   4.734   2.954   5.429  0.0057  0.0191 -0.2599
 8597SOL    HW234154   4.648   2.991   5.413 -0.3804 -0.9262 -0.4173
 8597SOL    HW334155   4.791   3.030   5.441 -0.8889  0.6501  0.0926
 8597SOL    MW434156   4.730   2.969   5.429 -0.1633 -0.0224 -0.2342
 8598SOL     OW34157   1.810   3.553   1.606  0.2254 -0.0226  0.0153
 8598SOL    HW234158   1.821   3.490   1.677  3.1247 -0.5088 -0.7661
 8598SOL    HW334159   1.764   3.627   1.647 -1.2410 -1.6410  1.4906
 8598SOL    MW434160   1.805   3.555   1.621  0.4144 -0.3003  0.1068
 8599SOL     OW34161   4.202   0.399   3.619 -0.3328  0.1368 -0.0043
 8599SOL    HW234162   4.285   0.438   3.591 -0.6355 -0.6399 -2.2487
 8599SOL    HW334163   4.136   0.456   3.581 -0.8016 -0.2528  0.2274
 8599SOL    MW434164   4.205   0.411   3.610 -0.4346 -0.0171 -0.2699
 8600SOL     OW34165   5.884   2.842   3.490 -0.2903 -1.1312  0.2086
 8600SOL    HW234166   5.828   2.868   3.564 -1.8943  0.0783 -1.3392
 8600SOL    HW334167   5.863   2.750   3.476 -2.5155 -0.5542 -0.7410
 8600SOL    MW434168   5.873   2.833   3.498 -0.7955 -0.8955 -0.1209
 8601SOL     OW34169   0.309   5.592   2.989 -0.1081  0.2362 -0.6118
 8601SOL    HW234170   0.230   5.545   2.960  0.2589 -0.3850 -0.6111
 8601SOL    HW334171   0.378   5.526   2.987  0.2418  0.5639  0.2174
 8601SOL    MW434172   0.307   5.577   2.985 -0.0135  0.1975 -0.5023
 8602SOL     OW34173   4.197   1.639   1.049  0.0512 -0.8965  0.1707
 8602SOL    HW234174   4.174   1.648   0.956 -0.0377 -1.4184  0.1422
 8602SOL    HW334175   4.223   1.548   1.059 -1.2273 -1.2050  0.9377
 8602SOL    MW434176   4.197   1.628   1.038 -0.1292 -1.0060  0.2682
 8603SOL     OW34177   0.707   5.972   1.835 -0.1885  0.1544  0.1302
 8603SOL    HW234178   0.661   6.032   1.778  0.2278 -0.5574 -0.9806
 8603SOL    HW334179   0.647   5.899   1.848 -0.5933  0.6646  1.2706
 8603SOL    MW434180   0.693   5.970   1.829 -0.1869  0.1278  0.1341
 8604SOL     OW34181   5.438   1.571   5.520 -0.3387  0.1070  0.4905
 8604SOL    HW234182   5.395   1.581   5.605  0.9374  0.3841  1.1258
 8604SOL    HW334183   5.372   1.530   5.464 -1.5096  0.7597  1.3477
 8604SOL    MW434184   5.424   1.567   5.524 -0.3249  0.2296  0.6874
 8605SOL     OW34185   4.415   5.436   1.862 -0.1014  0.0235 -0.4149
 8605SOL    HW234186   4.369   5.446   1.946  2.1578  0.2314  0.8714
 8605SOL    HW334187   4.404   5.343   1.841  0.6346 -0.4109  0.9698
 8605SOL    MW434188   4.407   5.425   1.871  0.2938 -0.0064 -0.0625
 8606SOL     OW34189   3.853   3.518   0.846  0.1731  0.0480  0.2071
 8606SOL    HW234190   3.768   3.554   0.872  1.3598  1.7448  2.0141
 8606SOL    HW334191   3.917   3.583   0.875  2.0858 -0.9302 -1.5808
 8606SOL    MW434192   3.850   3.531   0.854  0.5821  0.1428  0.2096
 8607SOL     OW34193   6.313   2.591   5.935  0.1303 -0.0243 -0.3656
 8607SOL    HW234194   6.258   2.542   5.996  2.3716 -2.1740  0.1341
 8607SOL    HW334195   6.339   2.670   5.982  1.5462 -1.4830  1.4376
 8607SOL    MW434196   6.310   2.595   5.949  0.6128 -0.5004 -0.0617
 8608SOL     OW34197   0.291   1.517   4.987 -0.2733 -0.3436  0.0574
 8608SOL    HW234198   0.352   1.478   5.051  0.6764  1.7431  0.5026
 8608SOL    HW334199   0.205   1.486   5.015  0.2812 -0.7564  1.4164
 8608SOL    MW434200   0.288   1.508   4.999 -0.0749 -0.1228  0.2955
 8609SOL     OW34201   2.839   3.194   5.779  0.2724 -0.0958  0.8076
 8609SOL    HW234202   2.754   3.168   5.743 -0.0112  2.2354 -0.3720
 8609SOL    HW334203   2.894   3.117   5.768 -1.0662 -0.9205 -0.4724
 8609SOL    MW434204   2.835   3.180   5.773  0.0584  0.1030  0.4831
 8610SOL     OW34205   6.376   2.575   0.916 -0.7410  0.1449 -0.0935
 8610SOL    HW234206   6.370   2.584   0.821 -0.0493 -1.0001 -0.2606
 8610SOL    HW334207   6.382   2.665   0.948 -0.1178  0.5131 -1.1896
 8610SOL    MW434208   6.376   2.588   0.908 -0.5675  0.0424 -0.2602
 8611SOL     OW34209   2.659   5.771   3.459  0.7473  0.4489 -0.2979
 8611SOL    HW234210   2.673   5.678   3.440 -0.7879  0.0899  0.2329
 8611SOL    HW334211   2.748   5.807   3.465  1.4098 -1.2032  0.5745
 8611SOL    MW434212   2.673   5.764   3.457  0.6322  0.1835 -0.1128
 8612SOL     OW34213   0.457   3.716   3.651  0.1280 -0.0028  0.0265
 8612SOL    HW234214   0.386   3.652   3.644 -0.2474  0.3900  0.1682
 8612SOL    HW334215   0.415   3.800   3.631  0.1568  0.4858  1.8960
 8612SOL    MW434216   0.442   3.719   3.647  0.0823  0.1135  0.2919
 8613SOL     OW34217   0.648   0.842   1.550  0.2483  0.3593 -0.4542
 8613SOL    HW234218   0.584   0.776   1.576 -0.1662  1.1085  0.4870
 8613SOL    HW334219   0.732   0.806   1.580  0.0413  0.1887 -0.0731
 8613SOL    MW434220   0.651   0.828   1.558  0.1663  0.4356 -0.2797
 8614SOL     OW34221   0.190   0.765   5.570  0.2365 -0.0756  0.4082
 8614SOL    HW234222   0.273   0.811   5.558 -0.1916  0.7323  0.4738
 8614SOL    HW334223   0.162   0.743   5.482 -0.5965  1.6957  0.1819
 8614SOL    MW434224   0.198   0.768   5.557  0.0701  0.2647  0.3870
 8615SOL     OW34225   1.097   3.543   3.879 -0.2868  0.2329 -0.4352
 8615SOL    HW234226   1.131   3.551   3.790  2.3861 -0.6084  0.4148
 8615SOL    HW334227   1.030   3.475   3.873 -1.3717  1.3678 -2.0545
 8615SOL    MW434228   1.093   3.535   3.867 -0.0773  0.2716 -0.5367
 8616SOL     OW34229   2.350   5.312   3.239 -0.4091  0.1638  0.0557
 8616SOL    HW234230   2.270   5.357   3.212 -0.7024 -0.3062  0.1097
 8616SOL    HW334231   2.329   5.219   3.227 -0.1573 -0.0026  0.8320
 8616SOL    MW434232   2.336   5.305   3.234 -0.4146  0.0798  0.1653
 8617SOL     OW34233   4.642   5.747   2.088 -0.0046  0.4544 -0.1081
 8617SOL    HW234234   4.591   5.672   2.119  0.8558  0.4520  1.4166
 8617SOL    HW334235   4.709   5.709   2.032  0.2426  0.1057  0.4159
 8617SOL    MW434236   4.644   5.732   2.085  0.1415  0.4081  0.1622
 8618SOL     OW34237   3.847   0.117   0.651 -0.3938 -0.9381  0.2203
 8618SOL    HW234238   3.788   0.071   0.711 -1.1322 -0.6366 -0.2514
 8618SOL    HW334239   3.891   0.182   0.705 -0.6879 -0.9980  0.5337
 8618SOL    MW434240   3.845   0.119   0.666 -0.5300 -0.9062  0.1994
 8619SOL     OW34241   6.117   4.600   3.640 -0.5244  0.3015  0.3672
 8619SOL    HW234242   6.031   4.593   3.681 -0.7640  2.8297  0.4539
 8619SOL    HW334243   6.124   4.522   3.586 -3.0505  0.1949  0.0686
 8619SOL    MW434244   6.107   4.589   3.638 -0.8893  0.6210  0.3392
 8620SOL     OW34245   5.152   3.060   4.470  0.2463  0.2800 -0.0358
 8620SOL    HW234246   5.105   3.115   4.408  0.1718  0.8315  0.5017
 8620SOL    HW334247   5.233   3.108   4.488 -0.4864  0.9736  1.5869
 8620SOL    MW434248   5.157   3.073   4.464  0.1398  0.4443  0.2492
 8621SOL     OW34249   1.286   4.967   5.044 -0.0345 -0.0289 -0.0721
 8621SOL    HW234250   1.361   4.917   5.014  2.0080  2.1628  1.0754
 8621SOL    HW334251   1.264   5.024   4.970 -1.0517 -1.1014 -0.6366
 8621SOL    MW434252   1.293   4.968   5.031  0.1008  0.1188  0.0049
 8622SOL     OW34253   5.373   5.860   5.584  0.0108 -0.1185  0.1449
 8622SOL    HW234254   5.300   5.867   5.646 -0.9788 -1.8154 -0.7533
 8622SOL    HW334255   5.414   5.947   5.585  0.3943 -0.1998  3.5672
 8622SOL    MW434256   5.369   5.872   5.593 -0.0692 -0.3531  0.4779
 8623SOL     OW34257   4.262   5.574   0.242 -0.0234  0.4022  0.5390
 8623SOL    HW234258   4.216   5.492   0.257  0.0883  0.1040 -0.6644
 8623SOL    HW334259   4.195   5.635   0.212  0.3326 -0.0992 -1.4492
 8623SOL    MW434260   4.247   5.571   0.240  0.0383  0.2967  0.1179
 8624SOL     OW34261   5.735   3.886   2.145  0.5976  0.3092  0.2006
 8624SOL    HW234262   5.736   3.947   2.071  0.7076 -2.4911 -2.2712
 8624SOL    HW334263   5.822   3.845   2.144 -0.4802 -2.1565 -0.3415
 8624SOL    MW434264   5.746   3.889   2.135  0.4699 -0.3855 -0.1971
 8625SOL     OW34265   0.591   5.496   5.814 -0.3363  0.0212 -0.0589
 8625SOL    HW234266   0.626   5.581   5.842 -0.4267 -0.1207  0.5017
 8625SOL    HW334267   0.613   5.437   5.886 -0.5188 -0.3716 -0.3243
 8625SOL    MW434268   0.599   5.500   5.828 -0.3723 -0.0493 -0.0200
 8626SOL     OW34269   2.193   3.696   1.885 -0.1280  0.7004  0.5299
 8626SOL    HW234270   2.130   3.725   1.818  0.0016  0.5118  0.3240
 8626SOL    HW334271   2.184   3.601   1.887  1.9051  0.3929 -1.2923
 8626SOL    MW434272   2.183   3.687   1.876  0.1573  0.6350  0.2623
 8627SOL     OW34273   3.828   1.101   4.746 -0.4069  0.1322  0.1883
 8627SOL    HW234274   3.820   1.026   4.804 -0.6295  0.3602  0.4606
 8627SOL    HW334275   3.767   1.166   4.782  0.6004  0.8667  0.6288
 8627SOL    MW434276   3.818   1.100   4.758 -0.3033  0.2592  0.2824
 8628SOL     OW34277   5.491   1.286   2.319  0.0758 -0.4832  0.1553
 8628SOL    HW234278   5.455   1.373   2.305  1.8291  0.5675  1.7670
 8628SOL    HW334279   5.512   1.254   2.231  2.6991  2.2376 -0.3748
 8628SOL    MW434280   5.489   1.293   2.306  0.6533  0.0144  0.2980
 8629SOL     OW34281   1.108   1.718   5.559  0.2439 -0.0500 -0.1601
 8629SOL    HW234282   1.027   1.763   5.584  1.1305  1.0433  0.8721
 8629SOL    HW334283   1.105   1.635   5.606 -0.5995 -0.3406 -0.7050
 8629SOL    MW434284   1.097   1.713   5.568  0.2496  0.0559 -0.0958
 8630SOL     OW34285   2.730   1.405   5.805 -0.1042  0.6372 -0.0385
 8630SOL    HW234286   2.682   1.333   5.765  0.6167  0.2224 -0.1813
 8630SOL    HW334287   2.767   1.368   5.885 -0.4636  1.1010  0.3472
 8630SOL    MW434288   2.729   1.391   5.810 -0.0565  0.6437 -0.0065
 8631SOL     OW34289   5.799   0.368   6.367  0.1210  0.3894  0.1384
 8631SOL    HW234290   5.759   0.316   6.298  0.9338 -0.8108  0.5363
 8631SOL    HW334291   5.851   0.305   6.418  0.6628  1.4860  0.9973
 8631SOL    MW434292   5.801   0.352   6.365  0.2997  0.3757  0.3042
 8632SOL     OW34293   0.371   2.298   2.557  0.1766 -0.2251 -0.2078
 8632SOL    HW234294   0.329   2.219   2.590  2.1781 -1.2002  0.2044
 8632SOL    HW334295   0.445   2.265   2.505  0.4601  1.3677 -0.8693
 8632SOL    MW434296   0.376   2.283   2.554  0.4781 -0.1436 -0.2407
 8633SOL     OW34297   2.396   1.481   4.429 -0.1404 -0.5034  0.3137
 8633SOL    HW234298   2.387   1.386   4.436 -0.2574 -0.4204  1.4625
 8633SOL    HW334299   2.400   1.512   4.519 -1.0711  0.6813 -0.0179
 8633SOL    MW434300   2.395   1.473   4.442 -0.2787 -0.3361  0.4215
 8634SOL     OW34301   5.604   5.165   0.152 -0.1238  0.0213 -0.3703
 8634SOL    HW234302   5.582   5.214   0.073 -0.2277  2.4793  1.0424
 8634SOL    HW334303   5.519   5.147   0.194  0.0173  0.8870  0.3252
 8634SOL    MW434304   5.590   5.169   0.147 -0.1189  0.4599 -0.0921
 8635SOL     OW34305   4.443   5.076   4.794 -0.2548 -0.1286  0.3906
 8635SOL    HW234306   4.467   5.127   4.717  1.0240 -0.5485  0.4922
 8635SOL    HW334307   4.356   5.109   4.818 -0.6649  0.0360 -1.1949
 8635SOL    MW434308   4.434   5.087   4.787 -0.1402 -0.1623  0.1949
 8636SOL     OW34309   3.694   1.629   5.651 -0.0186  0.0830  0.1800
 8636SOL    HW234310   3.688   1.633   5.746 -0.9923 -0.0564  0.1299
 8636SOL    HW334311   3.783   1.659   5.632 -0.0527  0.8078  1.0846
 8636SOL    MW434312   3.705   1.633   5.661 -0.1516  0.1603  0.2928
 8637SOL     OW34313   0.216   0.401   0.746 -0.1913 -0.1479 -0.1859
 8637SOL    HW234314   0.146   0.427   0.687 -1.8449 -0.1905  1.6678
 8637SOL    HW334315   0.196   0.310   0.769  1.7956 -0.9644 -1.3862
 8637SOL    MW434316   0.204   0.392   0.741 -0.1474 -0.2613 -0.0997
 8638SOL     OW34317   3.378   2.799   0.799  0.1260 -0.5411 -0.0327
 8638SOL    HW234318   3.334   2.819   0.881  1.0870 -0.0349  0.3810
 8638SOL    HW334319   3.340   2.860   0.736 -0.8221 -1.1269 -0.0429
 8638SOL    MW434320   3.367   2.810   0.801  0.1277 -0.5516  0.0205
 8639SOL     OW34321   3.685   2.118   4.339 -0.0039  0.8798  0.2276
 8639SOL    HW234322   3.591   2.137   4.328 -0.2335 -0.9192 -1.5997
 8639SOL    HW334323   3.712   2.172   4.414 -2.4111  1.6892  0.6070
 8639SOL    MW434324   3.676   2.128   4.348 -0.3518  0.7492  0.0366
 8640SOL     OW34325   5.353   4.078   5.264  0.2589  0.3394  0.2141
 8640SOL    HW234326   5.323   4.156   5.309  0.8431  1.5213 -1.3465
 8640SOL    HW334327   5.340   4.007   5.327 -0.8884  1.5754  1.4329
 8640SOL    MW434328   5.348   4.079   5.278  0.1846  0.6584  0.1690
 8641SOL     OW34329   1.002   3.828   2.824 -0.3100  0.6759  0.4688
 8641SOL    HW234330   0.993   3.807   2.731  1.7180 -0.5478  0.4830
 8641SOL    HW334331   1.068   3.898   2.826 -1.5189  1.8464  0.9248
 8641SOL    MW434332   1.009   3.834   2.812 -0.2019  0.6689  0.5308
 8642SOL     OW34333   4.681   3.809   3.810  0.0639  0.4831 -0.6676
 8642SOL    HW234334   4.700   3.722   3.778 -2.0156 -0.2873  0.0224
 8642SOL    HW334335   4.722   3.868   3.746  1.2583 -0.9556 -1.2935
 8642SOL    MW434336   4.689   3.806   3.798 -0.0529  0.1916 -0.6591
 8643SOL     OW34337   3.386   2.055   2.889 -0.0846  0.2744  0.0070
 8643SOL    HW234338   3.416   2.077   2.977 -0.2236 -0.2867  0.1982
 8643SOL    HW334339   3.379   1.959   2.889 -2.1919  0.3790  0.0858
 8643SOL    MW434340   3.389   2.045   2.901 -0.3810  0.2142  0.0426
 8644SOL     OW34341   5.556   3.617   4.206  0.2520 -0.3191 -0.6402
 8644SOL    HW234342   5.483   3.678   4.193  0.0506 -0.5748 -0.7043
 8644SOL    HW334343   5.634   3.670   4.190  0.1805  0.5142  1.4157
 8644SOL    MW434344   5.557   3.632   4.202  0.2160 -0.2429 -0.3774
 8645SOL     OW34345   4.741   3.125   4.120 -0.2795  0.3565 -0.0739
 8645SOL    HW234346   4.671   3.166   4.071  1.3432  0.5725 -2.3509
 8645SOL    HW334347   4.758   3.042   4.075 -0.4000 -0.6897  1.6743
 8645SOL    MW434348   4.734   3.119   4.108 -0.0813  0.2469 -0.1437
 8646SOL     OW34349   0.014   2.559   5.387  0.1408 -0.3567 -0.0044
 8646SOL    HW234350   0.050   2.643   5.415 -1.9143  1.1573 -1.6481
 8646SOL    HW334351  -0.064   2.546   5.442  1.1072 -1.8850  1.1087
 8646SOL    MW434352   0.008   2.568   5.398 -0.0028 -0.3586 -0.0744
 8647SOL     OW34353   1.405   2.635   6.262  0.2138 -0.4515  0.0754
 8647SOL    HW234354   1.439   2.549   6.287  0.6416 -0.0896  0.7549
 8647SOL    HW334355   1.458   2.661   6.186 -0.2804 -1.0150 -0.4805
 8647SOL    MW434356   1.417   2.627   6.255  0.2050 -0.4781  0.0917
 8648SOL     OW34357   0.284   2.934   4.459 -0.0497  0.6268  0.0091
 8648SOL    HW234358   0.328   3.007   4.504  1.7919  0.8277 -1.9380
 8648SOL    HW334359   0.295   2.954   4.366 -2.7514 -0.3166 -0.6129
 8648SOL    MW434360   0.291   2.947   4.453 -0.1631  0.5288 -0.3299
 8649SOL     OW34361   1.048   0.083   4.070  0.3667  0.0042 -0.4361
 8649SOL    HW234362   0.960   0.122   4.067 -0.5778 -1.5681  2.6369
 8649SOL    HW334363   1.032  -0.010   4.086  2.5906 -0.3350  0.1253
 8649SOL    MW434364   1.034   0.076   4.072  0.5355 -0.2480  0.0434
 8650SOL     OW34365   1.765   0.303   4.720  0.0176 -0.5435  0.7952
 8650SOL    HW234366   1.686   0.287   4.669  0.2694  1.9622 -0.5120
 8650SOL    HW334367   1.733   0.332   4.806 -0.4116 -1.9747  1.1495
 8650SOL    MW434368   1.751   0.305   4.725 -0.0058 -0.4017  0.6695
 8651SOL     OW34369   2.702   3.942   1.463 -0.2478 -0.4296  0.0337
 8651SOL    HW234370   2.674   3.913   1.550 -0.5839 -0.6439 -0.1433
 8651SOL    HW334371   2.770   3.879   1.438  0.7471  0.3669  0.6616
 8651SOL    MW434372   2.707   3.930   1.472 -0.1609 -0.3528  0.0932
 8652SOL     OW34373   1.053   4.648   4.776  0.1676 -0.1627 -0.1875
 8652SOL    HW234374   1.147   4.632   4.770  0.5058  0.4235  2.3109
 8652SOL    HW334375   1.019   4.626   4.689  2.8807  1.6558 -1.8695
 8652SOL    MW434376   1.061   4.643   4.764  0.5702  0.1545 -0.0798
 8653SOL     OW34377   3.380   5.639   4.820  0.6660 -0.2994 -0.0435
 8653SOL    HW234378   3.311   5.640   4.754  1.2354 -0.5398 -0.6505
 8653SOL    HW334379   3.414   5.729   4.821  0.6479 -0.2925 -0.0615
 8653SOL    MW434380   3.375   5.651   4.812  0.7388 -0.3302 -0.1260
 8654SOL     OW34381   5.196   2.426   1.020  0.1395  0.1800  0.2623
 8654SOL    HW234382   5.158   2.449   1.105  2.4564  1.3281  1.0592
 8654SOL    HW334383   5.237   2.341   1.034 -0.3043 -0.0862 -0.0111
 8654SOL    MW434384   5.196   2.418   1.033  0.3866  0.2964  0.3314
 8655SOL     OW34385   4.850   5.996   3.569  0.5919 -0.0231 -0.9499
 8655SOL    HW234386   4.898   6.058   3.623  0.4359 -1.0526  0.4186
 8655SOL    HW334387   4.918   5.942   3.529  0.6754 -1.7767  1.3441
 8655SOL    MW434388   4.865   5.997   3.571  0.5823 -0.3903 -0.4667
 8656SOL     OW34389   5.754   3.393   2.183  0.1738  0.3225  0.4032
 8656SOL    HW234390   5.704   3.351   2.253 -1.5916  0.4879 -0.6706
 8656SOL    HW334391   5.822   3.330   2.161 -2.0514 -1.8595 -0.7774
 8656SOL    MW434392   5.756   3.379   2.189 -0.3527  0.0564  0.1057
 8657SOL     OW34393   3.969   5.072   3.408 -0.5380  1.0061 -0.2187
 8657SOL    HW234394   4.035   5.122   3.360 -0.3077  0.4173 -0.5334
 8657SOL    HW334395   3.888   5.085   3.359 -0.0652 -0.5803 -1.5407
 8657SOL    MW434396   3.967   5.080   3.395 -0.4453  0.7191 -0.4346
 8658SOL     OW34397   0.011   2.021   0.508  0.9419 -0.6523  0.3227
 8658SOL    HW234398  -0.014   2.111   0.529  0.8163 -0.7375  0.5462
 8658SOL    HW334399   0.022   1.979   0.594 -0.7029 -1.3135  0.2525
 8658SOL    MW434400   0.009   2.027   0.522  0.7083 -0.7508  0.3430
 8659SOL     OW34401   3.580   5.395   6.245 -0.4953  0.1148 -0.3765
 8659SOL    HW234402   3.517   5.368   6.312  1.1027 -1.1527  0.7044
 8659SOL    HW334403   3.605   5.484   6.269  0.9075 -0.7213  1.4608
 8659SOL    MW434404   3.575   5.403   6.257 -0.0994 -0.1627  0.0085
 8660SOL     OW34405   2.767   3.974   0.325  0.3061 -0.0506 -0.1408
 8660SOL    HW234406   2.841   3.961   0.267  0.9951 -1.4910  1.0046
 8660SOL    HW334407   2.780   3.912   0.396 -1.1744  0.7620  0.9138
 8660SOL    MW434408   2.778   3.964   0.327  0.2016 -0.1334  0.1495
 8661SOL     OW34409   2.116   2.877   2.104  0.2803 -0.4486 -0.0299
 8661SOL    HW234410   2.190   2.927   2.138 -0.2494  0.7625 -0.6228
 8661SOL    HW334411   2.107   2.905   2.013 -0.8322 -0.6672  0.0026
 8661SOL    MW434412   2.125   2.887   2.097  0.0637 -0.3176 -0.1038
 8662SOL     OW34413   6.248   0.945   0.370  0.1933  0.0698  0.2180
 8662SOL    HW234414   6.212   0.862   0.339  0.5467 -0.2197  0.5735
 8662SOL    HW334415   6.338   0.945   0.338  1.1573 -1.0465  2.6478
 8662SOL    MW434416   6.255   0.934   0.362  0.3671 -0.1157  0.5855
 8663SOL     OW34417   6.221   3.560   2.464  0.2704 -0.4984 -0.2699
 8663SOL    HW234418   6.184   3.547   2.377  0.1619 -0.4679 -0.2284
 8663SOL    HW334419   6.312   3.532   2.455 -0.0489 -1.6733 -0.0927
 8663SOL    MW434420   6.228   3.554   2.451  0.2140 -0.6494 -0.2410
 8664SOL     OW34421   1.614   5.372   6.392  0.2747 -0.1105 -0.2166
 8664SOL    HW234422   1.640   5.438   6.328 -0.6680  1.7483  1.2189
 8664SOL    HW334423   1.674   5.383   6.465 -1.3712  0.8949  1.0616
 8664SOL    MW434424   1.625   5.382   6.393 -0.0668  0.2674  0.1415
 8665SOL     OW34425   6.036   4.578   1.108  0.2192  0.7844 -0.2807
 8665SOL    HW234426   5.964   4.525   1.074  0.5720  1.6649 -2.5743
 8665SOL    HW334427   6.095   4.514   1.149 -0.3527 -0.3576 -1.1703
 8665SOL    MW434428   6.034   4.563   1.109  0.1903  0.7499 -0.7007
 8666SOL     OW34429   5.188   1.432   5.348 -0.1114  0.0562 -0.3033
 8666SOL    HW234430   5.160   1.342   5.365 -0.6744  0.1892 -0.4854
 8666SOL    HW334431   5.149   1.483   5.419  1.2233  0.0012  0.5118
 8666SOL    MW434432   5.179   1.427   5.359 -0.0096  0.0665 -0.2198
 8667SOL     OW34433   1.953   2.220   5.648  0.3071 -0.0750 -0.0276
 8667SOL    HW234434   1.992   2.156   5.708 -0.2819  0.0017  0.4453
 8667SOL    HW334435   1.860   2.198   5.646  0.2417  0.2269 -0.5454
 8667SOL    MW434436   1.946   2.208   5.656  0.2207 -0.0250 -0.0335
 8668SOL     OW34437   1.757   2.125   4.956 -0.3058 -0.4903 -0.8791
 8668SOL    HW234438   1.778   2.165   5.040  3.9901 -1.1598 -1.3863
 8668SOL    HW334439   1.743   2.032   4.977 -0.0205 -0.5111 -0.7657
 8668SOL    MW434440   1.758   2.118   4.970  0.2986 -0.5814 -0.9310
 8669SOL     OW34441   4.780   4.714   5.030  0.4011  0.4238 -0.0476
 8669SOL    HW234442   4.869   4.725   4.994  1.1010  0.1962  1.5326
 8669SOL    HW334443   4.736   4.797   5.010  0.8066  0.3753 -1.2433
 8669SOL    MW434444   4.786   4.727   5.022  0.5470  0.3874  0.0031
 8670SOL     OW34445   2.963   6.230   4.983 -0.6449  0.8993  0.0754
 8670SOL    HW234446   3.009   6.212   5.065  2.1770  1.0022 -1.3304
 8670SOL    HW334447   2.905   6.156   4.970  0.1985 -0.0042  1.2930
 8670SOL    MW434448   2.962   6.218   4.992 -0.1613  0.7937  0.0506
 8671SOL     OW34449   6.288   2.788   2.454  0.3707 -0.4233  0.5224
 8671SOL    HW234450   6.335   2.853   2.403  1.3800 -0.9316  0.7786
 8671SOL    HW334451   6.210   2.769   2.402  0.5982  0.2087 -0.0652
 8671SOL    MW434452   6.284   2.794   2.441  0.5339 -0.4070  0.4787
 8672SOL     OW34453   5.932   0.388   2.824 -0.3719  0.5405 -0.5506
 8672SOL    HW234454   5.889   0.447   2.886  0.3906  0.9617 -0.4107
 8672SOL    HW334455   5.873   0.385   2.749 -0.2224  1.8610 -0.7558
 8672SOL    MW434456   5.919   0.395   2.822 -0.2516  0.7703 -0.5592
 8673SOL     OW34457   3.937   3.768   5.240 -0.0136  0.5519  0.6108
 8673SOL    HW234458   3.843   3.751   5.240  0.0018  0.4505  1.3374
 8673SOL    HW334459   3.964   3.753   5.149 -0.6975  0.5932  0.3967
 8673SOL    MW434460   3.928   3.764   5.228 -0.1018  0.5440  0.6784
 8674SOL     OW34461   3.472   0.231   3.509  0.2880 -0.3064  0.1917
 8674SOL    HW234462   3.539   0.229   3.441 -0.9132  0.4012 -1.0759
 8674SOL    HW334463   3.484   0.149   3.557  1.4818 -0.5998 -0.5709
 8674SOL    MW434464   3.482   0.220   3.506  0.2870 -0.2518 -0.0762
 8675SOL     OW34465   1.318   3.981   1.731  0.2147  0.3539 -0.1342
 8675SOL    HW234466   1.231   4.011   1.705 -0.7390 -1.4490  0.8026
 8675SOL    HW334467   1.304   3.893   1.764  2.4467 -0.0498 -0.1238
 8675SOL    MW434468   1.305   3.974   1.732  0.3834  0.0628 -0.0092
 8676SOL     OW34469   3.182   4.822   1.731 -0.1555  0.3465 -0.3209
 8676SOL    HW234470   3.169   4.733   1.764 -0.7653  1.0233  1.3739
 8676SOL    HW334471   3.117   4.832   1.661 -0.5461 -0.3068 -0.0549
 8676SOL    MW434472   3.172   4.812   1.726 -0.2875  0.3496 -0.0622
 8677SOL     OW34473   4.541   1.179   4.005  0.1496 -0.2667  0.4474
 8677SOL    HW234474   4.523   1.271   3.989  0.4495 -0.2893 -0.0818
 8677SOL    HW334475   4.578   1.176   4.093 -0.8834 -0.0295  0.8979
 8677SOL    MW434476   4.544   1.191   4.014  0.0528 -0.2384  0.4371
 8678SOL     OW34477   0.738   5.873   3.525  0.5395  0.9336 -0.1126
 8678SOL    HW234478   0.788   5.807   3.573 -1.2156 -2.5948 -2.6342
 8678SOL    HW334479   0.805   5.929   3.484  2.3681 -1.4900 -0.6611
 8678SOL    MW434480   0.754   5.872   3.526  0.5492  0.1483 -0.5177
 8679SOL     OW34481   3.278   6.169   4.742  0.0100 -0.1635  0.7468
 8679SOL    HW234482   3.188   6.153   4.714 -0.0839 -1.3430  1.6340
 8679SOL    HW334483   3.317   6.222   4.673 -0.5152 -2.0468 -1.0689
 8679SOL    MW434484   3.272   6.174   4.729 -0.0717 -0.5676  0.6243
 8680SOL     OW34485   4.717   1.775   6.330 -0.1139 -0.0752 -0.6856
 8680SOL    HW234486   4.636   1.817   6.358  1.3963  1.1962  2.3516
 8680SOL    HW334487   4.753   1.833   6.263 -0.8562  0.3221 -0.7408
 8680SOL    MW434488   4.711   1.788   6.325 -0.0126  0.1450 -0.2922
 8681SOL     OW34489   5.824   4.223   0.179 -0.5579 -0.4903  0.2029
 8681SOL    HW234490   5.733   4.251   0.187 -1.5208 -3.1724 -0.5186
 8681SOL    HW334491   5.825   4.165   0.103  1.1120 -2.7765  1.8275
 8681SOL    MW434492   5.812   4.219   0.170 -0.4646 -1.1458  0.3220
 8682SOL     OW34493   1.602   3.829   5.240 -0.2411  0.3774  0.3679
 8682SOL    HW234494   1.567   3.743   5.217  0.9059  0.8709 -4.4199
 8682SOL    HW334495   1.537   3.891   5.205  1.9757  1.2523 -2.6923
 8682SOL    MW434496   1.589   3.826   5.232  0.2027  0.5580 -0.6675
 8683SOL     OW34497   4.699   1.264   2.927 -0.0358 -0.1232 -0.1914
 8683SOL    HW234498   4.673   1.251   2.835 -0.8681  2.1652 -0.3344
 8683SOL    HW334499   4.645   1.337   2.957 -0.4203 -1.4033  2.4269
 8683SOL    MW434500   4.689   1.272   2.919 -0.1964  0.0098  0.1352
 8684SOL     OW34501   0.338   0.068   5.635 -0.2848  0.4294 -0.3170
 8684SOL    HW234502   0.361   0.139   5.695  1.9543 -1.5362  1.3531
 8684SOL    HW334503   0.410   0.066   5.572  0.7301 -1.4592  0.8005
 8684SOL    MW434504   0.351   0.077   5.635  0.1445 -0.0791  0.0508
 8685SOL     OW34505   1.713   5.808   4.887 -0.2515  0.4363 -0.3297
 8685SOL    HW234506   1.755   5.816   4.801  2.4099  1.9794  0.9829
 8685SOL    HW334507   1.706   5.714   4.902 -0.7484  0.1444 -2.1998
 8685SOL    MW434508   1.718   5.797   4.878  0.0341  0.6013 -0.4032
 8686SOL     OW34509   3.563   4.310   6.312 -0.1948 -0.4060  0.7077
 8686SOL    HW234510   3.596   4.308   6.221 -1.4056  3.5701 -0.0067
 8686SOL    HW334511   3.468   4.309   6.303 -0.3300  0.3113  1.8935
 8686SOL    MW434512   3.555   4.309   6.299 -0.3724  0.2132  0.7699
 8687SOL     OW34513   1.610   3.972   4.139 -0.3163 -0.3294  0.0820
 8687SOL    HW234514   1.534   3.927   4.177  0.1132 -2.4174 -1.3568
 8687SOL    HW334515   1.606   3.952   4.046  2.8007 -1.8668  0.1454
 8687SOL    MW434516   1.600   3.964   4.132  0.1516 -0.8077 -0.0995
 8688SOL     OW34517   1.255   5.463   1.856 -0.0981  0.4545  0.1230
 8688SOL    HW234518   1.283   5.502   1.939  0.5807 -0.5849  0.3967
 8688SOL    HW334519   1.221   5.377   1.880  0.4710 -0.0173 -0.7084
 8688SOL    MW434520   1.254   5.457   1.871  0.0666  0.2551  0.0494
 8689SOL     OW34521   4.885   3.651   5.344  0.0610  0.0695  0.6849
 8689SOL    HW234522   4.944   3.726   5.341  0.9225 -0.6119  0.0879
 8689SOL    HW334523   4.827   3.669   5.418  0.7296  0.9690  1.0085
 8689SOL    MW434524   4.885   3.663   5.353  0.2629  0.0983  0.6489
 8690SOL     OW34525   1.274   1.078   1.640  0.0019 -0.6720  0.1494
 8690SOL    HW234526   1.356   1.098   1.594  0.0640 -0.1461  0.4700
 8690SOL    HW334527   1.300   1.019   1.710  0.1442 -0.3612  0.3626
 8690SOL    MW434528   1.288   1.073   1.643  0.0289 -0.5616  0.2198
 8691SOL     OW34529   1.833   4.937   0.653  0.0138  0.3249 -0.4992
 8691SOL    HW234530   1.831   4.844   0.632  0.7233  0.3658 -0.7819
 8691SOL    HW334531   1.823   4.941   0.748 -0.6160 -0.0028 -0.5465
 8691SOL    MW434532   1.831   4.926   0.662  0.0243  0.2871 -0.5427
 8692SOL     OW34533   0.766   5.505   1.839 -0.5041 -0.1602  0.1327
 8692SOL    HW234534   0.766   5.413   1.867 -0.8331  0.2195  1.4664
 8692SOL    HW334535   0.857   5.534   1.852  0.3535 -1.0348 -3.0556
 8692SOL    MW434536   0.778   5.497   1.844 -0.4344 -0.2255 -0.1120
 8693SOL     OW34537   2.386   3.960   1.545 -0.2144  0.1066  0.1033
 8693SOL    HW234538   2.464   3.972   1.492  0.6501  1.9145  1.6733
 8693SOL    HW334539   2.401   3.879   1.593 -0.0640 -0.4174 -0.8155
 8693SOL    MW434540   2.398   3.951   1.544 -0.0805  0.2760  0.1892
 8694SOL     OW34541   5.435   0.321   1.801  0.2509  0.2644 -0.1730
 8694SOL    HW234542   5.418   0.247   1.860 -1.0270  2.9718  3.2357
 8694SOL    HW334543   5.513   0.363   1.838 -1.1989  2.6631  0.3799
 8694SOL    MW434544   5.443   0.317   1.814 -0.1090  0.9381  0.3497
 8695SOL     OW34545   4.033   4.167   2.425 -0.2918 -0.1992  0.1060
 8695SOL    HW234546   4.059   4.103   2.359  1.9943  0.4748  0.2530
 8695SOL    HW334547   3.951   4.132   2.461  0.4593 -2.6422 -0.3285
 8695SOL    MW434548   4.026   4.154   2.421  0.1089 -0.4326  0.0681
 8696SOL     OW34549   3.198   5.609   1.581  0.3184  0.2283 -0.4263
 8696SOL    HW234550   3.132   5.676   1.568 -0.4489 -0.1327  1.3522
 8696SOL    HW334551   3.185   5.579   1.671  0.4761 -2.4459 -1.2089
 8696SOL    MW434552   3.188   5.614   1.591  0.2380 -0.1721 -0.2949
 8697SOL     OW34553   0.960   0.935   3.789  0.6810 -0.0875  0.0656
 8697SOL    HW234554   0.956   0.910   3.696  0.7704 -2.1598  0.5590
 8697SOL    HW334555   1.053   0.928   3.811  0.6988  0.6936  0.2502
 8697SOL    MW434556   0.972   0.931   3.779  0.6951 -0.2579  0.1551
 8698SOL     OW34557   5.275   4.452   1.327  0.2325 -0.8879  0.9776
 8698SOL    HW234558   5.334   4.380   1.304  1.8058 -0.0986  2.3131
 8698SOL    HW334559   5.315   4.492   1.404 -0.6076  1.4233  0.2908
 8698SOL    MW434560   5.288   4.448   1.334  0.3292 -0.4789  1.0632
 8699SOL     OW34561   1.512   4.719   5.073 -0.1409 -0.3650  0.4662
 8699SOL    HW234562   1.470   4.637   5.101  0.2844 -0.8940 -0.4026
 8699SOL    HW334563   1.561   4.695   4.994 -0.9219  0.9704 -0.4677
 8699SOL    MW434564   1.513   4.705   5.066 -0.1878 -0.2586  0.2283
 8700SOL     OW34565   4.784   3.877   2.884 -0.0421 -0.4285  0.1481
 8700SOL    HW234566   4.780   3.972   2.876  0.1860 -0.5423 -1.7412
 8700SOL    HW334567   4.740   3.858   2.967  3.3002  1.5562  2.6292
 8700SOL    MW434568   4.778   3.887   2.894  0.4289 -0.1816  0.2262
 8701SOL     OW34569   3.098   3.327   2.334 -0.2420 -0.1674  0.1629
 8701SOL    HW234570   3.130   3.267   2.401 -0.2581 -0.9590 -0.5213
 8701SOL    HW334571   3.141   3.410   2.354  1.6903 -1.0086 -0.2884
 8701SOL    MW434572   3.108   3.330   2.345  0.0108 -0.3828  0.0131
 8702SOL     OW34573   4.937   3.184   3.648  0.2628 -0.2765 -0.7421
 8702SOL    HW234574   4.848   3.165   3.677  0.2006  0.8074 -0.1672
 8702SOL    HW334575   4.957   3.116   3.584 -0.8759 -0.6868 -0.6760
 8702SOL    MW434576   4.928   3.173   3.643  0.1043 -0.1876 -0.6575
 8703SOL     OW34577   2.740   0.211   5.974  0.0676 -0.5093  0.1590
 8703SOL    HW234578   2.689   0.161   5.911  2.1877 -0.8049 -1.4641
 8703SOL    HW334579   2.711   0.180   6.060 -1.0728 -2.0069 -0.7286
 8703SOL    MW434580   2.730   0.201   5.977  0.1968 -0.7459 -0.1723
 8704SOL     OW34581   0.897   5.350   2.681  0.2437 -0.5362  0.2603
 8704SOL    HW234582   0.831   5.369   2.747  0.6001 -0.6432  0.6560
 8704SOL    HW334583   0.868   5.397   2.603  0.2570  0.2775  0.7408
 8704SOL    MW434584   0.885   5.359   2.679  0.2925 -0.4430  0.3759
 8705SOL     OW34585   4.229   5.252   2.750  0.4367  0.0986  0.3402
 8705SOL    HW234586   4.167   5.179   2.750  1.1394 -0.5215  1.5843
 8705SOL    HW334587   4.183   5.321   2.702 -0.8200 -0.6750  0.3641
 8705SOL    MW434588   4.215   5.252   2.744  0.3636 -0.0853  0.5075
 8706SOL     OW34589   2.735   1.652   5.227  0.3067 -0.3181  0.4845
 8706SOL    HW234590   2.722   1.576   5.284  1.7032 -0.4906  0.6002
 8706SOL    HW334591   2.734   1.616   5.138 -0.2169 -0.2946  0.4801
 8706SOL    MW434592   2.733   1.637   5.223  0.4219 -0.3377  0.4992
 8707SOL     OW34593   1.903   0.986   2.998 -0.3653  0.3803  0.0293
 8707SOL    HW234594   1.872   1.074   3.016 -0.4852  0.1730  0.9068
 8707SOL    HW334595   1.994   0.986   3.029 -0.6612 -0.0644  0.9574
 8707SOL    MW434596   1.911   0.998   3.005 -0.4202  0.2943  0.2675
 8708SOL     OW34597   5.281   3.703   0.637 -0.0533  0.1014 -0.1236
 8708SOL    HW234598   5.317   3.774   0.584 -0.3800 -0.7687 -1.5745
 8708SOL    HW334599   5.352   3.640   0.646 -0.6683 -0.8788 -1.6447
 8708SOL    MW434600   5.295   3.704   0.631 -0.1775 -0.1428 -0.5157
 8709SOL     OW34601   3.284   0.735   2.187  0.7263 -0.1652 -0.2501
 8709SOL    HW234602   3.201   0.715   2.231  0.2776  1.8336 -0.0894
 8709SOL    HW334603   3.271   0.705   2.097 -0.7232  1.2815 -0.5790
 8709SOL    MW434604   3.271   0.728   2.181  0.4758  0.2894 -0.2723
 8710SOL     OW34605   3.544   5.887   4.831 -0.4205 -0.0743 -0.2000
 8710SOL    HW234606   3.524   5.975   4.864  0.9208  0.1831  0.0093
 8710SOL    HW334607   3.629   5.897   4.788 -1.3266 -0.7910 -2.2380
 8710SOL    MW434608   3.553   5.900   4.830 -0.3631 -0.1349 -0.4413
 8711SOL     OW34609   5.437   6.403   2.563  0.5411  0.4713  0.4388
 8711SOL    HW234610   5.405   6.450   2.486 -1.1128 -1.6254 -0.2509
 8711SOL    HW334611   5.364   6.405   2.625  0.6061 -0.6970  0.5849
 8711SOL    MW434612   5.423   6.409   2.561  0.3315  0.0405  0.3671
 8712SOL     OW34613   1.889   4.905   5.357  0.2950  0.1333  0.2663
 8712SOL    HW234614   1.931   4.980   5.315  0.0573 -0.2222 -0.6220
 8712SOL    HW334615   1.802   4.901   5.318  0.1781 -0.3894  0.5722
 8712SOL    MW434616   1.883   4.915   5.346  0.2482  0.0174  0.1895
 8713SOL     OW34617   0.286   6.097   0.964 -0.1500 -0.2630 -0.1266
 8713SOL    HW234618   0.271   6.113   1.058  0.1891 -0.5485 -0.0214
 8713SOL    HW334619   0.260   6.178   0.921 -2.9266 -1.0023 -0.0554
 8713SOL    MW434620   0.281   6.110   0.971 -0.4716 -0.3982 -0.1033
 8714SOL     OW34621   2.453   1.722   3.620  0.0891 -0.2851 -0.3173
 8714SOL    HW234622   2.436   1.700   3.712 -1.5450  0.0566 -0.5201
 8714SOL    HW334623   2.417   1.649   3.570 -1.1388  0.6072 -0.7760
 8714SOL    MW434624   2.446   1.710   3.626 -0.2885 -0.1223 -0.4046
 8715SOL     OW34625   3.196   1.814   3.594  0.1588 -0.4370  0.1117
 8715SOL    HW234626   3.214   1.726   3.561  2.0101 -0.1515  0.2482
 8715SOL    HW334627   3.193   1.804   3.689 -1.0173 -0.5527  0.0833
 8715SOL    MW434628   3.198   1.801   3.602  0.2479 -0.4146  0.1260
 8716SOL     OW34629   6.001   0.865   3.126 -0.1378  0.2131  0.0565
 8716SOL    HW234630   5.963   0.801   3.187  0.8023 -0.7208 -0.2976
 8716SOL    HW334631   6.047   0.927   3.182  2.3167 -1.6800  0.3205
 8716SOL    MW434632   6.002   0.864   3.141  0.3101 -0.1599  0.0446
 8717SOL     OW34633   3.714   3.032   0.722 -0.1037 -0.1909 -0.9277
 8717SOL    HW234634   3.770   3.024   0.645  0.7359  1.4899 -0.5578
 8717SOL    HW334635   3.699   2.942   0.751  0.4018 -0.7931 -2.4580
 8717SOL    MW434636   3.720   3.019   0.716  0.0738 -0.0486 -1.0808
 8718SOL     OW34637   3.026   1.161   4.848 -0.5228  0.4630 -0.6733
 8718SOL    HW234638   3.017   1.069   4.825  0.0019  0.5511 -1.2560
 8718SOL    HW334639   3.000   1.166   4.939 -0.0688 -0.3494 -0.4943
 8718SOL    MW434640   3.021   1.150   4.857 -0.3937  0.3674 -0.7266
 8719SOL     OW34641   4.425   3.553   1.067  0.0635  0.5144 -0.7275
 8719SOL    HW234642   4.466   3.523   1.148 -0.4371 -0.3021 -0.7707
 8719SOL    HW334643   4.391   3.641   1.089  0.5147  0.5749 -0.2551
 8719SOL    MW434644   4.426   3.561   1.081  0.0570  0.4147 -0.6709
 8720SOL     OW34645   6.359   3.831   5.379  0.9297  0.5214  0.2670
 8720SOL    HW234646   6.404   3.822   5.463 -0.0167 -0.3104  0.7061
 8720SOL    HW334647   6.295   3.760   5.379  0.8127  0.6039 -1.0975
 8720SOL    MW434648   6.357   3.820   5.390  0.7894  0.4226  0.1449
 8721SOL     OW34649   5.499   3.262   0.593 -0.6277 -0.2844 -0.0166
 8721SOL    HW234650   5.471   3.174   0.567 -0.9422 -0.4700  0.9172
 8721SOL    HW334651   5.532   3.302   0.512  0.4491 -1.6068 -0.2690
 8721SOL    MW434652   5.500   3.256   0.579 -0.5271 -0.4833  0.0733
 8722SOL     OW34653   5.978   3.855   6.420 -0.4254 -0.2564  0.3536
 8722SOL    HW234654   5.931   3.806   6.487  0.1668 -1.0703  0.1892
 8722SOL    HW334655   5.994   3.792   6.350 -2.5825  0.9934 -1.4068
 8722SOL    MW434656   5.974   3.840   6.420 -0.6319 -0.1989  0.0997
 8723SOL     OW34657   2.590   3.614   0.598  0.3323  0.3648 -0.4414
 8723SOL    HW234658   2.621   3.647   0.683  0.0554  0.6679 -0.4522
 8723SOL    HW334659   2.517   3.673   0.576 -2.0854 -1.9157  0.8778
 8723SOL    MW434660   2.584   3.626   0.607 -0.0232  0.1039 -0.2688
 8724SOL     OW34661   1.245   3.312   3.964  0.3025 -0.6089  0.1705
 8724SOL    HW234662   1.289   3.248   3.907  0.6518  0.2357 -0.5237
 8724SOL    HW334663   1.180   3.354   3.908  0.3524 -0.0675  0.5095
 8724SOL    MW434664   1.242   3.309   3.949  0.3551 -0.4261  0.1237
 8725SOL     OW34665   1.431   1.344   3.695 -0.1566 -0.2376 -0.4410
 8725SOL    HW234666   1.379   1.289   3.636 -1.0129 -0.1045  0.1771
 8725SOL    HW334667   1.482   1.400   3.636 -2.4710  1.2913 -1.1319
 8725SOL    MW434668   1.431   1.344   3.679 -0.5749 -0.0183 -0.4506
 8726SOL     OW34669   5.930   3.820   4.796 -0.0957 -0.7391  0.1092
 8726SOL    HW234670   5.871   3.762   4.843 -2.0174  1.6111  0.7634
 8726SOL    HW334671   5.997   3.843   4.860 -0.1829 -1.0321  0.3082
 8726SOL    MW434672   5.931   3.816   4.810 -0.3607 -0.4677  0.2218
 8727SOL     OW34673   2.261   3.928   6.029 -0.4140 -0.3624  0.3707
 8727SOL    HW234674   2.269   3.847   5.979  1.3080 -0.3382  0.5396
 8727SOL    HW334675   2.289   3.997   5.968  1.6781 -0.3324  1.2847
 8727SOL    MW434676   2.266   3.927   6.014  0.0892 -0.3552  0.5136
 8728SOL     OW34677   1.224   0.510   6.037  0.3818 -0.4552  0.3261
 8728SOL    HW234678   1.240   0.419   6.012  0.8407 -0.4053  0.4314
 8728SOL    HW334679   1.287   0.561   5.986 -1.1872  0.0013 -1.2414
 8728SOL    MW434680   1.234   0.505   6.027  0.2354 -0.3884  0.1332
 8729SOL     OW34681   2.959   3.551   4.381  0.4859 -0.0041 -0.3215
 8729SOL    HW234682   2.897   3.499   4.433  0.5775  0.5186  0.3217
 8729SOL    HW334683   3.019   3.486   4.344 -0.5766 -0.5380 -1.1514
 8729SOL    MW434684   2.959   3.535   4.383  0.3578 -0.0056 -0.3461
 8730SOL     OW34685   2.381   5.719   2.631  0.2521  0.5209  0.7638
 8730SOL    HW234686   2.370   5.732   2.725 -1.3890 -0.8541  0.8085
 8730SOL    HW334687   2.293   5.704   2.598  1.0348 -1.9986 -0.4913
 8730SOL    MW434688   2.368   5.719   2.639  0.1388  0.0071  0.6041
 8731SOL     OW34689   6.423   1.045   4.891 -0.1786  0.2867  0.2643
 8731SOL    HW234690   6.387   1.104   4.825 -1.8116 -0.3551  0.5430
 8731SOL    HW334691   6.503   1.010   4.850 -0.3757  1.0009 -0.7798
 8731SOL    MW434692   6.429   1.048   4.877 -0.4201  0.2963  0.1633
 8732SOL     OW34693   1.691   1.993   5.377 -0.0756  0.2941  0.2187
 8732SOL    HW234694   1.619   1.935   5.352  0.7340 -0.4182 -0.5324
 8732SOL    HW334695   1.750   1.938   5.428  0.4200  0.6030 -0.0115
 8732SOL    MW434696   1.689   1.978   5.380  0.0966  0.2409  0.0892
 8733SOL     OW34697   5.061   4.433   6.158  0.9736 -0.2445 -1.0470
 8733SOL    HW234698   5.015   4.452   6.077 -0.5953 -0.4174 -0.2269
 8733SOL    HW334699   5.016   4.356   6.194  3.5331 -2.0726 -1.4585
 8733SOL    MW434700   5.049   4.425   6.152  1.1043 -0.5085 -0.9931
 8734SOL     OW34701   1.576   3.300   4.986 -0.1761 -0.2037 -0.4666
 8734SOL    HW234702   1.573   3.218   4.936 -1.7287 -1.4075  1.4381
 8734SOL    HW334703   1.573   3.272   5.078 -0.6104  1.9993  0.2489
 8734SOL    MW434704   1.575   3.285   4.992 -0.4382 -0.0719 -0.1209
 8735SOL     OW34705   0.905   2.716   5.399  0.2152 -0.5854  0.6350
 8735SOL    HW234706   0.868   2.628   5.400 -1.4370  0.0288  2.9800
 8735SOL    HW334707   0.869   2.757   5.320 -2.0945 -0.8784  1.4658
 8735SOL    MW434708   0.896   2.710   5.389 -0.3075 -0.5430  1.0540
 8736SOL     OW34709   2.997   6.231   3.881  0.4405 -0.0504  0.0293
 8736SOL    HW234710   3.034   6.171   3.816  1.4692  1.1069 -0.5046
 8736SOL    HW334711   2.902   6.220   3.874  0.5884 -0.9741 -0.6481
 8736SOL    MW434712   2.990   6.222   3.872  0.5958 -0.0196 -0.1305
 8737SOL     OW34713   2.263   5.556   5.393 -0.2907 -0.6684 -0.2573
 8737SOL    HW234714   2.272   5.560   5.297  0.0101 -2.5445 -0.3304
 8737SOL    HW334715   2.179   5.598   5.410 -0.0589  0.2773 -1.2679
 8737SOL    MW434716   2.253   5.562   5.382 -0.2204 -0.7911 -0.4003
 8738SOL     OW34717   4.566   5.230   0.054  0.2636  0.0347  0.3380
 8738SOL    HW234718   4.537   5.314   0.020 -0.5721 -0.4692 -0.2362
 8738SOL    HW334719   4.562   5.240   0.149  1.9082  1.2136  0.3287
 8738SOL    MW434720   4.561   5.242   0.062  0.3703  0.1238  0.2610
 8739SOL     OW34721   2.229   1.309   3.041  0.2852  0.8411  0.2346
 8739SOL    HW234722   2.231   1.286   3.134  1.9711 -0.4126 -0.0490
 8739SOL    HW334723   2.321   1.329   3.020 -0.0458  0.9707 -1.1859
 8739SOL    MW434724   2.242   1.308   3.051  0.4639  0.6928  0.0098
 8740SOL     OW34725   5.805   1.953   4.820 -0.0596  0.0335  0.1294
 8740SOL    HW234726   5.845   1.901   4.890 -0.6966  0.8969  1.1834
 8740SOL    HW334727   5.711   1.937   4.831 -0.1249 -0.7869 -1.3450
 8740SOL    MW434728   5.798   1.944   4.831 -0.1523  0.0392  0.0739
 8741SOL     OW34729   1.371   1.570   5.574 -0.1655 -0.1394 -0.2138
 8741SOL    HW234730   1.340   1.660   5.583 -1.1628 -0.3523 -1.2622
 8741SOL    HW334731   1.338   1.525   5.652 -0.6917  0.1298 -0.2787
 8741SOL    MW434732   1.363   1.576   5.585 -0.3665 -0.1319 -0.3607
 8742SOL     OW34733   3.133   1.091   5.167  0.9034  0.4593 -0.2453
 8742SOL    HW234734   3.095   1.006   5.143 -0.7712  0.9425  0.4922
 8742SOL    HW334735   3.227   1.078   5.160  0.7888 -1.9533  1.3362
 8742SOL    MW434736   3.140   1.078   5.163  0.6673  0.2048  0.0607
 8743SOL     OW34737   2.199   4.795   5.958 -0.0824  0.5764  0.3949
 8743SOL    HW234738   2.273   4.735   5.970 -0.7025 -0.1174  0.8223
 8743SOL    HW334739   2.182   4.793   5.864  0.1166  0.3577  0.3623
 8743SOL    MW434740   2.207   4.787   5.948 -0.1379  0.4560  0.4470
 8744SOL     OW34741   1.364   0.941   5.257  0.0921  0.0224 -0.0993
 8744SOL    HW234742   1.375   1.029   5.222  1.1582  0.2653  0.7784
 8744SOL    HW334743   1.317   0.894   5.189 -3.2632  2.0445  0.6015
 8744SOL    MW434744   1.360   0.946   5.244 -0.2099  0.3213  0.1090
 8745SOL     OW34745   2.810   3.038   0.198  0.1673  0.6034  0.1276
 8745SOL    HW234746   2.729   2.987   0.192 -0.9035  2.3166 -0.5824
 8745SOL    HW334747   2.867   3.001   0.131 -0.2359 -0.2160  0.2225
 8745SOL    MW434748   2.807   3.027   0.189 -0.0272  0.7213  0.0464
 8746SOL     OW34749   2.660   1.861   1.359 -0.3850  0.6381 -0.1892
 8746SOL    HW234750   2.722   1.791   1.377 -0.5227  0.7210  0.6373
 8746SOL    HW334751   2.709   1.942   1.373  0.6185  0.8305 -3.8407
 8746SOL    MW434752   2.674   1.863   1.363 -0.2707  0.6745 -0.5619
 8747SOL     OW34753   1.085   6.032   4.958  0.2287 -0.2519  0.0069
 8747SOL    HW234754   1.081   6.020   5.053 -1.9136  0.3588  0.0371
 8747SOL    HW334755   1.035   5.959   4.922  1.5614 -0.8413 -0.7324
 8747SOL    MW434756   1.078   6.021   4.966  0.1219 -0.2491 -0.0866
 8748SOL     OW34757   5.569   0.629   1.683 -0.2234  0.3859 -0.3657
 8748SOL    HW234758   5.613   0.713   1.674 -0.0586  0.3913  0.4732
 8748SOL    HW334759   5.600   0.594   1.766 -2.1488  0.6087  0.4902
 8748SOL    MW434760   5.579   0.635   1.693 -0.4557  0.4160 -0.1421
 8749SOL     OW34761   1.020   3.094   5.300 -0.0579 -0.0726  0.2928
 8749SOL    HW234762   1.007   3.042   5.220  0.5122 -1.4350  1.0476
 8749SOL    HW334763   1.082   3.043   5.352  1.5415  2.0121  0.5498
 8749SOL    MW434764   1.026   3.080   5.296  0.2283  0.0227  0.4263
 8750SOL     OW34765   2.446   4.411   0.638  0.2830  0.0665 -0.6431
 8750SOL    HW234766   2.519   4.436   0.582  2.5950 -0.1588  2.0644
 8750SOL    HW334767   2.448   4.316   0.639 -0.1692  0.0550 -0.6891
 8750SOL    MW434768   2.456   4.402   0.631  0.5284  0.0352 -0.2920
 8751SOL     OW34769   1.379   5.825   1.529 -0.7521  0.0968  0.2318
 8751SOL    HW234770   1.312   5.843   1.464 -0.8880 -0.6597  0.1443
 8751SOL    HW334771   1.333   5.831   1.613 -0.5252  1.2977  0.2884
 8751SOL    MW434772   1.364   5.828   1.532 -0.7401  0.1554  0.2277
 8752SOL     OW34773   2.610   5.868   4.120 -0.3836  0.2034  0.1331
 8752SOL    HW234774   2.567   5.784   4.105  0.6038  0.0959 -2.8149
 8752SOL    HW334775   2.550   5.932   4.082 -0.6882  0.7700  1.5127
 8752SOL    MW434776   2.597   5.865   4.113 -0.2935  0.2639 -0.0739
 8753SOL     OW34777   5.291   5.344   5.923  0.1175 -0.1512 -0.5565
 8753SOL    HW234778   5.227   5.361   5.853  0.3913  0.8541 -0.5743
 8753SOL    HW334779   5.262   5.399   5.996  0.1206 -0.8208 -0.0425
 8753SOL    MW434780   5.279   5.354   5.923  0.1540 -0.1069 -0.4910
 8754SOL     OW34781   3.852   4.713   0.928  0.0911 -0.3338  0.6035
 8754SOL    HW234782   3.826   4.644   0.867  0.1184 -0.7441  1.0451
 8754SOL    HW334783   3.771   4.738   0.972 -0.4628  1.8939 -1.4818
 8754SOL    MW434784   3.838   4.707   0.926  0.0216 -0.0941  0.3866
 8755SOL     OW34785   5.739   1.882   5.337 -0.0141  0.1402  0.6915
 8755SOL    HW234786   5.826   1.885   5.378  0.1812 -0.0239  0.2965
 8755SOL    HW334787   5.682   1.929   5.398  0.3228  0.1214  1.0254
 8755SOL    MW434788   5.743   1.889   5.351  0.0562  0.1161  0.6835
 8756SOL     OW34789   3.111   1.474   2.718  0.5322  0.4831  0.0394
 8756SOL    HW234790   3.177   1.472   2.648  1.1052 -1.2777  0.5951
 8756SOL    HW334791   3.030   1.448   2.674  0.8457 -0.4096 -0.0301
 8756SOL    MW434792   3.109   1.470   2.703  0.6492  0.1330  0.1035
 8757SOL     OW34793   5.547   2.350   2.632 -0.2420  0.4027  0.3855
 8757SOL    HW234794   5.560   2.417   2.699  1.3940  1.5025 -0.9256
 8757SOL    HW334795   5.625   2.357   2.576 -0.8945 -1.3788 -0.8533
 8757SOL    MW434796   5.559   2.359   2.633 -0.1122  0.3127  0.0490
 8758SOL     OW34797   2.596   2.749   4.002 -0.0856 -0.0932 -0.0444
 8758SOL    HW234798   2.668   2.689   3.980  0.0523 -0.0141  0.1775
 8758SOL    HW334799   2.527   2.691   4.036  0.2319 -0.0936  0.6357
 8758SOL    MW434800   2.596   2.733   4.004 -0.0255 -0.0828  0.0746
 8759SOL     OW34801   5.998   0.107   6.192  0.0305  0.4463 -0.1887
 8759SOL    HW234802   5.933   0.115   6.123  0.1536 -0.6234 -0.4535
 8759SOL    HW334803   6.076   0.151   6.157 -0.2745  0.9434 -0.2393
 8759SOL    MW434804   6.000   0.114   6.179  0.0065  0.3707 -0.2303
 8760SOL     OW34805   1.782   6.048   4.271  0.6739 -0.3557  0.2412
 8760SOL    HW234806   1.809   6.084   4.356  0.9149 -1.2115  0.5374
 8760SOL    HW334807   1.785   5.953   4.283 -0.6723 -0.4917 -0.2853
 8760SOL    MW434808   1.786   6.040   4.284  0.5281 -0.4865  0.2108
 8761SOL     OW34809   1.485   1.510   4.681 -0.0925 -0.2570  0.8571
 8761SOL    HW234810   1.467   1.438   4.741 -1.6788 -1.5716 -1.0820
 8761SOL    HW334811   1.519   1.468   4.602 -3.3838  0.7436 -1.2753
 8761SOL    MW434812   1.487   1.495   4.679 -0.7360 -0.2984  0.3200
 8762SOL     OW34813   2.829   2.842   2.712  0.7344 -0.5236  0.4562
 8762SOL    HW234814   2.809   2.906   2.643 -0.6728 -1.6010 -0.1828
 8762SOL    HW334815   2.923   2.828   2.705  1.1272  1.5417  0.6970
 8762SOL    MW434816   2.839   2.849   2.702  0.6006 -0.3932  0.4037
 8763SOL     OW34817   5.758   5.609   3.117 -0.0314  0.3189 -0.0811
 8763SOL    HW234818   5.817   5.642   3.185  0.6018  0.3331 -0.6308
 8763SOL    HW334819   5.816   5.573   3.050 -0.6591  0.0269 -0.4786
 8763SOL    MW434820   5.773   5.608   3.117 -0.0307  0.2823 -0.2061
 8764SOL     OW34821   5.620   4.054   2.353 -0.4184  0.3482  0.0272
 8764SOL    HW234822   5.568   4.119   2.306 -0.6330  1.1822  1.3682
 8764SOL    HW334823   5.670   4.010   2.285 -2.0389  0.2805 -1.1940
 8764SOL    MW434824   5.619   4.057   2.338 -0.6605  0.4493  0.0430
 8765SOL     OW34825   2.281   4.139   4.529  0.2386 -0.0550  0.3706
 8765SOL    HW234826   2.225   4.066   4.502  0.3190  0.1035 -0.2486
 8765SOL    HW334827   2.302   4.121   4.621 -0.0256 -0.6281  0.3237
 8765SOL    MW434828   2.277   4.127   4.537  0.2144 -0.1097  0.2827
 8766SOL     OW34829   6.303   6.069   2.478  0.0360 -0.0091  0.7324
 8766SOL    HW234830   6.318   6.045   2.569  1.9481 -2.5768 -0.1401
 8766SOL    HW334831   6.384   6.043   2.433 -0.8625  1.1295 -1.7244
 8766SOL    MW434832   6.316   6.063   2.484  0.1698 -0.1977  0.2932
 8767SOL     OW34833   5.706   0.832   3.069 -0.3932 -0.1520  0.7817
 8767SOL    HW234834   5.736   0.919   3.044 -0.7158 -0.1023  0.5637
 8767SOL    HW334835   5.612   0.841   3.080 -0.6668 -0.8169 -0.7261
 8767SOL    MW434836   5.698   0.844   3.067 -0.4718 -0.2332  0.5540
 8768SOL     OW34837   6.374   4.346   0.236 -0.0839  0.1575 -0.2878
 8768SOL    HW234838   6.348   4.437   0.221 -3.1435 -0.4263  0.7447
 8768SOL    HW334839   6.430   4.349   0.314  0.9074  1.2505 -1.0195
 8768SOL    MW434840   6.378   4.358   0.244 -0.3567  0.2246 -0.2481
 8769SOL     OW34841   2.279   3.095   0.854 -0.4969  0.0866  0.0426
 8769SOL    HW234842   2.270   3.051   0.770  1.3721 -0.7840  0.2486
 8769SOL    HW334843   2.315   3.181   0.833 -0.6267  0.1079 -0.0910
 8769SOL    MW434844   2.283   3.101   0.840 -0.2674 -0.0254  0.0521
 8770SOL     OW34845   5.487   4.377   3.652 -0.0974  0.4040 -0.0706
 8770SOL    HW234846   5.405   4.418   3.680  0.0033 -0.3066  1.3615
 8770SOL    HW334847   5.476   4.363   3.558 -1.3250  0.9746 -0.0367
 8770SOL    MW434848   5.475   4.381   3.644 -0.2461  0.3855  0.1228
 8771SOL     OW34849   2.629   1.389   0.908  0.0184 -0.4379  0.2214
 8771SOL    HW234850   2.671   1.303   0.907  0.9427 -0.0173 -1.1692
 8771SOL    HW334851   2.692   1.445   0.955 -0.3117 -0.3963  0.6168
 8771SOL    MW434852   2.643   1.385   0.914  0.0968 -0.3769  0.0901
 8772SOL     OW34853   4.835   0.449   3.240  0.2079 -0.1067 -0.1464
 8772SOL    HW234854   4.826   0.542   3.217 -0.8635 -0.7011 -2.3494
 8772SOL    HW334855   4.766   0.434   3.306  0.6902  0.7404  0.5721
 8772SOL    MW434856   4.824   0.459   3.246  0.1302 -0.0734 -0.3422
 8773SOL     OW34857   4.051   6.295   5.853 -0.2509  0.2788 -0.5633
 8773SOL    HW234858   3.988   6.245   5.800 -1.2117 -0.7415  1.4189
 8773SOL    HW334859   4.003   6.372   5.882 -0.8826 -0.7931  1.4420
 8773SOL    MW434860   4.036   6.298   5.850 -0.4610  0.0028 -0.0372
 8774SOL     OW34861   1.522   5.780   1.104 -0.0594  0.1173  0.1780
 8774SOL    HW234862   1.575   5.816   1.175  0.9499  0.6202 -0.8010
 8774SOL    HW334863   1.495   5.694   1.135  3.1428 -1.0954 -0.0907
 8774SOL    MW434864   1.525   5.773   1.117  0.4963  0.0237  0.0134
 8775SOL     OW34865   1.928   4.183   3.693  0.1065 -0.5798 -0.5839
 8775SOL    HW234866   1.851   4.125   3.691  1.2438 -2.1833 -2.7946
 8775SOL    HW334867   1.974   4.159   3.773 -1.6329  0.4378  0.8061
 8775SOL    MW434868   1.924   4.172   3.703  0.0271 -0.6571 -0.6922
 8776SOL     OW34869   1.349   5.724   2.548 -0.3001 -0.4757  0.2754
 8776SOL    HW234870   1.434   5.729   2.593 -0.4929 -0.9195  0.7031
 8776SOL    HW334871   1.366   5.759   2.460  0.0447  0.5858  0.7443
 8776SOL    MW434872   1.363   5.729   2.542 -0.2801 -0.3942  0.3937
 8777SOL     OW34873   5.838   1.439   1.994 -0.1277  0.9109  0.1991
 8777SOL    HW234874   5.879   1.509   1.943  1.6275  0.1116  0.4637
 8777SOL    HW334875   5.901   1.420   2.064 -1.0072 -0.2806  0.6979
 8777SOL    MW434876   5.852   1.446   1.997 -0.0121  0.6482  0.2998
 8778SOL     OW34877   3.638   5.960   0.542  0.1268 -0.5968 -0.3326
 8778SOL    HW234878   3.561   5.903   0.542  1.1801 -2.0672 -0.2262
 8778SOL    HW334879   3.704   5.912   0.592  1.8940 -0.4878 -2.3964
 8778SOL    MW434880   3.636   5.946   0.548  0.4989 -0.7764 -0.5909
 8779SOL     OW34881   1.258   3.586   0.237  0.3069 -0.0396  0.4077
 8779SOL    HW234882   1.184   3.620   0.287 -0.1378 -0.8195  0.2916
 8779SOL    HW334883   1.230   3.591   0.146  0.6963  0.3645  0.3058
 8779SOL    MW434884   1.245   3.591   0.232  0.2996 -0.0892  0.3789
 8780SOL     OW34885   2.732   1.533   3.323 -0.0121 -0.1015  0.4361
 8780SOL    HW234886   2.783   1.486   3.258 -0.2734  0.1762  0.0264
 8780SOL    HW334887   2.696   1.465   3.380 -2.1218 -0.6020 -1.3745
 8780SOL    MW434888   2.734   1.518   3.322 -0.3249 -0.1309  0.1432
 8781SOL     OW34889   0.531   1.786   4.789  0.4848  0.1935  0.0646
 8781SOL    HW234890   0.512   1.875   4.760 -1.0968 -0.4458 -1.0068
 8781SOL    HW334891   0.459   1.764   4.847 -0.6972 -1.2982 -1.8312
 8781SOL    MW434892   0.519   1.795   4.793  0.1201 -0.0877 -0.3269
 8782SOL     OW34893   4.585   3.205   5.002 -0.3937  0.7711 -0.4925
 8782SOL    HW234894   4.512   3.144   4.988 -1.1959  1.7095 -0.4558
 8782SOL    HW334895   4.584   3.222   5.096  0.8251 -0.3499 -0.2387
 8782SOL    MW434896   4.575   3.199   5.012 -0.3387  0.7470 -0.4541
 8783SOL     OW34897   3.112   0.189   0.354  0.5106  0.1207  0.5129
 8783SOL    HW234898   3.118   0.096   0.335 -0.7489 -0.3555  2.2376
 8783SOL    HW334899   3.134   0.196   0.447 -2.1084  1.1391  1.1395
 8783SOL    MW434900   3.116   0.178   0.364 -0.0011  0.1923  0.8232
 8784SOL     OW34901   4.558   5.758   0.304 -0.1234  0.3153 -0.6433
 8784SOL    HW234902   4.552   5.794   0.393 -0.2959  3.8668 -1.9231
 8784SOL    HW334903   4.469   5.765   0.269  0.0955 -0.3123 -1.3466
 8784SOL    MW434904   4.546   5.764   0.311 -0.1173  0.7010 -0.9050
 8785SOL     OW34905   6.297   0.695   3.993  0.3729 -0.5446 -0.2913
 8785SOL    HW234906   6.257   0.755   4.056  1.5883  0.8930 -0.8336
 8785SOL    HW334907   6.225   0.670   3.935  0.1418  1.8954 -1.1822
 8785SOL    MW434908   6.282   0.700   3.993  0.5028 -0.0330 -0.4804
 8786SOL     OW34909   4.661   3.405   2.342  0.0666 -0.4237  0.1422
 8786SOL    HW234910   4.657   3.489   2.387  1.9439  0.4747 -1.2133
 8786SOL    HW334911   4.581   3.401   2.289  0.6833  1.2806 -0.9922
 8786SOL    MW434912   4.650   3.415   2.341  0.3956 -0.0803 -0.1863
 8787SOL     OW34913   3.921   1.567   2.705  0.0916  0.0524  0.1283
 8787SOL    HW234914   3.915   1.656   2.672 -1.1475 -0.6913 -1.8283
 8787SOL    HW334915   3.830   1.536   2.710  0.5217 -1.3297  0.0205
 8787SOL    MW434916   3.908   1.574   2.701 -0.0151 -0.2281 -0.1441
 8788SOL     OW34917   0.160   3.629   0.438 -0.0286  0.0922 -0.2677
 8788SOL    HW234918   0.172   3.722   0.460 -0.1056  0.1951 -0.6405
 8788SOL    HW334919   0.190   3.623   0.347 -0.1301 -0.2265 -0.2793
 8788SOL    MW434920   0.166   3.641   0.429 -0.0521  0.0637 -0.3184
 8789SOL     OW34921   4.246   2.946   5.484 -0.5910 -0.6369  0.6812
 8789SOL    HW234922   4.209   3.003   5.417 -1.6346 -0.2079  1.5897
 8789SOL    HW334923   4.252   2.860   5.442 -0.1581 -0.1297 -0.3055
 8789SOL    MW434924   4.242   2.942   5.470 -0.6715 -0.5134  0.6709
 8790SOL     OW34925   0.101   0.354   5.086  0.1633  0.0429  0.3237
 8790SOL    HW234926   0.108   0.448   5.073  0.9280  0.2410  1.9356
 8790SOL    HW334927   0.087   0.319   4.998  0.0676  1.6299 -0.3287
 8790SOL    MW434928   0.100   0.362   5.072  0.2516  0.2784  0.4503
 8791SOL     OW34929   1.178   3.203   3.000 -0.1474  0.1829  0.8641
 8791SOL    HW234930   1.253   3.245   3.042 -2.0994  2.0444  2.7782
 8791SOL    HW334931   1.150   3.137   3.064 -0.3727 -0.2414  0.3336
 8791SOL    MW434932   1.184   3.200   3.014 -0.4347  0.3725  1.0467
 8792SOL     OW34933   2.062   5.482   5.795 -0.0052 -0.0440  0.6906
 8792SOL    HW234934   2.132   5.548   5.801 -1.3267  1.3173  2.1289
 8792SOL    HW334935   2.109   5.399   5.788  1.7597  0.8626  1.0136
 8792SOL    MW434936   2.077   5.480   5.795  0.0533  0.2552  0.9230
 8793SOL     OW34937   4.896   0.857   1.259 -0.2539 -0.1403  0.1403
 8793SOL    HW234938   4.810   0.837   1.223 -0.1542 -0.5478  0.1167
 8793SOL    HW334939   4.958   0.825   1.193 -0.0799 -0.3499  0.4000
 8793SOL    MW434940   4.893   0.850   1.246 -0.2178 -0.2217  0.1714
 8794SOL     OW34941   3.469   4.655   2.562 -0.1850 -0.5275 -0.5299
 8794SOL    HW234942   3.477   4.722   2.494  0.1731  0.0711  0.0969
 8794SOL    HW334943   3.471   4.572   2.514 -0.6922 -0.0960 -1.3166
 8794SOL    MW434944   3.470   4.653   2.547 -0.2046 -0.3916 -0.5510
 8795SOL     OW34945   0.596   5.795   1.407  0.6029  0.4959 -0.6271
 8795SOL    HW234946   0.554   5.760   1.328  0.8317 -0.4049 -0.3618
 8795SOL    HW334947   0.652   5.866   1.374 -0.8351  1.4784 -1.0147
 8795SOL    MW434948   0.598   5.800   1.392  0.4433  0.5067 -0.6433
 8796SOL     OW34949   1.191   2.915   1.491  0.3249  0.1111  0.4578
 8796SOL    HW234950   1.268   2.889   1.542 -0.1450 -0.0219  1.1312
 8796SOL    HW334951   1.184   2.849   1.422  1.7775  1.0842 -0.6614
 8796SOL    MW434952   1.200   2.903   1.489  0.4546  0.2219  0.3990
 8797SOL     OW34953   0.344   1.457   4.680 -0.8165 -0.5312  0.2739
 8797SOL    HW234954   0.365   1.469   4.773  3.7182 -1.4836 -0.3862
 8797SOL    HW334955   0.348   1.546   4.643 -1.6017 -0.2733  0.7809
 8797SOL    MW434956   0.347   1.471   4.688 -0.3218 -0.6228  0.2537
 8798SOL     OW34957   1.065   6.060   0.261 -0.1848  0.4352  0.1204
 8798SOL    HW234958   1.025   6.116   0.194  0.0692  0.4801  0.0036
 8798SOL    HW334959   1.003   5.989   0.274 -0.3272  0.5343 -0.0202
 8798SOL    MW434960   1.052   6.058   0.254 -0.1701  0.4542  0.0864
 8799SOL     OW34961   1.213   6.150   3.586 -0.2854  1.1093 -1.0102
 8799SOL    HW234962   1.286   6.124   3.530 -0.5509  1.0653 -1.3394
 8799SOL    HW334963   1.254   6.191   3.662  0.3635 -2.3446  0.7451
 8799SOL    MW434964   1.228   6.152   3.589 -0.2348  0.6478 -0.8221
 8800SOL     OW34965   2.183   6.287   2.087  0.0987 -0.1303 -0.0046
 8800SOL    HW234966   2.170   6.277   2.182  2.6560  0.2649  0.4697
 8800SOL    HW334967   2.213   6.201   2.059  2.1674  0.4953  0.1493
 8800SOL    MW434968   2.185   6.274   2.096  0.7091  0.0043  0.0782
 8801SOL     OW34969   4.029   6.068   1.843  0.4505  0.1824 -0.0956
 8801SOL    HW234970   4.124   6.062   1.857  0.9519  2.6981 -1.6988
 8801SOL    HW334971   4.016   6.155   1.805 -2.2058 -0.9885 -2.2107
 8801SOL    MW434972   4.040   6.078   1.839  0.1662  0.3598 -0.5862
 8802SOL     OW34973   2.032   2.777   5.674 -0.0732  0.4758  0.7388
 8802SOL    HW234974   2.124   2.765   5.651 -0.2775  1.0346 -0.4689
 8802SOL    HW334975   1.988   2.700   5.639 -0.2573  0.8949  0.0247
 8802SOL    MW434976   2.038   2.765   5.666 -0.1245  0.6048  0.4853
 8803SOL     OW34977   4.461   4.779   6.337 -0.1030 -0.1105 -0.2420
 8803SOL    HW234978   4.521   4.736   6.277  1.1549 -0.6375  1.3200
 8803SOL    HW334979   4.478   4.872   6.326  1.5403 -0.2635  0.6300
 8803SOL    MW434980   4.471   4.785   6.328  0.2798 -0.2002  0.0791
 8804SOL     OW34981   1.743   5.403   0.216 -0.0678 -0.1950 -0.5118
 8804SOL    HW234982   1.752   5.370   0.305 -3.1057 -1.0123 -0.3966
 8804SOL    HW334983   1.707   5.491   0.226  0.3358  0.0234 -0.9343
 8804SOL    MW434984   1.740   5.410   0.229 -0.4153 -0.2740 -0.5524
 8805SOL     OW34985   5.270   0.442   6.115 -0.2972  0.2568  0.1648
 8805SOL    HW234986   5.226   0.523   6.089 -2.8550 -0.4914  1.7930
 8805SOL    HW334987   5.220   0.373   6.072  0.3858 -0.5743  0.6851
 8805SOL    MW434988   5.258   0.444   6.106 -0.5446  0.0484  0.4483
 8806SOL     OW34989   2.535   3.487   3.883  0.2531  1.0127  0.3124
 8806SOL    HW234990   2.533   3.579   3.908  1.5574  1.1706 -0.0557
 8806SOL    HW334991   2.453   3.473   3.837 -1.1953  1.2727  2.6470
 8806SOL    MW434992   2.524   3.497   3.880  0.2341  1.0679  0.5718
 8807SOL     OW34993   4.389   0.943   0.672  0.4156  0.2158  0.1028
 8807SOL    HW234994   4.461   0.988   0.626  0.4246  0.7956  0.6657
 8807SOL    HW334995   4.430   0.908   0.751 -0.3731  2.7119  1.7342
 8807SOL    MW434996   4.404   0.945   0.677  0.3127  0.6216  0.3923
 8808SOL     OW34997   0.547   5.714   3.335 -0.6124 -0.3224 -0.3898
 8808SOL    HW234998   0.584   5.644   3.282  1.1313  2.6299 -3.5102
 8808SOL    HW334999   0.621   5.749   3.384 -0.5502  1.4708 -1.6360
 8808SOL    MW435000   0.562   5.709   3.334 -0.3741  0.3037 -0.9659
 8809SOL     OW35001   1.717   4.152   3.121 -0.3152  0.2725 -0.2881
 8809SOL    HW235002   1.727   4.065   3.159 -1.1310 -0.2592 -1.2515
 8809SOL    HW335003   1.686   4.207   3.193 -2.3522 -0.8336 -0.2436
 8809SOL    MW435004   1.714   4.148   3.135 -0.6916  0.0564 -0.4093
 8810SOL     OW35005   1.147   2.272   2.222  0.7588 -0.0299 -0.5560
 8810SOL    HW235006   1.139   2.179   2.200  0.2803 -0.4949  1.4086
 8810SOL    HW335007   1.086   2.285   2.295  0.8159  1.8358 -0.7977
 8810SOL    MW435008   1.138   2.261   2.229  0.7032  0.1549 -0.3287
 8811SOL     OW35009   6.250   1.194   2.461 -0.1932 -0.4370  0.2405
 8811SOL    HW235010   6.183   1.190   2.392  0.8759  1.8390 -1.0243
 8811SOL    HW335011   6.318   1.133   2.432 -1.3510 -2.2845  1.2172
 8811SOL    MW435012   6.250   1.185   2.448 -0.2049 -0.3805  0.2025
 8812SOL     OW35013   4.645   1.921   4.315 -0.3328 -0.0979  0.1549
 8812SOL    HW235014   4.550   1.911   4.310 -0.1375 -3.6891  0.9118
 8812SOL    HW335015   4.677   1.900   4.227 -0.1485 -2.5922  0.7364
 8812SOL    MW435016   4.637   1.917   4.303 -0.2828 -0.9008  0.3315
 8813SOL     OW35017   5.273   1.302   4.820  0.3309  0.0364  0.2062
 8813SOL    HW235018   5.362   1.318   4.790 -0.0285  0.4429 -0.6778
 8813SOL    HW335019   5.254   1.373   4.880 -0.1314  1.1960 -1.2508
 8813SOL    MW435020   5.282   1.313   4.824  0.2225  0.2430 -0.1027
 8814SOL     OW35021   0.603   5.306   3.702 -0.1752 -0.2591  0.7584
 8814SOL    HW235022   0.622   5.215   3.726 -2.0367 -0.9287 -0.1225
 8814SOL    HW335023   0.684   5.337   3.661 -0.0507 -2.0926 -0.5014
 8814SOL    MW435024   0.617   5.298   3.700 -0.4044 -0.5894  0.4759
 8815SOL     OW35025   6.341   3.051   4.736  0.1842 -0.5458  0.4619
 8815SOL    HW235026   6.334   3.116   4.667 -0.8399  0.0753  1.1248
 8815SOL    HW335027   6.326   2.967   4.692  0.5494 -0.2583 -0.2240
 8815SOL    MW435028   6.338   3.048   4.721  0.0973 -0.4259  0.4588
 8816SOL     OW35029   2.292   3.035   3.492 -0.5560  0.2363  0.1618
 8816SOL    HW235030   2.387   3.026   3.485 -0.6372 -0.6514  0.0606
 8816SOL    HW335031   2.258   2.973   3.427 -1.2016  0.1529  0.5734
 8816SOL    MW435032   2.300   3.025   3.483 -0.6519  0.1082  0.2028
 8817SOL     OW35033   4.395   4.186   4.675  0.0786  0.0687 -1.0020
 8817SOL    HW235034   4.312   4.148   4.705  0.2202  0.7925  0.3721
 8817SOL    HW335035   4.370   4.253   4.612 -0.4425  0.9178  0.0939
 8817SOL    MW435036   4.381   4.190   4.671  0.0285  0.2762 -0.6761
 8818SOL     OW35037   5.537   5.103   0.750 -0.3928  0.3270  0.2797
 8818SOL    HW235038   5.521   5.127   0.842  0.3223  0.8792  0.2700
 8818SOL    HW335039   5.622   5.142   0.730 -0.3553 -0.1409 -0.5008
 8818SOL    MW435040   5.546   5.111   0.760 -0.2935  0.3381  0.1755
 8819SOL     OW35041   1.406   6.178   1.725  0.4109 -0.2708 -0.1655
 8819SOL    HW235042   1.414   6.092   1.766  3.1064  0.2999  0.7359
 8819SOL    HW335043   1.430   6.163   1.634 -1.3534 -0.8063 -0.5779
 8819SOL    MW435044   1.410   6.165   1.719  0.5338 -0.2661 -0.1010
 8820SOL     OW35045   4.874   3.021   4.604  0.3699  0.0686 -0.4766
 8820SOL    HW235046   4.847   2.972   4.526  0.6946 -0.4073 -0.2938
 8820SOL    HW335047   4.964   3.047   4.586  0.2066  0.5812 -0.5617
 8820SOL    MW435048   4.882   3.018   4.591  0.3912  0.0734 -0.4637
 8821SOL     OW35049   5.367   0.429   5.031  0.6328  0.2018  0.5335
 8821SOL    HW235050   5.310   0.360   4.997 -0.2806  0.8985  0.6359
 8821SOL    HW335051   5.452   0.411   4.991 -0.4480  1.1836 -2.4817
 8821SOL    MW435052   5.371   0.418   5.021  0.3697  0.4233  0.1492
 8822SOL     OW35053   2.509   5.511   1.451 -0.1719 -0.6222  0.4873
 8822SOL    HW235054   2.548   5.507   1.364  3.8298  2.2312  1.8055
 8822SOL    HW335055   2.571   5.462   1.506 -0.1049  1.3433  2.2869
 8822SOL    MW435056   2.523   5.504   1.447  0.3649  0.0136  0.8986
 8823SOL     OW35057   1.045   0.326   1.966  0.5501 -0.3950 -0.3711
 8823SOL    HW235058   1.054   0.296   2.056  1.9129  1.8590  0.3286
 8823SOL    HW335059   1.005   0.252   1.920 -0.2998 -1.5629  2.0750
 8823SOL    MW435060   1.041   0.312   1.972  0.6178 -0.2517  0.0440
 8824SOL     OW35061   3.617   2.843   1.374 -0.0006  0.6541  0.9269
 8824SOL    HW235062   3.590   2.932   1.399 -0.6346  1.1602 -1.3309
 8824SOL    HW335063   3.592   2.836   1.282 -0.4994 -2.0934  1.2125
 8824SOL    MW435064   3.610   2.854   1.365 -0.1500  0.3584  0.6667
 8825SOL     OW35065   3.943   2.445   5.857 -0.2173 -0.2056 -0.2958
 8825SOL    HW235066   3.942   2.536   5.827  1.4895  0.4618  1.4074
 8825SOL    HW335067   3.912   2.449   5.948  0.7120 -1.1752  0.0864
 8825SOL    MW435068   3.939   2.457   5.865  0.1305 -0.2455 -0.0207
 8826SOL     OW35069   0.751   1.956   0.128 -0.5815 -0.2408 -0.4468
 8826SOL    HW235070   0.840   1.988   0.109 -0.9469  0.7142 -0.5848
 8826SOL    HW335071   0.765   1.872   0.172  0.3562 -1.1797 -2.3963
 8826SOL    MW435072   0.765   1.949   0.132 -0.5060 -0.2387 -0.7222
 8827SOL     OW35073   2.829   4.767   5.587 -0.1135 -0.3294  0.8722
 8827SOL    HW235074   2.799   4.853   5.558  0.4381  0.0267  1.3495
 8827SOL    HW335075   2.917   4.759   5.552 -1.1168 -1.8785 -1.5494
 8827SOL    MW435076   2.836   4.777   5.578 -0.1731 -0.4868  0.6156
 8828SOL     OW35077   1.310   4.693   1.986 -0.1380 -0.1535  0.1145
 8828SOL    HW235078   1.372   4.702   2.059  0.6723 -0.3763 -0.5347
 8828SOL    HW335079   1.224   4.710   2.026  0.4173  1.2112  0.8311
 8828SOL    MW435080   1.307   4.697   2.001  0.0422 -0.0029  0.1234
 8829SOL     OW35081   2.000   4.660   4.291  0.0574 -0.2608  0.2907
 8829SOL    HW235082   2.045   4.586   4.250 -3.2663 -2.1256 -0.3907
 8829SOL    HW335083   1.992   4.635   4.383  0.6028  0.2241  0.4811
 8829SOL    MW435084   2.005   4.647   4.298 -0.3092 -0.4428  0.2259
 8830SOL     OW35085   0.505   4.957   4.571 -0.2058 -0.2829 -0.3889
 8830SOL    HW235086   0.454   4.882   4.601 -0.2208 -0.4494 -0.8247
 8830SOL    HW335087   0.573   4.967   4.637 -0.7749 -0.0806  0.1783
 8830SOL    MW435088   0.507   4.948   4.584 -0.2829 -0.2782 -0.3715
 8831SOL     OW35089   6.334   5.475   5.491 -0.1534 -0.2453  0.3243
 8831SOL    HW235090   6.359   5.385   5.471  0.6426  0.0537 -0.0548
 8831SOL    HW335091   6.391   5.501   5.563  0.7665  0.4845 -0.6336
 8831SOL    MW435092   6.345   5.467   5.498  0.0730 -0.1095  0.1479
 8832SOL     OW35093   2.021   5.486   4.154 -0.1645  0.1585  0.0156
 8832SOL    HW235094   1.956   5.420   4.176 -0.5389 -0.0222 -1.5051
 8832SOL    HW335095   2.029   5.481   4.059  3.0723 -0.7912  0.1995
 8832SOL    MW435096   2.014   5.477   4.144  0.2132  0.0094 -0.1608
 8833SOL     OW35097   4.923   0.330   2.835 -0.0012  0.4383 -0.5428
 8833SOL    HW235098   4.934   0.385   2.912 -0.0037  1.0522 -0.9777
 8833SOL    HW335099   4.854   0.372   2.784 -0.4335 -0.2981 -0.5911
 8833SOL    MW435100   4.915   0.342   2.838 -0.0585  0.4222 -0.6066
 8834SOL     OW35101   6.256   2.551   4.591 -0.4271 -0.3263 -0.5776
 8834SOL    HW235102   6.315   2.492   4.639  0.7348  1.3735  0.1720
 8834SOL    HW335103   6.169   2.518   4.611  0.1899 -2.1128 -0.6267
 8834SOL    MW435104   6.252   2.538   4.600 -0.1924 -0.3378 -0.4852
 8835SOL     OW35105   2.038   3.852   4.206  0.2506  0.1121  0.1939
 8835SOL    HW235106   2.076   3.877   4.122  1.0325  1.4247  0.8935
 8835SOL    HW335107   1.953   3.814   4.184  1.1365 -1.1246 -1.2825
 8835SOL    MW435108   2.032   3.850   4.192  0.4706  0.1221  0.0914
 8836SOL     OW35109   2.831   4.769   0.295 -0.3829  0.1092 -0.3430
 8836SOL    HW235110   2.769   4.821   0.245 -0.7019  2.6855  2.4642
 8836SOL    HW335111   2.785   4.747   0.376  1.3790 -0.4405  0.5734
 8836SOL    MW435112   2.817   4.773   0.299 -0.1925  0.3766  0.1482
 8837SOL     OW35113   4.744   4.511   3.344  0.0469  0.1807 -0.1692
 8837SOL    HW235114   4.805   4.522   3.270 -1.3902  0.9032 -1.2908
 8837SOL    HW335115   4.698   4.594   3.350 -1.5000 -0.6533  0.0167
 8837SOL    MW435116   4.746   4.523   3.335 -0.3468  0.1660 -0.2927
 8838SOL     OW35117   0.538   3.671   6.005  0.4948 -0.1859 -0.1078
 8838SOL    HW235118   0.603   3.615   6.046  0.3307  0.2935  0.8196
 8838SOL    HW335119   0.469   3.681   6.070  0.3209  0.7510 -0.4082
 8838SOL    MW435120   0.537   3.665   6.019  0.4502  0.0009 -0.0251
 8839SOL     OW35121   3.674   0.447   4.787 -0.0443  0.2871 -0.1760
 8839SOL    HW235122   3.581   0.432   4.771  0.1215  0.8657 -1.8117
 8839SOL    HW335123   3.682   0.445   4.883 -1.5477 -0.7814 -0.0338
 8839SOL    MW435124   3.663   0.444   4.798 -0.2208  0.2224 -0.3730
 8840SOL     OW35125   0.959   6.359   3.256  0.0937  0.2664  0.2354
 8840SOL    HW235126   0.933   6.448   3.234 -1.7891 -0.4326 -0.6007
 8840SOL    HW335127   0.999   6.325   3.176  1.3431  0.5208  0.7328
 8840SOL    MW435128   0.961   6.366   3.243  0.0102  0.2078  0.1907
 8841SOL     OW35129   0.562   3.250   3.532 -0.0340  0.2961 -0.1340
 8841SOL    HW235130   0.624   3.314   3.498  1.4488 -1.4388 -0.9147
 8841SOL    HW335131   0.511   3.297   3.598  0.1410  2.5478 -1.5175
 8841SOL    MW435132   0.563   3.265   3.536  0.1847  0.3642 -0.4195
 8842SOL     OW35133   3.841   3.294   5.453 -0.1972 -0.2961  0.2873
 8842SOL    HW235134   3.848   3.204   5.420 -2.1472 -0.6599  0.7316
 8842SOL    HW335135   3.749   3.317   5.438  0.0454  1.2779  1.0744
 8842SOL    MW435136   3.830   3.285   5.446 -0.4225 -0.1364  0.4498
 8843SOL     OW35137   3.854   0.831   4.896 -0.1737  0.3726  0.3722
 8843SOL    HW235138   3.945   0.811   4.919 -0.0076 -0.2838 -0.7899
 8843SOL    HW335139   3.832   0.767   4.829 -2.2446 -0.9679  2.2377
 8843SOL    MW435140   3.863   0.820   4.890 -0.4250  0.1091  0.4650
 8844SOL     OW35141   4.623   0.769   4.351  0.6290  0.4833 -0.2745
 8844SOL    HW235142   4.687   0.806   4.412  0.1476 -0.1637  0.6506
 8844SOL    HW335143   4.540   0.808   4.377  0.0939 -1.2520  0.7851
 8844SOL    MW435144   4.621   0.779   4.363  0.4949  0.1690 -0.0126
 8845SOL     OW35145   4.813   0.077   4.972 -0.1527  0.1542 -0.9144
 8845SOL    HW235146   4.877   0.129   5.020  0.8714 -0.7438 -1.2608
 8845SOL    HW335147   4.761   0.142   4.923  0.6854  0.8867 -0.8605
 8845SOL    MW435148   4.815   0.093   4.972  0.0930  0.1324 -0.9530
 8846SOL     OW35149   0.122   3.110   3.663  0.1248  0.3669 -0.0389
 8846SOL    HW235150   0.058   3.039   3.665  1.1005 -0.5352  1.8233
 8846SOL    HW335151   0.206   3.067   3.646  0.4916  1.3236 -0.7501
 8846SOL    MW435152   0.125   3.095   3.661  0.3019  0.3741  0.1130
 8847SOL     OW35153   3.761   4.239   1.263  0.2436 -0.5969  0.0790
 8847SOL    HW235154   3.667   4.221   1.271  0.2258 -1.9581 -2.1597
 8847SOL    HW335155   3.766   4.314   1.204  0.5712  0.0382  0.8951
 8847SOL    MW435156   3.749   4.246   1.256  0.2844 -0.6927 -0.1087
 8848SOL     OW35157   3.030   4.064   1.705 -0.5287 -0.2007 -0.4688
 8848SOL    HW235158   3.080   4.038   1.782  0.3402  0.8063 -0.6760
 8848SOL    HW335159   3.025   3.985   1.652 -1.7457 -1.1124  0.9142
 8848SOL    MW435160   3.036   4.050   1.708 -0.5746 -0.1881 -0.3136
 8849SOL     OW35161   3.302   3.630   1.712 -0.0402 -0.0475 -0.1094
 8849SOL    HW235162   3.389   3.614   1.674 -0.7555  0.6203 -2.1589
 8849SOL    HW335163   3.269   3.542   1.733  1.1694 -0.2978  0.8670
 8849SOL    MW435164   3.309   3.616   1.710  0.0250  0.0076 -0.2510
 8850SOL     OW35165   1.964   2.140   1.631 -0.2885  0.3733  0.3831
 8850SOL    HW235166   1.978   2.199   1.705  2.5972  1.0321 -0.5348
 8850SOL    HW335167   2.014   2.180   1.559 -1.8822 -0.9305 -1.5698
 8850SOL    MW435168   1.973   2.153   1.631 -0.1181  0.2882  0.0043
 8851SOL     OW35169   3.652   5.021   6.090 -0.2051 -0.2682  0.5614
 8851SOL    HW235170   3.643   4.928   6.110 -0.6720 -0.3378  0.0263
 8851SOL    HW335171   3.563   5.055   6.091 -0.2492 -0.2510 -1.2931
 8851SOL    MW435172   3.639   5.013   6.093 -0.2726 -0.2751  0.2461
 8852SOL     OW35173   5.809   0.624   4.376  0.2896  0.1286  0.2253
 8852SOL    HW235174   5.876   0.571   4.419 -1.1596 -0.6575  1.6269
 8852SOL    HW335175   5.834   0.714   4.395  1.8420 -0.0699 -0.7252
 8852SOL    MW435176   5.821   0.629   4.384  0.3032 -0.0013  0.2848
 8853SOL     OW35177   3.462   5.046   4.028 -0.5859 -0.3423 -0.0283
 8853SOL    HW235178   3.424   4.966   4.064 -0.1236 -0.8773 -0.6903
 8853SOL    HW335179   3.549   5.019   3.997 -1.4854 -0.3003 -2.8518
 8853SOL    MW435180   3.469   5.032   4.028 -0.6436 -0.4073 -0.4882
 8854SOL     OW35181   5.998   2.858   5.042 -0.0653  0.4792  0.1542
 8854SOL    HW235182   5.998   2.952   5.063  0.6723  0.1951  1.6056
 8854SOL    HW335183   6.086   2.828   5.066 -0.6410 -0.7915  0.7948
 8854SOL    MW435184   6.009   2.866   5.048 -0.0440  0.2740  0.4302
 8855SOL     OW35185   5.933   4.106   0.406 -0.1408  0.0414  0.0961
 8855SOL    HW235186   6.024   4.132   0.423 -0.0521  0.1303 -0.4733
 8855SOL    HW335187   5.908   4.157   0.329  0.0277 -1.5181 -1.0281
 8855SOL    MW435188   5.942   4.116   0.398 -0.1068 -0.1526 -0.1273
 8856SOL     OW35189   6.153   3.566   2.788 -0.8600 -0.4777 -0.7591
 8856SOL    HW235190   6.176   3.578   2.696 -0.6719  0.3696 -0.6098
 8856SOL    HW335191   6.091   3.493   2.788  1.2642 -2.4059 -1.2421
 8856SOL    MW435192   6.148   3.558   2.776 -0.5549 -0.6203 -0.8031
 8857SOL     OW35193   0.636   6.398   3.870 -0.0428  0.7788 -0.5697
 8857SOL    HW235194   0.571   6.333   3.897  0.3735  0.0911 -1.1962
 8857SOL    HW335195   0.600   6.437   3.791  0.0964  0.6985 -0.6750
 8857SOL    MW435196   0.623   6.394   3.863  0.0305  0.6775 -0.6663
 8858SOL     OW35197   2.441   4.097   0.610 -0.1691 -0.1956  0.0117
 8858SOL    HW235198   2.430   4.094   0.515  1.1619  0.8112 -0.2104
 8858SOL    HW335199   2.523   4.050   0.626  0.3353  0.8249  0.4985
 8858SOL    MW435200   2.450   4.090   0.599  0.0731  0.0719  0.0466
 8859SOL     OW35201   5.015   4.269   3.604  0.1600 -0.2194  0.2139
 8859SOL    HW235202   5.079   4.211   3.646 -0.0841 -2.1682 -1.9138
 8859SOL    HW335203   4.931   4.241   3.639  0.1942  0.2617  0.6994
 8859SOL    MW435204   5.013   4.258   3.614  0.1323 -0.4131 -0.0028
 8860SOL     OW35205   1.360   4.720   1.273 -0.1731 -0.0462  0.0848
 8860SOL    HW235206   1.364   4.637   1.320  0.3212 -0.4710 -0.6982
 8860SOL    HW335207   1.451   4.750   1.269  0.1530 -1.1387 -2.5671
 8860SOL    MW435208   1.373   4.713   1.279 -0.0649 -0.2464 -0.3684
 8861SOL     OW35209   2.420   4.058   6.240  0.2341 -0.0400 -0.2080
 8861SOL    HW235210   2.340   4.017   6.208  0.3865 -1.1618  0.7813
 8861SOL    HW335211   2.450   4.001   6.311  2.4456 -0.1936 -1.1755
 8861SOL    MW435212   2.414   4.045   6.245  0.5460 -0.2082 -0.2051
 8862SOL     OW35213   2.668   3.803   5.149 -0.4399  0.0029  0.3125
 8862SOL    HW235214   2.630   3.836   5.068  1.5291  0.6362 -0.4181
 8862SOL    HW335215   2.672   3.879   5.207 -0.4271 -0.0951  0.4409
 8862SOL    MW435216   2.664   3.817   5.146 -0.1784  0.0736  0.2330
 8863SOL     OW35217   5.235   5.121   1.172 -0.3209  0.6078  0.3090
 8863SOL    HW235218   5.162   5.083   1.124  0.8085 -1.9593  0.4501
 8863SOL    HW335219   5.217   5.100   1.264 -0.0581  1.1430  0.4879
 8863SOL    MW435220   5.223   5.113   1.178 -0.1372  0.3397  0.3512
 8864SOL     OW35221   0.033   1.328   4.051 -0.2285  0.3485 -0.0836
 8864SOL    HW235222   0.087   1.261   4.093 -0.8987  0.2844  0.7036
 8864SOL    HW335223   0.092   1.403   4.040  0.5931 -0.4306 -1.2020
 8864SOL    MW435224   0.048   1.329   4.055 -0.2085  0.2373 -0.1273
 8865SOL     OW35225   0.659   3.221   2.114  0.0875  0.1000 -0.0356
 8865SOL    HW235226   0.617   3.178   2.039  2.7290  0.4809 -1.8902
 8865SOL    HW335227   0.595   3.214   2.185 -2.0708 -1.3532 -1.9739
 8865SOL    MW435228   0.645   3.214   2.113  0.1512 -0.0415 -0.5360
 8866SOL     OW35229   5.970   5.031   2.943  0.2415  0.3160 -0.1326
 8866SOL    HW235230   5.899   4.971   2.922 -0.3752  0.4738  1.3859
 8866SOL    HW335231   6.042   4.974   2.971  1.2713  0.0624 -2.9256
 8866SOL    MW435232   5.970   5.015   2.944  0.2960  0.3034 -0.3008
 8867SOL     OW35233   3.838   5.409   2.198 -0.7760  0.6124 -0.2183
 8867SOL    HW235234   3.814   5.487   2.248 -1.0017  0.5567 -0.2419
 8867SOL    HW335235   3.764   5.349   2.210 -1.3136  0.9973 -1.4893
 8867SOL    MW435236   3.825   5.411   2.206 -0.8767  0.6558 -0.3891
 8868SOL     OW35237   2.259   4.870   5.160 -0.0090 -0.0661 -0.6697
 8868SOL    HW235238   2.339   4.868   5.108 -0.6186  2.3040 -1.8799
 8868SOL    HW335239   2.274   4.941   5.223 -0.1689 -1.3744  0.8792
 8868SOL    MW435240   2.272   4.879   5.161 -0.1105  0.0740 -0.6250
 8869SOL     OW35241   3.809   1.497   0.050 -0.2639 -0.0943 -0.1338
 8869SOL    HW235242   3.769   1.472  -0.034  0.4846 -0.5440 -0.3671
 8869SOL    HW335243   3.739   1.542   0.097 -0.8428 -0.2699 -0.8015
 8869SOL    MW435244   3.794   1.500   0.045 -0.2415 -0.1768 -0.2526
 8870SOL     OW35245   1.199   3.971   2.101 -1.1389 -0.3531 -0.5204
 8870SOL    HW235246   1.260   3.899   2.083  0.9826  0.9103  1.1389
 8870SOL    HW335247   1.134   3.933   2.160  0.9276 -0.6359  1.7510
 8870SOL    MW435248   1.198   3.956   2.107 -0.5863 -0.2237 -0.0018
 8871SOL     OW35249   2.318   1.195   4.460  0.1726  0.7461 -0.0960
 8871SOL    HW235250   2.297   1.199   4.554  1.7149  0.3921  0.3025
 8871SOL    HW335251   2.239   1.161   4.419  0.1007 -0.9729  1.3445
 8871SOL    MW435252   2.305   1.191   4.467  0.3666  0.4726  0.1466
 8872SOL     OW35253   5.107   1.749   6.424  0.4280 -0.2777 -0.1637
 8872SOL    HW235254   5.152   1.752   6.340  0.9250 -0.7791  0.0810
 8872SOL    HW335255   5.122   1.660   6.456  0.1222 -0.1324  0.3876
 8872SOL    MW435256   5.115   1.738   6.417  0.4532 -0.3247 -0.0587
 8873SOL     OW35257   3.456   0.702   0.101 -0.0779  0.0328 -0.2692
 8873SOL    HW235258   3.518   0.762   0.143  0.3753  0.0870 -1.0128
 8873SOL    HW335259   3.509   0.628   0.073 -0.0718  0.6867 -2.1476
 8873SOL    MW435260   3.471   0.701   0.103 -0.0173  0.1262 -0.6151
 8874SOL     OW35261   1.073   4.863   0.681  0.1118  0.3652  0.2530
 8874SOL    HW235262   1.067   4.941   0.735  0.0700  1.0169 -0.6568
 8874SOL    HW335263   1.166   4.845   0.673  0.0892 -0.9507  2.1773
 8874SOL    MW435264   1.084   4.871   0.687  0.1033  0.2775  0.3868
 8875SOL     OW35265   2.501   4.852   5.039 -0.3839 -0.4212  0.3287
 8875SOL    HW235266   2.583   4.864   5.088 -0.5232 -0.3803  0.5513
 8875SOL    HW335267   2.524   4.792   4.969  0.9864  2.8291 -2.3087
 8875SOL    MW435268   2.515   4.846   5.036 -0.2215  0.0130  0.0101
 8876SOL     OW35269   0.595   0.202   4.222  0.0077  0.0944  0.2428
 8876SOL    HW235270   0.530   0.267   4.250  1.1383  1.3115  0.1113
 8876SOL    HW335271   0.648   0.186   4.299 -0.8254 -1.4190  0.5445
 8876SOL    MW435272   0.593   0.209   4.235  0.0469  0.0553  0.2652
 8877SOL     OW35273   0.132   0.874   1.542  0.0798  1.1315  0.1048
 8877SOL    HW235274   0.097   0.809   1.482 -0.3844  1.3331  0.1555
 8877SOL    HW335275   0.141   0.953   1.488  1.2186  0.8680 -0.1157
 8877SOL    MW435276   0.129   0.876   1.527  0.1688  1.1233  0.0824
 8878SOL     OW35277   2.292   2.328   2.537 -0.3069 -0.1686  0.7906
 8878SOL    HW235278   2.375   2.339   2.584  0.3203 -0.7774 -0.1491
 8878SOL    HW335279   2.264   2.417   2.517  0.7246  0.0136  0.1016
 8878SOL    MW435280   2.299   2.341   2.540 -0.0881 -0.2249  0.5757
 8879SOL     OW35281   2.213   5.760   4.916  0.5791 -0.1243 -0.0467
 8879SOL    HW235282   2.256   5.845   4.925  1.2738 -0.2527 -1.7754
 8879SOL    HW335283   2.122   5.777   4.941  0.5311  1.3168 -1.0813
 8879SOL    MW435284   2.206   5.773   4.921  0.6644  0.0489 -0.4113
 8880SOL     OW35285   4.758   1.262   5.731 -0.0149  0.2218 -0.1669
 8880SOL    HW235286   4.666   1.288   5.732  0.0500  0.4725  1.0542
 8880SOL    HW335287   4.799   1.322   5.668 -0.6635  0.1345 -0.6898
 8880SOL    MW435288   4.751   1.274   5.723 -0.0919  0.2434 -0.0748
 8881SOL     OW35289   4.172   1.503   2.571  0.2562 -0.2057  0.2653
 8881SOL    HW235290   4.179   1.555   2.491  1.8081  1.9208  1.6558
 8881SOL    HW335291   4.079   1.510   2.596 -0.0072  0.0534 -0.7430
 8881SOL    MW435292   4.160   1.511   2.564  0.4262  0.1091  0.3157
 8882SOL     OW35293   3.278   6.045   0.828  0.3182  0.7712 -1.0738
 8882SOL    HW235294   3.257   6.122   0.881  2.9276  0.3696  0.7120
 8882SOL    HW335295   3.358   6.071   0.780  0.1528 -0.1985 -1.9023
 8882SOL    MW435296   3.286   6.059   0.828  0.6407  0.5903 -0.9475
 8883SOL     OW35297   1.594   5.390   3.799  0.2506  0.7567  0.3103
 8883SOL    HW235298   1.588   5.383   3.704  1.5132  0.8929  0.2009
 8883SOL    HW335299   1.627   5.305   3.828  1.5087  1.2566  0.4324
 8883SOL    MW435300   1.598   5.378   3.790  0.5832  0.8407  0.3120
 8884SOL     OW35301   4.855   0.408   5.611 -0.4662  0.2621 -0.6958
 8884SOL    HW235302   4.945   0.376   5.610  0.1854  1.9866 -0.3040
 8884SOL    HW335303   4.832   0.419   5.518 -1.2845 -2.6939 -0.9494
 8884SOL    MW435304   4.864   0.405   5.598 -0.4882  0.0996 -0.6775
 8885SOL     OW35305   6.304   2.642   1.233 -0.2912 -0.4410  0.5469
 8885SOL    HW235306   6.381   2.694   1.254 -0.4216 -0.4241  0.9883
 8885SOL    HW335307   6.255   2.636   1.315 -1.1764  0.2355  0.0925
 8885SOL    MW435308   6.308   2.648   1.246 -0.4252 -0.3495  0.5452
 8886NA      NA35309   5.661   0.835   2.117 -0.0474  0.0398 -0.0228
 8887NA      NA35310   1.996   2.354   4.024 -0.0106 -0.2479  0.2043
 8888NA      NA35311   5.805   6.168   2.575 -0.3393 -0.6653 -0.0979
 8889NA      NA35312   5.053   4.675   5.346  0.0377  0.1530 -0.3868
 8890NA      NA35313   2.314   4.470   0.818  0.1770  0.1415  0.3841
 8891NA      NA35314   4.757   3.133   1.879 -0.0435 -0.4376 -0.3504
 8892NA      NA35315   2.598   1.916   3.905  0.1707 -0.1590  0.4081
   6.42920   6.42920   6.42920
